/*--------------------------------*- C++ -*----------------------------------*\
| =========                 |                                                 |
| \\      /  F ield         | OpenFOAM: The Open Source CFD Toolbox           |
|  \\    /   O peration     | Version:  2206                                  |
|   \\  /    A nd           | Website:  www.openfoam.com                      |
|    \\/     M anipulation  |                                                 |
\*---------------------------------------------------------------------------*/
FoamFile
{
    version     2.0;
    format      ascii;
    arch        "LSB;label=32;scalar=64";
    class       volScalarField;
    location    "30.5";
    object      nut;
}
// * * * * * * * * * * * * * * * * * * * * * * * * * * * * * * * * * * * * * //

dimensions      [0 2 -1 0 0 0 0];

internalField   nonuniform List<scalar> 
171728
(
0.000233972
0.000233116
0.000233116
0.000233422
0.000232531
0.000227802
0.000227801
0.000223867
0.000230521
0.000220329
0.000220326
0.000209122
0.000227837
0.000211721
0.000211716
0.000193805
0.000224374
0.000202562
0.000202556
0.000179682
0.000220568
0.000193845
0.000193838
0.000167587
0.000216371
0.000186087
0.000186079
0.000157471
0.00021638
0.000186644
0.000186636
0.000158505
0.000216941
0.000187733
0.000187725
0.000160246
0.000217051
0.000187929
0.000187921
0.000160513
0.000217056
0.000187944
0.000187936
0.000160526
0.000217058
0.000187949
0.00018794
0.000160535
0.000217084
0.000187998
0.000187991
0.000160556
0.000217083
0.000187999
0.000187992
0.000160593
0.000217082
0.000188
0.00018799
0.000160592
0.00021708
0.000187998
0.000187988
0.000160591
0.000217082
0.000187997
0.000187988
0.000160589
0.000217081
0.000187996
0.000187986
0.000160588
0.000217077
0.000187986
0.000187979
0.000160576
0.00021705
0.000187949
0.000187943
0.00016053
0.000217057
0.000187952
0.000187943
0.000160539
0.000217058
0.000187952
0.000187944
0.000160531
0.000217058
0.000187953
0.000187945
0.000160534
0.000217058
0.000187953
0.000187945
0.000160534
0.000217058
0.000187953
0.000187945
0.000160535
0.000217058
0.000187953
0.000187945
0.000160533
0.000217058
0.000187953
0.000187945
0.000160532
0.000217058
0.000187953
0.000187945
0.000160533
0.000217058
0.000187953
0.000187945
0.000160533
0.000217058
0.000187953
0.000187945
0.000160533
0.000217084
0.000188002
0.000187992
0.000160594
0.000217083
0.000188002
0.000187991
0.000160593
0.000217083
0.000187999
0.000187989
0.000160592
0.000217082
0.000187998
0.000187988
0.000160592
0.000217081
0.000187997
0.000187987
0.00016059
0.000217082
0.000187994
0.000187985
0.000160587
0.000217064
0.000187979
0.000187964
0.000160555
0.000217052
0.000187948
0.00018794
0.00016053
0.000217058
0.000187952
0.000187943
0.000160536
0.000217058
0.000187952
0.000187944
0.000160532
0.000217058
0.000187953
0.000187944
0.000160534
0.000217058
0.000187953
0.000187944
0.000160532
0.000217058
0.000187953
0.000187944
0.000160533
0.000217058
0.000187953
0.000187944
0.000160534
0.000217058
0.000187953
0.000187944
0.000160534
0.000217058
0.000187953
0.000187944
0.000160533
0.000217058
0.000187953
0.000187944
0.000160533
0.000217059
0.000187954
0.000187944
0.000160533
0.000217083
0.000188
0.000187991
0.000160589
0.000217083
0.000187999
0.00018799
0.00016059
0.000217083
0.000187997
0.000187988
0.00016059
0.000217084
0.000187996
0.000187987
0.000160589
0.000217083
0.000187998
0.000187988
0.000160589
0.000217081
0.000187992
0.000187982
0.000160583
0.000217054
0.00018796
0.000187951
0.000160539
0.000217056
0.000187951
0.000187942
0.000160536
0.000217058
0.000187952
0.000187943
0.000160533
0.000217058
0.000187953
0.000187944
0.000160533
0.000217058
0.000187953
0.000187944
0.000160534
0.000217058
0.000187953
0.000187944
0.000160533
0.000217058
0.000187953
0.000187944
0.000160532
0.000217058
0.000187953
0.000187944
0.000160533
0.000217058
0.000187953
0.000187944
0.000160533
0.000217058
0.000187953
0.000187944
0.000160533
0.000217058
0.000187953
0.000187944
0.000160533
0.000217084
0.000188002
0.000187992
0.000160594
0.000217084
0.000188002
0.00018799
0.000160593
0.000217083
0.000187999
0.000187989
0.000160592
0.000217084
0.000187999
0.000187987
0.000160591
0.000217082
0.000188
0.000187986
0.000160589
0.000217082
0.000187995
0.000187984
0.000160586
0.000217074
0.000187981
0.000187964
0.000160553
0.00021705
0.000187949
0.00018794
0.00016053
0.000217058
0.000187952
0.000187943
0.000160536
0.000217058
0.000187953
0.000187944
0.000160532
0.000217058
0.000187953
0.000187944
0.000160534
0.000217058
0.000187953
0.000187944
0.000160532
0.000217058
0.000187953
0.000187944
0.000160533
0.000217058
0.000187953
0.000187944
0.000160534
0.000217058
0.000187953
0.000187944
0.000160534
0.000217058
0.000187954
0.000187944
0.000160533
0.000217058
0.000187953
0.000187944
0.000160533
0.000217061
0.000188002
0.000187946
0.000160557
0.000217085
0.000188002
0.000187992
0.000160593
0.000217084
0.000188
0.000187989
0.000160591
0.000217084
0.000187999
0.000187988
0.00016059
0.000217084
0.000187998
0.000187989
0.000160588
0.000217084
0.000187995
0.000187988
0.000160588
0.000217081
0.000187987
0.000187982
0.000160576
0.000217051
0.000187951
0.000187948
0.00016053
0.000217056
0.000187956
0.000187945
0.00016054
0.000217059
0.000187958
0.000187949
0.000160534
0.00021706
0.000187967
0.000187957
0.000160541
0.000217061
0.000187968
0.000187959
0.000160568
0.000218056
0.000191057
0.000191054
0.000164656
0.000234267
0.000234448
0.000234449
0.000234267
0.000234449
0.000234449
0.000234274
0.000234274
0.000234274
0.000234274
0.000234448
0.000234448
0.000234266
0.000234448
0.000234448
0.000234267
0.000233422
0.000226205
0.000233116
0.000233113
0.000229363
0.000229359
0.000233422
0.000226206
0.000233113
0.000233113
0.000229361
0.000229358
0.000233115
0.000229366
0.000229363
0.000233422
0.000226203
0.000233114
0.000229366
0.000229361
0.000226203
0.000223867
0.000212229
0.000227799
0.000227794
0.000222344
0.000222338
0.000223868
0.000212232
0.000227796
0.000227792
0.000222344
0.000222335
0.000227798
0.000222351
0.000222343
0.000223866
0.000212226
0.000227796
0.000222348
0.000222343
0.000212227
0.000209124
0.00019704
0.000220321
0.000220316
0.000213882
0.000213876
0.000209125
0.000197045
0.000220322
0.000220312
0.000213886
0.000213872
0.000220319
0.000213892
0.000213879
0.00020912
0.000197036
0.000220321
0.000213888
0.000213884
0.000197037
0.000193809
0.00018278
0.000211709
0.000211703
0.00020477
0.000204765
0.000193812
0.000182786
0.000211714
0.000211698
0.000204778
0.000204759
0.000211706
0.000204785
0.000204768
0.000193804
0.000182775
0.000211712
0.00020478
0.000204777
0.000182776
0.000179685
0.000170384
0.000202545
0.00020254
0.000196236
0.000196231
0.000179689
0.000170391
0.000202554
0.000202534
0.000196248
0.000196224
0.000202543
0.000196255
0.000196233
0.000179681
0.000170379
0.000202553
0.000196248
0.000196246
0.000170379
0.000167591
0.000159337
0.000193825
0.00019382
0.000187162
0.000187156
0.000167595
0.000159343
0.000193838
0.000193813
0.000187176
0.000187149
0.000193822
0.000187183
0.000187159
0.000167586
0.000159331
0.000193836
0.000187175
0.000187176
0.000159331
0.000157476
0.000158566
0.000186066
0.000186059
0.000186132
0.000186125
0.000157478
0.00015857
0.000186079
0.000186051
0.000186145
0.000186117
0.000186062
0.000186151
0.000186128
0.000157471
0.000158559
0.000186079
0.000186143
0.000186146
0.00015856
0.000158512
0.000160397
0.000186624
0.000186617
0.000187546
0.00018754
0.000158516
0.000160402
0.000186637
0.000186609
0.00018756
0.000187532
0.00018662
0.000187566
0.000187543
0.000158505
0.00016039
0.000186638
0.000187558
0.000187561
0.000160393
0.00016025
0.000160692
0.000187715
0.000187709
0.000187896
0.000187892
0.000160254
0.000160696
0.000187729
0.0001877
0.000187912
0.000187882
0.000187712
0.000187916
0.000187895
0.000160243
0.000160684
0.00018773
0.000187909
0.000187913
0.000160689
0.000160518
0.000160711
0.000187909
0.000187905
0.000187922
0.000187918
0.000160521
0.000160715
0.000187925
0.000187896
0.000187938
0.000187908
0.000187908
0.000187943
0.000187921
0.00016051
0.000160703
0.000187927
0.000187935
0.000187939
0.000160707
0.000160532
0.00016072
0.000187923
0.000187919
0.000187927
0.000187923
0.000160534
0.000160723
0.000187939
0.00018791
0.000187943
0.000187914
0.000187922
0.000187948
0.000187926
0.000160523
0.000160711
0.000187941
0.00018794
0.000187945
0.000160716
0.000160541
0.000160719
0.000187928
0.000187924
0.00018793
0.000187974
0.000160543
0.000160784
0.000187944
0.000187915
0.000187946
0.000187917
0.000187927
0.000187998
0.000187929
0.000160532
0.00016071
0.000187946
0.000187942
0.000187948
0.000160715
0.00016056
0.00016078
0.000187979
0.000187974
0.00018798
0.000187976
0.000160601
0.000160781
0.000187995
0.000187966
0.000187996
0.000187967
0.000187978
0.000187999
0.000187979
0.000160551
0.000160771
0.000187997
0.000187992
0.000187998
0.000160776
0.0001606
0.000160779
0.00018798
0.000187975
0.00018798
0.000187975
0.000160601
0.000160781
0.000187996
0.000187967
0.000187996
0.000187966
0.000187979
0.000188
0.000187978
0.000160591
0.00016077
0.000187998
0.000187991
0.000187997
0.000160775
0.000160599
0.000160777
0.00018798
0.000187975
0.000187978
0.000187975
0.0001606
0.00016078
0.000187995
0.000187966
0.000187994
0.000187965
0.000187978
0.000187998
0.000187977
0.00016059
0.000160768
0.000187997
0.000187989
0.000187996
0.000160773
0.000160597
0.000160776
0.000187977
0.000187975
0.000187976
0.000187975
0.000160599
0.000160779
0.000187993
0.000187965
0.000187993
0.000187964
0.000187977
0.000187997
0.000187976
0.000160588
0.000160767
0.000187995
0.000187988
0.000187995
0.000160771
0.000160595
0.000160775
0.000187977
0.000187976
0.000187975
0.000187978
0.000160598
0.000160779
0.000187994
0.000187965
0.000187993
0.000187965
0.000187977
0.000187996
0.000187977
0.000160587
0.000160766
0.000187996
0.000187986
0.000187996
0.000160771
0.000160594
0.000160768
0.000187973
0.000187977
0.00018797
0.000187969
0.000160599
0.000160767
0.000187991
0.000187964
0.000187985
0.000187958
0.000187976
0.00018799
0.000187972
0.000160586
0.000160759
0.000187995
0.000187981
0.000187991
0.000160764
0.000160583
0.000160726
0.000187966
0.000187964
0.000187935
0.000187931
0.000160581
0.000160726
0.000187982
0.000187955
0.000187953
0.000187925
0.000187968
0.000187955
0.000187936
0.000160575
0.000160717
0.000187987
0.000187951
0.000187955
0.000160721
0.000160537
0.000160723
0.000187928
0.000187926
0.000187928
0.000187927
0.00016054
0.000160728
0.000187946
0.000187918
0.000187945
0.000187916
0.000187929
0.000187951
0.000187928
0.000160529
0.000160715
0.000187948
0.000187942
0.000187947
0.000160721
0.000160544
0.000160719
0.00018793
0.000187928
0.000187931
0.000187927
0.000160548
0.000160722
0.000187947
0.000187918
0.000187947
0.000187918
0.00018793
0.000187952
0.00018793
0.000160536
0.00016071
0.000187949
0.000187944
0.000187949
0.000160714
0.000160537
0.000160719
0.000187931
0.000187928
0.000187932
0.000187928
0.000160541
0.000160724
0.000187947
0.000187918
0.000187948
0.000187919
0.00018793
0.000187953
0.000187931
0.000160529
0.000160711
0.000187949
0.000187945
0.00018795
0.000160716
0.000160539
0.00016072
0.000187933
0.000187929
0.000187933
0.000187928
0.000160543
0.000160724
0.000187949
0.00018792
0.000187949
0.00018792
0.000187932
0.000187953
0.000187932
0.000160532
0.000160712
0.000187951
0.000187945
0.00018795
0.000160717
0.00016054
0.00016072
0.000187933
0.000187929
0.000187933
0.000187929
0.000160543
0.000160725
0.000187949
0.00018792
0.000187949
0.00018792
0.000187932
0.000187953
0.000187932
0.000160532
0.000160712
0.000187949
0.000187945
0.000187948
0.000160716
0.000160541
0.000160719
0.000187933
0.000187929
0.000187933
0.000187929
0.000160545
0.000160723
0.00018795
0.00018792
0.00018795
0.00018792
0.000187932
0.000187953
0.000187932
0.000160532
0.00016071
0.000187948
0.000187945
0.000187947
0.000160714
0.000160539
0.000160719
0.000187933
0.000187929
0.000187933
0.000187929
0.000160543
0.000160722
0.00018795
0.00018792
0.00018795
0.00018792
0.000187932
0.000187953
0.000187932
0.000160531
0.00016071
0.000187948
0.000187945
0.000187948
0.000160715
0.000160539
0.00016072
0.000187933
0.000187929
0.000187933
0.000187929
0.000160542
0.000160723
0.00018795
0.00018792
0.00018795
0.00018792
0.000187932
0.000187953
0.000187932
0.000160531
0.000160711
0.000187948
0.000187945
0.000187948
0.000160715
0.000160539
0.00016072
0.000187933
0.000187929
0.000187932
0.000187929
0.000160542
0.000160723
0.00018795
0.00018792
0.00018795
0.00018792
0.000187932
0.000187953
0.000187932
0.000160531
0.000160711
0.000187948
0.000187945
0.000187948
0.000160716
0.000160539
0.00016072
0.000187933
0.000187929
0.000187932
0.000187929
0.000160542
0.000160724
0.00018795
0.00018792
0.00018795
0.00018792
0.000187932
0.000187953
0.000187931
0.000160531
0.000160711
0.000187948
0.000187945
0.000187948
0.000160716
0.00016054
0.000160781
0.000187933
0.000187929
0.00018798
0.000187977
0.000160543
0.000160782
0.00018795
0.00018792
0.000187998
0.000187968
0.000187931
0.000188002
0.00018798
0.000160531
0.000160772
0.000187948
0.000187992
0.000187996
0.000160777
0.0001606
0.000160779
0.000187982
0.000187978
0.000187981
0.000187977
0.000160599
0.000160781
0.000187999
0.000187969
0.000187998
0.000187968
0.000187981
0.000188002
0.00018798
0.000160592
0.000160771
0.000187997
0.000187991
0.000187996
0.000160775
0.000160599
0.000160778
0.000187981
0.000187977
0.00018798
0.000187976
0.000160601
0.000160782
0.000187998
0.000187968
0.000187998
0.000187967
0.00018798
0.000187999
0.00018798
0.000160591
0.000160769
0.000187996
0.00018799
0.000187995
0.000160774
0.000160598
0.000160778
0.000187981
0.000187977
0.000187979
0.000187976
0.000160601
0.000160782
0.000187999
0.000187968
0.000187997
0.000187968
0.000187981
0.000187998
0.000187981
0.000160589
0.000160768
0.000187995
0.000187988
0.000187994
0.000160774
0.000160597
0.000160775
0.000187979
0.000187975
0.000187976
0.000187975
0.000160601
0.000160781
0.000187996
0.000187968
0.000187994
0.000187965
0.000187982
0.000187998
0.000187981
0.000160588
0.000160767
0.000187995
0.000187988
0.000187995
0.000160773
0.000160594
0.000160775
0.000187977
0.000187976
0.000187978
0.000187973
0.0001606
0.00016078
0.000187995
0.000187963
0.000187995
0.00018796
0.00018798
0.000187995
0.000187977
0.000160587
0.000160765
0.000187993
0.000187986
0.000187989
0.00016077
0.000160594
0.000160752
0.000187976
0.000187971
0.000187963
0.000187961
0.000160599
0.000160763
0.000187993
0.000187958
0.000187981
0.00018795
0.000187974
0.000187988
0.000187964
0.000160585
0.000160743
0.000187988
0.000187975
0.000187979
0.000160748
0.000160561
0.000160718
0.00018795
0.00018795
0.000187927
0.000187924
0.000160574
0.000160724
0.000187967
0.000187939
0.000187944
0.000187914
0.000187951
0.00018795
0.000187927
0.000160554
0.000160709
0.000187967
0.00018794
0.000187942
0.000160714
0.000160538
0.000160724
0.000187928
0.000187924
0.000187931
0.000187926
0.00016054
0.000160729
0.000187946
0.000187915
0.000187948
0.000187918
0.000187927
0.000187952
0.00018793
0.000160529
0.000160715
0.000187944
0.000187943
0.000187946
0.00016072
0.000160542
0.000160717
0.000187932
0.000187927
0.000187931
0.000187927
0.000160548
0.000160722
0.000187949
0.000187919
0.000187949
0.000187918
0.00018793
0.000187952
0.00018793
0.000160534
0.000160709
0.000187947
0.000187944
0.000187947
0.000160713
0.000160538
0.00016072
0.000187932
0.000187927
0.000187933
0.000187928
0.000160541
0.000160724
0.00018795
0.000187919
0.00018795
0.00018792
0.000187931
0.000187953
0.000187932
0.00016053
0.000160712
0.000187948
0.000187945
0.000187948
0.000160716
0.00016054
0.000160718
0.000187933
0.000187929
0.000187933
0.000187929
0.000160543
0.000160723
0.00018795
0.00018792
0.000187949
0.000187919
0.000187932
0.000187953
0.000187931
0.000160532
0.00016071
0.000187948
0.000187945
0.000187948
0.000160714
0.000160538
0.00016072
0.000187933
0.000187929
0.000187932
0.000187929
0.000160542
0.000160724
0.000187949
0.00018792
0.000187949
0.000187919
0.000187932
0.000187954
0.000187932
0.000160531
0.000160712
0.000187948
0.000187945
0.000187948
0.000160716
0.00016054
0.000160719
0.000187933
0.000187929
0.000187933
0.000187929
0.000160544
0.000160723
0.000187949
0.00018792
0.000187949
0.00018792
0.000187932
0.000187954
0.000187932
0.000160532
0.000160711
0.000187948
0.000187945
0.000187948
0.000160717
0.00016054
0.000160718
0.000187933
0.000187929
0.000187933
0.000187929
0.000160543
0.000160722
0.000187949
0.00018792
0.000187949
0.000187919
0.000187932
0.000187954
0.000187932
0.000160532
0.00016071
0.000187948
0.000187945
0.000187948
0.000160716
0.000160539
0.000160719
0.000187933
0.000187929
0.000187933
0.000187928
0.000160542
0.000160723
0.000187949
0.00018792
0.000187949
0.000187919
0.000187932
0.000187954
0.000187932
0.000160531
0.000160711
0.000187948
0.000187945
0.000187948
0.000160716
0.000160539
0.000160719
0.000187934
0.000187929
0.000187934
0.000187929
0.000160542
0.000160724
0.000187949
0.00018792
0.000187949
0.00018792
0.000187932
0.000187954
0.000187932
0.000160531
0.000160711
0.000187948
0.000187945
0.000187948
0.000160716
0.000160539
0.000160719
0.000187934
0.000187929
0.000187934
0.000187929
0.000160543
0.000160724
0.000187949
0.00018792
0.000187949
0.000187919
0.000187932
0.000187953
0.000187932
0.000160531
0.000160711
0.000187948
0.000187944
0.000187948
0.000160716
0.000160539
0.000160778
0.000187934
0.000187929
0.000187981
0.000187976
0.000160543
0.000160783
0.000187949
0.00018792
0.000187996
0.000187967
0.000187932
0.000188
0.000187979
0.000160531
0.00016077
0.000187948
0.000187991
0.000187995
0.000160771
0.000160598
0.000160777
0.000187981
0.000187976
0.000187981
0.000187975
0.000160602
0.000160782
0.000187996
0.000187967
0.000187996
0.000187967
0.000187978
0.000187999
0.000187978
0.00016059
0.000160769
0.000187995
0.00018799
0.000187994
0.000160772
0.000160597
0.000160777
0.000187982
0.000187975
0.000187981
0.000187975
0.000160601
0.000160781
0.000187995
0.000187968
0.000187995
0.000187967
0.000187978
0.000187998
0.000187978
0.000160589
0.000160768
0.000187994
0.000187988
0.000187994
0.000160772
0.000160597
0.000160776
0.000187981
0.000187976
0.00018798
0.000187975
0.0001606
0.00016078
0.000187995
0.000187966
0.000187995
0.000187966
0.000187978
0.000187996
0.000187978
0.000160588
0.000160767
0.000187994
0.000187987
0.000187993
0.000160771
0.000160596
0.000160775
0.000187981
0.000187976
0.000187981
0.000187977
0.000160599
0.000160779
0.000187996
0.000187967
0.000187996
0.000187967
0.000187979
0.000187999
0.000187979
0.000160587
0.000160767
0.000187993
0.000187989
0.000187994
0.000160771
0.000160595
0.000160773
0.00018798
0.000187977
0.000187975
0.000187972
0.000160599
0.000160777
0.000187997
0.000187967
0.000187993
0.000187961
0.000187979
0.000187994
0.000187974
0.000160587
0.000160764
0.000187995
0.000187984
0.00018799
0.000160768
0.000160592
0.000160738
0.000187973
0.000187969
0.000187951
0.000187946
0.000160595
0.000160743
0.00018799
0.000187959
0.000187966
0.000187937
0.000187971
0.000187973
0.000187948
0.000160583
0.00016073
0.000187987
0.000187964
0.000187964
0.000160733
0.000160547
0.00016072
0.000187939
0.000187934
0.000187928
0.000187924
0.000160551
0.000160724
0.000187954
0.000187925
0.000187944
0.000187914
0.000187936
0.000187949
0.000187926
0.000160539
0.000160711
0.000187952
0.00018794
0.000187942
0.000160717
0.000160542
0.000160721
0.000187931
0.000187926
0.000187932
0.000187927
0.000160546
0.000160725
0.000187947
0.000187917
0.000187947
0.000187918
0.000187929
0.000187953
0.00018793
0.000160534
0.000160712
0.000187945
0.000187944
0.000187945
0.000160717
0.00016054
0.000160718
0.000187932
0.000187927
0.000187933
0.000187928
0.000160544
0.000160723
0.000187948
0.000187918
0.000187948
0.000187919
0.00018793
0.000187953
0.000187931
0.000160531
0.00016071
0.000187945
0.000187944
0.000187946
0.000160715
0.000160539
0.00016072
0.000187934
0.000187929
0.000187934
0.000187929
0.000160543
0.000160725
0.000187949
0.00018792
0.000187948
0.00018792
0.000187932
0.000187954
0.000187932
0.000160531
0.000160712
0.000187947
0.000187945
0.000187947
0.000160716
0.00016054
0.000160718
0.000187934
0.000187929
0.000187934
0.000187929
0.000160545
0.000160723
0.000187948
0.00018792
0.000187948
0.000187919
0.000187932
0.000187954
0.000187931
0.000160532
0.00016071
0.000187947
0.000187945
0.000187947
0.000160714
0.000160539
0.000160719
0.000187934
0.000187929
0.000187933
0.000187929
0.000160543
0.000160723
0.000187949
0.00018792
0.000187948
0.00018792
0.000187932
0.000187954
0.000187931
0.000160531
0.00016071
0.000187948
0.000187945
0.000187947
0.000160715
0.000160539
0.00016072
0.000187934
0.000187929
0.000187934
0.000187929
0.000160543
0.000160724
0.000187949
0.00018792
0.000187948
0.00018792
0.000187932
0.000187954
0.000187932
0.00016053
0.000160711
0.000187947
0.000187945
0.000187947
0.000160716
0.00016054
0.00016072
0.000187934
0.000187929
0.000187934
0.000187929
0.000160544
0.000160724
0.000187949
0.00018792
0.000187948
0.00018792
0.000187932
0.000187954
0.000187931
0.000160531
0.000160711
0.000187947
0.000187945
0.000187947
0.000160716
0.00016054
0.00016072
0.000187934
0.000187929
0.000187934
0.000187929
0.000160544
0.000160724
0.000187949
0.00018792
0.000187948
0.000187919
0.000187932
0.000187954
0.000187932
0.000160531
0.000160711
0.000187948
0.000187945
0.000187947
0.000160716
0.00016054
0.00016072
0.000187934
0.000187929
0.000187934
0.000187929
0.000160543
0.000160724
0.000187949
0.00018792
0.000187948
0.00018792
0.000187932
0.000187954
0.000187931
0.000160531
0.000160711
0.000187947
0.000187945
0.000187947
0.000160716
0.00016054
0.000160782
0.000187934
0.000187929
0.000187982
0.000187977
0.000160543
0.000160787
0.000187949
0.00018792
0.000187997
0.000187967
0.000187932
0.000188002
0.000187979
0.000160531
0.000160772
0.000187947
0.000187992
0.000187995
0.000160777
0.0001606
0.000160778
0.000187982
0.000187977
0.000187982
0.000187977
0.000160604
0.000160783
0.000187997
0.000187969
0.000187996
0.000187968
0.000187981
0.000188002
0.00018798
0.000160592
0.00016077
0.000187996
0.00018799
0.000187995
0.000160775
0.000160598
0.000160777
0.000187981
0.000187976
0.000187981
0.000187976
0.000160602
0.000160782
0.000187996
0.000187968
0.000187996
0.000187967
0.000187979
0.000187999
0.000187979
0.00016059
0.000160769
0.000187995
0.000187989
0.000187995
0.000160774
0.000160597
0.000160777
0.000187982
0.000187977
0.000187981
0.000187976
0.000160602
0.000160781
0.000187996
0.000187968
0.000187996
0.000187968
0.00018798
0.000187998
0.00018798
0.000160589
0.000160768
0.000187996
0.000187988
0.000187995
0.000160773
0.000160597
0.000160776
0.000187982
0.000187977
0.000187982
0.000187977
0.000160601
0.000160781
0.000187996
0.000187968
0.000187996
0.000187966
0.000187981
0.000188
0.000187978
0.000160588
0.000160766
0.000187994
0.000187985
0.000187994
0.000160772
0.000160596
0.000160776
0.000187982
0.000187978
0.00018798
0.000187975
0.0001606
0.000160779
0.000187996
0.000187963
0.000187996
0.000187961
0.000187976
0.000187995
0.000187973
0.000160586
0.000160765
0.000187992
0.000187985
0.000187988
0.000160769
0.000160596
0.000160761
0.000187978
0.000187973
0.00018797
0.000187965
0.000160599
0.000160765
0.000187994
0.000187959
0.000187986
0.000187951
0.000187971
0.000187988
0.000187962
0.000160584
0.000160743
0.000187987
0.000187975
0.000187977
0.000160747
0.000160574
0.000160719
0.000187964
0.000187959
0.000187931
0.000187926
0.000160578
0.000160724
0.000187979
0.000187939
0.000187945
0.000187914
0.00018795
0.000187951
0.000187926
0.000160554
0.000160709
0.000187965
0.00018794
0.000187941
0.000160714
0.000160535
0.000160724
0.000187929
0.000187923
0.000187931
0.000187927
0.000160539
0.000160729
0.000187943
0.000187915
0.000187946
0.000187918
0.000187927
0.000187952
0.00018793
0.000160529
0.000160715
0.000187943
0.000187943
0.000187945
0.00016072
0.000160544
0.000160717
0.000187933
0.000187928
0.000187932
0.000187927
0.000160548
0.000160721
0.000187947
0.000187918
0.000187947
0.000187918
0.00018793
0.000187953
0.00018793
0.000160534
0.000160709
0.000187946
0.000187944
0.000187946
0.000160713
0.000160537
0.000160719
0.000187933
0.000187928
0.000187934
0.000187929
0.000160541
0.000160724
0.000187948
0.000187919
0.000187948
0.00018792
0.000187931
0.000187954
0.000187932
0.00016053
0.000160712
0.000187947
0.000187945
0.000187947
0.000160716
0.00016054
0.000160719
0.000187934
0.000187929
0.000187933
0.000187929
0.000160544
0.000160724
0.000187949
0.00018792
0.000187948
0.000187919
0.000187932
0.000187954
0.000187931
0.000160532
0.00016071
0.000187948
0.000187945
0.000187947
0.000160714
0.000160539
0.000160721
0.000187933
0.000187929
0.000187934
0.000187929
0.000160543
0.000160725
0.000187948
0.00018792
0.000187948
0.00018792
0.000187932
0.000187954
0.000187932
0.00016053
0.000160712
0.000187947
0.000187945
0.000187947
0.000160716
0.000160541
0.000160719
0.000187934
0.000187929
0.000187933
0.000187929
0.000160545
0.000160723
0.000187949
0.00018792
0.000187948
0.00018792
0.000187932
0.000187954
0.000187932
0.000160532
0.000160711
0.000187947
0.000187945
0.000187947
0.000160717
0.00016054
0.000160718
0.000187934
0.000187929
0.000187934
0.000187929
0.000160544
0.000160723
0.000187949
0.00018792
0.000187948
0.000187919
0.000187932
0.000187954
0.000187931
0.000160532
0.00016071
0.000187948
0.000187945
0.000187947
0.000160716
0.000160539
0.000160719
0.000187934
0.000187929
0.000187934
0.000187929
0.000160543
0.000160723
0.000187949
0.00018792
0.000187948
0.000187919
0.000187932
0.000187954
0.000187932
0.000160531
0.000160711
0.000187948
0.000187945
0.000187947
0.000160715
0.000160539
0.000160719
0.000187934
0.000187929
0.000187934
0.000187929
0.000160543
0.000160724
0.000187948
0.00018792
0.000187948
0.00018792
0.000187932
0.000187954
0.000187932
0.000160531
0.000160711
0.000187947
0.000187945
0.000187947
0.000160716
0.000160539
0.00016072
0.000187934
0.000187929
0.000187934
0.000187977
0.000160543
0.000160787
0.000187949
0.00018792
0.000187948
0.00018792
0.000187932
0.000188002
0.000187933
0.000160531
0.000160711
0.000187947
0.000187944
0.000187948
0.000160717
0.000160542
0.000160771
0.000187982
0.000187977
0.000187982
0.000187977
0.000160604
0.000160783
0.000187949
0.00018792
0.000187996
0.000187967
0.00018798
0.000188002
0.00018798
0.000160531
0.00016077
0.000187995
0.000187992
0.000187995
0.000160775
0.000160593
0.000160777
0.000187983
0.000187978
0.000187982
0.000187977
0.000160602
0.000160782
0.000187997
0.000187967
0.000187997
0.000187967
0.000187979
0.000188
0.000187978
0.00016059
0.000160769
0.000187995
0.00018799
0.000187994
0.000160774
0.000160597
0.000160778
0.000187982
0.000187977
0.000187981
0.000187976
0.000160602
0.000160781
0.000187997
0.000187968
0.000187996
0.000187967
0.000187978
0.000187999
0.000187977
0.000160589
0.000160768
0.000187993
0.000187989
0.000187992
0.000160772
0.000160598
0.000160778
0.000187981
0.000187977
0.000187981
0.000187977
0.000160601
0.000160781
0.000187996
0.000187966
0.000187996
0.000187966
0.000187976
0.000187998
0.000187976
0.000160588
0.000160768
0.000187992
0.000187989
0.000187992
0.000160771
0.000160598
0.000160777
0.000187981
0.000187977
0.000187981
0.000187977
0.0001606
0.00016078
0.000187996
0.000187967
0.000187997
0.000187967
0.000187977
0.000187996
0.000187977
0.000160588
0.000160767
0.000187993
0.000187988
0.000187993
0.00016077
0.000160597
0.000160772
0.00018798
0.000187975
0.000187975
0.000187968
0.000160599
0.000160768
0.000187998
0.000187967
0.000187995
0.000187963
0.000187976
0.00018799
0.000187971
0.000160588
0.000160764
0.000187993
0.000187983
0.000187987
0.000160763
0.000160589
0.000160732
0.000187972
0.000187964
0.000187943
0.000187931
0.000160582
0.000160726
0.000187992
0.000187961
0.000187964
0.000187937
0.000187968
0.000187957
0.000187937
0.000160583
0.000160729
0.000187984
0.00018796
0.000187953
0.000160721
0.000160541
0.000160722
0.000187934
0.000187925
0.000187932
0.000187929
0.00016054
0.000160729
0.000187952
0.000187924
0.000187946
0.000187917
0.00018793
0.000187954
0.000187931
0.000160538
0.000160713
0.000187945
0.000187942
0.000187946
0.000160721
0.000160544
0.000160722
0.000187935
0.00018793
0.000187939
0.000187934
0.00016055
0.000160724
0.000187949
0.00018792
0.000187954
0.000187925
0.000187933
0.000187958
0.000187936
0.000160536
0.000160715
0.000187948
0.000187949
0.000187952
0.000160716
0.000160543
0.000160724
0.000187941
0.000187936
0.000187945
0.000187941
0.000160545
0.000160729
0.000187957
0.000187927
0.000187961
0.000187931
0.000187939
0.000187967
0.000187943
0.000160535
0.000160715
0.000187954
0.000187958
0.00018796
0.000160721
0.000160546
0.000160751
0.000187946
0.000187942
0.000187984
0.000187981
0.00016055
0.000160753
0.000187961
0.000187933
0.000188
0.000187972
0.000187945
0.000188005
0.000187982
0.000160538
0.000160742
0.000187961
0.000187997
0.000188
0.000160746
0.000160574
0.000162439
0.000187947
0.000187943
0.000190006
0.000190003
0.000160576
0.000162442
0.000187963
0.000187934
0.000190018
0.000189999
0.000187944
0.000190019
0.000190005
0.000160566
0.000162434
0.000187963
0.000190016
0.000190018
0.000162438
0.000164658
0.000191048
0.000191045
0.000164659
0.000191057
0.000191042
0.000218056
0.000218056
0.000218056
0.000191047
0.000164653
0.000191058
0.00023473
0.000234746
0.000234729
0.000234729
0.000235118
0.000234798
0.000234701
0.000234726
0.000235118
0.000234798
0.000234726
0.000234701
0.000234867
0.000233566
0.000233566
0.000104594
3.87458e-05
0.000129171
3.982e-05
2.16835e-05
2.28281e-05
0.000104581
3.87418e-05
0.000129171
3.98164e-05
0.000233972
0.000233972
0.000233972
0.000232937
0.000232937
0.000232937
0.000232937
0.000206156
9.36548e-05
0.000233969
0.000231993
0.000222643
8.72432e-05
0.00023361
2.16824e-05
2.28273e-05
0.000206147
0.000233969
9.36547e-05
0.000231993
0.000222653
0.00023361
8.72492e-05
4.77909e-05
4.77788e-05
0.000231346
4.40297e-05
4.40203e-05
7.25473e-05
4.24393e-05
8.1403e-05
4.37589e-05
2.47775e-05
2.54611e-05
7.25328e-05
4.24359e-05
8.14036e-05
4.37551e-05
0.000232531
0.00023253
0.000232531