/*--------------------------------*- C++ -*----------------------------------*\
| =========                 |                                                 |
| \\      /  F ield         | OpenFOAM: The Open Source CFD Toolbox           |
|  \\    /   O peration     | Version:  2206                                  |
|   \\  /    A nd           | Website:  www.openfoam.com                      |
|    \\/     M anipulation  |                                                 |
\*---------------------------------------------------------------------------*/
FoamFile
{
    version     2.0;
    format      ascii;
    arch        "LSB;label=32;scalar=64";
    class       surfaceScalarField;
    location    "30.5";
    object      phi;
}
// * * * * * * * * * * * * * * * * * * * * * * * * * * * * * * * * * * * * * //

dimensions      [0 3 -1 0 0 0 0];

oriented        oriented;

internalField   nonuniform List<scalar> 
82026
(
1.57089e-09
1.69783e-09
-0.00108822
-1.65659e-09
-1.66638e-09
0.00108822
-0.00108807
-1.20799e-06
-1.72767e-09
3.00345e-09
0.00108807
-2.5505e-07
1.21075e-06
2.53856e-07
8.95252e-07
-2.57367e-07
-8.94839e-07
2.54133e-07
-0.00108773
-1.20258e-06
-1.77609e-09
2.99748e-09
0.00108773
-2.55039e-07
1.20531e-06
2.53873e-07
8.95099e-07
-2.6001e-07
-8.94701e-07
2.56845e-07
-0.000267309
1.2363e-06
1.20271e-06
-2.32058e-07
-2.37345e-07
0.00026534
1.6456e-09
1.79152e-09
-0.00108822
-1.69318e-09
-1.68128e-09
0.00108822
-0.00108807
-1.20797e-06
-1.82823e-09
2.98242e-09
0.00108807
-2.55029e-07
1.21075e-06
2.53867e-07
8.95268e-07
-2.57319e-07
-8.94814e-07
2.54176e-07
-0.00108773
-1.20256e-06
-1.87322e-09
2.96336e-09
0.00108773
-2.55018e-07
1.20532e-06
2.53888e-07
8.95109e-07
-2.59965e-07
-8.94686e-07
2.56888e-07
-0.000267309
1.23628e-06
1.20269e-06
-2.32038e-07
-2.37325e-07
0.00026534
1.71642e-09
1.89425e-09
-0.00108822
-1.74357e-09
-1.70888e-09
0.00108822
-0.00108807
-1.20795e-06
-1.9379e-09
2.95572e-09
0.00108807
-2.55011e-07
1.21077e-06
2.5389e-07
8.95299e-07
-2.57276e-07
-8.94793e-07
2.54229e-07
-0.00108773
-1.20254e-06
-1.9978e-09
2.90722e-09
0.00108773
-2.54991e-07
1.20535e-06
2.53917e-07
8.95141e-07
-2.5992e-07
-8.94664e-07
2.56937e-07
-0.000267309
1.23625e-06
1.20266e-06
-2.32011e-07
-2.37295e-07
0.000265339
1.80787e-09
2.00177e-09
-0.00108822
-1.79866e-09
-1.746e-09
0.00108822
-0.00108807
-1.20794e-06
-2.05022e-09
2.95801e-09
0.00108807
-2.54996e-07
1.21079e-06
2.53912e-07
8.95353e-07
-2.57245e-07
-8.94757e-07
2.54271e-07
-0.00108773
-1.20252e-06
-2.24062e-09
2.8514e-09
0.00108773
-2.54968e-07
1.20537e-06
2.53953e-07
8.95223e-07
-2.5987e-07
-8.94597e-07
2.57012e-07
-0.000267309
1.23623e-06
1.20265e-06
-2.31987e-07
-2.37261e-07
0.000265339
1.74514e-09
1.87238e-09
-0.00108822
-1.75829e-09
-1.74388e-09
0.00108822
-0.00108807
-1.20793e-06
-1.90377e-09
2.97289e-09
0.00108807
-2.55001e-07
1.2108e-06
2.53924e-07
8.95345e-07
-2.57261e-07
-8.94766e-07
2.54273e-07
-0.00108772
-1.20255e-06
-2.1998e-09
2.95243e-09
0.00108772
-2.55003e-07
1.20535e-06
2.5394e-07
8.95249e-07
-2.59863e-07
-8.94582e-07
2.57042e-07
-0.000267308
1.23626e-06
1.20268e-06
-2.32004e-07
-2.37267e-07
0.000265339
2.02503e-09
1.759e-09
-0.00108822
-1.65881e-09
-1.99306e-09
0.00108822
-0.00108807
-1.20784e-06
-1.54615e-09
2.66776e-09
0.00108807
-2.5496e-07
1.21089e-06
2.53965e-07
8.95213e-07
-2.57346e-07
-8.94864e-07
2.54164e-07
-0.00108772
-1.20266e-06
-1.0033e-09
3.344e-09
0.00108772
-2.55174e-07
1.2052e-06
2.53722e-07
8.94899e-07
-2.60154e-07
-8.94863e-07
2.56675e-07
-0.000267308
1.23642e-06
1.20281e-06
-2.32119e-07
-2.37421e-07
0.000265338
2.08679e-10
6.23998e-10
-0.00108822
-1.09066e-09
-8.96037e-10
0.00108822
-0.00108807
-1.20836e-06
-8.31291e-10
3.67408e-09
0.00108807
-2.55462e-07
1.21049e-06
2.53582e-07
8.95011e-07
-2.5797e-07
-8.9528e-07
2.5374e-07
-0.00108773
-1.20278e-06
-1.27849e-09
3.18584e-09
0.00108773
-2.55261e-07
1.20525e-06
2.5381e-07
8.94927e-07
-2.60484e-07
-8.95076e-07
2.56594e-07
-0.000267309
1.23647e-06
1.2029e-06
-2.32345e-07
-2.37618e-07
0.000265339
1.75011e-09
1.96236e-09
-0.00108822
-1.79034e-09
-1.72973e-09
0.00108822
-0.00108807
-1.20795e-06
-1.99741e-09
2.88684e-09
0.00108807
-2.55014e-07
1.21085e-06
2.53984e-07
8.95353e-07
-2.57382e-07
-8.9485e-07
2.54252e-07
-0.00108773
-1.20255e-06
-2.03911e-09
2.88225e-09
0.00108773
-2.55008e-07
1.20541e-06
2.53982e-07
8.95191e-07
-2.60022e-07
-8.9471e-07
2.56952e-07
-0.000267309
1.23625e-06
1.20268e-06
-2.32022e-07
-2.37292e-07
0.00026534
1.68717e-09
1.78965e-09
-0.00108822
-1.70687e-09
-1.73517e-09
0.00108822
-0.00108807
-1.20798e-06
-1.80341e-09
2.92041e-09
0.00108807
-2.55058e-07
1.21081e-06
2.53929e-07
8.95308e-07
-2.57414e-07
-8.94891e-07
2.54204e-07
-0.00108773
-1.20259e-06
-1.80673e-09
2.96813e-09
0.00108773
-2.55064e-07
1.20536e-06
2.53929e-07
8.95134e-07
-2.6007e-07
-8.94769e-07
2.56897e-07
-0.000267309
1.23632e-06
1.20273e-06
-2.32075e-07
-2.37365e-07
0.00026534
1.61419e-09
1.72737e-09
-0.00108822
-1.66859e-09
-1.68882e-09
0.00108822
-0.00108807
-1.208e-06
-1.74388e-09
2.96799e-09
0.00108807
-2.55078e-07
1.21079e-06
2.53912e-07
8.95295e-07
-2.57429e-07
-8.94907e-07
2.54192e-07
-0.00108773
-1.2026e-06
-1.77332e-09
2.99107e-09
0.00108773
-2.55073e-07
1.20535e-06
2.53921e-07
8.95126e-07
-2.60079e-07
-8.94778e-07
2.5689e-07
-0.000267309
1.23633e-06
1.20273e-06
-2.32084e-07
-2.37373e-07
0.00026534
1.60408e-09
1.72076e-09
-0.00108822
-1.66291e-09
-1.68047e-09
0.00108822
-0.00108807
-1.208e-06
-1.74012e-09
2.97705e-09
0.00108807
-2.55081e-07
1.21079e-06
2.53909e-07
8.95295e-07
-2.57431e-07
-8.94907e-07
2.54191e-07
-0.00108773
-1.2026e-06
-1.77276e-09
2.99578e-09
0.00108773
-2.55074e-07
1.20535e-06
2.5392e-07
8.95126e-07
-2.6008e-07
-8.94779e-07
2.56889e-07
-0.000267309
1.23633e-06
1.20274e-06
-2.32086e-07
-2.37374e-07
0.00026534
1.59856e-09
1.71209e-09
-0.00108822
-1.65709e-09
-1.67702e-09
0.00108822
-0.00108807
-1.208e-06
-1.73847e-09
2.97906e-09
0.00108807
-2.55081e-07
1.21079e-06
2.53907e-07
8.95294e-07
-2.5743e-07
-8.94907e-07
2.54189e-07
-0.00108773
-1.20261e-06
-1.76284e-09
3.00413e-09
0.00108773
-2.55077e-07
1.20535e-06
2.53917e-07
8.95124e-07
-2.60083e-07
-8.94781e-07
2.56887e-07
-0.000267309
1.23633e-06
1.20274e-06
-2.32087e-07
-2.37376e-07
0.00026534
1.59201e-09
1.71074e-09
-0.00108822
-1.65548e-09
-1.6712e-09
0.00108822
-0.00108807
-1.20801e-06
-1.73709e-09
2.98396e-09
0.00108807
-2.55085e-07
1.21079e-06
2.53909e-07
8.95295e-07
-2.57433e-07
-8.94908e-07
2.54192e-07
-0.00108773
-1.20261e-06
-1.76944e-09
3.00366e-09
0.00108773
-2.55075e-07
1.20535e-06
2.53916e-07
8.95124e-07
-2.6008e-07
-8.94779e-07
2.56886e-07
-0.000267309
1.23633e-06
1.20274e-06
-2.32087e-07
-2.37375e-07
0.00026534
1.59509e-09
1.71523e-09
-0.00108822
-1.65921e-09
-1.67276e-09
0.00108822
-0.00108807
-1.20801e-06
-1.73552e-09
2.98309e-09
0.00108807
-2.55082e-07
1.21079e-06
2.53907e-07
8.95293e-07
-2.57428e-07
-8.94906e-07
2.54188e-07
-0.00108773
-1.2026e-06
-1.77402e-09
3.00188e-09
0.00108773
-2.55074e-07
1.20535e-06
2.53917e-07
8.95124e-07
-2.60078e-07
-8.94776e-07
2.56885e-07
-0.000267309
1.23633e-06
1.20274e-06
-2.32085e-07
-2.37372e-07
0.00026534
1.59843e-09
1.71905e-09
-0.00108822
-1.66055e-09
-1.67603e-09
0.00108822
-0.00108807
-1.208e-06
-1.74278e-09
2.9782e-09
0.00108807
-2.55079e-07
1.21079e-06
2.53908e-07
8.95291e-07
-2.57425e-07
-8.94903e-07
2.54186e-07
-0.00108773
-1.2026e-06
-1.7728e-09
2.99924e-09
0.00108773
-2.55074e-07
1.20535e-06
2.53918e-07
8.95122e-07
-2.60077e-07
-8.94776e-07
2.56884e-07
-0.000267309
1.23633e-06
1.20274e-06
-2.32084e-07
-2.37372e-07
0.00026534
1.59947e-09
1.72179e-09
-0.00108822
-1.66194e-09
-1.67611e-09
0.00108822
-0.00108807
-1.208e-06
-1.74613e-09
2.97885e-09
0.00108807
-2.55076e-07
1.21079e-06
2.53903e-07
8.95287e-07
-2.57416e-07
-8.94897e-07
2.54179e-07
-0.00108773
-1.2026e-06
-1.77757e-09
2.99756e-09
0.00108773
-2.55071e-07
1.20535e-06
2.53917e-07
8.95119e-07
-2.60071e-07
-8.9477e-07
2.56881e-07
-0.000267309
1.23633e-06
1.20273e-06
-2.32081e-07
-2.37368e-07
0.00026534
1.59986e-09
1.72443e-09
-0.00108822
-1.66436e-09
-1.67713e-09
0.00108822
-0.00108807
-1.20799e-06
-1.74191e-09
2.98054e-09
0.00108807
-2.55063e-07
1.21078e-06
2.5389e-07
8.95272e-07
-2.57396e-07
-8.94882e-07
2.54157e-07
-0.00108773
-1.2026e-06
-1.77645e-09
2.99407e-09
0.00108773
-2.55063e-07
1.20535e-06
2.53911e-07
8.95105e-07
-2.60057e-07
-8.94756e-07
2.56867e-07
-0.000267309
1.23632e-06
1.20273e-06
-2.32074e-07
-2.37362e-07
0.00026534
1.71509e-09
-0.00108822
-1.66765e-09
-0.00108773
-1.20258e-06
-1.76246e-09
-2.5504e-07
1.20533e-06
2.53882e-07
-2.60024e-07
2.56835e-07
-1.24436e-06
-1.20808e-06
0.000267325
-0.000265345
2.3222e-07
2.40044e-07
0.00108729
-1.60384e-09
3.15999e-09
-1.24166e-06
2.59207e-07
-2.605e-07
-8.9482e-07
2.54026e-07
-2.57349e-07
8.95145e-07
1.24982e-06
0.00108772
-1.47531e-09
3.15713e-09
-1.24712e-06
2.62011e-07
-2.63286e-07
-9.00464e-07
2.56805e-07
-2.6022e-07
9.0073e-07
-1.21075e-06
0.000267354
-0.000265366
2.35022e-07
2.37311e-07
0.00108834
-1.71128e-09
2.99981e-09
-1.20537e-06
2.56657e-07
-2.57854e-07
-8.97582e-07
2.5689e-07
-2.60165e-07
8.98017e-07
1.24441e-06
0.0010874
-1.52321e-09
-0.0010874
3.18366e-09
-1.24173e-06
2.61981e-07
-2.63288e-07
-8.97574e-07
2.56806e-07
-2.60122e-07
8.97863e-07
-1.72586e-09
2.99463e-09
-1.20798e-06
2.53857e-07
-2.55049e-07
-8.94851e-07
2.54123e-07
8.95241e-07
-2.57379e-07
1.23901e-06
0.00108719
-1.55419e-09
-0.00108719
3.14786e-09
-1.23631e-06
2.56465e-07
-2.57701e-07
-8.94867e-07
2.54022e-07
-2.57356e-07
8.9516e-07
-1.20531e-06
0.000267304
-0.000265327
2.32426e-07
2.39826e-07
-1.76464e-09
-0.00108773
3.00621e-09
-1.20258e-06
2.53867e-07
-2.55044e-07
-8.94666e-07
2.56812e-07
8.9514e-07
-2.60044e-07
1.20541e-06
0.00108824
-1.57835e-09
-0.00108824
2.98948e-09
-1.20271e-06
2.53911e-07
-2.55114e-07
-8.94969e-07
2.56875e-07
-2.60163e-07
8.95363e-07
-0.00026534
2.34744e-07
2.40072e-07
1.24166e-06
1.20538e-06
-2.29542e-07
-2.37312e-07
0.000265345
-1.24436e-06
-1.20808e-06
0.000267325
-0.000265345
2.32231e-07
2.40061e-07
3.15736e-09
0.00108729
-2.605e-07
1.24436e-06
2.59207e-07
8.9515e-07
-2.57344e-07
-8.94816e-07
2.5403e-07
-1.24712e-06
-1.46997e-09
3.15588e-09
0.00108772
-2.63286e-07
1.24982e-06
2.62011e-07
9.00744e-07
-2.6021e-07
-9.0045e-07
2.56813e-07
0.00108729
-1.64305e-09
-0.00108729
3.14345e-09
-1.24164e-06
2.59216e-07
-2.60482e-07
-8.94785e-07
2.54057e-07
-2.57307e-07
8.95165e-07
1.24984e-06
0.00108772
-1.51711e-09
-0.00108772
3.12318e-09
-1.2471e-06
2.62023e-07
-2.63266e-07
-9.00425e-07
2.56838e-07
-2.60178e-07
9.00753e-07
-2.32276e-07
-2.34585e-07
0.000265366
-1.21075e-06
0.000267354
-0.000265366
2.35037e-07
2.37336e-07
3.01202e-09
0.00108834
-2.57857e-07
1.20808e-06
2.56654e-07
8.98033e-07
-2.60159e-07
-8.97563e-07
2.56897e-07
-1.24173e-06
-1.53901e-09
3.17414e-09
0.0010874
-2.63281e-07
1.24441e-06
2.6199e-07
8.97871e-07
-2.60109e-07
-8.97561e-07
2.56815e-07
0.00108834
-1.77684e-09
-0.00108834
3.00152e-09
-1.20536e-06
2.56662e-07
-2.57841e-07
-8.97539e-07
2.56927e-07
-2.60118e-07
8.98045e-07
1.24442e-06
0.0010874
-1.60761e-09
-0.0010874
3.12618e-09
-1.24171e-06
2.61999e-07
-2.63261e-07
-8.9755e-07
2.56843e-07
-2.60077e-07
8.97876e-07
-1.57201e-09
3.13592e-09
0.00108719
-2.57696e-07
1.23901e-06
2.5647e-07
8.9517e-07
-2.57344e-07
2.5403e-07
-8.94852e-07
-1.8126e-09
-0.00108807
2.99145e-09
-1.20797e-06
2.53865e-07
-2.55034e-07
-8.94815e-07
2.54165e-07
8.95265e-07
-2.5733e-07
1.23902e-06
0.00108719
-1.64096e-09
-0.00108719
3.10102e-09
-1.23629e-06
2.56479e-07
-2.57679e-07
-8.94842e-07
2.54058e-07
-2.57313e-07
8.95172e-07
-2.29714e-07
-2.37118e-07
0.000265327
-1.20532e-06
0.000267304
-0.000265327
2.32445e-07
2.39847e-07
-1.58954e-09
2.98174e-09
0.00108824
-2.55109e-07
1.20541e-06
2.53916e-07
8.95371e-07
-2.6015e-07
2.56884e-07
-8.94956e-07
-1.87302e-09
-0.00108773
2.97493e-09
-1.20257e-06
2.5388e-07
-2.55023e-07
-8.94636e-07
2.56852e-07
8.95157e-07
-2.59998e-07
1.20542e-06
0.00108824
-1.68093e-09
-0.00108824
2.96041e-09
-1.2027e-06
2.53924e-07
-2.55094e-07
-8.94944e-07
2.56912e-07
-2.60118e-07
8.95377e-07
-0.00026534
2.34762e-07
2.40089e-07
1.24164e-06
1.20536e-06
-2.29525e-07
-2.37291e-07
0.000265345
-1.24438e-06
-1.2081e-06
0.000267325
-0.000265345
2.32255e-07
2.40088e-07
3.12955e-09
0.00108729
-2.60479e-07
1.24437e-06
2.59219e-07
8.95158e-07
-2.57303e-07
-8.94795e-07
2.54064e-07
-1.24709e-06
-1.54629e-09
3.11336e-09
0.00108772
-2.63263e-07
1.24984e-06
2.62025e-07
9.00754e-07
-2.60167e-07
-9.00427e-07
2.5685e-07
0.00108729
-1.67786e-09
-0.00108729
3.10965e-09
-1.24163e-06
2.59237e-07
-2.60462e-07
-8.94783e-07
2.54097e-07
-2.5727e-07
8.95173e-07
1.24985e-06
0.00108772
-1.55513e-09
-0.00108772
3.09942e-09
-1.24709e-06
2.62044e-07
-2.63246e-07
-9.00421e-07
2.5688e-07
-2.60138e-07
9.00762e-07
-2.32255e-07
-2.34555e-07
0.000265366
-1.21076e-06
0.000267354
-0.000265366
2.35058e-07
2.37355e-07
2.99795e-09
0.00108834
-2.57839e-07
1.20808e-06
2.56663e-07
8.98045e-07
-2.60113e-07
-8.97537e-07
2.56937e-07
-1.2417e-06
-1.61532e-09
3.12201e-09
0.0010874
-2.63256e-07
1.24443e-06
2.62007e-07
8.9788e-07
-2.60067e-07
-8.97547e-07
2.56854e-07
0.00108834
-1.84401e-09
-0.00108834
2.97868e-09
-1.20535e-06
2.56682e-07
-2.57821e-07
-8.97531e-07
2.56977e-07
-2.60071e-07
8.98058e-07
1.24444e-06
0.0010874
-1.68256e-09
-0.0010874
3.07595e-09
-1.24169e-06
2.62026e-07
-2.63235e-07
-8.9754e-07
2.56883e-07
-2.60043e-07
8.97896e-07
-1.65601e-09
3.08773e-09
0.00108719
-2.57673e-07
1.23902e-06
2.56487e-07
8.95178e-07
-2.57301e-07
2.54073e-07
-8.9484e-07
-1.88156e-09
-0.00108807
2.97828e-09
-1.20796e-06
2.53882e-07
-2.55016e-07
-8.948e-07
2.5421e-07
8.95286e-07
-2.57288e-07
1.23904e-06
0.00108719
-1.72834e-09
-0.00108719
3.0451e-09
-1.23627e-06
2.56509e-07
-2.57651e-07
-8.94827e-07
2.54105e-07
-2.57269e-07
8.95192e-07
-2.29693e-07
-2.37095e-07
0.000265327
-1.20534e-06
0.000267304
-0.000265326
2.32471e-07
2.39878e-07
-1.68217e-09
2.94663e-09
0.00108824
-2.55088e-07
1.20542e-06
2.53932e-07
8.95382e-07
-2.60107e-07
2.56925e-07
-8.94941e-07
-1.96596e-09
-0.00108773
2.93464e-09
-1.20255e-06
2.53906e-07
-2.55e-07
-8.94622e-07
2.569e-07
8.95177e-07
-2.59953e-07
1.20544e-06
0.00108824
-1.7814e-09
-0.00108824
2.91155e-09
-1.20267e-06
2.53953e-07
-2.55067e-07
-8.94926e-07
2.56959e-07
-2.60076e-07
8.95404e-07
-0.00026534
2.34792e-07
2.40121e-07
1.24162e-06
1.20534e-06
-2.29502e-07
-2.37264e-07
0.000265345
-1.24439e-06
-1.20811e-06
0.000267325
-0.000265345
2.32284e-07
2.40112e-07
3.07939e-09
0.00108729
-2.60454e-07
1.24439e-06
2.59247e-07
8.9518e-07
-2.57266e-07
-8.94783e-07
2.54108e-07
-1.24708e-06
-1.61556e-09
3.07307e-09
0.00108772
-2.63239e-07
1.24986e-06
2.62052e-07
9.00771e-07
-2.6013e-07
-9.00416e-07
2.56894e-07
0.00108728
-1.73502e-09
-0.00108729
3.10335e-09
-1.24161e-06
2.59257e-07
-2.60447e-07
-8.94733e-07
2.54145e-07
-2.57233e-07
8.95228e-07
1.24986e-06
0.00108772
-1.60198e-09
-0.00108772
3.11521e-09
-1.24707e-06
2.6206e-07
-2.63234e-07
-9.00388e-07
2.56924e-07
-2.60106e-07
9.00805e-07
-2.32235e-07
-2.34535e-07
0.000265366
-1.21078e-06
0.000267354
-0.000265366
2.35088e-07
2.37376e-07
2.96982e-09
0.00108834
-2.57817e-07
1.2081e-06
2.56688e-07
8.98069e-07
-2.60067e-07
-8.97521e-07
2.56989e-07
-1.24168e-06
-1.73863e-09
3.04522e-09
0.0010874
-2.63227e-07
1.24445e-06
2.62036e-07
8.97925e-07
-2.60023e-07
-8.97517e-07
2.56906e-07
0.00108834
-1.89037e-09
-0.00108834
2.98241e-09
-1.20533e-06
2.56704e-07
-2.57805e-07
-8.975e-07
2.57018e-07
-2.60041e-07
8.98097e-07
1.24446e-06
0.0010874
-1.76119e-09
-0.0010874
3.06808e-09
-1.24168e-06
2.62046e-07
-2.63223e-07
-8.97497e-07
2.56923e-07
-2.60009e-07
8.97945e-07
-1.7652e-09
3.01049e-09
0.00108719
-2.57641e-07
1.23905e-06
2.5652e-07
8.95208e-07
-2.57258e-07
2.54119e-07
-8.9482e-07
-1.9079e-09
-0.00108807
2.98793e-09
-1.20794e-06
2.53903e-07
-2.55003e-07
-8.9478e-07
2.54248e-07
8.95319e-07
-2.57264e-07
1.23906e-06
0.00108719
-1.79304e-09
-0.00108719
3.03101e-09
-1.23625e-06
2.56532e-07
-2.57635e-07
-8.94798e-07
2.54141e-07
-2.57245e-07
8.95237e-07
-2.29667e-07
-2.37067e-07
0.000265326
-1.20535e-06
0.000267304
-0.000265326
2.32496e-07
2.39907e-07
-1.83059e-09
2.88406e-09
0.00108824
-2.5506e-07
1.20545e-06
2.53959e-07
8.95432e-07
-2.60059e-07
2.5698e-07
-8.94906e-07
-2.0665e-09
-0.00108773
2.94056e-09
-1.20254e-06
2.53922e-07
-2.5499e-07
-8.94585e-07
2.56944e-07
8.95231e-07
-2.59921e-07
1.20544e-06
0.00108824
-1.89578e-09
-0.00108824
2.92528e-09
-1.20267e-06
2.53966e-07
-2.55061e-07
-8.94879e-07
2.57005e-07
-2.60039e-07
8.9546e-07
-0.000265339
2.34813e-07
2.40154e-07
1.24161e-06
1.20533e-06
-2.2948e-07
-2.37247e-07
0.000265344
-1.24445e-06
-1.20817e-06
0.000267324
-0.000265344
2.32351e-07
2.40175e-07
3.06932e-09
0.00108728
-2.60441e-07
1.2444e-06
2.5927e-07
8.95237e-07
-2.57231e-07
-8.94737e-07
2.54154e-07
-1.24707e-06
-1.71118e-09
3.07342e-09
0.00108772
-2.63228e-07
1.24987e-06
2.62074e-07
9.00828e-07
-2.60096e-07
-9.00377e-07
2.5694e-07
0.00108728
-1.89045e-09
-0.00108728
3.03958e-09
-1.24156e-06
2.59312e-07
-2.60405e-07
-8.94699e-07
2.54217e-07
-2.57185e-07
8.95295e-07
1.24991e-06
0.00108772
-1.78223e-09
-0.00108772
3.06163e-09
-1.24703e-06
2.62112e-07
-2.63195e-07
-9.00339e-07
2.56998e-07
-2.60053e-07
9.00882e-07
-2.32213e-07
-2.34522e-07
0.000265365
-1.21083e-06
0.000267353
-0.000265365
2.35148e-07
2.37438e-07
2.96161e-09
0.00108834
-2.57799e-07
1.20812e-06
2.56715e-07
8.98124e-07
-2.60034e-07
-8.97484e-07
2.57036e-07
-1.24165e-06
-1.91017e-09
2.96771e-09
0.0010874
-2.63198e-07
1.24449e-06
2.62084e-07
8.97975e-07
-2.59989e-07
-8.97474e-07
2.56959e-07
0.00108834
-1.96799e-09
-0.00108834
2.87745e-09
-1.20528e-06
2.56761e-07
-2.57761e-07
-8.97466e-07
2.57081e-07
-2.60001e-07
8.98158e-07
1.24447e-06
0.00108739
-1.7022e-09
-0.00108739
3.13115e-09
-1.24165e-06
2.62064e-07
-2.6321e-07
-8.97484e-07
2.56952e-07
-2.60003e-07
8.97972e-07
-1.95672e-09
2.92837e-09
0.00108719
-2.57612e-07
1.23909e-06
2.56564e-07
8.95274e-07
-2.57221e-07
2.5418e-07
-8.94766e-07
-1.93046e-09
-0.00108807
2.89651e-09
-1.2079e-06
2.53946e-07
-2.54965e-07
-8.94738e-07
2.54302e-07
8.95378e-07
-2.57225e-07
1.23906e-06
0.00108719
-1.699e-09
-0.00108719
3.12584e-09
-1.23624e-06
2.56536e-07
-2.57633e-07
-8.94781e-07
2.54162e-07
-2.57242e-07
8.95261e-07
-2.29643e-07
-2.37034e-07
0.000265326
-1.20534e-06
0.000267303
-0.000265326
2.32524e-07
2.39954e-07
-2.07074e-09
2.83967e-09
0.00108824
-2.55038e-07
1.20547e-06
2.53998e-07
8.95501e-07
-2.60012e-07
2.57049e-07
-8.94847e-07
-2.02346e-09
-0.00108773
3.01922e-09
-1.20253e-06
2.5392e-07
-2.54992e-07
-8.94529e-07
2.56991e-07
8.95292e-07
-2.5989e-07
1.20543e-06
0.00108824
-1.82774e-09
-0.00108824
3.03022e-09
-1.20266e-06
2.53961e-07
-2.55067e-07
-8.94844e-07
2.57045e-07
-2.60019e-07
8.95505e-07
-0.000265339
2.34838e-07
2.40191e-07
1.2416e-06
1.20531e-06
-2.29439e-07
-2.37214e-07
0.000265344
-1.24457e-06
-1.20833e-06
0.000267324
-0.000265344
2.3249e-07
2.40276e-07
3.14306e-09
0.00108728
-2.60443e-07
1.2444e-06
2.59271e-07
8.95263e-07
-2.57224e-07
-8.94724e-07
2.54184e-07
-1.24707e-06
-1.66753e-09
3.15703e-09
0.00108772
-2.63234e-07
1.24986e-06
2.6207e-07
9.0086e-07
-2.60088e-07
-9.00356e-07
2.56973e-07
0.00108728
-2.45278e-09
-0.00108728
2.7999e-09
-1.2415e-06
2.59413e-07
-2.60354e-07
-8.94601e-07
2.54361e-07
-2.57106e-07
8.95455e-07
1.25002e-06
0.00108772
-2.33777e-09
-0.00108772
2.85455e-09
-1.24696e-06
2.62206e-07
-2.63147e-07
-9.00245e-07
2.57138e-07
-2.59976e-07
9.01038e-07
-2.3218e-07
-2.34494e-07
0.000265365
-1.21099e-06
0.000267353
-0.000265365
2.35284e-07
2.37529e-07
2.98169e-09
0.00108833
-2.57795e-07
1.20813e-06
2.56728e-07
8.98129e-07
-2.60041e-07
-8.97484e-07
2.57048e-07
-1.24167e-06
-1.83553e-09
3.06072e-09
0.00108739
-2.6322e-07
1.24447e-06
2.62077e-07
8.97987e-07
-2.60001e-07
-8.97487e-07
2.5698e-07
0.00108833
-2.3144e-09
-0.00108833
2.44794e-09
-1.20517e-06
2.56899e-07
-2.57672e-07
-8.97406e-07
2.57181e-07
-2.59955e-07
8.98268e-07
1.24449e-06
0.00108739
-1.86463e-09
-0.00108739
3.26665e-09
-1.24163e-06
2.62047e-07
-2.63229e-07
-8.97434e-07
2.56993e-07
-2.59977e-07
8.98034e-07
-1.85087e-09
3.02885e-09
0.00108719
-2.57642e-07
1.23907e-06
2.56555e-07
8.9527e-07
-2.57241e-07
2.54191e-07
-8.94789e-07
-2.21497e-09
-0.00108807
2.48555e-09
-1.20779e-06
2.5408e-07
-2.54878e-07
-8.94683e-07
2.54387e-07
8.95458e-07
-2.5718e-07
1.23909e-06
0.00108719
-1.82594e-09
-0.00108719
3.25159e-09
-1.2362e-06
2.56526e-07
-2.57642e-07
-8.94735e-07
2.54196e-07
-2.57217e-07
8.95311e-07
-2.29654e-07
-2.37033e-07
0.000265326
-1.20542e-06
0.000267303
-0.000265325
2.32564e-07
2.39942e-07
-2.03119e-09
2.95642e-09
0.00108824
-2.55077e-07
1.20544e-06
2.5398e-07
8.95527e-07
-2.60007e-07
2.57083e-07
-8.94838e-07
-1.88578e-09
-0.00108772
2.94097e-09
-1.20247e-06
2.53946e-07
-2.54975e-07
-8.94549e-07
2.5697e-07
8.95269e-07
-2.59916e-07
1.2055e-06
0.00108824
-1.74115e-09
-0.00108824
2.95241e-09
-1.2026e-06
2.53979e-07
-2.55054e-07
-8.94826e-07
2.57041e-07
-2.60021e-07
8.95509e-07
-0.000265338
2.34869e-07
2.40189e-07
1.24156e-06
1.20522e-06
-2.29355e-07
-2.37172e-07
0.000265344
-1.24403e-06
-1.20775e-06
0.000267324
-0.000265344
2.31766e-07
2.39596e-07
3.11408e-09
0.00108728
-2.6044e-07
1.24444e-06
2.59273e-07
8.95317e-07
-2.57188e-07
-8.94669e-07
2.54224e-07
-1.24705e-06
-1.95934e-09
3.21167e-09
0.00108772
-2.63248e-07
1.24987e-06
2.62051e-07
9.00911e-07
-2.60054e-07
-9.00305e-07
2.57012e-07
0.00108728
-1.31764e-11
-0.00108728
3.78538e-09
-1.24207e-06
2.58843e-07
-2.60963e-07
-8.95426e-07
2.53435e-07
-2.58024e-07
8.94635e-07
1.24951e-06
0.00108772
8.11774e-11
-0.00108772
3.74416e-09
-1.24752e-06
2.6166e-07
-2.63747e-07
-9.01061e-07
2.5623e-07
-2.60876e-07
9.00226e-07
-2.32099e-07
-2.34474e-07
0.000265365
-1.21041e-06
0.000267353
-0.000265365
2.34572e-07
2.36883e-07
2.64834e-09
0.00108833
-2.57748e-07
1.20822e-06
2.56776e-07
8.98092e-07
-2.60072e-07
-8.97507e-07
2.57011e-07
-1.24185e-06
-1.15472e-09
3.83365e-09
0.00108739
-2.6345e-07
1.24424e-06
2.61795e-07
8.97769e-07
-2.60198e-07
-8.97649e-07
2.56718e-07
0.00108834
-2.32222e-10
-0.00108833
3.70272e-09
-1.20577e-06
2.56298e-07
-2.58298e-07
-8.98195e-07
2.56305e-07
-2.60856e-07
8.97527e-07
1.24422e-06
0.0010874
-3.15024e-10
-0.00108739
3.48147e-09
-1.24206e-06
2.61774e-07
-2.63662e-07
-8.98136e-07
2.56326e-07
-2.60773e-07
8.97465e-07
-1.03904e-09
3.77492e-09
0.00108719
-2.57868e-07
1.23884e-06
2.56275e-07
8.9501e-07
-2.57464e-07
2.53892e-07
-8.94984e-07
-3.66507e-10
-0.00108807
3.68374e-09
-1.20838e-06
2.53503e-07
-2.55482e-07
-8.95426e-07
2.53572e-07
8.94825e-07
-2.58063e-07
1.23882e-06
0.00108719
-3.9677e-10
-0.00108719
3.46311e-09
-1.23663e-06
2.56265e-07
-2.58064e-07
-8.95427e-07
2.53551e-07
-2.5801e-07
8.94777e-07
-2.29753e-07
-2.37194e-07
0.000265325
-1.2051e-06
0.000267304
-0.000265326
2.32102e-07
2.39516e-07
-8.72208e-10
3.38079e-09
0.00108824
-2.55263e-07
1.20527e-06
2.53745e-07
8.95183e-07
-2.60291e-07
2.56717e-07
-8.95104e-07
-6.7888e-10
-0.00108773
3.41879e-09
-1.20291e-06
2.53652e-07
-2.55409e-07
-8.95224e-07
2.56345e-07
8.94767e-07
-2.607e-07
1.20521e-06
0.00108824
-4.78931e-10
-0.00108824
3.38188e-09
-1.20304e-06
2.53703e-07
-2.5548e-07
-8.95524e-07
2.56406e-07
-2.60818e-07
8.94992e-07
-0.000265339
2.34431e-07
2.39764e-07
1.24199e-06
1.20574e-06
-2.30025e-07
-2.37768e-07
0.000265344
-1.24448e-06
-1.20816e-06
0.000267325
-0.000265345
2.32298e-07
2.40159e-07
3.55197e-09
0.00108729
-2.60878e-07
1.24417e-06
2.58989e-07
8.94735e-07
-2.58038e-07
-8.95405e-07
2.53518e-07
-1.24742e-06
-8.80666e-11
3.47054e-09
0.00108772
-2.63644e-07
1.24966e-06
2.61817e-07
9.00328e-07
-2.60895e-07
-9.01038e-07
2.56306e-07
0.00108729
-1.62744e-09
-0.00108729
2.99725e-09
-1.24162e-06
2.59349e-07
-2.60461e-07
-8.94889e-07
2.54068e-07
-2.57474e-07
8.95218e-07
1.24996e-06
0.00108772
-1.49059e-09
-0.00108772
2.96027e-09
-1.24706e-06
2.62165e-07
-2.63234e-07
-9.00538e-07
2.56841e-07
-2.60351e-07
9.00797e-07
-2.32763e-07
-2.3501e-07
0.000265365
-1.21083e-06
0.000267354
-0.000265366
2.35099e-07
2.3744e-07
3.66415e-09
0.00108834
-2.58258e-07
1.20784e-06
2.56397e-07
8.97691e-07
-2.60813e-07
-8.98097e-07
2.56442e-07
-1.24188e-06
-7.91976e-10
3.06692e-09
0.0010874
-2.63465e-07
1.2444e-06
2.61979e-07
8.97638e-07
-2.60628e-07
-8.97992e-07
2.56511e-07
0.00108834
-1.89842e-09
-0.00108834
2.98808e-09
-1.20538e-06
2.5676e-07
-2.57862e-07
-8.97602e-07
2.5698e-07
-2.60234e-07
8.98128e-07
1.24455e-06
0.0010874
-1.69156e-09
-0.0010874
2.87811e-09
-1.24165e-06
2.62151e-07
-2.63199e-07
-8.97611e-07
2.56881e-07
-2.60188e-07
8.97948e-07
-9.18616e-10
3.09436e-09
0.00108719
-2.57883e-07
1.23899e-06
2.56451e-07
8.94968e-07
-2.57838e-07
2.53756e-07
-8.95254e-07
-1.95866e-09
-0.00108807
2.99049e-09
-1.20799e-06
2.53959e-07
-2.55062e-07
-8.9487e-07
2.54223e-07
8.95347e-07
-2.57436e-07
1.23914e-06
0.00108719
-1.75607e-09
-0.00108719
2.86849e-09
-1.23624e-06
2.56629e-07
-2.57621e-07
-8.94893e-07
2.54106e-07
-2.5741e-07
8.9525e-07
-2.30019e-07
-2.37387e-07
0.000265326
-1.20542e-06
0.000267304
-0.000265327
2.32528e-07
2.39958e-07
-1.09551e-09
3.12674e-09
0.00108824
-2.5532e-07
1.20536e-06
2.53868e-07
8.95201e-07
-2.60625e-07
2.5663e-07
-8.95323e-07
-2.08968e-09
-0.00108773
2.87408e-09
-1.20255e-06
2.53996e-07
-2.55003e-07
-8.94663e-07
2.56925e-07
8.95253e-07
-2.60065e-07
1.20552e-06
0.00108824
-1.89547e-09
-0.00108824
2.83619e-09
-1.20267e-06
2.54044e-07
-2.55068e-07
-8.94961e-07
2.56984e-07
-2.60185e-07
8.95479e-07
-0.00026534
2.34848e-07
2.40199e-07
1.2416e-06
1.20534e-06
-2.29504e-07
-2.37249e-07
0.000265345
-1.24442e-06
-1.20815e-06
0.000267325
-0.000265345
2.32287e-07
2.40106e-07
2.98239e-09
0.00108729
-2.60439e-07
1.24448e-06
2.59352e-07
8.95249e-07
-2.57392e-07
-8.94833e-07
2.54123e-07
-1.24705e-06
-1.64355e-09
2.96863e-09
0.00108772
-2.63219e-07
1.24995e-06
2.6216e-07
9.00835e-07
-2.60263e-07
-9.00474e-07
2.56902e-07
0.00108729
-1.75574e-09
-0.00108729
3.08434e-09
-1.24165e-06
2.59282e-07
-2.60501e-07
-8.94827e-07
2.54127e-07
-2.57359e-07
8.95238e-07
1.24989e-06
0.00108772
-1.62484e-09
-0.00108772
3.09364e-09
-1.24711e-06
2.62084e-07
-2.63291e-07
-9.00473e-07
2.56905e-07
-2.60232e-07
9.0082e-07
-2.32238e-07
-2.34513e-07
0.000265366
-1.21082e-06
0.000267354
-0.000265366
2.35091e-07
2.3737e-07
2.90072e-09
0.00108834
-2.57821e-07
1.20818e-06
2.5678e-07
8.98142e-07
-2.60174e-07
-8.97561e-07
2.57016e-07
-1.24167e-06
-1.72214e-09
2.98353e-09
0.0010874
-2.63225e-07
1.24452e-06
2.62118e-07
8.97958e-07
-2.6015e-07
-8.97587e-07
2.56901e-07
0.00108834
-1.84628e-09
-0.00108834
2.90279e-09
-1.20536e-06
2.56738e-07
-2.57851e-07
-8.97599e-07
2.5699e-07
-2.60176e-07
8.98099e-07
1.24446e-06
0.0010874
-1.63051e-09
-0.0010874
3.15314e-09
-1.24174e-06
2.62044e-07
-2.63304e-07
-8.97607e-07
2.56882e-07
-2.60156e-07
8.97933e-07
-1.76323e-09
2.94999e-09
0.00108719
-2.57643e-07
1.23912e-06
2.56597e-07
8.95251e-07
-2.5738e-07
2.54119e-07
-8.9488e-07
-1.84901e-09
-0.00108807
2.89776e-09
-1.20797e-06
2.53939e-07
-2.55046e-07
-8.94879e-07
2.54216e-07
8.95318e-07
-2.574e-07
1.23906e-06
0.00108719
-1.65086e-09
-0.00108719
3.11472e-09
-1.23632e-06
2.5653e-07
-2.57716e-07
-8.94906e-07
2.54095e-07
-2.57394e-07
8.95222e-07
-2.29677e-07
-2.37062e-07
0.000265327
-1.20537e-06
0.000267304
-0.000265327
2.3248e-07
2.39873e-07
-1.85774e-09
2.85664e-09
0.00108824
-2.55079e-07
1.2055e-06
2.54024e-07
8.95471e-07
-2.60161e-07
2.5699e-07
-8.9495e-07
-1.85094e-09
-0.00108773
2.95434e-09
-1.20259e-06
2.53934e-07
-2.55057e-07
-8.94706e-07
2.56885e-07
8.95198e-07
-2.6008e-07
1.20546e-06
0.00108824
-1.67086e-09
-0.00108824
2.94243e-09
-1.20272e-06
2.53974e-07
-2.55132e-07
-8.94999e-07
2.56946e-07
-2.60197e-07
8.95425e-07
-0.00026534
2.34794e-07
2.4012e-07
1.24166e-06
1.20537e-06
-2.29539e-07
-2.37316e-07
0.000265345
-1.2444e-06
-1.20813e-06
0.000267325
-0.000265345
2.32263e-07
2.40085e-07
3.10772e-09
0.00108729
-2.60515e-07
1.24441e-06
2.59272e-07
8.95217e-07
-2.57377e-07
-8.9485e-07
2.5411e-07
-1.24713e-06
-1.58726e-09
3.11786e-09
0.00108772
-2.63305e-07
1.24988e-06
2.62073e-07
9.00809e-07
-2.60244e-07
-9.00486e-07
2.56894e-07
0.00108729
-1.6537e-09
-0.00108729
3.14205e-09
-1.24168e-06
2.59258e-07
-2.60532e-07
-8.94861e-07
2.541e-07
-2.5739e-07
8.9521e-07
1.24987e-06
0.00108772
-1.52498e-09
-0.00108772
3.14564e-09
-1.24714e-06
2.62062e-07
-2.63319e-07
-9.00505e-07
2.56879e-07
-2.6026e-07
9.00793e-07
-2.32272e-07
-2.34592e-07
0.000265366
-1.2108e-06
0.000267354
-0.000265366
2.35066e-07
2.37351e-07
2.93294e-09
0.00108834
-2.57864e-07
1.20814e-06
2.56726e-07
8.98088e-07
-2.60195e-07
-8.9761e-07
2.56974e-07
-1.24175e-06
-1.60532e-09
3.1764e-09
0.0010874
-2.63313e-07
1.24445e-06
2.62038e-07
8.97925e-07
-2.60165e-07
-8.97616e-07
2.56875e-07
0.00108834
-1.74749e-09
-0.00108834
2.96724e-09
-1.20539e-06
2.56713e-07
-2.57881e-07
-8.9763e-07
2.56964e-07
-2.60206e-07
8.98075e-07
1.24445e-06
0.0010874
-1.56621e-09
-0.0010874
3.17905e-09
-1.24175e-06
2.62032e-07
-2.6332e-07
-8.97628e-07
2.56867e-07
-2.60173e-07
8.97914e-07
-1.62542e-09
3.13421e-09
0.00108719
-2.57726e-07
1.23905e-06
2.56521e-07
8.95214e-07
-2.57403e-07
2.54087e-07
-8.94916e-07
-1.75484e-09
-0.00108807
2.96292e-09
-1.208e-06
2.53913e-07
-2.55077e-07
-8.94904e-07
2.54194e-07
8.95297e-07
-2.57427e-07
1.23905e-06
0.00108719
-1.59001e-09
-0.00108719
3.14558e-09
-1.23633e-06
2.56516e-07
-2.57733e-07
-8.94924e-07
2.54082e-07
-2.57408e-07
8.95206e-07
-2.29726e-07
-2.37139e-07
0.000265327
-1.20536e-06
0.000267304
-0.000265327
2.32467e-07
2.39862e-07
-1.62604e-09
2.95732e-09
0.00108824
-2.5514e-07
1.20546e-06
2.53967e-07
8.95414e-07
-2.60209e-07
2.56935e-07
-8.95011e-07
-1.78588e-09
-0.00108773
2.98919e-09
-1.2026e-06
2.53921e-07
-2.55072e-07
-8.94726e-07
2.56869e-07
8.95181e-07
-2.60099e-07
1.20545e-06
0.00108824
-1.60056e-09
-0.00108824
2.97502e-09
-1.20273e-06
2.53962e-07
-2.55147e-07
-8.95017e-07
2.56929e-07
-2.60216e-07
8.95409e-07
-0.00026534
2.34782e-07
2.40107e-07
1.24168e-06
1.20539e-06
-2.29559e-07
-2.37332e-07
0.000265345
-1.2444e-06
-1.20812e-06
0.000267325
-0.000265345
2.32259e-07
2.40083e-07
3.14197e-09
0.00108729
-2.60532e-07
1.2444e-06
2.59259e-07
8.95198e-07
-2.57398e-07
-8.94873e-07
2.54092e-07
-1.24714e-06
-1.51464e-09
3.14718e-09
0.00108772