/*--------------------------------*- C++ -*----------------------------------*\
| =========                 |                                                 |
| \\      /  F ield         | OpenFOAM: The Open Source CFD Toolbox           |
|  \\    /   O peration     | Version:  2206                                  |
|   \\  /    A nd           | Website:  www.openfoam.com                      |
|    \\/     M anipulation  |                                                 |
\*---------------------------------------------------------------------------*/
FoamFile
{
    version     2.0;
    format      ascii;
    arch        "LSB;label=32;scalar=64";
    class       volScalarField;
    location    "22.5";
    object      nut;
}
// * * * * * * * * * * * * * * * * * * * * * * * * * * * * * * * * * * * * * //

dimensions      [0 2 -1 0 0 0 0];

internalField   nonuniform List<scalar> 
28897
(
0.000224388
0.000204009
0.000204001
0.000181372
0.000224387
0.000204009
0.000203999
0.00018137
0.000224386
0.000204006
0.000203998
0.000181369
0.000224386
0.000204005
0.000203997
0.000181368
0.000224378
0.000203996
0.000203985
0.000181345
0.000224359
0.000203952
0.000203945
0.00018129
0.000224366
0.000203955
0.000203949
0.0001813
0.000224367
0.000203956
0.000203949
0.000181294
0.000224367
0.000203956
0.00020395
0.000181297
0.000224367
0.000203956
0.00020395
0.000181297
0.000224367
0.000203956
0.00020395
0.000181296
0.000224367
0.000203956
0.00020395
0.000181296
0.000224367
0.000203956
0.00020395
0.000181296
0.000224367
0.000203956
0.00020395
0.000181296
0.000224367
0.000203956
0.00020395
0.000181296
0.000224367
0.000203957
0.00020395
0.000181296
0.000224367
0.000203957
0.00020395
0.000181296
0.000224368
0.000203957
0.00020395
0.000181296
0.000181533
0.000203993
0.000203991
0.000181539
0.000204005
0.000203983
0.00020401
0.000203993
0.000181526
0.000204001
0.000204004
0.00018153
0.000181376
0.00018153
0.000203994
0.000203992
0.000203993
0.000203991
0.00018138
0.000181534
0.000204006
0.000203984
0.000204006
0.000203983
0.000203994
0.00020401
0.000203993
0.00018137
0.000181523
0.000204005
0.000204
0.000204004
0.000181528
0.000181374
0.000181529
0.000203992
0.000203991
0.000203991
0.00020399
0.000181378
0.000181533
0.000204005
0.000203983
0.000204003
0.000203982
0.000203993
0.000204006
0.000203993
0.000181368
0.000181521
0.000204003
0.000203998
0.000204003
0.000181527
0.000181372
0.000181528
0.000203989
0.000203991
0.000203989
0.000203991
0.000181377
0.000181533
0.000204001
0.000203982
0.000204002
0.00020398
0.000203994
0.000204005
0.000203993
0.000181365
0.000181521
0.000204002
0.000203998
0.000204
0.000181526
0.000181373
0.000181514
0.00020399
0.000203989
0.000203985
0.000203983
0.000181377
0.000181523
0.000204003
0.000203979
0.000203996
0.000203974
0.000203992
0.000204001
0.000203985
0.000181365
0.000181506
0.000204
0.000203992
0.000203995
0.000181512
0.000181349
0.000181455
0.000203976
0.000203976
0.000203937
0.000203938
0.000181361
0.000181465
0.000203988
0.000203966
0.000203949
0.000203927
0.000203977
0.000203956
0.000203938
0.000181343
0.000181447
0.000203988
0.000203946
0.000203948
0.000181452
0.000181296
0.000181461
0.000203937
0.000203935
0.00020394
0.000203937
0.000181301
0.000181465
0.000203949
0.000203926
0.000203952
0.00020393
0.000203937
0.000203955
0.000203939
0.000181289
0.000181454
0.000203947
0.000203949
0.000203951
0.000181459
0.000181304
0.000181454
0.000203941
0.000203938
0.00020394
0.000203938
0.000181308
0.000181459
0.000203953
0.000203931
0.000203953
0.00020393
0.00020394
0.000203956
0.00020394
0.000181297
0.000181446
0.000203952
0.000203949
0.000203951
0.000181451
0.000181298
0.000181458
0.000203941
0.000203938
0.000203941
0.000203939
0.000181302
0.000181461
0.000203954
0.000203931
0.000203954
0.000203931
0.000203941
0.000203956
0.000203941
0.000181291
0.000181451
0.000203952
0.00020395
0.000203952
0.000181455
0.000181302
0.000181455
0.000203942
0.000203939
0.000203941
0.000203939
0.000181306
0.000181459
0.000203954
0.000203932
0.000203954
0.000203931
0.000203941
0.000203956
0.000203941
0.000181295
0.000181448
0.000203953
0.00020395
0.000203952
0.000181454
0.0001813
0.000181455
0.000203942
0.000203939
0.000203942
0.000203939
0.000181303
0.00018146
0.000203954
0.000203932
0.000203954
0.000203931
0.000203941
0.000203957
0.000203941
0.000181294
0.000181449
0.000203953
0.00020395
0.000203952
0.000181453
0.000181299
0.000181456
0.000203942
0.000203939
0.000203941
0.000203939
0.000181303
0.00018146
0.000203954
0.000203932
0.000203953
0.000203931
0.000203941
0.000203957
0.000203941
0.000181293
0.00018145
0.000203953
0.00020395
0.000203952
0.000181453
0.0001813
0.000181456
0.000203941
0.00020394
0.000203941
0.000203939
0.000181304
0.00018146
0.000203953
0.000203932
0.000203953
0.000203931
0.000203941
0.000203957
0.000203941
0.000181294
0.00018145
0.000203952
0.00020395
0.000203952
0.000181454
0.0001813
0.000181457
0.000203942
0.000203939
0.000203942
0.000203939
0.000181304
0.00018146
0.000203954
0.000203932
0.000203953
0.000203931
0.000203941
0.000203957
0.000203941
0.000181294
0.00018145
0.000203953
0.00020395
0.000203952
0.000181454
0.000181301
0.000181457
0.000203942
0.000203939
0.000203942
0.000203939
0.000181304
0.00018146
0.000203953
0.000203932
0.000203953
0.000203931
0.000203941
0.000203957
0.000203941
0.000181294
0.00018145
0.000203952
0.00020395
0.000203952
0.000181454
0.000181301
0.000181457
0.000203942
0.000203939
0.000203942
0.000203939
0.000181304
0.00018146
0.000203953
0.000203932
0.000203953
0.000203931
0.000203941
0.000203957
0.000203941
0.000181294
0.00018145
0.000203953
0.00020395
0.000203952
0.000181454
0.000181301
0.000181457
0.000203943
0.00020394
0.000203942
0.000203939
0.000181304
0.000181461
0.000203953
0.000203932
0.000203953
0.000203931
0.000203941
0.000203957
0.000203941
0.000181294
0.00018145
0.000203952
0.00020395
0.000203952
0.000181454
0.000181301
0.000181457
0.000203943
0.00020394
0.000203942
0.000203939
0.000181305
0.000181461
0.000203953
0.000203932
0.000203953
0.000203931
0.000203941
0.000203956
0.000203941
0.000181294
0.00018145
0.000203953
0.00020395
0.000203952
0.000181454
0.000181301
0.000203943
0.00020394
0.000181305
0.000203954
0.000203932
0.000203941
0.000181295
0.000203953
0.000224388
0.000224388
0.000224385
0.000224387
4.60883e-05
4.92109e-05
4.60789e-05
4.92098e-05
2.56729e-05
2.56721e-05
4.60947e-05
4.92094e-05
4.60866e-05
4.92083e-05
0.000224389
0.000224386
0.000224387
0.000224387
0.000224389
0.000224385
0.000224386
0.00010926
5.62301e-05
0.000217167
0.000204011
0.000109233
5.62473e-05
0.000217168
2.56695e-05
2.56688e-05
0.000109261
0.000217164
5.62315e-05
0.000204
0.000109234
0.000217165
5.6248e-05
3.53673e-05
3.5358e-05
0.000181529
3.53721e-05
3.53625e-05
4.60905e-05
4.92101e-05
4.60816e-05
4.92092e-05
2.56716e-05
2.56713e-05
4.60961e-05
4.92087e-05
4.60876e-05
4.92077e-05
0.000224389
0.000224385
0.000224388
0.000224386
0.000224388
0.000224384
0.000224389
0.000109263
5.6233e-05
0.000217167
0.000204007
0.000109235
5.62503e-05
0.000217168
2.56685e-05
2.56682e-05
0.000109259
0.000217164
5.62345e-05
0.000203999
0.000109232
0.000217162
5.62506e-05
3.53731e-05
3.53652e-05
0.000181527
3.53783e-05
3.53712e-05
4.60956e-05
4.92098e-05
4.60858e-05
4.9209e-05
2.56712e-05
2.56711e-05
4.61024e-05
4.92083e-05
4.6093e-05
4.92075e-05
0.000224388
0.000224384
0.000224388
0.000224386
0.000224387
0.000224384
0.000224386
0.000109267
5.62355e-05
0.000217166
0.000204006
0.000109238
5.62522e-05
0.000217164
2.56682e-05
2.56681e-05
0.000109262
0.000217161
5.62363e-05
0.000203997
0.000109233
0.00021716
5.62528e-05
3.53797e-05
3.53729e-05
0.000181526
3.53843e-05
3.53774e-05
4.60964e-05
4.92098e-05
4.60892e-05
4.92093e-05
2.56714e-05
2.56715e-05
4.61033e-05
4.92083e-05
4.60967e-05
4.92079e-05
0.000224387
0.000224384
0.000224386
0.000224384
0.000224384
0.000224381
0.000224383
0.000109263
5.62376e-05
0.000217164
0.000204004
0.000109239
5.62541e-05
0.000217163
2.56684e-05
2.56685e-05
0.000109264
0.000217161
5.62396e-05
0.000203996
0.000109238
0.000217161
5.62543e-05
3.53836e-05
3.53768e-05
0.000181524
3.53863e-05
3.53787e-05
4.6075e-05
4.92118e-05
4.60766e-05
4.92124e-05
2.5672e-05
2.56719e-05
4.60813e-05
4.92103e-05
4.60839e-05
4.92109e-05
0.00022438
0.000224376
0.000224377
0.000224357
0.000224359
0.000224354
0.000224356
0.00010923
5.62308e-05
0.000217156
0.000203985
0.00010922
5.62375e-05
0.000217143
2.5669e-05
2.56688e-05
0.000109221
0.000217152
5.62281e-05
0.000203968
0.00010922
0.000217135
5.62334e-05
3.53784e-05
3.5371e-05
0.000181479
3.53772e-05
3.53698e-05
4.60603e-05
4.92138e-05
4.60552e-05
4.92129e-05
2.56718e-05
2.56716e-05
4.60673e-05
4.92122e-05
4.60626e-05
4.92114e-05
0.000224361
0.000224357
0.000224359
0.000224366
0.000224367
0.000224364
0.000224366
0.000109184
5.62046e-05
0.000217125
0.000203952
0.000109155
5.62154e-05
0.000217127
2.56688e-05
2.56686e-05
0.000109187
0.000217123
5.6204e-05
0.000203947
0.000109156
0.000217125
5.62162e-05
3.53661e-05
3.53589e-05
0.000181458
3.53657e-05
3.53592e-05
4.60588e-05
4.92136e-05
4.6051e-05
4.92128e-05
2.56717e-05
2.56716e-05
4.60659e-05
4.92121e-05
4.60587e-05
4.92113e-05
0.000224367
0.000224365
0.000224366
0.000224367
0.000224367
0.000224364
0.000224366
0.000109186
5.61963e-05
0.00021713
0.000203956
0.000109159
5.62119e-05
0.00021713
2.56687e-05
2.56685e-05
0.000109189
0.000217129
5.61992e-05
0.000203949
0.000109161
0.000217129
5.62144e-05
3.53616e-05
3.53556e-05
0.000181453
3.53641e-05
3.53581e-05
4.60587e-05
4.92135e-05
4.60508e-05
4.92128e-05
2.56717e-05
2.56716e-05
4.60658e-05
4.92121e-05
4.60586e-05
4.92113e-05
0.000224367
0.000224365
0.000224366
0.000224367
0.000224367
0.000224365
0.000224366
0.000109183
5.61956e-05
0.00021713
0.000203956
0.000109157
5.62117e-05
0.000217131
2.56687e-05
2.56685e-05
0.000109188
0.000217129
5.6199e-05
0.00020395
0.000109161
0.000217129
5.62144e-05
3.53614e-05
3.53555e-05
0.000181453
3.53641e-05
3.53581e-05
4.60587e-05
4.92135e-05
4.60508e-05
4.92127e-05
2.56717e-05
2.56716e-05
4.60658e-05
4.9212e-05
4.60586e-05
4.92113e-05
0.000224367
0.000224365
0.000224366
0.000224367
0.000224367
0.000224365
0.000224366
0.000109185
5.61956e-05
0.000217131
0.000203956
0.000109158
5.62117e-05
0.000217131
2.56687e-05
2.56685e-05
0.000109187
0.000217129
5.6199e-05
0.00020395
0.00010916
0.000217129
5.62144e-05
3.53615e-05
3.53555e-05
0.000181453
3.53641e-05
3.53581e-05
4.60587e-05
4.92135e-05
4.60508e-05
4.92128e-05
2.56717e-05
2.56716e-05
4.60659e-05
4.92121e-05
4.60586e-05
4.92113e-05
0.000224367
0.000224365
0.000224366
0.000224367
0.000224367
0.000224364
0.000224366
0.000109186
5.61956e-05
0.000217131
0.000203957
0.000109158
5.62117e-05
0.000217131
2.56687e-05
2.56685e-05
0.000109188
0.000217129
5.6199e-05
0.00020395
0.000109161
0.000217129
5.62145e-05
3.53615e-05
3.53555e-05
0.000181454
3.53641e-05
3.53581e-05
4.60588e-05
4.9214e-05
4.60508e-05
4.92136e-05
2.56714e-05
2.56712e-05
4.60659e-05
4.92117e-05
4.60586e-05
4.92107e-05
0.000224367
0.000224365
0.000224366
0.000224367
0.000224367
0.000224364
0.000224366
0.000109185
5.61956e-05
0.000217131
0.000203957
0.000109158
5.62117e-05
0.000217131
2.56687e-05
2.56685e-05
0.000109188
0.000217129
5.61991e-05
0.00020395
0.000109161
0.000217129
5.62146e-05
3.53615e-05
3.53555e-05
0.000181454
3.53641e-05
3.53581e-05
4.60588e-05
4.92147e-05
4.60508e-05
4.92141e-05
2.56712e-05
2.5671e-05
4.60659e-05
4.92111e-05
4.60586e-05
4.92104e-05
0.000224367
0.000224365
0.000224366
0.000224367
0.000224367
0.000224364
0.000224366
0.000109183
5.61956e-05
0.000217131
0.000203957
0.000109157
5.62117e-05
0.000217131
2.56687e-05
2.56685e-05
0.000109187
0.000217129
5.61991e-05
0.00020395
0.00010916
0.000217129
5.62147e-05
3.53615e-05
3.53555e-05
0.000181454
3.53641e-05
3.53581e-05
4.60588e-05
4.92149e-05
4.60508e-05
4.92142e-05
2.56712e-05
2.5671e-05
4.60659e-05
4.92111e-05
4.60586e-05
4.92103e-05
0.000224367
0.000224365
0.000224366
0.000224367
0.000224367
0.000224364
0.000224366
0.000109186
5.61956e-05
0.000217131
0.000203957
0.000109158
5.62117e-05
0.000217131
2.56687e-05
2.56685e-05
0.000109185
0.000217129
5.61991e-05
0.00020395
0.000109157
0.000217129
5.62147e-05
3.53615e-05
3.53555e-05
0.000181454
3.53641e-05
3.53581e-05
4.60588e-05
4.9215e-05
4.60508e-05
4.92143e-05
2.56712e-05
2.5671e-05
4.60658e-05
4.9211e-05
4.60586e-05
4.92103e-05
0.000224367
0.000224365
0.000224366
0.000224367
0.000224367
0.000224364
0.000224366
0.000109183
5.61956e-05
0.000217131
0.000203957
0.000109157
5.62117e-05
0.000217131
2.56687e-05
2.56685e-05
0.000109185
0.000217129
5.61991e-05
0.00020395
0.000109157
0.000217129
5.62147e-05
3.53614e-05
3.53555e-05
0.000181454
3.53641e-05
3.53581e-05
4.60587e-05
4.92151e-05
4.60508e-05
4.92143e-05
2.56711e-05
2.5671e-05
4.60658e-05
4.9211e-05
4.60585e-05
4.92103e-05
0.000224367
0.000224365
0.000224366
0.000224367
0.000224367
0.000224364
0.000224366
0.000109185
5.61956e-05
0.000217131
0.000203957
0.000109158
5.62117e-05
0.000217131
2.56687e-05
2.56685e-05
0.000109184
0.000217129
5.61992e-05
0.00020395
0.000109156
0.000217129
5.62147e-05
3.53614e-05
3.53555e-05
0.000181454
3.53641e-05
3.53581e-05
4.60588e-05
4.92151e-05
4.60508e-05
4.92144e-05
2.56711e-05
2.5671e-05
4.60659e-05
4.9211e-05
4.60586e-05
4.92103e-05
0.000224368
0.000224365
0.000224366
0.000224367
0.000224367
0.000224364
0.000224366
0.000109183
5.61956e-05
0.000217131
0.000203957
0.000109157
5.62117e-05
0.000217131
2.56687e-05
2.56685e-05
0.000109184
0.000217129
5.61992e-05
0.00020395
0.000109156
0.000217129
5.62147e-05
3.53614e-05
3.53555e-05
0.000181454
3.53641e-05
3.53581e-05
4.60588e-05
4.92151e-05
4.60508e-05
4.92144e-05
2.56711e-05
2.5671e-05
4.60659e-05
4.9211e-05
4.60586e-05
4.92103e-05
0.000224368
0.000224365
0.000224366
0.000224367
0.000224367
0.000224364
0.000224366
0.000109184
5.61957e-05
0.000217131
0.000203957
0.000109158
5.62117e-05
0.000217131
2.56687e-05
2.56685e-05
0.000109184
0.000217129
5.61992e-05
0.00020395
0.000109156
0.00021713
5.62147e-05
3.53615e-05
3.53555e-05
0.000181454
3.53641e-05
3.53581e-05
4.92151e-05
4.60508e-05
2.56711e-05
4.9211e-05
4.60586e-05
0.000224368
0.000224365
0.000224367
5.61957e-05
0.000217131
0.000109158
2.56687e-05
0.00021713
5.61992e-05
0.000109156
3.53615e-05
3.53555e-05
2.56724e-05
2.56733e-05
2.56712e-05
2.56721e-05
0.000181356
3.53612e-05
3.53607e-05
3.53552e-05
3.53583e-05
4.6078e-05
4.92102e-05
4.92122e-05
4.60863e-05
4.60788e-05
4.92122e-05
4.9214e-05
4.60871e-05
0.000109235
0.000203993
5.62431e-05
0.000217164
5.62271e-05
0.000217165
0.00010926
0.000109237
0.000203991
5.62476e-05
0.000217164
5.62325e-05
0.000217164
0.000109262
2.5673e-05
3.53622e-05
3.53597e-05
2.56733e-05
4.60858e-05
4.92088e-05
4.92107e-05
4.60934e-05
0.000109238
0.000204005
5.62448e-05
0.000217166
5.62296e-05
0.000217166
0.000109262
4.60844e-05
4.92048e-05
4.92068e-05
4.60919e-05
0.000109236
0.000203983
0.000217162
5.62341e-05
0.000217162
5.6218e-05
0.000109261
5.62458e-05
0.000217167
0.000217167
0.000109259
4.92103e-05
4.60822e-05
0.000203993
0.000217166
5.62332e-05
0.000217166
0.000109259
4.92079e-05
4.60819e-05
2.56695e-05
2.56704e-05
0.000181349
3.53532e-05
3.53662e-05
3.53469e-05
3.5364e-05
2.56721e-05
2.5673e-05
0.000109237
0.000204002
0.000217164
5.62466e-05
0.000217164
5.62316e-05
0.000109262
0.000109237
0.000204004
0.000217165
5.6244e-05
0.000217165
5.62286e-05
0.000109263
4.6085e-05
4.92081e-05
4.921e-05
4.60925e-05
4.60855e-05
4.9208e-05
4.92099e-05
4.60933e-05
0.000181355
3.53692e-05
3.53602e-05
3.53581e-05
2.5672e-05
2.56709e-05
2.56718e-05
2.56724e-05
2.56717e-05
2.56712e-05
2.56705e-05
3.53586e-05
3.53589e-05
0.00018153
3.53619e-05
3.53633e-05
2.56713e-05
2.56718e-05
2.56701e-05
2.56705e-05
0.000181375
3.53654e-05
3.53678e-05
3.53595e-05
3.5362e-05
4.60889e-05
4.92127e-05
4.60808e-05
4.92117e-05
0.000109262
5.62288e-05
0.000217165
0.000203994
0.000109237
5.62446e-05
0.000217165
0.000109264
5.62341e-05
0.000217165
0.000203992
0.000109239
5.6249e-05
0.000217165
4.6082e-05
4.92094e-05
4.92103e-05
4.60894e-05
4.60824e-05
4.92114e-05
4.92122e-05
4.60895e-05
0.000109238
0.000203994
5.62461e-05
0.000217165
5.62303e-05
0.000217165
0.000109262
0.000109239
0.000203992
5.62504e-05
0.000217165
5.62355e-05
0.000217165
0.000109263
3.53598e-05
3.53574e-05
0.000181534
3.53636e-05
3.53611e-05
2.56733e-05
2.56724e-05
2.56716e-05
2.56721e-05
0.000181377
3.53668e-05
3.53627e-05
3.53618e-05
3.53584e-05
2.56718e-05
2.56725e-05
0.000109264
5.62311e-05
0.000217166
0.000204006
0.00010924
5.62463e-05
0.000217166
4.60929e-05
4.92054e-05
4.60863e-05
4.92044e-05
0.000109262
0.000217163
5.62198e-05
0.000203984
0.000109238
0.000217163
5.62356e-05
4.60887e-05
4.9208e-05
4.92089e-05
4.60947e-05
0.000109241
0.000204006
5.62478e-05
0.000217167
5.62326e-05
0.000217167
0.000109263
4.60868e-05
4.9204e-05
4.9205e-05
4.60928e-05
0.000109238
0.000203984
0.000217162
5.62371e-05
0.000217163
5.62212e-05
0.000109261
4.60864e-05
4.92109e-05
4.60767e-05
4.92098e-05
0.00010926
0.000217166
5.62211e-05
0.000203994
0.000109235
0.000217166
5.62411e-05
4.60862e-05
4.92084e-05
4.60763e-05
4.92075e-05
0.000109236
0.00020401
5.62487e-05
0.000217167
5.6233e-05
0.000217168
0.000109262
4.60806e-05
4.92094e-05
4.92103e-05
4.60898e-05
0.000109237
0.000203994
0.000217166
5.62467e-05
0.000217166
5.62286e-05
0.000109262
4.60803e-05
4.92071e-05
4.9208e-05
4.60895e-05
3.53507e-05
3.53641e-05
0.000181523
3.53542e-05
3.53685e-05
2.56721e-05
2.56714e-05
2.56684e-05
2.56689e-05
0.000181367
3.53572e-05
3.53727e-05
3.53517e-05
3.5367e-05
2.5671e-05
2.56714e-05
0.000109264
0.000217166
5.62301e-05
0.000204005
0.000109239
0.000217165
5.62455e-05
4.60934e-05
4.92086e-05
4.60869e-05
4.92076e-05
4.60944e-05
4.92085e-05
4.60875e-05
4.92075e-05
0.000109236
0.000204
0.000217164
5.62495e-05
0.000217165
5.62345e-05
0.000109259
0.000109238
0.000204005
0.000217165
5.6247e-05
0.000217166
5.62317e-05
0.000109262
4.60872e-05
4.92072e-05
4.92081e-05
4.60931e-05
4.60882e-05
4.92072e-05
4.92081e-05
4.60942e-05
2.5672e-05
2.56712e-05
2.56709e-05
2.56702e-05
0.000181373
3.5375e-05
3.53666e-05
3.53703e-05
3.5361e-05
2.56708e-05
2.56713e-05
2.56698e-05
2.56702e-05
2.56714e-05
2.5671e-05
2.56702e-05
2.56699e-05
3.53642e-05
3.53668e-05
0.000181529
3.53708e-05
3.53726e-05
2.5671e-05
2.56713e-05
2.56698e-05
2.567e-05
0.000181373
3.53741e-05
3.53763e-05
3.53689e-05
3.53714e-05
4.60906e-05
4.92119e-05
4.60829e-05
4.92111e-05
0.000109262
5.62319e-05
0.000217163
0.000203992
0.000109238
5.62477e-05
0.000217162
0.000109264
5.62368e-05
0.000217162
0.000203991
0.00010924
5.62514e-05
0.000217162
4.60844e-05
4.92091e-05
4.92098e-05
4.60931e-05
4.60845e-05
4.9211e-05
4.92117e-05
4.60934e-05
0.000109239
0.000203991
5.62487e-05
0.000217162
5.62333e-05
0.000217162
0.000109262
0.00010924
0.000203991
5.62523e-05
0.000217161
5.62378e-05
0.000217161
0.000109264
3.53654e-05
3.5361e-05
0.000181533
3.53713e-05
3.5368e-05
2.5672e-05
2.56715e-05
2.56711e-05
2.56714e-05
0.000181377
3.53755e-05
3.53724e-05
3.53701e-05
3.53666e-05
2.56714e-05
2.56717e-05
0.000109262
5.62341e-05
0.000217164
0.000204004
0.000109238
5.62491e-05
0.000217164
4.60945e-05
4.92046e-05
4.60869e-05
4.92038e-05
0.000109262
0.00021716
5.62228e-05
0.000203983
0.000109238
0.000217159
5.62388e-05
4.60908e-05
4.92076e-05
4.92083e-05
4.60994e-05
0.000109239
0.000204004
5.625e-05
0.000217163
5.62353e-05
0.000217164
0.000109264
4.60892e-05
4.92037e-05
4.92044e-05
4.60978e-05
0.000109238
0.000203983
0.000217159
5.62401e-05
0.000217159
5.62245e-05
0.000109263
4.60927e-05
4.921e-05
4.60838e-05
4.92091e-05
0.000109265
0.000217167
5.62338e-05
0.000203993
0.000109239
0.000217167
5.62507e-05
4.60925e-05
4.92077e-05
4.60836e-05
4.92069e-05
0.000109239
0.000204007
5.62514e-05
0.000217167
5.62361e-05
0.000217167
0.000109265
4.60866e-05
4.92089e-05
4.92097e-05
4.60951e-05
0.000109241
0.000203993
0.000217167
5.62535e-05
0.000217167
5.62374e-05
0.000109266
4.60864e-05
4.92068e-05
4.92075e-05
4.6095e-05
3.53555e-05
3.53714e-05
0.000181521
3.5362e-05
3.53772e-05
2.56711e-05
2.56708e-05
2.56681e-05
2.56684e-05
0.000181366
3.53656e-05
3.53808e-05
3.53601e-05
3.53758e-05
2.56707e-05
2.56709e-05
0.000109262
0.000217163
5.62331e-05
0.000204003
0.000109237
0.000217162
5.62482e-05
4.60946e-05
4.92078e-05
4.60872e-05
4.9207e-05
4.60958e-05
4.92077e-05
4.60882e-05
4.92069e-05
0.000109235
0.000203998
0.000217161
5.62514e-05
0.000217162
5.6237e-05
0.00010926
0.000109238
0.000204004
0.000217162
5.62491e-05
0.000217162
5.62343e-05
0.000109263
4.60894e-05
4.92069e-05
4.92076e-05
4.60979e-05
4.60903e-05
4.92068e-05
4.92075e-05
4.6099e-05
2.56709e-05
2.56706e-05
2.56699e-05
2.56696e-05
0.000181372
3.53816e-05
3.53747e-05
3.53767e-05
3.53698e-05
2.56705e-05
2.56707e-05
2.56695e-05
2.56697e-05
2.56712e-05
2.5671e-05
2.56699e-05
2.56698e-05
3.53719e-05
3.53748e-05
0.000181527
3.53765e-05
3.5379e-05
2.56711e-05
2.56713e-05
2.56699e-05
2.567e-05
0.000181371
3.53781e-05
3.53807e-05
3.53741e-05
3.53773e-05
4.60963e-05
4.92116e-05
4.60875e-05
4.92109e-05
0.000109263
5.62343e-05
0.00021716
0.000203989
0.000109239
5.625e-05
0.00021716
0.000109267
5.62387e-05
0.000217161
0.000203991
0.000109241
5.62538e-05
0.000217161
4.60895e-05
4.9209e-05
4.92097e-05
4.6097e-05
4.60902e-05
4.92109e-05
4.92115e-05
4.60976e-05
0.000109238
0.000203988
5.62516e-05
0.000217162
5.62358e-05
0.000217161
0.000109263
0.000109243
0.000203991
5.62557e-05
0.000217163
5.62405e-05
0.000217162
0.000109265
3.5374e-05
3.53703e-05
0.000181532
3.53788e-05
3.53752e-05
2.56716e-05
2.56713e-05
2.56712e-05
2.56713e-05
0.000181376
3.5381e-05
3.53771e-05
3.5377e-05
3.5373e-05
2.56714e-05
2.56716e-05
0.000109266
5.62362e-05
0.000217161
0.000204
0.000109242
5.62514e-05
0.00021716
4.61008e-05
4.92043e-05
4.60927e-05
4.92036e-05
0.000109266
0.000217158
5.62257e-05
0.000203981
0.00010924
0.000217158
5.62414e-05
4.6097e-05
4.92075e-05
4.92082e-05
4.61039e-05
0.000109243
0.000204002
5.6253e-05
0.000217162
5.62378e-05
0.000217161
0.000109265
4.60955e-05
4.92036e-05
4.92043e-05
4.61024e-05
0.000109243
0.000203979
0.00021716
5.62428e-05
0.000217159
5.62271e-05
0.000109264
4.60971e-05
4.92096e-05
4.6089e-05
4.92088e-05
0.000109269
0.000217164
5.624e-05
0.000203994
0.000109243
0.000217163
5.62556e-05
4.6097e-05
4.92074e-05
4.60889e-05
4.92068e-05
0.000109243
0.000204005
5.62534e-05
0.000217163
5.62379e-05
0.000217163
0.000109266
4.60908e-05
4.92088e-05
4.92095e-05
4.60983e-05
0.000109246
0.000203994
0.000217162
5.62569e-05
0.000217162
5.62419e-05
0.000109265
4.60907e-05
4.92069e-05
4.92074e-05
4.6098e-05
3.53634e-05
3.53792e-05
0.000181519
3.53681e-05
3.53836e-05
2.56709e-05
2.56707e-05
2.56682e-05
2.56684e-05
0.000181364
3.53696e-05
3.53853e-05
3.53656e-05
3.53817e-05
2.56708e-05
2.56709e-05
0.000109267
0.000217161
5.62352e-05
0.000204002
0.00010924
0.000217161
5.62505e-05
4.61009e-05
4.92075e-05
4.60927e-05
4.92068e-05
4.6102e-05
4.92074e-05
4.60936e-05
4.92067e-05
0.000109238
0.000203997
0.00021716
5.62546e-05
0.000217159
5.62394e-05
0.000109264
0.000109243
0.000204
0.000217163
5.62522e-05
0.000217162
5.62367e-05
0.000109268
4.60955e-05
4.92068e-05
4.92074e-05
4.61027e-05
4.60965e-05
4.92067e-05
4.92073e-05
4.61038e-05
2.56707e-05
2.56705e-05
2.56697e-05
2.56695e-05
0.000181371
3.53859e-05
3.53791e-05
3.53824e-05
3.53755e-05
2.56706e-05
2.56707e-05
2.56696e-05
2.56697e-05
2.56714e-05
2.56714e-05
2.56701e-05
2.56703e-05
3.53755e-05
3.53788e-05
0.000181526
3.53777e-05
3.53803e-05
2.56717e-05
2.56718e-05
2.56705e-05
2.56705e-05
0.000181369
3.53738e-05
3.53764e-05
3.5374e-05
3.53772e-05
4.6097e-05
4.92115e-05
4.6091e-05
4.92108e-05
0.000109259
5.62373e-05
0.000217162
0.00020399
0.000109235
5.6251e-05
0.000217162
0.00010926
5.62422e-05
0.000217163
0.000203987
0.000109236
5.62562e-05
0.000217163
4.60886e-05
4.92106e-05
4.92102e-05
4.60882e-05
4.60892e-05
4.92119e-05
4.92116e-05
4.60889e-05
0.000109231
0.000203989
5.62431e-05
0.000217158
5.62351e-05
0.000217161
0.000109248
0.000109233
0.000203986
5.62497e-05
0.000217158
5.62415e-05
0.000217161
0.00010925
3.5379e-05
3.53747e-05
0.000181532
3.53815e-05
3.53779e-05
2.56717e-05
2.56716e-05
2.56719e-05
2.56718e-05
0.000181375
3.53782e-05
3.53751e-05
3.53785e-05
3.53748e-05
2.56721e-05
2.5672e-05
0.000109262
5.62393e-05
0.000217164
0.000204002
0.000109238
5.62525e-05
0.000217164
4.61017e-05
4.92043e-05
4.60964e-05
4.92039e-05
0.000109259
0.00021716
5.62283e-05
0.000203978
0.000109236
0.00021716
5.6242e-05
4.60961e-05
4.92091e-05
4.92087e-05
4.60949e-05
0.000109234
0.000204
5.62446e-05
0.00021716
5.62371e-05
0.000217163
0.000109249
4.60946e-05
4.92051e-05
4.92048e-05
4.60934e-05
0.00010923
0.000203977
0.000217156
5.6234e-05
0.000217159
5.6226e-05
0.000109248
4.60979e-05
4.92095e-05
4.60916e-05
4.92088e-05
0.00010926
0.000217162
5.62429e-05
0.000203991
0.000109237
0.000217162
5.62564e-05
4.60974e-05
4.92075e-05
4.60912e-05
4.92071e-05
0.000109235
0.000204003
5.62495e-05
0.000217161
5.62391e-05
0.000217163
0.00010925
4.60906e-05
4.92095e-05
4.92095e-05
4.60917e-05
0.000109232
0.000203989
0.000217159
5.62496e-05
0.000217161
5.62413e-05
0.00010925
4.609e-05
4.92081e-05
4.92079e-05
4.60912e-05
3.5367e-05
3.53832e-05
0.000181518
3.53691e-05
3.5385e-05
2.56711e-05
2.56711e-05
2.56689e-05
2.56689e-05
0.000181361
3.5365e-05
3.53811e-05
3.53653e-05
3.53817e-05
2.56714e-05
2.56714e-05
0.000109262
0.000217163
5.62383e-05
0.000204
0.00010924
0.000217164
5.62517e-05
4.61025e-05
4.92074e-05
4.60969e-05
4.92071e-05
4.61032e-05
4.92073e-05
4.60977e-05
4.9207e-05
0.000109236
0.000203994
0.000217158
5.62467e-05
0.000217161
5.62392e-05
0.000109251
0.000109233
0.000203999
0.00021716
5.62438e-05
0.000217163
5.62362e-05
0.00010925
4.60955e-05
4.92083e-05
4.92079e-05
4.60943e-05
4.60959e-05
4.92082e-05
4.92078e-05
4.60949e-05
2.56708e-05
2.56708e-05
2.56699e-05
2.567e-05
0.000181368
3.53824e-05
3.53749e-05
3.53832e-05
3.53755e-05
2.56712e-05
2.56711e-05
2.56703e-05
2.56703e-05
2.5672e-05
2.56717e-05
2.56707e-05
2.56705e-05
3.53696e-05
3.53728e-05
0.000181479
3.53687e-05
3.53712e-05
2.56715e-05
2.56719e-05
2.56703e-05
2.56706e-05
0.000181307
3.53613e-05
3.53644e-05
3.53645e-05
3.53671e-05
4.60756e-05
4.9213e-05
4.60785e-05
4.92141e-05
0.000109219
5.62252e-05
0.000217151
0.000203958
0.000109217
5.62299e-05
0.000217135
0.00010922
5.62327e-05
0.000217152
0.000203962
0.000109219
5.62365e-05
0.000217135
4.6065e-05
4.9213e-05
4.92133e-05
4.60648e-05
4.60656e-05
4.92149e-05
4.92151e-05
4.60656e-05
0.000109179
0.000203944
5.62178e-05
0.000217121
5.62117e-05
0.000217125
0.000109181
0.00010918
0.000203948
5.62237e-05
0.000217122
5.62189e-05
0.000217126
0.000109182
3.53745e-05
3.5371e-05
0.000181496
3.53737e-05
3.53707e-05
2.56724e-05
2.56721e-05
2.56717e-05
2.5672e-05
0.000181325
3.53674e-05
3.53647e-05
3.53699e-05
3.53666e-05
2.5672e-05
2.56723e-05
0.000109219
5.62273e-05
0.000217153
0.00020397
0.000109219
5.62313e-05
0.000217135
4.60799e-05
4.92062e-05
4.60837e-05
4.9207e-05
0.000109219
0.000217149
5.62161e-05
0.000203948
0.000109217
0.000217131
5.62207e-05
4.6072e-05
4.92115e-05
4.92118e-05
4.60714e-05
0.000109179
0.000203957
5.62193e-05
0.000217122
5.62137e-05
0.000217126
0.000109182
4.60707e-05
4.92076e-05
4.92079e-05
4.60701e-05
0.000109178
0.000203934
0.000217118
5.62087e-05
0.000217122
5.62024e-05
0.000109181
4.60783e-05
4.92105e-05
4.60815e-05
4.92112e-05
0.000109229
0.000217153
5.62324e-05
0.00020396
0.00010922
0.00021714
5.62366e-05
4.60778e-05
4.92091e-05
4.6081e-05
4.92099e-05
0.000109193
0.000203967
5.62235e-05
0.000217126
5.62191e-05
0.000217131
0.000109186
4.6068e-05
4.92126e-05
4.92124e-05
4.60668e-05
0.00010919
0.000203946
0.000217124
5.62233e-05
0.000217129
5.62187e-05
0.000109183
4.60675e-05
4.92109e-05
4.92109e-05
4.60663e-05
3.53608e-05
3.53774e-05
0.000181472
3.53599e-05
3.53759e-05
2.56716e-05
2.56714e-05
2.56686e-05
2.5669e-05
0.000181301
3.5353e-05
3.5369e-05
3.53554e-05
3.53717e-05
2.56712e-05
2.56715e-05
0.000109219
0.000217152
5.62264e-05
0.000203969
0.000109219
0.000217134
5.62305e-05
4.60807e-05
4.92093e-05
4.60845e-05
4.92101e-05
4.60812e-05
4.92092e-05
4.60849e-05
4.921e-05
0.000109181
0.000203954
0.000217121
5.62213e-05
0.000217125
5.62159e-05
0.000109184
0.000109178
0.000203955
0.000217121
5.62185e-05
0.000217125
5.62127e-05
0.000109183
4.60714e-05
4.92107e-05
4.9211e-05
4.60707e-05
4.60718e-05
4.92107e-05
4.92109e-05
4.60713e-05
2.56714e-05
2.56712e-05
2.56704e-05
2.56702e-05
0.000181307
3.53704e-05
3.53629e-05
3.53731e-05
3.53656e-05
2.56711e-05
2.56714e-05
2.567e-05
2.56703e-05
2.56717e-05
2.56714e-05
2.56705e-05
2.56703e-05
3.53573e-05
3.53608e-05
0.000181459
3.53569e-05
3.53608e-05
2.56714e-05
2.56717e-05
2.56702e-05
2.56704e-05
0.000181305
3.53561e-05
3.53598e-05
3.53537e-05
3.53581e-05
4.60611e-05
4.92155e-05
4.60572e-05
4.92148e-05
0.000109183
5.62012e-05
0.000217123
0.000203938
0.000109156
5.62126e-05
0.000217126
0.000109185
5.62076e-05
0.000217123
0.000203936
0.000109158
5.62177e-05
0.000217126
4.60531e-05
4.92128e-05
4.92136e-05
4.60591e-05
4.60538e-05
4.92147e-05
4.92154e-05
4.60599e-05
0.000109159
0.000203939
5.6211e-05
0.000217129
5.61974e-05
0.000217128
0.000109184
0.000109161
0.000203936
5.62157e-05
0.000217128
5.6203e-05
0.000217128
0.000109186
3.53632e-05
3.53605e-05
0.00018146
3.53618e-05
3.53579e-05
2.56722e-05
2.56718e-05
2.56716e-05
2.56718e-05
0.000181306
3.536e-05
3.53557e-05
3.53587e-05
3.53541e-05
2.56718e-05
2.56721e-05
0.000109185
5.62034e-05
0.000217124
0.000203951
0.000109158
5.62144e-05
0.000217127
4.60658e-05
4.92083e-05
4.60624e-05
4.92075e-05
0.000109184
0.00021712
5.61921e-05
0.000203928
0.000109157
0.000217123
5.62036e-05
4.60607e-05
4.92114e-05
4.9212e-05
4.60661e-05
0.000109161
0.000203952
5.6213e-05
0.000217129
5.61998e-05
0.000217129
0.000109186
4.60593e-05
4.92074e-05
4.92082e-05
4.60646e-05
0.00010916
0.000203929
0.000217126
5.6202e-05
0.000217125
5.61883e-05
0.000109185
4.6061e-05
4.92134e-05
4.6058e-05
4.92128e-05
0.000109181
0.000217124
5.62069e-05
0.000203938
0.000109155
0.000217126
5.62169e-05
4.60606e-05
4.92116e-05
4.60575e-05
4.9211e-05
0.000109161
0.000203954
5.62127e-05
0.00021713
5.61998e-05
0.00021713
0.000109186
4.60535e-05
4.92127e-05
4.92134e-05