/*--------------------------------*- C++ -*----------------------------------*\
| =========                 |                                                 |
| \\      /  F ield         | OpenFOAM: The Open Source CFD Toolbox           |
|  \\    /   O peration     | Version:  2206                                  |
|   \\  /    A nd           | Website:  www.openfoam.com                      |
|    \\/     M anipulation  |                                                 |
\*---------------------------------------------------------------------------*/
FoamFile
{
    version     2.0;
    format      ascii;
    arch        "LSB;label=32;scalar=64";
    class       volScalarField;
    location    "22.5";
    object      Ux;
}
// * * * * * * * * * * * * * * * * * * * * * * * * * * * * * * * * * * * * * //

dimensions      [0 1 -1 0 0 0 0];

internalField   nonuniform List<scalar> 
171728
(
0.000108141
-0.000190356
0.000119338
-0.000239226
9.4596e-05
-0.000160014
9.7964e-05
-0.000200819
9.65895e-05
-0.000160536
9.66685e-05
-0.000199326
8.95304e-05
-0.000151189
8.97075e-05
-0.000190051
6.6999e-05
-9.883e-05
5.55816e-05
-0.00014388
2.36097e-05
-3.11431e-05
2.10382e-05
-6.95222e-05
2.99153e-06
-4.6095e-06
3.6958e-06
-4.53938e-05
-3.7395e-07
-6.57594e-07
8.30009e-07
-4.22561e-05
-6.28616e-07
-4.30627e-07
6.57781e-07
-4.21146e-05
-6.3831e-07
-4.26379e-07
6.53582e-07
-4.21118e-05
-6.35376e-07
-4.26834e-07
6.54299e-07
-4.21121e-05
-6.39811e-07
-4.29869e-07
6.53506e-07
-4.21128e-05
-6.38392e-07
-4.37286e-07
6.5352e-07
-4.21132e-05
-6.3858e-07
-4.34459e-07
6.5313e-07
-4.21131e-05
-6.42175e-07
-4.27835e-07
6.52287e-07
-4.21128e-05
-6.43297e-07
-4.26995e-07
6.51728e-07
-4.21122e-05
-6.4139e-07
-4.28257e-07
6.52383e-07
-4.21118e-05
-6.4078e-07
-4.28475e-07
6.528e-07
-4.21131e-05
-6.37688e-07
-4.29784e-07
6.53813e-07
-4.21133e-05
-6.3127e-07
-4.27086e-07
6.54802e-07
-4.21142e-05
-6.27996e-07
-4.33007e-07
6.55049e-07
-4.21127e-05
-6.37114e-07
-4.30159e-07
6.5363e-07
-4.21124e-05
-6.39205e-07
-4.27623e-07
6.52793e-07
-4.21116e-05
-6.40585e-07
-4.27026e-07
6.5263e-07
-4.21115e-05
-6.40935e-07
-4.27388e-07
6.52571e-07
-4.2112e-05
-6.40634e-07
-4.27657e-07
6.53091e-07
-4.21131e-05
-6.39829e-07
-4.28164e-07
6.5364e-07
-4.21135e-05
-6.39594e-07
-4.28653e-07
6.53778e-07
-4.21142e-05
-6.39991e-07
-4.28294e-07
6.53591e-07
-4.21137e-05
-6.40179e-07
-4.27549e-07
6.53241e-07
-4.21129e-05
-6.40775e-07
-4.26936e-07
6.52762e-07
-4.21132e-05
-6.4096e-07
-4.26881e-07
6.52646e-07
-4.21125e-05
-6.40622e-07
-4.26579e-07
6.52799e-07
-4.21126e-05
-6.40257e-07
-4.27368e-07
6.53225e-07
-4.21133e-05
-6.40024e-07
-4.28054e-07
6.53542e-07
-4.21137e-05
-6.39712e-07
-4.28094e-07
6.53942e-07
-4.21138e-05
-6.39803e-07
-4.28381e-07
6.53967e-07
-4.21139e-05
-6.40602e-07
-4.26843e-07
6.53085e-07
-4.21128e-05
-6.4058e-07
-4.27345e-07
6.53259e-07
-4.2113e-05
-6.4101e-07
-4.2535e-07
6.51331e-07
-4.2109e-05
-6.35845e-07
-4.2475e-07
6.52011e-07
-4.21104e-05
-6.43033e-07
-4.27537e-07
6.52611e-07
-4.21145e-05
-6.39786e-07
-4.2787e-07
6.53131e-07
-4.2114e-05
-6.38466e-07
-4.28146e-07
6.53622e-07
-4.21143e-05
-6.38903e-07
-4.2819e-07
6.52461e-07
-4.21137e-05
-6.39134e-07
-4.28398e-07
6.52507e-07
-4.21137e-05
-6.39302e-07
-4.26822e-07
6.51871e-07
-4.21124e-05
-6.39514e-07
-4.27718e-07
6.52366e-07
-4.21128e-05
-6.39752e-07
-4.27387e-07
6.52291e-07
-4.21132e-05
-6.38875e-07
-4.28302e-07
6.52835e-07
-4.21139e-05
-6.38347e-07
-4.29094e-07
6.53253e-07
-4.21144e-05
-6.38589e-07
-4.2883e-07
6.53175e-07
-4.21138e-05
-6.38333e-07
-4.2927e-07
6.53272e-07
-4.2114e-05
-6.37966e-07
-4.27451e-07
6.52641e-07
-4.21124e-05
-6.37015e-07
-4.2729e-07
6.52852e-07
-4.21118e-05
-6.39261e-07
-4.27489e-07
6.52185e-07
-4.21133e-05
-6.38442e-07
-4.29664e-07
6.53003e-07
-4.21155e-05
-6.37191e-07
-4.30462e-07
6.53912e-07
-4.21163e-05
-6.36976e-07
-4.3093e-07
6.54133e-07
-4.21166e-05
-6.36654e-07
-4.31518e-07
6.54797e-07
-4.21169e-05
-6.36977e-07
-4.30348e-07
6.5426e-07
-4.21161e-05
-6.37109e-07
-4.30183e-07
6.53923e-07
-4.21157e-05
-6.38404e-07
-4.29019e-07
6.53068e-07
-4.21151e-05
-6.38073e-07
-4.29497e-07
6.5356e-07
-4.21148e-05
-6.37504e-07
-4.29768e-07
6.53642e-07
-4.21157e-05
-6.37239e-07
-4.30155e-07
6.53811e-07
-4.21156e-05
-6.36776e-07
-4.31178e-07
6.54702e-07
-4.21167e-05
-6.36625e-07
-4.30554e-07
6.54422e-07
-4.21169e-05
-6.36508e-07
-4.30726e-07
6.55617e-07
-4.21176e-05
-6.37134e-07
-4.29342e-07
6.6092e-07
-4.21203e-05
-6.3733e-07
-4.29732e-07
6.57059e-07
-4.21188e-05
-6.37922e-07
-4.28659e-07
6.53359e-07
-4.2115e-05
-6.37725e-07
-4.29949e-07
6.53812e-07
-4.21153e-05
-6.36999e-07
-4.30269e-07
6.54101e-07
-4.21165e-05
-6.36902e-07
-4.30685e-07
6.54519e-07
-4.2117e-05
-6.36488e-07
-4.31194e-07
6.55232e-07
-4.2117e-05
-6.37181e-07
-4.30617e-07
6.54167e-07
-4.2117e-05
-6.37669e-07
-4.29706e-07
6.53838e-07
-4.21162e-05
-6.38074e-07
-4.29428e-07
6.53783e-07
-4.21159e-05
-6.38211e-07
-4.29534e-07
6.53477e-07
-4.21157e-05
-6.37652e-07
-4.29422e-07
6.53817e-07
-4.21161e-05
-6.37102e-07
-4.30628e-07
6.54192e-07
-4.21169e-05
-6.36692e-07
-4.31033e-07
6.5438e-07
-4.21169e-05
-6.36791e-07
-4.31037e-07
6.54452e-07
-4.2117e-05
-6.36948e-07
-4.30263e-07
6.54041e-07
-4.21166e-05
-6.37636e-07
-4.2983e-07
6.53789e-07
-4.2116e-05
-6.37942e-07
-4.29277e-07
6.53819e-07
-4.21156e-05
-6.40661e-07
-4.26495e-07
6.51442e-07
-4.21152e-05
-6.51094e-07
-4.20719e-07
6.44614e-07
-4.20994e-05
-6.496e-07
-4.82521e-07
6.58974e-07
-4.19601e-05
-7.34685e-07
-7.38143e-07
8.66332e-07
-4.12534e-05
-1.71483e-07
-1.74601e-06
1.52754e-06
-4.07356e-05
-3.62441e-07
-3.15085e-06
2.62481e-06
-3.8666e-05
-5.72505e-06
-2.37861e-06
3.12381e-06
-2.67461e-05
-4.22714e-05
4.13753e-05
-3.45492e-05
4.82175e-05
0.000135248
0.000124271
-0.000124263
-0.000135244
0.000152882
0.000152853
9.07693e-05
-9.07595e-05
9.07433e-05
-9.07409e-05
-0.000152877
-0.000152862
0.000135237
0.000124222
-0.000124218
-0.000135246
0.00023927
0.000112274
0.000119388
-0.000119338
8.98757e-05
-8.9838e-05
-0.00023928
-0.000112234
0.000190393
0.000190332
0.000148741
0.000148771
-0.000190314
-0.00014871
-0.000148729
0.000239201
0.000112226
-0.000119318
8.98512e-05
-8.98305e-05
-0.000112223
0.000200904
0.000106539
9.79644e-05
-9.79383e-05
9.30829e-05
-9.30831e-05
-0.000200866
-0.00010653
0.000160049
0.000160062
0.000155617
0.000155659
-0.000160042
-0.000155613
-0.00015564
0.000200817
0.000106506
-9.79458e-05
9.30833e-05
-9.30899e-05
-0.000106521
0.00019939
9.64219e-05
9.66614e-05
-9.66677e-05
8.72154e-05
-8.72082e-05
-0.00019938
-9.64064e-05
0.000160544
0.000160583
0.000147941
0.000147969
-0.000160563
-0.000147936
-0.00014797
0.000199307
9.63689e-05
-9.66781e-05
8.72135e-05
-8.72035e-05
-9.64302e-05
0.000190081
6.69691e-05
8.97133e-05
-8.97063e-05
6.87335e-05
-6.87169e-05
-0.000190071
-6.69784e-05
0.000151199
0.000151227
0.000121703
0.00012174
-0.000151227
-0.00012171
-0.000121759
0.000189989
6.69194e-05
-8.9698e-05
6.87488e-05
-6.87268e-05
-6.70148e-05
0.000143887
-1.10785e-05
5.55968e-05
-5.5596e-05
2.81749e-05
-2.81919e-05
-0.000143925
1.1062e-05
9.88318e-05
9.88629e-05
4.40883e-05
4.40959e-05
-9.88711e-05
-4.40857e-05
-4.40836e-05
0.000143821
-1.10395e-05
-5.55632e-05
2.81443e-05
-2.81444e-05
1.10564e-05
6.9543e-05
-3.93793e-05
2.10652e-05
-2.10809e-05
6.09565e-06
-6.0979e-06
-6.95519e-05
3.93845e-05
3.11509e-05
3.11534e-05
7.93235e-06
7.94667e-06
-3.11404e-05
-7.92686e-06
-7.94799e-06
6.95284e-05
-3.93608e-05
-2.10376e-05
6.07065e-06
-6.07214e-06
3.93605e-05
4.54044e-05
-4.37176e-05
3.72282e-06
-3.71935e-06
1.06658e-06
-1.06096e-06
-4.53961e-05
4.3721e-05
4.61848e-06
4.62906e-06
9.60682e-07
9.76276e-07
-4.63179e-06
-9.57483e-07
-9.78443e-07
4.53778e-05
-4.36925e-05
-3.69596e-06
1.03724e-06
-1.03794e-06
4.36944e-05
4.22609e-05
-4.39362e-05
8.54464e-07
-8.51718e-07
6.89613e-07
-6.89199e-07
-4.22588e-05
4.39395e-05
6.63524e-07
6.78083e-07
4.40839e-07
4.59558e-07
-6.77474e-07
-4.38575e-07
-4.58659e-07
4.22432e-05
-4.39106e-05
-8.28911e-07
6.64965e-07
-6.64271e-07
4.39143e-05
4.21211e-05
-4.39413e-05
6.81444e-07
-6.80935e-07
6.77407e-07
-6.76334e-07
-4.2119e-05
4.39462e-05
4.35854e-07
4.51935e-07
4.28875e-07
4.47725e-07
-4.49144e-07
-4.26013e-07
-4.46656e-07
4.21032e-05
-4.3915e-05
-6.55901e-07
6.52035e-07
-6.51137e-07
4.39192e-05
4.2119e-05
-4.39376e-05
6.78106e-07
-6.75653e-07
6.86403e-07
-6.76448e-07
-4.2116e-05
4.39502e-05
4.32453e-07
4.48972e-07
4.30156e-07
4.49226e-07
-4.45861e-07
-4.26241e-07
-4.47094e-07
4.2101e-05
-4.39134e-05
-6.51012e-07
6.53156e-07
-6.51013e-07
4.39189e-05
4.21225e-05
-4.39391e-05
6.86871e-07
-6.75824e-07
6.76298e-07
-6.78172e-07
-4.21159e-05
4.39486e-05
4.33108e-07
4.50138e-07
4.29337e-07
4.48947e-07
-4.46322e-07
-4.27674e-07
-4.47747e-07
4.21024e-05
-4.39139e-05
-6.51037e-07
6.52317e-07
-6.51364e-07
4.39181e-05
4.21195e-05
-4.39407e-05
6.76941e-07
-6.78178e-07
6.74188e-07
-6.77372e-07
-4.21175e-05
4.39455e-05
4.32814e-07
4.49559e-07
4.27895e-07
4.48261e-07
-4.46996e-07
-4.34902e-07
-4.49118e-07
4.21015e-05
-4.39143e-05
-6.51317e-07
6.52307e-07
-6.51243e-07
4.39173e-05
4.21184e-05
-4.39418e-05
6.75494e-07
-6.76946e-07
6.73631e-07
-6.74842e-07
-4.21205e-05
4.39427e-05
4.31384e-07
4.48726e-07
4.27544e-07
4.47215e-07
-4.4857e-07
-4.34736e-07
-4.49477e-07
4.21012e-05
-4.39152e-05
-6.51105e-07
6.51982e-07
-6.51081e-07
4.39174e-05
4.21176e-05
-4.39391e-05
6.75663e-07
-6.75817e-07
6.72277e-07
-6.78001e-07
-4.21228e-05
4.39455e-05
4.30499e-07
4.47872e-07
4.27329e-07
4.46866e-07
-4.48215e-07
-4.27379e-07
-4.47951e-07
4.21003e-05
-4.39157e-05
-6.51056e-07
6.51278e-07
-6.51494e-07
4.39182e-05
4.21181e-05
-4.39415e-05
6.71146e-07
-6.79922e-07
6.6835e-07
-6.87011e-07
-4.21219e-05
4.39428e-05
4.30333e-07
4.47625e-07
4.26754e-07
4.46592e-07
-4.46785e-07
-4.27273e-07
-4.47387e-07
4.21e-05
-4.39158e-05
-6.51471e-07
6.50637e-07
-6.51434e-07
4.39188e-05
4.2116e-05
-4.39387e-05
6.68151e-07
-6.8366e-07
6.70921e-07
-6.77783e-07
-4.21211e-05
4.39436e-05
4.29996e-07
4.47179e-07
4.28008e-07
4.46831e-07
-4.46144e-07
-4.26882e-07
-4.46685e-07
4.20999e-05
-4.39157e-05
-6.51196e-07
6.5082e-07
-6.51116e-07
4.39192e-05
4.21182e-05
-4.39385e-05
6.71277e-07
-6.78083e-07
6.71771e-07
-6.76979e-07
-4.21189e-05
4.39453e-05
4.31679e-07
4.4797e-07
4.29273e-07
4.47671e-07
-4.46284e-07
-4.2781e-07
-4.47553e-07
4.21002e-05
-4.39149e-05
-6.51313e-07
6.51518e-07
-6.51823e-07
4.39182e-05
4.21189e-05
-4.39408e-05
6.696e-07
-6.77394e-07
6.73618e-07
-6.81898e-07
-4.21175e-05
4.39442e-05
4.31938e-07
4.48566e-07
4.28917e-07
4.48727e-07
-4.46575e-07
-4.28559e-07
-4.48154e-07
4.21012e-05
-4.39144e-05
-6.5146e-07
6.5221e-07
-6.5129e-07
4.39185e-05
4.21202e-05
-4.39414e-05
6.76412e-07
-6.84406e-07
6.7645e-07
-6.73588e-07
-4.21226e-05
4.39484e-05
4.32162e-07
4.49658e-07
4.30273e-07
4.48873e-07
-4.48704e-07
-4.28161e-07
-4.53977e-07
4.21022e-05
-4.39137e-05
-6.51095e-07
6.53322e-07
-6.50296e-07
4.39164e-05
4.21231e-05
-4.39459e-05
6.78064e-07
-6.63194e-07
6.79813e-07
-6.77265e-07
-4.2106e-05
4.39374e-05
4.34532e-07
4.49493e-07
4.36053e-07
4.4926e-07
-4.53076e-07
-4.3249e-07
-4.47567e-07
4.21022e-05
-4.39134e-05
-6.4989e-07
6.53891e-07
-6.50569e-07
4.3918e-05
4.212e-05
-4.39445e-05
6.81539e-07
-6.76119e-07
6.7345e-07
-6.74723e-07
-4.21222e-05
4.39482e-05
4.38169e-07
4.5031e-07
4.30857e-07
4.48285e-07
-4.46456e-07
-4.28953e-07
-4.47469e-07
4.2102e-05
-4.3914e-05
-6.50886e-07
6.52692e-07
-6.51017e-07
4.3918e-05
4.21227e-05
-4.39442e-05
6.73857e-07
-6.7762e-07
6.73691e-07
-6.78098e-07
-4.21135e-05
4.39447e-05
4.31972e-07
4.48598e-07
4.28451e-07
4.47491e-07
-4.46067e-07
-4.26951e-07
-4.46573e-07
4.21011e-05
-4.39147e-05
-6.50985e-07
6.51834e-07
-6.51182e-07
4.39189e-05
4.21233e-05
-4.39448e-05
6.7432e-07
-6.78401e-07
6.73785e-07
-6.78624e-07
-4.21158e-05
4.39442e-05
4.31514e-07
4.48141e-07
4.27289e-07
4.46887e-07
-4.45492e-07
-4.26373e-07
-4.46449e-07
4.21005e-05
-4.39151e-05
-6.50877e-07
6.51402e-07
-6.50761e-07
4.39193e-05
4.2123e-05
-4.39453e-05
6.74419e-07
-6.79066e-07
6.7334e-07
-6.78581e-07
-4.21164e-05
4.39441e-05
4.30712e-07
4.47676e-07
4.27136e-07
4.4682e-07
-4.45477e-07
-4.26338e-07
-4.4592e-07
4.21002e-05
-4.39153e-05
-6.50949e-07
6.51068e-07
-6.50887e-07
4.39188e-05
4.21226e-05
-4.39446e-05
6.74209e-07
-6.79291e-07
6.7446e-07
-6.7909e-07
-4.21167e-05
4.39435e-05
4.30943e-07
4.47879e-07
4.28013e-07
4.47547e-07
-4.45125e-07
-4.26961e-07
-4.46647e-07
4.21001e-05
-4.39145e-05
-6.50998e-07
6.51758e-07
-6.51587e-07
4.39176e-05
4.21234e-05
-4.39438e-05
6.75113e-07
-6.79685e-07
6.75555e-07
-6.7927e-07
-4.21172e-05
4.39427e-05
4.31575e-07
4.484e-07
4.28289e-07
4.47912e-07
-4.45599e-07
-4.27261e-07
-4.46677e-07
4.21008e-05
-4.39141e-05
-6.51534e-07
6.52168e-07
-6.5181e-07
4.39174e-05
4.21241e-05
-4.39433e-05
6.76415e-07
-6.79894e-07
6.76265e-07
-6.79227e-07
-4.21179e-05
4.39428e-05
4.32069e-07
4.48977e-07
4.2895e-07
4.48772e-07
-4.46102e-07
-4.27923e-07
-4.47688e-07
4.21013e-05
-4.39135e-05
-6.51983e-07
6.5278e-07
-6.52535e-07
4.39165e-05
4.21246e-05
-4.3944e-05
6.76697e-07
-6.80282e-07
6.75848e-07
-6.78655e-07
-4.21182e-05
4.39431e-05
4.32341e-07
4.49416e-07
4.28317e-07
4.47975e-07
-4.46519e-07
-4.27636e-07
-4.47021e-07
4.21018e-05
-4.39145e-05
-6.52367e-07
6.52112e-07
-6.52177e-07
4.3917e-05
4.21239e-05
-4.39442e-05
6.76159e-07
-6.80572e-07
6.75383e-07
-6.77436e-07
-4.21178e-05
4.39436e-05
4.3188e-07
4.4898e-07
4.27922e-07
4.47758e-07
-4.46034e-07
-4.26925e-07
-4.46057e-07
4.2101e-05
-4.39141e-05
-6.52059e-07
6.52177e-07
-6.51352e-07
4.39178e-05
4.21235e-05
-4.39444e-05
6.76124e-07
-6.80753e-07
6.75498e-07
-6.7594e-07
-4.21174e-05
4.39435e-05
4.31417e-07
4.48465e-07
4.27686e-07
4.47266e-07
-4.45329e-07
-4.26656e-07
-4.46235e-07
4.2101e-05
-4.39148e-05
-6.51392e-07
6.51748e-07
-6.51674e-07
4.39175e-05
4.21234e-05
-4.39454e-05
6.75479e-07
-6.83201e-07
6.74701e-07
-6.77217e-07
-4.21181e-05
4.39453e-05
4.30883e-07
4.4783e-07
4.26545e-07
4.46367e-07
-4.4496e-07
-4.25928e-07
-4.45396e-07
4.21005e-05
-4.39154e-05
-6.51168e-07
6.51279e-07
-6.51125e-07
4.39184e-05
4.21227e-05
-4.39443e-05
6.75674e-07
-6.80544e-07
6.75524e-07
-6.79917e-07
-4.21171e-05
4.39454e-05
4.30423e-07
4.47523e-07
4.27632e-07
4.47184e-07
-4.44757e-07
-4.26026e-07
-4.45442e-07
4.21e-05
-4.39148e-05
-6.51147e-07
6.51742e-07
-6.51028e-07
4.39183e-05
4.21236e-05
-4.39448e-05
6.75852e-07
-6.80226e-07
6.752e-07
-6.80443e-07
-4.21165e-05
4.39454e-05
4.30903e-07
4.47914e-07
4.27537e-07
4.47235e-07
-4.44637e-07
-4.26647e-07
-4.46192e-07
4.21006e-05
-4.39148e-05
-6.50971e-07
6.51783e-07
-6.51687e-07
4.39177e-05
4.21234e-05
-4.39438e-05
6.75932e-07
-6.81075e-07
6.759e-07
-6.81037e-07
-4.21167e-05
4.39451e-05
4.31471e-07
4.48505e-07
4.28369e-07
4.48139e-07
-4.45528e-07
-4.27139e-07
-4.46967e-07
4.21008e-05
-4.39139e-05
-6.51626e-07
6.52412e-07
-6.51958e-07
4.39172e-05
4.21241e-05
-4.39439e-05
6.76217e-07
-6.81625e-07
6.75972e-07
-6.8154e-07
-4.21171e-05
4.39445e-05
4.31755e-07
4.48916e-07
4.28677e-07
4.48373e-07
-4.46172e-07
-4.27562e-07
-4.47018e-07
4.21015e-05
-4.39139e-05
-6.52024e-07
6.52629e-07
-6.52294e-07
4.3917e-05
4.21243e-05
-4.39437e-05
6.7654e-07
-6.81851e-07
6.76144e-07
-6.81471e-07
-4.21174e-05
4.39449e-05
4.3223e-07
4.49246e-07
4.28798e-07
4.4846e-07
-4.46247e-07
-4.27498e-07
-4.4724e-07
4.21016e-05
-4.39139e-05
-6.52248e-07
6.52825e-07
-6.52487e-07
4.39168e-05
4.21242e-05
-4.39446e-05
6.76528e-07
-6.81939e-07
6.7518e-07
-6.81135e-07
-4.21173e-05
4.39453e-05
4.32137e-07
4.49273e-07
4.27699e-07
4.47439e-07
-4.46339e-07
-4.26613e-07
-4.45979e-07
4.21015e-05
-4.39147e-05
-6.52343e-07
6.52021e-07
-6.51635e-07
4.39177e-05
4.21233e-05
-4.39446e-05
6.76108e-07
-6.80569e-07
6.74672e-07
-6.81004e-07
-4.21163e-05
4.39456e-05
4.30802e-07
4.4794e-07
4.2755e-07
4.46963e-07
-4.45035e-07
-4.26447e-07
-4.46116e-07
4.21006e-05
-4.39149e-05
-6.5135e-07
6.51828e-07
-6.51916e-07
4.39173e-05
4.2123e-05
-4.39455e-05
6.7613e-07
-6.80825e-07
6.72645e-07
-6.81244e-07
-4.21161e-05
4.39473e-05
4.30972e-07
4.48208e-07
4.28356e-07
4.47289e-07
-4.45571e-07
-4.25524e-07
-4.47999e-07
4.21005e-05
-4.39159e-05
-6.51521e-07
6.50856e-07
-6.50168e-07
4.39211e-05
4.212e-05
-4.39371e-05
6.72926e-07
-6.78704e-07
6.73289e-07
-6.78778e-07
-4.21135e-05
4.39474e-05
4.3257e-07
4.48223e-07
4.34314e-07
4.48043e-07
-4.49333e-07
-4.22639e-07
-4.5122e-07
4.20993e-05
-4.39164e-05
-6.47448e-07
6.50157e-07
-6.46378e-07
4.39217e-05
4.21279e-05
-4.39475e-05
6.79007e-07
-6.79866e-07
6.6905e-07
-6.8511e-07
-4.2117e-05
4.39404e-05
4.3846e-07
4.49025e-07
4.27402e-07
4.48003e-07
-4.47854e-07
-4.27964e-07
-4.47677e-07
4.20995e-05
-4.39155e-05
-6.4865e-07
6.51822e-07
-6.52075e-07
4.39169e-05
4.21159e-05
-4.39438e-05
6.71088e-07
-6.88139e-07
6.73083e-07
-6.77529e-07
-4.21241e-05
4.39445e-05
4.29688e-07
4.48682e-07
4.27991e-07
4.47906e-07
-4.47091e-07
-4.26359e-07
-4.47273e-07
4.21003e-05
-4.39156e-05
-6.51853e-07
6.51695e-07
-6.52171e-07
4.39171e-05
4.21191e-05
-4.39413e-05
6.73833e-07
-6.77981e-07
6.75569e-07
-6.77541e-07
-4.21171e-05
4.3945e-05
4.31118e-07
4.49199e-07
4.29611e-07
4.49167e-07
-4.46643e-07
-4.28075e-07
-4.47632e-07
4.21003e-05
-4.39144e-05
-6.52174e-07
6.5286e-07
-6.52614e-07
4.39166e-05
4.21213e-05
-4.39416e-05
6.75686e-07
-6.77964e-07
6.74857e-07
-6.77178e-07
-4.21169e-05
4.39456e-05
4.33258e-07
4.50045e-07
4.29132e-07
4.48324e-07
-4.4653e-07
-4.27609e-07
-4.46721e-07
4.21011e-05
-4.39151e-05
-6.52153e-07
6.52407e-07
-6.52026e-07
4.39173e-05
4.21206e-05
-4.39418e-05
6.74751e-07
-6.776e-07
6.73687e-07
-6.77417e-07
-4.21163e-05
4.39459e-05
4.32337e-07
4.49211e-07
4.29204e-07
4.4814e-07
-4.46032e-07
-4.27721e-07
-4.46712e-07
4.21005e-05
-4.39152e-05
-6.51703e-07
6.52406e-07
-6.52297e-07
4.39172e-05
4.21205e-05
-4.39417e-05
6.73553e-07
-6.77901e-07
6.7306e-07
-6.76691e-07
-4.21162e-05
4.39466e-05
4.32483e-07
4.48915e-07
4.29214e-07
4.47258e-07
-4.45833e-07
-4.26621e-07
-4.45275e-07
4.21003e-05
-4.39162e-05
-6.51816e-07
6.51583e-07
-6.51115e-07
4.39184e-05
4.21205e-05
-4.39421e-05
6.73052e-07
-6.76815e-07
6.72575e-07
-6.76551e-07
-4.2115e-05
4.39467e-05
4.32293e-07
4.48239e-07
4.28629e-07
4.47367e-07
-4.44336e-07
-4.26571e-07
-4.45407e-07
4.20993e-05
-4.39157e-05
-6.507e-07
6.51957e-07
-6.5142e-07
4.39181e-05
4.21201e-05
-4.39423e-05
6.72658e-07
-6.77336e-07
6.72415e-07
-6.76741e-07
-4.21154e-05
4.39464e-05
4.31995e-07
4.48489e-07
4.28358e-07
4.4729e-07
-4.44803e-07
-4.26892e-07
-4.45796e-07
4.20997e-05
-4.39157e-05
-6.5132e-07
6.51971e-07
-6.51875e-07
4.39177e-05
4.21198e-05
-4.39415e-05
6.72527e-07
-6.77042e-07
6.72965e-07
-6.76995e-07
-4.21152e-05
4.3946e-05
4.31629e-07
4.48296e-07
4.29047e-07
4.47841e-07
-4.44982e-07
-4.27301e-07
-4.46187e-07
4.20998e-05
-4.39151e-05
-6.51675e-07
6.52394e-07
-6.52186e-07
4.39173e-05
4.21208e-05
-4.39408e-05
6.73343e-07
-6.77752e-07
6.7364e-07
-6.77696e-07
-4.2116e-05
4.39452e-05
4.3275e-07
4.49084e-07
4.30073e-07
4.48851e-07
-4.45752e-07
-4.28512e-07
-4.47201e-07
4.21004e-05
-4.39145e-05
-6.52382e-07
6.52886e-07
-6.52761e-07
4.39165e-05
4.21213e-05
-4.39412e-05
6.7373e-07
-6.78193e-07
6.73229e-07
-6.77363e-07
-4.21166e-05
4.39459e-05
4.33349e-07
4.49792e-07
4.29573e-07
4.48435e-07
-4.46408e-07
-4.27911e-07
-4.46745e-07
4.21009e-05
-4.39147e-05
-6.52727e-07
6.52806e-07
-6.52525e-07
4.39169e-05
4.21209e-05
-4.39403e-05
6.73574e-07
-6.77955e-07
6.73916e-07
-6.77696e-07
-4.21162e-05
4.39452e-05
4.33069e-07
4.4942e-07
4.30232e-07
4.48882e-07
-4.45791e-07
-4.28653e-07
-4.47274e-07
4.21006e-05
-4.39142e-05
-6.52382e-07
6.53027e-07
-6.53061e-07
4.39167e-05
4.21216e-05
-4.39405e-05
6.73954e-07
-6.78309e-07
6.74047e-07
-6.75937e-07
-4.21166e-05
4.39458e-05
4.3349e-07
4.49684e-07
4.29863e-07
4.47883e-07
-4.46131e-07
-4.27507e-07
-4.45427e-07
4.21009e-05
-4.39152e-05
-6.52861e-07
6.52329e-07
-6.51836e-07
4.3918e-05
4.21211e-05
-4.39391e-05
6.74634e-07
-6.75174e-07
6.76101e-07
-6.65913e-07
-4.21147e-05
4.39502e-05
4.33258e-07
4.4851e-07
4.30486e-07
4.47686e-07
-4.44091e-07
-4.25924e-07
-4.44172e-07
4.20997e-05
-4.39151e-05
-6.5145e-07
6.52494e-07
-6.50911e-07
4.39189e-05
4.21221e-05
-4.39417e-05
6.76098e-07
-6.66394e-07
6.73291e-07
-6.75848e-07
-4.21107e-05
4.3948e-05
4.33659e-07
4.48436e-07
4.29069e-07
4.46735e-07
-4.43575e-07
-4.27388e-07
-4.45722e-07
4.20999e-05
-4.39158e-05
-6.50877e-07
6.51903e-07
-6.51246e-07
4.39179e-05
4.21202e-05
-4.39422e-05
6.72869e-07
-6.75239e-07
6.73031e-07
-6.7592e-07
-4.21138e-05
4.39462e-05
4.32033e-07
4.47297e-07
4.28134e-07
4.4532e-07
-4.46337e-07
-4.29041e-07
-4.5273e-07
4.20993e-05
-4.39165e-05
-6.50709e-07
6.5213e-07
-6.50127e-07
4.39155e-05
4.21199e-05
-4.39418e-05
6.73325e-07
-6.76008e-07
6.73633e-07
-6.76278e-07
-4.21158e-05
4.3945e-05
4.3148e-07
4.46123e-07
4.28746e-07
4.45756e-07
-4.53363e-07
-4.29873e-07
-4.53508e-07
4.20989e-05
-4.3916e-05
-6.49942e-07
6.53352e-07
-6.50798e-07
4.39146e-05
4.21203e-05
-4.39417e-05
6.73939e-07
-6.76797e-07
6.73876e-07
-6.76267e-07
-4.21168e-05
4.3945e-05
4.32201e-07
4.46747e-07
4.2883e-07
4.45835e-07
-4.53306e-07
-4.30052e-07
-4.53771e-07
4.20993e-05
-4.3916e-05
-6.50519e-07
6.53609e-07
-6.51374e-07
4.39144e-05
4.21203e-05
-4.39413e-05
6.74023e-07
-6.77005e-07
6.74055e-07
-6.77362e-07
-4.21169e-05
4.39438e-05
4.32147e-07
4.46737e-07
4.29395e-07
4.4645e-07
-4.53793e-07
-4.31111e-07
-4.54329e-07
4.20994e-05
-4.39153e-05
-6.5131e-07
6.54222e-07
-6.52053e-07
4.3914e-05
4.21207e-05
-4.3942e-05
6.74177e-07
-6.77784e-07
6.73566e-07
-6.76749e-07
-4.21179e-05
4.39449e-05
4.32676e-07
4.47433e-07
4.28772e-07
4.46203e-07
-4.54197e-07
-4.30058e-07
-4.53495e-07
4.21001e-05
-4.39154e-05
-6.51773e-07
6.54133e-07
-6.5176e-07
4.39147e-05
4.212e-05
-4.39416e-05
6.73862e-07
-6.77049e-07
6.73885e-07
-6.76481e-07
-4.21167e-05
4.39452e-05
4.32073e-07
4.46778e-07
4.28832e-07
4.45777e-07
-4.53058e-07
-4.29576e-07
-4.53026e-07
4.20997e-05
-4.39161e-05
-6.51235e-07
6.53505e-07
-6.51441e-07
4.39151e-05
4.21203e-05
-4.39429e-05
6.73866e-07
-6.77033e-07
6.7288e-07
-6.76061e-07
-4.21166e-05
4.39458e-05
4.31912e-07
4.4662e-07
4.27792e-07
4.44903e-07
-4.53167e-07
-4.28801e-07
-4.52455e-07
4.20992e-05
-4.39168e-05
-6.51331e-07
6.52879e-07
-6.51042e-07
4.39156e-05
4.2119e-05
-4.39431e-05
6.72755e-07
-6.76293e-07
6.72652e-07
-6.76001e-07
-4.21158e-05
4.39458e-05
4.30336e-07
4.45362e-07
4.2759e-07
4.44844e-07
-4.51895e-07
-4.28701e-07
-4.52122e-07
4.20984e-05
-4.39167e-05
-6.50459e-07
6.52946e-07
-6.50661e-07
4.39163e-05
4.21191e-05
-4.3942e-05
6.73058e-07
-6.76624e-07
6.73392e-07
-6.76412e-07
-4.21161e-05
4.39452e-05
4.30734e-07
4.46062e-07
4.28925e-07
4.455e-07
-4.5236e-07
-4.29308e-07
-4.52827e-07
4.20988e-05
-4.39162e-05
-6.50559e-07
6.53302e-07
-6.51555e-07
4.39151e-05
4.21201e-05
-4.39424e-05
6.73507e-07
-6.76814e-07
6.73314e-07
-6.76364e-07
-4.21165e-05
4.39453e-05
4.30688e-07
4.46248e-07
4.28925e-07
4.45192e-07
-4.52684e-07
-4.29224e-07
-4.52528e-07
4.2099e-05
-4.39165e-05
-6.51461e-07
6.5309e-07
-6.51797e-07
4.39154e-05
4.21198e-05
-4.39414e-05
6.73629e-07
-6.77025e-07
6.73967e-07
-6.77046e-07
-4.21166e-05
4.39444e-05
4.31078e-07
4.46385e-07
4.2996e-07
4.46366e-07
-4.52811e-07
-4.30481e-07
-4.53778e-07
4.2099e-05
-4.39149e-05
-6.51678e-07
6.54357e-07
-6.52618e-07
4.39143e-05
4.21206e-05
-4.39417e-05
6.74026e-07
-6.77605e-07
6.73893e-07
-6.77116e-07
-4.21172e-05
4.39442e-05
4.31692e-07
4.47249e-07
4.29813e-07
4.46349e-07
-4.53823e-07
-4.30346e-07
-4.53703e-07
4.21005e-05
-4.39154e-05
-6.52479e-07
6.5406e-07
-6.52873e-07
4.3914e-05
4.21201e-05
-4.39417e-05
6.74053e-07
-6.77368e-07
6.73642e-07
-6.76835e-07
-4.2117e-05
4.39446e-05
4.31618e-07
4.47144e-07
4.29601e-07
4.46773e-07
-4.53572e-07
-4.30128e-07
-4.54219e-07
4.21001e-05
-4.3914e-05
-6.52535e-07
6.54637e-07
-6.53725e-07
4.39129e-05
4.21197e-05
-4.39421e-05
6.73787e-07
-6.77433e-07
6.7337e-07
-6.76322e-07
-4.21166e-05
4.39451e-05
4.31369e-07
4.48332e-07
4.28749e-07
4.48944e-07
-4.54758e-07
-4.29257e-07
-4.56164e-07
4.21009e-05
-4.39091e-05
-6.5413e-07
6.59109e-07
-6.57605e-07
4.39085e-05
4.2119e-05
-4.39426e-05
6.73136e-07
-6.7657e-07
6.72934e-07
-6.76238e-07
-4.21156e-05
4.39453e-05
4.30062e-07
4.49683e-07
4.28203e-07
4.47259e-07
-4.56189e-07
-4.28797e-07
-4.54736e-07
4.21042e-05
-4.39129e-05
-6.58092e-07
6.58766e-07
-6.56871e-07
4.39114e-05
4.2119e-05
-4.3943e-05
6.73015e-07
-6.76904e-07
6.72686e-07
-6.76055e-07
-4.21162e-05
4.39455e-05
4.30095e-07
4.47326e-07
4.28117e-07
4.44936e-07
-4.54e-07
-4.28609e-07
-4.51945e-07
4.21017e-05
-4.39165e-05
-6.55227e-07
6.53594e-07
-6.5216e-07
4.39157e-05
4.21189e-05
-4.39426e-05
6.72836e-07
-6.76104e-07
6.73103e-07
-6.75989e-07
-4.21157e-05
4.39457e-05
4.29871e-07
4.45779e-07
4.2846e-07
4.45098e-07
-4.51997e-07
-4.28709e-07
-4.52176e-07
4.20988e-05
-4.39164e-05
-6.51466e-07
6.53166e-07
-6.51599e-07
4.39155e-05
4.21194e-05
-4.39418e-05
6.73371e-07
-6.76925e-07
6.7375e-07
-6.76683e-07
-4.21163e-05
4.39447e-05
4.30526e-07
4.46171e-07
4.29587e-07
4.4603e-07
-4.52457e-07
-4.29952e-07
-4.53409e-07
4.20989e-05
-4.39156e-05
-6.51928e-07
6.53762e-07
-6.52552e-07
4.39143e-05
4.21202e-05
-4.3942e-05
6.73848e-07
-6.76991e-07
6.73607e-07
-6.76744e-07
-4.21166e-05
4.39447e-05
4.31336e-07
4.46745e-07
4.29565e-07
4.45736e-07
-4.53198e-07
-4.30076e-07
-4.53563e-07
4.20996e-05
-4.39158e-05
-6.52321e-07
6.53788e-07
-6.53301e-07
4.39137e-05
4.212e-05
-4.39413e-05
6.73876e-07
-6.7732e-07
6.74174e-07
-6.77158e-07
-4.2117e-05
4.39442e-05
4.3154e-07
4.46954e-07
4.30254e-07
4.46802e-07
-4.53448e-07
-4.30671e-07
-4.53372e-07
4.20996e-05
-4.39143e-05
-6.52975e-07
6.55014e-07
-6.53248e-07
4.39137e-05
4.21206e-05
-4.39419e-05
6.74206e-07
-6.77748e-07
6.73687e-07
-6.77168e-07
-4.21175e-05
4.39444e-05
4.31932e-07
4.47579e-07
4.29743e-07
4.46049e-07
-4.53355e-07
-4.30373e-07
-4.53534e-07
4.21008e-05
-4.39155e-05
-6.53052e-07
6.54074e-07
-6.5353e-07
4.39136e-05
4.21199e-05
-4.39425e-05
6.73663e-07
-6.77342e-07
6.73238e-07
-6.7614e-07
-4.21171e-05
4.39455e-05
4.31281e-07
4.46517e-07
4.28806e-07
4.45119e-07
-4.53218e-07
-4.29113e-07
-4.52519e-07
4.20994e-05
-4.39161e-05
-6.53211e-07
6.53471e-07
-6.52977e-07
4.39144e-05
4.21194e-05
-4.39428e-05
6.73456e-07
-6.76646e-07
6.73034e-07
-6.76122e-07
-4.21159e-05
4.39456e-05
4.30664e-07
4.46022e-07
4.28701e-07
4.45172e-07
-4.52335e-07
-4.29028e-07
-4.52284e-07
4.20991e-05
-4.3916e-05
-6.52565e-07
6.53561e-07
-6.52668e-07
4.39147e-05
4.2119e-05
-4.39429e-05
6.72972e-07
-6.76607e-07
6.72873e-07
-6.76088e-07
-4.2116e-05
4.39455e-05
4.30251e-07
4.45853e-07
4.28333e-07
4.44808e-07
-4.52024e-07
-4.28673e-07
-4.51866e-07
4.20991e-05
-4.39164e-05
-6.52308e-07
6.53067e-07
-6.52333e-07
4.39151e-05
4.2119e-05
-4.39427e-05
6.72989e-07
-6.76568e-07
6.73095e-07
-6.7618e-07
-4.21159e-05
4.39453e-05
4.30125e-07
4.45598e-07
4.2874e-07
4.45113e-07
-4.52063e-07
-4.2913e-07
-4.52328e-07
4.20987e-05
-4.3916e-05
-6.52196e-07
6.53359e-07
-6.52633e-07
4.39146e-05
4.21193e-05
-4.39419e-05
6.73454e-07
-6.76472e-07
6.73596e-07
-6.76518e-07
-4.21161e-05
4.3945e-05
4.30744e-07
4.46066e-07
4.29279e-07
4.456e-07
-4.52326e-07
-4.29697e-07
-4.52999e-07
4.20992e-05
-4.39156e-05
-6.52458e-07
6.53763e-07
-6.531e-07
4.39139e-05
4.212e-05
-4.39414e-05
6.73803e-07
-6.77278e-07
6.73998e-07
-6.77061e-07
-4.21169e-05
4.39444e-05
4.31335e-07
4.46682e-07
4.30078e-07
4.4626e-07
-4.53187e-07
-4.30461e-07
-4.53448e-07
4.20996e-05
-4.39152e-05
-6.52977e-07
6.54167e-07
-6.53249e-07
4.39137e-05
4.21203e-05
-4.39417e-05
6.73997e-07
-6.77447e-07
6.73723e-07
-6.76934e-07
-4.21171e-05
4.39445e-05
4.3178e-07
4.46961e-07
4.29823e-07
4.46059e-07
-4.53328e-07
-4.30345e-07
-4.53306e-07
4.20999e-05
-4.39152e-05
-6.52902e-07
6.54101e-07
-6.53154e-07
4.39136e-05
4.21201e-05
-4.39418e-05
6.73881e-07
-6.77588e-07
6.73867e-07
-6.76929e-07
-4.2117e-05
4.39445e-05
4.31616e-07
4.4706e-07
4.29716e-07
4.45915e-07
-4.53389e-07
-4.30275e-07
-4.53269e-07
4.20999e-05
-4.39154e-05
-6.53048e-07
6.54003e-07
-6.53229e-07
4.39138e-05
4.212e-05
-4.39425e-05
6.73834e-07
-6.76922e-07
6.7324e-07
-6.76231e-07
-4.21167e-05
4.39454e-05
4.31275e-07
4.46496e-07
4.28868e-07
4.45131e-07
-4.52856e-07
-4.29371e-07
-4.52406e-07
4.20995e-05
-4.39159e-05
-6.52611e-07
6.53237e-07
-6.52533e-07
4.39146e-05
4.21193e-05
-4.39427e-05
6.73238e-07
-6.76733e-07
6.73239e-07
-6.76281e-07
-4.21163e-05
4.39455e-05
4.30523e-07
4.45838e-07
4.2865e-07
4.44934e-07
-4.52204e-07
-4.29095e-07
-4.51961e-07
4.20988e-05
-4.39165e-05
-6.52161e-07
6.5288e-07
-6.52255e-07
4.3915e-05
4.21191e-05
-4.39423e-05
6.72979e-07
-6.7628e-07
6.74382e-07
-6.77537e-07
-4.21159e-05
4.39451e-05
4.29929e-07
4.45212e-07
4.30043e-07
4.46323e-07
-4.51626e-07
-4.30625e-07
-4.53639e-07
4.20975e-05
-4.39164e-05
-6.51749e-07
6.54229e-07
-6.5375e-07
4.39143e-05
4.21185e-05
-4.39329e-05
6.70437e-07
-6.73819e-07
6.80114e-07
-6.83466e-07
-4.21153e-05
4.39358e-05
4.27255e-07
4.4257e-07
4.37188e-07
4.53614e-07
-4.4877e-07
-4.37568e-07
-4.61197e-07
4.20967e-05
-4.39072e-05
-6.49234e-07
6.59877e-07
-6.59655e-07
4.39048e-05
4.21026e-05
-4.38658e-05
6.63658e-07
-6.67e-07
6.63886e-07
-6.67974e-07
-4.20995e-05
4.38686e-05
4.21509e-07
4.36917e-07
4.09327e-07
4.26098e-07
-4.4353e-07
-4.10164e-07
-4.35494e-07
4.20807e-05
-4.38404e-05
-6.42778e-07
6.4394e-07
-6.43589e-07
4.38383e-05
4.19636e-05
-4.31552e-05
6.7829e-07
-6.81756e-07
5.70577e-07
-5.75649e-07
-4.1961e-05
4.3158e-05
4.83715e-07
4.98082e-07
2.14623e-07
2.33705e-07
-5.06392e-07
-2.1636e-07
-2.42824e-07
4.19424e-05
-4.31295e-05
-6.57729e-07
5.51396e-07
-5.51631e-07
4.31254e-05
4.12582e-05
-4.31573e-05
8.84598e-07
-8.87448e-07
-5.43338e-08
4.87668e-08
-4.1256e-05
4.31586e-05
7.40251e-07
7.53104e-07
-5.30355e-07
-5.09989e-07
-7.61173e-07
5.28546e-07
5.0821e-07
4.12352e-05
-4.31363e-05
-8.64012e-07
-7.22845e-08
7.19958e-08
4.31321e-05
4.07406e-05
-4.12054e-05
1.54549e-06
-1.54946e-06
-1.02265e-06
1.01294e-06
-4.0739e-05
4.12091e-05
1.74964e-06
1.76258e-06
-1.76843e-06
-1.74489e-06
-1.76367e-06
1.75682e-06
1.7421e-06
4.07236e-05
-4.11831e-05
-1.52747e-06
-1.04017e-06
1.02962e-06
4.11698e-05
3.8666e-05
-3.52132e-05
2.6373e-06
-2.64511e-06
-4.98012e-06
4.95774e-06
-3.86672e-05
3.51779e-05
3.14162e-06
3.15603e-06
-6.70465e-06
-6.69083e-06
-3.16389e-06
6.67543e-06
6.67708e-06
3.86584e-05
-3.51927e-05
-2.62207e-06