/*--------------------------------*- C++ -*----------------------------------*\
| =========                 |                                                 |
| \\      /  F ield         | OpenFOAM: The Open Source CFD Toolbox           |
|  \\    /   O peration     | Version:  2206                                  |
|   \\  /    A nd           | Website:  www.openfoam.com                      |
|    \\/     M anipulation  |                                                 |
\*---------------------------------------------------------------------------*/
FoamFile
{
    version     2.0;
    format      ascii;
    arch        "LSB;label=32;scalar=64";
    class       volScalarField;
    location    "2";
    object      p;
}
// * * * * * * * * * * * * * * * * * * * * * * * * * * * * * * * * * * * * * //

dimensions      [0 2 -2 0 0 0 0];

internalField   nonuniform List<scalar> 
28907
(
-2.99526e-08
6.29995e-05
6.23747e-05
-3.49679e-06
6.3007e-05
6.23835e-05
6.232e-05
6.22753e-05
-3.47568e-06
6.23118e-05
6.22796e-05
-3.5534e-06
0.000116811
2.71265e-05
5.82683e-05
5.79054e-05
5.79003e-05
5.78497e-05
-9.38931e-05
0.000200444
-9.38893e-05
0.000200434
0.000100474
-8.51667e-05
-8.51747e-05
0.000192628
0.000192626
0.000196067
-9.37657e-05
0.000200889
-9.26949e-05
0.000196028
-9.40641e-05
0.000200668
-9.27274e-05
0.000179698
5.50061e-05
-6.502e-05
6.31774e-05
0.000175436
5.5445e-05
-7.2494e-05
0.000179656
5.47078e-05
-6.53768e-05
6.30347e-05
0.000175194
5.53508e-05
-7.25331e-05
-9.42821e-05
0.000200192
0.000100109
-8.56277e-05
-8.5679e-05
0.000192354
0.000192305
-9.43518e-05
0.000200137
0.000196031
-9.37398e-05
0.000200863
-9.26521e-05
0.000179653
5.50458e-05
-6.49945e-05
6.31787e-05
0.000175412
5.54343e-05
-7.24434e-05
0.000195997
-9.40289e-05
0.000200642
-9.26857e-05
0.000179617
5.47003e-05
6.30425e-05
-6.53365e-05
5.53602e-05
0.000175166
-7.24803e-05
0.000179495
5.46584e-05
-6.54712e-05
6.28906e-05
0.000175145
5.5229e-05
-7.27186e-05
0.000195875
-9.41657e-05
0.000200612
-9.29228e-05
0.000179481
6.28749e-05
-6.5478e-05
5.52122e-05
-7.27134e-05
0.000195866
-9.41852e-05
-9.29217e-05
-9.42486e-05
0.000200169
0.000100098
-8.55954e-05
-8.56563e-05
0.000192331
-9.43276e-05
6.28982e-05
-6.54443e-05
-7.26868e-05
6.28728e-05
-6.54637e-05
-7.26844e-05
-9.41417e-05
-9.28968e-05
-9.41673e-05
-9.28949e-05
-8.57115e-05
-8.5716e-05
-9.43772e-05
-9.43749e-05
0.000215887
-7.8821e-05
0.00021588
-7.88181e-05
0.000208101
0.000208101
1.20134e-05
-7.01411e-05
-7.01505e-05
-6.36858e-05
0.000230896
-6.36829e-05
0.000230888
0.000130816
-5.50148e-05
-5.50242e-05
0.000223069
0.000223068
0.000208236
-0.000101612
0.000208227
-0.00010161
-9.45464e-05
0.000195733
0.000195722
0.000193996
-9.5724e-05
-9.57058e-05
0.000183197
-6.50438e-05
0.000200447
-8.30998e-05
0.000198727
0.00017431
-6.80551e-05
0.000183175
-6.50656e-05
0.000200446
-8.30645e-05
0.000198701
0.000174321
-6.80284e-05
-7.5883e-05
0.000190887
0.000166374
-9.29098e-05
0.000175288
-9.08498e-05
-7.28967e-05
-7.58575e-05
0.000190862
0.000166381
-9.29176e-05
0.000175271
-9.08143e-05
-7.29143e-05
0.00020186
-8.79879e-05
-8.79701e-05
0.000203578
0.000203567
-8.68155e-05
-0.000111716
0.000212855
0.000195151
-0.000100355
0.000210654
-0.000114122
-9.82048e-05
0.000217781
0.000208656
-9.85098e-05
0.000212476
-0.000103176
-0.000110854
0.000204733
-0.000101467
0.000210047
-0.000106194
0.000218372
0.000203778
-0.000106461
-9.05371e-05
0.000220561
0.000202875
-0.000104049
-0.000111812
0.000212819
0.000195063
-0.00010038
0.000210572
-0.000114148
-9.83141e-05
0.000217591
0.000208348
-9.87176e-05
0.000212252
-0.000103353
-0.000111002
0.000204569
-0.000101715
0.000209907
-0.000106368
0.000218262
0.000203728
-0.000106494
-9.06628e-05
0.000220515
0.000202754
-0.00010416
0.000207869
-0.000101933
-9.49865e-05
0.000195384
0.000195387
0.000193647
-9.61377e-05
-9.61704e-05
0.000182606
-6.57135e-05
0.000200029
-8.35907e-05
0.000173753
0.000198217
-6.86809e-05
0.000182617
-6.57337e-05
0.000199973
-8.3658e-05
0.000198224
0.000173705
-6.87369e-05
-7.63336e-05
0.000190545
0.000166078
-9.32785e-05
-7.33599e-05
0.000174934
-9.1237e-05
-7.63925e-05
0.000190552
0.000166032
-9.3328e-05
0.000174943
-9.13046e-05
-7.33784e-05
0.000201325
-8.85006e-05
-8.85319e-05
0.000203063
0.000203064
-8.73605e-05
0.000207804
-0.000101999
-0.000111685
0.000195123
0.000212818
-0.000100319
0.000210624
-9.81772e-05
-0.000114086
0.000217753
0.00020863
-9.84839e-05
0.000212449
-0.000103147
-0.000110828
0.000204706
-0.000101445
0.000210019
-0.000106171
0.000218343
0.000203743
-9.05012e-05
-0.000106418
0.000202846
0.000220525
-0.000104011
-0.000111776
0.000212786
0.000195025
-0.00010035
0.000210536
-0.000114114
-9.8277e-05
0.000217561
0.000208324
-9.86773e-05
0.000212224
-0.00010331
-0.000110971
0.000204539
-0.00010169
0.000209875
-0.000106338
0.000218228
0.000203697
-0.000106449
-9.06155e-05
0.000220483
0.000202718
-0.000104115
-0.000111957
0.000194939
0.000212661
-0.000100564
0.000210447
-9.8455e-05
-0.000114331
0.000217481
0.000208278
-9.88519e-05
0.000212155
-0.000103493
-0.000111137
0.00020449
-0.000101813
0.000209818
-0.000106496
0.000218111
0.000203541
-9.08139e-05
-0.000106688
0.000202604
0.000220326
-0.000104316
-0.000111969
0.000212659
0.00019491
-0.000100563
0.000210415
-0.000114331
-9.84643e-05
0.000217436
0.000208224
-9.88583e-05
0.000212111
-0.000103498
-0.000111143
0.000204448
0.000209772
-0.000106502
0.000218079
0.00020353
-0.000106688
-9.08222e-05
0.000220321
0.000202574
-0.000104325
0.000207845
-0.000101908
-9.49571e-05
-9.61087e-05
-9.61459e-05
0.000182593
-6.56845e-05
0.000200006
-8.35556e-05
0.000173735
0.000198197
-6.86518e-05
0.000182593
-6.57088e-05
0.000199953
-8.36287e-05
0.000198202
0.000173683
-6.87086e-05
-7.63181e-05
0.000166056
-9.32551e-05
-7.33406e-05
-9.12105e-05
-7.63743e-05
-9.3314e-05
-9.12823e-05
-7.33625e-05
0.000201301
-8.84659e-05
-8.85016e-05
0.000203037
0.00020304
-8.73257e-05
0.000207782
-0.000101984
0.000217452
0.000208253
-9.88255e-05
0.000212126
-0.000103467
0.000218081
0.00020351
-9.07893e-05
-0.00010666
0.000202575
0.000220295
-0.000104289
0.000217409
0.000208199
-9.88411e-05
0.000212083
-0.000103479
0.000218051
0.000203499
-9.07926e-05
-0.000106661
0.000202543
0.000220289
-0.000104298
0.000182526
-6.57657e-05
0.000199914
-8.36862e-05
0.000173622
0.000198144
-6.87698e-05
0.000182507
-6.5787e-05
0.000199906
-8.36509e-05
0.000173634
0.000198117
-6.87356e-05
0.000201243
-8.85724e-05
-8.85538e-05
0.000202986
0.000202974
-8.74092e-05
0.000207746
0.000207735
-8.63354e-05
0.000223397
-8.63308e-05
0.000223389
0.000216971
-7.29967e-05
-7.29801e-05
0.000218706
0.000218693
-7.18543e-05
-6.0612e-05
0.000181962
0.000206387
-7.76341e-05
0.000190858
-7.55797e-05
-5.76432e-05
-6.05832e-05
0.000181973
0.000206358
-7.76421e-05
0.000190832
-7.55454e-05
-5.76675e-05
-7.93176e-05
0.000211245
0.000211231
0.000209527
-8.04697e-05
-8.04529e-05
0.000198253
-6.81047e-05
0.000215582
-5.02036e-05
0.00021385
-5.31763e-05
0.000189326
0.000198225
-6.80708e-05
0.000215581
-5.02292e-05
0.000213821
-5.31456e-05
0.000189336
0.000238422
-7.12706e-05
0.000238415
-7.1268e-05
-6.43199e-05
0.000226173
0.000226161
0.000224433
-6.54621e-05
-6.54455e-05
0.000213219
-3.5068e-05
0.000230592
-5.29855e-05
0.000228837
0.000204293
-3.80643e-05
0.000213196
-3.50926e-05
0.000230592
-5.29502e-05
0.00022881
0.000204306
-3.80278e-05
-4.56401e-05
0.000221321
0.00019678
-6.25971e-05
0.000205706
-6.05671e-05
-4.26596e-05
-4.5608e-05
0.000221292
0.000196791
-6.26065e-05
0.000205681
-6.05333e-05
-4.26852e-05
0.000231948
-5.78772e-05
-5.78599e-05
0.000233688
0.000233676
-5.67267e-05
0.000161931
0.000109339
-3.41312e-05
-3.41825e-05
0.000142694
0.000142748
-3.9535e-05
0.0001612
0.000107773
-3.54324e-05
-3.54217e-05
0.000141846
0.000141784
-4.04519e-05
0.000161179
0.000107766
-3.54015e-05
-3.53996e-05
0.000141832
0.000141775
-4.0423e-05
0.000161099
0.000107701
-3.54458e-05
-3.54872e-05
0.000141686
0.000141732
-4.04885e-05
-3.22913e-05
0.000150346
0.000150404
4.75037e-06
0.000169593
-2.72443e-05
-2.72983e-05
0.000191788
0.00013835
-4.7494e-06
-4.80253e-06
0.000172348
0.000172409
-9.787e-06
5.04694e-05
5.64202e-05
5.64173e-05
4.87127e-05
4.8706e-05
5.21611e-05
5.98492e-05
5.02361e-05
5.63092e-05
5.62298e-05
4.86301e-05
4.85646e-05
5.21088e-05
5.97836e-05
5.63123e-05
5.62311e-05
4.86305e-05
5.2116e-05
5.97893e-05
5.62045e-05
5.62029e-05
4.85417e-05
5.20763e-05
5.97461e-05
-4.75354e-05
-1.05311e-05
0.000134451
0.000134497
0.000153874
-4.24599e-05
-4.25107e-05
-5.16476e-05
0.00017937
0.000138918
-8.01585e-05
0.00014263
-7.90514e-05
-5.03306e-05
0.00015999
-5.60807e-05
0.000183228
-7.24613e-05
0.000161878
0.000188458
-5.08344e-05
-5.85554e-05
0.000180692
0.000154023
-7.27426e-05
-6.38453e-05
0.000152173
-8.0159e-05
0.000150387
0.000187416
-7.13782e-05
-4.26643e-05
0.000187107
0.000146651
-4.397e-05
-5.17974e-05
0.000179272
0.000138853
-8.01858e-05
0.000142529
-7.91834e-05
-5.03565e-05
0.000159657
-5.65349e-05
0.000182874
-7.27234e-05
0.000188195
0.000161446
-5.11488e-05
-5.87932e-05
0.00018051
0.000153761
-7.30251e-05
0.000151968
-8.03726e-05
-6.41771e-05
0.000150227
0.000187359
-7.15343e-05
-4.2707e-05
0.000186964
0.000146564
-4.41486e-05
-4.81018e-05
-1.1151e-05
0.000134166
0.000134106
-4.30781e-05
0.000153525
-4.30667e-05
-5.15999e-05
0.000179334
0.000138862
-8.01123e-05
0.000142573
-7.90147e-05
-5.0278e-05
0.000159982
-5.60658e-05
0.000183205
-7.24461e-05
0.000161866
0.000188441
-5.08192e-05
-5.8533e-05
0.00018067
0.000154003
-7.27113e-05
-6.38314e-05
0.000152155
-8.01391e-05
0.000150333
0.000187374
-7.13339e-05
-4.2605e-05
0.000187074
0.000146596
-4.39111e-05
-5.17499e-05
0.000138811
0.000179228
-8.01466e-05
0.000142482
-5.0318e-05
-7.9139e-05
0.000159616
-5.65013e-05
0.00018285
-7.26752e-05
0.000188158
0.000161426
-5.11005e-05
-5.87569e-05
0.000180473
0.000153736
-7.29954e-05
0.000151928
-8.03369e-05
-6.41582e-05
0.000150177
0.00018732
-4.2652e-05
-7.14796e-05
0.000146516
0.000186921
-4.40932e-05
-5.18891e-05
0.000179142
0.0001387
-8.03621e-05
0.000142376
-7.93017e-05
-5.05243e-05
0.000159576
-5.66156e-05
0.000182813
-7.2842e-05
0.000161387
0.000188106
-5.12546e-05
-5.88924e-05
0.000180438
0.000153712
-7.3117e-05
0.000151904
-6.42574e-05
-8.04857e-05
0.000150047
0.000187163
-7.16606e-05
-4.28836e-05
0.00018681
0.000146373
-4.42502e-05
-5.19114e-05
0.000138679
0.000179109
-8.03563e-05
0.000142353
-5.05229e-05
-7.93143e-05
0.000159502
-5.66268e-05
0.000182753
-7.28403e-05
0.000188049
0.000161316
-5.12624e-05
-5.89024e-05
0.000180385
0.000151833
-8.04851e-05
0.000150024
0.000187147
-4.28842e-05
-7.16712e-05
0.000146349
0.000186775
-4.42729e-05
-4.80825e-05
-1.11395e-05
0.000134137
-4.30552e-05
-4.30533e-05
0.000159547
-5.659e-05
0.000182788
-7.28098e-05
0.000161363
0.000188073
-5.12336e-05
0.000150026
0.000187132
-4.28482e-05
-7.16342e-05
0.000146339
0.000186778
-4.42332e-05
0.000159494
-5.66125e-05
0.000182732
-7.28356e-05
0.000188033
0.000161301
-5.12508e-05
0.00014997
0.000187117
-4.28426e-05
-7.16404e-05
0.000146304
0.000186747
-4.422e-05
0.000176842
0.00012337
-1.98895e-05
-1.99439e-05
-2.49077e-05
0.000157417
0.000157475
-1.73701e-05
1.95457e-05
0.000164839
0.000164898
0.000184275
-1.23428e-05
-1.23967e-05
6.58464e-05
6.99717e-05
6.99783e-05
0.000115353
9.60792e-05
0.000100465
0.00010046
0.000145838
0.000126451
0.00013089
0.000130884
0.000176271
0.000156866
0.000161319
0.000161312
0.000206741
0.000187292
0.000191756
0.000191748
0.000237238
0.000217726
0.000222178
0.000222175
0.000267675
0.00024817
0.000252609
0.000252606
0.000298054
0.000278635
0.00028307
0.000283069
0.000328447
0.000309126
0.00031356
0.000313557
0.000358917
0.000339612
0.00034406
0.000344059
0.000389464
0.000370114
0.000374568
0.00037456
0.000420028
0.000400624
0.000405075
0.000405069
0.000450539
0.00043113
0.000435582
0.000435579
0.000481046
0.000461657
0.000466097
0.000466096
0.000511523
0.000492169
0.00049662
0.000496613
0.000542021
0.000522698
0.000527141
0.000527142
0.000572544
0.000553241
0.000557676
0.000557672
0.000603067
7.04274e-05
7.00228e-05
9.29344e-05
9.28717e-05
0.000115419
2.70391e-05
7.04434e-05
7.00159e-05
9.29429e-05
9.28699e-05
6.99229e-05
9.28521e-05
9.28194e-05
0.000115409
2.70589e-05
6.99309e-05
9.28476e-05
9.28235e-05
2.70059e-05
0.000145911
5.75396e-05
0.000100512
0.000100477
0.000123289
0.000123292
0.000145864
5.75199e-05
0.00010052
0.000100474
0.000123298
0.000123286
0.000100439
0.000123286
0.000123274
0.000145852
5.75276e-05
0.000100444
0.000123281
0.000123281
5.75111e-05
0.000176275
8.79216e-05
0.00013089
0.000130894
0.000153708
0.000153715
0.000176264
8.79242e-05
0.0001309
0.000130889
0.000153717
0.00015371
0.00013088
0.00015371
0.000153703
0.000176265
8.79285e-05
0.000130888
0.000153704
0.000153711
8.79264e-05
0.000206748
0.000118261
0.000161317
0.000161321
0.000184144
0.000184151
0.000206739
0.00011828
0.000161325
0.000161315
0.000184151
0.000184144
0.00016131
0.000184148
0.000184142
0.000206731
0.000118287
0.000161317
0.000184141
0.000184148
0.000118294
0.000237262
0.000148626
0.000191749
0.000191755
0.000214562
0.000214569
0.00023725
0.000148644
0.000191754
0.000191747
0.000214566
0.000214563
0.000191749
0.000214572
0.000214569
0.000237245
0.000148657
0.000191755
0.000214569
0.000214574
0.000148667
0.00026768
0.000179097
0.000222165
0.000222173
0.000244987
0.000244992
0.000267674
0.000179103
0.000222171
0.000222169
0.000244994
0.00024499
0.000222176
0.000244996
0.000244992
0.000267666
0.000179122
0.000222181
0.000244994
0.000244999
0.000179121
0.000298059
0.000209625
0.000252599
0.000252605
0.00027544
0.000275449
0.000298053
0.00020964
0.000252607
0.000252603
0.000275449
0.000275447
0.000252605
0.000275449
0.000275446
0.000298049
0.000209653
0.000252612
0.000275448
0.000275455
0.000209659
0.000328461
0.000240165
0.000283058
0.000283068
0.00030593
0.000305936
0.000328446
0.000240178
0.000283068
0.000283066
0.000305939
0.000305931
0.000283067
0.000305936
0.000305923
0.00032845
0.000240181
0.000283076
0.000305934
0.000305932
0.000240185
0.00035894
0.000270644
0.000313554
0.000313558
0.000336429
0.000336433
0.000358927
0.000270643
0.000313561
0.000313554
0.000336436
0.000336429
0.000313551
0.000336433
0.000336423
0.000358928
0.000270658
0.000313559
0.000336431
0.00033643
0.000270653
0.000389476
0.00030109
0.000344052
0.000344058
0.000366927
0.000366936
0.000389466
0.000301084
0.00034406
0.000344055
0.000366932
0.000366928
0.000344054
0.00036694
0.000366934
0.000389462
0.0003011
0.000344062
0.000366935
0.00036694
0.000301095
0.00042002
0.000331575
0.000374556
0.000374563
0.000397432
0.00039744
0.000420032
0.000331568
0.000374561
0.000374555
0.000397437
0.000397433
0.000374558
0.000397445
0.000397436
0.00042001
0.000331582
0.000374563
0.000397438
0.000397444
0.00033157
0.000450521
0.000362093
0.000405062
0.000405069
0.000427944
0.000427952
0.000450527
0.000362097
0.000405069
0.000405063
0.000427952
0.000427947
0.000405064
0.000427953
0.000427947
0.000450523
0.000362088
0.000405071
0.000427951
0.000427957
0.000362089
0.000481027
0.000392634
0.000435573
0.000435579
0.000458466
0.00045847
0.000481021
0.000392622
0.000435579
0.000435575
0.000458471
0.000458468
0.000435577
0.000458466
0.000458461
0.000481032
0.000392634
0.000435585
0.000458465
0.000458466
0.000392615
0.000511527
0.000423168
0.000466098
0.000466101
0.000488984
0.000488992
0.000511528
0.00042318
0.000466103
0.0004661
0.000488993
0.000488988
0.000466093
0.000488989
0.000488984
0.000511518
0.000423187
0.000466098
0.000488983
0.000488993
0.0004232
0.000542046
0.000453688
0.000496612
0.00049662
0.000519506
0.000519508
0.000542025
0.000453699
0.000496621
0.000496615
0.000519513
0.000519509
0.000496611
0.00051951
0.000519503
0.000542026
0.000453716
0.000496619
0.00051951
0.000519511
0.000453725
0.000572572
0.000484225
0.000527135
0.000527138
0.000550033
0.000550035
0.000572553
0.000484227
0.000527142
0.00052714
0.00055004
0.000550034
0.000527135
0.000550038
0.00055003
0.000572549
0.000484244
0.000527141
0.000550038
0.000550039
0.000484249
0.000603081
0.000557668
0.000557671
0.000603071
0.000557675
0.000557668
0.000580567
0.000557662
0.000603067
0.000514755
0.000557672
0.000580575
-7.74807e-05
0.000216306
0.000211428
-7.86503e-05
0.000215519
-7.90178e-05
-7.74335e-05
0.000216281
0.000211393
-7.86241e-05
6.55553e-05
6.55644e-05
6.5498e-05
8.84951e-05
8.84255e-05
8.84262e-05
8.83991e-05
-5.74427e-05
0.000190465
7.05404e-05
7.76055e-05
-5.01898e-05
7.81774e-05
0.000194815
0.000215495
-7.89794e-05
-5.74051e-05
7.05453e-05
0.000190445
7.76065e-05
7.81856e-05
-5.01617e-05
0.000194785
0.000207561
0.000207553
1.17278e-05
-7.04268e-05
-7.04319e-05
-4.7016e-05
0.000246442
0.000241697
-4.82866e-05
0.000245933
-4.85137e-05
-4.69782e-05
0.000246417
0.000241657
-4.82639e-05
9.60393e-05
9.60379e-05
9.60218e-05
0.000118852
0.000118857
0.000118852
0.000118854
-2.68705e-05
0.000220937
0.000101047
0.000108074
0.000225283
-1.96524e-05
0.000108658
0.0002459
-4.84848e-05
-2.68292e-05
0.00010105
0.000220903
0.000108068
0.000225239
0.000108661
-1.96295e-05
0.000238055
0.000238043
4.22706e-05
-3.98733e-05
-3.98799e-05
-1.65809e-05
0.000276769
0.000272023
-1.78731e-05
0.000276303
-1.80771e-05
-1.65553e-05
0.000276751
0.000271998
-1.78551e-05
0.000126461
0.000126457
0.000126462
0.00014926
0.000149266
0.000149268
0.000149268
3.63731e-06
0.000251321
0.00013148
0.000138495
0.000255647
1.08095e-05
0.000139086
0.000276283
-1.80598e-05
3.65798e-06
0.000131484
0.000251299
0.00013849
0.000255619
0.00013909
1.08184e-05
0.000268476
0.000268468
7.27273e-05
-9.41358e-06
-9.4163e-06
1.37293e-05
0.000307271
0.000302543
1.24655e-05
0.000306792
1.22748e-05
1.37556e-05
0.000307254
0.000302515
1.24817e-05
0.000156871
0.000156872
0.000156871
0.000179683
0.000179686
0.000179684
0.000179697
3.39552e-05
0.000281788
0.0001619
0.000168927
0.000286119
4.11676e-05
0.000169504
0.000306768
1.22898e-05
3.39844e-05
0.000161904
0.000281766
0.00016892
0.000286094
0.000169507
4.1179e-05
0.000298933
0.000298932
0.000103109
2.09577e-05
2.09523e-05
4.39854e-05
0.000337834
0.000333144
4.27672e-05
0.000337342
4.25818e-05
4.40087e-05
0.00033781
0.000333111
4.27767e-05
0.000187294
0.000187293
0.000187303
0.000210117
0.00021012
0.000210124
0.000210129
6.42119e-05
0.000312349
0.00019233
0.00019936
0.000316731
7.14845e-05
0.000199934
0.000337314
4.25984e-05
6.42427e-05
0.000192332
0.000312324
0.000199353
0.000316698
0.000199936
7.14996e-05
0.000329473
0.00032946
0.000133468
5.12868e-05
5.12765e-05
7.43924e-05
0.000368282
0.000363599
7.31759e-05
0.000367792
7.2981e-05
7.4433e-05
0.000368251
0.000363557
7.31935e-05
0.000217726
0.000217731
0.000217735
0.000240558
0.000240559
0.000240559
0.000240568
9.46087e-05
0.000342817
0.000222755
0.00022978
0.000347222
0.000101885
0.00023036
0.000367761
7.30146e-05
9.46541e-05
0.000222761
0.000342792
0.000229779
0.000347186
0.000230366
0.000101914
0.00035994
0.000359927
0.000163882
8.1692e-05
8.16856e-05
0.000104957
0.000398633
0.000393927
0.000103705
0.000398149
0.000103515
0.000104999
0.000398608
0.000393892
0.000103729
0.000248172
0.000248172
0.000248181
0.000271019
0.000271023
0.000271022
0.000271031
0.000125199
0.000373171
0.000253195
0.000260222
0.000377543
0.000132424
0.00026081
0.000398122
0.000103547
0.000125237
0.000253201
0.000373144
0.000260219
0.000377506
0.000260815
0.000132445
0.000390305
0.000390296
0.000194387
0.000112222
0.000112218
0.000135573
0.000428982
0.000424248
0.000134285
0.000428506
0.000134098
0.000135602
0.000428964
0.00042422
0.000134304
0.000278641
0.000278639
0.000278644
0.000301503
0.000301498
0.0003015
0.000301495
0.00015584
0.00040351
0.000283663
0.00029069
0.000407832
0.000163009
0.00029128
0.000428487
0.000134117
0.00015586
0.000283668
0.000403496
0.000290688
0.000407813
0.000291286
0.00016302
0.000420666
0.000420664
0.000224931
0.000142795
0.000142793
0.000166099
0.000459436
0.000454695
0.000164808
0.000458963
0.000164619
0.000166123
0.000459419
0.00045467
0.000164823
0.000309118
0.000309121
0.000309115
0.000331988
0.000331984
0.000331989
0.000331983
0.000186342
0.000433953
0.00031415
0.000321187
0.000438255
0.000193519
0.000321769
0.000458945
0.000164632
0.000186362
0.000314155
0.000433945
0.000321182
0.000438247
0.000321774
0.000193526
0.000451106
0.00045111
0.000255424
0.000173293
0.000173292
0.000196494
0.00048999
0.000485273
0.000195238
0.000489515
0.000195034
0.000196529
0.000489969
0.000485239
0.000195258
0.000339612
0.000339615
0.000339611
0.000362491
0.000362488
0.000362493
0.000362489
0.000216704
0.00046453
0.000344638
0.000351689
0.000468883
0.000223926
0.000352261
0.000489489
0.000195064
0.000216751
0.000344647
0.000464506
0.000351686
0.000468847
0.000352269
0.000223954
0.000481668
0.000481661
0.000285881
0.000203727
0.000203726
0.000226908
0.000520571
0.000515871
0.000225671
0.000520102
0.000225464
0.000226944
0.000520553
0.00051584
0.000225687
0.000370115
0.00037012
0.000370116
0.000392995
0.000393007
0.000392997
0.000392997
0.000247076
0.000495137
0.000375137
0.000382191
0.000499524
0.000254345
0.000382762
0.000520067
0.000225493
0.000247132
0.000375141
0.000495096
0.000382184
0.000499471
0.000382764
0.000254374
0.000512263
0.00051225
0.000316317
0.000234142
0.000234137
0.000257442
0.000551089
0.00054638
0.000256189
0.000550614
0.000255989
0.000257451
0.000551068
0.000546354
0.000256195
0.000400638
0.000400625
0.00040063
0.0004235
0.00042351
0.000423507
0.000423505
0.000277623
0.000525657
0.000405649
0.0004127
0.000530039
0.000284871
0.000413278
0.000550591
0.000255996
0.000277644
0.00040565
0.000525627
0.000412696
0.000530002
0.000413281
0.000284879
0.000542791
0.000542777
0.000346838
0.00026466
0.000264653
0.000287983
0.000581567
0.000576847
0.000286726
0.000581092
0.000286527
0.000287978
0.000581564
0.000576853
0.000286727
0.000431134
0.000431138
0.000431134
0.00045403
0.000454027
0.00045404
0.000454041
0.000308149
0.000556123
0.000436161
0.000443212
0.000560497
0.0003154
0.000443788
0.000581095
0.000286519
0.000308159
0.000436166
0.000556131
0.000443209
0.000560504
0.000443794
0.000315397
0.000573282
0.000573279
0.00037735
0.000295176
0.000295164
0.000318541
0.000612069
0.000607345
0.000317274
0.000611595
0.000317077
0.000318571
0.000612056
0.000607325
0.000317292
0.000461662
0.000461669
0.000461678
0.000484537
0.000484554
0.000484546
0.000484553
0.000338746
0.000586622
0.000466686
0.000473727
0.000590987
0.000345961
0.000474318
0.000611578
0.000317099
0.000338796
0.000466693
0.000586597
0.000473724
0.000590943
0.000474324
0.000345988
0.000603766
0.000603758
0.000407914
0.000325755
0.00032575
0.000349066
0.000642571
0.000637843
0.000347799
0.000642085
0.000347615
0.000349089
0.000642557
0.000637826
0.000347814
0.000492181
0.000492178
0.000492177
0.000515065
0.000515066
0.000515077
0.000515064
0.000369334
0.000617084
0.000497207
0.000504247
0.000621405
0.000376527
0.00050483
0.000642067
0.000347631
0.000369358
0.000497208
0.000617061
0.000504243
0.00062138
0.000504836
0.000376539
0.000634219
0.000634214
0.000438466
0.000356327
0.000356325
0.000379579
0.000673099
0.000668378
0.000378322
0.00067261
0.00037813
0.000379609
0.000673084
0.000668358
0.000378338
0.000522699
0.000522707
0.000522697
0.000545609
0.000545608
0.000545609
0.000545597
0.000399813
0.000647619
0.000527718
0.000534773
0.00065197
0.000407027
0.000535352
0.000672594
0.000378159
0.000399873
0.000527728
0.000647594
0.000534773
0.000651926
0.000535361
0.000407063
0.000664747
0.000664742
0.000468982
0.000386842
0.000386842
0.000410143
0.000703623
0.000698891
0.000408867
0.000703135
0.000408675
0.000410155
0.000703606
0.000698873
0.000408872
0.000553241
0.000553239
0.000553228
0.000576127
0.000430364
0.00067815
0.000558253
0.000565313
0.000682488
0.000437571
0.000565887
0.000703119
0.000408684
0.000430403
0.000558258
0.000678123
0.000565308
0.000682447
0.000565889
0.000437585
0.000695285
0.00069528
0.000499513
0.000417359
0.000417354
-7.74956e-05
0.000215999
-7.88033e-05
0.000211378
-5.72796e-05
0.000190876
7.07913e-05
7.78591e-05
7.8351e-05
0.000195064
-4.99386e-05
-5.72979e-05
0.000190525
7.06758e-05
7.7647e-05
-5.01105e-05
7.82871e-05
0.000195008
0.000226582
-6.3501e-05
-6.22641e-05
0.000231357
0.000226554
-6.35551e-05
0.00023122
-6.22657e-05
0.000210204
8.53728e-05
-3.47915e-05
9.35037e-05
8.59224e-05
-4.2056e-05
0.000205892
0.000210177
8.52619e-05
-3.48556e-05
9.34838e-05
0.000205749
8.5886e-05
-4.20603e-05
0.000207679
0.000207624
1.17811e-05
-7.03632e-05
-7.04001e-05
0.000215455
-7.9073e-05
-6.37641e-05
0.000230748
0.000130658
-5.51082e-05
-5.51277e-05
0.000222911
0.000222876
-6.3798e-05
0.000230709
-5.72257e-05
0.000190854
7.07906e-05
7.78683e-05
7.83489e-05
0.000195022
-4.99168e-05
-7.74496e-05
0.000215973
-7.87636e-05
0.000211346
-5.72417e-05
7.06866e-05
0.000190497
7.76495e-05
7.82964e-05
-5.00675e-05
0.000194969
0.000226543
-6.3475e-05
-6.22186e-05
0.000231331
0.000210158
8.53812e-05
-3.47694e-05
9.34998e-05
8.592e-05
-4.20018e-05
0.000205868
0.000226516
-6.35192e-05
0.000231188
-6.2221e-05
0.000210133
8.52599e-05
9.34913e-05
-3.48175e-05
8.58932e-05
0.000205716
-4.20045e-05
-7.76476e-05
0.000215928
-7.88877e-05
0.000211191
-5.74392e-05
7.05264e-05
0.000190405
7.75595e-05
7.81659e-05
-5.01983e-05
0.000194801
-7.76472e-05
0.000215874
-7.8902e-05
0.000211181
0.00021007
8.52338e-05
-3.49135e-05
9.34284e-05
0.000205721
8.58072e-05
-4.21575e-05
0.000226447
-6.36123e-05
0.000231183
-6.23645e-05
0.000210059
8.51947e-05
9.34228e-05
-3.49158e-05
8.57972e-05
0.000205668
-4.21534e-05
0.000226437
-6.36207e-05
0.000231136
-6.2363e-05
0.000207655
0.000207604
1.18045e-05
-7.03253e-05
-7.03731e-05
0.000215433
-7.90449e-05
-6.37297e-05
0.000230719
0.00013065
-5.50737e-05
-5.51029e-05
0.000222882
0.000222849
-6.37737e-05
0.00023068
-5.74035e-05
7.05226e-05
0.000190383
7.75637e-05
7.8165e-05
-5.01847e-05
0.00019477
-7.7615e-05
0.000215905
-7.886e-05
0.000211161
-7.76157e-05
0.000215849
-7.88824e-05
0.000211149
0.000210035
8.5231e-05
9.34327e-05
-3.48904e-05
8.58128e-05
0.000205694
-4.21164e-05
0.00021002
8.51979e-05
9.34194e-05
-3.49039e-05
8.5794e-05
0.000205643
-4.21136e-05
0.000226411
-6.35886e-05
0.000231154
-6.23312e-05
0.0002264
-6.36036e-05
0.000231107
-6.23311e-05
0.000215395
-7.90941e-05
0.000215384
-7.90908e-05
0.000130606
-5.51447e-05
-5.51506e-05
0.000222823
0.000222811
-6.38115e-05
0.000230657
-6.38104e-05
0.000230643
0.00024597
-4.84746e-05
0.000245965
-4.84735e-05
0.000238137
0.00023814
4.23319e-05
-3.98052e-05
-3.98153e-05
-3.32599e-05
0.000261107
-3.32605e-05
0.000261103
0.000161069
-2.45925e-05
-2.46034e-05
0.000253276
0.00025328
-4.70115e-05
0.000246394
0.000241682
-4.83062e-05
-2.67959e-05
0.00022097
0.000101094
0.000108098
0.00022531
-1.95763e-05
0.000108689
-2.67938e-05
0.000220926
0.000101081
0.000108083
0.000225299
-1.96049e-05
0.00010868
0.000256835
-3.30687e-05
0.000261579
-3.17823e-05
0.000256829
-3.30785e-05
0.000261562
-3.17767e-05
0.000240438
0.000115695
-4.36219e-06
0.000123885
0.000236103
0.000116288
-1.15546e-05
0.000240433
0.000115688
-4.3717e-06
0.000123876
0.00023609
0.000116279
-1.15507e-05
0.000238102
0.000238091
4.22893e-05
-3.98563e-05
-3.9867e-05
0.000245926
-4.85377e-05
-3.32849e-05
0.000261107
0.000161055
-2.46273e-05
-2.46311e-05
0.000253283
0.000253283
-3.32992e-05
0.000261117
-2.67496e-05
0.000220948
0.000101091
0.000108107
0.000225261
-1.95567e-05
0.000108683
-4.69728e-05
0.00024636
0.000241643
-4.82759e-05
-2.67439e-05
0.000101088
0.000220888
0.000108079
0.000225251
0.000108685
-1.95707e-05
0.000256799
-3.3049e-05
0.000261556
-3.17515e-05
0.000240398
0.000115704
-4.34631e-06
0.000123877
0.000236082
0.000116281
-1.15196e-05
0.000256792
-3.30548e-05
0.000261532
-3.17451e-05
0.000240393
0.000115682
0.000123881
-4.34933e-06
0.000116284
0.000236058
-1.1514e-05
-4.70852e-05
0.000246402
0.000241663
-4.83503e-05
-2.68638e-05
0.000101042
0.000220895
0.000108054
0.000225272
0.000108657
-1.96442e-05
-4.70821e-05
0.000246364
0.000241654
-4.83494e-05
0.000240462
0.000115682
-4.40955e-06
0.000123871
0.000236125
0.000116267
-1.16051e-05
0.000256851
-3.31097e-05
0.000261594
-3.18261e-05
0.000240454
0.000115667
0.000123875
-4.3971e-06
0.000116266
0.000236094
-1.15983e-05
0.000256844
-3.31047e-05
0.000261568
-3.18226e-05
0.000238071
0.000238061
4.23053e-05
-3.98278e-05
-3.98454e-05
0.000245892
-4.85152e-05
-3.32625e-05
0.000261079
0.000161052
-2.46042e-05
-2.46183e-05
0.000253255
0.000253259
-3.32846e-05
0.00026109
-2.68234e-05
0.000101037
0.000220867
0.000108059
0.000225226
0.000108651
-1.96316e-05
-4.70526e-05
0.000246367
0.000241621
-4.83275e-05
-4.70505e-05
0.000246332
0.000241613
-4.83333e-05
0.000240422
0.000115675
0.000123874
-4.39482e-06
0.000116271
0.000236096
-1.1574e-05
0.00024041
0.000115674
0.000123868
-4.38535e-06
0.000116259
0.000236069
-1.15667e-05
0.000256813
-3.30935e-05
0.000261565
-3.18013e-05
0.000256806
-3.30902e-05
0.000261539
-3.17981e-05
0.000245889
-4.85396e-05
0.000245871
-4.85391e-05
0.00016105
-2.46302e-05
-2.46371e-05
0.000253265
0.000253255
-3.32961e-05
0.000261094
-3.32961e-05
0.000261081
0.000276297
-1.80656e-05
0.000276297
-1.80666e-05
0.000268468
0.000268475
7.2734e-05
-9.39822e-06
-9.40862e-06
-2.88444e-06
0.00029153
-2.88675e-06
0.000291532
0.000191505
5.78207e-06
5.76955e-06
0.000283699
0.000283708
-1.65748e-05
0.000276757
0.000272017
-1.78733e-05
3.64687e-06
0.00025129
0.000131487
0.000138494
0.000255622
1.08327e-05
0.000139089
3.65374e-06
0.000251282
0.000131477
0.0001385
0.000255615
1.08375e-05
0.00013908
0.000287261
-2.69179e-06
0.000292001
-1.41052e-06
0.000287255
-2.68801e-06
0.000291988
-1.40276e-06
0.000270859
0.000146102
2.60116e-05
0.000154297
0.000266522
0.000146694
1.88096e-05
0.000270851
0.000146108
2.60221e-05
0.000154291
0.000266511
0.000146686
1.88178e-05
0.000268481
0.000268486
7.27286e-05
-9.41881e-06
-9.42212e-06
0.000276317
-1.8089e-05
-2.88928e-06
0.000291534
0.000191494
5.77091e-06
5.76967e-06
0.000283711
0.000283707
-2.89519e-06
0.000291537
3.6779e-06
0.000251275
0.00013148
0.000138502
0.000255593
1.08475e-05
0.000139083
-1.65491e-05
0.000276734
0.000271991
-1.78545e-05
3.68522e-06
0.000131482
0.000251259
0.000138495
0.000255588
0.000139086
1.08555e-05