/*--------------------------------*- C++ -*----------------------------------*\
| =========                 |                                                 |
| \\      /  F ield         | OpenFOAM: The Open Source CFD Toolbox           |
|  \\    /   O peration     | Version:  2206                                  |
|   \\  /    A nd           | Website:  www.openfoam.com                      |
|    \\/     M anipulation  |                                                 |
\*---------------------------------------------------------------------------*/
FoamFile
{
    version     2.0;
    format      ascii;
    arch        "LSB;label=32;scalar=64";
    class       volVectorField;
    location    "2";
    object      U;
}
// * * * * * * * * * * * * * * * * * * * * * * * * * * * * * * * * * * * * * //

dimensions      [0 1 -1 0 0 0 0];

internalField   nonuniform List<vector> 
28897
(
(-1.14482e-07 -1.15133e-07 0.100411)
(-1.00597e-07 1.81731e-07 0.100412)
(1.80648e-07 -9.90208e-08 0.100412)
(-3.18025e-05 -3.18225e-05 0.100412)
(-1.21113e-07 -1.2036e-07 0.100411)
(-9.07617e-08 1.76857e-07 0.100412)
(1.75202e-07 -9.05244e-08 0.100412)
(-3.17949e-05 -3.18112e-05 0.100412)
(-1.2159e-07 -1.2135e-07 0.100411)
(-8.78075e-08 1.73369e-07 0.100412)
(1.73697e-07 -8.88026e-08 0.100412)
(-3.17938e-05 -3.181e-05 0.100412)
(-1.21774e-07 -1.21498e-07 0.100411)
(-8.75631e-08 1.72991e-07 0.100412)
(1.72832e-07 -8.82299e-08 0.100412)
(-3.17931e-05 -3.18095e-05 0.100412)
(-1.21681e-07 -1.21264e-07 0.100411)
(-8.75539e-08 1.72919e-07 0.100412)
(1.72853e-07 -8.80391e-08 0.100412)
(-3.17937e-05 -3.18105e-05 0.100412)
(-1.2174e-07 -1.21502e-07 0.100411)
(-8.72701e-08 1.7308e-07 0.100412)
(1.72999e-07 -8.76741e-08 0.100412)
(-3.17906e-05 -3.18073e-05 0.100412)
(-1.2135e-07 -1.21206e-07 0.100411)
(-8.92712e-08 1.74619e-07 0.100412)
(1.74825e-07 -8.99901e-08 0.100412)
(-3.17941e-05 -3.18104e-05 0.100412)
(-1.2146e-07 -1.21231e-07 0.100411)
(-8.82172e-08 1.7397e-07 0.100412)
(1.74176e-07 -8.90166e-08 0.100412)
(-3.17923e-05 -3.18088e-05 0.100412)
(-1.21406e-07 -1.21078e-07 0.100411)
(-9.00237e-08 1.75667e-07 0.100412)
(1.75228e-07 -9.16694e-08 0.100412)
(-3.17945e-05 -3.18117e-05 0.100412)
(-1.21277e-07 -1.21844e-07 0.100411)
(-8.70159e-08 1.74084e-07 0.100412)
(1.7204e-07 -8.96843e-08 0.100412)
(-3.17886e-05 -3.18136e-05 0.100412)
(-1.11309e-07 -1.14979e-07 0.100411)
(-8.75185e-08 1.74943e-07 0.100412)
(1.73783e-07 -8.93855e-08 0.100412)
(-3.17925e-05 -3.18115e-05 0.100412)
(-1.23485e-07 -1.19394e-07 0.100411)
(-8.66191e-08 1.85246e-07 0.100412)
(1.72969e-07 -8.78183e-08 0.100412)
(-3.17943e-05 -3.18091e-05 0.100412)
(-1.22222e-07 -1.20365e-07 0.100411)
(-8.6818e-08 1.74618e-07 0.100412)
(1.72803e-07 -8.71953e-08 0.100412)
(-3.17922e-05 -3.18076e-05 0.100412)
(-1.21663e-07 -1.21087e-07 0.100411)
(-8.81522e-08 1.7404e-07 0.100412)
(1.73691e-07 -8.84579e-08 0.100412)
(-3.17929e-05 -3.18093e-05 0.100412)
(-1.21575e-07 -1.21207e-07 0.100411)
(-8.81035e-08 1.73743e-07 0.100412)
(1.72488e-07 -8.83012e-08 0.100412)
(-3.17924e-05 -3.18088e-05 0.100412)
(-1.21072e-07 -1.20876e-07 0.100411)
(-8.95754e-08 1.75459e-07 0.100412)
(1.74667e-07 -8.97413e-08 0.100412)
(-3.1794e-05 -3.18107e-05 0.100412)
(-1.21578e-07 -1.21658e-07 0.100411)
(-8.83681e-08 1.74339e-07 0.100412)
(1.73753e-07 -8.84375e-08 0.100412)
(-3.17927e-05 -3.18094e-05 0.100412)
(-1.27042e-07 -1.27074e-07 0.100411)
(-7.62e-08 1.66369e-07 0.100412)
(1.65858e-07 -7.61634e-08 0.100412)
(-3.17833e-05 -3.17992e-05 0.100412)
(-3.24002e-05 -3.23715e-05 0.100412)
(1.86141e-07 1.00444e-07 0.100412)
(-1.67628e-07 9.31994e-08 0.100412)
(3.24154e-05 -3.23891e-05 0.100412)
(9.79116e-08 1.8028e-07 0.100412)
(1.00626e-07 -1.83398e-07 0.100412)
(-8.40954e-08 1.70423e-07 0.100412)
(-9.41887e-08 -1.86498e-07 0.100412)
(-3.23736e-05 3.24048e-05 0.100412)
(1.80091e-07 -9.69578e-08 0.100412)
(-1.77061e-07 -9.95632e-08 0.100412)
(3.23837e-05 3.23931e-05 0.100412)
(3.18229e-05 3.17931e-05 0.100412)
(-3.2415e-05 -3.23845e-05 0.100412)
(1.85141e-07 1.00574e-07 0.100412)
(-1.88418e-07 1.0264e-07 0.100412)
(1.7808e-07 9.3031e-08 0.100412)
(-1.77846e-07 9.37427e-08 0.100412)
(-3.18121e-05 3.17915e-05 0.100412)
(3.24101e-05 -3.23883e-05 0.100412)
(9.99546e-08 1.81023e-07 0.100412)
(1.00801e-07 -1.83391e-07 0.100412)
(8.91269e-08 1.74888e-07 0.100412)
(9.24587e-08 -1.77531e-07 0.100412)
(-1.00261e-07 -1.83947e-07 0.100412)
(-9.09968e-08 1.76146e-07 0.100412)
(-9.25606e-08 -1.76792e-07 0.100412)
(3.17946e-05 -3.18264e-05 0.100412)
(-3.23868e-05 3.24182e-05 0.100412)
(-1.7908e-07 -9.9039e-08 0.100412)
(1.73955e-07 -8.85509e-08 0.100412)
(-1.74331e-07 -8.9334e-08 0.100412)
(3.23927e-05 3.24106e-05 0.100412)
(3.18115e-05 3.17831e-05 0.100412)
(-3.2417e-05 -3.23864e-05 0.100412)
(1.77909e-07 9.18963e-08 0.100412)
(-1.82507e-07 9.29097e-08 0.100412)
(1.77118e-07 9.10458e-08 0.100412)
(-1.78306e-07 9.16677e-08 0.100412)
(-3.18094e-05 3.17823e-05 0.100412)
(3.24149e-05 -3.23881e-05 0.100412)
(9.05073e-08 1.75552e-07 0.100412)
(9.22103e-08 -1.7772e-07 0.100412)
(8.77255e-08 1.7361e-07 0.100412)
(9.12442e-08 -1.76786e-07 0.100412)
(-9.22554e-08 -1.77041e-07 0.100412)
(-8.80005e-08 1.74461e-07 0.100412)
(-9.01854e-08 -1.75892e-07 0.100412)
(3.17849e-05 -3.18159e-05 0.100412)
(-3.23883e-05 3.24196e-05 0.100412)
(-1.74633e-07 -8.9481e-08 0.100412)
(1.73306e-07 -8.75168e-08 0.100412)
(-1.72916e-07 -8.81016e-08 0.100412)
(3.23943e-05 3.24122e-05 0.100412)
(3.18115e-05 3.17831e-05 0.100412)
(-3.2417e-05 -3.23866e-05 0.100412)
(1.77109e-07 9.0487e-08 0.100412)
(-1.77851e-07 9.0887e-08 0.100412)
(1.75624e-07 8.94757e-08 0.100412)
(-1.76756e-07 9.02951e-08 0.100412)
(-3.18075e-05 3.17809e-05 0.100412)
(3.24151e-05 -3.23879e-05 0.100412)
(8.95904e-08 1.74353e-07 0.100412)
(9.0851e-08 -1.76487e-07 0.100412)
(8.62442e-08 1.72053e-07 0.100412)
(8.97634e-08 -1.75436e-07 0.100412)
(-8.90183e-08 -1.74674e-07 0.100412)
(-8.69712e-08 1.73345e-07 0.100412)
(-8.94702e-08 -1.75361e-07 0.100412)
(3.17845e-05 -3.18162e-05 0.100412)
(-3.2388e-05 3.242e-05 0.100412)
(-1.71799e-07 -8.72626e-08 0.100412)
(1.72341e-07 -8.64556e-08 0.100412)
(-1.72316e-07 -8.75589e-08 0.100412)
(3.23942e-05 3.24119e-05 0.100412)
(3.18096e-05 3.17811e-05 0.100412)
(-3.24167e-05 -3.23864e-05 0.100412)
(1.75653e-07 8.8924e-08 0.100412)
(-1.77198e-07 8.98294e-08 0.100412)
(1.76311e-07 9.05479e-08 0.100412)
(-1.77583e-07 9.13183e-08 0.100412)
(-3.18058e-05 3.178e-05 0.100412)
(3.24144e-05 -3.23877e-05 0.100412)
(8.7974e-08 1.728e-07 0.100412)
(8.94098e-08 -1.75483e-07 0.100412)
(8.71563e-08 1.72791e-07 0.100412)
(9.03445e-08 -1.75787e-07 0.100412)
(-8.92203e-08 -1.75076e-07 0.100412)
(-8.78133e-08 1.74012e-07 0.100412)
(-9.04196e-08 -1.75863e-07 0.100412)
(3.17839e-05 -3.18147e-05 0.100412)
(-3.23885e-05 3.24195e-05 0.100412)
(-1.71999e-07 -8.72781e-08 0.100412)
(1.72097e-07 -8.68989e-08 0.100412)
(-1.7239e-07 -8.81714e-08 0.100412)
(3.23945e-05 3.24115e-05 0.100412)
(3.18109e-05 3.17822e-05 0.100412)
(-3.24161e-05 -3.23857e-05 0.100412)
(1.76256e-07 8.98562e-08 0.100412)
(-1.7728e-07 9.03967e-08 0.100412)
(1.75218e-07 8.89512e-08 0.100412)
(-1.76218e-07 8.98682e-08 0.100412)
(-3.1807e-05 3.17806e-05 0.100412)
(3.24142e-05 -3.23872e-05 0.100412)
(8.88726e-08 1.73455e-07 0.100412)
(9.01005e-08 -1.7557e-07 0.100412)
(8.57494e-08 1.7158e-07 0.100412)
(8.91661e-08 -1.74582e-07 0.100412)
(-8.92575e-08 -1.74753e-07 0.100412)
(-8.59602e-08 1.72804e-07 0.100412)
(-8.78892e-08 -1.73887e-07 0.100412)
(3.17841e-05 -3.18156e-05 0.100412)
(-3.23876e-05 3.2419e-05 0.100412)
(-1.71777e-07 -8.69794e-08 0.100412)
(1.71291e-07 -8.52284e-08 0.100412)
(-1.70596e-07 -8.60408e-08 0.100412)
(3.23942e-05 3.24115e-05 0.100412)
(3.18084e-05 3.17798e-05 0.100412)
(-3.2415e-05 -3.23845e-05 0.100412)
(1.75807e-07 8.91026e-08 0.100412)
(-1.77075e-07 9.01097e-08 0.100412)
(1.77767e-07 9.15717e-08 0.100412)
(-1.78882e-07 9.26242e-08 0.100412)
(-3.18043e-05 3.17782e-05 0.100412)
(3.24131e-05 -3.23862e-05 0.100412)
(8.8213e-08 1.72959e-07 0.100412)
(8.9775e-08 -1.75397e-07 0.100412)
(8.84859e-08 1.74158e-07 0.100412)
(9.21955e-08 -1.77663e-07 0.100412)
(-8.85306e-08 -1.74289e-07 0.100412)
(-8.89313e-08 1.754e-07 0.100412)
(-9.13426e-08 -1.7726e-07 0.100412)
(3.17815e-05 -3.18129e-05 0.100412)
(-3.23864e-05 3.24178e-05 0.100412)
(-1.71244e-07 -8.64841e-08 0.100412)
(1.7439e-07 -8.87168e-08 0.100412)
(-1.74035e-07 -8.96432e-08 0.100412)
(3.23928e-05 3.24104e-05 0.100412)
(3.18105e-05 3.1782e-05 0.100412)
(-3.24149e-05 -3.23844e-05 0.100412)
(1.77286e-07 9.08015e-08 0.100412)
(-1.78746e-07 9.18128e-08 0.100412)
(1.77276e-07 9.10217e-08 0.100412)
(-1.77976e-07 9.15159e-08 0.100412)
(-3.18068e-05 3.17807e-05 0.100412)
(3.24128e-05 -3.23863e-05 0.100412)
(8.99767e-08 1.74392e-07 0.100412)
(9.16035e-08 -1.77252e-07 0.100412)
(8.78319e-08 1.73691e-07 0.100412)
(9.08565e-08 -1.76555e-07 0.100412)
(-9.11777e-08 -1.76914e-07 0.100412)
(-8.76643e-08 1.74238e-07 0.100412)
(-9.01834e-08 -1.7623e-07 0.100412)
(3.17844e-05 -3.18155e-05 0.100412)
(-3.23866e-05 3.24178e-05 0.100412)
(-1.73946e-07 -8.92633e-08 0.100412)
(1.73038e-07 -8.73645e-08 0.100412)
(-1.73008e-07 -8.84127e-08 0.100412)
(3.23925e-05 3.241e-05 0.100412)
(3.18099e-05 3.17815e-05 0.100412)
(-3.24147e-05 -3.23844e-05 0.100412)
(1.77368e-07 9.0652e-08 0.100412)
(-1.78307e-07 9.13491e-08 0.100412)
(1.78059e-07 9.20681e-08 0.100412)
(-1.79411e-07 9.30536e-08 0.100412)
(-3.18059e-05 3.17792e-05 0.100412)
(3.24125e-05 -3.23859e-05 0.100412)
(8.98008e-08 1.74549e-07 0.100412)
(9.10803e-08 -1.76859e-07 0.100412)
(8.87846e-08 1.74472e-07 0.100412)
(9.21865e-08 -1.77751e-07 0.100412)
(-8.96085e-08 -1.75471e-07 0.100412)
(-8.9445e-08 1.75852e-07 0.100412)
(-9.19092e-08 -1.7772e-07 0.100412)
(3.1783e-05 -3.18147e-05 0.100412)
(-3.23863e-05 3.24175e-05 0.100412)
(-1.72499e-07 -8.77111e-08 0.100412)
(1.74329e-07 -8.85803e-08 0.100412)
(-1.74419e-07 -9.00832e-08 0.100412)
(3.23926e-05 3.24098e-05 0.100412)
(3.18119e-05 3.17831e-05 0.100412)
(-3.24155e-05 -3.23865e-05 0.100412)
(1.78012e-07 9.17358e-08 0.100412)
(-1.79834e-07 9.27452e-08 0.100412)
(1.76044e-07 9.1898e-08 0.100412)
(-1.80527e-07 9.39626e-08 0.100412)
(-3.18078e-05 3.17817e-05 0.100412)
(3.24153e-05 -3.23869e-05 0.100412)
(9.06656e-08 1.75145e-07 0.100412)
(9.2107e-08 -1.77992e-07 0.100412)
(9.02637e-08 1.73424e-07 0.100412)
(9.22427e-08 -1.77841e-07 0.100412)
(-9.1728e-08 -1.77287e-07 0.100412)
(-8.8367e-08 1.76257e-07 0.100412)
(-9.37735e-08 -1.77848e-07 0.100412)
(3.1785e-05 -3.18167e-05 0.100412)
(-3.23884e-05 3.24174e-05 0.100412)
(-1.7409e-07 -8.97006e-08 0.100412)
(1.7273e-07 -8.87047e-08 0.100412)
(-1.72516e-07 -9.28982e-08 0.100412)
(3.23969e-05 3.24082e-05 0.100412)
(3.18084e-05 3.17803e-05 0.100412)
(-3.24033e-05 -3.23921e-05 0.100412)
(1.74357e-07 8.88328e-08 0.100412)
(-1.74629e-07 9.27136e-08 0.100412)
(1.7721e-07 9.4833e-08 0.100412)
(-1.74556e-07 9.10343e-08 0.100412)
(-3.18056e-05 3.17854e-05 0.100412)
(3.24122e-05 -3.23927e-05 0.100412)
(9.08664e-08 1.71848e-07 0.100412)
(9.1329e-08 -1.76798e-07 0.100412)
(9.3554e-08 1.76724e-07 0.100412)
(9.2455e-08 -1.76757e-07 0.100412)
(-9.84219e-08 -1.77973e-07 0.100412)
(-8.44201e-08 1.70627e-07 0.100412)
(-9.54788e-08 -1.77438e-07 0.100412)
(3.17832e-05 -3.18166e-05 0.100412)
(-3.23881e-05 3.24189e-05 0.100412)
(-1.67573e-07 -9.67214e-08 0.100412)
(1.7249e-07 -8.85762e-08 0.100412)
(-1.69322e-07 -9.30527e-08 0.100412)
(3.23975e-05 3.241e-05 0.100412)
(3.18195e-05 3.17875e-05 0.100412)
(-3.24145e-05 -3.23913e-05 0.100412)
(1.85086e-07 1.03279e-07 0.100412)
(-1.79484e-07 9.31886e-08 0.100412)
(1.73546e-07 8.92475e-08 0.100412)
(-1.82516e-07 1.02467e-07 0.100412)
(-3.18116e-05 3.17763e-05 0.100412)
(3.24097e-05 -3.23779e-05 0.100412)
(9.99496e-08 1.75597e-07 0.100412)
(9.17225e-08 -1.74895e-07 0.100412)
(8.71731e-08 1.74053e-07 0.100412)
(9.05414e-08 -1.75094e-07 0.100412)
(-9.17238e-08 -1.76113e-07 0.100412)
(-8.69884e-08 1.82501e-07 0.100412)
(-9.05013e-08 -1.73445e-07 0.100412)
(3.17851e-05 -3.18162e-05 0.100412)
(-3.23893e-05 3.24208e-05 0.100412)
(-1.72073e-07 -8.93711e-08 0.100412)
(1.72086e-07 -8.62695e-08 0.100412)
(-1.72349e-07 -8.70546e-08 0.100412)
(3.23954e-05 3.24143e-05 0.100412)
(3.18064e-05 3.17875e-05 0.100412)
(-3.2414e-05 -3.23901e-05 0.100412)
(1.72035e-07 9.29303e-08 0.100412)
(-1.90105e-07 1.0706e-07 0.100412)
(1.74296e-07 8.89453e-08 0.100412)
(-1.77786e-07 9.21414e-08 0.100412)
(-3.18155e-05 3.18025e-05 0.100412)
(3.24143e-05 -3.23879e-05 0.100412)
(8.79994e-08 1.74581e-07 0.100412)
(9.01363e-08 -1.75077e-07 0.100412)
(8.59424e-08 1.73592e-07 0.100412)
(8.95661e-08 -1.74258e-07 0.100412)
(-9.04712e-08 -1.73208e-07 0.100412)
(-8.57604e-08 1.75521e-07 0.100412)
(-8.84582e-08 -1.72364e-07 0.100412)
(3.17843e-05 -3.18153e-05 0.100412)
(-3.2389e-05 3.24204e-05 0.100412)
(-1.72944e-07 -8.67281e-08 0.100412)
(1.71195e-07 -8.50533e-08 0.100412)
(-1.70955e-07 -8.53789e-08 0.100412)
(3.23952e-05 3.24139e-05 0.100412)
(3.18054e-05 3.17864e-05 0.100412)
(-3.24128e-05 -3.239e-05 0.100412)
(1.74276e-07 9.17839e-08 0.100412)
(-1.77113e-07 9.13428e-08 0.100412)
(1.76423e-07 8.88955e-08 0.100412)
(-1.77574e-07 9.15472e-08 0.100412)
(-3.18061e-05 3.17823e-05 0.100412)
(3.24142e-05 -3.23893e-05 0.100412)
(8.7937e-08 1.73913e-07 0.100412)
(8.98185e-08 -1.74712e-07 0.100412)
(8.76389e-08 1.73904e-07 0.100412)
(9.08653e-08 -1.76253e-07 0.100412)
(-8.9321e-08 -1.73576e-07 0.100412)
(-8.75822e-08 1.74712e-07 0.100412)
(-8.9988e-08 -1.75242e-07 0.100412)
(3.17827e-05 -3.18138e-05 0.100412)
(-3.23879e-05 3.24192e-05 0.100412)
(-1.71996e-07 -8.62922e-08 0.100412)
(1.72772e-07 -8.6843e-08 0.100412)
(-1.7251e-07 -8.76025e-08 0.100412)
(3.23943e-05 3.24119e-05 0.100412)
(3.18065e-05 3.17866e-05 0.100412)
(-3.24121e-05 -3.23897e-05 0.100412)
(1.75592e-07 9.15399e-08 0.100412)
(-1.77223e-07 9.10258e-08 0.100412)
(1.7608e-07 8.80053e-08 0.100412)
(-1.76874e-07 9.06501e-08 0.100412)
(-3.18066e-05 3.17817e-05 0.100412)
(3.24136e-05 -3.23887e-05 0.100412)
(8.90835e-08 1.73924e-07 0.100412)
(9.04813e-08 -1.76078e-07 0.100412)
(8.69866e-08 1.73119e-07 0.100412)
(9.02476e-08 -1.7596e-07 0.100412)
(-9.04767e-08 -1.75804e-07 0.100412)
(-8.72567e-08 1.74033e-07 0.100412)
(-8.95907e-08 -1.75437e-07 0.100412)
(3.17836e-05 -3.18149e-05 0.100412)
(-3.23873e-05 3.24184e-05 0.100412)
(-1.73163e-07 -8.79863e-08 0.100412)
(1.72666e-07 -8.66299e-08 0.100412)
(-1.72316e-07 -8.76825e-08 0.100412)
(3.23936e-05 3.24111e-05 0.100412)
(3.18054e-05 3.17854e-05 0.100412)
(-3.24111e-05 -3.23891e-05 0.100412)
(1.75769e-07 9.14798e-08 0.100412)
(-1.76972e-07 9.08067e-08 0.100412)
(1.78155e-07 9.01054e-08 0.100412)
(-1.78568e-07 9.2728e-08 0.100412)
(-3.18055e-05 3.17806e-05 0.100412)
(3.24129e-05 -3.23882e-05 0.100412)
(8.93759e-08 1.73958e-07 0.100412)
(9.05841e-08 -1.76369e-07 0.100412)
(8.91721e-08 1.7489e-07 0.100412)
(9.2161e-08 -1.77506e-07 0.100412)
(-9.02815e-08 -1.75926e-07 0.100412)
(-8.90532e-08 1.758e-07 0.100412)
(-9.10892e-08 -1.76766e-07 0.100412)
(3.17827e-05 -3.18142e-05 0.100412)
(-3.23866e-05 3.24178e-05 0.100412)
(-1.72767e-07 -8.8089e-08 0.100412)
(1.74699e-07 -8.8677e-08 0.100412)
(-1.7362e-07 -8.93154e-08 0.100412)
(3.23935e-05 3.24107e-05 0.100412)
(3.18077e-05 3.17871e-05 0.100412)
(-3.24117e-05 -3.239e-05 0.100412)
(1.779e-07 9.3521e-08 0.100412)
(-1.78572e-07 9.2748e-08 0.100412)
(1.77607e-07 8.91432e-08 0.100412)
(-1.77807e-07 9.18458e-08 0.100412)
(-3.18076e-05 3.17825e-05 0.100412)
(3.24136e-05 -3.23891e-05 0.100412)
(9.11083e-08 1.75655e-07 0.100412)
(9.23245e-08 -1.77695e-07 0.100412)
(8.88729e-08 1.74135e-07 0.100412)
(9.14549e-08 -1.76808e-07 0.100412)
(-9.12929e-08 -1.76956e-07 0.100412)
(-8.79818e-08 1.7477e-07 0.100412)
(-8.96417e-08 -1.75535e-07 0.100412)
(3.17847e-05 -3.18161e-05 0.100412)
(-3.23874e-05 3.24184e-05 0.100412)
(-1.73746e-07 -8.91511e-08 0.100412)
(1.7365e-07 -8.76991e-08 0.100412)
(-1.71929e-07 -8.81641e-08 0.100412)
(3.23943e-05 3.24113e-05 0.100412)
(3.18074e-05 3.17867e-05 0.100412)
(-3.24186e-05 -3.23967e-05 0.100412)
(1.77129e-07 9.24348e-08 0.100412)
(-1.77483e-07 9.1624e-08 0.100412)
(1.72572e-07 8.32196e-08 0.100412)
(-1.73478e-07 8.54595e-08 0.100412)
(-3.18067e-05 3.17816e-05 0.100412)
(3.24205e-05 -3.23953e-05 0.100412)
(9.03712e-08 1.7474e-07 0.100412)
(9.1421e-08 -1.7675e-07 0.100412)
(8.26823e-08 1.69366e-07 0.100412)
(8.53905e-08 -1.72684e-07 0.100412)
(-9.0341e-08 -1.76071e-07 0.100412)
(-8.24158e-08 1.70346e-07 0.100412)
(-8.41145e-08 -1.71543e-07 0.100412)
(3.17838e-05 -3.18153e-05 0.100412)
(-3.23935e-05 3.24253e-05 0.100412)
(-1.72926e-07 -8.77644e-08 0.100412)
(1.69131e-07 -8.2674e-08 0.100412)
(-1.68309e-07 -8.28595e-08 0.100412)
(3.24004e-05 3.24182e-05 0.100412)
(3.17965e-05 3.1776e-05 0.100412)
(1.6848e-07 7.94755e-08 0.100412)
(-1.69655e-07 7.94166e-08 0.100412)
(-3.17961e-05 3.17713e-05 0.100412)
(7.77072e-08 1.66347e-07 0.100412)
(7.92532e-08 -1.69058e-07 0.100412)
(-7.87442e-08 -1.68493e-07 0.100412)
(3.17738e-05 -3.18046e-05 0.100412)
(-1.65662e-07 -7.60939e-08 0.100412)
(-1.16278e-07 -1.17025e-07 0.100411)
(1.27986e-07 -1.22207e-07 0.100411)
(-1.1624e-07 1.16513e-07 0.100411)
(1.20853e-07 1.14567e-07 0.100411)
(-3.09423e-09 -2.92289e-06 0.100373)
(2.79784e-07 2.76362e-06 0.0997204)
(1.6562e-08 2.89708e-06 0.100373)
(-3.38521e-07 -2.59774e-06 0.0997205)
(-8.14092e-07 1.08804e-06 0.0980408)
(4.30781e-07 -4.51883e-07 0.0980392)
(-2.93607e-06 -5.30448e-09 0.100373)
(2.77613e-06 2.73443e-07 0.0997204)
(2.90313e-06 1.47806e-08 0.100373)
(-2.61287e-06 -3.3221e-07 0.0997204)
(1.17727e-07 -1.19429e-07 0.100411)
(-1.14133e-07 1.14543e-07 0.100411)
(1.14648e-07 1.13316e-07 0.100411)
(-1.20433e-07 -1.18895e-07 0.100411)
(1.18413e-07 -1.18156e-07 0.100411)
(-1.19233e-07 1.19413e-07 0.100411)
(1.18182e-07 1.19112e-07 0.100411)
(6.22048e-06 -2.10595e-08 0.10041)
(-4.72462e-06 1.75749e-06 0.100383)
(-1.12817e-07 -4.99059e-08 0.100412)
(-9.8149e-08 1.80905e-07 0.100412)
(-6.33845e-06 1.98413e-08 0.10041)
(4.59172e-06 -1.71149e-06 0.100383)
(-1.11211e-07 -4.72076e-08 0.100412)
(7.91012e-07 -6.26753e-07 0.098039)
(-5.23144e-07 4.76259e-07 0.0980389)
(-1.8635e-08 6.23176e-06 0.10041)
(-4.78872e-08 -1.13849e-07 0.100412)
(1.78026e-06 -4.73634e-06 0.100383)
(1.77321e-07 -9.37433e-08 0.100412)
(2.25632e-08 -6.32853e-06 0.10041)
(-4.92528e-08 -1.06226e-07 0.100412)
(-1.74283e-06 4.60869e-06 0.100383)
(-9.79778e-07 -1.77798e-06 0.100324)
(-1.77101e-06 -1.05742e-06 0.100325)
(3.23873e-05 3.24063e-05 0.100412)
(1.17534e-06 1.70504e-06 0.100325)
(1.69773e-06 1.16584e-06 0.100325)
(-3.55619e-09 -2.92884e-06 0.100373)
(3.2624e-07 2.62296e-06 0.0997204)
(-4.94132e-10 2.90477e-06 0.100373)
(-3.40108e-07 -2.59934e-06 0.0997205)
(-5.03524e-07 5.31724e-07 0.098039)
(4.85788e-07 -5.45487e-07 0.0980391)
(-2.94172e-06 -6.55049e-09 0.100373)
(2.63791e-06 3.20205e-07 0.0997203)
(2.91235e-06 1.87353e-09 0.100373)
(-2.61412e-06 -3.33071e-07 0.0997204)
(1.19652e-07 -1.21043e-07 0.100411)
(-1.20352e-07 1.20617e-07 0.100411)
(1.19321e-07 1.20248e-07 0.100411)
(-1.21664e-07 -1.20592e-07 0.100411)
(1.21089e-07 -1.21324e-07 0.100411)
(-1.20563e-07 1.20766e-07 0.100411)
(1.20061e-07 1.20384e-07 0.100411)
(6.23833e-06 -2.41656e-08 0.10041)
(-4.69255e-06 1.71369e-06 0.100383)
(-1.03011e-07 -4.91042e-08 0.100412)
(-9.00026e-08 1.75742e-07 0.100412)
(-6.27389e-06 2.5289e-08 0.10041)
(4.61161e-06 -1.73864e-06 0.100383)
(-1.02079e-07 -4.94396e-08 0.100412)
(5.09506e-07 -4.88071e-07 0.0980387)
(-5.21485e-07 4.71949e-07 0.0980389)
(-1.9025e-08 6.24166e-06 0.10041)
(-5.03483e-08 -1.02785e-07 0.100412)
(1.72207e-06 -4.70056e-06 0.100383)
(1.7416e-07 -8.87383e-08 0.100412)
(1.97493e-08 -6.27795e-06 0.10041)
(-5.03529e-08 -9.90596e-08 0.100412)
(-1.74754e-06 4.61671e-06 0.100383)
(-1.18124e-06 -1.73496e-06 0.100325)
(-1.7313e-06 -1.17919e-06 0.100325)
(3.23937e-05 3.24115e-05 0.100412)
(1.173e-06 1.70844e-06 0.100325)
(1.70307e-06 1.17135e-06 0.100325)
(-3.39354e-09 -2.92786e-06 0.100373)
(3.26436e-07 2.6222e-06 0.0997204)
(-7.98018e-11 2.90352e-06 0.100373)
(-3.38985e-07 -2.59944e-06 0.0997205)
(-5.03036e-07 5.32092e-07 0.098039)
(4.86832e-07 -5.44279e-07 0.0980391)
(-2.94117e-06 -6.42618e-09 0.100373)
(2.63734e-06 3.19567e-07 0.0997203)
(2.91107e-06 1.91539e-09 0.100373)
(-2.61404e-06 -3.32634e-07 0.0997204)
(1.21116e-07 -1.21633e-07 0.100411)
(-1.20859e-07 1.2114e-07 0.100411)
(1.20371e-07 1.206e-07 0.100411)
(-1.2155e-07 -1.2054e-07 0.100411)
(1.21395e-07 -1.21478e-07 0.100411)
(-1.20587e-07 1.20846e-07 0.100411)
(1.20433e-07 1.20627e-07 0.100411)
(6.23922e-06 -2.46907e-08 0.10041)
(-4.69151e-06 1.71282e-06 0.100383)
(-9.93607e-08 -4.97909e-08 0.100412)
(-8.67947e-08 1.73273e-07 0.100412)
(-6.27347e-06 2.42963e-08 0.10041)
(4.6113e-06 -1.73815e-06 0.100383)
(-9.80955e-08 -4.98354e-08 0.100412)
(5.09878e-07 -4.87835e-07 0.0980387)
(-5.20679e-07 4.72184e-07 0.0980389)
(-1.94835e-08 6.2423e-06 0.10041)
(-5.02125e-08 -1.00558e-07 0.100412)
(1.7215e-06 -4.70002e-06 0.100383)
(1.72187e-07 -8.64039e-08 0.100412)
(1.91936e-08 -6.27739e-06 0.10041)
(-5.01434e-08 -9.62126e-08 0.100412)
(-1.74722e-06 4.61678e-06 0.100383)
(-1.18155e-06 -1.73604e-06 0.100325)
(-1.73133e-06 -1.17925e-06 0.100325)
(3.2395e-05 3.24128e-05 0.100412)
(1.1719e-06 1.70705e-06 0.100325)
(1.70255e-06 1.1703e-06 0.100325)
(-3.20502e-09 -2.92855e-06 0.100373)
(3.27207e-07 2.62258e-06 0.0997204)
(5.46914e-10 2.90496e-06 0.100373)
(-3.38714e-07 -2.60018e-06 0.0997205)
(-5.02659e-07 5.32086e-07 0.098039)
(4.86641e-07 -5.4506e-07 0.0980391)
(-2.94152e-06 -6.77857e-09 0.100373)
(2.6377e-06 3.20487e-07 0.0997203)
(2.91289e-06 2.26612e-09 0.100373)
(-2.61481e-06 -3.31932e-07 0.0997204)
(1.21203e-07 -1.21867e-07 0.100411)
(-1.20991e-07 1.21015e-07 0.100411)
(1.20355e-07 1.20646e-07 0.100411)
(-1.21808e-07 -1.2057e-07 0.100411)
(1.21302e-07 -1.21382e-07 0.100411)
(-1.20665e-07 1.20781e-07 0.100411)
(1.20214e-07 1.20544e-07 0.100411)
(6.23959e-06 -2.47149e-08 0.10041)
(-4.69123e-06 1.71299e-06 0.100383)
(-9.87186e-08 -5.00247e-08 0.100412)
(-8.73203e-08 1.73557e-07 0.100412)
(-6.27302e-06 2.44487e-08 0.10041)
(4.61196e-06 -1.73871e-06 0.100383)
(-9.81179e-08 -5.0122e-08 0.100412)
(5.10149e-07 -4.87364e-07 0.0980387)
(-5.20841e-07 4.72684e-07 0.0980389)
(-1.96087e-08 6.24039e-06 0.10041)
(-5.03753e-08 -9.95125e-08 0.100412)
(1.72212e-06 -4.69989e-06 0.100383)
(1.71782e-07 -8.64549e-08 0.100412)
(1.98606e-08 -6.27669e-06 0.10041)
(-5.04825e-08 -9.6819e-08 0.100412)
(-1.7475e-06 4.61686e-06 0.100383)
(-1.18152e-06 -1.73609e-06 0.100325)
(-1.7313e-06 -1.17966e-06 0.100325)
(3.23955e-05 3.24125e-05 0.100412)
(1.17273e-06 1.70736e-06 0.100325)
(1.70256e-06 1.17042e-06 0.100325)
(-3.31384e-09 -2.92828e-06 0.100373)
(3.27203e-07 2.62222e-06 0.0997204)
(2.52847e-10 2.90498e-06 0.100373)
(-3.39244e-07 -2.59966e-06 0.0997205)
(-5.02526e-07 5.32795e-07 0.098039)
(4.87084e-07 -5.44498e-07 0.0980391)
(-2.94085e-06 -6.81927e-09 0.100373)
(2.63738e-06 3.20435e-07 0.0997203)
(2.91259e-06 1.77918e-09 0.100373)
(-2.61416e-06 -3.32297e-07 0.0997204)
(1.21079e-07 -1.2152e-07 0.100411)
(-1.20719e-07 1.21121e-07 0.100411)
(1.20039e-07 1.20644e-07 0.100411)
(-1.21577e-07 -1.20538e-07 0.100411)
(1.21554e-07 -1.21373e-07 0.100411)
(-1.2057e-07 1.20943e-07 0.100411)
(1.20599e-07 1.20724e-07 0.100411)
(6.23954e-06 -2.48343e-08 0.10041)
(-4.69241e-06 1.71301e-06 0.100383)
(-9.90489e-08 -4.98192e-08 0.100412)
(-8.67729e-08 1.73258e-07 0.100412)
(-6.27419e-06 2.44543e-08 0.10041)
(4.61165e-06 -1.73827e-06 0.100383)
(-9.77308e-08 -4.98838e-08 0.100412)
(5.10447e-07 -4.87705e-07 0.0980387)
(-5.20773e-07 4.72433e-07 0.0980389)
(-1.86981e-08 6.2429e-06 0.10041)
(-5.02654e-08 -9.74988e-08 0.100412)
(1.72223e-06 -4.70076e-06 0.100383)
(1.71934e-07 -8.63329e-08 0.100412)
(2.0913e-08 -6.27572e-06 0.10041)
(-5.03344e-08 -9.79012e-08 0.100412)
(-1.74725e-06 4.61726e-06 0.100383)
(-1.18152e-06 -1.73648e-06 0.100325)
(-1.73182e-06 -1.17977e-06 0.100325)
(3.23947e-05 3.24119e-05 0.100412)
(1.17256e-06 1.70707e-06 0.100325)
(1.70243e-06 1.17034e-06 0.100325)
(-3.47759e-09 -2.92841e-06 0.100373)
(3.26392e-07 2.62274e-06 0.0997204)
(4.01846e-10 2.90454e-06 0.100373)
(-3.3913e-07 -2.60019e-06 0.0997205)
(-5.02274e-07 5.32133e-07 0.098039)
(4.86272e-07 -5.45585e-07 0.0980391)
(-2.9418e-06 -6.72441e-09 0.100373)
(2.63793e-06 3.19393e-07 0.0997203)
(2.91218e-06 1.98272e-09 0.100373)
(-2.61475e-06 -3.32917e-07 0.0997204)
(1.21467e-07 -1.21717e-07 0.100411)
(-1.20815e-07 1.21385e-07 0.100411)
(1.20678e-07 1.21022e-07 0.100411)
(-1.2152e-07 -1.20607e-07 0.100411)
(1.21409e-07 -1.21543e-07 0.100411)
(-1.20735e-07 1.20802e-07 0.100411)
(1.20537e-07 1.20497e-07 0.100411)
(6.23927e-06 -2.47337e-08 0.10041)
(-4.6911e-06 1.7129e-06 0.100383)
(-9.83762e-08 -4.97134e-08 0.100412)
(-8.78549e-08 1.74299e-07 0.100412)
(-6.27255e-06 2.42564e-08 0.10041)
(4.61154e-06 -1.73873e-06 0.100383)
(-9.89628e-08 -4.99601e-08 0.100412)
(5.10229e-07 -4.86979e-07 0.0980387)
(-5.21728e-07 4.72094e-07 0.0980389)
(-1.86705e-08 6.24235e-06 0.10041)
(-4.99819e-08 -9.69545e-08 0.100412)
(1.72231e-06 -4.7e-06 0.100383)
(1.72867e-07 -8.72317e-08 0.100412)
(2.08818e-08 -6.27423e-06 0.10041)
(-5.02989e-08 -9.90656e-08 0.100412)
(-1.74785e-06 4.61666e-06 0.100383)
(-1.18168e-06 -1.73611e-06 0.100325)
(-1.73142e-06 -1.18002e-06 0.100325)
(3.23933e-05 3.24108e-05 0.100412)
(1.17276e-06 1.70756e-06 0.100325)
(1.70307e-06 1.17093e-06 0.100325)
(-3.48101e-09 -2.92774e-06 0.100373)
(3.26808e-07 2.6224e-06 0.0997204)
(2.84526e-10 2.90398e-06 0.100373)
(-3.39112e-07 -2.59958e-06 0.0997205)
(-5.03451e-07 5.31684e-07 0.098039)
(4.87063e-07 -5.44393e-07 0.0980391)
(-2.94027e-06 -6.68764e-09 0.100373)
(2.6375e-06 3.20008e-07 0.0997203)
(2.91197e-06 2.09306e-09 0.100373)
(-2.61412e-06 -3.32324e-07 0.0997204)
(1.20966e-07 -1.21555e-07 0.100411)
(-1.20624e-07 1.20798e-07 0.100411)
(1.20092e-07 1.20315e-07 0.100411)
(-1.21397e-07 -1.20394e-07 0.100411)
(1.21171e-07 -1.21252e-07 0.100411)
(-1.20506e-07 1.20579e-07 0.100411)
(1.2016e-07 1.20166e-07 0.100411)
(6.23832e-06 -2.44155e-08 0.10041)
(-4.69168e-06 1.71306e-06 0.100383)
(-1.0139e-07 -4.99865e-08 0.100412)
(-8.83054e-08 1.74352e-07 0.100412)
(-6.27362e-06 2.46009e-08 0.10041)
(4.61066e-06 -1.73775e-06 0.100383)
(-1.0016e-07 -4.99791e-08 0.100412)
(5.09393e-07 -4.88333e-07 0.0980387)
(-5.20738e-07 4.72578e-07 0.0980389)
(-1.85037e-08 6.24141e-06 0.10041)
(-5.01497e-08 -1.00317e-07 0.100412)
(1.72223e-06 -4.70009e-06 0.100383)
(1.73054e-07 -8.77788e-08 0.100412)
(2.08393e-08 -6.2751e-06 0.10041)
(-5.02821e-08 -1.00383e-07 0.100412)
(-1.74664e-06 4.61581e-06 0.100383)
(-1.1811e-06 -1.73566e-06 0.100325)
(-1.73082e-06 -1.1792e-06 0.100325)
(3.23928e-05 3.24104e-05 0.100412)
(1.17145e-06 1.70655e-06 0.100325)
(1.70214e-06 1.16975e-06 0.100325)
(-3.58301e-09 -2.92876e-06 0.100373)
(3.26764e-07 2.62211e-06 0.0997204)
(6.16345e-11 2.9035e-06 0.100373)
(-3.3941e-07 -2.59992e-06 0.0997205)
(-5.02293e-07 5.31878e-07 0.098039)
(4.87013e-07 -5.44969e-07 0.0980391)
(-2.94196e-06 -6.98119e-09 0.100373)
(2.63721e-06 3.19801e-07 0.0997203)
(2.91114e-06 1.75222e-09 0.100373)
(-2.61456e-06 -3.32839e-07 0.0997204)
(1.21145e-07 -1.21528e-07 0.100411)
(-1.20699e-07 1.21041e-07 0.100411)
(1.20184e-07 1.20463e-07 0.100411)
(-1.21439e-07 -1.20342e-07 0.100411)
(1.21099e-07 -1.21207e-07 0.100411)
(-1.20424e-07 1.20499e-07 0.100411)
(1.202e-07 1.20318e-07 0.100411)
(6.23873e-06 -2.45779e-08 0.10041)
(-4.69134e-06 1.71268e-06 0.100383)
(-9.9832e-08 -4.98805e-08 0.100412)
(-8.8331e-08 1.74828e-07 0.100412)
(-6.27299e-06 2.4581e-08 0.10041)
(4.61111e-06 -1.73856e-06 0.100383)
(-9.99019e-08 -4.98563e-08 0.100412)
(5.09802e-07 -4.87118e-07 0.0980387)
(-5.2134e-07 4.72388e-07 0.0980389)
(-1.85503e-08 6.24184e-06 0.10041)
(-5.01627e-08 -9.87945e-08 0.100412)
(1.72188e-06 -4.69975e-06 0.100383)
(1.73416e-07 -8.77863e-08 0.100412)
(2.08033e-08 -6.27453e-06 0.10041)
(-5.02523e-08 -1.0012e-07 0.100412)
(-1.74742e-06 4.61626e-06 0.100383)
(-1.18147e-06 -1.73587e-06 0.100325)
(-1.73114e-06 -1.17954e-06 0.100325)
(3.23932e-05 3.24105e-05 0.100412)
(1.17269e-06 1.70775e-06 0.100325)
(1.70301e-06 1.17061e-06 0.100325)
(-4.37833e-09 -2.92912e-06 0.100373)
(3.26354e-07 2.6224e-06 0.0997204)
(1.8798e-11 2.90377e-06 0.100373)
(-3.40552e-07 -2.60015e-06 0.0997205)
(-5.03007e-07 5.31201e-07 0.098039)
(4.85994e-07 -5.45517e-07 0.0980391)
(-2.94176e-06 -7.24981e-09 0.100373)
(2.63745e-06 3.20065e-07 0.0997203)
(2.91178e-06 1.73688e-09 0.100373)
(-2.61466e-06 -3.32917e-07 0.0997204)
(1.20789e-07 -1.21221e-07 0.100411)
(-1.20392e-07 1.20558e-07 0.100411)
(1.19795e-07 1.20181e-07 0.100411)
(-1.21419e-07 -1.20315e-07 0.100411)
(1.20493e-07 -1.19749e-07 0.100411)
(-1.19217e-07 1.19217e-07 0.100411)
(1.18673e-07 1.18478e-07 0.100411)
(6.23821e-06 -2.50079e-08 0.10041)
(-4.69126e-06 1.71272e-06 0.100383)
(-1.02259e-07 -4.98695e-08 0.100412)
(-8.9696e-08 1.76021e-07 0.100412)
(-6.2735e-06 2.42474e-08 0.10041)
(4.61117e-06 -1.73893e-06 0.100383)
(-1.01445e-07 -4.98444e-08 0.100412)
(5.09239e-07 -4.87897e-07 0.0980387)
(-5.21471e-07 4.71858e-07 0.0980389)
(-1.89789e-08 6.24106e-06 0.10041)
(-5.02844e-08 -1.01175e-07 0.100412)
(1.72161e-06 -4.70106e-06 0.100383)
(1.73854e-07 -8.73719e-08 0.100412)
(2.09232e-08 -6.27529e-06 0.10041)
(-5.04165e-08 -1.01696e-07 0.100412)
(-1.74713e-06 4.6187e-06 0.100383)
(-1.1808e-06 -1.7355e-06 0.100325)
(-1.73064e-06 -1.17899e-06 0.100325)
(3.23933e-05 3.24104e-05 0.100412)
(1.17247e-06 1.70713e-06 0.100325)
(1.70286e-06 1.17027e-06 0.100325)
(-2.11313e-08 -2.9277e-06 0.100373)
(3.33482e-07 2.63189e-06 0.0997204)
(-5.93875e-09 2.90444e-06 0.100373)
(-4.68096e-07 -2.66276e-06 0.0997205)
(-5.08642e-07 5.5028e-07 0.0980391)
(5.2249e-07 -5.5358e-07 0.098039)
(-2.94067e-06 -6.50085e-09 0.100373)
(2.64022e-06 3.19311e-07 0.0997203)
(2.91271e-06 1.59693e-09 0.100373)
(-2.6231e-06 -3.39582e-07 0.0997204)
(1.20558e-07 -1.16469e-07 0.100411)
(-1.18363e-07 1.1965e-07 0.100411)
(1.15911e-07 1.12843e-07 0.100411)
(-1.20072e-07 -1.19302e-07 0.100411)
(1.23422e-07 -1.2111e-07 0.100411)