/*--------------------------------*- C++ -*----------------------------------*\
| =========                 |                                                 |
| \\      /  F ield         | OpenFOAM: The Open Source CFD Toolbox           |
|  \\    /   O peration     | Version:  2206                                  |
|   \\  /    A nd           | Website:  www.openfoam.com                      |
|    \\/     M anipulation  |                                                 |
\*---------------------------------------------------------------------------*/
FoamFile
{
    version     2.0;
    format      ascii;
    arch        "LSB;label=32;scalar=64";
    class       volScalarField;
    location    "15.5";
    object      p;
}
// * * * * * * * * * * * * * * * * * * * * * * * * * * * * * * * * * * * * * //

dimensions      [0 2 -2 0 0 0 0];

internalField   nonuniform List<scalar> 
171728
(
0.00427869
0.00427902
0.00427902
0.00428207
0.00422335
0.00422375
0.00422375
0.00422675
0.00417263
0.00417243
0.00417243
0.00417514
0.00412316
0.00412302
0.00412301
0.00412555
0.00407735
0.0040773
0.0040773
0.00407997
0.00403201
0.00403198
0.00403198
0.00403463
0.00398673
0.0039867
0.0039867
0.00398935
0.00394145
0.00394143
0.00394143
0.00394408
0.00389618
0.00389615
0.00389615
0.0038988
0.00385091
0.00385088
0.00385088
0.00385353
0.00380563
0.0038056
0.0038056
0.00380825
0.00376035
0.00376033
0.00376033
0.00376298
0.00371508
0.00371505
0.00371505
0.0037177
0.00366981
0.00366978
0.00366978
0.00367243
0.00362455
0.00362452
0.00362452
0.00362717
0.00357928
0.00357925
0.00357925
0.0035819
0.003534
0.00353397
0.00353397
0.00353662
0.00348872
0.00348869
0.00348869
0.00349134
0.00344344
0.00344341
0.00344341
0.00344606
0.00339816
0.00339813
0.00339813
0.00340078
0.00335287
0.00335285
0.00335285
0.0033555
0.00330759
0.00330757
0.00330757
0.00331022
0.00326231
0.00326229
0.00326229
0.00326494
0.00321704
0.00321701
0.00321701
0.00321966
0.00317176
0.00317173
0.00317173
0.00317438
0.00312648
0.00312645
0.00312645
0.0031291
0.0030812
0.00308117
0.00308117
0.00308382
0.00303592
0.00303589
0.00303589
0.00303854
0.00299063
0.00299061
0.00299061
0.00299326
0.00294535
0.00294533
0.00294533
0.00294798
0.00290007
0.00290005
0.00290005
0.0029027
0.0028548
0.00285477
0.00285477
0.00285742
0.00280953
0.0028095
0.0028095
0.00281215
0.00276424
0.00276422
0.00276421
0.00276686
0.00271896
0.00271893
0.00271893
0.00272158
0.00267368
0.00267365
0.00267365
0.0026763
0.0026284
0.00262837
0.00262837
0.00263102
0.00258312
0.00258309
0.00258309
0.00258574
0.00253784
0.00253782
0.00253782
0.00254047
0.00249256
0.00249254
0.00249254
0.00249519
0.00244729
0.00244726
0.00244726
0.00244991
0.00240201
0.00240198
0.00240198
0.00240463
0.00235673
0.0023567
0.0023567
0.00235935
0.00231145
0.00231142
0.00231142
0.00231407
0.00226617
0.00226615
0.00226615
0.0022688
0.0022209
0.00222087
0.00222087
0.00222352
0.00217562
0.00217559
0.00217559
0.00217824
0.00213034
0.00213031
0.00213031
0.00213296
0.00208506
0.00208503
0.00208503
0.00208768
0.00203979
0.00203976
0.00203976
0.00204241
0.00199451
0.00199449
0.00199449
0.00199714
0.00194922
0.0019492
0.0019492
0.00195185
0.00190394
0.00190391
0.00190391
0.00190656
0.00185866
0.00185863
0.00185863
0.00186128
0.00181337
0.00181335
0.00181335
0.001816
0.00176809
0.00176806
0.00176806
0.00177071
0.00172281
0.00172278
0.00172278
0.00172543
0.00167752
0.00167749
0.00167749
0.00168014
0.00163224
0.00163221
0.00163221
0.00163486
0.00158695
0.00158692
0.00158692
0.00158957
0.00154167
0.00154164
0.00154164
0.00154429
0.00149638
0.00149635
0.00149635
0.00149901
0.0014511
0.00145107
0.00145107
0.00145372
0.00140582
0.00140579
0.00140579
0.00140844
0.00136053
0.00136051
0.00136051
0.00136316
0.00131525
0.00131523
0.00131523
0.00131788
0.00126998
0.00126995
0.00126995
0.0012726
0.00122471
0.00122468
0.00122468
0.00122733
0.00117943
0.0011794
0.0011794
0.00118205
0.00113414
0.00113412
0.00113412
0.00113677
0.00108886
0.00108884
0.00108884
0.00109149
0.00104359
0.00104356
0.00104356
0.00104621
0.000998308
0.00099828
0.00099828
0.00100093
0.000953031
0.000953003
0.000953003
0.000955654
0.000907754
0.000907726
0.000907726
0.000910377
0.000862478
0.00086245
0.00086245
0.000865101
0.000817202
0.000817174
0.000817174
0.000819825
0.000771926
0.000771898
0.000771898
0.000774549
0.000726649
0.000726621
0.000726621
0.000729272
0.000681371
0.000681343
0.000681343
0.000683994
0.000636092
0.000636064
0.000636064
0.000638715
0.000590814
0.000590786
0.000590786
0.000593437
0.000545536
0.000545508
0.000545509
0.000548159
0.000500262
0.000500235
0.000500234
0.000502886
0.000454992
0.000454966
0.000454964
0.000457616
0.000409715
0.000409687
0.000409688
0.000412338
0.000364429
0.000364401
0.000364401
0.000367052
0.000319148
0.00031912
0.00031912
0.000321771
0.000273866
0.000273839
0.000273839
0.00027649
0.000228586
0.000228558
0.000228558
0.000231209
0.000183302
0.000183279
0.000183279
0.000185926
0.000138008
0.000137967
0.000137967
0.000140603
9.27532e-05
9.27359e-05
9.27329e-05
9.53347e-05
4.81077e-05
4.7544e-05
4.75406e-05
5.00203e-05
1.08974e-05
1.12649e-05
1.12629e-05
1.08777e-05
0.00429212
0.00429234
0.00429234
0.00429212
0.00429234
0.00429234
0.0042931
0.0042931
0.0042931
0.0042931
0.00429234
0.00429234
0.00429212
0.00429234
0.00429234
0.00429212
0.00428207
0.0042334
0.00427902
0.00427902
0.00423561
0.00423561
0.00428207
0.0042334
0.00427902
0.00427902
0.00423561
0.00423561
0.00427902
0.00423561
0.00423561
0.00428207
0.0042334
0.00427902
0.00423561
0.00423561
0.0042334
0.00422675
0.00418225
0.00422376
0.00422376
0.00418553
0.00418553
0.00422675
0.00418225
0.00422375
0.00422375
0.00418553
0.00418553
0.00422376
0.00418553
0.00418553
0.00422675
0.00418225
0.00422375
0.00418553
0.00418553
0.00418225
0.00417514
0.00413162
0.00417243
0.00417243
0.0041348
0.0041348
0.00417514
0.00413163
0.00417243
0.00417243
0.0041348
0.0041348
0.00417243
0.0041348
0.0041348
0.00417514
0.00413162
0.00417243
0.0041348
0.0041348
0.00413163
0.00412554
0.00408599
0.00412301
0.00412301
0.00408865
0.00408865
0.00412555
0.00408599
0.00412301
0.00412301
0.00408865
0.00408865
0.00412302
0.00408865
0.00408865
0.00412555
0.00408599
0.00412302
0.00408865
0.00408865
0.00408599
0.00407997
0.00404066
0.0040773
0.0040773
0.0040433
0.0040433
0.00407997
0.00404066
0.0040773
0.0040773
0.0040433
0.0040433
0.0040773
0.0040433
0.0040433
0.00407997
0.00404066
0.0040773
0.0040433
0.0040433
0.00404066
0.00403463
0.00399538
0.00403198
0.00403198
0.00399802
0.00399802
0.00403463
0.00399537
0.00403198
0.00403198
0.00399802
0.00399802
0.00403198
0.00399802
0.00399802
0.00403463
0.00399537
0.00403198
0.00399802
0.00399802
0.00399537
0.00398935
0.0039501
0.0039867
0.0039867
0.00395275
0.00395275
0.00398935
0.0039501
0.0039867
0.0039867
0.00395275
0.00395275
0.0039867
0.00395275
0.00395275
0.00398935
0.0039501
0.0039867
0.00395275
0.00395275
0.0039501
0.00394408
0.00390483
0.00394143
0.00394143
0.00390747
0.00390747
0.00394408
0.00390483
0.00394143
0.00394143
0.00390747
0.00390747
0.00394143
0.00390747
0.00390747
0.00394408
0.00390483
0.00394143
0.00390747
0.00390747
0.00390482
0.0038988
0.00385955
0.00389615
0.00389615
0.0038622
0.0038622
0.0038988
0.00385955
0.00389615
0.00389615
0.0038622
0.0038622
0.00389615
0.0038622
0.0038622
0.0038988
0.00385955
0.00389615
0.0038622
0.0038622
0.00385955
0.00385353
0.00381427
0.00385088
0.00385088
0.00381692
0.00381692
0.00385353
0.00381428
0.00385088
0.00385088
0.00381692
0.00381692
0.00385088
0.00381692
0.00381692
0.00385353
0.00381428
0.00385088
0.00381692
0.00381692
0.00381428
0.00380825
0.003769
0.0038056
0.0038056
0.00377165
0.00377165
0.00380825
0.003769
0.0038056
0.0038056
0.00377164
0.00377165
0.0038056
0.00377165
0.00377165
0.00380825
0.003769
0.0038056
0.00377165
0.00377165
0.003769
0.00376298
0.00372372
0.00376033
0.00376033
0.00372637
0.00372637
0.00376298
0.00372372
0.00376033
0.00376033
0.00372637
0.00372637
0.00376033
0.00372637
0.00372637
0.00376298
0.00372373
0.00376033
0.00372637
0.00372637
0.00372373
0.0037177
0.00367845
0.00371505
0.00371505
0.0036811
0.0036811
0.0037177
0.00367846
0.00371505
0.00371505
0.0036811
0.0036811
0.00371505
0.0036811
0.0036811
0.0037177
0.00367845
0.00371505
0.0036811
0.0036811
0.00367845
0.00367243
0.00363319
0.00366978
0.00366978
0.00363584
0.00363584
0.00367243
0.00363319
0.00366978
0.00366978
0.00363584
0.00363584
0.00366978
0.00363584
0.00363584
0.00367243
0.00363319
0.00366978
0.00363584
0.00363584
0.00363319
0.00362717
0.00358793
0.00362452
0.00362452
0.00359057
0.00359057
0.00362717
0.00358792
0.00362452
0.00362452
0.00359057
0.00359057
0.00362452
0.00359057
0.00359057
0.00362717
0.00358793
0.00362452
0.00359057
0.00359057
0.00358793
0.0035819
0.00354264
0.00357925
0.00357925
0.00354529
0.00354529
0.0035819
0.00354264
0.00357925
0.00357925
0.00354529
0.00354529
0.00357925
0.00354529
0.00354529
0.0035819
0.00354264
0.00357925
0.00354529
0.00354529
0.00354264
0.00353662
0.00349737
0.00353397
0.00353397
0.00350001
0.00350001
0.00353662
0.00349737
0.00353397
0.00353397
0.00350001
0.00350001
0.00353397
0.00350001
0.00350001
0.00353662
0.00349737
0.00353397
0.00350001
0.00350001
0.00349737
0.00349134
0.00345209
0.00348869
0.00348869
0.00345473
0.00345473
0.00349134
0.00345209
0.00348869
0.00348869
0.00345473
0.00345473
0.00348869
0.00345473
0.00345473
0.00349134
0.00345209
0.00348869
0.00345473
0.00345473
0.00345209
0.00344606
0.0034068
0.00344341
0.00344341
0.00340945
0.00340945
0.00344606
0.0034068
0.00344341
0.00344341
0.00340945
0.00340945
0.00344341
0.00340945
0.00340945
0.00344606
0.0034068
0.00344341
0.00340945
0.00340945
0.0034068
0.00340078
0.00336152
0.00339813
0.00339813
0.00336417
0.00336417
0.00340078
0.00336152
0.00339813
0.00339813
0.00336417
0.00336417
0.00339813
0.00336417
0.00336417
0.00340078
0.00336152
0.00339813
0.00336417
0.00336417
0.00336152
0.0033555
0.00331624
0.00335285
0.00335285
0.00331889
0.00331889
0.0033555
0.00331624
0.00335285
0.00335285
0.00331889
0.00331889
0.00335285
0.00331889
0.00331889
0.0033555
0.00331624
0.00335285
0.00331889
0.00331889
0.00331624
0.00331022
0.00327096
0.00330757
0.00330757
0.00327361
0.00327361
0.00331022
0.00327096
0.00330757
0.00330757
0.00327361
0.00327361
0.00330757
0.00327361
0.00327361
0.00331022
0.00327096
0.00330757
0.00327361
0.00327361
0.00327096
0.00326494
0.00322568
0.00326229
0.00326229
0.00322833
0.00322833
0.00326494
0.00322568
0.00326229
0.00326229
0.00322833
0.00322833
0.00326229
0.00322833
0.00322833
0.00326494
0.00322568
0.00326229
0.00322833
0.00322833
0.00322568
0.00321966
0.0031804
0.00321701
0.00321701
0.00318305
0.00318305
0.00321966
0.0031804
0.00321701
0.00321701
0.00318305
0.00318305
0.00321701
0.00318305
0.00318305
0.00321966
0.0031804
0.00321701
0.00318305
0.00318305
0.0031804
0.00317438
0.00313512
0.00317173
0.00317173
0.00313777
0.00313777
0.00317438
0.00313512
0.00317173
0.00317173
0.00313777
0.00313777
0.00317173
0.00313777
0.00313777
0.00317438
0.00313512
0.00317173
0.00313777
0.00313777
0.00313512
0.0031291
0.00308984
0.00312645
0.00312645
0.00309249
0.00309249
0.0031291
0.00308984
0.00312645
0.00312645
0.00309249
0.00309249
0.00312645
0.00309249
0.00309249
0.0031291
0.00308984
0.00312645
0.00309249
0.00309249
0.00308984
0.00308382
0.00304456
0.00308117
0.00308117
0.00304721
0.00304721
0.00308382
0.00304456
0.00308117
0.00308117
0.00304721
0.00304721
0.00308117
0.00304721
0.00304721
0.00308382
0.00304456
0.00308117
0.00304721
0.00304721
0.00304456
0.00303854
0.00299928
0.00303589
0.00303589
0.00300193
0.00300193
0.00303854
0.00299928
0.00303589
0.00303589
0.00300193
0.00300193
0.00303589
0.00300193
0.00300193
0.00303854
0.00299928
0.00303589
0.00300193
0.00300193
0.00299928
0.00299326
0.002954
0.00299061
0.00299061
0.00295665
0.00295665
0.00299326
0.002954
0.00299061
0.00299061
0.00295665
0.00295665
0.00299061
0.00295665
0.00295665
0.00299326
0.002954
0.00299061
0.00295665
0.00295665
0.002954
0.00294798
0.00290872
0.00294533
0.00294533
0.00291137
0.00291137
0.00294798
0.00290872
0.00294533
0.00294533
0.00291137
0.00291137
0.00294533
0.00291137
0.00291137
0.00294798
0.00290872
0.00294533
0.00291137
0.00291137
0.00290872
0.0029027
0.00286345
0.00290005
0.00290005
0.00286609
0.00286609
0.0029027
0.00286345
0.00290005
0.00290005
0.00286609
0.00286609
0.00290005
0.00286609
0.00286609
0.0029027
0.00286345
0.00290005
0.00286609
0.00286609
0.00286345
0.00285742
0.00281817
0.00285477
0.00285477
0.00282082
0.00282082
0.00285742
0.00281817
0.00285477
0.00285477
0.00282082
0.00282082
0.00285477
0.00282082
0.00282082
0.00285742
0.00281817
0.00285477
0.00282082
0.00282082
0.00281817
0.00281215
0.00277289
0.0028095
0.0028095
0.00277554
0.00277554
0.00281215
0.00277289
0.0028095
0.0028095
0.00277554
0.00277554
0.0028095
0.00277554
0.00277554
0.00281215
0.00277289
0.0028095
0.00277554
0.00277554
0.00277289
0.00276686
0.00272761
0.00276421
0.00276422
0.00273025
0.00273025
0.00276687
0.00272761
0.00276421
0.00276421
0.00273025
0.00273025
0.00276421
0.00273025
0.00273025
0.00276686
0.00272761
0.00276421
0.00273025
0.00273025
0.00272761
0.00272158
0.00268233
0.00271893
0.00271893
0.00268497
0.00268497
0.00272158
0.00268233
0.00271893
0.00271893
0.00268497
0.00268497
0.00271893
0.00268497
0.00268497
0.00272158
0.00268233
0.00271893
0.00268497
0.00268497
0.00268233
0.0026763
0.00263705
0.00267365
0.00267365
0.00263969
0.00263969
0.0026763
0.00263705
0.00267365
0.00267365
0.00263969
0.00263969
0.00267365
0.00263969
0.00263969
0.0026763
0.00263705
0.00267365
0.00263969
0.00263969
0.00263705
0.00263102
0.00259177
0.00262837
0.00262837
0.00259441
0.00259441
0.00263102
0.00259177
0.00262837
0.00262837
0.00259441
0.00259441
0.00262837
0.00259441
0.00259441
0.00263102
0.00259177
0.00262837
0.00259441
0.00259441
0.00259177
0.00258574
0.00254649
0.00258309
0.00258309
0.00254913
0.00254913
0.00258574
0.00254649
0.00258309
0.00258309
0.00254913
0.00254913
0.00258309
0.00254913
0.00254913
0.00258574
0.00254649
0.00258309
0.00254913
0.00254913
0.00254649
0.00254047
0.00250121
0.00253782
0.00253782
0.00250386
0.00250386
0.00254047
0.00250121
0.00253781
0.00253782
0.00250386
0.00250386
0.00253782
0.00250386
0.00250386
0.00254047
0.00250121
0.00253782
0.00250386
0.00250386
0.00250121
0.00249519
0.00245593
0.00249254
0.00249254
0.00245858
0.00245858
0.00249519
0.00245593
0.00249254
0.00249254
0.00245858
0.00245858
0.00249254
0.00245858
0.00245858
0.00249519
0.00245593
0.00249254
0.00245858
0.00245858
0.00245593
0.00244991
0.00241065
0.00244726
0.00244726
0.0024133
0.0024133
0.00244991
0.00241065
0.00244726
0.00244726
0.0024133
0.0024133
0.00244726
0.0024133
0.0024133
0.00244991
0.00241065
0.00244726
0.0024133
0.0024133
0.00241065
0.00240463
0.00236538
0.00240198
0.00240198
0.00236802
0.00236802
0.00240463
0.00236538
0.00240198
0.00240198
0.00236802
0.00236802
0.00240198
0.00236802
0.00236802
0.00240463
0.00236538
0.00240198
0.00236802
0.00236802
0.00236538
0.00235935
0.0023201
0.0023567
0.0023567
0.00232274
0.00232274
0.00235935
0.0023201
0.0023567
0.0023567
0.00232274
0.00232274
0.0023567
0.00232274
0.00232274
0.00235935
0.0023201
0.0023567
0.00232274
0.00232274
0.0023201
0.00231407
0.00227482
0.00231142
0.00231142
0.00227747
0.00227747
0.00231407
0.00227482
0.00231142
0.00231142
0.00227747
0.00227747
0.00231142
0.00227747
0.00227747
0.00231407
0.00227482
0.00231142
0.00227747
0.00227747
0.00227482
0.0022688
0.00222954
0.00226615
0.00226615
0.00223219
0.00223219
0.0022688
0.00222954
0.00226615
0.00226615
0.00223219
0.00223219
0.00226615
0.00223219
0.00223219
0.0022688
0.00222954
0.00226615
0.00223219
0.00223219
0.00222954
0.00222352
0.00218426
0.00222087
0.00222087
0.00218691
0.00218691
0.00222352
0.00218426
0.00222087
0.00222087
0.00218691
0.00218691
0.00222087
0.00218691
0.00218691
0.00222352
0.00218426
0.00222087
0.00218691
0.00218691
0.00218426
0.00217824
0.00213898
0.00217559
0.00217559
0.00214163
0.00214163
0.00217824
0.00213898
0.00217559
0.00217559
0.00214163
0.00214163
0.00217559
0.00214163
0.00214163
0.00217824
0.00213898
0.00217559
0.00214163
0.00214163
0.00213898
0.00213296
0.00209371
0.00213031
0.00213031
0.00209635
0.00209635
0.00213296
0.00209371
0.00213031
0.00213031
0.00209635
0.00209635
0.00213031
0.00209635
0.00209635
0.00213296
0.00209371
0.00213031
0.00209635
0.00209635
0.00209371
0.00208768
0.00204843
0.00208503
0.00208503
0.00205108
0.00205108
0.00208768
0.00204843
0.00208503
0.00208503
0.00205108
0.00205108
0.00208503
0.00205108
0.00205108
0.00208768
0.00204843
0.00208503
0.00205108
0.00205108
0.00204843
0.00204241
0.00200316
0.00203976
0.00203976
0.00200581
0.00200581
0.00204241
0.00200316
0.00203976
0.00203976
0.00200581
0.00200581
0.00203976
0.00200581
0.00200581
0.00204241
0.00200316
0.00203976
0.00200581
0.00200581
0.00200316
0.00199714
0.00195787
0.00199449
0.00199449
0.00196052
0.00196052
0.00199714
0.00195787
0.00199449
0.00199449
0.00196052
0.00196052
0.00199449
0.00196052
0.00196052
0.00199714
0.00195787
0.00199449
0.00196052
0.00196052
0.00195787
0.00195185
0.00191259
0.0019492
0.0019492
0.00191523
0.00191523
0.00195185
0.00191259
0.0019492
0.0019492
0.00191523
0.00191523
0.0019492
0.00191523
0.00191523
0.00195185
0.00191259
0.0019492
0.00191523
0.00191523
0.00191259
0.00190656
0.0018673
0.00190391
0.00190391
0.00186995
0.00186995
0.00190656
0.0018673
0.00190391
0.00190391
0.00186995
0.00186995
0.00190391
0.00186995
0.00186995
0.00190656
0.0018673
0.00190391
0.00186995
0.00186995
0.0018673
0.00186128
0.00182202
0.00185863
0.00185863
0.00182467
0.00182467
0.00186128
0.00182202
0.00185863
0.00185863
0.00182467
0.00182467
0.00185863
0.00182467
0.00182467
0.00186128
0.00182202
0.00185863
0.00182467
0.00182467
0.00182202
0.001816
0.00177674
0.00181335
0.00181335
0.00177938
0.00177938
0.001816
0.00177674
0.00181335
0.00181335
0.00177938
0.00177938
0.00181335
0.00177938
0.00177938
0.001816
0.00177674
0.00181335
0.00177938
0.00177938
0.00177674
0.00177071
0.00173145
0.00176806
0.00176806
0.0017341
0.0017341
0.00177071
0.00173145
0.00176806
0.00176806
0.0017341
0.0017341
0.00176806
0.0017341
0.0017341
0.00177071
0.00173145
0.00176806
0.0017341
0.0017341
0.00173145
0.00172543
0.00168617
0.00172278
0.00172278
0.00168881
0.00168881
0.00172543
0.00168617
0.00172278
0.00172278
0.00168881
0.00168881
0.00172278
0.00168881
0.00168881
0.00172543
0.00168617
0.00172278
0.00168881
0.00168881
0.00168617
0.00168014
0.00164088
0.00167749
0.00167749
0.00164353
0.00164353
0.00168014
0.00164088
0.00167749
0.00167749
0.00164353
0.00164353
0.00167749
0.00164353
0.00164353
0.00168014
0.00164088
0.00167749
0.00164353
0.00164353
0.00164088
0.00163486
0.0015956
0.00163221
0.00163221
0.00159824
0.00159824
0.00163486
0.0015956
0.00163221
0.00163221
0.00159824
0.00159824
0.00163221
0.00159824
0.00159824
0.00163486
0.0015956
0.00163221
0.00159824
0.00159824
0.0015956
0.00158957
0.00155031
0.00158692
0.00158692
0.00155296
0.00155296
0.00158957
0.00155031
0.00158692
0.00158692
0.00155296
0.00155296
0.00158692
0.00155296
0.00155296
0.00158957
0.00155031
0.00158692
0.00155296
0.00155296
0.00155031
0.00154429
0.00150503
0.00154164
0.00154164
0.00150768
0.00150768
0.00154429
0.00150503
0.00154164
0.00154164
0.00150768
0.00150768
0.00154164
0.00150768
0.00150768
0.00154429
0.00150503
0.00154164
0.00150768
0.00150768
0.00150503
0.00149901
0.00145975
0.00149635
0.00149635
0.00146239
0.00146239
0.00149901
0.00145975
0.00149635
0.00149635
0.00146239
0.00146239
0.00149635
0.00146239
0.00146239
0.00149901
0.00145975
0.00149635
0.00146239
0.00146239
0.00145975
0.00145372
0.00141446
0.00145107
0.00145107
0.00141711
0.00141711
0.00145372
0.00141446
0.00145107
0.00145107
0.00141711
0.00141711
0.00145107
0.00141711
0.00141711
0.00145372
0.00141446
0.00145107
0.00141711
0.00141711
0.00141446
0.00140844
0.00136918
0.00140579
0.00140579
0.00137183
0.00137183
0.00140844
0.00136918
0.00140579
0.00140579
0.00137183
0.00137183
0.00140579
0.00137183
0.00137183
0.00140844
0.00136918
0.00140579
0.00137183
0.00137183
0.00136918
0.00136316
0.0013239
0.00136051
0.00136051
0.00132655
0.00132655
0.00136316
0.0013239
0.00136051
0.00136051
0.00132655
0.00132655
0.00136051
0.00132655
0.00132655
0.00136316
0.0013239
0.00136051
0.00132655
0.00132655
0.0013239
0.00131788
0.00127863
0.00131523
0.00131523
0.00128127
0.00128127
0.00131788
0.00127863
0.00131523
0.00131523
0.00128127
0.00128127
0.00131523
0.00128127
0.00128127
0.00131788
0.00127863
0.00131523
0.00128127
0.00128127
0.00127863
0.0012726
0.00123335
0.00126995
0.00126995
0.001236
0.001236
0.0012726
0.00123335
0.00126995
0.00126995
0.001236
0.001236
0.00126995
0.001236
0.001236
0.0012726
0.00123336
0.00126995
0.001236
0.001236
0.00123336
0.00122733
0.00118807
0.00122468
0.00122468
0.00119072
0.00119072
0.00122733
0.00118807
0.00122468
0.00122468
0.00119072
0.00119072
0.00122468
0.00119072
0.00119072
0.00122733
0.00118807
0.00122468
0.00119072
0.00119072
0.00118807
0.00118205
0.00114279
0.0011794
0.0011794
0.00114543
0.00114543
0.00118205
0.00114279
0.0011794
0.0011794
0.00114543
0.00114543
0.0011794
0.00114543
0.00114544
0.00118205
0.00114279
0.0011794
0.00114543
0.00114543
0.00114279
0.00113677
0.00109751
0.00113412
0.00113411
0.00110016
0.00110016
0.00113677
0.00109751
0.00113411
0.00113412
0.00110016
0.00110016
0.00113412
0.00110016
0.00110016
0.00113677
0.00109751
0.00113412
0.00110016
0.00110016
0.00109751
0.00109149
0.00105223
0.00108884
0.00108884
0.00105488
0.00105488
0.00109149
0.00105223
0.00108884
0.00108884
0.00105488
0.00105488
0.00108884
0.00105488
0.00105488
0.00109149
0.00105223
0.00108884
0.00105488
0.00105488
0.00105223
0.00104621
0.00100695
0.00104356
0.00104356
0.0010096
0.0010096
0.00104621
0.00100695
0.00104356
0.00104356
0.0010096
0.0010096
0.00104356
0.0010096
0.0010096
0.00104621
0.00100695
0.00104356
0.0010096
0.0010096
0.00100695
0.00100093
0.000961676
0.00099828
0.00099828
0.000964322
0.000964322
0.00100093
0.000961677
0.00099828
0.00099828
0.000964322
0.000964322
0.00099828
0.000964322
0.000964323
0.00100093
0.000961676
0.00099828
0.000964322
0.000964322
0.000961676
0.000955654
0.0009164
0.000953003
0.000953003
0.000919046
0.000919046
0.000955654
0.0009164
0.000953003
0.000953003
0.000919046
0.000919046
0.000953003
0.000919046
0.000919046
0.000955654
0.0009164
0.000953003
0.000919046
0.000919046
0.0009164
0.000910377
0.000871123
0.000907726
0.000907726
0.000873769
0.000873769
0.000910377
0.000871123
0.000907726
0.000907726
0.000873769
0.000873769
0.000907727
0.000873769
0.000873769
0.000910377
0.000871123
0.000907726
0.000873769
0.000873769
0.000871123
0.000865101
0.000825847
0.00086245
0.00086245
0.000828493
0.000828493
0.0008651
0.000825847
0.00086245
0.00086245
0.000828493
0.000828493
0.00086245
0.000828493
0.000828493
0.000865101
0.000825847
0.00086245
0.000828493
0.000828493
0.000825847
0.000819825
0.000780571
0.000817174
0.000817174
0.000783217
0.000783217
0.000819825
0.000780572
0.000817174
0.000817174
0.000783217
0.000783217
0.000817174
0.000783217
0.000783217
0.000819825
0.000780571
0.000817174
0.000783217
0.000783217
0.000780571
0.000774549
0.000735294
0.000771898
0.000771898
0.00073794
0.00073794
0.000774549
0.000735295
0.000771898
0.000771898
0.00073794
0.00073794
0.000771898
0.00073794
0.000737941
0.000774549
0.000735294
0.000771898
0.00073794
0.00073794
0.000735294
0.000729272
0.000690016
0.000726621
0.000726621
0.000692662
0.000692662
0.000729272
0.000690016
0.000726621
0.000726621
0.000692662
0.000692662
0.000726621
0.000692662
0.000692663
0.000729272
0.000690016
0.000726621
0.000692662
0.000692662
0.000690016
0.000683993
0.000644738
0.000681343
0.000681343
0.000647384
0.000647384
0.000683993
0.000644738
0.000681343
0.000681343
0.000647384
0.000647384
0.000681343
0.000647384
0.000647384
0.000683994
0.000644738
0.000681343
0.000647384
0.000647384
0.000644738
0.000638715
0.00059946
0.000636065
0.000636064
0.000602106
0.000602106
0.000638715
0.00059946
0.000636064
0.000636064
0.000602106
0.000602106
0.000636065
0.000602106
0.000602106
0.000638715
0.00059946
0.000636064
0.000602106
0.000602106
0.00059946
0.000593437
0.000554182
0.000590786
0.000590786
0.000556828
0.000556827
0.000593437
0.000554182
0.000590786
0.000590786
0.000556828
0.000556828
0.000590786
0.000556827
0.000556828
0.000593437
0.000554182
0.000590786
0.000556828
0.000556828
0.000554182
0.000548159
0.000508907
0.000545508
0.000545508
0.000511552
0.000511552
0.000548158
0.000508908
0.000545508
0.000545508
0.000511552
0.000511552
0.000545508
0.000511552
0.000511552
0.000548159
0.000508906
0.000545508
0.000511552
0.000511552
0.000508907
0.000502885
0.000463637
0.000500235
0.000500235
0.000466282
0.000466283
0.000502886
0.000463638
0.000500234
0.000500234
0.000466282
0.000466281
0.000500235
0.000466284
0.000466282
0.000502885
0.000463637
0.000500235
0.000466282
0.000466282
0.000463638
0.000457615
0.000418363
0.000454965
0.000454966
0.000421009
0.000421009
0.000457616
0.000418361
0.000454964
0.000454964
0.000421008
0.000421008
0.000454966
0.000421009
0.000421009
0.000457615
0.000418364
0.000454966
0.000421008
0.000421008
0.000418363
0.000412339
0.000373075
0.000409688
0.000409687
0.000375722
0.000375722
0.000412336
0.000373076
0.000409688
0.000409688
0.000375722
0.000375722
0.000409688
0.000375722
0.000375722
0.00041234
0.000373075
0.000409688
0.000375722
0.000375722
0.000373075
0.000367052
0.000327794
0.000364401
0.000364401
0.00033044
0.00033044
0.000367052
0.000327794
0.000364401
0.000364401
0.00033044
0.00033044
0.000364402
0.00033044
0.000330441
0.000367052
0.000327794
0.000364401
0.00033044
0.00033044
0.000327794
0.000321771
0.000282513
0.00031912
0.00031912
0.000285159
0.000285159
0.000321771
0.000282513
0.00031912
0.00031912
0.000285159
0.000285159
0.00031912
0.000285159
0.000285159
0.000321771
0.000282512
0.00031912
0.000285159
0.000285159
0.000282513
0.000276489
0.000237232
0.000273839
0.000273838
0.000239878
0.000239878
0.000276489
0.000237232
0.000273838
0.000273839
0.000239878
0.000239878
0.000273839
0.000239878
0.000239878
0.00027649
0.000237231
0.000273839
0.000239878
0.000239878
0.000237232
0.000231209
0.000191951
0.000228558
0.000228558
0.000194598
0.000194598
0.000231209
0.000191951
0.000228558
0.000228558
0.000194598
0.000194598
0.000228558
0.000194598
0.000194599
0.000231209
0.000191951
0.000228558
0.000194598
0.000194598
0.000191951
0.000185925
0.000146659
0.000183279
0.000183279
0.000149305
0.000149305
0.000185925
0.00014666
0.000183279
0.000183279
0.000149304
0.000149304
0.000183279
0.000149305
0.000149305
0.000185926
0.00014666
0.000183279
0.000149305
0.000149305
0.00014666
0.000140603
0.0001014
0.000137967
0.000137968
0.000104046
0.000104047
0.000140603
0.000101401
0.000137967
0.000137967
0.000104047
0.000104046
0.000137968
0.000104048
0.000104046
0.000140602
0.000101399
0.000137968
0.000104046
0.000104046
0.000101399
9.53357e-05
5.61597e-05
9.27329e-05
9.27336e-05
5.87779e-05
5.87791e-05
9.53359e-05
5.61614e-05
9.27336e-05
9.27323e-05
5.87763e-05
5.87761e-05
9.2733e-05
5.87777e-05
5.87759e-05
9.53355e-05
5.61577e-05
9.27326e-05
5.87748e-05
5.87739e-05
5.61571e-05
5.00238e-05
1.48235e-05
4.75449e-05
4.75459e-05
1.71241e-05
1.71238e-05
5.0025e-05
1.48236e-05
4.75435e-05
4.75424e-05
1.71224e-05
1.71187e-05
4.75415e-05
1.71211e-05
1.71169e-05
5.00212e-05
1.48192e-05
4.75398e-05
1.7119e-05
1.71184e-05
1.48178e-05
1.08816e-05
1.12661e-05
1.12665e-05
1.08829e-05
1.12646e-05
1.12623e-05
1.08972e-05
1.08954e-05
1.08949e-05
1.12613e-05
1.0879e-05
1.12618e-05
0.00430049
0.00431025
0.00430505
0.00430505
0.00432742
0.00431421
0.0043428
0.00430826
0.00432742
0.00431422
0.00430826
0.0043428
0.00431878
0.00434654
0.00434654
0.00425585
0.00427496
0.00428418
0.00424787
0.00424869
0.00425151
0.00425583
0.00427494
0.00428417
0.00424785
0.00427868
0.00427869
0.00427869
0.00423524
0.00423524
0.00423524
0.00423524
0.00425335
0.00427917
0.00427909
0.00426217
0.0042822
0.00425226
0.00426305
0.00424879
0.00425151
0.00425336
0.00427909
0.00427919
0.00426217
0.00428219
0.00426304
0.00425226
0.00428505
0.00428504
0.0042566
0.00425186
0.00425186
0.00420873
0.00422838
0.00422985
0.00420712
0.00422749
0.00420646
0.00420873
0.00422838
0.00422985
0.00420711
0.00422335
0.00422335
0.00422335
0.00418573
0.00418573
0.00418573
0.00418573
0.00420754
0.00422851
0.00422334
0.0042116
0.00422736
0.00420787
0.00421134
0.00422749
0.00420646
0.00420754
0.00422334
0.00422851
0.0042116
0.00422735
0.00421134
0.00420786
0.00422952
0.00422952
0.004208
0.00420795
0.00420795
0.00415656
0.00417516
0.00417654
0.00415527
0.00417482
0.00415474
0.00415656
0.00417516
0.00417654
0.00415527
0.00417263
0.00417263
0.00417263
0.00413498
0.00413499
0.00413498
0.00413499
0.00415592
0.00417566
0.00417239
0.00415955
0.00417534
0.00415598
0.00415954
0.00417482
0.00415474
0.00415592
0.00417239
0.00417566
0.00415955
0.00417534
0.00415954
0.00415598
0.00417588
0.00417588
0.00415614
0.00415556
0.00415556
0.00410823
0.00412484
0.00412519
0.00410807
0.00412462
0.00410808
0.00410822
0.00412483
0.00412518
0.00410807
0.00412316
0.00412316
0.00412316
0.00408871
0.00408871
0.00408871
0.00408871
0.00410845
0.00412541
0.00412307
0.00411147
0.00412541
0.00410843
0.00411149
0.00412462
0.00410808
0.00410846
0.00412306
0.00412542
0.00411146
0.00412543
0.00411149
0.00410843
0.00412498
0.00412498
0.00410873
0.00410826
0.00410826
0.00406314
0.00408004
0.00408007
0.00406312
0.00408007
0.00406313
0.00406314
0.00408004
0.00408007
0.00406312
0.00407735
0.00407735
0.00407735
0.00404334
0.00404334
0.00404334
0.00404334
0.0040632
0.00408005
0.00407731
0.00406596
0.00408005
0.00406316
0.00406597
0.00408006
0.00406313
0.0040632
0.00407731
0.00408005
0.00406596
0.00408005
0.00406597
0.00406316
0.0040801
0.0040801
0.00406331
0.00406313
0.00406313
0.00401786
0.00403481
0.00403481
0.00401785
0.00403482
0.00401785
0.00401786
0.00403481
0.00403481
0.00401786
0.00403201
0.00403201
0.00403201
0.00399805
0.00399805
0.00399805
0.00399805
0.00401791
0.00403477
0.00403199
0.00402066
0.00403476
0.00401789
0.00402067
0.00403481
0.00401785
0.00401791
0.00403199
0.00403477
0.00402066
0.00403476
0.00402067
0.00401789
0.00403481
0.00403481