/*--------------------------------*- C++ -*----------------------------------*\
| =========                 |                                                 |
| \\      /  F ield         | OpenFOAM: The Open Source CFD Toolbox           |
|  \\    /   O peration     | Version:  2206                                  |
|   \\  /    A nd           | Website:  www.openfoam.com                      |
|    \\/     M anipulation  |                                                 |
\*---------------------------------------------------------------------------*/
FoamFile
{
    version     2.0;
    format      ascii;
    arch        "LSB;label=32;scalar=64";
    class       volScalarField;
    location    "15.5";
    object      Ux;
}
// * * * * * * * * * * * * * * * * * * * * * * * * * * * * * * * * * * * * * //

dimensions      [0 1 -1 0 0 0 0];

internalField   nonuniform List<scalar> 
171728
(
0.000107573
-0.000189675
0.000119637
-0.000238625
9.56977e-05
-0.00016333
9.96364e-05
-0.00020059
9.3567e-05
-0.000158981
9.58449e-05
-0.000199054
4.72858e-05
-6.23263e-05
3.80924e-05
-0.000101759
7.20845e-06
-9.23057e-06
6.76022e-06
-4.61304e-05
7.68134e-08
-9.04418e-07
9.22841e-07
-3.91926e-05
-4.75787e-07
-3.50498e-07
5.44985e-07
-3.8854e-05
-5.01182e-07
-3.35599e-07
5.3174e-07
-3.88431e-05
-5.0378e-07
-3.36601e-07
5.32119e-07
-3.88431e-05
-5.02489e-07
-3.3598e-07
5.31833e-07
-3.88435e-05
-4.99562e-07
-3.35845e-07
5.32313e-07
-3.88435e-05
-5.04176e-07
-3.38195e-07
5.31481e-07
-3.88431e-05
-5.0346e-07
-3.45076e-07
5.30907e-07
-3.88431e-05
-5.03921e-07
-3.41809e-07
5.3051e-07
-3.88431e-05
-5.06807e-07
-3.3519e-07
5.30146e-07
-3.88429e-05
-5.06679e-07
-3.363e-07
5.30334e-07
-3.8844e-05
-5.05227e-07
-3.37575e-07
5.30818e-07
-3.88432e-05
-5.04125e-07
-3.38075e-07
5.32021e-07
-3.88447e-05
-5.01857e-07
-3.37596e-07
5.32109e-07
-3.88446e-05
-4.96e-07
-3.34343e-07
5.32567e-07
-3.88445e-05
-4.92403e-07
-3.40805e-07
5.32223e-07
-3.88426e-05
-5.02652e-07
-3.36405e-07
5.30971e-07
-3.88423e-05
-5.04132e-07
-3.36214e-07
5.30551e-07
-3.88423e-05
-5.04699e-07
-3.36885e-07
5.31127e-07
-3.88429e-05
-5.04524e-07
-3.36789e-07
5.31452e-07
-3.88434e-05
-5.03731e-07
-3.37782e-07
5.32137e-07
-3.88447e-05
-5.04236e-07
-3.37104e-07
5.31307e-07
-3.88443e-05
-5.04465e-07
-3.36859e-07
5.31777e-07
-3.88437e-05
-5.04697e-07
-3.36202e-07
5.31076e-07
-3.88437e-05
-5.05631e-07
-3.35329e-07
5.30428e-07
-3.88426e-05
-5.04737e-07
-3.35921e-07
5.3099e-07
-3.8843e-05
-5.04866e-07
-3.36046e-07
5.3081e-07
-3.88435e-05
-5.04162e-07
-3.36742e-07
5.31741e-07
-3.88443e-05
-5.04117e-07
-3.37038e-07
5.31504e-07
-3.88446e-05
-5.04073e-07
-3.37338e-07
5.31887e-07
-3.88446e-05
-5.04641e-07
-3.36567e-07
5.3138e-07
-3.88439e-05
-5.05128e-07
-3.35964e-07
5.31014e-07
-3.88432e-05
-5.04935e-07
-3.35889e-07
5.31221e-07
-3.88428e-05
-5.05333e-07
-3.35225e-07
5.30507e-07
-3.88419e-05
-5.04853e-07
-3.3586e-07
5.29919e-07
-3.88403e-05
-4.98921e-07
-3.34215e-07
5.30529e-07
-3.88415e-05
-5.06423e-07
-3.37074e-07
5.31605e-07
-3.88452e-05
-5.04381e-07
-3.36334e-07
5.30985e-07
-3.88444e-05
-5.04043e-07
-3.36753e-07
5.31097e-07
-3.88443e-05
-5.04339e-07
-3.35752e-07
5.29553e-07
-3.88432e-05
-5.0414e-07
-3.35296e-07
5.30096e-07
-3.88426e-05
-5.04051e-07
-3.36075e-07
5.30136e-07
-3.88431e-05
-5.03981e-07
-3.36212e-07
5.30416e-07
-3.88434e-05
-5.02897e-07
-3.37748e-07
5.31297e-07
-3.88448e-05
-5.03232e-07
-3.37049e-07
5.31084e-07
-3.88449e-05
-5.03109e-07
-3.3769e-07
5.31235e-07
-3.88447e-05
-5.036e-07
-3.36778e-07
5.30472e-07
-3.88443e-05
-5.03668e-07
-3.35537e-07
5.30226e-07
-3.8843e-05
-5.02979e-07
-3.35767e-07
5.30143e-07
-3.88429e-05
-5.01562e-07
-3.35493e-07
5.30621e-07
-3.88426e-05
-5.02995e-07
-3.36597e-07
5.31053e-07
-3.88445e-05
-5.02293e-07
-3.38431e-07
5.31436e-07
-3.88469e-05
-5.01591e-07
-3.39773e-07
5.32283e-07
-3.88477e-05
-5.01795e-07
-3.38843e-07
5.32323e-07
-3.8847e-05
-5.01709e-07
-3.38235e-07
5.31735e-07
-3.88464e-05
-5.02502e-07
-3.37639e-07
5.3126e-07
-3.8846e-05
-5.03397e-07
-3.37041e-07
5.3091e-07
-3.88449e-05
-5.01989e-07
-3.37906e-07
5.31605e-07
-3.88465e-05
-5.02204e-07
-3.37692e-07
5.31265e-07
-3.88459e-05
-5.01488e-07
-3.39343e-07
5.3252e-07
-3.88472e-05
-5.0138e-07
-3.39394e-07
5.32525e-07
-3.88472e-05
-5.01511e-07
-3.38856e-07
5.32008e-07
-3.88468e-05
-5.01839e-07
-3.38024e-07
5.31847e-07
-3.88469e-05
-5.02565e-07
-3.37198e-07
5.32956e-07
-3.88471e-05
-5.02078e-07
-3.37616e-07
5.38636e-07
-3.88508e-05
-5.0191e-07
-3.37014e-07
5.34696e-07
-3.88489e-05
-5.01683e-07
-3.38749e-07
5.3244e-07
-3.88467e-05
-5.01818e-07
-3.38746e-07
5.31921e-07
-3.8847e-05
-5.0109e-07
-3.39266e-07
5.33041e-07
-3.88471e-05
-5.01633e-07
-3.39136e-07
5.32405e-07
-3.88475e-05
-5.02392e-07
-3.37666e-07
5.31536e-07
-3.88467e-05
-5.02423e-07
-3.37872e-07
5.31681e-07
-3.88467e-05
-5.03031e-07
-3.37092e-07
5.31128e-07
-3.88457e-05
-5.02507e-07
-3.38145e-07
5.31484e-07
-3.88466e-05
-5.02104e-07
-3.38111e-07
5.31842e-07
-3.88471e-05
-5.01303e-07
-3.39225e-07
5.32404e-07
-3.88478e-05
-5.01644e-07
-3.39156e-07
5.3222e-07
-3.88474e-05
-5.01663e-07
-3.39301e-07
5.32328e-07
-3.88475e-05
-5.0231e-07
-3.37838e-07
5.31383e-07
-3.88463e-05
-5.02388e-07
-3.37403e-07
5.31066e-07
-3.88463e-05
-5.02717e-07
-3.37689e-07
5.31315e-07
-3.88461e-05
-5.02603e-07
-3.37493e-07
5.3159e-07
-3.88461e-05
-5.01841e-07
-3.38648e-07
5.32454e-07
-3.88469e-05
-5.02103e-07
-3.3851e-07
5.32235e-07
-3.88473e-05
-5.1009e-07
-3.34303e-07
5.28938e-07
-3.8844e-05
-5.13398e-07
-4.03302e-07
5.77453e-07
-3.87458e-05
-4.93386e-07
-1.13939e-06
1.0016e-06
-3.77075e-05
-3.87801e-07
-2.60142e-06
2.16605e-06
-3.7031e-05
-5.78989e-06
-2.28272e-06
2.88524e-06
-2.59521e-05
-4.33084e-05
4.13102e-05
-3.46172e-05
4.92905e-05
0.000135636
0.000124387
-0.000124381
-0.000135633
0.000153468
0.000153442
9.12093e-05
-9.11992e-05
9.11818e-05
-9.11789e-05
-0.000153464
-0.000153451
0.000135628
0.000124336
-0.000124333
-0.000135636
0.00023867
0.000114501
0.000119677
-0.000119628
9.09653e-05
-9.09282e-05
-0.00023868
-0.000114458
0.000189712
0.000189648
0.000149128
0.000149161
-0.000189628
-0.000149094
-0.000149122
0.0002386
0.000114457
-0.000119616
9.09539e-05
-9.09339e-05
-0.000114455
0.00020067
0.000112219
9.96335e-05
-9.96078e-05
9.75945e-05
-9.76019e-05
-0.000200632
-0.00011221
0.000163362
0.000163376
0.000160871
0.000160908
-0.000163351
-0.000160866
-0.000160881
0.000200586
0.000112184
-9.96167e-05
9.75943e-05
-9.76005e-05
-0.0001122
0.000199111
3.58853e-05
9.58185e-05
-9.58239e-05
5.19031e-05
-5.1898e-05
-0.000199101
-3.58378e-05
0.000158997
0.000159034
8.78483e-05
8.78665e-05
-0.00015902
-8.78409e-05
-8.78609e-05
0.000199037
3.58855e-05
-9.58587e-05
5.18803e-05
-5.18701e-05
-3.5857e-05
0.000101814
-3.0272e-05
3.8113e-05
-3.81155e-05
1.13674e-05
-1.13754e-05
-0.000101791
3.02717e-05
6.23395e-05
6.23438e-05
1.61084e-05
1.61218e-05
-6.23293e-05
-1.61115e-05
-1.6115e-05
0.000101773
-3.02513e-05
-3.80817e-05
1.13492e-05
-1.13486e-05
3.02584e-05
4.61407e-05
-3.98238e-05
6.77625e-06
-6.78529e-06
1.38098e-06
-1.39527e-06
-4.61442e-05
3.98214e-05
9.2325e-06
9.24492e-06
1.53627e-06
1.5505e-06
-9.24219e-06
-1.5379e-06
-1.55285e-06
4.61189e-05
-3.97962e-05
-6.75914e-06
1.36795e-06
-1.3688e-06
3.97985e-05
3.91952e-05
-4.03425e-05
9.34667e-07
-9.4995e-07
5.78622e-07
-5.82308e-07
-3.92015e-05
4.0344e-05
9.04093e-07
9.15525e-07
3.74427e-07
3.89966e-07
-9.16318e-07
-3.73541e-07
-3.88642e-07
3.91796e-05
-4.03165e-05
-9.22697e-07
5.63426e-07
-5.63614e-07
4.03204e-05
3.88623e-05
-4.03575e-05
5.63651e-07
-5.59912e-07
5.54374e-07
-5.46921e-07
-3.88596e-05
4.03626e-05
3.54399e-07
3.66447e-07
3.37328e-07
3.52603e-07
-3.63526e-07
-3.34784e-07
-3.49629e-07
3.88431e-05
-4.03331e-05
-5.43052e-07
5.31218e-07
-5.29801e-07
4.03383e-05
3.8852e-05
-4.03578e-05
5.50086e-07
-5.47662e-07
5.49356e-07
-5.49556e-07
-3.88492e-05
4.0361e-05
3.39486e-07
3.51769e-07
3.37364e-07
3.52763e-07
-3.48198e-07
-3.35988e-07
-3.4956e-07
3.88329e-05
-4.03326e-05
-5.2891e-07
5.31014e-07
-5.29092e-07
4.03384e-05
3.88517e-05
-4.03578e-05
5.47959e-07
-5.48912e-07
5.49842e-07
-5.49007e-07
-3.88504e-05
4.03635e-05
3.40239e-07
3.5265e-07
3.37635e-07
3.53134e-07
-3.48688e-07
-3.35823e-07
-3.49676e-07
3.88336e-05
-4.03325e-05
-5.28829e-07
5.30923e-07
-5.29018e-07
4.03383e-05
3.88527e-05
-4.03542e-05
5.50835e-07
-5.47671e-07
5.60398e-07
-5.4864e-07
-3.88494e-05
4.03683e-05
3.40619e-07
3.53094e-07
3.38106e-07
3.53824e-07
-3.4864e-07
-3.35161e-07
-3.49912e-07
3.88337e-05
-4.0332e-05
-5.28811e-07
5.31077e-07
-5.29118e-07
4.0338e-05
3.88561e-05
-4.0356e-05
5.58329e-07
-5.47567e-07
5.49089e-07
-5.5029e-07
-3.88489e-05
4.03672e-05
3.40939e-07
3.53464e-07
3.37062e-07
3.5284e-07
-3.4881e-07
-3.36209e-07
-3.49648e-07
3.88342e-05
-4.03326e-05
-5.28839e-07
5.30594e-07
-5.28989e-07
4.03384e-05
3.88528e-05
-4.03584e-05
5.50305e-07
-5.49936e-07
5.46871e-07
-5.49525e-07
-3.885e-05
4.03641e-05
3.41084e-07
3.52398e-07
3.35418e-07
3.51726e-07
-3.48829e-07
-3.42798e-07
-3.50072e-07
3.88329e-05
-4.03336e-05
-5.28592e-07
5.30124e-07
-5.28185e-07
4.03383e-05
3.88505e-05
-4.03606e-05
5.46481e-07
-5.48443e-07
5.45155e-07
-5.4686e-07
-3.88533e-05
4.03611e-05
3.3745e-07
3.5099e-07
3.33749e-07
3.50599e-07
-3.49347e-07
-3.41479e-07
-3.50104e-07
3.88321e-05
-4.03345e-05
-5.27838e-07
5.29436e-07
-5.27936e-07
4.03381e-05
3.88496e-05
-4.03569e-05
5.46695e-07
-5.46412e-07
5.44455e-07
-5.4906e-07
-3.88554e-05
4.03643e-05
3.36819e-07
3.50128e-07
3.34454e-07
3.50428e-07
-3.48992e-07
-3.34733e-07
-3.49109e-07
3.88314e-05
-4.03349e-05
-5.27732e-07
5.29086e-07
-5.28462e-07
4.03389e-05
3.88506e-05
-4.03585e-05
5.43152e-07
-5.51435e-07
5.41962e-07
-5.59723e-07
-3.88543e-05
4.03605e-05
3.37555e-07
3.50231e-07
3.35242e-07
3.51239e-07
-3.48042e-07
-3.35919e-07
-3.50131e-07
3.88313e-05
-4.03342e-05
-5.28489e-07
5.29209e-07
-5.29719e-07
4.03379e-05
3.88495e-05
-4.03558e-05
5.41523e-07
-5.55414e-07
5.45109e-07
-5.51011e-07
-3.88547e-05
4.0361e-05
3.38517e-07
3.51144e-07
3.36611e-07
3.51705e-07
-3.49284e-07
-3.36017e-07
-3.49623e-07
3.88321e-05
-4.03336e-05
-5.29639e-07
5.29585e-07
-5.29273e-07
4.03382e-05
3.8851e-05
-4.03561e-05
5.43834e-07
-5.49994e-07
5.45119e-07
-5.49576e-07
-3.88525e-05
4.03624e-05
3.39795e-07
3.51793e-07
3.37797e-07
3.53312e-07
-3.48727e-07
-3.37169e-07
-3.50643e-07
3.88326e-05
-4.03325e-05
-5.28851e-07
5.30923e-07
-5.3002e-07
4.03375e-05
3.88518e-05
-4.03576e-05
5.43611e-07
-5.49415e-07
5.47671e-07
-5.56028e-07
-3.88515e-05
4.03616e-05
3.4053e-07
3.52819e-07
3.37146e-07
3.53245e-07
-3.49902e-07
-3.3708e-07
-3.50887e-07
3.88341e-05
-4.03325e-05
-5.29694e-07
5.30911e-07
-5.29393e-07
4.03377e-05
3.88533e-05
-4.03597e-05
5.50349e-07
-5.55675e-07
5.51099e-07
-5.44554e-07
-3.88564e-05
4.03674e-05
3.39535e-07
3.52983e-07
3.37263e-07
3.52821e-07
-3.50968e-07
-3.35738e-07
-3.55892e-07
3.88343e-05
-4.03327e-05
-5.28819e-07
5.31375e-07
-5.27796e-07
4.03368e-05
3.88554e-05
-4.03657e-05
5.49782e-07
-5.34948e-07
5.51613e-07
-5.48395e-07
-3.88386e-05
4.03557e-05
3.41249e-07
3.52226e-07
3.42395e-07
3.52795e-07
-3.54701e-07
-3.39269e-07
-3.48567e-07
3.88338e-05
-4.0333e-05
-5.26997e-07
5.31435e-07
-5.27597e-07
4.03389e-05
3.88518e-05
-4.03651e-05
5.55646e-07
-5.46353e-07
5.44354e-07
-5.49043e-07
-3.88542e-05
4.03659e-05
3.43943e-07
3.52378e-07
3.35385e-07
3.51448e-07
-3.47227e-07
-3.37549e-07
-3.48253e-07
3.8833e-05
-4.03337e-05
-5.27581e-07
5.30141e-07
-5.27936e-07
4.0339e-05
3.8854e-05
-4.03636e-05
5.45412e-07
-5.47319e-07
5.46225e-07
-5.49385e-07
-3.88471e-05
4.03627e-05
3.38043e-07
3.50631e-07
3.3505e-07
3.51047e-07
-3.46878e-07
-3.35267e-07
-3.4804e-07
3.88322e-05
-4.03336e-05
-5.27652e-07
5.2973e-07
-5.28424e-07
4.03392e-05
3.88556e-05
-4.03631e-05
5.46151e-07
-5.48952e-07
5.46382e-07
-5.50361e-07
-3.88495e-05
4.03616e-05
3.3853e-07
3.50718e-07
3.3561e-07
3.51567e-07
-3.47088e-07
-3.35856e-07
-3.49031e-07
3.88322e-05
-4.03334e-05
-5.27944e-07
5.30008e-07
-5.28663e-07
4.03388e-05
3.88563e-05
-4.03625e-05
5.46885e-07
-5.50241e-07
5.47139e-07
-5.50618e-07
-3.88506e-05
4.03613e-05
3.39236e-07
3.51515e-07
3.36225e-07
3.51984e-07
-3.48309e-07
-3.35775e-07
-3.48726e-07
3.88327e-05
-4.03332e-05
-5.28752e-07
5.30159e-07
-5.28854e-07
4.03381e-05
3.88573e-05
-4.03617e-05
5.47858e-07
-5.50574e-07
5.48426e-07
-5.50817e-07
-3.88511e-05
4.03612e-05
3.39581e-07
3.51803e-07
3.37133e-07
3.5298e-07
-3.48039e-07
-3.3665e-07
-3.50312e-07
3.8833e-05
-4.03324e-05
-5.28905e-07
5.30815e-07
-5.29963e-07
4.03369e-05
3.88579e-05
-4.0362e-05
5.4885e-07
-5.50803e-07
5.48122e-07
-5.50819e-07
-3.8851e-05
4.03606e-05
3.40482e-07
3.52908e-07
3.36598e-07
3.52557e-07
-3.49152e-07
-3.36624e-07
-3.49657e-07
3.88336e-05
-4.03327e-05
-5.29705e-07
5.30614e-07
-5.29928e-07
4.0337e-05
3.88574e-05
-4.03621e-05
5.48328e-07
-5.50427e-07
5.47672e-07
-5.5042e-07
-3.88513e-05
4.0361e-05
3.39706e-07
3.51936e-07
3.3646e-07
3.52446e-07
-3.48244e-07
-3.36062e-07
-3.48649e-07
3.88329e-05
-4.03326e-05
-5.29406e-07
5.30582e-07
-5.29118e-07
4.03376e-05
3.88572e-05
-4.0363e-05
5.47983e-07
-5.50507e-07
5.47704e-07
-5.49337e-07
-3.88509e-05
4.0362e-05
3.3962e-07
3.52156e-07
3.35734e-07
3.51441e-07
-3.47782e-07
-3.35344e-07
-3.48621e-07
3.88333e-05
-4.03337e-05
-5.28872e-07
5.29951e-07
-5.2917e-07
4.03378e-05
3.88565e-05
-4.03635e-05
5.48059e-07
-5.50422e-07
5.46427e-07
-5.48003e-07
-3.885e-05
4.03625e-05
3.39033e-07
3.51213e-07
3.3479e-07
3.50676e-07
-3.47647e-07
-3.34644e-07
-3.47477e-07
3.88321e-05
-4.0334e-05
-5.29e-07
5.29399e-07
-5.28276e-07
4.03385e-05
3.88557e-05
-4.03631e-05
5.46771e-07
-5.50778e-07
5.47454e-07
-5.47015e-07
-3.88496e-05
4.03616e-05
3.3778e-07
3.5021e-07
3.35396e-07
3.51195e-07
-3.46369e-07
-3.35199e-07
-3.47853e-07
3.88316e-05
-4.03337e-05
-5.27924e-07
5.29792e-07
-5.28597e-07
4.03382e-05
3.88564e-05
-4.0363e-05
5.4804e-07
-5.54537e-07
5.47274e-07
-5.48231e-07
-3.88512e-05
4.0363e-05
3.39135e-07
3.51214e-07
3.35344e-07
3.5119e-07
-3.46869e-07
-3.34918e-07
-3.48007e-07
3.88321e-05
-4.03336e-05
-5.28196e-07
5.29728e-07
-5.28833e-07
4.03378e-05
3.88562e-05
-4.03618e-05
5.47608e-07
-5.51373e-07
5.48039e-07
-5.51912e-07
-3.88506e-05
4.03627e-05
3.38574e-07
3.51022e-07
3.36653e-07
3.52463e-07
-3.47364e-07
-3.36029e-07
-3.49325e-07
3.88321e-05
-4.03323e-05
-5.28678e-07
5.30802e-07
-5.29723e-07
4.03369e-05
3.88576e-05
-4.03623e-05
5.48516e-07
-5.51553e-07
5.47726e-07
-5.52237e-07
-3.88504e-05
4.03623e-05
3.399e-07
3.52246e-07
3.36377e-07
3.52325e-07
-3.48159e-07
-3.36334e-07
-3.4946e-07
3.88334e-05
-4.03327e-05
-5.29087e-07
5.3061e-07
-5.29921e-07
4.03367e-05
3.88571e-05
-4.03614e-05
5.48301e-07
-5.52084e-07
5.48185e-07
-5.52445e-07
-3.8851e-05
4.03626e-05
3.39913e-07
3.52293e-07
3.36974e-07
3.52796e-07
-3.48386e-07
-3.36374e-07
-3.49689e-07
3.8833e-05
-4.03321e-05
-5.29363e-07
5.30904e-07
-5.29811e-07
4.03367e-05
3.88578e-05
-4.03621e-05
5.48519e-07
-5.52225e-07
5.47811e-07
-5.52464e-07
-3.88506e-05
4.03624e-05
3.4015e-07
3.52602e-07
3.36581e-07
3.52481e-07
-3.48881e-07
-3.36249e-07
-3.49183e-07
3.88335e-05
-4.03327e-05
-5.29544e-07
5.30705e-07
-5.297e-07
4.03373e-05
3.8857e-05
-4.03631e-05
5.47753e-07
-5.51852e-07
5.47302e-07
-5.51292e-07
-3.88507e-05
4.03643e-05
3.3923e-07
3.5173e-07
3.35332e-07
3.51182e-07
-3.47809e-07
-3.35025e-07
-3.48317e-07
3.88329e-05
-4.03336e-05
-5.29131e-07
5.30029e-07
-5.29036e-07
4.03383e-05
3.88563e-05
-4.03629e-05
5.47631e-07
-5.50973e-07
5.47335e-07
-5.51722e-07
-3.8849e-05
4.03634e-05
3.38544e-07
3.50754e-07
3.35694e-07
3.51399e-07
-3.47646e-07
-3.35349e-07
-3.48038e-07
3.88322e-05
-4.03334e-05
-5.29044e-07
5.30319e-07
-5.28985e-07
4.03383e-05
3.88563e-05
-4.03634e-05
5.4776e-07
-5.51206e-07
5.46187e-07
-5.51188e-07
-3.88498e-05
4.03646e-05
3.38525e-07
3.50958e-07
3.34753e-07
3.50302e-07
-3.47024e-07
-3.33536e-07
-3.46561e-07
3.88324e-05
-4.03345e-05
-5.28462e-07
5.29253e-07
-5.2799e-07
4.03391e-05
3.88556e-05
-4.03632e-05
5.47319e-07
-5.5001e-07
5.44742e-07
-5.5329e-07
-3.88483e-05
4.03643e-05
3.38261e-07
3.50614e-07
3.36979e-07
3.52131e-07
-3.46444e-07
-3.35663e-07
-3.51644e-07
3.88313e-05
-4.03345e-05
-5.27767e-07
5.29244e-07
-5.28529e-07
4.03404e-05
3.88537e-05
-4.03535e-05
5.4604e-07
-5.49824e-07
5.45086e-07
-5.50212e-07
-3.8848e-05
4.03641e-05
3.41135e-07
3.52345e-07
3.43073e-07
3.53186e-07
-3.53951e-07
-3.32471e-07
-3.54971e-07
3.88314e-05
-4.03341e-05
-5.26175e-07
5.28853e-07
-5.24628e-07
4.03407e-05
3.88622e-05
-4.03641e-05
5.52403e-07
-5.51421e-07
5.43852e-07
-5.56931e-07
-3.88513e-05
4.03579e-05
3.4761e-07
3.52992e-07
3.36986e-07
3.53246e-07
-3.50855e-07
-3.36843e-07
-3.50899e-07
3.8832e-05
-4.0333e-05
-5.26479e-07
5.30784e-07
-5.3001e-07
4.03366e-05
3.88504e-05
-4.03611e-05
5.43635e-07
-5.59039e-07
5.45663e-07
-5.48331e-07
-3.88578e-05
4.03624e-05
3.38542e-07
3.53189e-07
3.35923e-07
3.5275e-07
-3.50468e-07
-3.3531e-07
-3.49915e-07
3.88331e-05
-4.03336e-05
-5.29745e-07
5.30322e-07
-5.29897e-07
4.0337e-05
3.88528e-05
-4.03593e-05
5.47336e-07
-5.49042e-07
5.47153e-07
-5.49343e-07
-3.88508e-05
4.03635e-05
3.39945e-07
3.52202e-07
3.36966e-07
3.5233e-07
-3.48603e-07
-3.35475e-07
-3.49383e-07
3.88323e-05
-4.03335e-05
-5.29183e-07
5.30621e-07
-5.29964e-07
4.0337e-05
3.88536e-05
-4.03598e-05
5.4628e-07
-5.49461e-07
5.45832e-07
-5.48948e-07
-3.88501e-05
4.03635e-05
3.39845e-07
3.52128e-07
3.36943e-07
3.5147e-07
-3.48369e-07
-3.35326e-07
-3.48104e-07
3.88323e-05
-4.03344e-05
-5.29352e-07
5.29878e-07
-5.29001e-07
4.0338e-05
3.88532e-05
-4.03599e-05
5.45162e-07
-5.48471e-07
5.45527e-07
-5.48073e-07
-3.88495e-05
4.03649e-05
3.39555e-07
3.5102e-07
3.36476e-07
3.51258e-07
-3.47016e-07
-3.34295e-07
-3.47231e-07
3.88314e-05
-4.03345e-05
-5.28152e-07
5.29958e-07
-5.28412e-07
4.03389e-05
3.8853e-05
-4.03598e-05
5.44962e-07
-5.47925e-07
5.45515e-07
-5.48636e-07
-3.88484e-05
4.03636e-05
3.39267e-07
3.51112e-07
3.3688e-07
3.51588e-07
-3.46731e-07
-3.35431e-07
-3.48088e-07
3.88316e-05
-4.03342e-05
-5.28112e-07
5.30218e-07
-5.28817e-07
4.03383e-05
3.88531e-05
-4.036e-05
5.45044e-07
-5.48386e-07
5.45286e-07
-5.48259e-07
-3.88496e-05
4.03646e-05
3.39534e-07
3.51326e-07
3.36246e-07
3.51334e-07
-3.47036e-07
-3.34956e-07
-3.47887e-07
3.88318e-05
-4.03342e-05
-5.28203e-07
5.30118e-07
-5.29013e-07
4.03381e-05
3.88531e-05
-4.03584e-05
5.45268e-07
-5.48483e-07
5.46705e-07
-5.49501e-07
-3.88489e-05
4.03629e-05
3.39727e-07
3.51646e-07
3.38198e-07
3.52919e-07
-3.47285e-07
-3.36544e-07
-3.4919e-07
3.88318e-05
-4.03331e-05
-5.28549e-07
5.31095e-07
-5.30009e-07
4.03366e-05
3.88545e-05
-4.03586e-05
5.46331e-07
-5.49506e-07
5.46485e-07
-5.49455e-07
-3.88504e-05
4.0363e-05
3.41168e-07
3.53012e-07
3.37861e-07
3.52752e-07
-3.4884e-07
-3.36589e-07
-3.49516e-07
3.88328e-05
-4.0333e-05
-5.2984e-07
5.31204e-07
-5.30415e-07
4.03364e-05
3.88541e-05
-4.03585e-05
5.45808e-07
-5.4902e-07
5.46479e-07
-5.49582e-07
-3.88501e-05
4.03624e-05
3.40453e-07
3.52345e-07
3.37803e-07
3.52751e-07
-3.48318e-07
-3.36783e-07
-3.49567e-07
3.88327e-05
-4.03329e-05
-5.29703e-07
5.31232e-07
-5.30306e-07
4.03367e-05
3.88545e-05
-4.0359e-05
5.46254e-07
-5.49618e-07
5.46044e-07
-5.49321e-07
-3.88508e-05
4.03628e-05
3.40948e-07
3.52835e-07
3.37473e-07
3.52496e-07
-3.48663e-07
-3.36541e-07
-3.49158e-07
3.88329e-05
-4.03333e-05
-5.29761e-07
5.30759e-07
-5.30147e-07
4.03367e-05
3.88536e-05
-4.03594e-05
5.45488e-07
-5.49264e-07
5.45827e-07
-5.48268e-07
-3.88503e-05
4.03643e-05
3.40145e-07
3.52004e-07
3.36866e-07
3.51416e-07
-3.4743e-07
-3.34911e-07
-3.47248e-07
3.88321e-05
-4.03343e-05
-5.29006e-07
5.30123e-07
-5.29004e-07
4.03382e-05
3.88534e-05
-4.03585e-05
5.45502e-07
-5.47687e-07
5.46787e-07
-5.47507e-07
-3.8849e-05
4.03641e-05
3.39624e-07
3.51191e-07
3.37305e-07
3.5128e-07
-3.4629e-07
-3.35003e-07
-3.47235e-07
3.88314e-05
-4.0334e-05
-5.28371e-07
5.30278e-07
-5.28894e-07
4.03381e-05
3.88539e-05
-4.03574e-05
5.46479e-07
-5.45892e-07
5.48469e-07
-5.3641e-07
-3.88484e-05
4.03683e-05
3.39934e-07
3.50705e-07
3.37645e-07
3.51098e-07
-3.46107e-07
-3.34253e-07
-3.46603e-07
3.88314e-05
-4.03339e-05
-5.28217e-07
5.30353e-07
-5.28394e-07
4.03385e-05
3.88548e-05
-4.03585e-05
5.48245e-07
-5.38086e-07
5.46844e-07
-5.48042e-07
-3.88441e-05
4.03649e-05
3.40987e-07
3.51192e-07
3.37961e-07
3.51901e-07
-3.45722e-07
-3.36577e-07
-3.48787e-07
3.88317e-05
-4.03334e-05
-5.27744e-07
5.3087e-07
-5.28951e-07
4.03373e-05
3.88543e-05
-4.03589e-05
5.46084e-07
-5.46083e-07
5.46763e-07
-5.48089e-07
-3.88486e-05
4.03629e-05
3.4095e-07
3.51747e-07
3.37538e-07
3.50694e-07
-3.49581e-07
-3.37702e-07
-3.56496e-07
3.88323e-05
-4.03342e-05
-5.28328e-07
5.31124e-07
-5.2849e-07
4.03346e-05
3.88538e-05
-4.0359e-05
5.46389e-07
-5.47967e-07
5.46964e-07
-5.48828e-07
-3.88506e-05
4.03613e-05
3.40156e-07
3.50051e-07
3.37315e-07
3.50543e-07
-3.56215e-07
-3.3905e-07
-3.57142e-07
3.88316e-05
-4.03338e-05
-5.27608e-07
5.32088e-07
-5.2941e-07
4.03336e-05
3.88537e-05
-4.03592e-05
5.46496e-07
-5.48804e-07
5.46769e-07
-5.48906e-07
-3.8852e-05
4.03618e-05
3.40305e-07
3.5043e-07
3.37161e-07
3.5057e-07
-3.56831e-07
-3.38552e-07
-3.56471e-07
3.8832e-05
-4.03337e-05
-5.2864e-07
5.32293e-07
-5.2923e-07
4.03342e-05
3.88534e-05
-4.03595e-05
5.46167e-07
-5.48445e-07
5.46731e-07
-5.48316e-07
-3.88512e-05
4.03626e-05
3.39825e-07
3.5019e-07
3.36802e-07
3.49695e-07
-3.55877e-07
-3.37732e-07
-3.55528e-07
3.88321e-05
-4.03346e-05
-5.28392e-07
5.3164e-07
-5.28958e-07
4.0335e-05
3.88534e-05
-4.03601e-05
5.4637e-07
-5.48029e-07
5.46179e-07
-5.4825e-07
-3.88506e-05
4.03627e-05
3.39684e-07
3.49407e-07
3.36237e-07
3.49469e-07
-3.55152e-07
-3.37424e-07
-3.55467e-07
3.88311e-05
-4.03349e-05
-5.28221e-07
5.31435e-07
-5.28935e-07
4.03351e-05
3.88524e-05
-4.03614e-05
5.45368e-07
-5.47663e-07
5.45064e-07
-5.47238e-07
-3.88502e-05
4.03637e-05
3.38713e-07
3.48772e-07
3.34542e-07
3.47989e-07
-3.54842e-07
-3.36088e-07
-3.54008e-07
3.88307e-05
-4.03357e-05
-5.28087e-07
5.30555e-07
-5.27877e-07
4.03363e-05
3.88514e-05
-4.03598e-05
5.44841e-07
-5.47257e-07
5.46279e-07
-5.48316e-07
-3.88495e-05
4.03624e-05
3.37718e-07
3.481e-07
3.36507e-07
3.49786e-07
-3.53727e-07
-3.37508e-07
-3.55533e-07
3.88301e-05
-4.03344e-05
-5.26974e-07
5.31707e-07
-5.28798e-07
4.03349e-05
3.88531e-05
-4.03602e-05
5.45921e-07
-5.47988e-07
5.46062e-07
-5.47946e-07
-3.88507e-05
4.03629e-05
3.39232e-07
3.49351e-07
3.36196e-07
3.49301e-07
-3.54898e-07
-3.37011e-07
-3.54942e-07
3.88313e-05
-4.0335e-05
-5.28019e-07
5.31122e-07
-5.28632e-07
4.03354e-05
3.88525e-05
-4.03592e-05
5.45662e-07
-5.47776e-07
5.46597e-07
-5.48776e-07
-3.88502e-05
4.03619e-05
3.3874e-07
3.49093e-07
3.37411e-07
3.50206e-07
-3.54753e-07
-3.38343e-07
-3.56372e-07
3.88308e-05
-4.03338e-05
-5.28048e-07
5.32016e-07
-5.29657e-07
4.03343e-05
3.88538e-05
-4.03592e-05
5.4651e-07
-5.48717e-07
5.46896e-07
-5.49198e-07
-3.88513e-05
4.03617e-05
3.39459e-07
3.50348e-07
3.38007e-07
3.50651e-07
-3.56212e-07
-3.38881e-07
-3.56638e-07
3.88322e-05
-4.03336e-05
-5.29031e-07
5.32449e-07
-5.30154e-07
4.03341e-05
3.88534e-05
-4.03591e-05
5.46502e-07
-5.4898e-07
5.46876e-07
-5.48667e-07
-3.88515e-05
4.03623e-05
3.39411e-07
3.50245e-07
3.37883e-07
3.50165e-07
-3.56168e-07
-3.38155e-07
-3.55915e-07
3.88321e-05
-4.0334e-05
-5.29622e-07
5.31969e-07
-5.29772e-07
4.03344e-05
3.88534e-05
-4.03595e-05
5.463e-07
-5.4837e-07
5.4664e-07
-5.48771e-07
-3.88506e-05
4.03619e-05
3.39273e-07
3.49754e-07
3.3746e-07
3.5004e-07
-3.55646e-07
-3.38066e-07
-3.55898e-07
3.88316e-05
-4.03341e-05
-5.29029e-07
5.32176e-07
-5.30021e-07
4.03345e-05
3.88528e-05
-4.03608e-05
5.45885e-07
-5.48044e-07
5.45374e-07
-5.47645e-07
-3.88507e-05
4.03635e-05
3.38534e-07
3.49675e-07
3.35836e-07
3.49619e-07
-3.55181e-07
-3.36468e-07
-3.55504e-07
3.88317e-05
-4.03335e-05
-5.28775e-07
5.31828e-07
-5.29978e-07
4.03339e-05
3.88513e-05
-4.03603e-05
5.45039e-07
-5.47574e-07
5.45604e-07
-5.48168e-07
-3.88491e-05
4.03622e-05
3.37398e-07
3.49904e-07
3.36037e-07
3.52584e-07
-3.55616e-07
-3.37179e-07
-3.58461e-07
3.8832e-05
-4.03281e-05
-5.30189e-07
5.3711e-07
-5.34948e-07
4.03287e-05
3.88515e-05
-4.03603e-05
5.45074e-07
-5.47849e-07
5.45786e-07
-5.4732e-07
-3.885e-05
4.03639e-05
3.37428e-07
3.52642e-07
3.35928e-07
3.50707e-07
-3.58617e-07
-3.35862e-07
-3.56364e-07
3.88357e-05
-4.03318e-05
-5.34899e-07
5.36757e-07
-5.3404e-07
4.03316e-05
3.8852e-05
-4.03596e-05
5.45352e-07
-5.47353e-07
5.46243e-07
-5.487e-07
-3.88488e-05
4.03618e-05
3.37404e-07
3.50003e-07
3.36844e-07
3.50038e-07
-3.55644e-07
-3.38078e-07
-3.55892e-07
3.88333e-05
-4.03338e-05
-5.31916e-07
5.3223e-07
-5.29756e-07
4.03345e-05
3.8853e-05
-4.03594e-05
5.4603e-07
-5.48372e-07
5.46621e-07
-5.48377e-07
-3.88511e-05
4.03627e-05
3.38823e-07
3.50019e-07
3.37498e-07
3.50052e-07
-3.55804e-07
-3.37885e-07
-3.56181e-07
3.88318e-05
-4.03341e-05
-5.29704e-07
5.31864e-07
-5.30021e-07
4.03341e-05
3.8853e-05
-4.03589e-05
5.45998e-07
-5.48401e-07
5.47061e-07
-5.4893e-07
-3.88504e-05
4.03619e-05
3.38836e-07
3.49635e-07
3.38247e-07
3.50754e-07
-3.55891e-07
-3.38497e-07
-3.56358e-07
3.88314e-05
-4.03333e-05
-5.2944e-07
5.32591e-07
-5.30197e-07
4.03338e-05
3.88538e-05
-4.03591e-05
5.4667e-07
-5.48767e-07
5.46942e-07
-5.49388e-07
-3.88511e-05
4.03612e-05
3.39688e-07
3.50749e-07
3.37969e-07
3.50798e-07
-3.55654e-07
-3.38906e-07
-3.56329e-07
3.88325e-05
-4.03333e-05
-5.29275e-07
5.3272e-07
-5.30495e-07
4.03335e-05
3.88533e-05
-4.03601e-05
5.46227e-07
-5.4889e-07
5.46111e-07
-5.48086e-07
-3.88515e-05
4.03626e-05
3.39184e-07
3.50191e-07
3.36917e-07
3.49136e-07
-3.56027e-07
-3.3741e-07
-3.55384e-07
3.8832e-05
-4.03348e-05
-5.29816e-07
5.31444e-07
-5.30155e-07
4.03342e-05
3.88524e-05
-4.03601e-05
5.45684e-07
-5.47692e-07
5.46225e-07
-5.48035e-07
-3.885e-05
4.03627e-05
3.38278e-07
3.48818e-07
3.36807e-07
3.49105e-07
-3.54447e-07
-3.37222e-07
-3.55261e-07
3.88307e-05
-4.03347e-05
-5.28958e-07
5.31494e-07
-5.29947e-07
4.03345e-05
3.88524e-05
-4.03608e-05
5.45657e-07
-5.47824e-07
5.45585e-07
-5.4787e-07
-3.88502e-05
4.03629e-05
3.38313e-07
3.49116e-07
3.3615e-07
3.48787e-07
-3.54566e-07
-3.36499e-07
-3.53885e-07
3.88308e-05
-4.03349e-05
-5.29012e-07
5.31185e-07
-5.29117e-07
4.03352e-05
3.88519e-05
-4.03605e-05
5.45052e-07
-5.47492e-07
5.45832e-07
-5.47937e-07
-3.88499e-05
4.0363e-05
3.37371e-07
3.48304e-07
3.36493e-07
3.48882e-07
-3.53741e-07
-3.37406e-07
-3.5519e-07
3.88305e-05
-4.03347e-05
-5.28467e-07
5.31281e-07
-5.29901e-07
4.03344e-05
3.88521e-05
-4.03597e-05
5.45442e-07
-5.4782e-07
5.46304e-07
-5.47932e-07
-3.88501e-05
4.0363e-05
3.38051e-07
3.48736e-07
3.36879e-07
3.49319e-07
-3.54623e-07
-3.3696e-07
-3.55243e-07
3.88308e-05
-4.03342e-05
-5.28947e-07
5.3163e-07
-5.30126e-07
4.03341e-05
3.8853e-05
-4.03591e-05
5.46046e-07
-5.48018e-07
5.47022e-07
-5.49078e-07
-3.88499e-05
4.03614e-05
3.38687e-07
3.49416e-07
3.38111e-07
3.50482e-07
-3.5504e-07
-3.38648e-07
-3.5629e-07
3.88312e-05
-4.03335e-05
-5.29367e-07
5.32332e-07
-5.30719e-07
4.03333e-05
3.88536e-05
-4.03594e-05
5.46597e-07
-5.48737e-07
5.46614e-07
-5.48865e-07
-3.88513e-05
4.03616e-05
3.39717e-07
3.50207e-07
3.37831e-07
3.50202e-07
-3.55899e-07
-3.3857e-07
-3.56172e-07
3.8832e-05
-4.03336e-05
-5.29885e-07
5.32173e-07
-5.30468e-07
4.03336e-05
3.88531e-05
-4.03592e-05
5.46185e-07
-5.48573e-07
5.46727e-07
-5.49061e-07
-3.88511e-05
4.03615e-05
3.39291e-07
3.49885e-07
3.37794e-07
3.50341e-07
-3.5568e-07
-3.38634e-07
-3.56358e-07
3.88317e-05
-4.03335e-05
-5.29597e-07
5.3229e-07
-5.30641e-07
4.03334e-05
3.88532e-05
-4.03598e-05
5.46293e-07
-5.48818e-07
5.46323e-07
-5.48047e-07
-3.88513e-05
4.03631e-05
3.39243e-07
3.50012e-07
3.37083e-07
3.49517e-07
-3.55914e-07
-3.37401e-07
-3.55168e-07
3.88318e-05
-4.03343e-05
-5.30014e-07
5.31639e-07
-5.29806e-07
4.03345e-05
3.88525e-05
-4.03602e-05
5.45571e-07
-5.47645e-07
5.45916e-07
-5.47981e-07
-3.88496e-05
4.03625e-05
3.38284e-07
3.48961e-07
3.36521e-07
3.48796e-07
-3.544e-07
-3.37132e-07
-3.54687e-07
3.8831e-05
-4.03348e-05
-5.28616e-07
5.31266e-07
-5.29551e-07
4.03347e-05
3.88522e-05
-4.03605e-05
5.45511e-07
-5.47569e-07
5.45918e-07
-5.47896e-07
-3.88501e-05
4.03628e-05
3.37856e-07
3.48587e-07
3.3634e-07
3.48612e-07
-3.5415e-07
-3.37088e-07
-3.54569e-07
3.88304e-05
-4.03347e-05
-5.28619e-07
5.31212e-07
-5.29368e-07
4.03349e-05
3.8852e-05
-4.03604e-05
5.4533e-07
-5.47545e-07
5.45591e-07
-5.47769e-07
-3.88499e-05
4.03629e-05
3.3761e-07
3.48281e-07
3.36218e-07
3.48787e-07
-3.54291e-07
-3.36761e-07
-3.54598e-07
3.88304e-05
-4.03349e-05
-5.2878e-07
5.3095e-07
-5.29411e-07
4.03349e-05
3.8852e-05
-4.03596e-05
5.45294e-07
-5.47751e-07
5.46356e-07
-5.48342e-07
-3.88499e-05
4.03622e-05
3.3789e-07
3.48835e-07
3.37092e-07
3.49453e-07
-3.54278e-07
-3.37773e-07
-3.55233e-07
3.88296e-05
-4.03344e-05
-5.28754e-07
5.3153e-07
-5.29911e-07
4.03341e-05
3.88529e-05
-4.03591e-05
5.46105e-07
-5.48323e-07
5.47073e-07
-5.49119e-07
-3.88507e-05
4.03616e-05
3.38698e-07
3.49574e-07
3.38067e-07
3.50651e-07
-3.55219e-07
-3.38649e-07
-3.56387e-07
3.88302e-05
-4.03339e-05
-5.29428e-07
5.32297e-07
-5.30683e-07
4.03335e-05
3.88533e-05
-4.0357e-05
5.45932e-07
-5.48047e-07
5.49434e-07
-5.51948e-07
-3.88509e-05
4.03595e-05
3.38637e-07
3.49478e-07
3.4136e-07
3.53878e-07
-3.55272e-07
-3.41861e-07
-3.59982e-07
3.88303e-05
-4.03318e-05
-5.29242e-07
5.34487e-07
-5.33141e-07
4.03315e-05
3.885e-05
-4.03152e-05
5.42535e-07
-5.44798e-07
5.28242e-07
-5.31831e-07
-3.88477e-05
4.03181e-05
3.34443e-07
3.4549e-07
3.20316e-07
3.33371e-07
-3.51017e-07
-3.2158e-07
-3.39109e-07
3.88272e-05
-4.02914e-05
-5.25981e-07
5.13637e-07
-5.13021e-07
4.02902e-05
3.87515e-05
-3.97164e-05
5.90548e-07
-5.92584e-07
1.98141e-07
-2.05131e-07
-3.87501e-05
3.97201e-05
4.04201e-07
4.14736e-07
-1.59716e-07
-1.42803e-07
-4.19673e-07
1.5728e-07
1.4254e-07
3.87293e-05
-3.96938e-05
-5.74566e-07
1.84879e-07
-1.85719e-07
3.96918e-05
3.77166e-05
-3.88409e-05
1.01351e-06
-1.01352e-06
-7.16592e-07
7.08959e-07
-3.77145e-05
3.8841e-05
1.14401e-06
1.14956e-06
-1.40463e-06
-1.38627e-06
-1.15375e-06
1.39571e-06
1.37696e-06
3.76977e-05
-3.88158e-05
-9.98046e-07
-7.26994e-07
7.17627e-07
3.88046e-05
3.70296e-05
-3.35724e-05
2.17326e-06
-2.1814e-06
-4.89509e-06
4.87326e-06
-3.70344e-05
3.3536e-05
2.5936e-06
2.60425e-06
-6.6362e-06
-6.61781e-06
-2.61281e-06
6.60115e-06
6.60346e-06
3.70255e-05
-3.35552e-05