/*--------------------------------*- C++ -*----------------------------------*\
| =========                 |                                                 |
| \\      /  F ield         | OpenFOAM: The Open Source CFD Toolbox           |
|  \\    /   O peration     | Version:  2206                                  |
|   \\  /    A nd           | Website:  www.openfoam.com                      |
|    \\/     M anipulation  |                                                 |
\*---------------------------------------------------------------------------*/
FoamFile
{
    version     2.0;
    format      ascii;
    arch        "LSB;label=32;scalar=64";
    class       volScalarField;
    location    "15.5";
    object      Uy;
}
// * * * * * * * * * * * * * * * * * * * * * * * * * * * * * * * * * * * * * //

dimensions      [0 1 -1 0 0 0 0];

internalField   nonuniform List<scalar> 
171728
(
0.000107504
0.000119558
-0.000189668
-0.000238641
9.56507e-05
9.96308e-05
-0.000163323
-0.000200635
9.35635e-05
9.58587e-05
-0.000158996
-0.000199096
4.72545e-05
3.80655e-05
-6.23299e-05
-0.000101759
7.1997e-06
6.75795e-06
-9.2293e-06
-4.61481e-05
8.36644e-08
9.33743e-07
-9.03832e-07
-3.92057e-05
-4.7017e-07
5.46958e-07
-3.52312e-07
-3.88689e-05
-4.97704e-07
5.34775e-07
-3.37214e-07
-3.88589e-05
-5.00801e-07
5.34116e-07
-3.38278e-07
-3.88594e-05
-4.98506e-07
5.34411e-07
-3.37634e-07
-3.88598e-05
-4.93674e-07
5.35393e-07
-3.37758e-07
-3.88599e-05
-5.01245e-07
5.33601e-07
-3.37975e-07
-3.88595e-05
-5.02889e-07
5.31425e-07
-3.3684e-07
-3.88586e-05
-5.03581e-07
5.30142e-07
-3.35934e-07
-3.88577e-05
-5.01682e-07
5.36123e-07
-3.36077e-07
-3.88571e-05
-4.98856e-07
5.39033e-07
-3.37285e-07
-3.88579e-05
-5.00244e-07
5.3627e-07
-3.37296e-07
-3.88585e-05
-4.9767e-07
5.3896e-07
-3.37946e-07
-3.88594e-05
-4.89597e-07
5.50943e-07
-3.36114e-07
-3.88578e-05
-4.93424e-07
5.24175e-07
-3.35155e-07
-3.88577e-05
-4.96076e-07
5.37218e-07
-3.36198e-07
-3.88584e-05
-5.03233e-07
5.31704e-07
-3.35949e-07
-3.8858e-05
-5.02543e-07
5.31229e-07
-3.37034e-07
-3.88588e-05
-5.01972e-07
5.32042e-07
-3.38288e-07
-3.88593e-05
-5.01433e-07
5.32746e-07
-3.38148e-07
-3.88595e-05
-5.00476e-07
5.3304e-07
-3.39584e-07
-3.88606e-05
-5.00865e-07
5.32747e-07
-3.38519e-07
-3.88602e-05
-5.01249e-07
5.32563e-07
-3.38604e-07
-3.88594e-05
-5.01417e-07
5.32065e-07
-3.37857e-07
-3.88594e-05
-5.02428e-07
5.31638e-07
-3.37029e-07
-3.88584e-05
-5.0151e-07
5.33249e-07
-3.37596e-07
-3.88587e-05
-5.01571e-07
5.32307e-07
-3.37603e-07
-3.88593e-05
-5.00934e-07
5.32404e-07
-3.38613e-07
-3.88602e-05
-5.00774e-07
5.32642e-07
-3.38308e-07
-3.88605e-05
-5.00733e-07
5.32662e-07
-3.38931e-07
-3.88605e-05
-5.01318e-07
5.32425e-07
-3.37813e-07
-3.88597e-05
-5.01867e-07
5.31589e-07
-3.37643e-07
-3.8859e-05
-5.0185e-07
5.31742e-07
-3.3759e-07
-3.88586e-05
-5.02327e-07
5.31334e-07
-3.37299e-07
-3.88582e-05
-5.01546e-07
5.32387e-07
-3.38912e-07
-3.8862e-05
-4.9584e-07
5.31166e-07
-3.37829e-07
-3.88601e-05
-4.98092e-07
5.44005e-07
-3.37947e-07
-3.88588e-05
-4.99664e-07
5.33681e-07
-3.37014e-07
-3.88583e-05
-5.01369e-07
5.33775e-07
-3.37047e-07
-3.88594e-05
-5.02204e-07
5.32676e-07
-3.35676e-07
-3.88588e-05
-5.02219e-07
5.32156e-07
-3.35555e-07
-3.88584e-05
-5.02261e-07
5.32624e-07
-3.35923e-07
-3.88588e-05
-5.01938e-07
5.32737e-07
-3.36237e-07
-3.88588e-05
-5.00797e-07
5.33817e-07
-3.37812e-07
-3.88599e-05
-5.01096e-07
5.3333e-07
-3.36962e-07
-3.88594e-05
-5.00981e-07
5.33896e-07
-3.37471e-07
-3.88597e-05
-5.01621e-07
5.33056e-07
-3.36788e-07
-3.88597e-05
-5.02491e-07
5.31674e-07
-3.36147e-07
-3.8859e-05
-5.03895e-07
5.28693e-07
-3.36458e-07
-3.88598e-05
-5.04812e-07
5.22709e-07
-3.36756e-07
-3.88601e-05
-5.02489e-07
5.30756e-07
-3.36956e-07
-3.88595e-05
-5.03166e-07
5.31356e-07
-3.34773e-07
-3.88577e-05
-5.02973e-07
5.31847e-07
-3.3506e-07
-3.88577e-05
-5.03514e-07
5.31068e-07
-3.34483e-07
-3.88569e-05
-5.03438e-07
5.30505e-07
-3.33665e-07
-3.88562e-05
-5.04101e-07
5.3004e-07
-3.32921e-07
-3.88558e-05
-5.04886e-07
5.29636e-07
-3.32166e-07
-3.88549e-05
-5.03651e-07
5.30379e-07
-3.33104e-07
-3.88561e-05
-5.0383e-07
5.30093e-07
-3.3288e-07
-3.88558e-05
-5.03179e-07
5.311e-07
-3.34687e-07
-3.8857e-05
-5.03106e-07
5.31388e-07
-3.34472e-07
-3.88568e-05
-5.03149e-07
5.30751e-07
-3.34128e-07
-3.88564e-05
-5.03082e-07
5.30919e-07
-3.32855e-07
-3.88557e-05
-5.02634e-07
5.31568e-07
-3.28583e-07
-3.88519e-05
-5.00863e-07
5.32902e-07
-3.19046e-07
-3.88457e-05
-5.02081e-07
5.31592e-07
-3.27585e-07
-3.88503e-05
-5.0299e-07
5.31311e-07
-3.33608e-07
-3.8855e-05
-5.03392e-07
5.30822e-07
-3.33589e-07
-3.88566e-05
-5.02928e-07
5.31244e-07
-3.34651e-07
-3.88566e-05
-5.03321e-07
5.31184e-07
-3.34144e-07
-3.88568e-05
-5.03951e-07
5.30104e-07
-3.3253e-07
-3.88557e-05
-5.03995e-07
5.30118e-07
-3.33115e-07
-3.88558e-05
-5.04495e-07
5.29945e-07
-3.32101e-07
-3.88549e-05
-5.04056e-07
5.30199e-07
-3.33105e-07
-3.88558e-05
-5.03745e-07
5.30412e-07
-3.33271e-07
-3.88562e-05
-5.03049e-07
5.3106e-07
-3.34245e-07
-3.8857e-05
-5.03381e-07
5.30899e-07
-3.34179e-07
-3.88567e-05
-5.03411e-07
5.31134e-07
-3.34234e-07
-3.88568e-05
-5.04053e-07
5.29899e-07
-3.33176e-07
-3.88557e-05
-5.0418e-07
5.29944e-07
-3.32497e-07
-3.88556e-05
-5.0435e-07
5.29838e-07
-3.32899e-07
-3.88555e-05
-5.0421e-07
5.30072e-07
-3.32469e-07
-3.88555e-05
-5.03552e-07
5.30668e-07
-3.33632e-07
-3.88562e-05
-5.03766e-07
5.30557e-07
-3.33782e-07
-3.88567e-05
-5.11213e-07
5.27636e-07
-3.30232e-07
-3.88535e-05
-5.13254e-07
5.7594e-07
-4.00758e-07
-3.87563e-05
-4.88806e-07
1.00245e-06
-1.13669e-06
-3.77218e-05
-3.77836e-07
2.17313e-06
-2.59046e-06
-3.70415e-05
-5.7373e-06
2.92229e-06
-2.26411e-06
-2.59308e-05
-4.31787e-05
-3.45311e-05
4.1295e-05
4.9329e-05
0.000135625
0.000153441
0.000153422
0.000135594
0.000124337
-0.000124355
9.11552e-05
9.11531e-05
-9.12044e-05
-9.12029e-05
0.000124335
-0.00012435
-0.000135648
-0.00015347
-0.000153453
-0.000135621
0.00023865
0.000114378
0.000189564
0.000189605
0.000149155
0.000149152
0.000238598
0.000114342
0.000119578
-0.000119642
9.09434e-05
-9.0964e-05
-0.000119645
9.09451e-05
-9.09604e-05
-0.000238687
-0.00011447
-0.000189696
-0.000149095
-0.00014912
-0.000114471
0.00020051
0.000112144
0.000163375
0.000163373
0.000160913
0.000160919
0.000200474
0.000112136
9.96195e-05
-9.96284e-05
9.76015e-05
-9.76091e-05
-9.96208e-05
9.76114e-05
-9.75905e-05
-0.000200644
-0.000112196
-0.000163355
-0.000160867
-0.000160883
-0.000112206
0.000198999
3.58422e-05
0.000159052
0.000159051
8.78695e-05
8.78472e-05
0.000198987
3.58207e-05
9.58519e-05
-9.58354e-05
5.18664e-05
-5.19082e-05
-9.58341e-05
5.18552e-05
-5.18951e-05
-0.000199102
-3.58224e-05
-0.000159019
-8.78414e-05
-8.78397e-05
-3.58073e-05
0.000101734
-3.02699e-05
6.2317e-05
6.23188e-05
1.61023e-05
1.6117e-05
0.000101702
-3.02631e-05
3.80747e-05
-3.81237e-05
1.13388e-05
-1.13717e-05
-3.8107e-05
1.13417e-05
-1.13673e-05
-0.000101798
3.028e-05
-6.23235e-05
-1.61057e-05
-1.61106e-05
3.02736e-05
4.61088e-05
-3.97997e-05
9.23089e-06
9.24957e-06
1.54817e-06
1.56668e-06
4.61119e-05
-3.9785e-05
6.75462e-06
-6.77969e-06
1.37102e-06
-1.38508e-06
-6.77555e-06
1.37762e-06
-1.38069e-06
-4.61561e-05
3.98279e-05
-9.22894e-06
-1.5359e-06
-1.53473e-06
3.98197e-05
3.9181e-05
-4.03151e-05
9.15067e-07
9.34597e-07
3.90695e-07
3.94101e-07
3.91907e-05
-4.0317e-05
9.27107e-07
-9.38405e-07
5.69802e-07
-5.78492e-07
-9.33542e-07
5.68404e-07
-5.75493e-07
-3.92132e-05
4.03502e-05
-8.99026e-07
-3.73497e-07
-3.72807e-07
4.03399e-05
3.88489e-05
-4.03252e-05
3.69721e-07
3.69069e-07
3.56852e-07
3.55463e-07
3.88377e-05
-4.03347e-05
5.52984e-07
-5.58318e-07
5.40266e-07
-5.44868e-07
-5.5531e-07
5.34694e-07
-5.43608e-07
-3.88744e-05
4.03678e-05
-3.48399e-07
-3.34919e-07
-3.34923e-07
4.03568e-05
3.88393e-05
-4.03352e-05
3.53628e-07
3.55696e-07
3.52577e-07
3.52967e-07
3.8829e-05
-4.03342e-05
5.37486e-07
-5.44523e-07
5.35028e-07
-5.46027e-07
-5.42719e-07
5.34256e-07
-5.4383e-07
-3.88635e-05
4.03665e-05
-3.33884e-07
-3.35332e-07
-3.35237e-07
4.03564e-05
3.8831e-05
-4.03343e-05
3.50969e-07
3.55865e-07
3.52484e-07
3.50566e-07
3.88286e-05
-4.03339e-05
5.35551e-07
-5.46321e-07
5.3623e-07
-5.4558e-07
-5.43564e-07
5.34554e-07
-5.43835e-07
-3.8865e-05
4.0367e-05
-3.34651e-07
-3.353e-07
-3.35349e-07
4.03561e-05
3.88343e-05
-4.03168e-05
3.54569e-07
3.60668e-07
3.669e-07
3.52138e-07
3.88291e-05
-4.0333e-05
5.38245e-07
-5.45138e-07
5.44972e-07
-5.44504e-07
-5.4338e-07
5.35398e-07
-5.43834e-07
-3.88644e-05
4.03674e-05
-3.34553e-07
-3.35017e-07
-3.35474e-07
4.03558e-05
3.88514e-05
-4.0335e-05
3.62945e-07
3.61835e-07
3.51174e-07
3.48948e-07
3.88299e-05
-4.03353e-05
5.43975e-07
-5.44557e-07
5.34108e-07
-5.45462e-07
-5.43466e-07
5.33996e-07
-5.44138e-07
-3.88642e-05
4.03667e-05
-3.34644e-07
-3.35517e-07
-3.35367e-07
4.0356e-05
3.88314e-05
-4.03358e-05
3.54293e-07
3.58329e-07
3.4843e-07
3.58058e-07
3.88275e-05
-4.03372e-05
5.37055e-07
-5.45816e-07
5.3341e-07
-5.46198e-07
-5.4369e-07
5.32158e-07
-5.43086e-07
-3.88644e-05
4.03666e-05
-3.34865e-07
-3.34807e-07
-3.36361e-07
4.03568e-05
3.88309e-05
-4.0338e-05
3.4972e-07
3.63014e-07
3.44701e-07
3.62298e-07
3.88251e-05
-4.03396e-05
5.35484e-07
-5.46151e-07
5.32227e-07
-5.46191e-07
-5.42281e-07
5.29811e-07
-5.41457e-07
-3.88647e-05
4.03667e-05
-3.36025e-07
-3.33212e-07
-3.3661e-07
4.03578e-05
3.88332e-05
-4.03372e-05
3.49954e-07
3.60217e-07
3.47476e-07
3.55469e-07
3.88241e-05
-4.03354e-05
5.37405e-07
-5.46123e-07
5.3531e-07
-5.4577e-07
-5.40776e-07
5.33494e-07
-5.40694e-07
-3.88645e-05
4.03672e-05
-3.35588e-07
-3.33426e-07
-3.34359e-07
4.03588e-05
3.88369e-05
-4.03365e-05
3.52403e-07
3.56803e-07
3.50646e-07
3.6769e-07
3.8831e-05
-4.03169e-05
5.35902e-07
-5.45639e-07
5.3575e-07
-5.45585e-07
-5.40182e-07
5.43489e-07
-5.40946e-07
-3.88641e-05
4.03672e-05
-3.33089e-07
-3.34258e-07
-3.34145e-07
4.03582e-05
3.88373e-05
-4.03368e-05
3.54771e-07
3.60309e-07
3.4832e-07
3.55558e-07
3.88442e-05
-4.03376e-05
5.36775e-07
-5.45638e-07
5.34888e-07
-5.45697e-07
-5.40901e-07
5.35558e-07
-5.4233e-07
-3.88644e-05
4.03669e-05
-3.33611e-07
-3.34703e-07
-3.34368e-07
4.03572e-05
3.88363e-05
-4.0335e-05
3.5541e-07
3.54908e-07
3.49981e-07
3.54713e-07
3.8829e-05
-4.03358e-05
5.35858e-07
-5.4575e-07
5.3637e-07
-5.45865e-07
-5.42057e-07
5.36623e-07
-5.4298e-07
-3.88644e-05
4.03667e-05
-3.33828e-07
-3.35606e-07
-3.35097e-07
4.03568e-05
3.88374e-05
-4.03219e-05
3.57627e-07
3.56072e-07
3.59794e-07
3.67524e-07
3.88318e-05
-4.03179e-05
5.38143e-07
-5.4539e-07
5.43754e-07
-5.43497e-07
-5.42285e-07
5.46568e-07
-5.40707e-07
-3.8865e-05
4.03687e-05
-3.34337e-07
-3.33982e-07
-3.34278e-07
4.03585e-05
3.88553e-05
-4.03244e-05
3.72144e-07
3.71569e-07
3.55227e-07
3.58946e-07
3.8851e-05
-4.03308e-05
5.48269e-07
-5.42945e-07
5.42859e-07
-5.4306e-07
-5.39923e-07
5.34513e-07
-5.41085e-07
-3.88633e-05
4.03688e-05
-3.34655e-07
-3.32544e-07
-3.41818e-07
4.03583e-05
3.88442e-05
-4.03272e-05
3.53965e-07
3.51362e-07
3.62835e-07
3.60717e-07
3.88209e-05
-4.03344e-05
5.39342e-07
-5.43438e-07
5.33221e-07
-5.44372e-07
-5.41229e-07
5.36271e-07
-5.42796e-07
-3.88633e-05
4.03679e-05
-3.41977e-07
-3.33261e-07
-3.36213e-07
4.03573e-05
3.88379e-05
-4.03318e-05
3.63372e-07
3.49745e-07
3.49008e-07
3.54505e-07
3.88282e-05
-4.03341e-05
5.34919e-07
-5.44193e-07
5.32508e-07
-5.45036e-07
-5.42023e-07
5.32084e-07
-5.4214e-07
-3.88635e-05
4.03676e-05
-3.3448e-07
-3.33648e-07
-3.3521e-07
4.03576e-05
3.88292e-05
-4.0333e-05
3.47939e-07
3.50069e-07
3.50243e-07
3.51131e-07
3.88295e-05
-4.03376e-05
5.33392e-07
-5.45331e-07
5.31431e-07
-5.45822e-07
-5.42001e-07
5.31447e-07
-5.43057e-07
-3.88637e-05
4.0367e-05
-3.33704e-07
-3.34483e-07
-3.34649e-07
4.03569e-05
3.88298e-05
-4.0333e-05
3.47454e-07
3.50429e-07
3.50349e-07
3.52433e-07
3.88267e-05
-4.03369e-05
5.32145e-07
-5.45623e-07
5.31137e-07
-5.46221e-07
-5.4252e-07
5.31869e-07
-5.43603e-07
-3.88642e-05
4.03664e-05
-3.3334e-07
-3.35426e-07
-3.3393e-07
4.03566e-05
3.88297e-05
-4.03322e-05
3.48312e-07
3.51803e-07
3.51055e-07
3.5304e-07
3.88279e-05
-4.03361e-05
5.32013e-07
-5.46345e-07
5.31514e-07
-5.46374e-07
-5.43471e-07
5.32411e-07
-5.43722e-07
-3.8865e-05
4.03662e-05
-3.34867e-07
-3.35476e-07
-3.35927e-07
4.03561e-05
3.88304e-05
-4.03304e-05
3.49067e-07
3.52285e-07
3.52858e-07
3.54243e-07
3.88287e-05
-4.03352e-05
5.32579e-07
-5.46461e-07
5.32413e-07
-5.46755e-07
-5.4357e-07
5.32713e-07
-5.44735e-07
-3.88652e-05
4.03656e-05
-3.35678e-07
-3.3669e-07
-3.37935e-07
4.0355e-05
3.88319e-05
-4.03307e-05
3.50607e-07
3.53515e-07
3.52537e-07
3.53912e-07
3.88294e-05
-4.03355e-05
5.33409e-07
-5.46953e-07
5.32217e-07
-5.46395e-07
-5.44285e-07
5.33069e-07
-5.44491e-07
-3.88657e-05
4.03659e-05
-3.37158e-07
-3.36336e-07
-3.37717e-07
4.03552e-05
3.88316e-05
-4.03315e-05
3.50067e-07
3.52796e-07
3.52044e-07
3.53645e-07
3.88289e-05
-4.03357e-05
5.32989e-07
-5.46074e-07
5.31836e-07
-5.46459e-07
-5.43799e-07
5.32539e-07
-5.43658e-07
-3.8865e-05
4.03657e-05
-3.36603e-07
-3.36041e-07
-3.36717e-07
4.03558e-05
3.88307e-05
-4.03314e-05
3.49622e-07
3.52662e-07
3.51734e-07
3.52702e-07
3.88286e-05
-4.03366e-05
5.32589e-07
-5.46487e-07
5.31621e-07
-5.45711e-07
-5.43279e-07
5.32031e-07
-5.43775e-07
-3.88654e-05
4.03669e-05
-3.36178e-07
-3.35251e-07
-3.36783e-07
4.03561e-05
3.88309e-05
-4.03328e-05
3.49389e-07
3.51898e-07
3.50327e-07
3.51888e-07
3.88278e-05
-4.03368e-05
5.32629e-07
-5.45773e-07
5.30566e-07
-5.45125e-07
-5.43422e-07
5.31303e-07
-5.42917e-07
-3.88641e-05
4.03672e-05
-3.36055e-07
-3.34495e-07
-3.35676e-07
4.03568e-05
3.88292e-05
-4.03316e-05
3.47771e-07
3.50918e-07
3.51301e-07
3.52348e-07
3.88273e-05
-4.03358e-05
5.31375e-07
-5.45158e-07
5.31458e-07
-5.45655e-07
-5.42389e-07
5.31113e-07
-5.4314e-07
-3.88636e-05
4.03669e-05
-3.34798e-07
-3.34998e-07
-3.36081e-07
4.03564e-05
3.88306e-05
-4.03318e-05
3.49288e-07
3.52399e-07
3.51229e-07
3.52589e-07
3.88276e-05
-4.03369e-05
5.32625e-07
-5.45713e-07
5.3125e-07
-5.45334e-07
-5.42596e-07
5.31003e-07
-5.43373e-07
-3.88642e-05
4.03669e-05
-3.35239e-07
-3.34856e-07
-3.36319e-07
4.03561e-05
3.88304e-05
-4.03312e-05
3.4887e-07
3.51996e-07
3.52244e-07
3.54319e-07
3.88257e-05
-4.03342e-05
5.32136e-07
-5.45517e-07
5.32103e-07
-5.46595e-07
-5.43103e-07
5.32348e-07
-5.44356e-07
-3.8864e-05
4.03656e-05
-3.35652e-07
-3.3645e-07
-3.378e-07
4.03551e-05
3.88312e-05
-4.03313e-05
3.50005e-07
3.53334e-07
3.52113e-07
3.54304e-07
3.88266e-05
-4.03347e-05
5.32997e-07
-5.46514e-07
5.31863e-07
-5.46329e-07
-5.43622e-07
5.32702e-07
-5.4449e-07
-3.88654e-05
4.03658e-05
-3.36428e-07
-3.36475e-07
-3.37992e-07
4.03549e-05
3.88309e-05
-4.03305e-05
3.5013e-07
3.53618e-07
3.52673e-07
3.54897e-07
3.88261e-05
-4.03342e-05
5.32907e-07
-5.46313e-07
5.32369e-07
-5.46784e-07
-5.43824e-07
5.32552e-07
-5.4455e-07
-3.88651e-05
4.03651e-05
-3.36436e-07
-3.36899e-07
-3.38159e-07
4.03549e-05
3.88316e-05
-4.03311e-05
3.50339e-07
3.53988e-07
3.52254e-07
3.54547e-07
3.88266e-05
-4.03349e-05
5.33159e-07
-5.46742e-07
5.32041e-07
-5.46444e-07
-5.44145e-07
5.32689e-07
-5.44195e-07
-3.88658e-05
4.03659e-05
-3.36909e-07
-3.36382e-07
-3.37711e-07
4.03556e-05
3.88308e-05
-4.03315e-05
3.49289e-07
3.53175e-07
3.51215e-07
3.53261e-07
3.88258e-05
-4.03359e-05
5.3247e-07
-5.45939e-07
5.31454e-07
-5.45643e-07
-5.4347e-07
5.31351e-07
-5.43529e-07
-3.88649e-05
4.03669e-05
-3.35859e-07
-3.35534e-07
-3.36916e-07
4.03565e-05
3.88307e-05
-4.03321e-05
3.4877e-07
3.52228e-07
3.51526e-07
3.53005e-07
3.8825e-05
-4.03362e-05
5.32198e-07
-5.45621e-07
5.31638e-07
-5.45975e-07
-5.43462e-07
5.31881e-07
-5.43377e-07
-3.88643e-05
4.03666e-05
-3.35797e-07
-3.35517e-07
-3.36624e-07
4.03566e-05
3.88311e-05
-4.03341e-05
3.48739e-07
3.52501e-07
3.50239e-07
3.52572e-07
3.88251e-05
-4.03364e-05
5.32103e-07
-5.45862e-07
5.30639e-07
-5.44958e-07
-5.42898e-07
5.30654e-07
-5.42357e-07
-3.88645e-05
4.03676e-05
-3.35164e-07
-3.34146e-07
-3.35344e-07
4.03574e-05
3.88307e-05
-4.03347e-05
3.48643e-07
3.51645e-07
3.50131e-07
3.55294e-07
3.88245e-05
-4.03347e-05
5.31552e-07
-5.45347e-07
5.30645e-07
-5.46413e-07
-5.42397e-07
5.33065e-07
-5.44907e-07
-3.88636e-05
4.03657e-05
-3.34819e-07
-3.36394e-07
-3.40795e-07
4.03537e-05
3.88291e-05
-4.03399e-05
3.49292e-07
3.5568e-07
3.51554e-07
3.58278e-07
3.88273e-05
-4.03322e-05
5.30702e-07
-5.46604e-07
5.33459e-07
-5.45964e-07
-5.45427e-07
5.28891e-07
-5.44928e-07
-3.88654e-05
4.03661e-05
-3.42371e-07
-3.36287e-07
-3.42064e-07
4.03546e-05
3.88334e-05
-4.03378e-05
3.60377e-07
3.54324e-07
3.47806e-07
3.68377e-07
3.88249e-05
-4.03229e-05
5.35819e-07
-5.45378e-07
5.30939e-07
-5.45882e-07
-5.43467e-07
5.41535e-07
-5.42788e-07
-3.88648e-05
4.03664e-05
-3.37344e-07
-3.36047e-07
-3.37132e-07
4.03571e-05
3.88373e-05
-4.0334e-05
3.55399e-07
3.69116e-07
3.4911e-07
3.54396e-07
3.88431e-05
-4.03357e-05
5.34705e-07
-5.46433e-07
5.3361e-07
-5.46038e-07
-5.42284e-07
5.34016e-07
-5.42577e-07
-3.8865e-05
4.03665e-05
-3.35958e-07
-3.35766e-07
-3.36481e-07
4.03572e-05
3.88386e-05
-4.03343e-05
3.5514e-07
3.55416e-07
3.48312e-07
3.54451e-07
3.88262e-05
-4.03361e-05
5.35402e-07
-5.45908e-07
5.33846e-07
-5.46454e-07
-5.42432e-07
5.33549e-07
-5.4381e-07
-3.88646e-05
4.03664e-05
-3.34928e-07
-3.36061e-07
-3.37386e-07
4.03559e-05
3.88369e-05
-4.03364e-05
3.52827e-07
3.54419e-07
3.46522e-07
3.53073e-07
3.88262e-05
-4.03376e-05
5.34261e-07
-5.46419e-07
5.32682e-07
-5.45957e-07
-5.43349e-07
5.32931e-07
-5.4331e-07
-3.88648e-05
4.03669e-05
-3.35676e-07
-3.35453e-07
-3.36975e-07
4.03563e-05
3.8835e-05
-4.03368e-05
3.51076e-07
3.52626e-07
3.46062e-07
3.52283e-07
3.88241e-05
-4.03382e-05
5.33424e-07
-5.45822e-07
5.32435e-07
-5.45785e-07
-5.42735e-07
5.31911e-07
-5.42841e-07
-3.88641e-05
4.03671e-05
-3.34587e-07
-3.34896e-07
-3.36613e-07
4.0357e-05
3.88347e-05
-4.03371e-05
3.50907e-07
3.52157e-07
3.46108e-07
3.52363e-07
3.88238e-05
-4.03379e-05
5.33099e-07
-5.45819e-07
5.32268e-07
-5.45992e-07
-5.42727e-07
5.32777e-07
-5.43392e-07
-3.88642e-05
4.03668e-05
-3.34193e-07
-3.35431e-07
-3.37479e-07
4.03564e-05
3.88345e-05
-4.03368e-05
3.51083e-07
3.52201e-07
3.46084e-07
3.52284e-07
3.8824e-05
-4.03378e-05
5.33033e-07
-5.46052e-07
5.32174e-07
-5.45874e-07
-5.42807e-07
5.3225e-07
-5.43237e-07
-3.88644e-05
4.03669e-05
-3.34131e-07
-3.35255e-07
-3.37162e-07
4.03564e-05
3.88349e-05
-4.03353e-05
3.51616e-07
3.52662e-07
3.48052e-07
3.53949e-07
3.88243e-05
-4.03366e-05
5.33515e-07
-5.46268e-07
5.33674e-07
-5.46895e-07
-5.42804e-07
5.33564e-07
-5.43948e-07
-3.88644e-05
4.03657e-05
-3.34176e-07
-3.36602e-07
-3.38474e-07
4.03555e-05
3.88363e-05
-4.03353e-05
3.5322e-07
3.54136e-07
3.47821e-07
3.53847e-07
3.88254e-05
-4.03366e-05
5.34574e-07
-5.47189e-07
5.33477e-07
-5.46792e-07
-5.43928e-07
5.33455e-07
-5.43929e-07
-3.88654e-05
4.03658e-05
-3.36475e-07
-3.3654e-07
-3.38305e-07
4.03559e-05
3.8836e-05
-4.03353e-05
3.52522e-07
3.5348e-07
3.47716e-07
3.53786e-07
3.88252e-05
-4.03365e-05
5.34139e-07
-5.46616e-07
5.33554e-07
-5.46688e-07
-5.43402e-07
5.33896e-07
-5.44111e-07
-3.88651e-05
4.03659e-05
-3.35646e-07
-3.36336e-07
-3.38349e-07
4.03558e-05
3.88363e-05
-4.03359e-05
3.53012e-07
3.54023e-07
3.47377e-07
3.53451e-07
3.88255e-05
-4.03367e-05
5.34597e-07
-5.46997e-07
5.32985e-07
-5.46747e-07
-5.43918e-07
5.33291e-07
-5.44229e-07
-3.88652e-05
4.03657e-05
-3.36987e-07
-3.36381e-07
-3.384e-07
4.03553e-05
3.88353e-05
-4.03368e-05
3.52107e-07
3.53443e-07
3.46257e-07
3.52133e-07
3.88246e-05
-4.03387e-05
5.33675e-07
-5.4663e-07
5.32281e-07
-5.46264e-07
-5.43367e-07
5.32011e-07
-5.43453e-07
-3.8865e-05
4.03665e-05
-3.36384e-07
-3.35129e-07
-3.37124e-07
4.03563e-05
3.88344e-05
-4.03375e-05
3.50919e-07
3.51696e-07
3.45151e-07
3.50855e-07
3.88233e-05
-4.034e-05
5.32919e-07
-5.46402e-07
5.31448e-07
-5.46517e-07
-5.43339e-07
5.30186e-07
-5.44544e-07
-3.88643e-05
4.03663e-05
-3.36264e-07
-3.35405e-07
-3.37809e-07
4.03553e-05
3.88334e-05
-4.03388e-05
3.49192e-07
3.48578e-07
3.42874e-07
3.3637e-07
3.88201e-05
-4.03579e-05
5.31609e-07
-5.46378e-07
5.30082e-07
-5.46613e-07
-5.44452e-07
5.20175e-07
-5.45536e-07
-3.88644e-05
4.03663e-05
-3.36808e-07
-3.352e-07
-3.38031e-07
4.03547e-05
3.88324e-05
-4.03364e-05
3.48386e-07
3.40708e-07
3.45965e-07
3.52178e-07
3.88024e-05
-4.03392e-05
5.31188e-07
-5.46835e-07
5.31996e-07
-5.47037e-07
-5.45153e-07
5.3231e-07
-5.446e-07
-3.88644e-05
4.03658e-05
-3.37352e-07
-3.35454e-07
-3.39234e-07
4.03554e-05
3.88353e-05
-4.03357e-05
3.51522e-07
3.50679e-07
3.46387e-07
3.54987e-07
3.88222e-05
-4.03387e-05
5.33502e-07
-5.47385e-07
5.33251e-07
-5.47467e-07
-5.43855e-07
5.31404e-07
-5.42496e-07
-3.88653e-05
4.03654e-05
-3.40237e-07
-3.33872e-07
-3.47804e-07
4.03573e-05
3.88358e-05
-4.03349e-05
3.51124e-07
3.5551e-07
3.46338e-07
3.56723e-07
3.88233e-05
-4.03378e-05
5.34336e-07
-5.47667e-07
5.3406e-07
-5.4806e-07
-5.41467e-07
5.31658e-07
-5.41668e-07
-3.88657e-05
4.03648e-05
-3.48156e-07
-3.33603e-07
-3.4927e-07
4.03575e-05
3.88366e-05
-4.03351e-05
3.5131e-07
3.57152e-07
3.4594e-07
3.57413e-07
3.88241e-05
-4.03379e-05
5.34983e-07
-5.48265e-07
5.34111e-07
-5.48399e-07
-5.41122e-07
5.31296e-07
-5.40781e-07
-3.88664e-05
4.03645e-05
-3.4936e-07
-3.33263e-07
-3.49066e-07
4.03582e-05
3.88363e-05
-4.03351e-05
3.5062e-07
3.57271e-07
3.4556e-07
3.5678e-07
3.88237e-05
-4.03387e-05
5.34766e-07
-5.48377e-07
5.34174e-07
-5.47674e-07
-5.40227e-07
5.30463e-07
-5.40045e-07
-3.88665e-05
4.03654e-05
-3.48906e-07
-3.32338e-07
-3.48431e-07
4.0359e-05
3.88365e-05
-4.03358e-05
3.50468e-07
3.56799e-07
3.44964e-07
3.5661e-07
3.8823e-05
-4.03389e-05
5.35128e-07
-5.47649e-07
5.33749e-07
-5.47473e-07
-5.39621e-07
5.30298e-07
-5.39851e-07
-3.88656e-05
4.03657e-05
-3.4837e-07
-3.31812e-07
-3.4825e-07
4.03592e-05
3.88355e-05
-4.0337e-05
3.49487e-07
3.56172e-07
3.4332e-07
3.54973e-07
3.88227e-05
-4.03399e-05
5.34203e-07
-5.47145e-07
5.3262e-07
-5.46513e-07
-5.39399e-07
5.2935e-07
-5.38814e-07
-3.88652e-05
4.03666e-05
-3.47925e-07
-3.30315e-07
-3.46721e-07
4.03603e-05
3.88346e-05
-4.03355e-05
3.48582e-07
3.55338e-07
3.45148e-07
3.56846e-07
3.88219e-05
-4.03386e-05
5.33664e-07
-5.46852e-07
5.33835e-07
-5.47616e-07
-5.38355e-07
5.30493e-07
-5.39816e-07
-3.88645e-05
4.03653e-05
-3.46764e-07
-3.31928e-07
-3.48126e-07
4.03593e-05
3.88361e-05
-4.03358e-05
3.50044e-07
3.56687e-07
3.44657e-07
3.56324e-07
3.88231e-05
-4.03392e-05
5.34778e-07
-5.47545e-07
5.33526e-07
-5.47323e-07
-5.39404e-07
5.2996e-07
-5.39551e-07
-3.88657e-05
4.03657e-05
-3.47826e-07
-3.31428e-07
-3.47644e-07
4.03593e-05
3.88357e-05
-4.0335e-05
3.4981e-07
3.56432e-07
3.45508e-07
3.57295e-07
3.88225e-05
-4.03381e-05
5.34549e-07
-5.47441e-07
5.34015e-07
-5.48225e-07
-5.39357e-07
5.30806e-07
-5.40516e-07
-3.88653e-05
4.03646e-05
-3.47612e-07
-3.3282e-07
-3.49203e-07
4.03583e-05
3.88366e-05
-4.03347e-05
3.51007e-07
3.57642e-07
3.46043e-07
3.57894e-07
3.88238e-05
-4.03377e-05
5.35572e-07
-5.4858e-07
5.34201e-07
-5.48525e-07
-5.40224e-07
5.31325e-07
-5.40739e-07
-3.88666e-05
4.03645e-05
-3.49338e-07
-3.33209e-07
-3.4959e-07
4.03583e-05
3.88367e-05
-4.03344e-05
3.51031e-07
3.57775e-07
3.45947e-07
3.57552e-07
3.88239e-05
-4.03379e-05
5.35522e-07
-5.48536e-07
5.3427e-07
-5.48034e-07
-5.40528e-07
5.30633e-07
-5.40146e-07
-3.88664e-05
4.03648e-05
-3.49366e-07
-3.3258e-07
-3.48879e-07
4.03586e-05
3.88368e-05
-4.03346e-05
3.50863e-07
3.57417e-07
3.45731e-07
3.5742e-07
3.88236e-05
-4.03381e-05
5.3545e-07
-5.47917e-07
5.34275e-07
-5.47713e-07
-5.39702e-07
5.31299e-07
-5.39852e-07
-3.8866e-05
4.03652e-05
-3.48904e-07
-3.3225e-07
-3.48729e-07
4.0359e-05
3.88365e-05
-4.03351e-05
3.50486e-07
3.57099e-07
3.44766e-07
3.56771e-07
3.88233e-05
-4.03381e-05
5.35345e-07
-5.47238e-07
5.33919e-07
-5.44717e-07
-5.38854e-07
5.30827e-07
-5.37151e-07
-3.88653e-05
4.03683e-05
-3.47556e-07
-3.28859e-07
-3.4573e-07
4.03617e-05
3.88359e-05
-4.03335e-05
3.50136e-07
3.57064e-07
3.4594e-07
3.57822e-07
3.88233e-05
-4.03371e-05
5.35651e-07
-5.43727e-07
5.35531e-07
-5.39851e-07
-5.35907e-07
5.32767e-07
-5.32881e-07
-3.88609e-05
4.0375e-05
-3.43795e-07
-3.16866e-07
-3.3736e-07
4.03674e-05
3.88369e-05
-4.03342e-05
3.50951e-07
3.57974e-07
3.45391e-07
3.5732e-07
3.88238e-05
-4.0338e-05
5.3687e-07
-5.39264e-07
5.35194e-07
-5.42342e-07
-5.31427e-07
5.31624e-07
-5.33356e-07
-3.88542e-05
4.03708e-05
-3.33791e-07
-3.26507e-07
-3.42636e-07
4.03659e-05
3.88367e-05
-4.03345e-05
3.50116e-07
3.57211e-07
3.45361e-07
3.57327e-07
3.88232e-05
-4.03377e-05
5.36001e-07
-5.43871e-07
5.3423e-07
-5.46763e-07
-5.35042e-07
5.31637e-07
-5.38648e-07
-3.8861e-05
4.03661e-05
-3.41629e-07
-3.30146e-07
-3.48802e-07
4.03601e-05
3.88367e-05
-4.03346e-05
3.50769e-07
3.57497e-07
3.45674e-07
3.57279e-07
3.88238e-05
-4.03381e-05
5.35496e-07
-5.4706e-07
5.34053e-07
-5.4765e-07
-5.38844e-07
5.30539e-07
-5.40031e-07
-3.88648e-05
4.03649e-05
-3.46562e-07
-3.32174e-07
-3.49936e-07
4.03584e-05
3.88365e-05
-4.03344e-05
3.50475e-07
3.57198e-07
3.4614e-07
3.57792e-07
3.88234e-05
-4.03378e-05
5.35102e-07
-5.47794e-07
5.34308e-07
-5.48584e-07
-5.39942e-07
5.30999e-07
-5.40505e-07
-3.88658e-05
4.03641e-05
-3.48127e-07
-3.33059e-07
-3.49541e-07
4.03581e-05
3.8837e-05
-4.03345e-05
3.5111e-07
3.57893e-07
3.45986e-07
3.58176e-07
3.88238e-05
-4.03373e-05
5.35548e-07
-5.48908e-07
5.34146e-07
-5.48658e-07
-5.39918e-07
5.31369e-07
-5.40419e-07
-3.88669e-05
4.03641e-05
-3.49197e-07
-3.3326e-07
-3.49738e-07
4.0358e-05
3.88367e-05
-4.03355e-05
3.5075e-07
3.5787e-07
3.44898e-07
3.56367e-07
3.88242e-05
-4.03391e-05
5.35202e-07
-5.48281e-07
5.33428e-07
-5.47187e-07
-5.40115e-07
5.30281e-07
-5.39817e-07
-3.88664e-05
4.03659e-05
-3.49728e-07
-3.31439e-07
-3.48603e-07
4.0359e-05
3.88357e-05
-4.03354e-05
3.49823e-07
3.56203e-07
3.44845e-07
3.56341e-07
3.88223e-05
-4.03389e-05
5.34689e-07
-5.4723e-07
5.33475e-07
-5.47287e-07
-5.39028e-07
5.30073e-07
-5.39624e-07
-3.88648e-05
4.03656e-05
-3.47905e-07
-3.3153e-07
-3.48676e-07
4.03592e-05
3.88358e-05
-4.03363e-05
3.49902e-07
3.56541e-07
3.44108e-07
3.56066e-07
3.88225e-05
-4.03391e-05
5.34622e-07
-5.4746e-07
5.32887e-07
-5.47021e-07
-5.39064e-07
5.29905e-07
-5.38714e-07
-3.88652e-05
4.0366e-05
-3.48375e-07
-3.30702e-07
-3.47301e-07
4.03599e-05
3.88351e-05
-4.03358e-05
3.48912e-07
3.5585e-07
3.4455e-07
3.56057e-07
3.88224e-05
-4.03391e-05
5.34049e-07
-5.46878e-07
5.33074e-07
-5.47198e-07
-5.38485e-07
5.29986e-07
-5.39549e-07
-3.88646e-05
4.03657e-05
-3.47421e-07
-3.31627e-07
-3.48529e-07
4.03591e-05
3.88355e-05
-4.03351e-05
3.49635e-07
3.56167e-07
3.44871e-07
3.56622e-07
3.88224e-05
-4.03384e-05
5.34407e-07
-5.47359e-07
5.33555e-07
-5.47381e-07
-5.39003e-07
5.30051e-07
-5.39818e-07
-3.88651e-05
4.03654e-05
-3.48225e-07
-3.31465e-07
-3.48624e-07
4.03587e-05
3.88363e-05
-4.03345e-05
3.50185e-07
3.56976e-07
3.46061e-07
3.5774e-07
3.88231e-05
-4.03378e-05
5.3501e-07
-5.47671e-07
5.34321e-07
-5.48361e-07
-5.39491e-07
5.31165e-07
-5.40557e-07
-3.88654e-05
4.03645e-05
-3.48674e-07
-3.32757e-07
-3.49794e-07
4.03579e-05
3.88369e-05
-4.03347e-05
3.5121e-07
3.57744e-07
3.45805e-07
3.57531e-07
3.88236e-05
-4.03379e-05
5.35595e-07
-5.48405e-07
5.33889e-07
-5.48234e-07
-5.40157e-07
5.30899e-07
-5.40392e-07
-3.88663e-05
4.03644e-05
-3.49682e-07
-3.32816e-07
-3.49783e-07
4.03581e-05
3.88364e-05
-4.03346e-05
3.50842e-07
3.57479e-07
3.45746e-07
3.57659e-07
3.88235e-05
-4.03377e-05
5.35158e-07
-5.4823e-07
5.33974e-07
-5.48336e-07
-5.39924e-07
5.31101e-07
-5.40597e-07
-3.88662e-05
4.03644e-05
-3.49502e-07
-3.32823e-07
-3.49968e-07
4.03579e-05
3.88364e-05
-4.03353e-05
3.50709e-07
3.57534e-07
3.45079e-07
3.56773e-07
3.88236e-05
-4.03386e-05
5.35216e-07
-5.48452e-07
5.33469e-07
-5.47405e-07
-5.40329e-07
5.2998e-07
-5.39808e-07
-3.88662e-05
4.03654e-05
-3.49758e-07
-3.31987e-07
-3.48863e-07
4.03589e-05
3.88357e-05
-4.03359e-05
3.49852e-07
3.56419e-07
3.44458e-07
3.56025e-07
3.88227e-05
-4.0339e-05
5.34378e-07
-5.47767e-07
5.33058e-07
-5.46521e-07
-5.39011e-07
5.30134e-07
-5.39503e-07
-3.88652e-05
4.03657e-05
-3.48362e-07
-3.31366e-07
-3.48292e-07
4.03592e-05
3.88352e-05
-4.03359e-05
3.49478e-07
3.5608e-07
3.44447e-07
3.55809e-07
3.88223e-05
-4.03392e-05
5.34252e-07
-5.478e-07
5.33088e-07
-5.45738e-07
-5.38925e-07
5.29875e-07
-5.39322e-07
-3.88647e-05
4.03652e-05
-3.47943e-07
-3.3155e-07
-3.48171e-07
4.03594e-05
3.88352e-05
-4.0336e-05
3.49284e-07
3.55692e-07
3.44231e-07
3.56051e-07
3.88221e-05
-4.03391e-05
5.34169e-07
-5.49191e-07
5.3282e-07
-5.44688e-07
-5.39154e-07
5.29913e-07
-5.39375e-07
-3.88644e-05
4.03639e-05
-3.48129e-07
-3.31215e-07
-3.48273e-07
4.03593e-05
3.88352e-05
-4.0335e-05
3.49618e-07
3.56414e-07
3.45187e-07
3.56694e-07
3.88224e-05
-4.03385e-05
5.34169e-07
-5.49634e-07
5.33622e-07
-5.45711e-07
-5.39097e-07
5.30351e-07
-5.39841e-07
-3.88639e-05
4.03633e-05
-3.48135e-07
-3.32173e-07
-3.4883e-07
4.03586e-05
3.88361e-05
-4.03345e-05
3.50462e-07
3.57067e-07
3.45959e-07
3.5787e-07
3.8823e-05
-4.03379e-05
5.35004e-07
-5.50282e-07
5.34321e-07
-5.47048e-07
-5.39765e-07
5.31046e-07
-5.40749e-07
-3.88646e-05
4.03626e-05
-3.49084e-07
-3.33175e-07
-3.50024e-07
4.03579e-05
3.88366e-05
-4.03324e-05
3.50571e-07
3.57185e-07
3.49046e-07
3.60963e-07
3.88234e-05
-4.03357e-05
5.34824e-07
-5.49545e-07
5.36826e-07
-5.50718e-07
-5.39613e-07
5.33283e-07
-5.43531e-07
-3.88648e-05
4.03594e-05
-3.49383e-07
-3.36338e-07
-3.53491e-07
4.0356e-05
3.88334e-05
-4.02908e-05
3.46756e-07
3.53228e-07
3.28488e-07
3.4011e-07
3.88202e-05
-4.02933e-05
5.31464e-07
-5.44915e-07
5.16279e-07
-5.30435e-07
-5.35999e-07
5.13059e-07
-5.23487e-07
-3.88612e-05
4.0319e-05
-3.45213e-07
-3.16245e-07
-3.31416e-07
4.03145e-05
3.87358e-05
-3.96913e-05
4.17357e-07
4.21356e-07
-1.50744e-07
-1.3843e-07
3.87225e-05
-3.96932e-05
5.79297e-07
-5.92666e-07
1.88349e-07
-2.01792e-07
-5.83637e-07
1.85661e-07
-1.96926e-07
-3.87624e-05
3.97234e-05
-4.11674e-07
1.62876e-07
1.5708e-07
3.9716e-05
3.77044e-05
-3.8802e-05
1.15558e-06
1.15801e-06
-1.38492e-06
-1.37684e-06
3.76896e-05
-3.8804e-05
1.00536e-06
-1.0144e-06
-7.15292e-07
7.10505e-07
-1.00519e-06
-7.1893e-07
7.10797e-07
-3.77273e-05
3.88401e-05
-1.14596e-06
1.4048e-06
1.39432e-06
3.88331e-05
3.70359e-05
-3.35188e-05
2.61154e-06
2.6209e-06
-6.58394e-06
-6.58235e-06
3.7023e-05
-3.35261e-05
2.17311e-06
-2.17793e-06
-4.8743e-06
4.88619e-06
-2.16588e-06
-4.8567e-06
4.88599e-06