/*--------------------------------*- C++ -*----------------------------------*\
| =========                 |                                                 |
| \\      /  F ield         | OpenFOAM: The Open Source CFD Toolbox           |
|  \\    /   O peration     | Version:  2206                                  |
|   \\  /    A nd           | Website:  www.openfoam.com                      |
|    \\/     M anipulation  |                                                 |
\*---------------------------------------------------------------------------*/
FoamFile
{
    version     2.0;
    format      ascii;
    arch        "LSB;label=32;scalar=64";
    class       surfaceScalarField;
    location    "2.5";
    object      phi;
}
// * * * * * * * * * * * * * * * * * * * * * * * * * * * * * * * * * * * * * //

dimensions      [0 3 -1 0 0 0 0];

oriented        oriented;

internalField   nonuniform List<scalar> 
82330
(
-3.33458e-08
-2.57377e-07
2.32538e-07
-3.16774e-08
-2.58433e-07
2.32102e-07
-1.87984e-06
1.72681e-06
1.73286e-06
-1.87957e-06
-1.17352e-07
4.95009e-08
-7.93202e-08
-6.28799e-07
5.01948e-07
-6.30339e-07
4.96554e-08
-7.66359e-08
5.01905e-07
-8.96114e-07
-7.85861e-10
-9.96622e-08
4.88432e-07
3.82236e-07
-1.24521e-06
4.81934e-07
4.07486e-07
-1.02735e-09
2.09527e-07
-1.51487e-06
2.79002e-07
5.64745e-07
-3.02763e-07
1.29023e-06
-1.79914e-06
1.29968e-06
-1.62746e-06
1.68131e-06
5.76094e-07
-2.04544e-06
-9.53939e-07
-1.06666e-06
-1.20788e-06
3.31126e-07
-1.02499e-09
2.9162e-07
-1.63733e-06
1.73885e-06
1.76397e-06
-1.59187e-06
8.07446e-07
-8.96694e-07
4.88315e-07
-1.00957e-07
3.8279e-07
-1.24613e-06
2.58572e-07
4.82239e-07
4.07919e-07
-1.51558e-06
2.07819e-07
2.78813e-07
5.65943e-07
1.87928e-06
-2.97222e-07
-1.79769e-06
1.29997e-06
1.68164e-06
-1.62619e-06
-2.0444e-06
1.29043e-06
-9.53775e-07
5.87165e-07
2.83855e-07
-1.63541e-06
1.7399e-06
1.76552e-06
-1.59047e-06
8.09556e-07
6.30067e-07
-1.06599e-06
-1.20912e-06
3.3148e-07
1.87873e-06
-2.86672e-07
-1.79997e-06
1.29765e-06
1.67937e-06
-1.62806e-06
-2.05014e-06
1.2912e-06
-9.59002e-07
5.81586e-07
5.7471e-07
1.24536e-06
6.29473e-07
-1.06546e-06
-1.20828e-06
3.34014e-07
2.56741e-07
4.82486e-07
4.04899e-07
-3.19826e-08
2.32378e-07
-1.88131e-06
-1.15348e-07
1.73242e-06
1.72869e-06
4.98803e-08
-7.68265e-08
5.01549e-07
3.42009e-08
-6.28897e-07
4.97974e-08
-8.04241e-08
5.02203e-07
-2.57305e-07
2.33183e-07
2.07015e-09
8.98712e-07
-1.5168e-06
2.06205e-07
2.80912e-07
5.68755e-07
-2.90738e-07
-2.0493e-06
1.29225e-06
-9.57856e-07
-1.79924e-06
1.29915e-06
1.68058e-06
-1.62657e-06
5.58207e-07
-1.20502e-09
2.95863e-07
-1.63747e-06
1.73746e-06
1.76324e-06
-1.59233e-06
8.07257e-07
1.24603e-06
-1.06357e-06
-1.20979e-06
3.30703e-07
8.98641e-07
-1.51673e-06
2.10513e-07
2.81404e-07
5.74381e-07
1.87967e-06
-2.87291e-07
-1.80122e-06
1.29818e-06
1.67979e-06
-1.62978e-06
-2.04892e-06
1.28953e-06
-9.56385e-07
5.57349e-07
3.00717e-07
-1.63849e-06
1.73678e-06
1.76233e-06
-1.59299e-06
8.07742e-07
1.24685e-06
6.31578e-07
-1.0677e-06
-1.20916e-06
3.32714e-07
1.97021e-09
-1.0216e-07
4.9044e-07
3.84132e-07
4.81975e-07
4.08599e-07
-9.84609e-08
4.90707e-07
3.83952e-07
2.58473e-07
4.80976e-07
4.07055e-07
-1.12796e-07
1.72841e-06
1.73352e-06
3.44855e-08
4.9029e-08
-7.93114e-08
5.02445e-07
3.35069e-08
5.1051e-08
-7.84861e-08
5.03068e-07
2.30376e-07
2.31852e-07
5.5406e-07
-7.89662e-07
1.92755e-07
5.54238e-07
-7.89395e-07
1.92684e-07
2.96544e-07
2.91397e-07
4.16474e-07
-1.16379e-06
3.58501e-07
-7.00218e-07
-6.08988e-07
3.26783e-07
7.91901e-07
-1.97878e-06
3.2912e-07
-1.16269e-06
3.58269e-07
-6.94462e-07
-6.0891e-07
7.88187e-07
3.27395e-07
-1.97742e-06
3.29402e-07
-3.36198e-07
3.80984e-07
-4.71021e-08
7.91474e-08
-7.6831e-08
4.40013e-07
3.78073e-07
-1.57022e-07
-8.80155e-07
1.64527e-09
3.91942e-07
-1.69234e-10
1.75876e-07
-4.38805e-07
-3.76267e-10
7.72039e-07
-1.26497e-07
2.75915e-08
3.31294e-07
7.23734e-07
-1.20094e-07
4.47027e-11
-9.40109e-08
-2.03273e-07
3.34883e-07
-5.24626e-08
2.28579e-07
5.11425e-07
-5.63716e-07
-9.01881e-07
1.28208e-06
1.24993e-07
-9.77106e-08
4.24944e-07
-1.49222e-07
-3.34999e-07
-4.73766e-08
3.80429e-07
7.92499e-08
-7.73034e-08
1.14713e-09
3.91828e-07
4.39732e-07
3.79413e-07
-1.57827e-07
-8.80834e-07
-4.38405e-07
1.7528e-07
7.71426e-07
-1.25888e-07
2.72831e-08
-9.39073e-08
3.30937e-07
7.2316e-07
-1.18973e-07
-2.02131e-07
3.34281e-07
-5.28997e-08
2.28539e-07
5.13305e-07
-5.64721e-07
-9.01993e-07
1.25537e-07
1.28155e-06
-9.71701e-08
4.24165e-07
-1.47632e-07
-2.01418e-07
3.33559e-07
-7.93272e-08
-5.28131e-08
2.28792e-07
5.13324e-07
-5.65319e-07
1.58186e-07
-9.04251e-07
1.27017e-07
1.27986e-06
-9.77237e-08
-2.77435e-08
4.23383e-07
-3.32895e-07
-1.47855e-07
4.15733e-07
-5.78178e-08
-4.16805e-07
4.71384e-07
4.70005e-07
-2.09734e-07
-2.11032e-07
-1.03819e-07
5.53912e-07
1.93979e-07
-7.90033e-07
5.53524e-07
1.94016e-07
-7.89759e-07
2.91248e-07
2.95695e-07
7.06871e-07
-4.15084e-08
7.05438e-07
-4.14171e-08
-3.53371e-07
-3.27615e-07
-8.49394e-07
1.40432e-06
-8.36695e-08
-1.16407e-06
3.59274e-07
3.25702e-07
-6.95195e-07
7.89524e-07
-6.08558e-07
7.01655e-07
-2.8073e-07
6.19954e-07
-1.23598e-07
-2.28849e-07
1.01522e-06
-1.12385e-07
-1.97837e-06
-6.39791e-08
-3.29899e-07
-8.49006e-07
-3.53055e-07
1.40342e-06
-8.24891e-08
-1.16421e-06
3.59806e-07
-6.99336e-07
3.27501e-07
-6.10536e-07
7.91475e-07
-2.79967e-07
7.0277e-07
-4.18013e-07
6.20817e-07
-1.23405e-07
-1.97913e-06
-6.37275e-08
1.01493e-06
-2.26094e-07
-1.11621e-07
-1.28175e-07
-5.66567e-08
-3.34882e-07
3.79479e-07
-4.93979e-08
8.1225e-08
-7.64239e-08
4.41054e-07
3.79975e-07
-1.59012e-07
-8.81983e-07
2.97341e-09
3.90637e-07
-1.1429e-09
1.75215e-07
-4.3631e-07
7.90601e-10
7.70393e-07
-1.25957e-07
2.87767e-08
3.31706e-07
7.22368e-07
-1.19406e-07
-1.96639e-09
-9.31054e-08
-2.0327e-07
3.36297e-07
-5.18018e-08
2.2817e-07
5.13228e-07
-5.66037e-07
-9.04788e-07
1.28113e-06
-9.59153e-08
4.24344e-07
-1.47905e-07
-3.34908e-07
3.78952e-07
-4.57773e-08
7.81859e-08
-7.64531e-08
4.41738e-07
3.80285e-07
-1.55776e-07
-8.82243e-07
4.71238e-10
3.91272e-07
1.76694e-07
-4.36415e-07
7.70663e-07
-1.26201e-07
2.68365e-08
3.32585e-07
7.22758e-07
-1.19414e-07
-9.28891e-08
-2.0194e-07
3.32711e-07
-5.25858e-08
2.29972e-07
5.13562e-07
-5.65982e-07
-9.02564e-07
1.2471e-07
1.28099e-06
-9.60768e-08
4.23989e-07
-1.47695e-07
-4.19079e-07
4.73e-07
4.73349e-07
-2.13077e-07
-2.11552e-07
-1.02641e-07
5.52443e-07
1.91702e-07
-7.88691e-07
5.53595e-07
1.9211e-07
-7.90125e-07
2.95206e-07
2.89864e-07
7.06756e-07
-4.20529e-08
7.07113e-07
-4.1654e-08
-3.32574e-07
-3.55089e-07
-8.47492e-07
1.40357e-06
-8.14882e-08
-1.16407e-06
3.56464e-07
-6.99101e-07
3.31813e-07
7.90704e-07
-6.09134e-07
7.01704e-07
-2.80471e-07
-4.15272e-07
6.19622e-07
-1.23137e-07
-1.97903e-06
-2.28032e-07
1.01604e-06
-1.09578e-07
-6.47441e-08
-3.32081e-07
-3.53529e-07
-8.47762e-07
1.40356e-06
-8.17422e-08
-1.1641e-06
3.57566e-07
-6.93709e-07
3.2975e-07
7.87505e-07
-6.09575e-07
7.00922e-07
-2.80568e-07
-4.13323e-07
6.18784e-07
-1.22749e-07
-1.97873e-06
-2.28829e-07
1.01693e-06
-1.10962e-07
-6.36514e-08
-5.78798e-08
-5.67608e-08
-3.02255e-07
-2.8668e-07
1.26881e-06
2.82536e-07
3.44497e-09
-2.54415e-09
-2.91986e-07
5.5638e-07
-3.97551e-09
-3.32557e-09
5.77751e-07
-5.04107e-09
2.05564e-09
5.1361e-07
-2.90015e-07
-2.92574e-07
1.26917e-06
2.89741e-07
2.87952e-07
1.71504e-09
-2.97567e-07
5.68374e-07
5.86574e-09
-6.22777e-10
-3.037e-07
5.67669e-07
-2.23997e-09
5.16074e-07
-2.8984e-07
-2.98819e-07
1.26211e-06
-5.62709e-09
5.63706e-07
-4.18365e-10
-6.05124e-09
5.66185e-07
-2.65916e-09
5.09963e-07
-2.90619e-07
-2.89033e-07
1.25922e-06
3.37721e-09
-2.99753e-07
5.6622e-07
2.97045e-09
5.65855e-07
5.12072e-07
2.13139e-06
-1.29171e-06
1.3582e-07
2.13425e-06
1.36359e-07
2.32965e-07
-1.1101e-07
-1.36313e-06
-4.75137e-08
1.12341e-07
-2.28024e-07
-1.57189e-06
2.70523e-07
4.979e-07
-9.20321e-08
1.27589e-07
-1.07009e-09
-1.37537e-07
1.32127e-06
-8.39223e-10
-1.31857e-07
-2.37945e-07
-3.72562e-07
-1.33844e-07
-6.11662e-10
-1.89908e-07
8.02964e-08
-1.43551e-07
-1.40658e-06
-2.1697e-07
-1.5488e-06
2.93212e-07
3.00706e-07
4.6663e-07
1.36446e-06
9.36965e-07
-6.19805e-07
-6.84072e-08
2.2985e-07
-1.11857e-07
-1.24018e-07
-1.10271e-07
-4.64377e-08
-1.3616e-06
1.1145e-07
-2.28551e-07
-9.32657e-08
1.28037e-07
-1.57258e-06
2.69008e-07
4.96953e-07
1.32044e-06
-1.3915e-07
-1.31889e-07
-2.38909e-07
-1.89051e-07
-3.7415e-07
-1.34437e-07
-1.44177e-07
-1.40518e-06
7.91956e-08
-2.16078e-07
-1.55034e-06
2.93811e-07
4.67637e-07
3.00203e-07
9.37952e-07
1.36319e-06
-6.81621e-08
-1.234e-07
-1.12451e-07
-1.47298e-07
-1.40707e-06
7.77829e-08
-1.1101e-07
-2.12381e-07
-1.5512e-06
2.98731e-07
-4.96927e-07
4.67391e-07
3.0412e-07
9.37347e-07
1.36321e-06
-6.70667e-08
2.39082e-07
3.73734e-07
-1.2134e-07
-1.10977e-07
1.55862e-06
-2.33043e-07
1.5592e-06
-7.70461e-08
-1.89983e-06
-1.89494e-06
-4.1428e-07
1.37883e-07
2.13457e-06
2.13187e-06
1.35515e-07
-1.41875e-07
-1.43151e-07
-1.12615e-07
-4.49479e-08
-1.36308e-06
1.09025e-07
-2.25848e-07
-9.39397e-08
1.2963e-07
9.91749e-10
-1.57366e-06
2.72029e-07
4.94806e-07
1.32195e-06
-1.4081e-07
1.93741e-09
-1.31775e-07
-2.40207e-07
2.01148e-09
-1.87713e-07
-3.75698e-07
-1.33802e-07
-1.43515e-07
7.73631e-08
-1.40585e-06
-2.18212e-07
-1.55093e-06
2.94408e-07
4.69668e-07
2.98084e-07
1.36277e-06
9.38914e-07
-6.9038e-08
-1.14447e-07
-1.23885e-07
-1.13196e-07
-4.8469e-08
-1.36443e-06
1.12801e-07
-2.25189e-07
-9.14559e-08
1.30384e-07
-1.57367e-06
2.73277e-07
4.9905e-07
1.32232e-06
-1.36684e-07
-1.31629e-07
-2.37205e-07
-1.86747e-07
-3.71927e-07
-1.33155e-07
-1.44233e-07
-1.40706e-06
8.00155e-08
-2.17147e-07
-1.55068e-06
2.95879e-07
4.6543e-07
3.0108e-07
9.35862e-07
1.36466e-06
-6.80346e-08
-1.23255e-07
-1.12857e-07
-2.37013e-07
1.55907e-06
1.56073e-06
-7.56602e-08
-1.8977e-06
-1.90304e-06
-4.1111e-07
2.13163e-06
1.41186e-07
2.13457e-06
1.40647e-07
-1.40401e-07
-1.41116e-07
2.93174e-07
2.94765e-07
-2.93038e-07
-2.93619e-07
1.27309e-06
-1.27438e-06
1.88103e-06
-2.92249e-07
5.69848e-07
5.62104e-07
1.2927e-06
-2.04892e-06
-9.5741e-07
-1.7987e-06
1.29953e-06
-1.62631e-06
1.68131e-06
-5.62932e-07
2.92714e-07
2.96603e-07
-1.25853e-06
-2.92828e-07
-2.90916e-07
1.25296e-06
-5.5598e-07
1.88162e-06
-2.92045e-07
5.70535e-07
5.54311e-07
1.29343e-06
-2.04937e-06
-9.57397e-07
-1.79962e-06
1.29979e-06
1.68206e-06
-1.62734e-06
1.88432e-06
-3.02212e-07
5.62525e-07
5.55257e-07
1.29557e-06
-2.04848e-06
-9.56082e-07
-1.79616e-06
1.30253e-06
-1.62371e-06
1.68437e-06
-5.57919e-07
-1.88291e-06
-1.88257e-06
1.72969e-06
1.73634e-06
-1.14043e-07
4.13494e-07
-5.45974e-07
1.88505e-06
-2.98566e-07
5.61166e-07
1.29653e-06
-2.05032e-06
-9.57644e-07
-1.79911e-06
1.30323e-06
1.68557e-06
-1.62649e-06
-1.87886e-06
-1.87961e-06
1.72644e-06
1.73233e-06
-1.18558e-07
4.18248e-07
2.04683e-06
2.0463e-06
-4.13737e-07
1.15154e-07
-1.89519e-06
-1.89935e-06
5.68243e-07
5.90829e-07
1.29205e-06
-2.04619e-06
-9.56357e-07
-1.79805e-06
1.29866e-06
-1.626e-06
1.6809e-06
-5.89767e-07
1.87897e-06
-2.9253e-07
5.67741e-07
5.91561e-07
1.28993e-06
-2.04508e-06
-9.54636e-07
-1.79847e-06
1.29995e-06
-1.6265e-06
1.68184e-06
-5.92765e-07
5.83104e-07
-2.92686e-07
-5.85285e-07
5.64675e-07
1.88162e-06
-9.56249e-07
1.29393e-06
1.6822e-06
-1.62592e-06
1.30004e-06
-1.79859e-06
-2.04585e-06
5.84819e-07
-2.91037e-07
-5.86556e-07
5.69307e-07
1.87907e-06
-9.54942e-07
1.29027e-06
1.68202e-06
-1.62752e-06
1.30006e-06
-1.79963e-06
1.73227e-06
1.72807e-06
-1.18012e-07
4.17669e-07
2.04961e-06
-4.18381e-07
1.18486e-07
-1.89954e-06
-1.89603e-06
5.67744e-07
5.66322e-07
1.29003e-06
-2.04583e-06
-9.5488e-07
-1.79837e-06
1.30012e-06
-1.62613e-06
1.6818e-06
-5.65645e-07
-2.95271e-07
5.64881e-07
5.95431e-07
-1.7969e-06
1.29953e-06
1.68083e-06
-1.62455e-06
-5.94549e-07
1.87798e-06
1.28954e-06
-2.04297e-06
-9.53952e-07
5.57977e-07
-2.98902e-07
-5.61081e-07
5.65901e-07
1.88228e-06
-9.53893e-07
1.29224e-06
1.68397e-06
-1.62589e-06
1.30192e-06
-1.79823e-06
5.86155e-07
-2.98453e-07
-5.89277e-07
5.60286e-07
1.68347e-06
-1.62401e-06
-1.79656e-06
1.30227e-06
-2.04366e-06
1.88122e-06
-9.53322e-07
1.29189e-06
-2.93346e-07
5.66174e-07
5.96297e-07
-1.79711e-06
1.29913e-06
-1.6247e-06
1.68099e-06
1.87826e-06
-5.93632e-07
1.29133e-06
-2.04669e-06
-9.56704e-07
-2.91034e-07
-5.57181e-07
5.71425e-07
1.88125e-06
-9.57631e-07
1.29302e-06
1.68171e-06
-1.62756e-06
-1.79973e-06
1.29936e-06
5.85719e-07
-2.93614e-07
-5.894e-07
5.63765e-07
1.68195e-06
-1.62526e-06
-1.79799e-06
1.3004e-06
-2.04599e-06
1.88247e-06
-9.56001e-07
1.29396e-06
-1.88215e-06
-1.88258e-06
1.72971e-06
1.73536e-06
-1.14077e-07
2.05094e-06
2.05111e-06
1.1464e-07
-1.9008e-06
-1.90392e-06
5.64858e-07
5.79708e-07
1.29458e-06
-2.04726e-06
-9.56442e-07
-1.79864e-06
1.30037e-06
1.68268e-06
-1.62619e-06
1.87954e-06
-2.9238e-07
5.67383e-07
5.83516e-07
1.29062e-06
-2.04568e-06
-9.54797e-07
-1.7995e-06
1.30066e-06
1.68279e-06
-1.62735e-06
-2.88046e-07
-5.70055e-07
5.73241e-07
1.88102e-06
-9.60215e-07
1.29424e-06
1.68169e-06
-1.6298e-06
1.29905e-06
-1.80172e-06
-2.04534e-06
5.76987e-07
-2.97616e-07
-5.78093e-07
5.60531e-07
1.88211e-06
-9.54185e-07
1.29319e-06
1.68506e-06
-1.62683e-06
1.30324e-06
-1.79906e-06
1.7328e-06
1.72851e-06
-1.18533e-07
2.04956e-06
-4.1532e-07
1.1652e-07
-1.90015e-06
-1.89594e-06
5.66536e-07
5.53987e-07
1.29234e-06
-2.04706e-06
-9.54624e-07
-1.79876e-06
1.30205e-06
1.68412e-06
-1.62658e-06
1.88198e-06
-2.97835e-07
5.59928e-07
5.83773e-07
1.29231e-06
-2.04458e-06
-9.54013e-07
-1.79709e-06
1.30251e-06
1.68376e-06
-1.62459e-06
-2.87158e-07
-5.45725e-07
5.73042e-07
1.88171e-06
-9.58845e-07
1.29141e-06
1.68289e-06
-1.63019e-06
1.30077e-06
-1.80237e-06
-2.04716e-06
-2.95413e-07
-5.76843e-07
5.61662e-07
1.88334e-06
-9.55064e-07
1.2922e-06
1.68412e-06
-1.62545e-06
1.30276e-06
-1.79872e-06
-2.94701e-07
5.62459e-07
5.8242e-07
1.295e-06
-2.04651e-06
-9.55797e-07
-1.79838e-06
1.30115e-06
-1.62556e-06
1.68273e-06
-2.98115e-07
-5.493e-07
5.64425e-07
1.88464e-06
-9.56989e-07
1.2961e-06
1.685e-06
-1.62614e-06
-1.79873e-06
1.3027e-06
-2.05159e-06
-2.95713e-07
-5.74824e-07
5.6559e-07
1.88462e-06
-9.57624e-07
1.29619e-06
1.68453e-06
-1.62674e-06
1.30195e-06
-1.79885e-06
1.73573e-06
1.73106e-06
-1.14396e-07
4.13904e-07
1.12263e-07
-1.90148e-06
-2.9866e-07
5.64412e-07
5.54822e-07
1.29262e-06
-2.04711e-06
-9.54469e-07
-1.7978e-06
1.30266e-06
-1.62567e-06
1.68418e-06
-5.57555e-07
1.11999e-07
-1.90037e-06
1.88287e-06
-3.0236e-07
1.29331e-06
-2.04622e-06
-9.54882e-07
1.3038e-06
-1.62517e-06
1.73588e-06
1.73193e-06
-1.15212e-07
-1.84098e-11
7.70042e-07
-1.25086e-07
-4.36789e-07
1.75592e-07
-3.8374e-07
2.56488e-07
-1.2452e-06
4.10072e-07
4.82535e-07
9.61078e-08
1.27909e-07
1.28206e-06
-9.74332e-08
-9.0371e-07
-4.08824e-07
4.03983e-10
-8.95804e-07
3.83242e-07
4.87106e-07
-1.00841e-07
1.25893e-07
-2.58485e-07
-3.20575e-08
2.32801e-07
5.77414e-08
-1.25804e-07
4.16368e-07
-5.79626e-08
-2.32601e-07
7.71156e-07
-4.06844e-10
-1.26932e-07
1.75285e-07
-4.38778e-07
-3.80323e-07
2.58815e-07
-1.24633e-06
4.10337e-07
4.81224e-07
9.5949e-08
1.25182e-07
1.28241e-06
-9.73657e-08
-9.01095e-07
-4.09135e-07
-8.95836e-07
-9.03113e-10
3.7922e-07
-9.95288e-08
4.88671e-07
1.28378e-07
-2.90913e-07
-2.92846e-07
1.27177e-06
-1.27279e-06
-2.9568e-07
-2.95884e-07
1.27627e-06
2.97634e-07
-1.27761e-06
-2.96339e-07
-2.944e-07
1.27237e-06
2.97927e-07
-1.2729e-06
-1.26393e-06
-2.94831e-07
-2.91359e-07
1.26666e-06
-1.26774e-06
-2.89859e-07
-2.91131e-07
1.25889e-06
-1.26446e-06
-2.97496e-07
-2.97269e-07
3.01884e-07
1.25968e-06
-1.26378e-06
-2.964e-07
-2.92617e-07
2.99509e-07
-7.70609e-07
-1.44619e-09
-1.30923e-07
-1.37649e-07
1.32081e-06
-2.80181e-07
6.29807e-07
1.24485e-06
-1.20888e-06
3.30942e-07
-1.06533e-06
6.86116e-08
8.12994e-07
2.13578e-09
2.95886e-07
-1.63697e-06
1.73829e-06
-1.5916e-06
1.76373e-06
-8.14619e-07
5.70739e-07
-2.04876e-06
5.60182e-07
-2.92233e-07
1.68147e-06
-1.62651e-06
1.2995e-06
-1.79877e-06
1.88092e-06
-9.57028e-07
1.2926e-06
-6.20136e-07
-1.281e-06
-6.7741e-08
9.37416e-07
-3.31629e-07
1.36309e-06
4.03666e-09
8.10051e-07
2.95643e-07
1.76392e-06
-1.59149e-06
1.73854e-06
-1.63697e-06
8.95175e-07
-9.57853e-10
2.80125e-07
2.09037e-07
-1.5146e-06
1.3122e-07
-7.7121e-10
7.70555e-07
-1.22418e-07
-3.88044e-07
-4.35885e-07
1.76563e-07
9.9089e-08
2.55919e-07
-1.24348e-06
4.84351e-07
4.04126e-07
1.24178e-07
4.44993e-10
-8.94573e-07
3.86531e-07
4.847e-07
-1.01282e-07
1.26102e-07
1.27988e-06
-1.00849e-07
-9.02443e-07
-4.02686e-07
5.74559e-08
-2.57599e-07
-3.30257e-08
2.33168e-07
-1.25652e-07
4.1626e-07
-5.79794e-08
-2.32629e-07
7.69734e-07
-1.37426e-09
-1.21574e-07
-3.89125e-07
1.77058e-07
-4.3472e-07
1.00384e-07
2.57566e-07
-1.24411e-06
4.83732e-07
4.02424e-07
1.23949e-07
-8.94178e-07
-1.60247e-09
3.87298e-07
-9.96382e-08
4.84171e-07
1.25512e-07
1.28001e-06
-1.01214e-07
-9.02647e-07
-4.0166e-07
-2.91022e-07
-2.91483e-07
1.26474e-06
-2.981e-07
-2.97056e-07
1.254e-06
-2.96072e-07
-2.93348e-07
1.25574e-06
-1.24684e-06
-2.85878e-07
-2.89518e-07
1.25298e-06
-1.2573e-06
-2.96267e-07
-2.95149e-07
-1.24403e-06
-2.97437e-07
-2.939e-07
-1.24484e-06
-2.91085e-07
-2.93267e-07
-7.71961e-07
-2.07099e-09
-1.28992e-07
-2.82692e-07
-1.36714e-07
1.32243e-06
6.81832e-08
6.30012e-07
1.24495e-06
-1.20873e-06
-1.06575e-06
3.31327e-07
8.04617e-07
-8.06432e-07
3.20025e-09
2.93612e-07
-1.63753e-06
1.74008e-06
1.76518e-06
-1.59219e-06
5.68457e-07
-2.04928e-06
5.52248e-07
-2.93963e-07
1.68285e-06
-1.62694e-06
1.30067e-06
-1.79938e-06
1.88252e-06
-9.57085e-07
1.29421e-06
1.30137e-07
8.96215e-07
-1.73986e-09
2.81982e-07
2.09905e-07
-1.5165e-06
-6.20028e-07
-1.28114e-06
-6.7451e-08
9.36825e-07
-3.31866e-07
1.36366e-06
2.28057e-09
8.02289e-07
2.90204e-07
1.76603e-06
-1.59163e-06
1.74089e-06
-1.63698e-06
-2.58163e-07
-3.0703e-08
2.29612e-07
5.92545e-08
-1.27174e-07
4.161e-07
-6.10234e-08
-2.27903e-07
7.72275e-10
-7.70156e-07
-1.24866e-07
1.3229e-06
-1.39581e-07
-2.89072e-07
8.01689e-07
-1.41868e-09
2.83333e-07
-1.63442e-06
1.7414e-06
-1.58907e-06
1.76722e-06
-8.06206e-07
6.28369e-07
1.2442e-06
-1.21004e-06
3.3273e-07
-1.06312e-06
6.78645e-08
5.62128e-07
-2.0486e-06
5.5003e-07
-3.02589e-07
1.68513e-06
-1.62382e-06
1.30324e-06
-1.7962e-06
1.88542e-06
-9.55975e-07
1.29649e-06
-1.17218e-09
7.96146e-07
2.8362e-07
1.76779e-06
-1.58957e-06
1.74188e-06
-1.63488e-06
-6.19809e-07
-1.27964e-06
-6.45363e-08
9.38054e-07
-3.35106e-07
1.36104e-06
1.40846e-09
8.95667e-07
2.85873e-07
-1.51817e-06
2.06384e-07
1.28836e-07
-6.28968e-07
3.33813e-08
-7.9292e-08
5.02175e-07
4.91119e-08
1.23591e-07
-6.29846e-07
3.13957e-08
-7.79042e-08
5.02797e-07
5.09072e-08
1.2265e-07
2.04731e-06
2.04781e-06
-4.10107e-07
1.12864e-07
-1.89706e-06
-1.90083e-06
6.20929e-07
-4.16577e-07
-1.22337e-07
-2.82278e-07
-5.02712e-07
7.02975e-07
6.19655e-07
-4.16987e-07
-1.21476e-07
-2.79164e-07
-5.03689e-07
7.01661e-07
5.88502e-08
-2.58138e-07
-2.97486e-08
2.29037e-07
-2.96412e-07
6.52911e-08
6.2861e-07
1.24368e-06
-1.21013e-06
-1.06435e-06
3.36903e-07
-7.95675e-07
-5.77739e-10
2.83986e-07
-1.63763e-06
1.74251e-06
1.76842e-06
-1.59271e-06
1.25435e-07
8.93289e-07
6.90251e-10
2.92425e-07
2.07673e-07
-1.51951e-06
-3.45671e-08
2.34411e-07
5.66435e-08
4.19187e-07
-5.77299e-08
-2.33548e-07
-3.24746e-08
2.35085e-07
5.62047e-08
4.16739e-07
-5.73152e-08
-2.34241e-07
-6.29703e-07
-7.90591e-08
5.01223e-07
4.88496e-08
1.24123e-07
-6.30223e-07
-7.80101e-08
4.99846e-07
5.10292e-08
1.24884e-07
-4.16584e-07
2.04558e-06
2.04514e-06
1.17394e-07
-1.8936e-06
-1.89792e-06
-1.23549e-07
6.2083e-07
-2.80575e-07
-5.01492e-07
7.03972e-07
-1.24379e-07
6.20635e-07
-2.81736e-07
-5.00104e-07
7.02322e-07
4.16756e-07
-1.26441e-07
-5.89067e-08
-2.31408e-07
-3.33212e-08
-2.56617e-07
2.32208e-07
4.14824e-07
-1.24675e-07
-5.96047e-08
-2.30545e-07
-3.17013e-08
-2.58062e-07
2.32447e-07
-1.88095e-06
-1.88169e-06
-1.16445e-07
1.72854e-06
1.73397e-06
6.20518e-07
-1.22515e-07
7.02638e-07
-5.0282e-07
-2.81064e-07
6.19597e-07
-1.23021e-07
7.01368e-07
-5.01749e-07
-2.81372e-07
-6.2899e-07
4.84321e-08
-7.86198e-08
5.02307e-07
-6.30107e-07
5.02595e-08
-7.71394e-08
5.00906e-07
7.7034e-07
-1.25008e-07
-4.3692e-07
1.75553e-07
-3.83983e-07
-1.24576e-06
4.08077e-07
4.81712e-07
9.74915e-08
1.28183e-06
-9.76083e-08
-9.02198e-07
-4.07826e-07
-8.95552e-07
3.83408e-07
4.8676e-07
-1.00117e-07
1.25906e-07
5.35955e-10
-1.31238e-07
-1.39485e-07
1.31958e-06
-2.79354e-07
-1.20821e-06
3.28945e-07
-1.06531e-06
6.9675e-08
8.14416e-07
-5.62807e-10
2.90041e-07
-1.63534e-06
1.73999e-06
-1.58996e-06
1.76532e-06
-8.15665e-07
5.65505e-07
5.88394e-07
-2.9466e-07
1.88027e-06
-9.55446e-07
1.29324e-06
1.68185e-06
-1.62512e-06
1.29975e-06
-1.79737e-06
-6.87258e-08
9.38312e-07
-3.29586e-07
1.36289e-06
-1.48493e-09
8.10895e-07
2.88392e-07
1.766e-06
-1.58953e-06
1.74052e-06
-1.63487e-06
2.81003e-10
2.79073e-07
2.08379e-07
-1.51548e-06
1.31942e-07
-1.30603e-07
-1.38448e-07
1.32025e-06
-2.80321e-07
6.30116e-07
-1.2092e-06
3.30634e-07
-1.0659e-06
6.85835e-08
8.15556e-07
2.89809e-07
-1.63615e-06
1.73997e-06
-1.5904e-06
1.7656e-06
-8.1721e-07
5.68339e-07
5.89072e-07
-2.04484e-06
-2.92647e-07
1.68216e-06
-1.62664e-06
-1.79865e-06
1.30012e-06
1.87889e-06
-9.54264e-07
1.29001e-06
-6.80035e-08
-6.19778e-07
9.37316e-07
-3.31055e-07
1.36335e-06
8.12498e-07
2.89474e-07
1.76602e-06
-1.59009e-06
1.74051e-06
-1.636e-06
2.7999e-07
2.09059e-07
-1.5157e-06
1.31378e-07
9.7576e-10
-8.96263e-07
4.87362e-07
-1.01658e-07
3.84497e-07
1.28119e-06
-4.0599e-07
-9.02554e-07
-1.24448e-06
4.83223e-07
4.07205e-07
2.23778e-10
7.71854e-07
-3.85129e-07
-4.38219e-07
1.75448e-07
-8.96308e-07
4.87473e-07
-9.98508e-08
3.84654e-07
1.28189e-06
1.25208e-07
-9.70884e-08
-4.08065e-07
-9.01947e-07
-1.24561e-06
2.5807e-07
4.82318e-07
4.07618e-07
7.71917e-07
-1.24288e-07
-3.85164e-07
-4.38098e-07
1.75857e-07
9.50034e-10
2.0766e-07
-1.51649e-06
2.8038e-07
5.64466e-07
-2.93134e-07
-2.04608e-06
1.29374e-06
-9.55831e-07
-1.79812e-06
1.30031e-06
-1.62556e-06
1.68237e-06
-6.69657e-08
1.36304e-06
-3.32169e-07
9.37809e-07
-8.07373e-07
-1.83239e-09
8.04977e-07
2.8928e-07
1.76627e-06
-1.59097e-06
1.7407e-06
-1.63637e-06
-1.06433e-06
-1.20901e-06
3.31147e-07
-1.87002e-09
2.89273e-07
-1.63593e-06
1.74074e-06
1.76633e-06
-1.59055e-06
7.09172e-10
-1.2999e-07
-2.81365e-07
-1.39262e-07
1.32176e-06
2.09531e-07
-1.51665e-06
2.81163e-07
5.68732e-07
1.87899e-06
-2.91284e-07
-1.79941e-06
1.30016e-06
1.68214e-06
-1.62726e-06
-2.04524e-06
1.29013e-06
-9.54441e-07
-6.19751e-07
-6.77885e-08
1.36404e-06
-3.31504e-07
9.36894e-07
-8.09884e-07
8.08794e-07
2.90662e-07
1.76592e-06
-1.59139e-06
1.74058e-06
-1.63719e-06
6.30095e-07
-1.06597e-06
-1.20931e-06
3.31559e-07
2.91631e-07
-1.63714e-06
1.7404e-06
1.76584e-06
-1.59126e-06
-1.29759e-07
-2.81773e-07
-1.37923e-07
1.32208e-06
-7.7296e-08
5.01849e-07
4.98996e-08
1.23607e-07
3.3353e-08
-7.97024e-08
5.03462e-07
4.993e-08
1.22766e-07
-4.17704e-07
1.17859e-07
-1.89875e-06
-1.89501e-06
-1.23391e-07
-2.80006e-07
-5.01819e-07
7.01807e-07
-4.17192e-07
-1.2237e-07
-2.80244e-07
-5.03619e-07
7.0329e-07
-2.57005e-07
2.31482e-07
5.88757e-08
-5.8654e-08
-1.26994e-07
-2.31544e-07
4.15589e-07
-2.32925e-07
-3.22489e-08
2.32356e-07
-1.88112e-06
-1.17992e-07
1.73241e-06
1.728e-06
-1.2281e-07
7.01947e-07
-5.02684e-07
-2.80614e-07
-4.17005e-07
6.20001e-07
-1.21987e-07
7.03837e-07
-5.04164e-07
-2.8068e-07
4.9343e-08
-7.71215e-08
5.02233e-07
3.35201e-08
-6.30051e-07
4.96836e-08
-7.9341e-08
5.03817e-07
-1.26806e-07
-5.82167e-08
-2.31983e-07
-2.56697e-07
2.31564e-07
-1.32015e-09
-1.3224e-07
-1.38046e-07
1.3197e-06
-2.76938e-07
-1.20937e-06
3.28118e-07
-1.06551e-06
7.02189e-08
8.17006e-07
1.23568e-09
2.92132e-07
-1.6361e-06
1.73872e-06
-1.59097e-06
1.76404e-06
-8.18319e-07
5.66234e-07
5.64225e-07
-2.97321e-07
1.88109e-06
-9.53768e-07
1.29118e-06
1.68263e-06
-1.62573e-06
1.30085e-06
-1.79794e-06
-6.903e-08
9.37896e-07
-3.28967e-07
1.36315e-06
2.03904e-09
8.13895e-07
2.89071e-07
1.76486e-06
-1.59037e-06
1.73949e-06
-1.63574e-06
-1.14276e-09
2.75299e-07
2.09217e-07
-1.5135e-06
1.34288e-07
7.71077e-07
-1.26842e-07
-4.38866e-07
-3.80528e-07
1.74753e-07
-1.24693e-06
4.81645e-07
4.12019e-07
2.5869e-07
9.45718e-08
-8.95953e-07
3.79313e-07
4.88517e-07
-1.01192e-07
1.28414e-07
1.28262e-06
-9.73201e-08
-9.03071e-07
-4.09644e-07
1.2741e-07
-1.32249e-07
1.31927e-06
-2.76705e-07
-1.40564e-07
8.19199e-07
2.88549e-07
-1.63489e-06
1.7392e-06
-1.59002e-06
1.76457e-06
-8.20493e-07
-1.20957e-06
-1.06445e-06
3.26034e-07
7.17045e-08
6.29355e-07
5.61004e-07
5.93558e-07
-2.98811e-07
1.68233e-06
-1.6234e-06
-1.79599e-06
1.30099e-06
-2.04222e-06
1.87991e-06
-9.52693e-07
1.29076e-06
8.15885e-07
2.84028e-07
1.76574e-06
-1.58926e-06
1.74014e-06
-1.63429e-06
2.74879e-07
-1.51374e-06
2.07285e-07
1.34478e-07
-6.97089e-08
9.39179e-07
-3.27514e-07
1.36149e-06
-6.20826e-07
-8.9513e-07
-1.41058e-09
-9.96724e-08
4.86968e-07
3.82314e-07
1.28103e-06
-4.04185e-07
-9.01134e-07
-1.24496e-06
4.82798e-07
4.06733e-07
7.71388e-07
-6.93169e-10
-3.84846e-07
1.75952e-07
-4.37851e-07
-1.82475e-09
2.09773e-07
-1.51541e-06
2.80097e-07
5.66087e-07
-2.9841e-07
-2.04556e-06
1.29184e-06
-9.53622e-07
-1.79807e-06
1.30146e-06
-1.62583e-06
1.68354e-06
-6.60774e-08
1.36296e-06
-3.32944e-07
9.36686e-07
-8.10494e-07
2.31891e-09
8.06955e-07
2.86637e-07
1.76633e-06
-1.59053e-06
1.74084e-06
-1.63615e-06
-1.06573e-06
-1.2092e-06
3.3084e-07
2.53474e-09
2.86916e-07
-1.63578e-06
1.74035e-06
1.76576e-06
-1.59029e-06
-1.66534e-09
-1.27886e-07
-2.84004e-07
-1.37238e-07
1.32218e-06
-8.95363e-07
4.86858e-07
3.8257e-07
-1.02317e-07
1.28088e-06
-9.91601e-08
-9.03198e-07
-4.05449e-07
1.26923e-07
7.71088e-07
-1.23848e-07
-3.85074e-07
-4.37796e-07
1.74937e-07
-1.24556e-06
4.83303e-07
4.06804e-07
2.58133e-07
-1.51577e-06
2.79887e-07
2.0645e-07
5.59727e-07
-2.99196e-07
-1.79605e-06
1.30201e-06
1.68337e-06
-1.62346e-06
1.88117e-06
-2.04248e-06
1.29171e-06
-9.52527e-07
-8.11889e-07
8.0808e-07
2.8175e-07
1.76724e-06
-1.58935e-06
1.74149e-06
-1.63472e-06
-6.69203e-08
1.36131e-06
9.38676e-07
-3.31907e-07
-6.20278e-07
2.82444e-07
-1.6345e-06
1.74091e-06
1.76666e-06
-1.58925e-06
-1.27929e-07
-2.83719e-07
1.32162e-06
-1.40554e-07
-1.06351e-06
-1.21038e-06
3.30145e-07
6.2848e-07
-3.87772e-10
-1.25503e-07
1.76104e-07
-4.3726e-07
-3.83562e-07
4.06293e-07
4.82613e-07
9.8934e-08
-9.87366e-08
-9.03042e-07
-4.06218e-07
-9.76972e-10
3.83368e-07
-1.00046e-07
4.86998e-07
1.25832e-07
-7.70218e-07
-1.30646e-07
1.32003e-06
-2.80342e-07
-1.40273e-07
8.16018e-07
2.91295e-07
-1.6352e-06
1.73897e-06
-1.59024e-06
1.76468e-06
-8.17203e-07
1.24547e-06
-1.20908e-06
-1.06434e-06
3.28819e-07
6.28855e-07
7.02652e-08
5.64103e-07
5.90564e-07
-2.96232e-07
1.68129e-06
-1.62446e-06
-1.79717e-06
1.2999e-06
-2.04121e-06
1.87954e-06
-9.51562e-07
1.29154e-06
8.14005e-07
2.89961e-07
1.76543e-06
-1.58995e-06
1.73962e-06
-1.6349e-06
8.95505e-07
2.79853e-07
-1.51505e-06
2.07355e-07
1.31383e-07
-1.2822e-06
-6.81393e-08
9.38446e-07
-3.29961e-07
1.36201e-06
-6.20148e-07
-1.25412e-07
-4.37204e-07
-3.83495e-07
1.75505e-07
4.82585e-07
4.09087e-07
9.6828e-08
2.56974e-07
3.82848e-07
4.87072e-07
-1.01603e-07
1.26211e-07
-9.84537e-08
-9.04719e-07
-4.07821e-07
1.28791e-07
8.95668e-07
-1.75242e-09
2.09867e-07
-1.51549e-06
2.80784e-07
5.71949e-07
-2.91467e-07
-2.0493e-06
1.29293e-06
-9.57248e-07
-1.7992e-06
1.29947e-06
1.68169e-06
-1.62695e-06
-1.28122e-06
1.36409e-06
-3.31597e-07
9.36915e-07
-8.08482e-07
3.12927e-09
2.94672e-07
1.76494e-06
-1.59179e-06
-1.63716e-06
1.73969e-06
1.24468e-06
-1.06585e-06
-1.20857e-06
3.31951e-07
3.32695e-09
2.95276e-07
-1.63703e-06
1.73916e-06
1.76444e-06
-1.59165e-06
-7.71283e-07
-1.8342e-09
-2.81493e-07
-1.36901e-07
1.32165e-06
-1.57365e-09
-9.94948e-08
4.8715e-07
3.84083e-07
-9.78696e-08
-4.07088e-07
-9.03073e-07
4.82859e-07
4.0639e-07
-8.19711e-10
-1.24694e-07
-3.84663e-07
1.76622e-07
-4.37729e-07
8.96016e-07
-1.51601e-06
2.81119e-07
2.0648e-07
5.6039e-07
-2.92572e-07
-1.79683e-06
1.30126e-06
1.68289e-06
-1.62424e-06
1.8784e-06
-2.04403e-06
1.29031e-06
-9.54416e-07
-8.08834e-07
8.06467e-07
2.89617e-07
1.76603e-06
-1.59083e-06
1.74041e-06
-1.63596e-06
-1.28098e-06
-6.79593e-08
1.36227e-06
9.39031e-07
-3.31646e-07
-6.20716e-07
2.90359e-07
-1.63592e-06
1.73975e-06
1.76562e-06
-1.59092e-06
-7.71158e-07
-1.29918e-07
-2.81725e-07
1.32146e-06
-1.40491e-07
1.24661e-06
-1.06304e-06
-1.21091e-06
3.31333e-07
6.27869e-07
4.87169e-07
3.8414e-07
-1.02276e-07
-9.67889e-08
-9.03577e-07
-4.08482e-07
1.2787e-07
-1.24878e-07
-3.84382e-07
-4.37873e-07
1.75155e-07
4.83157e-07
4.07468e-07
2.57532e-07
-3.3025e-08
2.30038e-07
4.15201e-07
-6.02742e-08
-2.28825e-07
-3.11683e-08
2.29129e-07
4.14314e-07
-6.03442e-08
-2.28457e-07
-6.29515e-07
-7.801e-08
4.84138e-08
5.0357e-07
-6.30034e-07
-7.68265e-08
4.98554e-08
5.02815e-07
-4.11342e-07
2.04848e-06
2.04837e-06
1.13185e-07
-1.89739e-06
-1.90131e-06
-1.21123e-07
6.19831e-07
-2.81138e-07
-5.04535e-07
7.02165e-07
-1.21399e-07
6.19004e-07
-2.80381e-07
-5.03867e-07
7.00957e-07
4.14486e-07
-1.25941e-07
-2.29233e-07
-3.26178e-08
-2.56144e-07
2.28487e-07
4.13558e-07
-1.24793e-07
-2.29106e-07
-3.07829e-08
-2.58038e-07
2.28477e-07
-1.88196e-06
-1.8822e-06
-1.13385e-07
1.73013e-06
1.73607e-06
6.18554e-07
7.02934e-07
-5.05809e-07
-2.80165e-07
6.18521e-07
7.01064e-07
-5.04952e-07
-2.79741e-07
-6.30327e-07
4.89938e-08
-7.76471e-08
5.05242e-07
-6.29942e-07
4.9897e-08
-7.67989e-08
5.04664e-07
7.70974e-07
-1.22659e-07
-3.87788e-07
-4.36356e-07
1.75056e-07
-1.24594e-06
4.82823e-07
4.08434e-07
-8.94956e-07
3.86345e-07
4.8513e-07
-1.00362e-07
1.28231e-06
-9.75973e-08
-9.02443e-07
-4.07926e-07
-1.17318e-09
-1.27327e-07
-2.8593e-07
-1.37465e-07
1.32245e-06
-1.20837e-06
-1.06533e-06
3.33742e-07
8.0144e-07
-7.48465e-10
2.87524e-07
-1.63619e-06
1.74143e-06
1.76698e-06
-1.59059e-06
5.67246e-07
5.75212e-07
-2.91533e-07
1.88243e-06
-9.5722e-07
1.29493e-06
1.68281e-06
-1.62688e-06
1.30029e-06
-1.79909e-06
1.14539e-10
2.83661e-07
2.08692e-07
-1.51703e-06
-6.48366e-08
9.36644e-07
-3.35317e-07
1.36322e-06
7.38549e-10
7.97111e-07
2.89555e-07
1.76716e-06
-1.59094e-06
1.74161e-06
-1.63655e-06
-1.27294e-07
-2.8591e-07
-1.39876e-07
1.32288e-06
6.30124e-07
-1.20974e-06
-1.06593e-06
3.31812e-07
8.06354e-07
2.88612e-07
-1.6368e-06