/*--------------------------------*- C++ -*----------------------------------*\
| =========                 |                                                 |
| \\      /  F ield         | OpenFOAM: The Open Source CFD Toolbox           |
|  \\    /   O peration     | Version:  2206                                  |
|   \\  /    A nd           | Website:  www.openfoam.com                      |
|    \\/     M anipulation  |                                                 |
\*---------------------------------------------------------------------------*/
FoamFile
{
    version     2.0;
    format      ascii;
    arch        "LSB;label=32;scalar=64";
    class       volVectorField;
    location    "2.5";
    object      U;
}
// * * * * * * * * * * * * * * * * * * * * * * * * * * * * * * * * * * * * * //

dimensions      [0 1 -1 0 0 0 0];

internalField   nonuniform List<vector> 
28549
(
(-0.000118867 -0.000220162 4.62064e-05)
(-0.000220251 -0.000119581 4.61199e-05)
(-0.00118653 -0.00118528 -8.45548e-05)
(-9.52784e-05 0.000319636 4.31398e-05)
(0.000320974 -9.56947e-05 4.29511e-05)
(-0.000616619 1.26223e-05 3.62407e-05)
(-0.00117732 -3.69722e-05 4.75777e-05)
(-1.53547e-05 -3.31064e-05 1.98231e-05)
(0.000167081 0.000146516 5.64172e-05)
(0.000155435 -0.00041656 3.62389e-05)
(0.000133769 -5.41702e-05 7.91805e-05)
(-0.00061682 -1.30138e-05 3.62896e-05)
(-0.00117776 3.69434e-05 4.75706e-05)
(-1.56401e-05 3.23602e-05 1.97865e-05)
(0.000167271 -0.000146514 5.78195e-05)
(0.000132999 5.40116e-05 7.95086e-05)
(0.000154914 0.000416339 3.63917e-05)
(-0.000168581 -0.000147734 5.71822e-05)
(-0.000155191 0.000415831 3.7343e-05)
(0.0011773 3.66654e-05 4.64644e-05)
(-0.0002204 0.000119677 4.61749e-05)
(-0.00118632 0.00118608 -8.39588e-05)
(0.000320891 9.57623e-05 4.30158e-05)
(-9.55953e-05 -0.000319471 4.32095e-05)
(-0.00011852 0.000220467 4.62384e-05)
(-3.19333e-05 1.62197e-05 2.06971e-05)
(0.000146768 -0.000168229 5.47699e-05)
(-5.36281e-05 -0.000134474 7.90683e-05)
(-0.000415419 -0.000154669 3.63282e-05)
(3.3474e-05 1.60935e-05 2.08983e-05)
(-0.00014759 -0.000168975 5.46616e-05)
(5.3422e-05 -0.000134966 7.92707e-05)
(0.000416941 -0.000154532 3.70202e-05)
(1.34371e-05 0.000617779 3.70205e-05)
(-3.70561e-05 0.00117725 4.75222e-05)
(-1.21695e-05 0.00061779 3.70008e-05)
(3.73685e-05 0.00117769 4.68407e-05)
(0.00118562 0.00118652 -8.30457e-05)
(-0.000319606 9.56221e-05 4.33935e-05)
(9.63166e-05 -0.000320095 4.34768e-05)
(0.000220635 0.000118358 4.47292e-05)
(0.000119209 0.000220678 4.53273e-05)
(-0.000717624 0.000398896 4.63075e-05)
(0.000398338 -0.000717704 4.66285e-05)
(-6.30724e-05 -6.4165e-05 4.42949e-05)
(9.50697e-05 -4.98799e-05 4.75691e-05)
(0.000268311 -0.000334332 2.94904e-05)
(0.000288259 -0.000949085 3.64833e-05)
(-5.06866e-05 9.53317e-05 4.77061e-05)
(-0.000333349 0.000267406 2.93521e-05)
(-0.000947228 0.000286178 3.64329e-05)
(-0.000200381 -2.90931e-05 5.15762e-05)
(-0.000594052 8.76807e-05 3.69623e-05)
(0.000174723 4.74328e-06 4.93066e-05)
(0.000619822 -2.45484e-05 3.73348e-05)
(0.000154926 -1.19519e-05 5.00994e-05)
(0.000589889 -0.000141504 3.81281e-05)
(-0.000222658 -9.86696e-06 5.06674e-05)
(-0.000152074 6.49469e-06 4.7703e-05)
(-0.000559226 3.21025e-05 4.23807e-05)
(0.0011982 -0.000145514 4.86477e-05)
(0.000157548 -7.15956e-05 4.70484e-05)
(0.000569482 -0.000105851 4.33429e-05)
(-0.000200545 2.93176e-05 5.13039e-05)
(0.000174888 -4.908e-06 4.92381e-05)
(-0.000594327 -8.80758e-05 3.72572e-05)
(0.000619712 2.4066e-05 3.75919e-05)
(0.000155197 1.17036e-05 4.96788e-05)
(-0.000222802 9.98231e-06 5.07103e-05)
(0.000589798 0.000141159 3.85916e-05)
(-0.000152149 -6.49785e-06 4.72861e-05)
(-0.000559474 -3.20714e-05 4.27572e-05)
(0.0011981 0.000145739 4.89524e-05)
(0.000157592 7.1529e-05 4.63566e-05)
(0.000569297 0.000105741 4.38397e-05)
(0.000152339 -6.43172e-06 4.71435e-05)
(0.000559771 -3.22405e-05 4.29469e-05)
(-0.0011974 0.000146557 4.83628e-05)
(-0.000157562 7.19038e-05 4.56469e-05)
(-0.000568741 0.000106553 4.35775e-05)
(0.000271486 3.7335e-05 4.67821e-05)
(4.76969e-06 -5.59385e-06 4.50806e-05)
(0.000398255 0.00071806 4.7085e-05)
(-0.000717709 -0.000398814 4.7064e-05)
(-6.32352e-05 6.45146e-05 4.4386e-05)
(-0.000311839 -0.000588401 4.75957e-05)
(0.000587566 0.000311497 4.76273e-05)
(0.000722826 0.00016307 3.74828e-05)
(-5.13017e-05 -9.51747e-05 4.7778e-05)
(-0.000333397 -0.000267782 2.92273e-05)
(-9.39543e-05 -0.000137432 4.39388e-05)
(0.000561746 0.000126332 2.98393e-05)
(-0.000947754 -0.000286433 3.61723e-05)
(-4.63753e-05 8.85544e-06 4.92204e-05)
(-0.000162837 -0.000723246 3.80001e-05)
(9.51241e-05 5.00229e-05 4.79765e-05)
(0.000268054 0.000334971 2.97493e-05)
(0.000137631 9.304e-05 4.39411e-05)
(0.00028787 0.000949307 3.68092e-05)
(-9.34698e-06 4.69275e-05 4.9259e-05)
(-0.000125205 -0.000561862 3.01308e-05)
(-3.83182e-05 -0.000271928 4.74557e-05)
(-3.04426e-05 0.000200819 5.16098e-05)
(8.8596e-05 0.000594838 3.77296e-05)
(4.38262e-06 -0.000174226 4.83891e-05)
(-2.39552e-05 -0.000618884 3.74699e-05)
(-1.2362e-05 -0.000154598 4.91945e-05)
(-0.000141192 -0.000589286 3.83356e-05)
(-1.08261e-05 0.000223574 5.08462e-05)
(5.38991e-06 0.000151684 4.81061e-05)
(3.2411e-05 0.000559842 4.28272e-05)
(-0.000146946 -0.00119773 4.93321e-05)
(-7.2188e-05 -0.000157798 4.6725e-05)
(-0.000106284 -0.00056936 4.36913e-05)
(2.84673e-05 0.000201115 5.14921e-05)
(-8.71704e-05 0.000594956 3.78068e-05)
(-5.18049e-06 -0.000174054 4.85335e-05)
(2.48149e-05 -0.0006189 3.73664e-05)
(1.14037e-05 -0.000154472 4.92786e-05)
(0.000141905 -0.00058905 3.83521e-05)
(9.1369e-06 0.000223596 5.09922e-05)
(-7.10487e-06 0.000152572 4.73772e-05)
(-3.17421e-05 0.000560085 4.2851e-05)
(0.00014567 -0.00119762 4.91407e-05)
(7.12487e-05 -0.000157349 4.58952e-05)
(0.000106408 -0.000568751 4.37233e-05)
(-4.53879e-06 -4.17489e-06 4.5371e-05)
(-0.000398357 0.000717238 4.55163e-05)
(0.000717936 -0.000398244 4.56491e-05)
(6.49008e-05 6.35664e-05 4.52374e-05)
(0.000312694 -0.000588353 4.66659e-05)
(-0.000588701 0.000312681 4.69902e-05)
(-0.000722855 0.000163585 3.82404e-05)
(5.00701e-05 -9.5476e-05 4.67837e-05)
(0.000334269 -0.000267858 3.11583e-05)
(9.38915e-05 -0.000137194 4.38513e-05)
(0.000949168 -0.00028784 3.79872e-05)
(-0.000561899 0.000125983 3.07818e-05)
(4.77347e-05 9.05006e-06 4.85252e-05)
(0.000163253 -0.00072242 3.81429e-05)
(-9.50123e-05 5.11491e-05 4.69842e-05)
(-0.000267189 0.000333893 3.07196e-05)
(-0.000137121 9.47068e-05 4.40637e-05)
(-0.000285877 0.000947895 3.78748e-05)
(0.000126253 -0.000561958 3.02722e-05)
(8.97013e-06 4.72635e-05 4.902e-05)
(-0.000271111 3.77117e-05 4.63484e-05)
(3.66705e-05 -0.000270737 4.71209e-05)
(-0.000235835 -0.000233123 0.000122475)
(0.000185843 -9.12396e-05 5.31142e-05)
(-9.16283e-05 0.000186053 5.42696e-05)
(9.23568e-05 9.33865e-05 4.82395e-05)
(0.000234038 -0.000234471 0.0001224)
(-0.000186237 -9.10551e-05 5.36919e-05)
(9.07458e-05 0.000186491 5.35113e-05)
(-9.33101e-05 9.29266e-05 4.83943e-05)
(-0.000234977 0.000234491 0.000121841)
(-9.21253e-05 -0.000186665 5.36167e-05)
(0.000185778 9.16488e-05 5.34888e-05)
(9.26891e-05 -9.30126e-05 4.81052e-05)
(0.000234192 0.000234472 0.000121372)
(9.09981e-05 -0.000186535 5.34446e-05)
(-0.000186849 9.13183e-05 5.35401e-05)
(-9.31787e-05 -9.33088e-05 4.82116e-05)
(-0.000883042 -0.000118129 -3.54633e-06)
(-0.00011932 -0.000881504 -3.7771e-06)
(-0.000573519 -0.000574439 2.06839e-05)
(0.00096345 -3.79369e-05 -1.91635e-05)
(-1.8834e-05 -0.000125137 1.7959e-05)
(-0.00112862 1.02859e-05 -5.49255e-06)
(-4.02818e-05 2.57195e-05 2.10328e-05)
(-0.00114889 6.89074e-05 -1.32202e-05)
(-5.14444e-05 7.47723e-05 1.95801e-05)
(0.000933222 -6.04415e-06 -1.17436e-05)
(0.00106238 -3.05734e-05 -1.20961e-05)
(6.64327e-05 -0.000291161 2.1997e-05)
(-0.000933507 0.000270576 2.72478e-05)
(-0.000126502 0.00037959 3.7003e-05)
(0.000982625 -2.19966e-05 2.43591e-05)
(-0.00112915 8.72657e-05 -7.90121e-06)
(-0.000154299 0.000235598 2.38506e-05)
(0.000962861 3.76078e-05 -1.93168e-05)
(-0.00112892 -1.09494e-05 -5.32748e-06)
(-1.91752e-05 0.000124632 1.75567e-05)
(-4.05001e-05 -2.63371e-05 2.09948e-05)
(-0.00114952 -6.92008e-05 -1.36142e-05)
(0.000932848 5.41767e-06 -1.15783e-05)
(-5.1634e-05 -7.54156e-05 1.93227e-05)
(0.00106184 3.02069e-05 -1.19553e-05)
(6.58218e-05 0.000290945 2.20998e-05)
(-0.000934037 -0.000271112 2.73808e-05)
(-0.000126573 -0.00037976 3.70723e-05)
(-0.00112989 -8.76569e-05 -7.57177e-06)
(-0.000154522 -0.00023619 2.40799e-05)
(0.000982028 2.16265e-05 2.40216e-05)
(-0.00106294 2.97045e-05 -1.09852e-05)
(-6.55301e-05 0.000290945 2.36855e-05)
(0.000933709 -0.00027155 2.86247e-05)
(0.000127346 -0.0003795 3.72952e-05)
(0.00112968 -8.72938e-05 -6.42326e-06)
(0.000154607 -0.000235956 2.47147e-05)
(-0.000982796 2.11982e-05 2.456e-05)
(0.000450169 -0.00045019 2.43673e-05)
(0.00115747 -0.00115589 -8.549e-05)
(-0.00011922 0.000881894 -3.23289e-06)
(-0.000882943 0.000118645 -3.73441e-06)
(0.000216812 -0.000550941 1.5987e-06)
(-0.00057387 0.000574448 2.08704e-05)
(0.000553141 -0.000216354 1.16751e-06)
(-3.67961e-05 -0.000963623 -1.86792e-05)
(1.08857e-05 0.00112864 -4.60023e-06)
(-0.000123728 1.94926e-05 1.86684e-05)
(2.68553e-05 4.03305e-05 2.09952e-05)
(6.96588e-05 0.00114924 -1.26069e-05)
(-4.87971e-06 -0.000933552 -1.13e-05)
(7.61292e-05 5.15247e-05 1.95487e-05)
(-2.92253e-05 -0.00106227 -1.24269e-05)
(-0.000290078 -6.53708e-05 2.25994e-05)
(0.000272079 0.000934281 2.7122e-05)
(0.000380019 0.000126724 3.66797e-05)
(8.79249e-05 0.00112974 -7.68118e-06)
(-2.07753e-05 -0.000981896 2.32187e-05)
(0.000236601 0.000154477 2.38073e-05)
(3.82717e-05 -0.000963813 -1.84907e-05)
(-1.02382e-05 0.00112845 -4.22974e-06)
(0.00012558 1.95214e-05 1.90205e-05)
(-2.53449e-05 4.02449e-05 2.10071e-05)
(-6.87033e-05 0.0011488 -1.23865e-05)
(6.59326e-06 -0.000933596 -1.11161e-05)
(-7.45052e-05 5.11563e-05 1.97454e-05)
(3.05162e-05 -0.00106271 -1.21747e-05)
(0.000291582 -6.55267e-05 2.30628e-05)
(-0.000270239 0.000933537 2.79814e-05)
(-0.000379133 0.000126786 3.69896e-05)
(-8.68853e-05 0.00112933 -7.43565e-06)
(-0.00023532 0.000154382 2.3997e-05)
(2.17941e-05 -0.000983052 2.37705e-05)
(-0.000450718 -0.000449863 2.48616e-05)
(-0.00115666 -0.00115864 -8.43067e-05)
(0.000118556 0.000882993 -2.23153e-06)
(0.000881599 0.000119551 -2.40818e-06)
(0.000574516 0.000573839 2.23713e-05)
(-0.000217374 -0.000553503 2.04649e-06)
(-0.000551721 -0.000217694 1.88749e-06)
(-0.000234617 -0.000234669 0.000123085)
(-0.000167853 0.000147011 5.51646e-05)
(-0.000234472 -0.000234249 0.000121238)
(-0.000167834 0.000146975 5.45716e-05)
(0.000145915 -0.000166345 5.47029e-05)
(0.00118636 0.00118795 -8.39657e-05)
(-0.000166861 0.000145703 5.35301e-05)
(-0.00118617 -0.00118508 -8.45326e-05)
(0.00115736 0.00115582 -8.50106e-05)
(0.000146909 0.000167713 5.79564e-05)
(-0.000146716 0.00016777 5.814e-05)
(0.000146401 0.000167469 5.7448e-05)
(-0.000146885 0.0001679 5.75115e-05)
(0.00118588 -0.00118614 -8.47766e-05)
(-0.00115642 0.00115733 -8.65797e-05)
(0.000167575 0.000146684 5.55412e-05)
(0.000167546 -0.000146259 5.84269e-05)
(0.000166805 0.000146239 5.50031e-05)
(0.000166781 -0.000145532 5.76854e-05)
(-0.000167708 -0.000146559 5.85306e-05)
(-0.00016798 0.000147217 5.46479e-05)
(-0.000167498 -0.000146397 5.77746e-05)
(-0.00118761 -0.00118651 -8.42238e-05)
(0.00115916 0.00115801 -8.46296e-05)
(0.00014638 0.000167372 5.71475e-05)
(-0.000146689 0.000167639 5.73698e-05)
(0.000147414 0.000168296 5.57209e-05)
(-0.000145889 0.000166704 5.65624e-05)
(0.00118615 -0.00118641 -8.49988e-05)
(-0.00115655 0.00115773 -8.52811e-05)
(0.000167033 0.0001463 5.45928e-05)
(0.000166852 -0.000145543 5.74741e-05)
(0.000168365 0.000147209 5.34922e-05)
(0.000167264 -0.000145782 5.66764e-05)
(-0.00016727 -0.000146052 5.74124e-05)
(-0.000166861 0.00014624 5.37371e-05)
(-0.000166726 -0.000146408 5.59738e-05)
(-0.00118755 0.00118705 -8.41221e-05)
(0.00115827 -0.0011578 -8.30874e-05)
(-0.000145995 -0.000166935 5.46988e-05)
(-0.00115801 -0.00116015 -8.26061e-05)
(-0.000145774 0.000165907 5.67623e-05)
(0.00118748 -0.00118764 -8.47925e-05)
(-2.42033e-05 0.000619074 3.8059e-05)
(-3.66387e-05 -0.00117736 4.81198e-05)
(-0.000146477 0.00119814 4.91079e-05)
(1.29099e-05 -0.000616451 3.62391e-05)
(0.000119482 -0.000220329 4.63982e-05)
(3.7458e-05 0.000271622 4.68735e-05)
(0.000619709 -2.44287e-05 3.75142e-05)
(-0.00117762 -3.74221e-05 4.80954e-05)
(0.00119819 -0.000145358 4.93042e-05)
(-0.00061671 1.26178e-05 3.51799e-05)
(0.000234439 -0.000234529 0.000122884)
(-0.00023485 0.000234984 0.000123421)
(0.000234702 0.000235024 0.000122934)
(-0.000234709 -0.000234331 0.000121837)
(0.000234321 -0.000234357 0.00012239)
(-0.000234753 0.000234938 0.00012185)
(0.000234523 0.000234848 0.000121814)
(4.05719e-05 2.56079e-05 2.15625e-05)
(-0.000155372 -0.000416037 3.59119e-05)
(-0.000134109 -5.36826e-05 7.97776e-05)
(-0.000167798 0.000147086 5.52366e-05)
(0.00012671 0.000379637 3.73849e-05)
(-0.000134084 -5.36099e-05 7.96257e-05)
(1.5064e-05 -3.29676e-05 1.98215e-05)
(-2.45399e-05 0.000619086 3.92087e-05)
(-3.59377e-05 -0.00117663 4.65326e-05)
(1.29915e-05 -0.000615627 3.68125e-05)
(-0.000145882 0.00119718 4.75452e-05)
(0.000119159 -0.000220672 4.63851e-05)
(3.72971e-05 0.000271546 4.69894e-05)
(0.000618545 -2.50091e-05 3.96424e-05)
(-0.00117667 -3.63439e-05 4.58672e-05)
(-0.000615351 1.25078e-05 3.67298e-05)
(0.00119715 -0.000145954 4.74033e-05)
(0.00023438 -0.000234371 0.00012225)
(-0.000234699 0.000234978 0.000121386)
(0.000234535 0.000234778 0.000121526)
(-0.000233857 -0.000234208 0.000120358)
(0.000234654 -0.000234505 0.000121247)
(-0.000234618 0.000234916 0.00011992)
(0.000234219 0.00023442 0.000119919)
(4.01861e-05 2.53174e-05 2.24416e-05)
(-0.00015556 -0.000416153 3.59242e-05)
(-0.000133735 -5.35279e-05 7.89498e-05)
(-0.000167585 0.000146691 5.43194e-05)
(1.55389e-05 -3.33375e-05 2.0109e-05)
(0.000126657 0.000379532 3.76273e-05)
(-0.000133319 -5.36136e-05 7.88629e-05)
(-0.000219854 0.000119567 4.46471e-05)
(0.000271678 3.76893e-05 4.49404e-05)
(2.63929e-05 4.03777e-05 2.42745e-05)
(-5.38636e-05 -0.000132612 7.89057e-05)
(-0.000415335 -0.00015553 3.56969e-05)
(0.000145742 -0.000166255 5.44242e-05)
(-5.37601e-05 -0.00013262 7.83811e-05)
(0.000379609 0.000127392 3.88862e-05)
(-3.20229e-05 1.57217e-05 2.0419e-05)
(-0.000320002 9.53823e-05 4.28089e-05)
(9.57002e-05 -0.000320778 4.252e-05)
(-0.00115675 -0.00115786 -8.38689e-05)
(9.31237e-05 -0.000137814 4.46266e-05)
(-0.000137393 9.37707e-05 4.49667e-05)
(0.000119925 -0.000219812 4.50389e-05)
(0.000234747 -0.000234683 0.000120761)
(-0.000156116 -0.000415719 3.70104e-05)
(-0.000132628 -5.3904e-05 7.78091e-05)
(1.5541e-05 -3.24053e-05 2.20349e-05)
(-0.000118237 -0.000220664 4.71518e-05)
(-3.84647e-05 0.000272132 4.72788e-05)
(-0.000220405 -0.000119499 4.73929e-05)
(0.000271684 -3.73716e-05 4.77142e-05)
(-9.55816e-05 0.000319593 4.27711e-05)
(0.000320486 -9.59283e-05 4.24884e-05)
(0.00115672 0.00115515 -8.61879e-05)
(0.000137727 -9.23314e-05 4.41818e-05)
(-9.34162e-05 0.000137894 4.39962e-05)
(-3.78025e-05 0.000271448 4.64802e-05)
(-0.000118506 -0.000220305 4.59853e-05)
(0.000271144 -3.69788e-05 4.61065e-05)
(-0.000220244 -0.000119458 4.61583e-05)
(-0.001187 -0.001186 -8.45342e-05)
(0.000137611 -9.30882e-05 4.45689e-05)
(-9.41045e-05 0.000137532 4.44795e-05)
(-9.53368e-05 0.000320039 4.27699e-05)
(0.000320962 -9.57547e-05 4.2411e-05)
(2.44097e-05 0.000619092 3.80851e-05)
(3.71865e-05 -0.00117744 4.75717e-05)
(0.000145722 0.00119808 4.88757e-05)
(-1.28537e-05 -0.00061625 3.6253e-05)
(2.63759e-05 -4.07748e-05 2.13979e-05)
(-0.000416016 0.000155367 3.55223e-05)
(-5.40151e-05 0.000133373 7.99061e-05)
(0.000146446 0.000167305 5.81022e-05)
(0.000379953 -0.000126352 3.69821e-05)
(-5.40422e-05 0.000133123 7.97906e-05)
(-3.26335e-05 -1.53739e-05 1.95172e-05)
(-2.59671e-05 -4.06346e-05 2.1649e-05)
(0.000416375 0.000155117 3.59438e-05)
(5.39236e-05 0.000133425 8.00345e-05)
(-0.000146683 0.000167679 5.80252e-05)
(-0.000379595 -0.000126575 3.71853e-05)
(5.37809e-05 0.00013328 7.98764e-05)
(3.28337e-05 -1.53512e-05 1.97738e-05)
(1.31818e-05 -0.000616574 3.64611e-05)
(-0.000145892 0.00119777 4.84488e-05)
(-3.64858e-05 -0.00117697 4.72929e-05)
(-2.41299e-05 0.000619852 3.84476e-05)
(-1.26854e-05 -0.000616545 3.65094e-05)
(0.000145514 0.00119806 4.91285e-05)
(3.69423e-05 -0.00117738 4.73751e-05)
(2.4543e-05 0.000619775 3.84205e-05)
(-3.23667e-05 -1.56075e-05 1.97809e-05)
(0.000146348 0.000167375 5.7521e-05)
(0.000379802 -0.000126666 3.77494e-05)
(-5.41369e-05 0.000133191 7.90871e-05)
(-0.000415689 0.000155577 3.57848e-05)
(-5.41295e-05 0.000133176 7.92422e-05)
(2.63641e-05 -4.02299e-05 2.19625e-05)
(3.30608e-05 -1.55999e-05 2.00404e-05)
(-0.000146764 0.000167838 5.76835e-05)
(-0.000379547 -0.000126511 3.73253e-05)
(5.38086e-05 0.000133415 7.93661e-05)
(0.000416381 0.00015519 3.6105e-05)
(5.37937e-05 0.000133526 7.94388e-05)
(-2.58102e-05 -4.01781e-05 2.20628e-05)
(9.57073e-05 0.000320788 4.29798e-05)
(-0.000319518 -9.5617e-05 4.32463e-05)
(-0.00115595 0.00115692 -8.63761e-05)
(-0.000137445 -9.3735e-05 4.4093e-05)
(9.28944e-05 0.000137485 4.44649e-05)
(0.000220104 -0.000118677 4.56653e-05)
(-0.000271467 -3.8018e-05 4.63407e-05)
(3.71644e-05 0.000271365 4.726e-05)
(0.000119345 -0.000220403 4.60612e-05)
(0.0011859 -0.00118622 -8.48077e-05)
(-0.00013746 -9.38579e-05 4.43636e-05)
(9.28215e-05 0.00013747 4.464e-05)
(9.5687e-05 0.000320815 4.29501e-05)
(-0.000319664 -9.56565e-05 4.32457e-05)
(-0.000271355 -3.79206e-05 4.67789e-05)
(0.000220243 -0.000118542 4.55939e-05)
(-4.07311e-05 2.57328e-05 2.10779e-05)
(0.000154844 -0.00041627 3.52564e-05)
(0.000133818 -5.368e-05 8.01844e-05)
(0.000167185 0.000146277 5.56408e-05)
(-0.000126206 0.000379843 3.69869e-05)
(0.000133438 -5.35422e-05 8.00184e-05)
(-1.5005e-05 -3.30152e-05 1.86326e-05)
(0.000619799 2.39286e-05 3.75453e-05)
(-0.001178 3.73974e-05 4.86546e-05)
(-0.000616754 -1.31467e-05 3.51481e-05)
(0.00119871 0.000146321 4.94064e-05)
(-4.07662e-05 -2.67366e-05 2.10744e-05)
(0.00013344 5.39573e-05 8.04309e-05)
(0.00015452 0.000415893 3.47335e-05)
(0.000166847 -0.000145585 5.85281e-05)
(0.000132872 5.39752e-05 8.02118e-05)
(-1.51224e-05 3.21718e-05 1.8561e-05)
(-0.00012632 -0.000380109 3.67231e-05)
(-0.000616149 1.25551e-05 3.55281e-05)
(0.00119762 -0.00014531 4.80254e-05)
(-0.00117711 -3.67712e-05 4.71342e-05)
(0.000619672 -2.46431e-05 3.87804e-05)
(-1.51428e-05 -3.32409e-05 1.92824e-05)
(0.000166945 0.000146243 5.51651e-05)
(-0.000126727 0.000379377 3.82116e-05)
(0.000132964 -5.35541e-05 7.93372e-05)
(0.000155441 -0.000416319 3.55166e-05)
(0.000133081 -5.35337e-05 7.96153e-05)
(-4.02942e-05 2.54792e-05 2.30203e-05)
(-0.000616222 -1.34955e-05 3.55497e-05)
(0.00119797 0.000146361 4.86317e-05)
(0.000619668 2.39234e-05 3.88206e-05)
(-0.00117735 3.68535e-05 4.70793e-05)
(-1.53263e-05 3.18688e-05 1.92739e-05)
(0.000166672 -0.000145435 5.80724e-05)
(0.000132445 5.40347e-05 7.94388e-05)
(-0.000126948 -0.000379867 3.79076e-05)
(0.000132611 5.40519e-05 7.97994e-05)
(-4.03851e-05 -2.67501e-05 2.30016e-05)
(0.000154981 0.000415565 3.5273e-05)
(-0.000619209 -2.45959e-05 3.79326e-05)
(0.00117687 -3.66389e-05 4.70283e-05)
(-0.00119746 -0.00014617 4.84162e-05)
(0.000616284 1.26864e-05 3.63275e-05)
(4.06986e-05 -2.67089e-05 2.16497e-05)
(-0.000133608 5.4076e-05 8.00088e-05)
(-0.000155044 0.00041562 3.51506e-05)
(-0.000167378 -0.000146592 5.84299e-05)
(-0.000133376 5.44369e-05 8.00461e-05)
(1.52477e-05 3.22587e-05 1.97348e-05)
(0.000126381 -0.000379861 3.72574e-05)
(-0.000619175 2.40999e-05 3.79545e-05)
(0.00117726 3.67078e-05 4.77869e-05)
(0.000616404 -1.32538e-05 3.61264e-05)
(-0.00119835 0.000146994 4.86838e-05)
(1.52996e-05 -3.32824e-05 1.9887e-05)
(-0.000167883 0.000147094 5.48014e-05)
(0.00012654 0.000379542 3.72561e-05)
(-0.000133817 -5.36144e-05 7.9237e-05)
(-0.000155546 -0.000416177 3.61523e-05)
(-0.000133934 -5.33918e-05 7.92932e-05)
(4.03705e-05 2.53885e-05 2.1949e-05)
(0.000616387 1.24675e-05 3.6303e-05)
(-0.00119746 -0.000146106 4.88613e-05)
(0.0011769 -3.64852e-05 4.69111e-05)
(-0.000619503 -2.47753e-05 3.8333e-05)
(1.55352e-05 3.19471e-05 2.00073e-05)
(-0.000167306 -0.000145466 5.78235e-05)
(-0.000133288 5.42787e-05 7.91153e-05)
(0.00012677 -0.000380069 3.72519e-05)
(-0.00013352 5.39902e-05 7.95689e-05)
(4.03823e-05 -2.67813e-05 2.20264e-05)
(-0.000154459 0.000415283 3.59506e-05)
(0.000616481 -1.3507e-05 3.63301e-05)
(-0.00119773 0.000146564 4.94521e-05)
(-0.00061957 2.39457e-05 3.82337e-05)
(0.00117755 3.67798e-05 4.68534e-05)
(-0.000118396 -0.000220289 4.50332e-05)
(-3.75053e-05 0.000271006 4.52261e-05)
(-0.000220102 -0.000119429 4.44144e-05)
(0.000270997 -3.70385e-05 4.52137e-05)
(-9.54089e-05 0.000320312 4.29923e-05)
(0.000321226 -9.56966e-05 4.27712e-05)
(0.00115813 0.00115677 -8.39344e-05)
(0.000137445 -9.36233e-05 4.4837e-05)
(-9.43872e-05 0.000137308 4.47763e-05)
(-3.69904e-05 0.000270708 4.55673e-05)
(-0.000118508 -0.000220149 4.42526e-05)
(0.00027076 -3.6548e-05 4.53955e-05)
(-0.000219916 -0.000119593 4.41846e-05)
(-0.0011878 -0.00118658 -8.41202e-05)
(0.00013702 -9.36716e-05 4.48257e-05)
(-9.45411e-05 0.00013718 4.46769e-05)
(-9.55901e-05 0.000320352 4.35496e-05)
(0.000321204 -9.55986e-05 4.34456e-05)
(2.41993e-05 0.000619211 3.91042e-05)
(3.66841e-05 -0.0011775 4.75445e-05)
(-1.28942e-05 -0.000615742 3.67618e-05)
(0.000145781 0.00119831 4.89572e-05)
(2.56422e-05 -4.02703e-05 2.31616e-05)
(-0.000415989 0.000156038 3.6336e-05)
(-5.40805e-05 0.00013285 7.88063e-05)
(0.000146631 0.000167569 5.67612e-05)
(-3.27177e-05 -1.53922e-05 2.02338e-05)
(0.000379417 -0.000127108 3.85458e-05)
(-5.39021e-05 0.000133093 7.83861e-05)
(-2.65262e-05 -4.01467e-05 2.31615e-05)
(0.000416362 0.000155074 3.61184e-05)
(5.39544e-05 0.000133053 7.9246e-05)
(-0.000146319 0.000167228 5.72439e-05)
(3.27956e-05 -1.5468e-05 2.03256e-05)
(-0.000379938 -0.000126437 3.76551e-05)
(5.40495e-05 0.000132917 7.88737e-05)
(1.23938e-05 -0.000616035 3.74712e-05)
(-0.000146314 0.00119748 4.80255e-05)
(-3.60151e-05 -0.00117657 4.59205e-05)
(-2.51221e-05 0.00061896 3.93915e-05)
(-1.35758e-05 -0.000615986 3.73819e-05)
(0.000145841 0.00119838 4.8466e-05)
(3.70591e-05 -0.00117725 4.72679e-05)
(2.36147e-05 0.00061911 3.93156e-05)
(-3.35307e-05 -1.59607e-05 2.11685e-05)
(0.000146987 0.000167911 5.631e-05)
(0.000378849 -0.000127056 3.85323e-05)
(-5.36111e-05 0.000133401 7.76955e-05)
(-0.000416404 0.000155942 3.71312e-05)
(-5.37103e-05 0.000133374 7.79741e-05)
(2.47e-05 -3.98435e-05 2.32586e-05)
(3.19099e-05 -1.59885e-05 2.12033e-05)
(-0.000145985 0.000166878 5.7016e-05)
(-0.000379983 -0.000126355 3.81514e-05)
(5.437e-05 0.000132713 7.80867e-05)
(0.00041595 0.000155037 3.64632e-05)
(5.41584e-05 0.000132906 7.86115e-05)
(-2.74278e-05 -3.9855e-05 2.33642e-05)
(9.57364e-05 0.00032067 4.30187e-05)
(-0.000319674 -9.56465e-05 4.32776e-05)
(-0.0011563 0.00115737 -8.61373e-05)
(-0.000137722 -9.35702e-05 4.45631e-05)
(9.31259e-05 0.000137498 4.49892e-05)
(0.000220292 -0.000118431 4.57554e-05)
(-0.000271266 -3.77711e-05 4.66825e-05)
(3.67029e-05 0.000271301 4.65256e-05)
(0.000119519 -0.000220234 4.58665e-05)
(0.00118684 -0.00118732 -8.50329e-05)
(-0.000137775 -9.37859e-05 4.47781e-05)
(9.34555e-05 0.000137479 4.52672e-05)
(9.55012e-05 0.000321089 4.31486e-05)
(-0.000319524 -9.55521e-05 4.34261e-05)
(-0.000271076 -3.76408e-05 4.60881e-05)
(0.000220415 -0.000118182 4.53065e-05)
(-4.02226e-05 2.50517e-05 2.43038e-05)
(0.000155692 -0.000416304 3.65399e-05)
(0.000133092 -5.34996e-05 7.89423e-05)
(0.000167544 0.000146568 5.42201e-05)
(-1.53928e-05 -3.34035e-05 2.09061e-05)
(-0.000127076 0.000379117 3.89612e-05)
(0.000133514 -5.34134e-05 7.8522e-05)
(0.000618671 2.37663e-05 3.96975e-05)
(-0.00117709 3.6741e-05 4.63005e-05)
(-0.000615505 -1.36062e-05 3.675e-05)
(0.00119785 0.000146806 4.75462e-05)
(-4.02283e-05 -2.71373e-05 2.43775e-05)
(0.000132613 5.41058e-05 7.90621e-05)
(0.000155084 0.000415409 3.62074e-05)
(0.000166857 -0.000145447 5.72393e-05)
(-1.55991e-05 3.17384e-05 2.08884e-05)
(0.00013285 5.41559e-05 7.8583e-05)
(-0.000127129 -0.000380139 3.87838e-05)
(-0.000615999 1.23655e-05 3.77882e-05)
(0.00119752 -0.000145879 4.76088e-05)
(-0.00117684 -3.65999e-05 4.5758e-05)
(0.000618853 -2.51401e-05 3.94225e-05)
(-1.61139e-05 -3.35946e-05 2.21228e-05)
(0.000167988 0.000146879 5.37284e-05)
(-0.000126777 0.000378873 3.87327e-05)
(0.000133962 -5.32475e-05 7.77969e-05)
(0.00015543 -0.000416318 3.74651e-05)
(0.000133948 -5.32873e-05 7.79279e-05)
(-3.93895e-05 2.47882e-05 2.40105e-05)
(-0.000615971 -1.37468e-05 3.78042e-05)
(0.00119759 0.000146476 4.76414e-05)
(-0.00117684 3.67929e-05 4.54987e-05)
(0.000619034 2.37052e-05 3.95984e-05)
(-1.63187e-05 3.15202e-05 2.22153e-05)
(0.000166887 -0.000145502 5.67007e-05)
(0.000133122 5.40361e-05 7.77026e-05)
(-0.000127229 -0.000379664 3.88837e-05)
(0.000133106 5.41707e-05 7.80341e-05)
(0.000154903 0.000415251 3.70974e-05)
(-3.93755e-05 -2.72249e-05 2.41367e-05)
(-0.000619822 -2.48089e-05 3.8831e-05)
(0.00117709 -3.63321e-05 4.71671e-05)
(0.000616535 1.25103e-05 3.65219e-05)
(-0.0011975 -0.000145772 4.8819e-05)
(4.01666e-05 -2.69006e-05 2.27662e-05)
(-0.000133155 5.41822e-05 7.90329e-05)
(-0.000155365 0.00041565 3.60651e-05)
(-0.000166925 -0.000145903 5.70152e-05)
(1.56884e-05 3.20579e-05 2.01959e-05)
(-0.000132685 5.40992e-05 7.88262e-05)
(0.000126693 -0.000379922 3.82059e-05)
(-0.000620075 2.38323e-05 3.8925e-05)
(0.00117725 3.66454e-05 4.74616e-05)
(0.000616453 -1.33848e-05 3.64506e-05)
(-0.00119792 0.000145659 4.88082e-05)
(1.56088e-05 -3.29786e-05 2.05573e-05)
(-0.000167112 0.000146433 5.41919e-05)
(0.000126846 0.000379519 3.83624e-05)
(-0.000132739 -5.38747e-05 7.82759e-05)
(-0.000155544 -0.000416175 3.60993e-05)
(-0.000132845 -5.37583e-05 7.85202e-05)
(3.98335e-05 2.58658e-05 2.39022e-05)
(0.000615851 1.28338e-05 3.69216e-05)
(-0.0011973 -0.000145626 4.82349e-05)
(0.00117711 -3.56797e-05 4.68065e-05)
(-0.000619896 -2.44245e-05 3.97734e-05)
(1.5734e-05 3.23714e-05 2.08977e-05)
(-0.000166649 -0.000145918 5.69811e-05)
(-0.000132356 5.39667e-05 7.78983e-05)
(0.000126898 -0.000379495 3.91286e-05)
(-0.000132481 5.39538e-05 7.84058e-05)
(-0.00015581 0.000415899 3.66787e-05)
(3.99176e-05 -2.61587e-05 2.42735e-05)
(0.000615709 -1.32951e-05 3.70293e-05)
(-0.00119733 0.000145631 4.7821e-05)
(0.00117677 3.57597e-05 4.664e-05)
(-0.000619731 2.42949e-05 3.98863e-05)
(0.000321214 9.51956e-05 4.2506e-05)
(-9.51888e-05 -0.000320121 4.24374e-05)
(0.00115753 -0.00115659 -8.4072e-05)
(-9.41054e-05 -0.000137586 4.47673e-05)
(0.000137235 9.31189e-05 4.4998e-05)
(-0.000118834 0.000219842 4.46882e-05)
(-3.86695e-05 -0.000271936 4.55723e-05)
(0.000271059 3.71599e-05 4.53441e-05)
(-0.000219523 0.000119831 4.34638e-05)
(-0.00118806 0.00118793 -8.39734e-05)
(-9.46045e-05 -0.000137034 4.49756e-05)
(0.000321467 9.50574e-05 4.30731e-05)
(-9.49172e-05 -0.0003202 4.32355e-05)
(-0.000118578 0.000219851 4.37739e-05)
(-2.57933e-05 4.0214e-05 2.44578e-05)
(5.35987e-05 -0.000133013 7.91351e-05)
(0.00041616 -0.000154976 3.58403e-05)
(-0.000146023 -0.000166937 5.42871e-05)
(5.35491e-05 -0.000132943 7.86184e-05)
(-0.000379556 0.00012685 3.86539e-05)
(3.30626e-05 1.56849e-05 2.05605e-05)
(-2.43158e-05 -0.000619104 4.00982e-05)
(-3.6448e-05 0.00117661 4.60938e-05)
(-0.000147205 -0.00119724 4.78458e-05)
(1.35371e-05 0.000616137 3.63646e-05)
(2.45105e-05 -0.000619214 4.01204e-05)
(3.69891e-05 0.00117722 4.65165e-05)
(0.000146482 -0.00119784 4.83778e-05)
(-1.25735e-05 0.000616147 3.64287e-05)
(-3.20678e-05 1.59311e-05 2.21726e-05)
(0.000145913 -0.000166473 5.3676e-05)
(-5.38307e-05 -0.0001328 7.78192e-05)
(-0.000415315 -0.000155511 3.70603e-05)
(3.29997e-05 1.58924e-05 2.23315e-05)
(-0.000146358 -0.000167279 5.40927e-05)
(5.34719e-05 -0.000133168 7.83064e-05)
(0.000415781 -0.000155505 3.69065e-05)
(1.34478e-05 0.000615112 3.80404e-05)
(-3.58497e-05 0.00117672 4.5613e-05)
(-1.28332e-05 0.000615094 3.80645e-05)
(3.65313e-05 0.00117697 4.61095e-05)
(0.000220338 0.000118647 4.62066e-05)
(-0.000271393 3.77545e-05 4.66928e-05)
(0.000119673 0.000220018 4.52921e-05)
(3.78948e-05 -0.000271816 4.62048e-05)
(0.00118711 0.00118846 -8.33715e-05)
(9.36318e-05 -0.000137362 4.48242e-05)
(-0.000320366 9.53633e-05 4.29786e-05)
(9.52372e-05 -0.0003212 4.32e-05)
(-0.000270649 3.71128e-05 4.56143e-05)
(0.000220398 0.000118238 4.51209e-05)
(0.000119468 0.000219883 4.45056e-05)
(3.64005e-05 -0.00117646 4.65838e-05)
(0.000415972 0.00015586 3.68477e-05)
(9.51207e-05 0.000321974 4.34806e-05)
(-0.000320192 -9.49307e-05 4.38773e-05)
(0.000220002 -0.000118239 4.48513e-05)
(0.00117656 -3.50932e-05 4.61927e-05)
(0.000614584 1.3418e-05 3.80368e-05)
(-0.000132739 5.38437e-05 7.75684e-05)
(1.57027e-05 3.29675e-05 2.24472e-05)
(0.000614706 -1.2892e-05 3.81455e-05)
(-1.23597e-05 0.00015583 4.91075e-05)
(-1.02731e-05 -0.000223398 4.9734e-05)
(-0.00014127 0.00058953 3.90073e-05)
(1.30867e-05 -0.000616847 3.62648e-05)
(4.65449e-06 0.000175228 4.82332e-05)
(8.82762e-05 -0.00059404 3.70423e-05)
(-3.01961e-05 -0.000200771 5.062e-05)
(5.82474e-06 -0.000151941 4.66331e-05)
(-0.000146511 0.00119812 4.95078e-05)
(3.2333e-05 -0.000559471 4.2629e-05)
(-0.000105977 0.000569468 4.39382e-05)
(-7.1781e-05 0.000158013 4.59037e-05)
(-7.20298e-05 0.000158173 4.59125e-05)
(-0.000105927 0.000569693 4.40635e-05)
(-3.65947e-05 -0.00117711 4.78408e-05)
(3.24853e-05 -0.000559311 4.25406e-05)
(5.46651e-06 -0.000151832 4.68287e-05)
(-2.98551e-05 -0.000200936 5.02554e-05)
(-2.43763e-05 0.000619091 3.78376e-05)
(4.86245e-06 0.000175478 4.81669e-05)
(8.80326e-05 -0.000593872 3.70515e-05)
(-1.00162e-05 -0.000223367 4.93621e-05)
(-0.000141427 0.00058936 3.8744e-05)
(-1.20003e-05 0.000155833 4.8908e-05)
(3.74428e-05 0.000271651 4.68909e-05)
(0.000119459 -0.000220357 4.62329e-05)
(0.000155345 -1.20364e-05 5.02406e-05)
(0.000590001 -0.000141132 3.8476e-05)
(-0.000222608 -9.37054e-06 5.07171e-05)
(-0.000616679 1.24924e-05 3.51151e-05)
(-0.000593944 8.76324e-05 3.606e-05)
(0.000174852 4.95343e-06 4.94371e-05)
(-0.000200169 -2.91963e-05 5.1515e-05)
(-0.000151772 6.22175e-06 4.7979e-05)
(0.00119815 -0.00014556 4.96808e-05)
(-0.000559469 3.21733e-05 4.18755e-05)