/*--------------------------------*- C++ -*----------------------------------*\
| =========                 |                                                 |
| \\      /  F ield         | OpenFOAM: The Open Source CFD Toolbox           |
|  \\    /   O peration     | Version:  2206                                  |
|   \\  /    A nd           | Website:  www.openfoam.com                      |
|    \\/     M anipulation  |                                                 |
\*---------------------------------------------------------------------------*/
FoamFile
{
    version     2.0;
    format      ascii;
    arch        "LSB;label=32;scalar=64";
    class       volVectorField;
    location    "2.5";
    object      U;
}
// * * * * * * * * * * * * * * * * * * * * * * * * * * * * * * * * * * * * * //

dimensions      [0 1 -1 0 0 0 0];

internalField   nonuniform List<vector> 
28448
(
(-1.41811e-07 -1.48123e-07 0.100461)
(-1.21114e-07 2.03859e-07 0.100461)
(2.13068e-07 -1.19721e-07 0.100461)
(-3.15107e-05 -3.15233e-05 0.100461)
(-1.42243e-07 -1.43506e-07 0.100461)
(-1.05559e-07 2.05248e-07 0.100461)
(2.04212e-07 -1.01738e-07 0.100461)
(-3.14936e-05 -3.15036e-05 0.100461)
(-1.45117e-07 -1.46378e-07 0.100461)
(-1.03347e-07 2.0216e-07 0.100461)
(2.0209e-07 -9.98495e-08 0.100461)
(-3.14916e-05 -3.15018e-05 0.100461)
(-1.4489e-07 -1.45455e-07 0.100461)
(-1.05485e-07 2.04524e-07 0.100461)
(2.04987e-07 -9.7983e-08 0.100461)
(-3.14936e-05 -3.14998e-05 0.100461)
(-1.44023e-07 -1.4397e-07 0.100461)
(-1.04336e-07 2.04915e-07 0.100461)
(2.1313e-07 -9.08253e-08 0.100461)
(-3.14969e-05 -3.14927e-05 0.100461)
(-1.43667e-07 -1.44841e-07 0.100461)
(-1.05322e-07 2.05339e-07 0.100461)
(2.07353e-07 -9.94998e-08 0.100461)
(-3.14953e-05 -3.14989e-05 0.100461)
(-1.44543e-07 -1.46484e-07 0.100461)
(-1.05436e-07 2.03412e-07 0.100461)
(2.03882e-07 -1.01309e-07 0.100461)
(-3.14919e-05 -3.15022e-05 0.100461)
(-1.44908e-07 -1.47175e-07 0.100461)
(-1.05042e-07 2.02344e-07 0.100461)
(2.0327e-07 -1.01404e-07 0.100461)
(-3.14926e-05 -3.15038e-05 0.100461)
(-1.44804e-07 -1.47195e-07 0.100461)
(-1.03741e-07 2.01621e-07 0.100461)
(2.03049e-07 -1.009e-07 0.100461)
(-3.14918e-05 -3.15023e-05 0.100461)
(-1.45079e-07 -1.47197e-07 0.100461)
(-1.02967e-07 2.00739e-07 0.100461)
(2.01994e-07 -1.00179e-07 0.100461)
(-3.14912e-05 -3.1502e-05 0.100461)
(-1.45273e-07 -1.47255e-07 0.100461)
(-1.044e-07 2.01923e-07 0.100461)
(2.02411e-07 -1.00597e-07 0.100461)
(-3.1492e-05 -3.15032e-05 0.100461)
(-1.44884e-07 -1.47396e-07 0.100461)
(-1.04063e-07 2.01461e-07 0.100461)
(2.02785e-07 -1.00969e-07 0.100461)
(-3.14907e-05 -3.15016e-05 0.100461)
(-1.44815e-07 -1.47416e-07 0.100461)
(-1.04883e-07 2.02681e-07 0.100461)
(2.03965e-07 -1.01723e-07 0.100461)
(-3.14916e-05 -3.15021e-05 0.100461)
(-1.44588e-07 -1.46875e-07 0.100461)
(-1.05763e-07 2.03043e-07 0.100461)
(2.03962e-07 -1.02435e-07 0.100461)
(-3.14935e-05 -3.15037e-05 0.100461)
(-1.44771e-07 -1.47322e-07 0.100461)
(-1.04521e-07 2.02149e-07 0.100461)
(2.03387e-07 -1.01286e-07 0.100461)
(-3.14924e-05 -3.15033e-05 0.100461)
(-1.44372e-07 -1.47542e-07 0.100461)
(-1.04737e-07 2.01992e-07 0.100461)
(2.04145e-07 -1.02078e-07 0.100461)
(-3.14923e-05 -3.15034e-05 0.100461)
(-1.45029e-07 -1.49805e-07 0.100461)
(-9.9702e-08 1.98726e-07 0.100461)
(2.0332e-07 -9.96527e-08 0.100461)
(-3.14901e-05 -3.15016e-05 0.100461)
(-1.56851e-07 -1.567e-07 0.100461)
(1.88183e-07 -7.73077e-08 0.100461)
(-3.21965e-05 -3.21776e-05 0.100461)
(1.94914e-07 8.31253e-08 0.100461)
(-1.96871e-07 8.88539e-08 0.100461)
(3.21935e-05 -3.21786e-05 0.100461)
(8.77821e-08 1.85696e-07 0.100461)
(1.10354e-07 -2.18457e-07 0.100461)
(-9.79043e-08 1.83176e-07 0.100461)
(-1.23292e-07 -2.13861e-07 0.100461)
(-3.2145e-05 3.21702e-05 0.100461)
(2.09778e-07 -1.10829e-07 0.100461)
(-2.0733e-07 -1.2544e-07 0.100461)
(3.21469e-05 3.21672e-05 0.100461)
(3.14995e-05 3.14757e-05 0.100461)
(-3.21826e-05 -3.2158e-05 0.100461)
(2.13354e-07 1.14005e-07 0.100461)
(-2.14838e-07 1.15287e-07 0.100461)
(2.11216e-07 1.10524e-07 0.100461)
(-2.09873e-07 1.16328e-07 0.100461)
(-3.15048e-05 3.14709e-05 0.100461)
(3.21835e-05 -3.21587e-05 0.100461)
(1.15431e-07 2.05597e-07 0.100461)
(1.17773e-07 -2.21434e-07 0.100461)
(1.08734e-07 2.0908e-07 0.100461)
(1.08208e-07 -2.07671e-07 0.100461)
(-1.30981e-07 -2.17512e-07 0.100461)
(-1.08408e-07 2.08427e-07 0.100461)
(-1.18068e-07 -2.04249e-07 0.100461)
(3.1496e-05 -3.15319e-05 0.100461)
(-3.21596e-05 3.21905e-05 0.100461)
(-2.11225e-07 -1.33374e-07 0.100461)
(2.05938e-07 -1.02819e-07 0.100461)
(-2.02491e-07 -1.17637e-07 0.100461)
(3.21622e-05 3.21859e-05 0.100461)
(3.15048e-05 3.1487e-05 0.100461)
(-3.21868e-05 -3.21636e-05 0.100461)
(2.08138e-07 1.09879e-07 0.100461)
(-2.07413e-07 1.1269e-07 0.100461)
(2.06413e-07 1.03478e-07 0.100461)
(-2.05515e-07 1.09529e-07 0.100461)
(-3.15048e-05 3.14807e-05 0.100461)
(3.2187e-05 -3.21636e-05 0.100461)
(1.0633e-07 2.06907e-07 0.100461)
(1.05807e-07 -2.06378e-07 0.100461)
(1.01962e-07 2.03357e-07 0.100461)
(1.03708e-07 -2.04866e-07 0.100461)
(-1.15869e-07 -2.02345e-07 0.100461)
(-1.02894e-07 2.02991e-07 0.100461)
(-1.14543e-07 -2.02127e-07 0.100461)
(3.14807e-05 -3.15119e-05 0.100461)
(-3.21624e-05 3.21927e-05 0.100461)
(-2.00466e-07 -1.15255e-07 0.100461)
(2.02616e-07 -9.81937e-08 0.100461)
(-2.00108e-07 -1.13747e-07 0.100461)
(3.21644e-05 3.21876e-05 0.100461)
(3.15011e-05 3.14821e-05 0.100461)
(-3.21859e-05 -3.21621e-05 0.100461)
(2.05424e-07 1.06924e-07 0.100461)
(-2.05465e-07 1.09555e-07 0.100461)
(2.0663e-07 1.04218e-07 0.100461)
(-2.0688e-07 1.10784e-07 0.100461)
(-3.15018e-05 3.14759e-05 0.100461)
(3.21862e-05 -3.21617e-05 0.100461)
(1.03258e-07 2.03478e-07 0.100461)
(1.03531e-07 -2.04895e-07 0.100461)
(1.02326e-07 2.0418e-07 0.100461)
(1.05739e-07 -2.04609e-07 0.100461)
(-1.14409e-07 -2.00929e-07 0.100461)
(-1.04631e-07 2.04897e-07 0.100461)
(-1.17196e-07 -2.02173e-07 0.100461)
(3.14777e-05 -3.15095e-05 0.100461)
(-3.216e-05 3.21937e-05 0.100461)
(-1.98931e-07 -1.13297e-07 0.100461)
(2.0467e-07 -9.79041e-08 0.100461)
(-2.02507e-07 -1.13577e-07 0.100461)
(3.21625e-05 3.21884e-05 0.100461)
(3.1501e-05 3.14828e-05 0.100461)
(-3.21853e-05 -3.21604e-05 0.100461)
(2.05863e-07 1.0766e-07 0.100461)
(-2.06848e-07 1.10663e-07 0.100461)
(2.0718e-07 1.04985e-07 0.100461)
(-2.06526e-07 1.1113e-07 0.100461)
(-3.15022e-05 3.14777e-05 0.100461)
(3.21854e-05 -3.21607e-05 0.100461)
(1.03758e-07 2.04885e-07 0.100461)
(1.05818e-07 -2.03517e-07 0.100461)
(1.02824e-07 2.05932e-07 0.100461)
(1.09154e-07 -1.99639e-07 0.100461)
(-1.17553e-07 -2.00407e-07 0.100461)
(-1.04219e-07 2.05438e-07 0.100461)
(-1.19639e-07 -1.97329e-07 0.100461)
(3.14805e-05 -3.1507e-05 0.100461)
(-3.21533e-05 3.22002e-05 0.100461)
(-2.0257e-07 -1.12224e-07 0.100461)
(2.11443e-07 -8.51581e-08 0.100461)
(-2.07788e-07 -1.04222e-07 0.100461)
(3.21567e-05 3.21941e-05 0.100461)
(3.15009e-05 3.14834e-05 0.100461)
(-3.21847e-05 -3.21603e-05 0.100461)
(2.06529e-07 1.08209e-07 0.100461)
(-2.06229e-07 1.10888e-07 0.100461)
(2.08366e-07 1.05766e-07 0.100461)
(-2.07009e-07 1.11864e-07 0.100461)
(-3.15016e-05 3.14774e-05 0.100461)
(3.21856e-05 -3.21612e-05 0.100461)
(1.03902e-07 2.06365e-07 0.100461)
(1.08352e-07 -1.99513e-07 0.100461)
(1.04204e-07 2.06433e-07 0.100461)
(1.08129e-07 -2.03349e-07 0.100461)
(-1.19887e-07 -1.96206e-07 0.100461)
(-1.0469e-07 2.05845e-07 0.100461)
(-1.18832e-07 -1.99599e-07 0.100461)
(3.14842e-05 -3.14995e-05 0.100461)
(-3.21568e-05 3.2195e-05 0.100461)
(-2.08456e-07 -1.03873e-07 0.100461)
(2.09577e-07 -9.62215e-08 0.100461)
(-2.07166e-07 -1.11997e-07 0.100461)
(3.21594e-05 3.21915e-05 0.100461)
(3.15028e-05 3.14846e-05 0.100461)
(-3.21856e-05 -3.21621e-05 0.100461)
(2.07656e-07 1.08619e-07 0.100461)
(-2.07269e-07 1.11767e-07 0.100461)
(2.07531e-07 1.04936e-07 0.100461)
(-2.06492e-07 1.10634e-07 0.100461)
(-3.15029e-05 3.1478e-05 0.100461)
(3.21859e-05 -3.21628e-05 0.100461)
(1.05611e-07 2.06449e-07 0.100461)
(1.07411e-07 -2.04986e-07 0.100461)
(1.03924e-07 2.0449e-07 0.100461)
(1.05938e-07 -2.06297e-07 0.100461)
(-1.1736e-07 -2.00518e-07 0.100461)
(-1.04454e-07 2.03591e-07 0.100461)
(-1.15969e-07 -2.02568e-07 0.100461)
(3.1482e-05 -3.15076e-05 0.100461)
(-3.2161e-05 3.21915e-05 0.100461)
(-2.03612e-07 -1.12129e-07 0.100461)
(2.0413e-07 -9.94579e-08 0.100461)
(-2.00849e-07 -1.16609e-07 0.100461)
(3.21635e-05 3.21869e-05 0.100461)
(3.15023e-05 3.14834e-05 0.100461)
(-3.21862e-05 -3.21634e-05 0.100461)
(2.07336e-07 1.079e-07 0.100461)
(-2.06801e-07 1.10199e-07 0.100461)
(2.07261e-07 1.04037e-07 0.100461)
(-2.0683e-07 1.10251e-07 0.100461)
(-3.15028e-05 3.14768e-05 0.100461)
(3.21868e-05 -3.21635e-05 0.100461)
(1.05196e-07 2.05151e-07 0.100461)
(1.04957e-07 -2.06591e-07 0.100461)
(1.03417e-07 2.03583e-07 0.100461)
(1.05136e-07 -2.07089e-07 0.100461)
(-1.16197e-07 -2.0269e-07 0.100461)
(-1.04909e-07 2.03577e-07 0.100461)
(-1.16142e-07 -2.04386e-07 0.100461)
(3.14788e-05 -3.15106e-05 0.100461)
(-3.21615e-05 3.21916e-05 0.100461)
(-2.007e-07 -1.12286e-07 0.100461)
(2.04012e-07 -1.0032e-07 0.100461)
(-2.0155e-07 -1.17749e-07 0.100461)
(3.21644e-05 3.2187e-05 0.100461)
(3.15023e-05 3.14828e-05 0.100461)
(-3.21865e-05 -3.21637e-05 0.100461)
(2.0593e-07 1.06402e-07 0.100461)
(-2.06208e-07 1.09311e-07 0.100461)
(2.06871e-07 1.03459e-07 0.100461)
(-2.05821e-07 1.09001e-07 0.100461)
(-3.15029e-05 3.14773e-05 0.100461)
(3.21869e-05 -3.21642e-05 0.100461)
(1.04091e-07 2.03197e-07 0.100461)
(1.04384e-07 -2.06791e-07 0.100461)
(1.03031e-07 2.03031e-07 0.100461)
(1.03975e-07 -2.06613e-07 0.100461)
(-1.1614e-07 -2.03778e-07 0.100461)
(-1.03467e-07 2.02413e-07 0.100461)
(-1.14499e-07 -2.0287e-07 0.100461)
(3.14793e-05 -3.15112e-05 0.100461)
(-3.2162e-05 3.21918e-05 0.100461)
(-2.00936e-07 -1.14553e-07 0.100461)
(2.03361e-07 -9.99047e-08 0.100461)
(-1.99914e-07 -1.14756e-07 0.100461)
(3.21646e-05 3.21876e-05 0.100461)
(3.15018e-05 3.14824e-05 0.100461)
(-3.21855e-05 -3.2163e-05 0.100461)
(2.06107e-07 1.06368e-07 0.100461)
(-2.05567e-07 1.08945e-07 0.100461)
(2.07061e-07 1.03182e-07 0.100461)
(-2.06207e-07 1.09228e-07 0.100461)
(-3.15025e-05 3.14763e-05 0.100461)
(3.21862e-05 -3.21637e-05 0.100461)
(1.03807e-07 2.03313e-07 0.100461)
(1.04002e-07 -2.06811e-07 0.100461)
(1.0268e-07 2.03046e-07 0.100461)
(1.04126e-07 -2.06686e-07 0.100461)
(-1.14732e-07 -2.02945e-07 0.100461)
(-1.03523e-07 2.02646e-07 0.100461)
(-1.14761e-07 -2.03255e-07 0.100461)
(3.14786e-05 -3.1511e-05 0.100461)
(-3.21614e-05 3.21913e-05 0.100461)
(-1.99951e-07 -1.14715e-07 0.100461)
(2.03553e-07 -9.93561e-08 0.100461)
(-2.00444e-07 -1.14749e-07 0.100461)
(3.21638e-05 3.21866e-05 0.100461)
(3.15013e-05 3.14815e-05 0.100461)
(-3.21862e-05 -3.21637e-05 0.100461)
(2.054e-07 1.05907e-07 0.100461)
(-2.04816e-07 1.08055e-07 0.100461)
(2.06719e-07 1.03324e-07 0.100461)
(-2.06355e-07 1.09063e-07 0.100461)
(-3.15017e-05 3.14753e-05 0.100461)
(3.21864e-05 -3.21635e-05 0.100461)
(1.02934e-07 2.02443e-07 0.100461)
(1.02699e-07 -2.05599e-07 0.100461)
(1.02567e-07 2.02656e-07 0.100461)
(1.03586e-07 -2.06282e-07 0.100461)
(-1.13811e-07 -2.01827e-07 0.100461)
(-1.03939e-07 2.02699e-07 0.100461)
(-1.15383e-07 -2.04002e-07 0.100461)
(3.14779e-05 -3.15101e-05 0.100461)
(-3.21618e-05 3.21916e-05 0.100461)
(-1.98906e-07 -1.13959e-07 0.100461)
(2.0297e-07 -9.92702e-08 0.100461)
(-2.01142e-07 -1.15187e-07 0.100461)
(3.21638e-05 3.21863e-05 0.100461)
(3.15018e-05 3.1482e-05 0.100461)
(-3.2186e-05 -3.2163e-05 0.100461)
(2.06165e-07 1.06578e-07 0.100461)
(-2.06103e-07 1.0914e-07 0.100461)
(2.05905e-07 1.02757e-07 0.100461)
(-2.05338e-07 1.08768e-07 0.100461)
(-3.15024e-05 3.14763e-05 0.100461)
(3.21865e-05 -3.21633e-05 0.100461)
(1.04184e-07 2.03394e-07 0.100461)
(1.03619e-07 -2.06351e-07 0.100461)
(1.02397e-07 2.02123e-07 0.100461)
(1.03847e-07 -2.06198e-07 0.100461)
(-1.15294e-07 -2.03221e-07 0.100461)
(-1.03415e-07 2.01815e-07 0.100461)
(-1.14628e-07 -2.02804e-07 0.100461)
(3.14779e-05 -3.15102e-05 0.100461)
(-3.21611e-05 3.21911e-05 0.100461)
(-2.00215e-07 -1.14962e-07 0.100461)
(2.02829e-07 -9.92402e-08 0.100461)
(-1.99962e-07 -1.14593e-07 0.100461)
(3.21639e-05 3.21868e-05 0.100461)
(3.15002e-05 3.1481e-05 0.100461)
(-3.21852e-05 -3.21625e-05 0.100461)
(2.05348e-07 1.05759e-07 0.100461)
(-2.05307e-07 1.08315e-07 0.100461)
(2.07271e-07 1.036e-07 0.100461)
(-2.06687e-07 1.10068e-07 0.100461)
(-3.15009e-05 3.14753e-05 0.100461)
(3.21853e-05 -3.21624e-05 0.100461)
(1.03887e-07 2.02654e-07 0.100461)
(1.03527e-07 -2.06395e-07 0.100461)
(1.03254e-07 2.03236e-07 0.100461)
(1.05206e-07 -2.07543e-07 0.100461)
(-1.14604e-07 -2.02574e-07 0.100461)
(-1.04344e-07 2.03069e-07 0.100461)
(-1.15051e-07 -2.03796e-07 0.100461)
(3.14775e-05 -3.15096e-05 0.100461)
(-3.21604e-05 3.21901e-05 0.100461)
(-1.99607e-07 -1.14661e-07 0.100461)
(2.04143e-07 -1.00221e-07 0.100461)
(-2.00953e-07 -1.15497e-07 0.100461)
(3.21626e-05 3.21858e-05 0.100461)
(3.15017e-05 3.14821e-05 0.100461)
(-3.21846e-05 -3.21619e-05 0.100461)
(2.07101e-07 1.07695e-07 0.100461)
(-2.06473e-07 1.09927e-07 0.100461)
(2.08788e-07 1.0546e-07 0.100461)
(-2.08347e-07 1.11537e-07 0.100461)
(-3.15022e-05 3.14759e-05 0.100461)
(3.21844e-05 -3.21619e-05 0.100461)
(1.05084e-07 2.04118e-07 0.100461)
(1.053e-07 -2.07533e-07 0.100461)
(1.0441e-07 2.04839e-07 0.100461)
(1.06061e-07 -2.08638e-07 0.100461)
(-1.15813e-07 -2.03778e-07 0.100461)
(-1.06126e-07 2.04854e-07 0.100461)
(-1.17059e-07 -2.05049e-07 0.100461)
(3.14783e-05 -3.15108e-05 0.100461)
(-3.216e-05 3.21899e-05 0.100461)
(-2.00858e-07 -1.16239e-07 0.100461)
(2.05591e-07 -1.01736e-07 0.100461)
(-2.02366e-07 -1.1688e-07 0.100461)
(3.21623e-05 3.21856e-05 0.100461)
(3.15025e-05 3.14832e-05 0.100461)
(-3.21858e-05 -3.21632e-05 0.100461)
(2.07289e-07 1.07782e-07 0.100461)
(-2.07397e-07 1.10554e-07 0.100461)
(2.07162e-07 1.03634e-07 0.100461)
(-2.07253e-07 1.10263e-07 0.100461)
(-3.15039e-05 3.14775e-05 0.100461)
(3.21857e-05 -3.21627e-05 0.100461)
(1.05662e-07 2.0465e-07 0.100461)
(1.05056e-07 -2.07763e-07 0.100461)
(1.03418e-07 2.03194e-07 0.100461)
(1.04943e-07 -2.0742e-07 0.100461)
(-1.16174e-07 -2.03793e-07 0.100461)
(-1.05099e-07 2.03566e-07 0.100461)
(-1.15995e-07 -2.0434e-07 0.100461)
(3.14796e-05 -3.15119e-05 0.100461)
(-3.21606e-05 3.21906e-05 0.100461)
(-2.0122e-07 -1.16616e-07 0.100461)
(2.04062e-07 -1.00506e-07 0.100461)
(-2.0141e-07 -1.16032e-07 0.100461)
(3.21636e-05 3.21863e-05 0.100461)
(3.15021e-05 3.14824e-05 0.100461)
(-3.21859e-05 -3.21633e-05 0.100461)
(2.06925e-07 1.07221e-07 0.100461)
(-2.06344e-07 1.09538e-07 0.100461)
(2.08012e-07 1.03779e-07 0.100461)
(-2.06613e-07 1.09688e-07 0.100461)
(-3.15027e-05 3.14767e-05 0.100461)
(3.21869e-05 -3.21635e-05 0.100461)
(1.04999e-07 2.03887e-07 0.100461)
(1.04437e-07 -2.07074e-07 0.100461)
(1.03771e-07 2.03675e-07 0.100461)
(1.04954e-07 -2.0748e-07 0.100461)
(-1.1537e-07 -2.03734e-07 0.100461)
(-1.04708e-07 2.03163e-07 0.100461)
(-1.15606e-07 -2.04472e-07 0.100461)
(3.14789e-05 -3.1511e-05 0.100461)
(-3.21613e-05 3.21915e-05 0.100461)
(-2.00623e-07 -1.15177e-07 0.100461)
(2.04287e-07 -1.00773e-07 0.100461)
(-2.0123e-07 -1.15833e-07 0.100461)
(3.21641e-05 3.21868e-05 0.100461)
(3.15029e-05 3.1483e-05 0.100461)
(-3.21853e-05 -3.2164e-05 0.100461)
(2.07497e-07 1.07003e-07 0.100461)
(-2.05864e-07 1.09106e-07 0.100461)
(2.08206e-07 1.02833e-07 0.100461)
(-2.04444e-07 1.08658e-07 0.100461)
(-3.15029e-05 3.14772e-05 0.100461)
(3.21882e-05 -3.21651e-05 0.100461)
(1.05172e-07 2.04057e-07 0.100461)
(1.04914e-07 -2.07621e-07 0.100461)
(1.04125e-07 2.02613e-07 0.100461)
(1.05264e-07 -2.07053e-07 0.100461)
(-1.14996e-07 -2.03203e-07 0.100461)
(-1.03714e-07 2.00872e-07 0.100461)
(-1.13645e-07 -2.03007e-07 0.100461)
(3.14793e-05 -3.15112e-05 0.100461)
(-3.2161e-05 3.21917e-05 0.100461)
(-1.99826e-07 -1.15243e-07 0.100461)
(2.04516e-07 -9.97113e-08 0.100461)
(-1.98949e-07 -1.14643e-07 0.100461)
(3.21656e-05 3.21877e-05 0.100461)
(3.15019e-05 3.14805e-05 0.100461)
(-3.21981e-05 -3.2177e-05 0.100461)
(2.05799e-07 1.03479e-07 0.100461)
(-2.02033e-07 1.05578e-07 0.100461)
(1.93361e-07 8.34346e-08 0.100461)
(-3.14998e-05 3.14739e-05 0.100461)
(1.03259e-07 2.00608e-07 0.100461)
(1.04145e-07 -2.05967e-07 0.100461)
(8.95844e-08 1.87632e-07 0.100461)
(9.4404e-08 -1.98613e-07 0.100461)
(-1.12583e-07 -2.02024e-07 0.100461)
(-9.53867e-08 -1.88714e-07 0.100461)
(3.14789e-05 -3.15098e-05 0.100461)
(-3.21695e-05 3.22012e-05 0.100461)
(-1.9821e-07 -1.13523e-07 0.100461)
(1.96721e-07 -8.50984e-08 0.100461)
(-1.87412e-07 -9.37972e-08 0.100461)
(3.21764e-05 3.21991e-05 0.100461)
(3.14728e-05 3.14562e-05 0.100461)
(8.2488e-08 1.92132e-07 0.100461)
(8.34012e-08 -1.92681e-07 0.100461)
(3.14603e-05 -3.14904e-05 0.100461)
(-1.55482e-07 -1.60946e-07 0.100461)
(1.55004e-07 -1.5733e-07 0.100461)
(-1.41726e-07 1.41495e-07 0.100461)
(1.54719e-07 1.34312e-07 0.100461)
(7.1425e-09 -3.18876e-06 0.100404)
(4.1311e-07 2.90003e-06 0.0995975)
(2.42931e-09 3.14877e-06 0.100403)
(-4.46586e-07 -2.64631e-06 0.0995976)
(-6.85791e-07 7.90503e-07 0.0975035)
(3.65201e-07 -2.66259e-07 0.0975011)
(-3.21143e-06 3.98874e-08 0.100404)
(2.88853e-06 3.80291e-07 0.0995974)
(3.17937e-06 -9.00757e-08 0.100403)
(-2.62738e-06 -4.28983e-07 0.0995975)
(1.42657e-07 -1.43714e-07 0.100461)
(-1.33486e-07 1.34079e-07 0.100461)
(1.46744e-07 1.26699e-07 0.100461)
(-1.39925e-07 -1.4046e-07 0.100461)
(1.43567e-07 -1.35968e-07 0.100461)
(-1.3942e-07 1.44939e-07 0.100461)
(1.53466e-07 1.36474e-07 0.100461)
(6.73159e-06 -1.73552e-08 0.100457)
(-5.17948e-06 1.75703e-06 0.100418)
(-1.38599e-07 -6.676e-08 0.100461)
(-1.19526e-07 2.13093e-07 0.100461)
(-6.88887e-06 1.19741e-08 0.100457)
(5.01885e-06 -1.73404e-06 0.100419)
(-1.37407e-07 -5.61538e-08 0.100461)
(1.21474e-06 -8.98399e-07 0.0975011)
(-5.5163e-07 5.23649e-07 0.0975005)
(-2.39576e-08 6.73457e-06 0.100457)
(-5.65514e-08 -1.41561e-07 0.100461)
(1.9075e-06 -5.2441e-06 0.100419)
(2.09732e-07 -1.12425e-07 0.100461)
(3.3897e-08 -6.89414e-06 0.100457)
(-5.78038e-08 -1.37395e-07 0.100461)
(-1.80297e-06 5.05505e-06 0.100419)
(-1.11939e-06 -1.95992e-06 0.100335)
(-1.95164e-06 -1.12074e-06 0.100335)
(3.21548e-05 3.21775e-05 0.100461)
(1.35223e-06 1.82047e-06 0.100335)
(1.81638e-06 1.34775e-06 0.100335)
(-7.30574e-09 -3.18787e-06 0.100404)
(3.82925e-07 2.86609e-06 0.0995974)
(3.54925e-09 3.16077e-06 0.100404)
(-3.92878e-07 -2.82596e-06 0.0995975)
(-5.78221e-07 6.26869e-07 0.0975006)
(5.41732e-07 -6.12598e-07 0.0975008)
(-3.20327e-06 -9.79795e-09 0.100404)
(2.84691e-06 3.73195e-07 0.0995973)
(3.1715e-06 6.03207e-09 0.100404)
(-2.8066e-06 -3.82063e-07 0.0995974)
(1.4594e-07 -1.38297e-07 0.100461)
(-1.40932e-07 1.46764e-07 0.100461)
(1.55577e-07 1.38244e-07 0.100461)
(-1.44478e-07 -1.45341e-07 0.100461)
(1.4768e-07 -1.40393e-07 0.100461)
(-1.42182e-07 1.47719e-07 0.100461)
(1.56272e-07 1.39339e-07 0.100461)
(6.76052e-06 -2.60963e-08 0.100457)
(-5.16308e-06 1.78817e-06 0.100419)
(-1.23786e-07 -5.81952e-08 0.100461)
(-1.04073e-07 2.04347e-07 0.100461)
(-6.80652e-06 3.06644e-08 0.100457)
(5.06327e-06 -1.81175e-06 0.100419)
(-1.21886e-07 -5.91188e-08 0.100461)
(5.8983e-07 -5.64283e-07 0.0975003)
(-5.79467e-07 5.32874e-07 0.0975006)
(-2.62487e-08 6.75941e-06 0.100457)
(-5.95665e-08 -1.20387e-07 0.100461)
(1.79594e-06 -5.17562e-06 0.100419)
(2.03831e-07 -9.96239e-08 0.100461)
(2.70469e-08 -6.80266e-06 0.100457)
(-5.96941e-08 -1.20876e-07 0.100461)
(-1.82265e-06 5.07597e-06 0.100419)
(-1.34699e-06 -1.87218e-06 0.100335)
(-1.8694e-06 -1.34418e-06 0.100335)
(3.21647e-05 3.2188e-05 0.100461)
(1.34307e-06 1.83655e-06 0.100335)
(1.83058e-06 1.3406e-06 0.100335)
(-7.30623e-09 -3.18888e-06 0.100404)
(3.81241e-07 2.86289e-06 0.0995974)
(2.92257e-09 3.15703e-06 0.100404)
(-3.92772e-07 -2.82452e-06 0.0995975)
(-5.77351e-07 6.23851e-07 0.0975006)
(5.42428e-07 -6.15332e-07 0.0975008)
(-3.20369e-06 -1.03114e-08 0.100404)
(2.84385e-06 3.71777e-07 0.0995973)
(3.17035e-06 3.70362e-09 0.100404)
(-2.80574e-06 -3.81805e-07 0.0995974)
(1.47842e-07 -1.40883e-07 0.100461)
(-1.42715e-07 1.48191e-07 0.100461)
(1.56529e-07 1.39541e-07 0.100461)
(-1.44683e-07 -1.4493e-07 0.100461)
(1.47511e-07 -1.40334e-07 0.100461)
(-1.42236e-07 1.49602e-07 0.100461)
(1.55727e-07 1.41311e-07 0.100461)
(6.76071e-06 -2.69202e-08 0.100457)
(-5.16138e-06 1.78619e-06 0.100419)
(-1.2133e-07 -5.97872e-08 0.100461)
(-1.03278e-07 2.03026e-07 0.100461)
(-6.80434e-06 2.87331e-08 0.100457)
(5.06317e-06 -1.8127e-06 0.100419)
(-1.20517e-07 -5.97036e-08 0.100461)
(5.8994e-07 -5.64125e-07 0.0975003)
(-5.80429e-07 5.32084e-07 0.0975005)
(-2.56785e-08 6.759e-06 0.100457)
(-6.02153e-08 -1.17747e-07 0.100461)
(1.79447e-06 -5.17519e-06 0.100419)
(2.02582e-07 -9.85274e-08 0.100461)
(2.75661e-08 -6.80149e-06 0.100457)
(-5.99795e-08 -1.18552e-07 0.100461)
(-1.8239e-06 5.07528e-06 0.100419)
(-1.34893e-06 -1.87289e-06 0.100335)
(-1.86975e-06 -1.34562e-06 0.100335)
(3.21655e-05 3.21891e-05 0.100461)
(1.34285e-06 1.83673e-06 0.100335)
(1.83032e-06 1.34088e-06 0.100335)
(-7.22417e-09 -3.18767e-06 0.100404)
(3.79924e-07 2.86349e-06 0.0995974)
(3.27753e-09 3.15663e-06 0.100404)
(-3.92413e-07 -2.82384e-06 0.0995975)
(-5.76959e-07 6.23912e-07 0.0975006)
(5.43614e-07 -6.1425e-07 0.0975008)
(-3.20314e-06 -8.22306e-09 0.100404)
(2.84418e-06 3.70621e-07 0.0995973)
(3.16938e-06 5.10175e-09 0.100404)
(-2.80526e-06 -3.81248e-07 0.0995974)
(1.47234e-07 -1.40222e-07 0.100461)
(-1.41946e-07 1.509e-07 0.100461)
(1.55396e-07 1.42206e-07 0.100461)
(-1.44043e-07 -1.43455e-07 0.100461)
(1.47346e-07 -1.3875e-07 0.100461)
(-1.39492e-07 1.56745e-07 0.100461)
(1.53437e-07 1.46833e-07 0.100461)
(6.75876e-06 -2.47677e-08 0.100457)
(-5.16021e-06 1.78685e-06 0.100419)
(-1.24061e-07 -5.84964e-08 0.100461)
(-1.04313e-07 2.04459e-07 0.100461)
(-6.80368e-06 3.01176e-08 0.100457)
(5.06145e-06 -1.81059e-06 0.100419)
(-1.22433e-07 -5.79854e-08 0.100461)
(5.90613e-07 -5.62839e-07 0.0975003)
(-5.78418e-07 5.35303e-07 0.0975005)
(-2.75756e-08 6.77086e-06 0.100457)
(-5.94271e-08 -1.1571e-07 0.100461)
(1.79752e-06 -5.17075e-06 0.100419)
(2.05896e-07 -9.31439e-08 0.100461)
(2.721e-08 -6.79604e-06 0.100457)
(-5.87085e-08 -1.12957e-07 0.100461)
(-1.81426e-06 5.0833e-06 0.100419)
(-1.3485e-06 -1.87012e-06 0.100335)
(-1.87057e-06 -1.34149e-06 0.100335)
(3.21601e-05 3.21909e-05 0.100461)
(1.33909e-06 1.83764e-06 0.100335)
(1.82376e-06 1.34422e-06 0.100335)
(-7.20617e-09 -3.18915e-06 0.100404)
(3.80351e-07 2.86286e-06 0.0995974)
(2.9435e-09 3.15649e-06 0.100404)
(-3.92854e-07 -2.82435e-06 0.0995975)
(-5.76543e-07 6.23819e-07 0.0975006)
(5.42703e-07 -6.15427e-07 0.0975008)
(-3.20446e-06 -7.5647e-09 0.100404)
(2.84341e-06 3.71701e-07 0.0995973)
(3.16902e-06 6.61177e-09 0.100404)
(-2.80588e-06 -3.81277e-07 0.0995974)
(1.47665e-07 -1.38863e-07 0.100461)
(-1.40001e-07 1.57555e-07 0.100461)
(1.54181e-07 1.48044e-07 0.100461)
(-1.43677e-07 -1.43858e-07 0.100461)
(1.4753e-07 -1.38866e-07 0.100461)
(-1.40733e-07 1.52383e-07 0.100461)
(1.55486e-07 1.44881e-07 0.100461)
(6.75973e-06 -2.40368e-08 0.100457)
(-5.15962e-06 1.78739e-06 0.100419)
(-1.23843e-07 -5.70075e-08 0.100461)
(-1.04681e-07 2.05975e-07 0.100461)
(-6.80389e-06 3.18171e-08 0.100457)
(5.06324e-06 -1.81107e-06 0.100419)
(-1.23454e-07 -5.70459e-08 0.100461)
(5.91264e-07 -5.60379e-07 0.0975003)
(-5.78961e-07 5.35468e-07 0.0975005)
(-6.86844e-09 6.78759e-06 0.100457)
(-5.5535e-08 -1.07211e-07 0.100461)
(1.81778e-06 -5.15321e-06 0.100419)
(2.12453e-07 -9.16159e-08 0.100461)
(1.83297e-08 -6.76316e-06 0.100457)
(-5.40101e-08 -1.08264e-07 0.100461)
(-1.80904e-06 5.08601e-06 0.100419)
(-1.35026e-06 -1.86622e-06 0.100335)
(-1.88136e-06 -1.33139e-06 0.100335)
(3.21565e-05 3.21956e-05 0.100461)
(1.34021e-06 1.84153e-06 0.100335)
(1.81582e-06 1.35498e-06 0.100335)
(-7.58174e-09 -3.18982e-06 0.100404)
(3.81134e-07 2.86332e-06 0.0995974)
(3.12205e-09 3.15771e-06 0.100404)
(-3.93235e-07 -2.82456e-06 0.0995975)
(-5.77904e-07 6.22826e-07 0.0975006)
(5.42647e-07 -6.15224e-07 0.0975008)
(-3.20391e-06 -9.8012e-09 0.100404)
(2.84361e-06 3.7226e-07 0.0995972)
(3.1703e-06 5.26673e-09 0.100404)
(-2.80537e-06 -3.8181e-07 0.0995974)
(1.47659e-07 -1.39455e-07 0.100461)
(-1.41365e-07 1.50809e-07 0.100461)
(1.56226e-07 1.42397e-07 0.100461)
(-1.44378e-07 -1.45578e-07 0.100461)
(1.47471e-07 -1.40566e-07 0.100461)
(-1.42137e-07 1.47993e-07 0.100461)
(1.56066e-07 1.39217e-07 0.100461)
(6.75972e-06 -2.61967e-08 0.100457)
(-5.16024e-06 1.78655e-06 0.100419)
(-1.23816e-07 -5.85072e-08 0.100461)
(-1.05163e-07 2.05373e-07 0.100461)
(-6.80426e-06 3.00999e-08 0.100457)
(5.06238e-06 -1.81191e-06 0.100419)
(-1.23207e-07 -5.88809e-08 0.100461)
(5.89663e-07 -5.63397e-07 0.0975002)
(-5.80305e-07 5.32418e-07 0.0975005)
(-2.59899e-08 6.75985e-06 0.100457)
(-5.72636e-08 -1.17503e-07 0.100461)
(1.79816e-06 -5.17118e-06 0.100419)
(2.05897e-07 -9.89678e-08 0.100461)
(2.93392e-08 -6.79592e-06 0.100457)
(-5.82043e-08 -1.20111e-07 0.100461)
(-1.82138e-06 5.07674e-06 0.100419)
(-1.34846e-06 -1.86918e-06 0.100335)
(-1.87139e-06 -1.34239e-06 0.100335)
(3.21628e-05 3.21885e-05 0.100461)
(1.34218e-06 1.83665e-06 0.100335)
(1.82948e-06 1.34125e-06 0.100335)
(-6.97183e-09 -3.19041e-06 0.100404)
(3.80871e-07 2.86322e-06 0.0995974)
(2.9547e-09 3.15777e-06 0.100404)
(-3.92784e-07 -2.82444e-06 0.0995975)
(-5.76309e-07 6.24068e-07 0.0975006)
(5.42602e-07 -6.15508e-07 0.0975008)
(-3.20454e-06 -1.04598e-08 0.100404)
(2.84395e-06 3.69982e-07 0.0995972)
(3.16945e-06 3.41725e-09 0.100404)
(-2.80519e-06 -3.82676e-07 0.0995974)
(1.47604e-07 -1.41198e-07 0.100461)
(-1.42478e-07 1.47968e-07 0.100461)
(1.56449e-07 1.39419e-07 0.100461)
(-1.44941e-07 -1.46464e-07 0.100461)
(1.47425e-07 -1.41611e-07 0.100461)
(-1.42662e-07 1.46991e-07 0.100461)
(1.56457e-07 1.38682e-07 0.100461)
(6.7603e-06 -2.70356e-08 0.100457)
(-5.16118e-06 1.78574e-06 0.100419)
(-1.23323e-07 -6.02583e-08 0.100461)
(-1.05491e-07 2.04244e-07 0.100461)
(-6.8046e-06 2.86261e-08 0.100457)
(5.06268e-06 -1.81296e-06 0.100419)
(-1.22876e-07 -6.04002e-08 0.100461)
(5.89755e-07 -5.6395e-07 0.0975002)
(-5.80513e-07 5.32181e-07 0.0975005)
(-2.45717e-08 6.76095e-06 0.100457)
(-5.99003e-08 -1.1935e-07 0.100461)
(1.79486e-06 -5.17419e-06 0.100419)
(2.04196e-07 -1.00204e-07 0.100461)
(2.74679e-08 -6.80069e-06 0.100457)
(-5.99482e-08 -1.20991e-07 0.100461)
(-1.82282e-06 5.07613e-06 0.100419)
(-1.34796e-06 -1.87199e-06 0.100335)
(-1.86854e-06 -1.34455e-06 0.100335)
(3.21639e-05 3.2187e-05 0.100461)
(1.34312e-06 1.83558e-06 0.100335)
(1.83072e-06 1.34021e-06 0.100335)
(-7.18968e-09 -3.1887e-06 0.100404)
(3.81147e-07 2.86288e-06 0.0995974)
(3.45067e-09 3.15738e-06 0.100404)
(-3.9206e-07 -2.82459e-06 0.0995975)
(-5.77054e-07 6.24059e-07 0.0975006)
(5.42399e-07 -6.14916e-07 0.0975008)
(-3.20336e-06 -1.06971e-08 0.100404)
(2.84408e-06 3.70525e-07 0.0995972)
(3.16994e-06 3.73056e-09 0.100404)
(-2.80506e-06 -3.8185e-07 0.0995974)
(1.47426e-07 -1.41961e-07 0.100461)
(-1.42817e-07 1.47133e-07 0.100461)
(1.56667e-07 1.38761e-07 0.100461)
(-1.44688e-07 -1.46514e-07 0.100461)
(1.47419e-07 -1.4131e-07 0.100461)
(-1.42327e-07 1.4659e-07 0.100461)
(1.565e-07 1.38299e-07 0.100461)
(6.75958e-06 -2.71415e-08 0.100457)
(-5.16004e-06 1.78579e-06 0.100419)
(-1.23309e-07 -6.08289e-08 0.100461)
(-1.04718e-07 2.02655e-07 0.100461)
(-6.80372e-06 2.87759e-08 0.100457)
(5.06204e-06 -1.8129e-06 0.100419)
(-1.21783e-07 -6.10415e-08 0.100461)
(5.89363e-07 -5.64735e-07 0.0975003)
(-5.80478e-07 5.3127e-07 0.0975005)
(-2.55122e-08 6.75991e-06 0.100457)
(-6.02515e-08 -1.2002e-07 0.100461)
(1.79462e-06 -5.17348e-06 0.100419)
(2.03446e-07 -1.00371e-07 0.100461)
(2.82465e-08 -6.80014e-06 0.100457)
(-6.03611e-08 -1.21136e-07 0.100461)
(-1.82333e-06 5.07538e-06 0.100419)
(-1.3458e-06 -1.87188e-06 0.100335)
(-1.86824e-06 -1.34327e-06 0.100335)
(3.21648e-05 3.21875e-05 0.100461)
(1.34328e-06 1.83546e-06 0.100335)
(1.83091e-06 1.33983e-06 0.100335)
(-7.31046e-09 -3.18944e-06 0.100404)
(3.81977e-07 2.86298e-06 0.0995973)
(3.15117e-09 3.15771e-06 0.100404)
(-3.92678e-07 -2.82446e-06 0.0995975)
(-5.77009e-07 6.24017e-07 0.0975006)
(5.42642e-07 -6.15036e-07 0.0975008)
(-3.20448e-06 -1.09407e-08 0.100404)
(2.84446e-06 3.70998e-07 0.0995972)
(3.17033e-06 3.52521e-09 0.100404)
(-2.80516e-06 -3.82958e-07 0.0995974)
(1.47752e-07 -1.41706e-07 0.100461)
(-1.42601e-07 1.47085e-07 0.100461)
(1.57069e-07 1.38642e-07 0.100461)
(-1.44769e-07 -1.46564e-07 0.100461)
(1.47699e-07 -1.4151e-07 0.100461)
(-1.42327e-07 1.46983e-07 0.100461)
(1.56758e-07 1.38852e-07 0.100461)
(6.76074e-06 -2.76531e-08 0.100457)
(-5.16108e-06 1.78567e-06 0.100419)
(-1.21356e-07 -6.08065e-08 0.100461)
(-1.03379e-07 2.01797e-07 0.100461)
(-6.80411e-06 2.82104e-08 0.100457)
(5.06298e-06 -1.81314e-06 0.100419)
(-1.20539e-07 -6.09503e-08 0.100461)
(5.89359e-07 -5.64922e-07 0.0975002)
(-5.80467e-07 5.31637e-07 0.0975005)
(-2.64267e-08 6.7597e-06 0.100457)
(-6.01016e-08 -1.18874e-07 0.100461)
(1.7946e-06 -5.17461e-06 0.100419)
(2.02963e-07 -9.95126e-08 0.100461)
(2.81198e-08 -6.79874e-06 0.100457)
(-5.99462e-08 -1.201e-07 0.100461)
(-1.82336e-06 5.07605e-06 0.100419)
(-1.34712e-06 -1.87279e-06 0.100335)
(-1.86866e-06 -1.34438e-06 0.100335)
(3.2165e-05 3.2188e-05 0.100461)
(1.34319e-06 1.83437e-06 0.100335)
(1.83038e-06 1.3404e-06 0.100335)
(-7.15804e-09 -3.18871e-06 0.100404)
(3.8077e-07 2.86306e-06 0.0995973)
(3.06214e-09 3.15689e-06 0.100404)
(-3.92988e-07 -2.82438e-06 0.0995975)
(-5.7718e-07 6.2427e-07 0.0975006)
(5.43198e-07 -6.14626e-07 0.0975008)
(-3.20301e-06 -1.10797e-08 0.100404)
(2.84441e-06 3.70468e-07 0.0995972)
(3.16987e-06 3.12928e-09 0.100404)
(-2.80519e-06 -3.82453e-07 0.0995974)
(1.47824e-07 -1.41857e-07 0.100461)
(-1.42747e-07 1.47209e-07 0.100461)
(1.56954e-07 1.38798e-07 0.100461)
(-1.45325e-07 -1.46773e-07 0.100461)
(1.47463e-07 -1.41736e-07 0.100461)
(-1.42761e-07 1.46962e-07 0.100461)
(1.56408e-07 1.38859e-07 0.100461)
(6.76056e-06 -2.77285e-08 0.100457)
(-5.16092e-06 1.78577e-06 0.100419)
(-1.20645e-07 -6.0789e-08 0.100461)
(-1.02958e-07 2.01168e-07 0.100461)
(-6.80367e-06 2.80068e-08 0.100457)
(5.06268e-06 -1.81327e-06 0.100419)