/*--------------------------------*- C++ -*----------------------------------*\
| =========                 |                                                 |
| \\      /  F ield         | OpenFOAM: The Open Source CFD Toolbox           |
|  \\    /   O peration     | Version:  2206                                  |
|   \\  /    A nd           | Website:  www.openfoam.com                      |
|    \\/     M anipulation  |                                                 |
\*---------------------------------------------------------------------------*/
FoamFile
{
    version     2.0;
    format      ascii;
    arch        "LSB;label=32;scalar=64";
    class       volScalarField;
    location    "31.5";
    object      Ux;
}
// * * * * * * * * * * * * * * * * * * * * * * * * * * * * * * * * * * * * * //

dimensions      [0 1 -1 0 0 0 0];

internalField   nonuniform List<scalar> 
171728
(
0.000108008
-0.000190216
0.00011936
-0.000239451
9.43563e-05
-0.000158839
9.67043e-05
-0.000200789
9.51433e-05
-0.000155065
9.29208e-05
-0.000201132
9.29019e-05
-0.00014987
8.86423e-05
-0.000197529
9.18041e-05
-0.000146467
8.58139e-05
-0.000191997
8.20918e-05
-0.000137032
7.95786e-05
-0.000178135
5.31878e-05
-7.80025e-05
4.37023e-05
-0.000122539
2.37711e-05
-3.26762e-05
2.23374e-05
-7.39316e-05
4.39757e-06
-6.80939e-06
5.36692e-06
-5.09641e-05
-3.00922e-07
-1.03375e-06
1.18926e-06
-4.6167e-05
-7.76003e-07
-5.4666e-07
8.35313e-07
-4.58577e-05
-8.05396e-07
-5.37693e-07
8.21554e-07
-4.58491e-05
-8.04259e-07
-5.46191e-07
8.22117e-07
-4.58507e-05
-8.04272e-07
-5.44302e-07
8.21805e-07
-4.58517e-05
-8.06903e-07
-5.38486e-07
8.21519e-07
-4.58513e-05
-8.0785e-07
-5.38504e-07
8.21056e-07
-4.58509e-05
-8.07067e-07
-5.38473e-07
8.21012e-07
-4.58503e-05
-8.07157e-07
-5.37472e-07
8.20949e-07
-4.58501e-05
-8.04367e-07
-5.39112e-07
8.2153e-07
-4.58505e-05
-7.97961e-07
-5.36431e-07
8.22357e-07
-4.58514e-05
-7.93917e-07
-5.43063e-07
8.2331e-07
-4.58502e-05
-8.02838e-07
-5.39597e-07
8.22661e-07
-4.5851e-05
-8.0431e-07
-5.37946e-07
8.22285e-07
-4.58503e-05
-8.051e-07
-5.37464e-07
8.21623e-07
-4.58501e-05
-8.06084e-07
-5.36474e-07
8.21029e-07
-4.58504e-05
-8.07011e-07
-5.35935e-07
8.20987e-07
-4.58506e-05
-8.07097e-07
-5.36253e-07
8.21329e-07
-4.58507e-05
-8.06706e-07
-5.36696e-07
8.21778e-07
-4.58514e-05
-8.05847e-07
-5.3678e-07
8.22122e-07
-4.58517e-05
-8.05533e-07
-5.37403e-07
8.22172e-07
-4.58523e-05
-8.05953e-07
-5.37278e-07
8.2223e-07
-4.5852e-05
-8.06044e-07
-5.36564e-07
8.21972e-07
-4.58513e-05
-8.06718e-07
-5.36015e-07
8.21408e-07
-4.58514e-05
-8.06857e-07
-5.35912e-07
8.21342e-07
-4.58509e-05
-8.06522e-07
-5.35722e-07
8.21336e-07
-4.58509e-05
-8.06156e-07
-5.3604e-07
8.21988e-07
-4.58516e-05
-8.05925e-07
-5.36885e-07
8.22332e-07
-4.58521e-05
-8.05724e-07
-5.36741e-07
8.22502e-07
-4.58522e-05
-8.05869e-07
-5.37251e-07
8.22374e-07
-4.58522e-05
-8.06468e-07
-5.34998e-07
8.20296e-07
-4.58485e-05
-8.01725e-07
-5.34104e-07
8.21236e-07
-4.58494e-05
-8.09627e-07
-5.35473e-07
8.20967e-07
-4.58516e-05
-8.06863e-07
-5.36255e-07
8.2079e-07
-4.58514e-05
-8.05569e-07
-5.37336e-07
8.21496e-07
-4.58523e-05
-8.04381e-07
-5.37789e-07
8.21161e-07
-4.58521e-05
-8.03333e-07
-5.38432e-07
8.21709e-07
-4.58525e-05
-8.03732e-07
-5.37847e-07
8.21239e-07
-4.58522e-05
-8.04256e-07
-5.38226e-07
8.21026e-07
-4.58524e-05
-8.04596e-07
-5.36749e-07
8.20687e-07
-4.58516e-05
-8.04778e-07
-5.37505e-07
8.21091e-07
-4.58518e-05
-8.04993e-07
-5.37288e-07
8.21058e-07
-4.58521e-05
-8.04204e-07
-5.37753e-07
8.21418e-07
-4.58526e-05
-8.034e-07
-5.3846e-07
8.21941e-07
-4.5853e-05
-8.02622e-07
-5.38115e-07
8.22156e-07
-4.58521e-05
-8.01628e-07
-5.38566e-07
8.222e-07
-4.58523e-05
-8.04077e-07
-5.379e-07
8.21152e-07
-4.58526e-05
-8.03712e-07
-5.39628e-07
8.21412e-07
-4.58544e-05
-8.03714e-07
-5.39147e-07
8.21786e-07
-4.58549e-05
-8.0329e-07
-5.3991e-07
8.22258e-07
-4.58547e-05
-8.0241e-07
-5.40256e-07
8.22733e-07
-4.58551e-05
-8.02238e-07
-5.40735e-07
8.22882e-07
-4.58554e-05
-8.01952e-07
-5.41231e-07
8.23449e-07
-4.58557e-05
-8.02136e-07
-5.40285e-07
8.22954e-07
-4.5855e-05
-8.02267e-07
-5.40035e-07
8.22644e-07
-4.58547e-05
-8.03522e-07
-5.39177e-07
8.21977e-07
-4.58541e-05
-8.03317e-07
-5.39426e-07
8.22321e-07
-4.58539e-05
-8.02768e-07
-5.39644e-07
8.22479e-07
-4.58549e-05
-8.02414e-07
-5.40035e-07
8.22847e-07
-4.58548e-05
-8.01742e-07
-5.40903e-07
8.24735e-07
-4.58567e-05
-8.0125e-07
-5.40386e-07
8.29809e-07
-4.58601e-05
-8.01277e-07
-5.40602e-07
8.26541e-07
-4.58587e-05
-8.02688e-07
-5.39353e-07
8.22802e-07
-4.58546e-05
-8.03184e-07
-5.39974e-07
8.22282e-07
-4.58545e-05
-8.03245e-07
-5.38865e-07
8.21967e-07
-4.58543e-05
-8.02982e-07
-5.39947e-07
8.22675e-07
-4.5855e-05
-8.02341e-07
-5.40281e-07
8.22957e-07
-4.58559e-05
-8.02077e-07
-5.40421e-07
8.23458e-07
-4.58562e-05
-8.01744e-07
-5.40941e-07
8.24094e-07
-4.58562e-05
-8.02306e-07
-5.40622e-07
8.2309e-07
-4.58562e-05
-8.02785e-07
-5.39728e-07
8.22689e-07
-4.58556e-05
-8.03081e-07
-5.39569e-07
8.22767e-07
-4.58553e-05
-8.03392e-07
-5.39648e-07
8.22392e-07
-4.58551e-05
-8.02781e-07
-5.39346e-07
8.22671e-07
-4.58554e-05
-8.02213e-07
-5.40329e-07
8.23015e-07
-4.5856e-05
-8.01928e-07
-5.40474e-07
8.22818e-07
-4.58561e-05
-8.0391e-07
-5.37926e-07
8.20767e-07
-4.58557e-05
-8.11477e-07
-5.2852e-07
8.12078e-07
-4.58477e-05
-8.23189e-07
-5.22881e-07
7.94945e-07
-4.57951e-05
-8.49884e-07
-5.72889e-07
8.40402e-07
-4.55347e-05
-6.52742e-07
-8.33224e-07
9.78573e-07
-4.5505e-05
-6.39295e-07
-1.17877e-06
1.22408e-06
-4.46712e-05
-4.20305e-07
-2.03336e-06
1.84827e-06
-4.33708e-05
-3.57592e-07
-3.67498e-06
3.17007e-06
-4.0285e-05
-5.79394e-06
-2.44653e-06
3.50059e-06
-2.66402e-05
-4.11585e-05
4.20599e-05
-3.39498e-05
4.62956e-05
0.000135053
0.000124222
-0.000124214
-0.00013505
0.000152852
0.000152824
9.07715e-05
-9.07617e-05
9.07463e-05
-9.0744e-05
-0.000152847
-0.000152834
0.000135043
0.000124174
-0.000124171
-0.000135051
0.000239494
0.000111633
0.00011941
-0.000119362
8.90985e-05
-8.90601e-05
-0.000239504
-0.000111592
0.000190252
0.00019019
0.00014712
0.000147153
-0.000190171
-0.00014709
-0.00014711
0.000239425
0.000111584
-0.000119341
8.90738e-05
-8.90534e-05
-0.000111583
0.000200876
0.000106137
9.67111e-05
-9.66839e-05
9.38134e-05
-9.38124e-05
-0.000200839
-0.000106126
0.000158872
0.00015889
0.000155925
0.000155966
-0.000158868
-0.000155922
-0.000155943
0.000200786
0.000106101
-9.66858e-05
9.38152e-05
-9.38206e-05
-0.000106116
0.000201199
9.79967e-05
9.29133e-05
-9.2919e-05
9.12721e-05
-9.12602e-05
-0.000201191
-9.79784e-05
0.000155074
0.000155115
0.000153088
0.000153121
-0.000155097
-0.000153084
-0.000153121
0.000201117
9.79515e-05
-9.29286e-05
9.12775e-05
-9.12664e-05
-9.80117e-05
0.000197561
8.99654e-05
8.8637e-05
-8.86227e-05
8.865e-05
-8.86389e-05
-0.000197543
-8.99482e-05
0.000149876
0.000149908
0.000150419
0.000150451
-0.000149909
-0.000150414
-0.000150455
0.000197465
8.99229e-05
-8.86266e-05
8.86575e-05
-8.86389e-05
-8.99897e-05
0.000192014
7.80059e-05
8.57984e-05
-8.57874e-05
8.08862e-05
-8.08803e-05
-0.00019201
-7.79996e-05
0.000146471
0.000146503
0.000138788
0.000138814
-0.000146511
-0.00013878
-0.000138821
0.000191935
7.79726e-05
-8.579e-05
8.0894e-05
-8.08749e-05
-7.80451e-05
0.000178147
3.5511e-05
7.95457e-05
-7.9529e-05
5.21229e-05
-5.21326e-05
-0.00017815
-3.54688e-05
0.000137037
0.000137061
9.46748e-05
9.47175e-05
-0.000137069
-9.46692e-05
-9.47331e-05
0.000178056
3.55621e-05
-7.95533e-05
5.20762e-05
-5.20682e-05
-3.55295e-05
0.000122554
-1.62708e-05
4.37419e-05
-4.37478e-05
2.7718e-05
-2.77128e-05
-0.000122535
1.62665e-05
7.80226e-05
7.80524e-05
4.24932e-05
4.25015e-05
-7.80525e-05
-4.24828e-05
-4.24855e-05
0.000122536
-1.62397e-05
-4.36896e-05
2.76694e-05
-2.7667e-05
1.62548e-05
7.39631e-05
-4.13758e-05
2.23797e-05
-2.23753e-05
8.24843e-06
-8.24683e-06
-7.39549e-05
4.13854e-05
3.26933e-05
3.26956e-05
1.0834e-05
1.08494e-05
-3.26807e-05
-1.08234e-05
-1.08487e-05
7.39404e-05
-4.13611e-05
-2.23358e-05
8.2122e-06
-8.21344e-06
4.13605e-05
5.09764e-05
-4.76087e-05
5.40216e-06
-5.39964e-06
1.59681e-06
-1.59594e-06
-5.09657e-05
4.76117e-05
6.82241e-06
6.83415e-06
1.56722e-06
1.58808e-06
-6.83872e-06
-1.56208e-06
-1.59058e-06
5.09467e-05
-4.75818e-05
-5.36923e-06
1.56485e-06
-1.56501e-06
4.75828e-05
4.61706e-05
-4.80643e-05
1.22049e-06
-1.21538e-06
8.95671e-07
-8.83061e-07
-4.617e-05
4.8076e-05
1.04134e-06
1.05956e-06
5.7278e-07
5.97684e-07
-1.06108e-06
-5.67219e-07
-5.95938e-07
4.61541e-05
-4.80398e-05
-1.18789e-06
8.54912e-07
-8.51902e-07
4.80441e-05
4.58662e-05
-4.80804e-05
8.75043e-07
-8.61654e-07
8.51208e-07
-8.51735e-07
-4.58605e-05
4.8089e-05
5.54521e-07
5.75704e-07
5.38551e-07
5.64119e-07
-5.74456e-07
-5.34645e-07
-5.62781e-07
4.58471e-05
-4.80539e-05
-8.3229e-07
8.20757e-07
-8.1841e-07
4.80577e-05
4.58541e-05
-4.8081e-05
8.50989e-07
-8.51384e-07
8.49289e-07
-8.5184e-07
-4.58531e-05
4.80843e-05
5.42417e-07
5.63905e-07
5.38301e-07
5.64601e-07
-5.63443e-07
-5.42866e-07
-5.65388e-07
4.5838e-05
-4.80528e-05
-8.18796e-07
8.21447e-07
-8.18403e-07
4.80559e-05
4.58539e-05
-4.80812e-05
8.4951e-07
-8.50738e-07
8.48881e-07
-8.49965e-07
-4.58579e-05
4.80818e-05
5.41485e-07
5.64173e-07
5.37753e-07
5.64007e-07
-5.66262e-07
-5.43578e-07
-5.66731e-07
4.58389e-05
-4.80532e-05
-8.18906e-07
8.21e-07
-8.18861e-07
4.80548e-05
4.58536e-05
-4.80773e-05
8.50751e-07
-8.5046e-07
8.48008e-07
-8.53088e-07
-4.58599e-05
4.80849e-05
5.41653e-07
5.63751e-07
5.38786e-07
5.64279e-07
-5.66825e-07
-5.37643e-07
-5.65583e-07
4.58384e-05
-4.80532e-05
-8.1965e-07
8.208e-07
-8.19448e-07
4.80555e-05
4.58558e-05
-4.80793e-05
8.4648e-07
-8.54739e-07
8.44234e-07
-8.62267e-07
-4.58588e-05
4.80816e-05
5.42303e-07
5.63971e-07
5.38587e-07
5.64171e-07
-5.6569e-07
-5.37941e-07
-5.65069e-07
4.58387e-05
-4.80535e-05
-8.20251e-07
8.20332e-07
-8.19679e-07
4.80558e-05
4.58539e-05
-4.80777e-05
8.43294e-07
-8.59145e-07
8.45915e-07
-8.53293e-07
-4.58582e-05
4.80823e-05
5.41958e-07
5.63789e-07
5.38996e-07
5.64063e-07
-5.65087e-07
-5.37103e-07
-5.64089e-07
4.58385e-05
-4.80535e-05
-8.20123e-07
8.20205e-07
-8.1917e-07
4.80564e-05
4.58548e-05
-4.80787e-05
8.45189e-07
-8.53143e-07
8.45293e-07
-8.51313e-07
-4.58557e-05
4.80856e-05
5.42578e-07
5.63755e-07
5.38834e-07
5.63992e-07
-5.64253e-07
-5.36494e-07
-5.63371e-07
4.58384e-05
-4.80536e-05
-8.19531e-07
8.20196e-07
-8.18557e-07
4.80572e-05
4.58547e-05
-4.80806e-05
8.4341e-07
-8.51414e-07
8.47268e-07
-8.56687e-07
-4.58529e-05
4.80843e-05
5.42129e-07
5.63617e-07
5.38507e-07
5.64283e-07
-5.63666e-07
-5.37282e-07
-5.63762e-07
4.58387e-05
-4.80536e-05
-8.18832e-07
8.20486e-07
-8.18134e-07
4.80572e-05
4.58565e-05
-4.80808e-05
8.49655e-07
-8.58368e-07
8.50578e-07
-8.47461e-07
-4.58581e-05
4.80884e-05
5.42143e-07
5.64203e-07
5.39938e-07
5.64372e-07
-5.65534e-07
-5.37255e-07
-5.69263e-07
4.58392e-05
-4.80531e-05
-8.18588e-07
8.21283e-07
-8.17008e-07
4.80551e-05
4.58594e-05
-4.80847e-05
8.50591e-07
-8.37419e-07
8.53386e-07
-8.51373e-07
-4.58414e-05
4.80766e-05
5.44332e-07
5.63989e-07
5.4655e-07
5.65431e-07
-5.69599e-07
-5.4134e-07
-5.63516e-07
4.5839e-05
-4.80523e-05
-8.17118e-07
8.22483e-07
-8.1735e-07
4.80565e-05
4.58565e-05
-4.80822e-05
8.55146e-07
-8.50978e-07
8.47896e-07
-8.50706e-07
-4.58591e-05
4.8087e-05
5.49041e-07
5.65502e-07
5.41701e-07
5.65381e-07
-5.63845e-07
-5.38365e-07
-5.64556e-07
4.58394e-05
-4.80519e-05
-8.18474e-07
8.22089e-07
-8.18848e-07
4.80553e-05
4.58603e-05
-4.80815e-05
8.48037e-07
-8.52815e-07
8.49185e-07
-8.53693e-07
-4.58502e-05
4.80833e-05
5.44194e-07
5.6476e-07
5.40341e-07
5.65131e-07
-5.64567e-07
-5.36884e-07
-5.64228e-07
4.58395e-05
-4.80521e-05
-8.19516e-07
8.21555e-07
-8.19248e-07
4.80562e-05
4.58612e-05
-4.8082e-05
8.491e-07
-8.54072e-07
8.49438e-07
-8.54021e-07
-4.58528e-05
4.80827e-05
5.43755e-07
5.64844e-07
5.39231e-07
5.64634e-07
-5.64633e-07
-5.36555e-07
-5.64108e-07
4.58393e-05
-4.80524e-05
-8.19841e-07
8.21e-07
-8.18835e-07
4.80563e-05
4.58607e-05
-4.80824e-05
8.49457e-07
-8.54287e-07
8.49537e-07
-8.54298e-07
-4.58533e-05
4.80828e-05
5.4283e-07
5.64227e-07
5.38506e-07
5.64048e-07
-5.64167e-07
-5.3552e-07
-5.63067e-07
4.58388e-05
-4.8053e-05
-8.19437e-07
8.20444e-07
-8.18802e-07
4.80561e-05
4.58602e-05
-4.80834e-05
8.49368e-07
-8.54426e-07
8.49296e-07
-8.54751e-07
-4.58531e-05
4.80829e-05
5.4204e-07
5.63576e-07
5.37403e-07
5.63513e-07
-5.63113e-07
-5.34809e-07
-5.62554e-07
4.58382e-05
-4.80533e-05
-8.19254e-07
8.20277e-07
-8.18725e-07
4.80561e-05
4.58593e-05
-4.80839e-05
8.49176e-07
-8.5485e-07
8.48849e-07
-8.54481e-07
-4.58531e-05
4.80832e-05
5.41016e-07
5.6307e-07
5.37212e-07
5.63458e-07
-5.62703e-07
-5.3482e-07
-5.62116e-07
4.5838e-05
-4.80534e-05
-8.19372e-07
8.20368e-07
-8.18841e-07
4.80559e-05
4.5859e-05
-4.8083e-05
8.49184e-07
-8.54978e-07
8.49811e-07
-8.5472e-07
-4.5853e-05
4.80826e-05
5.4128e-07
5.63347e-07
5.37898e-07
5.64037e-07
-5.62548e-07
-5.3532e-07
-5.62682e-07
4.58381e-05
-4.80526e-05
-8.1955e-07
8.20957e-07
-8.19343e-07
4.80552e-05
4.58598e-05
-4.80824e-05
8.4999e-07
-8.55627e-07
8.50938e-07
-8.54545e-07
-4.58537e-05
4.8082e-05
5.41746e-07
5.63827e-07
5.38175e-07
5.6432e-07
-5.62886e-07
-5.35594e-07
-5.62786e-07
4.58387e-05
-4.80523e-05
-8.19834e-07
8.21241e-07
-8.19452e-07
4.8055e-05
4.58604e-05
-4.80821e-05
8.51376e-07
-8.55865e-07
8.51662e-07
-8.53944e-07
-4.58542e-05
4.80822e-05
5.42168e-07
5.64271e-07
5.38697e-07
5.65117e-07
-5.6337e-07
-5.3615e-07
-5.63594e-07
4.5839e-05
-4.80519e-05
-8.20186e-07
8.21626e-07
-8.19932e-07
4.80542e-05
4.58607e-05
-4.80827e-05
8.51752e-07
-8.56877e-07
8.51277e-07
-8.5276e-07
-4.58546e-05
4.80817e-05
5.424e-07
5.64619e-07
5.38165e-07
5.64625e-07
-5.6385e-07
-5.36173e-07
-5.63412e-07
4.58394e-05
-4.80526e-05
-8.20468e-07
8.21277e-07
-8.19883e-07
4.80545e-05
4.58602e-05
-4.80829e-05
8.51198e-07
-8.59244e-07
8.51016e-07
-8.54096e-07
-4.58555e-05
4.80833e-05
5.42022e-07
5.64533e-07
5.37875e-07
5.64432e-07
-5.63483e-07
-5.3551e-07
-5.62554e-07
4.5839e-05
-4.80523e-05
-8.20245e-07
8.21393e-07
-8.19134e-07
4.80553e-05
4.58599e-05
-4.80832e-05
8.51333e-07
-8.56318e-07
8.50993e-07
-8.56169e-07
-4.58543e-05
4.80843e-05
5.41607e-07
5.64014e-07
5.37595e-07
5.63953e-07
-5.6291e-07
-5.3513e-07
-5.62527e-07
4.58389e-05
-4.8053e-05
-8.19766e-07
8.20872e-07
-8.19177e-07
4.80552e-05
4.58596e-05
-4.80839e-05
8.50605e-07
-8.56166e-07
8.50337e-07
-8.56266e-07
-4.5853e-05
4.80852e-05
5.41136e-07
5.63485e-07
5.36661e-07
5.63159e-07
-5.6257e-07
-5.34549e-07
-5.61873e-07
4.58384e-05
-4.80535e-05
-8.19453e-07
8.20492e-07
-8.18813e-07
4.80559e-05
4.58591e-05
-4.80831e-05
8.50769e-07
-8.56556e-07
8.5107e-07
-8.56635e-07
-4.58522e-05
4.80849e-05
5.40694e-07
5.63132e-07
5.37472e-07
5.63824e-07
-5.62274e-07
-5.34536e-07
-5.61906e-07
4.5838e-05
-4.80531e-05
-8.19331e-07
8.20714e-07
-8.18613e-07
4.80559e-05
4.58599e-05
-4.80835e-05
8.51085e-07
-8.56562e-07
8.50736e-07
-8.5693e-07
-4.58524e-05
4.80848e-05
5.41187e-07
5.63487e-07
5.37414e-07
5.6382e-07
-5.62299e-07
-5.34794e-07
-5.62298e-07
4.58385e-05
-4.80531e-05
-8.19158e-07
8.20964e-07
-8.19255e-07
4.80554e-05
4.58597e-05
-4.80826e-05
8.51227e-07
-8.56959e-07
8.51124e-07
-8.57454e-07
-4.58525e-05
4.80844e-05
5.41655e-07
5.63982e-07
5.38081e-07
5.64457e-07
-5.62918e-07
-5.35367e-07
-5.62976e-07
4.58387e-05
-4.80522e-05
-8.1991e-07
8.21631e-07
-8.19809e-07
4.80548e-05
4.58603e-05
-4.80827e-05
8.51376e-07
-8.57525e-07
8.51118e-07
-8.57992e-07
-4.58531e-05
4.80838e-05
5.41877e-07
5.64286e-07
5.38348e-07
5.64621e-07
-5.63491e-07
-5.35788e-07
-5.63115e-07
4.58394e-05
-4.80522e-05
-8.20395e-07
8.21719e-07
-8.20018e-07
4.80546e-05
4.58603e-05
-4.80824e-05
8.51573e-07
-8.57486e-07
8.51076e-07
-8.58312e-07
-4.58533e-05
4.8084e-05
5.4206e-07
5.64485e-07
5.3854e-07
5.64788e-07
-5.6353e-07
-5.35863e-07
-5.63416e-07
4.58395e-05
-4.80521e-05
-8.20412e-07
8.21893e-07
-8.20425e-07
4.80543e-05
4.586e-05
-4.80836e-05
8.51443e-07
-8.57679e-07
8.49078e-07
-8.58411e-07
-4.58533e-05
4.8086e-05
5.42015e-07
5.64603e-07
5.39154e-07
5.64597e-07
-5.63831e-07
-5.3489e-07
-5.65034e-07
4.58394e-05
-4.80541e-05
-8.20477e-07
8.2025e-07
-8.18594e-07
4.8058e-05
4.58571e-05
-4.80766e-05
8.49098e-07
-8.55224e-07
8.49128e-07
-8.55439e-07
-4.58505e-05
4.80866e-05
5.43486e-07
5.6433e-07
5.44437e-07
5.65096e-07
-5.67254e-07
-5.31927e-07
-5.68099e-07
4.58375e-05
-4.80546e-05
-8.16666e-07
8.19793e-07
-8.14856e-07
4.80585e-05
4.58641e-05
-4.80874e-05
8.54537e-07
-8.56007e-07
8.44562e-07
-8.60528e-07
-4.58535e-05
4.80802e-05
5.49018e-07
5.65118e-07
5.3694e-07
5.64047e-07
-5.65608e-07
-5.35432e-07
-5.62671e-07
4.58377e-05
-4.80543e-05
-8.17101e-07
8.20848e-07
-8.18754e-07
4.80557e-05
4.58515e-05
-4.80838e-05
8.45366e-07
-8.62357e-07
8.47628e-07
-8.52484e-07
-4.58597e-05
4.80853e-05
5.3919e-07
5.63481e-07
5.37232e-07
5.63584e-07
-5.63024e-07
-5.34145e-07
-5.62289e-07
4.58375e-05
-4.80551e-05
-8.18992e-07
8.20007e-07
-8.1877e-07
4.8056e-05
4.58545e-05
-4.80823e-05
8.47998e-07
-8.53266e-07
8.49404e-07
-8.53619e-07
-4.58523e-05
4.80849e-05
5.4078e-07
5.63701e-07
5.38672e-07
5.64514e-07
-5.62906e-07
-5.36478e-07
-5.63227e-07
4.5837e-05
-4.80542e-05
-8.19504e-07
8.21165e-07
-8.19932e-07
4.80548e-05
4.58559e-05
-4.80817e-05
8.48726e-07
-8.53106e-07
8.49492e-07
-8.52939e-07
-4.58529e-05
4.80854e-05
5.41914e-07
5.64497e-07
5.38923e-07
5.64769e-07
-5.63496e-07
-5.36579e-07
-5.62742e-07
4.58379e-05
-4.8054e-05
-8.2013e-07
8.21377e-07
-8.19596e-07
4.80552e-05
4.58567e-05
-4.80805e-05
8.49519e-07
-8.52912e-07
8.50365e-07
-8.53021e-07
-4.58525e-05
4.80854e-05
5.42838e-07
5.64933e-07
5.40087e-07
5.65769e-07
-5.63411e-07
-5.37187e-07
-5.63289e-07
4.58381e-05
-4.80532e-05
-8.19902e-07
8.22044e-07
-8.20027e-07
4.80547e-05
4.58577e-05
-4.80807e-05
8.49834e-07
-8.531e-07
8.49776e-07
-8.52473e-07
-4.58525e-05
4.80858e-05
5.43561e-07
5.65622e-07
5.39752e-07
5.65197e-07
-5.63603e-07
-5.36863e-07
-5.62864e-07
4.58388e-05
-4.80537e-05
-8.20168e-07
8.21503e-07
-8.19663e-07
4.80551e-05
4.58573e-05
-4.80811e-05
8.49087e-07
-8.5249e-07
8.48638e-07
-8.52658e-07
-4.58518e-05
4.8086e-05
5.43024e-07
5.64992e-07
5.39459e-07
5.64921e-07
-5.63324e-07
-5.36998e-07
-5.63024e-07
4.58382e-05
-4.80539e-05
-8.2009e-07
8.21425e-07
-8.20172e-07
4.80548e-05
4.58571e-05
-4.8081e-05
8.47991e-07
-8.52852e-07
8.48035e-07
-8.52118e-07
-4.58519e-05
4.80864e-05
5.42986e-07
5.64546e-07
5.39365e-07
5.64244e-07
-5.6325e-07
-5.36131e-07
-5.61864e-07
4.5838e-05
-4.80546e-05
-8.20441e-07
8.20934e-07
-8.19559e-07
4.80556e-05
4.58571e-05
-4.80813e-05
8.47475e-07
-8.51879e-07
8.4757e-07
-8.52035e-07
-4.5851e-05
4.80868e-05
5.42691e-07
5.64039e-07
5.3914e-07
5.6434e-07
-5.61963e-07
-5.35958e-07
-5.61669e-07
4.58374e-05
-4.80542e-05
-8.19693e-07
8.21261e-07
-8.19526e-07
4.80556e-05
4.58567e-05
-4.80815e-05
8.47089e-07
-8.52403e-07
8.47424e-07
-8.52147e-07
-4.58513e-05
4.80864e-05
5.42578e-07
5.64209e-07
5.3894e-07
5.64336e-07
-5.62205e-07
-5.36328e-07
-5.62049e-07
4.58377e-05
-4.80541e-05
-8.19946e-07
8.21241e-07
-8.19823e-07
4.80551e-05
4.58566e-05
-4.80808e-05
8.46981e-07
-8.52138e-07
8.47895e-07
-8.52261e-07
-4.58512e-05
4.80863e-05
5.42296e-07
5.64158e-07
5.39421e-07
5.64614e-07
-5.62374e-07
-5.364e-07
-5.6239e-07
4.58377e-05
-4.80538e-05
-8.20119e-07
8.21443e-07
-8.201e-07
4.80548e-05
4.58574e-05
-4.80799e-05
8.4766e-07
-8.52523e-07
8.4869e-07
-8.52812e-07
-4.58516e-05
4.80855e-05
5.43177e-07
5.6469e-07
5.40546e-07
5.65573e-07
-5.62948e-07
-5.37454e-07
-5.6311e-07
4.5838e-05
-4.80532e-05
-8.20686e-07
8.2201e-07
-8.20632e-07
4.80542e-05
4.58581e-05
-4.8079e-05
8.48395e-07
-8.52768e-07
8.49547e-07
-8.51565e-07
-4.58522e-05
4.80856e-05
5.44018e-07
5.65409e-07
5.4092e-07
5.65404e-07
-5.63433e-07
-5.37033e-07
-5.62257e-07
4.58385e-05
-4.80529e-05
-8.21032e-07
8.22246e-07
-8.20259e-07
4.80547e-05
4.58587e-05
-4.80772e-05
8.49809e-07
-8.50725e-07
8.51861e-07
-8.43253e-07
-4.5851e-05
4.80882e-05
5.44737e-07
5.65261e-07
5.42058e-07
5.65863e-07
-5.62504e-07
-5.37193e-07
-5.62277e-07
4.58385e-05
-4.80525e-05
-8.20471e-07
8.22423e-07
-8.20286e-07
4.80548e-05
4.586e-05
-4.80803e-05
8.51247e-07
-8.4324e-07
8.48823e-07
-8.52206e-07
-4.58485e-05
4.80871e-05
5.45385e-07
5.65516e-07
5.40359e-07
5.64566e-07
-5.62802e-07
-5.37495e-07
-5.62368e-07
4.58388e-05
-4.80538e-05
-8.20525e-07
8.21483e-07
-8.19682e-07
4.80549e-05
4.58574e-05
-4.80815e-05
8.47742e-07
-8.50944e-07
8.48108e-07
-8.51251e-07
-4.58505e-05
4.80862e-05
5.43211e-07
5.6378e-07
5.38735e-07
5.62555e-07
-5.64115e-07
-5.37988e-07
-5.6818e-07
4.58376e-05
-4.80551e-05
-8.19403e-07
8.2135e-07
-8.17911e-07
4.80529e-05
4.58564e-05
-4.80821e-05
8.4776e-07
-8.51401e-07
8.47879e-07
-8.51168e-07
-4.58514e-05
4.80857e-05
5.41967e-07
5.61853e-07
5.37955e-07
5.61646e-07
-5.70224e-07
-5.38622e-07
-5.68377e-07
4.58366e-05
-4.80557e-05
-8.18027e-07
8.21854e-07
-8.18104e-07
4.80523e-05
4.58559e-05
-4.8082e-05
8.47519e-07
-8.50814e-07
8.48073e-07
-8.5103e-07
-4.58516e-05
4.80859e-05
5.4131e-07
5.61309e-07
5.37938e-07
5.61771e-07
-5.69841e-07
-5.38523e-07
-5.68419e-07
4.5836e-05
-4.80554e-05
-8.18304e-07
8.22165e-07
-8.18249e-07
4.80526e-05
4.58561e-05
-4.80813e-05
8.47809e-07
-8.51423e-07
8.48586e-07
-8.51752e-07
-4.5852e-05
4.80849e-05
5.41559e-07
5.617e-07
5.38789e-07
5.62546e-07
-5.70057e-07
-5.39395e-07
-5.68854e-07
4.58364e-05
-4.80548e-05
-8.18615e-07
8.22796e-07
-8.18898e-07
4.80521e-05
4.58567e-05
-4.80811e-05
8.4822e-07
-8.51747e-07
8.48701e-07
-8.51771e-07
-4.58526e-05
4.8085e-05
5.42297e-07
5.623e-07
5.38984e-07
5.62698e-07
-5.70368e-07
-5.39425e-07
-5.69097e-07
4.5837e-05
-4.80547e-05
-8.19145e-07
8.22947e-07
-8.19383e-07
4.80519e-05
4.58568e-05
-4.80808e-05
8.48252e-07
-8.52116e-07
8.48859e-07
-8.52735e-07
-4.58527e-05
4.80839e-05
5.42362e-07
5.6248e-07
5.3952e-07
5.63349e-07
-5.70824e-07
-5.40357e-07
-5.69841e-07
4.58371e-05
-4.80541e-05
-8.19731e-07
8.23403e-07
-8.19824e-07
4.80515e-05
4.58572e-05
-4.80811e-05
8.48365e-07
-8.52745e-07
8.48653e-07
-8.52204e-07
-4.58535e-05
4.80848e-05
5.42762e-07
5.63247e-07
5.39288e-07
5.63293e-07
-5.71302e-07
-5.39592e-07
-5.69215e-07
4.58377e-05
-4.80541e-05
-8.19967e-07
8.23298e-07
-8.19465e-07
4.8052e-05
4.58568e-05
-4.80808e-05
8.48281e-07
-8.52074e-07
8.48814e-07
-8.51871e-07
-4.58525e-05
4.80852e-05
5.42321e-07
5.6278e-07
5.39319e-07
5.62846e-07
-5.7049e-07
-5.39017e-07
-5.68798e-07
4.58374e-05
-4.80548e-05
-8.19496e-07
8.22746e-07
-8.19372e-07
4.80524e-05
4.58569e-05
-4.80818e-05
8.48245e-07
-8.52012e-07
8.47997e-07
-8.51597e-07
-4.58522e-05
4.80855e-05
5.42016e-07
5.62555e-07
5.38731e-07
5.62027e-07
-5.70379e-07
-5.38431e-07
-5.68214e-07
4.58368e-05
-4.80553e-05
-8.19648e-07
8.22187e-07
-8.19231e-07
4.80528e-05
4.58559e-05
-4.80822e-05
8.47295e-07
-8.51491e-07
8.47718e-07
-8.51412e-07
-4.58517e-05
4.80856e-05
5.40278e-07
5.61393e-07
5.38364e-07
5.61741e-07
-5.69347e-07
-5.382e-07
-5.67656e-07
4.58361e-05
-4.80552e-05
-8.19312e-07
8.22211e-07
-8.19115e-07
4.80532e-05
4.58556e-05
-4.80814e-05
8.4744e-07
-8.5163e-07
8.48301e-07
-8.51778e-07
-4.58517e-05
4.80851e-05
5.40682e-07
5.61697e-07
5.39247e-07
5.62371e-07
-5.69474e-07
-5.388e-07
-5.68457e-07
4.58365e-05
-4.80547e-05
-8.19533e-07
8.22752e-07
-8.20121e-07
4.80521e-05
4.58562e-05
-4.80815e-05
8.47818e-07
-8.51776e-07
8.48242e-07
-8.5173e-07
-4.5852e-05
4.80851e-05
5.41148e-07
5.61922e-07
5.39206e-07
5.62266e-07
-5.69785e-07
-5.38755e-07
-5.68224e-07
4.58369e-05
-4.80548e-05
-8.2024e-07
8.22481e-07
-8.20048e-07
4.80523e-05
4.58559e-05
-4.80807e-05
8.47924e-07
-8.51965e-07
8.4869e-07
-8.52323e-07
-4.58519e-05
4.80843e-05
5.41448e-07
5.62424e-07
5.39848e-07
5.64036e-07
-5.70193e-07
-5.39714e-07
-5.70074e-07
4.5837e-05
-4.80518e-05
-8.20515e-07
8.24231e-07
-8.21736e-07
4.80498e-05
4.58563e-05
-4.80807e-05
8.4821e-07
-8.5254e-07
8.4878e-07
-8.52491e-07
-4.58523e-05
4.80841e-05
5.41794e-07
5.64224e-07
5.39759e-07
5.66595e-07
-5.72214e-07
-5.39653e-07
-5.7245e-07
4.58391e-05
-4.80471e-05
-8.22813e-07
8.28639e-07
-8.26239e-07
4.80448e-05
4.58562e-05
-4.80808e-05
8.48292e-07
-8.52345e-07
8.48698e-07
-8.52284e-07
-4.58522e-05
4.80845e-05
5.41703e-07
5.66642e-07
5.39771e-07
5.65232e-07
-5.74514e-07
-5.39485e-07
-5.71458e-07
4.58423e-05
-4.80509e-05
-8.27128e-07
8.28352e-07
-8.25447e-07
4.80476e-05
4.58566e-05
-4.80814e-05
8.48346e-07
-8.52411e-07
8.48318e-07
-8.51765e-07
-4.58524e-05
4.80851e-05
5.41844e-07
5.64126e-07
5.39197e-07
5.62662e-07
-5.71981e-07
-5.38888e-07
-5.68474e-07
4.58401e-05
-4.80544e-05
-8.24492e-07
8.23167e-07
-8.20657e-07
4.80522e-05
4.5856e-05
-4.80821e-05
8.47607e-07
-8.51576e-07
8.47839e-07
-8.51752e-07
-4.58518e-05
4.80853e-05
5.40905e-07
5.62028e-07
5.38766e-07
5.61979e-07
-5.69707e-07
-5.38568e-07
-5.67962e-07
4.5837e-05
-4.8055e-05
-8.20535e-07
8.22572e-07
-8.20213e-07
4.80524e-05
4.58556e-05
-4.80822e-05
8.47391e-07
-8.52126e-07
8.47763e-07
-8.51639e-07
-4.58522e-05
4.80852e-05
5.40782e-07
5.61809e-07
5.3869e-07
5.61864e-07
-5.69699e-07
-5.38402e-07
-5.67846e-07
4.58364e-05
-4.80552e-05
-8.20292e-07
8.22002e-07
-8.1991e-07
4.80525e-05
4.58555e-05
-4.80819e-05
8.474e-07
-8.51278e-07
8.48078e-07
-8.51398e-07
-4.58516e-05
4.80857e-05
5.40703e-07
5.61455e-07
5.38827e-07
5.61891e-07
-5.69074e-07
-5.38301e-07
-5.6758e-07
4.58361e-05
-4.80549e-05
-8.20221e-07
8.22565e-07
-8.20396e-07
4.80521e-05
4.58559e-05
-4.80812e-05
8.47759e-07
-8.51908e-07
8.48589e-07
-8.51996e-07
-4.58518e-05
4.80847e-05
5.41089e-07
5.61866e-07
5.39709e-07
5.62758e-07
-5.69499e-07
-5.39338e-07
-5.68663e-07
4.58367e-05
-4.80541e-05
-8.20956e-07
8.23102e-07
-8.21204e-07
4.80509e-05
4.58564e-05
-4.80813e-05
8.48111e-07
-8.5197e-07
8.4854e-07
-8.52045e-07
-4.58523e-05
4.80848e-05
5.41689e-07
5.62372e-07
5.39799e-07
5.62766e-07
-5.70202e-07
-5.3938e-07
-5.68917e-07
4.58373e-05
-4.80541e-05
-8.21476e-07
8.23226e-07
-8.21679e-07
4.80506e-05
4.58565e-05
-4.80808e-05
8.48237e-07
-8.52126e-07
8.48927e-07
-8.52402e-07
-4.58524e-05
4.80843e-05
5.4201e-07
5.62756e-07
5.40318e-07
5.63644e-07
-5.7045e-07
-5.39897e-07
-5.68828e-07
4.58374e-05
-4.80529e-05
-8.2193e-07
8.24241e-07
-8.21757e-07
4.80507e-05
4.58569e-05
-4.80812e-05
8.48476e-07
-8.52661e-07
8.48625e-07
-8.52604e-07
-4.58529e-05
4.80842e-05
5.4231e-07
5.63408e-07
5.39972e-07
5.63125e-07
-5.70416e-07
-5.39896e-07
-5.69148e-07
4.58384e-05
-4.8054e-05
-8.22041e-07
8.23439e-07
-8.22014e-07
4.80505e-05
4.58564e-05
-4.80817e-05
8.47991e-07
-8.52437e-07
8.4827e-07
-8.51711e-07
-4.58528e-05
4.80852e-05
5.41724e-07
5.62579e-07
5.39236e-07
5.62317e-07
-5.70439e-07
-5.38873e-07
-5.68235e-07
4.58373e-05
-4.80546e-05
-8.221e-07
8.22787e-07
-8.21393e-07
4.80512e-05
4.58559e-05
-4.80819e-05
8.47825e-07
-8.51652e-07
8.48055e-07
-8.51641e-07
-4.58518e-05
4.80854e-05
5.41172e-07
5.6199e-07
5.39023e-07
5.62276e-07
-5.69737e-07
-5.38706e-07
-5.68057e-07
4.58368e-05
-4.80545e-05
-8.21522e-07
8.22882e-07
-8.21125e-07
4.80514e-05
4.58556e-05
-4.80821e-05
8.4755e-07
-8.51812e-07
8.47841e-07
-8.51622e-07
-4.58518e-05
4.80853e-05
5.40967e-07
5.61967e-07
5.38651e-07
5.61846e-07
-5.69271e-07
-5.38401e-07
-5.67588e-07
4.58368e-05
-4.80549e-05
-8.21182e-07
8.22523e-07
-8.20736e-07
4.80518e-05
4.58555e-05
-4.80819e-05
8.47339e-07
-8.51744e-07
8.4815e-07
-8.51498e-07
-4.58518e-05
4.80854e-05
5.40629e-07
5.61548e-07
5.39102e-07
5.62126e-07
-5.6922e-07
-5.38585e-07
-5.67875e-07
4.58364e-05
-4.80546e-05
-8.2102e-07
8.22697e-07
-8.20895e-07
4.80514e-05
4.58559e-05
-4.80812e-05
8.47912e-07
-8.51436e-07
8.48629e-07
-8.51821e-07
-4.58516e-05
4.80851e-05
5.41286e-07
5.61953e-07
5.39569e-07
5.62513e-07
-5.69367e-07
-5.3907e-07
-5.68411e-07
4.58369e-05
-4.80542e-05
-8.21164e-07
8.23076e-07
-8.21305e-07
4.80509e-05
4.58565e-05
-4.80808e-05
8.48257e-07
-8.52099e-07
8.49059e-07
-8.52559e-07
-4.58523e-05
4.80843e-05
5.41733e-07
5.62391e-07
5.40371e-07
5.63236e-07
-5.70049e-07
-5.40074e-07
-5.69083e-07
4.58372e-05
-4.80537e-05
-8.21538e-07
8.23399e-07
-8.21641e-07
4.80506e-05
4.58567e-05
-4.80806e-05
8.47992e-07
-8.52037e-07
8.50309e-07
-8.54089e-07
-4.58527e-05
4.80839e-05
5.41728e-07
5.62278e-07
5.41929e-07
5.64932e-07
-5.69902e-07
-5.41717e-07
-5.70721e-07
4.58374e-05
-4.80532e-05
-8.21202e-07
8.24687e-07
-8.23088e-07
4.80502e-05
4.5856e-05
-4.80752e-05
8.4545e-07
-8.49804e-07
8.5635e-07
-8.59977e-07
-4.58522e-05
4.80788e-05
5.38923e-07
5.59654e-07
5.49042e-07
5.71966e-07
-5.67261e-07
-5.48597e-07
-5.77989e-07
4.58369e-05
-4.80484e-05
-8.18886e-07
8.30323e-07
-8.29061e-07
4.8045e-05
4.58483e-05
-4.80499e-05
8.36765e-07
-8.40558e-07
8.64056e-07
-8.67747e-07
-4.58442e-05
4.80539e-05
5.3014e-07
5.50755e-07
5.57889e-07
5.80763e-07
-5.58376e-07
-5.57225e-07
-5.88065e-07
4.58279e-05
-4.80239e-05
-8.10126e-07
8.38098e-07
-8.36802e-07
4.80202e-05
4.57962e-05
-4.7802e-05
8.19704e-07
-8.23765e-07
8.50412e-07
-8.54534e-07
-4.57924e-05
4.78051e-05
5.24512e-07
5.44593e-07
5.32635e-07
5.56101e-07
-5.53857e-07
-5.32719e-07
-5.64579e-07
4.57755e-05
-4.77755e-05
-7.93198e-07
8.24656e-07
-8.23472e-07
4.7772e-05
4.55372e-05
-4.78376e-05
8.65146e-07
-8.69012e-07
7.20853e-07
-7.25307e-07
-4.55328e-05
4.78411e-05
5.74871e-07
5.94098e-07
3.25966e-07
3.49673e-07
-6.04537e-07
-3.25169e-07
-3.54202e-07
4.55158e-05
-4.78115e-05
-8.38666e-07
6.94523e-07
-6.94297e-07
4.78073e-05
4.5506e-05
-4.70111e-05
1.00352e-06
-1.00779e-06
5.39371e-07
-5.45248e-07
-4.55011e-05
4.70135e-05
8.34824e-07
8.54603e-07
3.9599e-08
6.6581e-08
-8.63727e-07
-4.02028e-08
-7.02832e-08
4.5486e-05
-4.69844e-05
-9.77846e-07
5.14262e-07
-5.13335e-07
4.69797e-05
4.46743e-05
-4.61092e-05
1.24714e-06
-1.25134e-06
-3.60908e-09
-4.20944e-09
-4.46701e-05
4.61119e-05
1.18188e-06
1.20135e-06
-6.0709e-07
-5.77172e-07
-1.20682e-06
6.07061e-07
5.81426e-07
4.46539e-05
-4.60844e-05
-1.22227e-06
-2.64747e-08
2.7079e-08
4.60803e-05
4.33746e-05
-4.37749e-05
1.86972e-06
-1.87443e-06
-1.2464e-06
1.23538e-06
-4.33718e-05
4.37814e-05
2.03693e-06
2.05954e-06
-2.01711e-06
-1.98571e-06
-2.05879e-06
2.00791e-06
1.98406e-06
4.33585e-05
-4.37536e-05
-1.84586e-06
-1.2674e-06
1.26158e-06
4.37391e-05
4.02775e-05
-3.59871e-05
3.18923e-06
-3.19749e-06
-5.14025e-06
5.11785e-06
-4.02794e-05
3.59538e-05
3.66553e-06
3.68633e-06
-6.76448e-06
-6.74118e-06
-3.69333e-06
6.73992e-06
6.72962e-06
4.0273e-05
-3.59627e-05