/*--------------------------------*- C++ -*----------------------------------*\
| =========                 |                                                 |
| \\      /  F ield         | OpenFOAM: The Open Source CFD Toolbox           |
|  \\    /   O peration     | Version:  2206                                  |
|   \\  /    A nd           | Website:  www.openfoam.com                      |
|    \\/     M anipulation  |                                                 |
\*---------------------------------------------------------------------------*/
FoamFile
{
    version     2.0;
    format      ascii;
    arch        "LSB;label=32;scalar=64";
    class       volVectorField;
    location    "16.5";
    object      U;
}
// * * * * * * * * * * * * * * * * * * * * * * * * * * * * * * * * * * * * * //

dimensions      [0 1 -1 0 0 0 0];

internalField   nonuniform List<vector> 
28448
(
(-5.31167e-07 -5.26867e-07 0.101962)
(-3.37842e-07 5.4911e-07 0.101945)
(5.4444e-07 -3.30761e-07 0.101945)
(-3.93183e-05 -3.93247e-05 0.101917)
(-5.46202e-07 -5.47906e-07 0.101962)
(-3.11604e-07 5.25623e-07 0.101945)
(5.34766e-07 -3.17604e-07 0.101945)
(-3.92823e-05 -3.92924e-05 0.101917)
(-5.65147e-07 -5.9232e-07 0.101962)
(-2.73542e-07 4.63595e-07 0.101944)
(5.3949e-07 -3.30158e-07 0.101944)
(-3.9233e-05 -3.9255e-05 0.101917)
(-4.44702e-07 -4.35767e-07 0.101962)
(-4.48689e-07 6.199e-07 0.101945)
(5.74079e-07 -4.08445e-07 0.101945)
(-3.94343e-05 -3.94418e-05 0.101917)
(-5.19181e-07 -5.10776e-07 0.101962)
(-3.50228e-07 5.52913e-07 0.101945)
(5.56675e-07 -3.31713e-07 0.101945)
(-3.9355e-05 -3.93434e-05 0.101917)
(-5.22195e-07 -5.20679e-07 0.101962)
(-3.50403e-07 5.5027e-07 0.101945)
(5.52268e-07 -3.40913e-07 0.101945)
(-3.93517e-05 -3.93517e-05 0.101917)
(-5.22345e-07 -5.23058e-07 0.101962)
(-3.51991e-07 5.48735e-07 0.101945)
(5.49458e-07 -3.46652e-07 0.101945)
(-3.93481e-05 -3.93564e-05 0.101917)
(-5.22182e-07 -5.23741e-07 0.101962)
(-3.52167e-07 5.48033e-07 0.101945)
(5.49292e-07 -3.47116e-07 0.101945)
(-3.93484e-05 -3.93579e-05 0.101917)
(-5.2156e-07 -5.23505e-07 0.101962)
(-3.52611e-07 5.48228e-07 0.101945)
(5.5016e-07 -3.4826e-07 0.101945)
(-3.93488e-05 -3.93585e-05 0.101917)
(-5.21554e-07 -5.23241e-07 0.101962)
(-3.52778e-07 5.48339e-07 0.101945)
(5.49731e-07 -3.47725e-07 0.101945)
(-3.93491e-05 -3.93583e-05 0.101917)
(-5.22213e-07 -5.2379e-07 0.101962)
(-3.5273e-07 5.48209e-07 0.101945)
(5.49607e-07 -3.47364e-07 0.101945)
(-3.9349e-05 -3.93581e-05 0.101917)
(-5.22328e-07 -5.24006e-07 0.101962)
(-3.51844e-07 5.47549e-07 0.101945)
(5.49303e-07 -3.47209e-07 0.101945)
(-3.93486e-05 -3.93577e-05 0.101917)
(-5.22567e-07 -5.24137e-07 0.101962)
(-3.51387e-07 5.47485e-07 0.101945)
(5.49044e-07 -3.46584e-07 0.101945)
(-3.93481e-05 -3.93572e-05 0.101917)
(-5.22774e-07 -5.24107e-07 0.101962)
(-3.51916e-07 5.47786e-07 0.101945)
(5.48734e-07 -3.46644e-07 0.101945)
(-3.93485e-05 -3.93578e-05 0.101917)
(-5.22407e-07 -5.24159e-07 0.101962)
(-3.51874e-07 5.47603e-07 0.101945)
(5.49171e-07 -3.47074e-07 0.101945)
(-3.93477e-05 -3.93571e-05 0.101917)
(-5.21571e-07 -5.23646e-07 0.101962)
(-3.517e-07 5.47231e-07 0.101945)
(5.49384e-07 -3.47683e-07 0.101945)
(-3.93486e-05 -3.93582e-05 0.101917)
(-5.20415e-07 -5.24542e-07 0.101962)
(-3.51426e-07 5.46484e-07 0.101945)
(5.50661e-07 -3.47614e-07 0.101945)
(-3.93431e-05 -3.93539e-05 0.101917)
(-5.20698e-07 -5.31531e-07 0.101962)
(5.50598e-07 -3.38558e-07 0.101945)
(-4.08846e-05 -4.08555e-05 0.101918)
(5.63173e-07 3.55698e-07 0.101945)
(-5.64129e-07 3.68942e-07 0.101945)
(4.08888e-05 -4.08592e-05 0.101918)
(3.43003e-07 5.54777e-07 0.101945)
(3.56544e-07 -5.57917e-07 0.101945)
(-3.4123e-07 5.51564e-07 0.101945)
(-3.61654e-07 -5.51691e-07 0.101945)
(-4.08645e-05 4.09004e-05 0.101918)
(5.46496e-07 -3.33521e-07 0.101945)
(-5.43592e-07 -3.50314e-07 0.101945)
(4.08652e-05 4.08926e-05 0.101918)
(3.93301e-05 3.9318e-05 0.101917)
(-4.09102e-05 -4.08837e-05 0.101918)
(5.5935e-07 3.56653e-07 0.101945)
(-5.60983e-07 3.63825e-07 0.101945)
(5.44207e-07 3.22255e-07 0.101945)
(-5.45668e-07 3.35024e-07 0.101945)
(-3.93259e-05 3.93047e-05 0.101917)
(4.09135e-05 -4.08894e-05 0.101918)
(3.39777e-07 5.53164e-07 0.101945)
(3.52424e-07 -5.55754e-07 0.101945)
(3.11089e-07 5.34083e-07 0.101945)
(3.21529e-07 -5.36657e-07 0.101945)
(-3.57011e-07 -5.48802e-07 0.101945)
(-3.08429e-07 5.30323e-07 0.101945)
(-3.27606e-07 -5.30535e-07 0.101945)
(3.93034e-05 -3.9333e-05 0.101917)
(-4.08965e-05 4.09278e-05 0.101918)
(-5.41157e-07 -3.45901e-07 0.101945)
(5.23935e-07 -3.02003e-07 0.101945)
(-5.22305e-07 -3.18351e-07 0.101945)
(4.08965e-05 4.09209e-05 0.101918)
(3.93105e-05 3.92944e-05 0.101917)
(-4.09538e-05 -4.09397e-05 0.101918)
(5.38708e-07 3.21116e-07 0.101945)
(-5.41678e-07 3.28157e-07 0.101945)
(5.07034e-07 2.60798e-07 0.101944)
(-5.09331e-07 2.72903e-07 0.101944)
(-3.93075e-05 3.92781e-05 0.101917)
(4.09589e-05 -4.09452e-05 0.101918)
(3.09921e-07 5.28591e-07 0.101945)
(3.32862e-07 -5.50398e-07 0.101945)
(2.59125e-07 4.84952e-07 0.101944)
(2.53031e-07 -5.01279e-07 0.101944)
(-3.39981e-07 -5.4428e-07 0.101945)
(-2.5118e-07 4.83245e-07 0.101944)
(-2.57818e-07 -4.94439e-07 0.101944)
(3.92661e-05 -3.93019e-05 0.101917)
(-4.09915e-05 4.10111e-05 0.101918)
(-5.33634e-07 -3.32157e-07 0.101945)
(4.76202e-07 -2.42917e-07 0.101944)
(-4.76012e-07 -2.57274e-07 0.101944)
(4.09923e-05 4.10064e-05 0.101918)
(3.92542e-05 3.92246e-05 0.101917)
(-4.07567e-05 -4.07413e-05 0.101918)
(4.95979e-07 2.43865e-07 0.101944)
(-5.04987e-07 2.48855e-07 0.101944)
(6.49299e-07 4.80959e-07 0.101944)
(-6.53889e-07 4.88835e-07 0.101944)
(-3.92527e-05 3.92146e-05 0.101917)
(4.07567e-05 -4.07401e-05 0.101918)
(2.56288e-07 4.63459e-07 0.101944)
(3.2125e-07 -5.78541e-07 0.101944)
(4.82961e-07 6.26989e-07 0.101944)
(4.64898e-07 -6.27945e-07 0.101944)
(-3.35672e-07 -5.71008e-07 0.101944)
(-4.87874e-07 6.2674e-07 0.101944)
(-4.78286e-07 -6.2002e-07 0.101944)
(3.92171e-05 -3.92644e-05 0.101917)
(-4.07704e-05 4.0798e-05 0.101918)
(-5.41708e-07 -3.41837e-07 0.101944)
(6.01875e-07 -4.54676e-07 0.101945)
(-6.01839e-07 -4.73892e-07 0.101945)
(4.07725e-05 4.07921e-05 0.101918)
(3.94955e-05 3.94814e-05 0.101917)
(-4.09035e-05 -4.08653e-05 0.101918)
(6.19796e-07 4.76167e-07 0.101945)
(-6.20304e-07 4.81915e-07 0.101945)
(5.61178e-07 3.82524e-07 0.101945)
(-5.60528e-07 3.96268e-07 0.101945)
(-3.94895e-05 3.94746e-05 0.101917)
(4.09111e-05 -4.0871e-05 0.101918)
(4.56567e-07 6.18316e-07 0.101945)
(4.35412e-07 -5.7906e-07 0.101945)
(3.59818e-07 5.6169e-07 0.101945)
(3.80276e-07 -5.45487e-07 0.101945)
(-4.39997e-07 -5.74653e-07 0.101945)
(-3.54231e-07 5.56145e-07 0.101945)
(-3.83151e-07 -5.40383e-07 0.101945)
(3.94214e-05 -3.94487e-05 0.101917)
(-4.08695e-05 4.09265e-05 0.101918)
(-5.71867e-07 -4.25464e-07 0.101945)
(5.54604e-07 -3.32742e-07 0.101945)
(-5.51606e-07 -3.54627e-07 0.101945)
(4.08708e-05 4.09174e-05 0.101918)
(3.93534e-05 3.9348e-05 0.101917)
(-4.0907e-05 -4.08789e-05 0.101918)
(5.60128e-07 3.77032e-07 0.101945)
(-5.60893e-07 3.85768e-07 0.101945)
(5.63273e-07 3.6156e-07 0.101945)
(-5.65167e-07 3.74731e-07 0.101945)
(-3.9347e-05 3.93333e-05 0.101917)
(4.09093e-05 -4.08826e-05 0.101918)
(3.54676e-07 5.59134e-07 0.101945)
(3.75227e-07 -5.4966e-07 0.101945)
(3.49617e-07 5.54417e-07 0.101945)
(3.66364e-07 -5.58227e-07 0.101945)
(-3.78553e-07 -5.42054e-07 0.101945)
(-3.49716e-07 5.51549e-07 0.101945)
(-3.73027e-07 -5.5004e-07 0.101945)
(3.93406e-05 -3.93509e-05 0.101917)
(-4.0878e-05 4.09184e-05 0.101918)
(-5.52065e-07 -3.47325e-07 0.101945)
(5.5466e-07 -3.39653e-07 0.101945)
(-5.52302e-07 -3.56024e-07 0.101945)
(4.08767e-05 4.09129e-05 0.101918)
(3.93529e-05 3.93389e-05 0.101917)
(-4.09065e-05 -4.08808e-05 0.101918)
(5.63206e-07 3.65842e-07 0.101945)
(-5.65638e-07 3.73556e-07 0.101945)
(5.64169e-07 3.59512e-07 0.101945)
(-5.66568e-07 3.72309e-07 0.101945)
(-3.93507e-05 3.93253e-05 0.101917)
(4.09088e-05 -4.08842e-05 0.101918)
(3.51271e-07 5.54753e-07 0.101945)
(3.65052e-07 -5.61087e-07 0.101945)
(3.50159e-07 5.52012e-07 0.101945)
(3.63798e-07 -5.63864e-07 0.101945)
(-3.70979e-07 -5.52012e-07 0.101945)
(-3.51167e-07 5.49236e-07 0.101945)
(-3.7077e-07 -5.56635e-07 0.101945)
(3.93346e-05 -3.93615e-05 0.101917)
(-4.08814e-05 4.09134e-05 0.101918)
(-5.4996e-07 -3.55212e-07 0.101945)
(5.49139e-07 -3.4306e-07 0.101945)
(-5.47258e-07 -3.61814e-07 0.101945)
(4.0881e-05 4.09065e-05 0.101918)
(3.93536e-05 3.93377e-05 0.101917)
(-4.09065e-05 -4.08813e-05 0.101918)
(5.63759e-07 3.64594e-07 0.101945)
(-5.66824e-07 3.7219e-07 0.101945)
(5.64334e-07 3.59145e-07 0.101945)
(-5.66625e-07 3.71574e-07 0.101945)
(-3.93516e-05 3.93246e-05 0.101917)
(4.09087e-05 -4.0885e-05 0.101918)
(3.51989e-07 5.52918e-07 0.101945)
(3.63997e-07 -5.65116e-07 0.101945)
(3.50659e-07 5.51348e-07 0.101945)
(3.63798e-07 -5.65286e-07 0.101945)
(-3.70436e-07 -5.56673e-07 0.101945)
(-3.51548e-07 5.48231e-07 0.101945)
(-3.70911e-07 -5.58014e-07 0.101945)
(3.93319e-05 -3.93654e-05 0.101917)
(-4.08815e-05 4.0912e-05 0.101918)
(-5.47282e-07 -3.60001e-07 0.101945)
(5.48988e-07 -3.456e-07 0.101945)
(-5.4748e-07 -3.63456e-07 0.101945)
(4.08807e-05 4.0905e-05 0.101918)
(3.93538e-05 3.93375e-05 0.101917)
(-4.09058e-05 -4.0881e-05 0.101918)
(5.64069e-07 3.64476e-07 0.101945)
(-5.66818e-07 3.71713e-07 0.101945)
(5.64857e-07 3.596e-07 0.101945)
(-5.66958e-07 3.72221e-07 0.101945)
(-3.93517e-05 3.9324e-05 0.101917)
(4.09084e-05 -4.08846e-05 0.101918)
(3.5256e-07 5.52595e-07 0.101945)
(3.64169e-07 -5.66376e-07 0.101945)
(3.51674e-07 5.51587e-07 0.101945)
(3.646e-07 -5.66169e-07 0.101945)
(-3.70515e-07 -5.57893e-07 0.101945)
(-3.52066e-07 5.48483e-07 0.101945)
(-3.71105e-07 -5.58825e-07 0.101945)
(3.93319e-05 -3.93669e-05 0.101917)
(-4.08807e-05 4.09111e-05 0.101918)
(-5.47057e-07 -3.6167e-07 0.101945)
(5.49706e-07 -3.46691e-07 0.101945)
(-5.47757e-07 -3.63514e-07 0.101945)
(4.08802e-05 4.09043e-05 0.101918)
(3.93544e-05 3.93378e-05 0.101917)
(-4.09057e-05 -4.08806e-05 0.101918)
(5.64501e-07 3.64972e-07 0.101945)
(-5.67044e-07 3.72301e-07 0.101945)
(5.65172e-07 3.60047e-07 0.101945)
(-5.67186e-07 3.72363e-07 0.101945)
(-3.93521e-05 3.93243e-05 0.101917)
(4.0908e-05 -4.08845e-05 0.101918)
(3.53413e-07 5.52765e-07 0.101945)
(3.64916e-07 -5.67239e-07 0.101945)
(3.51875e-07 5.51853e-07 0.101945)
(3.64389e-07 -5.66166e-07 0.101945)
(-3.70569e-07 -5.5847e-07 0.101945)
(-3.52397e-07 5.48572e-07 0.101945)
(-3.71047e-07 -5.58701e-07 0.101945)
(3.93328e-05 -3.93678e-05 0.101917)
(-4.08808e-05 4.09112e-05 0.101918)
(-5.47336e-07 -3.63391e-07 0.101945)
(5.4969e-07 -3.46674e-07 0.101945)
(-5.48076e-07 -3.63507e-07 0.101945)
(4.08798e-05 4.09044e-05 0.101918)
(3.93545e-05 3.93382e-05 0.101917)
(-4.09063e-05 -4.08814e-05 0.101918)
(5.64685e-07 3.65282e-07 0.101945)
(-5.67328e-07 3.72397e-07 0.101945)
(5.64574e-07 3.59345e-07 0.101945)
(-5.67099e-07 3.71972e-07 0.101945)
(-3.93525e-05 3.93245e-05 0.101917)
(4.09083e-05 -4.08846e-05 0.101918)
(3.5338e-07 5.53067e-07 0.101945)
(3.6443e-07 -5.66821e-07 0.101945)
(3.51164e-07 5.51355e-07 0.101945)
(3.6388e-07 -5.65596e-07 0.101945)
(-3.70414e-07 -5.58098e-07 0.101945)
(-3.52236e-07 5.48542e-07 0.101945)
(-3.71088e-07 -5.58539e-07 0.101945)
(3.93323e-05 -3.93675e-05 0.101917)
(-4.08812e-05 4.09119e-05 0.101918)
(-5.47444e-07 -3.6304e-07 0.101945)
(5.4937e-07 -3.45976e-07 0.101945)
(-5.48255e-07 -3.63267e-07 0.101945)
(4.088e-05 4.09047e-05 0.101918)
(3.93539e-05 3.93373e-05 0.101917)
(-4.09065e-05 -4.08816e-05 0.101918)
(5.64131e-07 3.64619e-07 0.101945)
(-5.6712e-07 3.71983e-07 0.101945)
(5.64251e-07 3.59053e-07 0.101945)
(-5.6653e-07 3.71505e-07 0.101945)
(-3.9352e-05 3.93243e-05 0.101917)
(4.09087e-05 -4.08851e-05 0.101918)
(3.52839e-07 5.52542e-07 0.101945)
(3.64113e-07 -5.66495e-07 0.101945)
(3.50859e-07 5.51053e-07 0.101945)
(3.63535e-07 -5.65374e-07 0.101945)
(-3.70606e-07 -5.58188e-07 0.101945)
(-3.51534e-07 5.47913e-07 0.101945)
(-3.70457e-07 -5.58172e-07 0.101945)
(3.93321e-05 -3.93669e-05 0.101917)
(-4.08813e-05 4.09119e-05 0.101918)
(-5.47752e-07 -3.6307e-07 0.101945)
(5.49085e-07 -3.45754e-07 0.101945)
(-5.47929e-07 -3.62946e-07 0.101945)
(4.08802e-05 4.09049e-05 0.101918)
(3.93536e-05 3.93371e-05 0.101917)
(-4.09065e-05 -4.08816e-05 0.101918)
(5.63779e-07 3.64262e-07 0.101945)
(-5.66489e-07 3.71465e-07 0.101945)
(5.64385e-07 3.58886e-07 0.101945)
(-5.66222e-07 3.71096e-07 0.101945)
(-3.93516e-05 3.93237e-05 0.101917)
(4.0909e-05 -4.08855e-05 0.101918)
(3.52442e-07 5.52196e-07 0.101945)
(3.63806e-07 -5.66293e-07 0.101945)
(3.50677e-07 5.51077e-07 0.101945)
(3.63309e-07 -5.65249e-07 0.101945)
(-3.69657e-07 -5.57524e-07 0.101945)
(-3.50966e-07 5.47628e-07 0.101945)
(-3.69685e-07 -5.57645e-07 0.101945)
(3.93319e-05 -3.93668e-05 0.101917)
(-4.08815e-05 4.09121e-05 0.101918)
(-5.4709e-07 -3.6252e-07 0.101945)
(5.49063e-07 -3.45473e-07 0.101945)
(-5.47447e-07 -3.62277e-07 0.101945)
(4.08808e-05 4.09055e-05 0.101918)
(3.93537e-05 3.93371e-05 0.101917)
(-4.09068e-05 -4.0882e-05 0.101918)
(5.63825e-07 3.63979e-07 0.101945)
(-5.66386e-07 3.71167e-07 0.101945)
(5.64306e-07 3.58892e-07 0.101945)
(-5.66547e-07 3.71292e-07 0.101945)
(-3.93515e-05 3.93235e-05 0.101917)
(4.0909e-05 -4.08855e-05 0.101918)
(3.52163e-07 5.52151e-07 0.101945)
(3.63391e-07 -5.65975e-07 0.101945)
(3.50483e-07 5.50924e-07 0.101945)
(3.62964e-07 -5.649e-07 0.101945)
(-3.68955e-07 -5.57044e-07 0.101945)
(-3.51341e-07 5.47896e-07 0.101945)
(-3.70096e-07 -5.57982e-07 0.101945)
(3.93317e-05 -3.93665e-05 0.101917)
(-4.08821e-05 4.09127e-05 0.101918)
(-5.46637e-07 -3.61832e-07 0.101945)
(5.48499e-07 -3.45134e-07 0.101945)
(-5.47602e-07 -3.62415e-07 0.101945)
(4.08807e-05 4.09052e-05 0.101918)
(3.93536e-05 3.93371e-05 0.101917)
(-4.09067e-05 -4.08816e-05 0.101918)
(5.6367e-07 3.63985e-07 0.101945)
(-5.66687e-07 3.71398e-07 0.101945)
(5.64196e-07 3.58819e-07 0.101945)
(-5.66093e-07 3.71129e-07 0.101945)
(-3.93517e-05 3.93238e-05 0.101917)
(4.09085e-05 -4.08847e-05 0.101918)
(3.51966e-07 5.51999e-07 0.101945)
(3.63234e-07 -5.65839e-07 0.101945)
(3.5059e-07 5.50925e-07 0.101945)
(3.63026e-07 -5.65068e-07 0.101945)
(-3.69837e-07 -5.57678e-07 0.101945)
(-3.51143e-07 5.47661e-07 0.101945)
(-3.7022e-07 -5.58068e-07 0.101945)
(3.93313e-05 -3.93662e-05 0.101917)
(-4.08819e-05 4.09124e-05 0.101918)
(-5.47163e-07 -3.62243e-07 0.101945)
(5.48732e-07 -3.45514e-07 0.101945)
(-5.47667e-07 -3.62768e-07 0.101945)
(4.08806e-05 4.09051e-05 0.101918)
(3.93533e-05 3.93365e-05 0.101917)
(-4.09068e-05 -4.08824e-05 0.101918)
(5.63779e-07 3.64013e-07 0.101945)
(-5.66351e-07 3.71262e-07 0.101945)
(5.64073e-07 3.58169e-07 0.101945)
(-5.66375e-07 3.71207e-07 0.101945)
(-3.93498e-05 3.93222e-05 0.101917)
(4.09083e-05 -4.08844e-05 0.101918)
(3.52387e-07 5.52156e-07 0.101945)
(3.6372e-07 -5.66234e-07 0.101945)
(3.51356e-07 5.51208e-07 0.101945)
(3.64039e-07 -5.6566e-07 0.101945)
(-3.69399e-07 -5.57439e-07 0.101945)
(-3.51261e-07 5.47952e-07 0.101945)
(-3.6967e-07 -5.58034e-07 0.101945)
(3.93317e-05 -3.93665e-05 0.101917)
(-4.08808e-05 4.09113e-05 0.101918)
(-5.46798e-07 -3.62195e-07 0.101945)
(5.49205e-07 -3.45504e-07 0.101945)
(-5.47244e-07 -3.62812e-07 0.101945)
(4.08813e-05 4.09056e-05 0.101918)
(3.93547e-05 3.9337e-05 0.101917)
(-4.09024e-05 -4.08787e-05 0.101918)
(5.65098e-07 3.65166e-07 0.101945)
(-5.65994e-07 3.71618e-07 0.101945)
(5.66712e-07 3.59519e-07 0.101945)
(-5.66638e-07 3.72324e-07 0.101945)
(-3.93481e-05 3.93205e-05 0.101917)
(4.09036e-05 -4.08799e-05 0.101918)
(3.52834e-07 5.52267e-07 0.101945)
(3.63703e-07 -5.66277e-07 0.101945)
(3.53124e-07 5.5091e-07 0.101945)
(3.65175e-07 -5.66452e-07 0.101945)
(-3.70337e-07 -5.58577e-07 0.101945)
(-3.52031e-07 5.48299e-07 0.101945)
(-3.70461e-07 -5.59464e-07 0.101945)
(3.93328e-05 -3.93672e-05 0.101917)
(-4.08781e-05 4.09088e-05 0.101918)
(-5.47263e-07 -3.63785e-07 0.101945)
(5.50902e-07 -3.47406e-07 0.101945)
(-5.47338e-07 -3.64489e-07 0.101945)
(4.08778e-05 4.0901e-05 0.101918)
(3.93522e-05 3.93328e-05 0.101917)
(-4.08925e-05 -4.08731e-05 0.101918)
(5.65914e-07 3.63737e-07 0.101945)
(-5.64898e-07 3.71113e-07 0.101945)
(5.66958e-07 3.51375e-07 0.101945)
(-3.93446e-05 3.93169e-05 0.101917)
(3.54332e-07 5.5211e-07 0.101945)
(3.65614e-07 -5.67314e-07 0.101945)
(3.51228e-07 5.47458e-07 0.101945)
(3.64254e-07 -5.65689e-07 0.101945)
(-3.69161e-07 -5.58991e-07 0.101945)
(-3.62359e-07 -5.58789e-07 0.101945)
(3.93313e-05 -3.93652e-05 0.101917)
(-4.08685e-05 4.09018e-05 0.101918)
(-5.46253e-07 -3.63783e-07 0.101945)
(5.51395e-07 -3.42651e-07 0.101945)
(-5.43543e-07 -3.59222e-07 0.101945)
(4.08686e-05 4.08887e-05 0.101918)
(3.93403e-05 3.93154e-05 0.101917)
(3.48592e-07 5.46702e-07 0.101945)
(3.59709e-07 -5.64373e-07 0.101945)
(3.93183e-05 -3.93487e-05 0.101917)
(-5.28791e-07 -5.24233e-07 0.101962)
(5.32181e-07 -5.18471e-07 0.101962)
(-5.22689e-07 5.35461e-07 0.101962)
(5.35624e-07 5.23065e-07 0.101962)
(2.99622e-08 -7.93685e-06 0.100774)
(6.97474e-07 5.96727e-06 0.0958025)
(-2.13504e-08 7.70045e-06 0.100769)
(-1.02408e-06 -6.10032e-06 0.0958103)
(-1.5951e-06 2.11266e-06 0.0855495)
(1.55501e-06 -2.22669e-06 0.085558)
(-7.9907e-06 2.88863e-08 0.100774)
(5.93191e-06 6.78064e-07 0.0958021)
(7.74552e-06 1.50949e-08 0.100769)
(-6.07248e-06 -9.88742e-07 0.0958102)
(5.34473e-07 -5.20989e-07 0.101962)
(-5.26632e-07 5.39711e-07 0.101962)
(5.40621e-07 5.27278e-07 0.101962)
(-5.49018e-07 -5.46144e-07 0.101962)
(5.50467e-07 -5.40864e-07 0.101962)
(-5.40279e-07 5.50496e-07 0.101962)
(5.51533e-07 5.39261e-07 0.101962)
(1.29909e-05 1.59805e-08 0.101728)
(-1.22275e-05 3.593e-06 0.10098)
(-4.1715e-07 -1.51817e-07 0.101958)
(-3.27812e-07 5.46691e-07 0.101945)
(-1.29396e-05 -4.28842e-09 0.101726)
(1.18459e-05 -3.86947e-06 0.100987)
(-4.04687e-07 -1.53126e-07 0.101958)
(1.95757e-06 -1.50243e-06 0.0855476)
(-2.13398e-06 1.52661e-06 0.0855584)
(7.87404e-09 1.2991e-05 0.101728)
(-1.58902e-07 -4.10323e-07 0.101958)
(3.58418e-06 -1.22518e-05 0.10098)
(5.37008e-07 -3.1486e-07 0.101945)
(-2.03463e-08 -1.29335e-05 0.101726)
(-1.63596e-07 -3.97869e-07 0.101958)
(-3.91664e-06 1.19086e-05 0.100987)
(-3.9264e-06 -4.72529e-06 0.0995338)
(-4.72167e-06 -3.91799e-06 0.0995333)
(4.08792e-05 4.09059e-05 0.101918)
(3.71269e-06 4.59939e-06 0.0995411)
(4.59122e-06 3.70903e-06 0.0995406)
(8.17065e-09 -7.99692e-06 0.100774)
(7.52902e-07 5.90731e-06 0.0958031)
(-3.24542e-08 7.63532e-06 0.100769)
(-9.95912e-07 -6.14802e-06 0.095811)
(-1.57869e-06 2.0149e-06 0.0855509)
(1.63849e-06 -2.32221e-06 0.0855596)
(-8.05148e-06 1.72649e-08 0.100773)
(5.87113e-06 7.30567e-07 0.0958027)
(7.68091e-06 -2.35282e-08 0.100769)
(-6.12122e-06 -9.71609e-07 0.0958109)
(5.48497e-07 -5.43131e-07 0.101962)
(-5.47572e-07 5.53188e-07 0.101962)
(5.58867e-07 5.42214e-07 0.101962)
(-5.58757e-07 -5.67915e-07 0.101962)
(5.61998e-07 -5.62434e-07 0.101962)
(-5.65622e-07 5.62672e-07 0.101962)
(5.75721e-07 5.52494e-07 0.101962)
(1.30636e-05 -4.86526e-09 0.101728)
(-1.21619e-05 3.50725e-06 0.10098)
(-3.86631e-07 -1.68529e-07 0.101958)
(-3.20045e-07 5.31953e-07 0.101945)
(-1.29018e-05 -1.75762e-08 0.101726)
(1.19246e-05 -3.95317e-06 0.100987)
(-3.90076e-07 -1.74804e-07 0.101958)
(1.89856e-06 -1.46291e-06 0.0855491)
(-2.23061e-06 1.51703e-06 0.0855606)
(7.40051e-11 1.30543e-05 0.101728)
(-1.73874e-07 -3.87002e-07 0.101958)
(3.51598e-06 -1.21912e-05 0.10098)
(5.35072e-07 -3.10893e-07 0.101945)
(-3.11951e-08 -1.28924e-05 0.101726)
(-1.72543e-07 -3.83647e-07 0.101958)
(-3.98828e-06 1.19672e-05 0.100986)
(-3.92968e-06 -4.67873e-06 0.0995337)
(-4.67005e-06 -3.92274e-06 0.0995333)
(4.0897e-05 4.09175e-05 0.101918)
(3.76337e-06 4.61785e-06 0.099541)
(4.61537e-06 3.7551e-06 0.0995405)
(-4.00643e-09 -8.07785e-06 0.100774)
(7.79716e-07 5.93605e-06 0.095804)
(-5.56241e-08 7.59934e-06 0.100769)
(-9.70923e-07 -6.24774e-06 0.0958119)
(-1.49012e-06 2.01069e-06 0.0855529)
(1.69436e-06 -2.49944e-06 0.085563)
(-8.06733e-06 -1.49099e-07 0.100773)
(5.90917e-06 7.33476e-07 0.0958036)
(7.64218e-06 -1.11717e-08 0.100769)
(-6.19393e-06 -9.95851e-07 0.0958117)
(5.59333e-07 -5.88697e-07 0.101962)
(-5.51611e-07 5.30595e-07 0.101962)
(5.59599e-07 5.22406e-07 0.101962)
(-4.44359e-07 -4.50479e-07 0.101962)
(4.49708e-07 -4.47924e-07 0.101962)
(-4.40748e-07 4.40981e-07 0.101962)
(4.5199e-07 4.31684e-07 0.101962)
(1.29327e-05 -6.62165e-08 0.101727)
(-1.21056e-05 3.47924e-06 0.10098)
(-3.5125e-07 -2.10199e-07 0.101958)
(-3.75966e-07 5.09822e-07 0.101944)
(-1.28235e-05 -4.66661e-08 0.101726)
(1.19065e-05 -4.11393e-06 0.100986)
(-4.64803e-07 -2.23365e-07 0.101958)
(1.7029e-06 -1.31059e-06 0.0855517)
(-1.98919e-06 1.27423e-06 0.0855636)
(1.55647e-08 1.28769e-05 0.101727)
(-1.80087e-07 -3.89592e-07 0.101958)
(3.41883e-06 -1.20967e-05 0.10098)
(6.09703e-07 -4.37175e-07 0.101944)
(-4.20954e-08 -1.28308e-05 0.101726)
(-1.52828e-07 -5.12003e-07 0.101958)
(-3.89472e-06 1.17873e-05 0.100986)
(-3.78613e-06 -4.60006e-06 0.0995337)
(-4.57863e-06 -3.78624e-06 0.0995333)
(4.07963e-05 4.08053e-05 0.101918)
(3.64947e-06 4.48596e-06 0.0995408)
(4.48979e-06 3.6333e-06 0.0995403)
(6.96656e-09 -7.66698e-06 0.100774)
(7.96671e-07 6.77216e-06 0.0958044)
(-5.5173e-09 7.9771e-06 0.100769)
(-9.43755e-07 -5.36045e-06 0.0958109)
(-1.92514e-06 2.70745e-06 0.0855532)
(1.44923e-06 -1.82953e-06 0.0855588)
(-7.75717e-06 1.55642e-07 0.100774)
(6.74859e-06 7.84708e-07 0.095804)
(8.02747e-06 -1.70442e-09 0.100769)
(-5.35123e-06 -8.70785e-07 0.0958108)
(4.54518e-07 -4.31609e-07 0.101962)
(-4.62648e-07 4.8002e-07 0.101962)
(4.77785e-07 4.69276e-07 0.101962)
(-5.13371e-07 -5.01411e-07 0.101962)
(5.17721e-07 -4.96328e-07 0.101962)
(-5.09706e-07 5.39968e-07 0.101962)
(5.2362e-07 5.26381e-07 0.101962)
(1.27309e-05 6.63157e-08 0.101728)
(-1.26204e-05 3.976e-06 0.10098)
(-5.76264e-07 -1.05383e-07 0.101958)
(-3.9861e-07 5.90901e-07 0.101945)
(-1.34257e-05 2.36795e-08 0.101726)
(1.15765e-05 -3.52342e-06 0.100987)
(-5.26146e-07 -1.0649e-07 0.101958)
(2.4559e-06 -1.68867e-06 0.085549)
(-1.87017e-06 1.49173e-06 0.085558)
(1.62523e-08 1.27619e-05 0.101728)
(-1.30509e-07 -5.51499e-07 0.101958)
(3.95324e-06 -1.26053e-05 0.10098)
(5.58088e-07 -3.67053e-07 0.101945)
(8.42209e-10 -1.34104e-05 0.101726)
(-1.40331e-07 -5.00012e-07 0.101958)
(-3.7031e-06 1.17104e-05 0.100987)
(-3.88335e-06 -4.75353e-06 0.0995335)
(-4.74865e-06 -3.87556e-06 0.099533)
(4.08575e-05 4.08979e-05 0.101918)
(3.74544e-06 4.61021e-06 0.099541)
(4.5842e-06 3.75396e-06 0.0995405)
(2.01167e-08 -7.88763e-06 0.100774)
(7.50824e-07 6.14689e-06 0.0958025)
(-3.58111e-08 7.75929e-06 0.100769)
(-9.96689e-07 -5.94095e-06 0.09581)
(-1.58418e-06 2.17743e-06 0.0855495)
(1.53411e-06 -2.13563e-06 0.0855576)
(-7.94285e-06 2.17813e-08 0.100774)
(6.10532e-06 7.3356e-07 0.095802)
(7.79482e-06 3.0458e-09 0.100769)
(-5.91333e-06 -9.62408e-07 0.0958098)
(5.23885e-07 -5.0497e-07 0.101962)
(-5.12111e-07 5.41555e-07 0.101962)
(5.26567e-07 5.28368e-07 0.101962)
(-5.22577e-07 -5.19306e-07 0.101962)
(5.27327e-07 -5.135e-07 0.101962)
(-5.16523e-07 5.34789e-07 0.101962)
(5.29247e-07 5.23443e-07 0.101962)
(1.2904e-05 1.6586e-08 0.101728)
(-1.22836e-05 3.61713e-06 0.10098)
(-4.52412e-07 -1.41462e-07 0.101958)
(-3.48594e-07 5.52599e-07 0.101945)
(-1.30412e-05 3.01976e-10 0.101726)
(1.17879e-05 -3.82358e-06 0.100987)
(-4.4484e-07 -1.46308e-07 0.101958)
(2.04849e-06 -1.51667e-06 0.0855473)
(-2.02749e-06 1.47745e-06 0.0855576)
(2.7691e-08 1.2922e-05 0.101728)
(-1.49499e-07 -4.24363e-07 0.101958)
(3.64639e-06 -1.22919e-05 0.10098)
(5.57441e-07 -3.33067e-07 0.101945)
(-2.67722e-08 -1.29848e-05 0.101726)
(-1.49586e-07 -4.28367e-07 0.101958)
(-3.84439e-06 1.18481e-05 0.100987)
(-3.92598e-06 -4.70583e-06 0.0995337)
(-4.72559e-06 -3.89758e-06 0.0995333)
(4.08744e-05 4.09187e-05 0.101918)
(3.72849e-06 4.59723e-06 0.0995411)
(4.56589e-06 3.74238e-06 0.0995406)
(2.0044e-08 -7.89818e-06 0.100774)
(7.55513e-07 6.09416e-06 0.0958023)
(-3.45884e-08 7.71412e-06 0.100769)
(-9.93079e-07 -5.94586e-06 0.0958099)
(-1.60584e-06 2.14583e-06 0.0855495)
(1.52501e-06 -2.14101e-06 0.0855576)
(-7.94907e-06 1.55632e-08 0.100774)
(6.06064e-06 7.30204e-07 0.0958019)
(7.76473e-06 -2.0838e-08 0.100769)
(-5.91585e-06 -9.60846e-07 0.0958098)
(5.26966e-07 -5.14729e-07 0.101962)
(-5.16937e-07 5.31777e-07 0.101962)
(5.30258e-07 5.20195e-07 0.101962)
(-5.22804e-07 -5.22528e-07 0.101962)
(5.25917e-07 -5.17035e-07 0.101962)
(-5.18044e-07 5.27223e-07 0.101962)
(5.29739e-07 5.14495e-07 0.101962)
(1.29071e-05 1.11293e-08 0.101728)
(-1.22622e-05 3.59561e-06 0.10098)
(-4.41624e-07 -1.52488e-07 0.101958)
(-3.4968e-07 5.49643e-07 0.101945)
(-1.30233e-05 -1.1865e-08 0.101726)
(1.17896e-05 -3.8242e-06 0.100987)
(-4.39726e-07 -1.54001e-07 0.101958)
(2.03845e-06 -1.53931e-06 0.0855473)
(-2.03089e-06 1.46789e-06 0.0855576)
(1.1526e-08 1.29034e-05 0.101728)
(-1.51727e-07 -4.30868e-07 0.101958)
(3.62762e-06 -1.22972e-05 0.10098)
(5.49975e-07 -3.42345e-07 0.101945)
(-1.87709e-08 -1.30105e-05 0.101726)
(-1.53502e-07 -4.38174e-07 0.101958)
(-3.85729e-06 1.18365e-05 0.100987)
(-3.91705e-06 -4.71637e-06 0.0995337)
(-4.71758e-06 -3.90433e-06 0.0995333)
(4.0882e-05 4.09093e-05 0.101918)
(3.73493e-06 4.58953e-06 0.0995411)
(4.58085e-06 3.72861e-06 0.0995406)
(2.04989e-08 -7.8983e-06 0.100774)
(7.56085e-07 6.09524e-06 0.0958023)
(-3.37137e-08 7.71281e-06 0.100769)
(-9.93203e-07 -5.94507e-06 0.0958099)
(-1.60695e-06 2.14511e-06 0.0855495)
(1.52528e-06 -2.14053e-06 0.0855576)
(-7.94925e-06 1.39395e-08 0.100774)
(6.06246e-06 7.29631e-07 0.0958019)
(7.76374e-06 -2.30274e-08 0.100769)
(-5.91451e-06 -9.6193e-07 0.0958098)
(5.25412e-07 -5.17181e-07 0.101962)
(-5.17578e-07 5.2653e-07 0.101962)
(5.30049e-07 5.13968e-07 0.101962)
(-5.22708e-07 -5.23482e-07 0.101962)
(5.25471e-07 -5.18008e-07 0.101962)
(-5.1774e-07 5.25446e-07 0.101962)
(5.29461e-07 5.12862e-07 0.101962)
(1.29068e-05 9.74827e-09 0.101728)
(-1.22623e-05 3.59388e-06 0.10098)
(-4.4209e-07 -1.55489e-07 0.101958)
(-3.51142e-07 5.48535e-07 0.101945)
(-1.30221e-05 -1.45934e-08 0.101726)
(1.17888e-05 -3.82531e-06 0.100987)
(-4.40592e-07 -1.56087e-07 0.101958)
(2.03728e-06 -1.54238e-06 0.0855473)
(-2.03113e-06 1.46664e-06 0.0855576)
(1.07018e-08 1.29053e-05 0.101728)
(-1.549e-07 -4.36387e-07 0.101958)
(3.62086e-06 -1.23012e-05 0.10098)
(5.49021e-07 -3.44586e-07 0.101945)
(-2.09584e-08 -1.30154e-05 0.101726)
(-1.5515e-07 -4.38043e-07 0.101958)
(-3.85625e-06 1.18363e-05 0.100987)
(-3.91399e-06 -4.71948e-06 0.0995337)
(-4.71211e-06 -3.90719e-06 0.0995333)
(4.08815e-05 4.0906e-05 0.101918)
(3.73527e-06 4.58767e-06 0.0995411)
(4.58151e-06 3.72913e-06 0.0995406)
(2.06179e-08 -7.89893e-06 0.100774)
(7.56496e-07 6.09484e-06 0.0958023)
(-3.35887e-08 7.71276e-06 0.100769)
(-9.92649e-07 -5.9451e-06 0.0958099)
(-1.60641e-06 2.14525e-06 0.0855495)
(1.52459e-06 -2.14105e-06 0.0855576)
(-7.94966e-06 1.37779e-08 0.100774)
(6.06225e-06 7.29291e-07 0.0958019)
(7.76357e-06 -2.36463e-08 0.100769)
(-5.91485e-06 -9.61888e-07 0.0958098)
(5.25275e-07 -5.17961e-07 0.101962)
(-5.1729e-07 5.24973e-07 0.101962)
(5.30071e-07 5.12247e-07 0.101962)
(-5.22115e-07 -5.23404e-07 0.101962)
(5.25232e-07 -5.17792e-07 0.101962)
(-5.17136e-07 5.24512e-07 0.101962)
(5.29557e-07 5.12008e-07 0.101962)
(1.29075e-05 9.54869e-09 0.101728)
(-1.22624e-05 3.59344e-06 0.10098)
(-4.42232e-07 -1.56463e-07 0.101958)
(-3.51282e-07 5.48188e-07 0.101945)
(-1.30225e-05 -1.50608e-08 0.101726)
(1.17893e-05 -3.82546e-06 0.100987)
(-4.40685e-07 -1.56782e-07 0.101958)
(2.03717e-06 -1.54265e-06 0.0855473)
(-2.03099e-06 1.46659e-06 0.0855577)
(8.56901e-09 1.28983e-05 0.101728)
(-1.55238e-07 -4.36676e-07 0.101958)
(3.62044e-06 -1.23027e-05 0.10098)
(5.48997e-07 -3.45567e-07 0.101945)
(-1.91799e-08 -1.30117e-05 0.101726)
(-1.55427e-07 -4.39763e-07 0.101958)
(-3.85764e-06 1.18357e-05 0.100987)
(-3.91359e-06 -4.72007e-06 0.0995337)
(-4.71231e-06 -3.9074e-06 0.0995333)
(4.08817e-05 4.09057e-05 0.101918)
(3.73609e-06 4.58829e-06 0.0995411)
(4.58304e-06 3.72825e-06 0.0995406)
(2.02935e-08 -7.89875e-06 0.100774)
(7.56453e-07 6.09514e-06 0.0958023)
(-3.37848e-08 7.71333e-06 0.100769)
(-9.93178e-07 -5.94549e-06 0.0958099)
(-1.60752e-06 2.14469e-06 0.0855495)
(1.52468e-06 -2.14058e-06 0.0855576)
(-7.94903e-06 1.3332e-08 0.100774)
(6.0627e-06 7.2957e-07 0.0958019)
(7.76439e-06 -2.36451e-08 0.100769)
(-5.9146e-06 -9.61365e-07 0.0958098)
(5.25049e-07 -5.17633e-07 0.101962)
(-5.16716e-07 5.24194e-07 0.101962)
(5.30189e-07 5.11694e-07 0.101962)
(-5.21878e-07 -5.23091e-07 0.101962)
(5.25147e-07 -5.17629e-07 0.101962)
(-5.172e-07 5.24718e-07 0.101962)
(5.29616e-07 5.12462e-07 0.101962)
(1.29072e-05 8.99389e-09 0.101728)
(-1.22628e-05 3.5932e-06 0.10098)
(-4.42592e-07 -1.56533e-07 0.101958)
(-3.51578e-07 5.4822e-07 0.101945)
(-1.30227e-05 -1.54595e-08 0.101726)
(1.17887e-05 -3.82591e-06 0.100987)
(-4.40905e-07 -1.56837e-07 0.101958)
(2.03728e-06 -1.54286e-06 0.0855473)
(-2.03126e-06 1.46572e-06 0.0855577)
(8.53799e-09 1.28958e-05 0.101728)
(-1.55009e-07 -4.38187e-07 0.101958)
(3.62063e-06 -1.2304e-05 0.10098)
(5.49691e-07 -3.46259e-07 0.101945)
(-1.89165e-08 -1.30099e-05 0.101726)
(-1.5502e-07 -4.40777e-07 0.101958)
(-3.85679e-06 1.18349e-05 0.100987)
(-3.91342e-06 -4.72015e-06 0.0995337)
(-4.71263e-06 -3.9071e-06 0.0995333)
(4.0881e-05 4.09052e-05 0.101918)
(3.73584e-06 4.58749e-06 0.0995411)
(4.58232e-06 3.72861e-06 0.0995406)
(2.04393e-08 -7.89882e-06 0.100774)
(7.56129e-07 6.09514e-06 0.0958023)
(-3.37882e-08 7.71319e-06 0.100769)
(-9.92852e-07 -5.9452e-06 0.0958099)
(-1.60672e-06 2.1453e-06 0.0855495)
(1.52494e-06 -2.1407e-06 0.0855576)
(-7.94964e-06 1.33848e-08 0.100774)
(6.06294e-06 7.28941e-07 0.0958019)
(7.76394e-06 -2.40448e-08 0.100769)
(-5.91454e-06 -9.62015e-07 0.0958098)
(5.24947e-07 -5.17486e-07 0.101962)
(-5.17047e-07 5.24729e-07 0.101962)
(5.30196e-07 5.1228e-07 0.101962)
(-5.22532e-07 -5.23529e-07 0.101962)
(5.25011e-07 -5.17889e-07 0.101962)
(-5.17683e-07 5.2509e-07 0.101962)
(5.29382e-07 5.1269e-07 0.101962)
(1.29072e-05 9.19534e-09 0.101728)
(-1.22633e-05 3.59316e-06 0.10098)
(-4.42583e-07 -1.56324e-07 0.101958)
(-3.51673e-07 5.48374e-07 0.101945)
(-1.30232e-05 -1.55821e-08 0.101726)
(1.17889e-05 -3.82564e-06 0.100987)