/*--------------------------------*- C++ -*----------------------------------*\
| =========                 |                                                 |
| \\      /  F ield         | OpenFOAM: The Open Source CFD Toolbox           |
|  \\    /   O peration     | Version:  2206                                  |
|   \\  /    A nd           | Website:  www.openfoam.com                      |
|    \\/     M anipulation  |                                                 |
\*---------------------------------------------------------------------------*/
FoamFile
{
    version     2.0;
    format      ascii;
    arch        "LSB;label=32;scalar=64";
    class       volScalarField;
    location    "26.5";
    object      Ux;
}
// * * * * * * * * * * * * * * * * * * * * * * * * * * * * * * * * * * * * * //

dimensions      [0 1 -1 0 0 0 0];

internalField   nonuniform List<scalar> 
171728
(
0.000107782
-0.00019002
0.000119309
-0.000239344
9.40797e-05
-0.000158875
9.67561e-05
-0.00020065
9.43913e-05
-0.000153837
9.22666e-05
-0.000200724
9.52317e-05
-0.000153943
9.168e-05
-0.000198114
8.6034e-05
-0.000145355
8.52394e-05
-0.000185266
5.55627e-05
-7.99517e-05
4.51647e-05
-0.000123065
2.03498e-05
-2.73639e-05
1.90072e-05
-6.75274e-05
2.6611e-06
-4.40005e-06
3.59019e-06
-4.68911e-05
-4.54689e-07
-7.01611e-07
9.02525e-07
-4.3954e-05
-7.01451e-07
-4.78732e-07
7.30859e-07
-4.38128e-05
-7.09879e-07
-4.75225e-07
7.26851e-07
-4.38102e-05
-7.13789e-07
-4.79039e-07
7.26858e-07
-4.38108e-05
-7.12502e-07
-4.86419e-07
7.26371e-07
-4.38122e-05
-7.1226e-07
-4.8438e-07
7.26473e-07
-4.38123e-05
-7.15671e-07
-4.78045e-07
7.25877e-07
-4.38117e-05
-7.16701e-07
-4.77275e-07
7.25208e-07
-4.38115e-05
-7.15951e-07
-4.77338e-07
7.25158e-07
-4.38105e-05
-7.15056e-07
-4.77793e-07
7.25802e-07
-4.38112e-05
-7.12186e-07
-4.78812e-07
7.26272e-07
-4.38122e-05
-7.05809e-07
-4.76324e-07
7.27616e-07
-4.38124e-05
-7.01637e-07
-4.82893e-07
7.28132e-07
-4.38119e-05
-7.11331e-07
-4.79325e-07
7.27275e-07
-4.38117e-05
-7.12533e-07
-4.77579e-07
7.26325e-07
-4.38108e-05
-7.14051e-07
-4.76566e-07
7.25599e-07
-4.38106e-05
-7.15038e-07
-4.76046e-07
7.25473e-07
-4.3811e-05
-7.15095e-07
-4.76576e-07
7.25903e-07
-4.38113e-05
-7.14769e-07
-4.76874e-07
7.26339e-07
-4.38121e-05
-7.13831e-07
-4.77158e-07
7.2682e-07
-4.38126e-05
-7.13727e-07
-4.77682e-07
7.26707e-07
-4.38131e-05
-7.1418e-07
-4.77348e-07
7.26849e-07
-4.38128e-05
-7.14265e-07
-4.76558e-07
7.264e-07
-4.38121e-05
-7.15112e-07
-4.75923e-07
7.25804e-07
-4.3812e-05
-7.14924e-07
-4.76025e-07
7.25869e-07
-4.38116e-05
-7.14738e-07
-4.75806e-07
7.25842e-07
-4.38116e-05
-7.14244e-07
-4.76403e-07
7.26454e-07
-4.38123e-05
-7.14087e-07
-4.77177e-07
7.26764e-07
-4.38128e-05
-7.1377e-07
-4.76935e-07
7.27061e-07
-4.38129e-05
-7.13937e-07
-4.77401e-07
7.27001e-07
-4.38129e-05
-7.14879e-07
-4.75884e-07
7.26081e-07
-4.38117e-05
-7.14489e-07
-4.75883e-07
7.2528e-07
-4.3809e-05
-7.10291e-07
-4.72704e-07
7.25074e-07
-4.38091e-05
-7.17841e-07
-4.76388e-07
7.25313e-07
-4.38126e-05
-7.14688e-07
-4.76866e-07
7.25781e-07
-4.38132e-05
-7.13102e-07
-4.77422e-07
7.2643e-07
-4.38129e-05
-7.12206e-07
-4.78065e-07
7.25865e-07
-4.38131e-05
-7.12578e-07
-4.77513e-07
7.25827e-07
-4.38128e-05
-7.1277e-07
-4.77827e-07
7.25383e-07
-4.38127e-05
-7.13283e-07
-4.76246e-07
7.25107e-07
-4.38116e-05
-7.13375e-07
-4.77355e-07
7.25546e-07
-4.38122e-05
-7.13534e-07
-4.76902e-07
7.25502e-07
-4.38125e-05
-7.12591e-07
-4.77765e-07
7.25927e-07
-4.38133e-05
-7.12246e-07
-4.7821e-07
7.26325e-07
-4.38137e-05
-7.12105e-07
-4.78197e-07
7.26299e-07
-4.3813e-05
-7.11262e-07
-4.78456e-07
7.26461e-07
-4.38129e-05
-7.10686e-07
-4.76898e-07
7.25994e-07
-4.38117e-05
-7.12862e-07
-4.77192e-07
7.25473e-07
-4.38125e-05
-7.12684e-07
-4.78715e-07
7.25675e-07
-4.3815e-05
-7.11897e-07
-4.79569e-07
7.26681e-07
-4.38153e-05
-7.10979e-07
-4.7984e-07
7.27054e-07
-4.38157e-05
-7.10766e-07
-4.80594e-07
7.27402e-07
-4.3816e-05
-7.1054e-07
-4.80841e-07
7.27987e-07
-4.38162e-05
-7.10745e-07
-4.79809e-07
7.27308e-07
-4.38154e-05
-7.1098e-07
-4.79637e-07
7.27022e-07
-4.38153e-05
-7.12343e-07
-4.78579e-07
7.26241e-07
-4.38144e-05
-7.11799e-07
-4.79121e-07
7.26777e-07
-4.38146e-05
-7.11417e-07
-4.79157e-07
7.26738e-07
-4.38152e-05
-7.11016e-07
-4.79869e-07
7.27269e-07
-4.38153e-05
-7.10553e-07
-4.80655e-07
7.27795e-07
-4.38163e-05
-7.10251e-07
-4.79938e-07
7.28853e-07
-4.38174e-05
-7.09867e-07
-4.80195e-07
7.34391e-07
-4.38203e-05
-7.11017e-07
-4.7876e-07
7.30286e-07
-4.38185e-05
-7.11664e-07
-4.79543e-07
7.27188e-07
-4.38149e-05
-7.11834e-07
-4.7818e-07
7.26184e-07
-4.38147e-05
-7.11502e-07
-4.79788e-07
7.27022e-07
-4.38152e-05
-7.1092e-07
-4.79819e-07
7.27311e-07
-4.38163e-05
-7.10634e-07
-4.80116e-07
7.27902e-07
-4.38166e-05
-7.10396e-07
-4.80654e-07
7.28423e-07
-4.38167e-05
-7.11059e-07
-4.80068e-07
7.27344e-07
-4.38166e-05
-7.11442e-07
-4.79289e-07
7.27084e-07
-4.38159e-05
-7.11846e-07
-4.79042e-07
7.27034e-07
-4.38156e-05
-7.11996e-07
-4.79319e-07
7.26749e-07
-4.38155e-05
-7.11398e-07
-4.78947e-07
7.27092e-07
-4.38159e-05
-7.10771e-07
-4.80199e-07
7.27467e-07
-4.38166e-05
-7.10459e-07
-4.80515e-07
7.27493e-07
-4.38166e-05
-7.10528e-07
-4.80594e-07
7.27675e-07
-4.38166e-05
-7.10873e-07
-4.79341e-07
7.27316e-07
-4.38162e-05
-7.13203e-07
-4.76865e-07
7.25118e-07
-4.38154e-05
-7.21578e-07
-4.68796e-07
7.17184e-07
-4.38061e-05
-7.30553e-07
-4.78165e-07
7.06159e-07
-4.37345e-05
-7.75485e-07
-5.79671e-07
7.82758e-07
-4.33096e-05
-4.72916e-07
-1.06358e-06
1.07894e-06
-4.32797e-05
-4.58733e-07
-1.78531e-06
1.5838e-06
-4.19711e-05
-3.29391e-07
-3.4689e-06
2.90872e-06
-3.89814e-05
-5.65633e-06
-2.37452e-06
3.33532e-06
-2.64548e-05
-4.17472e-05
4.1645e-05
-3.41621e-05
4.7252e-05
0.000135134
0.000124282
-0.000124274
-0.00013513
0.000153006
0.000152978
9.08274e-05
-9.08177e-05
9.08013e-05
-9.07989e-05
-0.000153001
-0.000152987
0.000135123
0.000124233
-0.00012423
-0.000135132
0.000239387
0.000111885
0.000119358
-0.000119309
8.90421e-05
-8.90024e-05
-0.000239397
-0.000111845
0.000190057
0.000189995
0.000146995
0.000147027
-0.000189977
-0.000146964
-0.000146986
0.000239318
0.000111838
-0.000119289
8.90182e-05
-8.89971e-05
-0.000111835
0.000200737
0.000106818
9.67638e-05
-9.67368e-05
9.48812e-05
-9.48827e-05
-0.0002007
-0.00010681
0.000158908
0.000158925
0.000157278
0.000157316
-0.000158903
-0.000157273
-0.000157292
0.000200648
0.000106786
-9.67382e-05
9.48842e-05
-9.48901e-05
-0.000106799
0.000200791
9.98458e-05
9.22575e-05
-9.22595e-05
9.33204e-05
-9.33089e-05
-0.00020078
-9.98251e-05
0.000153845
0.000153888
0.000156475
0.000156509
-0.00015387
-0.000156471
-0.000156507
0.000200707
9.97987e-05
-9.22726e-05
9.33231e-05
-9.33148e-05
-9.98588e-05
0.000198142
8.83711e-05
9.16679e-05
-9.16548e-05
8.5421e-05
-8.54163e-05
-0.000198131
-8.83589e-05
0.000153949
0.000153979
0.000145451
0.000145479
-0.000153979
-0.000145443
-0.000145482
0.000198055
8.8336e-05
-9.16627e-05
8.54163e-05
-8.54022e-05
-8.83991e-05
0.000185278
4.18068e-05
8.522e-05
-8.52086e-05
5.48246e-05
-5.4836e-05
-0.000185274
-4.18502e-05
0.000145361
0.000145388
9.89563e-05
9.89989e-05
-0.000145391
-9.89597e-05
-9.90118e-05
0.000185199
4.17791e-05
-8.52215e-05
5.48084e-05
-5.47914e-05
-4.18098e-05
0.000123088
-1.77932e-05
4.51871e-05
-4.52097e-05
2.51627e-05
-2.51658e-05
-0.000123095
1.78037e-05
7.99683e-05
7.99966e-05
3.80725e-05
3.8079e-05
-7.9989e-05
-3.8066e-05
-3.80665e-05
0.000123047
-1.77667e-05
-4.51485e-05
2.51272e-05
-2.51257e-05
1.78103e-05
6.75631e-05
-4.15843e-05
1.90437e-05
-1.90401e-05
5.78569e-06
-5.77788e-06
-6.75527e-05
4.15945e-05
2.73769e-05
2.73786e-05
7.40066e-06
7.4149e-06
-2.73672e-05
-7.3916e-06
-7.41635e-06
6.75365e-05
-4.1569e-05
-1.90057e-05
5.74848e-06
-5.74987e-06
4.15678e-05
4.69016e-05
-4.55989e-05
3.62112e-06
-3.61698e-06
1.13229e-06
-1.13283e-06
-4.6892e-05
4.56014e-05
4.41032e-06
4.4211e-06
9.9604e-07
1.01587e-06
-4.42542e-06
-9.93178e-07
-1.01681e-06
4.6875e-05
-4.55727e-05
-3.59091e-06
1.1047e-06
-1.10453e-06
4.5575e-05
4.39589e-05
-4.58145e-05
9.28866e-07
-9.28961e-07
7.6689e-07
-7.64969e-07
-4.39572e-05
4.58197e-05
7.07125e-07
7.23903e-07
4.89777e-07
5.12197e-07
-7.23872e-07
-4.86533e-07
-5.09983e-07
4.39424e-05
-4.57873e-05
-9.008e-07
7.38345e-07
-7.36309e-07
4.57917e-05
4.38196e-05
-4.58152e-05
7.59417e-07
-7.54783e-07
7.62283e-07
-7.51679e-07
-4.38163e-05
4.5828e-05
4.85354e-07
5.03483e-07
4.78781e-07
5.01037e-07
-5.01372e-07
-4.7365e-07
-4.98294e-07
4.38029e-05
-4.57909e-05
-7.28093e-07
7.25486e-07
-7.23072e-07
4.5796e-05
4.38199e-05
-4.58164e-05
7.6171e-07
-7.5073e-07
7.52384e-07
-7.54211e-07
-4.38134e-05
4.58254e-05
4.81963e-07
5.00999e-07
4.78515e-07
5.01741e-07
-4.98346e-07
-4.76091e-07
-4.99241e-07
4.38009e-05
-4.579e-05
-7.23258e-07
7.25925e-07
-7.23107e-07
4.57951e-05
4.38176e-05
-4.58177e-05
7.52641e-07
-7.53768e-07
7.5041e-07
-7.53323e-07
-4.38157e-05
4.58221e-05
4.82586e-07
5.01339e-07
4.7749e-07
5.01117e-07
-4.99528e-07
-4.83484e-07
-5.01286e-07
4.38012e-05
-4.57906e-05
-7.23469e-07
7.2535e-07
-7.23478e-07
4.57936e-05
4.38167e-05
-4.58185e-05
7.50942e-07
-7.52196e-07
7.50206e-07
-7.51377e-07
-4.38192e-05
4.58195e-05
4.80564e-07
5.00525e-07
4.77225e-07
5.0051e-07
-5.01725e-07
-4.83816e-07
-5.02047e-07
4.38006e-05
-4.5791e-05
-7.23684e-07
7.25498e-07
-7.23596e-07
4.57935e-05
4.38163e-05
-4.58149e-05
7.51788e-07
-7.51441e-07
7.49102e-07
-7.5413e-07
-4.38215e-05
4.58228e-05
4.80907e-07
5.00055e-07
4.77608e-07
5.00263e-07
-5.01809e-07
-4.77026e-07
-5.00579e-07
4.38005e-05
-4.57914e-05
-7.23977e-07
7.25013e-07
-7.23962e-07
4.57944e-05
4.38176e-05
-4.58179e-05
7.47283e-07
-7.55986e-07
7.44865e-07
-7.63702e-07
-4.38204e-05
4.58192e-05
4.80748e-07
4.99863e-07
4.76772e-07
5.00009e-07
-5.00148e-07
-4.77118e-07
-4.99885e-07
4.38002e-05
-4.57918e-05
-7.24271e-07
7.24221e-07
-7.24089e-07
4.57947e-05
4.38152e-05
-4.58156e-05
7.44189e-07
-7.59789e-07
7.47046e-07
-7.53879e-07
-4.382e-05
4.58209e-05
4.80241e-07
4.99615e-07
4.77551e-07
4.99772e-07
-4.99644e-07
-4.75868e-07
-4.9884e-07
4.37999e-05
-4.57918e-05
-7.24162e-07
7.24121e-07
-7.23331e-07
4.57956e-05
4.38167e-05
-4.5816e-05
7.46247e-07
-7.5352e-07
7.47118e-07
-7.52279e-07
-4.38168e-05
4.58232e-05
4.81057e-07
4.99436e-07
4.77902e-07
5.00258e-07
-4.9849e-07
-4.76033e-07
-4.98811e-07
4.37999e-05
-4.57917e-05
-7.23298e-07
7.24525e-07
-7.23331e-07
4.57958e-05
4.38172e-05
-4.58175e-05
7.45267e-07
-7.5306e-07
7.4919e-07
-7.58363e-07
-4.38152e-05
4.58214e-05
4.81625e-07
5.0018e-07
4.78131e-07
5.0104e-07
-4.99272e-07
-4.77472e-07
-4.99904e-07
4.38007e-05
-4.5791e-05
-7.23765e-07
7.25092e-07
-7.23513e-07
4.57949e-05
4.38191e-05
-4.58184e-05
7.51367e-07
-7.59313e-07
7.52337e-07
-7.48798e-07
-4.38207e-05
4.58264e-05
4.81322e-07
5.00675e-07
4.79321e-07
5.01214e-07
-5.00948e-07
-4.7688e-07
-5.05086e-07
4.38016e-05
-4.57906e-05
-7.23227e-07
7.26053e-07
-7.21758e-07
4.57938e-05
4.38217e-05
-4.58221e-05
7.52374e-07
-7.38651e-07
7.55574e-07
-7.53756e-07
-4.38035e-05
4.58136e-05
4.8395e-07
5.01116e-07
4.8614e-07
5.02438e-07
-5.05332e-07
-4.81878e-07
-4.99744e-07
4.38016e-05
-4.57895e-05
-7.21901e-07
7.27388e-07
-7.22874e-07
4.57942e-05
4.38193e-05
-4.58202e-05
7.57501e-07
-7.52351e-07
7.49531e-07
-7.51607e-07
-4.38215e-05
4.58254e-05
4.88416e-07
5.01984e-07
4.80853e-07
5.01599e-07
-4.99309e-07
-4.77737e-07
-4.9981e-07
4.3802e-05
-4.57901e-05
-7.23282e-07
7.26298e-07
-7.2348e-07
4.57942e-05
4.38222e-05
-4.58202e-05
7.49426e-07
-7.53667e-07
7.50691e-07
-7.54141e-07
-4.38118e-05
4.58214e-05
4.82683e-07
5.01082e-07
4.78862e-07
5.00888e-07
-4.99551e-07
-4.76654e-07
-4.99195e-07
4.38014e-05
-4.57904e-05
-7.23879e-07
7.25488e-07
-7.2359e-07
4.57951e-05
4.38227e-05
-4.58208e-05
7.50238e-07
-7.54452e-07
7.50219e-07
-7.54857e-07
-4.38148e-05
4.58211e-05
4.8214e-07
5.00496e-07
4.77515e-07
5.00291e-07
-4.98978e-07
-4.75619e-07
-4.98817e-07
4.38008e-05
-4.57911e-05
-7.23749e-07
7.24775e-07
-7.23108e-07
4.57955e-05
4.38221e-05
-4.58215e-05
7.50401e-07
-7.54768e-07
7.50236e-07
-7.55361e-07
-4.38148e-05
4.5821e-05
4.81138e-07
4.99779e-07
4.76585e-07
4.99819e-07
-4.98415e-07
-4.74969e-07
-4.98147e-07
4.38002e-05
-4.57914e-05
-7.23381e-07
7.24557e-07
-7.23249e-07
4.57952e-05
4.38215e-05
-4.58219e-05
7.50204e-07
-7.55161e-07
7.49859e-07
-7.55301e-07
-4.38149e-05
4.58211e-05
4.80214e-07
4.99339e-07
4.76529e-07
4.99847e-07
-4.97906e-07
-4.75068e-07
-4.97757e-07
4.38e-05
-4.57914e-05
-7.23523e-07
7.2457e-07
-7.23281e-07
4.5795e-05
4.38214e-05
-4.58211e-05
7.50423e-07
-7.55518e-07
7.50893e-07
-7.5568e-07
-4.38151e-05
4.58204e-05
4.80663e-07
4.99767e-07
4.77305e-07
5.00484e-07
-4.97912e-07
-4.75564e-07
-4.98356e-07
4.38001e-05
-4.57907e-05
-7.23779e-07
7.25218e-07
-7.23923e-07
4.5794e-05
4.38221e-05
-4.58205e-05
7.51181e-07
-7.56016e-07
7.52086e-07
-7.55604e-07
-4.38158e-05
4.58199e-05
4.81084e-07
5.00198e-07
4.77605e-07
5.00854e-07
-4.9815e-07
-4.75858e-07
-4.98588e-07
4.38008e-05
-4.57904e-05
-7.24126e-07
7.2556e-07
-7.24126e-07
4.57938e-05
4.38227e-05
-4.58201e-05
7.52628e-07
-7.56083e-07
7.52625e-07
-7.55454e-07
-4.3816e-05
4.58197e-05
4.81649e-07
5.00808e-07
4.78111e-07
5.01571e-07
-4.9889e-07
-4.76483e-07
-4.99334e-07
4.38012e-05
-4.57899e-05
-7.24641e-07
7.25924e-07
-7.2466e-07
4.5793e-05
4.3823e-05
-4.58208e-05
7.5279e-07
-7.56704e-07
7.52155e-07
-7.54624e-07
-4.38166e-05
4.58202e-05
4.81727e-07
5.0095e-07
4.77568e-07
5.01054e-07
-4.99097e-07
-4.76302e-07
-4.98924e-07
4.38015e-05
-4.57906e-05
-7.24788e-07
7.25622e-07
-7.24462e-07
4.57934e-05
4.38224e-05
-4.58211e-05
7.52173e-07
-7.57486e-07
7.51952e-07
-7.5277e-07
-4.38164e-05
4.58203e-05
4.8138e-07
5.00877e-07
4.77185e-07
5.00669e-07
-4.98666e-07
-4.75549e-07
-4.98038e-07
4.38011e-05
-4.57906e-05
-7.24473e-07
7.255e-07
-7.23698e-07
4.57942e-05
4.38221e-05
-4.58213e-05
7.52393e-07
-7.59298e-07
7.51739e-07
-7.54425e-07
-4.38167e-05
4.58216e-05
4.80857e-07
5.00194e-07
4.76836e-07
5.00153e-07
-4.98123e-07
-4.75154e-07
-4.97904e-07
4.38007e-05
-4.57911e-05
-7.24099e-07
7.25045e-07
-7.23712e-07
4.57941e-05
4.38217e-05
-4.5822e-05
7.51367e-07
-7.56473e-07
7.51358e-07
-7.56441e-07
-4.38159e-05
4.58228e-05
4.80205e-07
4.99516e-07
4.7593e-07
4.99414e-07
-4.97508e-07
-4.7464e-07
-4.97318e-07
4.38003e-05
-4.57916e-05
-7.23553e-07
7.24726e-07
-7.23425e-07
4.57947e-05
4.38213e-05
-4.58212e-05
7.51945e-07
-7.56646e-07
7.51865e-07
-7.56854e-07
-4.38146e-05
4.58228e-05
4.80087e-07
4.99456e-07
4.76758e-07
5.00067e-07
-4.97393e-07
-4.74563e-07
-4.97306e-07
4.38e-05
-4.57911e-05
-7.23566e-07
7.25e-07
-7.23257e-07
4.57947e-05
4.3822e-05
-4.58214e-05
7.51969e-07
-7.56697e-07
7.51703e-07
-7.57396e-07
-4.38144e-05
4.58225e-05
4.80377e-07
4.99656e-07
4.76934e-07
5.00334e-07
-4.97356e-07
-4.7515e-07
-4.98026e-07
4.38004e-05
-4.5791e-05
-7.23489e-07
7.25115e-07
-7.23761e-07
4.57941e-05
4.38221e-05
-4.58207e-05
7.523e-07
-7.57433e-07
7.52099e-07
-7.57948e-07
-4.38147e-05
4.58221e-05
4.81193e-07
5.00525e-07
4.77427e-07
5.00875e-07
-4.98306e-07
-4.75741e-07
-4.98729e-07
4.38007e-05
-4.57902e-05
-7.24111e-07
7.25831e-07
-7.24413e-07
4.57935e-05
4.38224e-05
-4.58205e-05
7.52306e-07
-7.57959e-07
7.52207e-07
-7.58421e-07
-4.38154e-05
4.58217e-05
4.8121e-07
5.00618e-07
4.77797e-07
5.01148e-07
-4.98722e-07
-4.76015e-07
-4.9882e-07
4.38013e-05
-4.57901e-05
-7.2464e-07
7.26041e-07
-7.24617e-07
4.57933e-05
4.38227e-05
-4.58205e-05
7.52652e-07
-7.57868e-07
7.52211e-07
-7.58554e-07
-4.38153e-05
4.58217e-05
4.81585e-07
5.00891e-07
4.77917e-07
5.01262e-07
-4.98811e-07
-4.76207e-07
-4.99058e-07
4.38015e-05
-4.57901e-05
-7.24771e-07
7.26178e-07
-7.24883e-07
4.57932e-05
4.38225e-05
-4.58211e-05
7.5253e-07
-7.58171e-07
7.5151e-07
-7.58023e-07
-4.38156e-05
4.58225e-05
4.81414e-07
5.00861e-07
4.76938e-07
5.00201e-07
-4.98874e-07
-4.75102e-07
-4.97862e-07
4.38014e-05
-4.5791e-05
-7.24856e-07
7.25321e-07
-7.24053e-07
4.57941e-05
4.38215e-05
-4.58217e-05
7.52138e-07
-7.5684e-07
7.49762e-07
-7.58554e-07
-4.38141e-05
4.58242e-05
4.8014e-07
4.9972e-07
4.78252e-07
5.00661e-07
-4.97994e-07
-4.7485e-07
-5.00724e-07
4.38003e-05
-4.57922e-05
-7.23946e-07
7.24422e-07
-7.23101e-07
4.57969e-05
4.38192e-05
-4.58148e-05
7.50188e-07
-7.55844e-07
7.4909e-07
-7.55591e-07
-4.38126e-05
4.58246e-05
4.83018e-07
5.00932e-07
4.83189e-07
5.00925e-07
-5.03101e-07
-4.71421e-07
-5.03014e-07
4.37996e-05
-4.57927e-05
-7.2096e-07
7.23725e-07
-7.18723e-07
4.57981e-05
4.38257e-05
-4.58247e-05
7.54743e-07
-7.55582e-07
7.45321e-07
-7.61041e-07
-4.38147e-05
4.5818e-05
4.8773e-07
5.00576e-07
4.76178e-07
5.00093e-07
-4.99689e-07
-4.75531e-07
-4.9818e-07
4.37992e-05
-4.57927e-05
-7.20577e-07
7.24559e-07
-7.23306e-07
4.57945e-05
4.3814e-05
-4.58211e-05
7.46314e-07
-7.63521e-07
7.48768e-07
-7.5419e-07
-4.38221e-05
4.58218e-05
4.78468e-07
4.9983e-07
4.77167e-07
5.00745e-07
-4.98901e-07
-4.75363e-07
-4.99357e-07
4.37994e-05
-4.57922e-05
-7.238e-07
7.24891e-07
-7.24587e-07
4.57934e-05
4.3817e-05
-4.58191e-05
7.49098e-07
-7.54185e-07
7.50684e-07
-7.54002e-07
-4.38152e-05
4.58227e-05
4.80331e-07
5.00566e-07
4.78127e-07
5.01089e-07
-4.98978e-07
-4.76324e-07
-4.98796e-07
4.37998e-05
-4.57917e-05
-7.2448e-07
7.25614e-07
-7.24416e-07
4.57937e-05
4.38188e-05
-4.58179e-05
7.50732e-07
-7.53563e-07
7.51655e-07
-7.53868e-07
-4.38147e-05
4.58226e-05
4.81853e-07
5.0132e-07
4.79353e-07
5.01997e-07
-4.9909e-07
-4.7686e-07
-4.98997e-07
4.38003e-05
-4.5791e-05
-7.24593e-07
7.26195e-07
-7.24565e-07
4.57934e-05
4.38199e-05
-4.58184e-05
7.50956e-07
-7.53928e-07
7.50767e-07
-7.53398e-07
-4.38147e-05
4.58233e-05
4.82713e-07
5.01692e-07
4.78486e-07
5.01241e-07
-4.98854e-07
-4.765e-07
-4.98468e-07
4.38007e-05
-4.57915e-05
-7.24277e-07
7.25807e-07
-7.24383e-07
4.57937e-05
4.38193e-05
-4.58183e-05
7.50159e-07
-7.533e-07
7.49794e-07
-7.53675e-07
-4.38139e-05
4.58232e-05
4.81899e-07
5.01027e-07
4.79022e-07
5.01152e-07
-4.98581e-07
-4.7672e-07
-4.98508e-07
4.38002e-05
-4.57917e-05
-7.24358e-07
7.25602e-07
-7.24403e-07
4.57937e-05
4.38194e-05
-4.58185e-05
7.49178e-07
-7.53607e-07
7.49085e-07
-7.52897e-07
-4.38142e-05
4.58242e-05
4.82363e-07
5.00686e-07
4.78388e-07
5.00306e-07
-4.98317e-07
-4.75488e-07
-4.97169e-07
4.37999e-05
-4.57925e-05
-7.24254e-07
7.25032e-07
-7.23679e-07
4.57947e-05
4.38191e-05
-4.58188e-05
7.48555e-07
-7.52552e-07
7.48701e-07
-7.53109e-07
-4.38128e-05
4.58239e-05
4.81692e-07
5.00114e-07
4.78241e-07
5.00549e-07
-4.97135e-07
-4.75886e-07
-4.97403e-07
4.37992e-05
-4.5792e-05
-7.23646e-07
7.25473e-07
-7.2405e-07
4.57943e-05
4.38189e-05
-4.58191e-05
7.48255e-07
-7.53305e-07
7.48531e-07
-7.52995e-07
-4.38136e-05
4.5824e-05
4.81647e-07
5.00375e-07
4.77939e-07
5.00398e-07
-4.97561e-07
-4.75873e-07
-4.97648e-07
4.37997e-05
-4.57921e-05
-7.24149e-07
7.2538e-07
-7.24335e-07
4.57939e-05
4.38187e-05
-4.58182e-05
7.48203e-07
-7.52875e-07
7.49163e-07
-7.5344e-07
-4.3813e-05
4.58235e-05
4.81386e-07
5.00278e-07
4.78755e-07
5.00978e-07
-4.97587e-07
-4.76358e-07
-4.98164e-07
4.37996e-05
-4.57915e-05
-7.24286e-07
7.25789e-07
-7.2482e-07
4.57933e-05
4.38197e-05
-4.58176e-05
7.49023e-07
-7.5348e-07
7.49761e-07
-7.53989e-07
-4.3814e-05
4.58228e-05
4.82545e-07
5.01079e-07
4.79633e-07
5.01878e-07
-4.98432e-07
-4.77351e-07
-4.98998e-07
4.38002e-05
-4.5791e-05
-7.24974e-07
7.26203e-07
-7.25157e-07
4.57928e-05
4.382e-05
-4.58177e-05
7.49284e-07
-7.53789e-07
7.49676e-07
-7.53645e-07
-4.38145e-05
4.58231e-05
4.82895e-07
5.01542e-07
4.79386e-07
5.01446e-07
-4.98942e-07
-4.77033e-07
-4.98276e-07
4.38006e-05
-4.5791e-05
-7.25285e-07
7.26234e-07
-7.25043e-07
4.57933e-05
4.38201e-05
-4.58161e-05
7.49595e-07
-7.53757e-07
7.50917e-07
-7.53086e-07
-4.38145e-05
4.58224e-05
4.83043e-07
5.01301e-07
4.80287e-07
5.01896e-07
-4.9823e-07
-4.77518e-07
-4.98517e-07
4.38004e-05
-4.57905e-05
-7.24987e-07
7.26435e-07
-7.25185e-07
4.57931e-05
4.3821e-05
-4.58159e-05
7.50875e-07
-7.51957e-07
7.52185e-07
-7.43253e-07
-4.38137e-05
4.58267e-05
4.83839e-07
5.01555e-07
4.80246e-07
5.01001e-07
-4.98223e-07
-4.75787e-07
-4.96769e-07
4.38006e-05
-4.57914e-05
-7.24954e-07
7.25899e-07
-7.24075e-07
4.57944e-05
4.3821e-05
-4.5818e-05
7.51745e-07
-7.42714e-07
7.49848e-07
-7.52183e-07
-4.38094e-05
4.58256e-05
4.83607e-07
5.0053e-07
4.79093e-07
5.00319e-07
-4.96506e-07
-4.7627e-07
-4.9721e-07
4.37997e-05
-4.57919e-05
-7.23763e-07
7.25577e-07
-7.23506e-07
4.57944e-05
4.38194e-05
-4.58193e-05
7.48854e-07
-7.51335e-07
7.48916e-07
-7.52427e-07
-4.38118e-05
4.58235e-05
4.81998e-07
4.99538e-07
4.7752e-07
4.98196e-07
-4.99008e-07
-4.77793e-07
-5.04325e-07
4.37994e-05
-4.57932e-05
-7.23265e-07
7.25308e-07
-7.22692e-07
4.57915e-05
4.38183e-05
-4.58194e-05
7.48622e-07
-7.51619e-07
7.49246e-07
-7.51997e-07
-4.38134e-05
4.58232e-05
4.80782e-07
4.97564e-07
4.77247e-07
4.9805e-07
-5.05528e-07
-4.78207e-07
-5.04375e-07
4.37983e-05
-4.57932e-05
-7.22281e-07
7.26322e-07
-7.22734e-07
4.57913e-05
4.38184e-05
-4.58187e-05
7.49054e-07
-7.52282e-07
7.49836e-07
-7.52686e-07
-4.38143e-05
4.58223e-05
4.80908e-07
4.9797e-07
4.78181e-07
4.98802e-07
-5.05588e-07
-4.79011e-07
-5.04932e-07
4.37985e-05
-4.57925e-05
-7.2275e-07
7.26899e-07
-7.2331e-07
4.57908e-05
4.3819e-05
-4.58186e-05
7.49474e-07
-7.52473e-07
7.49931e-07
-7.52759e-07
-4.38148e-05
4.58223e-05
4.81584e-07
4.98479e-07
4.78232e-07
4.98879e-07
-5.05844e-07
-4.7923e-07
-5.05263e-07
4.3799e-05
-4.57924e-05
-7.2324e-07
7.27117e-07
-7.24021e-07
4.57905e-05
4.38191e-05
-4.58182e-05
7.49566e-07
-7.53005e-07
7.50128e-07
-7.53702e-07
-4.38151e-05
4.58213e-05
4.81727e-07
4.98683e-07
4.7884e-07
4.99579e-07
-5.0641e-07
-4.80065e-07
-5.05828e-07
4.37992e-05
-4.57917e-05
-7.24092e-07
7.27748e-07
-7.24488e-07
4.57902e-05
4.38195e-05
-4.58187e-05
7.4963e-07
-7.53502e-07
7.49807e-07
-7.53045e-07
-4.38157e-05
4.58224e-05
4.82078e-07
4.99388e-07
4.78354e-07
4.99261e-07
-5.06706e-07
-4.79088e-07
-5.05013e-07
4.37999e-05
-4.5792e-05
-7.24306e-07
7.27429e-07
-7.24057e-07
4.57909e-05
4.3819e-05
-4.58185e-05
7.49543e-07
-7.52791e-07
7.49945e-07
-7.52871e-07
-4.38147e-05
4.58226e-05
4.81626e-07
4.98716e-07
4.78334e-07
4.98907e-07
-5.05723e-07
-4.78668e-07
-5.04771e-07
4.37993e-05
-4.57926e-05
-7.23748e-07
7.2689e-07
-7.23969e-07
4.57912e-05
4.38191e-05
-4.58197e-05
7.49361e-07
-7.52806e-07
7.48965e-07
-7.52391e-07
-4.38146e-05
4.58232e-05
4.81326e-07
4.98551e-07
4.77339e-07
4.97923e-07
-5.05733e-07
-4.77798e-07
-5.03916e-07
4.37989e-05
-4.57934e-05
-7.23824e-07
7.26191e-07
-7.2341e-07
4.57919e-05
4.38178e-05
-4.58196e-05
7.48339e-07
-7.52147e-07
7.48963e-07
-7.52435e-07
-4.38138e-05
4.58231e-05
4.7967e-07
4.97317e-07
4.77653e-07
4.98056e-07
-5.04522e-07
-4.77883e-07
-5.03793e-07
4.37981e-05
-4.5793e-05
-7.23081e-07
7.26416e-07
-7.23378e-07
4.57921e-05
4.38183e-05
-4.5819e-05
7.4879e-07
-7.52492e-07
7.49519e-07
-7.52739e-07
-4.38142e-05
4.58227e-05
4.79938e-07
4.97993e-07
4.78483e-07
4.98478e-07
-5.05003e-07
-4.78368e-07
-5.04388e-07
4.37986e-05
-4.57927e-05
-7.23487e-07
7.268e-07
-7.24442e-07
4.57912e-05
4.38186e-05
-4.58191e-05
7.49022e-07
-7.52523e-07
7.49472e-07
-7.52749e-07
-4.38144e-05
4.58226e-05
4.80249e-07
4.97951e-07
4.78516e-07
4.98383e-07
-5.05035e-07
-4.78445e-07
-5.04206e-07
4.37988e-05
-4.57927e-05
-7.24191e-07
7.26622e-07
-7.24438e-07
4.57913e-05
4.38186e-05
-4.58183e-05
7.49297e-07
-7.52893e-07
7.49981e-07
-7.5337e-07
-4.38145e-05
4.58218e-05
4.80819e-07
4.98506e-07
4.79287e-07
4.99419e-07
-5.05608e-07
-4.79498e-07
-5.05365e-07
4.37991e-05
-4.57914e-05
-7.24569e-07
7.27744e-07
-7.25282e-07
4.57903e-05
4.3819e-05
-4.58184e-05
7.49487e-07
-7.53341e-07
7.49988e-07
-7.5334e-07
-4.3815e-05
4.58218e-05
4.8113e-07
4.99137e-07
4.79174e-07
5.00111e-07
-5.06561e-07
-4.79158e-07
-5.05914e-07
4.38002e-05
-4.57901e-05
-7.25254e-07
7.28085e-07
-7.26369e-07
4.57886e-05
4.38186e-05
-4.58183e-05
7.49496e-07
-7.53003e-07
7.49795e-07
-7.53306e-07
-4.38144e-05
4.58218e-05
4.80993e-07
5.00265e-07
4.78949e-07
5.02629e-07
-5.07447e-07
-4.79179e-07
-5.08282e-07
4.38008e-05
-4.57852e-05
-7.2702e-07
7.32719e-07
-7.30488e-07
4.57842e-05
4.38185e-05
-4.5819e-05
7.49559e-07
-7.5328e-07
7.49413e-07
-7.52618e-07
-4.38146e-05
4.58227e-05
4.80974e-07
5.02571e-07
4.78106e-07
5.00587e-07
-5.09611e-07
-4.78226e-07
-5.06729e-07
4.38043e-05
-4.57891e-05
-7.3113e-07
7.32357e-07
-7.29746e-07
4.5787e-05
4.3818e-05
-4.58196e-05
7.48731e-07
-7.523e-07
7.48964e-07
-7.52689e-07
-4.38137e-05
4.58227e-05
4.79744e-07
4.99346e-07
4.77843e-07
4.98324e-07
-5.06611e-07
-4.78148e-07
-5.04028e-07
4.38017e-05
-4.57927e-05
-7.27913e-07
7.26954e-07
-7.24613e-07
4.57916e-05
4.38179e-05
-4.58198e-05
7.48531e-07
-7.52854e-07
7.48909e-07
-7.52333e-07
-4.38145e-05
4.58231e-05
4.79804e-07
4.97931e-07
4.77749e-07
4.98031e-07
-5.05099e-07
-4.7764e-07
-5.03755e-07
4.37987e-05
-4.57931e-05
-7.24844e-07
7.26383e-07
-7.24351e-07
4.57916e-05
4.38178e-05
-4.58194e-05
7.48552e-07
-7.51843e-07
7.49292e-07
-7.52564e-07
-4.38135e-05
4.58229e-05
4.79697e-07
4.97551e-07
4.78068e-07
4.98166e-07
-5.04359e-07
-4.78119e-07
-5.03807e-07
4.37982e-05
-4.57928e-05
-7.23909e-07
7.26613e-07
-7.24502e-07
4.57914e-05
4.38183e-05
-4.58187e-05
7.49006e-07
-7.52888e-07
7.49823e-07
-7.52952e-07
-4.38145e-05
4.58224e-05
4.80286e-07
4.98157e-07
4.78984e-07
4.98948e-07
-5.05248e-07
-4.789e-07
-5.04743e-07
4.37988e-05
-4.5792e-05
-7.2479e-07
7.27254e-07
-7.2544e-07
4.57901e-05
4.38188e-05
-4.58188e-05
7.49354e-07
-7.52739e-07
7.49746e-07
-7.53059e-07
-4.38144e-05
4.58222e-05
4.80872e-07
4.98469e-07
4.79087e-07
4.98949e-07
-5.05705e-07
-4.79035e-07
-5.04951e-07
4.37994e-05
-4.5792e-05
-7.25423e-07
7.27331e-07
-7.25892e-07
4.57897e-05
4.38189e-05
-4.58182e-05
7.49528e-07
-7.5301e-07
7.50201e-07
-7.53531e-07
-4.38148e-05
4.58216e-05
4.81239e-07
4.98987e-07
4.79618e-07
4.99849e-07
-5.05906e-07
-4.79696e-07
-5.04911e-07
4.37996e-05
-4.57908e-05
-7.25754e-07
7.28379e-07
-7.2604e-07
4.57897e-05
4.38192e-05
-4.58188e-05
7.49712e-07
-7.53569e-07
7.49731e-07
-7.53448e-07
-4.38154e-05
4.58218e-05
4.8147e-07
4.99468e-07
4.79094e-07
4.99007e-07
-5.05897e-07
-4.7939e-07
-5.05011e-07
4.38005e-05
-4.57921e-05
-7.25988e-07
7.27407e-07
-7.26271e-07
4.57896e-05
4.38186e-05
-4.58193e-05
7.49126e-07
-7.53037e-07
7.49446e-07
-7.5259e-07
-4.3815e-05
4.58229e-05
4.80721e-07
4.98426e-07
4.7838e-07
4.98355e-07
-5.05732e-07
-4.7836e-07
-5.04132e-07
4.37992e-05
-4.57925e-05
-7.26032e-07
7.26883e-07
-7.25647e-07
4.57903e-05
4.38182e-05
-4.58196e-05
7.49078e-07
-7.52428e-07
7.49132e-07
-7.52554e-07
-4.3814e-05
4.58229e-05
4.80322e-07
4.98016e-07
4.78131e-07
4.98264e-07
-5.05042e-07
-4.7815e-07
-5.03894e-07
4.37989e-05
-4.57925e-05
-7.25388e-07
7.26936e-07
-7.25368e-07
4.57906e-05
4.38179e-05
-4.58197e-05
7.48679e-07
-7.52578e-07
7.49026e-07
-7.52524e-07
-4.38141e-05
4.58229e-05
4.79996e-07
4.97925e-07
4.77871e-07
4.97907e-07
-5.04492e-07
-4.7803e-07
-5.03636e-07
4.37989e-05
-4.57929e-05
-7.25016e-07
7.26538e-07
-7.25089e-07
4.57909e-05
4.38178e-05
-4.58194e-05
7.48543e-07
-7.52485e-07
7.49364e-07
-7.52408e-07
-4.3814e-05
4.5823e-05
4.79782e-07
4.97577e-07
4.78353e-07
4.98244e-07
-5.04691e-07
-4.78054e-07
-5.0388e-07
4.37985e-05
-4.57925e-05
-7.24998e-07
7.26796e-07
-7.25281e-07
4.57905e-05
4.38184e-05
-4.58188e-05
7.49184e-07
-7.52226e-07
7.49776e-07
-7.52962e-07
-4.38139e-05
4.58223e-05
4.80458e-07
4.98058e-07
4.7884e-07
4.98731e-07
-5.04858e-07
-4.78928e-07
-5.04594e-07
4.3799e-05
-4.57921e-05
-7.25215e-07
7.2722e-07
-7.25743e-07
4.57899e-05
4.38189e-05
-4.58184e-05
7.4955e-07
-7.53101e-07
7.50033e-07
-7.53342e-07
-4.3815e-05
4.58219e-05
4.81111e-07
4.98646e-07
4.79452e-07
4.99188e-07
-5.05661e-07
-4.7951e-07
-5.04916e-07
4.37995e-05
-4.57917e-05
-7.25682e-07
7.27449e-07
-7.25793e-07
4.57898e-05
4.38191e-05
-4.58187e-05
7.49531e-07
-7.53195e-07
7.49841e-07
-7.53349e-07
-4.38151e-05
4.5822e-05
4.81322e-07
4.98788e-07
4.7926e-07
4.99168e-07
-5.05792e-07
-4.79458e-07
-5.04895e-07
4.37996e-05
-4.57916e-05
-7.25591e-07
7.27439e-07
-7.2585e-07
4.57898e-05
4.38189e-05
-4.58187e-05
7.49452e-07
-7.53407e-07
7.50032e-07
-7.53182e-07
-4.38151e-05
4.58223e-05
4.81158e-07
4.98901e-07
4.7924e-07
4.99031e-07
-5.05816e-07
-4.79197e-07
-5.0477e-07
4.37997e-05
-4.57919e-05
-7.25694e-07
7.27142e-07
-7.25802e-07
4.579e-05
4.38187e-05
-4.5819e-05
7.49184e-07
-7.52351e-07
7.50669e-07
-7.54027e-07
-4.38144e-05
4.58223e-05
4.8058e-07
4.9813e-07
4.79886e-07
4.99751e-07
-5.05049e-07
-4.79979e-07
-5.05457e-07
4.37991e-05
-4.57923e-05
-7.25119e-07
7.27595e-07
-7.26462e-07
4.57902e-05
4.38179e-05
-4.58135e-05
7.46685e-07
-7.50282e-07
7.56126e-07
-7.5957e-07
-4.38141e-05
4.5817e-05
4.77746e-07
4.95241e-07
4.86257e-07
5.06132e-07
-5.02131e-07
-4.86281e-07
-5.1198e-07
4.37974e-05
-4.57875e-05
-7.22578e-07
7.33045e-07
-7.31856e-07
4.5785e-05
4.38088e-05
-4.57773e-05
7.38575e-07
-7.42105e-07
7.59599e-07
-7.63311e-07
-4.38048e-05
4.57811e-05
4.69513e-07
4.87064e-07
4.87562e-07
5.07304e-07
-4.94182e-07
-4.8749e-07
-5.14444e-07
4.37878e-05
-4.57519e-05
-7.14715e-07
7.36681e-07
-7.35611e-07
4.57492e-05
4.37375e-05
-4.54104e-05
7.27719e-07
-7.31264e-07
7.26751e-07
-7.31223e-07
-4.37338e-05
4.54136e-05
4.79445e-07
4.9625e-07
4.22278e-07
4.43401e-07
-5.05071e-07
-4.23153e-07
-4.52542e-07
4.37165e-05
-4.53836e-05
-7.04119e-07
7.04126e-07
-7.03467e-07
4.53809e-05
4.33138e-05
-4.54402e-05
8.04653e-07
-8.08137e-07
4.69731e-07
-4.74752e-07
-4.33099e-05
4.54421e-05
5.81399e-07
5.9676e-07
6.21762e-08
8.4399e-08
-6.0688e-07
-6.29262e-08
-8.875e-08
4.32917e-05
-4.54163e-05
-7.81308e-07
4.47767e-07
-4.47039e-07
4.54111e-05
4.32835e-05
-4.41337e-05
1.09901e-06
-1.10315e-06
5.43194e-08
-6.18402e-08
-4.32809e-05
4.41382e-05
1.06582e-06
1.08107e-06
-5.33648e-07
-5.07441e-07
-1.08711e-06
5.3328e-07
5.12227e-07
4.32637e-05
-4.41093e-05
-1.07686e-06
3.40533e-08
-3.39551e-08
4.41065e-05
4.19754e-05
-4.19633e-05
1.6032e-06
-1.60543e-06
-1.17367e-06
1.16154e-06
-4.19738e-05
4.19672e-05
1.78903e-06
1.80263e-06
-1.92708e-06
-1.9005e-06
-1.80296e-06
1.91708e-06
1.89938e-06
4.19594e-05
-4.19431e-05
-1.58076e-06
-1.19195e-06
1.18636e-06
4.19288e-05
3.89718e-05
-3.5373e-05
2.92525e-06
-2.93269e-06
-5.06799e-06
5.04588e-06
-3.89722e-05
3.53369e-05
3.45149e-06
3.47134e-06
-6.7406e-06
-6.72138e-06
-3.47954e-06
6.71142e-06
6.70882e-06
3.89679e-05
-3.53491e-05
-2.90909e-06