/*--------------------------------*- C++ -*----------------------------------*\
| =========                 |                                                 |
| \\      /  F ield         | OpenFOAM: The Open Source CFD Toolbox           |
|  \\    /   O peration     | Version:  2206                                  |
|   \\  /    A nd           | Website:  www.openfoam.com                      |
|    \\/     M anipulation  |                                                 |
\*---------------------------------------------------------------------------*/
FoamFile
{
    version     2.0;
    format      ascii;
    arch        "LSB;label=32;scalar=64";
    class       volScalarField;
    location    "40";
    object      epsilon;
}
// * * * * * * * * * * * * * * * * * * * * * * * * * * * * * * * * * * * * * //

dimensions      [0 2 -3 0 0 0 0];

internalField   nonuniform List<scalar> 
28673
(
2.62343e-07
2.97729e-07
2.32164e-07
2.62346e-07
2.62357e-07
2.97749e-07
2.32165e-07
2.62351e-07
2.62361e-07
2.97756e-07
2.32167e-07
2.62355e-07
2.62365e-07
2.97764e-07
2.32167e-07
2.62359e-07
2.62369e-07
2.97773e-07
2.32168e-07
2.62362e-07
2.62373e-07
2.9778e-07
2.32166e-07
2.62364e-07
2.62374e-07
2.97787e-07
2.32164e-07
2.62364e-07
2.62374e-07
2.97791e-07
2.32164e-07
2.6236e-07
2.62371e-07
2.9779e-07
2.32141e-07
2.62301e-07
2.62337e-07
2.97746e-07
2.32076e-07
2.62228e-07
2.62249e-07
2.97636e-07
2.32064e-07
2.62219e-07
2.6223e-07
2.97585e-07
2.31139e-07
2.58217e-07
2.5822e-07
2.91419e-07
2.62376e-07
2.97436e-07
2.62343e-07
2.97459e-07
2.62369e-07
2.62376e-07
2.62368e-07
2.62376e-07
2.97725e-07
2.97442e-07
2.62353e-07
2.62381e-07
2.62372e-07
2.62345e-07
2.62372e-07
2.97457e-07
2.62354e-07
2.62357e-07
2.62354e-07
2.97465e-07
2.97745e-07
2.9746e-07
2.62371e-07
2.62379e-07
2.62372e-07
2.62381e-07
2.9773e-07
2.97458e-07
2.62355e-07
2.62384e-07
2.62355e-07
2.62385e-07
2.62375e-07
2.6235e-07
2.62375e-07
2.97743e-07
2.97468e-07
2.62356e-07
2.62361e-07
2.62357e-07
2.97472e-07
2.97747e-07
2.97469e-07
2.62375e-07
2.62383e-07
2.62376e-07
2.62385e-07
2.97745e-07
2.97464e-07
2.62358e-07
2.62387e-07
2.6236e-07
2.62389e-07
2.62378e-07
2.62354e-07
2.6238e-07
2.97756e-07
2.97475e-07
2.6236e-07
2.62365e-07
2.62361e-07
2.97479e-07
2.97756e-07
2.97484e-07
2.62379e-07
2.62388e-07
2.62381e-07
2.62389e-07
2.97752e-07
2.97472e-07
2.62363e-07
2.62392e-07
2.62364e-07
2.62393e-07
2.62382e-07
2.62359e-07
2.62384e-07
2.97762e-07
2.97485e-07
2.62364e-07
2.62368e-07
2.62365e-07
2.97489e-07
2.9777e-07
2.97491e-07
2.62384e-07
2.62392e-07
2.62385e-07
2.62393e-07
2.9776e-07
2.97481e-07
2.62367e-07
2.62396e-07
2.62368e-07
2.62396e-07
2.62386e-07
2.62362e-07
2.62387e-07
2.97771e-07
2.97493e-07
2.62368e-07
2.62372e-07
2.62368e-07
2.97496e-07
2.97777e-07
2.97497e-07
2.62388e-07
2.62395e-07
2.62387e-07
2.62394e-07
2.97768e-07
2.97487e-07
2.62371e-07
2.62399e-07
2.6237e-07
2.62399e-07
2.6239e-07
2.62364e-07
2.62389e-07
2.97779e-07
2.975e-07
2.62371e-07
2.62374e-07
2.6237e-07
2.97503e-07
2.97783e-07
2.97502e-07
2.62389e-07
2.62396e-07
2.62388e-07
2.62395e-07
2.97774e-07
2.97492e-07
2.62372e-07
2.624e-07
2.6237e-07
2.62398e-07
2.6239e-07
2.62364e-07
2.62389e-07
2.97786e-07
2.97505e-07
2.62372e-07
2.62374e-07
2.6237e-07
2.97507e-07
2.97788e-07
2.97505e-07
2.6239e-07
2.62396e-07
2.62387e-07
2.62393e-07
2.97778e-07
2.97492e-07
2.62372e-07
2.624e-07
2.62369e-07
2.62396e-07
2.6239e-07
2.62362e-07
2.62387e-07
2.9779e-07
2.97506e-07
2.62372e-07
2.62372e-07
2.62368e-07
2.97508e-07
2.97789e-07
2.97478e-07
2.62386e-07
2.62392e-07
2.62357e-07
2.6235e-07
2.97776e-07
2.97444e-07
2.6237e-07
2.62397e-07
2.62348e-07
2.62378e-07
2.62387e-07
2.62318e-07
2.62354e-07
2.9779e-07
2.97486e-07
2.62368e-07
2.62349e-07
2.62336e-07
2.97474e-07
2.97753e-07
2.97368e-07
2.62344e-07
2.62335e-07
2.62264e-07
2.62263e-07
2.97716e-07
2.97337e-07
2.62337e-07
2.62368e-07
2.62255e-07
2.62287e-07
2.62341e-07
2.62231e-07
2.62264e-07
2.97763e-07
2.97384e-07
2.62322e-07
2.62256e-07
2.62245e-07
2.97366e-07
2.9764e-07
2.97297e-07
2.62259e-07
2.62259e-07
2.62188e-07
2.62193e-07
2.97614e-07
2.97292e-07
2.62248e-07
2.62278e-07
2.6217e-07
2.62198e-07
2.62259e-07
2.62163e-07
2.62192e-07
2.97653e-07
2.97301e-07
2.6224e-07
2.62173e-07
2.6217e-07
2.97308e-07
2.97577e-07
2.94687e-07
2.62246e-07
2.62251e-07
2.59665e-07
2.59669e-07
2.97572e-07
2.9468e-07
2.62227e-07
2.62256e-07
2.59652e-07
2.59668e-07
2.6225e-07
2.59648e-07
2.59667e-07
2.97579e-07
2.94689e-07
2.62227e-07
2.59653e-07
2.5965e-07
2.94688e-07
2.91419e-07
2.5823e-07
2.58233e-07
2.91414e-07
2.5822e-07
2.58233e-07
2.3114e-07
2.3114e-07
2.3114e-07
2.58232e-07
2.91421e-07
2.58219e-07
1.86152e-06
8.81697e-06
1.86202e-06
8.81651e-06
2.05624e-05
2.05622e-05
1.86139e-06
8.81796e-06
2.32166e-07
2.32167e-07
2.32165e-07
2.32165e-07
2.32169e-07
2.32166e-07
5.29192e-07
1.50028e-06
2.4263e-07
2.62345e-07
5.29369e-07
1.49942e-06
2.4263e-07
2.05628e-05
5.29208e-07
2.42632e-07
2.62357e-07
5.29387e-07
2.42632e-07
1.49932e-06
3.41339e-06
3.41452e-06
2.97459e-07
3.41278e-06
3.4139e-06
1.86171e-06
8.81662e-06
1.86228e-06
8.81621e-06
2.05611e-05
2.05612e-05
1.86163e-06
8.81815e-06
1.86213e-06
8.81775e-06
2.32166e-07
2.3217e-07
2.32166e-07
2.32165e-07
2.32165e-07
2.32169e-07
2.32165e-07
5.2923e-07
1.50046e-06
2.4263e-07
2.62349e-07
5.29406e-07
1.49957e-06
2.42632e-07
2.05616e-05
2.05616e-05
5.29243e-07
2.42631e-07
1.50035e-06
2.6236e-07
5.29421e-07
2.42633e-07
1.49951e-06
3.41347e-06
3.41456e-06
2.97467e-07
3.41294e-06
3.41403e-06
1.86182e-06
8.81645e-06
1.8624e-06
8.81613e-06
2.05606e-05
2.05609e-05
1.86175e-06
8.81799e-06
1.86228e-06
8.81764e-06
2.32166e-07
2.3217e-07
2.32167e-07
2.32167e-07
2.32166e-07
2.32169e-07
2.32167e-07
5.29265e-07
1.50056e-06
2.42632e-07
2.62354e-07
5.29442e-07
1.49965e-06
2.42634e-07
2.05608e-05
2.0561e-05
5.29276e-07
2.42633e-07
1.50049e-06
2.62364e-07
5.29455e-07
2.42635e-07
1.49963e-06
3.41367e-06
3.41475e-06
2.97475e-07
3.41314e-06
3.41423e-06
1.86189e-06
8.81648e-06
1.86249e-06
8.81626e-06
2.05605e-05
2.0561e-05
1.86184e-06
8.81797e-06
1.86238e-06
8.81773e-06
2.32168e-07
2.32171e-07
2.32168e-07
2.32167e-07
2.32168e-07
2.3217e-07
2.32167e-07
5.29295e-07
1.50061e-06
2.42634e-07
2.62358e-07
5.29474e-07
1.49969e-06
2.42637e-07
2.05605e-05
2.0561e-05
5.29305e-07
2.42635e-07
1.50057e-06
2.62368e-07
5.29486e-07
2.42637e-07
1.49969e-06
3.41383e-06
3.41492e-06
2.97484e-07
3.41327e-06
3.41437e-06
1.86192e-06
8.81659e-06
1.86253e-06
8.81661e-06
2.05607e-05
2.05622e-05
1.86187e-06
8.81807e-06
1.86243e-06
8.81806e-06
2.3217e-07
2.32171e-07
2.32169e-07
2.32169e-07
2.32167e-07
2.32171e-07
2.32168e-07
5.29312e-07
1.50057e-06
2.42636e-07
2.62362e-07
5.29495e-07
1.49961e-06
2.42638e-07
2.05606e-05
2.05621e-05
5.29322e-07
2.42637e-07
1.50055e-06
2.62372e-07
5.29506e-07
2.42639e-07
1.49962e-06
3.41377e-06
3.41486e-06
2.97492e-07
3.41315e-06
3.41425e-06
1.86182e-06
8.81678e-06
1.8625e-06
8.81692e-06
2.05611e-05
2.05639e-05
1.86178e-06
8.81825e-06
1.86239e-06
8.81841e-06
2.32167e-07
2.32172e-07
2.3217e-07
2.32166e-07
2.32165e-07
2.32171e-07
2.32168e-07
5.2931e-07
1.50057e-06
2.42637e-07
2.62365e-07
5.29509e-07
1.49954e-06
2.42638e-07
2.0561e-05
2.05637e-05
5.29321e-07
2.42638e-07
1.50054e-06
2.62375e-07
5.2952e-07
2.4264e-07
1.49954e-06
3.41365e-06
3.41474e-06
2.975e-07
3.4129e-06
3.414e-06
1.86211e-06
8.81667e-06
1.86284e-06
8.81729e-06
2.05612e-05
2.05658e-05
1.86206e-06
8.8182e-06
1.86274e-06
8.81883e-06
2.32166e-07
2.32171e-07
2.32167e-07
2.32164e-07
2.32163e-07
2.32168e-07
2.32164e-07
5.29327e-07
1.50059e-06
2.42637e-07
2.62365e-07
5.29526e-07
1.49944e-06
2.42637e-07
2.05611e-05
2.05655e-05
5.29337e-07
2.42638e-07
1.50056e-06
2.62376e-07
5.29537e-07
2.42639e-07
1.49945e-06
3.41371e-06
3.41481e-06
2.97505e-07
3.41282e-06
3.41392e-06
1.86209e-06
8.81693e-06
1.86281e-06
8.81845e-06
2.0562e-05
2.05677e-05
1.86204e-06
8.81849e-06
1.8627e-06
8.82e-06
2.32164e-07
2.32167e-07
2.32164e-07
2.32165e-07
2.32163e-07
2.32165e-07
2.32162e-07
5.29319e-07
1.50035e-06
2.42636e-07
2.62365e-07
5.29534e-07
1.49906e-06
2.42637e-07
2.05621e-05
2.05685e-05
5.29321e-07
2.42637e-07
1.5003e-06
2.62374e-07
5.29539e-07
2.42637e-07
1.49904e-06
3.41328e-06
3.41437e-06
2.97508e-07
3.41291e-06
3.414e-06
1.86243e-06
8.81766e-06
1.86301e-06
8.82056e-06
2.05587e-05
2.05659e-05
1.86236e-06
8.81924e-06
1.86283e-06
8.82217e-06
2.32162e-07
2.32165e-07
2.32162e-07
2.32154e-07
2.32142e-07
2.32158e-07
2.32148e-07
5.29291e-07
1.49997e-06
2.42634e-07
2.62353e-07
5.2954e-07
1.49838e-06
2.42632e-07
2.05603e-05
2.05677e-05
5.29293e-07
2.42635e-07
1.49989e-06
2.62368e-07
5.29542e-07
2.42633e-07
1.49837e-06
3.41424e-06
3.41531e-06
2.97501e-07
3.41479e-06
3.41587e-06
1.86285e-06
8.81804e-06
1.86333e-06
8.82214e-06
2.05503e-05
2.05604e-05
1.86285e-06
8.81981e-06
1.86328e-06
8.82395e-06
2.32126e-07
2.32149e-07
2.32133e-07
2.32082e-07
2.32073e-07
2.32088e-07
2.32078e-07
5.29151e-07
1.49934e-06
2.42594e-07
2.62269e-07
5.29478e-07
1.49777e-06
2.42571e-07
2.05524e-05
2.05624e-05
5.29152e-07
2.42605e-07
1.49949e-06
2.62304e-07
5.29481e-07
2.42581e-07
1.49802e-06
3.41644e-06
3.41746e-06
2.97422e-07
3.41812e-06
3.41914e-06
1.86396e-06
8.81486e-06
1.86399e-06
8.82151e-06
2.0535e-05
2.05477e-05
1.8639e-06
8.81654e-06
1.86389e-06
8.82317e-06
2.32071e-07
2.32081e-07
2.32074e-07
2.32053e-07
2.32053e-07
2.32056e-07
2.32054e-07
5.29027e-07
1.5006e-06
2.4253e-07
2.62209e-07
5.2941e-07
1.49893e-06
2.42528e-07
2.05373e-05
2.05497e-05
5.29026e-07
2.42534e-07
1.50087e-06
2.62223e-07
5.2941e-07
2.42531e-07
1.4992e-06
3.41944e-06
3.42041e-06
2.97338e-07
3.4237e-06
3.42468e-06
1.86267e-06
8.8058e-06
1.86472e-06
8.81303e-06
2.05002e-05
2.05057e-05
1.86275e-06
8.80748e-06
1.86465e-06
8.81454e-06
2.32066e-07
2.32069e-07
2.32067e-07
2.31801e-07
2.31802e-07
2.31803e-07
2.31802e-07
5.2784e-07
1.50388e-06
2.42469e-07
2.61891e-07
5.29241e-07
1.49658e-06
2.42535e-07
2.05022e-05
2.05074e-05
5.27833e-07
2.42471e-07
1.50408e-06
2.619e-07
5.29238e-07
2.42536e-07
1.49669e-06
3.4248e-06
3.42577e-06
2.96888e-07
3.434e-06
3.43482e-06
1.35225e-06
7.70913e-06
1.82811e-06
4.01878e-06
1.69903e-05
7.58398e-06
1.35233e-06
7.71041e-06
1.8283e-06
4.01968e-06
2.23048e-07
2.25738e-07
2.25737e-07
2.33364e-07
2.23141e-07
2.26334e-07
2.26333e-07
4.96766e-07
1.41899e-06
2.4079e-07
2.55235e-07
5.16639e-07
1.45103e-06
2.38238e-07
1.69913e-05
7.58404e-06
4.96768e-07
2.40791e-07
1.419e-06
2.55237e-07
5.16629e-07
2.38238e-07
1.45095e-06
3.36788e-06
3.36889e-06
2.83908e-07
2.93048e-06
2.93075e-06
8.8176e-06
1.49951e-06
2.05631e-05
3.41364e-06
3.41219e-06
2.05604e-05
1.49932e-06
8.81707e-06
2.05622e-05
2.05618e-05
2.05633e-05
3.41339e-06
2.97453e-07
3.41273e-06
3.41375e-06
2.05611e-05
2.05614e-05
2.05625e-05
2.05627e-05
2.97741e-07
3.41276e-06
3.41377e-06
3.41327e-06
3.41429e-06
1.86156e-06
8.8179e-06
1.86205e-06
8.81745e-06
5.29185e-07
1.50015e-06
2.4263e-07
2.62369e-07
5.29365e-07
1.49935e-06
2.4263e-07
5.29192e-07
1.50043e-06
2.42632e-07
2.62376e-07
5.29371e-07
1.49961e-06
2.42632e-07
1.86217e-06
8.81634e-06
8.81679e-06
1.86164e-06
1.8622e-06
8.81731e-06
8.81773e-06
1.86167e-06
5.29383e-07
2.62368e-07
1.49944e-06
2.42629e-07
1.50026e-06
2.42629e-07
5.29205e-07
5.2939e-07
2.62376e-07
1.49969e-06
2.42631e-07
1.50053e-06
2.42631e-07
5.29212e-07
3.41422e-06
3.41292e-06
2.97439e-07
3.41374e-06
3.41248e-06
2.05599e-05
2.05596e-05
2.05616e-05
2.05618e-05
2.97725e-07
3.41387e-06
3.41266e-06
3.41433e-06
3.41316e-06
2.05591e-05
2.05592e-05
5.29216e-07
2.62352e-07
1.49967e-06
2.42632e-07
1.86137e-06
8.8175e-06
5.292e-07
2.62381e-07
2.42635e-07
1.49965e-06
1.86199e-06
8.81785e-06
8.81827e-06
1.86153e-06
5.2941e-07
2.62352e-07
1.49975e-06
2.42632e-07
1.50057e-06
2.42632e-07
5.29237e-07
1.86197e-06
8.81732e-06
8.8178e-06
1.86151e-06
5.29396e-07
2.62381e-07
2.42635e-07
1.49975e-06
2.42635e-07
1.50061e-06
5.29221e-07
1.86157e-06
8.81738e-06
1.86206e-06
8.81691e-06
5.29198e-07
2.42632e-07
1.50022e-06
2.62372e-07
5.29374e-07
2.42632e-07
1.49941e-06
1.86157e-06
8.81798e-06
1.86206e-06
8.81752e-06
5.29388e-07
2.62345e-07
1.49951e-06
2.4263e-07
1.50037e-06
2.4263e-07
5.29212e-07
1.86221e-06
8.81677e-06
8.81722e-06
1.86168e-06
5.29393e-07
2.62372e-07
2.42631e-07
1.4995e-06
2.42631e-07
1.50033e-06
5.29218e-07
1.86221e-06
8.81737e-06
8.8178e-06
1.86168e-06
2.9745e-07
3.41331e-06
3.41274e-06
2.05631e-05
2.05621e-05
2.05623e-05
2.97739e-07
3.4136e-06
3.41277e-06
3.41404e-06
3.41329e-06
2.05622e-05
2.05625e-05
5.29209e-07
2.42632e-07
1.50041e-06
2.62354e-07
5.29389e-07
2.42632e-07
1.4996e-06
1.86173e-06
1.86228e-06
8.81761e-06
1.86173e-06
8.81871e-06
1.86228e-06
8.81825e-06
5.29405e-07
2.62357e-07
2.42631e-07
1.49943e-06
2.42631e-07
1.50024e-06
5.29226e-07
5.29405e-07
2.62353e-07
2.42631e-07
1.49968e-06
2.42631e-07
1.50052e-06
5.29227e-07
1.86243e-06
8.81747e-06
8.81789e-06
1.86184e-06
1.86242e-06
8.81808e-06
8.81852e-06
1.86183e-06
2.05631e-05
2.05627e-05
2.05636e-05
2.05632e-05
2.97747e-07
3.41284e-06
3.41395e-06
3.41335e-06
3.41446e-06
2.0562e-05
2.05622e-05
2.05625e-05
2.05627e-05
2.05607e-05
2.05606e-05
2.0562e-05
2.05619e-05
3.41332e-06
3.41434e-06
2.97459e-07
3.41284e-06
3.41385e-06
2.05603e-05
2.05603e-05
2.05615e-05
2.05615e-05
2.97744e-07
3.41293e-06
3.41395e-06
3.4134e-06
3.41442e-06
1.86175e-06
8.8176e-06
1.8623e-06
8.81719e-06
5.29224e-07
1.50034e-06
2.42631e-07
2.62371e-07
5.29403e-07
1.4995e-06
2.42631e-07
5.2923e-07
1.5006e-06
2.42634e-07
2.62379e-07
5.2941e-07
1.49975e-06
2.42634e-07
1.86234e-06
8.81614e-06
8.81651e-06
1.86177e-06
1.86237e-06
8.81713e-06
8.8175e-06
1.8618e-06
5.29421e-07
2.62372e-07
1.49955e-06
2.42631e-07
1.50039e-06
2.4263e-07
5.29242e-07
5.29428e-07
2.6238e-07
1.4998e-06
2.42633e-07
1.50066e-06
2.42633e-07
5.29248e-07
3.41446e-06
3.41333e-06
2.9745e-07
3.41399e-06
3.4128e-06
2.05587e-05
2.05587e-05
2.0561e-05
2.05609e-05
2.97738e-07
3.4141e-06
3.4129e-06
3.41458e-06
3.41346e-06
2.05585e-05
2.05584e-05
5.29257e-07
1.50064e-06
2.42634e-07
2.62355e-07
5.29431e-07
1.49981e-06
2.42635e-07
1.86161e-06
8.81762e-06
1.8621e-06
8.81716e-06
5.29241e-07
2.42637e-07
1.50071e-06
2.62384e-07
5.29417e-07
2.42637e-07
1.49983e-06
1.8622e-06
8.81767e-06
8.81807e-06
1.8617e-06
5.2945e-07
2.62355e-07
1.49985e-06
2.42633e-07
1.50069e-06
2.42633e-07
5.29276e-07
1.86219e-06
8.81706e-06
8.81748e-06
1.86168e-06
5.29436e-07
2.62384e-07
2.42636e-07
1.4999e-06
2.42636e-07
1.50078e-06
5.2926e-07
1.86176e-06
8.81709e-06
1.86231e-06
8.81666e-06
5.29236e-07
2.42633e-07
1.50041e-06
2.62375e-07
5.29413e-07
2.42633e-07
1.49956e-06
1.86176e-06
8.81766e-06
1.86231e-06
8.81724e-06
5.29426e-07
2.62349e-07
1.49962e-06
2.42632e-07
1.5005e-06
2.42632e-07
5.29248e-07
1.86238e-06
8.8166e-06
8.81699e-06
1.86182e-06
5.29431e-07
2.62375e-07
2.42632e-07
1.49962e-06
2.42632e-07
1.50047e-06
5.29254e-07
1.86238e-06
8.81716e-06
8.81754e-06
1.86181e-06
3.41429e-06
3.41334e-06
2.9746e-07
3.41379e-06
3.41285e-06
2.05618e-05
2.05616e-05
2.05612e-05
2.05612e-05
2.97746e-07
3.41393e-06
3.41296e-06
3.41447e-06
3.41343e-06
2.05612e-05
2.05612e-05
5.29243e-07
2.42633e-07
1.50059e-06
2.62356e-07
5.29423e-07
2.42633e-07
1.49975e-06
1.86192e-06
8.81777e-06
1.86253e-06
8.81736e-06
1.86191e-06
8.81837e-06
1.86252e-06
8.81795e-06
5.2944e-07
2.6236e-07
2.42633e-07
1.49958e-06
2.42633e-07
1.50042e-06
5.29261e-07
5.29439e-07
2.62356e-07
2.42633e-07
1.4998e-06
2.42632e-07
1.50065e-06
5.2926e-07
1.8626e-06
8.81729e-06
8.81767e-06
1.86197e-06
1.86259e-06
8.81789e-06
8.81825e-06
1.86196e-06
2.05616e-05
2.05615e-05
2.05621e-05
2.0562e-05
2.97754e-07
3.41305e-06
3.41414e-06
3.41352e-06
3.41461e-06
2.05612e-05
2.05612e-05
2.05617e-05
2.05617e-05
2.056e-05
2.05602e-05
2.05611e-05
2.05612e-05
3.4135e-06
3.41452e-06
2.97465e-07
3.41303e-06
3.41405e-06
2.05602e-05
2.05599e-05
2.05612e-05
2.05609e-05
2.97751e-07
3.41311e-06
3.41415e-06
3.41359e-06
3.41463e-06
1.86185e-06
8.81744e-06
1.86242e-06
8.81711e-06
5.29259e-07
1.50044e-06
2.42633e-07
2.62375e-07
5.29439e-07
1.49959e-06
2.42633e-07
5.29265e-07
1.5007e-06
2.42636e-07
2.62384e-07
5.29446e-07
1.49984e-06
2.42636e-07
1.86244e-06
8.81618e-06
8.81646e-06
1.86186e-06
1.86247e-06
8.81713e-06
8.81743e-06
1.86189e-06
5.29455e-07
2.62376e-07
1.49963e-06
2.42633e-07
1.50048e-06
2.42633e-07
5.29275e-07
5.29462e-07
2.62384e-07
1.49987e-06
2.42635e-07
1.50074e-06
2.42635e-07
5.29281e-07
3.41468e-06
3.41355e-06
2.97461e-07
3.41419e-06
3.41298e-06
2.05582e-05
2.05584e-05
2.05609e-05
2.05606e-05
2.97747e-07
3.41426e-06
3.41304e-06
3.41477e-06
3.41363e-06
2.05584e-05
2.05581e-05
5.29293e-07
1.50074e-06
2.42636e-07
2.62358e-07
5.29469e-07
1.4999e-06
2.42636e-07
1.86173e-06
8.81739e-06
1.86225e-06
8.81702e-06
5.29277e-07
2.42639e-07
1.50084e-06
2.62387e-07
5.29455e-07
2.42639e-07
1.49995e-06
1.86232e-06
8.81765e-06
8.81797e-06
1.8618e-06
5.29485e-07
2.62359e-07
1.49993e-06
2.42635e-07
1.50078e-06
2.42635e-07
5.29309e-07
1.8623e-06
8.81705e-06
8.81736e-06
1.86178e-06
5.29472e-07
2.62388e-07
2.42638e-07
1.49998e-06
2.42638e-07
1.50088e-06
5.29293e-07
1.86186e-06
8.81694e-06
1.86244e-06
8.81658e-06
5.29271e-07
2.42635e-07
1.50051e-06
2.62378e-07
5.29449e-07
2.42635e-07
1.49966e-06
1.86186e-06
8.81747e-06
1.86243e-06
8.81712e-06
5.29461e-07
2.62354e-07
1.49968e-06
2.42634e-07
1.50058e-06
2.42634e-07
5.29281e-07
1.86248e-06
8.8166e-06
8.81693e-06
1.8619e-06
5.29465e-07
2.62379e-07
2.42634e-07
1.49969e-06
2.42634e-07
1.50055e-06
5.29287e-07
1.86248e-06
8.81714e-06
8.81744e-06
1.8619e-06
3.41459e-06
3.41353e-06
2.97476e-07
3.41403e-06
3.41306e-06
2.05609e-05
2.0561e-05
2.05609e-05
2.05607e-05
2.9776e-07
3.41411e-06
3.41315e-06
3.41469e-06
3.41364e-06
2.05609e-05
2.05607e-05
5.29275e-07
2.42635e-07
1.5007e-06
2.6236e-07
5.29456e-07
2.42635e-07
1.49984e-06
1.86202e-06
8.8176e-06
1.86265e-06
8.81725e-06
1.86201e-06
8.8182e-06
1.86264e-06
8.81788e-06
5.29473e-07
2.62364e-07
2.42635e-07
1.49967e-06
2.42635e-07
1.50052e-06
5.29292e-07
5.29471e-07
2.6236e-07
2.42634e-07
1.49988e-06
2.42634e-07
1.50074e-06
5.29291e-07
1.86269e-06
8.81726e-06
8.81757e-06
1.86206e-06
1.86268e-06
8.81792e-06
8.8182e-06
1.86204e-06
2.05609e-05
2.05611e-05
2.05614e-05
2.05616e-05
2.97761e-07
3.41323e-06
3.41432e-06
3.41372e-06
3.4148e-06
2.0561e-05
2.05608e-05
2.05616e-05
2.05613e-05
2.05598e-05
2.05602e-05
2.05609e-05
2.05612e-05
3.41367e-06
3.41471e-06
2.97479e-07
3.41316e-06
3.41421e-06
2.05606e-05
2.05599e-05
2.05616e-05
2.05609e-05
2.97766e-07
3.41315e-06
3.41421e-06
3.41368e-06
3.41473e-06
1.86192e-06
8.81744e-06
1.86251e-06
8.8172e-06
5.29289e-07
1.50051e-06
2.42635e-07
2.6238e-07
5.29471e-07
1.49965e-06
2.42635e-07
5.29295e-07
1.50076e-06
2.42638e-07
2.62388e-07
5.29478e-07
1.49988e-06
2.42638e-07
1.86251e-06
8.81641e-06
8.81653e-06
1.86192e-06
1.86254e-06
8.81734e-06
8.81746e-06
1.86195e-06
5.29483e-07
2.6238e-07
1.49963e-06
2.42635e-07
1.50051e-06
2.42635e-07
5.293e-07
5.2949e-07
2.62389e-07
1.49985e-06
2.42637e-07
1.50075e-06
2.42637e-07
5.29306e-07
3.41482e-06
3.41367e-06
2.9747e-07
3.41429e-06
3.41307e-06
2.05581e-05
2.05585e-05
2.05614e-05
2.05606e-05
2.97756e-07
3.41426e-06
3.41305e-06
3.41482e-06
3.41367e-06
2.05589e-05
2.05581e-05
5.29323e-07
1.50081e-06
2.42637e-07
2.62363e-07
5.29501e-07
1.49995e-06
2.42637e-07
1.86182e-06
8.81738e-06
1.86235e-06
8.81713e-06
5.29308e-07
2.4264e-07
1.50092e-06
2.62392e-07
5.29488e-07
2.4264e-07
1.50001e-06
1.8624e-06
8.81787e-06
8.81801e-06
1.86187e-06
5.29513e-07
2.62364e-07
1.49994e-06
2.42637e-07
1.50082e-06
2.42636e-07
5.29335e-07
1.86239e-06
8.81727e-06
8.81742e-06
1.86186e-06
5.29501e-07
2.62392e-07
2.4264e-07
1.49999e-06
2.4264e-07
1.50092e-06
5.2932e-07
1.86194e-06
8.81694e-06
1.86252e-06
8.81666e-06
5.29301e-07
2.42637e-07
1.50058e-06
2.62382e-07
5.29481e-07
2.42637e-07
1.49971e-06
1.86193e-06
8.81745e-06
1.86252e-06
8.81721e-06
5.29489e-07
2.62358e-07
1.49967e-06
2.42636e-07
1.50059e-06
2.42636e-07
5.29307e-07
1.86256e-06
8.81681e-06
8.81696e-06
1.86197e-06
5.29493e-07
2.62383e-07
2.42636e-07
1.49969e-06
2.42636e-07
1.50058e-06
5.29312e-07
1.86255e-06
8.81734e-06
8.81747e-06
1.86196e-06
3.41476e-06
3.41371e-06
2.97483e-07
3.41416e-06
3.41322e-06
2.05606e-05
2.0561e-05
2.05613e-05
2.05606e-05
2.97768e-07
3.41415e-06
3.41321e-06
3.41477e-06
3.41374e-06
2.05613e-05
2.05606e-05
5.29304e-07
2.42637e-07
1.50077e-06
2.62364e-07
5.29486e-07
2.42637e-07
1.49989e-06
1.86209e-06
8.81758e-06
1.86273e-06
8.81734e-06
1.86208e-06
8.81823e-06
1.86272e-06
8.818e-06
5.295e-07
2.62368e-07
2.42637e-07
1.49968e-06
2.42637e-07
1.50056e-06
5.29317e-07
5.29498e-07
2.62365e-07
2.42636e-07
1.49987e-06
2.42636e-07
1.50077e-06
5.29316e-07
1.86277e-06
8.81748e-06
8.81761e-06
1.86212e-06
1.86275e-06
8.81814e-06
8.81826e-06
1.86211e-06
2.05607e-05
2.05611e-05
2.05613e-05
2.05617e-05
2.9777e-07
3.41325e-06
3.41435e-06
3.4138e-06
3.41489e-06
2.05615e-05
2.05608e-05
2.0562e-05
2.05613e-05
2.056e-05
2.05614e-05
2.05609e-05
2.05623e-05
3.41361e-06
3.41467e-06
2.97487e-07
3.41305e-06
3.41411e-06
2.05623e-05
2.05602e-05
2.05632e-05
2.05611e-05
2.97773e-07
3.4129e-06
3.41396e-06
3.41351e-06
3.41458e-06
1.86195e-06
8.81753e-06
1.86254e-06
8.81754e-06
5.29307e-07
1.50048e-06
2.42638e-07
2.62384e-07
5.29492e-07
1.49957e-06
2.42638e-07
5.29312e-07
1.50072e-06
2.4264e-07
2.62392e-07
5.29498e-07
1.49979e-06
2.4264e-07
1.86247e-06
8.81682e-06
8.81673e-06
1.86185e-06
1.8625e-06
8.81776e-06
8.81766e-06
1.86188e-06
5.29497e-07
2.62385e-07
1.49951e-06
2.42637e-07
1.50046e-06
2.42637e-07
5.29307e-07
5.29503e-07
2.62393e-07
1.49973e-06
2.42639e-07
1.50069e-06
2.42639e-07
5.29311e-07
3.41474e-06
3.4136e-06
2.97478e-07
3.41417e-06
3.41296e-06
2.05583e-05
2.05597e-05
2.05632e-05
2.0561e-05
2.97765e-07
3.41403e-06
3.41283e-06
3.41465e-06
3.41352e-06
2.05607e-05
2.05585e-05
5.29342e-07
1.50079e-06
2.42639e-07
2.62367e-07
5.29523e-07
1.49988e-06
2.42639e-07
1.86185e-06
8.81748e-06
1.8624e-06
8.81743e-06
5.29327e-07
2.42642e-07
1.50089e-06
2.62396e-07
5.2951e-07
2.42642e-07
1.49994e-06
1.86237e-06
8.81827e-06
8.8182e-06
1.8618e-06
5.29528e-07
2.62368e-07
1.49982e-06
2.42638e-07
1.50076e-06
2.42638e-07
5.29342e-07
1.86236e-06
8.81765e-06
8.8176e-06
1.86179e-06
5.29515e-07
2.62396e-07
2.42642e-07
1.49988e-06
2.42642e-07
1.50088e-06
5.29327e-07
1.86196e-06
8.81702e-06
1.86256e-06
8.81698e-06
5.29318e-07
2.42639e-07
1.50055e-06
2.62386e-07
5.29501e-07
2.42639e-07
1.49962e-06
1.86195e-06
8.81753e-06
1.86255e-06
8.81753e-06
5.29501e-07
2.62362e-07
1.49955e-06
2.42637e-07
1.50054e-06
2.42638e-07
5.2931e-07
1.86251e-06
8.81722e-06
8.81715e-06
1.86189e-06
5.29505e-07
2.62387e-07
2.42638e-07
1.49957e-06
2.42638e-07
1.50052e-06
5.29316e-07
1.86251e-06
8.81775e-06
8.81765e-06
1.86188e-06
3.41471e-06
3.41369e-06
2.97491e-07
3.41407e-06
3.41312e-06
2.05607e-05
2.05621e-05
2.0563e-05
2.05609e-05
2.97776e-07
3.41394e-06
3.41297e-06
3.41463e-06
3.41359e-06
2.0563e-05
2.05609e-05
5.29322e-07
2.42639e-07
1.50074e-06
2.62368e-07
5.29507e-07
2.42639e-07
1.49981e-06
1.86212e-06
8.81768e-06
1.86277e-06
8.81767e-06
1.8621e-06
8.81832e-06
1.86276e-06
8.81831e-06
5.29512e-07
2.62372e-07
2.42638e-07
1.49956e-06
2.42639e-07
1.50051e-06
5.29321e-07
5.29511e-07
2.62368e-07
2.42638e-07
1.49975e-06
2.42638e-07
1.50071e-06
5.2932e-07
1.86273e-06
8.81788e-06
8.81779e-06
1.86205e-06
1.86271e-06
8.81851e-06
8.81843e-06
1.86203e-06
2.05609e-05
2.05623e-05
2.05614e-05
2.05628e-05
2.97779e-07
3.413e-06
3.4141e-06
3.41363e-06
3.41472e-06
2.05632e-05
2.05611e-05
2.05637e-05
2.05616e-05
2.05604e-05
2.0563e-05
2.05613e-05
2.05639e-05
3.4135e-06
3.41455e-06
2.97496e-07
3.41281e-06
3.41386e-06
2.05638e-05
2.05604e-05
2.05647e-05
2.05613e-05
2.97781e-07
3.41279e-06
3.41384e-06
3.41356e-06
3.41462e-06
1.86185e-06
8.81774e-06
1.86251e-06
8.81789e-06
5.29308e-07
1.50048e-06
2.4264e-07
2.62388e-07
5.29509e-07
1.4995e-06
2.4264e-07
5.29312e-07
1.50071e-06
2.42642e-07
2.62395e-07
5.29514e-07
1.49972e-06
2.42642e-07
1.86265e-06
8.81702e-06
8.81671e-06
1.86197e-06
1.86267e-06
8.81803e-06
8.81769e-06
1.86199e-06
5.29524e-07
2.62387e-07
1.49949e-06
2.42638e-07
1.50052e-06
2.42639e-07
5.29322e-07
5.29529e-07
2.62395e-07
1.49971e-06
2.4264e-07
1.50075e-06
2.4264e-07
5.29326e-07
3.41463e-06
3.41351e-06
2.97486e-07
3.41392e-06
3.41273e-06
2.05588e-05
2.05614e-05
2.05646e-05
2.05613e-05
2.97772e-07
3.4139e-06
3.41271e-06
3.41469e-06
3.41358e-06
2.05622e-05
2.05588e-05
5.29343e-07
1.50078e-06
2.42641e-07
2.62371e-07
5.2954e-07
1.49981e-06
2.42641e-07
1.86176e-06
8.81763e-06
1.86237e-06
8.81776e-06
5.29328e-07
2.42644e-07
1.5009e-06
2.62399e-07
5.29527e-07
2.42644e-07
1.49987e-06
1.86255e-06
8.81853e-06
8.81822e-06
1.86191e-06
5.29554e-07
2.6237e-07
1.4998e-06
2.4264e-07
1.50082e-06
2.4264e-07
5.29355e-07
1.86253e-06
8.81787e-06
8.81758e-06
1.8619e-06
5.29542e-07
2.62399e-07
2.42643e-07
1.49986e-06
2.42643e-07
1.50094e-06
5.29341e-07
1.86186e-06
8.81722e-06
1.86252e-06
8.81736e-06
5.29316e-07
2.42641e-07
1.50054e-06
2.6239e-07
5.29516e-07
2.42641e-07
1.49955e-06
1.86186e-06
8.81772e-06
1.86252e-06
8.81786e-06
5.29524e-07
2.62365e-07
1.49953e-06
2.42637e-07
1.5006e-06
2.42638e-07
5.29322e-07
1.86268e-06
8.8175e-06
8.81719e-06
1.862e-06
5.2953e-07
2.62389e-07
2.42639e-07
1.49954e-06
2.42639e-07
1.50058e-06
5.29329e-07
1.86268e-06
8.81799e-06
8.81767e-06
1.862e-06
3.41463e-06
3.41357e-06
2.97498e-07
3.41385e-06
3.41287e-06
2.0561e-05
2.05637e-05
2.05644e-05
2.05611e-05
2.97784e-07
3.41383e-06
3.41285e-06
3.4147e-06
3.41363e-06
2.05644e-05
2.05611e-05
5.2932e-07
2.4264e-07
1.50073e-06
2.62371e-07
5.29521e-07
2.4264e-07
1.49973e-06
1.86202e-06
8.81785e-06
1.86274e-06
8.81799e-06
1.862e-06
8.81848e-06
1.86272e-06
8.81861e-06
5.29535e-07
2.62375e-07
2.42638e-07
1.49953e-06
2.4264e-07
1.50057e-06
5.29333e-07
5.29534e-07
2.6237e-07
2.42638e-07
1.49973e-06
2.42638e-07
1.50077e-06
5.29332e-07
1.8629e-06
8.81811e-06
8.81779e-06
1.86218e-06
1.86288e-06
8.81873e-06
8.81841e-06
1.86214e-06
2.05613e-05
2.05639e-05
2.05618e-05
2.05644e-05
2.97786e-07
3.41288e-06
3.41398e-06
3.41367e-06
3.41476e-06
2.05647e-05
2.05613e-05
2.05652e-05
2.05618e-05
2.05605e-05
2.05648e-05
2.05614e-05
2.05657e-05
3.41357e-06
3.41462e-06
2.97502e-07
3.41273e-06
3.41379e-06
2.05663e-05
2.0561e-05
2.05672e-05
2.05618e-05
2.97787e-07
3.41255e-06
3.41362e-06
3.41336e-06
3.41443e-06
1.86213e-06
8.81769e-06
1.86285e-06
8.81833e-06
5.29328e-07
1.5005e-06
2.4264e-07
2.62389e-07
5.29529e-07
1.49941e-06
2.42639e-07
5.29332e-07
1.50073e-06
2.42641e-07
2.62396e-07
5.29533e-07
1.49962e-06
2.42641e-07
1.8628e-06
8.81775e-06
8.81674e-06
1.86209e-06
1.86282e-06
8.81885e-06
8.8178e-06
1.86212e-06
5.29529e-07
2.62389e-07
1.49923e-06
2.42637e-07
1.50038e-06
2.42638e-07
5.29323e-07
5.29534e-07
2.62396e-07
1.49945e-06
2.42638e-07
1.50061e-06
2.42639e-07
5.29328e-07
3.41468e-06
3.41357e-06
2.97492e-07
3.41381e-06
3.41263e-06
2.05589e-05
2.05633e-05
2.05671e-05
2.05619e-05
2.97778e-07
3.41364e-06
3.41244e-06
3.41446e-06
3.41335e-06
2.05647e-05
2.05594e-05
5.29361e-07
1.50081e-06
2.42642e-07
2.62371e-07
5.29558e-07
1.49972e-06
2.42642e-07
1.86205e-06
8.81755e-06
1.86271e-06
8.81816e-06
5.29347e-07
2.42644e-07
1.50092e-06
2.624e-07
5.29546e-07
2.42644e-07
1.49978e-06
1.86268e-06
8.8193e-06
8.81831e-06
1.86202e-06
5.29558e-07
2.62372e-07
1.49955e-06
2.42638e-07
1.50069e-06
2.4264e-07
5.29357e-07
1.86267e-06
8.81861e-06
8.81764e-06
1.86201e-06
5.29546e-07
2.624e-07
2.42642e-07
1.4996e-06
2.42643e-07
1.50081e-06
5.29343e-07
1.86214e-06
8.81719e-06
1.86286e-06
8.8178e-06
5.29335e-07
2.4264e-07
1.50056e-06
2.6239e-07
5.29534e-07
2.4264e-07
1.49946e-06
1.86214e-06
8.81765e-06
1.86286e-06
8.81827e-06
5.29528e-07
2.62365e-07
1.49928e-06
2.42636e-07
1.50046e-06
2.42637e-07
5.29324e-07
1.86283e-06
8.81833e-06
8.8173e-06
1.86213e-06
5.29534e-07
2.6239e-07
2.42638e-07
1.49928e-06
2.42639e-07
1.50044e-06
5.29332e-07
1.86283e-06
8.81875e-06
8.81773e-06
1.86213e-06
3.4147e-06
3.41364e-06
2.97505e-07
3.41377e-06
3.41281e-06
2.05611e-05
2.05655e-05
2.0567e-05
2.05616e-05
2.9779e-07
3.41358e-06
3.41263e-06
3.4145e-06
3.41344e-06
2.0567e-05
2.05616e-05
5.29338e-07
2.42639e-07
1.50075e-06
2.62371e-07
5.29538e-07
2.42639e-07
1.49964e-06
1.86227e-06
8.81777e-06
1.863e-06
8.81839e-06
1.86229e-06
8.81839e-06
1.86306e-06
8.81901e-06
5.29537e-07
2.62376e-07
2.42637e-07
1.49927e-06
2.42638e-07
1.50043e-06
5.29331e-07
5.29538e-07
2.62372e-07
2.42637e-07
1.49947e-06
2.42638e-07
1.50063e-06
5.29334e-07
1.86293e-06
8.81883e-06
8.81785e-06
1.86216e-06
1.86303e-06
8.8195e-06
8.81847e-06
1.86227e-06
2.05614e-05
2.05657e-05
2.05619e-05
2.05662e-05
2.97791e-07
3.41264e-06
3.41374e-06
3.41346e-06
3.41455e-06
2.05672e-05
2.05618e-05
2.05677e-05
2.05623e-05
2.05614e-05
2.05671e-05
2.05623e-05
2.05682e-05
3.41313e-06
3.4142e-06
2.97505e-07
3.41281e-06
3.41385e-06
2.05667e-05
2.05605e-05
2.0568e-05
2.05615e-05
2.9779e-07
3.41359e-06
3.41464e-06
3.41339e-06
3.41444e-06
1.86212e-06
8.81805e-06
1.86283e-06
8.81957e-06
5.29315e-07
1.50024e-06
2.42638e-07
2.62389e-07
5.29535e-07
1.49901e-06
2.42637e-07
5.29321e-07
1.50048e-06
2.42639e-07
2.62395e-07
5.29541e-07
1.49924e-06
2.42639e-07
1.8628e-06
8.8194e-06
8.81728e-06
1.86221e-06
1.86283e-06
8.82046e-06
8.81838e-06
1.86224e-06
5.29531e-07
2.62389e-07
1.49874e-06
2.42635e-07
1.50007e-06
2.42637e-07
5.29305e-07
5.29538e-07
2.62395e-07
1.49898e-06
2.42636e-07
1.50033e-06
2.42638e-07
5.29312e-07
3.41423e-06
3.41304e-06
2.97494e-07
3.41389e-06
3.41248e-06
2.05598e-05
2.05659e-05
2.05673e-05
2.0561e-05
2.9778e-07
3.41462e-06
3.41308e-06
3.41448e-06
3.41311e-06
2.05659e-05
2.05594e-05
5.29352e-07
1.50056e-06
2.42638e-07
2.62371e-07
5.29567e-07
1.49933e-06
2.42637e-07
1.86203e-06
8.81782e-06
1.86267e-06
8.8193e-06
5.29339e-07
2.42643e-07
1.50067e-06
2.62399e-07
5.29555e-07
2.42642e-07
1.49937e-06
1.86269e-06
8.82095e-06
8.81885e-06
1.8621e-06
5.29564e-07
2.62371e-07
1.49905e-06
2.42635e-07
1.50038e-06
2.42636e-07
5.2934e-07
1.86268e-06
8.82027e-06
8.81815e-06
1.86208e-06
5.29552e-07
2.62399e-07
2.42639e-07
1.4991e-06
2.42641e-07
1.50048e-06
5.29326e-07
1.86213e-06
8.81756e-06
1.86284e-06
8.81905e-06
5.29325e-07
2.42639e-07
1.5003e-06
2.62389e-07
5.29542e-07
2.42638e-07
1.49906e-06
1.86212e-06
8.81794e-06
1.86283e-06
8.81946e-06
5.29534e-07
2.62365e-07
1.49881e-06
2.42635e-07