/*--------------------------------*- C++ -*----------------------------------*\
| =========                 |                                                 |
| \\      /  F ield         | OpenFOAM: The Open Source CFD Toolbox           |
|  \\    /   O peration     | Version:  2206                                  |
|   \\  /    A nd           | Website:  www.openfoam.com                      |
|    \\/     M anipulation  |                                                 |
\*---------------------------------------------------------------------------*/
FoamFile
{
    version     2.0;
    format      ascii;
    arch        "LSB;label=32;scalar=64";
    class       volScalarField;
    location    "40";
    object      k;
}
// * * * * * * * * * * * * * * * * * * * * * * * * * * * * * * * * * * * * * //

dimensions      [0 2 -2 0 0 0 0];

internalField   nonuniform List<scalar> 
28673
(
2.23198e-05
2.16199e-05
2.31186e-05
2.23199e-05
2.23196e-05
2.16225e-05
2.31186e-05
2.23201e-05
2.23198e-05
2.16226e-05
2.31186e-05
2.23202e-05
2.23199e-05
2.16227e-05
2.31187e-05
2.23203e-05
2.232e-05
2.1623e-05
2.31187e-05
2.23204e-05
2.23201e-05
2.16233e-05
2.31186e-05
2.23205e-05
2.23202e-05
2.16235e-05
2.31185e-05
2.23203e-05
2.23202e-05
2.16237e-05
2.31183e-05
2.232e-05
2.23199e-05
2.16233e-05
2.31159e-05
2.2316e-05
2.23173e-05
2.16194e-05
2.31124e-05
2.23136e-05
2.23135e-05
2.16161e-05
2.3113e-05
2.23139e-05
2.23137e-05
2.16162e-05
2.31454e-05
2.23509e-05
2.23508e-05
2.16981e-05
2.23191e-05
2.16208e-05
2.23198e-05
2.1623e-05
2.23193e-05
2.23191e-05
2.23192e-05
2.2319e-05
2.16174e-05
2.16239e-05
2.23197e-05
2.23186e-05
2.23193e-05
2.23199e-05
2.23193e-05
2.16219e-05
2.23198e-05
2.23196e-05
2.23198e-05
2.16264e-05
2.16195e-05
2.16247e-05
2.23192e-05
2.23192e-05
2.23192e-05
2.23192e-05
2.16205e-05
2.16269e-05
2.23198e-05
2.23187e-05
2.23197e-05
2.23187e-05
2.23194e-05
2.232e-05
2.23194e-05
2.16185e-05
2.16257e-05
2.23199e-05
2.23198e-05
2.23199e-05
2.16265e-05
2.16211e-05
2.16261e-05
2.23194e-05
2.23193e-05
2.23194e-05
2.23193e-05
2.16232e-05
2.16268e-05
2.23199e-05
2.23189e-05
2.23199e-05
2.23189e-05
2.23195e-05
2.23202e-05
2.23195e-05
2.16223e-05
2.16261e-05
2.23199e-05
2.23199e-05
2.23199e-05
2.16266e-05
2.16225e-05
2.16272e-05
2.23195e-05
2.23195e-05
2.23196e-05
2.23195e-05
2.16232e-05
2.16271e-05
2.23201e-05
2.2319e-05
2.23201e-05
2.23191e-05
2.23195e-05
2.23203e-05
2.23195e-05
2.16223e-05
2.16265e-05
2.232e-05
2.232e-05
2.232e-05
2.16269e-05
2.16234e-05
2.16274e-05
2.23197e-05
2.23196e-05
2.23197e-05
2.23196e-05
2.16234e-05
2.16274e-05
2.23202e-05
2.23192e-05
2.23202e-05
2.23192e-05
2.23197e-05
2.23204e-05
2.23197e-05
2.16228e-05
2.16268e-05
2.23201e-05
2.23201e-05
2.23202e-05
2.16271e-05
2.16237e-05
2.16276e-05
2.23199e-05
2.23197e-05
2.23199e-05
2.23197e-05
2.16236e-05
2.16276e-05
2.23204e-05
2.23193e-05
2.23204e-05
2.23193e-05
2.23198e-05
2.23205e-05
2.23198e-05
2.16231e-05
2.1627e-05
2.23203e-05
2.23202e-05
2.23203e-05
2.16273e-05
2.16239e-05
2.16279e-05
2.232e-05
2.23199e-05
2.232e-05
2.23199e-05
2.16238e-05
2.16278e-05
2.23205e-05
2.23195e-05
2.23205e-05
2.23195e-05
2.23199e-05
2.23204e-05
2.232e-05
2.16233e-05
2.16272e-05
2.23204e-05
2.23202e-05
2.23205e-05
2.16275e-05
2.16241e-05
2.1628e-05
2.23202e-05
2.232e-05
2.23199e-05
2.23195e-05
2.1624e-05
2.16275e-05
2.23207e-05
2.23197e-05
2.23207e-05
2.23194e-05
2.23201e-05
2.23201e-05
2.23196e-05
2.16235e-05
2.16273e-05
2.23206e-05
2.23199e-05
2.23201e-05
2.16274e-05
2.16241e-05
2.16251e-05
2.23198e-05
2.23193e-05
2.23176e-05
2.23164e-05
2.16235e-05
2.16236e-05
2.23206e-05
2.23193e-05
2.23188e-05
2.23179e-05
2.23195e-05
2.23173e-05
2.23171e-05
2.16235e-05
2.16251e-05
2.232e-05
2.23186e-05
2.23176e-05
2.16242e-05
2.16206e-05
2.16206e-05
2.23164e-05
2.23152e-05
2.23132e-05
2.23128e-05
2.16191e-05
2.16201e-05
2.23176e-05
2.23167e-05
2.2314e-05
2.2313e-05
2.23159e-05
2.23136e-05
2.23131e-05
2.16206e-05
2.16204e-05
2.23164e-05
2.23138e-05
2.23136e-05
2.16202e-05
2.16166e-05
2.16201e-05
2.23132e-05
2.23129e-05
2.23136e-05
2.23133e-05
2.16162e-05
2.16202e-05
2.23138e-05
2.23128e-05
2.23141e-05
2.2313e-05
2.23131e-05
2.23141e-05
2.23135e-05
2.16164e-05
2.16196e-05
2.23136e-05
2.23139e-05
2.2314e-05
2.162e-05
2.16164e-05
2.16524e-05
2.23134e-05
2.23131e-05
2.23433e-05
2.23431e-05
2.16164e-05
2.16523e-05
2.23139e-05
2.23128e-05
2.23437e-05
2.23429e-05
2.23133e-05
2.23437e-05
2.23433e-05
2.16159e-05
2.16519e-05
2.23138e-05
2.23436e-05
2.23437e-05
2.16522e-05
2.16983e-05
2.23506e-05
2.23505e-05
2.16982e-05
2.2351e-05
2.23503e-05
2.31454e-05
2.31454e-05
2.31455e-05
2.23506e-05
2.16979e-05
2.23509e-05
2.82793e-05
6.95535e-05
2.8281e-05
6.95511e-05
7.47948e-05
7.47944e-05
2.82803e-05
6.9554e-05
2.31188e-05
2.31186e-05
2.31186e-05
2.31187e-05
2.31185e-05
2.31185e-05
2.1033e-05
2.77171e-05
2.27264e-05
2.23199e-05
2.10333e-05
2.77119e-05
2.27264e-05
7.47917e-05
2.10321e-05
2.27262e-05
2.23197e-05
2.10325e-05
2.27262e-05
2.77118e-05
3.84197e-05
3.84245e-05
2.16263e-05
3.84163e-05
3.8421e-05
2.82819e-05
6.95517e-05
2.82842e-05
6.95496e-05
7.47916e-05
7.47919e-05
2.82835e-05
6.9555e-05
2.82854e-05
6.95528e-05
2.31187e-05
2.31185e-05
2.31185e-05
2.31186e-05
2.31186e-05
2.31184e-05
2.31184e-05
2.10339e-05
2.77197e-05
2.27263e-05
2.232e-05
2.1034e-05
2.77142e-05
2.27264e-05
7.47887e-05
7.47887e-05
2.10329e-05
2.27261e-05
2.77196e-05
2.23198e-05
2.10331e-05
2.27262e-05
2.77146e-05
3.8421e-05
3.84256e-05
2.16265e-05
3.84195e-05
3.84242e-05
2.8284e-05
6.95508e-05
2.82864e-05
6.95491e-05
7.47904e-05
7.47911e-05
2.82856e-05
6.95541e-05
2.82878e-05
6.95523e-05
2.31187e-05
2.31184e-05
2.31185e-05
2.31186e-05
2.31186e-05
2.31183e-05
2.31184e-05
2.10347e-05
2.77215e-05
2.27264e-05
2.23202e-05
2.10348e-05
2.77159e-05
2.27265e-05
7.47868e-05
7.47874e-05
2.10337e-05
2.27261e-05
2.77218e-05
2.23199e-05
2.10339e-05
2.27262e-05
2.77165e-05
3.84244e-05
3.8429e-05
2.16265e-05
3.84228e-05
3.84275e-05
2.82856e-05
6.9551e-05
2.82882e-05
6.95498e-05
7.47901e-05
7.47914e-05
2.82874e-05
6.9554e-05
2.82897e-05
6.95527e-05
2.31188e-05
2.31184e-05
2.31184e-05
2.31187e-05
2.31187e-05
2.31184e-05
2.31184e-05
2.10354e-05
2.77228e-05
2.27264e-05
2.23203e-05
2.10356e-05
2.77169e-05
2.27265e-05
7.47862e-05
7.47873e-05
2.10344e-05
2.27261e-05
2.77234e-05
2.232e-05
2.10346e-05
2.27262e-05
2.77179e-05
3.84271e-05
3.84317e-05
2.16267e-05
3.8425e-05
3.84297e-05
2.82867e-05
6.95516e-05
2.82895e-05
6.95516e-05
7.47906e-05
7.47944e-05
2.82885e-05
6.95546e-05
2.82911e-05
6.95545e-05
2.31187e-05
2.31185e-05
2.31185e-05
2.31188e-05
2.31186e-05
2.31185e-05
2.31185e-05
2.10359e-05
2.77233e-05
2.27264e-05
2.23204e-05
2.10362e-05
2.77167e-05
2.27265e-05
7.47864e-05
7.479e-05
2.10349e-05
2.27261e-05
2.77242e-05
2.23201e-05
2.10352e-05
2.27263e-05
2.77179e-05
3.84284e-05
3.84331e-05
2.1627e-05
3.84258e-05
3.84306e-05
2.82866e-05
6.95525e-05
2.82903e-05
6.95533e-05
7.47917e-05
7.47984e-05
2.82885e-05
6.95555e-05
2.82919e-05
6.95563e-05
2.31187e-05
2.31186e-05
2.31186e-05
2.31186e-05
2.31187e-05
2.31184e-05
2.31186e-05
2.10361e-05
2.77243e-05
2.27264e-05
2.23205e-05
2.10367e-05
2.77166e-05
2.27266e-05
7.47872e-05
7.47938e-05
2.10351e-05
2.27263e-05
2.77251e-05
2.23203e-05
2.10357e-05
2.27264e-05
2.77177e-05
3.84302e-05
3.8435e-05
2.16272e-05
3.84264e-05
3.84313e-05
2.82879e-05
6.95519e-05
2.82922e-05
6.95552e-05
7.47919e-05
7.48029e-05
2.82898e-05
6.95552e-05
2.82938e-05
6.95586e-05
2.31186e-05
2.31184e-05
2.31187e-05
2.31185e-05
2.31184e-05
2.31182e-05
2.31185e-05
2.10364e-05
2.77253e-05
2.27265e-05
2.23205e-05
2.10372e-05
2.7716e-05
2.27265e-05
7.47874e-05
7.47981e-05
2.10353e-05
2.27262e-05
2.77262e-05
2.23203e-05
2.10361e-05
2.27263e-05
2.77172e-05
3.84325e-05
3.84373e-05
2.16274e-05
3.84274e-05
3.84324e-05
2.8287e-05
6.95533e-05
2.82916e-05
6.95613e-05
7.47937e-05
7.48076e-05
2.82893e-05
6.95568e-05
2.82933e-05
6.95647e-05
2.31184e-05
2.31182e-05
2.31185e-05
2.31184e-05
2.31182e-05
2.3118e-05
2.31182e-05
2.10359e-05
2.77248e-05
2.27263e-05
2.23203e-05
2.10374e-05
2.7713e-05
2.27263e-05
7.479e-05
7.48056e-05
2.10349e-05
2.27261e-05
2.77257e-05
2.23202e-05
2.10363e-05
2.27261e-05
2.77141e-05
3.84332e-05
3.84381e-05
2.16276e-05
3.84293e-05
3.84342e-05
2.82866e-05
6.95572e-05
2.82905e-05
6.95725e-05
7.47857e-05
7.48033e-05
2.8289e-05
6.95607e-05
2.82924e-05
6.95761e-05
2.31181e-05
2.3118e-05
2.31181e-05
2.31172e-05
2.31162e-05
2.31171e-05
2.31164e-05
2.10332e-05
2.77236e-05
2.27261e-05
2.23197e-05
2.10365e-05
2.77068e-05
2.27259e-05
7.47857e-05
7.48037e-05
2.10325e-05
2.27259e-05
2.77244e-05
2.23197e-05
2.10356e-05
2.27257e-05
2.77081e-05
3.84375e-05
3.84421e-05
2.16264e-05
3.84342e-05
3.84387e-05
2.8286e-05
6.95592e-05
2.82888e-05
6.95808e-05
7.47654e-05
7.47899e-05
2.82888e-05
6.95639e-05
2.82914e-05
6.95857e-05
2.31149e-05
2.3116e-05
2.31151e-05
2.31127e-05
2.31124e-05
2.31126e-05
2.31124e-05
2.10278e-05
2.77212e-05
2.27226e-05
2.23148e-05
2.10331e-05
2.76991e-05
2.27213e-05
7.47664e-05
7.47908e-05
2.1027e-05
2.27231e-05
2.77237e-05
2.23159e-05
2.10324e-05
2.27217e-05
2.77021e-05
3.84386e-05
3.84428e-05
2.16217e-05
3.84329e-05
3.84371e-05
2.82886e-05
6.95425e-05
2.82872e-05
6.95774e-05
7.47282e-05
7.47592e-05
2.82907e-05
6.9547e-05
2.82892e-05
6.95818e-05
2.31124e-05
2.31124e-05
2.31124e-05
2.31124e-05
2.31124e-05
2.31122e-05
2.31123e-05
2.10244e-05
2.77329e-05
2.272e-05
2.23137e-05
2.10311e-05
2.77007e-05
2.27199e-05
7.47298e-05
7.47601e-05
2.10235e-05
2.27198e-05
2.77356e-05
2.23136e-05
2.10303e-05
2.27197e-05
2.77031e-05
3.843e-05
3.84338e-05
2.16197e-05
3.84254e-05
3.84293e-05
2.82864e-05
6.94983e-05
2.8283e-05
6.9555e-05
7.46475e-05
7.46787e-05
2.82885e-05
6.95024e-05
2.82848e-05
6.95589e-05
2.31131e-05
2.3113e-05
2.31131e-05
2.31231e-05
2.31231e-05
2.3123e-05
2.31231e-05
2.102e-05
2.77618e-05
2.27214e-05
2.23177e-05
2.10324e-05
2.76739e-05
2.27205e-05
7.4648e-05
7.46789e-05
2.10193e-05
2.27212e-05
2.77634e-05
2.23175e-05
2.10315e-05
2.27203e-05
2.76749e-05
3.84052e-05
3.84089e-05
2.16243e-05
3.83746e-05
3.83781e-05
2.48647e-05
6.70655e-05
2.8052e-05
6.2797e-05
7.13239e-05
5.06481e-05
2.48663e-05
6.70689e-05
2.80546e-05
6.28046e-05
2.35648e-05
2.33937e-05
2.33938e-05
2.30533e-05
2.35571e-05
2.33607e-05
2.33607e-05
2.10273e-05
2.72102e-05
2.2775e-05
2.23986e-05
2.1048e-05
3.06065e-05
2.28623e-05
7.13241e-05
5.06458e-05
2.10267e-05
2.27749e-05
2.72103e-05
2.23985e-05
2.10473e-05
2.28622e-05
3.06032e-05
3.84424e-05
3.84455e-05
2.18059e-05
3.56952e-05
3.56958e-05
6.95557e-05
2.77137e-05
7.47964e-05
3.84203e-05
3.84107e-05
7.47922e-05
2.77105e-05
6.95523e-05
7.47963e-05
7.47954e-05
7.47953e-05
3.84197e-05
2.16217e-05
3.84162e-05
3.84192e-05
7.47938e-05
7.47943e-05
7.47933e-05
7.4794e-05
2.16183e-05
3.84176e-05
3.84208e-05
3.84187e-05
3.84219e-05
2.82799e-05
6.95573e-05
2.82816e-05
6.95549e-05
2.1033e-05
2.77176e-05
2.27263e-05
2.23193e-05
2.10333e-05
2.77129e-05
2.27263e-05
2.10332e-05
2.772e-05
2.27263e-05
2.2319e-05
2.10335e-05
2.77151e-05
2.27263e-05
2.82828e-05
6.95502e-05
6.95526e-05
2.82807e-05
2.82834e-05
6.95542e-05
6.95564e-05
2.82813e-05
2.10338e-05
2.23192e-05
2.77141e-05
2.27262e-05
2.7719e-05
2.27263e-05
2.10335e-05
2.1034e-05
2.2319e-05
2.77163e-05
2.27263e-05
2.77214e-05
2.27263e-05
2.10336e-05
3.84232e-05
3.84141e-05
2.16223e-05
3.84222e-05
3.8413e-05
7.47909e-05
7.47903e-05
7.47929e-05
7.47932e-05
2.16189e-05
3.8424e-05
3.84147e-05
3.8425e-05
3.8416e-05
7.4789e-05
7.47893e-05
2.10338e-05
2.23198e-05
2.77134e-05
2.27263e-05
2.82799e-05
6.95497e-05
2.10335e-05
2.23187e-05
2.2726e-05
2.77119e-05
2.82837e-05
6.95534e-05
6.95556e-05
2.82821e-05
2.10345e-05
2.23197e-05
2.77147e-05
2.27262e-05
2.77196e-05
2.27262e-05
2.10342e-05
2.82832e-05
6.95488e-05
6.95513e-05
2.82816e-05
2.10343e-05
2.23186e-05
2.2726e-05
2.77134e-05
2.2726e-05
2.77185e-05
2.10339e-05
2.82797e-05
6.9554e-05
2.82814e-05
6.95515e-05
2.1033e-05
2.27263e-05
2.77174e-05
2.23193e-05
2.10333e-05
2.27263e-05
2.77126e-05
2.82797e-05
6.95549e-05
2.82814e-05
6.95525e-05
2.10338e-05
2.23199e-05
2.77132e-05
2.27263e-05
2.77184e-05
2.27264e-05
2.10335e-05
2.82832e-05
6.95508e-05
6.95532e-05
2.82812e-05
2.10338e-05
2.23193e-05
2.27262e-05
2.77139e-05
2.27262e-05
2.77188e-05
2.10335e-05
2.82831e-05
6.95517e-05
6.9554e-05
2.82811e-05
2.16204e-05
3.8414e-05
3.84152e-05
7.47963e-05
7.47899e-05
7.47904e-05
2.1617e-05
3.84163e-05
3.84168e-05
3.84173e-05
3.8418e-05
7.47942e-05
7.47949e-05
2.1032e-05
2.27262e-05
2.77185e-05
2.23198e-05
2.10324e-05
2.27262e-05
2.77137e-05
2.82782e-05
2.82803e-05
6.95525e-05
2.82779e-05
6.95576e-05
2.82801e-05
6.95552e-05
2.1033e-05
2.23197e-05
2.27261e-05
2.77133e-05
2.27262e-05
2.77181e-05
2.10326e-05
2.10328e-05
2.23198e-05
2.27261e-05
2.77149e-05
2.27261e-05
2.77199e-05
2.10324e-05
2.8282e-05
6.95518e-05
6.95541e-05
2.82796e-05
2.82817e-05
6.95544e-05
6.95567e-05
2.82793e-05
7.47958e-05
7.4795e-05
7.47952e-05
7.47944e-05
2.16226e-05
3.84178e-05
3.84225e-05
3.8419e-05
3.84236e-05
7.47934e-05
7.47938e-05
7.47927e-05
7.47932e-05
7.47927e-05
7.47925e-05
7.47922e-05
7.47919e-05
3.84202e-05
3.84234e-05
2.1624e-05
3.84192e-05
3.84224e-05
7.47918e-05
7.47916e-05
7.47909e-05
7.47909e-05
2.16204e-05
3.84209e-05
3.84241e-05
3.84219e-05
3.8425e-05
2.82825e-05
6.95557e-05
2.82847e-05
6.95536e-05
2.10339e-05
2.77202e-05
2.27263e-05
2.23192e-05
2.10343e-05
2.77152e-05
2.27263e-05
2.10341e-05
2.77225e-05
2.27264e-05
2.23192e-05
2.10345e-05
2.77174e-05
2.27264e-05
2.82853e-05
6.95492e-05
6.95511e-05
2.8283e-05
2.82859e-05
6.95532e-05
6.95552e-05
2.82836e-05
2.10347e-05
2.23192e-05
2.77161e-05
2.27263e-05
2.77213e-05
2.27263e-05
2.10343e-05
2.10349e-05
2.23192e-05
2.77183e-05
2.27263e-05
2.77235e-05
2.27263e-05
2.10345e-05
3.84268e-05
3.84176e-05
2.16258e-05
3.84258e-05
3.84161e-05
7.47881e-05
7.47882e-05
7.47914e-05
7.4791e-05
2.16224e-05
3.84274e-05
3.84174e-05
3.84285e-05
3.8419e-05
7.47877e-05
7.47874e-05
2.10347e-05
2.77208e-05
2.27263e-05
2.23197e-05
2.1035e-05
2.77158e-05
2.27263e-05
2.8283e-05
6.95504e-05
2.82848e-05
6.9548e-05
2.10344e-05
2.27261e-05
2.77199e-05
2.23187e-05
2.10347e-05
2.27261e-05
2.77146e-05
2.82866e-05
6.95525e-05
6.95545e-05
2.82846e-05
2.10355e-05
2.23197e-05
2.77168e-05
2.27263e-05
2.77219e-05
2.27263e-05
2.10351e-05
2.82861e-05
6.95474e-05
6.95496e-05
2.82841e-05
2.10352e-05
2.23187e-05
2.2726e-05
2.77157e-05
2.2726e-05
2.77211e-05
2.10348e-05
2.82823e-05
6.95525e-05
2.82846e-05
6.95502e-05
2.10339e-05
2.27263e-05
2.77201e-05
2.23194e-05
2.10343e-05
2.27263e-05
2.7715e-05
2.82823e-05
6.95532e-05
2.82845e-05
6.9551e-05
2.10347e-05
2.232e-05
2.77151e-05
2.27264e-05
2.77206e-05
2.27264e-05
2.10343e-05
2.82857e-05
6.95499e-05
6.9552e-05
2.82834e-05
2.10347e-05
2.23194e-05
2.27263e-05
2.77159e-05
2.27263e-05
2.77211e-05
2.10343e-05
2.82857e-05
6.95506e-05
6.95526e-05
2.82833e-05
3.84193e-05
3.84195e-05
2.16238e-05
3.8418e-05
3.84185e-05
7.47931e-05
7.47927e-05
7.47879e-05
7.47878e-05
2.16204e-05
3.84195e-05
3.84203e-05
3.8421e-05
3.84212e-05
7.47917e-05
7.47917e-05
2.10328e-05
2.27262e-05
2.77211e-05
2.23199e-05
2.10332e-05
2.27262e-05
2.7716e-05
2.82807e-05
6.95534e-05
2.82833e-05
6.95513e-05
2.82804e-05
6.95558e-05
2.8283e-05
6.95537e-05
2.10338e-05
2.23198e-05
2.27261e-05
2.77156e-05
2.27262e-05
2.77207e-05
2.10333e-05
2.10336e-05
2.23199e-05
2.27261e-05
2.77169e-05
2.27261e-05
2.77221e-05
2.10331e-05
2.82844e-05
6.95509e-05
6.95529e-05
2.82818e-05
2.82841e-05
6.95533e-05
6.95552e-05
2.82815e-05
7.47923e-05
7.47922e-05
7.47917e-05
7.47915e-05
2.16227e-05
3.84212e-05
3.84259e-05
3.84223e-05
3.84269e-05
7.47914e-05
7.47912e-05
7.47908e-05
7.47906e-05
7.4791e-05
7.47914e-05
7.479e-05
7.47904e-05
3.84236e-05
3.84268e-05
2.16253e-05
3.84225e-05
3.84258e-05
7.47914e-05
7.47907e-05
7.47902e-05
7.47896e-05
2.16217e-05
3.84239e-05
3.84273e-05
3.84251e-05
3.84284e-05
2.82845e-05
6.95549e-05
2.82869e-05
6.95531e-05
2.10347e-05
2.77222e-05
2.27264e-05
2.23194e-05
2.10351e-05
2.7717e-05
2.27264e-05
2.10349e-05
2.77244e-05
2.27263e-05
2.23193e-05
2.10353e-05
2.77191e-05
2.27263e-05
2.82873e-05
6.95494e-05
6.95508e-05
2.82848e-05
2.82878e-05
6.95532e-05
6.95548e-05
2.82854e-05
2.10355e-05
2.23194e-05
2.77177e-05
2.27264e-05
2.7723e-05
2.27264e-05
2.10351e-05
2.10357e-05
2.23193e-05
2.77197e-05
2.27263e-05
2.77252e-05
2.27263e-05
2.10353e-05
3.84301e-05
3.84203e-05
2.16267e-05
3.84288e-05
3.84186e-05
7.47869e-05
7.47874e-05
7.47911e-05
7.47904e-05
2.16228e-05
3.84298e-05
3.84195e-05
3.84314e-05
3.84214e-05
7.47873e-05
7.47867e-05
2.10355e-05
2.77229e-05
2.27263e-05
2.23199e-05
2.10358e-05
2.77178e-05
2.27263e-05
2.82852e-05
6.95492e-05
2.82872e-05
6.95472e-05
2.10352e-05
2.27261e-05
2.77221e-05
2.23189e-05
2.10356e-05
2.27261e-05
2.77166e-05
2.82887e-05
6.95523e-05
6.9554e-05
2.82866e-05
2.10362e-05
2.23199e-05
2.77185e-05
2.27263e-05
2.77238e-05
2.27263e-05
2.10358e-05
2.82883e-05
6.95473e-05
6.9549e-05
2.82861e-05
2.10359e-05
2.23189e-05
2.27261e-05
2.77174e-05
2.27261e-05
2.7723e-05
2.10355e-05
2.82844e-05
6.95517e-05
2.82867e-05
6.95498e-05
2.10347e-05
2.27263e-05
2.7722e-05
2.23195e-05
2.10351e-05
2.27263e-05
2.77167e-05
2.82843e-05
6.95522e-05
2.82867e-05
6.95504e-05
2.10355e-05
2.23202e-05
2.77165e-05
2.27264e-05
2.77222e-05
2.27265e-05
2.10351e-05
2.82877e-05
6.95499e-05
6.95516e-05
2.82852e-05
2.10355e-05
2.23195e-05
2.27263e-05
2.77174e-05
2.27263e-05
2.77228e-05
2.10351e-05
2.82876e-05
6.95505e-05
6.95521e-05
2.82852e-05
3.84224e-05
3.8423e-05
2.16265e-05
3.84208e-05
3.8422e-05
7.47909e-05
7.47912e-05
7.47872e-05
7.47866e-05
2.16226e-05
3.8422e-05
3.84234e-05
3.84237e-05
3.84246e-05
7.4791e-05
7.47904e-05
2.10335e-05
2.27262e-05
2.77231e-05
2.23199e-05
2.10339e-05
2.27262e-05
2.77178e-05
2.82827e-05
6.95525e-05
2.82854e-05
6.95507e-05
2.82824e-05
6.9555e-05
2.82851e-05
6.95533e-05
2.10345e-05
2.23199e-05
2.27261e-05
2.77173e-05
2.27262e-05
2.77226e-05
2.10341e-05
2.10343e-05
2.23199e-05
2.27261e-05
2.77185e-05
2.27261e-05
2.77239e-05
2.10339e-05
2.82863e-05
6.95507e-05
6.95523e-05
2.82836e-05
2.8286e-05
6.95535e-05
6.9555e-05
2.82832e-05
7.47906e-05
7.47911e-05
7.47899e-05
7.47904e-05
2.16228e-05
3.84241e-05
3.84288e-05
3.84255e-05
3.84301e-05
7.4791e-05
7.47903e-05
7.47903e-05
7.47897e-05
7.47906e-05
7.47916e-05
7.47894e-05
7.47904e-05
3.84264e-05
3.84298e-05
2.16269e-05
3.84248e-05
3.84284e-05
7.47925e-05
7.47907e-05
7.47912e-05
7.47894e-05
2.16233e-05
3.84254e-05
3.84291e-05
3.84272e-05
3.84308e-05
2.82861e-05
6.95549e-05
2.82887e-05
6.95536e-05
2.10354e-05
2.77237e-05
2.27265e-05
2.23195e-05
2.10359e-05
2.77182e-05
2.27265e-05
2.10356e-05
2.77257e-05
2.27264e-05
2.23195e-05
2.10361e-05
2.77201e-05
2.27264e-05
2.82889e-05
6.95506e-05
6.95512e-05
2.82863e-05
2.82894e-05
6.95544e-05
6.9555e-05
2.82868e-05
2.10362e-05
2.23195e-05
2.77183e-05
2.27265e-05
2.77241e-05
2.27265e-05
2.10357e-05
2.10364e-05
2.23195e-05
2.77202e-05
2.27264e-05
2.77261e-05
2.27264e-05
2.10359e-05
3.84323e-05
3.84222e-05
2.1627e-05
3.84305e-05
3.84201e-05
7.47866e-05
7.47876e-05
7.47924e-05
7.47905e-05
2.16232e-05
3.84309e-05
3.84207e-05
3.84329e-05
3.84229e-05
7.47885e-05
7.47867e-05
2.10361e-05
2.77245e-05
2.27264e-05
2.23201e-05
2.10366e-05
2.77191e-05
2.27264e-05
2.8287e-05
6.95491e-05
2.82892e-05
6.95478e-05
2.10359e-05
2.27262e-05
2.77237e-05
2.2319e-05
2.10363e-05
2.27262e-05
2.77179e-05
2.82904e-05
6.95535e-05
6.95542e-05
2.82881e-05
2.10369e-05
2.23201e-05
2.77194e-05
2.27264e-05
2.77251e-05
2.27264e-05
2.10364e-05
2.829e-05
6.95485e-05
6.95493e-05
2.82877e-05
2.10366e-05
2.2319e-05
2.27261e-05
2.77181e-05
2.27261e-05
2.77242e-05
2.10361e-05
2.8286e-05
6.95517e-05
2.82885e-05
6.95502e-05
2.10355e-05
2.27264e-05
2.77235e-05
2.23195e-05
2.10359e-05
2.27264e-05
2.77179e-05
2.82859e-05
6.95521e-05
2.82885e-05
6.95508e-05
2.10362e-05
2.23203e-05
2.7717e-05
2.27264e-05
2.77231e-05
2.27265e-05
2.10357e-05
2.82893e-05
6.9551e-05
6.95518e-05
2.82866e-05
2.10362e-05
2.23195e-05
2.27263e-05
2.7718e-05
2.27263e-05
2.77239e-05
2.10357e-05
2.82892e-05
6.95515e-05
6.95522e-05
2.82866e-05
3.84248e-05
3.8426e-05
2.16265e-05
3.84228e-05
3.84245e-05
7.47902e-05
7.47912e-05
7.47882e-05
7.47864e-05
2.16227e-05
3.84235e-05
3.84253e-05
3.84256e-05
3.8427e-05
7.4792e-05
7.47903e-05
2.10342e-05
2.27262e-05
2.77245e-05
2.232e-05
2.10347e-05
2.27262e-05
2.7719e-05
2.82843e-05
6.95524e-05
2.82871e-05
6.95511e-05
2.8284e-05
6.95551e-05
2.82868e-05
6.95539e-05
2.10352e-05
2.232e-05
2.27261e-05
2.77181e-05
2.27262e-05
2.77239e-05
2.10347e-05
2.1035e-05
2.232e-05
2.27261e-05
2.77191e-05
2.27261e-05
2.7725e-05
2.10345e-05
2.82879e-05
6.95519e-05
6.95525e-05
2.8285e-05
2.82876e-05
6.95547e-05
6.95553e-05
2.82846e-05
7.47902e-05
7.47912e-05
7.47896e-05
7.47906e-05
2.1623e-05
3.84255e-05
3.84303e-05
3.84274e-05
3.84321e-05
7.47921e-05
7.47903e-05
7.47915e-05
7.47897e-05
7.4791e-05
7.47944e-05
7.47896e-05
7.4793e-05
3.84278e-05
3.84316e-05
2.16272e-05
3.84258e-05
3.84295e-05
7.47966e-05
7.47915e-05
7.47952e-05
7.47901e-05
2.16235e-05
3.84262e-05
3.84298e-05
3.84286e-05
3.84324e-05
2.82872e-05
6.95554e-05
2.82899e-05
6.95554e-05
2.1036e-05
2.77244e-05
2.27266e-05
2.23197e-05
2.10365e-05
2.77181e-05
2.27266e-05
2.10361e-05
2.77263e-05
2.27265e-05
2.23196e-05
2.10367e-05
2.77199e-05
2.27265e-05
2.82897e-05
6.95527e-05
6.95523e-05
2.82867e-05
2.82902e-05
6.95566e-05
6.9556e-05
2.82871e-05
2.10368e-05
2.23197e-05
2.77179e-05
2.27266e-05
2.77247e-05
2.27266e-05
2.10361e-05
2.10369e-05
2.23196e-05
2.77197e-05
2.27265e-05
2.77265e-05
2.27265e-05
2.10363e-05
3.84334e-05
3.84235e-05
2.16273e-05
3.84314e-05
3.84213e-05
7.4787e-05
7.47905e-05
7.47966e-05
7.47915e-05
2.16235e-05
3.84317e-05
3.84218e-05
3.84343e-05
3.84245e-05
7.47928e-05
7.47877e-05
2.10366e-05
2.77254e-05
2.27265e-05
2.23202e-05
2.10371e-05
2.77192e-05
2.27265e-05
2.82881e-05
6.95496e-05
2.82906e-05
6.95494e-05
2.10363e-05
2.27262e-05
2.77245e-05
2.23192e-05
2.10369e-05
2.27262e-05
2.7718e-05
2.82913e-05
6.95556e-05
6.95552e-05
2.82885e-05
2.10374e-05
2.23202e-05
2.7719e-05
2.27264e-05
2.77257e-05
2.27264e-05
2.10368e-05
2.82909e-05
6.95505e-05
6.95503e-05
2.82881e-05
2.10371e-05
2.23192e-05
2.27262e-05
2.77179e-05
2.27262e-05
2.77249e-05
2.10365e-05
2.8287e-05
6.95521e-05
2.82898e-05
6.95519e-05
2.10359e-05
2.27264e-05
2.77241e-05
2.23197e-05
2.10365e-05
2.27264e-05
2.77178e-05
2.82869e-05
6.95525e-05
2.82897e-05
6.95525e-05
2.10367e-05
2.23204e-05
2.77166e-05
2.27264e-05
2.77236e-05
2.27265e-05
2.1036e-05
2.829e-05
6.95532e-05
6.95528e-05
2.82869e-05
2.10367e-05
2.23197e-05
2.27264e-05
2.77176e-05
2.27264e-05
2.77244e-05
2.10361e-05
2.829e-05
6.95537e-05
6.95532e-05
2.82869e-05
3.84263e-05
3.84278e-05
2.16266e-05
3.84241e-05
3.84258e-05
7.47905e-05
7.47939e-05
7.47921e-05
7.47871e-05
2.16229e-05
3.84246e-05
3.84261e-05
3.84273e-05
3.84286e-05
7.4796e-05
7.47909e-05
2.10347e-05
2.27262e-05
2.77252e-05
2.23201e-05
2.10353e-05
2.27262e-05
2.77189e-05
2.82853e-05
6.95529e-05
2.82884e-05
6.95529e-05
2.8285e-05
6.95556e-05
2.82881e-05
6.95556e-05
2.10357e-05
2.23201e-05
2.27263e-05
2.77177e-05
2.27263e-05
2.77245e-05
2.1035e-05
2.10355e-05
2.23201e-05
2.27262e-05
2.77186e-05
2.27262e-05
2.77255e-05
2.10348e-05
2.82886e-05
6.9554e-05
6.95535e-05
2.82853e-05
2.82883e-05
6.95566e-05
6.95562e-05
2.82849e-05
7.47905e-05
7.47939e-05
7.47899e-05
7.47933e-05
2.16232e-05
3.84261e-05
3.8431e-05
3.84287e-05
3.84335e-05
7.47962e-05
7.4791e-05
7.47955e-05
7.47904e-05
7.4792e-05
7.47983e-05
7.47904e-05
7.47968e-05
3.84298e-05
3.84334e-05
2.16275e-05
3.84265e-05
3.84301e-05
7.48002e-05
7.4792e-05
7.47987e-05
7.47904e-05
2.16237e-05
3.84269e-05
3.84305e-05
3.8431e-05
3.84346e-05
2.82871e-05
6.95564e-05
2.82906e-05
6.95572e-05
2.10363e-05
2.77253e-05
2.27267e-05
2.23199e-05
2.10371e-05
2.7718e-05
2.27267e-05
2.10364e-05
2.77271e-05
2.27266e-05
2.23197e-05
2.10372e-05
2.77197e-05
2.27266e-05
2.82913e-05
6.95538e-05
6.95522e-05
2.82872e-05
2.82917e-05
6.9558e-05
6.95562e-05
2.82877e-05
2.10375e-05
2.23199e-05
2.7718e-05
2.27267e-05
2.7726e-05
2.27267e-05
2.10365e-05
2.10376e-05
2.23197e-05
2.77197e-05
2.27266e-05
2.77278e-05
2.27266e-05
2.10366e-05
3.84354e-05
3.84257e-05
2.16275e-05
3.8432e-05
3.8422e-05
7.47882e-05
7.47947e-05
7.48002e-05
7.47921e-05
2.16237e-05
3.84323e-05
3.84224e-05
3.84366e-05
3.84269e-05
7.47965e-05
7.47884e-05
2.10369e-05
2.77263e-05
2.27265e-05
2.23204e-05
2.10377e-05
2.7719e-05
2.27265e-05
2.82881e-05
6.95504e-05
2.82914e-05
6.95511e-05
2.10367e-05
2.27263e-05
2.77256e-05
2.23193e-05
2.10374e-05
2.27263e-05
2.77179e-05
2.82928e-05
6.9557e-05
6.95553e-05
2.82891e-05
2.1038e-05
2.23204e-05
2.77191e-05
2.27265e-05
2.77271e-05
2.27265e-05
2.10371e-05
2.82925e-05
6.95517e-05
6.95501e-05
2.82887e-05
2.10378e-05
2.23193e-05
2.27263e-05
2.77179e-05
2.27263e-05
2.77263e-05
2.10369e-05
2.82868e-05
6.95532e-05
2.82905e-05
6.95539e-05
2.10362e-05
2.27265e-05
2.77249e-05
2.23198e-05
2.1037e-05
2.27265e-05
2.77176e-05
2.82868e-05
6.95535e-05
2.82904e-05
6.95543e-05
2.10373e-05
2.23205e-05
2.77166e-05
2.27265e-05
2.77249e-05
2.27266e-05
2.10363e-05
2.82915e-05
6.95546e-05
6.9553e-05
2.82874e-05
2.10373e-05
2.23198e-05
2.27265e-05
2.77176e-05
2.27265e-05
2.77257e-05
2.10363e-05
2.82914e-05
6.95549e-05
6.95532e-05
2.82874e-05
3.84287e-05
3.84297e-05
2.16269e-05
3.8425e-05
3.84263e-05
7.47913e-05
7.47977e-05
7.47956e-05
7.47874e-05
2.16231e-05
3.84254e-05
3.84267e-05
3.843e-05
3.84309e-05
7.47995e-05
7.47914e-05
2.10349e-05
2.27264e-05
2.7726e-05
2.23203e-05
2.10358e-05
2.27264e-05
2.77186e-05
2.82852e-05
6.95538e-05
2.8289e-05
6.95546e-05
2.82848e-05
6.95564e-05
2.82887e-05
6.95571e-05
2.10362e-05
2.23203e-05
2.27263e-05
2.77177e-05
2.27264e-05
2.77258e-05
2.10352e-05
2.10361e-05
2.23203e-05
2.27263e-05
2.77186e-05
2.27263e-05
2.77268e-05
2.10351e-05
2.829e-05
6.95552e-05
6.95535e-05
2.82858e-05
2.82897e-05
6.95578e-05
6.95561e-05
2.82854e-05
7.47915e-05
7.47979e-05
7.47908e-05
7.47973e-05
2.16235e-05
3.84267e-05
3.84317e-05
3.8431e-05
3.84358e-05
7.47997e-05
7.47915e-05
7.47991e-05
7.47909e-05
7.47922e-05
7.48027e-05
7.47907e-05
7.48011e-05
3.84321e-05
3.84357e-05
2.16278e-05
3.84276e-05
3.84314e-05
7.48064e-05
7.47933e-05
7.48048e-05
7.47916e-05
2.1624e-05
3.84278e-05
3.8432e-05
3.84324e-05
3.84363e-05
2.82883e-05
6.95562e-05
2.82926e-05
6.95595e-05
2.10366e-05
2.77264e-05
2.27267e-05
2.232e-05
2.10377e-05
2.77175e-05
2.27267e-05
2.10368e-05
2.77281e-05
2.27267e-05
2.23199e-05
2.10378e-05
2.77191e-05
2.27267e-05
2.82918e-05
6.95577e-05
6.95524e-05
2.82876e-05
2.82922e-05
6.95623e-05
6.95568e-05
2.82881e-05
2.10378e-05
2.232e-05
2.77162e-05
2.27265e-05
2.77262e-05
2.27266e-05
2.10365e-05
2.10379e-05
2.23199e-05
2.77179e-05
2.27264e-05
2.77279e-05
2.27266e-05
2.10366e-05
3.84375e-05
3.84279e-05
2.16277e-05
3.84328e-05
3.84229e-05
7.47886e-05
7.47992e-05
7.48062e-05
7.47934e-05
2.1624e-05
3.84331e-05
3.84231e-05
3.84377e-05
3.8428e-05
7.48026e-05
7.47898e-05
2.10372e-05
2.77275e-05
2.27266e-05
2.23205e-05
2.10382e-05
2.77187e-05
2.27266e-05
2.82894e-05
6.955e-05
2.82933e-05
6.95532e-05
2.1037e-05
2.27264e-05
2.77267e-05
2.23195e-05
2.1038e-05
2.27264e-05
2.77175e-05
2.82933e-05
6.9561e-05
6.95558e-05
2.82895e-05
2.10384e-05
2.23205e-05
2.77175e-05
2.27266e-05
2.77274e-05
2.27266e-05
2.10372e-05
2.8293e-05
6.95556e-05
6.95505e-05
2.82891e-05
2.10381e-05
2.23195e-05
2.27264e-05
2.77163e-05
2.27264e-05
2.77265e-05
2.1037e-05
2.8288e-05
6.9553e-05
2.82923e-05
6.95562e-05
2.10365e-05
2.27266e-05
2.7726e-05
2.23199e-05
2.10375e-05
2.27266e-05
2.77171e-05
2.8288e-05
6.95532e-05
2.82923e-05
6.95564e-05
2.10375e-05
2.23204e-05
2.77147e-05
2.27264e-05
2.77249e-05
2.27265e-05
2.10363e-05
2.82919e-05
6.9559e-05
6.95536e-05
2.82878e-05
2.10376e-05
2.232e-05
2.27265e-05
2.77158e-05
2.27266e-05
2.77258e-05
2.10364e-05
2.82919e-05
6.9559e-05
6.95536e-05
2.82878e-05
3.8431e-05
3.8432e-05
2.16272e-05
3.84261e-05
3.84276e-05
7.47916e-05
7.48021e-05
7.48018e-05
7.47887e-05
2.16235e-05
3.84265e-05
3.8428e-05
3.84313e-05
3.84325e-05
7.48057e-05
7.47926e-05
2.10352e-05
2.27264e-05
2.77271e-05
2.23204e-05
2.10362e-05
2.27264e-05
2.77181e-05
2.82863e-05
6.95534e-05
2.82905e-05
6.95567e-05
2.82861e-05
6.9556e-05
2.82906e-05
6.95593e-05
2.10364e-05
2.23203e-05
2.27262e-05
2.77159e-05
2.27262e-05
2.77259e-05
2.10352e-05
2.10363e-05
2.23205e-05
2.27263e-05
2.77169e-05
2.27264e-05
2.77269e-05
2.10351e-05
2.82901e-05
6.9559e-05
6.95538e-05
2.82857e-05
2.82903e-05
6.95618e-05
6.95564e-05
2.82858e-05
7.47917e-05
7.48023e-05
7.47911e-05
7.48016e-05
2.16237e-05
3.84277e-05
3.84327e-05
3.84323e-05
3.84372e-05
7.48059e-05
7.47928e-05
7.48052e-05
7.47922e-05
7.47943e-05
7.48083e-05
7.47928e-05
7.48071e-05
3.84328e-05
3.8437e-05
2.1628e-05
3.84293e-05
3.84334e-05
7.48073e-05
7.47922e-05
7.48066e-05
7.47911e-05
2.16243e-05
3.84318e-05
3.84358e-05
3.84346e-05
3.84387e-05
2.82875e-05
6.95581e-05
2.8292e-05
6.95661e-05
2.1036e-05
2.77259e-05
2.27264e-05
2.23202e-05
2.10378e-05
2.77144e-05
2.27263e-05
2.10362e-05
2.77276e-05
2.27264e-05
2.23199e-05
2.1038e-05
2.77161e-05
2.27263e-05
2.82907e-05
6.95663e-05
6.95552e-05
2.82866e-05
2.82912e-05
6.95708e-05
6.95598e-05
2.82871e-05
2.10375e-05
2.23201e-05
2.7712e-05
2.27261e-05
2.77254e-05
2.27262e-05
2.1035e-05
2.10377e-05
2.23197e-05
2.77137e-05
2.27261e-05
2.77272e-05
2.27262e-05
2.10351e-05
3.84381e-05
3.84284e-05
2.16278e-05
3.84344e-05
3.84245e-05
7.47908e-05
7.48055e-05
7.48066e-05
7.47914e-05
2.1624e-05
3.84363e-05
3.84271e-05
3.84398e-05
3.84302e-05
7.48055e-05
7.47897e-05
2.1037e-05
2.77272e-05
2.27267e-05
2.23207e-05
2.10386e-05
2.77159e-05
2.27267e-05
2.82889e-05
6.95514e-05
2.82929e-05
6.95592e-05
2.10367e-05
2.27264e-05
2.77263e-05
2.23196e-05
2.10383e-05
2.27263e-05
2.77146e-05
2.82927e-05
6.95697e-05
6.95586e-05
2.82888e-05
2.10385e-05
2.23207e-05
2.77135e-05
2.27266e-05
2.77268e-05
2.27267e-05
2.10362e-05
2.82924e-05
6.95643e-05
6.95532e-05
2.82884e-05
2.10382e-05
2.23196e-05
2.27261e-05
2.77122e-05
2.27262e-05
2.77259e-05
2.10359e-05
2.82873e-05
6.95549e-05
2.82918e-05
6.95628e-05
2.10359e-05
2.27266e-05
2.77255e-05
2.232e-05
2.10377e-05
2.27265e-05
2.7714e-05
2.82872e-05
6.95547e-05
2.82917e-05
6.95627e-05
2.10374e-05
2.23202e-05