/*--------------------------------*- C++ -*----------------------------------*\
| =========                 |                                                 |
| \\      /  F ield         | OpenFOAM: The Open Source CFD Toolbox           |
|  \\    /   O peration     | Version:  2206                                  |
|   \\  /    A nd           | Website:  www.openfoam.com                      |
|    \\/     M anipulation  |                                                 |
\*---------------------------------------------------------------------------*/
FoamFile
{
    version     2.0;
    format      ascii;
    arch        "LSB;label=32;scalar=64";
    class       volScalarField;
    location    "15";
    object      nut;
}
// * * * * * * * * * * * * * * * * * * * * * * * * * * * * * * * * * * * * * //

dimensions      [0 2 -1 0 0 0 0];

internalField   nonuniform List<scalar> 
28687
(
0.00022957
0.000219055
0.000219051
0.000204891
0.00022957
0.000219054
0.00021905
0.000204886
0.000229569
0.000219052
0.000219047
0.000204883
0.000229549
0.000219014
0.000219021
0.000204843
0.000229551
0.000219005
0.000219
0.000204802
0.000229555
0.000219006
0.000219003
0.000204804
0.000229555
0.000219007
0.000219004
0.000204805
0.000229555
0.000219007
0.000219004
0.000204803
0.000229555
0.000219007
0.000219004
0.000204803
0.000229555
0.000219007
0.000219004
0.000204803
0.000229555
0.000219007
0.000219004
0.000204803
0.000229555
0.000219007
0.000219004
0.000204803
0.000229555
0.000219007
0.000219004
0.000204803
0.000229555
0.000219007
0.000219004
0.000204803
0.000229555
0.000219007
0.000219004
0.000204803
0.000229555
0.000219007
0.000219004
0.000204803
0.000229555
0.000219007
0.000219004
0.000204803
0.000229555
0.000219007
0.000219004
0.000204803
0.000219045
0.000205006
0.000219055
0.000204892
0.000204998
0.000219047
0.000219045
0.000219046
0.000219045
0.000204896
0.000204999
0.000219052
0.000219041
0.000219052
0.00021904
0.000219046
0.000219054
0.000219046
0.000204887
0.000204993
0.000219053
0.00021905
0.000219052
0.000204995
0.000204891
0.000204995
0.000219044
0.000219045
0.000219043
0.000219045
0.000204891
0.000204997
0.000219049
0.000219038
0.000219049
0.000219037
0.000219043
0.000219052
0.000219043
0.000204886
0.000204989
0.00021905
0.000219047
0.00021905
0.000204993
0.000204887
0.000204974
0.000219042
0.000219044
0.000219034
0.000219023
0.000204888
0.000204954
0.000219048
0.000219036
0.00021904
0.000219028
0.000219042
0.000219036
0.000219033
0.000204882
0.000204969
0.000219048
0.000219038
0.00021904
0.000204971
0.00020485
0.00020491
0.000219017
0.000219003
0.000218992
0.000218993
0.000204823
0.000204917
0.000219023
0.000219012
0.000218998
0.000218986
0.000219017
0.000219002
0.000218992
0.000204845
0.000204905
0.000219023
0.000218997
0.000218999
0.000204909
0.000204806
0.000204918
0.000218996
0.000218997
0.000218998
0.000218998
0.000204812
0.000204917
0.000219002
0.00021899
0.000219004
0.000218992
0.000218996
0.000219007
0.000218998
0.000204801
0.000204913
0.000219002
0.000219003
0.000219005
0.000204916
0.000204809
0.000204915
0.000218998
0.000218998
0.000218998
0.000218999
0.000204808
0.000204919
0.000219004
0.000218993
0.000219004
0.000218993
0.000218998
0.000219008
0.000218998
0.000204804
0.00020491
0.000219005
0.000219004
0.000219005
0.000204914
0.000204809
0.000204914
0.000218999
0.000218999
0.000218998
0.000218998
0.000204812
0.000204917
0.000219005
0.000218993
0.000219004
0.000218993
0.000218999
0.000219008
0.000218998
0.000204804
0.000204909
0.000219006
0.000219004
0.000219005
0.000204912
0.000204807
0.000204913
0.000218998
0.000218998
0.000218998
0.000218997
0.000204811
0.000204916
0.000219005
0.000218993
0.000219004
0.000218993
0.000218999
0.000219008
0.000218998
0.000204803
0.000204909
0.000219006
0.000219004
0.000219005
0.000204913
0.000204807
0.000204914
0.000218999
0.000218998
0.000218999
0.000218998
0.00020481
0.000204917
0.000219005
0.000218993
0.000219005
0.000218993
0.000218999
0.000219008
0.000218998
0.000204802
0.000204909
0.000219006
0.000219004
0.000219005
0.000204913
0.000204807
0.000204914
0.000218999
0.000218998
0.000218999
0.000218998
0.00020481
0.000204917
0.000219005
0.000218993
0.000219005
0.000218993
0.000218999
0.000219008
0.000218998
0.000204802
0.000204909
0.000219006
0.000219004
0.000219005
0.000204913
0.000204807
0.000204914
0.000219
0.000218998
0.000218999
0.000218998
0.000204809
0.000204916
0.000219005
0.000218993
0.000219005
0.000218993
0.000218999
0.000219008
0.000218998
0.000204802
0.000204909
0.000219006
0.000219004
0.000219005
0.000204913
0.000204807
0.000204914
0.000218999
0.000218998
0.000218999
0.000218998
0.000204809
0.000204916
0.000219006
0.000218993
0.000219005
0.000218993
0.000218999
0.000219008
0.000218998
0.000204802
0.000204909
0.000219005
0.000219004
0.000219004
0.000204913
0.000204807
0.000204914
0.000218999
0.000218998
0.000218999
0.000218998
0.000204809
0.000204916
0.000219006
0.000218993
0.000219005
0.000218993
0.000218999
0.000219008
0.000218998
0.000204802
0.000204909
0.000219005
0.000219004
0.000219004
0.000204913
0.000204807
0.000204914
0.000218999
0.000218998
0.000218999
0.000218998
0.000204809
0.000204916
0.000219006
0.000218993
0.000219005
0.000218993
0.000218999
0.000219008
0.000218998
0.000204803
0.000204909
0.000219005
0.000219004
0.000219004
0.000204913
0.000204807
0.000204914
0.000218999
0.000218998
0.000218999
0.000218998
0.000204809
0.000204916
0.000219006
0.000218993
0.000219005
0.000218993
0.000218999
0.000219008
0.000218998
0.000204802
0.000204909
0.000219005
0.000219004
0.000219004
0.000204913
0.000204807
0.000204914
0.000218999
0.000218998
0.000218999
0.000218998
0.000204809
0.000204916
0.000219006
0.000218993
0.000219005
0.000218993
0.000218999
0.000219008
0.000218998
0.000204802
0.000204909
0.000219005
0.000219004
0.000219004
0.000204913
0.000204807
0.000204914
0.000218999
0.000218998
0.000218999
0.000218998
0.000204809
0.000204916
0.000219006
0.000218993
0.000219005
0.000218993
0.000218999
0.000219008
0.000218998
0.000204802
0.000204909
0.000219005
0.000219004
0.000219004
0.000204913
0.000204807
0.000218999
0.000218998
0.000204809
0.000219005
0.000218993
0.000218999
0.000204803
0.000219004
5.82216e-05
4.77137e-05
5.81973e-05
4.77125e-05
2.61017e-05
2.61004e-05
5.82285e-05
4.77101e-05
5.82067e-05
4.77087e-05
0.000229572
0.000229569
0.00022957
0.00022957
0.000229571
0.000229569
0.000229569
0.000137989
7.03419e-05
0.000226492
0.000219057
0.000137964
7.03588e-05
0.000226492
2.60998e-05
2.60984e-05
0.000137992
0.00022649
7.03427e-05
0.000219051
0.000137968
0.00022649
7.03595e-05
3.8986e-05
3.89787e-05
0.000204999
3.89978e-05
3.89902e-05
5.82349e-05
4.77128e-05
5.82208e-05
4.77118e-05
2.60998e-05
2.60994e-05
5.82421e-05
4.77091e-05
5.82289e-05
4.7708e-05
0.000229571
0.000229569
0.000229569
0.000229568
0.00022957
0.000229568
0.000229568
0.000137988
7.03408e-05
0.000226491
0.000219054
0.000137957
7.03662e-05
0.000226489
2.60975e-05
2.60969e-05
0.000137991
0.00022649
7.03383e-05
0.000219047
0.000137958
0.000226488
7.03627e-05
3.90014e-05
3.89939e-05
0.000204996
3.90093e-05
3.90016e-05
5.82382e-05
4.77123e-05
5.82282e-05
4.77116e-05
2.60995e-05
2.60998e-05
5.82461e-05
4.77086e-05
5.82368e-05
4.77079e-05
0.00022957
0.000229568
0.000229568
0.000229563
0.00022956
0.000229562
0.000229562
0.00013799
7.03502e-05
0.00022649
0.00021905
0.000137968
7.03657e-05
0.00022649
2.6097e-05
2.60969e-05
0.000137993
0.000226488
7.03499e-05
0.000219046
0.00013797
0.000226488
7.03691e-05
3.90106e-05
3.90032e-05
0.000204991
3.9015e-05
3.90075e-05
5.81909e-05
4.7716e-05
5.82039e-05
4.77203e-05
2.61021e-05
2.61021e-05
5.81978e-05
4.77124e-05
5.82124e-05
4.77163e-05
0.000229544
0.000229549
0.000229549
0.000229547
0.000229548
0.000229546
0.000229547
0.000137898
7.03125e-05
0.000226463
0.000219004
0.000137933
7.03095e-05
0.000226454
2.6099e-05
2.60997e-05
0.000137901
0.000226465
7.03259e-05
0.000219005
0.000137937
0.000226455
7.03208e-05
3.89982e-05
3.89907e-05
0.000204922
3.89891e-05
3.89815e-05
5.81708e-05
4.77215e-05
5.81612e-05
4.77207e-05
2.61022e-05
2.6102e-05
5.81788e-05
4.77178e-05
5.81702e-05
4.7717e-05
0.000229553
0.000229551
0.000229552
0.000229555
0.000229556
0.000229555
0.000229555
0.000137873
7.0275e-05
0.000226461
0.000219006
0.000137844
7.02944e-05
0.000226464
2.60999e-05
2.60996e-05
0.000137876
0.00022646
7.02805e-05
0.000219003
0.000137847
0.000226463
7.02977e-05
3.89698e-05
3.89622e-05
0.00020492
3.89732e-05
3.89655e-05
5.81706e-05
4.77214e-05
5.81599e-05
4.77207e-05
2.61022e-05
2.6102e-05
5.81787e-05
4.77177e-05
5.81691e-05
4.77169e-05
0.000229556
0.000229555
0.000229555
0.000229555
0.000229556
0.000229555
0.000229555
0.000137873
7.02739e-05
0.000226464
0.000219007
0.000137845
7.02943e-05
0.000226464
2.60998e-05
2.60996e-05
0.000137877
0.000226463
7.02777e-05
0.000219003
0.000137848
0.000226463
7.02971e-05
3.89695e-05
3.89619e-05
0.000204911
3.89734e-05
3.89657e-05
5.81706e-05
4.77216e-05
5.81599e-05
4.77209e-05
2.61021e-05
2.61017e-05
5.81787e-05
4.77177e-05
5.81691e-05
4.77169e-05
0.000229556
0.000229555
0.000229555
0.000229555
0.000229556
0.000229555
0.000229555
0.000137873
7.02739e-05
0.000226464
0.000219008
0.000137845
7.02942e-05
0.000226465
2.60998e-05
2.60996e-05
0.000137877
0.000226463
7.02777e-05
0.000219004
0.000137848
0.000226464
7.02971e-05
3.89696e-05
3.8962e-05
0.000204915
3.89734e-05
3.89657e-05
5.81705e-05
4.77213e-05
5.81598e-05
4.77204e-05
2.61021e-05
2.61021e-05
5.81789e-05
4.77177e-05
5.81692e-05
4.77169e-05
0.000229556
0.000229555
0.000229555
0.000229555
0.000229556
0.000229555
0.000229555
0.000137873
7.02738e-05
0.000226464
0.000219008
0.000137844
7.02942e-05
0.000226465
2.60998e-05
2.60996e-05
0.000137877
0.000226463
7.02777e-05
0.000219004
0.000137848
0.000226464
7.02971e-05
3.89696e-05
3.8962e-05
0.000204915
3.89734e-05
3.89657e-05
5.81705e-05
4.77211e-05
5.81598e-05
4.77201e-05
2.61025e-05
2.61024e-05
5.81789e-05
4.7718e-05
5.81693e-05
4.77174e-05
0.000229556
0.000229555
0.000229555
0.000229555
0.000229556
0.000229555
0.000229555
0.000137873
7.02739e-05
0.000226464
0.000219008
0.000137844
7.02943e-05
0.000226465
2.60998e-05
2.60996e-05
0.000137877
0.000226463
7.02777e-05
0.000219004
0.000137848
0.000226464
7.02971e-05
3.89696e-05
3.8962e-05
0.000204915
3.89734e-05
3.89657e-05
5.81705e-05
4.77206e-05
5.81598e-05
4.77198e-05
2.61026e-05
2.61024e-05
5.81789e-05
4.77182e-05
5.81693e-05
4.77176e-05
0.000229556
0.000229555
0.000229555
0.000229555
0.000229556
0.000229555
0.000229555
0.000137873
7.02739e-05
0.000226464
0.000219008
0.000137844
7.02943e-05
0.000226465
2.60998e-05
2.60996e-05
0.000137877
0.000226463
7.02777e-05
0.000219004
0.000137848
0.000226464
7.02971e-05
3.89696e-05
3.8962e-05
0.000204915
3.89734e-05
3.89657e-05
5.81705e-05
4.77205e-05
5.81598e-05
4.77197e-05
2.61026e-05
2.61024e-05
5.81789e-05
4.77184e-05
5.81693e-05
4.77177e-05
0.000229556
0.000229555
0.000229555
0.000229555
0.000229556
0.000229555
0.000229555
0.000137873
7.02739e-05
0.000226464
0.000219008
0.000137845
7.02943e-05
0.000226465
2.60998e-05
2.60996e-05
0.000137877
0.000226463
7.02777e-05
0.000219004
0.000137848
0.000226464
7.02971e-05
3.89696e-05
3.8962e-05
0.000204914
3.89734e-05
3.89657e-05
5.81706e-05
4.77204e-05
5.81598e-05
4.77196e-05
2.61026e-05
2.61024e-05
5.81789e-05
4.77184e-05
5.81693e-05
4.77177e-05
0.000229556
0.000229555
0.000229555
0.000229556
0.000229556
0.000229555
0.000229555
0.000137873
7.02739e-05
0.000226464
0.000219008
0.000137845
7.02943e-05
0.000226464
2.60998e-05
2.60996e-05
0.000137877
0.000226463
7.02777e-05
0.000219004
0.000137848
0.000226464
7.02971e-05
3.89696e-05
3.8962e-05
0.000204914
3.89734e-05
3.89657e-05
5.81706e-05
4.77204e-05
5.81599e-05
4.77196e-05
2.61026e-05
2.61024e-05
5.81789e-05
4.77185e-05
5.81693e-05
4.77177e-05
0.000229556
0.000229555
0.000229555
0.000229555
0.000229556
0.000229555
0.000229555
0.000137873
7.02739e-05
0.000226464
0.000219008
0.000137844
7.02943e-05
0.000226465
2.60998e-05
2.60996e-05
0.000137877
0.000226463
7.02777e-05
0.000219004
0.000137848
0.000226464
7.02971e-05
3.89696e-05
3.8962e-05
0.000204914
3.89734e-05
3.89657e-05
5.81705e-05
4.77203e-05
5.81598e-05
4.77196e-05
2.61026e-05
2.61024e-05
5.81789e-05
4.77185e-05
5.81693e-05
4.77177e-05
0.000229556
0.000229555
0.000229555
0.000229556
0.000229556
0.000229555
0.000229555
0.000137873
7.02739e-05
0.000226464
0.000219008
0.000137845
7.02943e-05
0.000226464
2.60998e-05
2.60996e-05
0.000137876
0.000226463
7.02777e-05
0.000219004
0.000137848
0.000226464
7.02971e-05
3.89696e-05
3.8962e-05
0.000204914
3.89734e-05
3.89657e-05
5.81705e-05
4.77203e-05
5.81598e-05
4.77196e-05
2.61026e-05
2.61024e-05
5.81789e-05
4.77185e-05
5.81693e-05
4.77177e-05
0.000229556
0.000229555
0.000229555
0.000229556
0.000229556
0.000229555
0.000229555
0.000137873
7.02739e-05
0.000226464
0.000219008
0.000137845
7.02943e-05
0.000226465
2.60998e-05
2.60996e-05
0.000137876
0.000226463
7.02777e-05
0.000219004
0.000137848
0.000226464
7.02971e-05
3.89696e-05
3.8962e-05
0.000204914
3.89734e-05
3.89657e-05
5.81705e-05
4.77203e-05
5.81598e-05
4.77196e-05
2.61026e-05
2.61024e-05
5.81789e-05
4.77185e-05
5.81692e-05
4.77177e-05
0.000229556
0.000229555
0.000229555
0.000229555
0.000229556
0.000229555
0.000229555
0.000137873
7.02738e-05
0.000226464
0.000219008
0.000137844
7.02942e-05
0.000226465
2.60998e-05
2.60996e-05
0.000137876
0.000226463
7.02777e-05
0.000219004
0.000137847
0.000226464
7.0297e-05
3.89696e-05
3.89619e-05
0.000204914
3.89734e-05
3.89657e-05
5.81705e-05
4.77203e-05
5.81598e-05
4.77196e-05
2.61026e-05
2.61024e-05
5.81789e-05
4.77185e-05
5.81692e-05
4.77177e-05
0.000229556
0.000229555
0.000229555
0.000229556
0.000229556
0.000229555
0.000229555
0.000137873
7.02739e-05
0.000226464
0.000219008
0.000137845
7.02942e-05
0.000226465
2.60998e-05
2.60996e-05
0.000137876
0.000226463
7.02777e-05
0.000219004
0.000137847
0.000226464
7.0297e-05
3.89696e-05
3.89619e-05
0.000204914
3.89734e-05
3.89656e-05
5.81621e-05
4.77203e-05
5.81598e-05
4.77198e-05
2.61026e-05
2.61024e-05
5.8169e-05
4.77185e-05
5.81693e-05
4.77179e-05
0.000229556
0.000229555
0.000229555
0.000137873
7.02739e-05
0.000226464
0.000219007
0.000137844
7.02943e-05
0.000226465
2.60998e-05
2.60996e-05
0.000137879
0.000226463
7.02777e-05
0.000219005
0.000137847
0.000226464
7.02985e-05
3.89696e-05
3.8962e-05
0.000204918
3.89734e-05
3.89618e-05
4.77121e-05
7.03641e-05
2.61019e-05
3.89896e-05
3.89888e-05
2.61023e-05
7.03625e-05
4.7711e-05
2.61035e-05
2.61022e-05
2.61013e-05
2.61e-05
3.89883e-05
3.89797e-05
0.000205002
3.89999e-05
3.89912e-05
2.61013e-05
2.61021e-05
2.60991e-05
2.60999e-05
0.000204894
3.90057e-05
3.89972e-05
3.89989e-05
3.89904e-05
5.82222e-05
4.77125e-05
5.81977e-05
4.77118e-05
0.000137989
7.03455e-05
0.000226491
0.000219047
0.000137963
7.03639e-05
0.000226491
0.000137991
7.03468e-05
0.000226492
0.000219046
0.000137964
7.03595e-05
0.000226492
5.82164e-05
4.77121e-05
4.77128e-05
5.823e-05
5.8217e-05
4.77114e-05
4.7712e-05
5.82308e-05
0.000137966
0.000219047
7.03611e-05
0.000226491
7.03463e-05
0.000226491
0.000137986
0.000137968
0.000219045
7.03602e-05
0.000226492
7.03421e-05
0.000226492
0.00013799
3.89888e-05
3.89874e-05
0.000205001
3.89956e-05
3.89938e-05
2.61023e-05
2.61009e-05
2.60998e-05
2.61004e-05
0.000204893
3.90013e-05
3.89991e-05
3.89948e-05
3.89925e-05
2.61002e-05
2.6101e-05
0.000137991
7.03314e-05
0.000226491
0.000219052
0.000137967
7.03516e-05
0.000226491
5.82265e-05
4.77078e-05
5.82046e-05
4.77065e-05
0.000137989
0.000226489
7.03235e-05
0.000219041
0.000137964
0.000226489
7.03443e-05
5.82243e-05
4.77084e-05
4.7709e-05
5.82369e-05
0.000137969
0.000219053
7.03478e-05
0.000226491
7.03329e-05
0.000226492
0.000137988
5.82224e-05
4.77061e-05
4.77068e-05
5.82351e-05
0.000137966
0.000219041
0.000226489
7.03409e-05
0.000226489
7.03257e-05
0.000137986
5.82213e-05
4.77114e-05
5.81968e-05
4.77106e-05
0.000137988
0.000226491
7.03418e-05
0.000219046
0.000137963
0.000226491
7.03597e-05
5.82208e-05
4.77107e-05
5.81961e-05
4.77095e-05
0.000137967
0.000219056
7.03595e-05
0.000226492
7.03408e-05
0.000226492
0.000137985
5.8216e-05
4.77102e-05
4.77109e-05
5.82297e-05
0.000137966
0.000219046
0.000226491
7.03567e-05
0.000226491
7.03419e-05
0.000137986
5.82155e-05
4.77091e-05
4.77097e-05
5.82293e-05
3.89689e-05
3.89861e-05
0.000204996
3.89809e-05
3.89978e-05
2.61022e-05
2.61009e-05
2.60974e-05
2.60984e-05
0.000204888
3.89864e-05
3.90037e-05
3.89794e-05
3.89967e-05
2.60999e-05
2.61008e-05
0.000137994
0.000226491
7.03376e-05
0.000219053
0.000137969
0.000226491
7.03563e-05
5.82274e-05
4.77104e-05
5.82056e-05
4.77092e-05
5.82278e-05
4.77101e-05
5.82059e-05
4.77089e-05
0.000137969
0.000219051
0.000226491
7.03566e-05
0.000226491
7.03419e-05
0.000137987
0.000137971
0.000219053
0.000226491
7.03535e-05
0.000226491
7.03385e-05
0.000137991
5.82232e-05
4.77088e-05
4.77095e-05
5.8236e-05
5.82236e-05
4.77085e-05
4.77092e-05
5.82364e-05
2.6102e-05
2.61007e-05
2.61011e-05
2.60998e-05
0.000204891
3.90037e-05
3.89961e-05
3.89966e-05
3.89892e-05
2.60998e-05
2.61006e-05
2.60989e-05
2.60997e-05
2.61013e-05
2.61008e-05
2.60991e-05
2.60986e-05
3.90046e-05
3.89963e-05
0.000204998
3.90112e-05
3.90029e-05
2.61006e-05
2.61009e-05
2.60984e-05
2.60987e-05
0.00020489
3.90154e-05
3.90071e-05
3.901e-05
3.90019e-05
5.82357e-05
4.77116e-05
5.82243e-05
4.7711e-05
0.000137991
7.03453e-05
0.00022649
0.000219044
0.000137964
7.03666e-05
0.00022649
0.000137994
7.03453e-05
0.00022649
0.000219045
0.000137968
7.03669e-05
0.00022649
5.82282e-05
4.77116e-05
4.77121e-05
5.82384e-05
5.82289e-05
4.77109e-05
4.77113e-05
5.82391e-05
0.000137971
0.000219044
7.03725e-05
0.00022649
7.03519e-05
0.00022649
0.000137998
0.000137973
0.000219046
7.03708e-05
0.000226491
7.03517e-05
0.00022649
0.000138
3.90002e-05
3.89976e-05
0.000204999
3.90065e-05
3.90041e-05
2.61003e-05
2.60998e-05
2.60993e-05
2.60996e-05
0.000204891
3.90101e-05
3.90078e-05
3.9005e-05
3.90021e-05
2.60997e-05
2.61001e-05
0.000137994
7.03313e-05
0.000226488
0.000219049
0.000137967
7.03538e-05
0.000226488
5.82402e-05
4.77064e-05
5.82298e-05
4.77057e-05
0.000137991
0.000226486
7.03243e-05
0.000219037
0.000137964
0.000226486
7.03466e-05
5.82366e-05
4.77078e-05
4.77084e-05
5.82459e-05
0.000137974
0.000219049
7.03595e-05
0.000226488
7.03385e-05
0.000226488
0.000138001
5.82347e-05
4.77055e-05
4.7706e-05
5.82438e-05
0.000137971
0.000219037
0.000226487
7.03522e-05
0.000226486
7.03312e-05
0.000137998
5.82343e-05
4.77105e-05
5.82232e-05
4.77099e-05
0.00013799
0.000226488
7.03412e-05
0.000219043
0.000137964
0.000226488
7.03625e-05
5.8234e-05
4.77093e-05
5.82227e-05
4.77086e-05
0.000137968
0.000219053
7.03701e-05
0.00022649
7.03504e-05
0.000226489
0.000137995
5.82275e-05
4.77097e-05
4.77102e-05
5.82375e-05
0.00013797
0.000219043
0.000226489
7.03679e-05
0.000226488
7.03479e-05
0.000137996
5.82272e-05
4.77084e-05
4.77089e-05
5.8237e-05
3.89847e-05
3.90026e-05
0.000204992
3.89917e-05
3.90092e-05
2.61e-05
2.60994e-05
2.60967e-05
2.60971e-05
0.000204885
3.89958e-05
3.90135e-05
3.89898e-05
3.9008e-05
2.60992e-05
2.60995e-05
0.000137996
0.000226489
7.03376e-05
0.00021905
0.000137969
0.000226488
7.03587e-05
5.8241e-05
4.77091e-05
5.82306e-05
4.77084e-05
5.82415e-05
4.77087e-05
5.82311e-05
4.77081e-05
0.00013797
0.000219047
0.000226488
7.03682e-05
0.000226488
7.03485e-05
0.000137998
0.000137975
0.00021905
0.000226489
7.03639e-05
0.000226488
7.03438e-05
0.000138002
5.82354e-05
4.77082e-05
4.77087e-05
5.82445e-05
5.82359e-05
4.77079e-05
4.77084e-05
5.8245e-05
2.60998e-05
2.60992e-05
2.60989e-05
2.60983e-05
0.000204889
3.90134e-05
3.90059e-05
3.9008e-05
3.90005e-05
2.6099e-05
2.60994e-05
2.60981e-05
2.60985e-05
2.61007e-05
2.61007e-05
2.60985e-05
2.60985e-05
3.90138e-05
3.90058e-05
0.000204992
3.9017e-05
3.90089e-05
2.61018e-05
2.6101e-05
2.60996e-05
2.60988e-05
0.000204883
3.90079e-05
3.89996e-05
3.90132e-05
3.90053e-05
5.82388e-05
4.77112e-05
5.82315e-05
4.77115e-05
0.000137991
7.03566e-05
0.000226489
0.000219041
0.000137972
7.03734e-05
0.000226489
0.000137993
7.03545e-05
0.00022649
0.000219041
0.000137976
7.03657e-05
0.00022649
5.82286e-05
4.77135e-05
4.77121e-05
5.82224e-05
5.82292e-05
4.7716e-05
4.77122e-05
5.82231e-05
0.000137962
0.000219039
7.03572e-05
0.000226482
7.03547e-05
0.000226487
0.000137972
0.000137964
0.000219036
7.03398e-05
0.00022648
7.03442e-05
0.000226487
0.000137972
3.90081e-05
3.90051e-05
0.000204991
3.90071e-05
3.90062e-05
2.61001e-05
2.61002e-05
2.61014e-05
2.61004e-05
0.000204877
3.8993e-05
3.89917e-05
3.90013e-05
3.90001e-05
2.6102e-05
2.61008e-05
0.000137993
7.0343e-05
0.000226488
0.000219047
0.000137974
7.036e-05
0.000226487
5.8244e-05
4.77059e-05
5.82374e-05
4.77056e-05
0.00013799
0.000226487
7.03357e-05
0.000219036
0.000137972
0.000226487
7.03529e-05
5.82375e-05
4.77098e-05
4.77085e-05
5.823e-05
0.000137965
0.000219045
7.03438e-05
0.000226481
7.03408e-05
0.000226486
0.000137975
5.82356e-05
4.77073e-05
4.77062e-05
5.82286e-05
0.000137962
0.000219034
0.00022648
7.03369e-05
0.000226485
7.03336e-05
0.000137973
5.82375e-05
4.77102e-05
5.82299e-05
4.77105e-05
0.000137989
0.00022649
7.03523e-05
0.000219041
0.000137969
0.000226489
7.03687e-05
5.82371e-05
4.77087e-05
5.82294e-05
4.77085e-05
0.000137962
0.000219047
7.03412e-05
0.000226481
7.0344e-05
0.000226487
0.000137972
5.82281e-05
4.7715e-05
4.77115e-05
5.82225e-05
0.000137961
0.000219039
0.000226482
7.03527e-05
0.000226487
7.03504e-05
0.000137972
5.82276e-05
4.77102e-05
4.7709e-05
5.8222e-05
3.89933e-05
3.9012e-05
0.000204987
3.89973e-05
3.90153e-05
2.60994e-05
2.60993e-05
2.6098e-05
2.60973e-05
0.000204878
3.89882e-05
3.9006e-05
3.89926e-05
3.90114e-05
2.61005e-05
2.60996e-05
0.000137995
0.000226489
7.03482e-05
0.000219048
0.000137975
0.000226489
7.03646e-05
5.82448e-05
4.77085e-05
5.82381e-05
4.77082e-05
5.82452e-05
4.77082e-05
5.82385e-05
4.7708e-05
0.000137964
0.000219044
0.000226481
7.0353e-05
0.000226486
7.03511e-05
0.000137975
0.000137966
0.000219046
0.000226482
7.03484e-05
0.000226487
7.0346e-05
0.000137978
5.82364e-05
4.77099e-05
4.77087e-05
5.82295e-05
5.82367e-05
4.77096e-05
4.77085e-05
5.82299e-05
2.60992e-05
2.60991e-05
2.60983e-05
2.60982e-05
0.000204882
3.90057e-05
3.89982e-05
3.9011e-05
3.90036e-05
2.61003e-05
2.60995e-05
2.60994e-05
2.60986e-05
2.61027e-05
2.61035e-05
2.61005e-05
2.61013e-05
3.90015e-05
3.89933e-05
0.000204924
3.89909e-05
3.89827e-05
2.61034e-05
2.61037e-05
2.61012e-05
2.61015e-05
0.0002048
3.89759e-05
3.89679e-05
3.89834e-05
3.89753e-05
5.8191e-05
4.77191e-05
5.8207e-05
4.77207e-05
0.000137896
7.03326e-05
0.000226466
0.000219001
0.000137934
7.03253e-05
0.000226455
0.000137895
7.03141e-05
0.000226461
0.000218994
0.000137933
7.03091e-05
0.000226453
5.81767e-05
4.77209e-05
4.77213e-05
5.81729e-05
5.81768e-05
4.77205e-05
4.7721e-05
5.81737e-05
0.000137856
0.000218993
7.03062e-05
0.000226456
7.03015e-05
0.000226453
0.000137872
0.000137855
0.000218991
7.02982e-05
0.000226456
7.02879e-05
0.000226452
0.000137873
3.89865e-05
3.89841e-05
0.000204913
3.89712e-05
3.89704e-05
2.61029e-05
2.61028e-05
2.6102e-05
2.61022e-05
0.0002048
3.89664e-05
3.89631e-05
3.89661e-05
3.89651e-05
2.61027e-05
2.61031e-05
0.000137899
7.03187e-05
0.000226466
0.000219007
0.000137938
7.03122e-05
0.000226455
5.81964e-05
4.77096e-05
5.82136e-05
4.7714e-05
0.000137897
0.000226464
7.03118e-05
0.000218996
0.000137935
0.000226454
7.03053e-05
5.81832e-05
4.77171e-05
4.77175e-05
5.81807e-05
0.000137858
0.000218999
7.02926e-05
0.000226455
7.02876e-05
0.000226453
0.000137874
5.81818e-05
4.7715e-05
4.77155e-05
5.8179e-05
0.000137856
0.000218987
0.000226454
7.0285e-05
0.000226451
7.02805e-05
0.000137872
5.81909e-05
4.7718e-05
5.82066e-05
4.77197e-05
0.000137897
0.000226465
7.03283e-05
0.000219001
0.000137935
0.000226455
7.03205e-05
5.81905e-05
4.77123e-05
5.8206e-05
4.7717e-05
0.000137857
0.000219001
7.02962e-05
0.000226456
7.02866e-05
0.000226453
0.000137871
5.81766e-05
4.77195e-05
4.772e-05
5.81728e-05
0.000137856
0.000218993
0.000226456
7.03013e-05
0.000226453
7.02969e-05
0.000137871
5.81761e-05
4.77179e-05
4.77183e-05
5.81722e-05
3.89807e-05
3.89995e-05
0.000204919
3.89708e-05
3.89889e-05
2.61014e-05
2.61021e-05
2.60996e-05
2.60999e-05
0.000204796
3.89549e-05
3.89741e-05
3.89636e-05
3.89814e-05
2.61021e-05
2.61023e-05
0.000137902
0.000226466
7.03239e-05
0.000219007
0.00013794
0.000226455
7.03164e-05
5.81973e-05
4.77122e-05
5.82146e-05
4.77168e-05
5.81976e-05
4.77118e-05
5.82149e-05
4.77165e-05
0.00013786
0.000218998
0.000226455
7.03015e-05
0.000226453
7.02974e-05
0.000137874
0.000137861
0.000218999
0.000226456
7.02973e-05
0.000226453
7.02926e-05
0.000137877
5.81827e-05
4.77176e-05
4.77181e-05
5.81799e-05
5.8183e-05
4.77173e-05
4.77178e-05
5.81802e-05
2.61012e-05
2.61019e-05
2.61003e-05
2.6101e-05
0.000204799
3.8974e-05
3.89663e-05
3.89816e-05
3.89741e-05
2.61019e-05
2.61021e-05
2.6101e-05
2.61012e-05
2.61036e-05
2.61034e-05
2.61014e-05
2.61012e-05
3.8973e-05
3.89651e-05
0.00020492
3.89751e-05
3.89671e-05
2.61034e-05
2.61035e-05
2.61012e-05
2.61013e-05
0.000204814
3.89752e-05
3.8967e-05
3.89726e-05
3.89646e-05
5.81715e-05
4.77208e-05
5.81646e-05
4.77204e-05
0.000137873
7.02878e-05
0.000226461
0.000218997
0.000137848
7.0302e-05
0.000226463
0.000137874
7.02807e-05
0.000226461
0.000218998
0.00013785
7.02966e-05
0.000226463
5.81627e-05
4.77207e-05
4.77211e-05
5.81706e-05
5.81633e-05
4.77204e-05
4.77207e-05
5.81713e-05
0.00013785
0.000218998
7.03013e-05
0.000226464
7.02852e-05
0.000226464
0.000137873
0.000137851
0.000218998
7.02964e-05
0.000226464
7.02799e-05
0.000226464
0.000137875
3.89638e-05
3.89599e-05
0.000204922
3.89665e-05
3.89635e-05
2.6103e-05
2.61027e-05
2.6102e-05
2.61022e-05
0.000204815
3.89666e-05
3.89636e-05
3.8964e-05
3.89603e-05
2.61027e-05
2.61029e-05
0.000137876
7.02734e-05
0.000226461
0.000219003
0.000137852
7.02885e-05
0.000226463
5.81768e-05
4.77153e-05
5.8171e-05
4.77148e-05
0.000137874
0.000226459
7.02657e-05
0.000218992
0.000137849
0.000226461
7.02808e-05
5.81719e-05
4.77169e-05
4.77174e-05
5.81787e-05
0.000137854
0.000219004
7.02879e-05
0.000226464
7.02709e-05
0.000226464
0.000137876
5.81698e-05
4.77147e-05
4.77152e-05
5.81766e-05
0.000137851
0.000218992
0.000226462
7.02801e-05
0.000226462
7.02631e-05
0.000137874
5.81704e-05
4.77198e-05
5.81636e-05
4.77193e-05
0.000137872
0.000226461
7.02831e-05
0.000218998
0.000137848
0.000226463
7.02973e-05
5.817e-05
4.77182e-05
5.81631e-05
4.77177e-05
0.00013785
0.000219007
7.02942e-05
0.000226464
7.02771e-05
0.000226465
0.000137872
5.81623e-05
4.77193e-05
4.77197e-05
5.81703e-05
0.00013785
0.000218998
0.000226464
7.02966e-05
0.000226464
7.02805e-05
0.000137872
5.81618e-05
4.77177e-05
4.7718e-05
5.81699e-05
3.89508e-05
3.89711e-05
0.000204915
3.89541e-05
3.89733e-05
2.61022e-05
2.6102e-05
2.60996e-05
2.60998e-05
0.000204808
3.89543e-05
3.89733e-05
3.89507e-05
3.89707e-05
2.6102e-05
2.61022e-05
0.000137879
0.000226461
7.02788e-05
0.000219004
0.000137853
0.000226463
7.02933e-05
5.81776e-05
4.77179e-05
5.81719e-05
4.77175e-05
5.8178e-05
4.77176e-05
5.81722e-05
4.77172e-05
0.000137854
0.000219004
0.000226463
7.0297e-05
0.000226464
7.02812e-05
0.000137876
0.000137856
0.000219005
0.000226464
7.02926e-05
0.000226464
7.02763e-05
0.000137879
5.81706e-05
4.77174e-05
4.77178e-05
5.81775e-05
5.8171e-05
4.77171e-05
4.77175e-05
5.81779e-05
2.61021e-05
2.61019e-05
2.61012e-05
2.6101e-05
0.000204813
3.89733e-05
3.89656e-05
3.89706e-05
3.89629e-05
2.61018e-05
2.6102e-05
2.61009e-05
2.61011e-05
2.61035e-05
2.61033e-05
2.61013e-05
2.61012e-05
3.89726e-05
3.89646e-05
0.000204913
3.89753e-05
3.89671e-05
2.61034e-05
2.61035e-05
2.61012e-05
2.61013e-05
0.000204805
3.89753e-05
3.89671e-05
3.89727e-05
3.89647e-05
5.81712e-05
4.77207e-05
5.81632e-05
4.77203e-05
0.000137873
7.02846e-05
0.000226464
0.000218998
0.00013785
7.03012e-05
0.000226463
0.000137874
7.02797e-05
0.000226464
0.000218998
0.000137852
7.02958e-05
0.000226463
5.81626e-05
4.77208e-05
4.7721e-05
5.81706e-05
5.81632e-05
4.77202e-05
4.77207e-05
5.81712e-05
0.000137849
0.000218998
7.03013e-05
0.000226464
7.02846e-05
0.000226464
0.000137873
0.00013785
0.000218999
7.02939e-05
0.000226464
7.02777e-05
0.000226463
0.000137874
3.89642e-05
3.89604e-05
0.000204914
3.89657e-05
3.89638e-05
2.61029e-05
2.61027e-05
2.61019e-05
2.61023e-05
0.000204808
3.89635e-05
3.89637e-05
3.89617e-05
3.89605e-05
2.61027e-05
2.61029e-05
0.000137876
7.02705e-05
0.000226464
0.000219004
0.000137853
7.02878e-05
0.000226463
5.81766e-05
4.77151e-05
5.81697e-05
4.77147e-05
0.000137874
0.000226462
7.02627e-05
0.000218992
0.00013785
0.000226462
7.02801e-05
5.81718e-05
4.77169e-05
4.77174e-05
5.81787e-05
0.000137854
0.000219004
7.02878e-05
0.000226464
7.02706e-05
0.000226464
0.000137876
5.81697e-05
4.77147e-05
4.77151e-05
5.81767e-05
0.000137851
0.000218993
0.000226462
7.02801e-05
0.000226462
7.02628e-05
0.000137874
5.81702e-05
4.77197e-05
5.81622e-05
4.77193e-05
0.000137872
0.000226464
7.02801e-05
0.000218998
0.000137849
0.000226463
7.02967e-05
5.81698e-05
4.7718e-05
5.81618e-05
4.77176e-05
0.00013785
0.000219007
7.02942e-05
0.000226464
7.02771e-05
0.000226464
0.000137872
5.81622e-05
4.77193e-05
4.77197e-05
5.81703e-05
0.00013785
0.000218999
0.000226464
7.02966e-05
0.000226463
7.02802e-05
0.000137872
5.81617e-05
4.77176e-05
4.7718e-05
5.81698e-05
3.89509e-05
3.89708e-05
0.000204907
3.89544e-05
3.89734e-05
2.61022e-05
2.6102e-05
2.60996e-05
2.60998e-05
0.0002048
3.89544e-05
3.89734e-05
3.8951e-05
3.89708e-05
2.6102e-05
2.61022e-05
0.000137879
0.000226464
7.02759e-05
0.000219005
0.000137855
0.000226463
7.02927e-05
5.81774e-05
4.77177e-05
5.81705e-05
4.77174e-05
5.81779e-05
4.77174e-05
5.8171e-05
4.77171e-05
0.000137854
0.000219004
0.000226463
7.0297e-05
0.000226463
7.02809e-05
0.000137875
0.000137856
0.000219005
0.000226464
7.02926e-05
0.000226464
7.0276e-05
0.000137879
5.81705e-05
4.77174e-05
4.77177e-05
5.81775e-05
5.8171e-05
4.77171e-05
4.77174e-05
5.8178e-05
2.6102e-05
2.61018e-05
2.61011e-05
2.61009e-05
0.000204804
3.89733e-05
3.89657e-05
3.89707e-05
3.89631e-05
2.61018e-05
2.6102e-05
2.61009e-05
2.61011e-05
2.61035e-05
2.61031e-05
2.61013e-05
2.61012e-05
3.89726e-05
3.89647e-05
0.000204917
3.89744e-05
3.89671e-05
2.61031e-05