/*--------------------------------*- C++ -*----------------------------------*\
| =========                 |                                                 |
| \\      /  F ield         | OpenFOAM: The Open Source CFD Toolbox           |
|  \\    /   O peration     | Version:  2206                                  |
|   \\  /    A nd           | Website:  www.openfoam.com                      |
|    \\/     M anipulation  |                                                 |
\*---------------------------------------------------------------------------*/
FoamFile
{
    version     2.0;
    format      ascii;
    arch        "LSB;label=32;scalar=64";
    class       volScalarField;
    location    "28.5";
    object      p;
}
// * * * * * * * * * * * * * * * * * * * * * * * * * * * * * * * * * * * * * //

dimensions      [0 2 -2 0 0 0 0];

internalField   nonuniform List<scalar> 
28673
(
0.000504608
0.000507089
0.00046265
0.000462614
0.000462615
0.000465095
0.000420659
0.000420623
0.000420623
0.000423103
0.00037867
0.000378635
0.000378635
0.000381115
0.000336682
0.000336647
0.000336647
0.000339127
0.000294692
0.000294657
0.000294658
0.000297137
0.000252688
0.000252652
0.000252654
0.00025513
0.000210693
0.000210655
0.000210654
0.000213131
0.000168686
0.000168649
0.000168649
0.000171115
0.000126682
0.000126659
0.000126658
0.000129116
8.46791e-05
8.4639e-05
8.46375e-05
8.70669e-05
4.33516e-05
4.28007e-05
4.27978e-05
4.50946e-05
9.22273e-06
9.43061e-06
9.42823e-06
8.97539e-06
0.000515107
0.000512634
0.000515107
0.000470639
0.000504609
0.000504608
0.000473113
0.000473113
0.000507088
0.00047064
0.000473113
0.000473113
0.000504609
0.000473113
0.000473113
0.000470639
0.000504609
0.000473113
0.000473113
0.00047064
0.000465094
0.000428648
0.000462614
0.000462614
0.000431121
0.000431121
0.000465094
0.000428648
0.000462614
0.000462614
0.000431121
0.000431121
0.000462615
0.000431121
0.000431121
0.000465094
0.000428648
0.000462614
0.000431121
0.000431121
0.000428648
0.000423103
0.000386659
0.000420623
0.000420623
0.000389132
0.000389132
0.000423103
0.000386659
0.000420623
0.000420623
0.000389131
0.000389131
0.000420623
0.000389132
0.000389132
0.000423103
0.000386658
0.000420623
0.000389132
0.000389132
0.000386659
0.000381114
0.000344671
0.000378635
0.000378635
0.000347144
0.000347144
0.000381115
0.000344672
0.000378634
0.000378634
0.000347143
0.000347144
0.000378635
0.000347144
0.000347144
0.000381114
0.00034467
0.000378635
0.000347144
0.000347144
0.000344671
0.000339127
0.000302682
0.000336647
0.000336647
0.000305155
0.000305155
0.000339127
0.000302682
0.000336647
0.000336647
0.000305155
0.000305155
0.000336647
0.000305155
0.000305156
0.000339126
0.000302682
0.000336647
0.000305155
0.000305155
0.000302682
0.000297137
0.000260681
0.000294657
0.000294657
0.000263156
0.000263155
0.000297137
0.00026068
0.000294658
0.000294658
0.000263156
0.000263156
0.000294657
0.000263155
0.000263156
0.000297137
0.000260681
0.000294657
0.000263156
0.000263156
0.00026068
0.000255131
0.000218678
0.000252653
0.000252652
0.000221146
0.000221146
0.000255129
0.000218679
0.000252653
0.000252653
0.000221145
0.000221145
0.000252653
0.000221146
0.000221146
0.000255131
0.000218678
0.000252653
0.000221145
0.000221146
0.000218679
0.000213131
0.000176692
0.000210654
0.000210654
0.000179166
0.000179166
0.000213131
0.000176692
0.000210654
0.000210654
0.000179166
0.000179166
0.000210655
0.000179166
0.000179166
0.00021313
0.000176692
0.000210654
0.000179166
0.000179166
0.000176692
0.000171115
0.000134689
0.000168649
0.000168649
0.000137157
0.000137157
0.000171115
0.00013469
0.000168649
0.000168649
0.000137157
0.000137157
0.000168649
0.000137158
0.000137157
0.000171115
0.000134689
0.000168649
0.000137157
0.000137158
0.000134689
0.000129116
9.26843e-05
0.000126659
0.000126659
9.5144e-05
9.51446e-05
0.000129116
9.26851e-05
0.000126659
0.000126659
9.51435e-05
9.51433e-05
0.000126659
9.51441e-05
9.51435e-05
0.000129116
9.26834e-05
0.000126659
9.51431e-05
9.51431e-05
9.26836e-05
8.70679e-05
5.0712e-05
8.46386e-05
8.4639e-05
5.31776e-05
5.31781e-05
8.7068e-05
5.07129e-05
8.4638e-05
8.46375e-05
5.31757e-05
5.31752e-05
8.46381e-05
5.31769e-05
5.31749e-05
8.70674e-05
5.07095e-05
8.46376e-05
5.31743e-05
5.31737e-05
5.07091e-05
4.50982e-05
1.26203e-05
4.28025e-05
4.28026e-05
1.4825e-05
1.48243e-05
4.50986e-05
1.26202e-05
4.28005e-05
4.27992e-05
1.4823e-05
1.48195e-05
4.27985e-05
1.48217e-05
1.48176e-05
4.50951e-05
1.26158e-05
4.27973e-05
1.48197e-05
1.48191e-05
1.26146e-05
8.97928e-06
9.43173e-06
9.4321e-06
8.98054e-06
9.4301e-06
9.42759e-06
9.22268e-06
9.22044e-06
9.22012e-06
9.42672e-06
8.97641e-06
9.42737e-06
0.000491515
0.000507234
0.000507237
0.000491516
0.000507235
0.000491515
0.000491515
0.000491516
0.000504644
0.000504644
0.000473149
0.000473149
0.000473149
0.000473148
0.000491565
0.000507202
0.000504617
0.00049411
0.000507191
0.000491546
0.000494119
0.000491514
0.000491566
0.000504617
0.00049411
0.000507191
0.000494119
0.000491546
0.000507239
0.00050724
0.000491637
0.000491511
0.000491511
0.000449522
0.000465239
0.000465242
0.000449522
0.000465241
0.000449521
0.000449521
0.000465239
0.000465242
0.000449522
0.00046265
0.00046265
0.00046265
0.000431157
0.000431157
0.000431157
0.000431156
0.000449572
0.000465208
0.000462623
0.000452116
0.000465197
0.000449553
0.000452125
0.000465241
0.000449521
0.000449572
0.000462623
0.000465209
0.000452116
0.000465197
0.000452125
0.000449552
0.000465245
0.000465245
0.000449643
0.000449518
0.000449518
0.000407531
0.000423248
0.000423251
0.000407532
0.000423249
0.000407531
0.000407531
0.000423248
0.000423251
0.000407532
0.000420659
0.000420659
0.000420659
0.000389167
0.000389167
0.000389167
0.000389167
0.000407582
0.000423217
0.000420632
0.000410126
0.000423205
0.000407562
0.000410135
0.000423249
0.000407531
0.000407582
0.000420632
0.000423217
0.000410126
0.000423205
0.000410135
0.000407562
0.000423253
0.000423253
0.000407653
0.000407528
0.000407528
0.000365543
0.00038126
0.000381262
0.000365544
0.000381261
0.000365544
0.000365543
0.000381259
0.000381262
0.000365544
0.00037867
0.00037867
0.00037867
0.000347179
0.00034718
0.000347179
0.000347179
0.000365594
0.000381228
0.000378644
0.000368138
0.000381217
0.000365575
0.000368147
0.000381261
0.000365543
0.000365594
0.000378643
0.000381228
0.000368138
0.000381216
0.000368146
0.000365574
0.000381265
0.000381265
0.000365665
0.00036554
0.00036554
0.000323557
0.000339272
0.000339274
0.000323557
0.000339273
0.000323557
0.000323555
0.000339272
0.000339275
0.000323556
0.000336683
0.000336682
0.000336682
0.00030519
0.00030519
0.00030519
0.00030519
0.000323607
0.000339241
0.000336656
0.000326151
0.000339229
0.000323588
0.000326159
0.000339273
0.000323555
0.000323606
0.000336655
0.000339241
0.000326149
0.000339228
0.000326158
0.000323586
0.000339277
0.000339277
0.000323677
0.000323552
0.000323552
0.000281566
0.000297285
0.000297285
0.000281563
0.000297287
0.000281559
0.000281565
0.000297285
0.000297285
0.000281563
0.000294692
0.000294692
0.000294692
0.000263188
0.000263188
0.000263189
0.000263187
0.000281614
0.000297253
0.000294665
0.000284157
0.000297239
0.000281595
0.000284165
0.000297286
0.000281563
0.000281615
0.000294665
0.000297252
0.000284158
0.000297239
0.000284165
0.000281596
0.00029729
0.00029729
0.000281684
0.00028156
0.00028156
0.000239566
0.000255276
0.000255276
0.000239565
0.000255282
0.000239556
0.000239567
0.000255277
0.00025528
0.000239564
0.000252687
0.000252689
0.000252687
0.000221186
0.000221186
0.000221186
0.000221186
0.000239614
0.000255236
0.000252661
0.000242146
0.000255228
0.000239603
0.000242154
0.000255285
0.000239556
0.000239614
0.000252662
0.000255239
0.000242147
0.000255229
0.000242154
0.000239603
0.000255281
0.000255281
0.000239676
0.000239561
0.000239561
0.000197539
0.000213269
0.000213262
0.000197552
0.000213271
0.000197542
0.000197538
0.000213272
0.00021326
0.000197552
0.000210693
0.000210693
0.000210693
0.000179185
0.000179185
0.000179184
0.000179185
0.000197591
0.000213237
0.000210667
0.000200169
0.000213237
0.000197586
0.000200177
0.00021327
0.000197541
0.00019759
0.000210666
0.000213237
0.000200169
0.000213237
0.000200177
0.000197585
0.000213269
0.000213269
0.000197692
0.000197549
0.000197549
0.000155603
0.000171295
0.000171273
0.000155562
0.000171315
0.000155515
0.000155603
0.000171295
0.000171273
0.000155562
0.000168686
0.000168686
0.000168686
0.000137175
0.000137176
0.000137175
0.000137176
0.000155628
0.000171236
0.000168651
0.000158145
0.00017121
0.000155628
0.000158152
0.000171315
0.000155514
0.000155628
0.000168651
0.000171236
0.000158145
0.00017121
0.000158152
0.000155628
0.000171282
0.000171282
0.000155686
0.000155573
0.000155574
0.000113568
0.000129271
0.000129276
0.000113537
0.000129341
0.000113452
0.000113567
0.000129271
0.000129276
0.000113537
0.000126682
0.000126682
0.000126682
9.51528e-05
9.51523e-05
9.51521e-05
9.51521e-05
0.000113611
0.00012922
0.000126659
0.000116154
0.000129223
0.000113609
0.000116147
0.00012934
0.000113451
0.000113611
0.000126659
0.00012922
0.000116153
0.000129223
0.000116147
0.000113608
0.000129248
0.000129248
0.000113689
0.000113556
0.000113555
7.14896e-05
8.72238e-05
8.72395e-05
7.14929e-05
8.73798e-05
7.12763e-05
7.14879e-05
8.72229e-05
8.72382e-05
7.14912e-05
8.46787e-05
8.46782e-05
8.46783e-05
5.34154e-05
5.34164e-05
5.34135e-05
5.34136e-05
7.15478e-05
8.71611e-05
8.46536e-05
7.41438e-05
8.71915e-05
7.15655e-05
7.41526e-05
8.73745e-05
7.12798e-05
7.15468e-05
8.46529e-05
8.71603e-05
7.41421e-05
8.7191e-05
7.41516e-05
7.15633e-05
8.71871e-05
8.71877e-05
7.1676e-05
7.15205e-05
7.15205e-05
2.85938e-05
4.47175e-05
4.48646e-05
2.79106e-05
4.51468e-05
2.7265e-05
2.85803e-05
4.47093e-05
4.48586e-05
2.79029e-05
4.3352e-05
4.33488e-05
4.33487e-05
1.6279e-05
1.62783e-05
1.62754e-05
1.62751e-05
2.92263e-05
4.47297e-05
4.30597e-05
3.27313e-05
4.49952e-05
2.84591e-05
3.31267e-05
4.51319e-05
2.72726e-05
2.92264e-05
4.30569e-05
4.47277e-05
3.27284e-05
4.49952e-05
3.31242e-05
2.8461e-05
4.46592e-05
4.46587e-05
3.01831e-05
2.81278e-05
2.81254e-05
5.30592e-06
6.24511e-06
6.28603e-06
7.23883e-08
3.28791e-06
-3.92986e-06
5.32371e-06
6.22568e-06
6.27191e-06
7.73688e-08
2.67026e-06
9.64941e-06
9.64764e-06
2.9603e-06
9.93732e-06
2.70334e-06
2.7027e-06
4.70449e-06
6.618e-06
9.01461e-06
3.05767e-06
8.02488e-06
4.32041e-06
2.80335e-06
3.25316e-06
-3.92747e-06
4.70939e-06
9.01379e-06
6.61397e-06
3.05633e-06
8.02462e-06
2.80363e-06
4.32975e-06
3.07324e-06
3.06911e-06
2.93702e-06
2.89943e-06
2.91e-06
0.000512513
0.000512543
0.000512511
0.000512509
0.000512509
0.000512511
0.000512543
0.000512513
0.000507234
0.000491515
0.000491514
0.000507239
0.000491637
0.000491511
0.000491512
0.000470518
0.000486238
0.000470518
0.000486237
0.000486091
0.000470514
0.000470514
0.000486241
0.000486242
0.000491515
0.000507233
0.000507237
0.000491515
0.000491565
0.000507203
0.000504617
0.00049411
0.000507191
0.000491546
0.000494119
0.000491565
0.000507202
0.000504617
0.00049411
0.000507191
0.000491545
0.000494119
0.000486239
0.000470519
0.000486236
0.000470518
0.000486239
0.000470519
0.000486236
0.000470518
0.000486193
0.000483611
0.000470548
0.000473121
0.000486205
0.00048362
0.000470568
0.000486193
0.000483611
0.000470549
0.000473121
0.000486205
0.00048362
0.000470568
0.000507239
0.000507239
0.000491636
0.000491511
0.000491511
0.000507235
0.000491515
0.000470518
0.000486237
0.000486091
0.000470514
0.000470515
0.000486241
0.000486241
0.000470518
0.000486238
0.000491566
0.00049411
0.000491546
0.000494119
0.000491515
0.000491516
0.000491566
0.00049411
0.000494119
0.000491546
0.00048624
0.000470519
0.000486236
0.000470518
0.000486194
0.000483611
0.000470549
0.000473122
0.000486205
0.00048362
0.000470568
0.00048624
0.000470519
0.000486236
0.000470518
0.000486194
0.000483612
0.000473122
0.000470549
0.00048362
0.000486206
0.000470568
0.000491515
0.000507234
0.000507237
0.000491516
0.000491565
0.000504617
0.000507203
0.00049411
0.000507191
0.000494119
0.000491546
0.000491515
0.000507234
0.000507237
0.000491516
0.000486193
0.000483611
0.000470549
0.000473121
0.000486205
0.00048362
0.000470568
0.000486239
0.000470519
0.000486236
0.000470518
0.000486193
0.000483612
0.000473122
0.000470549
0.00048362
0.000486205
0.000470569
0.000486239
0.000470519
0.000486236
0.000470518
0.000491637
0.000491512
0.000491512
0.000491515
0.000470518
0.000486238
0.000486092
0.000470514
0.000470514
0.000486242
0.000486242
0.000470518
0.000486238
0.000491566
0.000504617
0.000507203
0.00049411
0.000507191
0.000494119
0.000491546
0.000491515
0.000507237
0.000491516
0.000491515
0.000507234
0.000507237
0.000491516
0.000486193
0.000483612
0.000473122
0.000470549
0.00048362
0.000486206
0.000470569
0.000486193
0.000483611
0.000473122
0.000470549
0.00048362
0.000486206
0.000470569
0.000486239
0.000470519
0.000486236
0.000470518
0.000486239
0.000470519
0.000486236
0.000470518
0.000507234
0.000491515
0.000507234
0.000491515
0.000486092
0.000470514
0.000470514
0.000486241
0.000486242
0.000470518
0.000486238
0.000470518
0.000486238
0.000465241
0.000449522
0.000465241
0.000449522
0.000465245
0.000465244
0.000449643
0.000449518
0.000449518
0.000428526
0.000444245
0.000428526
0.000444245
0.000444098
0.000428522
0.000428522
0.000444249
0.000444249
0.000449522
0.000465239
0.000465242
0.000449522
0.000449572
0.000465208
0.000462623
0.000452116
0.000465197
0.000449552
0.000452125
0.000449572
0.000465208
0.000462623
0.000452116
0.000465197
0.000449552
0.000452125
0.000444246
0.000428527
0.000444243
0.000428526
0.000444246
0.000428527
0.000444243
0.000428526
0.0004442
0.000441619
0.000428557
0.00043113
0.000444212
0.000441627
0.000428576
0.0004442
0.000441618
0.000428557
0.00043113
0.000444212
0.000441627
0.000428576
0.000465245
0.000465245
0.000449643
0.000449518
0.000449518
0.000465241
0.000449521
0.000428526
0.000444245
0.000444098
0.000428523
0.000428523
0.000444248
0.000444248
0.000428526
0.000444245
0.000449572
0.000465208
0.000462623
0.000452116
0.000465196
0.000449552
0.000452125
0.000449521
0.000465239
0.000465242
0.000449522
0.000449572
0.000462623
0.000465208
0.000452116
0.000465196
0.000452125
0.000449552
0.000444246
0.000428527
0.000444243
0.000428526
0.0004442
0.000441618
0.000428557
0.000431129
0.000444212
0.000441627
0.000428576
0.000444246
0.000428527
0.000444243
0.000428526
0.0004442
0.000441618
0.000431129
0.000428557
0.000441627
0.000444212
0.000428576
0.000449522
0.000465239
0.000465243
0.000449523
0.000449572
0.000462623
0.000465209
0.000452117
0.000465197
0.000452125
0.000449552
0.000449522
0.000465239
0.000465243
0.000449523
0.0004442
0.000441619
0.000428557
0.00043113
0.000444212
0.000441627
0.000428576
0.000444246
0.000428527
0.000444243
0.000428526
0.0004442
0.000441619
0.00043113
0.000428557
0.000441627
0.000444212
0.000428577
0.000444246
0.000428527
0.000444243
0.000428526
0.000465244
0.000465245
0.000449643
0.000449518
0.000449518
0.000465241
0.000449522
0.000428526
0.000444245
0.000444098
0.000428522
0.000428522
0.000444248
0.000444249
0.000428526
0.000444245
0.000449572
0.000462623
0.000465209
0.000452116
0.000465197
0.000452125
0.000449552
0.000449522
0.000465239
0.000465242
0.000449523
0.000449522
0.00046524
0.000465242
0.000449523
0.0004442
0.000441618
0.000431129
0.000428557
0.000441627
0.000444212
0.000428577
0.0004442
0.000441618
0.00043113
0.000428557
0.000441627
0.000444212
0.000428577
0.000444246
0.000428527
0.000444243
0.000428526
0.000444246
0.000428527
0.000444243
0.000428526
0.000465241
0.000449522
0.000465241
0.000449522
0.000444099
0.000428522
0.000428522
0.000444249
0.000444249
0.000428526
0.000444245
0.000428526
0.000444245
0.000423249
0.000407531
0.000423249
0.000407531
0.000423253
0.000423253
0.000407653
0.000407528
0.000407528
0.000386537
0.000402254
0.000386537
0.000402255
0.000402108
0.000386534
0.000386533
0.000402258
0.000402259
0.000407531
0.000423248
0.000423251
0.000407532
0.000407582
0.000423217
0.000420632
0.000410126
0.000423205
0.000407562
0.000410135
0.000407582
0.000423217
0.000420632
0.000410126
0.000423205
0.000407562
0.000410135
0.000402256
0.000386538
0.000402253
0.000386537
0.000402256
0.000386538
0.000402253
0.000386537
0.00040221
0.000399629
0.000386568
0.00038914
0.000402222
0.000399637
0.000386588
0.00040221
0.000399629
0.000386568
0.00038914
0.000402222
0.000399637
0.000386588
0.000423253
0.000423253
0.000407653
0.000407528
0.000407528
0.00042325
0.000407531
0.000386537
0.000402255
0.000402108
0.000386534
0.000386534
0.000402259
0.000402258
0.000386537
0.000402255
0.000407582
0.000423217
0.000420632
0.000410126
0.000423205
0.000407562
0.000410135
0.000407531
0.000423248
0.000423251
0.000407532
0.000407582
0.000420632
0.000423217
0.000410126
0.000423205
0.000410135
0.000407562
0.000402257
0.000386538
0.000402253
0.000386537
0.00040221
0.000399628
0.000386568
0.00038914
0.000402222
0.000399637
0.000386587
0.000402256
0.000386538
0.000402253
0.000386537
0.00040221
0.000399629
0.00038914
0.000386568
0.000399637
0.000402222
0.000386587
0.000407531
0.000423248
0.000423251
0.000407532
0.000407582
0.000420632
0.000423217
0.000410126
0.000423205
0.000410135
0.000407562
0.000407531
0.000423248
0.000423251
0.000407532
0.00040221
0.000399629
0.000386568
0.00038914
0.000402222
0.000399637
0.000386588
0.000402256
0.000386539
0.000402253
0.000386538
0.00040221
0.000399629
0.00038914
0.000386568
0.000399638
0.000402222
0.000386588
0.000402256
0.000386538
0.000402253
0.000386538
0.000423253
0.000423253
0.000407653
0.000407528
0.000407528
0.000423249
0.000407531
0.000386536
0.000402255
0.000402108
0.000386533
0.000386533
0.000402258
0.000402259
0.000386537
0.000402255
0.000407582
0.000420632
0.000423217
0.000410126
0.000423205
0.000410135
0.000407562
0.000407532
0.000423248
0.000423251
0.000407532
0.000407532
0.000423248
0.000423251
0.000407532
0.00040221
0.000399629
0.00038914
0.000386568
0.000399637
0.000402223
0.000386588
0.00040221
0.000399629
0.00038914
0.000386568
0.000399637
0.000402222
0.000386588
0.000402256
0.000386538
0.000402253
0.000386538
0.000402256
0.000386538
0.000402253
0.000386538
0.000423249
0.000407531
0.000423249
0.000407531
0.000402109
0.000386534
0.000386534
0.000402259
0.000402259
0.000386537
0.000402255
0.000386537
0.000402255
0.000381261
0.000365543
0.000381261
0.000365543
0.000381265
0.000381265
0.000365665
0.00036554
0.00036554
0.00034455
0.000360267
0.000344549
0.000360267
0.000360121
0.000344546
0.000344546
0.000360271
0.000360271
0.000365544
0.000381259
0.000381262
0.000365545
0.000365594
0.000381229
0.000378643
0.000368138
0.000381216
0.000365574
0.000368146
0.000365594
0.000381228
0.000378644
0.000368138
0.000381217
0.000365574
0.000368146
0.000360269
0.000344551
0.000360265
0.00034455
0.000360269
0.000344551
0.000360266
0.00034455
0.000360223
0.000357641
0.00034458
0.000347152
0.000360235
0.000357649
0.0003446
0.000360223
0.000357641
0.00034458
0.000347153
0.000360235
0.00035765
0.0003446
0.000381265
0.000381265
0.000365665
0.00036554
0.00036554
0.000381261
0.000365543
0.00034455
0.000360268
0.000360121
0.000344546
0.000344547
0.000360271
0.000360271
0.00034455
0.000360268
0.000365594
0.000381228
0.000378643
0.000368138
0.000381216
0.000365574
0.000368146
0.000365543
0.000381259
0.000381262
0.000365544
0.000365594
0.000378643
0.000381228
0.000368138
0.000381216
0.000368146
0.000365574
0.000360268
0.000344551
0.000360265
0.00034455
0.000360222
0.000357641
0.00034458
0.000347152
0.000360234
0.000357649
0.0003446
0.000360268
0.00034455
0.000360265
0.00034455
0.000360222
0.000357641
0.000347152
0.00034458
0.000357649
0.000360234
0.0003446
0.000365544
0.00038126
0.000381263
0.000365545
0.000365594
0.000378644
0.000381229
0.000368138
0.000381217
0.000368147
0.000365574
0.000365544
0.00038126
0.000381263
0.000365544
0.000360223
0.000357641
0.000344581
0.000347153
0.000360235
0.00035765
0.0003446
0.000360269
0.000344551
0.000360266
0.00034455
0.000360223
0.000357641
0.000347153
0.000344581
0.00035765
0.000360235
0.0003446
0.000360269
0.000344551
0.000360266
0.00034455
0.000381264
0.000381265
0.000365665
0.00036554
0.00036554
0.000381261
0.000365544
0.000344549
0.000360267
0.000360121
0.000344546
0.000344546
0.00036027
0.000360271
0.000344549
0.000360267
0.000365594
0.000378643
0.000381229
0.000368138
0.000381216
0.000368146
0.000365574
0.000365544
0.000381259
0.000381262
0.000365545
0.000365544
0.00038126
0.000381262
0.000365544
0.000360223
0.000357641
0.000347152
0.00034458
0.000357649
0.000360235
0.0003446
0.000360223
0.000357641
0.000347152
0.000344581
0.00035765
0.000360235
0.0003446
0.000360269
0.00034455
0.000360266
0.00034455
0.000360269
0.000344551
0.000360266
0.00034455
0.000381261
0.000365543
0.000381261
0.000365543
0.000360121
0.000344546
0.000344546
0.000360271
0.000360271
0.00034455
0.000360267
0.00034455
0.000360267
0.000339273
0.000323556
0.000339273
0.000323555
0.000339277
0.000339277
0.000323677
0.000323552
0.000323552
0.000302563
0.000318279
0.000302561
0.000318279
0.000318133
0.000302559
0.000302558
0.000318283
0.000318283
0.000323557
0.000339271
0.000339275
0.000323558
0.000323607
0.000339241
0.000336656
0.00032615
0.000339229
0.000323587
0.000326158
0.000323607
0.000339241
0.000336656
0.000326151
0.000339229
0.000323588
0.000326159
0.000318282
0.000302563
0.000318278
0.000302562
0.000318282
0.000302564
0.00031828
0.000302562
0.000318235
0.000315654
0.000302593
0.000305163
0.000318247
0.000315662
0.000302612
0.000318235
0.000315654
0.000302594
0.000305164
0.000318249
0.000315662
0.000302612
0.000339277
0.000339277
0.000323678
0.000323554
0.000323554
0.000339274
0.000323557
0.000302563
0.000318282
0.000318134
0.00030256
0.00030256
0.000318285
0.000318285
0.000302563
0.000318282
0.000323606
0.000339241
0.000336655
0.000326149
0.000339228
0.000323586
0.000326158
0.000323555
0.000339272
0.000339275
0.000323556
0.000323606
0.000336655
0.00033924
0.000326149
0.000339228
0.000326158
0.000323586
0.000318281
0.000302563
0.000318277
0.000302562
0.000318234
0.000315653
0.000302593
0.000305163
0.000318246
0.000315661
0.000302612
0.00031828
0.000302562
0.000318277
0.000302562
0.000318234
0.000315653
0.000305163
0.000302592
0.000315661
0.000318246
0.000302611
0.000323557
0.000339272
0.000339275
0.000323558
0.000323607
0.000336656
0.000339241
0.00032615
0.000339229
0.000326159
0.000323587
0.000323557
0.000339272
0.000339275
0.000323557
0.000318235
0.000315654
0.000302594
0.000305164
0.000318249
0.000315662
0.000302612
0.000318282
0.000302564
0.00031828
0.000302562
0.000318235
0.000315654
0.000305164
0.000302593
0.000315662
0.000318247
0.000302612
0.000318282
0.000302563
0.000318278
0.000302562
0.000339277
0.000339277
0.000323677
0.000323552
0.000323552
0.000339273
0.000323556
0.000302561
0.000318279
0.000318133
0.000302558
0.000302558
0.000318282
0.000318283
0.000302561
0.000318279
0.000323606
0.000336655
0.000339241
0.00032615
0.000339228
0.000326158
0.000323587
0.000323557
0.000339272
0.000339274
0.000323557
0.000323557
0.000339272
0.000339274
0.000323557
0.000318235
0.000315653
0.000305163
0.000302592
0.000315662
0.000318246
0.000302612
0.000318235
0.000315654
0.000305163
0.000302593
0.000315662
0.000318247
0.000302612
0.000318281
0.000302562
0.000318278
0.000302562
0.000318281
0.000302564
0.000318278
0.000302562
0.000339273
0.000323556
0.000339273
0.000323556
0.000318134
0.000302559
0.000302559
0.000318283
0.000318283
0.000302563
0.00031828
0.000302563
0.00031828
0.000297287
0.000281562
0.000297286
0.000281563
0.00029729
0.000297289
0.000281684
0.00028156
0.000281561
0.000260552
0.000276287
0.000260554
0.000276289
0.000276137
0.000260555
0.000260556
0.00027629
0.000276291
0.000281566
0.000297285
0.000297285
0.000281561
0.000281614
0.000297252
0.000294665
0.000284157
0.000297239
0.000281596
0.000284165
0.000281614
0.000297253
0.000294665
0.000284157
0.000297239
0.000281595
0.000284165
0.000276287
0.000260558
0.000276285
0.000260562
0.000276287
0.000260557
0.000276283
0.000260562
0.000276238
0.000273658
0.000260596
0.000263163
0.000276251
0.000273666
0.000260611
0.000276238
0.000273658
0.000260595
0.000263163
0.00027625
0.000273666
0.000260611
0.00029729
0.00029729
0.000281683
0.000281558
0.000281559
0.000297287
0.000281559
0.000260551
0.000276285
0.000276136
0.000260554
0.000260554
0.000276288
0.000276288
0.000260551
0.000276286
0.000281614
0.000297252
0.000294666
0.000284158
0.000297239
0.000281596
0.000284165
0.000281565
0.000297284
0.000297285
0.000281564
0.000281614
0.000294666
0.000297252
0.000284158
0.000297239
0.000284166
0.000281596
0.000276287
0.000260559
0.000276286
0.000260565
0.000276239
0.000273658
0.000260597
0.000263164
0.000276251
0.000273666
0.000260614
0.000276287
0.00026056
0.000276287
0.000260565
0.000276239
0.000273659
0.000263164
0.000260598
0.000273666
0.000276252
0.000260614
0.000281566
0.000297285
0.000297285
0.000281561
0.000281614
0.000294665
0.000297252
0.000284157
0.000297239
0.000284165
0.000281595
0.000281566
0.000297285
0.000297285
0.000281562
0.000276238
0.000273658
0.000260595
0.000263163
0.000276249
0.000273666
0.000260611
0.000276286
0.000260557
0.000276283
0.000260561
0.000276238
0.000273658
0.000263163
0.000260596
0.000273666
0.000276251
0.000260611
0.000276286
0.000260557
0.000276285
0.000260562
0.000297288
0.000297289
0.000281684
0.000281562
0.000281562
0.000297286
0.000281563
0.000260554
0.00027629
0.000276138
0.000260557
0.000260556
0.000276292
0.000276292
0.000260554
0.00027629
0.000281615
0.000294665
0.000297253
0.000284157
0.000297239
0.000284165
0.000281596
0.000281567
0.000297284
0.000297285
0.000281564
0.000281567
0.000297285
0.000297285
0.000281563
0.000276239
0.000273659
0.000263164
0.000260597
0.000273667
0.000276252
0.000260612
0.000276238
0.000273658
0.000263163
0.000260596
0.000273666
0.000276251
0.000260612
0.000276287
0.000260559
0.000276287
0.000260563
0.000276287
0.000260558
0.000276285
0.000260563
0.000297287
0.000281561
0.000297287
0.000281562
0.000276137
0.000260554
0.000260554
0.00027629
0.00027629
0.000260552
0.000276287
0.000260552
0.000276287
0.000255282
0.000239554
0.000255284
0.000239554
0.000255281
0.000255283
0.000239676
0.000239561
0.000239561
0.000218567
0.000234271
0.000218567
0.000234271
0.000234121
0.000218572
0.000218572
0.000234265
0.000234265
0.000239566
0.000255275
0.000255276
0.000239569
0.000239614
0.000255238
0.000252661
0.000242147
0.000255228
0.000239602
0.000242154
0.000239614
0.000255237
0.000252661
0.000242146
0.000255228
0.000239603
0.000242154
0.000234259
0.00021857
0.000234262
0.000218585
0.000234259
0.00021857
0.000234263
0.000218585
0.000234217
0.000231644
0.000218603
0.000221154
0.000234224
0.000231653
0.000218614
0.000234217
0.000231643
0.000218605
0.000221154
0.000234224
0.000231653
0.000218614
0.000255281
0.000255281
0.000239676
0.000239561
0.000239562
0.000255282
0.000239556
0.000218567
0.000234272
0.000234122
0.000218572
0.000218572
0.000234266
0.000234266
0.000218566
0.000234272
0.000239615
0.000255239
0.000252662
0.000242147
0.00025523
0.000239603
0.000242155
0.000239567
0.000255278
0.00025528
0.000239568
0.000239615
0.000252662
0.00025524
0.000242147
0.00025523
0.000242155
0.000239604
0.000234259
0.00021857
0.000234262
0.000218583
0.000234217
0.000231643
0.000218603
0.000221154
0.000234224
0.000231653
0.000218614
0.000234259
0.000218569
0.000234262
0.000218584
0.000234218
0.000231644
0.000221153
0.000218601
0.000231653
0.000234225
0.000218613
0.000239566
0.000255275
0.000255276
0.00023957
0.000239614
0.000252661
0.000255237
0.000242147
0.000255228
0.000242154
0.000239602
0.000239566
0.000255275
0.000255276
0.000239565
0.000234217
0.000231643
0.000218603
0.000221154
0.000234224
0.000231653
0.000218615
0.000234258
0.00021857
0.000234263
0.000218585
0.000234217
0.000231644
0.000221154
0.000218604
0.000231653
0.000234224
0.000218615
0.000234259
0.00021857
0.000234262
0.000218585
0.000255283
0.000255282
0.000239676
0.000239562
0.000239561
0.000255283
0.000239554
0.000218565
0.000234271
0.000234122
0.000218571
0.000218571
0.000234265
0.000234265
0.000218566
0.000234271
0.000239614
0.000252661
0.000255238
0.000242147
0.000255229
0.000242154
0.000239603
0.000239566
0.000255277
0.000255278
0.000239564
0.000239566
0.000255276
0.000255277
0.000239568
0.000234218
0.000231644
0.000221154
0.000218602
0.000231653
0.000234224
0.000218614
0.000234217
0.000231643
0.000221154
0.000218605
0.000231653
0.000234224
0.000218615
0.000234259
0.000218569
0.000234261
0.000218585
0.000234259
0.00021857
0.000234263
0.000218585
0.000255282
0.000239554
0.000255282
0.000239556
0.000234122
0.000218572
0.000218572
0.000234265
0.000234266
0.000218567
0.000234271
0.000218567
0.000234272
0.000213271
0.000197543
0.000213273
0.000197543
0.000213268
0.00021327
0.000197691
0.00019755
0.00019755
0.000176524
0.000192313
0.000176524
0.000192313
0.000192139
0.00017655
0.00017655
0.000192303
0.000192304
0.000197539
0.000213269
0.000213262
0.000197551
0.00019759
0.000213238
0.000210666
0.000200169
0.000213237
0.000197586
0.000200177
0.00019759
0.000213238
0.000210667
0.000200169
0.000213237
0.000197587
0.000200177
0.000192329
0.00017654
0.000192299
0.000176538
0.000192329
0.000176539
0.000192298
0.000176538
0.000192267
0.000189671
0.000176593
0.000179164
0.000192265
0.000189678
0.000176616
0.000192267
0.000189671
0.000176593
0.000179164
0.000192263
0.000189678
0.000176616
0.000213269
0.000213269
0.000197692
0.000197549
0.00019755
0.000213272
0.000197542
0.000176523
0.000192312
0.000192139
0.000176549
0.00017655
0.000192304
0.000192303
0.000176523
0.000192313
0.000197589
0.000213238
0.000210666
0.000200169
0.000213235
0.000197587
0.000200176
0.000197537
0.000213268
0.000213261
0.000197551
0.000197589
0.000210666
0.000213235
0.000200168
0.000213236
0.000200176
0.000197586
0.000192328
0.000176539
0.000192298
0.000176537
0.000192266
0.00018967
0.000176593
0.000179164
0.000192264
0.000189678
0.000176615
0.000192328
0.000176539
0.000192299
0.000176537
0.000192266
0.00018967
0.000179164
0.000176594
0.000189678
0.000192263
0.000176615
0.000197539
0.000213269
0.000213262
0.000197552
0.000197591
0.000210667
0.000213237
0.000200169
0.000213237
0.000200177
0.000197587
0.000197539
0.000213269