/*--------------------------------*- C++ -*----------------------------------*\
| =========                 |                                                 |
| \\      /  F ield         | OpenFOAM: The Open Source CFD Toolbox           |
|  \\    /   O peration     | Version:  2206                                  |
|   \\  /    A nd           | Website:  www.openfoam.com                      |
|    \\/     M anipulation  |                                                 |
\*---------------------------------------------------------------------------*/
FoamFile
{
    version     2.0;
    format      ascii;
    arch        "LSB;label=32;scalar=64";
    class       volScalarField;
    location    "39.5";
    object      nut;
}
// * * * * * * * * * * * * * * * * * * * * * * * * * * * * * * * * * * * * * //

dimensions      [0 2 -1 0 0 0 0];

internalField   nonuniform List<scalar> 
28897
(
0.000207726
0.000171748
0.000171738
0.00014222
0.000207725
0.000171747
0.000171737
0.000142218
0.000207725
0.000171747
0.000171736
0.000142216
0.000207725
0.000171746
0.000171735
0.000142216
0.000207724
0.000171745
0.000171734
0.000142215
0.000207725
0.000171744
0.000171732
0.000142215
0.000207724
0.000171741
0.000171729
0.000142214
0.000207723
0.000171737
0.000171726
0.00014221
0.000207709
0.000171727
0.000171714
0.000142188
0.000207692
0.000171701
0.000171692
0.000142168
0.000207698
0.000171704
0.000171694
0.000142173
0.000207698
0.000171704
0.000171695
0.000142168
0.000207698
0.000171705
0.000171695
0.000142172
0.000207698
0.000171706
0.000171695
0.00014217
0.000207698
0.000171706
0.000171695
0.00014217
0.000207698
0.000171706
0.000171695
0.000142169
0.000207698
0.000171706
0.000171695
0.00014217
0.000207699
0.000171706
0.000171695
0.000142171
0.000142412
0.000171723
0.000171716
0.000142348
0.000171744
0.000171707
0.000171748
0.000171721
0.000142403
0.000171738
0.000171742
0.000142407
0.000142226
0.000142411
0.000171724
0.000171716
0.000171723
0.000171715
0.000142166
0.000142379
0.000171745
0.000171709
0.000171744
0.000171708
0.000171723
0.000171747
0.000171722
0.000142218
0.000142401
0.000171743
0.000171738
0.000171742
0.000142405
0.000142225
0.000142408
0.000171723
0.000171715
0.000171722
0.000171714
0.000142196
0.000142405
0.000171744
0.000171708
0.000171743
0.000171707
0.000171721
0.000171747
0.000171721
0.000142216
0.000142398
0.000171742
0.000171736
0.000171741
0.000142403
0.000142222
0.000142408
0.000171722
0.000171714
0.000171721
0.000171713
0.000142222
0.000142413
0.000171743
0.000171707
0.000171742
0.000171706
0.000171721
0.000171746
0.00017172
0.000142213
0.000142398
0.00017174
0.000171736
0.000171739
0.000142402
0.000142223
0.000142407
0.000171721
0.000171714
0.00017172
0.000171713
0.000142226
0.000142412
0.000171742
0.000171706
0.000171742
0.000171706
0.00017172
0.000171746
0.00017172
0.000142213
0.000142397
0.00017174
0.000171734
0.000171739
0.000142401
0.000142221
0.000142407
0.000171721
0.000171712
0.00017172
0.000171712
0.000142226
0.000142411
0.000171742
0.000171706
0.000171741
0.000171706
0.00017172
0.000171745
0.000171719
0.000142212
0.000142397
0.000171739
0.000171732
0.000171738
0.000142401
0.000142221
0.000142404
0.00017172
0.000171712
0.000171718
0.000171713
0.000142225
0.00014241
0.000171741
0.000171705
0.000171739
0.000171701
0.00017172
0.000171742
0.000171719
0.000142212
0.000142394
0.000171738
0.000171729
0.000171739
0.0001424
0.000142218
0.000142404
0.000171718
0.000171712
0.000171718
0.00017171
0.000142224
0.000142409
0.000171739
0.000171699
0.000171738
0.000171696
0.000171719
0.000171738
0.000171715
0.000142209
0.000142392
0.000171738
0.000171727
0.000171732
0.000142397
0.000142218
0.000142387
0.000171716
0.000171707
0.000171705
0.000171699
0.000142222
0.000142397
0.000171736
0.000171694
0.000171726
0.000171689
0.000171712
0.000171732
0.000171704
0.000142206
0.000142378
0.000171729
0.00017172
0.000171723
0.000142381
0.000142196
0.000142361
0.000171696
0.000171692
0.000171676
0.00017167
0.000142206
0.000142367
0.000171717
0.000171682
0.000171697
0.000171661
0.000171696
0.000171704
0.000171675
0.000142187
0.000142352
0.000171716
0.000171692
0.000171695
0.000142355
0.000142176
0.000142365
0.000171676
0.000171669
0.000171679
0.000171671
0.000142179
0.00014237
0.000171697
0.00017166
0.000171699
0.000171663
0.000171674
0.000171703
0.000171677
0.000142167
0.000142355
0.000171694
0.000171694
0.000171697
0.00014236
0.000142179
0.00014236
0.00017168
0.000171672
0.000171679
0.000171672
0.000142184
0.000142364
0.0001717
0.000171664
0.0001717
0.000171664
0.000171677
0.000171704
0.000171677
0.00014217
0.000142351
0.000171698
0.000171694
0.000171697
0.000142354
0.000142175
0.000142362
0.00017168
0.000171673
0.00017168
0.000171674
0.000142179
0.000142365
0.0001717
0.000171664
0.0001717
0.000171665
0.000171678
0.000171706
0.000171679
0.000142166
0.000142353
0.000171698
0.000171695
0.000171699
0.000142357
0.000142177
0.00014236
0.00017168
0.000171675
0.00017168
0.000171674
0.000142181
0.000142365
0.0001717
0.000171665
0.0001717
0.000171665
0.000171679
0.000171706
0.000171679
0.000142169
0.000142352
0.000171699
0.000171696
0.000171699
0.000142356
0.000142175
0.00014236
0.000171681
0.000171674
0.00017168
0.000171674
0.00014218
0.000142365
0.0001717
0.000171665
0.0001717
0.000171665
0.000171679
0.000171706
0.000171679
0.000142167
0.000142352
0.000171699
0.000171696
0.000171699
0.000142356
0.000142175
0.00014236
0.00017168
0.000171674
0.00017168
0.000171674
0.00014218
0.000142366
0.0001717
0.000171665
0.0001717
0.000171665
0.000171679
0.000171706
0.000171679
0.000142167
0.000142352
0.000171699
0.000171696
0.000171699
0.000142355
0.000142175
0.000142362
0.000171681
0.000171674
0.000171681
0.000171674
0.00014218
0.000142367
0.0001717
0.000171665
0.0001717
0.000171665
0.000171679
0.000171706
0.000171679
0.000142167
0.000142353
0.000171699
0.000171696
0.000171699
0.000142357
0.000142177
0.000142361
0.000171681
0.000171674
0.000171681
0.000171674
0.000142181
0.000142365
0.0001717
0.000171665
0.0001717
0.000171665
0.000171679
0.000171706
0.000171679
0.000142168
0.000142353
0.000171699
0.000171695
0.000171699
0.000142357
0.000142176
0.000171681
0.000171674
0.00014218
0.0001717
0.000171665
0.000171679
0.000142168
0.000171699
0.000207726
0.000207726
0.00020772
0.000207724
3.86695e-05
4.93896e-05
3.86641e-05
4.93887e-05
2.45103e-05
2.45102e-05
3.86762e-05
4.93887e-05
3.8671e-05
4.93879e-05
0.000207727
0.000207721
0.000207725
0.000207725
0.000207727
0.00020772
0.000207724
7.5852e-05
4.61533e-05
0.000192299
0.000171749
7.58277e-05
4.61628e-05
0.0001923
2.4507e-05
2.4507e-05
7.58555e-05
0.000192296
4.61575e-05
0.000171739
7.58313e-05
0.000192297
4.61666e-05
3.87231e-05
3.87208e-05
0.000142406
3.87257e-05
3.8724e-05
3.8673e-05
4.93891e-05
3.86674e-05
4.93884e-05
2.45097e-05
2.45097e-05
3.86795e-05
4.93882e-05
3.86743e-05
4.93875e-05
0.000207725
0.00020772
0.000207725
0.000207725
0.000207725
0.000207719
0.000207725
7.5853e-05
4.61566e-05
0.000192299
0.000171748
7.5829e-05
4.6166e-05
0.000192299
2.45066e-05
2.45067e-05
7.58561e-05
0.000192297
4.61607e-05
0.000171737
7.5832e-05
0.000192297
4.61698e-05
3.87267e-05
3.87257e-05
0.000142403
3.87296e-05
3.87287e-05
3.86762e-05
4.9389e-05
3.86708e-05
4.93884e-05
2.45095e-05
2.45096e-05
3.86827e-05
4.9388e-05
3.86776e-05
4.93875e-05
0.000207726
0.000207719
0.000207724
0.000207725
0.000207726
0.000207719
0.000207724
7.58538e-05
4.61597e-05
0.000192298
0.000171747
7.58298e-05
4.61689e-05
0.000192298
2.45065e-05
2.45066e-05
7.58566e-05
0.000192295
4.61636e-05
0.000171736
7.58324e-05
0.000192295
4.61725e-05
3.87306e-05
3.873e-05
0.000142402
3.87332e-05
3.87325e-05
3.8679e-05
4.93891e-05
3.86738e-05
4.93885e-05
2.45094e-05
2.45096e-05
3.86854e-05
4.93881e-05
3.86806e-05
4.93875e-05
0.000207727
0.000207719
0.000207725
0.000207724
0.000207725
0.000207718
0.000207725
7.58552e-05
4.61621e-05
0.000192298
0.000171746
7.58309e-05
4.6171e-05
0.000192299
2.45065e-05
2.45066e-05
7.58575e-05
0.000192295
4.61658e-05
0.000171735
7.58331e-05
0.000192296
4.61744e-05
3.87338e-05
3.87324e-05
0.000142401
3.87361e-05
3.87342e-05
3.86808e-05
4.93892e-05
3.8676e-05
4.93886e-05
2.45095e-05
2.45097e-05
3.86872e-05
4.93882e-05
3.86827e-05
4.93877e-05
0.000207726
0.000207717
0.000207727
0.000207726
0.000207727
0.000207718
0.000207726
7.58565e-05
4.61639e-05
0.000192299
0.000171746
7.58323e-05
4.61726e-05
0.000192299
2.45065e-05
2.45067e-05
7.58583e-05
0.000192295
4.61673e-05
0.000171733
7.58341e-05
0.000192293
4.61757e-05
3.87363e-05
3.87336e-05
0.000142401
3.87383e-05
3.87353e-05
3.86819e-05
4.93894e-05
3.86774e-05
4.93888e-05
2.45096e-05
2.45099e-05
3.86882e-05
4.93884e-05
3.8684e-05
4.93879e-05
0.000207727
0.000207717
0.000207725
0.000207723
0.000207725
0.000207715
0.000207723
7.58584e-05
4.61652e-05
0.000192298
0.000171743
7.58339e-05
4.61738e-05
0.000192296
2.45067e-05
2.45069e-05
7.58594e-05
0.000192292
4.61685e-05
0.00017173
7.58351e-05
0.000192291
4.61767e-05
3.8738e-05
3.87348e-05
0.0001424
3.87397e-05
3.87365e-05
3.86817e-05
4.93896e-05
3.86779e-05
4.93891e-05
2.45098e-05
2.45101e-05
3.86881e-05
4.93886e-05
3.86845e-05
4.93882e-05
0.000207724
0.000207715
0.000207723
0.000207723
0.00020772
0.000207714
0.00020772
7.58596e-05
4.6166e-05
0.000192294
0.000171739
7.58358e-05
4.61742e-05
0.000192293
2.45069e-05
2.45071e-05
7.58599e-05
0.00019229
4.61691e-05
0.000171728
7.5836e-05
0.000192288
4.61768e-05
3.87387e-05
3.87353e-05
0.000142399
3.87399e-05
3.87364e-05
3.8677e-05
4.939e-05
3.86754e-05
4.93896e-05
2.45101e-05
2.45101e-05
3.86833e-05
4.93891e-05
3.86821e-05
4.93887e-05
0.000207718
0.000207714
0.00020772
0.000207717
0.000207716
0.000207711
0.000207715
7.58506e-05
4.61647e-05
0.000192292
0.000171736
7.58329e-05
4.61712e-05
0.000192291
2.4507e-05
2.4507e-05
7.58509e-05
0.000192287
4.61673e-05
0.000171724
7.58329e-05
0.000192286
4.61734e-05
3.87378e-05
3.87344e-05
0.000142393
3.87385e-05
3.87354e-05
3.86709e-05
4.93902e-05
3.86686e-05
4.93894e-05
2.45097e-05
2.45097e-05
3.86773e-05
4.93893e-05
3.86753e-05
4.93885e-05
0.000207712
0.000207705
0.000207708
0.000207691
0.000207693
0.000207685
0.00020769
7.58266e-05
4.6159e-05
0.000192281
0.000171718
7.58151e-05
4.61646e-05
0.000192271
2.45067e-05
2.45067e-05
7.58251e-05
0.000192275
4.61615e-05
0.000171705
7.58146e-05
0.000192264
4.61668e-05
3.8736e-05
3.87333e-05
0.000142364
3.87366e-05
3.87338e-05
3.86672e-05
4.93897e-05
3.86639e-05
4.9389e-05
2.45095e-05
2.45096e-05
3.86736e-05
4.93889e-05
3.86707e-05
4.93881e-05
0.000207693
0.000207687
0.00020769
0.000207698
0.000207698
0.000207692
0.000207696
7.58187e-05
4.61521e-05
0.000192258
0.000171702
7.57932e-05
4.61586e-05
0.000192259
2.45065e-05
2.45066e-05
7.58214e-05
0.000192255
4.6155e-05
0.000171693
7.5795e-05
0.000192256
4.61616e-05
3.87337e-05
3.87307e-05
0.00014236
3.87341e-05
3.87312e-05
3.8666e-05
4.939e-05
3.8662e-05
4.93897e-05
2.45091e-05
2.45092e-05
3.86725e-05
4.93883e-05
3.86688e-05
4.93875e-05
0.000207699
0.000207693
0.000207696
0.000207698
0.000207698
0.000207692
0.000207696
7.58216e-05
4.61488e-05
0.000192262
0.000171704
7.57975e-05
4.61566e-05
0.000192262
2.45064e-05
2.45065e-05
7.58239e-05
0.000192259
4.61525e-05
0.000171694
7.57997e-05
0.000192259
4.61603e-05
3.87318e-05
3.8729e-05
0.000142356
3.87329e-05
3.87301e-05
3.86658e-05
4.93907e-05
3.86615e-05
4.93902e-05
2.4509e-05
2.4509e-05
3.86723e-05
4.93878e-05
3.86684e-05
4.93871e-05
0.000207699
0.000207693
0.000207697
0.000207698
0.000207699
0.000207693
0.000207697
7.58209e-05
4.61481e-05
0.000192262
0.000171705
7.57974e-05
4.61563e-05
0.000192262
2.45064e-05
2.45065e-05
7.58225e-05
0.000192258
4.61521e-05
0.000171695
7.57988e-05
0.000192259
4.61601e-05
3.87314e-05
3.87287e-05
0.000142355
3.87327e-05
3.873e-05
3.86658e-05
4.93909e-05
3.86615e-05
4.93903e-05
2.45089e-05
2.45091e-05
3.86723e-05
4.93877e-05
3.86684e-05
4.9387e-05
0.000207699
0.000207693
0.000207697
0.000207698
0.000207699
0.000207692
0.000207697
7.58217e-05
4.61481e-05
0.000192263
0.000171706
7.57979e-05
4.61563e-05
0.000192263
2.45064e-05
2.45065e-05
7.58221e-05
0.000192259
4.61521e-05
0.000171696
7.57981e-05
0.000192259
4.61602e-05
3.87314e-05
3.87287e-05
0.000142357
3.87327e-05
3.873e-05
3.86658e-05
4.9391e-05
3.86615e-05
4.93905e-05
2.45089e-05
2.45091e-05
3.86723e-05
4.93876e-05
3.86684e-05
4.9387e-05
0.000207699
0.000207693
0.000207697
0.000207698
0.000207699
0.000207692
0.000207697
7.58215e-05
4.61481e-05
0.000192263
0.000171706
7.57976e-05
4.61563e-05
0.000192263
2.45064e-05
2.45065e-05
7.58216e-05
0.000192259
4.61522e-05
0.000171696
7.57972e-05
0.000192259
4.61602e-05
3.87314e-05
3.87287e-05
0.000142356
3.87327e-05
3.873e-05
3.86658e-05
4.93911e-05
3.86615e-05
4.93906e-05
2.45089e-05
2.45091e-05
3.86723e-05
4.93876e-05
3.86684e-05
4.93869e-05
0.0002077
0.000207693
0.000207697
0.000207698
0.000207699
0.000207692
0.000207697
7.58215e-05
4.61481e-05
0.000192263
0.000171706
7.57978e-05
4.61563e-05
0.000192263
2.45064e-05
2.45065e-05
7.58214e-05
0.000192259
4.61522e-05
0.000171696
7.57971e-05
0.000192259
4.61602e-05
3.87314e-05
3.87287e-05
0.000142357
3.87327e-05
3.873e-05
3.86658e-05
4.93912e-05
3.86615e-05
4.93906e-05
2.45089e-05
2.4509e-05
3.86723e-05
4.93876e-05
3.86684e-05
4.93869e-05
0.0002077
0.000207693
0.000207697
0.000207698
0.000207699
0.000207692
0.000207697
7.58213e-05
4.61481e-05
0.000192263
0.000171706
7.57977e-05
4.61563e-05
0.000192263
2.45064e-05
2.45065e-05
7.5821e-05
0.000192259
4.61522e-05
0.000171696
7.57967e-05
0.00019226
4.61602e-05
3.87314e-05
3.87287e-05
0.000142356
3.87327e-05
3.873e-05
3.86658e-05
4.93912e-05
3.86615e-05
4.93907e-05
2.45089e-05
2.4509e-05
3.86723e-05
4.93875e-05
3.86684e-05
4.93869e-05
0.0002077
0.000207693
0.000207697
0.000207699
0.000207699
0.000207692
0.000207697
7.58213e-05
4.61481e-05
0.000192263
0.000171706
7.57978e-05
4.61563e-05
0.000192263
2.45064e-05
2.45065e-05
7.58207e-05
0.000192259
4.61522e-05
0.000171696
7.57966e-05
0.00019226
4.61602e-05
3.87314e-05
3.87287e-05
0.000142355
3.87327e-05
3.873e-05
4.93913e-05
3.86615e-05
2.45089e-05
4.93875e-05
3.86683e-05
0.0002077
0.000207693
0.000207697
4.61481e-05
0.000192263
7.57977e-05
2.45064e-05
0.00019226
4.61522e-05
7.57965e-05
3.87314e-05
3.87287e-05
2.45101e-05
2.45102e-05
2.4509e-05
2.45091e-05
0.000142198
3.87255e-05
3.8723e-05
3.87176e-05
3.87236e-05
3.86624e-05
4.93891e-05
4.939e-05
3.86679e-05
3.86634e-05
4.93918e-05
4.93926e-05
3.8669e-05
7.58304e-05
0.000171723
4.61624e-05
0.000192296
4.61528e-05
0.000192296
7.58534e-05
7.58315e-05
0.000171717
4.61666e-05
0.000192295
4.61577e-05
0.000192295
7.58545e-05
2.45105e-05
3.87203e-05
3.87199e-05
2.45106e-05
3.86693e-05
4.93882e-05
4.93891e-05
3.86746e-05
7.58309e-05
0.000171744
4.61646e-05
0.000192298
4.61557e-05
0.000192299
7.58536e-05
3.86683e-05
4.93832e-05
4.93841e-05
3.86735e-05
7.58306e-05
0.000171708
0.000192291
4.61561e-05
0.000192291
4.61467e-05
7.58536e-05
4.61611e-05
0.000192299
0.000192299
7.58512e-05
4.93894e-05
3.86676e-05
0.000171722
0.000192297
4.61648e-05
0.000192297
7.58507e-05
4.93872e-05
3.86676e-05
2.45072e-05
2.45074e-05
0.000142189
3.87146e-05
3.87245e-05
3.87131e-05
3.87246e-05
2.45099e-05
2.451e-05
7.58321e-05
0.000171739
0.000192295
4.6165e-05
0.000192295
4.61561e-05
7.58551e-05
7.58304e-05
0.000171742
0.000192297
4.61638e-05
0.000192297
4.61548e-05
7.58538e-05
3.86692e-05
4.93869e-05
4.93878e-05
3.86744e-05
3.86693e-05
4.93873e-05
4.93882e-05
3.86746e-05
0.000142193
3.87241e-05
3.87215e-05
3.87213e-05
2.45098e-05
2.45087e-05
2.45088e-05
2.45099e-05
2.45099e-05
2.45088e-05
2.45087e-05
3.87273e-05
3.87221e-05
0.000142412
3.87332e-05
3.87255e-05
2.45098e-05
2.45098e-05
2.45085e-05
2.45085e-05
0.000142226
3.87328e-05
3.87279e-05
3.87313e-05
3.87245e-05
3.86706e-05
4.93923e-05
3.86651e-05
4.93915e-05
7.58539e-05
4.61549e-05
0.000192297
0.000171724
7.58311e-05
4.61646e-05
0.000192297
7.58551e-05
4.61592e-05
0.000192296
0.000171716
7.58322e-05
4.61681e-05
0.000192295
3.86657e-05
4.93885e-05
4.93893e-05
3.86713e-05
3.86668e-05
4.93913e-05
4.9392e-05
3.86723e-05
7.58316e-05
0.000171724
4.61663e-05
0.000192297
4.6157e-05
0.000192297
7.58543e-05
7.58327e-05
0.000171715
4.61697e-05
0.000192296
4.61607e-05
0.000192296
7.58554e-05
3.87195e-05
3.87185e-05
0.000142365
3.87231e-05
3.87214e-05
2.45104e-05
2.45103e-05
2.45099e-05
2.451e-05
0.000142183
3.87256e-05
3.87227e-05
3.8722e-05
3.87197e-05
2.45101e-05
2.45101e-05
7.58541e-05
4.61572e-05
0.0001923
0.000171745
7.58317e-05
4.61662e-05
0.000192299
3.86751e-05
4.93838e-05
3.867e-05
4.93829e-05
7.58541e-05
0.000192292
4.61484e-05
0.000171709
7.58314e-05
0.000192292
4.61577e-05
3.86727e-05
4.93877e-05
4.93884e-05
3.86778e-05
7.58321e-05
0.000171745
4.61678e-05
0.000192298
4.61588e-05
0.000192299
7.58545e-05
3.86717e-05
4.93827e-05
4.93835e-05
3.86768e-05
7.58318e-05
0.000171708
0.000192292
4.61593e-05
0.000192292
4.615e-05
7.58544e-05
3.86694e-05
4.939e-05
3.86638e-05
4.93892e-05
7.58515e-05
0.000192297
4.61573e-05
0.000171722
7.58288e-05
0.000192297
4.61663e-05
3.86693e-05
4.93878e-05
3.86637e-05
4.93869e-05
7.58298e-05
0.000171748
4.61644e-05
0.000192299
4.61552e-05
0.0001923
7.58526e-05
3.86656e-05
4.9389e-05
4.93898e-05
3.86712e-05
7.58295e-05
0.000171722
0.000192297
4.61677e-05
0.000192297
4.61588e-05
7.58521e-05
3.86656e-05
4.93867e-05
4.93875e-05
3.86712e-05
3.87129e-05
3.87234e-05
0.000142402
3.87158e-05
3.8727e-05
2.45097e-05
2.45096e-05
2.45068e-05
2.45068e-05
0.000142217
3.87172e-05
3.87294e-05
3.87141e-05
3.87258e-05
2.45094e-05
2.45094e-05
7.58543e-05
0.000192298
4.61563e-05
0.000171743
7.5831e-05
0.000192298
4.61654e-05
3.8676e-05
4.93874e-05
3.86709e-05
4.93866e-05
3.86763e-05
4.93878e-05
3.86711e-05
4.9387e-05
7.58331e-05
0.000171739
0.000192297
4.61682e-05
0.000192297
4.61592e-05
7.58559e-05
7.58314e-05
0.000171743
0.000192298
4.6167e-05
0.000192298
4.61579e-05
7.58546e-05
3.86725e-05
4.93864e-05
4.93871e-05
3.86777e-05
3.86727e-05
4.93868e-05
4.93875e-05
3.86779e-05
2.45096e-05
2.45094e-05
2.45085e-05
2.45084e-05
0.000142221
3.87276e-05
3.87264e-05
3.87244e-05
3.87228e-05
2.45092e-05
2.45093e-05
2.45082e-05
2.45082e-05
2.45096e-05
2.45097e-05
2.45083e-05
2.45084e-05
3.87307e-05
3.87269e-05
0.000142409
3.87322e-05
3.87302e-05
2.45096e-05
2.45095e-05
2.45083e-05
2.45082e-05
0.000142223
3.87316e-05
3.87322e-05
3.873e-05
3.87291e-05
3.86739e-05
4.93918e-05
3.86684e-05
4.93911e-05
7.58544e-05
4.61586e-05
0.000192296
0.000171723
7.58319e-05
4.61677e-05
0.000192296
7.58556e-05
4.61623e-05
0.000192294
0.000171714
7.5833e-05
4.61712e-05
0.000192293
3.86692e-05
4.93884e-05
4.9389e-05
3.86746e-05
3.86701e-05
4.9391e-05
4.93917e-05
3.86756e-05
7.58321e-05
0.000171722
4.61689e-05
0.000192294
4.616e-05
0.000192295
7.58548e-05
7.58332e-05
0.000171714
4.61727e-05
0.000192292
4.61639e-05
0.000192293
7.58559e-05
3.87244e-05
3.87211e-05
0.000142391
3.8728e-05
3.87242e-05
2.45099e-05
2.45099e-05
2.45096e-05
2.45096e-05
0.000142209
3.87302e-05
3.87257e-05
3.87268e-05
3.87226e-05
2.45098e-05
2.45098e-05
7.58547e-05
4.61604e-05
0.000192298
0.000171744
7.58325e-05
4.61694e-05
0.000192298
3.86786e-05
4.93833e-05
3.86734e-05
4.93825e-05
7.58546e-05
0.00019229
4.61516e-05
0.000171707
7.58321e-05
0.00019229
4.61608e-05
3.8676e-05
4.93875e-05
4.93881e-05
3.86811e-05
7.58327e-05
0.000171743
4.61708e-05
0.000192298
4.6162e-05
0.000192299
7.5855e-05
3.86751e-05
4.93825e-05
4.93832e-05
3.86802e-05
7.58324e-05
0.000171707
0.000192289
4.61622e-05
0.000192289
4.61531e-05
7.58549e-05
3.86728e-05
4.93896e-05
3.86674e-05
4.93888e-05
7.58527e-05
0.000192296
4.61602e-05
0.000171721
7.58301e-05
0.000192296
4.61692e-05
3.86728e-05
4.93873e-05
3.86674e-05
4.93866e-05
7.58309e-05
0.000171748
4.61676e-05
0.000192298
4.61584e-05
0.000192299
7.58534e-05
3.8669e-05
4.93888e-05
4.93895e-05
3.86741e-05
7.58307e-05
0.000171721
0.000192296
4.61708e-05
0.000192296
4.61618e-05
7.58531e-05
3.8669e-05
4.93865e-05
4.93872e-05
3.86741e-05
3.87155e-05
3.87282e-05
0.000142399
3.87187e-05
3.87317e-05
2.45092e-05
2.45092e-05
2.45066e-05
2.45066e-05
0.000142214
3.87201e-05
3.87338e-05
3.8717e-05
3.87305e-05
2.45092e-05
2.45091e-05
7.58549e-05
0.000192296
4.61595e-05
0.000171742
7.58317e-05
0.000192296
4.61686e-05
3.86794e-05
4.93869e-05
3.86742e-05
4.93862e-05
3.86796e-05
4.93873e-05
3.86744e-05
4.93866e-05
7.58336e-05
0.000171736
0.000192295
4.61712e-05
0.000192296
4.61624e-05
7.58563e-05
7.58319e-05
0.000171741
0.000192295
4.617e-05
0.000192295
4.61611e-05
7.58551e-05
3.86759e-05
4.93861e-05
4.93868e-05
3.8681e-05
3.86761e-05
4.93865e-05
4.93872e-05
3.86812e-05
2.4509e-05
2.4509e-05
2.4508e-05
2.45081e-05
0.000142218
3.87315e-05
3.87308e-05
3.87283e-05
3.87275e-05
2.4509e-05
2.45089e-05
2.4508e-05
2.45079e-05
2.45094e-05
2.45095e-05
2.45082e-05
2.45083e-05
3.87294e-05
3.8731e-05
0.000142407
3.8731e-05
3.87337e-05
2.45095e-05
2.45094e-05
2.45083e-05
2.45082e-05
0.000142222
3.87305e-05
3.87348e-05
3.87289e-05
3.87324e-05
3.86771e-05
4.93916e-05
3.86717e-05
4.9391e-05
7.58553e-05
4.61611e-05
0.000192294
0.000171722
7.58325e-05
4.61699e-05
0.000192294
7.58564e-05
4.61653e-05
0.000192292
0.000171714
7.58336e-05
4.6174e-05
0.000192292
3.86724e-05
4.93885e-05
4.93891e-05
3.86777e-05
3.86733e-05
4.93911e-05
4.93916e-05
3.86786e-05
7.5833e-05
0.000171722
4.61707e-05
0.000192293
4.6162e-05
0.000192293
7.58558e-05
7.58341e-05
0.000171714
4.61751e-05
0.000192292
4.61665e-05
0.000192292
7.58569e-05
3.87289e-05
3.8724e-05
0.000142412
3.8732e-05
3.8727e-05
2.45097e-05
2.45098e-05
2.45096e-05
2.45095e-05
0.000142227
3.87333e-05
3.87281e-05
3.87306e-05
3.87254e-05
2.45098e-05
2.45097e-05
7.58555e-05
4.61633e-05
0.000192298
0.000171743
7.58331e-05
4.61721e-05
0.000192297
3.86818e-05
4.93832e-05
3.86768e-05
4.93826e-05
7.58555e-05
0.000192289
4.61544e-05
0.000171707
7.58327e-05
0.000192289
4.61634e-05
3.86792e-05
4.93875e-05
4.93881e-05
3.86842e-05
7.58336e-05
0.000171743
4.61731e-05
0.000192297
4.61645e-05
0.000192298
7.58561e-05
3.86783e-05
4.93826e-05
4.93832e-05
3.86833e-05
7.58333e-05
0.000171707
0.000192289
4.61645e-05
0.000192289
4.61556e-05
7.58561e-05
3.8675e-05
4.93895e-05
3.86701e-05
4.93888e-05
7.58537e-05
0.000192296
4.61632e-05
0.000171721
7.58312e-05
0.000192296
4.6172e-05
3.86751e-05
4.93871e-05
3.86702e-05
4.93865e-05
7.58317e-05
0.000171747
4.617e-05
0.000192298
4.61612e-05
0.000192298
7.58545e-05
3.8671e-05
4.93889e-05
4.93895e-05
3.8676e-05
7.58317e-05
0.000171721
0.000192296
4.61728e-05
0.000192296
4.61643e-05
7.58543e-05
3.86711e-05
4.93865e-05
4.93871e-05
3.8676e-05
3.87184e-05
3.87325e-05
0.000142397
3.87213e-05
3.87354e-05
2.45091e-05
2.45092e-05
2.45066e-05
2.45065e-05
0.000142213
3.87222e-05
3.87365e-05
3.87195e-05
3.8734e-05
2.45092e-05
2.45091e-05
7.58555e-05
0.000192294
4.61624e-05
0.00017174
7.58322e-05
0.000192294
4.61713e-05
3.86825e-05
4.93868e-05
3.86775e-05
4.93862e-05
3.86827e-05
4.93871e-05
3.86777e-05
4.93865e-05
7.58342e-05
0.000171736
0.000192295
4.61735e-05
0.000192295
4.6165e-05
7.5857e-05
7.58326e-05
0.00017174
0.000192295
4.61723e-05
0.000192295
4.61637e-05
7.58559e-05
3.8679e-05
4.93862e-05
4.93868e-05
3.86839e-05
3.86792e-05
4.93866e-05
4.93872e-05
3.86842e-05
2.45088e-05
2.45089e-05
2.45079e-05
2.4508e-05
0.000142217
3.87348e-05
3.87336e-05
3.87319e-05
3.87311e-05
2.45089e-05
2.45088e-05
2.4508e-05
2.45079e-05
2.45094e-05
2.45095e-05
2.45081e-05
2.45083e-05
3.87285e-05
3.87334e-05
0.000142407
3.87306e-05
3.87354e-05
2.45095e-05
2.45094e-05
2.45083e-05
2.45082e-05
0.000142221
3.87311e-05
3.87359e-05
3.87286e-05
3.87339e-05
3.86798e-05
4.93917e-05
3.86747e-05
4.93911e-05
7.58563e-05
4.61628e-05
0.000192293
0.000171721
7.58336e-05
4.61714e-05
0.000192293
7.58575e-05
4.61676e-05
0.000192293
0.000171713
7.58346e-05
4.6176e-05
0.000192293
3.8675e-05
4.93886e-05
4.93892e-05
3.868e-05
3.86759e-05
4.93912e-05
4.93917e-05
3.86809e-05
7.58341e-05
0.000171721
4.61722e-05
0.000192292
4.61636e-05
0.000192293
7.5857e-05
7.58351e-05
0.000171713
4.61768e-05
0.000192292
4.61685e-05
0.000192292
7.58581e-05
3.87319e-05
3.87264e-05
0.000142411
3.87342e-05
3.87291e-05
2.45097e-05
2.45098e-05
2.45096e-05
2.45095e-05
0.000142225
3.87347e-05
3.87299e-05
3.87326e-05
3.87273e-05
2.45098e-05
2.45097e-05
7.58568e-05
4.61655e-05
0.000192297
0.000171742
7.58342e-05
4.6174e-05
0.000192296
3.86845e-05
4.93833e-05
3.86798e-05
4.93827e-05
7.58568e-05
0.000192288
4.61566e-05
0.000171706
7.58339e-05
0.000192288
4.61654e-05
3.86818e-05
4.93876e-05
4.93881e-05
3.86864e-05
7.58349e-05
0.000171742
4.61747e-05
0.000192296
4.61664e-05
0.000192297
7.58574e-05
3.8681e-05
4.93828e-05
4.93834e-05
3.86855e-05
7.58346e-05
0.000171706
0.000192288
4.61662e-05
0.000192288
4.61575e-05
7.58574e-05
3.86772e-05
4.93895e-05
3.8672e-05
4.93889e-05
7.58552e-05
0.000192297
4.61651e-05
0.00017172
7.58325e-05
0.000192297
4.61734e-05
3.86773e-05
4.93871e-05
3.86721e-05
4.93865e-05
7.58331e-05
0.000171746
4.61719e-05
0.000192299
4.61632e-05
0.000192298
7.58558e-05
3.86734e-05
4.9389e-05
4.93896e-05
3.86787e-05
7.58332e-05
0.00017172
0.000192297
4.61742e-05
0.000192297
4.61658e-05
7.58558e-05
3.86734e-05
4.93866e-05
4.93871e-05
3.86788e-05
3.87203e-05
3.8735e-05
0.000142397
3.87229e-05
3.87371e-05
2.45091e-05
2.45092e-05
2.45066e-05
2.45065e-05
0.000142212
3.87236e-05
3.87376e-05
3.8721e-05
3.87355e-05
2.45092e-05
2.45091e-05
7.58566e-05
0.000192295
4.61647e-05
0.000171739
7.58331e-05
0.000192295
4.61732e-05
3.86851e-05
4.93868e-05
3.86803e-05
4.93862e-05
3.86854e-05
4.93872e-05
3.86806e-05
4.93866e-05
7.58351e-05
0.000171735
0.000192295
4.61751e-05
0.000192295
4.61668e-05
7.58579e-05
7.58338e-05
0.000171739
0.000192295
4.61739e-05
0.000192295
4.61655e-05
7.58571e-05
3.86815e-05
4.93863e-05
4.93869e-05
3.8686e-05
3.86818e-05
4.93867e-05
4.93872e-05
3.86864e-05
2.45088e-05
2.4509e-05
2.45079e-05
2.4508e-05
0.000142216
3.87373e-05
3.87348e-05
3.87347e-05
3.87326e-05
2.4509e-05
2.45089e-05
2.4508e-05
2.45079e-05
2.45094e-05
2.45096e-05
2.45082e-05
2.45084e-05
3.87292e-05
3.87345e-05
0.000142406
3.87317e-05
3.87365e-05
2.45097e-05
2.45095e-05
2.45085e-05
2.45083e-05
0.000142221
3.87324e-05
3.87373e-05
3.87299e-05
3.87352e-05
3.86817e-05
4.93918e-05
3.86769e-05
4.93913e-05
7.58578e-05
4.61643e-05
0.000192292
0.000171721
7.58348e-05
4.61729e-05
0.000192292
7.58589e-05
4.61692e-05
0.000192291
0.000171712
7.58358e-05
4.61775e-05
0.000192291
3.86768e-05
4.93887e-05
4.93893e-05
3.86815e-05
3.86776e-05
4.93913e-05
4.93919e-05
3.86823e-05
7.58356e-05
0.000171721
4.61735e-05
0.000192292
4.6165e-05
0.000192293
7.58587e-05
7.58366e-05
0.000171712
4.61781e-05
0.00019229
4.61699e-05
0.000192291
7.58598e-05
3.87332e-05
3.87281e-05
0.000142411
3.87353e-05
3.87307e-05
2.45097e-05
2.45099e-05
2.45098e-05
2.45096e-05
0.000142225
3.87359e-05
3.87314e-05
3.87337e-05
3.87289e-05
2.45099e-05
2.45098e-05
7.58582e-05
4.61671e-05
0.000192296
0.000171742
7.58356e-05
4.61754e-05
0.000192295
3.86863e-05
4.93834e-05
3.86819e-05
4.93828e-05
7.58582e-05
0.000192287
4.61583e-05
0.000171705
7.58352e-05
0.000192287
4.61669e-05
3.86835e-05
4.93878e-05
4.93883e-05
3.86878e-05
7.58363e-05
0.000171742
4.61761e-05
0.000192294
4.61678e-05
0.000192296
7.58589e-05
3.86826e-05
4.93829e-05
4.93835e-05
3.86868e-05
7.5836e-05
0.000171706
0.000192287
4.61675e-05
0.000192288
4.6159e-05
7.58588e-05
3.86801e-05
4.93896e-05
3.86749e-05
4.9389e-05
7.58566e-05
0.000192298
4.61666e-05
0.00017172
7.58339e-05
0.000192297
4.61752e-05
3.86802e-05
4.93872e-05
3.8675e-05
4.93867e-05
7.58344e-05
0.000171746
4.61733e-05
0.000192298
4.61648e-05
0.000192298
7.58573e-05
3.86762e-05
4.93891e-05
4.93897e-05
3.86814e-05
7.58346e-05
0.000171719
0.000192297
4.61762e-05
0.000192297
4.61676e-05
7.58573e-05
3.86763e-05
4.93868e-05
4.93873e-05
3.86815e-05
3.87217e-05
3.8736e-05
0.000142396
3.87243e-05
3.87382e-05
2.45091e-05
2.45093e-05
2.45068e-05
2.45066e-05
0.000142211
3.87249e-05
3.87389e-05
3.87224e-05
3.87367e-05
2.45094e-05
2.45092e-05
7.58576e-05
0.000192294
4.61662e-05
0.000171739
7.58343e-05
0.000192294
4.61746e-05
3.86867e-05
4.93869e-05
3.86823e-05
4.93864e-05
3.86871e-05
4.93873e-05
3.86827e-05
4.93868e-05
7.5836e-05
0.000171733
0.000192292
4.61763e-05
0.000192293
4.61681e-05
7.58589e-05
7.58348e-05
0.000171738
0.000192295
4.61752e-05
0.000192295
4.61669e-05
7.58581e-05
3.86829e-05
4.93865e-05
4.9387e-05
3.86872e-05
3.86833e-05
4.93869e-05
4.93874e-05
3.86876e-05
2.45089e-05
2.45091e-05
2.45079e-05
2.45081e-05
0.000142216
3.87392e-05
3.8736e-05
3.87368e-05
3.87338e-05
2.45092e-05
2.4509e-05
2.45082e-05
2.4508e-05
2.45096e-05
2.45098e-05
2.45084e-05
2.45086e-05
3.87306e-05
3.87358e-05
0.000142405
3.8733e-05
3.87378e-05
2.45099e-05
2.45097e-05
2.45087e-05
2.45085e-05
0.000142219
3.87332e-05
3.87381e-05
3.87311e-05
3.87364e-05
3.86828e-05
4.9392e-05
3.86783e-05
4.93914e-05
7.58594e-05
4.61656e-05
0.000192292
0.00017172
7.58366e-05
4.6174e-05
0.000192292
7.58606e-05
4.61704e-05
0.000192291
0.000171712
7.58376e-05
4.61786e-05
0.000192291
3.86778e-05
4.93889e-05
4.93895e-05
3.86822e-05
3.86786e-05
4.93915e-05
4.93921e-05
3.8683e-05
7.58371e-05
0.000171718
4.61743e-05
0.000192292
4.6166e-05
0.000192292
7.58598e-05
7.58383e-05
0.000171713
4.61789e-05
0.000192292
4.61709e-05
0.000192292
7.58609e-05
3.87344e-05
3.87296e-05
0.00014241
3.87365e-05
3.8732e-05
2.45099e-05
2.451e-05
2.451e-05
2.45098e-05
0.000142224
3.87368e-05
3.87324e-05
3.87349e-05
3.87301e-05
2.45101e-05
2.451e-05
7.58594e-05
4.61684e-05
0.000192294
0.000171741
7.5837e-05
4.61765e-05
0.000192293
3.86872e-05
4.93836e-05
3.86831e-05
4.9383e-05
7.58595e-05
0.000192286
4.61596e-05
0.000171704
7.58367e-05
0.000192286
4.6168e-05
3.86844e-05
4.9388e-05
4.93885e-05
3.86885e-05
7.58375e-05
0.000171739
4.61768e-05
0.000192293
4.61688e-05
0.000192293
7.58598e-05
3.86835e-05
4.93831e-05
4.93837e-05
3.86876e-05
7.58373e-05
0.000171704
0.000192286
4.61683e-05
0.000192286
4.616e-05
7.58598e-05
3.86822e-05
4.93898e-05
3.86774e-05
4.93892e-05
7.58586e-05
0.000192297
4.61686e-05
0.000171719
7.58356e-05
0.000192296
4.61772e-05
3.86824e-05
4.93874e-05
3.86775e-05
4.93869e-05
7.58364e-05
0.000171742
4.61742e-05
0.000192295
4.61659e-05
0.000192295
7.58593e-05
3.86782e-05
4.93893e-05