/*--------------------------------*- C++ -*----------------------------------*\
| =========                 |                                                 |
| \\      /  F ield         | OpenFOAM: The Open Source CFD Toolbox           |
|  \\    /   O peration     | Version:  2206                                  |
|   \\  /    A nd           | Website:  www.openfoam.com                      |
|    \\/     M anipulation  |                                                 |
\*---------------------------------------------------------------------------*/
FoamFile
{
    version     2.0;
    format      ascii;
    arch        "LSB;label=32;scalar=64";
    class       volVectorField;
    location    "40";
    object      U;
}
// * * * * * * * * * * * * * * * * * * * * * * * * * * * * * * * * * * * * * //

dimensions      [0 1 -1 0 0 0 0];

internalField   nonuniform List<vector> 
28335
(
(-9.62257e-07 -9.56134e-07 0.104269)
(-6.40708e-07 1.00096e-06 0.104122)
(9.96497e-07 -6.40244e-07 0.104122)
(-4.92419e-05 -4.92551e-05 0.103925)
(-9.65597e-07 -9.60174e-07 0.104269)
(-6.34767e-07 1.00001e-06 0.104122)
(9.95602e-07 -6.34925e-07 0.104122)
(-4.92317e-05 -4.92457e-05 0.103925)
(-9.65953e-07 -9.60827e-07 0.104269)
(-6.28916e-07 9.97053e-07 0.104122)
(9.93481e-07 -6.30402e-07 0.104122)
(-4.92251e-05 -4.92399e-05 0.103925)
(-9.67868e-07 -9.63357e-07 0.104269)
(-6.30071e-07 9.98358e-07 0.104122)
(9.94724e-07 -6.29946e-07 0.104122)
(-4.9222e-05 -4.92367e-05 0.103925)
(-9.69317e-07 -9.63262e-07 0.104269)
(-6.27878e-07 9.977e-07 0.104122)
(9.92219e-07 -6.29229e-07 0.104122)
(-4.9217e-05 -4.92329e-05 0.103925)
(-9.77364e-07 -9.75619e-07 0.104269)
(-6.04114e-07 9.78272e-07 0.104122)
(9.78708e-07 -6.03682e-07 0.104122)
(-4.92093e-05 -4.92214e-05 0.103925)
(-9.77581e-07 -9.77946e-07 0.104269)
(-5.88805e-07 9.58053e-07 0.104122)
(9.64705e-07 -5.8896e-07 0.104122)
(-4.9225e-05 -4.92378e-05 0.103925)
(-8.83191e-07 -8.80178e-07 0.104269)
(-7.65188e-07 1.08967e-06 0.104122)
(1.08684e-06 -7.65744e-07 0.104122)
(-4.93521e-05 -4.93641e-05 0.103925)
(-9.37983e-07 -9.34458e-07 0.104269)
(-6.67852e-07 9.94348e-07 0.104122)
(9.92263e-07 -6.63907e-07 0.104122)
(-4.92934e-05 -4.93044e-05 0.103925)
(-9.8338e-07 -9.81317e-07 0.104269)
(-6.13029e-07 9.7324e-07 0.104122)
(9.72153e-07 -6.09611e-07 0.104122)
(-4.92185e-05 -4.92266e-05 0.103925)
(-9.65471e-07 -9.63639e-07 0.104269)
(-6.35643e-07 9.93846e-07 0.104122)
(9.93424e-07 -6.31154e-07 0.104122)
(-4.92471e-05 -4.92552e-05 0.103925)
(-9.60977e-07 -9.59335e-07 0.104269)
(-6.40735e-07 9.96965e-07 0.104122)
(9.96964e-07 -6.35973e-07 0.104122)
(-4.92511e-05 -4.92591e-05 0.103925)
(-9.60305e-07 -9.58794e-07 0.104269)
(-6.41434e-07 9.97631e-07 0.104122)
(9.98076e-07 -6.36618e-07 0.104122)
(-4.92514e-05 -4.92595e-05 0.103925)
(-9.59788e-07 -9.58204e-07 0.104269)
(-6.41647e-07 9.97604e-07 0.104122)
(9.97936e-07 -6.36493e-07 0.104122)
(-4.92514e-05 -4.92595e-05 0.103925)
(-9.59278e-07 -9.5781e-07 0.104269)
(-6.42067e-07 9.9781e-07 0.104122)
(9.98309e-07 -6.36844e-07 0.104122)
(-4.92511e-05 -4.9259e-05 0.103925)
(-9.59239e-07 -9.57835e-07 0.104269)
(-6.42314e-07 9.97852e-07 0.104122)
(9.9848e-07 -6.37115e-07 0.104122)
(-4.92496e-05 -4.92575e-05 0.103925)
(-9.58834e-07 -9.57473e-07 0.104269)
(-6.4205e-07 9.96891e-07 0.104122)
(9.9797e-07 -6.36618e-07 0.104122)
(-4.9243e-05 -4.92511e-05 0.103925)
(-5.18492e-05 -5.18187e-05 0.103936)
(1.03155e-06 6.70477e-07 0.104122)
(-1.03591e-06 6.80807e-07 0.104122)
(5.18542e-05 -5.18259e-05 0.103936)
(6.4618e-07 1.00425e-06 0.104122)
(6.77006e-07 -1.03061e-06 0.104122)
(-6.43122e-07 1.00323e-06 0.104122)
(-6.76251e-07 -1.02629e-06 0.104122)
(-5.1822e-05 5.18551e-05 0.103936)
(9.97468e-07 -6.42786e-07 0.104122)
(-9.97536e-07 -6.43824e-07 0.104122)
(5.1822e-05 5.18444e-05 0.103936)
(4.92398e-05 4.9228e-05 0.103925)
(-5.18459e-05 -5.1817e-05 0.103936)
(1.0291e-06 6.71624e-07 0.104122)
(-1.03405e-06 6.76774e-07 0.104122)
(1.02831e-06 6.62015e-07 0.104122)
(-1.03431e-06 6.73586e-07 0.104122)
(-4.92347e-05 4.92056e-05 0.103925)
(5.18511e-05 -5.18221e-05 0.103936)
(6.45751e-07 1.00322e-06 0.104122)
(6.73662e-07 -1.03053e-06 0.104122)
(6.39647e-07 1.00125e-06 0.104122)
(6.70537e-07 -1.02937e-06 0.104122)
(-6.72619e-07 -1.02439e-06 0.104122)
(-6.36208e-07 1.00068e-06 0.104122)
(-6.69833e-07 -1.02365e-06 0.104122)
(4.92208e-05 -4.92587e-05 0.103925)
(-5.18174e-05 5.18539e-05 0.103936)
(-9.95759e-07 -6.37837e-07 0.104122)
(9.96795e-07 -6.36004e-07 0.104122)
(-9.94637e-07 -6.3666e-07 0.104122)
(5.18195e-05 5.18415e-05 0.103936)
(4.92312e-05 4.92179e-05 0.103925)
(-5.18509e-05 -5.18226e-05 0.103936)
(1.0264e-06 6.64447e-07 0.104122)
(-1.03423e-06 6.72276e-07 0.104122)
(1.02683e-06 6.58176e-07 0.104122)
(-1.03154e-06 6.70269e-07 0.104122)
(-4.92256e-05 4.91983e-05 0.103925)
(5.18576e-05 -5.1827e-05 0.103936)
(6.40664e-07 1.00054e-06 0.104122)
(6.68692e-07 -1.02851e-06 0.104122)
(6.36409e-07 9.99517e-07 0.104122)
(6.6722e-07 -1.02608e-06 0.104122)
(-6.66976e-07 -1.02294e-06 0.104122)
(-6.31117e-07 9.99079e-07 0.104122)
(-6.64616e-07 -1.02237e-06 0.104122)
(4.92139e-05 -4.92489e-05 0.103925)
(-5.18235e-05 5.18597e-05 0.103936)
(-9.93837e-07 -6.32835e-07 0.104122)
(9.94511e-07 -6.31531e-07 0.104122)
(-9.9284e-07 -6.33307e-07 0.104122)
(5.18234e-05 5.18445e-05 0.103936)
(4.92273e-05 4.92141e-05 0.103925)
(-5.18553e-05 -5.18271e-05 0.103936)
(1.02672e-06 6.61727e-07 0.104122)
(-1.02957e-06 6.67346e-07 0.104122)
(1.02546e-06 6.56529e-07 0.104122)
(-1.02903e-06 6.67378e-07 0.104122)
(-4.92199e-05 4.91925e-05 0.103925)
(5.18616e-05 -5.18338e-05 0.103936)
(6.37531e-07 1.00042e-06 0.104122)
(6.64077e-07 -1.02503e-06 0.104122)
(6.34483e-07 9.98297e-07 0.104122)
(6.66209e-07 -1.0255e-06 0.104122)
(-6.61843e-07 -1.02214e-06 0.104122)
(-6.30468e-07 9.9749e-07 0.104122)
(-6.63123e-07 -1.02127e-06 0.104122)
(4.92087e-05 -4.92445e-05 0.103925)
(-5.18286e-05 5.18626e-05 0.103936)
(-9.92223e-07 -6.30223e-07 0.104122)
(9.93641e-07 -6.29888e-07 0.104122)
(-9.9152e-07 -6.31112e-07 0.104122)
(5.18278e-05 5.1849e-05 0.103936)
(4.92235e-05 4.92094e-05 0.103925)
(-5.18653e-05 -5.18369e-05 0.103936)
(1.02533e-06 6.59507e-07 0.104122)
(-1.03095e-06 6.66024e-07 0.104122)
(1.01942e-06 6.49761e-07 0.104122)
(-1.02477e-06 6.61121e-07 0.104122)
(-4.92181e-05 4.91876e-05 0.103925)
(5.18721e-05 -5.18421e-05 0.103936)
(6.36131e-07 9.99109e-07 0.104122)
(6.6597e-07 -1.02781e-06 0.104122)
(6.26589e-07 9.9298e-07 0.104122)
(6.55767e-07 -1.02046e-06 0.104122)
(-6.6126e-07 -1.02259e-06 0.104122)
(-6.22947e-07 9.92061e-07 0.104122)
(-6.55668e-07 -1.01632e-06 0.104122)
(4.92061e-05 -4.92426e-05 0.103925)
(-5.184e-05 5.18724e-05 0.103936)
(-9.9262e-07 -6.30279e-07 0.104122)
(9.86379e-07 -6.23596e-07 0.104122)
(-9.86187e-07 -6.26071e-07 0.104122)
(5.18379e-05 5.18572e-05 0.103936)
(4.92188e-05 4.92054e-05 0.103925)
(-5.18759e-05 -5.18507e-05 0.103936)
(1.02504e-06 6.59079e-07 0.104122)
(-1.03091e-06 6.65095e-07 0.104122)
(1.00832e-06 6.21591e-07 0.104122)
(-1.01219e-06 6.33212e-07 0.104122)
(-4.92123e-05 4.91844e-05 0.103925)
(5.1882e-05 -5.18568e-05 0.103936)
(6.33265e-07 1.00018e-06 0.104122)
(6.58888e-07 -1.02736e-06 0.104122)
(6.01585e-07 9.79601e-07 0.104122)
(6.31908e-07 -1.00955e-06 0.104122)
(-6.59703e-07 -1.02209e-06 0.104122)
(-5.98323e-07 9.78343e-07 0.104122)
(-6.30414e-07 -1.00335e-06 0.104122)
(4.91983e-05 -4.92382e-05 0.103925)
(-5.18494e-05 5.18839e-05 0.103936)
(-9.92507e-07 -6.28901e-07 0.104122)
(9.76465e-07 -5.97326e-07 0.104122)
(-9.74877e-07 -5.96791e-07 0.104122)
(5.18477e-05 5.18713e-05 0.103936)
(4.92107e-05 4.9193e-05 0.103925)
(-5.18661e-05 -5.18445e-05 0.103936)
(1.0106e-06 6.31186e-07 0.104122)
(-1.01309e-06 6.36598e-07 0.104122)
(1.02489e-06 6.3858e-07 0.104122)
(-1.0163e-06 6.40658e-07 0.104122)
(-4.92035e-05 4.91701e-05 0.103925)
(5.18791e-05 -5.18648e-05 0.103936)
(6.10536e-07 9.81321e-07 0.104122)
(6.37978e-07 -1.01147e-06 0.104122)
(6.22861e-07 9.9179e-07 0.104122)
(6.52499e-07 -1.02162e-06 0.104122)
(-6.35479e-07 -1.00568e-06 0.104122)
(-6.15552e-07 9.82644e-07 0.104122)
(-6.48999e-07 -1.01768e-06 0.104122)
(4.91921e-05 -4.92285e-05 0.103925)
(-5.18414e-05 5.1878e-05 0.103936)
(-9.76769e-07 -6.01748e-07 0.104122)
(9.91005e-07 -6.15669e-07 0.104122)
(-9.87779e-07 -6.16396e-07 0.104122)
(5.18405e-05 5.18632e-05 0.103936)
(4.92288e-05 4.92088e-05 0.103925)
(-5.17978e-05 -5.17718e-05 0.103936)
(9.99052e-07 6.17076e-07 0.104122)
(-9.90442e-07 6.15769e-07 0.104122)
(1.08848e-06 7.2903e-07 0.104122)
(-1.09159e-06 7.4202e-07 0.104122)
(-4.92154e-05 4.9171e-05 0.103925)
(5.18064e-05 -5.17775e-05 0.103936)
(5.98397e-07 9.67307e-07 0.104122)
(6.25006e-07 -9.95922e-07 0.104122)
(7.10435e-07 1.05947e-06 0.104122)
(7.38191e-07 -1.08657e-06 0.104122)
(-6.20917e-07 -9.91723e-07 0.104122)
(-7.04617e-07 1.05894e-06 0.104122)
(-7.382e-07 -1.08312e-06 0.104122)
(4.92082e-05 -4.92435e-05 0.103925)
(-5.17729e-05 5.1808e-05 0.103936)
(-9.61566e-07 -5.88598e-07 0.104122)
(1.05534e-06 -7.03676e-07 0.104122)
(-1.05347e-06 -7.05128e-07 0.104122)
(5.17703e-05 5.17935e-05 0.103936)
(4.93539e-05 4.93379e-05 0.103925)
(-5.17945e-05 -5.1765e-05 0.103936)
(1.1196e-06 7.93333e-07 0.104122)
(-1.12285e-06 8.00068e-07 0.104122)
(1.05365e-06 7.36908e-07 0.104122)
(-1.05951e-06 7.50708e-07 0.104122)
(-4.93456e-05 4.93156e-05 0.103925)
(5.17971e-05 -5.17724e-05 0.103936)
(7.72003e-07 1.09211e-06 0.104122)
(7.9704e-07 -1.11996e-06 0.104122)
(7.14282e-07 1.0266e-06 0.104122)
(7.45155e-07 -1.05683e-06 0.104122)
(-7.98703e-07 -1.11401e-06 0.104122)
(-7.15427e-07 1.02532e-06 0.104122)
(-7.51506e-07 -1.04762e-06 0.104122)
(4.9333e-05 -4.93707e-05 0.103925)
(-5.17666e-05 5.17989e-05 0.103936)
(-1.08383e-06 -7.66606e-07 0.104122)
(1.02263e-06 -7.11235e-07 0.104122)
(-1.01789e-06 -7.23226e-07 0.104122)
(5.17647e-05 5.17893e-05 0.103936)
(4.92924e-05 4.92803e-05 0.103925)
(-5.19002e-05 -5.18718e-05 0.103936)
(1.02265e-06 6.93599e-07 0.104122)
(-1.02923e-06 7.03417e-07 0.104122)
(9.99413e-07 6.30601e-07 0.104122)
(-1.00353e-06 6.47681e-07 0.104122)
(-4.92897e-05 4.92567e-05 0.103925)
(5.19059e-05 -5.18783e-05 0.103936)
(6.68975e-07 9.97159e-07 0.104122)
(6.96486e-07 -1.02683e-06 0.104122)
(6.09853e-07 9.72394e-07 0.104122)
(6.38027e-07 -1.00054e-06 0.104122)
(-7.0411e-07 -1.01733e-06 0.104122)
(-6.08802e-07 9.68486e-07 0.104122)
(-6.45903e-07 -9.93034e-07 0.104122)
(4.92752e-05 -4.93139e-05 0.103925)
(-5.18755e-05 5.1906e-05 0.103936)
(-9.87862e-07 -6.76258e-07 0.104122)
(9.67098e-07 -6.04695e-07 0.104122)
(-9.65626e-07 -6.16822e-07 0.104122)
(5.18672e-05 5.18946e-05 0.103936)
(4.92157e-05 4.92019e-05 0.103925)
(-5.18708e-05 -5.18421e-05 0.103936)
(1.00432e-06 6.389e-07 0.104122)
(-1.00861e-06 6.51332e-07 0.104122)
(1.0222e-06 6.52449e-07 0.104122)
(-1.02587e-06 6.70339e-07 0.104122)
(-4.92095e-05 4.91791e-05 0.103925)
(5.18758e-05 -5.18497e-05 0.103936)
(6.1653e-07 9.78421e-07 0.104122)
(6.41535e-07 -1.00607e-06 0.104122)
(6.31942e-07 9.95385e-07 0.104122)
(6.60583e-07 -1.02308e-06 0.104122)
(-6.5028e-07 -9.97748e-07 0.104122)
(-6.31204e-07 9.90984e-07 0.104122)
(-6.67759e-07 -1.01389e-06 0.104122)
(4.91944e-05 -4.92354e-05 0.103925)
(-5.18459e-05 5.18774e-05 0.103936)
(-9.70301e-07 -6.21418e-07 0.104122)
(9.90093e-07 -6.25907e-07 0.104122)
(-9.87156e-07 -6.39512e-07 0.104122)
(5.18393e-05 5.18668e-05 0.103936)
(4.92448e-05 4.92317e-05 0.103925)
(-5.18646e-05 -5.18354e-05 0.103936)
(1.02478e-06 6.61165e-07 0.104122)
(-1.02909e-06 6.73919e-07 0.104122)
(1.02815e-06 6.60652e-07 0.104122)
(-1.03219e-06 6.78841e-07 0.104122)
(-4.92394e-05 4.92079e-05 0.103925)
(5.18691e-05 -5.18431e-05 0.103936)
(6.38475e-07 9.99193e-07 0.104122)
(6.64387e-07 -1.02692e-06 0.104122)
(6.39897e-07 1.00155e-06 0.104122)
(6.69106e-07 -1.02973e-06 0.104122)
(-6.72337e-07 -1.0168e-06 0.104122)
(-6.39725e-07 9.97154e-07 0.104122)
(-6.76055e-07 -1.0199e-06 0.104122)
(4.92249e-05 -4.92646e-05 0.103925)
(-5.18385e-05 5.18704e-05 0.103936)
(-9.89829e-07 -6.44575e-07 0.104122)
(9.96759e-07 -6.34048e-07 0.104122)
(-9.9353e-07 -6.4843e-07 0.104122)
(5.18323e-05 5.18599e-05 0.103936)
(4.92486e-05 4.92359e-05 0.103925)
(-5.18636e-05 -5.18343e-05 0.103936)
(1.02777e-06 6.65875e-07 0.104122)
(-1.03237e-06 6.79013e-07 0.104122)
(1.02886e-06 6.61437e-07 0.104122)
(-1.03289e-06 6.79792e-07 0.104122)
(-4.92438e-05 4.92118e-05 0.103925)
(5.18681e-05 -5.18423e-05 0.103936)
(6.43088e-07 1.00243e-06 0.104122)
(6.69453e-07 -1.03048e-06 0.104122)
(6.40732e-07 1.00238e-06 0.104122)
(6.70014e-07 -1.03053e-06 0.104122)
(-6.77251e-07 -1.01982e-06 0.104122)
(-6.40643e-07 9.97802e-07 0.104122)
(-6.76733e-07 -1.02009e-06 0.104122)
(4.92292e-05 -4.92688e-05 0.103925)
(-5.18372e-05 5.18693e-05 0.103936)
(-9.93267e-07 -6.49877e-07 0.104122)
(9.97805e-07 -6.34747e-07 0.104122)
(-9.94089e-07 -6.49253e-07 0.104122)
(5.18316e-05 5.18592e-05 0.103936)
(4.92495e-05 4.92368e-05 0.103925)
(-5.18631e-05 -5.18339e-05 0.103936)
(1.02854e-06 6.66441e-07 0.104122)
(-1.03313e-06 6.79716e-07 0.104122)
(1.0292e-06 6.61854e-07 0.104122)
(-1.03339e-06 6.80461e-07 0.104122)
(-4.92446e-05 4.92125e-05 0.103925)
(5.18676e-05 -5.1842e-05 0.103936)
(6.43729e-07 1.00326e-06 0.104122)
(6.70286e-07 -1.03142e-06 0.104122)
(6.41314e-07 1.00271e-06 0.104122)
(6.70626e-07 -1.03104e-06 0.104122)
(-6.77777e-07 -1.02023e-06 0.104122)
(-6.41026e-07 9.98026e-07 0.104122)
(-6.77072e-07 -1.02026e-06 0.104122)
(4.92301e-05 -4.92696e-05 0.103925)
(-5.18369e-05 5.18688e-05 0.103936)
(-9.93955e-07 -6.50562e-07 0.104122)
(9.98086e-07 -6.34934e-07 0.104122)
(-9.94329e-07 -6.49611e-07 0.104122)
(5.18314e-05 5.18589e-05 0.103936)
(4.92496e-05 4.92369e-05 0.103925)
(-5.18624e-05 -5.1833e-05 0.103936)
(1.02855e-06 6.66765e-07 0.104122)
(-1.03331e-06 6.80234e-07 0.104122)
(1.0295e-06 6.62254e-07 0.104122)
(-1.03359e-06 6.80754e-07 0.104122)
(-4.92447e-05 4.92125e-05 0.103925)
(5.18669e-05 -5.18415e-05 0.103936)
(6.43977e-07 1.00335e-06 0.104122)
(6.706e-07 -1.03145e-06 0.104122)
(6.41822e-07 1.00312e-06 0.104122)
(6.70952e-07 -1.03107e-06 0.104122)
(-6.78e-07 -1.02007e-06 0.104122)
(-6.41314e-07 9.98155e-07 0.104122)
(-6.77379e-07 -1.02027e-06 0.104122)
(4.92302e-05 -4.92698e-05 0.103925)
(-5.18361e-05 5.18681e-05 0.103936)
(-9.93918e-07 -6.50682e-07 0.104122)
(9.98149e-07 -6.34957e-07 0.104122)
(-9.94678e-07 -6.49794e-07 0.104122)
(5.18304e-05 5.18582e-05 0.103936)
(4.92496e-05 4.92369e-05 0.103925)
(-5.18612e-05 -5.1832e-05 0.103936)
(1.02881e-06 6.67134e-07 0.104122)
(-1.03351e-06 6.80533e-07 0.104122)
(1.02951e-06 6.62292e-07 0.104122)
(-1.03402e-06 6.81213e-07 0.104122)
(-4.92446e-05 4.92123e-05 0.103925)
(5.18655e-05 -5.184e-05 0.103936)
(6.44372e-07 1.00377e-06 0.104122)
(6.71237e-07 -1.03173e-06 0.104122)
(6.42178e-07 1.00323e-06 0.104122)
(6.71369e-07 -1.03138e-06 0.104122)
(-6.78547e-07 -1.02028e-06 0.104122)
(-6.41802e-07 9.98646e-07 0.104122)
(-6.77873e-07 -1.02043e-06 0.104122)
(4.92298e-05 -4.92693e-05 0.103925)
(-5.18343e-05 5.18663e-05 0.103936)
(-9.94459e-07 -6.51167e-07 0.104122)
(9.98532e-07 -6.35388e-07 0.104122)
(-9.95087e-07 -6.50265e-07 0.104122)
(5.18289e-05 5.18566e-05 0.103936)
(4.92483e-05 4.92356e-05 0.103925)
(-5.18598e-05 -5.18309e-05 0.103936)
(1.02861e-06 6.6703e-07 0.104122)
(-1.03376e-06 6.80891e-07 0.104122)
(1.02967e-06 6.62068e-07 0.104122)
(-1.03394e-06 6.81159e-07 0.104122)
(-4.92436e-05 4.92114e-05 0.103925)
(5.18648e-05 -5.18391e-05 0.103936)
(6.44251e-07 1.00356e-06 0.104122)
(6.71446e-07 -1.03198e-06 0.104122)
(6.42441e-07 1.00301e-06 0.104122)
(6.71273e-07 -1.03131e-06 0.104122)
(-6.78825e-07 -1.02045e-06 0.104122)
(-6.41207e-07 9.98144e-07 0.104122)
(-6.77363e-07 -1.02014e-06 0.104122)
(4.92284e-05 -4.92679e-05 0.103925)
(-5.18298e-05 5.18617e-05 0.103936)
(-9.94797e-07 -6.51336e-07 0.104122)
(9.98171e-07 -6.35251e-07 0.104122)
(-9.94819e-07 -6.50343e-07 0.104122)
(5.18247e-05 5.1852e-05 0.103936)
(4.92472e-05 4.92342e-05 0.103925)
(1.02869e-06 6.6711e-07 0.104122)
(-1.03338e-06 6.80818e-07 0.104122)
(-4.92418e-05 4.92098e-05 0.103925)
(6.43999e-07 1.00359e-06 0.104122)
(6.70935e-07 -1.03159e-06 0.104122)
(-6.7803e-07 -1.0199e-06 0.104122)
(4.92222e-05 -4.92616e-05 0.103925)
(-9.94583e-07 -6.51136e-07 0.104122)
(9.64167e-08 -1.04927e-05 0.0997235)
(-1.23946e-06 -7.122e-06 0.0901661)
(2.24596e-06 -3.23871e-06 0.0774077)
(-1.05714e-05 8.81745e-08 0.0997223)
(-7.11044e-06 -1.22668e-06 0.0901659)
(-9.61615e-07 -9.54367e-07 0.104269)
(9.59055e-07 -9.56491e-07 0.104269)
(-9.5426e-07 9.59618e-07 0.104269)
(9.53164e-07 9.57203e-07 0.104269)
(1.7703e-05 1.7445e-07 0.103114)
(-6.42464e-07 1.00299e-06 0.104122)
(1.6014e-05 -5.33071e-06 0.100351)
(-8.26176e-07 -2.38817e-07 0.10422)
(-3.12231e-06 2.18869e-06 0.077409)
(1.80722e-07 1.77058e-05 0.103114)
(9.98233e-07 -6.42513e-07 0.104122)
(-2.39821e-07 -8.26879e-07 0.10422)
(-5.37456e-06 1.60844e-05 0.10035)
(5.18297e-05 5.18514e-05 0.103936)
(4.41182e-06 5.76739e-06 0.0960632)
(5.76833e-06 4.40512e-06 0.0960616)
(9.74017e-08 -1.04943e-05 0.0997236)
(5.84502e-07 7.4899e-06 0.0901315)
(-1.3339e-07 1.00741e-05 0.0996944)
(-1.24545e-06 -7.14447e-06 0.0901662)
(-2.22389e-06 3.38815e-06 0.0773737)
(2.27043e-06 -3.28108e-06 0.0774075)
(-1.05748e-05 8.89882e-08 0.0997223)
(7.4788e-06 5.72417e-07 0.0901311)
(1.016e-05 -1.13002e-07 0.099695)
(-7.13306e-06 -1.23106e-06 0.0901659)
(9.60015e-07 -9.57945e-07 0.104269)
(-9.54971e-07 9.60796e-07 0.104269)
(9.53935e-07 9.59122e-07 0.104269)
(-9.65318e-07 -9.58708e-07 0.104269)
(9.62285e-07 -9.60067e-07 0.104269)
(-9.56245e-07 9.62777e-07 0.104269)
(9.56151e-07 9.59991e-07 0.104269)
(1.77218e-05 1.73407e-07 0.103114)
(-1.68885e-05 4.70002e-06 0.100306)
(-8.26431e-07 -2.38804e-07 0.10422)
(-6.37628e-07 1.00017e-06 0.104122)
(-1.79084e-05 -1.95869e-07 0.103098)
(1.60236e-05 -5.33808e-06 0.100351)
(-8.21577e-07 -2.3902e-07 0.10422)
(3.24477e-06 -2.1339e-06 0.0773704)
(-3.17862e-06 2.21693e-06 0.0774091)
(1.8003e-07 1.77268e-05 0.103114)
(-2.39143e-07 -8.1432e-07 0.10422)
(4.74378e-06 -1.69536e-05 0.100306)
(9.9685e-07 -6.36882e-07 0.104122)
(-1.9384e-07 -1.79223e-05 0.103098)
(-2.3936e-07 -8.21224e-07 0.10422)
(-5.38333e-06 1.60972e-05 0.10035)
(-4.92768e-06 -5.93467e-06 0.0960243)
(-5.92554e-06 -4.92366e-06 0.0960233)
(5.18207e-05 5.18441e-05 0.103936)
(4.40033e-06 5.7679e-06 0.0960633)
(5.76563e-06 4.39636e-06 0.0960617)
(9.93981e-08 -1.05131e-05 0.0997236)
(5.89149e-07 7.46569e-06 0.0901316)
(-1.30483e-07 1.00597e-05 0.0996944)
(-1.24172e-06 -7.16987e-06 0.0901663)
(-2.20512e-06 3.34228e-06 0.0773739)
(2.26874e-06 -3.29745e-06 0.0774079)
(-1.05919e-05 8.97432e-08 0.0997223)
(7.45258e-06 5.74673e-07 0.0901312)
(1.01447e-05 -1.1198e-07 0.099695)
(-7.15853e-06 -1.22631e-06 0.0901661)
(9.62946e-07 -9.60627e-07 0.104269)
(-9.56385e-07 9.63896e-07 0.104269)
(9.56464e-07 9.60761e-07 0.104269)
(-9.65786e-07 -9.59532e-07 0.104269)
(9.64146e-07 -9.59988e-07 0.104269)
(-9.56107e-07 9.64231e-07 0.104269)
(9.57393e-07 9.6037e-07 0.104269)
(1.77382e-05 1.75049e-07 0.103114)
(-1.68742e-05 4.68312e-06 0.100306)
(-8.18113e-07 -2.39802e-07 0.10422)
(-6.31642e-07 9.99333e-07 0.104122)
(-1.7892e-05 -1.9501e-07 0.103098)
(1.60409e-05 -5.35142e-06 0.100351)
(-8.1309e-07 -2.40224e-07 0.10422)
(3.24299e-06 -2.14923e-06 0.0773708)
(-3.16144e-06 2.19799e-06 0.0774093)
(1.8076e-07 1.77421e-05 0.103114)
(-2.40391e-07 -8.06317e-07 0.10422)
(4.72762e-06 -1.6937e-05 0.100306)
(9.94243e-07 -6.31231e-07 0.104122)
(-1.93323e-07 -1.79049e-05 0.103098)
(-2.40891e-07 -8.12653e-07 0.10422)
(-5.39752e-06 1.61146e-05 0.10035)
(-4.93078e-06 -5.92788e-06 0.0960244)
(-5.91857e-06 -4.92532e-06 0.0960233)
(5.18218e-05 5.18432e-05 0.103936)
(4.40075e-06 5.77225e-06 0.0960634)
(5.77173e-06 4.39438e-06 0.0960617)
(1.05889e-07 -1.05269e-05 0.0997236)
(5.95733e-07 7.45955e-06 0.0901318)
(-1.27651e-07 1.00436e-05 0.0996943)
(-1.23541e-06 -7.16657e-06 0.0901665)
(-2.22353e-06 3.3632e-06 0.0773741)
(2.25647e-06 -3.28961e-06 0.077408)
(-1.0606e-05 9.29881e-08 0.0997223)
(7.44248e-06 5.83336e-07 0.0901314)
(1.01294e-05 -1.12079e-07 0.099695)
(-7.1556e-06 -1.21797e-06 0.0901663)
(9.66208e-07 -9.6195e-07 0.104269)
(-9.57445e-07 9.66178e-07 0.104269)
(9.58636e-07 9.61771e-07 0.104269)
(-9.65672e-07 -9.59712e-07 0.104269)
(9.64897e-07 -9.6082e-07 0.104269)
(-9.5655e-07 9.64547e-07 0.104269)
(9.57595e-07 9.60702e-07 0.104269)
(1.77525e-05 1.74528e-07 0.103114)
(-1.68607e-05 4.67353e-06 0.100306)
(-8.0969e-07 -2.41289e-07 0.10422)
(-6.24156e-07 9.94009e-07 0.104122)
(-1.7879e-05 -1.95566e-07 0.103098)
(1.60533e-05 -5.36573e-06 0.100351)
(-8.03139e-07 -2.42136e-07 0.10422)
(3.24749e-06 -2.15472e-06 0.0773708)
(-3.16895e-06 2.19769e-06 0.0774093)
(1.7953e-07 1.77548e-05 0.103114)
(-2.41196e-07 -7.99726e-07 0.10422)
(4.71793e-06 -1.69262e-05 0.100306)
(9.90553e-07 -6.25178e-07 0.104122)
(-1.92912e-07 -1.7894e-05 0.103098)
(-2.4185e-07 -8.03182e-07 0.10422)
(-5.40542e-06 1.61225e-05 0.10035)
(-4.92394e-06 -5.92126e-06 0.0960244)
(-5.90965e-06 -4.92053e-06 0.0960234)
(5.18265e-05 5.1847e-05 0.103936)
(4.40855e-06 5.77399e-06 0.0960634)
(5.77401e-06 4.39985e-06 0.0960618)
(1.06298e-07 -1.05396e-05 0.0997235)
(5.85626e-07 7.4512e-06 0.090132)
(-1.22574e-07 1.00344e-05 0.0996943)
(-1.25533e-06 -7.17516e-06 0.0901668)
(-2.22012e-06 3.35414e-06 0.0773742)
(2.26754e-06 -3.28723e-06 0.0774083)
(-1.06192e-05 9.15212e-08 0.0997223)
(7.4288e-06 5.70782e-07 0.0901315)
(1.01182e-05 -1.0966e-07 0.0996949)
(-7.15703e-06 -1.23821e-06 0.0901666)
(9.66925e-07 -9.63689e-07 0.104269)
(-9.58709e-07 9.66814e-07 0.104269)
(9.60118e-07 9.62813e-07 0.104269)
(-9.71053e-07 -9.64203e-07 0.104269)
(9.68778e-07 -9.65295e-07 0.104269)
(-9.63469e-07 9.68229e-07 0.104269)
(9.6174e-07 9.64303e-07 0.104269)
(1.77639e-05 1.75332e-07 0.103114)
(-1.68512e-05 4.66072e-06 0.100305)
(-8.08463e-07 -2.42057e-07 0.10422)
(-6.2062e-07 9.92062e-07 0.104122)
(-1.78692e-05 -1.94994e-07 0.103098)
(1.60663e-05 -5.3758e-06 0.100351)
(-7.97832e-07 -2.42962e-07 0.10422)
(3.23635e-06 -2.14506e-06 0.0773709)
(-3.16896e-06 2.21312e-06 0.0774096)
(1.77722e-07 1.77638e-05 0.103114)
(-2.41776e-07 -7.98677e-07 0.10422)
(4.70529e-06 -1.69158e-05 0.100306)
(9.8803e-07 -6.20525e-07 0.104122)
(-1.92938e-07 -1.78837e-05 0.103098)
(-2.43e-07 -7.98819e-07 0.10422)
(-5.42393e-06 1.61385e-05 0.100349)
(-4.91525e-06 -5.92307e-06 0.0960245)
(-5.90979e-06 -4.91199e-06 0.0960234)
(5.18299e-05 5.18492e-05 0.103936)
(4.42339e-06 5.78014e-06 0.0960635)
(5.78517e-06 4.4127e-06 0.0960618)
(1.03784e-07 -1.05467e-05 0.0997235)
(5.68746e-07 7.4407e-06 0.0901323)
(-1.2278e-07 1.002e-05 0.0996943)
(-1.23323e-06 -7.19426e-06 0.0901671)
(-2.20451e-06 3.34433e-06 0.0773747)
(2.25381e-06 -3.29955e-06 0.0774088)
(-1.06312e-05 9.54395e-08 0.0997223)
(7.41189e-06 5.53544e-07 0.0901317)
(1.01022e-05 -1.04199e-07 0.0996949)
(-7.16739e-06 -1.21109e-06 0.0901671)
(9.67284e-07 -9.64331e-07 0.104269)
(-9.62587e-07 9.67003e-07 0.104269)
(9.60282e-07 9.63632e-07 0.104269)
(-9.84039e-07 -9.7988e-07 0.104269)
(9.82339e-07 -9.80708e-07 0.104269)
(-9.75583e-07 9.81708e-07 0.104269)
(9.7562e-07 9.79922e-07 0.104269)
(1.77793e-05 1.75385e-07 0.103114)
(-1.68355e-05 4.64941e-06 0.100305)
(-8.04545e-07 -2.42899e-07 0.10422)
(-6.19947e-07 9.9513e-07 0.104122)
(-1.7857e-05 -1.96287e-07 0.103098)
(1.60761e-05 -5.37659e-06 0.100351)
(-7.95562e-07 -2.44427e-07 0.10422)
(3.22762e-06 -2.13563e-06 0.0773714)
(-3.18392e-06 2.19804e-06 0.0774101)
(1.80779e-07 1.77813e-05 0.103114)
(-2.43248e-07 -7.95286e-07 0.10422)
(4.69288e-06 -1.69024e-05 0.100306)
(9.90383e-07 -6.20269e-07 0.104122)
(-1.95345e-07 -1.78731e-05 0.103098)
(-2.44177e-07 -7.95225e-07 0.10422)
(-5.42269e-06 1.61471e-05 0.100349)
(-4.89667e-06 -5.92138e-06 0.0960246)
(-5.91013e-06 -4.89672e-06 0.0960236)
(5.18381e-05 5.186e-05 0.103936)
(4.42376e-06 5.77665e-06 0.0960637)
(5.77433e-06 4.41531e-06 0.096062)
(1.03895e-07 -1.05719e-05 0.0997236)
(5.79282e-07 7.4315e-06 0.0901327)
(-1.21199e-07 9.9968e-06 0.0996944)
(-1.24164e-06 -7.19154e-06 0.0901674)
(-2.1939e-06 3.34611e-06 0.0773753)
(2.25005e-06 -3.28959e-06 0.0774096)
(-1.0651e-05 8.65434e-08 0.0997224)
(7.40096e-06 5.50775e-07 0.090132)
(1.00804e-05 -1.04356e-07 0.099695)
(-7.1558e-06 -1.225e-06 0.0901676)
(9.77466e-07 -9.76926e-07 0.104269)
(-9.6941e-07 9.76351e-07 0.104269)
(9.70505e-07 9.74351e-07 0.104269)
(-9.74536e-07 -9.74412e-07 0.104269)
(9.78925e-07 -9.79661e-07 0.104269)
(-9.67108e-07 9.75464e-07 0.104269)
(9.69535e-07 9.71974e-07 0.104269)
(1.78023e-05 1.70875e-07 0.103114)
(-1.68214e-05 4.65197e-06 0.100305)
(-7.72997e-07 -2.47822e-07 0.10422)
(-6.20818e-07 9.91633e-07 0.104122)
(-1.78332e-05 -1.9465e-07 0.103098)
(1.6079e-05 -5.39245e-06 0.100351)
(-7.90298e-07 -2.48848e-07 0.10422)
(3.23908e-06 -2.12899e-06 0.0773721)
(-3.17884e-06 2.19147e-06 0.0774108)
(1.81502e-07 1.78027e-05 0.103114)
(-2.43653e-07 -7.63065e-07 0.10422)
(4.70019e-06 -1.68841e-05 0.100306)
(9.9479e-07 -6.19962e-07 0.104122)
(-1.88423e-07 -1.7846e-05 0.103098)
(-2.43193e-07 -7.8909e-07 0.10422)
(-5.42996e-06 1.61523e-05 0.100349)
(-4.89535e-06 -5.91295e-06 0.0960248)
(-5.90436e-06 -4.88972e-06 0.0960237)
(5.18564e-05 5.18793e-05 0.103936)
(4.42821e-06 5.78483e-06 0.0960638)
(5.784e-06 4.42163e-06 0.0960621)
(1.06137e-07 -1.05441e-05 0.0997236)
(5.54479e-07 7.43946e-06 0.0901331)
(-1.24141e-07 1.00183e-05 0.0996944)
(-1.23209e-06 -7.15834e-06 0.0901679)
(-2.06207e-06 3.25713e-06 0.0773761)
(2.19147e-06 -3.27891e-06 0.0774102)
(-1.06228e-05 9.09413e-08 0.0997224)
(7.40778e-06 5.24839e-07 0.0901325)
(1.01063e-05 -1.17314e-07 0.099695)
(-7.12293e-06 -1.21151e-06 0.090168)
(9.83275e-07 -9.8318e-07 0.104269)
(-9.71028e-07 9.79602e-07 0.104269)
(9.73982e-07 9.76022e-07 0.104269)
(-9.21746e-07 -9.18103e-07 0.104269)
(9.22511e-07 -9.18529e-07 0.104269)
(-9.14487e-07 9.21595e-07 0.104269)
(9.1603e-07 9.17811e-07 0.104269)
(1.77844e-05 1.74091e-07 0.103113)
(-1.68246e-05 4.63108e-06 0.100305)
(-7.69811e-07 -2.52229e-07 0.10422)
(-5.86581e-07 9.64211e-07 0.104122)
(-1.78658e-05 -1.99624e-07 0.103098)
(1.60569e-05 -5.37425e-06 0.100351)
(-7.543e-07 -2.51199e-07 0.10422)
(3.24198e-06 -2.09931e-06 0.0773729)
(-3.1502e-06 2.12531e-06 0.0774115)
(1.83973e-07 1.77855e-05 0.103113)
(-2.44309e-07 -7.61312e-07 0.10422)
(4.68749e-06 -1.68849e-05 0.100306)
(9.65381e-07 -5.84676e-07 0.104122)
(-1.91315e-07 -1.78766e-05 0.103098)
(-2.44538e-07 -7.51055e-07 0.10422)
(-5.41408e-06 1.61309e-05 0.100349)
(-4.88127e-06 -5.90768e-06 0.0960249)
(-5.89851e-06 -4.87603e-06 0.0960238)
(5.18769e-05 5.18991e-05 0.103936)
(4.42833e-06 5.75928e-06 0.096064)
(5.75966e-06 4.42212e-06 0.0960623)
(6.6795e-08 -1.02429e-05 0.0997235)
(6.17761e-07 7.6009e-06 0.0901333)
(-1.17581e-07 1.01464e-05 0.0996945)
(-1.21282e-06 -6.9408e-06 0.0901677)
(-2.24019e-06 3.42628e-06 0.0773758)
(2.3167e-06 -3.22216e-06 0.077409)
(-1.03213e-05 5.51764e-08 0.0997223)
(7.56677e-06 5.92451e-07 0.0901327)
(1.0233e-05 -1.00447e-07 0.0996951)
(-6.90611e-06 -1.19022e-06 0.0901678)
(8.83073e-07 -8.79395e-07 0.104269)
(-8.76224e-07 8.82276e-07 0.104269)
(8.79963e-07 8.78285e-07 0.104269)
(-9.03777e-07 -8.98856e-07 0.104269)
(9.02525e-07 -8.95967e-07 0.104269)
(-8.92769e-07 9.01062e-07 0.104269)
(9.0431e-07 8.89421e-07 0.104269)
(1.74019e-05 1.86317e-07 0.103114)
(-1.69844e-05 4.72858e-06 0.100305)
(-9.68289e-07 -2.1385e-07 0.10422)
(-7.83824e-07 1.08824e-06 0.104122)
(-1.80549e-05 -1.81764e-07 0.103098)
(1.58217e-05 -5.26998e-06 0.100351)
(-9.97463e-07 -2.0969e-07 0.10422)
(3.31156e-06 -2.17737e-06 0.0773724)
(-3.09632e-06 2.25103e-06 0.0774103)
(1.9159e-07 1.73953e-05 0.103114)
(-2.12358e-07 -9.60958e-07 0.10422)
(4.77348e-06 -1.70473e-05 0.100306)
(1.0854e-06 -7.82763e-07 0.104122)
(-1.80278e-07 -1.80653e-05 0.103098)
(-2.08347e-07 -9.94415e-07 0.10422)
(-5.31401e-06 1.58931e-05 0.100349)
(-5.02043e-06 -5.97266e-06 0.0960251)
(-5.96222e-06 -5.01596e-06 0.096024)
(5.16818e-05 5.17055e-05 0.103936)
(4.23657e-06 5.74138e-06 0.0960638)
(5.7422e-06 4.22869e-06 0.0960621)
(9.53518e-08 -1.04053e-05 0.0997232)
(5.86482e-07 7.63425e-06 0.0901322)
(-1.49172e-07 1.02673e-05 0.099694)
(-1.24258e-06 -7.06335e-06 0.0901664)
(-2.18234e-06 3.39919e-06 0.0773744)
(2.27746e-06 -3.26521e-06 0.077408)
(-1.0487e-05 8.32076e-08 0.0997219)
(7.59644e-06 5.66146e-07 0.0901315)
(1.03497e-05 -1.35201e-07 0.0996946)
(-7.02913e-06 -1.21954e-06 0.0901665)
(9.38441e-07 -9.30783e-07 0.104269)
(-9.27845e-07 9.37138e-07 0.104269)
(9.40457e-07 9.22471e-07 0.104269)
(-9.86291e-07 -9.83002e-07 0.104269)
(9.87684e-07 -9.78868e-07 0.104269)
(-9.77097e-07 9.87133e-07 0.104269)
(9.85063e-07 9.70584e-07 0.104269)
(1.76693e-05 1.75532e-07 0.103114)
(-1.70573e-05 4.78827e-06 0.100305)
(-8.65702e-07 -2.33184e-07 0.104221)
(-6.3173e-07 9.75624e-07 0.104122)
(-1.80932e-05 -1.88797e-07 0.103098)
(1.59421e-05 -5.27958e-06 0.100351)
(-8.22365e-07 -2.42266e-07 0.104221)
(3.27867e-06 -2.11123e-06 0.077371)
(-3.14309e-06 2.2134e-06 0.0774092)
(1.79419e-07 1.76622e-05 0.103114)
(-2.32929e-07 -8.58717e-07 0.10422)
(4.83181e-06 -1.7119e-05 0.100306)
(9.738e-07 -6.27046e-07 0.104122)
(-1.91427e-07 -1.80999e-05 0.103098)
(-2.41717e-07 -8.19651e-07 0.104221)
(-5.32496e-06 1.60152e-05 0.100349)
(-5.04267e-06 -5.94251e-06 0.0960243)
(-5.93145e-06 -5.04073e-06 0.0960232)
(5.18537e-05 5.18798e-05 0.103936)
(4.34642e-06 5.75786e-06 0.0960631)
(5.75706e-06 4.34022e-06 0.0960614)
(9.96351e-08 -1.04971e-05 0.0997234)
(5.97019e-07 7.4996e-06 0.0901316)
(-1.29666e-07 1.00769e-05 0.0996941)
(-1.23596e-06 -7.1346e-06 0.0901662)
(-2.22059e-06 3.37663e-06 0.077374)
(2.26457e-06 -3.27822e-06 0.0774079)
(-1.05772e-05 9.13651e-08 0.0997222)
(7.46498e-06 5.73802e-07 0.0901309)
(1.01611e-05 -1.09258e-07 0.0996947)
(-7.09984e-06 -1.21307e-06 0.0901663)
(9.85731e-07 -9.76863e-07 0.104269)
(-9.75151e-07 9.85394e-07 0.104269)
(9.85063e-07 9.68472e-07 0.104269)
(-9.69444e-07 -9.66438e-07 0.104269)
(9.71362e-07 -9.61602e-07 0.104269)
(-9.60117e-07 9.71316e-07 0.104269)
(9.69687e-07 9.53701e-07 0.104269)
(1.7739e-05 1.72867e-07 0.103114)
(-1.68903e-05 4.69939e-06 0.100305)
(-7.9762e-07 -2.48517e-07 0.10422)
(-6.19014e-07 9.80011e-07 0.104122)