/*--------------------------------*- C++ -*----------------------------------*\
| =========                 |                                                 |
| \\      /  F ield         | OpenFOAM: The Open Source CFD Toolbox           |
|  \\    /   O peration     | Version:  2206                                  |
|   \\  /    A nd           | Website:  www.openfoam.com                      |
|    \\/     M anipulation  |                                                 |
\*---------------------------------------------------------------------------*/
FoamFile
{
    version     2.0;
    format      ascii;
    arch        "LSB;label=32;scalar=64";
    class       volVectorField;
    location    "33.5";
    object      U;
}
// * * * * * * * * * * * * * * * * * * * * * * * * * * * * * * * * * * * * * //

dimensions      [0 1 -1 0 0 0 0];

internalField   nonuniform List<vector> 
28687
(
(-8.39676e-07 -8.35739e-07 0.103668)
(-5.73418e-07 8.65944e-07 0.103568)
(8.63872e-07 -5.67198e-07 0.103568)
(-4.66378e-05 -4.66537e-05 0.103431)
(-8.43296e-07 -8.40845e-07 0.103668)
(-5.64642e-07 8.58704e-07 0.103568)
(8.59944e-07 -5.59529e-07 0.103568)
(-4.66343e-05 -4.66501e-05 0.103431)
(-8.47899e-07 -8.40363e-07 0.103668)
(-5.49698e-07 8.61349e-07 0.103568)
(8.56701e-07 -5.52314e-07 0.103568)
(-4.66291e-05 -4.66449e-05 0.10343)
(-8.55732e-07 -8.42245e-07 0.103668)
(-5.41231e-07 8.58671e-07 0.103568)
(8.46963e-07 -5.40088e-07 0.103568)
(-4.66226e-05 -4.66377e-05 0.10343)
(-8.64936e-07 -8.57175e-07 0.103668)
(-5.15559e-07 8.39792e-07 0.103568)
(8.43229e-07 -5.22834e-07 0.103568)
(-4.66165e-05 -4.66327e-05 0.10343)
(-8.61146e-07 -8.50357e-07 0.103668)
(-5.24572e-07 8.51968e-07 0.103567)
(8.61631e-07 -5.44756e-07 0.103567)
(-4.66207e-05 -4.66325e-05 0.10343)
(-8.39302e-07 -8.04147e-07 0.103667)
(-6.24375e-07 9.74123e-07 0.103567)
(8.92845e-07 -5.8294e-07 0.103567)
(-4.66317e-05 -4.6634e-05 0.10343)
(-7.59182e-07 -7.64851e-07 0.103668)
(-6.25859e-07 8.43497e-07 0.103568)
(8.98003e-07 -6.49356e-07 0.103568)
(-4.67717e-05 -4.6791e-05 0.10343)
(-8.48861e-07 -8.52371e-07 0.103668)
(-5.43483e-07 8.48841e-07 0.103568)
(8.36766e-07 -5.39762e-07 0.103568)
(-4.6618e-05 -4.66383e-05 0.103431)
(-8.47127e-07 -8.422e-07 0.103668)
(-5.57525e-07 8.62755e-07 0.103568)
(8.56625e-07 -5.56807e-07 0.103568)
(-4.66458e-05 -4.66606e-05 0.103431)
(-8.41958e-07 -8.36317e-07 0.103668)
(-5.60997e-07 8.63813e-07 0.103568)
(8.61166e-07 -5.63664e-07 0.103568)
(-4.66516e-05 -4.66677e-05 0.103431)
(-8.42062e-07 -8.36191e-07 0.103668)
(-5.60771e-07 8.63284e-07 0.103568)
(8.61417e-07 -5.64115e-07 0.103568)
(-4.66518e-05 -4.66681e-05 0.103431)
(-8.42803e-07 -8.36728e-07 0.103668)
(-5.60131e-07 8.62436e-07 0.103568)
(8.60932e-07 -5.63821e-07 0.103568)
(-4.6652e-05 -4.66681e-05 0.103431)
(-8.43256e-07 -8.36481e-07 0.103668)
(-5.59928e-07 8.63101e-07 0.103568)
(8.61162e-07 -5.63977e-07 0.103568)
(-4.66521e-05 -4.66675e-05 0.103431)
(-8.43796e-07 -8.36807e-07 0.103668)
(-5.59386e-07 8.62518e-07 0.103568)
(8.60967e-07 -5.63941e-07 0.103568)
(-4.66522e-05 -4.66675e-05 0.103431)
(-8.4348e-07 -8.36316e-07 0.103668)
(-5.60149e-07 8.6292e-07 0.103568)
(8.61631e-07 -5.64438e-07 0.103568)
(-4.66522e-05 -4.66676e-05 0.103431)
(-8.42746e-07 -8.35772e-07 0.103668)
(-5.60188e-07 8.63144e-07 0.103568)
(8.62006e-07 -5.64723e-07 0.103568)
(-4.66505e-05 -4.6666e-05 0.103431)
(-8.41529e-07 -8.34265e-07 0.103668)
(-5.59962e-07 8.63213e-07 0.103568)
(8.62045e-07 -5.64828e-07 0.103568)
(-4.66443e-05 -4.66601e-05 0.103431)
(-8.95335e-07 6.05014e-07 0.103568)
(4.89549e-05 -4.89281e-05 0.103438)
(-5.68928e-07 8.66292e-07 0.103568)
(4.66393e-05 4.66204e-05 0.103431)
(-4.89541e-05 -4.89318e-05 0.103438)
(8.92668e-07 5.89341e-07 0.103568)
(-8.95508e-07 6.1106e-07 0.103568)
(8.89423e-07 5.7811e-07 0.103568)
(-8.89775e-07 5.99187e-07 0.103568)
(-4.6648e-05 4.66159e-05 0.103431)
(4.89547e-05 -4.8933e-05 0.103438)
(5.69011e-07 8.70893e-07 0.103568)
(5.93225e-07 -8.93216e-07 0.103568)
(5.6052e-07 8.6488e-07 0.103568)
(5.8686e-07 -8.90084e-07 0.103568)
(-5.95068e-07 -8.87707e-07 0.103568)
(-5.65895e-07 8.59369e-07 0.103568)
(-5.90629e-07 -8.84269e-07 0.103568)
(4.66249e-05 -4.66598e-05 0.103431)
(-4.89265e-05 4.89606e-05 0.103438)
(-8.60725e-07 -5.64941e-07 0.103568)
(8.59905e-07 -5.58683e-07 0.103568)
(-8.57634e-07 -5.60583e-07 0.103568)
(4.8928e-05 4.89479e-05 0.103438)
(4.66358e-05 4.66191e-05 0.103431)
(-4.89535e-05 -4.89315e-05 0.103438)
(8.91001e-07 5.82342e-07 0.103568)
(-8.89594e-07 5.97735e-07 0.103568)
(8.87736e-07 5.76403e-07 0.103568)
(-8.87534e-07 5.86665e-07 0.103568)
(-4.66422e-05 4.66075e-05 0.103431)
(4.89659e-05 -4.89336e-05 0.103438)
(5.62149e-07 8.68807e-07 0.103568)
(5.85683e-07 -8.89663e-07 0.103568)
(5.56035e-07 8.66599e-07 0.103568)
(5.81353e-07 -8.87536e-07 0.103568)
(-5.87629e-07 -8.82848e-07 0.103568)
(-5.50457e-07 8.59309e-07 0.103568)
(-5.82798e-07 -8.8284e-07 0.103568)
(4.66213e-05 -4.66564e-05 0.103431)
(-4.89298e-05 4.89646e-05 0.103438)
(-8.56356e-07 -5.5807e-07 0.103568)
(8.58313e-07 -5.52959e-07 0.103568)
(-8.56573e-07 -5.52438e-07 0.103568)
(4.89319e-05 4.89517e-05 0.103438)
(4.66332e-05 4.66186e-05 0.10343)
(-4.89637e-05 -4.89379e-05 0.103438)
(8.83747e-07 5.7708e-07 0.103568)
(-8.89477e-07 5.88543e-07 0.103568)
(8.79115e-07 5.73162e-07 0.103568)
(-8.90516e-07 5.86827e-07 0.103568)
(-4.66327e-05 4.66079e-05 0.103431)
(4.89671e-05 -4.89245e-05 0.103438)
(5.557e-07 8.64004e-07 0.103568)
(5.79349e-07 -8.85942e-07 0.103568)
(5.48615e-07 8.6226e-07 0.103568)
(5.76297e-07 -8.82634e-07 0.103568)
(-5.78596e-07 -8.7957e-07 0.103568)
(-5.43435e-07 8.63716e-07 0.103568)
(-5.75442e-07 -8.77285e-07 0.103568)
(4.66163e-05 -4.6651e-05 0.10343)
(-4.89355e-05 4.89739e-05 0.103438)
(-8.53647e-07 -5.47827e-07 0.103568)
(8.53843e-07 -5.45293e-07 0.103568)
(-8.52267e-07 -5.43562e-07 0.103568)
(4.89402e-05 4.89605e-05 0.103438)
(4.66245e-05 4.66137e-05 0.10343)
(-4.89698e-05 -4.89487e-05 0.103437)
(8.72088e-07 5.69998e-07 0.103568)
(-8.87541e-07 5.83449e-07 0.103568)
(8.84236e-07 5.63417e-07 0.103568)
(-8.75146e-07 5.56842e-07 0.103568)
(-4.66272e-05 4.66121e-05 0.10343)
(4.89836e-05 -4.8961e-05 0.103437)
(5.43029e-07 8.56865e-07 0.103568)
(5.66253e-07 -8.75819e-07 0.103568)
(5.4469e-07 8.64311e-07 0.103568)
(5.69673e-07 -8.86457e-07 0.103568)
(-5.67143e-07 -8.70272e-07 0.103568)
(-5.28752e-07 8.47647e-07 0.103568)
(-5.69951e-07 -8.81666e-07 0.103568)
(4.6611e-05 -4.66434e-05 0.10343)
(-4.89468e-05 4.8981e-05 0.103437)
(-8.45667e-07 -5.34675e-07 0.103568)
(8.5683e-07 -5.41221e-07 0.103568)
(-8.55483e-07 -5.39095e-07 0.103568)
(4.89496e-05 4.8969e-05 0.103437)
(4.66211e-05 4.66045e-05 0.10343)
(-4.89905e-05 -4.89636e-05 0.103437)
(8.69706e-07 5.49357e-07 0.103568)
(-8.67345e-07 5.50606e-07 0.103568)
(8.87829e-07 5.72673e-07 0.103567)
(-8.91943e-07 5.71537e-07 0.103567)
(-4.66117e-05 4.65832e-05 0.10343)
(4.89913e-05 -4.89639e-05 0.103437)
(5.26718e-07 8.49922e-07 0.103568)
(5.49891e-07 -8.72059e-07 0.103568)
(5.51009e-07 8.72328e-07 0.103568)
(5.77408e-07 -8.90127e-07 0.103567)
(-5.48729e-07 -8.673e-07 0.103568)
(-5.42059e-07 8.67892e-07 0.103568)
(-5.7759e-07 -8.84946e-07 0.103567)
(4.66051e-05 -4.66396e-05 0.10343)
(-4.89645e-05 4.90017e-05 0.103437)
(-8.40595e-07 -5.18037e-07 0.103568)
(8.62514e-07 -5.46641e-07 0.103568)
(-8.61532e-07 -5.43526e-07 0.103568)
(4.89671e-05 4.89899e-05 0.103437)
(4.66217e-05 4.66102e-05 0.10343)
(-4.90302e-05 -4.89785e-05 0.103437)
(8.83726e-07 5.73344e-07 0.103567)
(-8.72829e-07 5.53602e-07 0.103567)
(8.50919e-07 5.57947e-07 0.103567)
(-9.21967e-07 6.05965e-07 0.103567)
(-4.66224e-05 4.66013e-05 0.10343)
(4.8979e-05 -4.89318e-05 0.103437)
(5.48939e-07 8.72952e-07 0.103567)
(5.72269e-07 -8.88111e-07 0.103567)
(5.07402e-07 8.55806e-07 0.103567)
(5.3958e-07 -8.57107e-07 0.103567)
(-5.72522e-07 -8.82637e-07 0.103567)
(-5.48186e-07 9.04823e-07 0.103567)
(-5.48646e-07 -8.45565e-07 0.103567)
(4.66073e-05 -4.664e-05 0.10343)
(-4.89981e-05 4.90364e-05 0.103437)
(-8.60903e-07 -5.38764e-07 0.103567)
(8.31756e-07 -5.07155e-07 0.103567)
(-8.36782e-07 -5.01069e-07 0.103567)
(4.89951e-05 4.90277e-05 0.103437)
(4.66247e-05 4.66383e-05 0.10343)
(-4.88254e-05 -4.87942e-05 0.103437)
(9.10181e-07 6.38746e-07 0.103567)
(-9.86984e-07 6.86204e-07 0.103567)
(9.68428e-07 7.17478e-07 0.103568)
(-9.25055e-07 6.94977e-07 0.103568)
(-4.66977e-05 4.66952e-05 0.10343)
(4.88782e-05 -4.88582e-05 0.103438)
(5.83674e-07 9.18667e-07 0.103567)
(6.11845e-07 -9.16665e-07 0.103567)
(6.96559e-07 9.45044e-07 0.103568)
(7.22758e-07 -9.59467e-07 0.103568)
(-6.22406e-07 -9.02932e-07 0.103567)
(-6.737e-07 8.9774e-07 0.103568)
(-7.25979e-07 -9.56691e-07 0.103568)
(4.66134e-05 -4.66451e-05 0.10343)
(-4.88016e-05 4.88375e-05 0.103437)
(-8.9604e-07 -5.74944e-07 0.103567)
(9.33831e-07 -6.89527e-07 0.103568)
(-9.26774e-07 -6.97994e-07 0.103568)
(4.88057e-05 4.88249e-05 0.103437)
(4.67874e-05 4.67671e-05 0.10343)
(-4.90033e-05 -4.89719e-05 0.103438)
(9.35969e-07 6.70798e-07 0.103568)
(-8.73903e-07 6.37773e-07 0.103568)
(8.72731e-07 5.781e-07 0.103568)
(-8.64642e-07 5.80723e-07 0.103568)
(-4.67178e-05 4.66771e-05 0.10343)
(4.89989e-05 -4.89755e-05 0.103438)
(6.59578e-07 9.03022e-07 0.103568)
(6.80221e-07 -9.23202e-07 0.103568)
(5.54302e-07 8.37613e-07 0.103568)
(5.71573e-07 -8.61695e-07 0.103568)
(-6.79132e-07 -9.23843e-07 0.103568)
(-5.43346e-07 8.38106e-07 0.103568)
(-5.67898e-07 -8.63151e-07 0.103568)
(4.67636e-05 -4.67961e-05 0.10343)
(-4.89761e-05 4.90115e-05 0.103438)
(-8.87395e-07 -6.56652e-07 0.103568)
(8.35015e-07 -5.41225e-07 0.103568)
(-8.28421e-07 -5.44031e-07 0.103568)
(4.89811e-05 4.89949e-05 0.103438)
(4.6628e-05 4.66084e-05 0.103431)
(-4.8984e-05 -4.89485e-05 0.103438)
(8.73121e-07 5.72821e-07 0.103568)
(-8.71494e-07 5.75103e-07 0.103568)
(8.78089e-07 5.78051e-07 0.103568)
(-8.86842e-07 5.86938e-07 0.103568)
(-4.66313e-05 4.66045e-05 0.103431)
(4.89854e-05 -4.8953e-05 0.103438)
(5.50577e-07 8.40953e-07 0.103568)
(5.66244e-07 -8.63506e-07 0.103568)
(5.54249e-07 8.5837e-07 0.103568)
(5.79002e-07 -8.79996e-07 0.103568)
(-5.63668e-07 -8.62099e-07 0.103568)
(-5.52716e-07 8.59808e-07 0.103568)
(-5.80023e-07 -8.75301e-07 0.103568)
(4.66066e-05 -4.66419e-05 0.103431)
(-4.89542e-05 4.89892e-05 0.103438)
(-8.31101e-07 -5.37114e-07 0.103568)
(8.51538e-07 -5.49632e-07 0.103568)
(-8.49889e-07 -5.48861e-07 0.103568)
(4.89556e-05 4.89763e-05 0.103438)
(4.66526e-05 4.6631e-05 0.103431)
(-4.89747e-05 -4.89421e-05 0.103438)
(8.82455e-07 5.79105e-07 0.103568)
(-8.91571e-07 5.90768e-07 0.103568)
(8.88245e-07 5.87165e-07 0.103568)
(-8.94682e-07 5.94567e-07 0.103568)
(-4.6646e-05 4.66263e-05 0.103431)
(4.89753e-05 -4.89481e-05 0.103438)
(5.60715e-07 8.6217e-07 0.103568)
(5.83281e-07 -8.84844e-07 0.103568)
(5.62729e-07 8.64708e-07 0.103568)
(5.88908e-07 -8.88809e-07 0.103568)
(-5.83522e-07 -8.79225e-07 0.103568)
(-5.59863e-07 8.63865e-07 0.103568)
(-5.89319e-07 -8.84756e-07 0.103568)
(4.66323e-05 -4.66669e-05 0.103431)
(-4.89451e-05 4.89805e-05 0.103438)
(-8.54104e-07 -5.52073e-07 0.103568)
(8.59723e-07 -5.59892e-07 0.103568)
(-8.58624e-07 -5.57717e-07 0.103568)
(4.89478e-05 4.89674e-05 0.103438)
(4.66606e-05 4.66365e-05 0.103431)
(-4.89734e-05 -4.89419e-05 0.103438)
(8.8899e-07 5.85107e-07 0.103568)
(-8.95329e-07 5.94428e-07 0.103568)
(8.9008e-07 5.88121e-07 0.103568)
(-8.95012e-07 5.96019e-07 0.103568)
(-4.66534e-05 4.66293e-05 0.103431)
(4.89751e-05 -4.89468e-05 0.103438)
(5.66637e-07 8.65381e-07 0.103568)
(5.89652e-07 -8.89796e-07 0.103568)
(5.63328e-07 8.64436e-07 0.103568)
(5.89806e-07 -8.8936e-07 0.103568)
(-5.8929e-07 -8.85161e-07 0.103568)
(-5.59787e-07 8.6345e-07 0.103568)
(-5.90027e-07 -8.85742e-07 0.103568)
(4.66394e-05 -4.66738e-05 0.103431)
(-4.89442e-05 4.89797e-05 0.103438)
(-8.58972e-07 -5.57602e-07 0.103568)
(8.60337e-07 -5.61222e-07 0.103568)
(-8.58812e-07 -5.5751e-07 0.103568)
(4.89474e-05 4.89665e-05 0.103438)
(4.66612e-05 4.66363e-05 0.103431)
(-4.89744e-05 -4.89429e-05 0.103438)
(8.90353e-07 5.85268e-07 0.103568)
(-8.95477e-07 5.95293e-07 0.103568)
(8.90069e-07 5.87198e-07 0.103568)
(-8.95231e-07 5.95272e-07 0.103568)
(-4.66536e-05 4.66302e-05 0.103431)
(4.89741e-05 -4.89474e-05 0.103438)
(5.66617e-07 8.64869e-07 0.103568)
(5.89883e-07 -8.89945e-07 0.103568)
(5.62333e-07 8.62929e-07 0.103568)
(5.89156e-07 -8.88991e-07 0.103568)
(-5.89264e-07 -8.85757e-07 0.103568)
(-5.59175e-07 8.62737e-07 0.103568)
(-5.88894e-07 -8.85388e-07 0.103568)
(4.66396e-05 -4.66739e-05 0.103431)
(-4.89448e-05 4.89802e-05 0.103438)
(-8.59002e-07 -5.58434e-07 0.103568)
(8.59813e-07 -5.60744e-07 0.103568)
(-8.58616e-07 -5.59084e-07 0.103568)
(4.89472e-05 4.89667e-05 0.103438)
(4.66608e-05 4.66358e-05 0.103431)
(-4.89739e-05 -4.89418e-05 0.103438)
(8.90638e-07 5.84802e-07 0.103568)
(-8.95556e-07 5.9459e-07 0.103568)
(8.90215e-07 5.87512e-07 0.103568)
(-8.95946e-07 5.96261e-07 0.103568)
(-4.66534e-05 4.66291e-05 0.103431)
(4.89746e-05 -4.89464e-05 0.103438)
(5.66043e-07 8.63825e-07 0.103568)
(5.89288e-07 -8.8967e-07 0.103568)
(5.6199e-07 8.62726e-07 0.103568)
(5.89175e-07 -8.89042e-07 0.103568)
(-5.88308e-07 -8.85369e-07 0.103568)
(-5.58847e-07 8.63e-07 0.103568)
(-5.88682e-07 -8.85352e-07 0.103568)
(4.66394e-05 -4.66738e-05 0.103431)
(-4.89442e-05 4.89796e-05 0.103438)
(-8.58848e-07 -5.59181e-07 0.103568)
(8.59891e-07 -5.60929e-07 0.103568)
(-8.58832e-07 -5.59973e-07 0.103568)
(4.89465e-05 4.89659e-05 0.103438)
(4.66597e-05 4.66354e-05 0.103431)
(-4.89747e-05 -4.89424e-05 0.103438)
(8.9073e-07 5.85083e-07 0.103568)
(-8.96614e-07 5.95711e-07 0.103568)
(8.89886e-07 5.87046e-07 0.103568)
(-8.95839e-07 5.96195e-07 0.103568)
(-4.66535e-05 4.66303e-05 0.103431)
(4.89747e-05 -4.89462e-05 0.103438)
(5.65498e-07 8.63601e-07 0.103568)
(5.89313e-07 -8.89761e-07 0.103568)
(5.61222e-07 8.62049e-07 0.103568)
(5.88612e-07 -8.88815e-07 0.103568)
(-5.88028e-07 -8.85332e-07 0.103568)
(-5.5843e-07 8.62788e-07 0.103568)
(-5.88225e-07 -8.85146e-07 0.103568)
(4.66387e-05 -4.6673e-05 0.103431)
(-4.89446e-05 4.89799e-05 0.103438)
(-8.59097e-07 -5.59986e-07 0.103568)
(8.59652e-07 -5.60589e-07 0.103568)
(-8.5881e-07 -5.59975e-07 0.103568)
(4.89464e-05 4.89662e-05 0.103438)
(4.66591e-05 4.66348e-05 0.103431)
(-4.89741e-05 -4.89425e-05 0.103438)
(8.90235e-07 5.84655e-07 0.103568)
(-8.96356e-07 5.95553e-07 0.103568)
(8.9013e-07 5.87344e-07 0.103568)
(-8.96058e-07 5.96408e-07 0.103568)
(-4.66534e-05 4.66303e-05 0.103431)
(4.89738e-05 -4.89456e-05 0.103438)
(5.65115e-07 8.62785e-07 0.103568)
(5.89097e-07 -8.89698e-07 0.103568)
(5.61584e-07 8.61782e-07 0.103568)
(5.88947e-07 -8.89342e-07 0.103568)
(-5.87652e-07 -8.85155e-07 0.103568)
(-5.59014e-07 8.62968e-07 0.103568)
(-5.88494e-07 -8.85332e-07 0.103568)
(4.66384e-05 -4.66728e-05 0.103431)
(-4.89438e-05 4.8979e-05 0.103438)
(-8.59101e-07 -5.60134e-07 0.103568)
(8.60228e-07 -5.61059e-07 0.103568)
(-8.59067e-07 -5.60575e-07 0.103568)
(4.89457e-05 4.89656e-05 0.103438)
(4.66593e-05 4.66345e-05 0.103431)
(-4.8972e-05 -4.89403e-05 0.103438)
(8.90854e-07 5.85184e-07 0.103568)
(-8.97013e-07 5.96084e-07 0.103568)
(8.91152e-07 5.87646e-07 0.103568)
(-8.9563e-07 5.96463e-07 0.103568)
(-4.66537e-05 4.66304e-05 0.103431)
(4.89727e-05 -4.89445e-05 0.103438)
(5.65607e-07 8.6287e-07 0.103568)
(5.89487e-07 -8.90228e-07 0.103568)
(5.62212e-07 8.62138e-07 0.103568)
(5.89505e-07 -8.89475e-07 0.103568)
(-5.88019e-07 -8.85564e-07 0.103568)
(-5.59108e-07 8.63018e-07 0.103568)
(-5.88702e-07 -8.85585e-07 0.103568)
(4.66388e-05 -4.66733e-05 0.103431)
(-4.89419e-05 4.89774e-05 0.103438)
(-8.59477e-07 -5.60912e-07 0.103568)
(8.60664e-07 -5.61487e-07 0.103568)
(-8.59173e-07 -5.61191e-07 0.103568)
(4.89439e-05 4.89637e-05 0.103438)
(4.66582e-05 4.66334e-05 0.103431)
(-4.89674e-05 -4.89341e-05 0.103438)
(8.92006e-07 5.8584e-07 0.103568)
(-8.97127e-07 5.96308e-07 0.103568)
(8.91795e-07 5.88958e-07 0.103568)
(-8.94669e-07 5.97169e-07 0.103568)
(-4.66525e-05 4.66291e-05 0.103431)
(4.897e-05 -4.89409e-05 0.103438)
(5.66206e-07 8.63574e-07 0.103568)
(5.901e-07 -8.90266e-07 0.103568)
(5.62091e-07 8.62763e-07 0.103568)
(5.89859e-07 -8.89021e-07 0.103568)
(-5.88043e-07 -8.85591e-07 0.103568)
(-5.59146e-07 8.63185e-07 0.103568)
(-5.88729e-07 -8.85599e-07 0.103568)
(4.66373e-05 -4.66715e-05 0.103431)
(-4.89373e-05 4.89731e-05 0.103438)
(-8.59411e-07 -5.61216e-07 0.103568)
(8.60549e-07 -5.6165e-07 0.103568)
(-8.5892e-07 -5.61494e-07 0.103568)
(4.89393e-05 4.89589e-05 0.103438)
(4.66519e-05 4.66289e-05 0.103431)
(8.92763e-07 5.8683e-07 0.103568)
(-8.97001e-07 5.96674e-07 0.103568)
(-4.66482e-05 4.66253e-05 0.103431)
(5.65942e-07 8.64118e-07 0.103568)
(5.90307e-07 -8.90086e-07 0.103568)
(-5.87798e-07 -8.85962e-07 0.103568)
(4.66313e-05 -4.66652e-05 0.103431)
(-8.59394e-07 -5.61706e-07 0.103568)
(8.58754e-08 -1.01032e-05 0.100167)
(6.41913e-07 7.19842e-06 0.0914641)
(-1.10932e-07 9.74925e-06 0.100146)
(-1.18821e-06 -6.90657e-06 0.0914911)
(-2.11319e-06 3.16391e-06 0.0788176)
(2.10197e-06 -3.06037e-06 0.0788446)
(-1.01776e-05 7.63021e-08 0.100166)
(7.14129e-06 6.02058e-07 0.091463)
(9.82959e-06 -9.38091e-08 0.100147)
(-6.84755e-06 -1.15553e-06 0.0914922)
(8.46408e-07 -8.23077e-07 0.103668)
(-8.31819e-07 8.3968e-07 0.103668)
(8.33709e-07 8.31034e-07 0.103668)
(-8.42389e-07 -8.39382e-07 0.103668)
(8.49878e-07 -8.29167e-07 0.103668)
(-8.34278e-07 8.43282e-07 0.103668)
(8.37522e-07 8.344e-07 0.103668)
(1.6647e-05 1.27656e-07 0.102824)
(-1.61302e-05 4.52622e-06 0.100645)
(-7.3453e-07 -2.11473e-07 0.103636)
(-5.72131e-07 8.64179e-07 0.103568)
(-1.68306e-05 -1.47606e-07 0.102814)
(1.53618e-05 -5.03733e-06 0.100677)
(-7.3511e-07 -2.12492e-07 0.103636)
(3.07254e-06 -2.05787e-06 0.0788145)
(-2.93487e-06 2.03705e-06 0.0788456)
(1.39108e-07 1.66587e-05 0.102824)
(-2.14758e-07 -7.2157e-07 0.103636)
(4.57183e-06 -1.61982e-05 0.100645)
(8.6366e-07 -5.65655e-07 0.103568)
(-1.49927e-07 -1.68475e-05 0.102814)
(-2.1507e-07 -7.18913e-07 0.103636)
(-5.07971e-06 1.54182e-05 0.100676)
(-4.78388e-06 -5.84064e-06 0.0970721)
(-5.82636e-06 -4.77804e-06 0.0970712)
(4.89253e-05 4.89453e-05 0.103438)
(4.38451e-06 5.66899e-06 0.0971021)
(5.66471e-06 4.37688e-06 0.0971008)
(8.4836e-08 -1.01178e-05 0.100167)
(6.42278e-07 7.16005e-06 0.0914642)
(-1.08135e-07 9.73171e-06 0.100146)
(-1.1733e-06 -6.92779e-06 0.0914913)
(-2.09227e-06 3.12064e-06 0.0788177)
(2.10024e-06 -3.07743e-06 0.0788448)
(-1.01897e-05 7.36841e-08 0.100166)
(7.11105e-06 6.04229e-07 0.091463)
(9.81659e-06 -9.21659e-08 0.100147)
(-6.8701e-06 -1.13349e-06 0.0914923)
(8.50276e-07 -8.30627e-07 0.103668)
(-8.35172e-07 8.44021e-07 0.103668)
(8.38588e-07 8.35744e-07 0.103668)
(-8.47477e-07 -8.40228e-07 0.103668)
(8.46735e-07 -8.38222e-07 0.103668)
(-8.37092e-07 8.45707e-07 0.103668)
(8.38845e-07 8.40367e-07 0.103668)
(1.66662e-05 1.28969e-07 0.102824)
(-1.61236e-05 4.5189e-06 0.100645)
(-7.25694e-07 -2.14783e-07 0.103636)
(-5.61148e-07 8.60195e-07 0.103568)
(-1.68087e-05 -1.47504e-07 0.102814)
(1.5378e-05 -5.05811e-06 0.100677)
(-7.19498e-07 -2.15243e-07 0.103636)
(3.00984e-06 -2.03059e-06 0.0788145)
(-2.9598e-06 2.03726e-06 0.0788457)
(1.40003e-07 1.66783e-05 0.102824)
(-2.16506e-07 -7.15389e-07 0.103636)
(4.56473e-06 -1.61789e-05 0.100645)
(8.60006e-07 -5.57036e-07 0.103568)
(-1.50045e-07 -1.68237e-05 0.102813)
(-2.16812e-07 -7.09274e-07 0.103636)
(-5.09926e-06 1.54361e-05 0.100676)
(-4.78929e-06 -5.83833e-06 0.0970722)
(-5.82421e-06 -4.78486e-06 0.0970713)
(4.89298e-05 4.89495e-05 0.103438)
(4.37509e-06 5.68169e-06 0.0971022)
(5.67709e-06 4.36708e-06 0.0971008)
(8.4568e-08 -1.01345e-05 0.100167)
(6.70598e-07 7.15066e-06 0.0914644)
(-1.07727e-07 9.71709e-06 0.100146)
(-1.17451e-06 -6.94545e-06 0.0914915)
(-2.08989e-06 3.10169e-06 0.0788177)
(2.06656e-06 -3.05113e-06 0.0788451)
(-1.02084e-05 8.26174e-08 0.100166)
(7.10016e-06 6.24461e-07 0.0914632)
(9.7999e-06 -8.7106e-08 0.100147)
(-6.89204e-06 -1.13755e-06 0.0914925)
(8.45014e-07 -8.36829e-07 0.103668)
(-8.37473e-07 8.45599e-07 0.103668)
(8.38592e-07 8.41268e-07 0.103668)
(-8.53833e-07 -8.41707e-07 0.103668)
(8.48623e-07 -8.38626e-07 0.103668)
(-8.42939e-07 8.51695e-07 0.103668)
(8.43257e-07 8.47229e-07 0.103668)
(1.66901e-05 1.32402e-07 0.102824)
(-1.60961e-05 4.4977e-06 0.100645)
(-7.04656e-07 -2.13754e-07 0.103636)
(-5.52426e-07 8.67551e-07 0.103568)
(-1.67873e-05 -1.47775e-07 0.102813)
(1.54029e-05 -5.06937e-06 0.100677)
(-7.04351e-07 -2.12874e-07 0.103636)
(3.00135e-06 -2.03587e-06 0.0788146)
(-2.96787e-06 2.04888e-06 0.0788459)
(1.39824e-07 1.67002e-05 0.102823)
(-2.176e-07 -7.03566e-07 0.103636)
(4.54768e-06 -1.61656e-05 0.100645)
(8.56517e-07 -5.50865e-07 0.103568)
(-1.49427e-07 -1.68055e-05 0.102813)
(-2.1751e-07 -6.9876e-07 0.103636)
(-5.11699e-06 1.54565e-05 0.100676)
(-4.78912e-06 -5.83184e-06 0.0970723)
(-5.81898e-06 -4.78441e-06 0.0970714)
(4.89364e-05 4.89565e-05 0.103438)
(4.3828e-06 5.68674e-06 0.0971022)
(5.68015e-06 4.37646e-06 0.0971009)
(9.11213e-08 -1.01471e-05 0.100167)
(6.18979e-07 7.14185e-06 0.0914647)
(-1.0707e-07 9.70344e-06 0.100146)
(-1.17791e-06 -6.95889e-06 0.0914919)
(-2.15438e-06 3.14922e-06 0.0788182)
(2.11373e-06 -3.08918e-06 0.0788458)
(-1.02261e-05 8.09036e-08 0.100166)
(7.08457e-06 5.92732e-07 0.0914635)
(9.78225e-06 -8.94433e-08 0.100147)
(-6.91192e-06 -1.14187e-06 0.0914928)
(8.46469e-07 -8.37399e-07 0.103668)
(-8.45298e-07 8.52594e-07 0.103668)
(8.43563e-07 8.48905e-07 0.103668)
(-8.56489e-07 -8.49425e-07 0.103668)
(8.60932e-07 -8.57636e-07 0.103668)
(-8.4885e-07 8.55845e-07 0.103668)
(8.47983e-07 8.49602e-07 0.103668)
(1.67083e-05 1.27976e-07 0.102824)
(-1.60838e-05 4.48606e-06 0.100645)
(-6.92256e-07 -2.116e-07 0.103636)
(-5.47493e-07 8.63006e-07 0.103568)
(-1.67727e-05 -1.43529e-07 0.102813)
(1.54245e-05 -5.08758e-06 0.100677)
(-6.94775e-07 -2.13795e-07 0.103635)
(2.99401e-06 -2.01228e-06 0.0788149)
(-2.98641e-06 2.04387e-06 0.0788463)
(1.38744e-07 1.67209e-05 0.102823)
(-2.20404e-07 -6.87081e-07 0.103635)
(4.52231e-06 -1.61444e-05 0.100645)
(8.48425e-07 -5.41756e-07 0.103568)
(-1.51088e-07 -1.67917e-05 0.102813)
(-2.2041e-07 -6.84467e-07 0.103635)
(-5.13655e-06 1.54732e-05 0.100676)
(-4.77432e-06 -5.82565e-06 0.0970724)
(-5.81381e-06 -4.76765e-06 0.0970715)
(4.8948e-05 4.89684e-05 0.103437)
(4.39074e-06 5.68336e-06 0.0971024)
(5.67654e-06 4.38405e-06 0.097101)
(8.84889e-08 -1.0194e-05 0.100167)
(6.56736e-07 7.10704e-06 0.091465)
(-1.05081e-07 9.68174e-06 0.100146)
(-1.19676e-06 -6.97352e-06 0.0914923)
(-2.08107e-06 3.05908e-06 0.0788186)
(2.11982e-06 -3.06478e-06 0.078847)
(-1.02723e-05 8.17486e-08 0.100166)
(7.0626e-06 6.15057e-07 0.0914639)
(9.75998e-06 -9.01004e-08 0.100147)
(-6.93059e-06 -1.16775e-06 0.0914932)
(8.65295e-07 -8.59537e-07 0.103668)
(-8.56044e-07 8.63284e-07 0.103668)
(8.55433e-07 8.58092e-07 0.103668)
(-8.5865e-07 -8.47684e-07 0.103668)
(8.5833e-07 -8.51875e-07 0.103668)
(-8.49356e-07 8.58236e-07 0.103668)
(8.47952e-07 8.53009e-07 0.103668)
(1.67527e-05 1.28594e-07 0.102823)
(-1.6058e-05 4.47084e-06 0.100645)
(-6.66798e-07 -2.22587e-07 0.103635)
(-5.21984e-07 8.48381e-07 0.103568)
(-1.67424e-05 -1.50428e-07 0.102813)
(1.54537e-05 -5.09684e-06 0.100677)
(-6.64598e-07 -2.19735e-07 0.103635)
(2.9793e-06 -2.0384e-06 0.0788157)
(-2.99681e-06 2.08149e-06 0.0788472)
(1.37627e-07 1.67647e-05 0.102823)
(-2.22475e-07 -6.66511e-07 0.103635)
(4.52587e-06 -1.61289e-05 0.100645)
(8.33378e-07 -5.11754e-07 0.103568)
(-1.49954e-07 -1.67602e-05 0.102813)
(-2.23584e-07 -6.50969e-07 0.103635)
(-5.1412e-06 1.55127e-05 0.100676)
(-4.77452e-06 -5.83374e-06 0.0970725)
(-5.82311e-06 -4.7688e-06 0.0970716)
(4.89672e-05 4.89869e-05 0.103437)
(4.41027e-06 5.6971e-06 0.0971024)
(5.69011e-06 4.40467e-06 0.0971011)
(5.78858e-08 -1.01864e-05 0.100167)
(6.42449e-07 7.10162e-06 0.0914654)
(-1.09945e-07 9.64091e-06 0.100146)
(-1.2368e-06 -6.96099e-06 0.091493)
(-2.02318e-06 3.02665e-06 0.078819)
(2.14578e-06 -3.05832e-06 0.0788482)
(-1.0274e-05 8.07303e-08 0.100166)
(7.06688e-06 6.15465e-07 0.0914644)
(9.72117e-06 -8.81476e-08 0.100147)
(-6.94129e-06 -1.18385e-06 0.0914936)
(8.65508e-07 -8.5891e-07 0.103668)
(-8.53141e-07 8.62043e-07 0.103668)
(8.51295e-07 8.56134e-07 0.103668)
(-8.7402e-07 -8.36441e-07 0.103667)
(8.31199e-07 -8.10541e-07 0.103667)
(-8.56581e-07 8.67913e-07 0.103667)
(8.46334e-07 8.70744e-07 0.103667)
(1.67387e-05 1.4686e-07 0.102823)
(-1.60253e-05 4.46377e-06 0.100645)
(-6.87535e-07 -2.16505e-07 0.103635)
(-4.98559e-07 8.29492e-07 0.103567)
(-1.67157e-05 -1.51575e-07 0.102813)
(1.54603e-05 -5.1038e-06 0.100677)
(-6.68372e-07 -2.15663e-07 0.103635)
(2.98683e-06 -2.05631e-06 0.0788165)
(-2.99098e-06 2.13872e-06 0.0788481)
(1.3457e-07 1.67508e-05 0.102823)
(-2.2268e-07 -6.94138e-07 0.103635)
(4.50832e-06 -1.61168e-05 0.100645)
(8.29999e-07 -5.09344e-07 0.103567)
(-1.55645e-07 -1.67361e-05 0.102813)
(-2.25863e-07 -6.62686e-07 0.103635)
(-5.16391e-06 1.55302e-05 0.100676)
(-4.75534e-06 -5.81267e-06 0.0970726)
(-5.80636e-06 -4.74544e-06 0.0970717)
(4.89696e-05 4.89968e-05 0.103437)
(4.42481e-06 5.72908e-06 0.0971026)
(5.71253e-06 4.42476e-06 0.0971012)
(9.03195e-08 -1.00446e-05 0.100167)
(6.82903e-07 7.17534e-06 0.0914659)
(-1.23729e-07 9.67947e-06 0.100146)
(-9.85023e-07 -6.74504e-06 0.0914936)
(-2.37365e-06 3.22564e-06 0.0788203)
(2.0118e-06 -2.95541e-06 0.0788462)
(-1.01318e-05 1.15317e-07 0.100166)
(7.11633e-06 6.30645e-07 0.0914651)
(9.73073e-06 -6.67361e-08 0.100147)
(-6.77367e-06 -1.08433e-06 0.0914939)
(7.87214e-07 -7.66009e-07 0.103667)
(-8.24523e-07 8.36169e-07 0.103667)
(8.16537e-07 8.37524e-07 0.103667)
(-7.38254e-07 -7.35295e-07 0.103668)
(7.65842e-07 -7.5983e-07 0.103668)
(-7.37939e-07 7.50408e-07 0.103668)
(7.52485e-07 7.36178e-07 0.103668)
(1.65243e-05 1.87237e-07 0.102823)
(-1.61223e-05 4.60535e-06 0.100645)
(-7.50854e-07 -1.62526e-07 0.103635)
(-6.83326e-07 9.94631e-07 0.103567)
(-1.67533e-05 -1.0978e-07 0.102813)
(1.52472e-05 -4.91479e-06 0.100677)
(-8.38204e-07 -1.51818e-07 0.103635)
(3.0364e-06 -2.16498e-06 0.0788176)
(-2.86627e-06 1.94782e-06 0.0788482)
(1.54033e-07 1.65483e-05 0.102823)
(-2.12461e-07 -7.16488e-07 0.103635)
(4.54444e-06 -1.61598e-05 0.100645)
(9.42819e-07 -6.59521e-07 0.103567)
(-1.45669e-07 -1.67495e-05 0.102813)
(-1.95077e-07 -8.12984e-07 0.103635)
(-5.04951e-06 1.53365e-05 0.100676)
(-4.76285e-06 -5.85909e-06 0.0970729)
(-5.85814e-06 -4.74766e-06 0.097072)
(4.88374e-05 4.88694e-05 0.103437)
(4.28474e-06 5.6089e-06 0.0971028)
(5.60199e-06 4.28056e-06 0.0971015)
(1.20089e-07 -9.90703e-06 0.100167)
(6.98296e-07 7.42921e-06 0.0914652)
(-1.03493e-07 1.0041e-05 0.100146)
(-1.11592e-06 -6.67442e-06 0.0914924)
(-1.97493e-06 3.20984e-06 0.0788183)
(2.28571e-06 -3.08146e-06 0.0788445)
(-9.975e-06 4.67699e-08 0.100166)
(7.44503e-06 6.56149e-07 0.0914647)
(1.01208e-05 -1.30357e-07 0.100146)
(-6.68506e-06 -1.13896e-06 0.0914923)
(8.04071e-07 -8.01643e-07 0.103668)
(-7.60332e-07 7.73375e-07 0.103668)
(7.78669e-07 7.56137e-07 0.103668)
(-8.41232e-07 -8.46182e-07 0.103668)
(8.66183e-07 -8.58799e-07 0.103668)
(-8.43973e-07 8.54897e-07 0.103668)
(8.52297e-07 8.43008e-07 0.103668)
(1.64791e-05 9.66637e-08 0.102824)
(-1.63729e-05 4.59699e-06 0.100645)
(-8.24887e-07 -2.19415e-07 0.103636)
(-5.80922e-07 8.18988e-07 0.103568)
(-1.71653e-05 -1.55504e-07 0.102813)
(1.52094e-05 -4.99814e-06 0.100677)
(-7.65674e-07 -2.32929e-07 0.103636)
(3.09339e-06 -1.97711e-06 0.0788156)
(-2.90681e-06 2.08521e-06 0.0788462)
(1.45324e-07 1.64863e-05 0.102823)
(-1.91133e-07 -8.3996e-07 0.103636)
(4.70025e-06 -1.64362e-05 0.100645)
(8.63984e-07 -5.96756e-07 0.103568)
(-1.38307e-07 -1.71835e-05 0.102813)
(-2.02876e-07 -7.76809e-07 0.103636)
(-4.96835e-06 1.52531e-05 0.100676)
(-4.95244e-06 -5.86522e-06 0.0970724)
(-5.84416e-06 -4.95427e-06 0.0970715)
(4.8927e-05 4.89388e-05 0.103438)
(4.27751e-06 5.67045e-06 0.097102)
(5.67383e-06 4.26263e-06 0.0971007)
(9.44146e-08 -1.01009e-05 0.100167)
(7.12579e-07 7.22274e-06 0.0914637)
(-9.1396e-08 9.78428e-06 0.100146)
(-1.12751e-06 -6.81211e-06 0.0914921)
(-2.04909e-06 2.97863e-06 0.0788178)
(2.09509e-06 -3.15036e-06 0.0788445)
(-1.01736e-05 7.65336e-08 0.100166)
(7.23789e-06 6.35994e-07 0.0914639)
(9.85875e-06 -9.47061e-08 0.100147)
(-6.88506e-06 -1.14927e-06 0.0914914)
(8.6096e-07 -8.54208e-07 0.103668)
(-8.50904e-07 8.59944e-07 0.103668)
(8.55416e-07 8.50591e-07 0.103668)
(-8.50261e-07 -8.43543e-07 0.103668)
(8.46942e-07 -8.39167e-07 0.103668)
(-8.4276e-07 8.50723e-07 0.103668)
(8.4305e-07 8.43457e-07 0.103668)
(1.66738e-05 1.32238e-07 0.102824)
(-1.61467e-05 4.5423e-06 0.100645)
(-7.02234e-07 -2.20965e-07 0.103636)
(-5.4544e-07 8.53874e-07 0.103568)
(-1.68255e-05 -1.56872e-07 0.102814)
(1.53761e-05 -5.03811e-06 0.100677)
(-7.03175e-07 -2.16228e-07 0.103636)
(3.03258e-06 -2.0232e-06 0.0788146)
(-2.94297e-06 2.04482e-06 0.0788458)
(1.37696e-07 1.66828e-05 0.102824)
(-2.21693e-07 -7.01326e-07 0.103636)
(4.59491e-06 -1.62218e-05 0.100645)
(8.4079e-07 -5.39648e-07 0.103568)
(-1.52941e-07 -1.6848e-05 0.102814)
(-2.21871e-07 -6.94491e-07 0.103636)
(-5.09277e-06 1.5426e-05 0.100676)
(-4.80549e-06 -5.84168e-06 0.097072)
(-5.8258e-06 -4.80206e-06 0.0970711)
(4.89703e-05 4.89892e-05 0.103438)
(4.37129e-06 5.67464e-06 0.097102)
(5.66972e-06 4.36455e-06 0.0971007)
(8.39316e-08 -1.01045e-05 0.100167)
(6.41148e-07 7.13154e-06 0.0914634)
(-1.11767e-07 9.74846e-06 0.100146)
(-1.15545e-06 -6.83947e-06 0.091492)
(-2.11342e-06 3.13018e-06 0.0788178)
(2.10874e-06 -3.08394e-06 0.0788446)
(-1.01777e-05 7.35065e-08 0.100166)
(7.19603e-06 6.32984e-07 0.0914637)
(9.82359e-06 -9.21398e-08 0.100147)
(-6.89007e-06 -1.15559e-06 0.0914916)
(8.43868e-07 -8.39236e-07 0.103668)
(-8.39517e-07 8.46874e-07 0.103668)
(8.39219e-07 8.41376e-07 0.103668)
(-8.43218e-07 -8.35524e-07 0.103668)
(8.39372e-07 -8.37799e-07 0.103668)
(-8.34528e-07 8.41002e-07 0.103668)
(8.33864e-07 8.36786e-07 0.103668)
(1.66563e-05 1.32908e-07 0.102824)
(-1.61296e-05 4.51901e-06 0.100645)
(-7.12664e-07 -2.1316e-07 0.103636)
(-5.59231e-07 8.64365e-07 0.103568)
(-1.68211e-05 -1.43714e-07 0.102814)
(1.53687e-05 -5.04727e-06 0.100677)
(-7.1318e-07 -2.1236e-07 0.103636)
(3.0198e-06 -2.03041e-06 0.0788145)
(-2.94902e-06 2.04332e-06 0.0788457)