/*--------------------------------*- C++ -*----------------------------------*\
| =========                 |                                                 |
| \\      /  F ield         | OpenFOAM: The Open Source CFD Toolbox           |
|  \\    /   O peration     | Version:  2206                                  |
|   \\  /    A nd           | Website:  www.openfoam.com                      |
|    \\/     M anipulation  |                                                 |
\*---------------------------------------------------------------------------*/
FoamFile
{
    version     2.0;
    format      ascii;
    arch        "LSB;label=32;scalar=64";
    class       surfaceScalarField;
    location    "25";
    object      phi;
}
// * * * * * * * * * * * * * * * * * * * * * * * * * * * * * * * * * * * * * //

dimensions      [0 3 -1 0 0 0 0];

oriented        oriented;

internalField   nonuniform List<scalar> 
83348
(
1.4116e-09
1.55551e-09
-0.00108253
-1.47818e-09
-1.44383e-09
0.00108253
-0.00108269
-1.19881e-06
-1.51639e-09
2.60402e-09
0.00108269
-2.50799e-07
1.20126e-06
2.49782e-07
8.83575e-07
-2.46885e-07
-8.83298e-07
2.4414e-07
-0.00108235
-1.19342e-06
-1.54143e-09
2.54025e-09
0.00108235
-2.48029e-07
1.19587e-06
2.47036e-07
8.83418e-07
-2.4948e-07
-8.8316e-07
2.46823e-07
-0.000266086
1.227e-06
1.19354e-06
-2.27264e-07
-2.32529e-07
0.000264125
1.55637e-09
1.70508e-09
-0.00108253
-1.56486e-09
-1.51263e-09
0.00108253
-0.00108269
-1.19878e-06
-1.65425e-09
2.52222e-09
0.00108269
-2.50759e-07
1.20128e-06
2.49813e-07
8.836e-07
-2.46811e-07
-8.83263e-07
2.44204e-07
-0.00108235
-1.19339e-06
-1.67811e-09
2.46907e-09
0.00108235
-2.4799e-07
1.1959e-06
2.47076e-07
8.83446e-07
-2.49423e-07
-8.83136e-07
2.46883e-07
-0.000266086
1.22697e-06
1.19351e-06
-2.2723e-07
-2.32495e-07
0.000264125
1.80347e-09
1.97042e-09
-0.00108253
-1.67585e-09
-1.61425e-09
0.00108253
-0.00108269
-1.19874e-06
-1.79196e-09
2.47374e-09
0.00108269
-2.50715e-07
1.20132e-06
2.49865e-07
8.83658e-07
-2.46766e-07
-8.83227e-07
2.4427e-07
-0.00108235
-1.19335e-06
-1.94594e-09
2.36071e-09
0.00108235
-2.47942e-07
1.19594e-06
2.47127e-07
8.83517e-07
-2.49353e-07
-8.83074e-07
2.46967e-07
-0.000266085
1.22692e-06
1.19347e-06
-2.27186e-07
-2.32441e-07
0.000264125
1.8921e-09
2.01259e-09
-0.00108253
-1.69556e-09
-1.66895e-09
0.00108253
-0.00108269
-1.19875e-06
-1.78386e-09
2.524e-09
0.00108269
-2.5073e-07
1.20131e-06
2.49858e-07
8.83676e-07
-2.46749e-07
-8.83213e-07
2.44301e-07
-0.00108235
-1.19337e-06
-2.01094e-09
2.36733e-09
0.00108235
-2.47967e-07
1.19596e-06
2.47153e-07
8.83549e-07
-2.49358e-07
-8.83087e-07
2.47012e-07
-0.000266085
1.22696e-06
1.19348e-06
-2.27175e-07
-2.32465e-07
0.000264124
4.68196e-10
3.84038e-10
-0.00108253
-8.23324e-10
-1.00828e-09
0.00108253
-0.00108269
-1.1988e-06
-1.40355e-09
2.64031e-09
0.00108269
-2.50802e-07
1.20122e-06
2.49744e-07
8.83482e-07
-2.46868e-07
-8.83349e-07
2.44126e-07
-0.00108235
-1.19364e-06
-4.8548e-10
3.17509e-09
0.00108235
-2.4831e-07
1.19561e-06
2.46733e-07
8.83041e-07
-2.49799e-07
-8.83494e-07
2.46445e-07
-0.000266084
1.22723e-06
1.19366e-06
-2.2734e-07
-2.32751e-07
0.000264124
1.01393e-09
1.27329e-09
-0.00108253
-1.41582e-09
-1.26003e-09
0.00108253
-0.00108269
-1.19901e-06
-7.08404e-10
2.88662e-09
0.00108269
-2.51062e-07
1.2012e-06
2.497e-07
8.83405e-07
-2.47461e-07
-8.83667e-07
2.4379e-07
-0.00108235
-1.19351e-06
-1.21112e-09
2.53336e-09
0.00108235
-2.48131e-07
1.19591e-06
2.47089e-07
8.83363e-07
-2.49865e-07
-8.834e-07
2.46657e-07
-0.000266086
1.22706e-06
1.19369e-06
-2.27484e-07
-2.3265e-07
0.000264125
1.46627e-09
1.63003e-09
-0.00108253
-1.5479e-09
-1.48358e-09
0.00108253
-0.00108269
-1.19879e-06
-1.61164e-09
2.48422e-09
0.00108269
-2.50775e-07
1.20134e-06
2.49888e-07
8.83636e-07
-2.46945e-07
-8.83352e-07
2.4421e-07
-0.00108235
-1.19342e-06
-1.60066e-09
2.47212e-09
0.00108235
-2.48033e-07
1.19594e-06
2.47117e-07
8.83464e-07
-2.49557e-07
-8.83222e-07
2.46869e-07
-0.000266086
1.227e-06
1.19354e-06
-2.27258e-07
-2.32531e-07
0.000264125
1.39094e-09
1.52727e-09
-0.00108253
-1.47138e-09
-1.44295e-09
0.00108253
-0.00108269
-1.19882e-06
-1.53804e-09
2.55706e-09
0.00108269
-2.50826e-07
1.20131e-06
2.49844e-07
8.83619e-07
-2.46959e-07
-8.83371e-07
2.44189e-07
-0.00108235
-1.19345e-06
-1.51606e-09
2.54484e-09
0.00108235
-2.48069e-07
1.19591e-06
2.47087e-07
8.83445e-07
-2.49578e-07
-8.83248e-07
2.46849e-07
-0.000266086
1.22703e-06
1.19357e-06
-2.27287e-07
-2.32561e-07
0.000264125
1.38949e-09
1.52515e-09
-0.00108253
-1.47057e-09
-1.44373e-09
0.00108253
-0.00108269
-1.19883e-06
-1.5281e-09
2.56456e-09
0.00108269
-2.50829e-07
1.20131e-06
2.49843e-07
8.83618e-07
-2.46961e-07
-8.83372e-07
2.44188e-07
-0.00108235
-1.19345e-06
-1.50867e-09
2.54808e-09
0.00108235
-2.4807e-07
1.19591e-06
2.47086e-07
8.83447e-07
-2.49581e-07
-8.8325e-07
2.46851e-07
-0.000266086
1.22703e-06
1.19357e-06
-2.27288e-07
-2.32561e-07
0.000264125
1.3821e-09
1.50475e-09
-0.00108253
-1.487e-09
-1.46039e-09
0.00108253
-0.00108269
-1.19883e-06
-1.52789e-09
2.5677e-09
0.00108269
-2.50832e-07
1.20131e-06
2.49842e-07
8.83618e-07
-2.4696e-07
-8.83372e-07
2.44189e-07
-0.00108235
-1.19345e-06
-1.4993e-09
2.53462e-09
0.00108235
-2.48069e-07
1.19591e-06
2.47089e-07
8.83446e-07
-2.49585e-07
-8.83253e-07
2.46851e-07
-0.000266086
1.22704e-06
1.19356e-06
-2.27283e-07
-2.32563e-07
0.000264125
1.31234e-09
-8.70583e-09
-0.00108253
-1.48072e-09
-1.43045e-09
0.00108254
-0.00108269
-1.19884e-06
-1.55277e-09
2.55696e-09
0.00108269
-2.50783e-07
1.20132e-06
2.49827e-07
8.83623e-07
-2.46954e-07
-8.83366e-07
2.44192e-07
-0.00108235
-1.19345e-06
-1.51431e-09
2.53734e-09
0.00108235
-2.48067e-07
1.19591e-06
2.4709e-07
8.83448e-07
-2.49583e-07
-8.83252e-07
2.46852e-07
-0.000266086
1.22703e-06
1.19356e-06
-2.27282e-07
-2.3256e-07
0.000264125
1.3457e-09
1.54486e-09
-0.00108254
-1.49357e-09
-1.42125e-09
0.00108254
-0.00108269
-1.19887e-06
-1.49547e-09
2.65449e-09
0.00108269
-2.48122e-07
1.20128e-06
2.47032e-07
8.83622e-07
-2.46937e-07
-8.83373e-07
2.44168e-07
-0.00108235
-1.19345e-06
-1.5174e-09
2.54872e-09
0.00108235
-2.4807e-07
1.19591e-06
2.47089e-07
8.83446e-07
-2.49586e-07
-8.83255e-07
2.4685e-07
-0.000266086
1.22703e-06
1.19357e-06
-2.27291e-07
-2.32558e-07
0.000264125
1.35215e-09
1.52033e-09
-0.00108254
-1.46529e-09
-1.42621e-09
0.00108254
-0.00108269
-1.19884e-06
-1.51336e-09
2.58038e-09
0.00108269
-2.48082e-07
1.20131e-06
2.47072e-07
8.83615e-07
-2.46933e-07
-8.83374e-07
2.44168e-07
-0.00108235
-1.19345e-06
-1.5185e-09
2.55176e-09
0.00108235
-2.4807e-07
1.19591e-06
2.47089e-07
8.83446e-07
-2.49587e-07
-8.83255e-07
2.46851e-07
-0.000266086
1.22703e-06
1.19357e-06
-2.27291e-07
-2.32559e-07
0.000264125
1.35064e-09
1.49989e-09
-0.00108254
-1.45255e-09
-1.4306e-09
0.00108254
-0.00108269
-1.19884e-06
-1.51067e-09
2.57943e-09
0.00108269
-2.4808e-07
1.20132e-06
2.4707e-07
8.83611e-07
-2.4693e-07
-8.83373e-07
2.44162e-07
-0.00108235
-1.19345e-06
-1.50988e-09
2.55716e-09
0.00108235
-2.48068e-07
1.19591e-06
2.47084e-07
8.83441e-07
-2.49583e-07
-8.83253e-07
2.46844e-07
-0.000266086
1.22703e-06
1.19357e-06
-2.27288e-07
-2.32559e-07
0.000264125
1.35741e-09
1.49677e-09
-0.00108254
-1.44908e-09
-1.43417e-09
0.00108254
-0.00108269
-1.19883e-06
-1.51335e-09
2.57881e-09
0.00108269
-2.48082e-07
1.20131e-06
2.47067e-07
8.8361e-07
-2.4693e-07
-8.83372e-07
2.44159e-07
-0.00108235
-1.19345e-06
-1.51219e-09
2.55298e-09
0.00108235
-2.48068e-07
1.19591e-06
2.47083e-07
8.8344e-07
-2.49582e-07
-8.83252e-07
2.46843e-07
-0.000266086
1.22703e-06
1.19357e-06
-2.27287e-07
-2.32558e-07
0.000264125
1.37573e-09
1.50435e-09
-0.00108254
-1.45385e-09
-1.44471e-09
0.00108254
-0.00108269
-1.19883e-06
-1.52111e-09
2.5727e-09
0.00108269
-2.48078e-07
1.20132e-06
2.47069e-07
8.8361e-07
-2.46926e-07
-8.83368e-07
2.44159e-07
-0.00108235
-1.19345e-06
-1.51563e-09
2.55238e-09
0.00108235
-2.48066e-07
1.19591e-06
2.47084e-07
8.8344e-07
-2.49578e-07
-8.83249e-07
2.46842e-07
-0.000266086
1.22703e-06
1.19357e-06
-2.27286e-07
-2.32557e-07
0.000264125
1.38303e-09
1.49848e-09
-0.00108254
-1.45329e-09
-1.44639e-09
0.00108254
-0.00108269
-1.19883e-06
-1.52229e-09
2.57052e-09
0.00108269
-2.48072e-07
1.20131e-06
2.47064e-07
8.836e-07
-2.46914e-07
-8.83358e-07
2.44146e-07
-0.00108235
-1.19344e-06
-1.51913e-09
2.54912e-09
0.00108235
-2.48059e-07
1.19591e-06
2.47079e-07
8.83428e-07
-2.49565e-07
-8.83239e-07
2.4683e-07
-0.000266086
1.22702e-06
1.19356e-06
-2.27281e-07
-2.32553e-07
0.000264125
1.38824e-09
1.50823e-09
-0.00108254
-1.45194e-09
-1.44329e-09
-0.00108269
-1.19881e-06
-1.52961e-09
2.57112e-09
-2.48046e-07
1.20129e-06
2.47034e-07
8.83569e-07
-2.46871e-07
-8.8332e-07
2.44115e-07
-0.00108235
-1.19343e-06
-1.52713e-09
2.55475e-09
-2.48034e-07
1.19588e-06
2.47049e-07
8.83398e-07
-2.49522e-07
-8.83199e-07
2.46799e-07
-0.000266086
1.227e-06
1.19354e-06
-2.27262e-07
-2.32532e-07
0.000264125
-1.23738e-06
-1.19863e-06
0.000266102
-0.00026413
2.27183e-07
2.37493e-07
0.00108191
-1.34007e-09
-0.00108191
2.74352e-09
-1.23497e-06
2.5507e-07
-2.56186e-07
-8.85943e-07
2.4131e-07
-2.44161e-07
8.86115e-07
1.24017e-06
0.00108235
-1.33714e-09
-0.00108235
2.71007e-09
-1.23775e-06
2.55143e-07
-2.56242e-07
-8.91591e-07
2.46813e-07
-2.49673e-07
8.91756e-07
-1.20126e-06
0.000266125
-0.000264149
2.2993e-07
2.34769e-07
0.00108297
-1.52878e-09
-0.00108297
2.55587e-09
-1.19621e-06
2.49816e-07
-2.5083e-07
-8.86017e-07
2.4688e-07
-2.49636e-07
8.8634e-07
1.23479e-06
0.00108203
-1.34911e-09
-0.00108203
2.72381e-09
-1.23239e-06
2.55125e-07
-2.56243e-07
-8.86019e-07
2.46784e-07
-2.49597e-07
8.8618e-07
-1.51207e-09
2.58454e-09
-1.19881e-06
2.49782e-07
-2.50792e-07
-8.83312e-07
2.44116e-07
8.83557e-07
-2.46901e-07
1.2294e-06
0.00108182
-1.35435e-09
-0.00108182
2.73147e-09
-1.22701e-06
2.49605e-07
-2.507e-07
-8.83325e-07
2.44011e-07
-2.4684e-07
8.83481e-07
-1.19586e-06
0.000266081
-0.000264112
2.27356e-07
2.34731e-07
-1.50402e-09
-0.00108235
2.56382e-09
-1.19343e-06
2.47024e-07
-2.48043e-07
-8.83132e-07
2.46775e-07
8.83454e-07
-2.49532e-07
1.19597e-06
0.00108287
-1.48957e-09
-0.00108287
2.58046e-09
-1.19355e-06
2.47076e-07
-2.48105e-07
-8.83421e-07
2.46867e-07
-2.49621e-07
8.83706e-07
-0.000264125
2.29673e-07
2.34961e-07
1.23496e-06
1.1962e-06
-2.24769e-07
-2.3504e-07
0.00026413
-1.2374e-06
-1.19865e-06
0.000266102
-0.00026413
2.2722e-07
2.37528e-07
2.71339e-09
0.00108191
-2.5617e-07
1.23739e-06
2.55084e-07
8.86138e-07
-2.44132e-07
-8.85912e-07
2.41335e-07
-1.23777e-06
-1.37981e-09
2.75021e-09
0.00108235
-2.56256e-07
1.24283e-06
2.57866e-07
8.91773e-07
-2.49653e-07
-8.91573e-07
2.46836e-07
0.00108191
-1.49103e-09
-0.00108191
2.64844e-09
-1.23494e-06
2.55104e-07
-2.56141e-07
-8.85904e-07
2.41373e-07
-2.44088e-07
8.86149e-07
1.24019e-06
0.00108235
-1.46505e-09
-0.00108235
2.6955e-09
-1.2404e-06
2.55169e-07
-2.58945e-07
-8.91555e-07
2.46878e-07
-2.49603e-07
8.91782e-07
-2.27499e-07
-2.32331e-07
0.000264149
-1.20128e-06
0.000266125
-0.000264149
2.29966e-07
2.34803e-07
2.53372e-09
0.00108297
-2.50816e-07
1.19864e-06
2.49828e-07
8.86356e-07
-2.49608e-07
-8.85997e-07
2.46904e-07
-1.23238e-06
-1.40129e-09
2.70192e-09
0.00108203
-2.56226e-07
1.2348e-06
2.55139e-07
8.862e-07
-2.49566e-07
-8.85994e-07
2.46809e-07
0.00108297
-1.69173e-09
-0.00108297
2.48798e-09
-1.19618e-06
2.49848e-07
-2.50789e-07
-8.8598e-07
2.46944e-07
-2.49561e-07
8.86366e-07
1.23481e-06
0.00108202
-1.50742e-09
-0.00108202
2.64787e-09
-1.23236e-06
2.55156e-07
-2.56201e-07
-8.85978e-07
2.46847e-07
-2.49525e-07
8.86215e-07
-1.38873e-09
2.70245e-09
0.00108182
-2.50685e-07
1.22941e-06
2.49619e-07
8.83501e-07
-2.46808e-07
2.44035e-07
-8.83302e-07
-1.61725e-09
-0.00108269
2.54294e-09
-1.19878e-06
2.49806e-07
-2.50764e-07
-8.83268e-07
2.44189e-07
8.83593e-07
-2.46827e-07
1.22942e-06
0.00108182
-1.47982e-09
-0.00108182
2.64244e-09
-1.22697e-06
2.49642e-07
-2.50653e-07
-8.83282e-07
2.44066e-07
-2.46769e-07
8.83512e-07
-2.24926e-07
-2.32297e-07
0.000264112
-1.19588e-06
0.000266081
-0.000264112
2.27394e-07
2.34764e-07
-1.54384e-09
2.56398e-09
0.00108287
-2.48092e-07
1.19597e-06
2.47087e-07
8.83727e-07
-2.49589e-07
2.46894e-07
-8.83396e-07
-1.65644e-09
-0.00108235
2.48659e-09
-1.1934e-06
2.47057e-07
-2.48001e-07
-8.83096e-07
2.46837e-07
8.83478e-07
-2.49459e-07
1.19598e-06
0.00108287
-1.65741e-09
-0.00108287
2.52247e-09
-1.19352e-06
2.47107e-07
-2.48066e-07
-8.83381e-07
2.46932e-07
-2.49546e-07
8.83734e-07
-0.000264125
2.29705e-07
2.34999e-07
1.23493e-06
1.19617e-06
-2.24734e-07
-2.35009e-07
0.00026413
-1.23744e-06
-1.19869e-06
0.000266101
-0.00026413
2.27266e-07
2.3758e-07
2.62929e-09
0.00108191
-2.56132e-07
1.23742e-06
2.55122e-07
8.86182e-07
-2.44072e-07
-8.85874e-07
2.414e-07
-1.23773e-06
-1.52166e-09
2.68623e-09
0.00108235
-2.56216e-07
1.24286e-06
2.57901e-07
8.918e-07
-2.49589e-07
-8.91545e-07
2.46895e-07
0.0010819
-1.61882e-09
-0.00108191
2.61166e-09
-1.23491e-06
2.55154e-07
-2.561e-07
-8.85866e-07
2.41437e-07
-2.44038e-07
8.86196e-07
1.24288e-06
0.00108235
-1.59417e-09
-0.00108235
2.68576e-09
-1.24038e-06
2.57937e-07
-2.58916e-07
-8.91516e-07
2.46944e-07
-2.49555e-07
8.91838e-07
-2.27459e-07
-2.3229e-07
0.000264149
-1.20131e-06
0.000266128
-0.000264148
2.30046e-07
2.34838e-07
2.47516e-09
0.00108297
-2.50779e-07
1.19867e-06
2.49866e-07
8.86386e-07
-2.49549e-07
-8.85971e-07
2.46965e-07
-1.23235e-06
-1.55764e-09
2.63273e-09
0.00108202
-2.56191e-07
1.23482e-06
2.55174e-07
8.86245e-07
-2.49504e-07
-8.85955e-07
2.46876e-07
0.00108297
-1.83511e-09
-0.00108297
2.44831e-09
-1.19615e-06
2.49897e-07
-2.50748e-07
-8.85937e-07
2.47014e-07
-2.49507e-07
8.86424e-07
1.23484e-06
0.00108202
-1.63764e-09
-0.00108202
2.61454e-09
-1.23233e-06
2.55205e-07
-2.5616e-07
-8.85938e-07
2.46913e-07
-2.49471e-07
8.86262e-07
-1.51159e-09
2.62161e-09
0.00108182
-2.50644e-07
1.22943e-06
2.49656e-07
8.83523e-07
-2.46754e-07
2.44087e-07
-8.83276e-07
-1.67872e-09
-0.00108269
2.50867e-09
-1.19875e-06
2.49853e-07
-2.50729e-07
-8.83247e-07
2.4424e-07
8.83629e-07
-2.46789e-07
1.22946e-06
0.00108182
-1.55984e-09
-0.00108182
2.59276e-09
-1.22694e-06
2.49694e-07
-2.50611e-07
-8.83257e-07
2.44124e-07
-2.46723e-07
8.83551e-07
-2.2489e-07
-2.32268e-07
0.000264112
-1.19591e-06
0.00026608
-0.000264112
2.2744e-07
2.34817e-07
-1.69681e-09
2.51307e-09
0.00108287
-2.48056e-07
1.19599e-06
2.47122e-07
8.83757e-07
-2.49528e-07
2.46957e-07
-8.83368e-07
-1.79616e-09
-0.00108235
2.44812e-09
-1.19337e-06
2.47105e-07
-2.4796e-07
-8.83053e-07
2.46907e-07
8.83537e-07
-2.49404e-07
1.19601e-06
0.00108287
-1.80683e-09
-0.00108287
2.49141e-09
-1.19349e-06
2.47153e-07
-2.48028e-07
-8.83339e-07
2.47001e-07
-2.49493e-07
8.83793e-07
-0.000264125
2.29751e-07
2.3505e-07
1.23489e-06
1.19613e-06
-2.24687e-07
-2.34957e-07
0.00026413
-1.23742e-06
-1.19868e-06
0.000266101
-0.00026413
2.27299e-07
2.37599e-07
2.51598e-09
0.0010819
-2.56081e-07
1.23746e-06
2.55177e-07
8.86237e-07
-2.44007e-07
-8.85828e-07
2.4148e-07
-1.24037e-06
-1.71974e-09
2.64554e-09
0.00108235
-2.58903e-07
1.24289e-06
2.5795e-07
8.91868e-07
-2.49523e-07
-8.9149e-07
2.46981e-07
0.0010819
-1.59169e-09
-0.0010819
2.71866e-09
-1.23491e-06
2.55134e-07
-2.56113e-07
-8.85837e-07
2.41468e-07
-2.44012e-07
8.86223e-07
1.24293e-06
0.00108235
-1.60886e-09
-0.00108235
2.6282e-09
-1.24033e-06
2.57982e-07
-2.58877e-07
-8.91479e-07
2.47012e-07
-2.49504e-07
8.91883e-07
-2.27452e-07
-2.32265e-07
0.000264148
-1.20135e-06
0.000266127
-0.000264148
2.3011e-07
2.34915e-07
2.35712e-09
0.00108297
-2.50729e-07
1.19871e-06
2.4992e-07
8.86456e-07
-2.49479e-07
-8.85911e-07
2.4705e-07
-1.23231e-06
-1.79877e-09
2.52494e-09
0.00108202
-2.5614e-07
1.23487e-06
2.55231e-07
8.86296e-07
-2.49442e-07
-8.85912e-07
2.46951e-07
0.00108297
-1.74616e-09
-0.00108297
2.50133e-09
-1.19614e-06
2.49888e-07
-2.50752e-07
-8.85924e-07
2.47031e-07
-2.49494e-07
8.86432e-07
1.23483e-06
0.00108202
-1.57867e-09
-0.00108202
2.67562e-09
-1.23232e-06
2.55196e-07
-2.56165e-07
-8.85919e-07
2.46938e-07
-2.49453e-07
8.86281e-07
-1.71783e-09
2.50984e-09
0.00108182
-2.5059e-07
1.22948e-06
2.49716e-07
8.83588e-07
-2.46702e-07
2.44158e-07
-8.8323e-07
-1.78976e-09
-0.00108269
2.47147e-09
-1.19871e-06
2.49894e-07
-2.50691e-07
-8.83187e-07
2.44327e-07
8.83708e-07
-2.46723e-07
1.22945e-06
0.00108182
-1.58891e-09
-0.00108182
2.68433e-09
-1.22693e-06
2.49692e-07
-2.50605e-07
-8.83218e-07
2.44165e-07
-2.467e-07
8.83602e-07
-2.24845e-07
-2.32215e-07
0.000264112
-1.1959e-06
0.00026608
-0.000264111
2.27468e-07
2.34843e-07
-1.97549e-09
2.40346e-09
0.00108287
-2.48009e-07
1.19604e-06
2.47176e-07
8.83831e-07
-2.49458e-07
2.47045e-07
-8.83306e-07
-1.739e-09
-0.00108235
2.52997e-09
-1.19337e-06
2.47092e-07
-2.47966e-07
-8.83035e-07
2.4693e-07
8.83551e-07
-2.49386e-07
1.19602e-06
0.00108287
-1.71871e-09
-0.00108287
2.51846e-09
-1.19348e-06
2.47151e-07
-2.48028e-07
-8.83322e-07
2.47027e-07
-2.49473e-07
8.83806e-07
-0.000264124
2.29798e-07
2.3508e-07
1.23492e-06
1.19614e-06
-2.24696e-07
-2.34981e-07
0.000264129
-1.23736e-06
-1.19865e-06
0.0002661
-0.000264129
2.27236e-07
2.37513e-07
2.53508e-09
0.0010819
-2.56113e-07
1.23747e-06
2.55195e-07
8.8628e-07
-2.44009e-07
-8.8583e-07
2.4153e-07
-1.24036e-06
-1.69941e-09
2.65319e-09
0.00108235
-2.58902e-07
1.2429e-06
2.57969e-07
8.91871e-07
-2.49523e-07
-8.91502e-07
2.46993e-07
0.0010819
-1.35523e-09
-0.0010819
3.05232e-09
-1.23493e-06
2.55033e-07
-2.56178e-07
-8.85861e-07
2.41384e-07
-2.44055e-07
8.86153e-07
1.24308e-06
0.00108234
-1.73421e-09
-0.00108234
2.24256e-09
-1.24021e-06
2.58113e-07
-2.58771e-07
-8.91453e-07
2.47068e-07
-2.49448e-07
8.91884e-07
-2.27431e-07
-2.32221e-07
0.000264148
-1.20146e-06
0.000266127
-0.000264147
2.302e-07
2.35057e-07
2.33274e-09
0.00108297
-2.50748e-07
1.19874e-06
2.49954e-07
8.86481e-07
-2.49492e-07
-8.85931e-07
2.47088e-07
-1.23233e-06
-1.85769e-09
2.51443e-09
0.00108202
-2.56163e-07
1.23489e-06
2.55258e-07
8.86334e-07
-2.49448e-07
-8.8592e-07
2.46998e-07
0.00108297
-1.32795e-09
-0.00108297
2.62104e-09
-1.19613e-06
2.49817e-07
-2.5079e-07
-8.85976e-07
2.4692e-07
-2.4956e-07
8.8633e-07
1.2348e-06
0.00108202
-1.22016e-09
-0.00108202
2.84189e-09
-1.23232e-06
2.55116e-07
-2.5621e-07
-8.85964e-07
2.46834e-07
-2.49514e-07
8.86188e-07
-1.76807e-09
2.57102e-09
0.00108182
-2.5063e-07
1.22947e-06
2.49709e-07
8.83623e-07
-2.46693e-07
2.44216e-07
-8.83222e-07
-2.21446e-09
-0.00108269
2.21143e-09
-1.19861e-06
2.49996e-07
-2.50608e-07
-8.83088e-07
2.44436e-07
8.83809e-07
-2.46635e-07
1.22941e-06
0.00108182
-1.70623e-09
-0.00108182
2.92979e-09
-1.22694e-06
2.49605e-07
-2.50654e-07
-8.83152e-07
2.44196e-07
-2.4667e-07
8.83659e-07
-2.2486e-07
-2.32231e-07
0.000264111
-1.19586e-06
0.000266079
-0.000264111
2.27392e-07
2.3477e-07
-2.01596e-09
2.37341e-09
0.00108287
-2.48022e-07
1.19606e-06
2.47212e-07
8.8385e-07
-2.49467e-07
2.47079e-07
-8.83326e-07
-1.41225e-09
-0.00108235
2.74074e-09
-1.19337e-06
2.47006e-07
-2.48021e-07
-8.83074e-07
2.46831e-07
8.83461e-07
-2.49438e-07
1.19606e-06
0.00108287
-1.30411e-09
-0.00108287
2.50079e-09
-1.19342e-06
2.47126e-07
-2.4803e-07
-8.83371e-07
2.46919e-07
-2.49531e-07
8.83702e-07
-0.000264124
2.29819e-07
2.34995e-07
1.23521e-06
1.1964e-06
-2.24959e-07
-2.3527e-07
0.000264129
-1.23732e-06
-1.19855e-06
0.000266102
-0.00026413
2.27003e-07
2.37334e-07
3.50898e-09
0.0010819
-2.56477e-07
1.2371e-06
2.54753e-07
8.85799e-07
-2.44434e-07
-8.86214e-07
2.40982e-07
-1.24036e-06
-8.74717e-10
2.61373e-09
0.00108234
-2.58938e-07
1.24287e-06
2.57894e-07
8.91527e-07
-2.49743e-07
-8.91773e-07
2.46677e-07
0.00108191
-5.06915e-10
-0.0010819
2.85844e-09
-1.23519e-06
2.55005e-07
-2.56436e-07
-8.86378e-07
2.40934e-07
-2.44765e-07
8.85888e-07
1.24258e-06
0.00108235
-2.40887e-10
-0.00108235
3.36421e-09
-1.24081e-06
2.57574e-07
-2.59418e-07
-8.92053e-07
2.46326e-07
-2.50385e-07
8.91501e-07
-2.27481e-07
-2.32204e-07
0.000264147
-1.20104e-06
0.000266128
-0.000264148
2.29641e-07
2.34384e-07
3.05965e-09
0.00108297
-2.51079e-07
1.1984e-06
2.49544e-07
8.85964e-07
-2.49948e-07
-8.8635e-07
2.46507e-07
-1.2326e-06
-2.91689e-10
3.28413e-09
0.00108202
-2.56503e-07
1.23453e-06
2.54838e-07
8.85825e-07
-2.49894e-07
-8.8633e-07
2.46429e-07
0.00108297
-8.00437e-10
-0.00108297
2.78364e-09
-1.19644e-06
2.49734e-07
-2.5109e-07
-8.86435e-07
2.46528e-07
-2.50221e-07
8.86135e-07
1.23472e-06
0.00108202
-5.68996e-10
-0.00108202
2.93985e-09
-1.23262e-06
2.55047e-07
-2.565e-07
-8.86444e-07
2.46411e-07
-2.502e-07
8.85966e-07
-8.23328e-10
3.45537e-09
0.00108182
-2.50979e-07
1.22911e-06
2.49282e-07
8.83317e-07
-2.46954e-07
2.4386e-07
-8.83445e-07
-2.19974e-10
-0.00108269
3.11669e-09
-1.19916e-06
2.49508e-07
-2.51234e-07
-8.83845e-07
2.43578e-07
8.8322e-07
-2.47619e-07
1.22934e-06
0.00108182
-3.10576e-10
-0.00108182
2.86611e-09
-1.22723e-06
2.49549e-07
-2.50953e-07
-8.83846e-07
2.43531e-07
-2.47517e-07
8.8316e-07
-2.25133e-07
-2.32507e-07
0.000264111
-1.19579e-06
0.000266081
-0.000264112
2.27181e-07
2.34564e-07
-3.748e-10
2.94453e-09
0.00108287
-2.48296e-07
1.19581e-06
2.46865e-07
8.83326e-07
-2.49924e-07
2.46495e-07
-8.8375e-07
-7.33769e-10
-0.00108235
2.76e-09
-1.19366e-06
2.46944e-07
-2.48302e-07
-8.83552e-07
2.46416e-07
8.83244e-07
-2.50118e-07
1.19584e-06
0.00108287
-7.65452e-10
-0.00108287
2.89339e-09
-1.19382e-06
2.46961e-07
-2.48389e-07
-8.83836e-07
2.46512e-07
-2.50213e-07
8.83507e-07
-0.000264125
2.29425e-07
2.34813e-07
1.23503e-06
1.1963e-06
-2.24931e-07
-2.35175e-07
0.00026413
-1.23747e-06
-1.19872e-06
0.000266102
-0.00026413
2.27263e-07
2.37573e-07
2.60632e-09
0.00108191
-2.56254e-07
1.23745e-06
2.55156e-07
8.86066e-07
-2.44544e-07
-8.86177e-07
2.41154e-07
-1.24069e-06
-7.65419e-10
3.15362e-09
0.00108235
-2.59285e-07
1.24272e-06
2.57741e-07
8.91678e-07
-2.50147e-07
-8.91856e-07
2.46584e-07
0.00108191
-1.45994e-09
-0.00108191
2.57859e-09
-1.23495e-06
2.55184e-07
-2.56153e-07
-8.85975e-07
2.4139e-07
-2.44216e-07
8.86196e-07
1.24293e-06
0.00108235
-1.46191e-09
-0.00108235
2.66745e-09
-1.24041e-06
2.57991e-07
-2.58956e-07
-8.9164e-07
2.46889e-07
-2.49734e-07
8.91819e-07
-2.27824e-07
-2.32692e-07
0.000264149
-1.20136e-06
0.000266128
-0.000264149
2.30058e-07
2.34864e-07
2.58448e-09
0.00108297
-2.50926e-07
1.19867e-06
2.49872e-07
8.86308e-07
-2.49988e-07
-8.86233e-07
2.46745e-07
-1.23247e-06
-1.08173e-09
2.7208e-09
0.00108203
-2.56328e-07
1.23484e-06
2.55192e-07
8.86147e-07
-2.49963e-07
-8.86239e-07
2.4664e-07
0.00108297
-1.69739e-09
-0.00108297
2.46537e-09
-1.19619e-06
2.49921e-07
-2.5081e-07
-8.86045e-07
2.46961e-07
-2.49681e-07
8.86419e-07
1.23487e-06
0.00108203
-1.51247e-09
-0.00108203
2.60528e-09
-1.23237e-06
2.55232e-07
-2.56219e-07
-8.8604e-07
2.46866e-07
-2.49641e-07
8.86265e-07
-8.0446e-10
2.60074e-09
0.00108182
-2.50754e-07
1.22948e-06
2.49707e-07
8.83356e-07
-2.47322e-07
2.43754e-07
-8.83655e-07
-1.59634e-09
-0.00108269
2.48043e-09
-1.19878e-06
2.49906e-07
-2.50763e-07
-8.83362e-07
2.44194e-07
8.83633e-07
-2.46979e-07
1.22949e-06
0.00108182
-1.43904e-09
-0.00108182
2.57736e-09
-1.22698e-06
2.49722e-07
-2.50666e-07
-8.83359e-07
2.44077e-07
-2.46909e-07
8.83564e-07
-2.25077e-07
-2.32443e-07
0.000264112
-1.19595e-06
0.000266081
-0.000264112
2.27439e-07
2.34806e-07
-1.26581e-09
2.70228e-09
0.00108287
-2.4824e-07
1.19596e-06
2.47093e-07
8.83686e-07
-2.49966e-07
2.46741e-07
-8.83625e-07
-1.64364e-09
-0.00108235
2.43094e-09
-1.19341e-06
2.47137e-07
-2.48012e-07
-8.83164e-07
2.4685e-07
8.83528e-07
-2.49582e-07
1.19605e-06
0.00108287
-1.65348e-09
-0.00108287
2.51148e-09
-1.19354e-06
2.47174e-07
-2.48095e-07
-8.83446e-07
2.46948e-07
-2.49665e-07
8.83786e-07
-0.000264125
2.29752e-07
2.3504e-07
1.23496e-06
1.19621e-06
-2.24772e-07
-2.3504e-07
0.00026413
-1.23743e-06
-1.19869e-06
0.000266102
-0.00026413
2.27231e-07
2.37534e-07
2.63452e-09
0.00108191
-2.56174e-07
1.23746e-06
2.55164e-07
8.86195e-07
-2.44214e-07
-8.85972e-07
2.41389e-07
-1.24041e-06
-1.46746e-09
2.65502e-09
0.00108235
-2.58957e-07
1.24292e-06
2.5798e-07
8.9182e-07
-2.49718e-07
-8.91637e-07
2.46893e-07
0.00108191
-1.38147e-09
-0.00108191
2.71116e-09
-1.23499e-06
2.55134e-07
-2.5621e-07
-8.86002e-07
2.41374e-07
-2.44233e-07
8.86172e-07
1.24289e-06
0.00108235
-1.38522e-09
-0.00108235
2.7059e-09
-1.24044e-06
2.57942e-07
-2.58998e-07
-8.91652e-07
2.46872e-07
-2.49737e-07
8.91806e-07
-2.27511e-07
-2.32306e-07
0.000264149
-1.20131e-06
0.000266128
-0.000264149
2.30015e-07
2.34821e-07
2.49106e-09
0.00108297
-2.50827e-07
1.1987e-06
2.49904e-07
8.86406e-07
-2.49681e-07
-8.86057e-07
2.46953e-07
-1.23238e-06
-1.47879e-09
2.64157e-09
0.00108203
-2.56235e-07
1.23486e-06
2.55216e-07
8.86255e-07
-2.49639e-07
-8.86049e-07
2.46861e-07
0.00108297
-1.56766e-09
-0.00108297
2.52921e-09
-1.19623e-06
2.49882e-07
-2.50855e-07
-8.86077e-07
2.46935e-07
-2.49698e-07
8.86388e-07
1.23484e-06
0.00108203
-1.39233e-09
-0.00108203
2.69414e-09
-1.23241e-06
2.55189e-07
-2.56267e-07
-8.86074e-07
2.46838e-07
-2.4966e-07
8.86234e-07
-1.43701e-09
2.63249e-09
0.00108182
-2.50689e-07
1.22947e-06
2.49698e-07
8.8356e-07
-2.46888e-07
2.44084e-07
-8.83358e-07
-1.55905e-09
-0.00108269
2.54939e-09
-1.19882e-06
2.49847e-07
-2.50822e-07
-8.83365e-07
2.44192e-07
8.83623e-07
-2.46955e-07
1.22945e-06
0.00108182
-1.39392e-09
-0.00108182
2.70381e-09
-1.22703e-06
2.49671e-07
-2.50724e-07
-8.83379e-07
2.44068e-07
-2.46901e-07
8.83542e-07
-2.24923e-07
-2.32301e-07
0.000264112
-1.19591e-06
0.000266081
-0.000264112
2.274e-07
2.34773e-07
-1.61422e-09
2.53082e-09
0.00108287
-2.48104e-07
1.19604e-06
2.47161e-07
8.83775e-07
-2.49662e-07
2.46943e-07
-8.83456e-07
-1.54017e-09
-0.00108235
2.53455e-09
-1.19345e-06
2.47089e-07
-2.48066e-07
-8.83193e-07
2.46829e-07
8.83502e-07
-2.49596e-07
1.19602e-06
0.00108287
-1.52882e-09
-0.00108287
2.55561e-09
-1.19357e-06
2.47142e-07
-2.48129e-07
-8.83481e-07
2.46921e-07
-2.49684e-07
8.83754e-07
-0.000264125
2.29719e-07
2.35002e-07
1.23499e-06
1.19623e-06
-2.24802e-07
-2.35071e-07
0.00026413
-1.23743e-06
-1.19869e-06
0.000266102
-0.00026413
2.27233e-07
2.37532e-07
2.72012e-09
0.00108191
-2.56212e-07
1.23743e-06
2.55133e-07
8.86175e-07
-2.4424e-07
-8.85999e-07
2.41374e-07
-1.24044e-06
-1.37709e-09
2.7112e-09
0.00108235
-2.59002e-07
1.24289e-06
2.57939e-07
8.91804e-07
-2.49739e-07
-8.91653e-07
2.4687e-07
0.00108191
-1.37371e-09
-0.00108191
2.7175e-09
-1.235e-06
2.55132e-07
-2.56213e-07
-8.86007e-07
2.41379e-07
-2.44243e-07
8.86171e-07
1.24289e-06
0.00108235
-1.36864e-09
-0.00108235
2.72251e-09
-1.24045e-06
2.57935e-07
-2.59007e-07
-8.91653e-07
2.46866e-07
-2.49739e-07
8.91802e-07
-2.2755e-07
-2.32348e-07
0.000264149
-1.20131e-06
0.000266128
-0.000264149
2.30011e-07
2.34815e-07
2.53665e-09
0.00108297
-2.50857e-07
1.19869e-06
2.4988e-07
8.86382e-07
-2.49704e-07
-8.86084e-07
2.46928e-07
-1.23241e-06
-1.38022e-09
2.70345e-09
0.00108203
-2.56267e-07
1.23484e-06
2.55189e-07
8.86232e-07
-2.49664e-07
-8.86078e-07
2.46837e-07
0.00108297
-1.55211e-09
-0.00108297
2.53043e-09
-1.19623e-06
2.49881e-07
-2.50858e-07
-8.8608e-07
2.4693e-07
-2.497e-07
8.86383e-07
1.23484e-06
0.00108203
-1.3744e-09
-0.00108203
2.70314e-09
-1.23241e-06
2.55186e-07
-2.5627e-07
-8.86079e-07
2.46835e-07
-2.49665e-07
8.8623e-07
-1.3793e-09
2.7094e-09
0.00108182
-2.50725e-07
1.22945e-06
2.49669e-07
8.83539e-07
-2.46904e-07
2.44066e-07
-8.83383e-07
-1.53828e-09
-0.00108269
2.56562e-09
-1.19883e-06
2.49842e-07
-2.5083e-07
-8.83371e-07
2.44188e-07
8.83619e-07
-2.46961e-07
1.22945e-06
0.00108182
-1.38291e-09
-0.00108182
2.7074e-09
-1.22703e-06
2.4967e-07
-2.50726e-07
-8.83384e-07
2.44065e-07
-2.46905e-07
8.83538e-07
-2.24955e-07
-2.32329e-07
0.000264112
-1.19591e-06
0.000266081
-0.000264112
2.27397e-07
2.34771e-07
-1.51931e-09
2.5655e-09
0.00108287
-2.4813e-07
1.19602e-06
2.47139e-07
8.83753e-07
-2.49685e-07
2.4692e-07
-8.83483e-07
-1.52709e-09
-0.00108235
2.54631e-09
-1.19345e-06
2.47086e-07
-2.4807e-07
-8.83197e-07
2.46829e-07
8.83501e-07
-2.496e-07
1.19602e-06
0.00108287
-1.51682e-09
-0.00108287
2.55881e-09
-1.19357e-06
2.47139e-07
-2.48131e-07
-8.83484e-07
2.46919e-07
-2.49687e-07
8.83752e-07
-0.000264125
2.29716e-07
2.35001e-07
1.23499e-06
1.19623e-06
-2.24805e-07
-2.3507e-07
0.00026413
-1.23743e-06
-1.19869e-06
0.000266102
-0.00026413
2.27241e-07
2.37531e-07
2.7179e-09
0.00108191
-2.56212e-07
1.23743e-06
2.55133e-07
8.86176e-07
-2.44248e-07
-8.86001e-07
2.41382e-07
-1.24045e-06
-1.36871e-09
2.71982e-09
0.00108235
-2.59006e-07
1.24289e-06
2.57937e-07
8.91803e-07
-2.49738e-07
-8.91652e-07
2.46868e-07
0.00108191
-1.37614e-09
-0.00108191
2.7055e-09
-1.23499e-06
2.55136e-07
-2.56208e-07
-8.86003e-07
2.41395e-07
-2.44243e-07
8.8618e-07
1.24289e-06
0.00108235
-1.34421e-09
-0.00108235
2.73744e-09
-1.24045e-06
2.57937e-07
-2.59008e-07
-8.91656e-07
2.46858e-07
-2.49742e-07
8.91796e-07
-2.27551e-07
-2.32351e-07
0.000264149
-1.20131e-06
0.000266128
-0.000264149
2.30005e-07
2.34815e-07
2.53352e-09
0.00108297
-2.50857e-07
1.19869e-06
2.49881e-07
8.8638e-07
-2.49703e-07
-8.86083e-07
2.46926e-07
-1.23241e-06
-1.3734e-09
2.70728e-09
0.00108203
-2.56268e-07
1.23484e-06
2.55188e-07
8.86231e-07
-2.49666e-07
-8.86079e-07
2.46836e-07
0.00108297
-1.54302e-09
-0.00108297
2.52104e-09
-1.19623e-06
2.49885e-07
-2.50855e-07
-8.8608e-07
2.46924e-07
-2.49699e-07
8.86379e-07
1.23483e-06
0.00108203
-1.36217e-09
-0.00108203
2.70916e-09
-1.23241e-06
2.55183e-07
-2.56273e-07
-8.86081e-07
2.46832e-07
-2.49667e-07
8.86228e-07
-1.37149e-09
2.70932e-09
0.00108182
-2.50726e-07
1.22945e-06
2.49668e-07
8.83537e-07
-2.46905e-07
2.44064e-07
-8.83384e-07
-1.53295e-09
-0.00108269
2.57358e-09
-1.19883e-06
2.49839e-07
-2.50834e-07
-8.83372e-07
2.44187e-07
8.83618e-07
-2.46962e-07
1.22944e-06
0.00108182
-1.35086e-09
-0.00108182
2.70931e-09
-1.22703e-06
2.49665e-07
-2.5073e-07
-8.83389e-07
2.4406e-07
-2.4691e-07
8.83533e-07
-2.24956e-07
-2.32329e-07
0.000264112
-1.19591e-06
0.000266081
-0.000264112
2.27398e-07
2.34769e-07
-1.51107e-09
2.56555e-09
0.00108287
-2.4813e-07
1.19602e-06
2.47139e-07
8.83752e-07
-2.49687e-07
2.46919e-07
-8.83484e-07
-1.51514e-09
-0.00108235
2.54232e-09
-1.19345e-06
2.47088e-07
-2.48069e-07
-8.83204e-07
2.46826e-07
8.83499e-07
-2.49608e-07
1.19602e-06
0.00108287
-1.47776e-09
-0.00108287
2.55973e-09
-1.19356e-06
2.47146e-07
-2.48127e-07
-8.83484e-07
2.46921e-07
-2.49689e-07
8.83755e-07
-0.000264125