/*--------------------------------*- C++ -*----------------------------------*\
| =========                 |                                                 |
| \\      /  F ield         | OpenFOAM: The Open Source CFD Toolbox           |
|  \\    /   O peration     | Version:  2206                                  |
|   \\  /    A nd           | Website:  www.openfoam.com                      |
|    \\/     M anipulation  |                                                 |
\*---------------------------------------------------------------------------*/
FoamFile
{
    version     2.0;
    format      ascii;
    arch        "LSB;label=32;scalar=64";
    class       volScalarField;
    location    "40";
    object      epsilon;
}
// * * * * * * * * * * * * * * * * * * * * * * * * * * * * * * * * * * * * * //

dimensions      [0 2 -3 0 0 0 0];

internalField   nonuniform List<scalar> 
28549
(
4.05358e-07
4.05425e-07
2.46908e-07
2.83142e-07
2.83136e-07
2.6751e-07
4.4531e-07
2.51991e-07
2.3948e-07
2.79029e-07
2.33799e-07
2.67514e-07
4.45335e-07
2.51998e-07
2.39485e-07
2.33802e-07
2.79035e-07
2.39483e-07
2.79029e-07
4.45314e-07
4.05437e-07
2.46913e-07
2.83145e-07
2.83143e-07
4.05377e-07
2.51993e-07
2.39481e-07
2.33801e-07
2.79029e-07
2.52e-07
2.39479e-07
2.33801e-07
2.79031e-07
2.6752e-07
4.45317e-07
2.67522e-07
4.45321e-07
2.46911e-07
2.83145e-07
2.83139e-07
4.05375e-07
4.05436e-07
3.77938e-07
3.77816e-07
2.67245e-07
4.56292e-07
2.62852e-07
2.78556e-07
4.56267e-07
2.62847e-07
2.7855e-07
3.78162e-07
2.67932e-07
3.80214e-07
2.66518e-07
3.86222e-07
2.66812e-07
3.72306e-07
4.1433e-07
2.76567e-07
4.42354e-07
4.23624e-07
2.74995e-07
3.78171e-07
3.80223e-07
2.67936e-07
2.6652e-07
3.86232e-07
3.72312e-07
2.66815e-07
4.14352e-07
2.76582e-07
4.42379e-07
4.23654e-07
2.75008e-07
4.14338e-07
2.76578e-07
4.42366e-07
4.23637e-07
2.75006e-07
3.99391e-07
2.65632e-07
3.77827e-07
3.77938e-07
2.6725e-07
3.71992e-07
3.72069e-07
2.77914e-07
4.56273e-07
2.62853e-07
2.81457e-07
2.62577e-07
2.78557e-07
4.49695e-07
2.77919e-07
4.56291e-07
2.62854e-07
2.81458e-07
2.78559e-07
4.49726e-07
2.62578e-07
3.99331e-07
3.78164e-07
2.67936e-07
3.80223e-07
2.66521e-07
3.86223e-07
2.66815e-07
3.72311e-07
4.14343e-07
2.7658e-07
4.42364e-07
4.23646e-07
2.75006e-07
3.7816e-07
2.67934e-07
3.80219e-07
2.66521e-07
3.8622e-07
2.66813e-07
3.72308e-07
4.14324e-07
2.76571e-07
4.42357e-07
4.23633e-07
2.74996e-07
2.6563e-07
3.77944e-07
3.77816e-07
2.67248e-07
3.7208e-07
3.71977e-07
2.77918e-07
4.56288e-07
2.62854e-07
2.81459e-07
2.78559e-07
2.62579e-07
4.49723e-07
2.77911e-07
4.56267e-07
2.62849e-07
2.81452e-07
2.78554e-07
2.62573e-07
4.49688e-07
3.99332e-07
3.99387e-07
2.31402e-07
2.28273e-07
2.28273e-07
2.26473e-07
2.314e-07
2.28273e-07
2.28272e-07
2.26473e-07
2.31404e-07
2.28275e-07
2.28274e-07
2.26474e-07
2.31403e-07
2.28274e-07
2.28274e-07
2.26474e-07
2.52794e-07
2.52799e-07
2.61866e-07
2.45372e-07
2.53684e-07
2.43752e-07
2.51828e-07
2.45434e-07
2.53494e-07
2.43709e-07
2.50015e-07
2.59663e-07
2.56743e-07
2.78972e-07
2.56692e-07
2.50073e-07
2.59429e-07
2.45374e-07
2.43759e-07
2.53687e-07
2.51831e-07
2.45435e-07
2.4371e-07
2.53497e-07
2.5002e-07
2.59669e-07
2.56749e-07
2.78978e-07
2.50078e-07
2.59435e-07
2.56698e-07
2.50015e-07
2.59665e-07
2.56747e-07
2.78973e-07
2.50075e-07
2.59434e-07
2.56696e-07
2.6169e-07
2.46888e-07
2.52804e-07
2.52799e-07
2.52734e-07
2.61874e-07
2.52728e-07
2.45375e-07
2.43756e-07
2.53688e-07
2.5183e-07
2.45438e-07
2.43711e-07
2.53498e-07
2.50018e-07
2.59668e-07
2.56746e-07
2.78972e-07
2.50077e-07
2.56695e-07
2.59434e-07
2.45373e-07
2.43762e-07
2.53686e-07
2.51832e-07
2.45434e-07
2.43711e-07
2.53495e-07
2.50016e-07
2.59664e-07
2.56745e-07
2.78973e-07
2.50074e-07
2.5943e-07
2.56694e-07
2.61688e-07
2.46886e-07
2.52798e-07
2.52802e-07
2.61872e-07
2.52727e-07
2.52731e-07
2.31387e-07
2.39455e-07
2.31387e-07
2.39455e-07
2.39461e-07
2.46862e-07
2.39483e-07
2.4686e-07
2.46854e-07
2.39461e-07
2.3946e-07
2.39461e-07
2.3946e-07
2.46858e-07
2.46853e-07
2.39457e-07
2.39464e-07
2.39457e-07
2.39464e-07
2.39462e-07
2.39456e-07
2.39462e-07
2.46861e-07
2.46903e-07
2.39462e-07
2.3946e-07
2.39483e-07
2.39482e-07
2.4686e-07
2.46873e-07
2.39457e-07
2.39465e-07
2.39478e-07
2.39506e-07
2.39464e-07
2.39466e-07
2.39513e-07
2.46863e-07
2.47007e-07
2.39459e-07
2.47009e-07
2.3952e-07
2.46904e-07
2.66495e-07
4.45222e-07
4.42304e-07
2.67472e-07
4.05344e-07
3.99327e-07
2.66495e-07
4.45243e-07
4.42308e-07
2.67472e-07
2.31387e-07
2.31389e-07
2.31388e-07
2.31388e-07
2.31387e-07
2.31389e-07
2.31388e-07
2.51794e-07
2.78979e-07
2.33778e-07
2.39456e-07
2.78941e-07
2.33778e-07
2.51934e-07
2.66496e-07
4.45223e-07
2.67473e-07
4.42305e-07
4.05345e-07
3.99327e-07
2.66496e-07
4.45243e-07
2.67473e-07
4.42308e-07
2.31387e-07
2.3139e-07
2.31389e-07
2.31401e-07
2.314e-07
2.31423e-07
2.31427e-07
2.51794e-07
2.7898e-07
2.33778e-07
2.39456e-07
2.51935e-07
2.78942e-07
2.33779e-07
4.05361e-07
3.99351e-07
2.51809e-07
2.33782e-07
2.78984e-07
2.39467e-07
2.33787e-07
2.78956e-07
2.51936e-07
2.83103e-07
2.83096e-07
2.46867e-07
2.81438e-07
2.81436e-07
4.05423e-07
2.31417e-07
2.79006e-07
2.33807e-07
2.51971e-07
4.05284e-07
3.99268e-07
4.05353e-07
3.99331e-07
2.83101e-07
2.83094e-07
2.46855e-07
2.81433e-07
2.81425e-07
3.99268e-07
4.05284e-07
3.99331e-07
4.05353e-07
2.46862e-07
2.81433e-07
2.81424e-07
2.83102e-07
2.83094e-07
2.66495e-07
4.45227e-07
4.42297e-07
2.67473e-07
2.51794e-07
2.78983e-07
2.33779e-07
2.39462e-07
2.78945e-07
2.33779e-07
2.51934e-07
2.51795e-07
2.78985e-07
2.33779e-07
2.3946e-07
2.78946e-07
2.33779e-07
2.51935e-07
2.67472e-07
4.42304e-07
4.45223e-07
2.66496e-07
2.67473e-07
4.42296e-07
4.45228e-07
2.66496e-07
2.51934e-07
2.39462e-07
2.78945e-07
2.33779e-07
2.78984e-07
2.33779e-07
2.51795e-07
2.51935e-07
2.39461e-07
2.78946e-07
2.33778e-07
2.78986e-07
2.33779e-07
2.51796e-07
2.83097e-07
2.83095e-07
2.46853e-07
2.81427e-07
2.81427e-07
4.0529e-07
3.9927e-07
3.99327e-07
4.05344e-07
2.4686e-07
2.81427e-07
2.81427e-07
2.83097e-07
2.83095e-07
3.9927e-07
4.0529e-07
2.51794e-07
2.78984e-07
2.33779e-07
2.39457e-07
2.78945e-07
2.33779e-07
2.51934e-07
2.66497e-07
4.45265e-07
2.67474e-07
4.42334e-07
2.51797e-07
2.33781e-07
2.7899e-07
2.39464e-07
2.33781e-07
2.51937e-07
2.78951e-07
2.67472e-07
4.42307e-07
4.45244e-07
2.66496e-07
2.51935e-07
2.39458e-07
2.78945e-07
2.33779e-07
2.78985e-07
2.33779e-07
2.51795e-07
2.67474e-07
4.42333e-07
2.66497e-07
4.45265e-07
2.51937e-07
2.39464e-07
2.33781e-07
2.78951e-07
2.33781e-07
2.51798e-07
2.78991e-07
2.66497e-07
4.45221e-07
4.42298e-07
2.67474e-07
2.51797e-07
2.3378e-07
2.78985e-07
2.39463e-07
2.3378e-07
2.51937e-07
2.78951e-07
2.66498e-07
4.45242e-07
2.67476e-07
4.42337e-07
2.51934e-07
2.39456e-07
2.78941e-07
2.33778e-07
2.78981e-07
2.33778e-07
2.51797e-07
2.67474e-07
4.42297e-07
4.45223e-07
2.66498e-07
2.51937e-07
2.39463e-07
2.3378e-07
2.78947e-07
2.33781e-07
2.51798e-07
2.7899e-07
2.67475e-07
4.42324e-07
2.66499e-07
4.45258e-07
4.05285e-07
3.99269e-07
4.05353e-07
3.99332e-07
2.83102e-07
2.83094e-07
2.46856e-07
2.81433e-07
2.81425e-07
3.99359e-07
4.05291e-07
3.99421e-07
4.05359e-07
2.46866e-07
2.81478e-07
2.8147e-07
2.83105e-07
2.83097e-07
2.66496e-07
4.45227e-07
2.67473e-07
4.42298e-07
2.51795e-07
2.78984e-07
2.33779e-07
2.39463e-07
2.51936e-07
2.78946e-07
2.3378e-07
2.51796e-07
2.78986e-07
2.33779e-07
2.39461e-07
2.51936e-07
2.78947e-07
2.3378e-07
2.67475e-07
4.42383e-07
4.45229e-07
2.66537e-07
2.67476e-07
4.42364e-07
4.45232e-07
2.66543e-07
2.51939e-07
2.39468e-07
2.78989e-07
2.33801e-07
2.78988e-07
2.33786e-07
2.51857e-07
2.5194e-07
2.39466e-07
2.78994e-07
2.33806e-07
2.78989e-07
2.33786e-07
2.51867e-07
2.83097e-07
2.83096e-07
2.46854e-07
2.81428e-07
2.81427e-07
4.05291e-07
3.9927e-07
3.99368e-07
4.05347e-07
2.46862e-07
2.81453e-07
2.81437e-07
2.83099e-07
2.83096e-07
3.99288e-07
4.05291e-07
2.51796e-07
2.78985e-07
2.33779e-07
2.39458e-07
2.51936e-07
2.78946e-07
2.3378e-07
2.66497e-07
4.45264e-07
2.67475e-07
4.42338e-07
2.51798e-07
2.33781e-07
2.78991e-07
2.39468e-07
2.51938e-07
2.33783e-07
2.78955e-07
2.67475e-07
4.42386e-07
4.4525e-07
2.66536e-07
2.51939e-07
2.39464e-07
2.78989e-07
2.338e-07
2.78989e-07
2.33786e-07
2.51855e-07
2.67477e-07
4.42431e-07
4.4528e-07
2.66541e-07
2.51942e-07
2.39482e-07
2.33806e-07
2.79008e-07
2.3379e-07
2.79e-07
2.51863e-07
2.66497e-07
4.45221e-07
2.67474e-07
4.42298e-07
2.51797e-07
2.33781e-07
2.78987e-07
2.39466e-07
2.51938e-07
2.33782e-07
2.7895e-07
2.66498e-07
4.45244e-07
2.67476e-07
4.42328e-07
2.51935e-07
2.39459e-07
2.78953e-07
2.33789e-07
2.78981e-07
2.33781e-07
2.51814e-07
2.67474e-07
4.42315e-07
4.45223e-07
2.6651e-07
2.51938e-07
2.3948e-07
2.338e-07
2.79017e-07
2.33787e-07
2.78994e-07
2.51819e-07
2.67476e-07
4.42409e-07
4.45256e-07
2.66514e-07
2.83102e-07
2.83101e-07
2.46869e-07
2.81437e-07
2.81443e-07
4.05301e-07
3.993e-07
3.99472e-07
4.05387e-07
2.46897e-07
2.81506e-07
2.83117e-07
2.83129e-07
4.05354e-07
2.5181e-07
2.33781e-07
2.78986e-07
2.39466e-07
2.33787e-07
2.78957e-07
2.51937e-07
2.66507e-07
4.45242e-07
4.42337e-07
2.67475e-07
2.66508e-07
4.45247e-07
4.42331e-07
2.67476e-07
2.5197e-07
2.39495e-07
2.33807e-07
2.79012e-07
2.51973e-07
2.39493e-07
2.33808e-07
2.79015e-07
2.675e-07
4.45292e-07
2.67501e-07
4.45296e-07
4.05303e-07
3.99291e-07
4.05358e-07
3.99356e-07
2.46896e-07
2.81513e-07
2.83117e-07
2.83125e-07
3.99418e-07
4.05325e-07
4.05414e-07
4.45323e-07
2.79076e-07
2.83146e-07
2.83122e-07
4.05342e-07
4.45268e-07
2.67502e-07
2.33824e-07
2.51983e-07
2.67508e-07
3.86164e-07
3.72275e-07
2.66789e-07
2.67473e-07
3.80166e-07
2.67894e-07
3.78129e-07
4.14302e-07
4.42305e-07
2.76536e-07
2.74982e-07
4.23575e-07
4.23577e-07
2.74982e-07
4.45225e-07
2.76538e-07
4.14302e-07
3.7813e-07
2.66497e-07
3.80165e-07
2.67893e-07
3.72278e-07
2.66792e-07
3.86165e-07
3.99327e-07
4.05345e-07
3.86159e-07
2.66787e-07
3.72271e-07
2.67473e-07
2.67893e-07
3.80161e-07
3.78124e-07
4.1428e-07
4.42309e-07
2.76527e-07
2.7497e-07
4.23559e-07
4.23562e-07
2.7497e-07
4.45245e-07
2.76529e-07
4.14281e-07
3.78125e-07
2.66497e-07
2.67892e-07
3.80161e-07
2.6679e-07
3.72273e-07
3.86161e-07
3.86164e-07
2.67473e-07
3.72276e-07
2.6679e-07
3.80166e-07
2.67894e-07
3.7813e-07
4.14302e-07
2.76537e-07
4.42305e-07
4.23575e-07
2.74982e-07
3.7813e-07
2.66498e-07
3.80166e-07
2.67894e-07
3.86165e-07
3.72278e-07
2.66792e-07
4.23577e-07
2.74982e-07
4.45225e-07
2.76538e-07
4.14303e-07
3.99327e-07
4.05345e-07
3.86159e-07
2.67473e-07
2.66788e-07
3.72272e-07
2.67893e-07
3.80161e-07
3.78124e-07
4.1428e-07
2.76527e-07
4.42308e-07
4.23559e-07
2.7497e-07
3.78124e-07
2.66497e-07
2.67892e-07
3.80161e-07
3.86161e-07
2.6679e-07
3.72273e-07
4.23562e-07
2.7497e-07
4.45245e-07
2.76529e-07
4.14281e-07
3.99343e-07
4.05366e-07
2.67206e-07
3.72045e-07
3.71943e-07
3.77878e-07
3.77748e-07
2.65616e-07
2.77893e-07
2.62806e-07
2.81435e-07
4.56211e-07
2.62554e-07
4.49675e-07
2.78506e-07
2.77887e-07
2.62801e-07
2.81428e-07
4.56187e-07
2.62548e-07
4.49638e-07
2.78502e-07
2.78508e-07
4.49686e-07
2.83105e-07
2.62558e-07
2.6281e-07
4.56215e-07
2.77903e-07
2.78505e-07
4.49657e-07
2.831e-07
2.62558e-07
2.62807e-07
4.56195e-07
2.77899e-07
2.65608e-07
3.77876e-07
3.77743e-07
3.7203e-07
3.7193e-07
2.67205e-07
3.99449e-07
3.9927e-07
4.05286e-07
3.99332e-07
4.05354e-07
2.67202e-07
3.72029e-07
3.71927e-07
3.7787e-07
3.77742e-07
2.65605e-07
2.77893e-07
2.62804e-07
2.81433e-07
4.56212e-07
4.49678e-07
2.62552e-07
2.78506e-07
2.77885e-07
2.62799e-07
2.81425e-07
4.56189e-07
4.4964e-07
2.62546e-07
2.785e-07
2.78505e-07
4.49676e-07
2.83103e-07
2.6255e-07
4.56214e-07
2.77894e-07
2.62807e-07
2.78499e-07
4.49638e-07
2.83095e-07
2.62544e-07
4.56191e-07
2.77886e-07
2.62802e-07
2.65606e-07
3.77872e-07
3.77743e-07
3.72031e-07
3.71929e-07
2.67204e-07
4.05285e-07
3.99269e-07
4.05353e-07
3.99332e-07
2.65605e-07
3.77869e-07
3.77741e-07
2.67203e-07
3.72029e-07
3.71927e-07
2.78505e-07
2.6255e-07
2.83102e-07
4.49677e-07
4.56213e-07
2.62806e-07
2.77894e-07
2.78499e-07
2.62544e-07
2.83095e-07
4.49639e-07
4.5619e-07
2.62801e-07
2.77886e-07
2.77893e-07
4.56212e-07
2.62806e-07
2.81434e-07
2.78506e-07
4.49677e-07
2.62553e-07
2.77885e-07
4.56189e-07
2.628e-07
2.81426e-07
2.785e-07
4.4964e-07
2.62547e-07
2.67204e-07
3.72032e-07
3.7193e-07
3.77872e-07
3.77743e-07
2.65607e-07
3.86162e-07
3.72273e-07
2.66788e-07
2.67473e-07
3.80165e-07
2.67893e-07
3.78125e-07
4.14286e-07
4.42298e-07
2.76527e-07
2.74971e-07
4.23562e-07
4.23564e-07
2.74971e-07
4.45229e-07
2.76529e-07
4.14287e-07
3.78126e-07
2.66498e-07
3.80164e-07
2.67892e-07
3.72275e-07
2.6679e-07
3.86162e-07
3.78129e-07
3.80165e-07
2.67893e-07
2.66497e-07
3.86164e-07
3.72277e-07
2.66791e-07
4.23575e-07
4.45223e-07
2.74981e-07
4.14301e-07
2.76537e-07
4.14302e-07
2.76537e-07
4.42305e-07
4.23577e-07
2.74982e-07
3.86165e-07
2.67474e-07
3.72276e-07
2.6679e-07
3.7813e-07
3.80167e-07
2.67895e-07
3.78125e-07
3.80164e-07
2.67892e-07
2.66497e-07
3.86162e-07
3.72274e-07
2.66789e-07
4.23562e-07
4.45228e-07
2.7497e-07
2.76528e-07
4.14285e-07
4.14286e-07
2.76528e-07
4.42298e-07
4.23564e-07
2.74972e-07
3.86162e-07
2.67474e-07
3.72274e-07
2.66788e-07
3.80165e-07
2.67893e-07
3.78125e-07
2.67201e-07
3.71937e-07
3.72014e-07
3.77749e-07
3.77861e-07
2.65604e-07
2.77885e-07
2.628e-07
2.81427e-07
4.56188e-07
4.49639e-07
2.62547e-07
2.785e-07
2.77889e-07
2.628e-07
2.81427e-07
4.56209e-07
2.62547e-07
4.49671e-07
2.78502e-07
2.785e-07
4.49637e-07
2.83098e-07
2.62545e-07
4.56189e-07
2.62802e-07
2.77886e-07
2.78501e-07
4.4967e-07
2.83096e-07
2.62546e-07
2.62803e-07
4.5621e-07
2.7789e-07
2.65605e-07
3.7775e-07
3.77862e-07
3.71939e-07
3.72017e-07
2.67203e-07
3.99271e-07
4.05291e-07
4.05344e-07
3.99327e-07
2.65604e-07
3.77748e-07
3.77859e-07
2.67201e-07
3.71937e-07
3.72014e-07
2.78499e-07
2.62545e-07
2.83097e-07
4.49638e-07
2.62802e-07
4.56189e-07
2.77886e-07
2.78501e-07
2.62546e-07
2.83096e-07
4.49671e-07
4.5621e-07
2.62802e-07
2.7789e-07
2.77886e-07
4.56187e-07
2.62801e-07
2.81428e-07
2.62547e-07
2.78501e-07
4.49638e-07
2.77889e-07
4.56208e-07
2.62801e-07
2.81428e-07
2.78502e-07
4.49671e-07
2.62548e-07
2.67202e-07
3.7194e-07
3.72017e-07
3.7775e-07
3.77862e-07
2.65606e-07
4.05291e-07
3.9927e-07
3.8617e-07
3.72277e-07
2.67475e-07
2.66791e-07
3.80168e-07
2.67896e-07
3.78133e-07
4.14302e-07
2.7654e-07
4.42335e-07
2.74984e-07
4.23579e-07
3.78134e-07
2.66499e-07
3.80167e-07
2.67895e-07
3.72279e-07
2.66793e-07
3.8617e-07
4.23581e-07
2.74983e-07
4.45266e-07
2.76542e-07
4.14302e-07
3.78124e-07
2.67892e-07
3.80161e-07
2.66497e-07
3.86161e-07
2.66789e-07
3.72272e-07
4.23559e-07
4.45244e-07
2.74969e-07
4.14279e-07
2.76527e-07
4.14281e-07
2.76528e-07
4.42309e-07
4.23561e-07
2.74971e-07
3.8616e-07
2.67474e-07
2.66788e-07
3.72272e-07
3.78124e-07
2.67893e-07
3.80162e-07
3.78133e-07
3.80167e-07
2.66498e-07
2.67895e-07
3.8617e-07
3.72278e-07
2.66793e-07
4.2358e-07
2.74982e-07
4.45265e-07
2.76541e-07
4.143e-07
3.8617e-07
2.67476e-07
3.72277e-07
2.66792e-07
3.80169e-07
2.67897e-07
3.78134e-07
4.14302e-07
2.76541e-07
4.42336e-07
4.23581e-07
2.74984e-07
3.86155e-07
2.66787e-07
3.72273e-07
2.67473e-07
2.67892e-07
3.80163e-07
3.7812e-07
4.14271e-07
4.42297e-07
2.76524e-07
2.74969e-07
4.23548e-07
4.23551e-07
2.74969e-07
4.45223e-07
2.76526e-07
4.14272e-07
3.78121e-07
2.66498e-07
2.67891e-07
3.80163e-07
2.66789e-07
3.72275e-07
3.86156e-07
3.86168e-07
3.72279e-07
2.67475e-07
2.66791e-07
3.8017e-07
2.67896e-07
3.78131e-07
4.14291e-07
2.76537e-07
4.42325e-07
2.74982e-07
4.23565e-07
3.78132e-07
2.66499e-07
3.80169e-07
2.67895e-07
3.72281e-07
2.66793e-07
3.86165e-07
4.23568e-07
2.74983e-07
4.45257e-07
2.7654e-07
4.14292e-07
3.78121e-07
2.67891e-07
3.80163e-07
2.66497e-07
3.86156e-07
2.66788e-07
3.72274e-07
4.23548e-07
4.45221e-07
2.74968e-07
2.76525e-07
4.1427e-07
4.14272e-07
2.76525e-07
4.42298e-07
4.2355e-07
2.74969e-07
3.86156e-07
2.67474e-07
2.66788e-07
3.72274e-07
2.67892e-07
3.80164e-07
3.78122e-07
3.78132e-07
3.8017e-07
2.66498e-07
2.67895e-07
3.8617e-07
3.7228e-07
2.66792e-07
4.23572e-07
2.74982e-07
4.45246e-07
2.76539e-07
4.14291e-07
3.86167e-07
2.67476e-07
3.72279e-07
2.66791e-07
3.8017e-07
2.67896e-07
3.78131e-07
4.14296e-07
2.76542e-07
4.42325e-07
4.23588e-07
2.74983e-07
3.99269e-07
4.05286e-07
3.99332e-07
4.05355e-07
2.67202e-07
3.72028e-07
3.71926e-07
3.7787e-07
3.77742e-07
2.65606e-07
2.77893e-07
2.62805e-07
4.56213e-07
2.81433e-07
2.78506e-07
4.49678e-07
2.62552e-07
2.77885e-07
2.628e-07
4.5619e-07
2.81426e-07
2.785e-07
4.4964e-07
2.62546e-07
2.65606e-07
3.77872e-07
3.77744e-07
2.67204e-07
3.72031e-07
3.71928e-07
2.78505e-07
4.49677e-07
2.83103e-07
2.62551e-07
4.56214e-07
2.77895e-07
2.62807e-07
2.785e-07
4.49639e-07
2.83095e-07
2.62545e-07
4.56191e-07
2.77887e-07
2.62802e-07
4.05333e-07
3.99286e-07
4.05402e-07
3.99349e-07
2.65614e-07
3.77876e-07
3.77748e-07
2.67206e-07
3.72045e-07
3.71942e-07
2.78531e-07
2.62599e-07
2.83127e-07
4.49776e-07
4.56268e-07
2.62833e-07
2.7795e-07
2.78525e-07
2.62594e-07
2.8312e-07
4.49739e-07
4.56245e-07
2.62827e-07
2.77942e-07
2.77904e-07
4.56219e-07
2.62809e-07
2.81443e-07
2.7851e-07
4.49696e-07
2.62563e-07
2.77896e-07
4.56196e-07
2.62804e-07
2.81435e-07
2.78504e-07
4.49659e-07
2.62557e-07
2.67231e-07
3.72145e-07
3.72043e-07
3.77926e-07
3.77798e-07
2.65662e-07
3.86162e-07
2.67474e-07
3.72274e-07
2.66789e-07
3.80165e-07
2.67893e-07
3.78125e-07
4.14285e-07
2.76527e-07
4.42298e-07
4.23563e-07
2.74971e-07
3.78125e-07
2.66498e-07
3.80164e-07
2.67893e-07
3.72275e-07
3.86163e-07
2.6679e-07
4.23564e-07
2.74972e-07
4.45229e-07
2.76529e-07
4.14287e-07
3.78142e-07
3.8017e-07
2.67896e-07
2.66505e-07
3.8617e-07
3.72288e-07
2.668e-07
4.23625e-07
4.45268e-07
2.75025e-07
4.14399e-07
2.76561e-07
4.14319e-07
2.7654e-07
4.42321e-07
4.23583e-07
2.74991e-07
3.86205e-07
2.67497e-07
3.72342e-07
2.66835e-07
3.78206e-07
3.80204e-07
2.67919e-07
3.78138e-07
3.80168e-07
2.67895e-07
2.66506e-07
3.86167e-07
3.72286e-07
2.66799e-07
4.23613e-07
4.45262e-07
2.7502e-07
2.76553e-07
4.14381e-07
4.14301e-07
2.76531e-07
4.4231e-07
4.2357e-07
2.74981e-07
3.86203e-07
2.67499e-07
3.72343e-07
2.6684e-07
3.80202e-07
2.6792e-07
3.78205e-07
2.67201e-07
3.71937e-07
3.72014e-07
3.77749e-07
3.7786e-07
2.65604e-07
2.77885e-07
2.62801e-07
4.56189e-07
2.81428e-07
4.49639e-07
2.78501e-07
2.62547e-07
2.77889e-07
2.62801e-07
4.5621e-07
2.81428e-07
2.62548e-07
2.78502e-07
4.49672e-07
2.65605e-07
3.77751e-07
3.77863e-07
3.71939e-07
2.67203e-07
3.72016e-07
2.785e-07
4.49637e-07
2.83098e-07
2.62546e-07
4.56189e-07
2.62803e-07
2.77887e-07
2.78501e-07
4.4967e-07
2.83096e-07
2.62546e-07
2.62803e-07
4.5621e-07
2.7789e-07
3.99271e-07
4.05292e-07
4.05364e-07
3.99333e-07
2.65605e-07
3.7775e-07
3.77861e-07
2.67202e-07
3.71938e-07
3.72015e-07
2.78507e-07
2.62574e-07
2.83109e-07
4.4967e-07
2.62816e-07
4.56203e-07
2.77906e-07
2.78506e-07
2.62558e-07
2.831e-07
4.49691e-07
4.56218e-07
2.62807e-07
2.77903e-07
2.77889e-07
4.56189e-07
2.62803e-07
2.81432e-07
2.62553e-07
2.78502e-07
4.49643e-07
2.77891e-07
4.56209e-07
2.62802e-07
2.81429e-07
2.78503e-07
4.49673e-07
2.6255e-07
2.67207e-07
3.71959e-07
3.72035e-07
3.7776e-07
3.7787e-07
2.65618e-07
4.05298e-07
3.99272e-07
3.8617e-07
2.67475e-07
3.72278e-07
2.66792e-07
3.80168e-07
2.67896e-07
3.78134e-07
4.14301e-07
2.7654e-07
4.42335e-07
4.23579e-07
2.74983e-07
3.78133e-07
2.66499e-07
3.80168e-07
2.67896e-07
3.72279e-07
3.8617e-07
2.66793e-07
4.23582e-07
2.74985e-07
4.45268e-07
2.76542e-07
4.14304e-07
3.78137e-07
2.67895e-07
3.80166e-07
2.66505e-07
3.86166e-07
2.66798e-07
3.72285e-07
4.2361e-07
4.45289e-07
2.75013e-07
4.14378e-07
2.76551e-07
4.14298e-07
2.76531e-07
4.42325e-07
4.23568e-07
2.7498e-07
3.86201e-07
2.67497e-07
2.66833e-07
3.72338e-07
3.782e-07
2.67917e-07
3.80199e-07
3.78149e-07
3.80172e-07
2.67899e-07
2.66507e-07
3.86177e-07
3.72292e-07
2.66802e-07
4.23634e-07
4.45328e-07
2.7503e-07
2.76568e-07
4.14409e-07
4.14325e-07
2.76545e-07
4.42364e-07
4.2359e-07
2.74996e-07
3.86215e-07
2.67499e-07
3.72346e-07
2.66838e-07
3.80207e-07
2.67922e-07
3.78213e-07
3.86155e-07
2.67473e-07
2.66787e-07
3.72274e-07
2.67892e-07
3.80163e-07
3.78121e-07
4.1427e-07
2.76524e-07
4.42297e-07
2.74969e-07
4.23548e-07
3.78121e-07
2.66498e-07
2.67891e-07
3.80163e-07
2.66789e-07
3.86156e-07
3.72275e-07
4.23551e-07
2.74969e-07
4.45222e-07
2.76526e-07
4.14271e-07
3.86166e-07
2.67475e-07
3.72279e-07
2.66791e-07
3.80169e-07
2.67895e-07
3.78131e-07
4.1429e-07
2.76538e-07
4.42324e-07
4.23567e-07
2.74982e-07
3.7813e-07
2.66499e-07
3.80168e-07
2.67895e-07
3.86165e-07
3.72279e-07
2.66793e-07
4.2357e-07
2.74983e-07
4.45246e-07
2.76539e-07
4.14293e-07
3.78122e-07
2.67891e-07
3.80164e-07
2.66498e-07
3.86157e-07
2.6679e-07
3.72276e-07
4.23558e-07
4.45228e-07
2.74978e-07
2.76529e-07
4.14288e-07
4.14272e-07
2.76526e-07
4.42299e-07
4.23551e-07
2.7497e-07
3.86163e-07
2.67479e-07
2.66799e-07
3.7229e-07
2.67896e-07
3.80172e-07
3.78137e-07
3.78136e-07
3.8017e-07
2.67896e-07
2.665e-07
3.86169e-07
3.72282e-07
2.66796e-07
4.23592e-07
4.45292e-07
2.75011e-07
2.76554e-07
4.14334e-07
4.14304e-07
2.76541e-07
4.42346e-07
4.23575e-07
2.7499e-07
3.86183e-07
2.67482e-07
3.72299e-07
2.6681e-07
3.8018e-07
2.67905e-07
3.78159e-07
2.67208e-07
3.71958e-07
3.72033e-07
3.77761e-07
3.77873e-07
2.65618e-07
2.77889e-07
2.62804e-07
2.81432e-07
4.56191e-07
4.49644e-07
2.62552e-07
2.78504e-07
2.77894e-07
2.62805e-07
2.81434e-07
4.5621e-07
2.62553e-07
4.49675e-07
2.78506e-07
2.78506e-07
4.49656e-07
2.83104e-07
2.62556e-07
4.56199e-07
2.62809e-07
2.779e-07
2.7851e-07
4.49693e-07
2.83106e-07
2.62562e-07
2.62812e-07
4.5622e-07
2.77906e-07
2.65609e-07
3.77756e-07
3.77867e-07
3.71946e-07
3.72019e-07
2.67207e-07
3.99284e-07
4.0531e-07
4.05426e-07
3.99386e-07
2.6567e-07
3.7781e-07
3.77923e-07
2.67235e-07
3.72063e-07
3.72142e-07
2.62654e-07
2.83155e-07
2.62892e-07
2.77958e-07
4.56236e-07
2.62825e-07
2.81464e-07
2.62598e-07
2.78534e-07
4.49733e-07
2.77965e-07
4.56271e-07
2.6284e-07
2.8149e-07
2.78542e-07
4.49795e-07
2.62633e-07
3.99387e-07
3.86165e-07
2.66799e-07
3.72289e-07
2.67478e-07
2.67898e-07
3.8017e-07
3.78139e-07
4.14294e-07
4.42321e-07
2.76537e-07
2.74982e-07
4.23574e-07
4.23583e-07
2.7499e-07
4.4525e-07
2.76542e-07
4.14311e-07
3.78127e-07
2.665e-07
2.67894e-07
3.80165e-07
2.66793e-07
3.72278e-07
3.8616e-07
3.86164e-07
2.66798e-07
3.72287e-07
2.67478e-07
2.67897e-07
3.80169e-07
3.78137e-07
4.14274e-07
4.42314e-07
2.76528e-07
2.74972e-07
4.2356e-07
4.23571e-07
2.7498e-07
4.45255e-07
2.76533e-07
4.14292e-07
3.78123e-07
2.665e-07
2.67893e-07
3.80163e-07
2.66792e-07
3.72275e-07
3.86157e-07
3.78202e-07
2.67919e-07
3.80203e-07
2.66546e-07
3.86202e-07
2.66842e-07
3.72347e-07
4.14397e-07
2.76563e-07
4.42408e-07
4.23628e-07
2.75031e-07
3.78199e-07
2.67917e-07
3.80201e-07
2.66549e-07
3.862e-07
2.6684e-07
3.72346e-07
4.14378e-07
2.76554e-07
4.42401e-07
4.23616e-07
2.75021e-07
3.99286e-07
4.05305e-07
3.9934e-07
4.05368e-07
2.65669e-07
3.77926e-07
3.778e-07
2.67233e-07
3.72151e-07
3.72053e-07
2.62668e-07
2.83157e-07
2.62897e-07
2.77961e-07
4.56252e-07
2.62826e-07
2.81466e-07
2.78535e-07
2.626e-07
4.49762e-07
2.77958e-07
4.56247e-07
2.62835e-07
2.81484e-07
2.78537e-07
2.62628e-07
4.49758e-07
4.05365e-07
3.99326e-07
3.99446e-07
4.42417e-07
2.77949e-07
2.6286e-07
4.56263e-07
2.81497e-07
4.49765e-07
2.78544e-07
2.62635e-07
2.77945e-07
2.62831e-07
4.56267e-07
2.81479e-07
2.62611e-07
2.78535e-07
4.49779e-07
2.65662e-07
3.77811e-07
3.7792e-07
3.72053e-07
2.67234e-07
3.72133e-07
3.99371e-07
4.14374e-07
2.76549e-07
4.42384e-07
2.75018e-07
4.23602e-07
3.782e-07
2.66547e-07
2.67917e-07
3.80205e-07
2.6684e-07
3.862e-07
3.72348e-07
4.14421e-07
2.76586e-07
4.23615e-07
2.75053e-07
3.78224e-07
2.66554e-07
3.80214e-07
2.67933e-07
3.86221e-07
3.7236e-07
2.66855e-07
2.28261e-07
2.2826e-07
2.31388e-07
2.28261e-07
2.2826e-07
2.26462e-07
2.26462e-07
2.28261e-07
2.2826e-07
2.31389e-07
2.28262e-07
2.28261e-07
2.26463e-07
2.26462e-07
2.61662e-07
2.52738e-07
2.52742e-07
2.46859e-07
2.527e-07
2.52704e-07
2.61809e-07
2.61659e-07
2.52736e-07
2.5274e-07
2.46856e-07
2.52697e-07
2.52701e-07
2.61807e-07
2.61805e-07
2.46862e-07
2.52694e-07
2.52698e-07
2.52739e-07
2.52742e-07
2.61662e-07
2.61658e-07
2.52739e-07
2.52733e-07
2.46854e-07
2.52694e-07
2.527e-07
2.61805e-07
2.61803e-07
2.46861e-07
2.52697e-07
2.52692e-07
2.52742e-07
2.52736e-07
2.6166e-07
2.61659e-07
2.52737e-07
2.52741e-07
2.46857e-07
2.61807e-07
2.52697e-07
2.527e-07
2.61834e-07
2.4689e-07
2.52756e-07
2.52759e-07
2.52769e-07
2.52772e-07
2.61728e-07
2.61658e-07
2.5274e-07
2.52735e-07
2.46855e-07
2.52694e-07
2.61805e-07
2.52699e-07
2.61811e-07
2.46872e-07
2.52722e-07
2.52709e-07
2.52755e-07
2.52745e-07
2.61679e-07
2.61663e-07
2.52744e-07
2.52738e-07
2.46861e-07
2.527e-07
2.52705e-07
2.6181e-07
2.47009e-07
2.52857e-07
2.52876e-07
2.47009e-07
2.52859e-07
2.52873e-07
2.61732e-07
2.52793e-07
2.52776e-07
2.46933e-07
2.52776e-07
2.61849e-07
2.52793e-07
2.2826e-07
2.28259e-07
2.31387e-07
2.2826e-07
2.28259e-07
2.26462e-07
2.26462e-07
2.28262e-07
2.2826e-07
2.31389e-07
2.28262e-07
2.2826e-07
2.26462e-07
2.26462e-07
2.28261e-07
2.2826e-07
2.31388e-07
2.28261e-07
2.2826e-07
2.26462e-07
2.26462e-07
2.31388e-07
2.28261e-07
2.2826e-07
2.28261e-07
2.2826e-07
2.26462e-07
2.26462e-07
2.31387e-07
2.2826e-07
2.28259e-07
2.2826e-07
2.28259e-07
2.26462e-07
2.26462e-07
2.31389e-07
2.28262e-07
2.2826e-07
2.28262e-07
2.2826e-07
2.26462e-07
2.26462e-07
2.31388e-07
2.28261e-07
2.2826e-07
2.28261e-07
2.2826e-07
2.26462e-07
2.26462e-07
2.45355e-07
2.53458e-07
2.43668e-07
2.51936e-07
2.53626e-07
2.43687e-07
2.45341e-07
2.49982e-07
2.56687e-07
2.78942e-07
2.59605e-07
2.56663e-07
2.594e-07
2.50005e-07
2.50006e-07
2.59398e-07
2.78982e-07
2.56661e-07
2.5669e-07
2.59609e-07
2.49984e-07
2.45341e-07
2.51799e-07
2.53623e-07
2.43684e-07
2.53463e-07
2.43674e-07
2.45359e-07
2.28261e-07
2.2826e-07
2.31388e-07
2.28261e-07
2.2826e-07
2.26463e-07
2.26462e-07
2.28262e-07
2.28261e-07
2.31393e-07
2.28263e-07
2.28264e-07
2.26464e-07
2.26463e-07
2.28262e-07
2.28261e-07
2.31392e-07
2.28263e-07
2.28264e-07
2.26464e-07
2.26462e-07
2.31393e-07
2.28275e-07
2.28273e-07
2.28265e-07
2.28265e-07
2.26466e-07
2.26475e-07
2.31391e-07
2.28278e-07
2.28272e-07
2.28266e-07
2.28263e-07
2.26467e-07
2.26478e-07
2.31404e-07
2.28279e-07
2.28286e-07
2.28268e-07
2.28273e-07
2.26469e-07
2.26478e-07
2.31403e-07
2.2828e-07
2.28288e-07
2.28268e-07
2.28273e-07
2.26469e-07
2.26482e-07
2.45356e-07
2.51936e-07
2.53458e-07
2.43669e-07
2.53626e-07
2.43687e-07
2.45341e-07
2.49982e-07
2.56688e-07
2.59605e-07
2.78943e-07
2.50005e-07
2.56663e-07
2.594e-07
2.45342e-07
2.51799e-07
2.53623e-07
2.43684e-07
2.45359e-07
2.53464e-07
2.43674e-07
2.50006e-07
2.59398e-07
2.78982e-07
2.56661e-07
2.56691e-07
2.59609e-07
2.49984e-07
2.45365e-07
2.43685e-07
2.53474e-07
2.51943e-07
2.43695e-07
2.53634e-07
2.45359e-07
2.49988e-07
2.56692e-07
2.78948e-07
2.59611e-07
2.56669e-07
2.59407e-07
2.5001e-07
2.50016e-07
2.59416e-07
2.7899e-07
2.56677e-07
2.56699e-07
2.59619e-07
2.50002e-07
2.45347e-07
2.51803e-07
2.43686e-07
2.53627e-07
2.43678e-07
2.53468e-07
2.45363e-07
2.61811e-07
2.4687e-07
2.52706e-07
2.52714e-07
2.52744e-07
2.52749e-07
2.61676e-07
2.28287e-07
2.28297e-07
2.50046e-07
2.56719e-07
2.59635e-07
2.78996e-07
2.50041e-07
2.56731e-07
2.59465e-07
2.45414e-07
2.51876e-07
2.5366e-07
2.43729e-07
2.45402e-07
2.53542e-07
2.43767e-07
2.61806e-07
2.46864e-07
2.52695e-07
2.52699e-07
2.61662e-07
2.52739e-07
2.52743e-07
2.6166e-07
2.46858e-07
2.52738e-07
2.52741e-07
2.61807e-07
2.52697e-07
2.527e-07
2.45358e-07
2.5346e-07
2.43668e-07
2.51936e-07
2.53628e-07
2.43687e-07
2.45343e-07
2.49986e-07
2.56692e-07
2.78947e-07
2.59611e-07
2.59406e-07
2.56668e-07
2.50009e-07
2.5001e-07
2.59404e-07
2.78986e-07
2.56665e-07
2.59614e-07
2.56695e-07
2.49988e-07
2.45343e-07
2.51799e-07
2.53625e-07
2.43684e-07
2.53466e-07
2.43674e-07
2.45361e-07
2.45356e-07
2.53459e-07
2.4367e-07
2.51937e-07
2.53626e-07
2.43688e-07
2.45341e-07
2.49984e-07
2.56691e-07
2.78947e-07
2.59607e-07
2.59402e-07
2.56666e-07
2.50007e-07
2.50008e-07
2.594e-07
2.78987e-07
2.56664e-07
2.59611e-07
2.49986e-07
2.56694e-07
2.45342e-07
2.518e-07
2.53624e-07
2.43685e-07
2.53463e-07
2.43673e-07
2.45359e-07
2.45341e-07
2.53625e-07
2.43685e-07
2.51798e-07
2.45361e-07
2.53465e-07
2.43673e-07
2.50007e-07
2.56665e-07
2.78985e-07
2.59402e-07
2.56694e-07
2.59614e-07
2.49988e-07
2.49988e-07
2.59612e-07
2.56693e-07
2.78947e-07
2.56667e-07
2.50009e-07
2.59406e-07
2.4536e-07
2.51938e-07
2.53462e-07
2.43669e-07
2.53629e-07
2.43688e-07
2.45344e-07
2.45339e-07
2.53624e-07
2.43685e-07
2.51798e-07
2.45359e-07
2.53463e-07
2.43673e-07
2.50005e-07
2.56664e-07
2.78987e-07
2.59399e-07
2.5961e-07
2.56693e-07
2.49985e-07
2.49986e-07
2.59609e-07
2.56692e-07
2.78948e-07
2.50007e-07
2.59402e-07
2.56666e-07
2.45358e-07
2.51938e-07
2.5346e-07
2.4367e-07
2.53626e-07
2.43687e-07
2.45342e-07
2.61804e-07
2.46862e-07
2.52698e-07
2.52692e-07
2.52736e-07
2.52742e-07
2.6166e-07
2.61659e-07
2.46856e-07
2.5274e-07
2.52735e-07
2.527e-07
2.61805e-07
2.52694e-07
2.45356e-07
2.53458e-07
2.43668e-07
2.51936e-07
2.53626e-07
2.43687e-07
2.45341e-07
2.49983e-07
2.56689e-07
2.78946e-07
2.59606e-07
2.59401e-07
2.56665e-07
2.50006e-07
2.50007e-07
2.59399e-07
2.78987e-07
2.56663e-07
2.5961e-07
2.56692e-07
2.49985e-07
2.45342e-07
2.51799e-07
2.53624e-07
2.43684e-07
2.53464e-07
2.43674e-07
2.45359e-07
2.45359e-07
2.43672e-07
2.51939e-07
2.53462e-07
2.43689e-07
2.5363e-07
2.45345e-07
2.49988e-07
2.56694e-07
2.59613e-07
2.78952e-07
2.59407e-07
2.50011e-07
2.56669e-07
2.45345e-07
2.51802e-07
2.43687e-07
2.53627e-07
2.43675e-07
2.53467e-07
2.45362e-07
2.50012e-07
2.59406e-07
2.78992e-07
2.56667e-07
2.59616e-07
2.4999e-07
2.56696e-07
2.45339e-07
2.53623e-07
2.43685e-07
2.51798e-07
2.45359e-07
2.53463e-07
2.43673e-07
2.50004e-07
2.56662e-07
2.78986e-07
2.59398e-07
2.56692e-07
2.59609e-07
2.49984e-07
2.49985e-07
2.59608e-07
2.5669e-07
2.78947e-07
2.56665e-07
2.50006e-07
2.59401e-07
2.45359e-07
2.51938e-07
2.5346e-07
2.43669e-07
2.53627e-07
2.43688e-07
2.45342e-07
2.45342e-07
2.43687e-07
2.518e-07
2.53627e-07
2.45362e-07
2.43675e-07
2.53466e-07
2.50009e-07
2.56667e-07
2.59404e-07
2.78992e-07
2.59616e-07
2.4999e-07
2.56696e-07
2.45362e-07
2.5194e-07
2.43672e-07
2.53464e-07
2.43689e-07
2.5363e-07