/*--------------------------------*- C++ -*----------------------------------*\
| =========                 |                                                 |
| \\      /  F ield         | OpenFOAM: The Open Source CFD Toolbox           |
|  \\    /   O peration     | Version:  2206                                  |
|   \\  /    A nd           | Website:  www.openfoam.com                      |
|    \\/     M anipulation  |                                                 |
\*---------------------------------------------------------------------------*/
FoamFile
{
    version     2.0;
    format      ascii;
    arch        "LSB;label=32;scalar=64";
    class       volScalarField;
    location    "40";
    object      nut;
}
// * * * * * * * * * * * * * * * * * * * * * * * * * * * * * * * * * * * * * //

dimensions      [0 2 -1 0 0 0 0];

internalField   nonuniform List<scalar> 
28549
(
5.72776e-06
5.72752e-06
0.000176301
5.89114e-05
5.89118e-05
8.27567e-05
1.58064e-05
0.000135302
0.000196877
8.7228e-05
0.000210361
8.27563e-05
1.5806e-05
0.0001353
0.000196865
0.000210357
8.72239e-05
0.00019687
8.72282e-05
1.58068e-05
5.72728e-06
0.000176298
5.89082e-05
5.89109e-05
5.72753e-06
0.000135302
0.000196878
0.000210358
8.72297e-05
0.000135301
0.00019688
0.000210358
8.72278e-05
8.27564e-05
1.58067e-05
8.27569e-05
1.58065e-05
0.000176299
5.891e-05
5.89116e-05
5.72745e-06
5.72754e-06
4.81831e-06
4.81713e-06
5.40413e-05
1.50994e-05
0.000116927
8.56377e-05
1.50929e-05
0.000116916
8.56101e-05
9.8876e-06
7.63347e-05
1.14501e-05
8.27424e-05
9.9013e-06
7.62666e-05
1.14327e-05
4.66973e-06
5.54708e-05
1.5821e-05
4.66899e-06
5.515e-05
9.88698e-06
1.14502e-05
7.63314e-05
8.27421e-05
9.90069e-06
1.14328e-05
7.6263e-05
4.66941e-06
5.54632e-05
1.58206e-05
4.66867e-06
5.5142e-05
4.6696e-06
5.54641e-05
1.58215e-05
4.66884e-06
5.51429e-05
5.72534e-06
5.40147e-05
4.81706e-06
4.81827e-06
5.40416e-05
4.81642e-06
4.81753e-06
8.53929e-05
1.5093e-05
0.000116913
5.87338e-05
0.000116809
8.56091e-05
1.50897e-05
8.54219e-05
1.50993e-05
0.000116928
5.87356e-05
8.56385e-05
1.50961e-05
0.000116823
5.72558e-06
9.88719e-06
7.63322e-05
1.14501e-05
8.27419e-05
9.9009e-06
7.62638e-05
1.14327e-05
4.66965e-06
5.54641e-05
1.58214e-05
4.66892e-06
5.51431e-05
9.88772e-06
7.6335e-05
1.14502e-05
8.27426e-05
9.90144e-06
7.62666e-05
1.14327e-05
4.66974e-06
5.54707e-05
1.5821e-05
4.66903e-06
5.51501e-05
5.4015e-05
4.81834e-06
4.81721e-06
5.40418e-05
4.81762e-06
4.81655e-06
8.54221e-05
1.50992e-05
0.000116927
5.87351e-05
8.56386e-05
0.000116822
1.50959e-05
8.53942e-05
1.50935e-05
0.000116916
5.87372e-05
8.56103e-05
0.000116812
1.50902e-05
5.72553e-06
5.72558e-06
0.000220204
0.000227396
0.000227396
0.000231815
0.000220205
0.000227395
0.000227398
0.000231815
0.000220201
0.000227393
0.000227396
0.000231814
0.000220202
0.000227394
0.000227396
0.000231814
0.000155336
0.00015532
0.000127372
0.000165966
0.00012883
0.000170998
0.000135272
0.000165989
0.000128774
0.000170982
0.000154057
0.000113637
0.000138013
8.66954e-05
0.000137871
0.000154118
0.000113476
0.000165962
0.000170995
0.000128825
0.00013527
0.000165986
0.00017098
0.00012877
0.00015405
0.000113631
0.000138008
8.66914e-05
0.000154111
0.000113469
0.000137866
0.000154058
0.000113635
0.000138018
8.66959e-05
0.000154119
0.000113473
0.000137876
0.000127264
0.000176277
0.000155317
0.000155335
0.000155269
0.000127371
0.000155287
0.000165965
0.000170998
0.000128828
0.000135271
0.000165989
0.000170982
0.000128772
0.000154058
0.000113635
0.00013802
8.66972e-05
0.00015412
0.000137878
0.000113474
0.000165965
0.000170996
0.000128829
0.000135272
0.00016599
0.000170982
0.000128774
0.000154057
0.000113638
0.000138013
8.66954e-05
0.000154118
0.000113477
0.000137872
0.000127265
0.000176278
0.000155335
0.000155319
0.000127371
0.000155287
0.000155271
0.00022022
0.000196893
0.000220219
0.000196893
0.000196886
0.00017631
0.000196881
0.00017631
0.000176284
0.00019688
0.00019688
0.000196879
0.00019688
0.000176314
0.000176287
0.000196889
0.000196873
0.000196889
0.000196873
0.000196877
0.000196893
0.000196877
0.00017631
0.000176275
0.000196879
0.00019688
0.000196872
0.00019687
0.000176313
0.000176284
0.000196889
0.000196873
0.000196882
0.000196862
0.000196877
0.000196888
0.000196862
0.000176308
0.000176249
0.000196887
0.000176249
0.000196856
0.000176306
8.2741e-05
1.58077e-05
1.58226e-05
8.27551e-05
5.72754e-06
5.72568e-06
8.27391e-05
1.58059e-05
1.58207e-05
8.27533e-05
0.000220221
0.000220216
0.000220218
0.000220219
0.000220221
0.000220216
0.000220218
0.000135275
8.72294e-05
0.000210377
0.000196893
8.66969e-05
0.000210377
0.000135308
8.27412e-05
1.58077e-05
8.27552e-05
1.58226e-05
5.72755e-06
5.72568e-06
8.27394e-05
1.58059e-05
8.27533e-05
1.58207e-05
0.000220221
0.000220216
0.000220217
0.000220205
0.000220205
0.00022019
0.000220186
0.000135275
8.72293e-05
0.000210377
0.000196893
0.000135308
8.66969e-05
0.000210377
5.72702e-06
5.7252e-06
0.000135273
0.000210371
8.7226e-05
0.000196885
0.000210368
8.66959e-05
0.000135305
5.89062e-05
5.89086e-05
0.000176284
5.87332e-05
5.87361e-05
5.72794e-06
0.00022019
8.72335e-05
0.000210356
0.00013531
5.7275e-06
5.72564e-06
5.72736e-06
5.72547e-06
5.89076e-05
5.89085e-05
0.000176284
5.87331e-05
5.87346e-05
5.72564e-06
5.7275e-06
5.72546e-06
5.72736e-06
0.00017631
5.87331e-05
5.87345e-05
5.89076e-05
5.89085e-05
8.27416e-05
1.58072e-05
1.5822e-05
8.27558e-05
0.000135274
8.72257e-05
0.000210376
0.000196879
8.66934e-05
0.000210376
0.000135307
0.000135275
8.72248e-05
0.000210376
0.00019688
8.66927e-05
0.000210376
0.000135308
8.27551e-05
1.58226e-05
1.58077e-05
8.2741e-05
8.27558e-05
1.5822e-05
1.58072e-05
8.27417e-05
0.000135307
0.000196879
8.66934e-05
0.000210376
8.72256e-05
0.000210376
0.000135274
0.000135308
0.000196879
8.66926e-05
0.000210376
8.72247e-05
0.000210376
0.000135275
5.89094e-05
5.89097e-05
0.000176287
5.87358e-05
5.8735e-05
5.72759e-06
5.72569e-06
5.72568e-06
5.72755e-06
0.000176313
5.87358e-05
5.87349e-05
5.89094e-05
5.89097e-05
5.72569e-06
5.72759e-06
0.000135271
8.72248e-05
0.000210374
0.000196889
8.66925e-05
0.000210374
0.000135304
8.27386e-05
1.58052e-05
8.27528e-05
1.58201e-05
0.00013527
0.000210371
8.72199e-05
0.000196872
0.00021037
0.000135303
8.66877e-05
8.27533e-05
1.58206e-05
1.58059e-05
8.27391e-05
0.000135304
0.000196889
8.66924e-05
0.000210374
8.72248e-05
0.000210373
0.000135271
8.27528e-05
1.582e-05
8.27386e-05
1.58052e-05
0.000135303
0.000196872
0.00021037
8.66877e-05
0.00021037
0.000135269
8.72198e-05
8.27411e-05
1.58069e-05
1.58216e-05
8.27553e-05
0.000135273
0.000210374
8.72239e-05
0.000196876
0.000210373
0.000135307
8.66902e-05
8.27403e-05
1.5806e-05
8.27546e-05
1.58207e-05
0.000135308
0.000196893
8.66969e-05
0.000210377
8.72293e-05
0.000210377
0.000135275
8.27553e-05
1.58217e-05
1.58068e-05
8.27411e-05
0.000135306
0.000196876
0.000210374
8.66921e-05
0.000210373
0.000135273
8.72229e-05
8.27545e-05
1.58209e-05
8.27405e-05
1.58058e-05
5.7275e-06
5.72565e-06
5.72736e-06
5.72548e-06
5.89077e-05
5.89085e-05
0.000176284
5.87333e-05
5.87348e-05
5.72594e-06
5.72755e-06
5.72577e-06
5.72741e-06
0.00017631
5.87376e-05
5.87391e-05
5.89084e-05
5.89093e-05
8.27418e-05
1.58072e-05
8.27558e-05
1.58221e-05
0.000135274
8.72257e-05
0.000210376
0.000196879
0.000135307
8.66937e-05
0.000210375
0.000135275
8.72248e-05
0.000210376
0.000196879
0.000135308
8.66928e-05
0.000210375
8.2756e-05
1.58234e-05
1.58078e-05
8.27456e-05
8.27566e-05
1.58228e-05
1.58073e-05
8.27464e-05
0.000135308
0.000196877
8.66982e-05
0.000210362
8.72267e-05
0.000210371
0.000135272
0.000135309
0.000196876
8.66967e-05
0.000210359
8.72253e-05
0.00021037
0.000135272
5.89094e-05
5.89097e-05
0.000176287
5.87358e-05
5.87349e-05
5.72759e-06
5.72569e-06
5.72591e-06
5.72757e-06
0.000176312
5.87392e-05
5.87368e-05
5.89097e-05
5.89098e-05
5.7258e-06
5.72759e-06
0.000135272
8.72248e-05
0.000210373
0.000196889
0.000135304
8.66929e-05
0.000210373
8.2739e-05
1.58052e-05
8.27528e-05
1.58202e-05
0.00013527
0.00021037
8.72199e-05
0.000196873
0.000135303
0.00021037
8.66892e-05
8.27543e-05
1.58214e-05
1.5806e-05
8.2744e-05
0.000135305
0.000196887
8.66973e-05
0.000210361
8.72259e-05
0.000210369
0.00013527
8.27539e-05
1.58211e-05
1.58055e-05
8.27436e-05
0.000135304
0.000196871
0.000210357
8.66954e-05
0.000210366
8.72227e-05
0.000135268
8.27412e-05
1.58069e-05
8.27553e-05
1.58217e-05
0.000135274
0.000210374
8.72248e-05
0.000196877
0.000135307
0.000210373
8.66938e-05
8.27408e-05
1.58061e-05
8.27548e-05
1.58211e-05
0.000135309
0.000196891
8.66993e-05
0.000210368
8.72294e-05
0.000210374
0.000135277
8.27556e-05
1.5822e-05
1.58069e-05
8.27439e-05
0.000135308
0.000196875
0.000210361
8.6699e-05
0.000210371
8.72273e-05
0.000135276
8.27553e-05
1.5822e-05
1.58063e-05
8.27441e-05
5.89045e-05
5.89074e-05
0.000176283
5.8732e-05
5.87345e-05
5.72727e-06
5.72549e-06
5.72562e-06
5.72716e-06
0.000176306
5.87377e-05
5.89069e-05
5.89113e-05
5.72752e-06
0.000135273
0.000210371
8.72252e-05
0.000196886
0.000210368
8.66947e-05
0.000135305
8.2741e-05
1.5806e-05
1.58211e-05
8.27532e-05
8.27416e-05
1.58057e-05
1.58208e-05
8.27539e-05
0.000135306
0.000196876
0.000210356
8.72303e-05
0.000135306
0.000196877
0.000210356
8.72288e-05
8.27569e-05
1.58066e-05
8.27576e-05
1.58063e-05
5.72721e-06
5.72539e-06
5.72727e-06
5.7255e-06
0.000176308
5.87393e-05
5.89089e-05
5.89121e-05
5.72584e-06
5.72734e-06
5.72753e-06
1.58084e-05
8.72286e-05
5.89149e-05
5.89135e-05
5.72783e-06
1.58075e-05
8.27599e-05
0.000210345
0.000135308
8.27599e-05
9.90054e-06
1.14327e-05
7.6262e-05
8.27552e-05
1.145e-05
7.63301e-05
9.88696e-06
4.66937e-06
1.58226e-05
5.54616e-05
5.51413e-05
4.66857e-06
4.66858e-06
5.51412e-05
1.58077e-05
5.54618e-05
4.66937e-06
9.88697e-06
8.2741e-05
1.145e-05
7.633e-05
1.14327e-05
7.62622e-05
9.90054e-06
5.72568e-06
5.72755e-06
9.90087e-06
7.62633e-05
1.14324e-05
8.27534e-05
7.63314e-05
1.14496e-05
9.88728e-06
4.66957e-06
1.58207e-05
5.54671e-05
5.51476e-05
4.6688e-06
4.66881e-06
5.51476e-05
1.58059e-05
5.54673e-05
4.66957e-06
9.88729e-06
8.27393e-05
7.63312e-05
1.14496e-05
7.62636e-05
1.14324e-05
9.90087e-06
9.90054e-06
8.27552e-05
1.14327e-05
7.62622e-05
1.145e-05
7.63302e-05
9.88697e-06
4.66937e-06
5.54616e-05
1.58226e-05
4.66857e-06
5.51413e-05
9.88697e-06
8.2741e-05
1.145e-05
7.633e-05
9.90054e-06
1.14327e-05
7.62622e-05
4.66858e-06
5.51414e-05
1.58077e-05
5.54618e-05
4.66938e-06
5.72568e-06
5.72755e-06
9.90087e-06
8.27535e-05
7.62635e-05
1.14324e-05
7.63315e-05
1.14496e-05
9.8873e-06
4.66957e-06
5.54671e-05
1.58207e-05
4.6688e-06
5.51476e-05
9.88729e-06
8.27392e-05
7.63312e-05
1.14496e-05
9.90088e-06
7.62636e-05
1.14324e-05
4.66881e-06
5.51477e-05
1.58059e-05
5.54673e-05
4.66957e-06
5.72515e-06
5.72705e-06
5.40378e-05
4.81754e-06
4.81647e-06
4.81815e-06
4.81701e-06
5.40139e-05
8.54187e-05
0.000116925
5.87321e-05
1.50984e-05
0.000116819
1.50954e-05
8.56344e-05
8.5391e-05
0.000116915
5.87346e-05
1.50929e-05
0.000116809
1.50897e-05
8.56065e-05
8.56357e-05
1.50956e-05
5.89071e-05
0.000116822
0.000116926
1.50985e-05
8.54214e-05
8.56075e-05
1.509e-05
5.8909e-05
0.000116812
0.000116916
1.50929e-05
8.53937e-05
5.40121e-05
4.81812e-06
4.81697e-06
4.81745e-06
4.81638e-06
5.40373e-05
5.72616e-06
5.72565e-06
5.72751e-06
5.72547e-06
5.72737e-06
5.40367e-05
4.81743e-06
4.81629e-06
4.8181e-06
4.81689e-06
5.40115e-05
8.54178e-05
0.000116926
5.87332e-05
1.50986e-05
1.50956e-05
0.00011682
8.5634e-05
8.53901e-05
0.000116914
5.87346e-05
1.50923e-05
1.50892e-05
0.000116809
8.56058e-05
8.56339e-05
1.50956e-05
5.89077e-05
0.00011682
1.50987e-05
8.54178e-05
0.000116925
8.56057e-05
1.50892e-05
5.89086e-05
0.000116809
1.50923e-05
8.539e-05
0.000116914
5.40115e-05
4.8181e-06
4.81689e-06
4.81744e-06
4.81629e-06
5.40369e-05
5.7275e-06
5.72564e-06
5.72737e-06
5.72547e-06
5.40114e-05
4.81809e-06
4.81688e-06
5.40368e-05
4.81743e-06
4.81628e-06
8.56339e-05
0.00011682
5.89076e-05
1.50956e-05
1.50986e-05
0.000116925
8.54179e-05
8.56057e-05
0.000116809
5.89085e-05
1.50892e-05
1.50923e-05
0.000116914
8.53901e-05
8.54177e-05
1.50986e-05
0.000116925
5.87331e-05
8.56338e-05
1.50956e-05
0.00011682
8.53899e-05
1.50923e-05
0.000116914
5.87346e-05
8.56057e-05
1.50892e-05
0.000116808
5.40368e-05
4.81744e-06
4.81629e-06
4.8181e-06
4.81689e-06
5.40116e-05
9.90097e-06
1.14327e-05
7.62653e-05
8.27559e-05
1.145e-05
7.63333e-05
9.88737e-06
4.66952e-06
1.5822e-05
5.54681e-05
5.51483e-05
4.66872e-06
4.66874e-06
5.51483e-05
1.58072e-05
5.54683e-05
4.66952e-06
9.88738e-06
8.27417e-05
1.145e-05
7.63332e-05
1.14327e-05
7.62655e-05
9.90096e-06
9.88697e-06
1.145e-05
7.633e-05
8.2741e-05
9.90053e-06
1.14327e-05
7.62621e-05
4.66857e-06
1.58077e-05
5.51412e-05
4.66936e-06
5.54617e-05
4.66937e-06
5.54617e-05
1.58226e-05
4.66857e-06
5.51413e-05
9.90055e-06
8.27552e-05
1.14327e-05
7.62621e-05
9.88697e-06
1.145e-05
7.63301e-05
9.88737e-06
1.145e-05
7.63332e-05
8.27417e-05
9.90096e-06
1.14327e-05
7.62654e-05
4.66873e-06
1.58072e-05
5.51482e-05
5.54682e-05
4.66951e-06
4.66952e-06
5.54682e-05
1.5822e-05
4.66873e-06
5.51483e-05
9.90097e-06
8.27559e-05
1.14327e-05
7.62654e-05
1.145e-05
7.63333e-05
9.88737e-06
5.40373e-05
4.81653e-06
4.81743e-06
4.81712e-06
4.81811e-06
5.40121e-05
8.53911e-05
0.000116915
5.87358e-05
1.50931e-05
1.509e-05
0.00011681
8.56068e-05
8.54199e-05
0.000116929
5.8735e-05
1.50984e-05
0.000116823
1.50953e-05
8.5636e-05
8.56068e-05
1.509e-05
5.89095e-05
0.00011681
1.50931e-05
0.000116915
8.53911e-05
8.5636e-05
1.50953e-05
5.89098e-05
0.000116823
0.000116929
1.50984e-05
8.54199e-05
5.40122e-05
4.81712e-06
4.81812e-06
4.81653e-06
4.81744e-06
5.40375e-05
5.7257e-06
5.72759e-06
5.72755e-06
5.72568e-06
5.4012e-05
4.81712e-06
4.81811e-06
5.40374e-05
4.81653e-06
4.81743e-06
8.56067e-05
0.00011681
5.89094e-05
1.509e-05
0.000116915
1.50931e-05
8.53911e-05
8.56358e-05
0.000116823
5.89097e-05
1.50953e-05
1.50984e-05
0.000116929
8.54199e-05
8.53909e-05
1.50931e-05
0.000116915
5.87357e-05
0.00011681
8.56067e-05
1.509e-05
8.54197e-05
1.50984e-05
0.000116929
5.87349e-05
8.56359e-05
1.50953e-05
0.000116823
5.40373e-05
4.81654e-06
4.81744e-06
4.81712e-06
4.81811e-06
5.40122e-05
5.72759e-06
5.7257e-06
9.90024e-06
1.14324e-05
8.27529e-05
7.62594e-05
1.14497e-05
7.63275e-05
9.88665e-06
4.66925e-06
5.54592e-05
1.58201e-05
5.5139e-05
4.66845e-06
9.88666e-06
8.27387e-05
1.14497e-05
7.63274e-05
1.14324e-05
7.62596e-05
9.90023e-06
4.66846e-06
5.5139e-05
1.58052e-05
5.54593e-05
4.66925e-06
9.88729e-06
7.63312e-05
1.14496e-05
8.27392e-05
9.90087e-06
7.62635e-05
1.14324e-05
4.6688e-06
1.58059e-05
5.51475e-05
4.66956e-06
5.54672e-05
4.66957e-06
5.54672e-05
1.58207e-05
4.6688e-06
5.51476e-05
9.90087e-06
8.27534e-05
7.62633e-05
1.14324e-05
9.88729e-06
7.63314e-05
1.14496e-05
9.88666e-06
1.14497e-05
8.27387e-05
7.63274e-05
9.90023e-06
1.14324e-05
7.62595e-05
4.66846e-06
5.51389e-05
1.58052e-05
5.54592e-05
4.66924e-06
9.90024e-06
8.27529e-05
1.14324e-05
7.62594e-05
1.14497e-05
7.63276e-05
9.88666e-06
4.66925e-06
5.54592e-05
1.58201e-05
4.66846e-06
5.5139e-05
9.90112e-06
7.62652e-05
1.14325e-05
8.27552e-05
7.63331e-05
1.14497e-05
9.88753e-06
4.66969e-06
1.58217e-05
5.54686e-05
5.51489e-05
4.66891e-06
4.66893e-06
5.51488e-05
1.58068e-05
5.54687e-05
4.66969e-06
9.88754e-06
8.27411e-05
7.63331e-05
1.14497e-05
7.62653e-05
1.14325e-05
9.90112e-06
9.90045e-06
1.14325e-05
8.27545e-05
7.62607e-05
1.14498e-05
7.6329e-05
9.88686e-06
4.66945e-06
5.54602e-05
1.58209e-05
5.51396e-05
4.66864e-06
9.88695e-06
8.27404e-05
1.14498e-05
7.6329e-05
1.14326e-05
7.6261e-05
9.9005e-06
4.66857e-06
5.5139e-05
1.58059e-05
5.546e-05
4.66936e-06
9.88754e-06
7.63331e-05
1.14497e-05
8.27411e-05
9.90112e-06
7.62653e-05
1.14325e-05
4.66892e-06
1.58069e-05
5.51488e-05
5.54687e-05
4.66968e-06
4.66969e-06
5.54686e-05
1.58217e-05
4.66892e-06
5.51489e-05
9.90112e-06
8.27553e-05
7.62652e-05
1.14325e-05
7.63332e-05
1.14497e-05
9.88754e-06
9.88687e-06
1.14498e-05
8.27404e-05
7.63289e-05
9.90047e-06
1.14325e-05
7.62611e-05
4.66866e-06
5.51399e-05
1.5806e-05
5.54601e-05
4.66944e-06
9.90052e-06
8.27546e-05
1.14325e-05
7.62611e-05
1.14498e-05
7.6329e-05
9.88693e-06
4.66938e-06
5.54596e-05
1.58207e-05
4.66861e-06
5.51398e-05
5.72565e-06
5.72751e-06
5.72547e-06
5.72737e-06
5.40368e-05
4.81744e-06
4.81629e-06
4.8181e-06
4.81689e-06
5.40117e-05
8.54178e-05
0.000116926
1.50986e-05
5.87332e-05
8.5634e-05
1.50956e-05
0.00011682
8.53901e-05
0.000116914
1.50923e-05
5.87346e-05
8.56058e-05
1.50892e-05
0.000116809
5.40116e-05
4.8181e-06
4.81689e-06
5.40369e-05
4.81744e-06
4.81629e-06
8.5634e-05
1.50956e-05
5.89078e-05
0.00011682
1.50987e-05
8.54182e-05
0.000116926
8.56059e-05
1.50892e-05
5.89087e-05
0.000116809
1.50923e-05
8.53904e-05
0.000116914
5.72773e-06
5.72575e-06
5.72759e-06
5.72558e-06
5.40133e-05
4.81814e-06
4.81693e-06
5.40375e-05
4.81753e-06
4.81638e-06
8.56384e-05
0.000116823
5.89111e-05
1.50964e-05
1.50992e-05
0.000116929
8.54229e-05
8.56102e-05
0.000116812
5.89121e-05
1.509e-05
1.50929e-05
0.000116918
8.53951e-05
8.54204e-05
1.50988e-05
0.000116927
5.8735e-05
8.56351e-05
1.50959e-05
0.000116823
8.53927e-05
1.50924e-05
0.000116916
5.87364e-05
8.56069e-05
1.50895e-05
0.000116811
5.40405e-05
4.81777e-06
4.81662e-06
4.81832e-06
4.81711e-06
5.40167e-05
9.90097e-06
8.27559e-05
1.14327e-05
7.62655e-05
1.145e-05
7.63333e-05
9.88738e-06
4.66952e-06
5.54682e-05
1.5822e-05
4.66873e-06
5.51483e-05
9.88738e-06
8.27417e-05
1.145e-05
7.63332e-05
1.14327e-05
9.90097e-06
7.62655e-05
4.66874e-06
5.51484e-05
1.58072e-05
5.54683e-05
4.66952e-06
9.88713e-06
1.14501e-05
7.63309e-05
8.2743e-05
9.9006e-06
1.14329e-05
7.62642e-05
4.66876e-06
1.58082e-05
5.51456e-05
4.66962e-06
5.54649e-05
4.66946e-06
5.54623e-05
1.58229e-05
4.66861e-06
5.51429e-05
9.90092e-06
8.2759e-05
1.14333e-05
7.6267e-05
9.88752e-06
1.14504e-05
7.63341e-05
9.88753e-06
1.145e-05
7.63339e-05
8.27437e-05
9.90102e-06
1.14329e-05
7.62673e-05
4.66892e-06
1.58077e-05
5.51526e-05
5.54712e-05
4.6698e-06
4.6696e-06
5.54687e-05
1.58223e-05
4.66876e-06
5.51497e-05
9.90135e-06
8.27598e-05
1.14333e-05
7.62705e-05
1.14504e-05
7.63373e-05
9.88798e-06
5.40373e-05
4.81653e-06
4.81743e-06
4.81712e-06
4.81811e-06
5.40121e-05
8.53911e-05
0.000116915
1.50931e-05
5.87358e-05
1.509e-05
8.56068e-05
0.00011681
8.54198e-05
0.000116929
1.50984e-05
5.8735e-05
0.000116823
8.56359e-05
1.50953e-05
5.40121e-05
4.81712e-06
4.81812e-06
4.81653e-06
5.40375e-05
4.81743e-06
8.56067e-05
1.509e-05
5.89094e-05
0.00011681
1.50931e-05
0.000116915
8.53911e-05
8.56359e-05
1.50953e-05
5.89098e-05
0.000116823
0.000116928
1.50984e-05
8.54198e-05
5.7257e-06
5.72759e-06
5.72767e-06
5.72573e-06
5.40123e-05
4.81713e-06
4.81811e-06
5.40374e-05
4.81654e-06
4.81744e-06
8.56083e-05
0.000116813
5.89113e-05
1.50905e-05
0.000116917
1.50934e-05
8.53945e-05
8.56372e-05
0.000116826
5.89106e-05
1.50956e-05
1.50985e-05
0.00011693
8.54228e-05
8.53916e-05
1.50932e-05
0.000116915
5.87365e-05
0.00011681
8.56069e-05
1.50901e-05
8.54201e-05
1.50984e-05
0.000116929
5.87351e-05
8.5636e-05
1.50953e-05
0.000116823
5.40383e-05
4.81666e-06
4.81755e-06
4.81718e-06
4.81816e-06
5.40145e-05
5.72764e-06
5.72571e-06
9.90024e-06
8.2753e-05
1.14324e-05
7.62599e-05
1.14497e-05
7.63277e-05
9.88668e-06
4.66925e-06
5.54592e-05
1.58201e-05
4.66845e-06
5.51391e-05
9.88666e-06
8.27387e-05
1.14497e-05
7.63274e-05
1.14324e-05
9.90024e-06
7.62596e-05
4.66847e-06
5.51394e-05
1.58053e-05
5.54595e-05
4.66927e-06
9.88745e-06
7.63321e-05
1.14497e-05
8.27415e-05
9.90094e-06
7.62657e-05
1.14325e-05
4.66899e-06
1.58064e-05
5.5152e-05
4.66982e-06
5.54705e-05
4.66965e-06
5.54678e-05
1.58209e-05
4.66884e-06
5.51492e-05
9.90125e-06
8.27575e-05
7.62685e-05
1.1433e-05
9.88784e-06
7.63356e-05
1.14501e-05
9.88685e-06
1.14498e-05
7.63287e-05
8.27412e-05
9.90032e-06
1.14326e-05
7.62622e-05
4.66867e-06
1.5806e-05
5.51444e-05
5.54634e-05
4.66954e-06
4.66937e-06
5.54603e-05
1.58205e-05
4.66851e-06
5.51413e-05
9.90065e-06
8.27572e-05
1.14331e-05
7.62653e-05
1.14501e-05
7.63323e-05
9.88725e-06
9.90112e-06
8.27553e-05
7.62652e-05
1.14325e-05
7.63331e-05
1.14497e-05
9.88753e-06
4.66968e-06
5.54686e-05
1.58217e-05
5.51489e-05
4.66891e-06
9.88754e-06
8.27411e-05
7.63331e-05
1.14497e-05
7.62652e-05
9.90112e-06
1.14325e-05
4.66892e-06
5.51488e-05
1.58069e-05
5.54687e-05
4.66968e-06
9.90052e-06
8.27549e-05
1.14325e-05
7.62616e-05
1.14498e-05
7.63295e-05
9.88695e-06
4.66945e-06
5.54604e-05
1.58211e-05
4.66865e-06
5.51401e-05
9.88694e-06
8.27407e-05
1.14498e-05
7.63292e-05
9.90051e-06
1.14325e-05
7.62614e-05
4.66866e-06
5.51404e-05
1.58062e-05
5.54607e-05
4.66946e-06
9.88756e-06
7.63332e-05
1.14498e-05
8.27417e-05
9.90113e-06
7.62656e-05
1.14325e-05
4.66896e-06
1.5807e-05
5.51503e-05
5.54694e-05
4.66977e-06
4.6697e-06
5.54687e-05
1.58218e-05
4.66893e-06
5.51491e-05
9.90121e-06
8.27568e-05
7.62675e-05
1.14327e-05
7.63343e-05
1.14499e-05
9.88773e-06
9.88703e-06
1.14498e-05
7.633e-05
8.27417e-05
9.90056e-06
1.14326e-05
7.62628e-05
4.66878e-06
1.58068e-05
5.51433e-05
5.5463e-05
4.66964e-06
4.66952e-06
5.54612e-05
1.58214e-05
4.66869e-06
5.51417e-05
9.90071e-06
8.27569e-05
1.14328e-05
7.62652e-05
1.145e-05
7.6332e-05
9.88725e-06
5.40375e-05
4.81634e-06
4.81745e-06
4.81687e-06
4.81808e-06
5.40136e-05
8.53896e-05
0.000116911
5.87309e-05
1.50923e-05
1.50892e-05
0.000116806
8.5605e-05
8.54185e-05
0.000116926
5.87328e-05
1.50986e-05
0.00011682
1.50957e-05
8.56344e-05
8.56061e-05
1.50894e-05
5.89051e-05
0.000116809
1.50924e-05
0.000116912
8.53922e-05
8.56355e-05
1.50959e-05
5.89083e-05
0.000116823
0.000116927
1.50988e-05
8.54212e-05
5.40118e-05
4.81683e-06
4.81804e-06
4.81625e-06
4.81736e-06
5.4037e-05
5.7254e-06
5.72732e-06
5.72742e-06
5.72539e-06
5.4018e-05
4.81707e-06
4.81829e-06
5.40411e-05
4.81663e-06
4.81776e-06
0.000116808
5.89095e-05
0.000116914
8.53959e-05
1.50928e-05
0.000116916
5.87345e-05
0.000116812
8.56104e-05
1.50902e-05
8.54255e-05
1.50994e-05
0.00011693
5.87383e-05
8.56399e-05
1.50968e-05
0.000116823
5.72578e-06
9.90062e-06
7.62623e-05
1.14326e-05
8.27541e-05
7.63295e-05
1.14498e-05
9.88714e-06
4.6695e-06
1.58209e-05
5.54602e-05
5.51404e-05
4.66871e-06
4.66876e-06
5.51417e-05
1.58061e-05
5.5461e-05
4.66957e-06
9.887e-06
8.27392e-05
7.63286e-05
1.14497e-05
7.62608e-05
1.14324e-05
9.90055e-06
9.90109e-06
7.62654e-05
1.14326e-05
8.27547e-05
7.63323e-05
1.14497e-05
9.88759e-06
4.66958e-06
1.58205e-05
5.5467e-05
5.51475e-05
4.66882e-06
4.66887e-06
5.51488e-05
1.58058e-05
5.54677e-05
4.66966e-06
9.88745e-06
8.27398e-05
7.63316e-05
1.14497e-05
7.62638e-05
1.14324e-05
9.90101e-06
9.88756e-06
7.63323e-05
1.14501e-05
8.27435e-05
9.90093e-06
7.62658e-05
1.14331e-05
4.66978e-06
5.54635e-05
1.58218e-05
4.66891e-06
5.51453e-05
9.88801e-06
7.63353e-05
1.14501e-05
8.27443e-05
9.9014e-06
7.62689e-05
1.14331e-05
4.66987e-06
5.54702e-05
1.58214e-05
4.66902e-06
5.51524e-05
5.72534e-06
5.72723e-06
5.7254e-06
5.72733e-06
5.40184e-05
4.81835e-06
4.81722e-06
5.40414e-05
4.81783e-06
4.81678e-06
0.000116821
5.89114e-05
0.000116928
8.54253e-05
1.5099e-05
0.00011693
5.87357e-05
8.564e-05
0.000116825
1.50964e-05
8.53981e-05
1.50935e-05
0.000116919
5.874e-05
8.5612e-05
0.000116812
1.50909e-05
5.72759e-06
5.72557e-06
5.72579e-06
1.58233e-05
8.53973e-05
0.000116918
1.5094e-05
5.87425e-05
1.50912e-05
8.56123e-05
0.000116811
8.54257e-05
0.000116933
1.50991e-05
5.874e-05
0.000116825
8.56411e-05
1.50963e-05
5.40177e-05
4.81739e-06
4.81837e-06
4.81689e-06
5.40418e-05
4.81779e-06
5.72605e-06
4.66998e-06
5.54719e-05
1.58226e-05
5.5154e-05
4.66911e-06
9.88815e-06
8.27466e-05
7.63374e-05
1.14502e-05
7.62711e-05
9.90153e-06
1.14332e-05
4.66982e-06
5.54645e-05
4.66896e-06
5.51462e-05
9.88767e-06
8.27467e-05
1.14503e-05
7.63346e-05
9.90105e-06
1.14333e-05
7.62683e-05
0.000227415
0.000227417
0.00022022
0.000227415
0.000227417
0.000231838
0.000231838
0.000227415
0.000227417
0.000220218
0.000227413
0.000227415
0.000231835
0.000231837
0.000127263
0.000155342
0.000155327
0.000176283
0.000155288
0.000155273
0.000127373
0.000127262
0.000155342
0.000155327
0.000176283
0.000155288
0.000155272
0.000127372
0.000127373
0.00017631
0.000155289
0.000155273
0.000155342
0.000155326
0.000127262
0.000127264
0.000155329
0.000155346
0.000176287
0.000155291
0.000155275
0.000127374
0.000127375
0.000176313
0.000155275
0.000155292
0.000155328
0.000155345
0.000127264
0.000127262
0.000155342
0.000155326
0.000176283
0.000127372
0.000155288
0.000155272
0.000127376
0.000176307
0.000155282
0.000155266
0.000155342
0.000155326
0.000127261
0.000127264
0.000155329
0.000155345
0.000176287
0.000155291
0.000127374
0.000155275
0.000127376
0.000176311
0.000155274
0.000155292
0.000155327
0.000155345
0.000127267
0.000127262
0.000155325
0.000155342
0.000176281
0.000155288
0.000155271
0.000127372
0.000176277
0.00015525
0.000155309
0.000176277
0.000155266
0.000155326
0.000127265
0.000155325
0.000155343
0.00017627
0.000155281
0.000127377
0.000155263
0.000227416
0.000227418
0.000220221
0.000227416
0.000227418
0.000231838
0.000231838
0.000227413
0.000227416
0.000220216
0.000227413
0.000227416
0.000231837
0.000231837
0.000227414
0.000227416
0.000220218
0.000227414
0.000227416
0.000231838
0.000231838
0.000220219
0.000227415
0.000227417
0.000227415
0.000227417
0.000231838
0.000231838
0.000220221
0.000227416
0.000227418
0.000227415
0.000227418
0.000231838
0.000231838
0.000220216
0.000227413
0.000227416
0.000227413
0.000227416
0.000231837
0.000231837
0.000220218
0.000227414
0.000227416
0.000227414
0.000227416
0.000231838
0.000231837
0.00016601
0.000128777
0.000170993
0.000135308
0.000128835
0.000171016
0.000165974
0.000154066
0.000138027
8.66969e-05
0.00011364
0.000137881
0.000113477
0.000154134
0.000154134
0.000113478
8.72294e-05
0.000137882
0.000138026
0.00011364
0.000154065
0.000165974
0.000135274
0.000128835
0.000171017
0.000128776
0.000170992
0.000166009
0.000227415
0.000227418
0.000220219
0.000227413
0.000227416
0.000231835
0.000231838
0.000227412
0.000227415
0.000220213
0.00022741
0.000227411
0.000231834
0.000231836
0.000227414
0.000227415
0.000220215
0.000227412
0.000227412
0.000231834
0.000231837
0.000220214
0.000227394
0.000227397
0.000227407
0.000227409
0.000231827
0.000231812
0.000220215
0.00022739
0.000227397
0.000227406
0.000227411
0.000231827
0.000231808
0.000220205
0.00022739
0.000227382
0.000227403
0.0002274
0.000231824
0.000231807
0.000220206
0.000227388
0.000227379
0.000227405
0.0002274
0.000231824
0.000231803
0.00016601
0.000135308
0.000128777
0.000170994
0.000128835
0.000171017
0.000165974
0.000154066
0.000138027
0.00011364
8.66969e-05
0.000154134
0.000137881
0.000113477
0.000165974
0.000135274
0.000128835
0.000171017
0.000166009
0.000128776
0.000170992
0.000154134
0.000113478
8.72294e-05
0.000137882
0.000138026
0.00011364
0.000154065
0.000166004
0.000170988
0.000128773
0.000135305
0.000171012
0.00012883
0.000165968
0.00015406
0.000138023
8.66938e-05
0.000113634
0.000137878
0.000113471
0.000154128
0.000154129
0.000113474
8.7227e-05
0.00013788
0.000138023
0.000113635
0.00015406
0.000165969
0.000135271
0.000171013
0.00012883
0.000170988
0.000128771
0.000166003
0.000127374
0.000176309
0.000155291
0.000155275
0.000155343
0.000155327
0.000127265
0.000227379
0.000227369
0.000154059
0.000138028
0.000113644
8.67022e-05
0.000154132
0.000137878
0.00011348
0.000165961
0.000135271
0.000128837
0.00017101
0.000166003
0.000128775
0.000170972
0.000127372
0.000176309
0.000155289
0.000155273
0.000127262
0.000155342
0.000155326
0.000127262
0.000176283
0.000155342
0.000155326
0.000127372
0.000155288
0.000155272
0.000166007
0.000128774
0.000170992
0.000135307
0.000128831
0.000171015
0.000165971
0.00015406
0.000138021
8.66935e-05
0.000113634
0.000113472
0.000137876
0.000154128
0.000154128
0.000113472
8.72257e-05
0.000137876
0.000113634
0.000138021
0.000154059
0.000165971
0.000135273
0.000128832
0.000171016
0.000128773
0.000170991
0.000166006
0.000166007
0.000128776
0.000170992
0.000135308
0.000128833
0.000171015
0.000165971
0.000154058
0.000138015
8.66927e-05
0.000113637
0.000113474
0.00013787
0.000154127
0.000154126
0.000113474
8.72249e-05
0.00013787
0.000113636
0.000154058
0.000138015
0.000165971
0.000135274
0.000128834
0.000171016
0.000128775
0.000170991
0.000166006
0.000165971
0.000128832
0.000171016
0.000135274
0.000166006
0.000128773
0.000170991
0.000154128
0.000137876
8.72256e-05
0.000113472
0.000138021
0.000113634
0.000154059
0.000154059
0.000113634
0.000138021
8.66933e-05
0.000137876
0.000154128
0.000113471
0.000166006
0.000135307
0.000128773
0.000170992
0.000128831
0.000171015
0.000165971
0.000165972
0.000128834
0.000171016
0.000135274
0.000166006
0.000128775
0.000170991
0.000154127
0.00013787
8.72248e-05
0.000113474
0.000113636
0.000138015
0.000154058
0.000154058
0.000113636
0.000138015
8.66926e-05
0.000154126
0.000113474
0.00013787
0.000166007
0.000135308
0.000128775
0.000170992
0.000128833
0.000171015
0.000165971
0.000127375
0.000176313
0.000155275
0.000155292
0.000155345
0.000155328
0.000127264
0.000127264
0.000176286
0.000155328
0.000155345
0.000155274
0.000127374
0.000155291
0.000166005
0.000128773
0.000170989
0.000135304
0.000128831
0.000171012
0.000165969
0.000154059
0.000138017
8.66927e-05
0.000113636
0.000113473
0.000137871
0.000154127
0.000154127
0.000113474
8.7225e-05
0.000137872
0.000113636
0.000138016
0.000154059
0.000165969
0.00013527
0.000128831
0.000171013
0.000128773
0.000170988
0.000166004
0.000166
0.000170986
0.000135303
0.000128768
0.00017101
0.000128826
0.000165964
0.000154051
0.00013801
0.000113629
8.66878e-05
0.000113466
0.000154119
0.000137865
0.000165965
0.000135269
0.00017101
0.000128827
0.000170986
0.000128768
0.000166
0.000154119
0.000113466
8.72199e-05
0.000137865
0.000113629
0.000154051
0.00013801
0.000165969
0.000128831
0.000171013
0.000135271
0.000166004
0.000128773
0.000170988
0.000154128
0.000137872
8.72249e-05
0.000113474
0.000138016
0.000113636
0.000154059
0.000154058
0.000113636
0.000138016
8.66926e-05
0.000137871
0.000154127
0.000113473
0.000166004
0.000135304
0.000128773
0.000170989
0.000128831
0.000171012
0.000165968
0.000165965
0.00017101
0.000135269
0.000128827
0.000166
0.000170986
0.000128768
0.00015412
0.000137865
0.000113466
8.72199e-05
0.000113629
0.000154051
0.00013801
0.000166
0.000135303
0.000170986
0.000128768