/*--------------------------------*- C++ -*----------------------------------*\
| =========                 |                                                 |
| \\      /  F ield         | OpenFOAM: The Open Source CFD Toolbox           |
|  \\    /   O peration     | Version:  2206                                  |
|   \\  /    A nd           | Website:  www.openfoam.com                      |
|    \\/     M anipulation  |                                                 |
\*---------------------------------------------------------------------------*/
FoamFile
{
    version     2.0;
    format      ascii;
    arch        "LSB;label=32;scalar=64";
    class       volScalarField;
    location    "27.5";
    object      k;
}
// * * * * * * * * * * * * * * * * * * * * * * * * * * * * * * * * * * * * * //

dimensions      [0 2 -2 0 0 0 0];

internalField   nonuniform List<scalar> 
28688
(
3.58939e-05
3.58913e-05
3.58914e-05
3.59956e-05
3.39325e-05
3.38904e-05
3.38904e-05
3.39626e-05
3.21589e-05
3.20075e-05
3.20075e-05
3.19521e-05
3.05184e-05
3.02185e-05
3.02184e-05
2.99892e-05
2.90728e-05
2.8591e-05
2.85909e-05
2.8142e-05
2.75174e-05
2.68636e-05
2.68635e-05
2.63353e-05
2.66884e-05
2.60324e-05
2.60323e-05
2.53296e-05
2.65655e-05
2.60205e-05
2.60204e-05
2.54246e-05
2.65606e-05
2.60352e-05
2.6035e-05
2.54608e-05
2.65609e-05
2.60367e-05
2.60366e-05
2.54642e-05
2.65609e-05
2.60371e-05
2.6037e-05
2.54646e-05
2.65609e-05
2.60372e-05
2.60371e-05
2.54647e-05
3.63069e-05
3.62908e-05
3.62908e-05
3.63069e-05
3.62908e-05
3.62908e-05
3.64229e-05
3.64229e-05
3.64229e-05
3.64229e-05
3.62908e-05
3.62908e-05
3.63069e-05
3.62908e-05
3.62908e-05
3.63069e-05
3.59956e-05
3.42685e-05
3.58914e-05
3.58914e-05
3.43763e-05
3.43763e-05
3.59956e-05
3.42685e-05
3.58913e-05
3.58914e-05
3.43764e-05
3.43763e-05
3.58914e-05
3.43764e-05
3.43763e-05
3.59956e-05
3.42685e-05
3.58914e-05
3.43764e-05
3.43763e-05
3.42685e-05
3.39626e-05
3.22612e-05
3.38903e-05
3.38903e-05
3.24649e-05
3.24648e-05
3.39626e-05
3.22613e-05
3.38903e-05
3.38903e-05
3.24649e-05
3.24648e-05
3.38903e-05
3.24651e-05
3.24649e-05
3.39626e-05
3.22612e-05
3.38903e-05
3.2465e-05
3.24649e-05
3.22612e-05
3.19521e-05
3.02979e-05
3.20073e-05
3.20072e-05
3.06639e-05
3.06637e-05
3.19521e-05
3.0298e-05
3.20074e-05
3.20072e-05
3.0664e-05
3.06636e-05
3.20073e-05
3.06641e-05
3.06638e-05
3.1952e-05
3.02978e-05
3.20074e-05
3.06641e-05
3.06639e-05
3.02978e-05
2.99892e-05
2.84283e-05
3.02182e-05
3.0218e-05
2.89818e-05
2.89816e-05
2.99893e-05
2.84285e-05
3.02183e-05
3.02179e-05
2.8982e-05
2.89815e-05
3.02181e-05
2.89822e-05
2.89817e-05
2.99892e-05
2.84282e-05
3.02183e-05
2.89821e-05
2.8982e-05
2.84282e-05
2.81422e-05
2.66191e-05
2.85906e-05
2.85904e-05
2.72891e-05
2.72888e-05
2.81422e-05
2.66193e-05
2.85908e-05
2.85902e-05
2.72894e-05
2.72887e-05
2.85905e-05
2.72897e-05
2.7289e-05
2.8142e-05
2.66189e-05
2.85908e-05
2.72895e-05
2.72893e-05
2.66189e-05
2.63354e-05
2.53645e-05
2.68631e-05
2.68628e-05
2.61048e-05
2.61045e-05
2.63355e-05
2.53646e-05
2.68634e-05
2.68626e-05
2.61051e-05
2.61043e-05
2.6863e-05
2.61053e-05
2.61047e-05
2.63353e-05
2.53643e-05
2.68633e-05
2.61051e-05
2.61051e-05
2.53641e-05
2.53299e-05
2.54212e-05
2.6032e-05
2.60318e-05
2.60112e-05
2.60111e-05
2.533e-05
2.54213e-05
2.60323e-05
2.60316e-05
2.60115e-05
2.60109e-05
2.60319e-05
2.60117e-05
2.60111e-05
2.53297e-05
2.54211e-05
2.60323e-05
2.60115e-05
2.60115e-05
2.5421e-05
2.54248e-05
2.54639e-05
2.60203e-05
2.60202e-05
2.60335e-05
2.60334e-05
2.54249e-05
2.54639e-05
2.60206e-05
2.602e-05
2.60339e-05
2.60332e-05
2.60203e-05
2.60339e-05
2.60336e-05
2.54246e-05
2.54636e-05
2.60206e-05
2.60338e-05
2.60339e-05
2.5464e-05
2.5461e-05
2.54678e-05
2.60349e-05
2.60348e-05
2.60362e-05
2.60361e-05
2.5461e-05
2.54678e-05
2.60352e-05
2.60346e-05
2.60365e-05
2.60358e-05
2.60349e-05
2.60366e-05
2.60362e-05
2.54607e-05
2.54675e-05
2.60353e-05
2.60365e-05
2.60366e-05
2.54679e-05
2.54644e-05
2.54684e-05
2.60364e-05
2.60363e-05
2.60366e-05
2.60366e-05
2.54644e-05
2.54683e-05
2.60367e-05
2.60361e-05
2.6037e-05
2.60363e-05
2.60364e-05
2.6037e-05
2.60367e-05
2.54641e-05
2.54681e-05
2.60368e-05
2.60369e-05
2.6037e-05
2.54684e-05
2.54649e-05
2.54685e-05
2.60368e-05
2.60367e-05
2.60369e-05
2.60368e-05
2.54647e-05
2.54684e-05
2.60372e-05
2.60365e-05
2.60373e-05
2.60366e-05
2.60369e-05
2.60372e-05
2.6037e-05
2.54645e-05
2.54682e-05
2.60372e-05
2.60371e-05
2.60373e-05
2.54685e-05
2.54649e-05
2.54687e-05
2.60371e-05
2.6037e-05
2.60372e-05
2.54648e-05
2.60374e-05
2.60368e-05
2.60375e-05
2.60369e-05
2.60371e-05
2.60372e-05
2.54646e-05
2.54684e-05
2.60375e-05
2.60374e-05
2.60376e-05
2.54688e-05
3.73772e-05
3.73765e-05
3.73769e-05
3.73769e-05
3.73701e-05
3.73777e-05
3.73043e-05
3.73767e-05
3.73701e-05
3.73777e-05
3.73767e-05
3.73043e-05
3.73742e-05
3.72959e-05
3.72959e-05
3.5882e-05
4.08828e-05
3.66027e-05
4.51355e-05
5.5115e-05
6.48761e-05
3.58821e-05
4.0882e-05
3.6603e-05
4.51351e-05
3.58939e-05
3.58939e-05
3.58939e-05
3.44005e-05
3.44005e-05
3.44005e-05
3.44005e-05
3.52764e-05
3.56332e-05
3.58934e-05
3.53772e-05
3.60473e-05
3.42441e-05
3.53821e-05
5.51171e-05
6.48795e-05
3.52764e-05
3.58934e-05
3.5633e-05
3.53772e-05
3.60473e-05
3.53821e-05
3.42451e-05
3.65923e-05
3.65927e-05
3.52791e-05
3.40668e-05
3.4066e-05
3.39773e-05
5.13693e-05
3.46726e-05
5.46106e-05
7.65627e-05
8.0848e-05
3.39792e-05
5.13705e-05
3.46728e-05
5.4611e-05
3.39325e-05
3.39325e-05
3.39325e-05
3.25806e-05
3.25806e-05
3.25806e-05
3.25806e-05
3.30573e-05
3.24697e-05
3.39315e-05
3.34101e-05
3.38942e-05
3.15855e-05
3.3469e-05
7.65646e-05
8.08512e-05
3.30574e-05
3.39315e-05
3.24683e-05
3.34101e-05
3.38939e-05
3.3469e-05
3.1588e-05
3.17205e-05
3.17197e-05
3.32638e-05
3.09307e-05
3.09293e-05
3.22536e-05
5.91871e-05
3.2916e-05
6.14169e-05
8.44088e-05
8.50678e-05
3.22568e-05
5.91892e-05
3.29134e-05
6.14188e-05
3.21589e-05
3.21589e-05
3.21589e-05
3.09239e-05
3.09239e-05
3.09239e-05
3.09239e-05
3.07881e-05
3.05091e-05
3.21379e-05
3.15589e-05
3.16361e-05
2.98829e-05
3.17163e-05
8.44109e-05
8.50702e-05
3.07881e-05
3.21379e-05
3.05083e-05
3.15588e-05
3.16355e-05
3.17162e-05
2.9885e-05
3.02166e-05
3.02156e-05
3.12726e-05
2.99938e-05
2.99925e-05
3.07827e-05
6.43627e-05
3.13269e-05
6.57169e-05
8.46349e-05
8.38851e-05
3.07856e-05
6.43646e-05
3.13247e-05
6.57202e-05
3.05184e-05
3.05184e-05
3.05184e-05
2.94272e-05
2.94271e-05
2.94271e-05
2.94271e-05
2.86114e-05
2.91376e-05
3.04571e-05
2.97868e-05
2.94032e-05
2.86805e-05
3.00558e-05
8.46362e-05
8.38865e-05
2.86114e-05
3.04571e-05
2.91366e-05
2.97867e-05
2.94027e-05
3.00557e-05
2.8683e-05
2.99421e-05
2.99411e-05
2.93378e-05
3.00325e-05
3.00315e-05
2.95019e-05
6.73263e-05
2.9978e-05
6.80275e-05
8.22792e-05
8.1182e-05
2.95025e-05
6.73289e-05
2.99782e-05
6.80311e-05
2.90729e-05
2.90728e-05
2.90729e-05
2.78903e-05
2.78902e-05
2.78901e-05
2.78902e-05
2.65827e-05
2.81007e-05
2.89384e-05
2.81816e-05
2.73069e-05
2.78116e-05
2.85499e-05
8.22795e-05
8.11827e-05
2.65825e-05
2.89383e-05
2.80999e-05
2.81815e-05
2.73066e-05
2.85498e-05
2.78137e-05
3.04505e-05
3.04499e-05
2.7542e-05
3.07824e-05
3.07817e-05
2.82054e-05
6.8654e-05
2.88286e-05
6.8846e-05
7.96386e-05
7.94008e-05
2.82063e-05
6.86573e-05
2.88263e-05
6.88491e-05
2.75174e-05
2.75174e-05
2.75174e-05
2.67951e-05
2.67951e-05
2.6795e-05
2.67951e-05
2.46335e-05
2.71792e-05
2.7313e-05
2.6511e-05
2.53396e-05
2.68838e-05
2.69747e-05
7.96387e-05
7.94007e-05
2.46333e-05
2.73129e-05
2.71771e-05
2.65109e-05
2.5339e-05
2.69746e-05
2.6885e-05
3.14188e-05
3.14188e-05
2.5759e-05
3.16353e-05
3.16353e-05
2.83625e-05
6.94796e-05
2.81905e-05
6.97301e-05
7.95415e-05
7.96321e-05
2.83641e-05
6.94828e-05
2.81889e-05
6.97325e-05
2.66885e-05
2.66884e-05
2.66884e-05
2.65736e-05
2.65736e-05
2.65735e-05
2.65736e-05
2.43915e-05
2.71824e-05
2.64414e-05
2.60103e-05
2.43296e-05
2.76783e-05
2.63848e-05
7.954e-05
7.96284e-05
2.43917e-05
2.64413e-05
2.7183e-05
2.60101e-05
2.43294e-05
2.63847e-05
2.76788e-05
3.3087e-05
3.30874e-05
2.53425e-05
3.37773e-05
3.37787e-05
2.85471e-05
6.98625e-05
2.85327e-05
6.98674e-05
7.9683e-05
7.96857e-05
2.85485e-05
6.98656e-05
2.85325e-05
6.98704e-05
2.65656e-05
2.65655e-05
2.65655e-05
2.65606e-05
2.65606e-05
2.65605e-05
2.65606e-05
2.45387e-05
2.80746e-05
2.63409e-05
2.60276e-05
2.45173e-05
2.81137e-05
2.63401e-05
7.96795e-05
7.96818e-05
2.4539e-05
2.63409e-05
2.80735e-05
2.60275e-05
2.45173e-05
2.634e-05
2.81143e-05
3.42067e-05
3.42085e-05
2.54541e-05
3.42523e-05
3.4254e-05
2.85536e-05
6.98709e-05
2.85546e-05
6.9869e-05
7.9687e-05
7.96867e-05
2.85547e-05
6.9874e-05
2.85555e-05
6.98719e-05
2.65607e-05
2.65606e-05
2.65607e-05
2.65608e-05
2.65608e-05
2.65607e-05
2.65608e-05
2.45497e-05
2.81289e-05
2.63404e-05
2.60361e-05
2.45484e-05
2.81266e-05
2.63407e-05
7.96834e-05
7.96828e-05
2.45499e-05
2.63403e-05
2.81291e-05
2.60359e-05
2.45486e-05
2.63407e-05
2.8127e-05
3.42647e-05
3.42665e-05
2.54669e-05
3.42632e-05
3.42651e-05
2.85549e-05
6.98705e-05
2.8557e-05
6.98678e-05
7.96871e-05
7.96868e-05
2.85561e-05
6.98735e-05
2.85579e-05
6.98712e-05
2.6561e-05
2.65609e-05
2.6561e-05
2.65609e-05
2.6561e-05
2.65609e-05
2.6561e-05
2.45516e-05
2.81321e-05
2.63409e-05
2.6037e-05
2.45512e-05
2.81283e-05
2.63411e-05
7.96835e-05
7.96829e-05
2.45518e-05
2.63409e-05
2.81323e-05
2.60368e-05
2.45514e-05
2.6341e-05
2.81288e-05
3.4266e-05
3.42678e-05
2.54683e-05
3.42641e-05
3.42659e-05
2.85551e-05
6.98698e-05
2.85575e-05
6.9868e-05
7.96871e-05
7.96869e-05
2.85564e-05
6.9873e-05
2.85584e-05
6.98707e-05
2.65611e-05
2.6561e-05
2.65611e-05
2.65609e-05
2.6561e-05
2.65609e-05
2.6561e-05
2.45523e-05
2.81327e-05
2.63412e-05
2.60372e-05
2.45524e-05
2.81285e-05
2.63413e-05
7.96835e-05
7.96829e-05
2.45526e-05
2.63411e-05
2.81329e-05
2.60371e-05
2.45527e-05
2.63413e-05
2.8129e-05
3.42663e-05
3.42681e-05
2.54685e-05
3.42643e-05
3.42661e-05
2.85551e-05
6.98702e-05
2.85575e-05
6.98683e-05
7.96872e-05
7.96869e-05
2.85564e-05
6.98727e-05
2.85585e-05
6.98705e-05
2.65611e-05
2.6561e-05
2.65611e-05
2.65612e-05
2.65614e-05
2.65611e-05
2.65612e-05
2.45519e-05
2.81327e-05
2.63412e-05
2.60373e-05
2.45521e-05
2.81286e-05
2.63413e-05
7.96835e-05
7.96829e-05
2.45525e-05
2.63412e-05
2.8133e-05
2.60373e-05
2.45526e-05
2.63413e-05
2.8129e-05
3.42664e-05
3.42682e-05
2.54686e-05
3.42643e-05
3.42661e-05
3.73742e-05
3.72959e-05
3.72959e-05
5.3112e-05
3.71932e-05
5.31139e-05
3.71932e-05
3.70929e-05
3.7244e-05
3.72445e-05
3.71762e-05
3.71762e-05
3.73701e-05
3.73777e-05
3.73043e-05
3.73767e-05
3.73701e-05
3.73777e-05
3.73043e-05
3.73767e-05
3.71732e-05
3.94122e-05
3.7168e-05
3.67256e-05
3.71732e-05
3.9412e-05
3.7168e-05
3.67257e-05
3.70959e-05
3.71022e-05
3.60297e-05
3.6421e-05
3.71636e-05
3.7111e-05
3.63056e-05
3.70958e-05
3.71022e-05
3.60301e-05
3.6421e-05
3.71636e-05
3.7111e-05
3.63056e-05
3.73742e-05
3.72959e-05
3.72959e-05
5.31122e-05
3.71933e-05
3.70929e-05
3.72448e-05
3.72439e-05
3.71762e-05
3.71762e-05
5.31137e-05
3.71933e-05
3.73701e-05
3.73777e-05
3.73043e-05
3.73767e-05
3.73701e-05
3.73777e-05
3.73767e-05
3.73043e-05
3.71732e-05
3.94126e-05
3.7168e-05
3.67258e-05
3.70959e-05
3.71022e-05
3.60297e-05
3.6421e-05
3.71636e-05
3.7111e-05
3.63057e-05
3.71732e-05
3.94128e-05
3.7168e-05
3.67255e-05
3.70959e-05
3.71022e-05
3.6421e-05
3.60298e-05
3.7111e-05
3.71636e-05
3.63056e-05
3.73772e-05
3.73765e-05
3.73769e-05
3.73769e-05
3.73772e-05
3.73765e-05
3.73769e-05
3.73769e-05
3.73772e-05
3.73765e-05
3.73769e-05
3.73769e-05
3.71135e-05
3.711e-05
3.64241e-05
3.64241e-05
3.71126e-05
3.71126e-05
3.64261e-05
3.71135e-05
3.711e-05
3.64241e-05
3.64241e-05
3.71126e-05
3.71126e-05
3.64261e-05
3.71135e-05
3.711e-05
3.64241e-05
3.64241e-05
3.71126e-05
3.71126e-05
3.64261e-05
3.71135e-05
3.711e-05
3.64241e-05
3.64241e-05
3.71126e-05
3.71126e-05
3.64261e-05
3.73701e-05
3.73777e-05
3.73767e-05
3.73043e-05
3.70959e-05
3.71022e-05
3.60296e-05
3.6421e-05
3.71636e-05
3.7111e-05
3.63057e-05
3.71732e-05
3.94122e-05
3.7168e-05
3.67258e-05
3.70959e-05
3.71022e-05
3.6421e-05
3.60301e-05
3.7111e-05
3.71636e-05
3.63056e-05
3.71732e-05
3.94128e-05
3.7168e-05
3.67255e-05
3.73742e-05
3.72959e-05
3.72959e-05
5.31143e-05
3.71933e-05
3.70929e-05
3.72444e-05
3.72446e-05
3.71762e-05
3.71762e-05
5.31145e-05
3.71933e-05
3.73701e-05
3.73777e-05
3.73767e-05
3.73043e-05
3.70959e-05
3.71022e-05
3.6421e-05
3.60301e-05
3.7111e-05
3.71636e-05
3.63057e-05
3.70959e-05
3.71022e-05
3.6421e-05
3.60301e-05
3.7111e-05
3.71636e-05
3.63057e-05
3.71732e-05
3.94127e-05
3.7168e-05
3.67256e-05
3.71732e-05
3.94127e-05
3.7168e-05
3.67258e-05
3.70929e-05
3.72444e-05
3.7245e-05
3.71762e-05
3.71762e-05
5.31143e-05
3.71933e-05
5.31142e-05
3.71932e-05
5.5115e-05
6.48758e-05
5.51167e-05
6.48787e-05
3.65924e-05
3.65933e-05
3.52791e-05
3.40667e-05
3.40656e-05
7.47136e-05
6.76899e-05
7.47174e-05
6.76938e-05
3.4973e-05
3.20487e-05
3.20473e-05
3.34688e-05
3.34692e-05
3.58818e-05
4.0882e-05
3.6603e-05
4.51338e-05
3.52763e-05
3.56334e-05
3.58934e-05
3.53772e-05
3.60473e-05
3.42446e-05
3.53821e-05
3.52763e-05
3.56329e-05
3.58934e-05
3.53771e-05
3.60473e-05
3.42455e-05
3.53821e-05
3.563e-05
5.02038e-05
4.64666e-05
3.4899e-05
3.56304e-05
5.02026e-05
4.64661e-05
3.48994e-05
3.49984e-05
3.48717e-05
3.27417e-05
3.44017e-05
3.38582e-05
3.48845e-05
3.41813e-05
3.49985e-05
3.48717e-05
3.27428e-05
3.44017e-05
3.38571e-05
3.48845e-05
3.41814e-05
3.65925e-05
3.65932e-05
3.52791e-05
3.40668e-05
3.40651e-05
5.51161e-05
6.48777e-05
7.47144e-05
6.76922e-05
3.4973e-05
3.20484e-05
3.20463e-05
3.34685e-05
3.34696e-05
7.47158e-05
6.76921e-05
3.52764e-05
3.56332e-05
3.58934e-05
3.53772e-05
3.60474e-05
3.42446e-05
3.53821e-05
3.58819e-05
4.08832e-05
3.66027e-05
4.51364e-05
3.52764e-05
3.58934e-05
3.56333e-05
3.53771e-05
3.60474e-05
3.53821e-05
3.42446e-05
3.563e-05
5.02035e-05
4.64663e-05
3.48996e-05
3.49984e-05
3.48717e-05
3.27416e-05
3.44017e-05
3.38574e-05
3.48845e-05
3.41815e-05
3.563e-05
5.02052e-05
4.64682e-05
3.48993e-05
3.49984e-05
3.48717e-05
3.44017e-05
3.27413e-05
3.48845e-05
3.38578e-05
3.41813e-05
3.5882e-05
4.08809e-05
3.66029e-05
4.51355e-05
3.52763e-05
3.58934e-05
3.5633e-05
3.53772e-05
3.60473e-05
3.53821e-05
3.42454e-05
3.5882e-05
4.08835e-05
3.66025e-05
4.51356e-05
3.49985e-05
3.48717e-05
3.27407e-05
3.44017e-05
3.38578e-05
3.48845e-05
3.41814e-05
3.56303e-05
5.02029e-05
4.64643e-05
3.48994e-05
3.49984e-05
3.48717e-05
3.44017e-05
3.27427e-05
3.48845e-05
3.38569e-05
3.41813e-05
3.56298e-05
5.0204e-05
4.64683e-05
3.48993e-05
3.65927e-05
3.65923e-05
3.52791e-05
3.40657e-05
3.40662e-05
5.51171e-05
6.48776e-05
7.47181e-05
6.76937e-05
3.4973e-05
3.2047e-05
3.20491e-05
3.34687e-05
3.34687e-05
7.4716e-05
6.76936e-05
3.52765e-05
3.58934e-05
3.5633e-05
3.53771e-05
3.60474e-05
3.53821e-05
3.42452e-05
3.58824e-05
4.08828e-05
3.66026e-05
4.51362e-05
3.58827e-05
4.08819e-05
3.66029e-05
4.51351e-05
3.49983e-05
3.48717e-05
3.44017e-05
3.27426e-05
3.48845e-05
3.38572e-05
3.41814e-05
3.49984e-05
3.48717e-05
3.44017e-05
3.27425e-05
3.48845e-05
3.38567e-05
3.41815e-05
3.56293e-05
5.0205e-05
4.6468e-05
3.48995e-05
3.56296e-05
5.02045e-05
4.6466e-05
3.48998e-05
5.51167e-05
6.48774e-05
5.51167e-05
6.48781e-05
3.49729e-05
3.20488e-05
3.20475e-05
3.34682e-05
3.34684e-05
7.4715e-05
6.7693e-05
7.47166e-05
6.76944e-05
7.65602e-05
8.08469e-05
7.65644e-05
8.08512e-05
3.17205e-05
3.17202e-05
3.32638e-05
3.09293e-05
3.09286e-05
8.39985e-05
8.18637e-05
8.40024e-05
8.18673e-05
3.29554e-05
3.03029e-05
3.03023e-05
3.07547e-05
3.07517e-05
3.39778e-05
5.1369e-05
3.46728e-05
5.46105e-05
3.30571e-05
3.24697e-05
3.39315e-05
3.341e-05
3.38941e-05
3.15862e-05
3.3469e-05
3.30573e-05
3.24681e-05
3.39315e-05
3.34099e-05
3.38941e-05
3.1588e-05
3.3469e-05
3.37719e-05
5.83493e-05
5.56165e-05
3.3093e-05
3.3772e-05
5.83495e-05
5.56157e-05
3.30935e-05
3.27676e-05
3.29337e-05
3.06537e-05
3.25688e-05
3.13898e-05
3.30133e-05
3.19205e-05
3.27677e-05
3.29336e-05
3.06552e-05
3.25688e-05
3.13873e-05
3.30133e-05
3.19208e-05
3.17198e-05
3.17214e-05
3.32638e-05
3.09296e-05
3.09264e-05
7.65622e-05
8.08485e-05
8.39996e-05
8.18657e-05
3.29554e-05
3.03031e-05
3.03001e-05
3.07519e-05
3.07559e-05
8.4e-05
8.18655e-05
3.30575e-05
3.24688e-05
3.39315e-05
3.341e-05
3.3894e-05
3.1587e-05
3.3469e-05
3.39788e-05
5.13715e-05
3.46727e-05
5.46134e-05
3.30573e-05
3.39315e-05
3.24696e-05
3.34099e-05
3.38939e-05
3.3469e-05
3.15856e-05
3.37703e-05
5.83502e-05
5.56181e-05
3.30958e-05
3.27674e-05
3.29337e-05
3.06539e-05
3.25688e-05
3.13878e-05
3.30133e-05
3.1921e-05
3.37702e-05
5.83524e-05
5.56186e-05
3.30953e-05
3.27673e-05
3.29336e-05
3.25688e-05
3.0653e-05
3.30133e-05
3.13896e-05
3.19207e-05
3.39782e-05
5.13684e-05
3.46727e-05
5.46103e-05
3.30572e-05
3.39315e-05
3.24684e-05
3.341e-05
3.38941e-05
3.3469e-05
3.15884e-05
3.39774e-05
5.1371e-05
3.46728e-05
5.46118e-05
3.27677e-05
3.29338e-05
3.06528e-05
3.25688e-05
3.13894e-05
3.30133e-05
3.19208e-05
3.37715e-05
5.83495e-05
5.56154e-05
3.30936e-05
3.27676e-05
3.29337e-05
3.25688e-05
3.06554e-05
3.30133e-05
3.13876e-05
3.19206e-05
3.37713e-05
5.83513e-05
5.56177e-05
3.30933e-05
3.17208e-05
3.17201e-05
3.32638e-05
3.09276e-05
3.09297e-05
7.65636e-05
8.08489e-05
8.40025e-05
8.18682e-05
3.29554e-05
3.03015e-05
3.03036e-05
3.07547e-05
3.07537e-05
8.40003e-05
8.18666e-05
3.30575e-05
3.39315e-05
3.24677e-05
3.341e-05
3.3894e-05
3.3469e-05
3.15879e-05
3.39789e-05
5.1371e-05
3.46726e-05
5.46128e-05
3.39788e-05
5.13696e-05
3.46728e-05
5.46119e-05
3.27673e-05
3.29338e-05
3.25688e-05
3.06551e-05
3.30133e-05
3.13876e-05
3.19209e-05
3.27674e-05
3.29337e-05
3.25688e-05
3.0655e-05
3.30133e-05
3.13872e-05
3.19211e-05
3.377e-05
5.83515e-05
5.56179e-05
3.30955e-05
3.37705e-05
5.83511e-05
5.56172e-05
3.30959e-05
7.65635e-05
8.08488e-05
7.65652e-05
8.08504e-05
3.29554e-05
3.03041e-05
3.03027e-05
3.07525e-05
3.07517e-05
8.40005e-05
8.18666e-05
8.40018e-05
8.18681e-05
8.44079e-05
8.50674e-05
8.44101e-05
8.50697e-05
3.02194e-05
3.02156e-05
3.12726e-05
2.99923e-05
2.99925e-05
8.4825e-05
8.50778e-05
8.48268e-05
8.50793e-05
3.09645e-05
2.99351e-05
2.99333e-05
2.99595e-05
2.99586e-05
3.22541e-05
5.91865e-05
3.29161e-05
6.14177e-05
3.07878e-05
3.051e-05
3.21379e-05
3.15587e-05
3.16359e-05
2.98836e-05
3.17162e-05
3.07881e-05
3.05079e-05
3.21379e-05
3.15585e-05
3.16361e-05
2.98847e-05
3.17162e-05
3.20938e-05
6.38594e-05
6.20831e-05
3.14936e-05
3.2094e-05
6.38607e-05
6.20826e-05
3.14941e-05
3.05084e-05
3.11123e-05
2.9254e-05
3.0874e-05
2.97619e-05
3.12959e-05
2.96864e-05
3.05086e-05
3.11122e-05
2.92541e-05
3.0874e-05
2.97604e-05
3.12959e-05
2.96867e-05
3.02161e-05
3.02191e-05
3.12727e-05
2.99931e-05
2.99901e-05
8.44086e-05
8.50683e-05
8.48247e-05
8.50779e-05
3.09645e-05
2.99338e-05
2.99336e-05
2.99593e-05
2.99573e-05
8.48255e-05
8.50782e-05
3.07882e-05
3.05085e-05
3.21379e-05
3.15587e-05
3.16357e-05
2.98836e-05
3.17162e-05
3.22563e-05
5.91893e-05
3.29132e-05
6.14205e-05
3.0788e-05
3.21379e-05
3.05093e-05
3.15585e-05
3.16355e-05
3.17162e-05
2.98829e-05
3.20913e-05
6.38619e-05
6.20851e-05
3.14961e-05
3.05082e-05
3.11124e-05
2.9254e-05
3.0874e-05
2.97609e-05
3.12959e-05
2.96867e-05
3.20911e-05
6.38635e-05
6.20852e-05
3.14956e-05
3.0508e-05
3.11121e-05
3.08739e-05
2.92535e-05
3.12959e-05
2.97614e-05
2.96864e-05
3.22541e-05
5.91863e-05
3.29162e-05
6.14178e-05
3.07879e-05
3.21379e-05
3.05081e-05
3.15586e-05
3.16359e-05
3.17162e-05
2.98849e-05
3.22537e-05
5.91883e-05
3.29159e-05
6.14192e-05
3.05086e-05
3.11125e-05
2.92534e-05
3.08741e-05
2.97611e-05
3.12959e-05
2.96866e-05
3.2094e-05
6.38611e-05
6.20825e-05
3.14941e-05
3.05084e-05
3.11123e-05
3.0874e-05
2.92541e-05
3.12959e-05
2.97605e-05
2.96864e-05
3.20937e-05
6.3862e-05
6.20842e-05
3.14937e-05
3.02183e-05
3.02176e-05
3.12726e-05
2.9991e-05
2.99939e-05
8.44095e-05
8.50684e-05
8.48268e-05
8.50798e-05
3.09644e-05
2.99342e-05
2.99349e-05
2.99579e-05
2.99599e-05
8.48251e-05
8.50785e-05
3.07883e-05
3.21379e-05
3.05076e-05
3.15587e-05
3.16357e-05
3.17162e-05
2.98844e-05
3.22565e-05
5.91884e-05
3.29131e-05
6.14194e-05
3.22569e-05
5.91882e-05
3.29135e-05
6.14194e-05
3.05081e-05
3.11125e-05
3.0874e-05
2.92542e-05
3.12959e-05
2.97606e-05
2.96865e-05
3.05083e-05
3.11124e-05
3.0874e-05
2.92537e-05
3.12959e-05
2.97601e-05
2.96867e-05
3.2091e-05
6.38623e-05
6.20843e-05
3.14957e-05
3.20913e-05
6.38625e-05
6.20844e-05
3.14961e-05
8.44097e-05
8.50686e-05
8.44108e-05
8.50695e-05
3.09644e-05
2.99345e-05
2.99333e-05
2.99599e-05
2.99587e-05
8.48254e-05
8.50788e-05
8.48257e-05
8.50794e-05
8.46353e-05
8.3886e-05
8.46353e-05
8.38867e-05
2.99422e-05
2.99411e-05
2.9338e-05
3.00322e-05
3.00314e-05
8.26124e-05
8.35643e-05
8.26127e-05
8.35642e-05
2.90399e-05
3.03239e-05
3.0323e-05
3.01079e-05
3.01059e-05
3.07831e-05
6.4362e-05
3.13271e-05
6.57185e-05
2.86112e-05
2.9138e-05
3.04571e-05
2.97864e-05
2.9403e-05
2.86819e-05
3.00557e-05
2.86114e-05
2.91365e-05
3.04571e-05
2.97863e-05
2.94032e-05
2.8683e-05
3.00557e-05
3.06584e-05
6.70508e-05
6.61006e-05
3.00907e-05
3.06587e-05
6.70523e-05
6.61006e-05
3.00911e-05
2.83493e-05
2.93754e-05
2.81749e-05
2.93075e-05
2.86062e-05
2.96745e-05
2.75577e-05
2.83495e-05
2.93752e-05
2.81749e-05
2.93074e-05
2.86069e-05
2.96745e-05
2.75579e-05
2.99416e-05
2.99409e-05
2.93381e-05
3.00319e-05
3.00305e-05
8.46352e-05
8.38858e-05
8.26115e-05
8.35643e-05
2.90399e-05
3.03238e-05
3.03184e-05
3.01068e-05
3.01071e-05
8.26124e-05
8.35643e-05
2.86116e-05
2.91365e-05
3.04571e-05
2.97866e-05
2.94028e-05
2.86825e-05
3.00557e-05
3.07851e-05
6.43646e-05
3.13243e-05
6.57205e-05
2.86113e-05
3.0457e-05
2.91378e-05
2.97862e-05
2.94026e-05
3.00556e-05
2.86806e-05
3.06566e-05
6.70541e-05
6.61029e-05
3.00929e-05
2.83492e-05
2.93756e-05
2.8174e-05
2.93074e-05
2.86065e-05
2.96745e-05
2.75578e-05
3.06563e-05
6.7054e-05
6.61027e-05
3.00924e-05
2.8349e-05
2.93751e-05
2.93073e-05
2.81739e-05
2.96744e-05
2.86052e-05
2.75576e-05
3.0783e-05
6.43622e-05
3.13271e-05
6.57188e-05
2.86112e-05
3.04571e-05
2.91365e-05
2.97864e-05
2.9403e-05
3.00557e-05
2.86829e-05
3.07826e-05
6.43632e-05
3.13267e-05
6.57194e-05
2.83495e-05
2.93757e-05
2.81737e-05
2.93076e-05
2.86051e-05
2.96746e-05
2.75579e-05
3.06586e-05
6.70526e-05
6.61009e-05
3.00911e-05
2.83492e-05
2.93753e-05
2.93074e-05
2.81747e-05
2.96745e-05
2.86069e-05
2.75576e-05
3.06582e-05
6.70528e-05
6.61014e-05
3.00907e-05
2.99414e-05
2.99425e-05
2.93379e-05
3.00314e-05
3.00326e-05
8.46355e-05
8.38856e-05
8.26126e-05
8.35649e-05
2.90398e-05
3.0321e-05
3.03247e-05
3.01078e-05
3.01075e-05
8.2612e-05
8.35649e-05
2.86116e-05
3.04571e-05
2.91361e-05
2.97866e-05
2.94028e-05
3.00557e-05
2.86826e-05
3.07853e-05
6.43635e-05
3.13242e-05
6.57197e-05
3.07857e-05
6.43639e-05
3.13246e-05
6.57204e-05
2.8349e-05
2.93756e-05
2.93075e-05
2.81749e-05
2.96745e-05
2.86069e-05
2.75577e-05
2.83492e-05
2.93755e-05
2.93074e-05
2.81745e-05
2.96745e-05
2.86066e-05
2.75579e-05
3.06562e-05
6.70532e-05
6.61017e-05
3.00925e-05
3.06566e-05
6.70541e-05
6.61025e-05
3.00929e-05
8.46357e-05
8.38858e-05
8.4636e-05
8.38857e-05
2.90398e-05
3.03241e-05
3.03232e-05
3.01073e-05
3.01063e-05
8.26122e-05
8.3565e-05
8.26117e-05
8.35649e-05
8.22796e-05
8.11828e-05
8.2279e-05
8.11826e-05
3.04498e-05
3.045e-05
2.75421e-05
3.07825e-05
3.07811e-05
7.98466e-05
8.07941e-05
7.9846e-05
8.07929e-05
2.72615e-05
3.12939e-05
3.12933e-05
3.09291e-05
3.09284e-05
2.95022e-05
6.73269e-05
2.99784e-05
6.80293e-05
2.65825e-05
2.80997e-05
2.89384e-05
2.81811e-05
2.73067e-05
2.78137e-05
2.85498e-05
2.65827e-05
2.81e-05
2.89383e-05
2.81809e-05
2.73069e-05
2.78139e-05
2.85498e-05
2.94087e-05
6.85937e-05
6.82161e-05
2.90738e-05
2.9409e-05
6.85954e-05
6.82175e-05
2.9074e-05
2.63553e-05
2.77423e-05
2.73412e-05
2.77122e-05
2.77662e-05
2.81359e-05
2.56197e-05
2.63555e-05
2.77421e-05
2.7341e-05
2.77122e-05
2.77662e-05
2.81359e-05
2.56199e-05
3.04499e-05
3.0451e-05
2.75423e-05
3.07818e-05
3.07779e-05
8.22794e-05
8.11827e-05
7.98456e-05
8.07931e-05
2.72616e-05
3.12932e-05
3.12915e-05
3.09284e-05
3.09302e-05
7.98465e-05
8.07935e-05
2.65826e-05
2.81004e-05
2.89383e-05
2.81813e-05
2.73068e-05
2.78131e-05
2.85498e-05
2.95022e-05
6.73285e-05
2.99778e-05
6.80301e-05
2.65824e-05
2.89382e-05
2.81009e-05
2.81807e-05
2.73065e-05
2.85497e-05
2.78119e-05
2.94084e-05
6.8597e-05
6.82192e-05
2.90724e-05
2.63553e-05
2.77426e-05
2.7341e-05
2.77122e-05
2.77655e-05
2.81359e-05
2.56195e-05
2.94081e-05
6.85956e-05
6.82184e-05
2.90721e-05
2.63551e-05
2.77419e-05
2.77121e-05
2.73417e-05
2.81358e-05
2.77648e-05
2.56193e-05
2.95021e-05
6.73273e-05
2.99783e-05
6.80294e-05
2.65824e-05
2.89383e-05
2.80997e-05
2.8181e-05
2.73067e-05
2.85498e-05
2.78136e-05
2.95018e-05
6.73273e-05
2.99779e-05
6.80292e-05
2.63554e-05
2.77428e-05
2.73413e-05
2.77124e-05
2.77645e-05
2.8136e-05
2.56198e-05
2.94089e-05
6.85955e-05
6.82178e-05
2.90739e-05
2.63553e-05
2.77422e-05
2.77122e-05
2.73406e-05
2.81359e-05
2.77659e-05
2.56196e-05
2.94085e-05
6.85948e-05
6.82173e-05
2.90735e-05
3.04512e-05
3.04509e-05
2.75419e-05
3.07807e-05
3.07826e-05
8.22799e-05
8.11825e-05
7.98463e-05
8.07933e-05
2.72614e-05
3.12939e-05
3.12943e-05
3.09309e-05
3.09291e-05
7.98465e-05
8.07939e-05
2.65827e-05
2.89383e-05
2.80996e-05
2.81813e-05
2.73068e-05
2.85498e-05
2.78136e-05
2.95022e-05
6.73276e-05
2.99779e-05
6.80296e-05
2.95025e-05
6.73287e-05
2.99783e-05
6.80309e-05
2.63552e-05
2.77427e-05
2.77122e-05
2.73407e-05
2.81359e-05
2.7766e-05
2.56194e-05
2.63554e-05
2.77425e-05
2.77122e-05
2.73406e-05
2.81359e-05
2.77659e-05
2.56196e-05
2.94082e-05
6.85953e-05
6.82178e-05
2.90719e-05
2.94085e-05
6.85969e-05
6.82191e-05
2.90723e-05
8.228e-05
8.11826e-05
8.22795e-05
8.11818e-05
2.72614e-05
3.12939e-05
3.12937e-05
3.09289e-05
3.09286e-05
7.98465e-05
8.0794e-05
7.98457e-05
8.07932e-05
7.96392e-05
7.94015e-05
7.96382e-05
7.94009e-05
3.14186e-05
3.14185e-05
2.57592e-05
3.16349e-05
3.1635e-05
7.94825e-05
7.93985e-05
7.94831e-05
7.93977e-05
2.55813e-05
3.27647e-05
3.27644e-05
3.18387e-05
3.18391e-05
2.82056e-05
6.86556e-05
2.88288e-05
6.88479e-05
2.46334e-05
2.71775e-05
2.73129e-05
2.65104e-05
2.53393e-05
2.6885e-05
2.69746e-05
2.46335e-05
2.71775e-05
2.73129e-05
2.65101e-05
2.53395e-05
2.68854e-05
2.69745e-05
2.81473e-05
6.93499e-05
6.89555e-05
2.81462e-05
2.81475e-05
6.93519e-05
6.89575e-05
2.81465e-05
2.44884e-05
2.62577e-05
2.69807e-05
2.65459e-05
2.68844e-05
2.67186e-05
2.43302e-05
2.44885e-05
2.62574e-05
2.69812e-05
2.65458e-05
2.68848e-05
2.67186e-05
2.43302e-05
3.14186e-05
3.14185e-05
2.57594e-05
3.16349e-05
3.16333e-05
7.96389e-05
7.94008e-05
7.9482e-05
7.93978e-05
2.55814e-05
3.27651e-05
3.27621e-05
3.18393e-05
3.18372e-05
7.94789e-05
7.93978e-05
2.46334e-05
2.71782e-05
2.73129e-05
2.65107e-05
2.53391e-05
2.68847e-05
2.69745e-05
2.8206e-05
6.86562e-05
2.88258e-05
6.88478e-05
2.46332e-05
2.73128e-05
2.71796e-05
2.651e-05
2.53389e-05
2.69744e-05
2.68842e-05
2.81469e-05
6.93527e-05
6.89585e-05
2.81458e-05
2.44882e-05
2.62579e-05
2.69806e-05
2.65458e-05
2.68842e-05
2.67186e-05
2.43299e-05
2.81466e-05
6.93513e-05
6.89579e-05
2.81457e-05
2.4488e-05
2.62572e-05
2.65457e-05
2.69803e-05
2.67184e-05
2.6884e-05
2.43298e-05
2.82055e-05
6.86561e-05
2.88288e-05
6.88478e-05
2.46333e-05
2.73129e-05
2.7177e-05
2.65103e-05
2.53392e-05
2.69745e-05
2.68848e-05
2.82052e-05
6.8655e-05
2.88283e-05
6.88469e-05
2.44884e-05
2.62582e-05
2.69794e-05
2.6546e-05
2.68836e-05
2.67186e-05
2.43302e-05
2.81473e-05
6.93515e-05
6.8958e-05
2.81463e-05
2.44883e-05
2.62576e-05
2.65458e-05
2.69806e-05
2.67186e-05
2.68843e-05
2.433e-05
2.81471e-05
6.93505e-05
6.89564e-05
2.81461e-05
3.14202e-05
3.14192e-05
2.5759e-05
3.16353e-05
3.16357e-05
7.96392e-05
7.94015e-05
7.94789e-05
7.93977e-05
2.55811e-05
3.27646e-05
3.27653e-05
3.18395e-05
3.18396e-05
7.94825e-05
7.93985e-05
2.46334e-05
2.73129e-05
2.7177e-05
2.65107e-05
2.53391e-05
2.69745e-05
2.68849e-05
2.8206e-05
6.86554e-05
2.88257e-05
6.88474e-05
2.82063e-05
6.86571e-05
2.88261e-05
6.88492e-05
2.44882e-05
2.6258e-05
2.65458e-05
2.69805e-05
2.67185e-05
2.68844e-05
2.433e-05
2.44883e-05
2.62579e-05
2.65458e-05
2.69808e-05
2.67186e-05
2.68844e-05
2.43301e-05
2.81466e-05
6.93509e-05
6.89568e-05
2.81457e-05
2.81468e-05
6.93529e-05
6.89586e-05
2.81459e-05
7.96392e-05
7.94015e-05
7.96383e-05
7.94007e-05
2.55811e-05
3.2765e-05
3.27656e-05
3.18392e-05
3.18392e-05
7.94825e-05
7.93985e-05
7.94819e-05
7.93977e-05
7.95421e-05
7.96323e-05
7.95413e-05
7.96325e-05
3.30866e-05
3.30874e-05
2.53427e-05
3.37769e-05
3.37781e-05
7.96782e-05
7.96554e-05
7.9678e-05
7.96547e-05
2.5351e-05
3.41587e-05
3.41614e-05
3.3938e-05
3.394e-05
2.83626e-05
6.94818e-05
2.81908e-05
6.97324e-05
2.43915e-05
2.71835e-05
2.64414e-05
2.60098e-05
2.43297e-05
2.76788e-05
2.63847e-05
2.43915e-05
2.7184e-05
2.64413e-05
2.60096e-05
2.43298e-05
2.76795e-05
2.63846e-05
2.84282e-05
6.98486e-05
6.97858e-05
2.85078e-05
2.84283e-05
6.98512e-05
6.97882e-05
2.8508e-05
2.44282e-05
2.60081e-05
2.8018e-05
2.63451e-05
2.78319e-05
2.6357e-05
2.45018e-05
2.44282e-05
2.60079e-05
2.80192e-05
2.63451e-05
2.78328e-05
2.63569e-05
2.45018e-05
3.30874e-05
3.30867e-05
2.53428e-05
3.37778e-05
3.37737e-05
7.95402e-05
7.96286e-05
7.96779e-05
7.96552e-05
2.53511e-05
3.41603e-05
3.4156e-05
3.3939e-05
3.39364e-05
7.96744e-05
7.96528e-05
2.43916e-05
2.71836e-05
2.64413e-05
2.60101e-05
2.43295e-05
2.76792e-05
2.63846e-05
2.83639e-05
6.94817e-05
2.8189e-05
6.97289e-05
2.43915e-05
2.64412e-05
2.71833e-05
2.60094e-05
2.43294e-05
2.63845e-05
2.76788e-05
2.84282e-05
6.98512e-05
6.97889e-05
2.85079e-05
2.44282e-05
2.60084e-05
2.80195e-05
2.63451e-05
2.78331e-05
2.6357e-05
2.45019e-05
2.84279e-05
6.98471e-05
6.97853e-05
2.85077e-05
2.44281e-05
2.60078e-05
2.6345e-05
2.80189e-05
2.63568e-05
2.78335e-05
2.45018e-05
2.83625e-05
6.94818e-05
2.81906e-05
6.97293e-05
2.43913e-05
2.64413e-05
2.71833e-05
2.60097e-05
2.43296e-05
2.63846e-05
2.76786e-05
2.83623e-05
6.94803e-05
2.81905e-05
6.97307e-05
2.4428e-05
2.60086e-05
2.80185e-05
2.63452e-05
2.78328e-05
2.6357e-05
2.45018e-05
2.84282e-05
6.98479e-05
6.97858e-05
2.85079e-05
2.44281e-05
2.6008e-05
2.63451e-05
2.8018e-05
2.6357e-05
2.78317e-05
2.45017e-05
2.84281e-05
6.98494e-05
6.97865e-05
2.85077e-05
3.3089e-05
3.30872e-05
2.53425e-05
3.37763e-05
3.37776e-05
7.95422e-05
7.96324e-05
7.9674e-05
7.96525e-05
2.53508e-05
3.41575e-05
3.41598e-05
3.39384e-05