/*--------------------------------*- C++ -*----------------------------------*\
| =========                 |                                                 |
| \\      /  F ield         | OpenFOAM: The Open Source CFD Toolbox           |
|  \\    /   O peration     | Version:  2206                                  |
|   \\  /    A nd           | Website:  www.openfoam.com                      |
|    \\/     M anipulation  |                                                 |
\*---------------------------------------------------------------------------*/
FoamFile
{
    version     2.0;
    format      ascii;
    arch        "LSB;label=32;scalar=64";
    class       volScalarField;
    location    "27.5";
    object      nut;
}
// * * * * * * * * * * * * * * * * * * * * * * * * * * * * * * * * * * * * * //

dimensions      [0 2 -1 0 0 0 0];

internalField   nonuniform List<scalar> 
28688
(
0.000233973
0.000233115
0.000233115
0.000233423
0.000232533
0.000227802
0.000227801
0.000223868
0.000230501
0.000220297
0.000220294
0.000209116
0.000227746
0.000211592
0.000211587
0.000193805
0.000224622
0.000202965
0.000202959
0.000179926
0.000220122
0.000193265
0.000193258
0.000167154
0.000219102
0.000191791
0.000191783
0.00016466
0.000219776
0.000193419
0.000193411
0.00016723
0.000219948
0.000193784
0.000193776
0.000167734
0.000219958
0.000193808
0.000193801
0.000167767
0.000219959
0.000193813
0.000193806
0.000167774
0.000219959
0.000193816
0.000193808
0.000167772
0.000234265
0.000234448
0.000234449
0.000234265
0.000234448
0.000234449
0.000234273
0.000234273
0.000234273
0.000234273
0.000234448
0.000234448
0.000234265
0.000234448
0.000234448
0.000234265
0.000233423
0.000226201
0.000233115
0.000233113
0.000229357
0.000229352
0.000233423
0.000226202
0.000233113
0.000233113
0.000229355
0.000229351
0.000233115
0.00022936
0.000229356
0.000233423
0.000226199
0.000233113
0.000229359
0.000229354
0.000226199
0.000223869
0.000212208
0.000227798
0.000227793
0.000222313
0.000222307
0.00022387
0.000212212
0.000227796
0.000227791
0.000222313
0.000222304
0.000227797
0.00022232
0.000222312
0.000223868
0.000212205
0.000227796
0.000222317
0.000222312
0.000212206
0.000209118
0.000197047
0.00022029
0.000220284
0.000213907
0.000213901
0.000209119
0.000197052
0.00022029
0.000220281
0.00021391
0.000213897
0.000220288
0.000213917
0.000213904
0.000209114
0.000197043
0.00022029
0.000213913
0.000213909
0.000197044
0.000193808
0.000182894
0.000211579
0.000211574
0.00020507
0.000205065
0.000193811
0.000182901
0.000211584
0.000211569
0.000205078
0.000205059
0.000211577
0.000205085
0.000205067
0.000193804
0.00018289
0.000211583
0.00020508
0.000205077
0.000182891
0.00017993
0.000169883
0.000202949
0.000202944
0.000195365
0.000195361
0.000179934
0.00016989
0.000202958
0.000202938
0.000195378
0.000195354
0.000202947
0.000195385
0.000195363
0.000179926
0.000169879
0.000202957
0.000195378
0.000195376
0.000169878
0.000167158
0.000164834
0.000193245
0.000193239
0.000191342
0.000191335
0.000167163
0.00016484
0.000193257
0.000193232
0.000191354
0.000191328
0.000193242
0.00019136
0.000191339
0.000167153
0.000164828
0.000193256
0.000191352
0.000191354
0.000164827
0.000164666
0.000167305
0.000191773
0.000191766
0.000193125
0.000193119
0.000164671
0.00016731
0.000191784
0.000191759
0.000193137
0.000193111
0.000191769
0.000193143
0.000193121
0.00016466
0.000167298
0.000191785
0.000193135
0.000193137
0.000167298
0.000167235
0.0001679
0.000193403
0.000193398
0.000193739
0.000193734
0.000167238
0.000167904
0.000193416
0.00019339
0.000193753
0.000193726
0.0001934
0.000193757
0.000193737
0.000167228
0.000167892
0.000193417
0.00019375
0.000193754
0.000167897
0.000167738
0.000167945
0.000193767
0.000193763
0.000193787
0.000193784
0.000167741
0.000167949
0.000193781
0.000193754
0.000193802
0.000193775
0.000193765
0.000193806
0.000193786
0.00016773
0.000167937
0.000193782
0.000193799
0.000193803
0.000167942
0.000167772
0.000167951
0.000193789
0.000193785
0.000193793
0.00019379
0.000167774
0.000167953
0.000193803
0.000193776
0.000193808
0.000193782
0.000193787
0.000193812
0.000193793
0.000167764
0.000167942
0.000193804
0.000193805
0.00019381
0.000167947
0.000167779
0.00016795
0.000193795
0.000193792
0.000193797
0.000193794
0.000167781
0.000167953
0.00019381
0.000193783
0.000193812
0.000193785
0.000193794
0.000193815
0.000193796
0.000167771
0.000167942
0.000193811
0.000193808
0.000193813
0.000167947
0.000167778
0.000167955
0.000193799
0.000193795
0.0001938
0.000167779
0.000193813
0.000193787
0.000193815
0.000193788
0.000193798
0.000193799
0.000167769
0.000167946
0.000193815
0.00019381
0.000193816
0.000167952
0.00023473
0.000234746
0.000234729
0.000234729
0.000235117
0.000234798
0.000234701
0.000234727
0.000235117
0.000234798
0.000234727
0.000234701
0.000234866
0.000233566
0.000233566
0.000104577
3.87461e-05
0.000129179
3.98199e-05
2.16835e-05
2.2828e-05
0.000104565
3.87422e-05
0.000129179
3.98164e-05
0.000233973
0.000233973
0.000233973
0.000232932
0.000232932
0.000232931
0.000232932
0.000206142
9.36497e-05
0.000233969
0.000231996
0.000222651
8.72421e-05
0.000233613
2.16824e-05
2.28272e-05
0.000206133
0.000233969
9.36498e-05
0.000231996
0.000222661
0.000233612
8.72473e-05
4.77906e-05
4.77784e-05
0.000231345
4.40161e-05
4.40067e-05
7.25785e-05
4.24407e-05
8.139e-05
4.37574e-05
2.47778e-05
2.54614e-05
7.2561e-05
4.24372e-05
8.13911e-05
4.37536e-05
0.000232533
0.000232533
0.000232533
0.00023107
0.00023107
0.000231069
0.000231069
0.000167535
7.94106e-05
0.000232079
0.000226106
0.000180181
7.45552e-05
0.000231382
2.47762e-05
2.54597e-05
0.000167527
0.000232079
7.94031e-05
0.000226105
0.000180179
0.000231381
7.45614e-05
3.91726e-05
3.9162e-05
0.000219591
3.65908e-05
3.65802e-05
5.62813e-05
4.55531e-05
6.1155e-05
4.64038e-05
2.60161e-05
2.61172e-05
5.62857e-05
4.55506e-05
6.1157e-05
4.64008e-05
0.000230501
0.0002305
0.0002305
0.000228555
0.000228555
0.000228554
0.000228554
0.000138571
6.74076e-05
0.000228626
0.000218245
0.000148088
6.35047e-05
0.000227539
2.60139e-05
2.61151e-05
0.000138565
0.000228625
6.73989e-05
0.000218242
0.00014808
0.000227537
6.35056e-05
3.3215e-05
3.32066e-05
0.000204592
3.19832e-05
3.19743e-05
4.71344e-05
4.75038e-05
4.98002e-05
4.80002e-05
2.60507e-05
2.59353e-05
4.714e-05
4.75005e-05
4.97951e-05
4.79974e-05
0.000227747
0.000227745
0.000227746
0.000225449
0.000225449
0.000225447
0.000225448
0.000117675
5.81921e-05
0.000223689
0.000209295
0.000124491
5.55084e-05
0.000222227
2.60484e-05
2.5933e-05
0.000117674
0.000223688
5.81848e-05
0.00020929
0.000124482
0.000222224
5.55107e-05
3.06377e-05
3.06298e-05
0.000189669
3.0278e-05
3.02704e-05
4.15795e-05
4.85848e-05
4.32595e-05
4.8837e-05
2.56854e-05
2.55143e-05
4.15759e-05
4.85814e-05
4.32627e-05
4.88339e-05
0.000224622
0.00022462
0.000224621
0.000221169
0.00022117
0.000221166
0.000221168
0.000102405
5.18998e-05
0.000218
0.000200592
0.00010732
5.0135e-05
0.000216366
2.5683e-05
2.55121e-05
0.000102401
0.000217998
5.18958e-05
0.000200586
0.000107315
0.000216362
5.01298e-05
3.02498e-05
3.02428e-05
0.000176423
3.03182e-05
3.0311e-05
3.91603e-05
4.90641e-05
3.91618e-05
4.91294e-05
2.52672e-05
2.52264e-05
3.9156e-05
4.9061e-05
3.91543e-05
4.91262e-05
0.000220123
0.000220119
0.000220121
0.000218972
0.000218973
0.000218969
0.000218971
9.23766e-05
4.77883e-05
0.000210722
0.000191897
9.42332e-05
4.7729e-05
0.000209497
2.52649e-05
2.52243e-05
9.23744e-05
0.000210719
4.77778e-05
0.00019189
9.42263e-05
0.000209493
4.77319e-05
3.11973e-05
3.11909e-05
0.00016523
3.17971e-05
3.17907e-05
4.15556e-05
4.93525e-05
4.09707e-05
4.94439e-05
2.52477e-05
2.52626e-05
4.15628e-05
4.93492e-05
4.0971e-05
4.94404e-05
0.000219102
0.000219098
0.0002191
0.000219659
0.000219659
0.000219655
0.000219657
9.50558e-05
4.89138e-05
0.000208845
0.000192355
9.40549e-05
5.01836e-05
0.000209093
2.52454e-05
2.52598e-05
9.50582e-05
0.000208842
4.89149e-05
0.000192347
9.40539e-05
0.00020909
5.01838e-05
3.39257e-05
3.39198e-05
0.00016608
3.47989e-05
3.47933e-05
4.19733e-05
4.94932e-05
4.19377e-05
4.94951e-05
2.5271e-05
2.52715e-05
4.19806e-05
4.94899e-05
4.19412e-05
4.94919e-05
0.000219778
0.000219774
0.000219776
0.000219934
0.000219933
0.00021993
0.000219932
9.60426e-05
5.10388e-05
0.000209701
0.0001936
9.58908e-05
5.11599e-05
0.0002098
2.52684e-05
2.52687e-05
9.60456e-05
0.000209698
5.10374e-05
0.000193593
9.58922e-05
0.000209797
5.11635e-05
3.53131e-05
3.5308e-05
0.000167753
3.53823e-05
3.5377e-05
4.19837e-05
4.94964e-05
4.19744e-05
4.94957e-05
2.52717e-05
2.52717e-05
4.19898e-05
4.94931e-05
4.19811e-05
4.94924e-05
0.000219948
0.000219945
0.000219947
0.000219958
0.000219956
0.000219952
0.000219955
9.61063e-05
5.11679e-05
0.000209905
0.000193798
9.60731e-05
5.11863e-05
0.000209912
2.5269e-05
2.52689e-05
9.61092e-05
0.000209903
5.11714e-05
0.000193791
9.60756e-05
0.000209909
5.11891e-05
3.53942e-05
3.53892e-05
0.000167939
3.53971e-05
3.5392e-05
4.19866e-05
4.94965e-05
4.19793e-05
4.94956e-05
2.52717e-05
2.52717e-05
4.19929e-05
4.94932e-05
4.19861e-05
4.94924e-05
0.000219957
0.000219954
0.000219956
0.000219959
0.000219959
0.000219955
0.000219958
9.61163e-05
5.11764e-05
0.000209916
0.00019381
9.60879e-05
5.11909e-05
0.000209917
2.5269e-05
2.52689e-05
9.61186e-05
0.000209914
5.11798e-05
0.000193803
9.60905e-05
0.000209915
5.11938e-05
3.5396e-05
3.53909e-05
0.000167941
3.53983e-05
3.53932e-05
4.19871e-05
4.94965e-05
4.19804e-05
4.94959e-05
2.52718e-05
2.52717e-05
4.19936e-05
4.9493e-05
4.19874e-05
4.94922e-05
0.00021996
0.000219956
0.000219959
0.000219959
0.00021996
0.000219956
0.000219959
9.61209e-05
5.1178e-05
0.00020992
0.000193814
9.60956e-05
5.11916e-05
0.000209921
2.5269e-05
2.52689e-05
9.6124e-05
0.000209918
5.11815e-05
0.000193807
9.60983e-05
0.000209919
5.11946e-05
3.53965e-05
3.53915e-05
0.00016795
3.53986e-05
3.53935e-05
4.19871e-05
4.94967e-05
4.19805e-05
4.9496e-05
2.52718e-05
2.52717e-05
4.19936e-05
4.94929e-05
4.19875e-05
4.94922e-05
0.00021996
0.000219956
0.000219959
0.00021996
0.000219962
0.000219957
0.00021996
9.61186e-05
5.11781e-05
0.000209921
0.000193816
9.60933e-05
5.11917e-05
0.000209922
2.5269e-05
2.52689e-05
9.61232e-05
0.000209919
5.11816e-05
0.000193809
9.60973e-05
0.000209919
5.11946e-05
3.53966e-05
3.53915e-05
0.000167949
3.53986e-05
3.53936e-05
0.000234866
0.000233564
0.000233566
2.32575e-05
0.000214159
2.32564e-05
0.000214162
0.000234436
5.13462e-05
5.1328e-05
0.00022999
0.000229991
0.000235117
0.000234798
0.000234701
0.000234727
0.000235117
0.000234798
0.000234701
0.000234727
0.000234477
4.02625e-05
0.000218814
0.00014775
0.000234477
4.02619e-05
0.000218814
0.000147757
0.000233889
0.000234475
0.000100126
0.00023427
0.000233359
0.000234596
0.000228476
0.000233889
0.000234475
0.000100115
0.00023427
0.000233359
0.000234596
0.000228475
0.000234866
0.000233565
0.000233566
2.32572e-05
0.000214167
0.000234436
5.13386e-05
5.13327e-05
0.000229989
0.000229991
2.32571e-05
0.000214169
0.000235117
0.000234798
0.000234701
0.000234727
0.000235117
0.000234798
0.000234727
0.000234701
0.000234477
4.02593e-05
0.000218815
0.000147725
0.000233889
0.000234474
0.000100103
0.00023427
0.000233359
0.000234596
0.000228472
0.000234477
4.02588e-05
0.000218816
0.00014774
0.000233889
0.000234475
0.00023427
0.000100112
0.000234596
0.000233359
0.000228474
0.00023473
0.000234746
0.000234729
0.000234729
0.00023473
0.000234746
0.000234729
0.000234729
0.00023473
0.000234746
0.000234729
0.000234729
0.000234591
0.000234573
0.000234252
0.000234252
0.000234592
0.000234592
0.000234253
0.000234591
0.000234573
0.000234252
0.000234252
0.000234592
0.000234592
0.000234253
0.000234591
0.000234573
0.000234252
0.000234252
0.000234592
0.000234592
0.000234253
0.000234591
0.000234573
0.000234252
0.000234252
0.000234592
0.000234592
0.000234253
0.000235117
0.000234798
0.000234727
0.000234701
0.000233889
0.000234475
0.000100107
0.00023427
0.000233359
0.000234596
0.000228473
0.000234477
4.026e-05
0.000218817
0.000147742
0.000233889
0.000234475
0.00023427
0.000100121
0.000234596
0.000233359
0.000228475
0.000234477
4.02595e-05
0.000218816
0.000147749
0.000234866
0.000233566
0.000233566
2.32565e-05
0.000214163
0.000234436
5.13316e-05
5.13355e-05
0.000229991
0.000229993
2.32568e-05
0.000214171
0.000235117
0.000234798
0.000234727
0.000234701
0.000233889
0.000234475
0.00023427
0.000100115
0.000234596
0.00023336
0.000228473
0.000233889
0.000234475
0.00023427
0.000100105
0.000234596
0.000233359
0.000228472
0.000234477
4.02591e-05
0.000218818
0.000147726
0.000234477
4.02589e-05
0.000218813
0.000147712
0.000234436
5.13389e-05
5.13266e-05
0.000229992
0.000229992
2.32569e-05
0.00021417
2.32564e-05
0.000214164
2.16838e-05
2.28291e-05
2.16825e-05
2.28275e-05
4.77919e-05
4.77802e-05
0.000231345
4.40217e-05
4.40059e-05
2.44786e-05
2.33082e-05
2.4477e-05
2.33069e-05
0.000229668
4.00855e-05
4.00705e-05
4.31019e-05
4.3089e-05
0.00010459
3.87452e-05
0.000129166
3.9818e-05
0.000206146
9.36602e-05
0.000233969
0.000231995
0.000222645
8.72495e-05
0.000233612
0.000206148
9.36436e-05
0.000233969
0.000231992
0.000222642
8.72364e-05
0.000233612
9.84537e-05
4.19576e-05
4.03827e-05
8.55251e-05
9.84475e-05
4.1956e-05
4.03816e-05
8.55264e-05
0.000200097
0.000230757
8.08478e-05
0.000232679
8.56553e-05
0.000233189
0.000185612
0.000200097
0.000230753
8.08412e-05
0.000232679
8.5638e-05
0.000233189
0.000185615
4.77829e-05
4.77896e-05
0.000231346
4.40111e-05
4.40154e-05
2.16835e-05
2.28291e-05
2.44777e-05
2.33075e-05
0.000229668
4.00756e-05
4.00756e-05
4.30911e-05
4.30978e-05
2.44788e-05
2.33083e-05
0.000206134
9.36388e-05
0.000233969
0.000231993
0.000222646
8.72298e-05
0.000233612
0.000104568
3.87418e-05
0.000129197
3.98157e-05
0.000206135
0.000233969
9.36424e-05
0.000231991
0.00022265
0.000233612
8.72297e-05
9.84545e-05
4.19538e-05
4.03793e-05
8.55146e-05
0.000200099
0.000230754
8.08343e-05
0.000232679
8.56388e-05
0.000233189
0.000185606
9.84549e-05
4.19529e-05
4.03786e-05
8.55135e-05
0.000200098
0.000230752
0.000232679
8.08291e-05
0.000233189
8.5637e-05
0.000185603
0.000104576
3.87427e-05
0.000129185
3.98186e-05
0.000206142
0.000233969
9.36512e-05
0.000231995
0.000222655
0.000233612
8.72446e-05
0.000104574
3.87432e-05
0.000129205
3.9817e-05
0.0002001
0.000230759
8.08432e-05
0.00023268
8.56532e-05
0.000233189
0.000185612
9.84532e-05
4.1956e-05
4.03804e-05
8.55202e-05
0.0002001
0.000230757
0.000232679
8.08491e-05
0.000233189
8.56498e-05
0.000185611
9.84585e-05
4.19549e-05
4.03807e-05
8.55214e-05
4.77801e-05
4.77886e-05
0.000231344
4.40058e-05
4.40214e-05
2.16829e-05
2.28281e-05
2.44764e-05
2.33061e-05
0.000229668
4.00686e-05
4.00834e-05
4.30892e-05
4.30978e-05
2.44776e-05
2.33075e-05
0.000206131
0.000233969
9.36377e-05
0.000231992
0.000222656
0.000233612
8.72333e-05
0.000104552
3.87423e-05
0.000129215
3.98171e-05
0.000104548
3.87417e-05
0.000129201
3.98161e-05
0.0002001
0.000230759
0.000232679
8.08489e-05
0.000233189
8.5646e-05
0.000185604
0.000200101
0.000230755
0.000232679
8.084e-05
0.000233189
8.56372e-05
0.000185603
9.84707e-05
4.19545e-05
4.03803e-05
8.5512e-05
9.84701e-05
4.19538e-05
4.03789e-05
8.55116e-05
2.16833e-05
2.28281e-05
2.16824e-05
2.28275e-05
0.000229667
4.00834e-05
4.00715e-05
4.31021e-05
4.30876e-05
2.44778e-05
2.33077e-05
2.44769e-05
2.3307e-05
2.47785e-05
2.54625e-05
2.47768e-05
2.54607e-05
3.91754e-05
3.91627e-05
0.000219593
3.65912e-05
3.65806e-05
2.59533e-05
2.56219e-05
2.59518e-05
2.56201e-05
0.000216787
3.38435e-05
3.38265e-05
3.57469e-05
3.5732e-05
7.25806e-05
4.24395e-05
8.13926e-05
4.37562e-05
0.000167534
7.94119e-05
0.000232079
0.000226102
0.000180178
7.45573e-05
0.000231381
0.000167537
7.93942e-05
0.000232079
0.000226096
0.00018018
7.45552e-05
0.000231381
6.96023e-05
4.52297e-05
4.41586e-05
6.33005e-05
6.96052e-05
4.52293e-05
4.41572e-05
6.33032e-05
0.000162848
0.00022427
6.86862e-05
0.000229647
7.31412e-05
0.000230573
0.000151935
0.000162852
0.000224265
6.86865e-05
0.000229646
7.31206e-05
0.000230573
0.000151939
3.91654e-05
3.91743e-05
0.000219595
3.65853e-05
3.65827e-05
2.47787e-05
2.54625e-05
2.59528e-05
2.56211e-05
0.000216788
3.38313e-05
3.38388e-05
3.57349e-05
3.57442e-05
2.59536e-05
2.56219e-05
0.000167529
7.93933e-05
0.000232079
0.000226101
0.000180176
7.45499e-05
0.000231381
7.25596e-05
4.24361e-05
8.13897e-05
4.37526e-05
0.000167527
0.000232078
7.93959e-05
0.000226094
0.000180174
0.000231381
7.45392e-05
6.96141e-05
4.52267e-05
4.41553e-05
6.32925e-05
0.000162844
0.000224269
6.86801e-05
0.000229646
7.31221e-05
0.000230573
0.000151938
6.96132e-05
4.52253e-05
4.41533e-05
6.32903e-05
0.000162841
0.000224262
0.000229645
6.86725e-05
0.000230572
7.3123e-05
0.000151934
7.25731e-05
4.24389e-05
8.13932e-05
4.3756e-05
0.000167532
0.000232079
7.94029e-05
0.0002261
0.000180178
0.000231381
7.45614e-05
7.25763e-05
4.24385e-05
8.13872e-05
4.37545e-05
0.000162851
0.000224275
6.8687e-05
0.000229648
7.31387e-05
0.000230574
0.000151938
6.96075e-05
4.52289e-05
4.41567e-05
6.33004e-05
0.000162849
0.000224269
0.000229646
6.86915e-05
0.000230573
7.31262e-05
0.000151935
6.96053e-05
4.52275e-05
4.41556e-05
6.32986e-05
3.91634e-05
3.91754e-05
0.000219591
3.65762e-05
3.65901e-05
2.4778e-05
2.5461e-05
2.59507e-05
2.5619e-05
0.000216785
3.38309e-05
3.38377e-05
3.57324e-05
3.57428e-05
2.59524e-05
2.56208e-05
0.00016753
0.000232079
7.93928e-05
0.000226099
0.00018018
0.000231381
7.45531e-05
7.25595e-05
4.2438e-05
8.13907e-05
4.37547e-05
7.25655e-05
4.24368e-05
8.13922e-05
4.37535e-05
0.000162843
0.000224274
0.000229646
6.86913e-05
0.000230573
7.31282e-05
0.000151937
0.000162846
0.000224269
0.000229646
6.86839e-05
0.000230573
7.31183e-05
0.000151939
6.96141e-05
4.52276e-05
4.41556e-05
6.3291e-05
6.96148e-05
4.52263e-05
4.41543e-05
6.32918e-05
2.47779e-05
2.54608e-05
2.47771e-05
2.54601e-05
0.000216786
3.38368e-05
3.38269e-05
3.57391e-05
3.57304e-05
2.59522e-05
2.56206e-05
2.59515e-05
2.56199e-05
2.60166e-05
2.61178e-05
2.60149e-05
2.61161e-05
3.32176e-05
3.32088e-05
0.000204594
3.19809e-05
3.19752e-05
2.60809e-05
2.61195e-05
2.60789e-05
2.61177e-05
0.00020138
3.08808e-05
3.08697e-05
3.15653e-05
3.15598e-05
5.62839e-05
4.55525e-05
6.1157e-05
4.64036e-05
0.000138569
6.74071e-05
0.000228625
0.000218237
0.000148086
6.3504e-05
0.000227538
0.000138572
6.73943e-05
0.000228625
0.000218232
0.000148089
6.3502e-05
0.000227538
5.47957e-05
4.73177e-05
4.66544e-05
5.0985e-05
5.47976e-05
4.73177e-05
4.66537e-05
5.09871e-05
0.000135387
0.00021613
5.91839e-05
0.000225094
6.23826e-05
0.000226376
0.000127296
0.000135389
0.000216125
5.91768e-05
0.000225093
6.23723e-05
0.000226375
0.000127299
3.32104e-05
3.32172e-05
0.000204599
3.19779e-05
3.19772e-05
2.60168e-05
2.61181e-05
2.608e-05
2.61189e-05
0.000201382
3.08718e-05
3.08798e-05
3.15618e-05
3.15615e-05
2.60809e-05
2.61197e-05
0.000138567
6.73962e-05
0.000228625
0.000218239
0.00014808
6.34964e-05
0.000227537
5.62842e-05
4.55484e-05
6.11563e-05
4.63994e-05
0.000138564
0.000228623
6.73929e-05
0.000218228
0.000148079
0.000227536
6.34909e-05
5.47958e-05
4.73146e-05
4.66514e-05
5.09805e-05
0.000135382
0.000216133
5.91747e-05
0.000225092
6.23704e-05
0.000226375
0.000127293
5.47949e-05
4.73133e-05
4.66494e-05
5.09792e-05
0.000135381
0.00021612
0.000225091
5.91713e-05
0.000226373
6.23694e-05
0.00012729
5.62815e-05
4.5552e-05
6.11544e-05
4.64033e-05
0.000138568
0.000228625
6.73991e-05
0.000218235
0.000148086
0.000227538
6.35063e-05
5.62801e-05
4.55506e-05
6.11528e-05
4.64016e-05
0.000135388
0.00021614
5.91839e-05
0.000225095
6.23827e-05
0.000226377
0.000127297
5.47953e-05
4.73174e-05
4.66533e-05
5.0985e-05
0.000135386
0.000216128
0.000225093
5.91803e-05
0.000226375
6.23764e-05
0.000127295
5.4794e-05
4.73155e-05
4.66517e-05
5.09839e-05
3.32062e-05
3.32173e-05
0.000204591
3.19699e-05
3.19836e-05
2.60157e-05
2.61169e-05
2.60778e-05
2.61167e-05
0.000201376
3.08713e-05
3.08781e-05
3.15534e-05
3.15674e-05
2.60796e-05
2.61185e-05
0.000138568
0.000228624
6.73915e-05
0.000218238
0.000148082
0.000227537
6.34995e-05
5.62849e-05
4.55505e-05
6.11564e-05
4.64013e-05
5.62858e-05
4.55495e-05
6.11573e-05
4.64006e-05
0.000135383
0.000216136
0.000225092
5.91801e-05
0.000226376
6.23762e-05
0.000127292
0.000135384
0.000216132
0.000225092
5.91743e-05
0.000226374
6.23695e-05
0.000127294
5.47952e-05
4.73152e-05
4.66513e-05
5.09798e-05
5.4796e-05
4.73146e-05
4.66507e-05
5.09807e-05
2.60155e-05
2.61167e-05
2.60147e-05
2.61158e-05
0.000201377
3.08772e-05
3.08689e-05
3.15668e-05
3.15583e-05
2.60794e-05
2.61183e-05
2.60785e-05
2.61175e-05
2.60516e-05
2.59363e-05
2.60493e-05
2.59342e-05
3.06338e-05
3.06317e-05
0.000189673
3.02806e-05
3.02705e-05
2.57384e-05
2.58868e-05
2.57359e-05
2.58843e-05
0.000186562
3.02152e-05
3.02073e-05
3.01897e-05
3.01791e-05
4.71362e-05
4.7503e-05
4.98015e-05
4.80003e-05
0.000117674
5.8191e-05
0.000223688
0.000209282
0.00012449
5.55116e-05
0.000222225
0.000117677
5.81812e-05
0.000223687
0.000209277
0.000124492
5.55079e-05
0.000222224
4.62101e-05
4.84855e-05
4.81408e-05
4.37685e-05
4.62113e-05
4.84853e-05
4.81401e-05
4.377e-05
0.000115437
0.000207122
5.24771e-05
0.000219421
5.47484e-05
0.000220796
0.000109222
0.000115439
0.000207117
5.24704e-05
0.00021942
5.47432e-05
0.000220795
0.000109225
3.06326e-05
3.06306e-05
0.000189679
3.02728e-05
3.02842e-05
2.60515e-05
2.59362e-05
2.57371e-05
2.58857e-05
0.000186566
3.02098e-05
3.02045e-05
3.01811e-05
3.01869e-05
2.57381e-05
2.58865e-05
0.000117674
5.81793e-05
0.000223687
0.000209288
0.000124483
5.55047e-05
0.000222224
4.71388e-05
4.74986e-05
4.9794e-05
4.79956e-05
0.000117672
0.000223684
5.81797e-05
0.000209272
0.00012448
0.000222222
5.54969e-05
4.6201e-05
4.84824e-05
4.81374e-05
4.37677e-05
0.000115431
0.000207129
5.24658e-05
0.000219419
5.47402e-05
0.000220795
0.000109217
4.62004e-05
4.84805e-05
4.81354e-05
4.37667e-05
0.00011543
0.000207112
0.000219417
5.24634e-05
0.000220792
5.47318e-05
0.000109215
4.71343e-05
4.75028e-05
4.97995e-05
4.80001e-05
0.000117673
0.000223687
5.81846e-05
0.00020928
0.000124489
0.000222225
5.55111e-05
4.71333e-05
4.75008e-05
4.97984e-05
4.79979e-05
0.000115437
0.000207137
5.2474e-05
0.000219423
5.47434e-05
0.000220797
0.000109223
4.62094e-05
4.84851e-05
4.81398e-05
4.37683e-05
0.000115436
0.00020712
0.00021942
5.2473e-05
0.000220795
5.47463e-05
0.00010922
4.62085e-05
4.84828e-05
4.81377e-05
4.37675e-05
3.06232e-05
3.0639e-05
0.000189669
3.02754e-05
3.02785e-05
2.60503e-05
2.59349e-05
2.57348e-05
2.58833e-05
0.000186558
3.02002e-05
3.02158e-05
3.01789e-05
3.0187e-05
2.57367e-05
2.58853e-05
0.000117676
0.000223686
5.81784e-05
0.000209287
0.000124483
0.000222224
5.55056e-05
4.71394e-05
4.75005e-05
4.97942e-05
4.79977e-05
4.71401e-05
4.75e-05
4.9795e-05
4.79972e-05
0.000115431
0.000207131
0.00021942
5.2473e-05
0.000220795
5.47464e-05
0.000109217
0.000115432
0.000207128
0.00021942
5.24678e-05
0.000220794
5.47405e-05
0.000109219
4.62003e-05
4.84825e-05
4.81374e-05
4.37673e-05
4.6201e-05
4.84821e-05
4.8137e-05
4.37679e-05
2.60501e-05
2.59348e-05
2.60492e-05
2.59338e-05
0.000186559
3.02146e-05
3.02069e-05
3.01863e-05
3.01786e-05
2.57366e-05
2.58851e-05
2.57355e-05
2.58841e-05
2.56866e-05
2.55157e-05
2.5684e-05
2.55132e-05
3.02503e-05
3.02441e-05
0.000176427
3.03191e-05
3.03105e-05
2.53025e-05
2.54544e-05
2.53e-05
2.54517e-05
0.000173566
3.09493e-05
3.09417e-05
3.0402e-05
3.03946e-05
4.15806e-05
4.85843e-05
4.32609e-05
4.88369e-05
0.000102404
5.18987e-05
0.000217998
0.000200575
0.000107319
5.01344e-05
0.000216364
0.000102406
5.18929e-05
0.000217997
0.00020057
0.000107321
5.01282e-05
0.000216363
4.09139e-05
4.90423e-05
4.89047e-05
3.97013e-05
4.0915e-05
4.90422e-05
4.89045e-05
3.9702e-05
0.000100707
0.000197952
4.82177e-05
0.000212468
4.96339e-05
0.000214463
9.59107e-05
0.000100708
0.000197947
4.82113e-05
0.000212467
4.96278e-05
0.000214462
9.59126e-05
3.02444e-05
3.02495e-05
0.000176433
3.03125e-05
3.03172e-05
2.56863e-05
2.55153e-05
2.53012e-05
2.5453e-05
0.00017357
3.09425e-05
3.09472e-05
3.03947e-05
3.0402e-05
2.53022e-05
2.5454e-05
0.0001024
5.18912e-05
0.000217998
0.000200585
0.000107315
5.01255e-05
0.000216362
4.15753e-05
4.85794e-05
4.32619e-05
4.88317e-05
0.000102399
0.000217994
5.18893e-05
0.000200564
0.000107313
0.00021636
5.01259e-05
4.09099e-05
4.90392e-05
4.89015e-05
3.96942e-05
0.000100703
0.000197963
4.82103e-05
0.000212466
4.9624e-05
0.000214462
9.5903e-05
4.09092e-05
4.90368e-05
4.88993e-05
3.96935e-05
0.000100701
0.000197941
0.000212463
4.82131e-05
0.000214458
4.96204e-05
9.59016e-05
4.1579e-05
4.8584e-05
4.32593e-05
4.88366e-05
0.000102403
0.000217998
5.18955e-05
0.000200572
0.000107318
0.000216363
5.01306e-05
4.15784e-05
4.85817e-05
4.32586e-05
4.88341e-05
0.000100707
0.000197971
4.82216e-05
0.000212471
4.96299e-05
0.000214465
9.59104e-05
4.09135e-05
4.90419e-05
4.89043e-05
3.97006e-05
0.000100706
0.00019795
0.000212467
4.82132e-05
0.000214462
4.96301e-05
9.59081e-05
4.09129e-05
4.90393e-05
4.89017e-05
3.96999e-05
3.02411e-05
3.02508e-05
0.000176422
3.03116e-05
3.03187e-05
2.56851e-05
2.55141e-05
2.52989e-05
2.54507e-05
0.000173561
3.09415e-05
3.09493e-05
3.03939e-05
3.0401e-05
2.53009e-05
2.54528e-05
0.000102402
0.000217997
5.18902e-05
0.000200583
0.000107316
0.000216363
5.01262e-05
4.15755e-05
4.85814e-05
4.32625e-05
4.88339e-05
4.1576e-05
4.85811e-05
4.3263e-05
4.88336e-05
0.000100703
0.000197964
0.000212467
4.82126e-05
0.000214462
4.96299e-05
9.59035e-05
0.000100703
0.000197962
0.000212467
4.8209e-05
0.000214462
4.96254e-05
9.59048e-05
4.09095e-05
4.9039e-05
4.89015e-05
3.96935e-05
4.091e-05
4.90389e-05
4.89012e-05
3.96941e-05
2.56849e-05
2.55139e-05
2.56839e-05
2.55128e-05
0.000173562
3.09485e-05
3.09418e-05
3.04003e-05
3.03937e-05
2.53008e-05
2.54526e-05
2.52997e-05
2.54515e-05
2.52687e-05
2.52281e-05
2.52659e-05
2.52254e-05
3.11981e-05
3.11915e-05
0.000165235
3.17979e-05
3.17908e-05
2.52398e-05
2.52274e-05
2.52373e-05
2.52246e-05
0.00016382
3.35512e-05
3.35431e-05
3.21876e-05
3.21812e-05
3.91606e-05
4.9064e-05
3.91623e-05
4.91294e-05
9.23779e-05
4.77821e-05
0.000210719
0.000191878
9.42327e-05
4.77344e-05
0.000209495
9.23784e-05
4.77759e-05
0.000210718
0.000191871
9.42341e-05
4.77298e-05
0.000209493
3.94734e-05
4.93059e-05
4.91669e-05
4.07314e-05
3.94737e-05
4.93059e-05
4.91669e-05
4.0732e-05
9.22344e-05
0.000191298
4.83465e-05
0.00020871
4.78363e-05
0.000208863
9.37356e-05
9.22347e-05
0.00019129
4.83427e-05
0.000208708
4.78315e-05
0.000208861
9.37359e-05
3.11918e-05
3.11973e-05
0.000165241
3.17923e-05
3.17965e-05
2.52681e-05
2.52275e-05
2.52382e-05
2.52257e-05
0.000163823
3.35452e-05
3.35485e-05
3.2183e-05
3.21841e-05
2.52387e-05
2.52268e-05
9.23731e-05
4.77773e-05
0.000210718
0.00019189
9.42253e-05
4.7725e-05
0.000209492
3.91558e-05
4.90587e-05
3.91534e-05
4.91237e-05
9.23724e-05
0.000210714
4.77797e-05
0.000191864
9.42239e-05
0.000209489
4.77207e-05
3.94754e-05
4.93026e-05
4.91637e-05
4.07275e-05
9.22309e-05
0.000191309
4.83392e-05
0.000208707
4.78258e-05
0.000208862
9.37295e-05
3.94753e-05
4.93002e-05
4.91615e-05
4.07274e-05
9.22297e-05
0.000191283
0.000208704
4.83359e-05
0.000208857
4.78196e-05
9.37289e-05
3.91589e-05
4.90638e-05
3.9161e-05
4.9129e-05
9.23757e-05
0.000210718
4.77778e-05
0.000191875
9.4231e-05
0.000209494
4.77315e-05
3.91587e-05
4.9061e-05
3.91603e-05
4.91262e-05
9.22343e-05
0.000191316
4.8343e-05
0.000208711
4.78283e-05
0.000208865
9.37339e-05
3.94719e-05
4.93054e-05
4.91667e-05
4.07305e-05
9.22345e-05
0.000191294
0.000208709
4.83441e-05
0.000208862
4.78332e-05
9.37326e-05
3.94718e-05
4.93027e-05
4.91638e-05
4.07303e-05
3.11907e-05
3.11983e-05
0.00016523
3.17901e-05
3.1798e-05
2.52669e-05
2.52264e-05
2.52355e-05
2.52235e-05
0.000163815
3.35422e-05
3.35506e-05
3.21783e-05
3.2188e-05
2.52381e-05
2.52256e-05
9.2375e-05
0.000210718
4.77736e-05
0.00019189
9.42265e-05
0.000209493
4.77274e-05
3.9156e-05
4.90608e-05
3.91535e-05
4.9126e-05
3.91561e-05
4.90606e-05
3.91541e-05
4.91259e-05
9.22322e-05
0.000191309
0.000208708
4.83436e-05
0.000208862
4.78341e-05
9.37317e-05
9.22313e-05
0.000191309
0.000208708
4.83402e-05
0.000208862
4.78288e-05
9.37326e-05
3.94757e-05
4.93024e-05
4.91635e-05
4.07279e-05
3.94756e-05
4.93024e-05
4.91635e-05
4.07278e-05
2.52667e-05
2.52262e-05
2.52657e-05
2.52251e-05
0.000163816
3.35502e-05
3.3544e-05
3.21871e-05
3.21805e-05
2.52379e-05
2.52254e-05
2.52368e-05
2.52244e-05
2.52494e-05
2.52642e-05
2.52467e-05
2.52616e-05
3.39272e-05
3.39209e-05
0.000166085
3.48001e-05
3.47934e-05
2.52717e-05
2.52679e-05
2.52691e-05
2.52652e-05
0.00016613
3.52638e-05
3.52593e-05
3.49798e-05
3.49751e-05
4.15559e-05
4.93525e-05
4.09719e-05
4.9444e-05
9.50562e-05
4.89181e-05
0.000208843
0.000192338
9.40569e-05
5.01861e-05
0.000209092
9.50565e-05
4.89144e-05
0.000208841
0.000192331
9.40572e-05
5.01829e-05
0.00020909
4.17148e-05
4.94879e-05
4.94644e-05
4.18956e-05
4.17151e-05
4.94881e-05
4.94646e-05
4.18959e-05
9.53054e-05
0.00019281
5.09181e-05
0.00020955
5.0476e-05
0.000209345
9.58352e-05
9.53055e-05
0.000192804
5.09159e-05
0.000209548
5.04729e-05
0.000209342
9.58356e-05
3.39213e-05
3.39223e-05
0.00016609
3.47942e-05
3.47948e-05
2.52486e-05
2.52631e-05
2.52702e-05
2.52664e-05
0.000166133
3.52589e-05
3.52567e-05
3.49741e-05
3.49726e-05
2.52707e-05
2.52671e-05
9.50558e-05
4.89107e-05
0.000208842
0.000192349
9.40535e-05
5.01789e-05
0.00020909
4.1562e-05
4.93469e-05
4.09716e-05
4.94372e-05
9.50549e-05
0.000208837
4.89068e-05
0.000192324
9.40523e-05
0.000209086
5.01752e-05
4.17198e-05
4.94845e-05
4.94611e-05
4.18975e-05
9.53048e-05
0.000192822
5.09127e-05
0.000209548
5.04695e-05
0.000209343
9.58353e-05
4.17192e-05
4.94811e-05
4.94579e-05
4.1897e-05
9.53036e-05
0.000192796
0.000209544
5.09086e-05
0.000209339
5.04652e-05
9.5834e-05
4.15549e-05
4.93522e-05
4.09706e-05
4.94426e-05
9.5054e-05
0.000208842
4.89154e-05
0.000192334
9.40556e-05
0.000209091
5.01833e-05
4.15547e-05
4.93492e-05
4.09704e-05
4.94407e-05
9.53036e-05
0.000192829
5.09165e-05
0.00020955
5.04733e-05
0.000209346
9.58349e-05
4.17142e-05
4.94866e-05
4.94633e-05
4.18952e-05
9.53037e-05
0.000192806
0.000209548
5.09158e-05
0.000209343
5.0473e-05
9.58333e-05
4.1714e-05
4.94847e-05
4.94611e-05
4.18949e-05
3.39154e-05
3.39266e-05
0.000166078
3.47882e-05
3.47994e-05
2.52477e-05
2.52625e-05
2.52674e-05
2.52638e-05
0.000166123
3.5249e-05
3.5264e-05