/*--------------------------------*- C++ -*----------------------------------*\
| =========                 |                                                 |
| \\      /  F ield         | OpenFOAM: The Open Source CFD Toolbox           |
|  \\    /   O peration     | Version:  2206                                  |
|   \\  /    A nd           | Website:  www.openfoam.com                      |
|    \\/     M anipulation  |                                                 |
\*---------------------------------------------------------------------------*/
FoamFile
{
    version     2.0;
    format      ascii;
    arch        "LSB;label=32;scalar=64";
    class       volScalarField;
    location    "27.5";
    object      p;
}
// * * * * * * * * * * * * * * * * * * * * * * * * * * * * * * * * * * * * * //

dimensions      [0 2 -2 0 0 0 0];

internalField   nonuniform List<scalar> 
28688
(
0.00401931
0.00401965
0.00401965
0.0040227
0.00396394
0.00396437
0.00396437
0.00396736
0.00391318
0.00391316
0.00391316
0.00391593
0.00386078
0.00386076
0.00386076
0.00386355
0.00380951
0.00380942
0.00380942
0.00381212
0.00376097
0.00376079
0.00376078
0.00376318
0.00371712
0.00371705
0.00371705
0.00371956
0.00367471
0.00367466
0.00367466
0.00367717
0.00363245
0.00363241
0.00363241
0.0036349
0.00359022
0.00359019
0.00359019
0.00359268
0.003548
0.00354797
0.00354797
0.00355046
0.00350578
0.00350575
0.00350575
0.00350824
0.00403273
0.00403295
0.00403295
0.00403273
0.00403295
0.00403295
0.00403371
0.00403371
0.00403371
0.00403371
0.00403295
0.00403295
0.00403273
0.00403295
0.00403295
0.00403273
0.0040227
0.00397394
0.00401964
0.00401964
0.00397621
0.00397621
0.0040227
0.00397394
0.00401965
0.00401964
0.00397621
0.00397621
0.00401964
0.00397621
0.00397621
0.0040227
0.00397394
0.00401965
0.00397621
0.00397621
0.00397394
0.00396736
0.00392284
0.00396437
0.00396437
0.00392627
0.00392627
0.00396736
0.00392284
0.00396437
0.00396437
0.00392627
0.00392627
0.00396437
0.00392627
0.00392627
0.00396736
0.00392284
0.00396436
0.00392627
0.00392627
0.00392284
0.00391593
0.00387042
0.00391316
0.00391316
0.00387378
0.00387379
0.00391593
0.00387042
0.00391316
0.00391316
0.00387378
0.00387379
0.00391316
0.00387378
0.00387378
0.00391593
0.00387042
0.00391316
0.00387378
0.00387378
0.00387042
0.00386355
0.00381888
0.00386076
0.00386076
0.0038222
0.0038222
0.00386355
0.00381888
0.00386076
0.00386076
0.0038222
0.0038222
0.00386076
0.0038222
0.0038222
0.00386355
0.00381888
0.00386076
0.0038222
0.0038222
0.00381888
0.00381212
0.00376935
0.00380942
0.00380942
0.0037725
0.0037725
0.00381213
0.00376936
0.00380942
0.00380942
0.00377251
0.0037725
0.00380942
0.00377251
0.00377251
0.00381212
0.00376935
0.00380942
0.00377251
0.00377251
0.00376935
0.00376317
0.00372517
0.00376079
0.00376079
0.00372771
0.00372771
0.00376318
0.00372517
0.00376078
0.00376078
0.00372771
0.00372771
0.00376079
0.00372771
0.00372771
0.00376318
0.00372517
0.00376079
0.00372771
0.00372771
0.00372517
0.00371956
0.00368275
0.00371705
0.00371704
0.00368524
0.00368524
0.00371956
0.00368275
0.00371705
0.00371705
0.00368524
0.00368524
0.00371705
0.00368524
0.00368524
0.00371956
0.00368275
0.00371705
0.00368524
0.00368524
0.00368275
0.00367717
0.00364048
0.00367466
0.00367466
0.00364297
0.00364297
0.00367717
0.00364048
0.00367466
0.00367466
0.00364297
0.00364297
0.00367466
0.00364297
0.00364297
0.00367717
0.00364048
0.00367466
0.00364297
0.00364297
0.00364048
0.0036349
0.00359826
0.00363241
0.00363241
0.00360074
0.00360074
0.0036349
0.00359826
0.00363241
0.00363241
0.00360074
0.00360074
0.00363241
0.00360074
0.00360074
0.0036349
0.00359826
0.00363241
0.00360074
0.00360074
0.00359826
0.00359268
0.00355603
0.00359019
0.00359019
0.00355852
0.00355852
0.00359268
0.00355603
0.00359019
0.00359019
0.00355852
0.00355852
0.00359019
0.00355852
0.00355852
0.00359268
0.00355603
0.00359019
0.00355852
0.00355852
0.00355603
0.00355046
0.00351382
0.00354797
0.00354797
0.0035163
0.0035163
0.00355046
0.00351382
0.00354797
0.00354797
0.0035163
0.0035163
0.00354797
0.0035163
0.0035163
0.00355046
0.00351382
0.00354797
0.0035163
0.0035163
0.00351382
0.00350824
0.0034716
0.00350575
0.00350575
0.00347409
0.00350824
0.00350575
0.00350575
0.00347409
0.00347409
0.00350575
0.00347409
0.00350824
0.0034716
0.00350575
0.00347409
0.00347409
0.0034716
0.0040411
0.00405086
0.00404566
0.00404566
0.00406804
0.00405482
0.00408343
0.00404887
0.00406804
0.00405483
0.00404887
0.00408343
0.0040594
0.00408716
0.00408717
0.00399646
0.0040156
0.0040248
0.00398852
0.0039893
0.00399204
0.00399644
0.00401558
0.00402479
0.0039885
0.00401931
0.00401931
0.00401931
0.00397589
0.00397589
0.00397589
0.00397589
0.00399396
0.00401979
0.00401971
0.00400278
0.00402281
0.00399286
0.00400366
0.00398941
0.00399204
0.00399396
0.00401972
0.0040198
0.00400278
0.0040228
0.00400366
0.00399286
0.00402566
0.00402565
0.00399718
0.00399249
0.00399248
0.00394977
0.00396911
0.00397047
0.00394826
0.00396801
0.00394784
0.00394977
0.00396911
0.00397046
0.00394825
0.00396394
0.00396394
0.00396394
0.00392635
0.00392635
0.00392635
0.00392635
0.00394837
0.00396917
0.00396395
0.00395208
0.00396796
0.00394889
0.00395181
0.00396801
0.00394784
0.00394837
0.00396394
0.00396917
0.00395208
0.00396796
0.00395181
0.00394889
0.00397021
0.00397021
0.00394862
0.0039492
0.0039492
0.00389749
0.00391647
0.0039175
0.00389643
0.00391613
0.00389614
0.00389749
0.00391647
0.0039175
0.00389643
0.00391318
0.00391318
0.00391318
0.00387375
0.00387375
0.00387375
0.00387375
0.00389662
0.00391682
0.00391306
0.00390002
0.00391623
0.00389695
0.00389993
0.00391613
0.00389614
0.00389662
0.00391306
0.00391682
0.00390002
0.00391623
0.00389993
0.00389695
0.0039171
0.0039171
0.00389663
0.00389701
0.00389701
0.00384494
0.00386378
0.0038646
0.00384412
0.00386357
0.00384395
0.00384494
0.00386378
0.0038646
0.00384412
0.00386078
0.00386078
0.00386078
0.0038222
0.0038222
0.0038222
0.0038222
0.00384444
0.00386415
0.00386073
0.00384788
0.00386383
0.00384459
0.00384785
0.00386357
0.00384394
0.00384444
0.00386073
0.00386415
0.00384788
0.00386383
0.00384785
0.00384459
0.00386423
0.00386423
0.00384456
0.00384451
0.00384451
0.00379377
0.00381211
0.00381266
0.00379296
0.003812
0.00379284
0.00379377
0.00381211
0.00381266
0.00379296
0.00380951
0.00380951
0.00380951
0.00377267
0.00377267
0.00377267
0.00377267
0.0037935
0.00381244
0.00380945
0.00379682
0.00381228
0.00379344
0.00379687
0.00381199
0.00379284
0.0037935
0.00380945
0.00381244
0.00379682
0.00381229
0.00379687
0.00379344
0.00381247
0.00381247
0.00379365
0.00379328
0.00379328
0.00374579
0.00376255
0.00376284
0.00374585
0.00376226
0.0037457
0.0037458
0.00376256
0.00376284
0.00374586
0.00376097
0.00376097
0.00376097
0.00372782
0.00372782
0.00372782
0.00372782
0.00374628
0.00376295
0.00376087
0.00374947
0.003763
0.00374623
0.00374955
0.00376225
0.00374571
0.00374628
0.00376087
0.00376295
0.00374947
0.003763
0.00374955
0.00374622
0.00376261
0.00376261
0.00374667
0.00374593
0.00374593
0.00370368
0.00371933
0.00371937
0.00370361
0.00371937
0.00370365
0.00370368
0.00371932
0.00371937
0.00370361
0.00371712
0.00371712
0.00371712
0.00368529
0.00368529
0.00368529
0.00368529
0.00370379
0.00371947
0.00371706
0.00370643
0.00371949
0.00370373
0.00370644
0.00371937
0.00370365
0.00370379
0.00371707
0.00371947
0.00370643
0.00371949
0.00370644
0.00370373
0.00371949
0.0037195
0.00370394
0.0037037
0.0037037
0.00366147
0.00367725
0.00367728
0.00366146
0.00367727
0.00366146
0.00366147
0.00367726
0.00367729
0.00366146
0.00367471
0.00367471
0.00367471
0.00364301
0.00364301
0.00364301
0.00364301
0.00366153
0.00367724
0.00367467
0.00366409
0.00367725
0.0036615
0.0036641
0.00367727
0.00366146
0.00366153
0.00367468
0.00367724
0.00366409
0.00367725
0.0036641
0.0036615
0.00367728
0.00367728
0.0036616
0.00366146
0.00366146
0.00361924
0.00363505
0.00363505
0.00361924
0.00363505
0.00361924
0.00361924
0.00363505
0.00363505
0.00361924
0.00363245
0.00363245
0.00363245
0.00360078
0.00360078
0.00360078
0.00360078
0.0036193
0.00363502
0.00363242
0.00362185
0.00363501
0.00361927
0.00362186
0.00363505
0.00361924
0.0036193
0.00363242
0.00363502
0.00362185
0.00363501
0.00362186
0.00361927
0.00363505
0.00363505
0.00361937
0.00361924
0.00361924
0.00357702
0.00359283
0.00359283
0.00357702
0.00359283
0.00357702
0.00357702
0.00359283
0.00359283
0.00357702
0.00359022
0.00359022
0.00359022
0.00355856
0.00355856
0.00355856
0.00355856
0.00357707
0.00359279
0.00359019
0.00357963
0.00359278
0.00357705
0.00357964
0.00359283
0.00357702
0.00357707
0.00359019
0.00359279
0.00357963
0.00359278
0.00357964
0.00357705
0.00359283
0.00359283
0.00357714
0.00357702
0.00357702
0.0035348
0.0035506
0.00355061
0.0035348
0.00355061
0.0035348
0.0035348
0.0035506
0.00355061
0.0035348
0.003548
0.003548
0.003548
0.00351634
0.00351634
0.00351634
0.00351634
0.00353485
0.00355057
0.00354797
0.00353741
0.00355056
0.00353483
0.00353742
0.00355061
0.0035348
0.00353485
0.00354797
0.00355057
0.00353741
0.00355056
0.00353742
0.00353483
0.00355061
0.00355061
0.00353493
0.0035348
0.0035348
0.00349259
0.00350839
0.00350839
0.00349259
0.00350839
0.00349259
0.00349259
0.00350839
0.00350839
0.00349259
0.00350578
0.00350578
0.00350578
0.00347412
0.00347412
0.00347412
0.00347412
0.00349264
0.00350836
0.00350576
0.0034952
0.00350834
0.00349262
0.0034952
0.00350839
0.00349259
0.00349264
0.00350576
0.00350836
0.0034952
0.00350834
0.0034952
0.00349262
0.00350839
0.00350839
0.00349271
0.00349258
0.00349258
0.00405939
0.00408715
0.00408717
0.00405153
0.0040867
0.0040515
0.00408672
0.00405625
0.00404332
0.00404332
0.00408198
0.00408199
0.00406802
0.00405482
0.00408341
0.00404887
0.00406802
0.00405482
0.00408342
0.00404887
0.00407255
0.0040436
0.00408383
0.0040384
0.00407255
0.00404358
0.00408383
0.00403841
0.00406363
0.00405235
0.00403478
0.00403517
0.0040787
0.00404731
0.0040354
0.00406363
0.00405235
0.00403478
0.00403517
0.0040787
0.00404731
0.0040354
0.00405939
0.00408715
0.00408716
0.00405149
0.0040867
0.00405625
0.0040433
0.00404333
0.00408198
0.00408198
0.00405152
0.0040867
0.00406804
0.00405483
0.00408343
0.00404887
0.00406804
0.00405483
0.00404887
0.00408343
0.00407257
0.00404359
0.00408385
0.00403842
0.00406365
0.00405235
0.00403478
0.00403518
0.00407871
0.00404731
0.00403541
0.00407257
0.0040436
0.00408384
0.00403841
0.00406365
0.00405235
0.00403518
0.00403479
0.00404731
0.00407871
0.00403541
0.0040411
0.00405086
0.00404566
0.00404566
0.0040411
0.00405087
0.00404566
0.00404567
0.0040411
0.00405087
0.00404566
0.00404567
0.00403987
0.00404894
0.00403183
0.00403183
0.00404423
0.00404423
0.00403001
0.00403987
0.00404894
0.00403183
0.00403183
0.00404423
0.00404423
0.00403001
0.00403987
0.00404895
0.00403183
0.00403184
0.00404423
0.00404423
0.00403001
0.00403987
0.00404895
0.00403183
0.00403183
0.00404423
0.00404423
0.00403001
0.00406804
0.00405483
0.00404887
0.00408342
0.00406365
0.00405235
0.00403478
0.00403518
0.0040787
0.00404731
0.00403541
0.00407257
0.00404359
0.00408384
0.00403842
0.00406365
0.00405235
0.00403518
0.00403479
0.00404731
0.0040787
0.00403541
0.00407257
0.00404359
0.00408384
0.00403841
0.0040594
0.00408717
0.00408716
0.00405147
0.0040867
0.00405625
0.00404332
0.00404332
0.00408199
0.00408199
0.00405147
0.00408671
0.00406804
0.00405483
0.00404887
0.00408343
0.00406365
0.00405235
0.00403518
0.00403479
0.00404731
0.00407871
0.00403541
0.00406365
0.00405235
0.00403518
0.00403479
0.00404731
0.00407871
0.00403541
0.00407257
0.00404359
0.00408385
0.00403841
0.00407257
0.0040436
0.00408385
0.00403842
0.00405625
0.00404332
0.00404332
0.00408199
0.00408199
0.00405147
0.0040867
0.0040515
0.00408671
0.0039893
0.00399204
0.0039894
0.00399202
0.00402562
0.00402566
0.0039972
0.00399249
0.00399249
0.00397479
0.00399169
0.00397479
0.0039917
0.00399053
0.00397742
0.00397742
0.00399065
0.00399064
0.00399645
0.00401558
0.0040248
0.00398852
0.00399398
0.00401979
0.00401971
0.00400278
0.00402281
0.00399286
0.00400366
0.00399397
0.00401979
0.00401971
0.00400278
0.00402281
0.00399287
0.00400366
0.00399191
0.00397655
0.00398943
0.00397727
0.00399191
0.00397655
0.00398944
0.00397728
0.00398895
0.00398847
0.00397621
0.00397594
0.00399002
0.00398888
0.00397455
0.00398894
0.00398847
0.00397622
0.00397594
0.00399003
0.00398888
0.00397455
0.00402561
0.00402566
0.0039972
0.00399249
0.00399249
0.00398945
0.00399202
0.00397478
0.0039917
0.00399053
0.00397742
0.00397742
0.00399065
0.00399064
0.00397478
0.00399171
0.00399396
0.00401979
0.00401971
0.00400278
0.00402281
0.00399286
0.00400366
0.00399644
0.00401559
0.00402478
0.00398852
0.00399396
0.00401972
0.00401979
0.00400278
0.00402281
0.00400366
0.00399286
0.0039919
0.00397655
0.00398943
0.00397728
0.00398894
0.00398847
0.00397621
0.00397594
0.00399002
0.00398888
0.00397455
0.00399191
0.00397654
0.00398944
0.00397727
0.00398894
0.00398847
0.00397594
0.00397621
0.00398888
0.00399003
0.00397455
0.00399644
0.00401559
0.00402478
0.00398851
0.00399396
0.00401971
0.0040198
0.00400278
0.00402281
0.00400366
0.00399286
0.00399644
0.0040156
0.00402478
0.00398851
0.00398894
0.00398847
0.00397621
0.00397594
0.00399002
0.00398888
0.00397455
0.0039919
0.00397654
0.00398943
0.00397727
0.00398894
0.00398847
0.00397594
0.00397621
0.00398888
0.00399002
0.00397455
0.00399191
0.00397655
0.00398942
0.00397727
0.00402565
0.00402566
0.00399718
0.00399249
0.00399248
0.00398941
0.00399202
0.00397478
0.00399171
0.00399053
0.00397742
0.00397742
0.00399065
0.00399064
0.00397479
0.00399167
0.00399396
0.00401972
0.00401979
0.00400278
0.00402281
0.00400366
0.00399286
0.00399644
0.0040156
0.00402478
0.0039885
0.00399644
0.0040156
0.00402478
0.00398851
0.00398894
0.00398847
0.00397594
0.00397621
0.00398888
0.00399002
0.00397455
0.00398894
0.00398847
0.00397594
0.00397621
0.00398888
0.00399002
0.00397455
0.00399191
0.00397654
0.00398943
0.00397727
0.0039919
0.00397654
0.00398943
0.00397727
0.00398943
0.00399202
0.00398943
0.00399202
0.00399052
0.00397742
0.00397741
0.00399064
0.00399064
0.00397479
0.00399168
0.00397478
0.00399169
0.00396801
0.00394784
0.00396801
0.00394784
0.00397021
0.00397021
0.00394862
0.0039492
0.0039492
0.00392261
0.00394137
0.00392261
0.00394136
0.00394181
0.00392365
0.00392365
0.00394272
0.00394272
0.00394977
0.00396911
0.00397047
0.00394826
0.00394837
0.00396917
0.00396395
0.00395208
0.00396796
0.00394889
0.00395181
0.00394837
0.00396917
0.00396395
0.00395208
0.00396796
0.00394889
0.00395181
0.00394323
0.00392299
0.00394188
0.00392405
0.00394323
0.00392299
0.00394188
0.00392405
0.00394182
0.00393932
0.00392343
0.00392619
0.00394243
0.00393918
0.00392287
0.00394182
0.00393932
0.00392343
0.00392619
0.00394243
0.00393918
0.00392287
0.00397021
0.00397021
0.00394862
0.0039492
0.0039492
0.00396802
0.00394785
0.00392261
0.00394137
0.00394181
0.00392365
0.00392365
0.00394272
0.00394272
0.00392261
0.00394137
0.00394837
0.00396917
0.00396395
0.00395208
0.00396796
0.00394889
0.00395181
0.00394977
0.0039691
0.00397046
0.00394825
0.00394837
0.00396395
0.00396917
0.00395208
0.00396796
0.00395181
0.00394889
0.00394323
0.00392299
0.00394188
0.00392405
0.00394182
0.00393932
0.00392343
0.00392619
0.00394243
0.00393918
0.00392287
0.00394323
0.00392299
0.00394188
0.00392405
0.00394182
0.00393932
0.00392619
0.00392343
0.00393918
0.00394243
0.00392287
0.00394977
0.00396911
0.00397046
0.00394826
0.00394837
0.00396395
0.00396917
0.00395208
0.00396796
0.00395181
0.00394889
0.00394977
0.00396911
0.00397046
0.00394825
0.00394182
0.00393932
0.00392343
0.00392619
0.00394243
0.00393919
0.00392287
0.00394323
0.00392299
0.00394188
0.00392405
0.00394182
0.00393932
0.00392619
0.00392343
0.00393918
0.00394243
0.00392287
0.00394323
0.00392299
0.00394188
0.00392405
0.0039702
0.00397021
0.00394862
0.0039492
0.0039492
0.00396801
0.00394784
0.00392261
0.00394136
0.00394181
0.00392365
0.00392365
0.00394272
0.00394272
0.00392261
0.00394136
0.00394837
0.00396394
0.00396917
0.00395208
0.00396796
0.00395181
0.00394889
0.00394977
0.00396911
0.00397046
0.00394826
0.00394977
0.00396911
0.00397046
0.00394826
0.00394182
0.00393932
0.00392619
0.00392343
0.00393919
0.00394243
0.00392287
0.00394182
0.00393932
0.00392619
0.00392343
0.00393919
0.00394243
0.00392287
0.00394323
0.00392299
0.00394188
0.00392405
0.00394323
0.00392299
0.00394188
0.00392405
0.00396801
0.00394784
0.003968
0.00394784
0.00394181
0.00392365
0.00392365
0.00394272
0.00394272
0.00392261
0.00394136
0.00392261
0.00394137
0.00391613
0.00389614
0.00391613
0.00389614
0.0039171
0.0039171
0.00389664
0.00389701
0.00389701
0.00387006
0.00388948
0.00387006
0.00388948
0.00388966
0.00387073
0.00387073
0.00389028
0.00389027
0.00389749
0.00391647
0.0039175
0.00389643
0.00389662
0.00391682
0.00391306
0.00390002
0.00391623
0.00389695
0.00389993
0.00389662
0.00391682
0.00391306
0.00390002
0.00391623
0.00389695
0.00389993
0.00389075
0.00387029
0.00388972
0.00387115
0.00389075
0.00387029
0.00388972
0.00387115
0.00388986
0.00388689
0.00387073
0.00387372
0.00389019
0.00388681
0.00387043
0.00388985
0.00388689
0.00387073
0.00387372
0.0038902
0.00388681
0.00387043
0.0039171
0.0039171
0.00389663
0.00389701
0.00389701
0.00391613
0.00389614
0.00387006
0.00388948
0.00388965
0.00387073
0.00387073
0.00389028
0.00389028
0.00387006
0.00388948
0.00389662
0.00391682
0.00391306
0.00390002
0.00391623
0.00389695
0.00389993
0.00389749
0.00391647
0.0039175
0.00389643
0.00389662
0.00391306
0.00391682
0.00390002
0.00391623
0.00389993
0.00389695
0.00389075
0.00387029
0.00388972
0.00387115
0.00388985
0.00388689
0.00387073
0.00387372
0.00389019
0.00388681
0.00387043
0.00389075
0.00387029
0.00388972
0.00387115
0.00388985
0.00388689
0.00387372
0.00387073
0.00388681
0.00389019
0.00387043
0.00389749
0.00391647
0.0039175
0.00389643
0.00389662
0.00391306
0.00391682
0.00390002
0.00391623
0.00389993
0.00389695
0.00389749
0.00391647
0.0039175
0.00389643
0.00388985
0.00388689
0.00387073
0.00387372
0.00389019
0.00388681
0.00387043
0.00389075
0.00387029
0.00388972
0.00387115
0.00388985
0.00388689
0.00387372
0.00387073
0.00388681
0.00389019
0.00387043
0.00389075
0.00387029
0.00388972
0.00387115
0.0039171
0.0039171
0.00389663
0.003897
0.003897
0.00391613
0.00389614
0.00387006
0.00388948
0.00388965
0.00387073
0.00387073
0.00389027
0.00389027
0.00387006
0.00388948
0.00389662
0.00391306
0.00391682
0.00390002
0.00391623
0.00389993
0.00389695
0.00389749
0.00391647
0.0039175
0.00389643
0.00389749
0.00391647
0.0039175
0.00389643
0.00388985
0.00388689
0.00387372
0.00387073
0.00388681
0.00389019
0.00387043
0.00388985
0.00388689
0.00387372
0.00387073
0.00388681
0.00389019
0.00387043
0.00389075
0.00387029
0.00388972
0.00387115
0.00389075
0.00387029
0.00388972
0.00387115
0.00391613
0.00389614
0.00391613
0.00389614
0.00388965
0.00387073
0.00387073
0.00389028
0.00389028
0.00387006
0.00388948
0.00387006
0.00388948
0.00386357
0.00384394
0.00386357
0.00384394
0.00386423
0.00386423
0.00384456
0.00384451
0.0038445
0.0038184
0.00383753
0.0038184
0.00383753
0.00383776
0.00381889
0.00381889
0.00383808
0.00383808
0.00384494
0.00386378
0.0038646
0.00384412
0.00384444
0.00386415
0.00386073
0.00384788
0.00386383
0.00384459
0.00384785
0.00384444
0.00386415
0.00386073
0.00384788
0.00386383
0.00384459
0.00384785
0.00383851
0.00381856
0.00383771
0.00381912
0.00383851
0.00381856
0.00383771
0.00381912
0.00383789
0.00383502
0.00381895
0.00382218
0.00383811
0.00383498
0.00381881
0.00383789
0.00383502
0.00381895
0.00382218
0.00383811
0.00383498
0.00381881
0.00386423
0.00386423
0.00384456
0.00384451
0.00384451
0.00386357
0.00384394
0.0038184
0.00383753
0.00383776
0.00381889
0.00381889
0.00383808
0.00383808
0.0038184
0.00383753
0.00384444
0.00386415
0.00386073
0.00384788
0.00386383
0.00384459
0.00384785
0.00384494
0.00386378
0.0038646
0.00384412
0.00384444
0.00386073
0.00386415
0.00384788
0.00386383
0.00384785
0.00384459
0.00383851
0.00381856
0.00383771
0.00381912
0.00383789
0.00383502
0.00381895
0.00382218
0.00383811
0.00383498
0.00381881
0.00383851
0.00381856
0.00383771
0.00381912
0.00383789
0.00383502
0.00382218
0.00381895
0.00383498
0.00383811
0.00381881
0.00384494
0.00386378
0.0038646
0.00384412
0.00384444
0.00386073
0.00386415
0.00384788
0.00386383
0.00384785
0.00384459
0.00384494
0.00386378
0.0038646
0.00384412
0.00383789
0.00383502
0.00381895
0.00382218
0.00383811
0.00383498
0.00381881
0.00383851
0.00381856
0.00383771
0.00381912
0.00383789
0.00383502
0.00382218
0.00381895
0.00383498
0.00383811
0.00381881
0.00383851
0.00381856
0.00383771
0.00381912
0.00386423
0.00386423
0.00384456
0.00384451
0.00384451
0.00386357
0.00384394
0.0038184
0.00383753
0.00383776
0.00381889
0.00381889
0.00383808
0.00383808
0.0038184
0.00383753
0.00384444
0.00386073
0.00386415
0.00384788
0.00386383
0.00384785
0.00384459
0.00384494
0.00386378
0.0038646
0.00384412
0.00384494
0.00386378
0.0038646
0.00384412
0.00383789
0.00383502
0.00382218
0.00381895
0.00383498
0.00383811
0.00381881
0.00383789
0.00383502
0.00382218
0.00381895
0.00383498
0.00383811
0.00381881
0.00383851
0.00381856
0.00383771
0.00381912
0.00383851
0.00381856
0.00383771
0.00381912
0.00386357
0.00384394
0.00386357
0.00384394
0.00383776
0.00381889
0.00381889
0.00383808
0.00383808
0.0038184
0.00383753
0.0038184
0.00383753
0.00381199
0.00379284
0.00381199
0.00379284
0.00381247
0.00381247
0.00379365
0.00379328
0.00379328
0.00376809
0.00378646
0.00376809
0.00378646
0.0037871
0.00376849
0.00376849
0.00378688
0.00378688
0.00379377
0.00381212
0.00381266
0.00379296
0.00379349
0.00381244
0.00380945
0.00379681
0.00381228
0.00379344
0.00379687
0.00379349
0.00381244
0.00380945
0.00379682
0.00381228
0.00379344
0.00379687
0.00378748
0.00376842
0.00378662
0.00376888
0.00378748
0.00376842
0.00378661
0.00376888
0.00378714
0.00378452
0.00376889
0.00377256
0.00378708
0.00378457
0.00376898
0.00378714
0.00378452
0.00376889
0.00377256
0.00378708
0.00378457
0.00376898
0.00381248
0.00381247
0.00379365
0.00379328
0.00379328
0.00381199
0.00379284
0.0037681
0.00378645
0.0037871
0.00376849
0.00376849
0.00378688
0.00378688
0.0037681
0.00378646
0.00379349
0.00381244
0.00380945
0.00379681
0.00381228
0.00379344
0.00379687
0.00379377
0.00381211
0.00381266
0.00379296
0.00379349
0.00380945
0.00381244
0.00379682
0.00381228
0.00379687
0.00379344
0.00378748
0.00376842
0.00378662
0.00376889
0.00378714
0.00378452
0.00376889
0.00377256
0.00378708
0.00378457
0.00376898
0.00378748
0.00376842
0.00378662
0.00376889
0.00378714
0.00378452
0.00377256
0.00376889
0.00378457
0.00378708
0.00376899
0.00379377
0.00381212
0.00381266
0.00379296
0.00379349
0.00380945
0.00381244
0.00379682
0.00381228
0.00379687
0.00379344
0.00379377
0.00381211
0.00381266
0.00379296
0.00378714
0.00378452
0.00376889
0.00377256
0.00378708
0.00378457
0.00376899
0.00378748
0.00376843
0.00378662
0.00376889
0.00378714
0.00378452
0.00377256
0.00376889
0.00378457
0.00378708
0.00376899
0.00378748
0.00376842
0.00378662
0.00376889
0.00381247
0.00381247
0.00379365
0.00379328
0.00379328
0.00381199
0.00379284
0.0037681
0.00378646
0.0037871
0.00376849
0.00376849
0.00378688
0.00378688
0.00376809
0.00378646
0.0037935
0.00380945
0.00381244
0.00379682
0.00381229
0.00379687
0.00379344
0.00379377
0.00381211
0.00381266
0.00379296
0.00379377
0.00381211
0.00381266
0.00379296
0.00378714
0.00378452
0.00377256
0.00376889
0.00378457
0.00378708
0.00376899
0.00378714
0.00378453
0.00377256
0.00376889
0.00378457
0.00378708
0.00376899
0.00378748
0.00376842
0.00378662
0.00376889
0.00378748
0.00376842
0.00378662
0.00376889
0.00381199
0.00379284
0.00381199
0.00379284
0.0037871
0.00376849
0.00376849
0.00378688
0.00378688
0.00376809
0.00378646
0.00376809
0.00378646
0.00376225
0.0037457
0.00376225
0.00374571
0.00376261
0.00376261
0.00374666
0.00374592
0.00374593
0.00372463
0.00374034
0.00372463
0.00374035
0.00374093
0.00372478
0.00372478
0.00374057
0.00374058
0.00374579
0.00376256
0.00376284
0.00374585
0.00374627
0.00376295
0.00376087
0.00374948
0.003763
0.00374621
0.00374955
0.00374627
0.00376295
0.00376087
0.00374948
0.003763
0.00374621
0.00374955
0.00374038
0.00372461
0.00374045
0.00372461
0.00374037
0.00372461
0.00374046
0.00372461
0.00374075
0.00373848
0.00372484
0.00372774
0.00374072
0.00373854
0.00372489
0.00374075
0.00373848
0.00372484
0.00372774
0.00374072
0.00373854
0.00372489
0.00376261
0.00376261
0.00374667
0.00374592
0.00374593
0.00376225
0.00374571
0.00372463
0.00374034
0.00374094
0.00372478
0.00372478
0.00374057
0.00374058
0.00372463
0.00374035
0.00374628
0.00376295
0.00376087
0.00374947
0.003763
0.00374622
0.00374955
0.0037458
0.00376256
0.00376284
0.00374586
0.00374628
0.00376087
0.00376295
0.00374947
0.003763
0.00374955
0.00374622
0.00374039
0.00372461
0.00374046
0.00372461
0.00374076
0.00373848
0.00372484
0.00372774
0.00374072
0.00373854
0.0037249
0.00374039
0.00372461
0.00374046
0.00372461
0.00374076
0.00373848
0.00372774
0.00372484
0.00373854
0.00374072
0.0037249
0.00374581
0.00376256
0.00376284
0.00374587
0.00374628
0.00376087
0.00376295
0.00374947
0.003763
0.00374955
0.00374622
0.00374581
0.00376256
0.00376284
0.00374586
0.00374076
0.00373848
0.00372484
0.00372774
0.00374073
0.00373854
0.0037249
0.00374039
0.00372462
0.00374046
0.00372462
0.00374077
0.00373848
0.00372774
0.00372484
0.00373854
0.00374072
0.0037249
0.00374039
0.00372462
0.00374046
0.00372462
0.00376261
0.00376261
0.00374666
0.00374593
0.00374593
0.00376225
0.00374571
0.00372463
0.00374035
0.00374093
0.00372478
0.00372478
0.00374058
0.00374058
0.00372463
0.00374035
0.00374628
0.00376087
0.00376295
0.00374947
0.003763
0.00374955
0.00374623
0.0037458
0.00376256
0.00376284
0.00374586
0.00374581
0.00376256
0.00376284
0.00374587
0.00374076
0.00373848
0.00372774
0.00372484
0.00373854
0.00374073
0.0037249
0.00374076
0.00373848
0.00372774
0.00372484
0.00373854
0.00374073
0.0037249
0.00374039
0.00372462
0.00374046
0.00372462
0.00374039
0.00372461
0.00374046
0.00372462
0.00376225
0.00374571
0.00376225
0.00374571
0.00374094
0.00372478
0.00372478
0.00374058
0.00374058
0.00372463
0.00374035
0.00372463
0.00374035
0.00371937
0.00370365
0.00371937
0.00370365
0.0037195
0.00371949
0.00370394
0.0037037
0.0037037
0.00368257
0.00369836
0.00368257
0.00369836
0.00369835
0.00368258
0.00368258
0.00369841
0.00369841
0.00370368
0.00371932
0.00371937
0.00370361
0.00370379
0.00371946
0.00371706
0.00370643
0.00371948
0.00370373
0.00370644
0.00370379
0.00371946
0.00371706
0.00370643
0.00371948
0.00370372
0.00370644
0.00369839
0.00368256
0.00369833
0.00368259
0.00369839
0.00368256
0.00369833
0.00368259
0.00369838
0.00369583
0.00368261
0.00368525
0.00369835
0.00369584
0.00368266
0.00369838
0.00369583
0.00368261
0.00368525
0.00369835
0.00369584
0.00368266
0.0037195
0.0037195
0.00370394
0.00370371
0.00370371
0.00371937
0.00370365
0.00368257
0.00369836
0.00369835
0.00368258
0.00368258
0.00369841
0.00369841
0.00368257
0.00369836
0.00370379
0.00371947
0.00371706
0.00370643
0.00371949
0.00370373
0.00370644
0.00370368
0.00371933
0.00371937
0.00370361
0.00370379
0.00371707
0.00371947
0.00370643
0.00371949
0.00370644
0.00370372
0.00369839
0.00368256
0.00369833
0.00368259
0.00369838
0.00369583
0.00368261
0.00368525
0.00369835
0.00369584
0.00368266
0.00369839
0.00368256
0.00369833
0.00368259
0.00369838
0.00369583
0.00368525
0.00368261
0.00369584
0.00369835
0.00368266
0.00370368
0.00371933
0.00371937
0.00370361
0.00370379
0.00371707
0.00371947
0.00370643
0.00371949
0.00370644
0.00370373
0.00370368
0.00371933
0.00371937
0.00370361
0.00369838
0.00369583
0.00368261
0.00368525
0.00369835
0.00369584
0.00368266
0.00369839
0.00368256
0.00369833
0.00368259
0.00369838
0.00369583
0.00368525
0.00368261
0.00369584
0.00369835
0.00368266
0.00369839
0.00368256
0.00369833
0.00368259
0.0037195
0.0037195
0.00370394
0.00370371
0.00370371
0.00371937
0.00370365
0.00368257
0.00369836
0.00369835
0.00368258
0.00368258
0.00369841
0.00369841
0.00368257
0.00369836
0.00370379
0.00371707
0.00371947
0.00370643
0.00371949
0.00370644
0.00370373
0.00370368
0.00371933
0.00371937
0.00370361
0.00370368
0.00371933
0.00371937
0.00370361
0.00369839
0.00369583
0.00368525
0.00368261
0.00369584
0.00369835
0.00368266
0.00369839
0.00369583
0.00368525
0.00368261
0.00369584
0.00369835
0.00368266
0.00369839
0.00368256
0.00369833
0.00368259
0.00369839
0.00368256
0.00369833
0.00368259
0.00371937
0.00370365
0.00371937
0.00370365
0.00369835
0.00368258
0.00368258
0.00369841
0.00369841
0.00368257
0.00369836
0.00368257
0.00369836
0.00367726
0.00366146
0.00367727
0.00366146
0.00367728
0.00367728
0.0036616
0.00366146
0.00366146
0.00364035
0.00365616
0.00364035
0.00365616
0.00365602
0.00364035
0.00364035
0.00365616
0.00365616
0.00366147
0.00367726
0.00367729
0.00366146
0.00366152
0.00367724
0.00367467
0.00366409
0.00367725
0.0036615
0.0036641
0.00366152
0.00367724
0.00367467
0.00366409
0.00367725
0.0036615
0.0036641
0.00365616
0.00364035
0.00365616
0.00364036
0.00365616
0.00364035
0.00365616
0.00364036
0.00365612
0.00365353
0.00364038
0.00364298
0.00365613
0.00365354
0.00364041
0.00365612
0.00365353
0.00364038
0.00364298
0.00365613
0.00365354
0.00364041
0.00367728
0.00367728
0.0036616
0.00366146
0.00366146
0.00367727
0.00366146
0.00364035
0.00365616
0.00365602
0.00364035
0.00364035
0.00365616
0.00365616
0.00364035
0.00365616
0.00366153
0.00367724
0.00367467
0.00366409
0.00367725
0.0036615
0.0036641
0.00366147
0.00367726
0.00367729
0.00366146
0.00366153
0.00367467
0.00367724
0.00366409
0.00367725
0.0036641
0.0036615
0.00365616
0.00364035
0.00365616
0.00364036
0.00365612
0.00365353
0.00364038
0.00364298
0.00365613
0.00365354
0.00364041
0.00365616
0.00364035
0.00365616
0.00364036
0.00365612
0.00365353
0.00364298
0.00364038
0.00365354
0.00365613
0.00364041
0.00366147
0.00367726
0.00367729
0.00366146
0.00366153
0.00367467
0.00367724
0.00366409
0.00367725
0.0036641
0.0036615
0.00366147
0.00367726
0.00367729
0.00366146
0.00365612
0.00365353
0.00364038
0.00364298
0.00365613
0.00365354
0.00364041
0.00365617
0.00364035
0.00365616
0.00364036
0.00365612
0.00365353
0.00364298
0.00364038
0.00365354
0.00365613
0.00364041
0.00365617
0.00364035
0.00365616
0.00364036
0.00367728
0.00367728
0.0036616
0.00366146
0.00366146
0.00367727
0.00366146
0.00364035
0.00365616
0.00365602
0.00364035
0.00364035
0.00365616
0.00365616