/*--------------------------------*- C++ -*----------------------------------*\
| =========                 |                                                 |
| \\      /  F ield         | OpenFOAM: The Open Source CFD Toolbox           |
|  \\    /   O peration     | Version:  2206                                  |
|   \\  /    A nd           | Website:  www.openfoam.com                      |
|    \\/     M anipulation  |                                                 |
\*---------------------------------------------------------------------------*/
FoamFile
{
    version     2.0;
    format      ascii;
    arch        "LSB;label=32;scalar=64";
    class       volVectorField;
    location    "27.5";
    object      U;
}
// * * * * * * * * * * * * * * * * * * * * * * * * * * * * * * * * * * * * * //

dimensions      [0 1 -1 0 0 0 0];

internalField   nonuniform List<vector> 
28688
(
(0.000107781 0.000107714 0.100299)
(-0.00019016 0.000119335 0.100385)
(0.000119408 -0.000190153 0.100385)
(-0.000239377 -0.000239395 0.100397)
(9.41195e-05 9.40718e-05 0.10086)
(-0.000159067 9.69055e-05 0.100942)
(9.69144e-05 -0.000159065 0.100942)
(-0.000200763 -0.000200813 0.100968)
(9.52308e-05 9.5217e-05 0.101372)
(-0.000155605 9.35499e-05 0.101448)
(9.3541e-05 -0.000155616 0.101448)
(-0.000201213 -0.000201264 0.10147)
(9.54679e-05 9.54583e-05 0.101893)
(-0.000156262 9.31502e-05 0.101956)
(9.31609e-05 -0.000156267 0.101956)
(-0.000196928 -0.000196971 0.101964)
(8.67039e-05 8.67008e-05 0.102391)
(-0.000144462 8.47525e-05 0.102444)
(8.47608e-05 -0.000144465 0.102444)
(-0.000184407 -0.000184451 0.102433)
(6.28287e-05 6.28172e-05 0.102831)
(-9.4082e-05 5.20809e-05 0.102866)
(5.20721e-05 -9.4095e-05 0.102866)
(-0.000139838 -0.000139847 0.102836)
(2.71707e-05 2.71486e-05 0.103031)
(-3.6839e-05 2.4499e-05 0.103006)
(2.4514e-05 -3.68366e-05 0.103006)
(-7.63237e-05 -7.63408e-05 0.102944)
(4.91608e-06 4.90882e-06 0.103083)
(-7.26846e-06 5.66683e-06 0.103026)
(5.672e-06 -7.274e-06 0.103026)
(-4.98045e-05 -4.98249e-05 0.10294)
(-2.1451e-07 -2.10766e-07 0.103089)
(-1.00196e-06 1.12352e-06 0.103026)
(1.12193e-06 -1.00548e-06 0.103026)
(-4.45538e-05 -4.457e-05 0.102935)
(-7.04938e-07 -6.98406e-07 0.10309)
(-4.99867e-07 7.61039e-07 0.103026)
(7.58794e-07 -5.03587e-07 0.103026)
(-4.42329e-05 -4.42495e-05 0.102935)
(-7.26982e-07 -7.18481e-07 0.10309)
(-4.87566e-07 7.48807e-07 0.103026)
(7.45814e-07 -4.91042e-07 0.103026)
(-4.42229e-05 -4.42395e-05 0.102935)
(-7.32349e-07 -7.26825e-07 0.10309)
(-4.90493e-07 7.47113e-07 0.103026)
(7.45085e-07 -4.91766e-07 0.103026)
(-4.42195e-05 -4.42362e-05 0.102935)
(0.000135141 0.00013513 0.100282)
(0.000124253 0.000152932 0.100229)
(-0.000124245 0.000152913 0.100229)
(-0.000135137 0.000135098 0.100282)
(0.000152961 0.000124204 0.100229)
(0.000152933 -0.000124221 0.100229)
(9.08827e-05 9.08308e-05 0.10015)
(-9.08729e-05 9.08282e-05 0.10015)
(9.08566e-05 -9.08769e-05 0.10015)
(-9.08542e-05 -9.08751e-05 0.10015)
(-0.000152956 0.000124201 0.100229)
(-0.000152943 -0.000124217 0.100229)
(0.00013513 -0.00013515 0.100282)
(0.000124205 -0.000152962 0.100229)
(-0.000124201 -0.000152945 0.100229)
(-0.000135139 -0.000135124 0.100282)
(0.000239419 0.000239399 0.100397)
(0.000111918 0.00011179 0.100892)
(0.000119457 0.000190053 0.100385)
(-0.000119408 0.000190094 0.100385)
(8.92644e-05 0.000147385 0.100823)
(-8.92254e-05 0.000147381 0.100823)
(-0.000239429 0.000239347 0.100397)
(-0.000111877 0.000111758 0.100892)
(0.000190197 0.000119354 0.100385)
(0.000190135 -0.000119416 0.100385)
(0.000147358 8.92326e-05 0.100823)
(0.000147389 -8.92534e-05 0.100823)
(-0.000190116 -0.000119419 0.100385)
(-0.000147327 8.92343e-05 0.100823)
(-0.000147348 -8.92474e-05 0.100823)
(0.000239351 -0.000239441 0.100397)
(0.00011187 -0.000111883 0.100892)
(-0.000119388 -0.000190182 0.100385)
(8.92418e-05 -0.000147321 0.100823)
(-8.92208e-05 -0.000147346 0.100823)
(-0.000111869 -0.000111886 0.100892)
(0.000200849 0.000200681 0.100968)
(0.000106841 0.000106762 0.101395)
(9.69208e-05 0.000159122 0.100941)
(-9.68932e-05 0.000159118 0.100941)
(9.50866e-05 0.000157986 0.101319)
(-9.5089e-05 0.000157986 0.101319)
(-0.000200812 0.000200649 0.100968)
(-0.000106833 0.000106753 0.101395)
(0.0001591 9.6899e-05 0.100942)
(0.000159117 -9.69115e-05 0.100942)
(0.000157943 9.50918e-05 0.101319)
(0.000157981 -9.50942e-05 0.101319)
(-0.000159095 -9.69065e-05 0.100942)
(-0.000157939 9.51011e-05 0.101319)
(-0.000157958 -9.50828e-05 0.101319)
(0.00020076 -0.000200821 0.100968)
(0.000106808 -0.000106819 0.101395)
(-9.68963e-05 -0.000159091 0.100942)
(9.50879e-05 -0.00015794 0.101319)
(-9.50943e-05 -0.00015796 0.101319)
(-0.000106821 -0.000106827 0.101395)
(0.00020128 0.000201155 0.10147)
(9.79503e-05 9.78897e-05 0.101894)
(9.35318e-05 0.000155664 0.101448)
(-9.35357e-05 0.000155661 0.101448)
(9.15095e-05 0.000154395 0.101833)
(-9.14989e-05 0.000154388 0.101833)
(-0.000201272 0.000201137 0.10147)
(-9.79313e-05 9.78845e-05 0.101894)
(0.000155614 9.35451e-05 0.101448)
(0.000155655 -9.35391e-05 0.101448)
(0.000154336 9.15117e-05 0.101833)
(0.000154368 -9.14982e-05 0.101833)
(-0.000155637 -9.35341e-05 0.101448)
(-0.000154331 9.15027e-05 0.101833)
(-0.00015437 -9.15006e-05 0.101833)
(0.000201199 -0.00020127 0.10147)
(9.79035e-05 -9.79395e-05 0.101894)
(-9.35478e-05 -0.000155638 0.101448)
(9.15098e-05 -0.000154334 0.101833)
(-9.15025e-05 -0.000154345 0.101833)
(-9.79649e-05 -9.79656e-05 0.101894)
(0.000196959 0.000196855 0.101964)
(8.66028e-05 8.65542e-05 0.102369)
(9.31542e-05 0.000156324 0.101956)
(-9.31421e-05 0.000156314 0.101956)
(8.32566e-05 0.000142834 0.102326)
(-8.32508e-05 0.000142825 0.102326)
(-0.000196942 0.000196842 0.101964)
(-8.65895e-05 8.65535e-05 0.102369)
(0.00015627 9.31572e-05 0.101956)
(0.000156299 -9.31401e-05 0.101956)
(0.000142784 8.32487e-05 0.102326)
(0.000142811 -8.32438e-05 0.102326)
(-0.000156298 -9.31447e-05 0.101956)
(-0.000142777 8.32402e-05 0.102326)
(-0.00014282 -8.32448e-05 0.102326)
(0.000196865 -0.000196964 0.101964)
(8.65553e-05 -8.65997e-05 0.102369)
(-9.31466e-05 -0.000156273 0.101956)
(8.32513e-05 -0.000142783 0.102326)
(-8.32347e-05 -0.000142783 0.102326)
(-8.66241e-05 -8.66319e-05 0.102369)
(0.000184422 0.000184337 0.102433)
(5.644e-05 5.64561e-05 0.102797)
(8.47604e-05 0.000144516 0.102444)
(-8.47545e-05 0.000144521 0.102444)
(6.34088e-05 0.000114073 0.102784)
(-6.34142e-05 0.000114055 0.102784)
(-0.000184415 0.000184328 0.102433)
(-5.648e-05 5.65005e-05 0.102797)
(0.000144472 8.47549e-05 0.102444)
(0.000144497 -8.47421e-05 0.102444)
(0.000113974 6.34067e-05 0.102784)
(0.000114021 -6.34034e-05 0.102784)
(-0.0001445 -8.47521e-05 0.102444)
(-0.000113985 6.33949e-05 0.102784)
(-0.000114037 -6.33722e-05 0.102784)
(0.00018434 -0.000184435 0.102433)
(5.64675e-05 -5.64375e-05 0.102797)
(-8.47452e-05 -0.000144464 0.102444)
(6.33871e-05 -0.000113986 0.102784)
(-6.33611e-05 -0.000113968 0.102784)
(-5.64652e-05 -5.64349e-05 0.102797)
(0.00013985 0.000139812 0.102836)
(-9.51919e-06 -9.50498e-06 0.102944)
(5.21139e-05 9.41532e-05 0.102866)
(-5.21312e-05 9.41506e-05 0.102866)
(3.0537e-05 4.84418e-05 0.102989)
(-3.05429e-05 4.8452e-05 0.102989)
(-0.000139882 0.00013984 0.102836)
(9.50443e-06 -9.5156e-06 0.102944)
(9.40865e-05 5.2085e-05 0.102866)
(9.4124e-05 -5.21205e-05 0.102866)
(4.84592e-05 3.04863e-05 0.102989)
(4.8471e-05 -3.05392e-05 0.102989)
(-9.41352e-05 -5.21011e-05 0.102866)
(-4.84545e-05 3.04878e-05 0.102989)
(-4.84565e-05 -3.05277e-05 0.102989)
(0.000139811 -0.000139866 0.102836)
(-9.47878e-06 9.53647e-06 0.102944)
(-5.20614e-05 -9.40655e-05 0.102866)
(3.04985e-05 -4.84482e-05 0.102989)
(-3.04965e-05 -4.84475e-05 0.102989)
(9.49593e-06 9.52745e-06 0.102944)
(7.63439e-05 7.63023e-05 0.102944)
(-3.88975e-05 -3.88829e-05 0.102946)
(2.45545e-05 3.68267e-05 0.103006)
(-2.45505e-05 3.68382e-05 0.103006)
(8.8728e-06 1.17619e-05 0.103025)
(-8.86525e-06 1.1778e-05 0.103025)
(-7.63476e-05 7.62828e-05 0.102944)
(3.89047e-05 -3.88865e-05 0.102946)
(3.68518e-05 2.45044e-05 0.103006)
(3.6855e-05 -2.45485e-05 0.103006)
(1.17603e-05 8.83701e-06 0.103025)
(1.17738e-05 -8.86254e-06 0.103025)
(-3.68395e-05 -2.45384e-05 0.103006)
(-1.17498e-05 8.82892e-06 0.103025)
(-1.17711e-05 -8.86244e-06 0.103025)
(7.63271e-05 -7.63445e-05 0.102944)
(-3.88824e-05 3.89098e-05 0.102946)
(-2.45125e-05 -3.68374e-05 0.103006)
(8.83505e-06 -1.17504e-05 0.103025)
(-8.83584e-06 -1.17535e-05 0.103025)
(3.88827e-05 3.88969e-05 0.102946)
(4.98171e-05 4.97885e-05 0.10294)
(-4.5781e-05 -4.57598e-05 0.10294)
(5.70478e-06 7.28387e-06 0.103026)
(-5.69964e-06 7.30146e-06 0.103026)
(1.54802e-06 1.57505e-06 0.103026)
(-1.54887e-06 1.58587e-06 0.103026)
(-4.98082e-05 4.97798e-05 0.10294)
(4.57837e-05 -4.57558e-05 0.10294)
(7.28116e-06 5.67443e-06 0.103026)
(7.29234e-06 -5.69893e-06 0.103026)
(1.55982e-06 1.52419e-06 0.103026)
(1.57849e-06 -1.54592e-06 0.103026)
(-7.29423e-06 -5.6974e-06 0.103026)
(-1.55612e-06 1.52147e-06 0.103026)
(-1.58144e-06 -1.54358e-06 0.103026)
(4.97885e-05 -4.98299e-05 0.10294)
(-4.57561e-05 4.57894e-05 0.10294)
(-5.67247e-06 -7.27247e-06 0.103026)
(1.51906e-06 -1.55749e-06 0.103026)
(-1.52056e-06 -1.55595e-06 0.103026)
(4.57567e-05 4.57756e-05 0.10294)
(4.45578e-05 4.45371e-05 0.102936)
(-4.62626e-05 -4.62365e-05 0.102939)
(1.14927e-06 1.0219e-06 0.103026)
(-1.14958e-06 1.0337e-06 0.103026)
(8.06549e-07 5.45902e-07 0.103026)
(-8.05108e-07 5.49927e-07 0.103026)
(-4.45551e-05 4.45311e-05 0.102936)
(4.62671e-05 -4.62365e-05 0.102939)
(1.008e-06 1.12761e-06 0.103026)
(1.02483e-06 -1.14768e-06 0.103026)
(5.24018e-07 7.84975e-07 0.103026)
(5.46526e-07 -8.01628e-07 0.103026)
(-1.02547e-06 -1.14404e-06 0.103026)
(-5.20789e-07 7.81151e-07 0.103026)
(-5.45465e-07 -7.9874e-07 0.103026)
(4.45404e-05 -4.45745e-05 0.102935)
(-4.62353e-05 4.62711e-05 0.102939)
(-1.12115e-06 -1.00011e-06 0.103026)
(7.77302e-07 -5.22178e-07 0.103026)
(-7.75594e-07 -5.19684e-07 0.103026)
(4.62393e-05 4.62577e-05 0.102939)
(4.42389e-05 4.4223e-05 0.102935)
(-4.6272e-05 -4.62341e-05 0.102939)
(7.8799e-07 5.27108e-07 0.103026)
(-7.83364e-07 5.35143e-07 0.103026)
(7.82272e-07 5.25461e-07 0.103026)
(-7.71666e-07 5.18753e-07 0.103026)
(-4.42356e-05 4.42137e-05 0.102935)
(4.62844e-05 -4.62475e-05 0.102939)
(5.06539e-07 7.68031e-07 0.103026)
(5.25689e-07 -7.81876e-07 0.103026)
(4.91925e-07 7.60632e-07 0.103026)
(5.14323e-07 -7.67287e-07 0.103026)
(-5.23362e-07 -7.78468e-07 0.103026)
(-4.869e-07 7.49942e-07 0.103026)
(-5.12268e-07 -7.65707e-07 0.103026)
(4.42224e-05 -4.42543e-05 0.102935)
(-4.62473e-05 4.62855e-05 0.102939)
(-7.55671e-07 -4.9792e-07 0.103026)
(7.44719e-07 -4.87658e-07 0.103026)
(-7.42829e-07 -4.86412e-07 0.103026)
(4.6252e-05 4.62705e-05 0.102939)
(4.42317e-05 4.42273e-05 0.102935)
(-4.62716e-05 -4.6249e-05 0.102939)
(7.81958e-07 5.23556e-07 0.103026)
(-7.70079e-07 5.24337e-07 0.103026)
(7.71214e-07 5.10423e-07 0.103026)
(-7.73484e-07 5.15107e-07 0.103026)
(-4.42251e-05 4.42053e-05 0.102935)
(4.62789e-05 -4.62459e-05 0.102939)
(4.95216e-07 7.6022e-07 0.103026)
(5.14723e-07 -7.67903e-07 0.103026)
(4.90564e-07 7.49211e-07 0.103026)
(5.1375e-07 -7.68456e-07 0.103026)
(-5.1198e-07 -7.65581e-07 0.103026)
(-4.88034e-07 7.48022e-07 0.103026)
(-5.1244e-07 -7.65714e-07 0.103026)
(4.42129e-05 -4.42431e-05 0.102935)
(-4.6245e-05 4.62813e-05 0.102939)
(-7.42501e-07 -4.86469e-07 0.103026)
(7.43949e-07 -4.88448e-07 0.103026)
(-7.42043e-07 -4.86779e-07 0.103026)
(4.62492e-05 4.62675e-05 0.102939)
(4.4225e-05 4.42045e-05 0.102935)
(-4.62612e-05 -4.62381e-05 0.102939)
(7.71639e-07 5.12571e-07 0.103026)
(-7.73008e-07 5.21282e-07 0.103026)
(7.69253e-07 5.06266e-07 0.103026)
(-4.42219e-05 4.4198e-05 0.102935)
(4.94251e-07 7.51272e-07 0.103026)
(5.13804e-07 -7.69651e-07 0.103026)
(4.88539e-07 7.48339e-07 0.103026)
(5.11941e-07 -7.69481e-07 0.103026)
(-5.12003e-07 -7.65417e-07 0.103026)
(-5.12783e-07 -7.65341e-07 0.103026)
(4.42087e-05 -4.4241e-05 0.102935)
(-4.62342e-05 4.6269e-05 0.102939)
(-7.41946e-07 -4.86781e-07 0.103026)
(7.43488e-07 -4.87402e-07 0.103026)
(-7.41733e-07 -4.88093e-07 0.103026)
(4.6237e-05 4.62559e-05 0.102939)
(-3.41391e-07 -3.44074e-07 0.0999988)
(1.68371e-05 1.68317e-05 0.100003)
(-4.54274e-07 1.39273e-05 0.1)
(1.3935e-05 -4.56823e-07 0.1)
(-4.67053e-05 5.7247e-06 0.100008)
(-1.53056e-05 1.5608e-05 0.0999999)
(-0.000127992 6.0437e-05 0.100057)
(-1.31011e-05 -8.60417e-07 0.0999958)
(5.7186e-06 -4.66901e-05 0.100008)
(1.56113e-05 -1.5306e-05 0.0999999)
(-8.58528e-07 -1.31001e-05 0.0999958)
(6.04495e-05 -0.000127922 0.100057)
(-1.87722e-05 -1.87756e-05 0.100003)
(-0.000135064 -8.10367e-05 0.100054)
(-8.10449e-05 -0.000135044 0.100054)
(-3.49049e-05 0.000137193 0.100719)
(0.000177198 0.000387299 0.0994242)
(2.37544e-06 0.000304662 0.10052)
(-8.39171e-05 0.00024544 0.0991341)
(-0.000303017 0.000836759 0.0977848)
(-0.000130004 0.000305549 0.0957062)
(0.000136927 -3.50519e-05 0.100719)
(0.000387914 0.00017616 0.099425)
(0.00030541 2.23764e-06 0.100521)
(0.000245562 -8.38072e-05 0.0991345)
(-0.000107765 0.000107716 0.100299)
(0.000107752 -0.000107762 0.100299)
(-0.000107744 -0.00010777 0.100299)
(9.1807e-05 9.17376e-05 0.10074)
(-9.17619e-05 9.17548e-05 0.10074)
(9.17921e-05 -9.18059e-05 0.10074)
(-9.17711e-05 -9.18159e-05 0.10074)
(-0.000281355 6.39717e-06 0.100752)
(-0.000397691 0.000229098 0.100531)
(-0.000175233 3.73573e-05 0.100332)
(-0.000153095 9.43168e-05 0.100558)
(-0.000358589 1.56376e-05 0.10048)
(-0.000150571 0.000199048 0.100733)
(-0.000152539 3.33062e-05 0.100497)
(0.000835728 -0.000301147 0.0977833)
(0.000305553 -0.000129607 0.0957071)
(6.34697e-06 -0.000281263 0.100752)
(3.73929e-05 -0.00017521 0.100332)
(0.000229192 -0.00039767 0.100531)
(9.42763e-05 -0.000153085 0.100558)
(1.56348e-05 -0.000358465 0.10048)
(3.33552e-05 -0.000152519 0.100498)
(0.000199089 -0.00015057 0.100733)
(-0.000371816 -0.000141059 0.100372)
(-0.000141259 -0.000372063 0.100373)
(-0.00011224 -0.000112316 0.100655)
(9.52617e-06 -7.9735e-05 0.100578)
(-7.99953e-05 9.54237e-06 0.100578)
(-1.65494e-05 0.000199913 0.100859)
(-5.5063e-05 0.000286771 0.0983299)
(-2.04417e-05 0.000208117 0.100784)
(-4.46211e-05 0.000273873 0.0979317)
(-0.000149232 0.00031189 0.092636)
(-0.000138712 0.000274932 0.0909859)
(0.000199839 -1.67094e-05 0.100859)
(0.000287016 -5.49474e-05 0.0983303)
(0.000208156 -2.05764e-05 0.100784)
(0.000274008 -4.45404e-05 0.0979318)
(-9.40734e-05 9.40893e-05 0.10086)
(9.41305e-05 -9.41242e-05 0.10086)
(-9.4108e-05 -9.41226e-05 0.10086)
(9.70646e-05 9.70467e-05 0.101238)
(-9.70372e-05 9.70627e-05 0.101238)
(9.70754e-05 -9.70738e-05 0.101239)
(-9.70682e-05 -9.70687e-05 0.101238)
(-0.000264876 1.32791e-05 0.101151)
(-0.000217099 0.000213953 0.100827)
(-0.000164393 3.10131e-05 0.100897)
(-0.00015966 9.71555e-05 0.101065)
(-0.000297434 1.41242e-05 0.100979)
(-0.000186227 0.000198478 0.100936)
(-0.000168126 3.23996e-05 0.101019)
(0.000311866 -0.000148957 0.0926346)
(0.000274995 -0.000138534 0.0909872)
(1.33508e-05 -0.000264855 0.101151)
(3.10902e-05 -0.000164394 0.100897)
(0.000214024 -0.000217166 0.100827)
(9.71545e-05 -0.000159661 0.101065)
(1.42157e-05 -0.000297394 0.100979)
(3.24692e-05 -0.000168127 0.101019)
(0.00019844 -0.000186172 0.100936)
(-8.28944e-05 -9.58297e-05 0.100454)
(-9.5929e-05 -8.2913e-05 0.100454)
(-0.00011307 -0.000113068 0.101144)
(-8.88767e-05 -8.36544e-05 0.100415)
(-8.37913e-05 -8.89305e-05 0.100415)
(-9.33568e-06 0.000213686 0.100946)
(-2.15988e-05 0.000281089 0.0971489)
(-1.1409e-05 0.000227931 0.100911)
(-1.33827e-05 0.000257646 0.0966957)
(-0.000117199 0.000225808 0.0884005)
(-9.83409e-05 0.000187854 0.0870514)
(0.000213622 -9.449e-06 0.100946)
(0.000281225 -2.15239e-05 0.0971491)
(0.000227986 -1.15262e-05 0.100912)
(0.000257756 -1.32823e-05 0.0966958)
(-9.52035e-05 9.52336e-05 0.101372)
(9.52424e-05 -9.52395e-05 0.101372)
(-9.52339e-05 -9.52359e-05 0.101372)
(9.48433e-05 9.4834e-05 0.101762)
(-9.48218e-05 9.48573e-05 0.101762)
(9.48674e-05 -9.48493e-05 0.101762)
(-9.48501e-05 -9.48512e-05 0.101762)
(-0.000252847 1.2147e-05 0.101577)
(-0.000219384 0.000189925 0.101038)
(-0.000167339 3.27051e-05 0.101407)
(-0.000153823 9.20375e-05 0.101577)
(-0.000288556 1.21835e-05 0.101416)
(-0.000185915 0.000170401 0.10111)
(-0.000165485 3.25233e-05 0.101537)
(0.000225665 -0.000116961 0.0883982)
(0.000187901 -9.82416e-05 0.0870523)
(1.21962e-05 -0.000252833 0.101577)
(3.27465e-05 -0.000167351 0.101407)
(0.000189942 -0.000219422 0.101039)
(9.20357e-05 -0.000153829 0.101577)
(1.22368e-05 -0.000288555 0.101416)
(3.25606e-05 -0.000165484 0.101537)
(0.000170363 -0.000185871 0.10111)
(-0.000115346 -8.96784e-05 0.1002)
(-8.97786e-05 -0.000115417 0.1002)
(-0.000102843 -0.000102848 0.101646)
(-0.00011284 -7.45229e-05 0.100067)
(-7.46093e-05 -0.000112918 0.100067)
(-6.86029e-06 0.00021099 0.100936)
(4.36025e-06 0.000254516 0.0958692)
(-7.91349e-06 0.000235072 0.100942)
(1.15735e-05 0.000233911 0.0954076)
(-7.62615e-05 0.000146946 0.0849998)
(-6.13114e-05 0.000122799 0.0839397)
(0.000210926 -6.96278e-06 0.100936)
(0.00025461 4.39338e-06 0.0958693)
(0.000235144 -7.98861e-06 0.100942)
(0.000233995 1.16878e-05 0.0954078)
(-9.54477e-05 9.5483e-05 0.101893)
(9.54955e-05 -9.54722e-05 0.101893)
(-9.54756e-05 -9.54777e-05 0.101893)
(8.84879e-05 8.84793e-05 0.102269)
(-8.84747e-05 8.85068e-05 0.102269)
(8.85185e-05 -8.84904e-05 0.102269)
(-8.84968e-05 -8.84973e-05 0.102269)
(-0.000241664 1.08819e-05 0.101973)
(-0.000215561 0.000161631 0.101157)
(-0.000169328 3.25188e-05 0.101923)
(-0.000150486 8.90242e-05 0.102081)
(-0.000280335 1.11944e-05 0.101826)
(-0.000179882 0.000142836 0.101196)
(-0.000164899 3.22142e-05 0.102051)
(0.000146788 -7.60763e-05 0.0849971)
(0.000122866 -6.1273e-05 0.0839407)
(1.09223e-05 -0.000241657 0.101973)
(3.25399e-05 -0.000169327 0.101923)
(0.000161684 -0.000215623 0.101158)
(8.90405e-05 -0.00015049 0.102081)
(1.12308e-05 -0.000280347 0.101826)
(3.22316e-05 -0.000164886 0.102051)
(0.000142784 -0.000179828 0.101195)
(-0.000131352 -7.88711e-05 0.0997394)
(-7.8925e-05 -0.000131418 0.099739)
(-9.56212e-05 -9.56238e-05 0.102131)
(-0.000125661 -6.06812e-05 0.0995498)
(-6.07492e-05 -0.00012573 0.0995491)
(-7.35659e-06 0.000196948 0.10084)
(1.59863e-05 0.000219838 0.0945833)
(-6.22746e-06 0.000225011 0.100875)
(2.03141e-05 0.000206696 0.094144)
(-5.35254e-05 9.52692e-05 0.082394)
(-3.20145e-05 7.98174e-05 0.0815479)
(0.000196889 -7.44237e-06 0.100839)
(0.000219882 1.60213e-05 0.0945828)
(0.000225101 -6.28342e-06 0.100875)
(0.00020677 2.04129e-05 0.0941444)
(-8.66932e-05 8.6731e-05 0.102391)
(8.67381e-05 -8.67069e-05 0.102391)
(-8.67167e-05 -8.67148e-05 0.102391)
(7.24345e-05 7.24316e-05 0.102742)
(-7.24311e-05 7.24571e-05 0.102742)
(7.24581e-05 -7.24484e-05 0.102742)
(-7.24538e-05 -7.24531e-05 0.102742)
(-0.000222583 9.01013e-06 0.10233)
(-0.000202115 0.000136158 0.101186)
(-0.000153709 2.94275e-05 0.102421)
(-0.000142718 8.32578e-05 0.102563)
(-0.000260001 9.93621e-06 0.102199)
(-0.000167426 0.000115643 0.101199)
(-0.00015399 2.89551e-05 0.102542)
(9.50935e-05 -5.3354e-05 0.0823914)
(7.97987e-05 -3.1898e-05 0.081549)
(9.04881e-06 -0.000222582 0.10233)
(2.9434e-05 -0.000153701 0.102421)
(0.000136206 -0.000202177 0.101186)
(8.32701e-05 -0.000142716 0.102563)
(9.96231e-06 -0.000260018 0.102199)
(2.89526e-05 -0.000153973 0.102542)
(0.000115589 -0.00016738 0.101199)
(-0.000133844 -6.88581e-05 0.0991415)
(-6.89061e-05 -0.000133899 0.0991409)
(-8.51996e-05 -8.52057e-05 0.102593)
(-0.000128893 -4.48284e-05 0.0989223)
(-4.48717e-05 -0.000128949 0.0989214)
(-9.59805e-06 8.37518e-05 0.10064)
(6.50101e-06 0.000141875 0.0933562)
(-1.65529e-05 0.000180201 0.100711)
(-1.89713e-05 7.08571e-05 0.0930627)
(2.43224e-05 2.38928e-05 0.0805871)
(1.66491e-05 -5.63624e-06 0.0804865)
(8.37165e-05 -9.6602e-06 0.100639)
(0.000141837 6.50748e-06 0.0933553)
(0.000180292 -1.65985e-05 0.100712)
(7.08986e-05 -1.89057e-05 0.0930633)
(-6.28296e-05 6.28381e-05 0.102831)
(6.28425e-05 -6.2843e-05 0.102832)
(-6.28419e-05 -6.28462e-05 0.102831)
(3.53829e-05 3.53629e-05 0.102999)
(-3.53743e-05 3.536e-05 0.102999)
(3.53802e-05 -3.53852e-05 0.102999)
(-3.53803e-05 -3.539e-05 0.102999)
(-9.16555e-05 3.21446e-06 0.102547)
(-0.000142543 8.20399e-05 0.101129)
(-0.000109 2.01026e-05 0.102853)
(-7.62587e-05 4.32766e-05 0.102924)
(-0.00019688 3.36896e-06 0.102501)
(-5.93952e-05 3.1992e-05 0.101083)
(-8.73122e-05 1.7027e-05 0.10292)
(2.37047e-05 2.44999e-05 0.0805848)
(-5.61747e-06 1.67389e-05 0.0804874)
(3.23184e-06 -9.16298e-05 0.102547)
(2.01118e-05 -0.000108989 0.102853)
(8.20603e-05 -0.000142634 0.101129)
(4.328e-05 -7.62635e-05 0.102924)
(3.39043e-06 -0.000196888 0.102501)
(1.70316e-05 -8.72948e-05 0.10292)
(3.19389e-05 -5.93083e-05 0.101082)
(-9.00882e-05 -2.58753e-05 0.0984921)
(-2.58836e-05 -9.01176e-05 0.0984913)
(-1.74373e-05 -1.73833e-05 0.10291)
(-3.35301e-05 7.66825e-06 0.0983379)
(7.66568e-06 -3.3557e-05 0.0983368)
(-8.48356e-07 -9.50743e-06 0.100509)
(-1.83419e-05 2.83382e-05 0.0928653)
(-1.61444e-06 1.8848e-05 0.100522)
(-1.01794e-05 3.15071e-07 0.0928752)
(-8.09857e-06 -4.01239e-06 0.0805324)
(-2.92563e-06 -6.21065e-06 0.0805825)
(-9.58154e-06 -8.70874e-07 0.100508)
(2.83014e-05 -1.84105e-05 0.0928645)
(1.89342e-05 -1.63146e-06 0.100523)
(3.45545e-07 -1.02415e-05 0.0928758)
(-2.716e-05 2.71469e-05 0.103031)
(2.7166e-05 -2.71709e-05 0.103031)
(-2.71675e-05 -2.71756e-05 0.103031)
(8.41985e-06 8.41049e-06 0.103078)
(-8.41464e-06 8.40768e-06 0.103078)
(8.41748e-06 -8.4187e-06 0.103078)
(-8.42096e-06 -8.42562e-06 0.103078)
(3.05318e-06 1.80011e-06 0.102515)
(-3.77254e-05 1.06273e-05 0.100951)
(-3.87402e-05 9.83985e-06 0.103029)
(-2.65735e-05 1.85561e-05 0.103017)
(-4.45618e-05 2.7298e-06 0.102524)
(4.70406e-06 -2.03261e-06 0.100928)
(-2.75988e-05 7.32478e-06 0.103046)
(-4.08203e-06 -8.02166e-06 0.0805297)
(-6.05451e-06 -2.98192e-06 0.0805834)
(1.82864e-06 3.06128e-06 0.102515)
(9.86137e-06 -3.87395e-05 0.103029)
(1.069e-05 -3.77405e-05 0.100952)
(1.85676e-05 -2.65692e-05 0.103017)
(2.74649e-06 -4.45756e-05 0.102524)
(7.34323e-06 -2.75954e-05 0.103046)
(-2.05149e-06 4.78407e-06 0.100927)
(-1.15663e-05 2.85208e-06 0.0981302)
(2.883e-06 -1.1571e-05 0.0981294)
(2.7413e-05 2.74185e-05 0.10295)
(1.44678e-06 9.53695e-06 0.0980915)
(9.5522e-06 1.42921e-06 0.0980904)
(-1.48653e-07 -9.58082e-06 0.100489)
(-8.67197e-07 7.27783e-06 0.0928586)
(-5.46849e-07 8.9791e-06 0.100477)
(-1.57902e-06 -6.6268e-06 0.0928791)
(-3.05924e-06 2.29445e-06 0.0805755)
(1.6179e-06 -2.96122e-06 0.0805965)
(-9.65366e-06 -1.47901e-07 0.100488)
(7.25146e-06 -9.1477e-07 0.0928578)
(9.05488e-06 -5.27078e-07 0.100478)
(-6.58495e-06 -1.55034e-06 0.0928798)
(-4.91311e-06 4.90787e-06 0.103083)
(4.91444e-06 -4.91527e-06 0.103083)
(-4.91877e-06 -4.92223e-06 0.103083)
(2.6705e-07 2.70294e-07 0.103089)
(-2.69853e-07 2.69267e-07 0.103089)
(2.7249e-07 -2.69462e-07 0.103089)
(-2.75576e-07 -2.74336e-07 0.103089)
(1.4324e-05 1.55188e-07 0.102497)
(-1.73261e-05 4.9961e-06 0.100875)
(-7.60676e-06 1.83314e-06 0.103067)
(-4.34888e-06 3.5603e-06 0.103026)
(-1.86513e-05 2.20347e-07 0.102494)
(1.36079e-05 -4.48806e-06 0.100891)
(-4.61472e-06 9.59323e-07 0.103068)
(2.1851e-06 -2.97918e-06 0.0805725)
(-2.83378e-06 1.55547e-06 0.0805972)
(1.67188e-07 1.43359e-05 0.102497)
(1.8384e-06 -7.60744e-06 0.103067)
(5.05646e-06 -1.73826e-05 0.100875)
(3.56176e-06 -4.35265e-06 0.103026)
(2.19522e-07 -1.86649e-05 0.102494)
(9.62196e-07 -4.61176e-06 0.103068)
(-4.52196e-06 1.36526e-05 0.10089)
(-5.34898e-06 -5.29561e-06 0.0980301)
(-5.27866e-06 -5.34272e-06 0.0980293)
(4.40743e-05 4.40915e-05 0.102942)
(3.96672e-06 5.42513e-06 0.0980449)
(5.42195e-06 3.95816e-06 0.0980439)
(5.14848e-08 -9.56723e-06 0.100487)
(6.58588e-07 6.86433e-06 0.0928593)
(-1.26004e-07 9.25788e-06 0.100473)
(-1.13609e-06 -6.6682e-06 0.0928792)
(-2.01344e-06 2.85814e-06 0.0805763)
(1.92942e-06 -2.83439e-06 0.0805965)
(-9.63766e-06 4.58648e-08 0.100486)
(6.82477e-06 6.21171e-07 0.0928585)
(9.32925e-06 -1.114e-07 0.100473)
(-6.63089e-06 -1.09997e-06 0.0928799)
(2.12394e-07 -2.1173e-07 0.103089)
(-2.08894e-07 2.12511e-07 0.103089)
(2.06509e-07 2.08413e-07 0.103089)
(-6.75035e-07 -6.68301e-07 0.10309)
(6.73915e-07 -6.70939e-07 0.10309)
(-6.6888e-07 6.74383e-07 0.10309)
(6.68582e-07 6.7104e-07 0.10309)
(1.5481e-05 8.49786e-08 0.102495)
(-1.52856e-05 4.28701e-06 0.100867)
(-1.16974e-06 -3.83015e-08 0.10307)
(-7.11269e-07 9.23369e-07 0.103026)
(-1.58609e-05 -1.10049e-07 0.102489)
(1.44287e-05 -4.72334e-06 0.100889)
(-8.76289e-07 -1.22612e-07 0.10307)
(2.73624e-06 -1.93635e-06 0.0805733)
(-2.7128e-06 1.86691e-06 0.0805972)
(9.45357e-08 1.54903e-05 0.102495)
(-3.97377e-08 -1.16869e-06 0.10307)
(4.32694e-06 -1.53414e-05 0.100867)
(9.19769e-07 -7.12153e-07 0.103026)
(-1.13586e-07 -1.5878e-05 0.102489)
(-1.24528e-07 -8.71145e-07 0.10307)
(-4.76924e-06 1.44819e-05 0.100888)
(-4.6439e-06 -5.65535e-06 0.0980213)
(-5.64161e-06 -4.63762e-06 0.0980206)
(4.61574e-05 4.61771e-05 0.102939)
(4.26631e-06 5.47228e-06 0.0980424)
(5.46558e-06 4.25895e-06 0.0980413)
(7.22021e-08 -9.55842e-06 0.100487)
(7.02816e-07 6.87332e-06 0.0928593)
(-8.4677e-08 9.25163e-06 0.100472)
(-1.10878e-06 -6.6537e-06 0.0928793)
(-1.96833e-06 2.86122e-06 0.0805764)
(1.93776e-06 -2.8256e-06 0.0805965)
(-9.62904e-06 6.07219e-08 0.100486)
(6.83359e-06 6.647e-07 0.0928585)
(9.3235e-06 -7.05415e-08 0.100473)
(-6.60624e-06 -1.07724e-06 0.0928801)
(7.05116e-07 -7.01873e-07 0.10309)
(-6.99797e-07 7.05532e-07 0.10309)
(6.99674e-07 7.02362e-07 0.10309)
(-7.26684e-07 -7.16636e-07 0.10309)
(7.29286e-07 -7.21968e-07 0.10309)
(-7.22901e-07 7.30317e-07 0.10309)
(7.23283e-07 7.26492e-07 0.10309)
(1.55286e-05 9.09406e-08 0.102495)
(-1.51362e-05 4.28117e-06 0.100867)
(-6.38834e-07 -1.85054e-07 0.10307)
(-4.90898e-07 7.54327e-07 0.103026)
(-1.56784e-05 -1.02478e-07 0.102489)
(1.44683e-05 -4.70888e-06 0.100888)
(-6.253e-07 -1.87878e-07 0.10307)
(2.74552e-06 -1.89811e-06 0.0805734)
(-2.70474e-06 1.87257e-06 0.0805972)
(9.94292e-08 1.55395e-05 0.102495)
(-1.87964e-07 -6.37385e-07 0.10307)
(4.31951e-06 -1.51913e-05 0.100867)
(7.49085e-07 -4.91563e-07 0.103026)
(-1.07892e-07 -1.56929e-05 0.102489)
(-1.90883e-07 -6.19683e-07 0.10307)
(-4.7541e-06 1.45199e-05 0.100888)
(-4.6061e-06 -5.62734e-06 0.0980211)
(-5.61461e-06 -4.59926e-06 0.0980204)
(4.6252e-05 4.62706e-05 0.102939)
(4.27165e-06 5.47558e-06 0.0980424)
(5.46856e-06 4.26446e-06 0.0980413)
(6.92283e-08 -9.55218e-06 0.100487)
(7.90567e-07 6.91281e-06 0.0928596)
(-7.1308e-08 9.26051e-06 0.100472)
(-1.13857e-06 -6.66315e-06 0.0928792)
(-1.96344e-06 2.85937e-06 0.0805764)
(1.93649e-06 -2.82229e-06 0.0805966)
(-9.62364e-06 5.9891e-08 0.100486)
(6.83701e-06 6.68113e-07 0.0928585)
(9.3291e-06 -6.83905e-08 0.100473)
(-6.60374e-06 -1.07758e-06 0.0928801)
(7.30793e-07 -7.24108e-07 0.10309)
(-7.23795e-07 7.31034e-07 0.10309)
(7.24163e-07 7.27065e-07 0.10309)
(-7.32237e-07 -7.26204e-07 0.10309)
(7.3042e-07 -7.24778e-07 0.10309)
(-7.24982e-07 7.31189e-07 0.10309)
(7.24998e-07 7.27195e-07 0.10309)
(1.55239e-05 9.18091e-08 0.102495)
(-1.51356e-05 4.28924e-06 0.100867)
(-6.21425e-07 -1.89205e-07 0.10307)
(-4.8719e-07 7.49227e-07 0.103026)
(-1.56762e-05 -1.00413e-07 0.102489)
(1.44636e-05 -4.70637e-06 0.100888)
(-6.19621e-07 -1.89158e-07 0.10307)
(2.74088e-06 -1.89055e-06 0.0805734)
(-2.70202e-06 1.87355e-06 0.0805973)
(9.9677e-08 1.55348e-05 0.102495)
(-1.92202e-07 -6.19849e-07 0.10307)
(4.32759e-06 -1.51903e-05 0.100867)
(7.44399e-07 -4.87983e-07 0.103026)
(-1.06944e-07 -1.56908e-05 0.102489)
(-1.92213e-07 -6.14304e-07 0.10307)
(-4.75045e-06 1.45163e-05 0.100888)
(-4.60571e-06 -5.62896e-06 0.0980211)
(-5.6163e-06 -4.59894e-06 0.0980204)
(4.62516e-05 4.627e-05 0.102939)
(4.26938e-06 5.47505e-06 0.0980424)
(5.46811e-06 4.2619e-06 0.0980413)
(6.51932e-08 -9.55392e-06 0.100487)
(7.08224e-07 6.89449e-06 0.0928596)
(-8.69862e-08 9.2569e-06 0.100472)
(-1.12485e-06 -6.66218e-06 0.0928793)
(-1.96208e-06 2.85747e-06 0.0805764)
(1.93226e-06 -2.81919e-06 0.0805966)
(-9.623e-06 5.72703e-08 0.100486)
(6.83928e-06 6.61605e-07 0.0928585)
(9.33017e-06 -7.2303e-08 0.100473)
(-6.60281e-06 -1.08233e-06 0.0928801)
(7.3118e-07 -7.24547e-07 0.10309)
(-7.24971e-07 7.30462e-07 0.10309)
(7.24685e-07 7.26313e-07 0.10309)
(-7.31703e-07 -7.27516e-07 0.10309)
(7.36655e-07 -7.16878e-07 0.10309)
(-7.24543e-07 7.31245e-07 0.10309)
(7.25951e-07 7.24022e-07 0.10309)
(1.55211e-05 9.11258e-08 0.102495)
(-1.51344e-05 4.28818e-06 0.100867)
(-6.23615e-07 -1.89728e-07 0.10307)
(-4.89966e-07 7.4711e-07 0.103026)
(-1.56744e-05 -1.00971e-07 0.102489)
(1.44631e-05 -4.70635e-06 0.100888)
(-6.22773e-07 -1.89926e-07 0.10307)
(2.74255e-06 -1.89544e-06 0.0805734)
(-2.7036e-06 1.87355e-06 0.0805973)
(9.96129e-08 1.55322e-05 0.102495)
(-1.92136e-07 -6.20707e-07 0.10307)
(4.32791e-06 -1.51899e-05 0.100867)
(7.43545e-07 -4.88342e-07 0.103026)
(-1.06438e-07 -1.56893e-05 0.102489)
(-1.92281e-07 -6.14754e-07 0.10307)
(-4.74947e-06 1.45154e-05 0.100888)
(-4.60825e-06 -5.62957e-06 0.0980211)
(-5.6162e-06 -4.60208e-06 0.0980204)
(4.62462e-05 4.62646e-05 0.102939)
(4.27104e-06 5.47471e-06 0.0980424)
(5.46844e-06 4.26283e-06 0.0980413)
(1.87771e-05 1.87664e-05 0.100003)
(8.1023e-05 0.000135042 0.100054)
(0.000135102 8.10341e-05 0.100054)
(0.000413875 0.00104237 0.0978726)
(0.000115163 0.000204355 0.100125)
(0.00104147 0.000411251 0.0978725)
(0.000204503 0.000115191 0.100125)
(0.000102335 0.000102298 0.100042)
(0.000117691 0.000514124 0.10027)
(0.000512988 0.000117314 0.10027)
(0.000117301 0.00018025 0.100097)
(0.000180389 0.000117322 0.100097)
(5.72248e-06 4.66746e-05 0.100008)
(1.56153e-05 1.53036e-05 0.0999999)
(6.04382e-05 0.000127929 0.100057)
(-8.57247e-07 1.30938e-05 0.0999958)
(-5.73346e-06 4.66832e-05 0.100008)
(-1.56129e-05 1.52985e-05 0.0999999)
(-6.04109e-05 0.000127917 0.100057)
(8.57781e-07 1.30945e-05 0.0999958)
(4.58819e-06 0.000154577 0.100054)
(0.000326652 0.000316032 0.0993474)
(9.83566e-05 0.000167664 0.100056)
(7.30768e-06 0.000328185 0.100415)
(-4.62793e-06 0.000154592 0.100054)
(-0.000326118 0.000316744 0.0993473)
(-9.82932e-05 0.000167625 0.100056)
(-7.29798e-06 0.000328293 0.100415)