/*--------------------------------*- C++ -*----------------------------------*\
| =========                 |                                                 |
| \\      /  F ield         | OpenFOAM: The Open Source CFD Toolbox           |
|  \\    /   O peration     | Version:  2206                                  |
|   \\  /    A nd           | Website:  www.openfoam.com                      |
|    \\/     M anipulation  |                                                 |
\*---------------------------------------------------------------------------*/
FoamFile
{
    version     2.0;
    format      ascii;
    arch        "LSB;label=32;scalar=64";
    class       volScalarField;
    location    "37.5";
    object      epsilon;
}
// * * * * * * * * * * * * * * * * * * * * * * * * * * * * * * * * * * * * * //

dimensions      [0 2 -3 0 0 0 0];

internalField   nonuniform List<scalar> 
28688
(
4.95563e-07
4.97329e-07
4.97329e-07
4.99574e-07
4.45555e-07
4.53726e-07
4.53728e-07
4.63709e-07
4.0373e-07
4.185e-07
4.18504e-07
4.39411e-07
3.68405e-07
3.88573e-07
3.8858e-07
4.17675e-07
3.38056e-07
3.62116e-07
3.62124e-07
3.96076e-07
3.11472e-07
3.38218e-07
3.38226e-07
3.74592e-07
2.88899e-07
3.16796e-07
3.16805e-07
3.53653e-07
2.66805e-07
2.95675e-07
2.95684e-07
3.33333e-07
2.48787e-07
2.76245e-07
2.76255e-07
3.10309e-07
2.42873e-07
2.7178e-07
2.71791e-07
3.05767e-07
2.41985e-07
2.71528e-07
2.71538e-07
3.06432e-07
2.41918e-07
2.71525e-07
2.71536e-07
3.06503e-07
5.06419e-07
5.05585e-07
5.05583e-07
5.06419e-07
5.05583e-07
5.05583e-07
5.0965e-07
5.0965e-07
5.0965e-07
5.0965e-07
5.05585e-07
5.05584e-07
5.0642e-07
5.05585e-07
5.05584e-07
5.0642e-07
4.99574e-07
4.6724e-07
4.9733e-07
4.97334e-07
4.63714e-07
4.63722e-07
4.99574e-07
4.67237e-07
4.97334e-07
4.97335e-07
4.63718e-07
4.63724e-07
4.97331e-07
4.6371e-07
4.63715e-07
4.99574e-07
4.67243e-07
4.97333e-07
4.63711e-07
4.63719e-07
4.67242e-07
4.63708e-07
4.41431e-07
4.53731e-07
4.53739e-07
4.2675e-07
4.26758e-07
4.63707e-07
4.41425e-07
4.53736e-07
4.53743e-07
4.26751e-07
4.26763e-07
4.53733e-07
4.26741e-07
4.26752e-07
4.63711e-07
4.41436e-07
4.53736e-07
4.26746e-07
4.26753e-07
4.41434e-07
4.39407e-07
4.19291e-07
4.1851e-07
4.18518e-07
3.95704e-07
3.9571e-07
4.39405e-07
4.19283e-07
4.1851e-07
4.18523e-07
3.957e-07
3.95717e-07
4.18513e-07
3.95691e-07
3.95707e-07
4.39413e-07
4.19297e-07
4.18511e-07
3.95697e-07
3.95702e-07
4.19295e-07
4.1767e-07
3.97638e-07
3.88588e-07
3.88593e-07
3.68437e-07
3.68441e-07
4.17664e-07
3.97628e-07
3.88582e-07
3.886e-07
3.68427e-07
3.68448e-07
3.88591e-07
3.6842e-07
3.6844e-07
4.17676e-07
3.97644e-07
3.88584e-07
3.68427e-07
3.68429e-07
3.97642e-07
3.96071e-07
3.76106e-07
3.62134e-07
3.62138e-07
3.44049e-07
3.44052e-07
3.96064e-07
3.76096e-07
3.62124e-07
3.62146e-07
3.44036e-07
3.4406e-07
3.62137e-07
3.4403e-07
3.44052e-07
3.96077e-07
3.76112e-07
3.62126e-07
3.44039e-07
3.44038e-07
3.76111e-07
3.74587e-07
3.55037e-07
3.38238e-07
3.38241e-07
3.21799e-07
3.218e-07
3.74579e-07
3.55027e-07
3.38224e-07
3.38249e-07
3.21783e-07
3.21808e-07
3.38241e-07
3.21778e-07
3.21801e-07
3.74593e-07
3.55043e-07
3.38226e-07
3.21787e-07
3.21784e-07
3.55042e-07
3.53647e-07
3.34931e-07
3.16817e-07
3.1682e-07
3.01586e-07
3.01586e-07
3.53639e-07
3.34921e-07
3.16802e-07
3.16827e-07
3.01566e-07
3.01593e-07
3.16821e-07
3.01563e-07
3.01587e-07
3.53653e-07
3.34936e-07
3.16803e-07
3.01572e-07
3.01567e-07
3.34936e-07
3.33327e-07
3.11274e-07
2.95698e-07
2.957e-07
2.79622e-07
2.79626e-07
3.33319e-07
3.11268e-07
2.9568e-07
2.95708e-07
2.79606e-07
2.79634e-07
2.957e-07
2.79602e-07
2.79625e-07
3.33333e-07
3.11282e-07
2.9568e-07
2.79612e-07
2.79605e-07
3.11281e-07
3.10302e-07
3.05412e-07
2.76268e-07
2.76272e-07
2.72122e-07
2.72126e-07
3.10297e-07
3.05403e-07
2.76251e-07
2.76279e-07
2.72105e-07
2.72134e-07
2.76271e-07
2.721e-07
2.72124e-07
3.1031e-07
3.0542e-07
2.76251e-07
2.7211e-07
2.72104e-07
3.05419e-07
3.05764e-07
3.06103e-07
2.71804e-07
2.71809e-07
2.71566e-07
2.71572e-07
3.05757e-07
3.06094e-07
2.71787e-07
2.71817e-07
2.71549e-07
2.71579e-07
2.71807e-07
2.71543e-07
2.71569e-07
3.05773e-07
3.06112e-07
2.71786e-07
2.71553e-07
2.71548e-07
3.06112e-07
3.06427e-07
3.06221e-07
2.71552e-07
2.71558e-07
2.71548e-07
2.71554e-07
3.06419e-07
3.06212e-07
2.71536e-07
2.71565e-07
2.71532e-07
2.71561e-07
2.71556e-07
2.71525e-07
2.71552e-07
3.06435e-07
3.06229e-07
2.71535e-07
2.71535e-07
2.7153e-07
3.0623e-07
3.06495e-07
3.06245e-07
2.71551e-07
2.71557e-07
2.71555e-07
3.06488e-07
2.71534e-07
2.71564e-07
2.71538e-07
2.71567e-07
2.71555e-07
2.71558e-07
3.06504e-07
3.06253e-07
2.71533e-07
2.71542e-07
2.71537e-07
3.06254e-07
5.35664e-07
5.35602e-07
5.35656e-07
5.35656e-07
5.34573e-07
5.35517e-07
5.33634e-07
5.35655e-07
5.34573e-07
5.35517e-07
5.35655e-07
5.33634e-07
5.35259e-07
5.35987e-07
5.35987e-07
1.10757e-06
3.88205e-06
9.33631e-07
4.60456e-06
1.26082e-05
1.65953e-05
1.10771e-06
3.8823e-06
9.33645e-07
4.60492e-06
4.95563e-07
4.95563e-07
4.95563e-07
4.5723e-07
4.5723e-07
4.5723e-07
4.5723e-07
5.43216e-07
1.22027e-06
4.95562e-07
4.85522e-07
5.25291e-07
1.20958e-06
4.82302e-07
1.26098e-05
1.65978e-05
5.43239e-07
4.95562e-07
1.22025e-06
4.85523e-07
5.25267e-07
4.82302e-07
1.20958e-06
2.52165e-06
2.52235e-06
4.84191e-07
2.37278e-06
2.37317e-06
1.43147e-06
5.59511e-06
1.32928e-06
6.1345e-06
2.12908e-05
2.31051e-05
1.43197e-06
5.59578e-06
1.32928e-06
6.13515e-06
4.45555e-07
4.45556e-07
4.45556e-07
4.13561e-07
4.13561e-07
4.13562e-07
4.13562e-07
5.87084e-07
1.19482e-06
4.46421e-07
4.44288e-07
5.73789e-07
1.20434e-06
4.35686e-07
2.12931e-05
2.31086e-05
5.87105e-07
4.46422e-07
1.19483e-06
4.44291e-07
5.73791e-07
4.35688e-07
1.20443e-06
2.31161e-06
2.31212e-06
4.53488e-07
2.35333e-06
2.35378e-06
1.66295e-06
6.92017e-06
1.59593e-06
7.31759e-06
2.46443e-05
2.49355e-05
1.6631e-06
6.92099e-06
1.59563e-06
7.31858e-06
4.0373e-07
4.03731e-07
4.03731e-07
3.76742e-07
3.76741e-07
3.76743e-07
3.76742e-07
6.15562e-07
1.24279e-06
4.0653e-07
4.10596e-07
6.08372e-07
1.26559e-06
3.97698e-07
2.46476e-05
2.49389e-05
6.15579e-07
4.06531e-07
1.24288e-06
4.106e-07
6.08386e-07
3.97701e-07
1.26575e-06
2.47374e-06
2.47421e-06
4.30175e-07
2.53271e-06
2.53319e-06
1.81273e-06
7.8488e-06
1.77179e-06
8.09681e-06
2.47454e-05
2.4421e-05
1.81293e-06
7.8498e-06
1.77171e-06
8.09808e-06
3.68405e-07
3.68407e-07
3.68406e-07
3.45139e-07
3.45138e-07
3.45141e-07
3.4514e-07
6.2631e-07
1.31303e-06
3.73512e-07
3.81641e-07
6.24841e-07
1.33376e-06
3.66008e-07
2.4748e-05
2.44243e-05
6.26326e-07
3.73513e-07
1.31312e-06
3.81647e-07
6.2485e-07
3.66011e-07
1.33393e-06
2.63511e-06
2.6356e-06
4.08472e-07
2.67935e-06
2.67985e-06
1.89175e-06
8.3981e-06
1.87419e-06
8.52678e-06
2.37036e-05
2.32528e-05
1.8919e-06
8.39919e-06
1.87422e-06
8.52827e-06
3.38056e-07
3.38059e-07
3.38058e-07
3.17895e-07
3.17894e-07
3.17897e-07
3.17896e-07
6.2201e-07
1.37215e-06
3.45269e-07
3.55972e-07
6.25497e-07
1.38707e-06
3.38857e-07
2.37058e-05
2.32556e-05
6.22022e-07
3.45271e-07
1.37223e-06
3.5598e-07
6.25508e-07
3.3886e-07
1.38724e-06
2.76341e-06
2.76394e-06
3.86851e-07
2.80533e-06
2.80587e-06
1.92833e-06
8.66775e-06
1.92163e-06
8.71349e-06
2.25112e-05
2.21078e-05
1.92857e-06
8.66911e-06
1.92154e-06
8.71493e-06
3.11471e-07
3.11475e-07
3.11474e-07
2.94127e-07
2.94125e-07
2.94129e-07
2.94128e-07
6.08744e-07
1.41622e-06
3.2036e-07
3.32537e-07
6.1546e-07
1.42741e-06
3.14564e-07
2.25129e-05
2.21102e-05
6.08764e-07
3.20362e-07
1.4163e-06
3.32546e-07
6.15465e-07
3.14568e-07
1.42756e-06
2.89583e-06
2.89643e-06
3.6544e-07
2.94311e-06
2.94373e-06
1.93743e-06
8.76631e-06
1.93963e-06
8.7683e-06
2.14909e-05
2.11554e-05
1.93752e-06
8.76772e-06
1.93965e-06
8.76975e-06
2.88899e-07
2.88903e-07
2.88902e-07
2.72564e-07
2.72562e-07
2.72566e-07
2.72565e-07
5.90043e-07
1.4513e-06
2.9868e-07
3.11966e-07
5.99064e-07
1.46108e-06
2.93661e-07
2.14925e-05
2.11576e-05
5.90054e-07
2.98682e-07
1.45138e-06
3.11975e-07
5.99074e-07
2.93665e-07
1.46123e-06
3.04955e-06
3.05024e-06
3.45116e-07
3.10407e-06
3.10482e-06
1.8915e-06
8.75212e-06
1.94842e-06
8.73951e-06
2.08165e-05
2.07705e-05
1.89175e-06
8.75353e-06
1.9485e-06
8.74092e-06
2.66805e-07
2.66809e-07
2.66807e-07
2.52081e-07
2.52079e-07
2.52083e-07
2.52081e-07
5.61514e-07
1.46831e-06
2.77511e-07
2.89684e-07
5.79776e-07
1.44851e-06
2.71896e-07
2.08182e-05
2.07721e-05
5.61514e-07
2.77513e-07
1.46842e-06
2.89693e-07
5.79799e-07
2.719e-07
1.44858e-06
3.18357e-06
3.1844e-06
3.22755e-07
3.1894e-06
3.19023e-06
1.819e-06
8.77085e-06
1.82249e-06
8.80746e-06
2.08132e-05
2.08517e-05
1.81896e-06
8.77224e-06
1.82224e-06
8.80873e-06
2.48788e-07
2.48791e-07
2.4879e-07
2.43574e-07
2.43573e-07
2.43577e-07
2.43575e-07
5.30365e-07
1.43815e-06
2.58805e-07
2.74045e-07
5.35509e-07
1.44292e-06
2.56328e-07
2.08142e-05
2.0852e-05
5.30372e-07
2.58807e-07
1.43816e-06
2.74055e-07
5.35505e-07
2.56331e-07
1.44306e-06
3.2348e-06
3.23567e-06
3.06064e-07
3.27083e-06
3.2718e-06
1.83218e-06
8.83913e-06
1.82998e-06
8.84323e-06
2.08779e-05
2.08828e-05
1.83214e-06
8.84053e-06
1.82979e-06
8.8447e-06
2.42874e-07
2.42878e-07
2.42875e-07
2.42062e-07
2.42062e-07
2.42065e-07
2.42063e-07
5.33045e-07
1.4665e-06
2.53002e-07
2.71639e-07
5.32162e-07
1.46998e-06
2.52645e-07
2.08783e-05
2.0883e-05
5.33048e-07
2.53004e-07
1.46641e-06
2.7165e-07
5.32166e-07
2.52648e-07
1.46999e-06
3.31136e-06
3.31236e-06
3.05815e-07
3.31707e-06
3.31809e-06
1.83345e-06
8.84481e-06
1.83394e-06
8.84463e-06
2.08833e-05
2.08836e-05
1.83339e-06
8.84635e-06
1.83383e-06
8.84608e-06
2.41985e-07
2.41989e-07
2.41987e-07
2.4192e-07
2.4192e-07
2.41924e-07
2.41922e-07
5.33931e-07
1.47279e-06
2.52273e-07
2.71524e-07
5.34019e-07
1.47209e-06
2.52246e-07
2.08834e-05
2.08837e-05
5.33939e-07
2.52275e-07
1.47276e-06
2.71535e-07
5.34028e-07
2.52249e-07
1.4721e-06
3.32005e-06
3.32107e-06
3.0621e-07
3.31953e-06
3.32055e-06
1.83355e-06
8.84504e-06
1.83414e-06
8.84475e-06
2.08834e-05
2.08837e-05
1.83349e-06
8.84644e-06
1.83402e-06
8.84609e-06
2.4192e-07
2.41924e-07
2.41922e-07
2.4192e-07
2.41923e-07
2.41925e-07
2.41922e-07
5.34012e-07
1.47311e-06
2.52228e-07
2.71528e-07
5.34173e-07
1.47223e-06
2.5223e-07
2.08835e-05
2.08838e-05
5.34019e-07
2.5223e-07
1.47308e-06
2.71539e-07
5.3418e-07
2.52231e-07
1.47224e-06
3.32014e-06
3.32116e-06
3.06224e-07
3.31956e-06
3.32059e-06
5.35259e-07
5.3599e-07
5.35988e-07
1.0916e-05
5.81346e-07
1.09173e-05
5.81338e-07
5.28204e-07
2.43133e-06
2.43225e-06
5.40833e-07
5.4083e-07
5.34573e-07
5.35517e-07
5.33635e-07
5.35655e-07
5.34573e-07
5.35517e-07
5.33634e-07
5.35655e-07
5.30398e-07
3.47219e-06
5.68207e-07
8.21343e-07
5.30397e-07
3.47221e-06
5.68206e-07
8.2131e-07
5.29522e-07
5.28379e-07
1.16688e-06
5.09602e-07
5.32664e-07
5.28352e-07
5.19215e-07
5.29522e-07
5.2838e-07
1.16703e-06
5.09602e-07
5.32664e-07
5.28352e-07
5.19218e-07
5.35258e-07
5.35989e-07
5.35988e-07
1.09162e-05
5.81325e-07
5.28204e-07
2.4318e-06
2.43195e-06
5.40834e-07
5.4083e-07
1.09169e-05
5.81319e-07
5.34573e-07
5.35517e-07
5.33635e-07
5.35655e-07
5.34573e-07
5.35517e-07
5.35655e-07
5.33635e-07
5.30398e-07
3.47253e-06
5.68204e-07
8.215e-07
5.29522e-07
5.2838e-07
1.16715e-06
5.09602e-07
5.32663e-07
5.28352e-07
5.19224e-07
5.30398e-07
3.47262e-06
5.68202e-07
8.21401e-07
5.29522e-07
5.2838e-07
5.09602e-07
1.16705e-06
5.28352e-07
5.32663e-07
5.19218e-07
5.35664e-07
5.35602e-07
5.35656e-07
5.35656e-07
5.35664e-07
5.35602e-07
5.35656e-07
5.35656e-07
5.35664e-07
5.35602e-07
5.35656e-07
5.35656e-07
5.28433e-07
5.28375e-07
5.09726e-07
5.09726e-07
5.28407e-07
5.28407e-07
5.09782e-07
5.28433e-07
5.28375e-07
5.09726e-07
5.09726e-07
5.28407e-07
5.28407e-07
5.09782e-07
5.28433e-07
5.28375e-07
5.09726e-07
5.09726e-07
5.28407e-07
5.28407e-07
5.09782e-07
5.28433e-07
5.28375e-07
5.09726e-07
5.09726e-07
5.28407e-07
5.28407e-07
5.09782e-07
5.34573e-07
5.35517e-07
5.35655e-07
5.33634e-07
5.29522e-07
5.2838e-07
1.16709e-06
5.09602e-07
5.32663e-07
5.28352e-07
5.19221e-07
5.30398e-07
3.47241e-06
5.68198e-07
8.21399e-07
5.29522e-07
5.28379e-07
5.09602e-07
1.16696e-06
5.28352e-07
5.32662e-07
5.19217e-07
5.30398e-07
3.47255e-06
5.68202e-07
8.21345e-07
5.35258e-07
5.35987e-07
5.35986e-07
1.09175e-05
5.81335e-07
5.28204e-07
2.43208e-06
2.43192e-06
5.4083e-07
5.40827e-07
1.09173e-05
5.81314e-07
5.34573e-07
5.35517e-07
5.35655e-07
5.33634e-07
5.29522e-07
5.2838e-07
5.09603e-07
1.16703e-06
5.28352e-07
5.32662e-07
5.19221e-07
5.29522e-07
5.2838e-07
5.09602e-07
1.16714e-06
5.28352e-07
5.32664e-07
5.19224e-07
5.30397e-07
3.47258e-06
5.68196e-07
8.2148e-07
5.30397e-07
3.47259e-06
5.68207e-07
8.21568e-07
5.28204e-07
2.43172e-06
2.43239e-06
5.40828e-07
5.40829e-07
1.09172e-05
5.81318e-07
1.09174e-05
5.81332e-07
1.2608e-05
1.65944e-05
1.26095e-05
1.6597e-05
2.52159e-06
2.52234e-06
4.8419e-07
2.37245e-06
2.37317e-06
2.05245e-05
1.7691e-05
2.0528e-05
1.7694e-05
4.793e-07
2.30604e-06
2.3067e-06
2.33904e-06
2.3398e-06
1.10743e-06
3.88202e-06
9.33741e-07
4.60445e-06
5.432e-07
1.22015e-06
4.95562e-07
4.85524e-07
5.25305e-07
1.20951e-06
4.82302e-07
5.43197e-07
1.22033e-06
4.95562e-07
4.85531e-07
5.25312e-07
1.20976e-06
4.82302e-07
1.16066e-06
5.40648e-06
4.81175e-06
1.28113e-06
1.16076e-06
5.40645e-06
4.81179e-06
1.28114e-06
5.50957e-07
4.74304e-07
1.19327e-06
4.57763e-07
1.20467e-06
4.69718e-07
5.66461e-07
5.50958e-07
4.74312e-07
1.19345e-06
4.57763e-07
1.20483e-06
4.69718e-07
5.66457e-07
2.52208e-06
2.52183e-06
4.84189e-07
2.37305e-06
2.37256e-06
1.26087e-05
1.65955e-05
2.05257e-05
1.76927e-05
4.793e-07
2.30657e-06
2.30626e-06
2.33958e-06
2.33937e-06
2.05256e-05
1.76918e-05
5.43237e-07
1.22041e-06
4.95562e-07
4.85529e-07
5.25302e-07
1.20979e-06
4.82302e-07
1.10766e-06
3.88256e-06
9.33495e-07
4.60526e-06
5.43231e-07
4.95562e-07
1.22037e-06
4.85532e-07
5.25292e-07
4.82302e-07
1.20978e-06
1.16065e-06
5.40696e-06
4.8121e-06
1.28134e-06
5.50953e-07
4.7431e-07
1.19347e-06
4.57763e-07
1.20485e-06
4.69718e-07
5.66484e-07
1.16064e-06
5.40744e-06
4.81255e-06
1.28133e-06
5.50955e-07
4.74314e-07
4.57764e-07
1.19352e-06
4.69719e-07
1.20489e-06
5.66488e-07
1.10758e-06
3.88203e-06
9.33597e-07
4.60475e-06
5.43214e-07
4.95562e-07
1.22024e-06
4.85525e-07
5.2528e-07
4.82302e-07
1.20964e-06
1.1076e-06
3.88251e-06
9.33434e-07
4.60494e-06
5.50952e-07
4.74301e-07
1.19327e-06
4.57762e-07
1.20467e-06
4.69717e-07
5.66466e-07
1.16069e-06
5.40654e-06
4.81152e-06
1.28124e-06
5.50951e-07
4.74306e-07
4.57763e-07
1.19333e-06
4.69718e-07
1.20466e-06
5.66464e-07
1.1606e-06
5.40689e-06
4.81237e-06
1.28121e-06
2.52226e-06
2.52176e-06
4.84192e-07
2.37317e-06
2.37241e-06
1.26095e-05
1.6596e-05
2.05289e-05
1.76944e-05
4.793e-07
2.30676e-06
2.30621e-06
2.33971e-06
2.33924e-06
2.05265e-05
1.76935e-05
5.43247e-07
4.95562e-07
1.22041e-06
4.8553e-07
5.25279e-07
4.82302e-07
1.20978e-06
1.10787e-06
3.88247e-06
9.33358e-07
4.60503e-06
1.10793e-06
3.88236e-06
9.33475e-07
4.60493e-06
5.50946e-07
4.74302e-07
4.57763e-07
1.19332e-06
4.69718e-07
1.20473e-06
5.66486e-07
5.50945e-07
4.7431e-07
4.57763e-07
1.19345e-06
4.69718e-07
1.20482e-06
5.66493e-07
1.16041e-06
5.40715e-06
4.81235e-06
1.28137e-06
1.16044e-06
5.40713e-06
4.8121e-06
1.2814e-06
1.26091e-05
1.65959e-05
1.26096e-05
1.65967e-05
4.793e-07
2.30617e-06
2.30667e-06
2.33894e-06
2.33976e-06
2.05259e-05
1.7693e-05
2.05275e-05
1.76942e-05
2.12888e-05
2.31035e-05
2.12926e-05
2.31076e-05
2.31146e-06
2.31215e-06
4.53485e-07
2.35306e-06
2.35365e-06
2.44664e-05
2.35392e-05
2.447e-05
2.35428e-05
4.50882e-07
2.44245e-06
2.44319e-06
2.38102e-06
2.38159e-06
1.43147e-06
5.59517e-06
1.32925e-06
6.13465e-06
5.87084e-07
1.19481e-06
4.46422e-07
4.44294e-07
5.73793e-07
1.20436e-06
4.35687e-07
5.87079e-07
1.19496e-06
4.46422e-07
4.44303e-07
5.73788e-07
1.20454e-06
4.35687e-07
1.47471e-06
6.77594e-06
6.30302e-06
1.55789e-06
1.47466e-06
6.77605e-06
6.30304e-06
1.55787e-06
5.93342e-07
4.35328e-07
1.23132e-06
4.15804e-07
1.21236e-06
4.25507e-07
6.03608e-07
5.93333e-07
4.35336e-07
1.23144e-06
4.15804e-07
1.21251e-06
4.25507e-07
6.03603e-07
2.31194e-06
2.31165e-06
4.53481e-07
2.3535e-06
2.35316e-06
2.12896e-05
2.31045e-05
2.44674e-05
2.3541e-05
4.5088e-07
2.44299e-06
2.44236e-06
2.38144e-06
2.38139e-06
2.4467e-05
2.35401e-05
5.87104e-07
1.19502e-06
4.46422e-07
4.44297e-07
5.738e-07
1.20454e-06
4.35688e-07
1.43196e-06
5.59614e-06
1.32929e-06
6.13585e-06
5.87103e-07
4.46423e-07
1.19504e-06
4.44306e-07
5.73806e-07
4.35688e-07
1.20461e-06
1.47435e-06
6.77663e-06
6.30381e-06
1.55831e-06
5.93358e-07
4.35331e-07
1.23145e-06
4.15805e-07
1.21252e-06
4.25507e-07
6.03622e-07
1.47436e-06
6.77736e-06
6.3042e-06
1.55831e-06
5.93363e-07
4.3534e-07
4.15806e-07
1.23151e-06
4.25509e-07
1.21265e-06
6.0363e-07
1.43166e-06
5.59509e-06
1.32924e-06
6.13467e-06
5.87089e-07
4.46422e-07
1.19485e-06
4.44296e-07
5.73794e-07
4.35687e-07
1.20447e-06
1.43153e-06
5.59575e-06
1.32934e-06
6.13517e-06
5.93337e-07
4.35321e-07
1.23124e-06
4.15802e-07
1.21238e-06
4.25506e-07
6.0361e-07
1.47457e-06
6.77613e-06
6.30299e-06
1.55794e-06
5.93341e-07
4.3533e-07
4.15804e-07
1.23137e-06
4.25507e-07
1.21244e-06
6.03614e-07
1.4746e-06
6.77675e-06
6.30371e-06
1.55796e-06
2.31221e-06
2.31139e-06
4.53489e-07
2.35377e-06
2.3532e-06
2.12912e-05
2.31059e-05
2.44712e-05
2.35443e-05
4.50885e-07
2.44309e-06
2.4426e-06
2.38199e-06
2.3812e-06
2.44682e-05
2.35419e-05
5.87099e-07
4.46422e-07
1.19495e-06
4.44299e-07
5.7379e-07
4.35687e-07
1.20456e-06
1.43197e-06
5.59581e-06
1.32927e-06
6.13536e-06
1.43184e-06
5.59568e-06
1.32926e-06
6.13533e-06
5.93355e-07
4.35324e-07
4.15805e-07
1.23134e-06
4.25507e-07
1.21241e-06
6.03627e-07
5.93351e-07
4.3533e-07
4.15805e-07
1.23147e-06
4.25507e-07
1.21254e-06
6.03625e-07
1.47432e-06
6.77678e-06
6.30374e-06
1.55832e-06
1.47435e-06
6.77686e-06
6.30378e-06
1.55834e-06
2.12912e-05
2.31061e-05
2.12928e-05
2.31076e-05
4.50884e-07
2.44275e-06
2.44322e-06
2.38125e-06
2.3817e-06
2.44685e-05
2.3542e-05
2.44699e-05
2.35436e-05
2.46433e-05
2.49346e-05
2.46462e-05
2.49376e-05
2.4739e-06
2.47404e-06
4.30172e-07
2.53242e-06
2.53313e-06
2.48341e-05
2.49389e-05
2.48372e-05
2.49415e-05
4.28468e-07
2.61097e-06
2.61156e-06
2.56081e-06
2.56113e-06
1.66292e-06
6.92011e-06
1.5959e-06
7.31784e-06
6.15559e-07
1.24287e-06
4.06531e-07
4.10606e-07
6.08373e-07
1.26566e-06
3.97699e-07
6.15554e-07
1.24293e-06
4.06532e-07
4.10613e-07
6.08368e-07
1.2658e-06
3.977e-07
1.69463e-06
7.75639e-06
7.43585e-06
1.74777e-06
1.69461e-06
7.75675e-06
7.43579e-06
1.74774e-06
6.18831e-07
4.03023e-07
1.30104e-06
3.81267e-07
1.27833e-06
3.893e-07
6.23028e-07
6.18827e-07
4.03029e-07
1.30121e-06
3.81268e-07
1.27841e-06
3.89301e-07
6.23025e-07
2.474e-06
2.47389e-06
4.30163e-07
2.53301e-06
2.53231e-06
2.46435e-05
2.49349e-05
2.48347e-05
2.49396e-05
4.28464e-07
2.61148e-06
2.61079e-06
2.56109e-06
2.56074e-06
2.48346e-05
2.49389e-05
6.15584e-07
1.24295e-06
4.06532e-07
4.10605e-07
6.08392e-07
1.26582e-06
3.97701e-07
1.6631e-06
6.92137e-06
1.59564e-06
7.31919e-06
6.15585e-07
4.06534e-07
1.24308e-06
4.10619e-07
6.0839e-07
3.97702e-07
1.26587e-06
1.69463e-06
7.75759e-06
7.43672e-06
1.7478e-06
6.18852e-07
4.0302e-07
1.30125e-06
3.81269e-07
1.27849e-06
3.89301e-07
6.23052e-07
1.69463e-06
7.75814e-06
7.43708e-06
1.7478e-06
6.18855e-07
4.03035e-07
3.81271e-07
1.30127e-06
3.89303e-07
1.27855e-06
6.23053e-07
1.66299e-06
6.9201e-06
1.59597e-06
7.31794e-06
6.15566e-07
4.06532e-07
1.24286e-06
4.10609e-07
6.08375e-07
3.977e-07
1.26573e-06
1.66299e-06
6.92081e-06
1.59598e-06
7.31853e-06
6.18833e-07
4.03011e-07
1.30098e-06
3.81266e-07
1.27826e-06
3.89299e-07
6.23032e-07
1.69468e-06
7.75689e-06
7.4358e-06
1.74781e-06
6.18834e-07
4.03026e-07
3.81268e-07
1.30113e-06
3.89301e-07
1.27834e-06
6.23035e-07
1.69468e-06
7.75742e-06
7.43648e-06
1.74781e-06
2.47458e-06
2.47374e-06
4.30177e-07
2.53309e-06
2.53269e-06
2.46451e-05
2.49362e-05
2.48383e-05
2.49428e-05
4.28474e-07
2.61163e-06
2.61113e-06
2.5615e-06
2.56075e-06
2.48354e-05
2.49403e-05
6.15578e-07
4.06533e-07
1.24296e-06
4.10606e-07
6.08386e-07
3.97701e-07
1.26582e-06
1.66309e-06
6.92086e-06
1.59562e-06
7.31862e-06
1.6631e-06
6.92095e-06
1.59563e-06
7.31873e-06
6.18848e-07
4.03016e-07
3.81269e-07
1.30115e-06
3.893e-07
1.27835e-06
6.23045e-07
6.18849e-07
4.03021e-07
3.81269e-07
1.30123e-06
3.89302e-07
1.27844e-06
6.23046e-07
1.69462e-06
7.75753e-06
7.43657e-06
1.74779e-06
1.69463e-06
7.75771e-06
7.43669e-06
1.7478e-06
2.46454e-05
2.49365e-05
2.46468e-05
2.49378e-05
4.28472e-07
2.61115e-06
2.61164e-06
2.56078e-06
2.56126e-06
2.48357e-05
2.49406e-05
2.48367e-05
2.49418e-05
2.47446e-05
2.44206e-05
2.47466e-05
2.44232e-05
2.63516e-06
2.63549e-06
4.08468e-07
2.6792e-06
2.67979e-06
2.38594e-05
2.42806e-05
2.38621e-05
2.42828e-05
4.06872e-07
2.74228e-06
2.74288e-06
2.70097e-06
2.70157e-06
1.81271e-06
7.8488e-06
1.77177e-06
8.09714e-06
6.26304e-07
1.31309e-06
3.73513e-07
3.81656e-07
6.24838e-07
1.33382e-06
3.66009e-07
6.26301e-07
1.31319e-06
3.73514e-07
3.81661e-07
6.24835e-07
1.33399e-06
3.6601e-07
1.83077e-06
8.34842e-06
8.16607e-06
1.85981e-06
1.83075e-06
8.34879e-06
8.16619e-06
1.8598e-06
6.2672e-07
3.74936e-07
1.36263e-06
3.51888e-07
1.34468e-06
3.5879e-07
6.25688e-07
6.26718e-07
3.74941e-07
1.36281e-06
3.51889e-07
1.34488e-06
3.58791e-07
6.25686e-07
2.63545e-06
2.63506e-06
4.08459e-07
2.67971e-06
2.67901e-06
2.47444e-05
2.44208e-05
2.386e-05
2.42817e-05
4.06865e-07
2.74281e-06
2.74203e-06
2.70154e-06
2.70114e-06
2.38599e-05
2.42808e-05
6.26334e-07
1.31323e-06
3.73514e-07
3.81649e-07
6.24856e-07
1.33403e-06
3.66011e-07
1.81293e-06
7.85006e-06
1.7717e-06
8.09854e-06
6.26334e-07
3.73517e-07
1.31333e-06
3.81668e-07
6.24858e-07
3.66013e-07
1.33405e-06
1.83079e-06
8.3498e-06
8.16717e-06
1.85996e-06
6.26747e-07
3.74927e-07
1.36284e-06
3.5189e-07
1.34491e-06
3.58791e-07
6.25717e-07
1.83078e-06
8.35015e-06
8.16742e-06
1.85995e-06
6.26748e-07
3.74948e-07
3.51892e-07
1.36286e-06
3.58794e-07
1.34501e-06
6.25716e-07
1.81277e-06
7.84881e-06
1.77184e-06
8.09732e-06
6.26311e-07
3.73514e-07
1.31311e-06
3.81658e-07
6.24841e-07
3.6601e-07
1.33391e-06
1.81276e-06
7.84946e-06
1.77183e-06
8.09776e-06
6.26725e-07
3.74919e-07
1.36257e-06
3.51887e-07
1.34471e-06
3.58788e-07
6.25696e-07
1.83082e-06
8.34898e-06
8.16621e-06
1.85987e-06
6.26724e-07
3.74939e-07
3.51889e-07
1.36272e-06
3.58791e-07
1.34479e-06
6.25696e-07
1.8308e-06
8.34935e-06
8.1668e-06
1.85985e-06
2.63586e-06
2.63508e-06
4.08474e-07
2.67987e-06
2.67934e-06
2.47461e-05
2.44216e-05
2.38631e-05
2.42841e-05
4.06878e-07
2.74293e-06
2.74241e-06
2.70195e-06
2.70115e-06
2.38607e-05
2.42824e-05
6.26327e-07
3.73515e-07
1.31322e-06
3.8165e-07
6.24853e-07
3.66011e-07
1.33402e-06
1.81292e-06
7.84957e-06
1.77169e-06
8.09789e-06
1.81293e-06
7.84976e-06
1.77171e-06
8.09812e-06
6.26739e-07
3.74926e-07
3.5189e-07
1.36273e-06
3.5879e-07
1.3448e-06
6.25708e-07
6.26743e-07
3.74929e-07
3.51889e-07
1.36283e-06
3.58791e-07
1.34491e-06
6.2571e-07
1.83077e-06
8.34949e-06
8.16692e-06
1.85994e-06
1.83079e-06
8.34979e-06
8.16718e-06
1.85996e-06
2.47464e-05
2.44219e-05
2.47474e-05
2.44228e-05
4.06877e-07
2.74242e-06
2.74294e-06
2.70117e-06
2.70168e-06
2.38609e-05
2.42827e-05
2.38616e-05
2.42835e-05
2.37027e-05
2.32521e-05
2.37046e-05
2.32545e-05
2.76327e-06
2.76384e-06
3.86847e-07
2.80522e-06
2.80582e-06
2.26626e-05
2.30955e-05
2.26649e-05
2.3097e-05
3.85304e-07
2.87168e-06
2.87228e-06
2.82686e-06
2.8275e-06
1.89175e-06
8.39824e-06
1.87417e-06
8.52727e-06
6.22001e-07
1.37213e-06
3.45271e-07
3.5599e-07
6.25491e-07
1.38713e-06
3.38858e-07
6.22001e-07
1.37232e-06
3.45272e-07
3.55994e-07
6.25491e-07
1.38732e-06
3.38859e-07
1.90136e-06
8.64547e-06
8.55909e-06
1.9168e-06
1.90136e-06
8.64597e-06
8.55936e-06
1.9168e-06
6.21385e-07
3.49966e-07
1.40868e-06
3.26388e-07
1.39536e-06
3.32569e-07
6.1647e-07
6.21385e-07
3.4997e-07
1.40887e-06
3.26389e-07
1.39553e-06
3.3257e-07
6.16469e-07
2.7638e-06
2.76336e-06
3.86837e-07
2.80575e-06
2.80497e-06
2.37027e-05
2.32526e-05
2.26632e-05
2.30963e-05
3.85297e-07
2.8722e-06
2.87138e-06
2.82747e-06
2.82702e-06
2.26631e-05
2.30953e-05
6.22031e-07
1.37238e-06
3.45272e-07
3.55979e-07
6.25517e-07
1.38735e-06
3.3886e-07
1.89188e-06
8.3995e-06
1.87421e-06
8.52846e-06
6.22029e-07
3.45275e-07
1.37245e-06
3.56001e-07
6.25517e-07
3.38862e-07
1.38736e-06
1.90142e-06
8.64697e-06
8.56029e-06
1.91696e-06
6.21414e-07
3.49954e-07
1.4089e-06
3.2639e-07
1.3956e-06
3.3257e-07
6.16495e-07
1.90139e-06
8.64707e-06
8.56051e-06
1.91695e-06
6.21413e-07
3.49978e-07
3.26392e-07
1.40891e-06
3.32573e-07
1.39568e-06
6.16494e-07
1.89181e-06
8.3983e-06
1.87424e-06
8.52745e-06
6.22008e-07
3.45272e-07
1.37223e-06
3.55993e-07
6.25495e-07
3.38858e-07
1.38722e-06
1.89178e-06
8.39878e-06
1.87422e-06
8.52775e-06
6.21391e-07
3.49947e-07
1.40862e-06
3.26387e-07
1.39538e-06
3.32567e-07
6.16477e-07
1.90142e-06
8.64615e-06
8.55941e-06
1.91685e-06
6.21388e-07
3.49969e-07
3.26389e-07
1.40877e-06
3.3257e-07
1.39543e-06
6.16475e-07
1.9014e-06
8.64637e-06
8.55982e-06
1.91683e-06
2.76421e-06
2.76338e-06
3.86853e-07
2.8059e-06
2.80532e-06
2.37044e-05
2.32534e-05
2.26659e-05
2.30982e-05
3.8531e-07
2.87236e-06
2.87175e-06
2.82787e-06
2.82701e-06
2.26639e-05
2.30969e-05
6.22025e-07
3.45272e-07
1.37235e-06
3.5598e-07
6.25513e-07
3.38859e-07
1.38734e-06
1.89187e-06
8.39893e-06
1.87419e-06
8.52789e-06
1.89189e-06
8.39924e-06
1.87421e-06
8.52826e-06
6.21405e-07
3.49955e-07
3.2639e-07
1.40878e-06
3.32569e-07
1.39544e-06
6.16486e-07
6.21411e-07
3.49956e-07
3.26389e-07
1.40889e-06
3.3257e-07
1.39557e-06
6.16489e-07
1.90139e-06
8.64653e-06
8.55997e-06
1.91693e-06
1.90141e-06
8.64695e-06
8.56034e-06
1.91695e-06
2.37046e-05
2.32536e-05
2.37053e-05
2.32541e-05
3.85309e-07
2.87176e-06
2.87235e-06
2.82703e-06
2.82759e-06
2.26641e-05
2.30971e-05
2.26645e-05
2.30977e-05
2.25104e-05
2.2107e-05
2.25118e-05
2.21091e-05
2.89572e-06
2.89635e-06
3.65435e-07
2.94296e-06
2.94365e-06
2.16178e-05
2.19766e-05
2.16198e-05
2.19779e-05
3.63953e-07
3.02026e-06
3.02097e-06
2.96714e-06
2.96781e-06
1.92834e-06
8.66821e-06
1.92162e-06
8.714e-06
6.08734e-07
1.41621e-06
3.20362e-07
3.32558e-07
6.15454e-07
1.42747e-06
3.14565e-07
6.08736e-07
1.41641e-06
3.20363e-07
3.3256e-07
6.15455e-07
1.42766e-06
3.14566e-07
1.93565e-06
8.76038e-06
8.72268e-06
1.93978e-06
1.93565e-06
8.76091e-06
8.72317e-06
1.93978e-06
6.07694e-07
3.27054e-07
1.44503e-06
3.03765e-07
1.43417e-06
3.09037e-07
6.00564e-07
6.07696e-07
3.27057e-07
1.44522e-06
3.03766e-07
1.43436e-06
3.09039e-07
6.00564e-07
2.89636e-06
2.89563e-06
3.65425e-07
2.94353e-06
2.9427e-06
2.25102e-05
2.21075e-05
2.16186e-05
2.19774e-05
3.63945e-07
3.02085e-06
3.01976e-06
2.96773e-06
2.96723e-06
2.16182e-05
2.19764e-05
6.08773e-07
1.41647e-06
3.20363e-07
3.32542e-07
6.15475e-07
1.42768e-06
3.14567e-07
1.92854e-06
8.66921e-06
1.92152e-06
8.71503e-06
6.08769e-07
3.20367e-07
1.41652e-06
3.32567e-07
6.15474e-07
3.1457e-07
1.42771e-06
1.93578e-06
8.76182e-06
8.72404e-06
1.93996e-06
6.07728e-07
3.27039e-07
1.44524e-06
3.03767e-07
1.43442e-06
3.09038e-07
6.00588e-07
1.93576e-06
8.76185e-06
8.72412e-06
1.93994e-06
6.07726e-07
3.27064e-07
3.03769e-07
1.44524e-06
3.09042e-07
1.4345e-06
6.00587e-07
1.92839e-06
8.66826e-06
1.92167e-06
8.71415e-06
6.08741e-07
3.20363e-07
1.4163e-06
3.3256e-07
6.15456e-07
3.14566e-07
1.42754e-06
1.92837e-06
8.6686e-06
1.92165e-06
8.7143e-06
6.07701e-07
3.27033e-07
1.44494e-06
3.03764e-07
1.43419e-06
3.09035e-07
6.00571e-07
1.9357e-06
8.76103e-06
8.72324e-06
1.93983e-06
6.07697e-07
3.27057e-07
3.03766e-07
1.4451e-06
3.09038e-07
1.43424e-06
6.00568e-07
1.93568e-06
8.76115e-06
8.72346e-06
1.9398e-06
2.89662e-06
2.89581e-06
3.65441e-07
2.94375e-06
2.94309e-06
2.25118e-05
2.21083e-05
2.16208e-05
2.1979e-05
3.63959e-07
3.02086e-06
3.02038e-06
2.96821e-06
2.96725e-06
2.16191e-05
2.1978e-05
6.08767e-07
3.20363e-07
1.41644e-06
3.32544e-07
6.15471e-07
3.14566e-07
1.42768e-06
1.92855e-06
8.66875e-06
1.92151e-06
8.71446e-06
1.92857e-06
8.66918e-06
1.92153e-06
8.71493e-06
6.07719e-07
3.27041e-07
3.03768e-07
1.44512e-06
3.09037e-07
1.43425e-06
6.0058e-07
6.07725e-07
3.2704e-07
3.03766e-07
1.44525e-06
3.09038e-07
1.43439e-06
6.00583e-07
1.93575e-06
8.76131e-06
8.72362e-06
1.93993e-06
1.93578e-06
8.76182e-06
8.72409e-06
1.93995e-06
2.2512e-05
2.21085e-05
2.25124e-05
2.21088e-05
3.63958e-07
3.02035e-06
3.02105e-06
2.96728e-06
2.96792e-06
2.16193e-05
2.19781e-05
2.16195e-05
2.19785e-05
2.14901e-05
2.11546e-05
2.14914e-05
2.11564e-05
3.04935e-06
3.05017e-06
3.45111e-07
3.10394e-06
3.10473e-06
2.08583e-05
2.10561e-05
2.086e-05
2.10573e-05
3.43751e-07
3.17137e-06
3.17217e-06
3.12589e-06
3.12677e-06
1.93744e-06
8.76684e-06
1.93963e-06
8.76886e-06
5.90036e-07
1.45129e-06
2.98682e-07
3.11987e-07
5.99058e-07
1.46115e-06
2.93662e-07
5.90037e-07
1.4515e-06
2.98684e-07
3.11988e-07
5.9906e-07
1.46134e-06
2.93663e-07
1.94221e-06
8.75793e-06
8.76574e-06
1.95064e-06
1.94221e-06
8.75847e-06
8.76629e-06
1.95064e-06
5.8885e-07
3.07008e-07
1.46913e-06
2.83138e-07
1.46694e-06
2.88527e-07
5.81854e-07
5.88851e-07
3.07008e-07
1.46931e-06
2.83139e-07
1.46713e-06
2.88528e-07
5.81853e-07
3.05007e-06
3.04933e-06
3.45101e-07
3.10464e-06
3.1034e-06
2.14899e-05
2.1155e-05
2.0859e-05
2.10567e-05
3.43743e-07
3.17211e-06
3.17092e-06
3.12667e-06
3.12634e-06
2.08585e-05
2.10559e-05
5.90061e-07
1.45156e-06
2.98683e-07
3.1197e-07
5.99083e-07
1.46137e-06
2.93664e-07
1.9375e-06
8.76774e-06
1.93963e-06
8.76967e-06
5.90059e-07
2.98687e-07
1.45161e-06
3.11996e-07
5.99081e-07
2.93667e-07
1.46139e-06
1.94223e-06
8.75933e-06
8.76716e-06
1.95083e-06
5.88874e-07
3.06989e-07
1.46929e-06
2.8314e-07
1.46718e-06
2.88527e-07
5.81891e-07
1.94221e-06
8.75925e-06
8.76712e-06
1.95082e-06
5.88874e-07
3.07016e-07
2.83143e-07
1.46925e-06
2.88532e-07
1.46724e-06
5.8189e-07
1.93748e-06
8.76692e-06
1.93968e-06
8.76894e-06
5.9004e-07
2.98683e-07
1.45137e-06
3.1199e-07
5.9906e-07
2.93663e-07
1.46121e-06
1.93746e-06
8.76708e-06
1.93965e-06
8.76906e-06
5.88854e-07
3.06984e-07
1.46894e-06
2.83138e-07
1.46692e-06
2.88525e-07
5.8186e-07
1.94225e-06
8.75856e-06
8.76639e-06
1.95068e-06
5.88851e-07
3.0701e-07
2.83139e-07
1.46917e-06
2.88528e-07
1.46701e-06
5.8186e-07
1.94223e-06
8.75861e-06
8.76647e-06
1.95066e-06
3.05045e-06
3.04951e-06
3.45117e-07
3.10456e-06
3.10407e-06
2.14915e-05
2.11559e-05
2.08611e-05
2.10584e-05
3.43757e-07
3.1721e-06
3.1715e-06
3.12743e-06