/*--------------------------------*- C++ -*----------------------------------*\
| =========                 |                                                 |
| \\      /  F ield         | OpenFOAM: The Open Source CFD Toolbox           |
|  \\    /   O peration     | Version:  2206                                  |
|   \\  /    A nd           | Website:  www.openfoam.com                      |
|    \\/     M anipulation  |                                                 |
\*---------------------------------------------------------------------------*/
FoamFile
{
    version     2.0;
    format      ascii;
    arch        "LSB;label=32;scalar=64";
    class       volScalarField;
    location    "37.5";
    object      k;
}
// * * * * * * * * * * * * * * * * * * * * * * * * * * * * * * * * * * * * * //

dimensions      [0 2 -2 0 0 0 0];

internalField   nonuniform List<scalar> 
28688
(
3.58931e-05
3.58911e-05
3.58911e-05
3.59955e-05
3.3929e-05
3.38887e-05
3.38887e-05
3.39621e-05
3.21572e-05
3.2008e-05
3.2008e-05
3.19522e-05
3.05372e-05
3.02312e-05
3.02311e-05
2.99885e-05
2.90339e-05
2.85536e-05
2.85535e-05
2.81213e-05
2.76242e-05
2.69805e-05
2.69803e-05
2.63907e-05
2.63618e-05
2.55545e-05
2.55544e-05
2.48143e-05
2.50396e-05
2.41216e-05
2.41214e-05
2.3368e-05
2.40241e-05
2.30647e-05
2.30645e-05
2.22126e-05
2.37669e-05
2.29445e-05
2.29443e-05
2.21782e-05
2.37481e-05
2.29785e-05
2.29783e-05
2.22745e-05
2.37486e-05
2.29852e-05
2.29851e-05
2.22877e-05
3.6307e-05
3.6291e-05
3.6291e-05
3.6307e-05
3.6291e-05
3.6291e-05
3.64231e-05
3.64231e-05
3.64231e-05
3.64231e-05
3.6291e-05
3.6291e-05
3.6307e-05
3.6291e-05
3.6291e-05
3.6307e-05
3.59955e-05
3.42689e-05
3.58911e-05
3.58911e-05
3.43767e-05
3.43767e-05
3.59955e-05
3.42689e-05
3.58911e-05
3.58911e-05
3.43768e-05
3.43767e-05
3.58911e-05
3.43768e-05
3.43767e-05
3.59955e-05
3.42689e-05
3.58911e-05
3.43768e-05
3.43767e-05
3.42689e-05
3.39621e-05
3.22637e-05
3.38886e-05
3.38886e-05
3.2469e-05
3.24689e-05
3.39621e-05
3.22638e-05
3.38886e-05
3.38886e-05
3.2469e-05
3.24689e-05
3.38886e-05
3.24691e-05
3.2469e-05
3.39621e-05
3.22637e-05
3.38886e-05
3.24691e-05
3.2469e-05
3.22637e-05
3.19522e-05
3.02995e-05
3.20078e-05
3.20077e-05
3.06653e-05
3.06651e-05
3.19522e-05
3.02996e-05
3.20079e-05
3.20077e-05
3.06654e-05
3.0665e-05
3.20078e-05
3.06655e-05
3.06652e-05
3.19522e-05
3.02994e-05
3.20079e-05
3.06655e-05
3.06653e-05
3.02994e-05
2.99886e-05
2.84243e-05
3.02309e-05
3.02307e-05
2.89591e-05
2.89589e-05
2.99886e-05
2.84244e-05
3.0231e-05
3.02307e-05
2.89593e-05
2.89587e-05
3.02308e-05
2.89595e-05
2.8959e-05
2.99885e-05
2.84242e-05
3.0231e-05
2.89594e-05
2.89592e-05
2.84242e-05
2.81214e-05
2.66763e-05
2.85531e-05
2.85529e-05
2.73703e-05
2.737e-05
2.81215e-05
2.66764e-05
2.85534e-05
2.85528e-05
2.73705e-05
2.73698e-05
2.85531e-05
2.73708e-05
2.73702e-05
2.81213e-05
2.66761e-05
2.85533e-05
2.73706e-05
2.73705e-05
2.66761e-05
2.63908e-05
2.50661e-05
2.69799e-05
2.69797e-05
2.58875e-05
2.58872e-05
2.63909e-05
2.50663e-05
2.69802e-05
2.69795e-05
2.58878e-05
2.5887e-05
2.69798e-05
2.58881e-05
2.58874e-05
2.63907e-05
2.5066e-05
2.69802e-05
2.5888e-05
2.58878e-05
2.5066e-05
2.48145e-05
2.36193e-05
2.55539e-05
2.55536e-05
2.45018e-05
2.45015e-05
2.48146e-05
2.36196e-05
2.55543e-05
2.55534e-05
2.45023e-05
2.45013e-05
2.55538e-05
2.45026e-05
2.45017e-05
2.48143e-05
2.36191e-05
2.55543e-05
2.45024e-05
2.45022e-05
2.3619e-05
2.33682e-05
2.23118e-05
2.41207e-05
2.41204e-05
2.32176e-05
2.32172e-05
2.33683e-05
2.2312e-05
2.41212e-05
2.41202e-05
2.3218e-05
2.3217e-05
2.41206e-05
2.32183e-05
2.32174e-05
2.33681e-05
2.23115e-05
2.41212e-05
2.32181e-05
2.3218e-05
2.23115e-05
2.2213e-05
2.21696e-05
2.3064e-05
2.30636e-05
2.29423e-05
2.29421e-05
2.22131e-05
2.21697e-05
2.30644e-05
2.30634e-05
2.29428e-05
2.29418e-05
2.30639e-05
2.2943e-05
2.29422e-05
2.22128e-05
2.21693e-05
2.30644e-05
2.29428e-05
2.29428e-05
2.21693e-05
2.21786e-05
2.22763e-05
2.29439e-05
2.29437e-05
2.29727e-05
2.29725e-05
2.21786e-05
2.22763e-05
2.29444e-05
2.29434e-05
2.29732e-05
2.29722e-05
2.29438e-05
2.29733e-05
2.29727e-05
2.21783e-05
2.2276e-05
2.29444e-05
2.29732e-05
2.29733e-05
2.22762e-05
2.22747e-05
2.22914e-05
2.2978e-05
2.29778e-05
2.2984e-05
2.29838e-05
2.22747e-05
2.22914e-05
2.29785e-05
2.29775e-05
2.29846e-05
2.29835e-05
2.2978e-05
2.29846e-05
2.29841e-05
2.22744e-05
2.22911e-05
2.29786e-05
2.29845e-05
2.29846e-05
2.22914e-05
2.22879e-05
2.22936e-05
2.29847e-05
2.29846e-05
2.29854e-05
2.22878e-05
2.29852e-05
2.29842e-05
2.29859e-05
2.29849e-05
2.29847e-05
2.29855e-05
2.22875e-05
2.22932e-05
2.29853e-05
2.29859e-05
2.2986e-05
2.22935e-05
3.73774e-05
3.73765e-05
3.7377e-05
3.7377e-05
3.73703e-05
3.73777e-05
3.73043e-05
3.73768e-05
3.73703e-05
3.73777e-05
3.73768e-05
3.73043e-05
3.73742e-05
3.72959e-05
3.72959e-05
3.58829e-05
4.08807e-05
3.66017e-05
4.51362e-05
5.5115e-05
6.48801e-05
3.58833e-05
4.08799e-05
3.66019e-05
4.51359e-05
3.58931e-05
3.58931e-05
3.58931e-05
3.44005e-05
3.44005e-05
3.44005e-05
3.44005e-05
3.52767e-05
3.56358e-05
3.58928e-05
3.5377e-05
3.60469e-05
3.42405e-05
3.53822e-05
5.5117e-05
6.48839e-05
3.52767e-05
3.58928e-05
3.56355e-05
3.5377e-05
3.60468e-05
3.53822e-05
3.42415e-05
3.65918e-05
3.65923e-05
3.52792e-05
3.40705e-05
3.40696e-05
3.39735e-05
5.13646e-05
3.46734e-05
5.46137e-05
7.656e-05
8.0849e-05
3.39763e-05
5.13655e-05
3.46728e-05
5.46142e-05
3.3929e-05
3.3929e-05
3.3929e-05
3.25864e-05
3.25863e-05
3.25864e-05
3.25864e-05
3.30562e-05
3.2472e-05
3.3929e-05
3.34085e-05
3.38944e-05
3.15812e-05
3.34675e-05
7.65615e-05
8.08527e-05
3.30564e-05
3.3929e-05
3.24707e-05
3.34085e-05
3.3894e-05
3.34675e-05
3.15833e-05
3.17123e-05
3.17116e-05
3.32638e-05
3.09338e-05
3.09323e-05
3.22563e-05
5.91818e-05
3.29163e-05
6.14265e-05
8.44009e-05
8.50643e-05
3.2261e-05
5.91835e-05
3.29128e-05
6.14287e-05
3.21572e-05
3.21572e-05
3.21572e-05
3.09302e-05
3.09302e-05
3.09302e-05
3.09302e-05
3.07916e-05
3.05135e-05
3.21372e-05
3.1553e-05
3.16348e-05
2.98865e-05
3.17089e-05
8.44029e-05
8.50667e-05
3.07918e-05
3.21372e-05
3.05125e-05
3.1553e-05
3.16341e-05
3.17088e-05
2.98875e-05
3.02152e-05
3.02142e-05
3.12727e-05
3.00036e-05
3.00022e-05
3.07609e-05
6.43645e-05
3.13416e-05
6.57132e-05
8.46314e-05
8.38902e-05
3.07625e-05
6.43663e-05
3.13412e-05
6.57164e-05
3.05372e-05
3.05372e-05
3.05372e-05
2.93939e-05
2.93939e-05
2.93939e-05
2.93939e-05
2.86059e-05
2.91412e-05
3.04714e-05
2.9801e-05
2.94087e-05
2.86776e-05
3.00688e-05
8.4632e-05
8.38923e-05
2.86057e-05
3.04714e-05
2.91415e-05
2.98009e-05
2.94083e-05
3.00687e-05
2.86787e-05
2.99404e-05
2.99393e-05
2.93492e-05
3.00366e-05
3.00356e-05
2.95024e-05
6.73335e-05
3.00154e-05
6.80198e-05
8.22392e-05
8.11929e-05
2.95044e-05
6.73354e-05
3.00151e-05
6.80237e-05
2.90339e-05
2.90339e-05
2.90339e-05
2.79759e-05
2.79759e-05
2.79758e-05
2.79758e-05
2.65673e-05
2.81237e-05
2.89029e-05
2.81565e-05
2.73167e-05
2.77825e-05
2.85309e-05
8.22389e-05
8.11944e-05
2.65673e-05
2.89029e-05
2.81242e-05
2.81564e-05
2.73161e-05
2.85308e-05
2.77833e-05
3.04485e-05
3.04479e-05
2.75339e-05
3.07735e-05
3.07726e-05
2.8607e-05
6.87671e-05
2.89364e-05
6.90096e-05
7.94575e-05
7.85045e-05
2.86122e-05
6.87702e-05
2.89309e-05
6.90132e-05
2.76242e-05
2.76241e-05
2.76242e-05
2.66587e-05
2.66586e-05
2.66585e-05
2.66586e-05
2.47513e-05
2.74096e-05
2.74207e-05
2.65994e-05
2.54031e-05
2.71896e-05
2.70604e-05
7.94567e-05
7.85056e-05
2.47518e-05
2.74206e-05
2.74102e-05
2.65992e-05
2.54022e-05
2.70602e-05
2.71901e-05
3.15909e-05
3.1591e-05
2.5845e-05
3.20994e-05
3.20996e-05
2.7992e-05
6.92878e-05
2.82356e-05
6.92988e-05
7.70381e-05
7.62335e-05
2.7993e-05
6.92911e-05
2.8233e-05
6.93024e-05
2.63618e-05
2.63617e-05
2.63618e-05
2.53874e-05
2.53874e-05
2.53872e-05
2.53873e-05
2.31603e-05
2.69976e-05
2.60695e-05
2.52214e-05
2.37365e-05
2.69037e-05
2.57483e-05
7.70375e-05
7.62344e-05
2.31603e-05
2.60694e-05
2.69983e-05
2.52212e-05
2.3736e-05
2.57482e-05
2.69044e-05
3.32345e-05
3.32353e-05
2.4338e-05
3.38585e-05
3.386e-05
2.75315e-05
6.92137e-05
2.79488e-05
6.91462e-05
7.54121e-05
7.52983e-05
2.7532e-05
6.92171e-05
2.79481e-05
6.91496e-05
2.50396e-05
2.50395e-05
2.50396e-05
2.41944e-05
2.41944e-05
2.41942e-05
2.41943e-05
2.17431e-05
2.68342e-05
2.4685e-05
2.37604e-05
2.23318e-05
2.65639e-05
2.4335e-05
7.5412e-05
7.5298e-05
2.17429e-05
2.46849e-05
2.68326e-05
2.37602e-05
2.23311e-05
2.43348e-05
2.65635e-05
3.50216e-05
3.50238e-05
2.28587e-05
3.53131e-05
3.53151e-05
2.77238e-05
6.93073e-05
2.75507e-05
6.95006e-05
7.53997e-05
7.54929e-05
2.77279e-05
6.93106e-05
2.75486e-05
6.95033e-05
2.40242e-05
2.4024e-05
2.40241e-05
2.3791e-05
2.3791e-05
2.37908e-05
2.37909e-05
2.1289e-05
2.66087e-05
2.36158e-05
2.29814e-05
2.12866e-05
2.68485e-05
2.35037e-05
7.53977e-05
7.54894e-05
2.12892e-05
2.36157e-05
2.66096e-05
2.29812e-05
2.12864e-05
2.35036e-05
2.68508e-05
3.62176e-05
3.62198e-05
2.21386e-05
3.67425e-05
3.6746e-05
2.80773e-05
6.9669e-05
2.80221e-05
6.96909e-05
7.5557e-05
7.55689e-05
2.8078e-05
6.96722e-05
2.80216e-05
6.96946e-05
2.3767e-05
2.37669e-05
2.3767e-05
2.37484e-05
2.37484e-05
2.37482e-05
2.37483e-05
2.15247e-05
2.74131e-05
2.33876e-05
2.2953e-05
2.14615e-05
2.75227e-05
2.33827e-05
7.55537e-05
7.55651e-05
2.15252e-05
2.33875e-05
2.74125e-05
2.29528e-05
2.14617e-05
2.33826e-05
2.75227e-05
3.72877e-05
3.72918e-05
2.22441e-05
3.73828e-05
3.73869e-05
2.81009e-05
6.96997e-05
2.81019e-05
6.96987e-05
7.55702e-05
7.55711e-05
2.81028e-05
6.97034e-05
2.81036e-05
6.9702e-05
2.37481e-05
2.3748e-05
2.37481e-05
2.37485e-05
2.37484e-05
2.37483e-05
2.37484e-05
2.15667e-05
2.75817e-05
2.33828e-05
2.29818e-05
2.15625e-05
2.75804e-05
2.3384e-05
7.55663e-05
7.5567e-05
2.15673e-05
2.33828e-05
2.75827e-05
2.29816e-05
2.1563e-05
2.33839e-05
2.75817e-05
3.74307e-05
3.74349e-05
2.22877e-05
3.74288e-05
3.7433e-05
2.81034e-05
6.97009e-05
2.81058e-05
6.96993e-05
7.55704e-05
7.55712e-05
2.81052e-05
6.97039e-05
2.81073e-05
6.97021e-05
2.37486e-05
2.37485e-05
2.37486e-05
2.37489e-05
2.37491e-05
2.37488e-05
2.37489e-05
2.15714e-05
2.75895e-05
2.33853e-05
2.29857e-05
2.15707e-05
2.75846e-05
2.33856e-05
7.55664e-05
7.55671e-05
2.15719e-05
2.33852e-05
2.75904e-05
2.29856e-05
2.15711e-05
2.33855e-05
2.75857e-05
3.74322e-05
3.74364e-05
2.22928e-05
3.74299e-05
3.74341e-05
3.73742e-05
3.72959e-05
3.72959e-05
5.31119e-05
3.71932e-05
5.31139e-05
3.71932e-05
3.70928e-05
3.72449e-05
3.72451e-05
3.71762e-05
3.71762e-05
3.73702e-05
3.73777e-05
3.73043e-05
3.73768e-05
3.73703e-05
3.73777e-05
3.73043e-05
3.73768e-05
3.71732e-05
3.94122e-05
3.7168e-05
3.67256e-05
3.71732e-05
3.94121e-05
3.7168e-05
3.67257e-05
3.70956e-05
3.71022e-05
3.60276e-05
3.64211e-05
3.71636e-05
3.71109e-05
3.63059e-05
3.70956e-05
3.71022e-05
3.60279e-05
3.64211e-05
3.71636e-05
3.71109e-05
3.6306e-05
3.73742e-05
3.72959e-05
3.72959e-05
5.31121e-05
3.71933e-05
3.70928e-05
3.72457e-05
3.72444e-05
3.71762e-05
3.71762e-05
5.31137e-05
3.71933e-05
3.73703e-05
3.73777e-05
3.73043e-05
3.73768e-05
3.73702e-05
3.73777e-05
3.73768e-05
3.73043e-05
3.71732e-05
3.94126e-05
3.7168e-05
3.67259e-05
3.70956e-05
3.71022e-05
3.60276e-05
3.64211e-05
3.71636e-05
3.71109e-05
3.6306e-05
3.71732e-05
3.94128e-05
3.7168e-05
3.67256e-05
3.70956e-05
3.71022e-05
3.64211e-05
3.60277e-05
3.71109e-05
3.71636e-05
3.6306e-05
3.73774e-05
3.73765e-05
3.7377e-05
3.7377e-05
3.73774e-05
3.73765e-05
3.7377e-05
3.7377e-05
3.73774e-05
3.73765e-05
3.7377e-05
3.7377e-05
3.71133e-05
3.71099e-05
3.64241e-05
3.64241e-05
3.71124e-05
3.71124e-05
3.64261e-05
3.71133e-05
3.71099e-05
3.64241e-05
3.64241e-05
3.71124e-05
3.71124e-05
3.64261e-05
3.71133e-05
3.71099e-05
3.64241e-05
3.64241e-05
3.71124e-05
3.71124e-05
3.64262e-05
3.71133e-05
3.71099e-05
3.64241e-05
3.64241e-05
3.71124e-05
3.71124e-05
3.64262e-05
3.73703e-05
3.73777e-05
3.73768e-05
3.73043e-05
3.70956e-05
3.71022e-05
3.60274e-05
3.64211e-05
3.71636e-05
3.71109e-05
3.6306e-05
3.71732e-05
3.94123e-05
3.7168e-05
3.67258e-05
3.70956e-05
3.71022e-05
3.64211e-05
3.60279e-05
3.71109e-05
3.71636e-05
3.6306e-05
3.71732e-05
3.94128e-05
3.7168e-05
3.67256e-05
3.73742e-05
3.72959e-05
3.72959e-05
5.31143e-05
3.71933e-05
3.70928e-05
3.72452e-05
3.72455e-05
3.71762e-05
3.71762e-05
5.31144e-05
3.71933e-05
3.73703e-05
3.73777e-05
3.73768e-05
3.73043e-05
3.70956e-05
3.71022e-05
3.64211e-05
3.60279e-05
3.71109e-05
3.71636e-05
3.6306e-05
3.70956e-05
3.71022e-05
3.64211e-05
3.60279e-05
3.71109e-05
3.71636e-05
3.6306e-05
3.71732e-05
3.94128e-05
3.7168e-05
3.67256e-05
3.71732e-05
3.94128e-05
3.7168e-05
3.67259e-05
3.70928e-05
3.72452e-05
3.72458e-05
3.71762e-05
3.71762e-05
5.31142e-05
3.71933e-05
5.31141e-05
3.71932e-05
5.51149e-05
6.48799e-05
5.51167e-05
6.48828e-05
3.6592e-05
3.65931e-05
3.52792e-05
3.40701e-05
3.40691e-05
7.47155e-05
6.76867e-05
7.47193e-05
6.76906e-05
3.49727e-05
3.20486e-05
3.20481e-05
3.3464e-05
3.34647e-05
3.58828e-05
4.088e-05
3.66019e-05
4.51346e-05
3.52765e-05
3.56359e-05
3.58928e-05
3.5377e-05
3.60469e-05
3.4241e-05
3.53822e-05
3.52766e-05
3.56354e-05
3.58928e-05
3.5377e-05
3.60469e-05
3.42419e-05
3.53822e-05
3.56296e-05
5.02046e-05
4.64647e-05
3.48981e-05
3.563e-05
5.02036e-05
4.64643e-05
3.48987e-05
3.49982e-05
3.48727e-05
3.27363e-05
3.44018e-05
3.38611e-05
3.4886e-05
3.41811e-05
3.49982e-05
3.48727e-05
3.27373e-05
3.44018e-05
3.386e-05
3.4886e-05
3.41813e-05
3.65921e-05
3.6593e-05
3.52792e-05
3.40704e-05
3.40678e-05
5.51161e-05
6.48821e-05
7.47162e-05
6.76891e-05
3.49727e-05
3.20494e-05
3.20459e-05
3.34637e-05
3.34657e-05
7.4718e-05
6.76885e-05
3.52767e-05
3.56358e-05
3.58928e-05
3.5377e-05
3.60469e-05
3.42411e-05
3.53822e-05
3.58829e-05
4.0881e-05
3.66015e-05
4.51373e-05
3.52766e-05
3.58928e-05
3.56359e-05
3.5377e-05
3.60469e-05
3.53822e-05
3.42409e-05
3.56295e-05
5.02046e-05
4.64644e-05
3.48994e-05
3.49981e-05
3.48727e-05
3.27362e-05
3.44018e-05
3.38604e-05
3.4886e-05
3.41815e-05
3.56295e-05
5.02063e-05
4.64662e-05
3.48989e-05
3.49981e-05
3.48727e-05
3.44018e-05
3.27359e-05
3.4886e-05
3.38607e-05
3.41813e-05
3.5883e-05
4.08787e-05
3.66018e-05
4.51364e-05
3.52766e-05
3.58928e-05
3.56355e-05
3.5377e-05
3.60469e-05
3.53822e-05
3.42419e-05
3.5883e-05
4.08816e-05
3.66014e-05
4.51364e-05
3.49982e-05
3.48727e-05
3.27353e-05
3.44018e-05
3.38607e-05
3.4886e-05
3.41813e-05
3.56299e-05
5.0204e-05
4.64622e-05
3.48987e-05
3.49982e-05
3.48727e-05
3.44018e-05
3.27373e-05
3.4886e-05
3.38598e-05
3.41812e-05
3.56294e-05
5.0205e-05
4.64665e-05
3.48986e-05
3.65923e-05
3.65919e-05
3.52792e-05
3.40689e-05
3.40698e-05
5.51171e-05
6.48816e-05
7.47203e-05
6.76901e-05
3.49727e-05
3.2047e-05
3.205e-05
3.34642e-05
3.34639e-05
7.47177e-05
6.76905e-05
3.52768e-05
3.58928e-05
3.56355e-05
3.5377e-05
3.60469e-05
3.53822e-05
3.42417e-05
3.58836e-05
4.08809e-05
3.66014e-05
4.51369e-05
3.58838e-05
4.088e-05
3.66017e-05
4.51358e-05
3.49981e-05
3.48727e-05
3.44018e-05
3.27371e-05
3.4886e-05
3.38601e-05
3.41814e-05
3.49981e-05
3.48727e-05
3.44018e-05
3.27371e-05
3.4886e-05
3.38596e-05
3.41815e-05
3.56288e-05
5.02059e-05
4.64662e-05
3.48993e-05
3.5629e-05
5.02054e-05
4.64642e-05
3.48996e-05
5.51167e-05
6.48814e-05
5.51167e-05
6.48821e-05
3.49727e-05
3.20498e-05
3.20485e-05
3.34634e-05
3.34636e-05
7.47168e-05
6.76899e-05
7.47184e-05
6.76914e-05
7.65574e-05
8.0848e-05
7.65616e-05
8.08523e-05
3.17141e-05
3.17122e-05
3.32638e-05
3.09326e-05
3.09312e-05
8.39956e-05
8.18607e-05
8.39994e-05
8.18641e-05
3.29544e-05
3.03109e-05
3.03113e-05
3.07421e-05
3.07397e-05
3.39741e-05
5.13642e-05
3.46735e-05
5.46136e-05
3.30559e-05
3.2472e-05
3.3929e-05
3.34084e-05
3.38943e-05
3.15819e-05
3.34675e-05
3.30561e-05
3.24706e-05
3.3929e-05
3.34083e-05
3.38944e-05
3.15833e-05
3.34675e-05
3.37724e-05
5.83565e-05
5.56092e-05
3.3091e-05
3.37724e-05
5.83568e-05
5.56084e-05
3.30917e-05
3.27671e-05
3.29356e-05
3.06536e-05
3.25733e-05
3.13903e-05
3.30163e-05
3.19207e-05
3.27671e-05
3.29355e-05
3.06548e-05
3.25733e-05
3.13883e-05
3.30163e-05
3.1921e-05
3.17118e-05
3.17153e-05
3.32638e-05
3.09326e-05
3.09294e-05
7.65591e-05
8.08499e-05
8.39966e-05
8.18627e-05
3.29544e-05
3.03123e-05
3.0308e-05
3.07397e-05
3.07431e-05
8.39974e-05
8.18622e-05
3.30565e-05
3.24711e-05
3.3929e-05
3.34084e-05
3.38941e-05
3.15823e-05
3.34675e-05
3.39757e-05
5.13665e-05
3.46728e-05
5.46167e-05
3.30562e-05
3.3929e-05
3.24719e-05
3.34083e-05
3.3894e-05
3.34675e-05
3.15814e-05
3.37697e-05
5.83576e-05
5.56106e-05
3.30952e-05
3.27667e-05
3.29356e-05
3.06537e-05
3.25733e-05
3.13886e-05
3.30163e-05
3.19214e-05
3.37698e-05
5.83599e-05
5.56111e-05
3.30945e-05
3.27666e-05
3.29355e-05
3.25733e-05
3.0653e-05
3.30163e-05
3.13901e-05
3.19211e-05
3.39745e-05
5.13634e-05
3.46733e-05
5.46136e-05
3.3056e-05
3.3929e-05
3.24708e-05
3.34084e-05
3.38943e-05
3.34675e-05
3.15837e-05
3.39738e-05
5.13662e-05
3.46734e-05
5.46149e-05
3.27672e-05
3.29357e-05
3.06529e-05
3.25733e-05
3.13899e-05
3.30163e-05
3.1921e-05
3.37718e-05
5.8357e-05
5.56079e-05
3.30917e-05
3.2767e-05
3.29356e-05
3.25733e-05
3.0655e-05
3.30163e-05
3.13886e-05
3.19208e-05
3.37717e-05
5.83586e-05
5.56104e-05
3.30914e-05
3.17143e-05
3.17122e-05
3.32638e-05
3.0931e-05
3.09328e-05
7.65609e-05
8.08499e-05
8.39999e-05
8.1865e-05
3.29544e-05
3.03096e-05
3.03129e-05
3.07418e-05
3.07411e-05
8.39973e-05
8.18636e-05
3.30565e-05
3.3929e-05
3.24701e-05
3.34084e-05
3.38941e-05
3.34675e-05
3.15832e-05
3.3976e-05
5.13662e-05
3.46726e-05
5.46158e-05
3.39759e-05
5.13649e-05
3.46728e-05
5.46149e-05
3.27666e-05
3.29357e-05
3.25733e-05
3.06547e-05
3.30163e-05
3.13886e-05
3.19212e-05
3.27667e-05
3.29356e-05
3.25733e-05
3.06546e-05
3.30163e-05
3.13881e-05
3.19214e-05
3.37694e-05
5.83588e-05
5.56106e-05
3.30949e-05
3.37698e-05
5.83584e-05
5.56098e-05
3.30953e-05
7.65608e-05
8.08498e-05
7.65625e-05
8.08514e-05
3.29544e-05
3.03132e-05
3.03117e-05
3.07403e-05
3.07394e-05
8.39975e-05
8.18636e-05
8.39987e-05
8.18651e-05
8.44e-05
8.50639e-05
8.44021e-05
8.50663e-05
3.02192e-05
3.02143e-05
3.12728e-05
3.00026e-05
3.00021e-05
8.48355e-05
8.50735e-05
8.48376e-05
8.50751e-05
3.09605e-05
2.99302e-05
2.99299e-05
2.99729e-05
2.99677e-05
3.22568e-05
5.9181e-05
3.29164e-05
6.14274e-05
3.07913e-05
3.05144e-05
3.21372e-05
3.15528e-05
3.16347e-05
2.98872e-05
3.17088e-05
3.07916e-05
3.05121e-05
3.21372e-05
3.15527e-05
3.16348e-05
2.98872e-05
3.17088e-05
3.21093e-05
6.38582e-05
6.20865e-05
3.14728e-05
3.21096e-05
6.38598e-05
6.20857e-05
3.14733e-05
3.05117e-05
3.11053e-05
2.9238e-05
3.08778e-05
2.97764e-05
3.12894e-05
2.96814e-05
3.05119e-05
3.11052e-05
2.92379e-05
3.08778e-05
2.97761e-05
3.12893e-05
2.96817e-05
3.02147e-05
3.0219e-05
3.12729e-05
3.00028e-05
3.00001e-05
8.44006e-05
8.50648e-05
8.48351e-05
8.50737e-05
3.09606e-05
2.99304e-05
2.9928e-05
2.99686e-05
2.99724e-05
8.48366e-05
8.50739e-05
3.0792e-05
3.05127e-05
3.21372e-05
3.15529e-05
3.16343e-05
2.98867e-05
3.17088e-05
3.22605e-05
5.91838e-05
3.29128e-05
6.14303e-05
3.07917e-05
3.21371e-05
3.05137e-05
3.15526e-05
3.16342e-05
3.17088e-05
2.98866e-05
3.21058e-05
6.38612e-05
6.20881e-05
3.14763e-05
3.05114e-05
3.11054e-05
2.92382e-05
3.08777e-05
2.97758e-05
3.12894e-05
2.96819e-05
3.21056e-05
6.38626e-05
6.20882e-05
3.14757e-05
3.05112e-05
3.11051e-05
3.08777e-05
2.92375e-05
3.12893e-05
2.97758e-05
2.96816e-05
3.22568e-05
5.91806e-05
3.29164e-05
6.14277e-05
3.07913e-05
3.21372e-05
3.05123e-05
3.15528e-05
3.16347e-05
3.17088e-05
2.98874e-05
3.22565e-05
5.91828e-05
3.29161e-05
6.1429e-05
3.05119e-05
3.11055e-05
2.92374e-05
3.08778e-05
2.97757e-05
3.12894e-05
2.96817e-05
3.21096e-05
6.38602e-05
6.20854e-05
3.14733e-05
3.05117e-05
3.11053e-05
3.08778e-05
2.9238e-05
3.12893e-05
2.97762e-05
2.96814e-05
3.21092e-05
6.38611e-05
6.20872e-05
3.14729e-05
3.02178e-05
3.02158e-05
3.12727e-05
3.00012e-05
3.00039e-05
8.44016e-05
8.50649e-05
8.48378e-05
8.50755e-05
3.09605e-05
2.99291e-05
2.99313e-05
2.99718e-05
2.99696e-05
8.48355e-05
8.50743e-05
3.0792e-05
3.21372e-05
3.05118e-05
3.15528e-05
3.16343e-05
3.17088e-05
2.98869e-05
3.22607e-05
5.91829e-05
3.29125e-05
6.14292e-05
3.22612e-05
5.91827e-05
3.29129e-05
6.14292e-05
3.05112e-05
3.11055e-05
3.08778e-05
2.9238e-05
3.12894e-05
2.97763e-05
2.96817e-05
3.05114e-05
3.11054e-05
3.08778e-05
2.92376e-05
3.12893e-05
2.97758e-05
2.96819e-05
3.21055e-05
6.38613e-05
6.20874e-05
3.14759e-05
3.21059e-05
6.38616e-05
6.20875e-05
3.14763e-05
8.44018e-05
8.50652e-05
8.44029e-05
8.5066e-05
3.09605e-05
2.9931e-05
2.99298e-05
2.9969e-05
2.9968e-05
8.48358e-05
8.50745e-05
8.48361e-05
8.50752e-05
8.46316e-05
8.38912e-05
8.46313e-05
8.38923e-05
2.99405e-05
2.99392e-05
2.93493e-05
3.00372e-05
3.00355e-05
8.26015e-05
8.35709e-05
8.26023e-05
8.35705e-05
2.90404e-05
3.03199e-05
3.03192e-05
3.01098e-05
3.0109e-05
3.07612e-05
6.4364e-05
3.1342e-05
6.57145e-05
2.86057e-05
2.91418e-05
3.04714e-05
2.98006e-05
2.94085e-05
2.86783e-05
3.00687e-05
2.86059e-05
2.91414e-05
3.04714e-05
2.98005e-05
2.94087e-05
2.86787e-05
3.00687e-05
3.06328e-05
6.70678e-05
6.60876e-05
3.01143e-05
3.06331e-05
6.70691e-05
6.60876e-05
3.01148e-05
2.83389e-05
2.93756e-05
2.81928e-05
2.92822e-05
2.85965e-05
2.96712e-05
2.75684e-05
2.83391e-05
2.93754e-05
2.81928e-05
2.92821e-05
2.85967e-05
2.96711e-05
2.75686e-05
2.99398e-05
2.9939e-05
2.93494e-05
3.0036e-05
3.00356e-05
8.4631e-05
8.38916e-05
8.26005e-05
8.3571e-05
2.90404e-05
3.03196e-05
3.03178e-05
3.01095e-05
3.01093e-05
8.2602e-05
8.35706e-05
2.86059e-05
2.91415e-05
3.04714e-05
2.98008e-05
2.94085e-05
2.86783e-05
3.00687e-05
3.0762e-05
6.4366e-05
3.13409e-05
6.57172e-05
2.86056e-05
3.04713e-05
2.91414e-05
2.98004e-05
2.94083e-05
3.00686e-05
2.86777e-05
3.0632e-05
6.70712e-05
6.60897e-05
3.01179e-05
2.83388e-05
2.93757e-05
2.81926e-05
2.92821e-05
2.85964e-05
2.96712e-05
2.75687e-05
3.06316e-05
6.70713e-05
6.60893e-05
3.01174e-05
2.83386e-05
2.93753e-05
2.9282e-05
2.81921e-05
2.96711e-05
2.85964e-05
2.75685e-05
3.07612e-05
6.43637e-05
3.13419e-05
6.57152e-05
2.86056e-05
3.04714e-05
2.91414e-05
2.98006e-05
2.94085e-05
3.00687e-05
2.86786e-05
3.07607e-05
6.43652e-05
3.13415e-05
6.57154e-05
2.83391e-05
2.93759e-05
2.81919e-05
2.92822e-05
2.85962e-05
2.96712e-05
2.75686e-05
3.0633e-05
6.70698e-05
6.60875e-05
3.01147e-05
2.83389e-05
2.93755e-05
2.92821e-05
2.81926e-05
2.96712e-05
2.85966e-05
2.75683e-05
3.06326e-05
6.70696e-05
6.60884e-05
3.01143e-05
2.99396e-05
2.99406e-05
2.93492e-05
3.00364e-05
3.0037e-05
8.46321e-05
8.38907e-05
8.26023e-05
8.35711e-05
2.90403e-05
3.03192e-05
3.03204e-05
3.01098e-05
3.01104e-05
8.2601e-05
8.35717e-05
2.86059e-05
3.04714e-05
2.91411e-05
2.98008e-05
2.94085e-05
3.00687e-05
2.86783e-05
3.07621e-05
6.43654e-05
3.13409e-05
6.57157e-05
3.07624e-05
6.43658e-05
3.13413e-05
6.57164e-05
2.83386e-05
2.93758e-05
2.92821e-05
2.81927e-05
2.96712e-05
2.85967e-05
2.75686e-05
2.83388e-05
2.93757e-05
2.92821e-05
2.81924e-05
2.96711e-05
2.85964e-05
2.75688e-05
3.06316e-05
6.707e-05
6.60887e-05
3.01176e-05
3.0632e-05
6.70709e-05
6.60895e-05
3.01179e-05
8.46322e-05
8.38909e-05
8.46325e-05
8.38908e-05
2.90403e-05
3.03201e-05
3.03193e-05
3.011e-05
3.01091e-05
8.26012e-05
8.35718e-05
8.26007e-05
8.35717e-05
8.22395e-05
8.11939e-05
8.22384e-05
8.11943e-05
3.0449e-05
3.04478e-05
2.75341e-05
3.07729e-05
3.07711e-05
7.98159e-05
8.08288e-05
7.9816e-05
8.0827e-05
2.72412e-05
3.13777e-05
3.13757e-05
3.09434e-05
3.09447e-05
2.95028e-05
6.73336e-05
3.00157e-05
6.80218e-05
2.65671e-05
2.81241e-05
2.89029e-05
2.8156e-05
2.73166e-05
2.77834e-05
2.85308e-05
2.65673e-05
2.81243e-05
2.89028e-05
2.81558e-05
2.73167e-05
2.77836e-05
2.85308e-05
2.94248e-05
6.86491e-05
6.81915e-05
2.9033e-05
2.94253e-05
6.8651e-05
6.81923e-05
2.9033e-05
2.63323e-05
2.77629e-05
2.74524e-05
2.77899e-05
2.77275e-05
2.81609e-05
2.56355e-05
2.63326e-05
2.77627e-05
2.74527e-05
2.77899e-05
2.77275e-05
2.81608e-05
2.56357e-05
3.0448e-05
3.04483e-05
2.75342e-05
3.07729e-05
3.07679e-05
8.22388e-05
8.11944e-05
7.98148e-05
8.08281e-05
2.72413e-05
3.13767e-05
3.13687e-05
3.09439e-05
3.09483e-05
7.98164e-05
8.08276e-05
2.65674e-05
2.8124e-05
2.89029e-05
2.81563e-05
2.73162e-05
2.77832e-05
2.85308e-05
2.95039e-05
6.73353e-05
3.00148e-05
6.80229e-05
2.65672e-05
2.89027e-05
2.8124e-05
2.81556e-05
2.7316e-05
2.85307e-05
2.77828e-05
2.94272e-05
6.8653e-05
6.81939e-05
2.90293e-05
2.63327e-05
2.77632e-05
2.74524e-05
2.77899e-05
2.77273e-05
2.81609e-05
2.56351e-05
2.94266e-05
6.86517e-05
6.81933e-05
2.90293e-05
2.63325e-05
2.77625e-05
2.77898e-05
2.74516e-05
2.81607e-05
2.77274e-05
2.56349e-05
2.95028e-05
6.73336e-05
3.00156e-05
6.80224e-05
2.6567e-05
2.89028e-05
2.81241e-05
2.81559e-05
2.73165e-05
2.85308e-05
2.77832e-05
2.95024e-05
6.7334e-05
3.00152e-05
6.80217e-05
2.63326e-05
2.77634e-05
2.74513e-05
2.779e-05
2.77271e-05
2.81609e-05
2.56356e-05
2.94252e-05
6.86517e-05
6.81922e-05
2.90328e-05
2.63324e-05
2.77628e-05
2.77899e-05
2.74523e-05
2.81609e-05
2.77272e-05
2.56354e-05
2.94249e-05
6.86506e-05
6.81922e-05
2.90325e-05
3.04492e-05
3.04487e-05
2.75339e-05
3.07694e-05
3.07743e-05
8.22399e-05
8.11934e-05
7.98161e-05
8.08275e-05
2.7241e-05
3.13736e-05
3.13778e-05
3.09471e-05
3.09444e-05
7.98155e-05
8.08287e-05
2.65675e-05
2.89028e-05
2.81239e-05
2.81562e-05
2.73162e-05
2.85308e-05
2.77831e-05
2.95041e-05
6.73344e-05
3.00147e-05
6.80221e-05
2.95044e-05
6.73354e-05
3.0015e-05
6.80234e-05
2.63326e-05
2.77633e-05
2.77899e-05
2.74524e-05
2.81609e-05
2.77272e-05
2.5635e-05
2.63328e-05
2.77631e-05
2.77899e-05
2.74523e-05
2.81608e-05
2.77271e-05
2.56352e-05
2.94269e-05
6.86511e-05
6.81926e-05
2.90289e-05
2.94272e-05
6.86526e-05
6.81939e-05
2.90292e-05
8.224e-05
8.11935e-05
8.22395e-05
8.11928e-05
2.7241e-05
3.13772e-05
3.13769e-05
3.09444e-05
3.09441e-05
7.98156e-05
8.08288e-05
7.98146e-05
8.08281e-05
7.94585e-05
7.85056e-05
7.94563e-05
7.85054e-05
3.15905e-05
3.15921e-05
2.58452e-05
3.2099e-05
3.20982e-05
7.7344e-05
7.81966e-05
7.73433e-05
7.81943e-05
2.55721e-05
3.29576e-05
3.29576e-05
3.23283e-05
3.23298e-05
2.86075e-05
6.87689e-05
2.89364e-05
6.90117e-05
2.47512e-05
2.74102e-05
2.74206e-05
2.65988e-05
2.5403e-05
2.71903e-05
2.70603e-05
2.47514e-05
2.74106e-05
2.74206e-05
2.65985e-05
2.54031e-05
2.71906e-05
2.70602e-05
2.85611e-05
6.92559e-05
6.90576e-05
2.83011e-05
2.85614e-05
6.9258e-05
6.90595e-05
2.83013e-05
2.45412e-05
2.6234e-05
2.70149e-05
2.63876e-05
2.71602e-05
2.67155e-05
2.39345e-05
2.45414e-05
2.62337e-05
2.70154e-05
2.63875e-05
2.71605e-05
2.67155e-05
2.39346e-05
3.15906e-05
3.1591e-05
2.58454e-05
3.20994e-05
3.20956e-05
7.9457e-05
7.85059e-05
7.73428e-05
7.81953e-05
2.55722e-05
3.2958e-05
3.29527e-05
3.23286e-05
3.2331e-05
7.73439e-05
7.81951e-05
2.47518e-05
2.74103e-05
2.74206e-05
2.65991e-05
2.54023e-05
2.71903e-05
2.70602e-05
2.86117e-05
6.87689e-05
2.89307e-05
6.90119e-05
2.47516e-05
2.74205e-05
2.741e-05
2.65983e-05
2.54021e-05
2.70601e-05
2.71901e-05
2.8564e-05
6.92595e-05
6.90607e-05
2.82996e-05
2.4541e-05
2.62343e-05
2.7015e-05
2.63875e-05
2.71602e-05
2.67155e-05
2.39344e-05
2.85636e-05
6.92578e-05
6.90593e-05
2.82994e-05
2.45409e-05
2.62335e-05
2.63873e-05
2.70141e-05
2.67153e-05
2.71604e-05
2.39342e-05
2.86074e-05
6.87688e-05
2.89363e-05
6.90121e-05
2.47511e-05
2.74206e-05
2.74101e-05
2.65987e-05
2.54029e-05
2.70602e-05
2.719e-05
2.8607e-05
6.87683e-05
2.89359e-05
6.90107e-05
2.45413e-05
2.62346e-05
2.70135e-05
2.63877e-05
2.71599e-05
2.67156e-05
2.39346e-05
2.85613e-05
6.92583e-05
6.90595e-05
2.83011e-05
2.45411e-05
2.62339e-05
2.63875e-05
2.70148e-05
2.67155e-05
2.71599e-05
2.39344e-05
2.8561e-05
6.92567e-05
6.90585e-05
2.83008e-05
3.15922e-05
3.15912e-05
2.5845e-05
3.20991e-05
3.20998e-05
7.94582e-05
7.85053e-05
7.73436e-05
7.81947e-05
2.55719e-05
3.2957e-05
3.29583e-05
3.23318e-05
3.23289e-05
7.73436e-05
7.81962e-05
2.47519e-05
2.74206e-05
2.74102e-05
2.65991e-05
2.54023e-05
2.70602e-05
2.71902e-05
2.8612e-05
6.87688e-05
2.89305e-05
6.90111e-05
2.86123e-05
6.87703e-05
2.89308e-05
6.90129e-05
2.45409e-05
2.62344e-05
2.63875e-05
2.70149e-05
2.67155e-05
2.716e-05
2.39343e-05
2.4541e-05
2.62343e-05
2.63875e-05
2.7015e-05
2.67155e-05
2.71601e-05
2.39344e-05
2.85638e-05
6.92572e-05
6.90589e-05
2.82993e-05
2.85641e-05
6.92592e-05
6.90607e-05
2.82996e-05
7.94582e-05
7.85053e-05
7.94572e-05
7.85041e-05
2.55719e-05
3.29578e-05
3.29587e-05
3.23289e-05
3.23293e-05
7.73436e-05
7.81962e-05
7.73423e-05
7.81951e-05
7.70394e-05
7.62347e-05
7.70372e-05
7.62337e-05
3.32331e-05
3.32358e-05
2.43382e-05
3.38578e-05
3.38588e-05
7.55172e-05
7.59967e-05
7.55161e-05
7.59946e-05
2.40954e-05
3.4797e-05
3.47979e-05
3.40881e-05
3.40916e-05
2.79921e-05
6.92899e-05
2.82357e-05
6.93011e-05
2.31603e-05
2.69984e-05
2.60694e-05
2.52206e-05
2.37365e-05
2.69044e-05
2.57482e-05
2.31604e-05
2.69989e-05
2.60694e-05
2.52203e-05
2.37366e-05
2.6905e-05
2.57482e-05
2.79837e-05
6.92441e-05
6.92852e-05
2.7979e-05
2.79838e-05
6.92463e-05
6.92874e-05
2.79791e-05
2.2995e-05
2.48724e-05
2.68737e-05
2.50521e-05
2.69016e-05
2.54106e-05
2.25193e-05
2.29951e-05
2.48721e-05
2.68743e-05
2.50521e-05
2.69023e-05
2.54105e-05
2.25194e-05
3.32348e-05
3.32364e-05
2.43384e-05
3.38592e-05
3.38558e-05
7.70379e-05
7.62347e-05
7.5516e-05
7.59954e-05
2.40956e-05
3.47989e-05
3.47943e-05
3.40905e-05
3.40919e-05
7.55169e-05
7.59955e-05
2.31603e-05
2.69986e-05
2.60694e-05
2.52211e-05
2.37361e-05
2.69047e-05
2.57482e-05
2.79928e-05
6.92894e-05
2.82327e-05
6.93001e-05
2.31602e-05
2.60692e-05
2.69984e-05
2.52201e-05
2.37359e-05
2.5748e-05
2.69046e-05
2.79838e-05
6.92474e-05
6.92886e-05
2.79799e-05
2.2995e-05
2.48728e-05
2.68738e-05
2.5052e-05
2.6902e-05
2.54105e-05
2.25191e-05
2.79837e-05
6.92451e-05
6.92866e-05
2.79798e-05
2.29949e-05
2.48719e-05
2.50519e-05
2.68738e-05
2.54103e-05
2.69023e-05
2.25189e-05
2.79919e-05
6.929e-05
2.82356e-05
6.93012e-05
2.31601e-05
2.60694e-05
2.69982e-05
2.52205e-05
2.37364e-05
2.57482e-05
2.69042e-05
2.79917e-05
6.92886e-05
2.82353e-05
6.92995e-05
2.29951e-05
2.48731e-05
2.68727e-05
2.50523e-05
2.69014e-05
2.54106e-05
2.25193e-05
2.79836e-05
6.92464e-05
6.92876e-05
2.79789e-05
2.29949e-05
2.48723e-05
2.50521e-05
2.68734e-05
2.54105e-05
2.69014e-05
2.25191e-05
2.79834e-05
6.92444e-05
6.92858e-05
2.79787e-05
3.32386e-05
3.32345e-05
2.43381e-05
3.38594e-05
3.38589e-05
7.70391e-05
7.62344e-05
7.55167e-05
7.59951e-05
2.40953e-05
3.4798e-05
3.47982e-05
3.40944e-05