/*--------------------------------*- C++ -*----------------------------------*\
| =========                 |                                                 |
| \\      /  F ield         | OpenFOAM: The Open Source CFD Toolbox           |
|  \\    /   O peration     | Version:  2206                                  |
|   \\  /    A nd           | Website:  www.openfoam.com                      |
|    \\/     M anipulation  |                                                 |
\*---------------------------------------------------------------------------*/
FoamFile
{
    version     2.0;
    format      ascii;
    arch        "LSB;label=32;scalar=64";
    class       surfaceScalarField;
    location    "37.5";
    object      phi;
}
// * * * * * * * * * * * * * * * * * * * * * * * * * * * * * * * * * * * * * //

dimensions      [0 3 -1 0 0 0 0];

oriented        oriented;

internalField   nonuniform List<scalar> 
83438
(
-0.00104221
-1.45817e-05
-1.44779e-05
9.34787e-06
9.17778e-06
0.00105274
-0.00026146
-5.64169e-06
1.44585e-05
6.83973e-06
0.00105941
-4.53262e-06
-1.62503e-06
-2.2183e-06
-2.57597e-06
-6.59099e-06
-7.04388e-06
-3.16437e-06
-0.000263303
-0.000259727
-0.000262829
-0.000261437
-5.64668e-06
1.44876e-05
6.92927e-06
0.0010592
-4.53773e-06
-1.63521e-06
-2.2259e-06
-2.58028e-06
-6.58508e-06
-7.03995e-06
-3.16655e-06
-0.000259699
-0.000263274
-0.000262793
-0.000260564
5.61718e-06
5.65728e-06
-4.8779e-06
-4.87197e-06
0.00025904
-1.63299e-06
-1.63489e-06
-0.00106073
8.99437e-07
9.00205e-07
0.0010622
-0.00106268
-1.60642e-06
1.62895e-06
8.28788e-07
0.00106395
-6.53567e-07
7.84061e-07
-1.48675e-07
3.7699e-07
-7.99655e-07
-1.39405e-06
-2.91865e-07
-0.00106236
-1.60133e-06
1.63947e-06
8.23988e-07
0.00106363
-6.53546e-07
7.78572e-07
-1.48722e-07
3.7437e-07
-8.02177e-07
-1.39374e-06
-2.89323e-07
-0.000261534
1.63904e-06
1.60148e-06
-7.12765e-07
-7.15915e-07
0.000259722
-1.35937e-06
-1.36079e-06
-0.0010664
6.82019e-07
6.82828e-07
0.00106775
-0.0010679
-1.55617e-06
1.36553e-06
6.89124e-07
0.00106925
-6.20643e-07
8.38366e-07
-1.07039e-07
4.23037e-07
-7.77558e-07
-1.35766e-06
-2.47023e-07
-0.00106758
-1.55092e-06
1.36035e-06
6.94451e-07
0.00106892
-6.20646e-07
8.32956e-07
-1.07011e-07
4.22978e-07
-7.77472e-07
-1.35211e-06
-2.44482e-07
-0.000262766
1.58635e-06
1.55107e-06
-6.73582e-07
-6.81755e-07
0.000260984
-1.33346e-06
-1.33474e-06
-0.00107187
6.60797e-07
6.61651e-07
0.00107321
-0.00107326
-1.55361e-06
1.33442e-06
6.63151e-07
0.00107458
-6.17335e-07
8.63593e-07
-8.21398e-08
4.35864e-07
-7.73559e-07
-1.36468e-06
-2.23389e-07
-0.00107293
-1.54828e-06
1.33432e-06
6.63239e-07
0.00107424
-6.14634e-07
8.58155e-07
-8.46038e-08
4.3581e-07
-7.76016e-07
-1.36445e-06
-2.20819e-07
-0.000264045
1.5813e-06
1.54849e-06
-6.62148e-07
-6.67799e-07
0.000262245
-1.28878e-06
-1.28998e-06
-0.00107722
6.37853e-07
6.38733e-07
0.00107853
-0.00107844
-1.54511e-06
1.28972e-06
6.31291e-07
0.0010797
-6.03855e-07
8.89216e-07
-5.91395e-08
4.54409e-07
-7.59365e-07
-1.36453e-06
-1.96107e-07
-0.0010781
-1.53972e-06
1.28955e-06
6.31301e-07
0.00107936
-6.01118e-07
8.83806e-07
-6.15546e-08
4.5434e-07
-7.61827e-07
-1.3643e-06
-1.93543e-07
-0.000265263
1.57294e-06
1.53994e-06
-6.44287e-07
-6.49947e-07
0.000263444
-1.26085e-06
-1.26193e-06
-0.00108237
6.26353e-07
6.27294e-07
0.00108363
-0.00108337
-1.53587e-06
1.26169e-06
6.11924e-07
0.00108456
-5.89699e-07
9.08954e-07
-4.18119e-08
4.69501e-07
-7.40985e-07
-1.35921e-06
-1.74044e-07
-0.00108303
-1.53042e-06
1.26147e-06
6.11873e-07
0.00108422
-5.86924e-07
9.03535e-07
-4.41923e-08
4.69424e-07
-7.4348e-07
-1.359e-06
-1.71471e-07
-0.000266411
1.56382e-06
1.53065e-06
-6.25239e-07
-6.30912e-07
0.000264573
-1.14862e-06
-1.1496e-06
-0.00108726
5.68938e-07
5.69815e-07
0.00108842
-0.00108804
-1.51032e-06
1.14931e-06
5.56977e-07
0.00108913
-5.59079e-07
9.40633e-07
-1.4396e-08
5.06591e-07
-6.98272e-07
-1.32559e-06
-1.35418e-07
-0.0010877
-1.50491e-06
1.14912e-06
5.57062e-07
0.00108879
-5.56349e-07
9.35164e-07
-1.6694e-08
5.06514e-07
-7.00785e-07
-1.3254e-06
-1.32856e-07
-0.000267485
1.53849e-06
1.50516e-06
-5.91307e-07
-5.9697e-07
0.00026563
-7.96174e-07
-7.9685e-07
-0.00109159
4.00622e-07
4.01213e-07
0.00109238
-0.00109213
-1.42504e-06
7.96606e-07
3.66702e-07
0.00109284
-4.62518e-07
1.03867e-06
8.96814e-08
6.49403e-07
-5.64069e-07
-1.19832e-06
-5.98728e-09
-0.00109179
-1.4195e-06
7.96665e-07
3.66759e-07
0.0010925
-4.5971e-07
1.03324e-06
8.68862e-08
6.49394e-07
-5.66529e-07
-1.19806e-06
-3.86226e-09
-0.000268395
1.45323e-06
1.41969e-06
-4.88595e-07
-4.94072e-07
0.000266505
-4.01889e-07
-4.02552e-07
-0.00109395
2.30377e-07
2.30476e-07
0.0010943
-0.00109401
-1.31372e-06
4.02364e-07
2.10175e-07
0.00109421
-3.50429e-07
1.1361e-06
1.88256e-07
7.93846e-07
-3.84815e-07
-1.03454e-06
1.60184e-07
-0.00109367
-1.30831e-06
4.02372e-07
2.10326e-07
0.00109386
-3.47762e-07
1.13057e-06
1.85361e-07
7.93731e-07
-3.87374e-07
-1.03435e-06
1.62953e-07
-0.000268757
1.34212e-06
1.30843e-06
-3.37499e-07
-3.42935e-07
0.000266787
-1.28746e-07
-1.28964e-07
-0.00109492
7.96343e-08
7.96096e-08
0.00109502
-0.00109448
-1.24964e-06
1.28846e-07
7.57872e-08
0.00109451
-2.92505e-07
1.1965e-06
2.42111e-07
8.78558e-07
-3.00879e-07
-9.44418e-07
2.37941e-07
-0.00109414
-1.24421e-06
1.28851e-07
7.5863e-08
0.00109417
-2.89764e-07
1.191e-06
2.39321e-07
8.78396e-07
-3.03467e-07
-9.44269e-07
2.40653e-07
-0.000268773
1.27813e-06
1.24433e-06
-2.67091e-07
-2.72481e-07
0.00026679
-1.60854e-08
-1.59296e-08
-0.00109514
1.05953e-08
1.06332e-08
0.00109515
-0.00109453
-1.22275e-06
1.58488e-08
1.30663e-08
0.00109453
-2.66375e-07
1.21946e-06
2.59587e-07
9.05879e-07
-2.72773e-07
-9.12409e-07
2.62372e-07
-0.00109418
-1.21728e-06
1.58803e-08
1.30477e-08
0.00109418
-2.66352e-07
1.21399e-06
2.59574e-07
9.05704e-07
-2.75434e-07
-9.12282e-07
2.65072e-07
-0.000268751
1.25122e-06
1.21742e-06
-2.40848e-07
-2.46187e-07
0.000266769
5.57061e-10
7.63783e-10
-0.00109516
-9.25769e-10
-8.93911e-10
0.00109516
-0.00109452
-1.21932e-06
-7.8825e-10
4.12007e-09
0.00109452
-2.63538e-07
1.22214e-06
2.61861e-07
9.08915e-07
-2.69334e-07
-9.08633e-07
2.65209e-07
-0.00109418
-1.21387e-06
-7.7291e-10
4.09446e-09
0.00109418
-2.6352e-07
1.21666e-06
2.61849e-07
9.08745e-07
-2.71993e-07
-9.08501e-07
2.67918e-07
-0.000268745
1.24779e-06
1.21399e-06
-2.3794e-07
-2.43272e-07
0.000266765
5.22151e-06
5.23236e-06
0.000260567
-0.00025917
-5.93212e-06
-5.918e-06
5.08155e-06
0.000261409
-0.000258686
-5.96209e-06
3.37915e-06
-5.22158e-06
5.07653e-06
0.000261442
-0.000258702
-5.9701e-06
3.37431e-06
5.22219e-06
0.000260579
-0.000259173
-5.90351e-06
-5.94674e-06
5.07465e-06
0.000261473
-0.000258717
-5.96761e-06
3.36899e-06
5.08137e-06
-5.22383e-06
0.000261417
-0.000258686
3.38421e-06
-5.9723e-06
1.0711e-05
1.06172e-05
-0.000252648
-0.000256079
-0.000255118
-0.000255118
-6.41725e-06
-4.12512e-06
-6.66226e-06
-6.41762e-06
-4.12605e-06
-6.6678e-06
-5.0696e-06
0.00104223
1.06706e-05
1.06226e-05
-0.000252651
-0.000256076
-0.000255121
-0.000255121
-6.41987e-06
-4.12541e-06
-6.665e-06
-6.41508e-06
-4.12084e-06
-6.66021e-06
-5.06925e-06
0.00104211
1.07308e-05
1.06832e-05
-0.000252643
-0.000256071
-0.000255118
-0.000255113
-6.41972e-06
-4.13278e-06
-6.66493e-06
-6.41992e-06
-4.12306e-06
-6.66254e-06
-5.08394e-06
-5.07206e-06
0.00104217
1.07262e-05
1.06275e-05
-0.000252646
-0.000256074
-0.000255118
-0.000255118
-6.41461e-06
-4.12773e-06
-6.65993e-06
-6.42005e-06
-4.12589e-06
-6.66526e-06
-0.000258712
-5.95997e-06
3.36394e-06
-5.22143e-06
0.000261404
-0.000258684
3.37919e-06
-5.96204e-06
5.22458e-06
0.000260559
-0.000259158
-5.90583e-06
-5.94396e-06
-0.000258696
3.37148e-06
-5.95709e-06
-5.23233e-06
0.000261471
-0.000258712
3.36648e-06
-5.96508e-06
-0.000259168
-5.932e-06
-5.91803e-06
5.61743e-06
5.65465e-06
-4.87813e-06
-4.87198e-06
0.000259045
-7.80223e-07
-7.44346e-07
0.000261544
-0.000259461
-2.82847e-07
-2.75452e-07
7.09218e-06
0.00105882
-4.52996e-06
-1.5785e-06
-2.21298e-06
-2.5771e-06
-6.60543e-06
-7.0497e-06
-3.17135e-06
-0.000263264
-0.000259684
-0.000262793
-5.62789e-06
1.45552e-05
7.03159e-06
0.00105919
-4.54909e-06
-1.57089e-06
-2.21612e-06
-2.588e-06
-6.63696e-06
-7.06662e-06
-3.18703e-06
-0.000263338
-0.000259714
-0.000262834
0.00106192
2.02347e-06
-0.00106086
9.73417e-07
-1.71785e-06
-1.69425e-07
-6.91933e-07
-1.46469e-06
-3.08609e-07
-8.27072e-07
3.4237e-07
7.88306e-07
0.00106234
2.02383e-06
-0.00106128
9.68351e-07
-1.72827e-06
-1.61926e-07
-6.97431e-07
-1.47041e-06
-3.0876e-07
-8.27441e-07
3.47787e-07
-4.87621e-06
-4.86888e-06
0.000259055
-7.4702e-07
0.00026157
-0.000259482
-2.80197e-07
-2.72585e-07
6.81342e-06
0.00105966
-4.55425e-06
-1.63783e-06
-2.22918e-06
-2.58631e-06
-6.61946e-06
-7.06199e-06
-3.18225e-06
-0.000263359
-0.000259742
-0.000262847
-5.62759e-06
1.45896e-05
7.12563e-06
0.00105896
-4.54891e-06
-1.58096e-06
-2.22115e-06
-2.58996e-06
-6.63626e-06
-7.06548e-06
-3.18664e-06
-0.000259684
-0.000263315
-0.000262806
0.00106294
2.03104e-06
-0.00106187
9.61914e-07
-1.68793e-06
-1.71933e-07
-6.92208e-07
-1.46774e-06
-3.08719e-07
-8.24841e-07
3.44748e-07
7.77684e-07
0.00106203
2.03406e-06
-0.00106099
9.83721e-07
-1.71792e-06
-1.66973e-07
-6.92131e-07
-1.46751e-06
-3.06144e-07
-8.29828e-07
3.42315e-07
1.45866e-05
7.11295e-06
0.00105877
-4.5299e-06
-1.57839e-06
-2.21035e-06
-2.57712e-06
-6.60544e-06
-3.1714e-06
-7.04738e-06
-0.000259679
-0.000263259
-0.000262788
2.03037e-06
-0.00106161
9.67145e-07
-1.68783e-06
-1.69258e-07
-6.89292e-07
-1.46502e-06
-3.11093e-07
3.39558e-07
-8.24563e-07
7.77659e-07
0.00106182
2.03368e-06
-0.00106078
9.83759e-07
-1.71783e-06
-1.66858e-07
-6.91888e-07
-1.46737e-06
-3.08581e-07
-8.27031e-07
3.44908e-07
-4.88104e-06
-4.86865e-06
0.000259035
-7.38876e-07
0.000261521
-0.000259444
-2.83247e-07
-2.77813e-07
1.44877e-05
6.83191e-06
0.00105961
-4.55439e-06
-1.63784e-06
-2.22923e-06
-2.58613e-06
-6.61933e-06
-3.18215e-06
-7.05926e-06
-0.000259732
-0.000263356
-0.000262842
2.03541e-06
-0.00106131
9.8268e-07
-1.68535e-06
-1.71806e-07
-6.91961e-07
-1.46189e-06
-3.06076e-07
3.39599e-07
-8.27092e-07
7.3897e-07
0.00106284
2.03606e-06
-0.00106179
9.72236e-07
-1.6829e-06
-1.71961e-07
-6.8963e-07
-1.46497e-06
-3.08563e-07
-8.27259e-07
3.39756e-07
-0.000259459
-2.80378e-07
-2.78028e-07
1.63912e-06
1.60392e-06
-7.10056e-07
-7.18522e-07
0.00025973
-8.66073e-07
-8.27375e-07
0.000262779
-0.000260666
-2.13378e-07
-2.05795e-07
8.30009e-07
0.00106319
-6.56121e-07
8.17314e-07
-1.43824e-07
3.77146e-07
-7.99541e-07
-1.39635e-06
-2.91785e-07
-1.6444e-06
1.63338e-06
8.24791e-07
0.00106362
-6.58977e-07
8.25388e-07
-1.43833e-07
3.8257e-07
-8.02512e-07
-1.40204e-06
-2.89479e-07
0.00106713
1.38003e-06
-0.0010658
7.01036e-07
-1.59116e-06
-1.03857e-07
-6.27756e-07
-1.35284e-06
-2.50488e-07
-7.74335e-07
4.21337e-07
8.71432e-07
0.00106757
1.38029e-06
-0.00106623
6.95958e-07
-1.59648e-06
-1.03978e-07
-6.27981e-07
-1.35583e-06
-2.50594e-07
-7.7469e-07
4.24151e-07
-7.10545e-07
-7.1786e-07
0.000259748
-8.32635e-07
0.000262805
-0.000260679
-2.13409e-07
-2.08308e-07
8.23517e-07
0.00106421
-6.53758e-07
7.81414e-07
-1.4628e-07
3.79592e-07
-8.02581e-07
-1.39949e-06
-2.89429e-07
-1.63912e-06
1.63861e-06
8.30069e-07
0.0010633
-6.58962e-07
8.17417e-07
-1.43868e-07
3.7716e-07
-8.0225e-07
-1.39654e-06
-2.89301e-07
0.00106816
1.38138e-06
-0.00106684
6.99996e-07
-1.55324e-06
-1.08793e-07
-6.2275e-07
-1.35054e-06
-2.48057e-07
-7.74679e-07
4.23998e-07
8.60853e-07
0.00106725
1.38005e-06
-0.00106591
7.01116e-07
-1.58856e-06
-1.0644e-07
-6.27898e-07
-1.35297e-06
-2.50453e-07
-7.74392e-07
4.24114e-07
1.63317e-06
8.30103e-07
0.0010631
-6.5875e-07
8.14742e-07
-1.46261e-07
3.77081e-07
-8.02163e-07
-2.89342e-07
-1.39644e-06
1.38099e-06
-0.00106658
7.05354e-07
-1.56103e-06
-1.11212e-07
-6.22596e-07
-1.35045e-06
-2.4808e-07
4.23866e-07
-7.74484e-07
8.63451e-07
0.00106704
1.37475e-06
-0.0010657
7.01135e-07
-1.58848e-06
-1.06314e-07
-6.27732e-07
-1.35291e-06
-2.50511e-07
-7.74332e-07
4.21361e-07
-7.13321e-07
-7.15297e-07
0.000259709
-8.24563e-07
0.000262753
-0.000260646
-2.13609e-07
-2.08254e-07
1.63468e-06
8.18416e-07
0.00106414
-6.5382e-07
7.75993e-07
-1.51393e-07
3.74453e-07
-7.99794e-07
-2.94267e-07
-1.39397e-06
1.38099e-06
-0.00106625
7.00278e-07
-1.55051e-06
-1.11216e-07
-6.22555e-07
-1.34488e-06
-2.50489e-07
4.15807e-07
-7.74409e-07
8.27243e-07
0.00106807
1.38139e-06
-0.00106674
7.0008e-07
-1.5507e-06
-1.11365e-07
-6.2283e-07
-1.35311e-06
-2.50509e-07
-7.77259e-07
4.21334e-07
-0.000260654
-2.13471e-07
-2.08387e-07
1.58899e-06
1.55625e-06
-6.70879e-07
-6.79207e-07
0.000260984
-8.89247e-07
-8.53038e-07
0.00026406
-0.000261936
-1.93528e-07
-1.88473e-07
6.89986e-07
0.00106848
-6.28514e-07
8.71813e-07
-9.97164e-08
4.23178e-07
-7.74801e-07
-1.35213e-06
-2.49427e-07
-1.59436e-06
1.3597e-06
7.00616e-07
0.00106891
-6.28731e-07
8.77227e-07
-9.97785e-08
4.28708e-07
-7.7776e-07
-1.35776e-06
-2.44577e-07
0.0010725
1.34723e-06
-0.00107117
6.75603e-07
-1.58925e-06
-8.68645e-08
-6.23812e-07
-1.36406e-06
-2.33346e-07
-7.74225e-07
4.31105e-07
8.947e-07
0.00107292
1.34752e-06
-0.00107159
6.75815e-07
-1.5946e-06
-8.44352e-08
-6.26672e-07
-1.37236e-06
-2.28443e-07
-7.79797e-07
4.39343e-07
-6.73918e-07
-6.76139e-07
0.000261004
-8.55707e-07
0.000264089
-0.000261962
-1.90923e-07
-1.85718e-07
6.89e-07
0.00106952
-6.26173e-07
8.35736e-07
-1.04644e-07
4.25791e-07
-7.77725e-07
-1.35772e-06
-2.44531e-07
-1.58638e-06
1.35951e-06
6.95341e-07
0.00106859
-6.28676e-07
8.69239e-07
-9.97529e-08
4.25934e-07
-7.77447e-07
-1.35489e-06
-2.44399e-07
0.00107353
1.34854e-06
-0.0010722
6.74611e-07
-1.55372e-06
-8.93017e-08
-6.21408e-07
-1.36699e-06
-2.28412e-07
-7.79798e-07
4.33756e-07
8.89333e-07
0.0010726
1.34732e-06
-0.00107127
6.7575e-07
-1.58927e-06
-8.43935e-08
-6.26607e-07
-1.36674e-06
-2.28278e-07
-7.7948e-07
4.33868e-07
1.36448e-06
6.90101e-07
0.00106839
-6.25824e-07
8.66543e-07
-1.04628e-07
4.25822e-07
-7.77395e-07
-2.46969e-07
-1.35485e-06
1.34821e-06
-0.00107193
6.74735e-07
-1.55631e-06
-8.91895e-08
-6.21254e-07
-1.36429e-06
-2.30923e-07
4.30974e-07
-7.77027e-07
8.83937e-07
0.0010724
1.34714e-06
-0.00107107
6.7571e-07
-1.58396e-06
-8.92783e-08
-6.21078e-07
-1.36412e-06
-2.30867e-07
-7.76826e-07
4.31087e-07
-6.74017e-07
-6.78646e-07
0.000260969
-8.50284e-07
0.00026404
-0.000261921
-1.93612e-07
-1.85728e-07
1.36075e-06
6.94299e-07
0.00106942
-6.20917e-07
8.27689e-07
-1.09642e-07
4.23208e-07
-7.75053e-07
-2.46985e-07
-1.35245e-06
1.34812e-06
-0.0010716
6.7482e-07
-1.55098e-06
-9.16456e-08
-6.18546e-07
-1.364e-06
-2.28386e-07
4.30967e-07
-7.79526e-07
8.50272e-07
0.00107344
1.34856e-06
-0.00107211
6.74663e-07
-1.5512e-06
-9.17963e-08
-6.18821e-07
-1.36174e-06
-2.30884e-07
-7.7711e-07
4.2846e-07
-0.000261934
-1.91049e-07
-1.85856e-07
1.58659e-06
1.55103e-06
-6.59451e-07
-6.65161e-07
0.000262247
-9.14637e-07
-8.78248e-07
0.000265278
-0.000263153
-1.68552e-07
-1.63398e-07
6.6402e-07
0.00107381
-6.19905e-07
8.97167e-07
-7.98233e-08
4.35954e-07
-7.70755e-07
-1.36445e-06
-2.25821e-07
-1.59196e-06
1.33375e-06
6.64226e-07
0.00107424
-6.22766e-07
9.02614e-07
-7.74023e-08
4.44241e-07
-7.76305e-07
-1.37277e-06
-2.20884e-07
0.00107767
1.31479e-06
-0.00107639
6.47413e-07
-1.58221e-06
-6.38738e-08
-6.11676e-07
-1.36792e-06
-2.07725e-07
-7.63177e-07
4.46926e-07
9.20085e-07
0.00107809
1.31511e-06
-0.00107682
6.47652e-07
-1.58761e-06
-6.14751e-08
-6.14553e-07
-1.37619e-06
-2.0279e-07
-7.68726e-07
4.55197e-07
-6.62553e-07
-6.67273e-07
0.000262273
-8.80925e-07
0.000265307
-0.000263179
-1.65924e-07
-1.60678e-07
6.63046e-07
0.00107484
-6.17498e-07
8.60906e-07
-8.22627e-08
4.38653e-07
-7.76306e-07
-1.36739e-06
-2.2086e-07
-1.58661e-06
1.33354e-06
6.6417e-07
0.00107392
-6.22702e-07
8.9725e-07
-7.73578e-08
4.38731e-07
-7.76011e-07
-1.36712e-06
-2.20749e-07
0.0010787
1.31601e-06
-0.00107743
6.46439e-07
-1.54654e-06
-6.63138e-08
-6.09269e-07
-1.37076e-06
-2.02756e-07
-7.68719e-07
4.49622e-07
9.14715e-07
0.00107777
1.31487e-06
-0.0010765
6.47553e-07
-1.58224e-06
-6.14204e-08
-6.14474e-07
-1.37058e-06
-2.02633e-07
-7.68442e-07
4.49727e-07
1.33336e-06
6.64108e-07
0.00107372
-6.17169e-07
8.9184e-07
-8.22372e-08
4.35974e-07
-7.73336e-07
-2.2332e-07
-1.36452e-06
1.31573e-06
-0.00107716
6.46575e-07
-1.54913e-06
-6.62064e-08
-6.09114e-07
-1.36806e-06
-2.05301e-07
4.46817e-07
-7.65979e-07
9.09264e-07
0.00107757
1.31471e-06
-0.0010763
6.47499e-07
-1.57693e-06
-6.62934e-08
-6.08943e-07
-1.36791e-06
-2.05236e-07
-7.65756e-07
4.46917e-07
-6.59995e-07
-6.672e-07
0.000262232
-8.75498e-07
0.000265258
-0.000263138
-1.686e-07
-1.60673e-07
1.33474e-06
6.63081e-07
0.00107476
-6.149e-07
8.58149e-07
-8.47434e-08
4.33348e-07
-7.7362e-07
-2.23334e-07
-1.36213e-06
1.31558e-06
-0.00107682
6.46605e-07
-1.54376e-06
-6.86448e-08
-6.06389e-07
-1.36778e-06
-2.02739e-07
4.46808e-07
-7.68465e-07
8.75486e-07
0.00107861
1.316e-06
-0.00107734
6.46469e-07
-1.54397e-06
-6.87757e-08
-6.06645e-07
-1.3655e-06
-2.0524e-07
-7.66032e-07
4.44287e-07
-0.000263151
-1.66047e-07
-1.60801e-07
1.57823e-06
1.54249e-06
-6.41564e-07
-6.47285e-07
0.000263446
-9.3911e-07
-9.02605e-07
0.000266427
-0.000264303
-1.43984e-07
-1.38796e-07
6.32086e-07
0.00107893
-6.06418e-07
9.22944e-07
-5.68234e-08
4.54518e-07
-7.56534e-07
-1.36425e-06
-1.9855e-07
-1.58363e-06
1.28912e-06
6.32346e-07
0.00107935
-6.09292e-07
9.28429e-07
-5.4413e-08
4.62786e-07
-7.6212e-07
-1.37267e-06
-1.93611e-07
0.0010826
1.26871e-06
-0.0010814
6.16396e-07
-1.56976e-06
-4.32008e-08
-5.94929e-07
-1.35967e-06
-1.82001e-07
-7.42703e-07
4.65966e-07
9.44603e-07
0.00108302
1.26911e-06
-0.00108182
6.16695e-07
-1.57518e-06
-4.0818e-08
-5.97814e-07
-1.36808e-06
-1.7705e-07
-7.48282e-07
4.74294e-07
-6.44721e-07
-6.49403e-07
0.000263472
-9.05265e-07
0.000266456
-0.000264329
-1.41378e-07
-1.36031e-07
6.31151e-07
0.00107996
-6.03992e-07
8.86555e-07
-5.92274e-08
4.57207e-07
-7.62115e-07
-1.36724e-06
-1.93581e-07
-1.57826e-06
1.28886e-06
6.32224e-07
0.00107903
-6.09223e-07
9.23026e-07
-5.43765e-08
4.5732e-07
-7.61804e-07
-1.36691e-06
-1.93455e-07
0.00108364
1.26983e-06
-0.00108244
6.15472e-07
-1.5339e-06
-4.56007e-08
-5.92491e-07
-1.3626e-06
-1.7701e-07
-7.48271e-07
4.68716e-07
9.39187e-07
0.0010827
1.26879e-06
-0.0010815
6.16549e-07
-1.56979e-06
-4.07729e-08
-5.97743e-07
-1.36232e-06
-1.76884e-07
-7.47973e-07
4.68792e-07
1.28871e-06
6.32168e-07
0.00107883
-6.03671e-07
9.17588e-07
-5.92123e-08
4.54502e-07
-7.59142e-07
-1.96054e-07
-1.36438e-06
1.26958e-06
-0.00108217
6.1565e-07
-1.53653e-06
-4.55224e-08
-5.92372e-07
-1.35989e-06
-1.79539e-07
4.65909e-07
-7.45513e-07
9.33711e-07
0.0010825
1.26863e-06
-0.0010813
6.16495e-07
-1.56446e-06
-4.55926e-08
-5.92179e-07
-1.35975e-06
-1.795e-07
-7.45304e-07
4.65991e-07
-6.42088e-07
-6.49347e-07
0.000263431
-8.99858e-07
0.000266406
-0.000264287
-1.43982e-07
-1.36084e-07
1.28995e-06
6.31158e-07
0.00107988
-6.01364e-07
8.83785e-07
-6.16807e-08
4.5187e-07
-7.59422e-07
-1.96056e-07
-1.36198e-06
1.26937e-06
-0.00108183
6.156e-07
-1.5311e-06
-4.7908e-08
-5.89607e-07
-1.35961e-06
-1.76998e-07
4.65884e-07
-7.48017e-07
8.99824e-07
0.00108355
1.26979e-06
-0.00108235
6.155e-07
-1.53134e-06
-4.8037e-08
-5.89848e-07
-1.35733e-06
-1.79493e-07
-7.45573e-07
4.63357e-07
-0.0002643
-1.41485e-07
-1.3619e-07
1.56911e-06
1.53322e-06
-6.22504e-07
-6.28222e-07
0.000264576
-9.69339e-07
-9.32713e-07
0.000267501
-0.000265377
-1.13603e-07
-1.0833e-07
6.12665e-07
0.00108379
-5.92256e-07
9.42853e-07
-3.94826e-08
4.69552e-07
-7.38173e-07
-1.35905e-06
-1.76481e-07
-1.57453e-06
1.26121e-06
6.12908e-07
0.00108421
-5.95125e-07
9.4833e-07
-3.71069e-08
4.77896e-07
-7.43775e-07
-1.36741e-06
-1.71543e-07
0.00108727
1.17246e-06
-0.00108614
5.64734e-07
-1.5504e-06
-1.92608e-08
-5.71441e-07
-1.33693e-06
-1.4686e-07
-7.08714e-07
4.98991e-07
9.7485e-07
0.00108769
1.1728e-06
-0.00108657
5.64875e-07
-1.55582e-06
-1.6947e-08
-5.74283e-07
-1.34527e-06
-1.41866e-07
-7.14255e-07
5.07373e-07
-6.25692e-07
-6.30329e-07
0.000264602
-9.35407e-07
0.00026753
-0.000265403
-1.10909e-07
-1.05606e-07
6.11737e-07
0.00108483
-5.89818e-07
9.06298e-07
-4.18847e-08
4.72316e-07
-7.43747e-07
-1.36193e-06
-1.71489e-07
-1.56914e-06
1.26093e-06
6.1277e-07
0.00108389
-5.95049e-07
9.42935e-07
-3.7048e-08
4.72373e-07
-7.43456e-07
-1.36172e-06
-1.71377e-07
0.00108831
1.17354e-06
-0.00108718
5.63721e-07
-1.51439e-06
-2.1581e-08
-5.68995e-07
-1.33984e-06
-1.41908e-07
-7.14317e-07
5.01709e-07
9.69414e-07
0.00108737
1.17261e-06
-0.00108624
5.64833e-07
-1.55042e-06
-1.69161e-08
-5.74234e-07
-1.33957e-06
-1.41758e-07
-7.13999e-07
5.01829e-07
1.26075e-06
6.12721e-07
0.00108369
-5.89505e-07
9.37439e-07
-4.18735e-08
4.69588e-07
-7.40784e-07
-1.73987e-07
-1.35907e-06
1.17326e-06
-0.00108691
5.63841e-07
-1.517e-06
-2.14837e-08
-5.68844e-07
-1.33712e-06
-1.4445e-07
4.98888e-07
-7.11555e-07
9.63875e-07
0.00108717
1.17243e-06
-0.00108604
5.64807e-07
-1.54511e-06
-2.1596e-08
-5.68706e-07
-1.33699e-06
-1.44406e-07
-7.11357e-07
4.98971e-07
-6.22997e-07
-6.30304e-07
0.00026456
-9.2993e-07
0.00026748
-0.000265362
-1.13609e-07
-1.05634e-07
1.26188e-06
6.11732e-07
0.00108474
-5.8717e-07
9.03521e-07
-4.431e-08
4.6695e-07
-7.41049e-07
-1.7398e-07
-1.35666e-06
1.17309e-06
-0.00108657
5.63851e-07
-1.51158e-06
-2.38346e-08
-5.66098e-07
-1.33687e-06
-1.41928e-07
4.98837e-07
-7.14101e-07
9.29895e-07
0.00108822
1.17346e-06
-0.00108709
5.63772e-07
-1.51182e-06
-2.39476e-08
-5.6634e-07
-1.33457e-06
-1.44403e-07
-7.11624e-07
4.96317e-07
-0.000265375
-1.11115e-07
-1.05752e-07
1.54376e-06
1.50773e-06
-5.88522e-07
-5.94233e-07
0.000265632
-1.03593e-06
-9.96579e-07
0.000268414
-0.000266324
-3.12298e-08
-2.55913e-08
5.57814e-07
0.00108835
-5.6165e-07
9.77254e-07
-9.97797e-09
5.06642e-07
-6.95431e-07
-1.32539e-06
-1.37878e-07
-1.54921e-06
1.1489e-06
5.57875e-07
0.00108878
-5.64523e-07
9.80062e-07
-1.00013e-08
5.15025e-07
-7.00985e-07
-1.33377e-06
-1.3288e-07
0.00109135
9.3315e-07
-0.00109045
4.36422e-07
-1.4983e-06
5.42673e-08
-5.081e-07
-1.25852e-06
-6.16548e-08
-6.21213e-07
5.89101e-07
1.0387e-06
0.00109178
9.3324e-07
-0.00109088
4.36511e-07
-1.50115e-06
5.42763e-08
-5.08255e-07
-1.26417e-06
-5.67067e-08
-6.26726e-07
5.94828e-07
-5.91635e-07
-5.96415e-07
0.000265659
-9.99251e-07
0.00026844
-0.000266351
-2.84583e-08
-2.29335e-08
5.56874e-07
0.0010894
-5.59227e-07
9.37934e-07
-1.44812e-08
5.0941e-07
-7.01036e-07
-1.32832e-06
-1.3288e-07
-1.54381e-06
1.14876e-06
5.57857e-07
0.00108846
-5.64482e-07
9.74617e-07
-9.97787e-09
5.09462e-07
-7.00747e-07
-1.32807e-06
-1.32782e-07
0.0010924
9.33755e-07
-0.0010915
4.35761e-07
-1.45945e-06
4.86172e-08
-5.02843e-07
-1.26127e-06
-5.66147e-08
-6.26641e-07
5.92032e-07
1.03333e-06
0.00109146
9.32994e-07
-0.00109056
4.3646e-07
-1.49567e-06
5.43003e-08
-5.08212e-07
-1.26117e-06
-5.66515e-08
-6.2651e-07
5.91962e-07
1.1485e-06
5.57904e-07
0.00108826
-5.58947e-07
9.69089e-07
-1.4515e-08
5.06663e-07
-6.98073e-07
-1.3538e-07
-1.32546e-06
9.33663e-07
-0.00109123
4.35758e-07
-1.46209e-06
4.87524e-08
-5.02672e-07
-1.25858e-06
-5.91437e-08
5.89156e-07
-6.23919e-07
1.02792e-06
0.00109125
9.3307e-07
-0.00109035
4.36362e-07
-1.49019e-06
4.85842e-08
-5.02537e-07
-1.25848e-06
-5.9142e-08
-6.2375e-07
5.8918e-07
-5.88997e-07
-5.96392e-07
0.000265617
-9.93848e-07
0.00026839
-0.000266309
-3.1196e-08
-2.28352e-08
1.1495e-06
5.56937e-07
0.00108931
-5.56574e-07
9.35112e-07
-1.68002e-08
5.04037e-07
-6.98326e-07
-1.35351e-07
-1.32303e-06
9.33572e-07
-0.00109089
4.35783e-07
-1.4566e-06
4.58797e-08
-4.99892e-07
-1.25827e-06
-5.66078e-08
5.89179e-07
-6.26408e-07
9.93937e-07
0.00109231
9.33722e-07
-0.00109141
4.35582e-07
-1.45672e-06
4.57995e-08
-5.00058e-07
-1.25594e-06
-5.90106e-08
-6.23893e-07
5.86674e-07
-0.000266322
-2.85204e-08
-2.27849e-08
1.46133e-06
1.42234e-06
-4.8603e-07
-4.91514e-07
0.000266508
-1.15568e-06
-1.11643e-06
0.000268775
-0.000266766
1.28718e-07
1.33897e-07
3.67367e-07
0.00109206
-4.67969e-07
1.07534e-06
9.51701e-08
6.49403e-07
-5.61308e-07
-1.19823e-06
-6.03112e-09
-1.46414e-06
7.96371e-07
3.6747e-07
0.00109249
-4.68075e-07
1.07817e-06
9.51519e-08
6.55154e-07
-5.66817e-07
-1.20386e-06
-3.91742e-09
0.00109323
4.77876e-07
-0.00109296
2.39306e-07
-1.36908e-06
1.76891e-07
-3.75369e-07
-1.06094e-06
1.33398e-07
-4.14562e-07
7.69373e-07
1.15844e-06
0.00109366
4.77938e-07
-0.0010934
2.3931e-07
-1.37191e-06
1.76933e-07
-3.75444e-07
-1.06662e-06
1.36217e-07
-4.17408e-07
7.75049e-07
-4.89025e-07
-4.93765e-07
0.000266534
-1.11913e-06
0.000268802
-0.000266792
1.31472e-07
1.3631e-07
3.66756e-07
0.00109311
-4.62639e-07
1.03598e-06
8.95821e-08
6.52336e-07
-5.66758e-07
-1.20098e-06
-3.84543e-09
-1.45866e-06
7.96156e-07
3.67444e-07
0.00109217
-4.68036e-07
1.07277e-06
9.51912e-08
6.5224e-07
-5.66642e-07
-1.20088e-06
-3.8761e-09
0.00109428
4.78495e-07
-0.00109402
2.38576e-07
-1.33002e-06
1.71471e-07
-3.70013e-07
-1.06374e-06
1.36232e-07
-4.17403e-07
7.72225e-07
1.15304e-06
0.00109334
4.78019e-07
-0.00109307
2.39342e-07
-1.36647e-06
1.76896e-07
-3.75468e-07
-1.0637e-06
1.36198e-07
-4.17298e-07
7.72115e-07
7.96181e-07
3.67329e-07
0.00109196
-4.62432e-07
1.06734e-06
8.95283e-08
6.49402e-07
-5.63926e-07
-6.02206e-09
-1.19825e-06
4.78352e-07
-0.00109375
2.38614e-07
-1.33263e-06
1.71565e-07
-3.69888e-07
-1.06101e-06
1.33426e-07
7.6942e-07
-4.14661e-07
1.14761e-06
0.00109313
4.77995e-07
-0.00109287
2.39343e-07
-1.361e-06
1.71356e-07
-3.69831e-07
-1.06098e-06
1.33347e-07
-4.14561e-07
7.69397e-07
-4.86371e-07
-4.93667e-07
0.000266492
-1.11361e-06
0.000268751
-0.00026675
1.28815e-07
1.36329e-07
7.96686e-07
3.6659e-07
0.00109302
-4.59921e-07
1.03332e-06
8.67782e-08
6.469e-07
-5.64027e-07
-5.88357e-09
-1.19569e-06
4.7833e-07
-0.0010934
2.38733e-07
-1.32722e-06
1.68687e-07
-3.67197e-07
-1.06078e-06
1.36195e-07
7.6936e-07
-4.17238e-07
1.11373e-06
0.00109419
4.7847e-07
-0.00109393
2.38725e-07
-1.32734e-06
1.68719e-07
-3.67299e-07
-1.05839e-06
1.33509e-07
-4.14666e-07
7.66912e-07
-0.000266763
1.31251e-07
1.36502e-07
1.35021e-06
1.31107e-06
-3.34941e-07
-3.40356e-07
0.000266789
-1.22044e-06
-1.18131e-06
0.000268792
-0.0002668
2.02244e-07
2.07429e-07
2.10874e-07
0.00109342
-3.55952e-07
1.1726e-06
1.93537e-07
7.93844e-07
-3.84706e-07
-1.03442e-06
1.60177e-07
-1.35304e-06
4.01984e-07
2.1085e-07
0.00109386
-3.5599e-07
1.17539e-06
1.9361e-07
7.99485e-07
-3.87558e-07
-1.04012e-06
1.6297e-07
0.0010937
1.85965e-07
-0.00109364
1.07439e-07
-1.30003e-06
2.36435e-07
-3.10165e-07
-9.62325e-07
2.23796e-07
-3.16612e-07
8.6255e-07
1.22325e-06
0.00109413
1.86108e-07
-0.00109408
1.07403e-07
-1.30281e-06
2.3649e-07
-3.10197e-07
-9.68054e-07
2.26586e-07
-3.19483e-07
8.68177e-07
-3.37781e-07
-3.42681e-07
0.000266815
-1.18399e-06
0.000268818
-0.000266826
2.05013e-07
2.09849e-07
2.10142e-07
0.00109448
-3.50535e-07
1.13342e-06
1.88185e-07
7.96628e-07
-3.87578e-07
-1.03727e-06
1.62955e-07
-1.34758e-06
4.02079e-07
2.10862e-07
0.00109353
-3.56006e-07
1.16999e-06
1.93582e-07
7.96565e-07
-3.87468e-07
-1.0372e-06
1.6294e-07
0.00109475
1.86327e-07
-0.0010947
1.06914e-07
-1.26081e-06
2.31135e-07
-3.04679e-07
-9.65176e-07
2.26591e-07
-3.19503e-07
8.65359e-07
1.21782e-06
0.00109381
1.8617e-07
-0.00109376
1.0741e-07
-1.29739e-06
2.36476e-07
-3.10201e-07
-9.65115e-07
2.26535e-07
-3.1939e-07
8.65265e-07
4.02046e-07
2.10906e-07
0.00109333
-3.50393e-07
1.16454e-06
1.88007e-07
7.93837e-07
-3.84719e-07
1.60108e-07
-1.03448e-06
1.86208e-07
-0.00109443
1.06935e-07
-1.26347e-06
2.31123e-07
-3.04659e-07
-9.62435e-07
2.23828e-07
8.62577e-07
-3.16719e-07
1.21236e-06
0.0010936
1.86139e-07
-0.00109355
1.07491e-07
-1.29196e-06
2.30909e-07
-3.04622e-07
-9.62403e-07
2.23746e-07
-3.16636e-07
8.62532e-07
-3.35267e-07
-3.42609e-07
0.000266773
-1.17848e-06
0.000268768
-0.000266784
2.02387e-07
2.09819e-07
4.02521e-07
2.10331e-07
0.00109439
-3.47838e-07
1.1307e-06
1.85415e-07
7.91321e-07
-3.84848e-07
1.60249e-07
-1.03192e-06
1.8618e-07
-0.00109409
1.07038e-07
-1.25804e-06
2.28317e-07
-3.01928e-07
-9.62209e-07
2.26526e-07
8.625e-07
-3.19349e-07
1.17859e-06
0.00109466
1.86327e-07
-0.00109461
1.07081e-07
-1.25816e-06
2.28377e-07
-3.01988e-07
-9.59861e-07
2.23882e-07
-3.1677e-07
8.60014e-07
-0.000266797
2.04749e-07
2.10028e-07
1.2862e-06
1.24698e-06
-2.64518e-07
-2.69886e-07
0.000266793
-1.25337e-06
-1.2142e-06
0.000268769
-0.000266775
2.33995e-07
2.39325e-07
7.62326e-08
0.00109372
-2.98005e-07
1.23295e-06
2.4742e-07
8.78498e-07
-3.00807e-07
-9.44342e-07
2.37881e-07
-1.28898e-06
1.28859e-07
7.09011e-08
0.00109417
-2.98038e-07
1.23577e-06
2.47487e-07
8.841e-07
-3.03643e-07
-9.50058e-07
2.40679e-07
0.00109374
2.98865e-08
-0.00109374
2.11155e-08
-1.26245e-06
2.6543e-07
-2.77329e-07
-9.15918e-07
2.59602e-07
-2.75953e-07
9.02856e-07
1.2562e-06
0.00109418
2.98798e-08
-0.00109418
2.62081e-08
-1.26521e-06
2.65526e-07
-2.77328e-07
-9.21544e-07
2.62429e-07
-2.78763e-07
9.08549e-07
-2.67332e-07
-2.72235e-07
0.000266819
-1.21691e-06
0.000268796
-0.000266801
2.36843e-07
2.41737e-07
7.57994e-08
0.00109478
-2.9253e-07
1.19381e-06
2.4211e-07
8.81334e-07
-3.03644e-07
-9.47174e-07
2.4071e-07
-1.28356e-06
1.28875e-07
7.61993e-08
0.00109384
-2.98041e-07
1.23033e-06
2.47471e-07
8.81234e-07
-3.03578e-07
-9.47112e-07
2.40635e-07
0.0010948
2.97543e-08
-0.0010948
2.08228e-08
-1.22326e-06
2.60082e-07
-2.71893e-07
-9.18645e-07
2.62504e-07
-2.78709e-07
9.05806e-07
1.25075e-06
0.00109385
2.98201e-08
-0.00109385
2.09919e-08
-1.25981e-06
2.65503e-07
-2.77339e-07
-9.18641e-07
2.62431e-07
-2.78641e-07
9.05637e-07
1.28883e-07
7.62728e-08
0.00109363
-2.92459e-07
1.22487e-06
2.41902e-07
8.78486e-07
-3.00796e-07
2.37844e-07
-9.44413e-07
2.96744e-08
-0.00109453
2.07436e-08
-1.2259e-06
2.57376e-07
-2.69072e-07
-9.15913e-07
2.59735e-07
9.03004e-07
-2.75893e-07
1.24529e-06
0.00109364
2.98834e-08
-0.00109365
2.10645e-08
-1.25438e-06
2.59934e-07
-2.71759e-07
-9.15933e-07
2.59605e-07
-2.75901e-07
9.02905e-07
-2.64773e-07
-2.72206e-07
0.000266777
-1.21145e-06
0.000268745
-0.000266759
2.34261e-07
2.41674e-07
1.28952e-07
7.59224e-08
0.00109469
-2.89824e-07
1.1911e-06
2.39372e-07
8.75991e-07
-3.00912e-07
2.37999e-07
-9.41846e-07
2.97013e-08
-0.00109418
2.07283e-08
-1.22043e-06
2.57365e-07
-2.69046e-07
-9.15734e-07
2.62409e-07
9.02881e-07
-2.78583e-07
1.21154e-06
0.00109471
2.97574e-08
-0.00109471