/*--------------------------------*- C++ -*----------------------------------*\
| =========                 |                                                 |
| \\      /  F ield         | OpenFOAM: The Open Source CFD Toolbox           |
|  \\    /   O peration     | Version:  2206                                  |
|   \\  /    A nd           | Website:  www.openfoam.com                      |
|    \\/     M anipulation  |                                                 |
\*---------------------------------------------------------------------------*/
FoamFile
{
    version     2.0;
    format      ascii;
    arch        "LSB;label=32;scalar=64";
    class       volScalarField;
    location    "12.5";
    object      Ux;
}
// * * * * * * * * * * * * * * * * * * * * * * * * * * * * * * * * * * * * * //

dimensions      [0 1 -1 0 0 0 0];

internalField   nonuniform List<scalar> 
171728
(
0.000107485
-0.000187099
0.00011716
-0.000237888
9.07759e-05
-0.000162171
9.91493e-05
-0.000193148
7.44318e-05
-0.000105451
6.24664e-05
-0.000153074
1.47302e-05
-1.79776e-05
1.23232e-05
-5.27349e-05
8.06143e-07
-1.56229e-06
1.33345e-06
-3.80594e-05
-3.76003e-07
-3.38032e-07
5.13101e-07
-3.72631e-05
-4.37715e-07
-2.94132e-07
4.79484e-07
-3.72327e-05
-4.38581e-07
-2.93928e-07
4.79488e-07
-3.72315e-05
-4.40395e-07
-2.94715e-07
4.7917e-07
-3.72316e-05
-4.39029e-07
-2.94349e-07
4.79403e-07
-3.72322e-05
-4.36283e-07
-2.93653e-07
4.79391e-07
-3.72318e-05
-4.41281e-07
-2.95883e-07
4.7875e-07
-3.72309e-05
-4.40529e-07
-3.01988e-07
4.77629e-07
-3.72313e-05
-4.40751e-07
-2.99655e-07
4.77609e-07
-3.72313e-05
-4.43314e-07
-2.93902e-07
4.77829e-07
-3.72318e-05
-4.43196e-07
-2.93612e-07
4.77633e-07
-3.72323e-05
-4.41501e-07
-2.96023e-07
4.79032e-07
-3.72326e-05
-4.41326e-07
-2.95334e-07
4.78943e-07
-3.7233e-05
-4.38775e-07
-2.95699e-07
4.79352e-07
-3.72329e-05
-4.32848e-07
-2.9063e-07
4.7931e-07
-3.7232e-05
-4.3011e-07
-2.98211e-07
4.79118e-07
-3.72306e-05
-4.39381e-07
-2.95316e-07
4.78439e-07
-3.72306e-05
-4.40685e-07
-2.94942e-07
4.78464e-07
-3.72306e-05
-4.41275e-07
-2.94636e-07
4.78491e-07
-3.72315e-05
-4.40622e-07
-2.95676e-07
4.79114e-07
-3.72326e-05
-4.40736e-07
-2.95649e-07
4.79042e-07
-3.72328e-05
-4.40986e-07
-2.95256e-07
4.78928e-07
-3.72322e-05
-4.41354e-07
-2.94322e-07
4.7819e-07
-3.72315e-05
-4.4204e-07
-2.93538e-07
4.77631e-07
-3.72313e-05
-4.41774e-07
-2.94063e-07
4.77992e-07
-3.72312e-05
-4.41613e-07
-2.93403e-07
4.77799e-07
-3.72313e-05
-4.40945e-07
-2.95001e-07
4.78911e-07
-3.72323e-05
-4.40924e-07
-2.95378e-07
4.79054e-07
-3.72326e-05
-4.40519e-07
-2.95686e-07
4.79601e-07
-3.72326e-05
-4.40944e-07
-2.95368e-07
4.79163e-07
-3.72323e-05
-4.41793e-07
-2.93737e-07
4.78096e-07
-3.72311e-05
-4.41469e-07
-2.94247e-07
4.78387e-07
-3.72318e-05
-4.4222e-07
-2.92486e-07
4.77297e-07
-3.72303e-05
-4.41524e-07
-2.94852e-07
4.78391e-07
-3.72318e-05
-4.4099e-07
-2.93801e-07
4.77157e-07
-3.72287e-05
-4.34998e-07
-2.92376e-07
4.78557e-07
-3.72304e-05
-4.43823e-07
-2.94439e-07
4.78116e-07
-3.72332e-05
-4.41558e-07
-2.94669e-07
4.78299e-07
-3.72327e-05
-4.41492e-07
-2.94192e-07
4.77701e-07
-3.72321e-05
-4.41337e-07
-2.92932e-07
4.76679e-07
-3.72308e-05
-4.41138e-07
-2.9405e-07
4.77387e-07
-3.72316e-05
-4.41067e-07
-2.93691e-07
4.77249e-07
-3.72315e-05
-4.4007e-07
-2.95362e-07
4.78423e-07
-3.72326e-05
-4.40145e-07
-2.95375e-07
4.78488e-07
-3.72331e-05
-4.40305e-07
-2.95234e-07
4.78399e-07
-3.72324e-05
-4.40394e-07
-2.95358e-07
4.78244e-07
-3.72329e-05
-4.41063e-07
-2.9343e-07
4.77198e-07
-3.72308e-05
-4.40762e-07
-2.93706e-07
4.77411e-07
-3.72309e-05
-4.39869e-07
-2.93681e-07
4.77532e-07
-3.72306e-05
-4.38056e-07
-2.94677e-07
4.78576e-07
-3.72309e-05
-4.397e-07
-2.94258e-07
4.78199e-07
-3.72325e-05
-4.39226e-07
-2.9723e-07
4.78941e-07
-3.72352e-05
-4.38691e-07
-2.97391e-07
4.79714e-07
-3.72353e-05
-4.38957e-07
-2.96263e-07
4.78918e-07
-3.72342e-05
-4.39213e-07
-2.96152e-07
4.79025e-07
-3.72343e-05
-4.40445e-07
-2.94482e-07
4.77846e-07
-3.72329e-05
-4.39264e-07
-2.95973e-07
4.79034e-07
-3.72336e-05
-4.39274e-07
-2.95543e-07
4.78415e-07
-3.72338e-05
-4.38809e-07
-2.96845e-07
4.79349e-07
-3.72345e-05
-4.38547e-07
-2.97528e-07
4.79995e-07
-3.72351e-05
-4.38474e-07
-2.96487e-07
4.79192e-07
-3.7235e-05
-4.38777e-07
-2.96797e-07
4.79419e-07
-3.72347e-05
-4.39839e-07
-2.95236e-07
4.78585e-07
-3.72339e-05
-4.39208e-07
-2.95843e-07
4.80228e-07
-3.72353e-05
-4.38955e-07
-2.94325e-07
4.86176e-07
-3.7238e-05
-4.38558e-07
-2.96456e-07
4.82625e-07
-3.72378e-05
-4.38398e-07
-2.96565e-07
4.79789e-07
-3.72351e-05
-4.38421e-07
-2.97119e-07
4.79847e-07
-3.72353e-05
-4.38418e-07
-2.9745e-07
4.80057e-07
-3.72351e-05
-4.39188e-07
-2.96035e-07
4.78838e-07
-3.72347e-05
-4.3944e-07
-2.95886e-07
4.78853e-07
-3.7234e-05
-4.40076e-07
-2.95021e-07
4.7859e-07
-3.72336e-05
-4.39622e-07
-2.95781e-07
4.78637e-07
-3.72341e-05
-4.39284e-07
-2.95374e-07
4.78904e-07
-3.72341e-05
-4.3862e-07
-2.97287e-07
4.79644e-07
-3.72354e-05
-4.3856e-07
-2.9724e-07
4.79683e-07
-3.7235e-05
-4.3862e-07
-2.97348e-07
4.79847e-07
-3.72355e-05
-4.39134e-07
-2.96098e-07
4.79047e-07
-3.72344e-05
-4.39548e-07
-2.95599e-07
4.78529e-07
-3.7234e-05
-4.39656e-07
-2.95632e-07
4.78535e-07
-3.72334e-05
-4.39779e-07
-2.95211e-07
4.78379e-07
-3.72338e-05
-4.39157e-07
-2.96156e-07
4.79165e-07
-3.72347e-05
-4.38594e-07
-2.96924e-07
4.7996e-07
-3.72353e-05
-4.38347e-07
-2.97064e-07
4.79986e-07
-3.72354e-05
-4.40573e-07
-2.95986e-07
4.78669e-07
-3.72346e-05
-4.5605e-07
-2.95763e-07
4.8197e-07
-3.72192e-05
-3.89477e-07
-6.89753e-07
7.61959e-07
-3.68704e-05
-8.36045e-07
-2.58623e-06
1.9355e-06
-3.38422e-05
-4.86122e-06
-2.06963e-06
3.09232e-06
-2.46988e-05
-4.3051e-05
4.13304e-05
-3.54199e-05
5.06005e-05
0.000135793
0.000124675
-0.00012467
-0.000135788
0.000153568
0.000153538
9.05569e-05
-9.05451e-05
9.05265e-05
-9.05222e-05
-0.000153565
-0.000153544
0.00013578
0.000124624
-0.00012462
-0.000135788
0.000237929
0.000113285
0.000117211
-0.000117152
8.35208e-05
-8.3483e-05
-0.000237944
-0.000113243
0.000187139
0.000187078
0.000141307
0.000141334
-0.000187064
-0.000141271
-0.000141298
0.000237863
0.00011324
-0.000117139
8.35024e-05
-8.34828e-05
-0.000113238
0.000193231
9.32094e-05
9.91551e-05
-9.91324e-05
8.17133e-05
-8.17053e-05
-0.000193194
-9.32024e-05
0.000162204
0.000162218
0.000137157
0.000137182
-0.000162184
-0.000137141
-0.000137146
0.000193146
9.3163e-05
-9.91316e-05
8.17429e-05
-8.17421e-05
-9.31522e-05
0.000153183
-1.74289e-05
6.25243e-05
-6.25066e-05
2.02335e-05
-2.02349e-05
-0.000153168
1.74279e-05
0.000105469
0.000105497
3.06988e-05
3.07022e-05
-0.000105468
-3.06959e-05
-3.06872e-05
0.00015307
-1.7402e-05
-6.24458e-05
2.02107e-05
-2.02081e-05
1.7425e-05
5.27554e-05
-3.73537e-05
1.23419e-05
-1.23431e-05
2.26472e-06
-2.27066e-06
-5.27582e-05
3.73554e-05
1.79787e-05
1.79884e-05
2.8883e-06
2.89966e-06
-1.79779e-05
-2.88844e-06
-2.9019e-06
5.27335e-05
-3.73292e-05
-1.23206e-05
2.25125e-06
-2.25044e-06
3.73339e-05
3.80654e-05
-3.85688e-05
1.3448e-06
-1.35395e-06
5.67209e-07
-5.80947e-07
-3.8069e-05
3.85654e-05
1.56405e-06
1.57226e-06
4.02931e-07
4.15613e-07
-1.57422e-06
-4.06782e-07
-4.16806e-07
3.80468e-05
-3.854e-05
-1.33305e-06
5.57167e-07
-5.58164e-07
3.85438e-05
3.72656e-05
-3.86104e-05
5.23381e-07
-5.37312e-07
4.91982e-07
-4.93297e-07
-3.72743e-05
3.86106e-05
3.39739e-07
3.49562e-07
2.95235e-07
3.0811e-07
-3.50154e-07
-2.94936e-07
-3.0704e-07
3.72493e-05
-3.85844e-05
-5.13493e-07
4.7927e-07
-4.78455e-07
3.85895e-05
3.72408e-05
-3.86092e-05
4.95394e-07
-4.92581e-07
4.97945e-07
-4.91289e-07
-3.72406e-05
3.86128e-05
2.98368e-07
3.07408e-07
2.93727e-07
3.06026e-07
-3.06539e-07
-2.92284e-07
-3.04614e-07
3.72203e-05
-3.85851e-05
-4.78423e-07
4.77464e-07
-4.75712e-07
3.85911e-05
3.72402e-05
-3.86095e-05
4.94936e-07
-4.92601e-07
4.94025e-07
-4.9271e-07
-3.72398e-05
3.86116e-05
2.9778e-07
3.07452e-07
2.94694e-07
3.06683e-07
-3.05563e-07
-2.93684e-07
-3.04577e-07
3.72199e-05
-3.85846e-05
-4.7708e-07
4.77668e-07
-4.75565e-07
3.8591e-05
3.72403e-05
-3.86104e-05
4.9276e-07
-4.93238e-07
4.93271e-07
-4.92094e-07
-3.72401e-05
3.86139e-05
2.9825e-07
3.07716e-07
2.9409e-07
3.06826e-07
-3.0561e-07
-2.93653e-07
-3.04469e-07
3.72202e-05
-3.85843e-05
-4.76866e-07
4.7741e-07
-4.75568e-07
3.85906e-05
3.72407e-05
-3.86064e-05
4.96547e-07
-4.92464e-07
5.03946e-07
-4.92174e-07
-3.72393e-05
3.86194e-05
2.98797e-07
3.08206e-07
2.95047e-07
3.07321e-07
-3.05985e-07
-2.92968e-07
-3.04483e-07
3.72209e-05
-3.85839e-05
-4.77195e-07
4.7814e-07
-4.75535e-07
3.85908e-05
3.7244e-05
-3.86083e-05
5.03319e-07
-4.92085e-07
4.94697e-07
-4.93805e-07
-3.72385e-05
3.86184e-05
2.98451e-07
3.07783e-07
2.93682e-07
3.06092e-07
-3.05394e-07
-2.93082e-07
-3.03762e-07
3.7221e-05
-3.85852e-05
-4.76886e-07
4.76944e-07
-4.7478e-07
3.85914e-05
3.72411e-05
-3.86114e-05
4.93488e-07
-4.94677e-07
4.90366e-07
-4.92598e-07
-3.72396e-05
3.86156e-05
2.98142e-07
3.06903e-07
2.91228e-07
3.04762e-07
-3.0501e-07
-2.99442e-07
-3.04382e-07
3.72195e-05
-3.85861e-05
-4.76231e-07
4.76205e-07
-4.74328e-07
3.8591e-05
3.72381e-05
-3.86129e-05
4.91077e-07
-4.9265e-07
4.88696e-07
-4.89957e-07
-3.72425e-05
3.8612e-05
2.94931e-07
3.05412e-07
2.90124e-07
3.03686e-07
-3.0575e-07
-2.98859e-07
-3.0461e-07
3.72184e-05
-3.85868e-05
-4.75693e-07
4.75845e-07
-4.74191e-07
3.85911e-05
3.72377e-05
-3.86088e-05
4.91375e-07
-4.90943e-07
4.8888e-07
-4.93407e-07
-3.72451e-05
3.86147e-05
2.94812e-07
3.04878e-07
2.91719e-07
3.04455e-07
-3.05609e-07
-2.9244e-07
-3.04648e-07
3.72181e-05
-3.85864e-05
-4.75876e-07
4.7627e-07
-4.75597e-07
3.85912e-05
3.72387e-05
-3.86103e-05
4.88731e-07
-4.96217e-07
4.86389e-07
-5.02946e-07
-3.72444e-05
3.86109e-05
2.96018e-07
3.05837e-07
2.92299e-07
3.05038e-07
-3.05568e-07
-2.93871e-07
-3.05019e-07
3.72188e-05
-3.85861e-05
-4.77251e-07
4.75974e-07
-4.76384e-07
3.85904e-05
3.72376e-05
-3.86073e-05
4.86538e-07
-5.01145e-07
4.90115e-07
-4.95844e-07
-3.72449e-05
3.86109e-05
2.96365e-07
3.05906e-07
2.9433e-07
3.06448e-07
-3.05643e-07
-2.94917e-07
-3.05339e-07
3.72192e-05
-3.85849e-05
-4.77447e-07
4.76941e-07
-4.76249e-07
3.85904e-05
3.72398e-05
-3.86079e-05
4.89583e-07
-4.94304e-07
4.90723e-07
-4.92305e-07
-3.7243e-05
3.86134e-05
2.98477e-07
3.07565e-07
2.94511e-07
3.06492e-07
-3.06657e-07
-2.9448e-07
-3.05484e-07
3.72203e-05
-3.85845e-05
-4.78039e-07
4.77445e-07
-4.76459e-07
3.859e-05
3.72398e-05
-3.86104e-05
4.87984e-07
-4.94903e-07
4.91182e-07
-4.98985e-07
-3.7241e-05
3.86127e-05
2.9822e-07
3.07613e-07
2.93247e-07
3.06864e-07
-3.066e-07
-2.93753e-07
-3.05514e-07
3.72208e-05
-3.85846e-05
-4.77539e-07
4.7753e-07
-4.75812e-07
3.85906e-05
3.72402e-05
-3.86127e-05
4.96567e-07
-4.99632e-07
4.94354e-07
-4.89377e-07
-3.72464e-05
3.862e-05
2.97031e-07
3.07689e-07
2.93418e-07
3.05464e-07
-3.07817e-07
-2.92828e-07
-3.09729e-07
3.72211e-05
-3.85853e-05
-4.77048e-07
4.77297e-07
-4.73452e-07
3.85902e-05
3.72432e-05
-3.86193e-05
4.95238e-07
-4.77608e-07
4.97332e-07
-4.91873e-07
-3.72276e-05
3.86085e-05
2.98676e-07
3.06584e-07
2.98489e-07
3.05899e-07
-3.10492e-07
-2.96528e-07
-3.0265e-07
3.72199e-05
-3.85851e-05
-4.74418e-07
4.77794e-07
-4.73652e-07
3.8592e-05
3.72396e-05
-3.86172e-05
4.97914e-07
-4.91719e-07
4.8795e-07
-4.91224e-07
-3.72414e-05
3.86182e-05
2.99297e-07
3.0667e-07
2.91689e-07
3.04603e-07
-3.03562e-07
-2.93111e-07
-3.02787e-07
3.72196e-05
-3.85857e-05
-4.75272e-07
4.76872e-07
-4.7437e-07
3.85918e-05
3.72437e-05
-3.86157e-05
4.91565e-07
-4.91647e-07
4.90745e-07
-4.92484e-07
-3.72356e-05
3.86132e-05
2.9667e-07
3.05377e-07
2.9246e-07
3.05061e-07
-3.03998e-07
-2.93377e-07
-3.03032e-07
3.72191e-05
-3.85857e-05
-4.76178e-07
4.76476e-07
-4.7469e-07
3.85921e-05
3.72445e-05
-3.86154e-05
4.9125e-07
-4.94047e-07
4.91139e-07
-4.93122e-07
-3.72397e-05
3.86126e-05
2.96985e-07
3.06184e-07
2.92946e-07
3.05385e-07
-3.04976e-07
-2.93157e-07
-3.04209e-07
3.72191e-05
-3.85854e-05
-4.76866e-07
4.76533e-07
-4.75298e-07
3.8591e-05
3.7245e-05
-3.8614e-05
4.92049e-07
-4.94497e-07
4.92697e-07
-4.93943e-07
-3.72402e-05
3.8612e-05
2.97534e-07
3.06561e-07
2.93932e-07
3.06266e-07
-3.05066e-07
-2.94115e-07
-3.04846e-07
3.72194e-05
-3.85844e-05
-4.769e-07
4.77422e-07
-4.76173e-07
3.85901e-05
3.7246e-05
-3.86136e-05
4.93219e-07
-4.94948e-07
4.92944e-07
-4.94126e-07
-3.72407e-05
3.86114e-05
2.98365e-07
3.07605e-07
2.94068e-07
3.06683e-07
-3.06044e-07
-2.94386e-07
-3.04779e-07
3.72202e-05
-3.85842e-05
-4.77727e-07
4.77583e-07
-4.76276e-07
3.85894e-05
3.72463e-05
-3.86143e-05
4.92995e-07
-4.94902e-07
4.92312e-07
-4.93743e-07
-3.72413e-05
3.86121e-05
2.97993e-07
3.07215e-07
2.93655e-07
3.05911e-07
-3.05734e-07
-2.93856e-07
-3.03978e-07
3.72203e-05
-3.8585e-05
-4.77751e-07
4.77073e-07
-4.75991e-07
3.85902e-05
3.72459e-05
-3.8615e-05
4.92585e-07
-4.94708e-07
4.9191e-07
-4.93037e-07
-3.72407e-05
3.86129e-05
2.97884e-07
3.07085e-07
2.92927e-07
3.054e-07
-3.04895e-07
-2.93213e-07
-3.03338e-07
3.72197e-05
-3.85854e-05
-4.77111e-07
4.76828e-07
-4.75217e-07
3.8591e-05
3.72449e-05
-3.86151e-05
4.92181e-07
-4.93915e-07
4.91383e-07
-4.92256e-07
-3.72398e-05
3.86133e-05
2.96898e-07
3.05839e-07
2.92289e-07
3.04649e-07
-3.04499e-07
-2.9248e-07
-3.03083e-07
3.72191e-05
-3.85857e-05
-4.76949e-07
4.76303e-07
-4.75252e-07
3.85908e-05
3.72447e-05
-3.86156e-05
4.91127e-07
-4.94003e-07
4.91506e-07
-4.91421e-07
-3.72395e-05
3.86137e-05
2.95972e-07
3.05093e-07
2.91806e-07
3.04431e-07
-3.03402e-07
-2.92654e-07
-3.02864e-07
3.72188e-05
-3.8586e-05
-4.76119e-07
4.76396e-07
-4.75193e-07
3.85914e-05
3.72446e-05
-3.86149e-05
4.92063e-07
-4.95631e-07
4.91564e-07
-4.89509e-07
-3.72396e-05
3.86131e-05
2.96416e-07
3.05449e-07
2.92442e-07
3.04733e-07
-3.0386e-07
-2.92358e-07
-3.02613e-07
3.72188e-05
-3.85857e-05
-4.76553e-07
4.76358e-07
-4.74898e-07
3.85915e-05
3.7245e-05
-3.86145e-05
4.91582e-07
-4.9826e-07
4.92123e-07
-4.92163e-07
-3.72406e-05
3.86134e-05
2.96151e-07
3.05369e-07
2.93254e-07
3.05773e-07
-3.036e-07
-2.93845e-07
-3.04186e-07
3.7219e-05
-3.8585e-05
-4.7638e-07
4.7724e-07
-4.76033e-07
3.85904e-05
3.72459e-05
-3.86143e-05
4.92638e-07
-4.96544e-07
4.92332e-07
-4.94829e-07
-3.72412e-05
3.86134e-05
2.97834e-07
3.06853e-07
2.93405e-07
3.05943e-07
-3.05226e-07
-2.938e-07
-3.04297e-07
3.72201e-05
-3.85845e-05
-4.77395e-07
4.77404e-07
-4.76194e-07
3.859e-05
3.72458e-05
-3.86138e-05
4.92725e-07
-4.96106e-07
4.92841e-07
-4.95381e-07
-3.72409e-05
3.86134e-05
2.97939e-07
3.07106e-07
2.94272e-07
3.06757e-07
-3.05814e-07
-2.94017e-07
-3.04474e-07
3.72201e-05
-3.85843e-05
-4.77897e-07
4.77711e-07
-4.76148e-07
3.85899e-05
3.72464e-05
-3.86142e-05
4.93318e-07
-4.96535e-07
4.92722e-07
-4.95394e-07
-3.72407e-05
3.86134e-05
2.9867e-07
3.07792e-07
2.94095e-07
3.06566e-07
-3.0611e-07
-2.94084e-07
-3.0447e-07
3.72206e-05
-3.85847e-05
-4.77971e-07
4.77384e-07
-4.76017e-07
3.859e-05
3.72458e-05
-3.86154e-05
4.92958e-07
-4.96414e-07
4.91451e-07
-4.939e-07
-3.72407e-05
3.86151e-05
2.98184e-07
3.07441e-07
2.92118e-07
3.04643e-07
-3.05583e-07
-2.92209e-07
-3.02579e-07
3.72199e-05
-3.85859e-05
-4.7767e-07
4.76225e-07
-4.74825e-07
3.85912e-05
3.72445e-05
-3.8615e-05
4.91987e-07
-4.94855e-07
4.91552e-07
-4.94282e-07
-3.72387e-05
3.86142e-05
2.96435e-07
3.05694e-07
2.92489e-07
3.04604e-07
-3.04052e-07
-2.92795e-07
-3.0305e-07
3.72187e-05
-3.85855e-05
-4.76467e-07
4.76388e-07
-4.7543e-07
3.85903e-05
3.7245e-05
-3.8616e-05
4.92344e-07
-4.95413e-07
4.90398e-07
-4.93525e-07
-3.72399e-05
3.86156e-05
2.97129e-07
3.06121e-07
2.91378e-07
3.03613e-07
-3.0417e-07
-2.91317e-07
-3.01364e-07
3.72191e-05
-3.85862e-05
-4.76665e-07
4.75777e-07
-4.74201e-07
3.85919e-05
3.7244e-05
-3.86147e-05
4.91139e-07
-4.94085e-07
4.91413e-07
-4.94533e-07
-3.72382e-05
3.86141e-05
2.95778e-07
3.0486e-07
2.92764e-07
3.04916e-07
-3.02591e-07
-2.92938e-07
-3.02935e-07
3.72182e-05
-3.85853e-05
-4.75389e-07
4.76678e-07
-4.75543e-07
3.85905e-05
3.72448e-05
-3.86151e-05
4.92054e-07
-4.95709e-07
4.90292e-07
-4.9707e-07
-3.724e-05
3.86152e-05
2.96808e-07
3.06237e-07
2.94607e-07
3.06406e-07
-3.05099e-07
-2.93337e-07
-3.07188e-07
3.72194e-05
-3.8586e-05
-4.77167e-07
4.7633e-07
-4.75334e-07
3.8593e-05
3.72431e-05
-3.86051e-05
4.9026e-07
-4.93189e-07
4.89571e-07
-4.943e-07
-3.72382e-05
3.86149e-05
2.99882e-07
3.0748e-07
3.00711e-07
3.07282e-07
-3.10614e-07
-2.90991e-07
-3.10595e-07
3.7219e-05
-3.85857e-05
-4.73839e-07
4.7606e-07
-4.71579e-07
3.85934e-05
3.72511e-05
-3.86152e-05
4.99132e-07
-4.95221e-07
4.87045e-07
-4.99071e-07
-3.72419e-05
3.86094e-05
3.0646e-07
3.08869e-07
2.93793e-07
3.07109e-07
-3.08509e-07
-2.93849e-07
-3.05514e-07
3.72196e-05
-3.8585e-05
-4.75165e-07
4.7741e-07
-4.76144e-07
3.85897e-05
3.72398e-05
-3.86121e-05
4.88596e-07
-5.03469e-07
4.90454e-07
-4.89889e-07
-3.72474e-05
3.86138e-05
2.95906e-07
3.07379e-07
2.92741e-07
3.05633e-07
-3.06215e-07
-2.92263e-07
-3.04456e-07
3.72199e-05
-3.85856e-05
-4.76883e-07
4.76548e-07
-4.76103e-07
3.859e-05
3.7242e-05
-3.8612e-05
4.91122e-07
-4.95622e-07
4.89919e-07
-4.92889e-07
-3.72399e-05
3.86135e-05
2.97287e-07
3.06858e-07
2.93235e-07
3.05271e-07
-3.0578e-07
-2.93032e-07
-3.03693e-07
3.72193e-05
-3.85859e-05
-4.77593e-07
4.7664e-07
-4.75963e-07
3.85904e-05
3.72413e-05
-3.86124e-05
4.89945e-07
-4.93302e-07
4.89391e-07
-4.91281e-07
-3.72404e-05
3.86158e-05
2.97266e-07
3.06144e-07
2.92679e-07
3.04172e-07
-3.04771e-07
-2.91551e-07
-3.02058e-07
3.72188e-05
-3.8587e-05
-4.77087e-07
4.75945e-07
-4.74693e-07
3.85919e-05
3.7241e-05
-3.86122e-05
4.89667e-07
-4.92343e-07
4.89404e-07
-4.91724e-07
-3.72383e-05
3.86146e-05
2.96886e-07
3.05647e-07
2.92816e-07
3.04739e-07
-3.03174e-07
-2.92512e-07
-3.02796e-07
3.72179e-05
-3.85864e-05
-4.75779e-07
4.7665e-07
-4.75418e-07
3.8591e-05
3.72412e-05
-3.86122e-05
4.89943e-07
-4.92977e-07
4.89496e-07
-4.91413e-07
-3.72396e-05
3.86154e-05
2.97409e-07
3.06204e-07
2.92936e-07
3.0464e-07
-3.03831e-07
-2.92252e-07
-3.02686e-07
3.72185e-05
-3.85863e-05
-4.76283e-07
4.76498e-07
-4.75125e-07
3.85911e-05
3.72413e-05
-3.86108e-05
4.89912e-07
-4.92637e-07
4.90661e-07
-4.92491e-07
-3.72387e-05
3.86138e-05
2.97253e-07
3.06059e-07
2.9444e-07
3.05897e-07
-3.03987e-07
-2.93607e-07
-3.03682e-07
3.72185e-05
-3.85853e-05
-4.76404e-07
4.77433e-07
-4.75804e-07
3.85903e-05
3.72428e-05
-3.86107e-05
4.91216e-07
-4.93873e-07
4.90949e-07
-4.92975e-07
-3.72404e-05
3.86135e-05
2.9883e-07
3.07577e-07
2.94827e-07
3.06648e-07
-3.05661e-07
-2.94559e-07
-3.04741e-07
3.72197e-05
-3.85848e-05
-4.77651e-07
4.7794e-07
-4.76731e-07
3.85895e-05
3.72426e-05
-3.86111e-05
4.90937e-07
-4.93788e-07
4.90528e-07
-4.9248e-07
-3.72406e-05
3.86139e-05
2.98497e-07
3.07369e-07
2.94284e-07
3.06007e-07
-3.05421e-07
-2.9379e-07
-3.04053e-07
3.722e-05
-3.85851e-05
-4.77861e-07
4.77663e-07
-4.76194e-07
3.85901e-05
3.72423e-05
-3.86107e-05
4.90896e-07
-4.93721e-07
4.90906e-07
-4.92938e-07
-3.72403e-05
3.86137e-05
2.98446e-07
3.0731e-07
2.94753e-07
3.06567e-07
-3.05039e-07
-2.94361e-07
-3.04615e-07
3.72197e-05
-3.85847e-05
-4.77369e-07
4.77834e-07
-4.76606e-07
3.85896e-05
3.72424e-05
-3.86121e-05
4.90737e-07
-4.93797e-07
4.9005e-07
-4.9188e-07
-3.72404e-05
3.86151e-05
2.98291e-07
3.07297e-07
2.93489e-07
3.05013e-07
-3.05468e-07
-2.92457e-07
-3.02175e-07
3.72199e-05
-3.85865e-05
-4.77722e-07
4.76616e-07
-4.74866e-07
3.85918e-05
3.72413e-05
-3.86119e-05
4.89789e-07
-4.92524e-07
4.90093e-07
-4.91141e-07
-3.7239e-05
3.86154e-05
2.96794e-07
3.05664e-07
2.93301e-07
3.04813e-07
-3.03617e-07
-2.92415e-07
-3.02417e-07
3.72183e-05
-3.85862e-05
-4.76472e-07
4.76718e-07
-4.75095e-07
3.85917e-05
3.72414e-05
-3.86113e-05
4.90125e-07
-4.9275e-07
4.904e-07
-4.90723e-07
-3.72389e-05
3.86153e-05
2.97021e-07
3.05656e-07
2.93243e-07
3.04206e-07
-3.03568e-07
-2.92265e-07
-3.0216e-07
3.72185e-05
-3.85864e-05
-4.76606e-07
4.76456e-07
-4.74927e-07
3.85916e-05
3.72419e-05
-3.8609e-05
4.91418e-07
-4.89612e-07
4.93367e-07
-4.80724e-07
-3.72376e-05
3.8618e-05
2.97879e-07
3.05655e-07
2.95215e-07
3.05429e-07
-3.02995e-07
-2.92607e-07
-3.02195e-07
3.72182e-05
-3.85853e-05
-4.76139e-07
4.77384e-07
-4.7475e-07
3.85917e-05
3.72438e-05
-3.86102e-05
4.93967e-07
-4.82904e-07
4.91595e-07
-4.8989e-07
-3.72359e-05
3.86159e-05
2.99729e-07
3.06854e-07
2.95532e-07
3.06141e-07
-3.03482e-07
-2.9392e-07
-3.03968e-07
3.72192e-05
-3.8585e-05
-4.7635e-07
4.77739e-07
-4.75205e-07
3.85904e-05
3.7243e-05
-3.8611e-05
4.9121e-07
-4.91531e-07
4.91288e-07
-4.91814e-07
-3.72381e-05
3.86134e-05
2.98692e-07
3.06452e-07
2.94347e-07
3.04375e-07
-3.06379e-07
-2.9539e-07
-3.11768e-07
3.72194e-05
-3.85858e-05
-4.76219e-07
4.77882e-07
-4.7487e-07
3.85875e-05
3.72423e-05
-3.86111e-05
4.912e-07
-4.92785e-07
4.91278e-07
-4.92503e-07
-3.72411e-05
3.86124e-05
2.97877e-07
3.04993e-07
2.94185e-07
3.04437e-07
-3.14386e-07
-2.96318e-07
-3.12059e-07
3.7219e-05
-3.85855e-05
-4.76502e-07
4.78864e-07
-4.75388e-07
3.85872e-05
3.72422e-05
-3.86121e-05
4.91335e-07
-4.93278e-07
4.90591e-07
-4.91573e-07
-3.72415e-05
3.86136e-05
2.97993e-07
3.05293e-07
2.93229e-07
3.03372e-07
-3.13955e-07
-2.9495e-07
-3.10443e-07
3.72192e-05
-3.85864e-05
-4.76832e-07
4.78108e-07
-4.74653e-07
3.85883e-05
3.72413e-05
-3.86119e-05
4.90917e-07
-4.92465e-07
4.90644e-07
-4.91518e-07
-3.72405e-05
3.86137e-05
2.97198e-07
3.04078e-07
2.93122e-07
3.03134e-07
-3.12687e-07
-2.94917e-07
-3.10668e-07
3.72182e-05
-3.85866e-05
-4.76531e-07
4.78086e-07
-4.75118e-07
3.85882e-05
3.72413e-05
-3.86136e-05
4.90725e-07
-4.92547e-07
4.89415e-07
-4.9056e-07
-3.72404e-05
3.8615e-05
2.96995e-07
3.04102e-07
2.91439e-07
3.0157e-07
-3.12448e-07
-2.93448e-07
-3.09151e-07
3.72181e-05
-3.85879e-05
-4.76509e-07
4.77116e-07
-4.74136e-07
3.85895e-05
3.72397e-05
-3.86127e-05
4.89482e-07
-4.9138e-07
4.89938e-07
-4.91265e-07
-3.72391e-05
3.8614e-05
2.95093e-07
3.02241e-07
2.9236e-07
3.027e-07
-3.10414e-07
-2.94458e-07
-3.09807e-07
3.72168e-05
-3.85869e-05
-4.75038e-07
4.77836e-07
-4.73999e-07
3.85893e-05
3.7241e-05
-3.86123e-05
4.90611e-07
-4.92597e-07
4.90408e-07
-4.91406e-07
-3.72404e-05
3.86138e-05
2.96961e-07
3.04149e-07
2.92724e-07
3.02886e-07
-3.12169e-07
-2.94465e-07
-3.10174e-07
3.72181e-05
-3.8587e-05
-4.76011e-07
4.77771e-07
-4.74876e-07
3.85887e-05
3.72409e-05
-3.8612e-05
4.9045e-07
-4.92145e-07
4.90624e-07
-4.91701e-07
-3.72403e-05
3.86135e-05
2.96518e-07
3.0365e-07
2.93311e-07
3.03286e-07
-3.11758e-07
-2.94981e-07
-3.10669e-07
3.72176e-05
-3.85866e-05
-4.75938e-07
4.78062e-07
-4.75025e-07
3.85884e-05
3.72415e-05
-3.8611e-05
4.91156e-07
-4.93104e-07
4.91297e-07
-4.9237e-07
-3.72409e-05
3.86126e-05
2.97392e-07
3.04687e-07
2.9458e-07
3.04293e-07
-3.13103e-07
-2.96176e-07
-3.1161e-07
3.72184e-05
-3.85853e-05
-4.76915e-07
4.79025e-07
-4.75728e-07
3.85874e-05
3.72423e-05
-3.86114e-05
4.91412e-07
-4.93457e-07
4.91504e-07
-4.92375e-07
-3.72415e-05
3.86129e-05
2.97167e-07
3.05244e-07
2.94822e-07
3.03993e-07
-3.13618e-07
-2.95861e-07
-3.1132e-07
3.72193e-05
-3.85859e-05
-4.77438e-07
4.7881e-07
-4.7616e-07
3.85875e-05
3.72419e-05
-3.86118e-05
4.91156e-07
-4.92762e-07
4.90912e-07
-4.92023e-07
-3.72409e-05
3.86129e-05
2.9687e-07
3.04513e-07
2.94347e-07
3.03529e-07
-3.12457e-07
-2.95747e-07
-3.11083e-07
3.72187e-05
-3.85863e-05
-4.76794e-07
4.78445e-07
-4.75796e-07
3.8588e-05
3.72414e-05
-3.8613e-05
4.91141e-07
-4.93055e-07
4.89881e-07
-4.90685e-07
-3.72411e-05
3.86145e-05
2.96863e-07
3.04493e-07
2.92705e-07
3.02425e-07
-3.12817e-07
-2.9397e-07
-3.10043e-07
3.72185e-05
-3.85869e-05
-4.77317e-07
4.77657e-07
-4.75033e-07
3.85886e-05
3.724e-05
-3.86126e-05
4.89904e-07
-4.91703e-07
4.90193e-07
-4.91213e-07
-3.72391e-05
3.86134e-05
2.95209e-07
3.0327e-07
2.93176e-07
3.03339e-07
-3.11979e-07
-2.94164e-07
-3.10468e-07
3.72178e-05
-3.85852e-05
-4.7654e-07
4.78633e-07
-4.75911e-07
3.85873e-05
3.72403e-05
-3.86131e-05
4.90226e-07
-4.92325e-07
4.89709e-07
-4.90667e-07
-3.72401e-05
3.86147e-05
2.95453e-07
3.0521e-07
2.92383e-07
3.05788e-07
-3.13602e-07
-2.93266e-07
-3.12651e-07
3.72192e-05
-3.85806e-05
-4.7847e-07
4.83219e-07
-4.80191e-07
3.85829e-05
3.72398e-05
-3.86123e-05
4.90196e-07
-4.91573e-07
4.90387e-07
-4.91727e-07
-3.72387e-05
3.86129e-05
2.9508e-07
3.0674e-07
2.93111e-07
3.0495e-07
-3.14379e-07
-2.95104e-07
-3.12838e-07
3.72224e-05
-3.85829e-05
-4.82551e-07
4.83998e-07
-4.80967e-07
3.85841e-05
3.72408e-05
-3.86116e-05
4.90734e-07
-4.92904e-07
4.91038e-07
-4.91606e-07
-3.72409e-05
3.86134e-05
2.95978e-07
3.0558e-07
2.9447e-07
3.04035e-07
-3.14111e-07
-2.95232e-07
-3.11298e-07
3.72214e-05
-3.85858e-05
-4.80895e-07
4.7877e-07
-4.7608e-07
3.85878e-05
3.72417e-05
-3.86118e-05
4.91215e-07
-4.92693e-07
4.90846e-07
-4.92133e-07
-3.72404e-05
3.86128e-05
2.96789e-07
3.049e-07
2.94289e-07
3.03776e-07
-3.1331e-07
-2.95721e-07
-3.11646e-07
3.72189e-05
-3.85861e-05
-4.7797e-07
4.78631e-07
-4.76263e-07
3.85873e-05
3.72418e-05
-3.86113e-05
4.91414e-07
-4.93175e-07
4.91369e-07
-4.92526e-07
-3.72412e-05
3.86122e-05
2.97332e-07
3.05268e-07
2.94782e-07
3.04599e-07
-3.13369e-07
-2.96164e-07
-3.11149e-07
3.72188e-05
-3.85851e-05
-4.77627e-07
4.79351e-07
-4.75975e-07
3.85875e-05
3.72419e-05
-3.86121e-05
4.91503e-07
-4.93598e-07
4.90667e-07
-4.9181e-07
-3.72418e-05
3.86133e-05
2.97368e-07
3.05322e-07
2.93968e-07
3.03232e-07
-3.13426e-07
-2.95202e-07
-3.11167e-07
3.72194e-05
-3.85866e-05
-4.77702e-07
4.78253e-07
-4.76303e-07
3.85877e-05
3.72411e-05
-3.86126e-05
4.90769e-07
-4.92382e-07
4.90262e-07
-4.9099e-07
-3.72405e-05
3.86143e-05
2.96464e-07
3.03814e-07
2.93225e-07
3.02549e-07
-3.12278e-07
-2.93965e-07
-3.09431e-07
3.72178e-05
-3.85869e-05
-4.77359e-07
4.77694e-07
-4.74949e-07
3.85885e-05
3.72407e-05
-3.86132e-05
4.90613e-07
-4.92233e-07
4.89738e-07
-4.9105e-07
-3.724e-05
3.86142e-05
2.95912e-07
3.03622e-07
2.92873e-07
3.02453e-07
-3.12144e-07
-2.9415e-07
-3.09536e-07
3.72179e-05
-3.85869e-05
-4.77097e-07
4.77846e-07
-4.75315e-07
3.85888e-05
3.724e-05
-3.8613e-05
4.89782e-07
-4.9197e-07
4.89764e-07
-4.90884e-07
-3.72397e-05
3.86143e-05
2.95101e-07
3.03051e-07
2.92621e-07
3.02082e-07
-3.10658e-07
-2.94149e-07
-3.09631e-07
3.72177e-05
-3.85871e-05
-4.76273e-07
4.77547e-07
-4.7521e-07
3.85888e-05
3.72404e-05
-3.86124e-05
4.90347e-07
-4.92062e-07
4.90388e-07
-4.91376e-07
-3.72399e-05
3.8614e-05
2.95821e-07
3.0332e-07
2.93451e-07
3.02846e-07
-3.1194e-07
-2.94551e-07
-3.09975e-07
3.72177e-05
-3.85865e-05
-4.77059e-07
4.78106e-07
-4.75457e-07
3.85885e-05
3.7241e-05
-3.86117e-05
4.90775e-07
-4.92255e-07
4.90872e-07
-4.92198e-07
-3.724e-05
3.86126e-05
2.96233e-07
3.03831e-07
2.94322e-07
3.03687e-07
-3.11755e-07
-2.95729e-07
-3.11105e-07
3.72183e-05
-3.85859e-05
-4.77093e-07
4.78554e-07
-4.76222e-07
3.85872e-05
3.72416e-05
-3.86114e-05
4.91444e-07
-4.9336e-07
4.91273e-07
-4.92157e-07
-3.72416e-05
3.86128e-05
2.97386e-07
3.04845e-07
2.94921e-07
3.03918e-07
-3.13226e-07
-2.96176e-07
-3.11335e-07
3.7219e-05
-3.85857e-05
-4.77959e-07
4.78752e-07
-4.76186e-07
3.85875e-05
3.72418e-05
-3.86116e-05
4.91208e-07
-4.93243e-07
4.91093e-07
-4.92337e-07
-3.72413e-05
3.86127e-05
2.97173e-07
3.04867e-07
2.94663e-07
3.03941e-07
-3.12901e-07
-2.96006e-07
-3.11183e-07
3.72189e-05
-3.85857e-05
-4.77574e-07
4.78864e-07
-4.76277e-07
3.85871e-05
3.72418e-05
-3.86121e-05
4.91339e-07
-4.93417e-07
4.90851e-07
-4.91597e-07
-3.72414e-05
3.86137e-05
2.97167e-07
3.04966e-07
2.94092e-07
3.03134e-07
-3.1319e-07
-2.95292e-07
-3.10661e-07
3.7219e-05
-3.85864e-05
-4.77961e-07
4.78178e-07
-4.75958e-07
3.85879e-05
3.72411e-05
-3.86128e-05
4.90963e-07
-4.92475e-07
4.90092e-07
-4.91238e-07
-3.724e-05
3.86136e-05
2.96566e-07
3.04077e-07
2.93315e-07
3.02505e-07
-3.11978e-07
-2.94528e-07
-3.09489e-07
3.72181e-05
-3.85868e-05
-4.76991e-07
4.77726e-07
-4.74975e-07
3.85884e-05
3.72405e-05
-3.86129e-05
4.90318e-07
-4.92182e-07
4.90193e-07
-4.90925e-07
-3.72404e-05
3.86143e-05
2.9571e-07
3.0319e-07
2.92957e-07
3.02099e-07
-3.11655e-07
-2.94026e-07
-3.09313e-07
3.72178e-05
-3.85872e-05
-4.76928e-07
4.77509e-07
-4.7491e-07
3.85891e-05
3.72403e-05
-3.8613e-05
4.90406e-07
-4.92168e-07
4.89839e-07
-4.90897e-07
-3.72398e-05
3.86143e-05
2.9548e-07
3.03183e-07
2.92892e-07
3.02076e-07
-3.11138e-07
-2.94077e-07
-3.09418e-07
3.72175e-05
-3.85871e-05
-4.76391e-07
4.77347e-07
-4.75011e-07
3.85886e-05
3.72403e-05
-3.86125e-05
4.90048e-07
-4.91937e-07
4.90299e-07
-4.91352e-07
-3.72398e-05
3.86137e-05
2.95389e-07
3.03182e-07
2.93369e-07
3.02766e-07
-3.11217e-07
-2.9451e-07
-3.10137e-07
3.72172e-05
-3.85865e-05
-4.76452e-07
4.77754e-07
-4.75727e-07
3.85879e-05
3.72411e-05
-3.86116e-05
4.90864e-07
-4.92486e-07
4.91284e-07
-4.92171e-07
-3.72405e-05
3.86128e-05
2.96263e-07
3.0375e-07
2.94619e-07
3.03893e-07
-3.12003e-07
-2.95833e-07
-3.11161e-07
3.72173e-05
-3.85859e-05
-4.77061e-07
4.78822e-07
-4.76318e-07
3.85874e-05
3.72418e-05
-3.86114e-05
4.91116e-07
-4.93102e-07
4.91231e-07
-4.92363e-07
-3.72413e-05
3.86128e-05
2.96802e-07
3.05023e-07
2.94759e-07
3.04044e-07
-3.13036e-07
-2.95948e-07
-3.11453e-07
3.72179e-05
-3.85859e-05
-4.77674e-07
4.78692e-07
-4.76296e-07
3.85872e-05
3.72421e-05
-3.86118e-05
4.91572e-07
-4.93156e-07
4.91054e-07
-4.92568e-07
-3.72414e-05
3.8613e-05
2.9732e-07
3.049e-07
2.9462e-07
3.04012e-07
-3.13073e-07
-2.95982e-07
-3.11481e-07
3.7218e-05
-3.8586e-05
-4.77609e-07
4.7872e-07
-4.76184e-07
3.85874e-05
3.72412e-05
-3.86056e-05
4.90285e-07
-4.9193e-07
4.92207e-07
-4.94137e-07
-3.72407e-05
3.86071e-05
2.95849e-07
3.03236e-07
2.97417e-07
3.07352e-07
-3.11537e-07
-2.98962e-07
-3.13961e-07
3.72172e-05
-3.85813e-05
-4.76496e-07
4.79187e-07
-4.78105e-07
3.85815e-05
3.72261e-05
-3.84635e-05
4.92839e-07
-4.94573e-07
3.41129e-07
-3.45736e-07
-3.72254e-05
3.84683e-05
2.96528e-07
3.04361e-07
1.32761e-07
1.44797e-07
-3.09991e-07
-1.34126e-07
-1.45031e-07
3.72019e-05
-3.84421e-05
-4.79674e-07
3.28559e-07
-3.29814e-07
3.84431e-05
3.68761e-05
-3.6029e-05
7.70673e-07
-7.71005e-07
-7.02444e-07
6.943e-07
-3.68775e-05
3.6025e-05
6.93615e-07
6.98829e-07
-1.42114e-06
-1.40162e-06
-7.00866e-07
1.40514e-06
1.39415e-06
3.68584e-05
-3.5996e-05
-7.5936e-07
-7.11098e-07
7.07568e-07
3.5991e-05
3.38438e-05
-3.31062e-05
1.95007e-06
-1.95239e-06
-4.52274e-06
4.50282e-06
-3.38555e-05
3.30674e-05
2.59275e-06
2.59967e-06
-6.10796e-06
-6.10187e-06
-2.60374e-06
6.09317e-06
6.08371e-06
3.38308e-05
-3.30788e-05
-1.93132e-06
-4.51302e-06