/*--------------------------------*- C++ -*----------------------------------*\
| =========                 |                                                 |
| \\      /  F ield         | OpenFOAM: The Open Source CFD Toolbox           |
|  \\    /   O peration     | Version:  2206                                  |
|   \\  /    A nd           | Website:  www.openfoam.com                      |
|    \\/     M anipulation  |                                                 |
\*---------------------------------------------------------------------------*/
FoamFile
{
    version     2.0;
    format      ascii;
    arch        "LSB;label=32;scalar=64";
    class       volScalarField;
    location    "12.5";
    object      Uy;
}
// * * * * * * * * * * * * * * * * * * * * * * * * * * * * * * * * * * * * * //

dimensions      [0 1 -1 0 0 0 0];

internalField   nonuniform List<scalar> 
171728
(
0.000107423
0.000117076
-0.000187101
-0.000237911
9.0742e-05
9.91429e-05
-0.000162168
-0.000193199
7.43776e-05
6.24456e-05
-0.00010546
-0.000153132
1.47099e-05
1.23102e-05
-1.79742e-05
-5.27562e-05
8.069e-07
1.33802e-06
-1.56304e-06
-3.8074e-05
-3.68451e-07
5.24711e-07
-3.39496e-07
-3.72761e-05
-4.33404e-07
4.81881e-07
-2.95883e-07
-3.72469e-05
-4.364e-07
4.8191e-07
-2.95836e-07
-3.7247e-05
-4.38554e-07
4.80852e-07
-2.96359e-07
-3.72477e-05
-4.36128e-07
4.81597e-07
-2.96116e-07
-3.72482e-05
-4.31534e-07
4.8233e-07
-2.95697e-07
-3.72478e-05
-4.38896e-07
4.80825e-07
-2.9577e-07
-3.7247e-05
-4.4126e-07
4.77745e-07
-2.93994e-07
-3.72464e-05
-4.41652e-07
4.76921e-07
-2.93966e-07
-3.72455e-05
-4.39192e-07
4.83397e-07
-2.94827e-07
-3.72456e-05
-4.36624e-07
4.86311e-07
-2.94898e-07
-3.7246e-05
-4.37602e-07
4.83263e-07
-2.96535e-07
-3.72475e-05
-4.36096e-07
4.85222e-07
-2.95615e-07
-3.72473e-05
-4.27855e-07
4.97633e-07
-2.9404e-07
-3.72457e-05
-4.31567e-07
4.69936e-07
-2.92085e-07
-3.7245e-05
-4.34408e-07
4.83755e-07
-2.93969e-07
-3.72461e-05
-4.41041e-07
4.78973e-07
-2.94474e-07
-3.72462e-05
-4.39937e-07
4.79051e-07
-2.95825e-07
-3.72467e-05
-4.39261e-07
4.79407e-07
-2.95926e-07
-3.72476e-05
-4.38523e-07
4.7988e-07
-2.97269e-07
-3.72484e-05
-4.38513e-07
4.80224e-07
-2.97045e-07
-3.72485e-05
-4.38742e-07
4.79779e-07
-2.96791e-07
-3.72477e-05
-4.39221e-07
4.79083e-07
-2.95788e-07
-3.72471e-05
-4.39809e-07
4.78556e-07
-2.94982e-07
-3.72469e-05
-4.39635e-07
4.79126e-07
-2.95529e-07
-3.72468e-05
-4.39453e-07
4.79851e-07
-2.94995e-07
-3.72468e-05
-4.38772e-07
4.79973e-07
-2.9672e-07
-3.72479e-05
-4.38739e-07
4.79984e-07
-2.9687e-07
-3.72482e-05
-4.38272e-07
4.80105e-07
-2.97251e-07
-3.72482e-05
-4.38689e-07
4.80093e-07
-2.96652e-07
-3.7248e-05
-4.39611e-07
4.7847e-07
-2.9531e-07
-3.72467e-05
-4.39318e-07
4.7907e-07
-2.95716e-07
-3.72474e-05
-4.40166e-07
4.77671e-07
-2.94206e-07
-3.7246e-05
-4.39612e-07
4.79495e-07
-2.96439e-07
-3.72478e-05
-4.38984e-07
4.79574e-07
-2.96571e-07
-3.72503e-05
-4.32806e-07
4.7883e-07
-2.96824e-07
-3.72488e-05
-4.36517e-07
4.90669e-07
-2.95275e-07
-3.72464e-05
-4.38213e-07
4.81462e-07
-2.95303e-07
-3.72467e-05
-4.39804e-07
4.8008e-07
-2.94587e-07
-3.72471e-05
-4.39918e-07
4.7889e-07
-2.93327e-07
-3.72462e-05
-4.39974e-07
4.7962e-07
-2.9411e-07
-3.72471e-05
-4.40063e-07
4.7912e-07
-2.94054e-07
-3.72471e-05
-4.38824e-07
4.80546e-07
-2.95509e-07
-3.72476e-05
-4.38866e-07
4.80432e-07
-2.95561e-07
-3.7248e-05
-4.38982e-07
4.80577e-07
-2.95092e-07
-3.72473e-05
-4.39133e-07
4.80327e-07
-2.95516e-07
-3.72483e-05
-4.39952e-07
4.7911e-07
-2.93722e-07
-3.72464e-05
-4.40308e-07
4.78835e-07
-2.94316e-07
-3.72471e-05
-4.41771e-07
4.75016e-07
-2.94657e-07
-3.72476e-05
-4.41809e-07
4.70737e-07
-2.9574e-07
-3.72486e-05
-4.40142e-07
4.77913e-07
-2.94761e-07
-3.72478e-05
-4.40772e-07
4.78862e-07
-2.93426e-07
-3.72463e-05
-4.40877e-07
4.78825e-07
-2.93246e-07
-3.72456e-05
-4.41367e-07
4.77646e-07
-2.92017e-07
-3.72444e-05
-4.41608e-07
4.77638e-07
-2.91824e-07
-3.72444e-05
-4.42697e-07
4.76395e-07
-2.90082e-07
-3.7243e-05
-4.41646e-07
4.77595e-07
-2.91658e-07
-3.72434e-05
-4.41689e-07
4.7706e-07
-2.91206e-07
-3.72441e-05
-4.4123e-07
4.78027e-07
-2.92421e-07
-3.72446e-05
-4.40977e-07
4.78613e-07
-2.93153e-07
-3.72452e-05
-4.40939e-07
4.77608e-07
-2.92187e-07
-3.72449e-05
-4.41097e-07
4.78216e-07
-2.92255e-07
-3.72444e-05
-4.41715e-07
4.77158e-07
-2.91072e-07
-3.72431e-05
-4.39955e-07
4.79083e-07
-2.86608e-07
-3.72404e-05
-4.38612e-07
4.79146e-07
-2.77213e-07
-3.72332e-05
-4.39504e-07
4.79841e-07
-2.87652e-07
-3.72396e-05
-4.40465e-07
4.78082e-07
-2.92036e-07
-3.72442e-05
-4.4085e-07
4.78221e-07
-2.92706e-07
-3.72451e-05
-4.40929e-07
4.78524e-07
-2.93035e-07
-3.7245e-05
-4.41518e-07
4.77495e-07
-2.9136e-07
-3.72441e-05
-4.41732e-07
4.77253e-07
-2.91363e-07
-3.72435e-05
-4.42322e-07
4.76978e-07
-2.90602e-07
-3.72432e-05
-4.41916e-07
4.7703e-07
-2.91375e-07
-3.72436e-05
-4.41629e-07
4.77125e-07
-2.91086e-07
-3.72437e-05
-4.41079e-07
4.78301e-07
-2.92672e-07
-3.7245e-05
-4.41047e-07
4.78198e-07
-2.92757e-07
-3.72446e-05
-4.41075e-07
4.7837e-07
-2.9286e-07
-3.72451e-05
-4.41558e-07
4.77283e-07
-2.91831e-07
-3.72441e-05
-4.41917e-07
4.7725e-07
-2.91094e-07
-3.72437e-05
-4.42014e-07
4.77141e-07
-2.91229e-07
-3.72432e-05
-4.42043e-07
4.76952e-07
-2.90815e-07
-3.72435e-05
-4.41466e-07
4.77449e-07
-2.91552e-07
-3.72443e-05
-4.41086e-07
4.78064e-07
-2.92435e-07
-3.7245e-05
-4.40805e-07
4.78196e-07
-2.92598e-07
-3.72451e-05
-4.42545e-07
4.77476e-07
-2.92054e-07
-3.72445e-05
-4.57087e-07
4.80536e-07
-2.93077e-07
-3.72296e-05
-3.85455e-07
7.6128e-07
-6.88245e-07
-3.68841e-05
-8.23536e-07
1.94695e-06
-2.58986e-06
-3.38567e-05
-4.80242e-06
3.13257e-06
-2.05304e-06
-2.4678e-05
-4.29221e-05
-3.53349e-05
4.13055e-05
5.06405e-05
0.000135782
0.000153531
0.000153513
0.000135748
0.000124622
-0.000124642
9.04979e-05
9.04966e-05
-9.05509e-05
-9.05499e-05
0.000124625
-0.000124638
-0.000135803
-0.000153567
-0.000153552
-0.000135775
0.000237902
0.000113161
0.000187001
0.000187042
0.000141326
0.000141325
0.000237857
0.000113118
0.000117108
-0.000117167
8.34897e-05
-8.35143e-05
-0.000117172
8.34929e-05
-8.35097e-05
-0.000237955
-0.000113251
-0.000187126
-0.000141271
-0.000141297
-0.000113255
0.000193065
9.31107e-05
0.000162202
0.000162207
0.000137177
0.00013717
0.000193028
9.30928e-05
9.91341e-05
-9.91539e-05
8.17312e-05
-8.173e-05
-9.91455e-05
8.17318e-05
-8.1719e-05
-0.000193207
-9.3186e-05
-0.000162189
-0.000137153
-0.000137167
-9.31724e-05
0.000153034
-1.74422e-05
0.000105497
0.000105472
3.06728e-05
3.06785e-05
0.000152994
-1.74414e-05
6.24864e-05
-6.25232e-05
2.01921e-05
-2.02375e-05
-6.24781e-05
2.01955e-05
-2.02276e-05
-0.00015317
1.74484e-05
-0.000105476
-3.06892e-05
-3.06961e-05
1.74404e-05
5.27083e-05
-3.73363e-05
1.79642e-05
1.79726e-05
2.8935e-06
2.90753e-06
5.27028e-05
-3.73293e-05
1.23099e-05
-1.23446e-05
2.24998e-06
-2.26567e-06
-1.23397e-05
2.25264e-06
-2.26306e-06
-5.27634e-05
3.73606e-05
-1.79786e-05
-2.8873e-06
-2.88737e-06
3.73527e-05
3.80462e-05
-3.85401e-05
1.56799e-06
1.58235e-06
4.16301e-07
4.31156e-07
3.80496e-05
-3.8529e-05
1.33395e-06
-1.34696e-06
5.62459e-07
-5.69735e-07
-1.34404e-06
5.69599e-07
-5.66391e-07
-3.80811e-05
3.85735e-05
-1.55994e-06
-4.0357e-07
-4.02547e-07
3.85656e-05
3.72545e-05
-3.85824e-05
3.51554e-07
3.65171e-07
3.10268e-07
3.10826e-07
3.7262e-05
-3.8585e-05
5.18622e-07
-5.25037e-07
4.85669e-07
-4.90059e-07
-5.21627e-07
4.84664e-07
-4.87952e-07
-3.72821e-05
3.86187e-05
-3.36254e-07
-2.94557e-07
-2.93516e-07
3.86096e-05
3.72272e-05
-3.85768e-05
3.10447e-07
3.11646e-07
3.10869e-07
3.10944e-07
3.72176e-05
-3.85851e-05
4.87115e-07
-4.89714e-07
4.85942e-07
-4.87621e-07
-4.88491e-07
4.82302e-07
-4.87351e-07
-3.7252e-05
3.86199e-05
-2.93742e-07
-2.92054e-07
-2.92224e-07
3.86098e-05
3.72263e-05
-3.85865e-05
3.09472e-07
3.11295e-07
3.07047e-07
3.07764e-07
3.72191e-05
-3.85865e-05
4.84114e-07
-4.89602e-07
4.81983e-07
-4.89308e-07
-4.8885e-07
4.81157e-07
-4.88132e-07
-3.72513e-05
3.86184e-05
-2.93781e-07
-2.92822e-07
-2.92636e-07
3.8609e-05
3.72199e-05
-3.85861e-05
3.05969e-07
3.10842e-07
3.06256e-07
3.04916e-07
3.72168e-05
-3.85859e-05
4.82525e-07
-4.90671e-07
4.81908e-07
-4.88591e-07
-4.89429e-07
4.81591e-07
-4.88126e-07
-3.72524e-05
3.86188e-05
-2.94039e-07
-2.92684e-07
-2.9255e-07
3.86086e-05
3.72224e-05
-3.85679e-05
3.10524e-07
3.15879e-07
3.20279e-07
3.06441e-07
3.72177e-05
-3.8585e-05
4.85266e-07
-4.89902e-07
4.91276e-07
-4.87704e-07
-4.89547e-07
4.82988e-07
-4.87943e-07
-3.72524e-05
3.86195e-05
-2.94374e-07
-2.92569e-07
-2.92382e-07
3.86089e-05
3.72392e-05
-3.85853e-05
3.18152e-07
3.16807e-07
3.07446e-07
3.02489e-07
3.72182e-05
-3.85878e-05
4.90295e-07
-4.88755e-07
4.81464e-07
-4.88288e-07
-4.8926e-07
4.81009e-07
-4.87604e-07
-3.72517e-05
3.86192e-05
-2.93685e-07
-2.92047e-07
-2.91794e-07
3.86092e-05
3.72205e-05
-3.85876e-05
3.07172e-07
3.13893e-07
3.01693e-07
3.11587e-07
3.72156e-05
-3.85901e-05
4.82967e-07
-4.90189e-07
4.78888e-07
-4.8881e-07
-4.89021e-07
4.78757e-07
-4.86908e-07
-3.72518e-05
3.86191e-05
-2.93562e-07
-2.91268e-07
-2.92985e-07
3.86098e-05
3.72183e-05
-3.85901e-05
3.04127e-07
3.18181e-07
2.9822e-07
3.15935e-07
3.72128e-05
-3.85914e-05
4.81684e-07
-4.90134e-07
4.77856e-07
-4.8889e-07
-4.87918e-07
4.76719e-07
-4.85459e-07
-3.72517e-05
3.86191e-05
-2.94918e-07
-2.90386e-07
-2.93538e-07
3.86109e-05
3.72205e-05
-3.85885e-05
3.0484e-07
3.15502e-07
3.02078e-07
3.10784e-07
3.72123e-05
-3.85868e-05
4.84008e-07
-4.90373e-07
4.82075e-07
-4.89112e-07
-4.86711e-07
4.81083e-07
-4.85528e-07
-3.72519e-05
3.8619e-05
-2.94765e-07
-2.91252e-07
-2.92311e-07
3.86114e-05
3.72251e-05
-3.85877e-05
3.08175e-07
3.12417e-07
3.0548e-07
3.21796e-07
3.72196e-05
-3.85685e-05
4.83183e-07
-4.90602e-07
4.82182e-07
-4.88802e-07
-4.86677e-07
4.9036e-07
-4.85327e-07
-3.72522e-05
3.86189e-05
-2.93132e-07
-2.91922e-07
-2.9138e-07
3.86109e-05
3.72255e-05
-3.85877e-05
3.09602e-07
3.17071e-07
3.0346e-07
3.12163e-07
3.72333e-05
-3.85873e-05
4.83347e-07
-4.90079e-07
4.81808e-07
-4.89346e-07
-4.86586e-07
4.8413e-07
-4.87229e-07
-3.72523e-05
3.86185e-05
-2.92458e-07
-2.92752e-07
-2.92431e-07
3.86096e-05
3.7225e-05
-3.85866e-05
3.11931e-07
3.10052e-07
3.04898e-07
3.0821e-07
3.72177e-05
-3.85881e-05
4.8307e-07
-4.9096e-07
4.82792e-07
-4.88803e-07
-4.89101e-07
4.83522e-07
-4.87282e-07
-3.72528e-05
3.86188e-05
-2.94219e-07
-2.92878e-07
-2.92354e-07
3.86095e-05
3.72255e-05
-3.85739e-05
3.11426e-07
3.12777e-07
3.12768e-07
3.21421e-07
3.72207e-05
-3.85703e-05
4.84591e-07
-4.89666e-07
4.89624e-07
-4.86453e-07
-4.87946e-07
4.92868e-07
-4.84931e-07
-3.72523e-05
3.86211e-05
-2.936e-07
-2.91022e-07
-2.91315e-07
3.86116e-05
3.72428e-05
-3.85768e-05
3.2789e-07
3.26441e-07
3.06861e-07
3.14399e-07
3.724e-05
-3.85842e-05
4.94692e-07
-4.87282e-07
4.88123e-07
-4.85446e-07
-4.85983e-07
4.80563e-07
-4.84471e-07
-3.72507e-05
3.86214e-05
-2.94025e-07
-2.89056e-07
-2.98025e-07
3.86118e-05
3.72323e-05
-3.85795e-05
3.09087e-07
3.04944e-07
3.17955e-07
3.14017e-07
3.72081e-05
-3.85864e-05
4.86172e-07
-4.87432e-07
4.79083e-07
-4.86777e-07
-4.86445e-07
4.83359e-07
-4.86494e-07
-3.72501e-05
3.86203e-05
-3.00257e-07
-2.90112e-07
-2.92615e-07
3.86104e-05
3.72262e-05
-3.85843e-05
3.1598e-07
3.05718e-07
3.01311e-07
3.07706e-07
3.7216e-05
-3.85876e-05
4.80053e-07
-4.8829e-07
4.78219e-07
-4.88161e-07
-4.87519e-07
4.7799e-07
-4.86519e-07
-3.72507e-05
3.86196e-05
-2.93299e-07
-2.90737e-07
-2.92221e-07
3.86104e-05
3.72175e-05
-3.85842e-05
3.04608e-07
3.04064e-07
3.04323e-07
3.05883e-07
3.72159e-05
-3.85901e-05
4.80735e-07
-4.90073e-07
4.7804e-07
-4.88827e-07
-4.8832e-07
4.78594e-07
-4.87215e-07
-3.72514e-05
3.86191e-05
-2.93412e-07
-2.91891e-07
-2.92103e-07
3.86099e-05
3.72175e-05
-3.85839e-05
3.02638e-07
3.06936e-07
3.04891e-07
3.06967e-07
3.72152e-05
-3.85886e-05
4.79202e-07
-4.90571e-07
4.77854e-07
-4.89141e-07
-4.89348e-07
4.79023e-07
-4.88137e-07
-3.72519e-05
3.86184e-05
-2.93578e-07
-2.92459e-07
-2.91459e-07
3.86089e-05
3.72183e-05
-3.8582e-05
3.03555e-07
3.07447e-07
3.06889e-07
3.08068e-07
3.72165e-05
-3.85872e-05
4.79437e-07
-4.90799e-07
4.78903e-07
-4.89824e-07
-4.89481e-07
4.80017e-07
-4.88837e-07
-3.72524e-05
3.86176e-05
-2.9403e-07
-2.93592e-07
-2.94297e-07
3.86082e-05
3.72202e-05
-3.85816e-05
3.05234e-07
3.0868e-07
3.0714e-07
3.08466e-07
3.72177e-05
-3.85871e-05
4.80155e-07
-4.91275e-07
4.79328e-07
-4.89982e-07
-4.90234e-07
4.80405e-07
-4.88886e-07
-3.72532e-05
3.86173e-05
-2.95964e-07
-2.93871e-07
-2.94676e-07
3.86076e-05
3.72203e-05
-3.85824e-05
3.05001e-07
3.083e-07
3.06676e-07
3.07902e-07
3.72176e-05
-3.85876e-05
4.80085e-07
-4.91009e-07
4.78868e-07
-4.89426e-07
-4.90131e-07
4.79843e-07
-4.88395e-07
-3.72532e-05
3.86181e-05
-2.96163e-07
-2.93308e-07
-2.94143e-07
3.86086e-05
3.72195e-05
-3.85826e-05
3.04674e-07
3.08161e-07
3.06068e-07
3.07235e-07
3.72172e-05
-3.85883e-05
4.79787e-07
-4.90941e-07
4.78179e-07
-4.88968e-07
-4.89372e-07
4.79377e-07
-4.87668e-07
-3.72528e-05
3.86187e-05
-2.95398e-07
-2.92759e-07
-2.93586e-07
3.86093e-05
3.72193e-05
-3.85832e-05
3.03949e-07
3.06979e-07
3.05263e-07
3.06584e-07
3.72164e-05
-3.85886e-05
4.79148e-07
-4.90007e-07
4.77896e-07
-4.88547e-07
-4.89274e-07
4.78916e-07
-4.87692e-07
-3.72519e-05
3.8619e-05
-2.95099e-07
-2.92017e-07
-2.9331e-07
3.86091e-05
3.72184e-05
-3.85833e-05
3.02729e-07
3.06322e-07
3.04962e-07
3.06184e-07
3.72163e-05
-3.85889e-05
4.78325e-07
-4.89515e-07
4.7774e-07
-4.88681e-07
-4.8845e-07
4.78806e-07
-4.87632e-07
-3.72516e-05
3.86192e-05
-2.94004e-07
-2.92203e-07
-2.93115e-07
3.86097e-05
3.72189e-05
-3.8583e-05
3.03446e-07
3.06722e-07
3.05457e-07
3.06483e-07
3.72161e-05
-3.85878e-05
4.79024e-07
-4.90084e-07
4.78e-07
-4.88369e-07
-4.88788e-07
4.78112e-07
-4.87312e-07
-3.72517e-05
3.86191e-05
-2.94472e-07
-2.9184e-07
-2.92877e-07
3.86098e-05
3.7219e-05
-3.85826e-05
3.03111e-07
3.0704e-07
3.06167e-07
3.07764e-07
3.72161e-05
-3.85883e-05
4.78617e-07
-4.89529e-07
4.78519e-07
-4.89523e-07
-4.88657e-07
4.78885e-07
-4.88453e-07
-3.72517e-05
3.86182e-05
-2.94165e-07
-2.93485e-07
-2.94485e-07
3.86086e-05
3.72195e-05
-3.8582e-05
3.04551e-07
3.08393e-07
3.064e-07
3.08264e-07
3.72154e-05
-3.85865e-05
4.79722e-07
-4.90992e-07
4.78637e-07
-4.89513e-07
-4.89739e-07
4.79825e-07
-4.88621e-07
-3.72529e-05
3.86179e-05
-2.95757e-07
-2.93596e-07
-2.94768e-07
3.86083e-05
3.72198e-05
-3.85815e-05
3.04741e-07
3.08665e-07
3.07316e-07
3.09273e-07
3.72148e-05
-3.85862e-05
4.79771e-07
-4.91026e-07
4.79235e-07
-4.89908e-07
-4.90239e-07
4.79953e-07
-4.88559e-07
-3.72529e-05
3.86175e-05
-2.96231e-07
-2.94006e-07
-2.95023e-07
3.86082e-05
3.72205e-05
-3.85819e-05
3.05481e-07
3.095e-07
3.07153e-07
3.09034e-07
3.72152e-05
-3.85868e-05
4.80453e-07
-4.91517e-07
4.79129e-07
-4.89853e-07
-4.90341e-07
4.80007e-07
-4.88588e-07
-3.72535e-05
3.86178e-05
-2.96357e-07
-2.93975e-07
-2.94965e-07
3.86082e-05
3.722e-05
-3.85832e-05
3.05016e-07
3.09078e-07
3.05231e-07
3.07231e-07
3.72143e-05
-3.85878e-05
4.80095e-07
-4.91185e-07
4.77783e-07
-4.88313e-07
-4.9011e-07
4.78462e-07
-4.87188e-07
-3.72529e-05
3.86192e-05
-2.95808e-07
-2.92182e-07
-2.93143e-07
3.86094e-05
3.72189e-05
-3.85829e-05
3.03419e-07
3.07416e-07
3.05515e-07
3.07175e-07
3.72132e-05
-3.85876e-05
4.78973e-07
-4.89845e-07
4.78005e-07
-4.88653e-07
-4.88762e-07
4.78868e-07
-4.87765e-07
-3.72514e-05
3.86187e-05
-2.9434e-07
-2.92566e-07
-2.93638e-07
3.86086e-05
3.72191e-05
-3.85842e-05
3.0406e-07
3.07785e-07
3.04245e-07
3.06103e-07
3.72136e-05
-3.85885e-05
4.7937e-07
-4.90297e-07
4.77113e-07
-4.87954e-07
-4.88908e-07
4.77729e-07
-4.86457e-07
-3.7252e-05
3.86196e-05
-2.94469e-07
-2.91251e-07
-2.91993e-07
3.86102e-05
3.72178e-05
-3.8583e-05
3.02572e-07
3.06865e-07
3.05879e-07
3.0671e-07
3.72127e-05
-3.85875e-05
4.78081e-07
-4.89205e-07
4.78311e-07
-4.88956e-07
-4.8767e-07
4.79197e-07
-4.87683e-07
-3.7251e-05
3.86186e-05
-2.92956e-07
-2.92646e-07
-2.93665e-07
3.8609e-05
3.72196e-05
-3.85851e-05
3.03605e-07
3.08711e-07
3.05656e-07
3.10488e-07
3.72137e-05
-3.85866e-05
4.78903e-07
-4.90517e-07
4.78101e-07
-4.90135e-07
-4.89621e-07
4.80278e-07
-4.89612e-07
-3.72524e-05
3.86171e-05
-2.95556e-07
-2.94004e-07
-2.98289e-07
3.86062e-05
3.72181e-05
-3.85905e-05
3.03757e-07
3.10254e-07
3.06178e-07
3.1435e-07
3.72169e-05
-3.85837e-05
4.77632e-07
-4.9122e-07
4.80569e-07
-4.89613e-07
-4.91075e-07
4.76916e-07
-4.89865e-07
-3.72538e-05
3.86179e-05
-3.01127e-07
-2.94244e-07
-2.99633e-07
3.86073e-05
3.72231e-05
-3.85875e-05
3.17436e-07
3.09168e-07
3.01493e-07
3.20887e-07
3.72132e-05
-3.85757e-05
4.84059e-07
-4.90596e-07
4.77078e-07
-4.89027e-07
-4.90153e-07
4.88471e-07
-4.8693e-07
-3.72532e-05
3.86184e-05
-2.97065e-07
-2.93419e-07
-2.9363e-07
3.86102e-05
3.72269e-05
-3.85849e-05
3.09926e-07
3.24994e-07
3.04373e-07
3.06267e-07
3.72313e-05
-3.85881e-05
4.81736e-07
-4.90309e-07
4.8049e-07
-4.88755e-07
-4.87337e-07
4.79535e-07
-4.86639e-07
-3.72527e-05
3.86189e-05
-2.93778e-07
-2.92658e-07
-2.93076e-07
3.86101e-05
3.72267e-05
-3.85879e-05
3.08535e-07
3.12872e-07
3.01272e-07
3.08385e-07
3.72145e-05
-3.85879e-05
4.81515e-07
-4.9052e-07
4.78989e-07
-4.89017e-07
-4.88663e-07
4.80724e-07
-4.87541e-07
-3.72522e-05
3.86189e-05
-2.94551e-07
-2.92726e-07
-2.93828e-07
3.86093e-05
3.72233e-05
-3.85888e-05
3.06414e-07
3.08714e-07
3.00134e-07
3.06399e-07
3.72141e-05
-3.859e-05
4.80097e-07
-4.903e-07
4.78555e-07
-4.88333e-07
-4.88935e-07
4.78877e-07
-4.86847e-07
-3.72519e-05
3.86196e-05
-2.94482e-07
-2.91697e-07
-2.92915e-07
3.86103e-05
3.72226e-05
-3.8589e-05
3.05792e-07
3.07652e-07
3.00227e-07
3.06587e-07
3.72126e-05
-3.85898e-05
4.79872e-07
-4.90065e-07
4.78406e-07
-4.88827e-07
-4.88251e-07
4.79586e-07
-4.8766e-07
-3.72514e-05
3.86191e-05
-2.93007e-07
-2.92372e-07
-2.94091e-07
3.86093e-05
3.72224e-05
-3.85891e-05
3.06217e-07
3.07947e-07
3.00099e-07
3.06379e-07
3.72128e-05
-3.85899e-05
4.79944e-07
-4.90504e-07
4.78216e-07
-4.88714e-07
-4.88704e-07
4.79086e-07
-4.87554e-07
-3.72518e-05
3.86191e-05
-2.93355e-07
-2.92275e-07
-2.93945e-07
3.86093e-05
3.72224e-05
-3.85875e-05
3.05947e-07
3.07772e-07
3.01956e-07
3.07754e-07
3.72128e-05
-3.85887e-05
4.79705e-07
-4.90375e-07
4.7961e-07
-4.89684e-07
-4.88848e-07
4.80312e-07
-4.87947e-07
-3.72517e-05
3.8618e-05
-2.93233e-07
-2.93443e-07
-2.94248e-07
3.8609e-05
3.72241e-05
-3.85871e-05
3.07888e-07
3.09418e-07
3.02557e-07
3.08535e-07
3.7214e-05
-3.85883e-05
4.81225e-07
-4.91499e-07
4.7987e-07
-4.90219e-07
-4.89745e-07
4.80762e-07
-4.88643e-07
-3.7253e-05
3.86174e-05
-2.94442e-07
-2.94522e-07
-2.95653e-07
3.86081e-05
3.72241e-05
-3.85878e-05
3.07678e-07
3.09309e-07
3.01936e-07
3.07785e-07
3.72142e-05
-3.85888e-05
4.8095e-07
-4.91401e-07
4.79592e-07
-4.89593e-07
-4.89529e-07
4.805e-07
-4.88051e-07
-3.72532e-05
3.86182e-05
-2.94348e-07
-2.93364e-07
-2.94196e-07
3.86089e-05
3.72237e-05
-3.85873e-05
3.07587e-07
3.09158e-07
3.0244e-07
3.08399e-07
3.72137e-05
-3.85883e-05
4.81011e-07
-4.91162e-07
4.799e-07
-4.90152e-07
-4.89154e-07
4.80618e-07
-4.8871e-07
-3.72526e-05
3.86175e-05
-2.93962e-07
-2.94136e-07
-2.95147e-07
3.86077e-05
3.72239e-05
-3.85888e-05
3.07473e-07
3.09183e-07
3.01041e-07
3.06846e-07
3.72141e-05
-3.85899e-05
4.80784e-07
-4.914e-07
4.78953e-07
-4.89171e-07
-4.89686e-07
4.79447e-07
-4.87161e-07
-3.72532e-05
3.86189e-05
-2.95289e-07
-2.92245e-07
-2.92788e-07
3.86097e-05
3.72225e-05
-3.8589e-05
3.05781e-07
3.07517e-07
3.00529e-07
3.0603e-07
3.72125e-05
-3.85899e-05
4.79694e-07
-4.90316e-07
4.78475e-07
-4.89282e-07
-4.88654e-07
4.78898e-07
-4.8773e-07
-3.72519e-05
3.86187e-05
-2.93673e-07
-2.9252e-07
-2.93659e-07
3.86092e-05
3.72222e-05
-3.85901e-05
3.05505e-07
3.07681e-07
2.98835e-07
3.05056e-07
3.7212e-05
-3.85917e-05
4.79358e-07
-4.90603e-07
4.77166e-07
-4.8917e-07
-4.89275e-07
4.76929e-07
-4.88717e-07
-3.7252e-05
3.86188e-05
-2.94608e-07
-2.92547e-07
-2.93945e-07
3.86082e-05
3.72207e-05
-3.859e-05
3.0415e-07
3.03449e-07
2.98263e-07
2.92046e-07
3.72086e-05
-3.86097e-05
4.78262e-07
-4.90956e-07
4.76861e-07
-4.89961e-07
-4.90169e-07
4.68201e-07
-4.90088e-07
-3.72518e-05
3.86179e-05
-2.94802e-07
-2.93187e-07
-2.94934e-07
3.86072e-05
3.72212e-05
-3.85881e-05
3.04446e-07
2.96334e-07
3.013e-07
3.0498e-07
3.71917e-05
-3.85917e-05
4.78763e-07
-4.91841e-07
4.78962e-07
-4.90523e-07
-4.91417e-07
4.78357e-07
-4.89012e-07
-3.72527e-05
3.86174e-05
-2.96114e-07
-2.93206e-07
-2.95729e-07
3.86079e-05
3.72234e-05
-3.85874e-05
3.06162e-07
3.0752e-07
3.01066e-07
3.09655e-07
3.72099e-05
-3.85899e-05
4.80244e-07
-4.91714e-07
4.79796e-07
-4.90665e-07
-4.89507e-07
4.78902e-07
-4.86928e-07
-3.72533e-05
3.86173e-05
-2.98152e-07
-2.91344e-07
-3.04314e-07
3.86096e-05
3.72242e-05
-3.85868e-05
3.0615e-07
3.112e-07
3.00882e-07
3.11583e-07
3.72128e-05
-3.85892e-05
4.80971e-07
-4.92119e-07
4.805e-07
-4.9141e-07
-4.87941e-07
4.79046e-07
-4.85785e-07
-3.72536e-05
3.86166e-05
-3.07321e-07
-2.91048e-07
-3.0544e-07
3.86104e-05
3.72245e-05
-3.85875e-05
3.06118e-07
3.12734e-07
2.99818e-07
3.1095e-07
3.72132e-05
-3.85904e-05
4.81572e-07
-4.9276e-07
4.79918e-07
-4.90705e-07
-4.87013e-07
4.77654e-07
-4.84324e-07
-3.72542e-05
3.86174e-05
-3.07571e-07
-2.89655e-07
-3.04375e-07
3.86116e-05
3.72239e-05
-3.85874e-05
3.05252e-07
3.11882e-07
2.99636e-07
3.10917e-07
3.7212e-05
-3.85904e-05
4.8127e-07
-4.91975e-07
4.80135e-07
-4.90547e-07
-4.86075e-07
4.77598e-07
-4.84455e-07
-3.72532e-05
3.86176e-05
-3.06793e-07
-2.89531e-07
-3.04754e-07
3.86115e-05
3.72238e-05
-3.85889e-05
3.04974e-07
3.12e-07
2.97989e-07
3.09312e-07
3.7212e-05
-3.85917e-05
4.81193e-07
-4.92005e-07
4.78909e-07
-4.89515e-07
-4.85794e-07
4.76538e-07
-4.83425e-07
-3.72531e-05
3.86189e-05
-3.06599e-07
-2.88028e-07
-3.03134e-07
3.86129e-05
3.72223e-05
-3.8588e-05
3.03137e-07
3.10054e-07
2.98929e-07
3.10445e-07
3.72107e-05
-3.85907e-05
4.79951e-07
-4.90835e-07
4.79471e-07
-4.90292e-07
-4.84311e-07
4.77272e-07
-4.83477e-07
-3.72519e-05
3.86179e-05
-3.04494e-07
-2.88993e-07
-3.03621e-07
3.86128e-05
3.72236e-05
-3.85877e-05
3.04966e-07
3.12031e-07
2.9918e-07
3.10651e-07
3.72119e-05
-3.85908e-05
4.81111e-07
-4.9208e-07
4.79902e-07
-4.904e-07
-4.85421e-07
4.77314e-07
-4.84231e-07
-3.72532e-05
3.86178e-05
-3.06127e-07
-2.88967e-07
-3.04159e-07
3.86118e-05
3.72235e-05
-3.85874e-05
3.04527e-07
3.11512e-07
2.99688e-07
3.11115e-07
3.72115e-05
-3.85904e-05
4.80926e-07
-4.91652e-07
4.80087e-07
-4.90728e-07
-4.85255e-07
4.77634e-07
-4.84369e-07
-3.72529e-05
3.86174e-05
-3.05906e-07
-2.89455e-07
-3.04525e-07
3.86117e-05
3.72242e-05
-3.85865e-05
3.05609e-07
3.12603e-07
3.00545e-07
3.12045e-07
3.72123e-05
-3.85893e-05
4.81718e-07
-4.92604e-07
4.80624e-07
-4.91561e-07
-4.86225e-07
4.78432e-07
-4.85035e-07
-3.72536e-05
3.86164e-05
-3.06905e-07
-2.90738e-07
-3.05607e-07
3.86107e-05
3.72248e-05
-3.85865e-05
3.05954e-07
3.13203e-07
3.00762e-07
3.11962e-07
3.72131e-05
-3.85897e-05
4.82138e-07
-4.93006e-07
4.80794e-07
-4.91447e-07
-4.86608e-07
4.78148e-07
-4.85114e-07
-3.72543e-05
3.86167e-05
-3.0775e-07
-2.90399e-07
-3.05397e-07
3.8611e-05
3.72248e-05
-3.85871e-05
3.05645e-07
3.12654e-07
3.00227e-07
3.11495e-07
3.72127e-05
-3.85901e-05
4.81892e-07
-4.92315e-07
4.80306e-07
-4.90913e-07
-4.8567e-07
4.78166e-07
-4.84585e-07
-3.7254e-05
3.86173e-05
-3.06664e-07
-2.90052e-07
-3.05163e-07
3.86116e-05
3.72242e-05
-3.85878e-05
3.05678e-07
3.1259e-07
2.98819e-07
3.10285e-07
3.72122e-05
-3.85909e-05
4.81943e-07
-4.92398e-07
4.79414e-07
-4.89656e-07
-4.85976e-07
4.76957e-07
-4.83441e-07
-3.72535e-05
3.86183e-05
-3.07004e-07
-2.88383e-07
-3.03741e-07
3.86125e-05
3.72232e-05
-3.85865e-05
3.0429e-07
3.11421e-07
3.00036e-07
3.11186e-07
3.72114e-05
-3.85897e-05
4.81032e-07
-4.90797e-07
4.80753e-07
-4.87864e-07
-4.84572e-07
4.78548e-07
-4.81454e-07
-3.72522e-05
3.86201e-05
-3.05636e-07
-2.86874e-07
-3.02139e-07
3.86144e-05
3.72245e-05
-3.85861e-05
3.05461e-07
3.12605e-07
3.00125e-07
3.11491e-07
3.72122e-05
-3.85895e-05
4.82593e-07
-4.88237e-07
4.81647e-07
-4.82235e-07
-4.82292e-07
4.78991e-07
-4.76559e-07
-3.72492e-05
3.86281e-05
-3.01976e-07
-2.73303e-07
-2.92167e-07
3.86208e-05
3.72247e-05
-3.8586e-05
3.05707e-07
3.12729e-07
3.00385e-07
3.12316e-07
3.72123e-05
-3.85888e-05
4.83642e-07
-4.83461e-07
4.81736e-07
-4.86334e-07
-4.77021e-07
4.80133e-07
-4.78965e-07
-3.72416e-05
3.86219e-05
-2.9173e-07
-2.83625e-07
-2.99256e-07
3.8618e-05
3.7225e-05
-3.85861e-05
3.05884e-07
3.1313e-07
3.00937e-07
3.12031e-07
3.72133e-05
-3.85896e-05
4.83058e-07
-4.88627e-07
4.80949e-07
-4.89662e-07
-4.81673e-07
4.78175e-07
-4.83228e-07
-3.72494e-05
3.86182e-05
-3.01232e-07
-2.88817e-07
-3.0692e-07
3.86126e-05
3.72251e-05
-3.85868e-05
3.05963e-07
3.12922e-07
3.00226e-07
3.11745e-07
3.72128e-05
-3.85898e-05
4.82357e-07
-4.91707e-07
4.80307e-07
-4.90891e-07
-4.85374e-07
4.78226e-07
-4.84909e-07
-3.7253e-05
3.86171e-05
-3.04034e-07
-2.89941e-07
-3.06724e-07
3.86109e-05
3.72247e-05
-3.85864e-05
3.0607e-07
3.13216e-07
3.00634e-07
3.12336e-07
3.72127e-05
-3.85893e-05
4.82201e-07
-4.92712e-07
4.80524e-07
-4.91826e-07
-4.86226e-07
4.7857e-07
-4.8476e-07
-3.72539e-05
3.8616e-05
-3.06789e-07
-2.90753e-07
-3.05373e-07
3.8611e-05
3.72248e-05
-3.85874e-05
3.06109e-07
3.13387e-07
2.99798e-07
3.11189e-07
3.72131e-05
-3.85904e-05
4.82098e-07
-4.93142e-07
4.79955e-07
-4.90639e-07
-4.86364e-07
4.779e-07
-4.8477e-07
-3.72546e-05
3.86177e-05
-3.07821e-07
-2.89486e-07
-3.0567e-07
3.86115e-05
3.72238e-05
-3.85878e-05
3.05161e-07
3.11848e-07
2.99098e-07
3.1033e-07
3.72116e-05
-3.8591e-05
4.81466e-07
-4.91714e-07
4.79488e-07
-4.90103e-07
-4.85699e-07
4.76871e-07
-4.83345e-07
-3.72528e-05
3.8618e-05
-3.0677e-07
-2.88346e-07
-3.03813e-07
3.86124e-05
3.72235e-05
-3.85884e-05
3.0465e-07
3.1162e-07
2.98716e-07
3.10265e-07
3.72115e-05
-3.8591e-05
4.81248e-07
-4.91705e-07
4.78986e-07
-4.90205e-07
-4.85446e-07
4.76984e-07
-4.83698e-07
-3.72528e-05
3.86179e-05
-3.06701e-07
-2.88773e-07
-3.04263e-07
3.86124e-05
3.72227e-05
-3.85881e-05
3.03788e-07
3.11081e-07
2.98511e-07
3.09949e-07
3.72113e-05
-3.85912e-05
4.80452e-07
-4.91437e-07
4.78972e-07
-4.89888e-07
-4.84537e-07
4.76917e-07
-4.83529e-07
-3.72527e-05
3.86182e-05
-3.05435e-07
-2.88654e-07
-3.04229e-07
3.86125e-05
3.72233e-05
-3.85876e-05
3.04569e-07
3.11259e-07
2.99309e-07
3.1072e-07
3.72113e-05
-3.85905e-05
4.80967e-07
-4.91565e-07
4.79643e-07
-4.90496e-07
-4.8528e-07
4.77351e-07
-4.83783e-07
-3.72527e-05
3.86177e-05
-3.06606e-07
-2.89061e-07
-3.04485e-07
3.86123e-05
3.72238e-05
-3.85869e-05
3.04957e-07
3.11871e-07
3.0011e-07
3.11605e-07
3.7212e-05
-3.85898e-05
4.81438e-07
-4.91872e-07
4.80138e-07
-4.9114e-07
-4.85319e-07
4.78209e-07
-4.84678e-07
-3.72532e-05
3.86169e-05
-3.06388e-07
-2.89935e-07
-3.05661e-07
3.8611e-05
3.72244e-05
-3.85865e-05
3.06051e-07
3.12878e-07
3.00774e-07
3.11884e-07
3.72127e-05
-3.85896e-05
4.82139e-07
-4.92795e-07
4.80539e-07
-4.91282e-07
-4.86335e-07
4.78139e-07
-4.84745e-07
-3.7254e-05
3.86166e-05
-3.07937e-07
-2.90577e-07
-3.05974e-07
3.86112e-05
3.72246e-05
-3.85867e-05
3.05869e-07
3.12957e-07
3.00513e-07
3.11911e-07
3.72128e-05
-3.85896e-05
4.8188e-07
-4.92773e-07
4.80357e-07
-4.91427e-07
-4.86012e-07
4.7829e-07
-4.84868e-07
-3.72541e-05
3.86166e-05
-3.07682e-07
-2.9038e-07
-3.0581e-07
3.86108e-05
3.72246e-05
-3.85873e-05
3.05873e-07
3.13053e-07
2.99925e-07
3.11051e-07
3.72129e-05
-3.85904e-05
4.82006e-07
-4.9294e-07
4.8004e-07
-4.90732e-07
-4.86424e-07
4.77449e-07
-4.84524e-07
-3.72542e-05
3.86175e-05
-3.07975e-07
-2.89751e-07
-3.05324e-07
3.86115e-05
3.7224e-05
-3.85881e-05
3.05268e-07
3.1212e-07
2.99197e-07
3.10326e-07
3.72119e-05
-3.85908e-05
4.81543e-07
-4.92182e-07
4.79251e-07
-4.90145e-07
-4.85475e-07
4.77274e-07
-4.83575e-07
-3.72531e-05
3.86178e-05
-3.06805e-07
-2.889e-07
-3.04197e-07
3.86121e-05
3.72231e-05
-3.85882e-05
3.04416e-07
3.11168e-07
2.98935e-07
3.1e-07
3.72114e-05
-3.85911e-05
4.80889e-07
-4.91777e-07
4.79281e-07
-4.89383e-07
-4.85401e-07
4.76922e-07
-4.83467e-07
-3.72528e-05
3.86182e-05
-3.06441e-07
-2.88493e-07
-3.03914e-07
3.86128e-05
3.72231e-05
-3.85885e-05
3.04351e-07
3.11178e-07
2.98744e-07
3.0997e-07
3.72113e-05
-3.85912e-05
4.80919e-07
-4.9232e-07
4.79084e-07
-4.88494e-07
-4.84838e-07
4.76762e-07
-4.83627e-07
-3.72525e-05
3.86177e-05
-3.0589e-07
-2.8862e-07
-3.04068e-07
3.86123e-05
3.72229e-05
-3.85877e-05
3.04173e-07
3.11237e-07
2.99408e-07
3.10705e-07
3.72113e-05
-3.85905e-05
4.80666e-07
-4.93239e-07
4.79553e-07
-4.87997e-07
-4.84903e-07
4.77295e-07
-4.8427e-07
-3.72519e-05
3.86156e-05
-3.06042e-07
-2.88986e-07
-3.04739e-07
3.86116e-05
3.72239e-05
-3.85869e-05
3.05139e-07
3.1181e-07
3.00549e-07
3.11726e-07
3.7212e-05
-3.85898e-05
4.81523e-07
-4.94307e-07
4.80467e-07
-4.89357e-07
-4.8548e-07
4.78195e-07
-4.84907e-07
-3.72523e-05
3.86148e-05
-3.06759e-07
-2.90387e-07
-3.05818e-07
3.86111e-05
3.72245e-05
-3.85866e-05
3.05594e-07
3.13066e-07
3.00669e-07
3.12035e-07
3.72127e-05
-3.85895e-05
4.81728e-07
-4.9491e-07
4.80424e-07
-4.89906e-07
-4.86171e-07
4.7822e-07
-4.84962e-07
-3.72531e-05
3.86148e-05
-3.07862e-07
-2.90512e-07
-3.06172e-07
3.86108e-05
3.72248e-05
-3.8587e-05
3.06217e-07
3.13089e-07
3.00257e-07
3.11855e-07
3.7213e-05
-3.85897e-05
4.8221e-07
-4.94461e-07
4.80319e-07
-4.9119e-07
-4.86187e-07
4.78164e-07
-4.85013e-07
-3.7253e-05
3.86138e-05
-3.0796e-07
-2.90482e-07
-3.06025e-07
3.8611e-05
3.72241e-05
-3.85808e-05
3.05345e-07
3.11631e-07
3.03104e-07
3.14444e-07
3.72123e-05
-3.85833e-05
4.81052e-07
-4.91783e-07
4.81947e-07
-4.92211e-07
-4.84775e-07
4.78928e-07
-4.87029e-07
-3.72519e-05
3.86094e-05
-3.06728e-07
-2.93389e-07
-3.07886e-07
3.86049e-05
3.72096e-05
-3.844e-05
3.06457e-07
3.11761e-07
1.39109e-07
1.5034e-07
3.71967e-05
-3.84429e-05
4.83718e-07
-4.94508e-07
3.33443e-07
-3.42788e-07
-4.86839e-07
3.30494e-07
-3.39427e-07
-3.72356e-05
3.8472e-05
-3.04226e-07
-1.2899e-07
-1.33813e-07
3.84646e-05
3.68651e-05
-3.59868e-05
7.04578e-07
7.06091e-07
-1.39522e-06
-1.38485e-06
3.68521e-05
-3.59856e-05
7.62856e-07
-7.7073e-07
-7.04751e-07
7.02745e-07
-7.64151e-07
-7.04818e-07
7.02528e-07
-3.68881e-05
3.60251e-05
-6.91026e-07
1.41834e-06
1.40834e-06
3.60115e-05
3.38469e-05
-3.3051e-05
2.60255e-06
2.60745e-06
-6.08364e-06
-6.08332e-06
3.38377e-05
-3.30571e-05
1.94137e-06
-1.94472e-06
-4.50005e-06
4.51481e-06
-1.93508e-06
-4.4834e-06
4.51215e-06
-3.38599e-05
3.30754e-05