/*--------------------------------*- C++ -*----------------------------------*\
| =========                 |                                                 |
| \\      /  F ield         | OpenFOAM: The Open Source CFD Toolbox           |
|  \\    /   O peration     | Version:  2206                                  |
|   \\  /    A nd           | Website:  www.openfoam.com                      |
|    \\/     M anipulation  |                                                 |
\*---------------------------------------------------------------------------*/
FoamFile
{
    version     2.0;
    format      ascii;
    arch        "LSB;label=32;scalar=64";
    class       volScalarField;
    location    "17.5";
    object      epsilon;
}
// * * * * * * * * * * * * * * * * * * * * * * * * * * * * * * * * * * * * * //

dimensions      [0 2 -3 0 0 0 0];

internalField   nonuniform List<scalar> 
28688
(
4.95482e-07
4.97295e-07
4.97295e-07
4.9958e-07
4.45177e-07
4.53505e-07
4.53507e-07
4.63697e-07
4.04305e-07
4.18851e-07
4.18855e-07
4.39495e-07
3.66783e-07
3.86682e-07
3.86687e-07
4.16302e-07
3.53367e-07
3.71335e-07
3.71342e-07
3.97156e-07
3.51945e-07
3.69463e-07
3.69469e-07
3.94562e-07
3.51896e-07
3.69385e-07
3.69391e-07
3.9445e-07
3.51897e-07
3.69385e-07
3.69391e-07
3.94467e-07
3.51897e-07
3.69385e-07
3.69391e-07
3.94467e-07
3.51897e-07
3.69385e-07
3.69391e-07
3.94466e-07
3.51897e-07
3.69385e-07
3.69391e-07
3.94466e-07
3.51897e-07
3.69385e-07
3.69391e-07
3.94466e-07
5.06436e-07
5.05605e-07
5.05604e-07
5.06435e-07
5.05604e-07
5.05604e-07
5.0965e-07
5.09649e-07
5.09649e-07
5.09649e-07
5.05606e-07
5.05605e-07
5.06436e-07
5.05606e-07
5.05604e-07
5.06436e-07
4.9958e-07
4.6724e-07
4.97296e-07
4.973e-07
4.63714e-07
4.63722e-07
4.99581e-07
4.67238e-07
4.973e-07
4.97301e-07
4.63719e-07
4.63725e-07
4.97297e-07
4.63711e-07
4.63715e-07
4.9958e-07
4.67244e-07
4.97299e-07
4.63712e-07
4.6372e-07
4.67243e-07
4.63697e-07
4.4165e-07
4.5351e-07
4.53519e-07
4.27179e-07
4.27187e-07
4.63695e-07
4.41644e-07
4.53515e-07
4.53522e-07
4.2718e-07
4.27191e-07
4.53512e-07
4.27171e-07
4.27181e-07
4.63699e-07
4.41655e-07
4.53515e-07
4.27175e-07
4.27181e-07
4.41653e-07
4.39491e-07
4.18415e-07
4.18861e-07
4.18868e-07
3.94066e-07
3.94072e-07
4.3949e-07
4.18406e-07
4.18861e-07
4.18874e-07
3.94061e-07
3.94079e-07
4.18863e-07
3.94053e-07
3.94069e-07
4.39498e-07
4.1842e-07
4.18862e-07
3.94059e-07
3.94063e-07
4.18419e-07
4.16297e-07
3.97608e-07
3.86697e-07
3.86703e-07
3.73131e-07
3.73137e-07
4.16294e-07
3.976e-07
3.86691e-07
3.8671e-07
3.73124e-07
3.73143e-07
3.867e-07
3.73118e-07
3.73135e-07
4.16304e-07
3.97614e-07
3.86693e-07
3.73124e-07
3.73124e-07
3.97612e-07
3.97152e-07
3.94392e-07
3.7135e-07
3.71355e-07
3.69595e-07
3.69598e-07
3.97146e-07
3.94384e-07
3.71342e-07
3.71361e-07
3.69586e-07
3.69606e-07
3.71353e-07
3.69583e-07
3.69598e-07
3.97158e-07
3.94398e-07
3.71342e-07
3.69589e-07
3.69586e-07
3.94396e-07
3.9456e-07
3.94241e-07
3.69477e-07
3.6948e-07
3.69398e-07
3.69402e-07
3.94554e-07
3.94233e-07
3.69468e-07
3.69487e-07
3.69389e-07
3.69409e-07
3.6948e-07
3.69386e-07
3.69401e-07
3.94566e-07
3.94247e-07
3.69468e-07
3.69392e-07
3.69389e-07
3.94244e-07
3.94448e-07
3.94264e-07
3.694e-07
3.69403e-07
3.69398e-07
3.69402e-07
3.94442e-07
3.94258e-07
3.69391e-07
3.69411e-07
3.6939e-07
3.6941e-07
3.69403e-07
3.69386e-07
3.69401e-07
3.94455e-07
3.94271e-07
3.69391e-07
3.69392e-07
3.69389e-07
3.94268e-07
3.94466e-07
3.94259e-07
3.694e-07
3.69404e-07
3.69399e-07
3.69401e-07
3.94461e-07
3.94254e-07
3.69391e-07
3.69411e-07
3.69389e-07
3.69409e-07
3.69403e-07
3.69386e-07
3.69401e-07
3.94473e-07
3.94266e-07
3.69391e-07
3.69391e-07
3.69389e-07
3.94265e-07
3.94464e-07
3.94259e-07
3.69403e-07
3.69404e-07
3.694e-07
3.69401e-07
3.9446e-07
3.94254e-07
3.69391e-07
3.69411e-07
3.69389e-07
3.69409e-07
3.69403e-07
3.69385e-07
3.69401e-07
3.94471e-07
3.94266e-07
3.69391e-07
3.69391e-07
3.69389e-07
3.94264e-07
3.94462e-07
3.94259e-07
3.69402e-07
3.69404e-07
3.69399e-07
3.69401e-07
3.94459e-07
3.94254e-07
3.69391e-07
3.69411e-07
3.69389e-07
3.69409e-07
3.69403e-07
3.69385e-07
3.69401e-07
3.9447e-07
3.94267e-07
3.69391e-07
3.69391e-07
3.69389e-07
3.94264e-07
3.94462e-07
3.94259e-07
3.69401e-07
3.69403e-07
3.69399e-07
3.69402e-07
3.94459e-07
3.94255e-07
3.69391e-07
3.69411e-07
3.69389e-07
3.69409e-07
3.69403e-07
3.69385e-07
3.69401e-07
3.9447e-07
3.94267e-07
3.69391e-07
3.69391e-07
3.69389e-07
3.94264e-07
3.94462e-07
3.94259e-07
3.69401e-07
3.69404e-07
3.69402e-07
3.94459e-07
3.69391e-07
3.69411e-07
3.69392e-07
3.69412e-07
3.69403e-07
3.69404e-07
3.94471e-07
3.94267e-07
3.69391e-07
3.69395e-07
3.69392e-07
3.94264e-07
5.35681e-07
5.35611e-07
5.35672e-07
5.35672e-07
5.34574e-07
5.35514e-07
5.33635e-07
5.35668e-07
5.34574e-07
5.35514e-07
5.35668e-07
5.33634e-07
5.35263e-07
5.35987e-07
5.35987e-07
1.10891e-06
3.88262e-06
9.33176e-07
4.60511e-06
1.26082e-05
1.65942e-05
1.109e-06
3.88285e-06
9.33225e-07
4.60545e-06
4.95483e-07
4.95483e-07
4.95483e-07
4.57194e-07
4.57193e-07
4.57194e-07
4.57193e-07
5.43533e-07
1.22019e-06
4.95492e-07
4.85535e-07
5.25144e-07
1.21012e-06
4.82361e-07
1.26098e-05
1.65962e-05
5.43549e-07
4.95493e-07
1.22017e-06
4.85536e-07
5.25125e-07
4.82361e-07
1.21011e-06
2.52151e-06
2.52221e-06
4.84196e-07
2.37401e-06
2.3744e-06
1.42932e-06
5.59767e-06
1.32962e-06
6.13103e-06
2.12982e-05
2.30988e-05
1.42972e-06
5.59835e-06
1.32969e-06
6.13166e-06
4.45177e-07
4.45178e-07
4.45178e-07
4.14373e-07
4.14371e-07
4.14373e-07
4.14372e-07
5.86912e-07
1.19544e-06
4.46091e-07
4.44134e-07
5.7364e-07
1.20382e-06
4.35456e-07
2.13011e-05
2.31019e-05
5.86943e-07
4.46092e-07
1.19545e-06
4.44137e-07
5.73644e-07
4.35458e-07
1.2039e-06
2.31345e-06
2.31396e-06
4.53424e-07
2.35027e-06
2.35073e-06
1.65841e-06
6.91539e-06
1.59228e-06
7.32086e-06
2.46398e-05
2.49586e-05
1.65867e-06
6.91623e-06
1.59208e-06
7.3218e-06
4.04305e-07
4.04307e-07
4.04307e-07
3.74379e-07
3.74377e-07
3.7438e-07
3.74379e-07
6.14409e-07
1.23991e-06
4.06997e-07
4.10484e-07
6.08244e-07
1.26936e-06
3.97299e-07
2.46434e-05
2.49619e-05
6.14436e-07
4.06998e-07
1.23995e-06
4.10489e-07
6.08254e-07
3.97301e-07
1.26964e-06
2.46002e-06
2.46048e-06
4.30154e-07
2.54878e-06
2.54926e-06
1.67643e-06
7.82699e-06
1.7512e-06
8.03415e-06
2.47102e-05
2.4606e-05
1.67675e-06
7.82803e-06
1.75123e-06
8.03527e-06
3.66784e-07
3.66786e-07
3.66785e-07
3.54786e-07
3.54786e-07
3.54788e-07
3.54787e-07
6.05015e-07
1.28822e-06
3.7198e-07
3.8059e-07
6.2197e-07
1.27045e-06
3.66398e-07
2.47133e-05
2.46087e-05
6.05026e-07
3.71982e-07
1.28836e-06
3.80596e-07
6.21985e-07
3.66401e-07
1.27054e-06
2.58008e-06
2.58055e-06
4.05751e-07
2.54069e-06
2.54115e-06
1.6073e-06
8.25869e-06
1.60993e-06
8.29198e-06
2.4648e-05
2.46707e-05
1.60716e-06
8.26002e-06
1.60971e-06
8.29331e-06
3.53369e-07
3.5337e-07
3.53369e-07
3.52029e-07
3.52028e-07
3.5203e-07
3.52029e-07
5.85626e-07
1.28341e-06
3.58526e-07
3.7035e-07
5.87696e-07
1.29058e-06
3.57742e-07
2.46508e-05
2.46718e-05
5.85619e-07
3.58528e-07
1.28344e-06
3.70357e-07
5.87693e-07
3.57744e-07
1.29058e-06
2.63447e-06
2.63497e-06
3.94948e-07
2.66423e-06
2.6648e-06
1.60799e-06
8.29957e-06
1.60838e-06
8.29915e-06
2.46784e-05
2.46781e-05
1.60786e-06
8.30088e-06
1.6082e-06
8.30042e-06
3.51947e-07
3.51948e-07
3.51947e-07
3.51897e-07
3.51898e-07
3.519e-07
3.51899e-07
5.85379e-07
1.29428e-06
3.5707e-07
3.69413e-07
5.85539e-07
1.29385e-06
3.57038e-07
2.46796e-05
2.46791e-05
5.85369e-07
3.57071e-07
1.2942e-06
3.6942e-07
5.8553e-07
3.57039e-07
1.2938e-06
2.67553e-06
2.6761e-06
3.94272e-07
2.67551e-06
2.67609e-06
1.60799e-06
8.29936e-06
1.60844e-06
8.29896e-06
2.46787e-05
2.46783e-05
1.60784e-06
8.30064e-06
1.60824e-06
8.3002e-06
3.51901e-07
3.51902e-07
3.51901e-07
3.51897e-07
3.51898e-07
3.519e-07
3.51899e-07
5.8537e-07
1.29445e-06
3.5702e-07
3.69388e-07
5.8549e-07
1.29386e-06
3.57023e-07
2.46798e-05
2.46791e-05
5.85361e-07
3.57021e-07
1.29437e-06
3.69394e-07
5.8548e-07
3.57024e-07
1.29382e-06
2.67603e-06
2.6766e-06
3.94267e-07
2.67561e-06
2.67619e-06
1.60799e-06
8.29933e-06
1.60844e-06
8.29896e-06
2.46788e-05
2.46784e-05
1.60784e-06
8.30057e-06
1.60824e-06
8.30017e-06
3.519e-07
3.51902e-07
3.51901e-07
3.51897e-07
3.51898e-07
3.519e-07
3.51899e-07
5.85371e-07
1.29444e-06
3.5702e-07
3.69387e-07
5.85496e-07
1.29386e-06
3.57022e-07
2.46797e-05
2.46791e-05
5.85362e-07
3.57021e-07
1.29437e-06
3.69393e-07
5.85487e-07
3.57023e-07
1.29382e-06
2.67605e-06
2.67662e-06
3.94261e-07
2.67562e-06
2.67619e-06
1.60799e-06
8.29932e-06
1.60844e-06
8.29894e-06
2.46788e-05
2.46783e-05
1.60784e-06
8.30057e-06
1.60824e-06
8.30017e-06
3.519e-07
3.51902e-07
3.51901e-07
3.51897e-07
3.51898e-07
3.519e-07
3.51899e-07
5.85371e-07
1.29444e-06
3.5702e-07
3.69387e-07
5.85496e-07
1.29386e-06
3.57022e-07
2.46797e-05
2.46791e-05
5.85362e-07
3.57021e-07
1.29437e-06
3.69393e-07
5.85487e-07
3.57023e-07
1.29382e-06
2.67605e-06
2.67662e-06
3.94263e-07
2.67562e-06
2.67619e-06
1.60799e-06
8.29919e-06
1.60843e-06
8.29871e-06
2.46788e-05
2.46783e-05
1.60784e-06
8.30046e-06
1.60824e-06
8.30001e-06
3.519e-07
3.51902e-07
3.51901e-07
3.51897e-07
3.51898e-07
3.519e-07
3.51899e-07
5.85372e-07
1.29444e-06
3.5702e-07
3.69387e-07
5.85495e-07
1.29386e-06
3.57022e-07
2.46797e-05
2.46791e-05
5.85362e-07
3.57021e-07
1.29437e-06
3.69393e-07
5.85487e-07
3.57023e-07
1.29382e-06
2.67605e-06
2.67662e-06
3.94263e-07
2.67562e-06
2.67619e-06
1.60799e-06
8.29906e-06
1.60843e-06
8.29872e-06
2.46788e-05
2.46784e-05
1.60784e-06
8.30037e-06
1.60824e-06
8.29995e-06
3.519e-07
3.51902e-07
3.51901e-07
3.51897e-07
3.51898e-07
3.519e-07
3.51899e-07
5.85371e-07
1.29444e-06
3.5702e-07
3.69387e-07
5.85495e-07
1.29386e-06
3.57022e-07
2.46797e-05
2.46791e-05
5.85362e-07
3.57021e-07
1.29437e-06
3.69393e-07
5.85487e-07
3.57023e-07
1.29382e-06
2.67605e-06
2.67662e-06
3.94263e-07
2.67562e-06
2.6762e-06
1.60798e-06
8.29912e-06
1.60843e-06
8.29876e-06
2.46788e-05
2.46784e-05
1.60784e-06
8.30034e-06
1.60824e-06
8.29993e-06
3.519e-07
3.51902e-07
3.51901e-07
3.51901e-07
3.51905e-07
3.51903e-07
3.51902e-07
5.85371e-07
1.29444e-06
3.5702e-07
3.69386e-07
5.85495e-07
1.29385e-06
3.57022e-07
2.46797e-05
2.46791e-05
5.85362e-07
3.57021e-07
1.29437e-06
3.69393e-07
5.85486e-07
3.57023e-07
1.29382e-06
2.67605e-06
2.67661e-06
3.94263e-07
2.67562e-06
2.67619e-06
5.35263e-07
5.3599e-07
5.35988e-07
1.0916e-05
5.81346e-07
1.09173e-05
5.81338e-07
5.282e-07
2.43149e-06
2.43242e-06
5.40833e-07
5.4083e-07
5.34574e-07
5.35514e-07
5.33635e-07
5.35668e-07
5.34574e-07
5.35514e-07
5.33634e-07
5.35668e-07
5.30398e-07
3.47222e-06
5.68207e-07
8.2209e-07
5.30397e-07
3.47224e-06
5.68206e-07
8.22054e-07
5.29522e-07
5.28383e-07
1.16682e-06
5.09602e-07
5.32664e-07
5.28333e-07
5.19228e-07
5.29522e-07
5.28383e-07
1.16696e-06
5.09602e-07
5.32664e-07
5.28333e-07
5.1923e-07
5.35263e-07
5.35989e-07
5.35988e-07
1.09162e-05
5.81325e-07
5.282e-07
2.43196e-06
2.43212e-06
5.40834e-07
5.4083e-07
1.09169e-05
5.81319e-07
5.34574e-07
5.35514e-07
5.33635e-07
5.35668e-07
5.34574e-07
5.35514e-07
5.35668e-07
5.33635e-07
5.30398e-07
3.47256e-06
5.68204e-07
8.2222e-07
5.29522e-07
5.28384e-07
1.16708e-06
5.09602e-07
5.32663e-07
5.28333e-07
5.19236e-07
5.30398e-07
3.47265e-06
5.68202e-07
8.22126e-07
5.29522e-07
5.28383e-07
5.09602e-07
1.16699e-06
5.28333e-07
5.32663e-07
5.1923e-07
5.35681e-07
5.35611e-07
5.35672e-07
5.35672e-07
5.35681e-07
5.35611e-07
5.35672e-07
5.35672e-07
5.35681e-07
5.35611e-07
5.35672e-07
5.35672e-07
5.28407e-07
5.28359e-07
5.09717e-07
5.09717e-07
5.28383e-07
5.28383e-07
5.0977e-07
5.28407e-07
5.28358e-07
5.09717e-07
5.09717e-07
5.28383e-07
5.28383e-07
5.09771e-07
5.28407e-07
5.28358e-07
5.09717e-07
5.09717e-07
5.28383e-07
5.28383e-07
5.09771e-07
5.28407e-07
5.28358e-07
5.09717e-07
5.09717e-07
5.28383e-07
5.28383e-07
5.09771e-07
5.34574e-07
5.35514e-07
5.35668e-07
5.33635e-07
5.29522e-07
5.28383e-07
1.16703e-06
5.09603e-07
5.32663e-07
5.28333e-07
5.19234e-07
5.30398e-07
3.47244e-06
5.68198e-07
8.2214e-07
5.29522e-07
5.28383e-07
5.09602e-07
1.1669e-06
5.28333e-07
5.32662e-07
5.1923e-07
5.30398e-07
3.47257e-06
5.68202e-07
8.22086e-07
5.35263e-07
5.35987e-07
5.35986e-07
1.09175e-05
5.81335e-07
5.282e-07
2.43224e-06
2.43208e-06
5.4083e-07
5.40827e-07
1.09173e-05
5.81314e-07
5.34574e-07
5.35514e-07
5.35668e-07
5.33635e-07
5.29522e-07
5.28383e-07
5.09603e-07
1.16697e-06
5.28333e-07
5.32662e-07
5.19233e-07
5.29522e-07
5.28383e-07
5.09602e-07
1.16708e-06
5.28333e-07
5.32663e-07
5.19236e-07
5.30397e-07
3.4726e-06
5.68196e-07
8.22202e-07
5.30397e-07
3.47262e-06
5.68207e-07
8.2229e-07
5.282e-07
2.43188e-06
2.43255e-06
5.40828e-07
5.40829e-07
1.09172e-05
5.81318e-07
1.09174e-05
5.81332e-07
1.2608e-05
1.6593e-05
1.26095e-05
1.65958e-05
2.52145e-06
2.5222e-06
4.84195e-07
2.37367e-06
2.37438e-06
2.0524e-05
1.76953e-05
2.05276e-05
1.76981e-05
4.79314e-07
2.30573e-06
2.30639e-06
2.34046e-06
2.34123e-06
1.10875e-06
3.88254e-06
9.33292e-07
4.60502e-06
5.43519e-07
1.22006e-06
4.95493e-07
4.85537e-07
5.25155e-07
1.21005e-06
4.8236e-07
5.43514e-07
1.22025e-06
4.95493e-07
4.85543e-07
5.25164e-07
1.21029e-06
4.8236e-07
1.16075e-06
5.40644e-06
4.81308e-06
1.28111e-06
1.16085e-06
5.40642e-06
4.8131e-06
1.28112e-06
5.5091e-07
4.74416e-07
1.19377e-06
4.57734e-07
1.20449e-06
4.69891e-07
5.66484e-07
5.50912e-07
4.74424e-07
1.19395e-06
4.57734e-07
1.20465e-06
4.69891e-07
5.6648e-07
2.52194e-06
2.52168e-06
4.84194e-07
2.37427e-06
2.37376e-06
1.26087e-05
1.65939e-05
2.05255e-05
1.76967e-05
4.79314e-07
2.30626e-06
2.30596e-06
2.341e-06
2.34082e-06
2.0525e-05
1.76963e-05
5.43548e-07
1.22033e-06
4.95493e-07
4.85541e-07
5.2516e-07
1.21032e-06
4.82361e-07
1.10896e-06
3.88314e-06
9.3307e-07
4.60577e-06
5.43543e-07
4.95493e-07
1.22029e-06
4.85544e-07
5.25149e-07
4.82361e-07
1.21032e-06
1.16079e-06
5.40689e-06
4.81344e-06
1.28125e-06
5.50913e-07
4.74422e-07
1.19397e-06
4.57734e-07
1.20467e-06
4.69891e-07
5.66504e-07
1.16077e-06
5.40734e-06
4.81394e-06
1.28125e-06
5.50914e-07
4.74426e-07
4.57735e-07
1.19402e-06
4.69892e-07
1.20472e-06
5.66508e-07
1.10891e-06
3.8826e-06
9.3315e-07
4.60527e-06
5.43531e-07
4.95493e-07
1.22015e-06
4.85537e-07
5.25133e-07
4.8236e-07
1.21017e-06
1.10893e-06
3.88302e-06
9.32988e-07
4.60552e-06
5.50905e-07
4.74413e-07
1.19377e-06
4.57734e-07
1.20449e-06
4.6989e-07
5.66491e-07
1.16078e-06
5.40645e-06
4.8129e-06
1.28122e-06
5.50904e-07
4.74417e-07
4.57734e-07
1.19383e-06
4.69891e-07
1.20448e-06
5.66488e-07
1.16069e-06
5.40687e-06
4.81367e-06
1.28119e-06
2.52212e-06
2.52162e-06
4.84197e-07
2.3744e-06
2.37363e-06
1.26095e-05
1.65949e-05
2.05282e-05
1.76989e-05
4.79314e-07
2.30645e-06
2.3059e-06
2.34113e-06
2.34067e-06
2.05264e-05
1.76974e-05
5.43557e-07
4.95493e-07
1.22033e-06
4.85542e-07
5.25138e-07
4.82361e-07
1.21031e-06
1.10916e-06
3.88299e-06
9.32939e-07
4.60561e-06
1.10922e-06
3.88288e-06
9.33055e-07
4.60551e-06
5.50907e-07
4.74414e-07
4.57735e-07
1.19382e-06
4.69891e-07
1.20455e-06
5.66507e-07
5.50906e-07
4.74421e-07
4.57734e-07
1.19395e-06
4.69891e-07
1.20464e-06
5.66513e-07
1.16055e-06
5.40713e-06
4.81365e-06
1.28128e-06
1.16058e-06
5.40711e-06
4.8134e-06
1.28131e-06
1.26091e-05
1.65948e-05
1.26096e-05
1.65956e-05
4.79314e-07
2.30586e-06
2.30636e-06
2.34035e-06
2.34117e-06
2.05257e-05
1.76969e-05
2.05274e-05
1.76982e-05
2.12965e-05
2.3097e-05
2.13001e-05
2.31012e-05
2.31329e-06
2.314e-06
4.5342e-07
2.34998e-06
2.35059e-06
2.44487e-05
2.35505e-05
2.44522e-05
2.3554e-05
4.50802e-07
2.44247e-06
2.44314e-06
2.37904e-06
2.3794e-06
1.4293e-06
5.59772e-06
1.3296e-06
6.1312e-06
5.86903e-07
1.19542e-06
4.46092e-07
4.44141e-07
5.73648e-07
1.20384e-06
4.35456e-07
5.86902e-07
1.19558e-06
4.46093e-07
4.44149e-07
5.73642e-07
1.20401e-06
4.35457e-07
1.46802e-06
6.77429e-06
6.30389e-06
1.56674e-06
1.46799e-06
6.7744e-06
6.30388e-06
1.56672e-06
5.92259e-07
4.35504e-07
1.23137e-06
4.165e-07
1.21202e-06
4.25802e-07
6.05098e-07
5.92246e-07
4.35512e-07
1.23147e-06
4.16501e-07
1.21215e-06
4.25802e-07
6.05091e-07
2.31376e-06
2.31352e-06
4.53416e-07
2.35043e-06
2.35014e-06
2.12977e-05
2.30978e-05
2.44498e-05
2.35521e-05
4.508e-07
2.443e-06
2.44243e-06
2.37931e-06
2.3792e-06
2.44492e-05
2.35517e-05
5.86933e-07
1.19563e-06
4.46092e-07
4.44143e-07
5.73654e-07
1.20401e-06
4.35457e-07
1.42971e-06
5.59876e-06
1.3297e-06
6.13232e-06
5.86937e-07
4.46094e-07
1.19565e-06
4.44152e-07
5.7366e-07
4.35458e-07
1.20409e-06
1.46775e-06
6.77494e-06
6.30469e-06
1.56709e-06
5.92266e-07
4.35507e-07
1.23149e-06
4.16501e-07
1.21217e-06
4.25802e-07
6.05111e-07
1.46776e-06
6.77567e-06
6.30511e-06
1.5671e-06
5.92265e-07
4.35516e-07
4.16503e-07
1.23155e-06
4.25804e-07
1.21231e-06
6.05131e-07
1.42948e-06
5.59771e-06
1.32958e-06
6.13114e-06
5.86916e-07
4.46093e-07
1.19546e-06
4.44142e-07
5.73646e-07
4.35457e-07
1.20394e-06
1.42936e-06
5.59829e-06
1.32969e-06
6.13173e-06
5.92248e-07
4.35497e-07
1.23128e-06
4.165e-07
1.21204e-06
4.258e-07
6.05099e-07
1.46789e-06
6.77442e-06
6.3039e-06
1.56679e-06
5.92251e-07
4.35506e-07
4.16501e-07
1.2314e-06
4.25802e-07
1.21208e-06
6.05104e-07
1.46792e-06
6.77512e-06
6.30453e-06
1.5668e-06
2.31406e-06
2.31322e-06
4.53425e-07
2.35073e-06
2.35013e-06
2.12986e-05
2.30996e-05
2.44533e-05
2.35558e-05
4.50806e-07
2.44315e-06
2.44265e-06
2.37985e-06
2.37906e-06
2.44505e-05
2.35529e-05
5.86937e-07
4.46093e-07
1.19556e-06
4.44145e-07
5.73644e-07
4.35457e-07
1.20403e-06
1.42971e-06
5.59836e-06
1.32969e-06
6.13191e-06
1.42958e-06
5.59822e-06
1.32968e-06
6.13188e-06
5.92252e-07
4.35499e-07
4.16502e-07
1.23138e-06
4.25801e-07
1.21205e-06
6.0513e-07
5.92249e-07
4.35507e-07
4.16501e-07
1.2315e-06
4.25802e-07
1.21218e-06
6.05126e-07
1.46773e-06
6.77514e-06
6.30457e-06
1.5671e-06
1.46775e-06
6.77522e-06
6.30461e-06
1.56712e-06
2.12985e-05
2.30998e-05
2.13002e-05
2.31013e-05
4.50804e-07
2.44274e-06
2.44323e-06
2.37909e-06
2.37955e-06
2.44508e-05
2.35531e-05
2.44523e-05
2.35546e-05
2.46388e-05
2.49578e-05
2.46418e-05
2.49607e-05
2.46044e-06
2.4603e-06
4.3015e-07
2.54835e-06
2.5492e-06
2.47837e-05
2.49532e-05
2.47866e-05
2.49558e-05
4.28399e-07
2.58893e-06
2.5895e-06
2.57801e-06
2.57826e-06
1.65838e-06
6.91531e-06
1.59225e-06
7.32109e-06
6.14408e-07
1.23999e-06
4.06998e-07
4.10494e-07
6.08245e-07
1.26943e-06
3.97299e-07
6.14401e-07
1.23999e-06
4.06999e-07
4.10501e-07
6.0824e-07
1.26969e-06
3.973e-07
1.7007e-06
7.74785e-06
7.44549e-06
1.75423e-06
1.70066e-06
7.74814e-06
7.44549e-06
1.75421e-06
6.19953e-07
4.02154e-07
1.28992e-06
3.79233e-07
1.28389e-06
3.87846e-07
6.23226e-07
6.19947e-07
4.02161e-07
1.29013e-06
3.79234e-07
1.28397e-06
3.87847e-07
6.23222e-07
2.46028e-06
2.46051e-06
4.30141e-07
2.54906e-06
2.54821e-06
2.46392e-05
2.4958e-05
2.47846e-05
2.49537e-05
4.28397e-07
2.58942e-06
2.58878e-06
2.57821e-06
2.57795e-06
2.47839e-05
2.49533e-05
6.14436e-07
1.24003e-06
4.06999e-07
4.10493e-07
6.08266e-07
1.26961e-06
3.97301e-07
1.65869e-06
6.91665e-06
1.59207e-06
7.32235e-06
6.1444e-07
4.07001e-07
1.2402e-06
4.10507e-07
6.0826e-07
3.97302e-07
1.26963e-06
1.70058e-06
7.74895e-06
7.44645e-06
1.75437e-06
6.19971e-07
4.02151e-07
1.29017e-06
3.79235e-07
1.28406e-06
3.87847e-07
6.23252e-07
1.70059e-06
7.74944e-06
7.44685e-06
1.75436e-06
6.19977e-07
4.02167e-07
3.79236e-07
1.29014e-06
3.8785e-07
1.28412e-06
6.23253e-07
1.65845e-06
6.91537e-06
1.59233e-06
7.32111e-06
6.14416e-07
4.06999e-07
1.23992e-06
4.10497e-07
6.08246e-07
3.973e-07
1.26962e-06
1.65846e-06
6.91602e-06
1.59233e-06
7.32177e-06
6.19952e-07
4.0214e-07
1.28985e-06
3.79233e-07
1.28382e-06
3.87843e-07
6.2323e-07
1.70072e-06
7.74818e-06
7.44561e-06
1.75428e-06
6.19956e-07
4.02157e-07
3.79234e-07
1.29005e-06
3.87847e-07
1.2839e-06
6.23232e-07
1.70074e-06
7.74883e-06
7.44618e-06
1.75427e-06
2.46112e-06
2.46004e-06
4.30155e-07
2.54903e-06
2.54875e-06
2.46405e-05
2.49593e-05
2.47876e-05
2.49572e-05
4.28406e-07
2.58958e-06
2.58907e-06
2.5787e-06
2.57787e-06
2.47853e-05
2.49545e-05
6.14432e-07
4.07e-07
1.24001e-06
4.10495e-07
6.08255e-07
3.97301e-07
1.26972e-06
1.65868e-06
6.91605e-06
1.59205e-06
7.32187e-06
1.65868e-06
6.91614e-06
1.59208e-06
7.32199e-06
6.19972e-07
4.02145e-07
3.79236e-07
1.29008e-06
3.87846e-07
1.2839e-06
6.23245e-07
6.19971e-07
4.02153e-07
3.79235e-07
1.29015e-06
3.87848e-07
1.28401e-06
6.23246e-07
1.70058e-06
7.74894e-06
7.44628e-06
1.75435e-06
1.70058e-06
7.7491e-06
7.44641e-06
1.75437e-06
2.46408e-05
2.49596e-05
2.46422e-05
2.49609e-05
4.28403e-07
2.58909e-06
2.58957e-06
2.5779e-06
2.57838e-06
2.47856e-05
2.49547e-05
2.47867e-05
2.4956e-05
2.47097e-05
2.4605e-05
2.4712e-05
2.46076e-05
2.58014e-06
2.58043e-06
4.05746e-07
2.54057e-06
2.54111e-06
2.46256e-05
2.46022e-05
2.46288e-05
2.46051e-05
4.04084e-07
2.61348e-06
2.61404e-06
2.54496e-06
2.54545e-06
1.67644e-06
7.82703e-06
1.75117e-06
8.03452e-06
6.05003e-07
1.28828e-06
3.71982e-07
3.80603e-07
6.21965e-07
1.27049e-06
3.66398e-07
6.05003e-07
1.28842e-06
3.71984e-07
3.80609e-07
6.21964e-07
1.2706e-06
3.66399e-07
1.65495e-06
8.2319e-06
8.09772e-06
1.61219e-06
1.65494e-06
8.23229e-06
8.09787e-06
1.61218e-06
6.00234e-07
3.76101e-07
1.27694e-06
3.59988e-07
1.27025e-06
3.62484e-07
5.88612e-07
6.00235e-07
3.76107e-07
1.27706e-06
3.59989e-07
1.27037e-06
3.62485e-07
5.8861e-07
2.58039e-06
2.58008e-06
4.05737e-07
2.54101e-06
2.54042e-06
2.47097e-05
2.4605e-05
2.4627e-05
2.46035e-05
4.04079e-07
2.61391e-06
2.61317e-06
2.54539e-06
2.54507e-06
2.46252e-05
2.46028e-05
6.05039e-07
1.28846e-06
3.71984e-07
3.80597e-07
6.21993e-07
1.27065e-06
3.664e-07
1.67672e-06
7.82843e-06
1.7512e-06
8.03573e-06
6.05036e-07
3.71986e-07
1.2885e-06
3.80616e-07
6.21993e-07
3.66401e-07
1.27071e-06
1.65485e-06
8.23311e-06
8.09883e-06
1.61221e-06
6.00256e-07
3.76095e-07
1.27712e-06
3.5999e-07
1.27042e-06
3.62485e-07
5.8863e-07
1.65483e-06
8.23334e-06
8.09923e-06
1.61221e-06
6.00257e-07
3.76114e-07
3.59991e-07
1.27714e-06
3.62487e-07
1.27055e-06
5.88631e-07
1.67652e-06
7.82717e-06
1.75125e-06
8.03451e-06
6.05014e-07
3.71983e-07
1.28834e-06
3.80606e-07
6.2197e-07
3.66399e-07
1.27053e-06
1.67649e-06
7.8277e-06
1.75123e-06
8.03508e-06
6.00239e-07
3.76086e-07
1.27689e-06
3.59987e-07
1.27028e-06
3.62482e-07
5.88618e-07
1.65502e-06
8.2322e-06
8.09801e-06
1.61222e-06
6.00234e-07
3.76105e-07
3.59989e-07
1.277e-06
3.62484e-07
1.2703e-06
5.88621e-07
1.65499e-06
8.23275e-06
8.0984e-06
1.61221e-06
2.58083e-06
2.58003e-06
4.05752e-07
2.5412e-06
2.54068e-06
2.47109e-05
2.46066e-05
2.46288e-05
2.46065e-05
4.0409e-07
2.61401e-06
2.61358e-06
2.54584e-06
2.54505e-06
2.46277e-05
2.46041e-05
6.05027e-07
3.71984e-07
1.28844e-06
3.80597e-07
6.21988e-07
3.66399e-07
1.27063e-06
1.67671e-06
7.82781e-06
1.75119e-06
8.03521e-06
1.67675e-06
7.828e-06
1.75122e-06
8.03547e-06
6.00245e-07
3.76093e-07
3.59989e-07
1.277e-06
3.62483e-07
1.27029e-06
5.88621e-07
6.00251e-07
3.76095e-07
3.59989e-07
1.27711e-06
3.62485e-07
1.27041e-06
5.88617e-07
1.65481e-06
8.23289e-06
8.09853e-06
1.61219e-06
1.65484e-06
8.23322e-06
8.0988e-06
1.6122e-06
2.47112e-05
2.46068e-05
2.47123e-05
2.46079e-05
4.04088e-07
2.61358e-06
2.6141e-06
2.54507e-06
2.54553e-06
2.46279e-05
2.46044e-05
2.46289e-05
2.46054e-05
2.46462e-05
2.46688e-05
2.46494e-05
2.46721e-05
2.63433e-06
2.63491e-06
3.94943e-07
2.66404e-06
2.66472e-06
2.4676e-05
2.4674e-05
2.46791e-05
2.46772e-05
3.95019e-07
2.67438e-06
2.67513e-06
2.6699e-06
2.67059e-06
1.6073e-06
8.25897e-06
1.60992e-06
8.29249e-06
5.85626e-07
1.28339e-06
3.58528e-07
3.70362e-07
5.87693e-07
1.29053e-06
3.57741e-07
5.85624e-07
1.28351e-06
3.58529e-07
3.70366e-07
5.87692e-07
1.29064e-06
3.57742e-07
1.60786e-06
8.29918e-06
8.29681e-06
1.60787e-06
1.60786e-06
8.29973e-06
8.29729e-06
1.60788e-06
5.85697e-07
3.69848e-07
1.29341e-06
3.57155e-07
1.29278e-06
3.57345e-07
5.85427e-07
5.85695e-07
3.69852e-07
1.29355e-06
3.57156e-07
1.2929e-06
3.57345e-07
5.85425e-07
2.63484e-06
2.63442e-06
3.94936e-07
2.66461e-06
2.66414e-06
2.46472e-05
2.46683e-05
2.46776e-05
2.46758e-05
3.95013e-07
2.67501e-06
2.67458e-06
2.67054e-06
2.67048e-06
2.46752e-05
2.46735e-05
5.85625e-07
1.28359e-06
3.58529e-07
3.70354e-07
5.87699e-07
1.29072e-06
3.57743e-07
1.60717e-06
8.26006e-06
1.60971e-06
8.29321e-06
5.85629e-07
3.58531e-07
1.28368e-06
3.70373e-07
5.87702e-07
3.57744e-07
1.29083e-06
1.60766e-06
8.30046e-06
8.29818e-06
1.60773e-06
5.85694e-07
3.6984e-07
1.29364e-06
3.57156e-07
1.29297e-06
3.57345e-07
5.85425e-07
1.60767e-06
8.30045e-06
8.29809e-06
1.60774e-06
5.85698e-07
3.69859e-07
3.57158e-07
1.29379e-06
3.57347e-07
1.29315e-06
5.85429e-07
1.60732e-06
8.25893e-06
1.60995e-06
8.2921e-06
5.8563e-07
3.58529e-07
1.28344e-06
3.70365e-07
5.87695e-07
3.57742e-07
1.29057e-06
1.60732e-06
8.25941e-06
1.60995e-06
8.29289e-06
5.85695e-07
3.69834e-07
1.29353e-06
3.57156e-07
1.29289e-06
3.57343e-07
5.85428e-07
1.60788e-06
8.29939e-06
8.297e-06
1.6079e-06
5.85699e-07
3.69851e-07
3.57156e-07
1.29348e-06
3.57345e-07
1.29283e-06
5.85431e-07
1.60788e-06
8.30011e-06
8.29768e-06
1.6079e-06
2.63524e-06
2.63445e-06
3.94949e-07
2.66491e-06
2.66423e-06
2.46488e-05
2.46712e-05
2.46786e-05
2.4677e-05
3.95025e-07
2.67537e-06
2.67463e-06
2.67121e-06
2.67013e-06
2.46781e-05
2.46763e-05
5.85615e-07
3.58529e-07
1.28356e-06
3.70354e-07
5.8769e-07
3.57742e-07
1.29068e-06
1.60715e-06
8.25955e-06
1.60969e-06
8.29303e-06
1.60715e-06
8.25989e-06
1.60969e-06
8.2934e-06
5.85687e-07
3.6984e-07
3.57157e-07
1.29347e-06
3.57344e-07
1.29283e-06
5.85418e-07
5.85685e-07
3.6984e-07
3.57156e-07
1.2936e-06
3.57345e-07
1.29295e-06
5.85413e-07
1.60766e-06
8.30025e-06
8.29783e-06
1.60772e-06
1.60765e-06
8.30063e-06
8.2982e-06
1.60772e-06
2.4649e-05
2.46714e-05
2.465e-05
2.46724e-05
3.95024e-07
2.67464e-06
2.67522e-06
2.67016e-06
2.67072e-06
2.46783e-05
2.46765e-05
2.46793e-05
2.46775e-05
2.46767e-05
2.46763e-05
2.46799e-05
2.46796e-05
2.67523e-06
2.67597e-06
3.94269e-07
2.67528e-06
2.676e-06
2.46764e-05
2.4677e-05
2.46796e-05
2.46802e-05
3.94459e-07
2.67539e-06
2.67609e-06
2.67571e-06
2.67641e-06
1.60801e-06
8.3e-06
1.60837e-06
8.29974e-06
5.85377e-07
1.29411e-06
3.57072e-07
3.69426e-07
5.85539e-07
1.29372e-06
3.57038e-07
5.85376e-07
1.29427e-06
3.57072e-07
3.69429e-07
5.85539e-07
1.29389e-06
3.57039e-07
1.60842e-06
8.29901e-06
8.29934e-06
1.60799e-06
1.60843e-06
8.29958e-06
8.29993e-06
1.608e-06
5.85496e-07
3.69403e-07
1.29374e-06
3.57021e-07
1.29428e-06
3.57023e-07
5.85365e-07
5.85496e-07
3.69407e-07
1.2939e-06
3.57022e-07
1.29444e-06
3.57024e-07
5.85364e-07
2.67589e-06
2.67569e-06
3.94261e-07
2.67591e-06
2.67558e-06
2.46762e-05
2.46757e-05
2.46782e-05
2.46788e-05
3.94452e-07
2.67598e-06
2.67564e-06
2.67634e-06
2.67608e-06
2.46756e-05
2.46764e-05
5.85375e-07
1.29435e-06
3.57072e-07
3.69417e-07
5.85536e-07
1.29398e-06
3.57039e-07
1.60787e-06
8.30075e-06
1.60818e-06
8.30041e-06
5.85379e-07
3.57074e-07
1.29453e-06
3.69437e-07
5.85541e-07
3.57041e-07
1.29411e-06
1.60823e-06
8.30026e-06
8.30064e-06
1.60785e-06
5.85492e-07
3.69395e-07
1.294e-06
3.57021e-07
1.29452e-06
3.57023e-07
5.85362e-07
1.60824e-06
8.30023e-06
8.30062e-06
1.60786e-06
5.85497e-07
3.69414e-07
3.57023e-07
1.29412e-06
3.57026e-07
1.29469e-06
5.85366e-07
1.60803e-06
8.29969e-06
1.60839e-06
8.29935e-06
5.85383e-07
3.57072e-07
1.29419e-06
3.69429e-07
5.85542e-07
3.57039e-07
1.29381e-06
1.60803e-06
8.30038e-06
1.60839e-06
8.30009e-06
5.85497e-07
3.69391e-07
1.29386e-06
3.5702e-07
1.29443e-06
3.57023e-07
5.85366e-07
1.60845e-06
8.29918e-06
8.29957e-06
1.60802e-06
5.855e-07
3.69406e-07
3.57021e-07
1.29382e-06
3.57023e-07
1.29436e-06
5.85369e-07
1.60845e-06
8.29994e-06
8.30029e-06
1.60802e-06
2.67644e-06
2.67548e-06
3.94275e-07
2.67635e-06
2.67549e-06
2.4679e-05
2.46786e-05
2.46791e-05
2.46799e-05
3.94465e-07
2.67641e-06
2.67558e-06
2.67685e-06
2.67592e-06
2.46786e-05
2.46792e-05
5.85364e-07
3.57072e-07
1.29431e-06
3.69417e-07
5.85527e-07
3.57038e-07
1.29393e-06
1.60785e-06
8.30052e-06
1.60816e-06
8.30024e-06
1.60785e-06
8.3009e-06
1.60816e-06
8.30061e-06
5.85487e-07
3.69397e-07
3.57021e-07
1.29382e-06
3.57024e-07
1.29435e-06
5.85357e-07
5.85482e-07
3.69394e-07
3.57021e-07
1.29394e-06
3.57023e-07
1.29449e-06
5.85351e-07
1.60823e-06
8.30009e-06
8.30043e-06
1.60785e-06
1.60823e-06
8.30046e-06
8.30081e-06
1.60785e-06
2.46792e-05
2.46788e-05
2.46802e-05
2.46799e-05
3.94463e-07
2.6756e-06
2.67618e-06
2.67594e-06
2.67651e-06
2.46788e-05
2.46794e-05
2.46798e-05
2.46805e-05
2.4677e-05
2.46765e-05
2.46801e-05
2.46796e-05
2.67578e-06
2.67647e-06
3.94262e-07
2.67543e-06
2.6761e-06
2.46767e-05
2.46771e-05
2.46796e-05
2.46801e-05
3.9447e-07
2.67547e-06
2.6761e-06
2.67583e-06
2.67648e-06
1.60799e-06
8.29978e-06
1.60842e-06
8.2995e-06
5.85368e-07
1.29428e-06
3.57023e-07
3.694e-07
5.8549e-07
1.29374e-06
3.57023e-07
5.85367e-07
1.29445e-06
3.57024e-07
3.69404e-07
5.85489e-07
1.2939e-06
3.57024e-07
1.60841e-06
8.29896e-06
8.2992e-06
1.60799e-06
1.60842e-06
8.29946e-06
8.29972e-06
1.60799e-06
5.85495e-07
3.69399e-07
1.29375e-06
3.57021e-07
1.29429e-06
3.57022e-07
5.85373e-07
5.85494e-07
3.69403e-07
1.2939e-06
3.57022e-07
1.29444e-06
3.57023e-07
5.85372e-07
2.67637e-06
2.67611e-06
3.94256e-07
2.67599e-06
2.67564e-06
2.46764e-05
2.46756e-05
2.46783e-05
2.46789e-05
3.94465e-07
2.67599e-06
2.67564e-06
2.67638e-06
2.67611e-06
2.46756e-05
2.46763e-05
5.85366e-07
1.29453e-06
3.57023e-07
3.69391e-07
5.85485e-07
1.294e-06
3.57024e-07
1.60785e-06
8.30047e-06
1.60823e-06
8.30015e-06
5.8537e-07
3.57026e-07
1.29469e-06
3.69411e-07
5.8549e-07
3.57026e-07
1.29412e-06
1.60821e-06
8.30017e-06
8.30045e-06
1.60784e-06
5.8549e-07
3.6939e-07
1.29401e-06
3.57022e-07
1.29454e-06
3.57023e-07
5.85371e-07
1.60822e-06
8.30012e-06
8.3004e-06
1.60785e-06
5.85495e-07
3.6941e-07
3.57024e-07
1.29411e-06
3.57025e-07
1.29469e-06
5.85374e-07
1.60801e-06
8.29942e-06
1.60844e-06
8.2991e-06
5.85372e-07
3.57024e-07
1.29437e-06
3.69403e-07
5.85492e-07
3.57024e-07
1.29382e-06
1.60801e-06
8.30015e-06
1.60844e-06
8.29986e-06
5.85495e-07
3.69388e-07
1.29386e-06
3.5702e-07
1.29443e-06
3.57023e-07
5.85373e-07
1.60844e-06
8.29907e-06
8.29936e-06
1.60801e-06
5.85497e-07
3.69402e-07
3.57022e-07
1.29382e-06
3.57023e-07
1.29437e-06
5.85377e-07
1.60844e-06
8.29983e-06
8.30009e-06
1.60801e-06
2.67688e-06
2.67597e-06
3.94269e-07
2.67642e-06
2.67559e-06
2.46792e-05
2.46785e-05
2.4679e-05
2.46798e-05
3.94477e-07
2.67642e-06
2.6756e-06
2.67689e-06
2.67598e-06