/*--------------------------------*- C++ -*----------------------------------*\
| =========                 |                                                 |
| \\      /  F ield         | OpenFOAM: The Open Source CFD Toolbox           |
|  \\    /   O peration     | Version:  2206                                  |
|   \\  /    A nd           | Website:  www.openfoam.com                      |
|    \\/     M anipulation  |                                                 |
\*---------------------------------------------------------------------------*/
FoamFile
{
    version     2.0;
    format      ascii;
    arch        "LSB;label=32;scalar=64";
    class       volVectorField;
    location    "23.5";
    object      U;
}
// * * * * * * * * * * * * * * * * * * * * * * * * * * * * * * * * * * * * * //

dimensions      [0 1 -1 0 0 0 0];

internalField   nonuniform List<vector> 
28673
(
(-4.44788e-07 6.74503e-07 0.102646)
(-4.25325e-05 -4.25432e-05 0.102582)
(-6.56952e-07 -6.68417e-07 0.10269)
(-4.28443e-07 6.62624e-07 0.102646)
(6.74047e-07 -4.28045e-07 0.102646)
(-4.25225e-05 -4.25363e-05 0.102582)
(-6.668e-07 -6.8054e-07 0.10269)
(-4.02817e-07 6.46051e-07 0.102646)
(6.6719e-07 -4.13053e-07 0.102646)
(-4.25054e-05 -4.25192e-05 0.102582)
(-6.8106e-07 -6.79859e-07 0.10269)
(-3.98206e-07 6.41865e-07 0.102646)
(6.65639e-07 -4.19641e-07 0.102646)
(-4.25025e-05 -4.25077e-05 0.102582)
(-7.01647e-07 -6.28161e-07 0.10269)
(-5.26278e-07 7.81281e-07 0.102646)
(6.13255e-07 -4.2145e-07 0.102646)
(-4.25196e-05 -4.25029e-05 0.102581)
(-5.81724e-07 -6.18111e-07 0.10269)
(-4.75042e-07 6.49284e-07 0.102646)
(7.42372e-07 -5.17099e-07 0.102646)
(-4.26226e-05 -4.26407e-05 0.102582)
(-6.72742e-07 -6.84966e-07 0.10269)
(-4.25917e-07 6.52084e-07 0.102646)
(6.49384e-07 -4.20238e-07 0.102646)
(-4.2504e-05 -4.25228e-05 0.102582)
(-6.75246e-07 -6.75184e-07 0.102691)
(-5.06046e-07 6.74991e-07 0.102646)
(6.7442e-07 -5.01953e-07 0.102646)
(-4.2321e-05 -4.2332e-05 0.102582)
(-7.23507e-07 -7.21046e-07 0.102692)
(-7.96261e-07 9.30696e-07 0.102646)
(9.31457e-07 -7.92686e-07 0.102646)
(-4.18153e-05 -4.18267e-05 0.102582)
(-2.00117e-07 -1.96735e-07 0.102694)
(-1.81255e-06 1.57331e-06 0.102646)
(1.57287e-06 -1.80861e-06 0.102646)
(-4.07543e-05 -4.07675e-05 0.102582)
(-2.80837e-07 -2.69143e-07 0.102696)
(-3.24476e-06 2.75435e-06 0.102644)
(2.74687e-06 -3.22678e-06 0.102644)
(-3.88562e-05 -3.88579e-05 0.102581)
(-5.68021e-06 -5.62423e-06 0.102693)
(-2.35061e-06 3.19599e-06 0.102639)
(3.15969e-06 -2.33367e-06 0.102639)
(-2.65647e-05 -2.65396e-05 0.102582)
(-4.21432e-05 -4.20122e-05 0.102623)
(4.1525e-05 -3.44927e-05 0.102586)
(-3.45773e-05 4.1506e-05 0.102586)
(4.81179e-05 4.81576e-05 0.102535)
(-6.98056e-07 4.68837e-07 0.102646)
(4.43994e-05 -4.43739e-05 0.102585)
(-4.43207e-07 6.74048e-07 0.102646)
(-4.43958e-05 -4.43779e-05 0.102585)
(6.96443e-07 4.60373e-07 0.102646)
(-6.99038e-07 4.70235e-07 0.102646)
(6.95655e-07 4.46604e-07 0.102646)
(-6.87999e-07 4.60369e-07 0.102646)
(-4.25355e-05 4.25083e-05 0.102582)
(4.44075e-05 -4.43809e-05 0.102585)
(4.41402e-07 6.69616e-07 0.102646)
(4.58201e-07 -6.92718e-07 0.102646)
(-4.67686e-07 -6.89069e-07 0.102646)
(-4.33955e-07 6.65202e-07 0.102646)
(-4.5858e-07 -6.85637e-07 0.102646)
(-4.43685e-05 4.44057e-05 0.102585)
(-6.7246e-07 -4.5736e-07 0.102646)
(6.7438e-07 -4.31861e-07 0.102646)
(-6.6575e-07 -4.50809e-07 0.102646)
(4.43773e-05 4.43976e-05 0.102585)
(4.25335e-05 4.25095e-05 0.102582)
(-4.44118e-05 -4.43917e-05 0.102585)
(6.93188e-07 4.44872e-07 0.102646)
(-6.85741e-07 4.54804e-07 0.102646)
(6.90618e-07 4.33636e-07 0.102646)
(-6.8367e-07 4.46495e-07 0.102646)
(-4.25225e-05 4.24959e-05 0.102582)
(4.44272e-05 -4.44017e-05 0.102585)
(4.41197e-07 6.69474e-07 0.102646)
(4.58314e-07 -6.94231e-07 0.102646)
(4.2831e-07 6.64706e-07 0.102646)
(4.44367e-07 -6.86368e-07 0.102646)
(-4.52589e-07 -6.83382e-07 0.102646)
(-4.20657e-07 6.61495e-07 0.102646)
(-4.45461e-07 -6.80382e-07 0.102646)
(4.2514e-05 -4.25432e-05 0.102582)
(-4.43843e-05 4.44186e-05 0.102585)
(-6.63001e-07 -4.44598e-07 0.102646)
(6.682e-07 -4.19808e-07 0.102646)
(-6.60516e-07 -4.36729e-07 0.102646)
(4.43933e-05 4.4414e-05 0.102585)
(4.25163e-05 4.2496e-05 0.102582)
(-4.44451e-05 -4.4422e-05 0.102584)
(6.88037e-07 4.28424e-07 0.102646)
(-6.69653e-07 4.2846e-07 0.102646)
(6.83749e-07 4.35343e-07 0.102646)
(-6.98299e-07 4.50992e-07 0.102646)
(-4.25038e-05 4.24769e-05 0.102582)
(4.44374e-05 -4.44117e-05 0.102584)
(4.27585e-07 6.64458e-07 0.102646)
(4.43744e-07 -6.88071e-07 0.102646)
(4.02253e-07 6.57745e-07 0.102646)
(4.08595e-07 -6.6229e-07 0.102646)
(-4.36799e-07 -6.78457e-07 0.102646)
(-4.25856e-07 6.73318e-07 0.102646)
(-4.47964e-07 -6.80323e-07 0.102646)
(4.2499e-05 -4.25318e-05 0.102582)
(-4.4416e-05 4.44509e-05 0.102584)
(-6.58373e-07 -4.29443e-07 0.102646)
(6.46688e-07 -4.013e-07 0.102646)
(-6.66294e-07 -4.32238e-07 0.102646)
(4.4421e-05 4.44482e-05 0.102584)
(4.25005e-05 4.24801e-05 0.102582)
(-4.45185e-05 -4.44682e-05 0.102584)
(6.91021e-07 4.43019e-07 0.102646)
(-6.68101e-07 4.21579e-07 0.102646)
(6.23817e-07 4.01944e-07 0.102646)
(-7.42636e-07 4.57791e-07 0.102645)
(-4.25149e-05 4.24871e-05 0.102581)
(4.44189e-05 -4.43969e-05 0.102584)
(4.22629e-07 6.76238e-07 0.102646)
(4.37777e-07 -6.91123e-07 0.102646)
(3.35043e-07 6.37194e-07 0.102646)
(3.43974e-07 -6.16652e-07 0.102646)
(-4.5108e-07 -6.87138e-07 0.102646)
(-4.35187e-07 7.1322e-07 0.102646)
(-4.15427e-07 -6.35941e-07 0.102646)
(4.24744e-05 -4.25035e-05 0.102582)
(-4.44855e-05 4.4512e-05 0.102584)
(-6.76904e-07 -4.35146e-07 0.102646)
(5.91178e-07 -3.4871e-07 0.102646)
(-6.5095e-07 -3.77595e-07 0.102646)
(4.44615e-05 4.45098e-05 0.102584)
(4.24603e-05 4.24918e-05 0.102581)
(-4.42756e-05 -4.42719e-05 0.102584)
(6.81285e-07 5.1344e-07 0.102645)
(-8.12965e-07 5.48333e-07 0.102645)
(7.59616e-07 5.61702e-07 0.102646)
(-7.03843e-07 5.49651e-07 0.102646)
(-4.2614e-05 4.25824e-05 0.102581)
(4.43711e-05 -4.43479e-05 0.102585)
(3.84606e-07 7.15889e-07 0.102646)
(3.74826e-07 -6.61509e-07 0.102646)
(5.75486e-07 7.43161e-07 0.102646)
(6.01265e-07 -7.82323e-07 0.102646)
(-5.18668e-07 -7.11487e-07 0.102645)
(-5.25789e-07 6.79835e-07 0.102646)
(-5.73941e-07 -7.39976e-07 0.102646)
(4.24176e-05 -4.24659e-05 0.102581)
(-4.4224e-05 4.42647e-05 0.102584)
(-7.37759e-07 -4.75153e-07 0.102646)
(7.65587e-07 -5.69413e-07 0.102646)
(-7.23953e-07 -5.65043e-07 0.102646)
(4.42816e-05 4.43048e-05 0.102584)
(4.2681e-05 4.26118e-05 0.102582)
(-4.44097e-05 -4.43992e-05 0.102585)
(7.30097e-07 5.0315e-07 0.102646)
(-6.71289e-07 5.01245e-07 0.102646)
(6.96489e-07 4.49181e-07 0.102646)
(-6.8922e-07 4.70594e-07 0.102646)
(-4.25763e-05 4.25479e-05 0.102582)
(4.44193e-05 -4.43895e-05 0.102585)
(5.44705e-07 6.78917e-07 0.102646)
(5.72754e-07 -7.43255e-07 0.102646)
(4.56826e-07 6.55822e-07 0.102646)
(4.74304e-07 -6.84502e-07 0.102646)
(-5.12988e-07 -7.01764e-07 0.102646)
(-4.42336e-07 6.67706e-07 0.102646)
(-4.62859e-07 -6.84646e-07 0.102646)
(4.26938e-05 -4.27012e-05 0.102582)
(-4.43879e-05 4.44254e-05 0.102585)
(-6.6944e-07 -5.14164e-07 0.102646)
(6.71727e-07 -4.39024e-07 0.102646)
(-6.54789e-07 -4.60106e-07 0.102646)
(4.43969e-05 4.44104e-05 0.102585)
(4.25168e-05 4.24926e-05 0.102582)
(-4.43067e-05 -4.42791e-05 0.102585)
(6.75006e-07 4.39004e-07 0.102646)
(-6.74826e-07 4.53105e-07 0.102646)
(6.75028e-07 4.19044e-07 0.102646)
(-6.7937e-07 4.35348e-07 0.102646)
(-4.25115e-05 4.24867e-05 0.102582)
(4.43089e-05 -4.42839e-05 0.102585)
(4.32552e-07 6.46179e-07 0.102646)
(4.46568e-07 -6.70423e-07 0.102646)
(4.08568e-07 6.57208e-07 0.102646)
(4.25431e-07 -6.75785e-07 0.102646)
(-4.46839e-07 -6.67105e-07 0.102646)
(-4.09675e-07 6.54729e-07 0.102646)
(-4.35526e-07 -6.69586e-07 0.102646)
(4.24898e-05 -4.25219e-05 0.102582)
(-4.42821e-05 4.43093e-05 0.102585)
(-6.42653e-07 -4.41155e-07 0.102646)
(6.52753e-07 -4.03681e-07 0.102646)
(-6.53047e-07 -4.21136e-07 0.102646)
(4.42793e-05 4.43025e-05 0.102585)
(4.23239e-05 4.23094e-05 0.102582)
(-4.36114e-05 -4.3584e-05 0.102585)
(6.95448e-07 5.23383e-07 0.102646)
(-6.99461e-07 5.3071e-07 0.102646)
(5.78362e-07 2.14076e-07 0.102646)
(-5.83435e-07 2.28739e-07 0.102646)
(-4.23216e-05 4.2294e-05 0.102582)
(4.36141e-05 -4.35875e-05 0.102585)
(5.07077e-07 6.79409e-07 0.102646)
(5.20752e-07 -6.97904e-07 0.102646)
(2.02397e-07 5.61777e-07 0.102646)
(2.21134e-07 -5.80968e-07 0.102646)
(-5.30822e-07 -6.89075e-07 0.102646)
(-2.03799e-07 5.58801e-07 0.102646)
(-2.29974e-07 -5.7407e-07 0.102646)
(4.23021e-05 -4.23367e-05 0.102582)
(-4.35855e-05 4.36147e-05 0.102585)
(-6.74573e-07 -5.18242e-07 0.102646)
(5.58606e-07 -1.98403e-07 0.102646)
(-5.58597e-07 -2.1274e-07 0.102646)
(4.35825e-05 4.36087e-05 0.102585)
(4.18201e-05 4.18063e-05 0.102582)
(-4.32626e-05 -4.32354e-05 0.102586)
(9.49758e-07 8.13985e-07 0.102646)
(-9.53785e-07 8.20291e-07 0.102646)
(-6.75124e-08 -5.78157e-07 0.102646)
(6.1298e-08 -5.66237e-07 0.102646)
(-4.18187e-05 4.17883e-05 0.102582)
(4.32649e-05 -4.32412e-05 0.102586)
(7.98144e-07 9.34573e-07 0.102646)
(8.10908e-07 -9.52641e-07 0.102646)
(-5.91926e-07 -8.35922e-08 0.102646)
(-5.71471e-07 6.54198e-08 0.102646)
(-8.209e-07 -9.42141e-07 0.102646)
(5.89983e-07 -8.46318e-08 0.102646)
(5.68903e-07 6.92382e-08 0.102646)
(4.17971e-05 -4.1832e-05 0.102582)
(-4.32396e-05 4.32691e-05 0.102586)
(-9.30211e-07 -8.08151e-07 0.102646)
(-8.56847e-08 5.93423e-07 0.102646)
(8.61754e-08 5.88558e-07 0.102646)
(4.32365e-05 4.32584e-05 0.102586)
(4.07607e-05 4.07477e-05 0.102582)
(-4.17492e-05 -4.172e-05 0.102586)
(1.59144e-06 1.82936e-06 0.102646)
(-1.59556e-06 1.83914e-06 0.102646)
(-1.05948e-06 -1.73999e-06 0.102648)
(1.04986e-06 -1.72799e-06 0.102648)
(-4.07587e-05 4.07314e-05 0.102582)
(4.17545e-05 -4.17211e-05 0.102586)
(1.81583e-06 1.57718e-06 0.102646)
(1.83153e-06 -1.59326e-06 0.102646)
(-1.76565e-06 -1.0709e-06 0.102648)
(-1.74008e-06 1.05837e-06 0.102648)
(-1.83222e-06 -1.58216e-06 0.102646)
(1.75359e-06 -1.06619e-06 0.102648)
(1.73707e-06 1.05779e-06 0.102648)
(4.07427e-05 -4.07717e-05 0.102582)
(-4.17235e-05 4.17497e-05 0.102586)
(-1.57309e-06 -1.81521e-06 0.102646)
(-1.07555e-06 1.76397e-06 0.102648)
(1.06622e-06 1.75915e-06 0.102648)
(4.17083e-05 4.17468e-05 0.102586)
(3.88531e-05 3.8849e-05 0.102581)
(-3.546e-05 -3.5405e-05 0.102586)
(2.76038e-06 3.24843e-06 0.102644)
(-2.76885e-06 3.27036e-06 0.102644)
(-4.97534e-06 -6.68159e-06 0.10265)
(4.95267e-06 -6.67434e-06 0.10265)
(-3.88529e-05 3.88414e-05 0.102581)
(3.54272e-05 -3.54137e-05 0.102586)
(3.23392e-06 2.75098e-06 0.102644)
(3.24826e-06 -2.75885e-06 0.102644)
(-6.71413e-06 -4.96047e-06 0.10265)
(-6.69712e-06 4.96813e-06 0.10265)
(-3.25891e-06 -2.75114e-06 0.102644)
(6.69249e-06 -4.94624e-06 0.10265)
(6.68206e-06 4.97122e-06 0.10265)
(3.88467e-05 -3.88641e-05 0.102581)
(-3.54384e-05 3.5438e-05 0.102586)
(-2.74599e-06 -3.24036e-06 0.102644)
(-4.97318e-06 6.70067e-06 0.10265)
(4.96296e-06 6.70434e-06 0.10265)
(3.54117e-05 3.54415e-05 0.102586)
(2.65124e-05 2.65793e-05 0.102582)
(-4.31719e-05 -4.29943e-05 0.102552)
(3.15341e-06 2.38076e-06 0.102639)
(-3.18198e-06 2.39098e-06 0.102639)
(-3.57064e-05 -5.54812e-05 0.102624)
(3.57015e-05 -5.55126e-05 0.102624)
(-2.65569e-05 2.65773e-05 0.102582)
(4.31626e-05 -4.30042e-05 0.102552)
(2.29647e-06 3.18338e-06 0.102639)
(2.32022e-06 -3.15642e-06 0.102639)
(-5.56737e-05 -3.56063e-05 0.102624)
(-5.56207e-05 3.57059e-05 0.102624)
(-2.34166e-06 -3.14939e-06 0.102639)
(5.56537e-05 -3.56177e-05 0.102624)
(5.56098e-05 3.57186e-05 0.102624)
(2.6525e-05 -2.65554e-05 0.102582)
(-4.31087e-05 4.3159e-05 0.102552)
(-3.16276e-06 -2.33457e-06 0.102639)
(-3.56834e-05 5.56296e-05 0.102624)
(3.56963e-05 5.56683e-05 0.102624)
(4.31111e-05 4.31619e-05 0.102552)
(-4.81738e-05 -4.79887e-05 0.102535)
(-3.46043e-05 -4.13383e-05 0.102585)
(3.45944e-05 -4.13651e-05 0.102585)
(4.81608e-05 -4.79897e-05 0.102535)
(-4.15431e-05 -3.44853e-05 0.102586)
(-4.1491e-05 3.45941e-05 0.102586)
(4.21368e-05 -4.20128e-05 0.102623)
(-4.21128e-05 4.21478e-05 0.102623)
(4.21353e-05 4.21605e-05 0.102623)
(4.14901e-05 3.46092e-05 0.102586)
(-4.81108e-05 4.81564e-05 0.102535)
(3.45921e-05 4.15427e-05 0.102586)
(6.28925e-08 -9.08396e-06 0.100641)
(7.27041e-07 6.64793e-06 0.0938789)
(-6.30476e-08 8.82161e-06 0.100631)
(-1.10052e-06 -6.51939e-06 0.0938939)
(-1.86198e-06 2.65122e-06 0.0820657)
(1.79446e-06 -2.6092e-06 0.0820813)
(-9.13374e-06 4.58735e-08 0.10064)
(-6.49544e-06 -1.0977e-06 0.0938935)
(6.59493e-07 -6.51094e-07 0.10269)
(6.64698e-07 6.43793e-07 0.10269)
(-6.54512e-07 -6.63042e-07 0.10269)
(6.69807e-07 -6.60348e-07 0.10269)
(-6.47828e-07 6.60179e-07 0.10269)
(6.70355e-07 6.47516e-07 0.10269)
(1.46925e-05 6.02118e-08 0.102241)
(-1.42681e-05 4.09053e-06 0.100957)
(-5.6001e-07 -1.79094e-07 0.102677)
(-4.39486e-07 6.6891e-07 0.102646)
(-1.48073e-05 -7.17168e-08 0.102237)
(1.36758e-05 -4.43529e-06 0.100972)
(-5.54803e-07 -1.81312e-07 0.102677)
(-2.46345e-06 1.71201e-06 0.0820818)
(6.32559e-08 1.46722e-05 0.102241)
(-1.7594e-07 -5.56626e-07 0.102677)
(6.75843e-07 -4.37937e-07 0.102646)
(-6.97651e-08 -1.47949e-05 0.102237)
(-1.75811e-07 -5.56431e-07 0.102677)
(-4.45632e-06 1.37209e-05 0.100971)
(-4.40986e-06 -5.40391e-06 0.0986194)
(-5.39213e-06 -4.4038e-06 0.0986188)
(4.437e-05 4.43922e-05 0.102585)
(4.1677e-06 5.23567e-06 0.0986352)
(5.23456e-06 4.15895e-06 0.0986343)
(6.23415e-08 -9.10073e-06 0.100641)
(7.14349e-07 6.59333e-06 0.0938792)
(-5.70021e-08 8.79177e-06 0.100631)
(-1.09568e-06 -6.55592e-06 0.0938943)
(-1.84225e-06 2.61238e-06 0.0820659)
(1.82596e-06 -2.66892e-06 0.0820818)
(-9.15976e-06 4.31712e-08 0.10064)
(6.59769e-06 7.00411e-07 0.0938787)
(8.85903e-06 -4.9705e-08 0.100631)
(-6.53254e-06 -1.08484e-06 0.0938938)
(6.73249e-07 -6.63676e-07 0.10269)
(-6.50047e-07 6.63646e-07 0.10269)
(6.75447e-07 6.51669e-07 0.10269)
(-6.63126e-07 -6.71077e-07 0.10269)
(6.80642e-07 -6.71208e-07 0.10269)
(-6.57333e-07 6.6807e-07 0.10269)
(6.76999e-07 6.55708e-07 0.10269)
(1.4728e-05 5.67883e-08 0.102241)
(-1.42352e-05 4.05365e-06 0.100957)
(-5.39685e-07 -1.87401e-07 0.102677)
(-4.24319e-07 6.6171e-07 0.102646)
(-1.47665e-05 -7.5824e-08 0.102237)
(1.37142e-05 -4.4726e-06 0.100972)
(-5.30801e-07 -1.871e-07 0.102677)
(2.51015e-06 -1.77883e-06 0.082063)
(-2.52573e-06 1.74281e-06 0.082082)
(6.43775e-08 1.47084e-05 0.102241)
(-1.73992e-07 -5.40122e-07 0.102677)
(4.10581e-06 -1.42966e-05 0.100957)
(6.71198e-07 -4.19314e-07 0.102646)
(-6.72649e-08 -1.47556e-05 0.102237)
(-1.74788e-07 -5.32615e-07 0.102677)
(-4.49602e-06 1.37597e-05 0.100971)
(-4.41069e-06 -5.39619e-06 0.0986195)
(-5.38126e-06 -4.4089e-06 0.0986189)
(4.43812e-05 4.44026e-05 0.102585)
(4.14721e-06 5.24716e-06 0.0986353)
(5.24659e-06 4.13764e-06 0.0986344)
(5.55925e-08 -9.15324e-06 0.100641)
(7.31927e-07 6.5586e-06 0.0938796)
(-5.9018e-08 8.75205e-06 0.100631)
(-1.09068e-06 -6.58497e-06 0.0938947)
(-1.81176e-06 2.56128e-06 0.0820669)
(1.84357e-06 -2.6914e-06 0.082083)
(-9.19596e-06 4.22542e-08 0.10064)
(6.55139e-06 7.08067e-07 0.0938791)
(8.82459e-06 -5.13501e-08 0.100631)
(-6.56423e-06 -1.08462e-06 0.0938943)
(6.85963e-07 -6.77017e-07 0.10269)
(-6.58295e-07 6.72448e-07 0.10269)
(6.86591e-07 6.63019e-07 0.10269)
(-6.82306e-07 -6.78117e-07 0.10269)
(6.83187e-07 -6.76842e-07 0.10269)
(-6.76486e-07 6.81475e-07 0.10269)
(6.83914e-07 6.71695e-07 0.10269)
(1.47791e-05 5.22172e-08 0.102241)
(-1.4199e-05 4.01362e-06 0.100957)
(-5.12083e-07 -1.93552e-07 0.102677)
(-3.89263e-07 6.38102e-07 0.102646)
(-1.47273e-05 -7.82485e-08 0.102237)
(1.37718e-05 -4.5039e-06 0.100972)
(-4.94166e-07 -1.92755e-07 0.102677)
(2.46368e-06 -1.78452e-06 0.0820636)
(-2.58805e-06 1.79513e-06 0.0820829)
(5.8609e-08 1.47593e-05 0.102241)
(-1.79514e-07 -5.19107e-07 0.102677)
(4.07426e-06 -1.42622e-05 0.100957)
(6.62643e-07 -3.96203e-07 0.102646)
(-6.8694e-08 -1.47175e-05 0.102237)
(-1.81817e-07 -5.0065e-07 0.102677)
(-4.52846e-06 1.38144e-05 0.100971)
(-4.42423e-06 -5.3883e-06 0.0986195)
(-5.37588e-06 -4.42e-06 0.0986189)
(4.4401e-05 4.44226e-05 0.102584)
(4.16574e-06 5.25243e-06 0.0986352)
(5.25157e-06 4.15753e-06 0.0986344)
(3.5777e-08 -9.19629e-06 0.100641)
(7.08734e-07 6.53165e-06 0.0938801)
(-8.04541e-08 8.71776e-06 0.100631)
(-1.09046e-06 -6.59755e-06 0.0938954)
(-1.88285e-06 2.56313e-06 0.0820684)
(1.9502e-06 -2.72294e-06 0.0820846)
(-9.256e-06 4.15155e-08 0.10064)
(6.53779e-06 6.97498e-07 0.0938796)
(8.7915e-06 -5.34068e-08 0.100631)
(-6.60773e-06 -1.05796e-06 0.0938949)
(6.87862e-07 -6.82041e-07 0.10269)
(-6.77607e-07 6.82377e-07 0.10269)
(6.85319e-07 6.70766e-07 0.10269)
(-7.19205e-07 -6.75337e-07 0.10269)
(6.48303e-07 -6.47905e-07 0.10269)
(-7.1032e-07 7.03227e-07 0.10269)
(6.77439e-07 6.96892e-07 0.10269)
(1.47997e-05 6.00345e-08 0.102241)
(-1.41683e-05 4.01247e-06 0.100957)
(-5.1538e-07 -1.91035e-07 0.102677)
(-3.51133e-07 6.00836e-07 0.102646)
(-1.46979e-05 -7.96277e-08 0.102237)
(1.38105e-05 -4.568e-06 0.100972)
(-4.81363e-07 -1.9596e-07 0.102677)
(2.42891e-06 -1.69677e-06 0.0820648)
(-2.59271e-06 1.7224e-06 0.0820845)
(4.20525e-08 1.47806e-05 0.102241)
(-1.93611e-07 -5.2323e-07 0.102677)
(4.04168e-06 -1.42135e-05 0.100957)
(6.62904e-07 -3.96709e-07 0.102646)
(-7.89002e-08 -1.46852e-05 0.102237)
(-1.9143e-07 -4.98696e-07 0.102677)
(-4.58499e-06 1.38328e-05 0.100971)
(-4.37273e-06 -5.36639e-06 0.0986195)
(-5.36226e-06 -4.36189e-06 0.0986189)
(4.44126e-05 4.44472e-05 0.102584)
(4.15944e-06 5.29745e-06 0.0986353)
(5.27914e-06 4.16136e-06 0.0986344)
(5.47847e-08 -9.00715e-06 0.100641)
(6.75905e-07 6.53974e-06 0.0938809)
(-1.13836e-07 8.68768e-06 0.100631)
(-1.05962e-06 -6.37229e-06 0.0938961)
(-2.12892e-06 2.64464e-06 0.0820701)
(1.58437e-06 -2.41735e-06 0.0820841)
(-9.25068e-06 9.71518e-08 0.10064)
(6.50966e-06 7.4008e-07 0.0938803)
(8.77778e-06 -5.6621e-08 0.100631)
(-6.63077e-06 -9.71564e-07 0.0938957)
(5.88308e-07 -5.89625e-07 0.10269)
(-7.15379e-07 6.82258e-07 0.10269)
(6.30609e-07 6.55109e-07 0.10269)
(-5.6631e-07 -5.71739e-07 0.10269)
(5.9689e-07 -5.89788e-07 0.10269)
(-5.53844e-07 5.70895e-07 0.10269)
(5.84488e-07 5.61655e-07 0.10269)
(1.45033e-05 1.294e-07 0.102241)
(-1.42536e-05 4.1674e-06 0.100956)
(-6.02751e-07 -1.28584e-07 0.102677)
(-5.74785e-07 7.7973e-07 0.102646)
(-1.46954e-05 -3.11161e-08 0.102236)
(1.34575e-05 -4.24521e-06 0.100972)
(-6.94306e-07 -1.20107e-07 0.102677)
(2.37268e-06 -1.62952e-06 0.0820666)
(-2.51227e-06 1.59201e-06 0.0820865)
(1.26376e-08 1.45279e-05 0.102241)
(-2.31189e-07 -5.30101e-07 0.102677)
(3.94498e-06 -1.41946e-05 0.100957)
(6.79029e-07 -5.19751e-07 0.102646)
(-1.0582e-07 -1.46528e-05 0.102236)
(-2.20589e-07 -6.51772e-07 0.102677)
(-4.61108e-06 1.36921e-05 0.100971)
(-4.34044e-06 -5.37786e-06 0.0986197)
(-5.39128e-06 -4.31751e-06 0.0986191)
(4.42412e-05 4.42924e-05 0.102584)
(4.02588e-06 5.12768e-06 0.0986354)
(5.10549e-06 4.03155e-06 0.0986345)
(6.73269e-08 -8.91171e-06 0.100641)
(8.22363e-07 7.13831e-06 0.0938801)
(-7.12768e-08 9.1014e-06 0.100631)
(-1.04356e-06 -6.22614e-06 0.0938943)
(-1.77714e-06 2.79915e-06 0.0820664)
(1.87621e-06 -2.5411e-06 0.0820815)
(-8.86973e-06 -2.00484e-08 0.10064)
(7.15609e-06 7.24847e-07 0.0938805)
(9.18277e-06 -9.26899e-08 0.100631)
(-5.99363e-06 -1.07332e-06 0.0938946)
(6.44544e-07 -6.34396e-07 0.10269)
(-5.60298e-07 5.89874e-07 0.10269)
(6.31464e-07 5.96679e-07 0.10269)
(-6.31733e-07 -6.52132e-07 0.10269)
(6.56847e-07 -6.45994e-07 0.10269)
(-6.22953e-07 6.37654e-07 0.10269)
(6.59063e-07 6.31318e-07 0.10269)
(1.45341e-05 3.68447e-08 0.102241)
(-1.45077e-05 4.22769e-06 0.100957)
(-6.40303e-07 -1.88342e-07 0.102677)
(-4.55012e-07 6.55041e-07 0.102646)
(-1.51575e-05 -9.18012e-08 0.102237)
(1.35498e-05 -4.36532e-06 0.100972)
(-6.09888e-07 -1.85412e-07 0.102677)
(2.76886e-06 -1.85567e-06 0.0820652)
(-2.35303e-06 1.76339e-06 0.0820827)
(1.07336e-07 1.45028e-05 0.102241)
(-1.28355e-07 -6.67667e-07 0.102677)
(4.42854e-06 -1.46225e-05 0.100957)
(7.14612e-07 -4.78179e-07 0.102646)
(-4.18712e-08 -1.51595e-05 0.102237)
(-1.25706e-07 -6.35981e-07 0.102677)
(-4.22208e-06 1.3523e-05 0.100971)
(-4.50259e-06 -5.40952e-06 0.0986193)
(-5.38789e-06 -4.50612e-06 0.0986186)
(4.43988e-05 4.44049e-05 0.102585)
(4.11768e-06 5.27e-06 0.098635)
(5.28374e-06 4.09486e-06 0.0986341)
(2.9673e-07 -9.02345e-06 0.100642)
(8.0431e-07 6.42685e-06 0.0938781)
(-1.23222e-07 8.80155e-06 0.100631)
(-1.21238e-06 -5.43531e-06 0.0938972)
(-1.89541e-06 2.60256e-06 0.0820656)
(2.03645e-06 -2.39345e-06 0.0820821)
(-9.07651e-06 2.90335e-07 0.100641)
(6.46707e-06 7.94634e-07 0.0938778)
(8.89819e-06 -1.2597e-07 0.100631)
(-5.41355e-06 -1.1938e-06 0.0938969)
(6.87055e-07 -6.77122e-07 0.10269)
(-6.6721e-07 6.77766e-07 0.10269)
(6.9131e-07 6.66644e-07 0.10269)
(-5.89127e-07 -5.90086e-07 0.10269)
(5.9196e-07 -5.8513e-07 0.10269)
(-5.8416e-07 5.90498e-07 0.10269)
(5.9604e-07 5.78729e-07 0.10269)
(1.45033e-05 1.38336e-07 0.102242)
(-1.4078e-05 4.07527e-06 0.100956)
(-5.17974e-07 -2.04352e-07 0.102677)
(-4.39282e-07 6.72302e-07 0.102646)
(-1.47431e-05 -9.51862e-08 0.102237)
(1.30008e-05 -4.37015e-06 0.100973)
(-6.06511e-07 -1.41536e-07 0.102677)
(2.5092e-06 -1.82109e-06 0.0820629)
(-2.27362e-06 1.98548e-06 0.0820826)
(1.35742e-07 1.44917e-05 0.102242)
(-1.92349e-07 -5.18308e-07 0.102677)
(4.12561e-06 -1.41475e-05 0.100957)
(6.67406e-07 -4.31711e-07 0.102646)
(-7.60612e-08 -1.47508e-05 0.102237)
(-1.3609e-07 -6.08998e-07 0.102677)
(-4.40868e-06 1.30496e-05 0.100973)
(-4.3216e-06 -5.53413e-06 0.0986191)
(-5.51606e-06 -4.32128e-06 0.0986185)
(4.43579e-05 4.43788e-05 0.102585)
(3.80341e-06 5.64114e-06 0.0986355)
(5.63947e-06 3.79642e-06 0.0986347)
(3.87602e-06 -6.82706e-06 0.100643)
(1.80901e-06 1.58923e-06 0.0938561)
(-1.82976e-06 8.18617e-06 0.10063)
(-5.16063e-06 1.82788e-06 0.093944)
(-3.40077e-06 6.52576e-07 0.0820598)
(4.7191e-06 2.18794e-06 0.0820983)
(-6.87859e-06 3.88616e-06 0.100642)
(1.56342e-06 1.80008e-06 0.0938557)
(8.24676e-06 -1.82346e-06 0.10063)
(1.84923e-06 -5.14324e-06 0.0939437)
(6.78424e-07 -6.70819e-07 0.102691)
(-6.70341e-07 6.77158e-07 0.102691)
(6.82881e-07 6.65164e-07 0.102691)
(-5.81106e-07 -5.81439e-07 0.102689)
(5.82665e-07 -5.76851e-07 0.102689)
(-5.75076e-07 5.82466e-07 0.102689)
(5.87009e-07 5.71101e-07 0.102689)
(1.27329e-05 9.75964e-07 0.102242)
(-1.11314e-05 3.48408e-06 0.100952)
(-4.4489e-07 -2.63094e-07 0.102678)
(-3.38799e-07 6.19345e-07 0.102646)
(-1.39509e-05 -5.37046e-07 0.102237)
(8.55281e-06 -2.7962e-06 0.100982)
(-6.90426e-07 -3.91484e-08 0.102677)
(5.39252e-07 -3.33804e-06 0.0820571)
(2.27455e-06 4.67756e-06 0.0820987)
(9.64396e-07 1.27282e-05 0.102242)
(-2.62027e-07 -4.41705e-07 0.102678)
(3.51571e-06 -1.11776e-05 0.100952)
(6.18965e-07 -3.33669e-07 0.102646)
(-5.29994e-07 -1.39526e-05 0.102237)
(-3.859e-08 -6.904e-07 0.102677)
(-2.83368e-06 8.60163e-06 0.100981)
(-1.88523e-06 -5.53608e-06 0.0986189)
(-5.53096e-06 -1.87941e-06 0.0986183)
(4.39669e-05 4.3992e-05 0.102585)
(-1.36566e-06 3.0468e-06 0.0986388)
(3.05647e-06 -1.36698e-06 0.0986379)
(3.76598e-06 -1.36232e-05 0.100656)
(9.37726e-06 -7.4984e-07 0.0937746)
(-4.85808e-06 7.8806e-06 0.100624)
(-2.33395e-06 -3.52335e-06 0.0940371)
(-3.17336e-06 -5.57638e-06 0.0820159)
(8.72176e-07 4.07291e-06 0.0821515)
(-1.36509e-05 3.76551e-06 0.100656)
(-7.89779e-07 9.38289e-06 0.0937742)
(7.90953e-06 -4.8592e-06 0.100624)
(-3.44887e-06 -2.32679e-06 0.094037)
(7.25018e-07 -7.17928e-07 0.102692)
(-7.17384e-07 7.24944e-07 0.102692)
(7.27918e-07 7.1437e-07 0.102692)
(-8.04491e-07 -7.99586e-07 0.102687)
(8.02348e-07 -8.00143e-07 0.102687)
(-7.97004e-07 8.04347e-07 0.102687)
(7.99634e-07 7.99177e-07 0.102687)
(1.57253e-05 5.68327e-07 0.102245)
(-1.01176e-05 -1.62958e-06 0.100933)
(-4.86622e-07 -3.24631e-07 0.102679)
(1.03369e-07 3.02857e-07 0.102646)
(-1.36374e-05 -9.3825e-07 0.102236)
(9.92764e-06 2.00773e-06 0.10101)
(-5.1408e-07 -6.73074e-08 0.102675)
(-5.63575e-06 -3.08791e-06 0.0820134)
(4.1496e-06 8.45807e-07 0.0821517)
(5.64617e-07 1.57136e-05 0.102245)
(-3.23599e-07 -4.84432e-07 0.102679)
(-1.60904e-06 -1.01568e-05 0.100933)
(3.02672e-07 1.08772e-07 0.102646)
(-9.39579e-07 -1.36343e-05 0.102236)
(-6.68531e-08 -5.1485e-07 0.102675)
(1.96058e-06 9.97904e-06 0.10101)
(-5.97701e-07 3.76135e-06 0.098588)
(3.73371e-06 -6.14589e-07 0.0985874)
(4.3876e-05 4.39009e-05 0.102585)
(1.62371e-06 -7.21945e-06 0.0986926)
(-7.18918e-06 1.63908e-06 0.0986918)
(5.03634e-06 -6.72761e-06 0.100667)
(6.03643e-06 -3.72259e-06 0.0936546)
(-4.06918e-06 8.353e-06 0.100613)
(-3.43074e-06 8.56992e-06 0.0941811)
(-1.66876e-07 -1.11969e-05 0.0819765)
(-8.31417e-06 1.75738e-05 0.0821685)
(-6.73716e-06 5.05703e-06 0.100666)
(-3.80631e-06 6.04219e-06 0.0936543)
(8.37936e-06 -4.07207e-06 0.100613)
(8.69579e-06 -3.43778e-06 0.0941809)
(1.98565e-07 -1.93999e-07 0.102694)
(-1.94174e-07 1.99615e-07 0.102694)
(1.94081e-07 1.97095e-07 0.102694)
(-6.33776e-07 -6.20911e-07 0.102686)
(6.25315e-07 -6.21136e-07 0.102686)
(-6.23744e-07 6.31766e-07 0.102686)
(6.22274e-07 6.32605e-07 0.102686)
(1.14153e-05 8.69119e-07 0.102246)
(-4.60492e-06 -3.73454e-06 0.100907)
(-8.13832e-07 -2.44574e-07 0.102681)
(1.05158e-06 -3.90189e-07 0.102647)
(-1.09959e-05 -9.86662e-07 0.102235)
(-5.97745e-07 6.48745e-06 0.101032)
(-3.8894e-07 1.28727e-07 0.102674)
(-1.12476e-05 -1.45533e-07 0.0819744)
(1.75958e-05 -8.30362e-06 0.0821684)
(8.64399e-07 1.14165e-05 0.102246)
(-2.44498e-07 -8.11996e-07 0.102681)
(-3.72275e-06 -4.64263e-06 0.100907)
(-3.94846e-07 1.05628e-06 0.102647)
(-9.89913e-07 -1.10067e-05 0.102235)
(1.27154e-07 -3.85932e-07 0.102674)
(6.46847e-06 -5.54846e-07 0.101031)
(4.2069e-06 9.1174e-06 0.0985261)
(9.10902e-06 4.20815e-06 0.0985255)
(4.21825e-05 4.22092e-05 0.102585)
(-9.40416e-06 -1.89456e-05 0.0987616)
(-1.8945e-05 -9.39331e-06 0.0987605)
(7.14549e-06 -2.41503e-06 0.100716)
(7.315e-06 -1.88912e-05 0.0934253)
(-6.24929e-06 3.72697e-06 0.100582)
(-7.78986e-07 2.75266e-05 0.0944788)
(1.36299e-05 -3.6629e-05 0.0819626)
(-2.10963e-05 4.89187e-05 0.0821868)
(-2.37216e-06 7.17332e-06 0.100716)
(-1.90456e-05 7.3543e-06 0.093425)
(3.70694e-06 -6.25243e-06 0.100582)
(2.77038e-05 -7.64696e-07 0.0944786)
(2.73196e-07 -2.66649e-07 0.102696)
(-2.74386e-07 2.80936e-07 0.102696)
(2.72418e-07 2.83556e-07 0.102696)
(-2.54621e-06 -2.50847e-06 0.10268)
(2.52853e-06 -2.50573e-06 0.10268)
(-2.52671e-06 2.54218e-06 0.10268)
(2.52234e-06 2.54843e-06 0.10268)
(8.89485e-06 1.18605e-06 0.102252)
(4.05916e-06 -7.80931e-06 0.100878)
(-7.51167e-07 -3.83222e-07 0.102682)
(3.27761e-06 -2.36972e-06 0.102649)
(-8.98287e-06 -9.94541e-07 0.102231)
(-9.92478e-06 9.39946e-06 0.101061)
(1.87604e-07 2.04897e-07 0.102671)
(-3.66099e-05 1.36641e-05 0.0819612)
(4.89573e-05 -2.11346e-05 0.0821861)
(1.16957e-06 8.9015e-06 0.102252)
(-3.87399e-07 -7.43025e-07 0.102682)
(-7.80553e-06 4.03844e-06 0.100878)
(-2.38588e-06 3.29622e-06 0.102649)
(-1.00017e-06 -8.99201e-06 0.102231)
(1.927e-07 1.97404e-07 0.102671)
(9.36521e-06 -9.89373e-06 0.101061)
(1.55751e-05 2.8161e-05 0.098412)
(2.81412e-05 1.55518e-05 0.0984115)
(3.87111e-05 3.87408e-05 0.102586)
(-2.21938e-05 -3.82118e-05 0.0989113)
(-3.81764e-05 -2.21825e-05 0.0989103)
(4.32227e-06 -4.55606e-06 0.100837)
(-1.43402e-06 -4.35878e-05 0.0929934)
(-7.55527e-06 -5.46964e-06 0.100504)
(9.45394e-06 4.9324e-05 0.0950523)
(4.27812e-05 -8.81334e-05 0.0819697)
(-6.47147e-05 0.000120077 0.0821898)
(-4.54957e-06 4.31141e-06 0.100837)
(-4.38767e-05 -1.40925e-06 0.092993)
(-5.52379e-06 -7.57501e-06 0.100504)
(4.95134e-05 9.33525e-06 0.0950521)
(5.65656e-06 -5.61636e-06 0.102693)
(-5.65071e-06 5.6725e-06 0.102693)
(5.64756e-06 5.68191e-06 0.102693)
(-2.82758e-05 -2.81695e-05 0.102625)
(2.82717e-05 -2.81749e-05 0.102625)
(-2.82503e-05 2.8288e-05 0.102625)
(2.82665e-05 2.82972e-05 0.102625)
(2.38185e-05 -4.75755e-07 0.10225)
(1.92943e-05 -1.19886e-05 0.100865)
(5.01538e-06 -2.08625e-06 0.102683)
(1.86399e-05 -1.25371e-05 0.102648)
(-6.04841e-07 -1.35527e-06 0.102231)
(-7.68977e-06 1.77145e-06 0.101083)
(1.25609e-05 -2.30764e-06 0.102657)
(-8.80801e-05 4.27765e-05 0.0819686)
(0.000119774 -6.45531e-05 0.0821891)
(-5.01504e-07 2.37916e-05 0.10225)
(-2.11858e-06 5.00836e-06 0.102683)
(-1.20082e-05 1.92855e-05 0.100865)
(-1.25857e-05 1.86398e-05 0.102648)
(-1.38021e-06 -6.10301e-07 0.102231)
(-2.34794e-06 1.25175e-05 0.102657)
(1.68755e-06 -7.66236e-06 0.101083)
(3.8653e-05 5.38388e-05 0.0982052)
(5.3721e-05 3.86424e-05 0.0982049)
(3.27573e-05 3.28525e-05 0.102582)
(-4.54326e-05 -6.05499e-05 0.0992001)
(-6.0577e-05 -4.52587e-05 0.0991988)
(-1.68814e-05 -0.00013601 0.101199)
(-0.000129169 -0.00017625 0.0925881)
(-2.45165e-05 -8.27699e-05 0.100381)
(-0.000254019 -0.000132347 0.0967762)
(0.000265977 -0.000417761 0.0827026)
(0.000161647 -0.000349932 0.0902317)
(-0.0001362 -1.68505e-05 0.101199)
(-0.000177049 -0.000128498 0.0925871)
(-8.35147e-05 -2.45304e-05 0.100381)
(-0.000132498 -0.000253969 0.0967754)
(-9.54027e-06 -9.44532e-06 0.10256)
(-1.29726e-05 -3.62524e-05 0.102626)
(-3.63901e-05 -1.28792e-05 0.102626)
(-4.26437e-05 -4.24919e-05 0.102544)
(-1.11391e-05 -1.10454e-05 0.102626)
(-1.04758e-05 -3.88694e-05 0.102556)
(-3.90177e-05 -1.03863e-05 0.102556)
(0.000121684 3.70078e-06 0.102124)
(0.000115125 -6.64681e-05 0.101022)
(5.97358e-05 -1.66332e-05 0.102613)
(5.53626e-05 -4.57409e-05 0.102512)
(7.84968e-05 -1.30148e-05 0.102238)
(7.68189e-05 -5.5728e-05 0.10116)
(5.74092e-05 -1.2341e-05 0.102541)
(-0.00041783 0.000265768 0.082702)
(-0.000349844 0.000161362 0.0902313)
(3.69631e-06 0.000121584 0.102124)
(-1.66996e-05 5.96972e-05 0.102613)
(-6.66516e-05 0.000115103 0.101022)
(-4.58652e-05 5.53428e-05 0.102512)
(-1.29982e-05 7.84552e-05 0.102238)
(-1.24065e-05 5.7382e-05 0.102541)
(-5.58495e-05 7.66091e-05 0.101159)
(0.000241385 9.84035e-05 0.0982132)
(9.83654e-05 0.000241565 0.0982134)
(5.85384e-05 5.85538e-05 0.102459)
(3.80309e-05 -6.91795e-05 0.100996)
(-6.93481e-05 3.81728e-05 0.100997)
(1.10224e-06 -6.51467e-06 0.0938937)
(4.45271e-06 -1.37014e-05 0.100971)
(1.77882e-06 -2.58533e-06 0.0820813)
(5.18444e-06 -4.115e-06 0.098635)
(4.04468e-06 -5.13692e-06 0.098637)
(2.4619e-06 -1.71591e-06 0.0820832)
(1.36613e-05 -4.42365e-06 0.100972)
(6.4561e-06 -1.08337e-06 0.0938943)