/*--------------------------------*- C++ -*----------------------------------*\
| =========                 |                                                 |
| \\      /  F ield         | OpenFOAM: The Open Source CFD Toolbox           |
|  \\    /   O peration     | Version:  2206                                  |
|   \\  /    A nd           | Website:  www.openfoam.com                      |
|    \\/     M anipulation  |                                                 |
\*---------------------------------------------------------------------------*/
FoamFile
{
    version     2.0;
    format      ascii;
    arch        "LSB;label=32;scalar=64";
    class       volVectorField;
    location    "8";
    object      U;
}
// * * * * * * * * * * * * * * * * * * * * * * * * * * * * * * * * * * * * * //

dimensions      [0 1 -1 0 0 0 0];

internalField   nonuniform List<vector> 
28448
(
(-3.70723e-07 -3.69573e-07 0.10104)
(-1.5323e-07 3.5444e-07 0.101039)
(3.34604e-07 -1.35143e-07 0.101039)
(-3.4299e-05 -3.43122e-05 0.101036)
(-2.96494e-07 -3.1206e-07 0.10104)
(-3.11239e-07 4.18957e-07 0.101039)
(4.28252e-07 -3.03148e-07 0.101039)
(-3.44475e-05 -3.44715e-05 0.101036)
(-3.17238e-07 -3.12325e-07 0.10104)
(-2.3708e-07 4.05558e-07 0.101039)
(3.96537e-07 -2.28539e-07 0.101039)
(-3.43791e-05 -3.43838e-05 0.101036)
(-3.30905e-07 -3.29545e-07 0.10104)
(-2.23342e-07 3.91057e-07 0.101039)
(3.90197e-07 -2.15003e-07 0.101039)
(-3.43683e-05 -3.4372e-05 0.101036)
(-3.3168e-07 -3.30829e-07 0.10104)
(-2.24724e-07 3.9089e-07 0.101039)
(3.96885e-07 -2.04777e-07 0.101039)
(-3.43711e-05 -3.43663e-05 0.101036)
(-3.31564e-07 -3.32677e-07 0.10104)
(-2.24593e-07 3.89077e-07 0.101039)
(3.92223e-07 -2.19047e-07 0.101039)
(-3.43699e-05 -3.43717e-05 0.101036)
(-3.31295e-07 -3.33759e-07 0.10104)
(-2.25374e-07 3.88453e-07 0.101039)
(3.90043e-07 -2.21101e-07 0.101039)
(-3.43671e-05 -3.43767e-05 0.101036)
(-3.31588e-07 -3.34085e-07 0.10104)
(-2.25488e-07 3.8777e-07 0.101039)
(3.88894e-07 -2.20991e-07 0.101039)
(-3.4367e-05 -3.43772e-05 0.101036)
(-3.32348e-07 -3.34832e-07 0.10104)
(-2.25185e-07 3.87455e-07 0.101039)
(3.88638e-07 -2.20683e-07 0.101039)
(-3.43667e-05 -3.43769e-05 0.101036)
(-3.322e-07 -3.34868e-07 0.10104)
(-2.24127e-07 3.86637e-07 0.101039)
(3.88317e-07 -2.20174e-07 0.101039)
(-3.43665e-05 -3.43764e-05 0.101036)
(-3.32416e-07 -3.34996e-07 0.10104)
(-2.23878e-07 3.86551e-07 0.101039)
(3.8823e-07 -2.19929e-07 0.101039)
(-3.43661e-05 -3.43762e-05 0.101036)
(-3.32646e-07 -3.34897e-07 0.10104)
(-2.2427e-07 3.8693e-07 0.101039)
(3.87877e-07 -2.19599e-07 0.101039)
(-3.4366e-05 -3.43763e-05 0.101036)
(-3.32451e-07 -3.35071e-07 0.10104)
(-2.24122e-07 3.86562e-07 0.101039)
(3.88093e-07 -2.20066e-07 0.101039)
(-3.43661e-05 -3.43761e-05 0.101036)
(-3.31922e-07 -3.34893e-07 0.10104)
(-2.24351e-07 3.86932e-07 0.101039)
(3.88725e-07 -2.2041e-07 0.101039)
(-3.43669e-05 -3.43769e-05 0.101036)
(-3.31304e-07 -3.34284e-07 0.10104)
(-2.25821e-07 3.88042e-07 0.101039)
(3.89668e-07 -2.21581e-07 0.101039)
(-3.43672e-05 -3.43773e-05 0.101036)
(-3.31132e-07 -3.35227e-07 0.10104)
(-2.24264e-07 3.8705e-07 0.101039)
(3.89354e-07 -2.20772e-07 0.101039)
(-3.43665e-05 -3.43778e-05 0.101036)
(-3.29562e-07 -3.39627e-07 0.10104)
(-2.20787e-07 3.83242e-07 0.101039)
(3.91773e-07 -2.18279e-07 0.101039)
(-3.43582e-05 -3.43722e-05 0.101036)
(-3.46994e-07 -3.6164e-07 0.10104)
(3.76085e-07 -1.89432e-07 0.101039)
(-3.55296e-05 -3.55034e-05 0.101036)
(3.80962e-07 1.98874e-07 0.101039)
(-3.80514e-07 2.07753e-07 0.101039)
(3.5534e-05 -3.55037e-05 0.101036)
(1.89919e-07 3.77032e-07 0.101039)
(1.80261e-07 -3.6408e-07 0.101039)
(-1.87455e-07 3.76712e-07 0.101039)
(-1.86207e-07 -3.59506e-07 0.101039)
(-3.55095e-05 3.55429e-05 0.101036)
(3.59372e-07 -1.65859e-07 0.101039)
(-3.56027e-07 -1.80427e-07 0.101039)
(3.55141e-05 3.55364e-05 0.101036)
(3.4314e-05 3.42955e-05 0.101036)
(-3.55132e-05 -3.55135e-05 0.101036)
(3.66543e-07 1.77854e-07 0.101039)
(-3.67021e-07 1.85445e-07 0.101039)
(4.04351e-07 2.10257e-07 0.101039)
(-4.1264e-07 2.13769e-07 0.101039)
(-3.43122e-05 3.42849e-05 0.101036)
(3.55004e-05 -3.55177e-05 0.101036)
(1.69108e-07 3.5955e-07 0.101039)
(1.45039e-07 -3.43167e-07 0.101039)
(2.32494e-07 3.68432e-07 0.101039)
(2.74639e-07 -4.65462e-07 0.101039)
(-1.51023e-07 -3.36447e-07 0.101039)
(-2.63882e-07 3.64915e-07 0.101039)
(-2.93957e-07 -4.55416e-07 0.101039)
(3.42862e-05 -3.43209e-05 0.101036)
(-3.54217e-05 3.54313e-05 0.101036)
(-3.3113e-07 -1.47961e-07 0.101039)
(4.25751e-07 -2.90748e-07 0.101039)
(-4.25749e-07 -3.03882e-07 0.101039)
(3.54216e-05 3.54295e-05 0.101036)
(3.44151e-05 3.43774e-05 0.101036)
(-3.54865e-05 -3.54537e-05 0.101036)
(4.40264e-07 2.84586e-07 0.101039)
(-4.46349e-07 2.85561e-07 0.101039)
(4.16726e-07 2.68334e-07 0.101039)
(-4.15686e-07 2.78169e-07 0.101039)
(-3.44258e-05 3.43709e-05 0.101036)
(3.54916e-05 -3.54577e-05 0.101036)
(2.94138e-07 4.18682e-07 0.101039)
(2.94946e-07 -4.55917e-07 0.101039)
(2.55369e-07 4.1725e-07 0.101039)
(2.55433e-07 -4.01695e-07 0.101039)
(-3.12071e-07 -4.49254e-07 0.101039)
(-2.49057e-07 4.14287e-07 0.101039)
(-2.61297e-07 -3.96511e-07 0.101039)
(3.44314e-05 -3.44831e-05 0.101036)
(-3.54704e-05 3.55087e-05 0.101036)
(-4.27628e-07 -3.17485e-07 0.101039)
(4.01271e-07 -2.37875e-07 0.101039)
(-3.97887e-07 -2.53047e-07 0.101039)
(3.5475e-05 3.55033e-05 0.101036)
(3.43962e-05 3.43865e-05 0.101036)
(-3.55155e-05 -3.54878e-05 0.101036)
(4.08091e-07 2.5685e-07 0.101039)
(-4.06932e-07 2.6338e-07 0.101039)
(3.97583e-07 2.30712e-07 0.101039)
(-3.98005e-07 2.40399e-07 0.101039)
(-3.43921e-05 3.43755e-05 0.101036)
(3.55169e-05 -3.54894e-05 0.101036)
(2.42166e-07 4.09883e-07 0.101039)
(2.44893e-07 -3.96762e-07 0.101039)
(2.22782e-07 3.94336e-07 0.101039)
(2.3155e-07 -3.92289e-07 0.101039)
(-2.51149e-07 -3.91294e-07 0.101039)
(-2.2356e-07 3.92976e-07 0.101039)
(-2.38818e-07 -3.86374e-07 0.101039)
(3.4366e-05 -3.43923e-05 0.101036)
(-3.54869e-05 3.55251e-05 0.101036)
(-3.92419e-07 -2.42503e-07 0.101039)
(3.89988e-07 -2.1432e-07 0.101039)
(-3.86593e-07 -2.29504e-07 0.101039)
(3.54911e-05 3.55198e-05 0.101036)
(3.43745e-05 3.43598e-05 0.101036)
(-3.55161e-05 -3.54896e-05 0.101036)
(3.96862e-07 2.33447e-07 0.101039)
(-3.97176e-07 2.39398e-07 0.101039)
(3.96609e-07 2.27836e-07 0.101039)
(-3.97616e-07 2.37227e-07 0.101039)
(-3.43742e-05 3.43503e-05 0.101036)
(3.55172e-05 -3.54911e-05 0.101036)
(2.23527e-07 3.94425e-07 0.101039)
(2.30945e-07 -3.91518e-07 0.101039)
(2.21171e-07 3.92064e-07 0.101039)
(2.31561e-07 -3.88745e-07 0.101039)
(-2.39302e-07 -3.86035e-07 0.101039)
(-2.23117e-07 3.90567e-07 0.101039)
(-2.39788e-07 -3.8333e-07 0.101039)
(3.43541e-05 -3.43802e-05 0.101036)
(-3.54829e-05 3.55315e-05 0.101036)
(-3.87178e-07 -2.29007e-07 0.101039)
(3.94513e-07 -2.04369e-07 0.101039)
(-3.90887e-07 -2.22141e-07 0.101039)
(3.54873e-05 3.5525e-05 0.101036)
(3.43742e-05 3.43585e-05 0.101036)
(-3.55161e-05 -3.54903e-05 0.101036)
(3.96667e-07 2.32315e-07 0.101039)
(-3.98053e-07 2.38585e-07 0.101039)
(3.96824e-07 2.27283e-07 0.101039)
(-3.97875e-07 2.36771e-07 0.101039)
(-3.43742e-05 3.43494e-05 0.101036)
(3.55168e-05 -3.54919e-05 0.101036)
(2.23526e-07 3.93478e-07 0.101039)
(2.33306e-07 -3.89398e-07 0.101039)
(2.21982e-07 3.91181e-07 0.101039)
(2.31086e-07 -3.92615e-07 0.101039)
(-2.42442e-07 -3.8381e-07 0.101039)
(-2.23692e-07 3.89612e-07 0.101039)
(-2.3947e-07 -3.85215e-07 0.101039)
(3.43575e-05 -3.43741e-05 0.101036)
(-3.54861e-05 3.55262e-05 0.101036)
(-3.92549e-07 -2.18972e-07 0.101039)
(3.93622e-07 -2.11178e-07 0.101039)
(-3.91148e-07 -2.26073e-07 0.101039)
(3.5489e-05 3.55222e-05 0.101036)
(3.43746e-05 3.43581e-05 0.101036)
(-3.55156e-05 -3.54911e-05 0.101036)
(3.96917e-07 2.31569e-07 0.101039)
(-3.97761e-07 2.37359e-07 0.101039)
(3.97443e-07 2.27087e-07 0.101039)
(-3.9811e-07 2.36231e-07 0.101039)
(-3.43747e-05 3.43486e-05 0.101036)
(3.55167e-05 -3.54927e-05 0.101036)
(2.23946e-07 3.92241e-07 0.101039)
(2.30567e-07 -3.9426e-07 0.101039)
(2.22971e-07 3.90218e-07 0.101039)
(2.29721e-07 -3.96941e-07 0.101039)
(-2.39549e-07 -3.87673e-07 0.101039)
(-2.24262e-07 3.8845e-07 0.101039)
(-2.37518e-07 -3.90417e-07 0.101039)
(3.43551e-05 -3.43814e-05 0.101036)
(-3.54886e-05 3.55212e-05 0.101036)
(-3.8991e-07 -2.31825e-07 0.101039)
(3.89637e-07 -2.18821e-07 0.101039)
(-3.85972e-07 -2.35914e-07 0.101039)
(3.54927e-05 3.55164e-05 0.101036)
(3.43756e-05 3.4358e-05 0.101036)
(-3.55153e-05 -3.54912e-05 0.101036)
(3.97671e-07 2.31644e-07 0.101039)
(-3.98328e-07 2.37596e-07 0.101039)
(3.97629e-07 2.27106e-07 0.101039)
(-3.98216e-07 2.35931e-07 0.101039)
(-3.43753e-05 3.43484e-05 0.101036)
(3.55164e-05 -3.54932e-05 0.101036)
(2.25261e-07 3.9177e-07 0.101039)
(2.30525e-07 -3.97863e-07 0.101039)
(2.23306e-07 3.89845e-07 0.101039)
(2.29471e-07 -3.97721e-07 0.101039)
(-2.38789e-07 -3.91479e-07 0.101039)
(-2.24409e-07 3.8778e-07 0.101039)
(-2.3735e-07 -3.9105e-07 0.101039)
(3.43533e-05 -3.43859e-05 0.101036)
(-3.54893e-05 3.55206e-05 0.101036)
(-3.86528e-07 -2.31912e-07 0.101039)
(3.88709e-07 -2.18986e-07 0.101039)
(-3.85381e-07 -2.3471e-07 0.101039)
(3.54928e-05 3.55158e-05 0.101036)
(3.43757e-05 3.43578e-05 0.101036)
(-3.55158e-05 -3.54921e-05 0.101036)
(3.97702e-07 2.31666e-07 0.101039)
(-3.98289e-07 2.37006e-07 0.101039)
(3.97243e-07 2.2647e-07 0.101039)
(-3.98399e-07 2.3573e-07 0.101039)
(-3.43755e-05 3.43479e-05 0.101036)
(3.55167e-05 -3.54933e-05 0.101036)
(2.25211e-07 3.91456e-07 0.101039)
(2.29667e-07 -3.98056e-07 0.101039)
(2.22578e-07 3.89381e-07 0.101039)
(2.28955e-07 -3.97648e-07 0.101039)
(-2.38578e-07 -3.91767e-07 0.101039)
(-2.24489e-07 3.87827e-07 0.101039)
(-2.37514e-07 -3.91504e-07 0.101039)
(3.43524e-05 -3.43862e-05 0.101036)
(-3.54896e-05 3.55209e-05 0.101036)
(-3.85916e-07 -2.33574e-07 0.101039)
(3.88473e-07 -2.18689e-07 0.101039)
(-3.85766e-07 -2.33499e-07 0.101039)
(3.54931e-05 3.5516e-05 0.101036)
(3.4375e-05 3.43567e-05 0.101036)
(-3.55161e-05 -3.54923e-05 0.101036)
(3.9673e-07 2.305e-07 0.101039)
(-3.98e-07 2.36406e-07 0.101039)
(3.96679e-07 2.26106e-07 0.101039)
(-3.97625e-07 2.34872e-07 0.101039)
(-3.4375e-05 3.43477e-05 0.101036)
(3.5517e-05 -3.54937e-05 0.101036)
(2.24178e-07 3.90301e-07 0.101039)
(2.29161e-07 -3.97723e-07 0.101039)
(2.22116e-07 3.88746e-07 0.101039)
(2.28279e-07 -3.97321e-07 0.101039)
(-2.3853e-07 -3.9193e-07 0.101039)
(-2.23648e-07 3.87023e-07 0.101039)
(-2.36617e-07 -3.908e-07 0.101039)
(3.43522e-05 -3.43858e-05 0.101036)
(-3.54895e-05 3.5521e-05 0.101036)
(-3.86073e-07 -2.34625e-07 0.101039)
(3.8829e-07 -2.18742e-07 0.101039)
(-3.85294e-07 -2.33232e-07 0.101039)
(3.54931e-05 3.55163e-05 0.101036)
(3.43748e-05 3.43567e-05 0.101036)
(-3.55163e-05 -3.54925e-05 0.101036)
(3.96678e-07 2.30417e-07 0.101039)
(-3.9727e-07 2.35857e-07 0.101039)
(3.96723e-07 2.25719e-07 0.101039)
(-3.9718e-07 2.34565e-07 0.101039)
(-3.43748e-05 3.43472e-05 0.101036)
(3.55174e-05 -3.54943e-05 0.101036)
(2.24125e-07 3.90264e-07 0.101039)
(2.2875e-07 -3.97405e-07 0.101039)
(2.21972e-07 3.88755e-07 0.101039)
(2.28192e-07 -3.97124e-07 0.101039)
(-2.37415e-07 -3.9109e-07 0.101039)
(-2.22879e-07 3.86577e-07 0.101039)
(-2.35857e-07 -3.90292e-07 0.101039)
(3.4352e-05 -3.43857e-05 0.101036)
(-3.54897e-05 3.5521e-05 0.101036)
(-3.85375e-07 -2.33951e-07 0.101039)
(3.88079e-07 -2.18005e-07 0.101039)
(-3.84718e-07 -2.32636e-07 0.101039)
(3.54936e-05 3.55167e-05 0.101036)
(3.43746e-05 3.43563e-05 0.101036)
(-3.55167e-05 -3.54931e-05 0.101036)
(3.96666e-07 2.30077e-07 0.101039)
(-3.97157e-07 2.35516e-07 0.101039)
(3.96263e-07 2.25233e-07 0.101039)
(-3.97403e-07 2.34366e-07 0.101039)
(-3.43744e-05 3.43466e-05 0.101036)
(3.55176e-05 -3.54943e-05 0.101036)
(2.2379e-07 3.90125e-07 0.101039)
(2.28305e-07 -3.97167e-07 0.101039)
(2.21401e-07 3.8817e-07 0.101039)
(2.27311e-07 -3.96434e-07 0.101039)
(-2.3684e-07 -3.90641e-07 0.101039)
(-2.23113e-07 3.86782e-07 0.101039)
(-2.35761e-07 -3.90295e-07 0.101039)
(3.43518e-05 -3.43855e-05 0.101036)
(-3.54906e-05 3.55219e-05 0.101036)
(-3.8488e-07 -2.33487e-07 0.101039)
(3.87331e-07 -2.17381e-07 0.101039)
(-3.84647e-07 -2.32257e-07 0.101039)
(3.54938e-05 3.55167e-05 0.101036)
(3.43743e-05 3.4356e-05 0.101036)
(-3.55168e-05 -3.54929e-05 0.101036)
(3.96728e-07 2.30315e-07 0.101039)
(-3.97606e-07 2.35817e-07 0.101039)
(3.96271e-07 2.25601e-07 0.101039)
(-3.97415e-07 2.34712e-07 0.101039)
(-3.43744e-05 3.43468e-05 0.101036)
(3.55174e-05 -3.54939e-05 0.101036)
(2.23752e-07 3.90163e-07 0.101039)
(2.28192e-07 -3.9698e-07 0.101039)
(2.21641e-07 3.88399e-07 0.101039)
(2.28076e-07 -3.96954e-07 0.101039)
(-2.37453e-07 -3.91225e-07 0.101039)
(-2.2347e-07 3.8689e-07 0.101039)
(-2.36399e-07 -3.90411e-07 0.101039)
(3.43511e-05 -3.43849e-05 0.101036)
(-3.54899e-05 3.55214e-05 0.101036)
(-3.8547e-07 -2.33783e-07 0.101039)
(3.87851e-07 -2.17982e-07 0.101039)
(-3.84979e-07 -2.32747e-07 0.101039)
(3.54936e-05 3.55167e-05 0.101036)
(3.43741e-05 3.43561e-05 0.101036)
(-3.55162e-05 -3.54924e-05 0.101036)
(3.96226e-07 2.29784e-07 0.101039)
(-3.97094e-07 2.35309e-07 0.101039)
(3.96617e-07 2.25606e-07 0.101039)
(-3.9771e-07 2.35083e-07 0.101039)
(-3.43743e-05 3.4347e-05 0.101036)
(3.55169e-05 -3.54934e-05 0.101036)
(2.23815e-07 3.89939e-07 0.101039)
(2.28216e-07 -3.97174e-07 0.101039)
(2.22179e-07 3.8871e-07 0.101039)
(2.28734e-07 -3.97473e-07 0.101039)
(-2.37289e-07 -3.91057e-07 0.101039)
(-2.23749e-07 3.8716e-07 0.101039)
(-2.36461e-07 -3.90948e-07 0.101039)
(3.43518e-05 -3.43853e-05 0.101036)
(-3.54892e-05 3.55206e-05 0.101036)
(-3.85448e-07 -2.33908e-07 0.101039)
(3.88355e-07 -2.18565e-07 0.101039)
(-3.85362e-07 -2.33451e-07 0.101039)
(3.54928e-05 3.5516e-05 0.101036)
(3.43749e-05 3.43566e-05 0.101036)
(-3.5515e-05 -3.54913e-05 0.101036)
(3.97064e-07 2.30625e-07 0.101039)
(-3.9741e-07 2.36128e-07 0.101039)
(3.98039e-07 2.27195e-07 0.101039)
(-3.98545e-07 2.36261e-07 0.101039)
(-3.43751e-05 3.43477e-05 0.101036)
(3.5516e-05 -3.54928e-05 0.101036)
(2.2467e-07 3.90557e-07 0.101039)
(2.29411e-07 -3.97746e-07 0.101039)
(2.23358e-07 3.89833e-07 0.101039)
(2.29497e-07 -3.98144e-07 0.101039)
(-2.37853e-07 -3.91706e-07 0.101039)
(-2.2463e-07 3.87989e-07 0.101039)
(-2.37146e-07 -3.91484e-07 0.101039)
(3.43525e-05 -3.43861e-05 0.101036)
(-3.54886e-05 3.55201e-05 0.101036)
(-3.85838e-07 -2.34588e-07 0.101039)
(3.89138e-07 -2.19196e-07 0.101039)
(-3.85652e-07 -2.33717e-07 0.101039)
(3.54927e-05 3.55158e-05 0.101036)
(3.4376e-05 3.43576e-05 0.101036)
(-3.55151e-05 -3.54923e-05 0.101036)
(3.98369e-07 2.31938e-07 0.101039)
(-3.98632e-07 2.37509e-07 0.101039)
(3.98128e-07 2.2645e-07 0.101039)
(-3.97938e-07 2.3594e-07 0.101039)
(-3.43761e-05 3.43484e-05 0.101036)
(3.55168e-05 -3.54934e-05 0.101036)
(2.2585e-07 3.91627e-07 0.101039)
(2.30215e-07 -3.9864e-07 0.101039)
(2.23666e-07 3.89144e-07 0.101039)
(2.29656e-07 -3.98257e-07 0.101039)
(-2.38593e-07 -3.92136e-07 0.101039)
(-2.24813e-07 3.87463e-07 0.101039)
(-2.36858e-07 -3.91679e-07 0.101039)
(3.4353e-05 -3.43865e-05 0.101036)
(-3.54883e-05 3.55199e-05 0.101036)
(-3.862e-07 -2.35423e-07 0.101039)
(3.89394e-07 -2.19255e-07 0.101039)
(-3.85031e-07 -2.34164e-07 0.101039)
(3.54931e-05 3.55153e-05 0.101036)
(3.43761e-05 3.43565e-05 0.101036)
(-3.55101e-05 -3.54909e-05 0.101036)
(3.97924e-07 2.30308e-07 0.101039)
(-3.97348e-07 2.36442e-07 0.101039)
(4.00153e-07 2.24355e-07 0.101039)
(-3.9359e-07 2.33824e-07 0.101039)
(-3.43755e-05 3.43482e-05 0.101036)
(3.55156e-05 -3.54913e-05 0.101036)
(2.25192e-07 3.89889e-07 0.101039)
(2.29948e-07 -3.98108e-07 0.101039)
(2.24267e-07 3.86917e-07 0.101039)
(2.29253e-07 -3.97342e-07 0.101039)
(-2.37795e-07 -3.92375e-07 0.101039)
(-2.21436e-07 3.84054e-07 0.101039)
(-2.35113e-07 -3.93225e-07 0.101039)
(3.43531e-05 -3.43863e-05 0.101036)
(-3.54861e-05 3.55197e-05 0.101036)
(-3.85204e-07 -2.35246e-07 0.101039)
(3.90079e-07 -2.18491e-07 0.101039)
(-3.83646e-07 -2.347e-07 0.101039)
(3.54916e-05 3.55112e-05 0.101036)
(3.43728e-05 3.43484e-05 0.101036)
(-3.55096e-05 -3.55044e-05 0.101036)
(3.99433e-07 2.24812e-07 0.101039)
(-3.92681e-07 2.32146e-07 0.101039)
(3.8784e-07 1.91347e-07 0.101039)
(-3.4367e-05 3.43406e-05 0.101036)
(2.2612e-07 3.86215e-07 0.101039)
(2.31059e-07 -3.98202e-07 0.101039)
(2.11511e-07 3.6862e-07 0.101039)
(2.21891e-07 -3.8947e-07 0.101039)
(-2.32179e-07 -3.9163e-07 0.101039)
(-2.03292e-07 -3.75654e-07 0.101039)
(3.435e-05 -3.43809e-05 0.101036)
(-3.54813e-05 3.5523e-05 0.101036)
(-3.80589e-07 -2.32738e-07 0.101039)
(3.86726e-07 -1.94955e-07 0.101039)
(-3.62092e-07 -2.05398e-07 0.101039)
(3.54996e-05 3.55169e-05 0.101036)
(3.43391e-05 3.43118e-05 0.101036)
(1.98434e-07 3.64178e-07 0.101039)
(2.0182e-07 -3.77443e-07 0.101039)
(3.43211e-05 -3.43469e-05 0.101036)
(-3.58517e-07 -3.55631e-07 0.10104)
(3.62983e-07 -3.50897e-07 0.10104)
(-3.63473e-07 3.73268e-07 0.10104)
(3.76702e-07 3.63757e-07 0.10104)
(-3.05407e-08 -5.66014e-06 0.100656)
(7.18185e-07 4.33987e-06 0.0981891)
(-8.04467e-09 5.45336e-06 0.100656)
(-7.03607e-07 -4.88277e-06 0.0981911)
(-9.06313e-07 9.02372e-07 0.0919545)
(1.1723e-06 -1.60174e-06 0.0919581)
(-5.69709e-06 -1.80716e-09 0.100656)
(4.3084e-06 7.04412e-07 0.0981888)
(5.47271e-06 1.60036e-08 0.100656)
(-4.85658e-06 -6.96455e-07 0.0981909)
(3.73772e-07 -3.62933e-07 0.10104)
(-3.71103e-07 3.79571e-07 0.10104)
(3.83785e-07 3.69885e-07 0.10104)
(-3.40287e-07 -3.67864e-07 0.10104)
(3.35562e-07 -3.66775e-07 0.10104)
(-3.01465e-07 2.79034e-07 0.10104)
(3.09069e-07 2.71315e-07 0.10104)
(1.01623e-05 -7.19093e-08 0.100985)
(-8.503e-06 2.49426e-06 0.100739)
(-1.81561e-07 -1.32028e-07 0.10104)
(-1.37991e-07 3.23912e-07 0.101039)
(-9.83773e-06 3.44618e-08 0.100985)
(8.52808e-06 -2.90336e-06 0.10074)
(-1.65646e-07 -1.52662e-07 0.10104)
(8.29974e-07 -9.0552e-07 0.0919547)
(-1.8514e-06 1.36432e-06 0.0919587)
(-6.37193e-08 1.01571e-05 0.100985)
(-1.40083e-07 -1.71062e-07 0.10104)
(2.48422e-06 -8.50512e-06 0.100738)
(3.44856e-07 -1.51303e-07 0.101039)
(2.27382e-08 -9.8298e-06 0.100985)
(-1.4844e-07 -1.81728e-07 0.10104)
(-3.00754e-06 8.62202e-06 0.100739)
(-2.85735e-06 -3.16911e-06 0.100241)
(-3.15961e-06 -2.85306e-06 0.100241)
(3.55619e-05 3.55755e-05 0.101036)
(2.63445e-06 3.33043e-06 0.100242)
(3.33371e-06 2.62512e-06 0.100242)
(2.75906e-08 -5.47503e-06 0.100656)
(6.9473e-07 4.65472e-06 0.09819)
(1.56003e-08 5.48699e-06 0.100655)
(-8.97751e-07 -3.75584e-06 0.0981913)
(-1.20108e-06 1.30953e-06 0.0919606)
(4.4556e-07 -1.92212e-07 0.0919584)
(-5.52256e-06 1.33004e-07 0.100656)
(4.6611e-06 6.22778e-07 0.0981897)
(5.57434e-06 -2.56063e-07 0.100655)
(-3.73227e-06 -8.63386e-07 0.0981911)
(2.9975e-07 -3.10022e-07 0.10104)
(-2.80034e-07 2.6794e-07 0.10104)
(2.90367e-07 2.59679e-07 0.10104)
(-3.06293e-07 -3.00467e-07 0.10104)
(3.10443e-07 -2.95828e-07 0.10104)
(-3.123e-07 3.24951e-07 0.10104)
(3.26352e-07 3.14866e-07 0.10104)
(9.7095e-06 -9.27477e-10 0.100985)
(-8.76279e-06 2.61675e-06 0.100738)
(-3.78106e-07 -1.34673e-07 0.10104)
(-2.98672e-07 4.34999e-07 0.101039)
(-1.03225e-05 -8.65254e-09 0.100984)
(8.11024e-06 -2.34651e-06 0.10074)
(-3.72329e-07 -9.58203e-08 0.10104)
(2.33169e-06 -1.74557e-06 0.0919569)
(-7.50755e-07 8.04974e-07 0.0919557)
(-2.10407e-08 9.71996e-06 0.100985)
(-9.89908e-08 -3.85412e-07 0.10104)
(2.99725e-06 -8.95e-06 0.100738)
(4.18231e-07 -2.79735e-07 0.101039)
(5.96202e-08 -1.03475e-05 0.100984)
(-1.02075e-07 -3.69516e-07 0.10104)
(-2.5327e-06 8.2298e-06 0.10074)
(-2.48849e-06 -3.46849e-06 0.10024)
(-3.4484e-06 -2.49274e-06 0.10024)
(3.54384e-05 3.54588e-05 0.101036)
(2.82122e-06 3.08329e-06 0.100243)
(3.08017e-06 2.81284e-06 0.100242)
(-8.53296e-09 -5.58574e-06 0.100657)
(6.5159e-07 4.73289e-06 0.0981888)
(1.08408e-08 5.53837e-06 0.100656)
(-7.61443e-07 -4.59491e-06 0.0981904)
(-1.10981e-06 1.32935e-06 0.0919536)
(1.0402e-06 -1.27767e-06 0.0919553)
(-5.62203e-06 -4.38996e-09 0.100657)
(4.6996e-06 6.4385e-07 0.0981885)
(5.55458e-06 4.72762e-08 0.100656)
(-4.57389e-06 -7.36275e-07 0.0981902)
(3.22248e-07 -3.07473e-07 0.10104)
(-3.19519e-07 3.32375e-07 0.10104)
(3.3411e-07 3.22172e-07 0.10104)
(-3.30036e-07 -3.27556e-07 0.10104)
(3.35218e-07 -3.22549e-07 0.10104)
(-3.26514e-07 3.39993e-07 0.10104)
(3.40207e-07 3.29236e-07 0.10104)
(9.94368e-06 -3.49257e-08 0.100985)
(-8.6772e-06 2.6818e-06 0.100739)
(-2.96828e-07 -1.04571e-07 0.10104)
(-2.28943e-07 4.00069e-07 0.101039)
(-1.00569e-05 5.94326e-08 0.100985)
(8.37185e-06 -2.73398e-06 0.10074)
(-2.8326e-07 -1.10883e-07 0.10104)
(1.23212e-06 -1.06272e-06 0.0919523)
(-1.23221e-06 1.02151e-06 0.091955)
(-4.02346e-08 9.94209e-06 0.100985)
(-1.16605e-07 -2.87033e-07 0.10104)
(2.66691e-06 -8.68484e-06 0.100739)
(3.93555e-07 -2.20621e-07 0.101039)
(3.81022e-08 -1.00452e-05 0.100985)
(-1.18788e-07 -2.7838e-07 0.10104)
(-2.76031e-06 8.40182e-06 0.10074)
(-2.75841e-06 -3.25196e-06 0.100241)
(-3.25195e-06 -2.74912e-06 0.100241)
(3.54872e-05 3.55155e-05 0.101036)
(2.67865e-06 3.17638e-06 0.100243)
(3.1653e-06 2.67769e-06 0.100242)
(-8.55489e-09 -5.59557e-06 0.100657)
(6.69629e-07 4.67966e-06 0.0981887)
(4.78821e-09 5.49972e-06 0.100656)
(-7.56761e-07 -4.59868e-06 0.0981904)
(-1.10757e-06 1.28056e-06 0.0919535)
(1.0364e-06 -1.28428e-06 0.0919553)
(-5.62724e-06 -1.09535e-08 0.100657)
(4.65321e-06 6.5206e-07 0.0981885)
(5.52968e-06 1.45247e-08 0.100656)
(-4.57619e-06 -7.3557e-07 0.0981902)
(3.35794e-07 -3.24153e-07 0.10104)
(-3.27458e-07 3.41137e-07 0.10104)
(3.40889e-07 3.30116e-07 0.10104)
(-3.31816e-07 -3.3004e-07 0.10104)
(3.3577e-07 -3.25164e-07 0.10104)
(-3.26447e-07 3.45523e-07 0.10104)
(3.39242e-07 3.34032e-07 0.10104)
(9.94978e-06 -4.02609e-08 0.100985)
(-8.64329e-06 2.64227e-06 0.100739)
(-2.75623e-07 -1.16738e-07 0.10104)
(-2.2214e-07 3.90684e-07 0.101039)
(-1.00301e-05 4.39134e-08 0.100985)
(8.3762e-06 -2.73988e-06 0.10074)
(-2.72749e-07 -1.17845e-07 0.10104)
(1.23135e-06 -1.075e-06 0.0919523)
(-1.23141e-06 1.0175e-06 0.0919549)
(-4.32138e-08 9.96415e-06 0.100985)
(-1.19748e-07 -2.67677e-07 0.10104)
(2.6567e-06 -8.66506e-06 0.100739)
(3.9098e-07 -2.09289e-07 0.101039)
(3.57011e-08 -1.0023e-05 0.100985)
(-1.20011e-07 -2.61794e-07 0.10104)
(-2.75219e-06 8.41288e-06 0.10074)
(-2.75311e-06 -3.25044e-06 0.100241)
(-3.25019e-06 -2.74242e-06 0.100241)
(3.54886e-05 3.55209e-05 0.101036)
(2.6805e-06 3.1769e-06 0.100243)
(3.16061e-06 2.68398e-06 0.100242)
(-8.03765e-09 -5.59618e-06 0.100657)
(6.68392e-07 4.67965e-06 0.0981887)
(5.33318e-09 5.49796e-06 0.100656)
(-7.56561e-07 -4.59815e-06 0.0981904)
(-1.10765e-06 1.27914e-06 0.0919535)
(1.03664e-06 -1.28439e-06 0.0919553)
(-5.62788e-06 -1.11237e-08 0.100657)
(4.65353e-06 6.50625e-07 0.0981885)
(5.52832e-06 1.40329e-08 0.100656)
(-4.57526e-06 -7.36391e-07 0.0981902)
(3.35287e-07 -3.25249e-07 0.10104)
(-3.25468e-07 3.45906e-07 0.10104)
(3.38531e-07 3.34923e-07 0.10104)
(-3.31534e-07 -3.31485e-07 0.10104)
(3.35371e-07 -3.26223e-07 0.10104)
(-3.27054e-07 3.41195e-07 0.10104)
(3.3996e-07 3.31928e-07 0.10104)
(9.94955e-06 -3.99799e-08 0.100985)
(-8.64228e-06 2.64055e-06 0.100739)
(-2.76965e-07 -1.1707e-07 0.10104)
(-2.2394e-07 3.911e-07 0.101039)
(-1.00288e-05 4.34186e-08 0.100985)
(8.37589e-06 -2.74002e-06 0.10074)
(-2.74838e-07 -1.17862e-07 0.10104)
(1.23194e-06 -1.07397e-06 0.0919523)
(-1.231e-06 1.01807e-06 0.0919549)
(-1.87863e-08 9.96138e-06 0.100985)
(-1.16897e-07 -2.50551e-07 0.10104)
(2.67584e-06 -8.64739e-06 0.100739)
(3.98125e-07 -2.10048e-07 0.101039)
(2.95405e-08 -9.98105e-06 0.100985)
(-1.16081e-07 -2.65295e-07 0.10104)
(-2.74866e-06 8.41313e-06 0.10074)
(-2.75361e-06 -3.24734e-06 0.100241)
(-3.26012e-06 -2.73133e-06 0.100241)
(3.54842e-05 3.55241e-05 0.101036)
(2.67973e-06 3.17825e-06 0.100243)
(3.15183e-06 2.6934e-06 0.100242)
(-8.14216e-09 -5.59736e-06 0.100657)
(6.68958e-07 4.6793e-06 0.0981887)
(5.12573e-09 5.49838e-06 0.100656)
(-7.5642e-07 -4.59921e-06 0.0981904)
(-1.10697e-06 1.27953e-06 0.0919535)
(1.03636e-06 -1.28489e-06 0.0919553)
(-5.62878e-06 -1.28641e-08 0.100657)
(4.65362e-06 6.49913e-07 0.0981884)
(5.52838e-06 1.23571e-08 0.100656)
(-4.57583e-06 -7.3749e-07 0.0981902)
(3.35203e-07 -3.27105e-07 0.10104)
(-3.28473e-07 3.39469e-07 0.10104)
(3.4178e-07 3.29604e-07 0.10104)
(-3.31452e-07 -3.33117e-07 0.10104)
(3.35206e-07 -3.27946e-07 0.10104)
(-3.28382e-07 3.35644e-07 0.10104)
(3.4178e-07 3.24785e-07 0.10104)
(9.95069e-06 -4.19843e-08 0.100985)
(-8.64331e-06 2.63995e-06 0.100739)
(-2.76582e-07 -1.19408e-07 0.10104)
(-2.2389e-07 3.8928e-07 0.101039)
(-1.003e-05 4.22238e-08 0.100985)
(8.37686e-06 -2.74136e-06 0.10074)
(-2.74172e-07 -1.20845e-07 0.10104)
(1.23047e-06 -1.07632e-06 0.0919523)
(-1.23317e-06 1.01478e-06 0.0919549)
(-3.81613e-08 9.95652e-06 0.100985)
(-1.17299e-07 -2.72672e-07 0.10104)
(2.65837e-06 -8.66344e-06 0.100739)
(3.90901e-07 -2.17443e-07 0.101039)
(3.60878e-08 -1.00257e-05 0.100985)
(-1.19348e-07 -2.71644e-07 0.10104)
(-2.75878e-06 8.40682e-06 0.10074)
(-2.75248e-06 -3.25035e-06 0.100241)
(-3.25048e-06 -2.7433e-06 0.100241)
(3.54908e-05 3.55167e-05 0.101036)
(2.6842e-06 3.17505e-06 0.100243)
(3.1649e-06 2.68149e-06 0.100242)
(-8.23604e-09 -5.59701e-06 0.100657)
(6.6983e-07 4.67985e-06 0.0981887)
(5.30265e-09 5.4989e-06 0.100656)
(-7.56443e-07 -4.5992e-06 0.0981904)
(-1.10859e-06 1.27857e-06 0.0919535)
(1.03558e-06 -1.28544e-06 0.0919553)
(-5.62776e-06 -1.41025e-08 0.100657)
(4.65386e-06 6.49857e-07 0.0981884)
(5.52911e-06 1.12449e-08 0.100656)
(-4.57535e-06 -7.37462e-07 0.0981902)
(3.34939e-07 -3.28189e-07 0.10104)
(-3.28626e-07 3.35181e-07 0.10104)
(3.42145e-07 3.24732e-07 0.10104)
(-3.31464e-07 -3.33464e-07 0.10104)
(3.35201e-07 -3.28418e-07 0.10104)
(-3.28422e-07 3.34946e-07 0.10104)
(3.41779e-07 3.24326e-07 0.10104)
(9.95045e-06 -4.35612e-08 0.100985)
(-8.64354e-06 2.63882e-06 0.100739)
(-2.76624e-07 -1.2116e-07 0.10104)
(-2.2445e-07 3.88773e-07 0.101039)
(-1.00299e-05 4.03267e-08 0.100985)
(8.37601e-06 -2.74246e-06 0.10074)
(-2.7421e-07 -1.21914e-07 0.10104)
(1.22945e-06 -1.07866e-06 0.0919523)
(-1.23354e-06 1.01343e-06 0.0919549)
(-4.11852e-08 9.94864e-06 0.100985)
(-1.20283e-07 -2.73024e-07 0.10104)
(2.65478e-06 -8.66805e-06 0.100739)
(3.90053e-07 -2.1939e-07 0.101039)
(3.47026e-08 -1.00235e-05 0.100985)
(-1.20704e-07 -2.74506e-07 0.10104)
(-2.76062e-06 8.40447e-06 0.10074)
(-2.75019e-06 -3.25271e-06 0.100241)
(-3.24753e-06 -2.74541e-06 0.100241)
(3.54912e-05 3.55147e-05 0.101036)
(2.68455e-06 3.17353e-06 0.100243)
(3.16762e-06 2.67939e-06 0.100242)
(-8.17067e-09 -5.59702e-06 0.100657)
(6.68877e-07 4.67922e-06 0.0981887)
(4.99809e-09 5.49832e-06 0.100656)
(-7.56348e-07 -4.59895e-06 0.0981904)
(-1.10726e-06 1.27955e-06 0.0919535)
(1.03638e-06 -1.28491e-06 0.0919553)
(-5.62845e-06 -1.45856e-08 0.100657)
(4.65411e-06 6.48663e-07 0.0981884)
(5.52833e-06 1.00975e-08 0.100656)
(-4.57498e-06 -7.38656e-07 0.0981902)
(3.34906e-07 -3.28623e-07 0.10104)
(-3.28852e-07 3.34756e-07 0.10104)
(3.42191e-07 3.24225e-07 0.10104)
(-3.32217e-07 -3.33997e-07 0.10104)
(3.3503e-07 -3.28889e-07 0.10104)
(-3.289e-07 3.34846e-07 0.10104)
(3.41638e-07 3.24311e-07 0.10104)
(9.94992e-06 -4.37808e-08 0.100985)
(-8.64434e-06 2.63828e-06 0.100739)
(-2.7653e-07 -1.21586e-07 0.10104)
(-2.24648e-07 3.88436e-07 0.101039)
(-1.00303e-05 3.95682e-08 0.100985)
(8.3757e-06 -2.74264e-06 0.10074)
(-2.7415e-07 -1.22191e-07 0.10104)
(1.22942e-06 -1.07905e-06 0.0919523)
(-1.23348e-06 1.0137e-06 0.0919549)
(-4.17592e-08 9.9445e-06 0.100985)
(-1.20751e-07 -2.72977e-07 0.10104)
(2.65492e-06 -8.66886e-06 0.100739)
(3.89166e-07 -2.19104e-07 0.101039)
(3.62969e-08 -1.00254e-05 0.100985)
(-1.21142e-07 -2.74096e-07 0.10104)
(-2.76031e-06 8.40408e-06 0.10074)
(-2.75117e-06 -3.25433e-06 0.100241)
(-3.24746e-06 -2.74571e-06 0.100241)
(3.54913e-05 3.55147e-05 0.101036)
(2.68406e-06 3.17274e-06 0.100243)
(3.16809e-06 2.67919e-06 0.100242)
(-7.94749e-09 -5.59686e-06 0.100657)
(6.69305e-07 4.67905e-06 0.0981887)
(5.34005e-09 5.49758e-06 0.100656)
(-7.56168e-07 -4.59931e-06 0.0981904)
(-1.10778e-06 1.27886e-06 0.0919535)
(1.03603e-06 -1.28499e-06 0.0919553)
(-5.62814e-06 -1.4316e-08 0.100657)
(4.65388e-06 6.4898e-07 0.0981884)
(5.52819e-06 1.04295e-08 0.100656)
(-4.57519e-06 -7.37614e-07 0.0981902)
(3.34871e-07 -3.29243e-07 0.10104)
(-3.29378e-07 3.34726e-07 0.10104)
(3.42288e-07 3.24306e-07 0.10104)
(-3.32333e-07 -3.34224e-07 0.10104)
(3.35312e-07 -3.29047e-07 0.10104)
(-3.28942e-07 3.34683e-07 0.10104)
(3.41931e-07 3.24274e-07 0.10104)
(9.95044e-06 -4.34011e-08 0.100985)
(-8.64314e-06 2.63844e-06 0.100739)
(-2.76616e-07 -1.21853e-07 0.10104)
(-2.2427e-07 3.87852e-07 0.101039)
(-1.00288e-05 3.99196e-08 0.100985)
(8.37606e-06 -2.7424e-06 0.10074)
(-2.73847e-07 -1.22415e-07 0.10104)
(1.22937e-06 -1.07863e-06 0.0919523)
(-1.23357e-06 1.01338e-06 0.0919549)
(-4.16679e-08 9.94328e-06 0.100985)
(-1.2096e-07 -2.73003e-07 0.10104)
(2.65477e-06 -8.66783e-06 0.100739)
(3.88919e-07 -2.18892e-07 0.101039)
(3.77513e-08 -1.00205e-05 0.100985)
(-1.21228e-07 -2.74064e-07 0.10104)
(-2.76045e-06 8.4045e-06 0.10074)
(-2.74958e-06 -3.25338e-06 0.100241)
(-3.24618e-06 -2.74459e-06 0.100241)
(3.54913e-05 3.55147e-05 0.101036)
(2.6849e-06 3.17308e-06 0.100243)
(3.16802e-06 2.68002e-06 0.100242)
(-8.07345e-09 -5.59673e-06 0.100657)
(6.70391e-07 4.67928e-06 0.0981887)
(5.30502e-09 5.49883e-06 0.100656)
(-7.56189e-07 -4.59913e-06 0.0981904)
(-1.10791e-06 1.2791e-06 0.0919535)
(1.03616e-06 -1.28509e-06 0.0919553)
(-5.62814e-06 -1.43253e-08 0.100657)
(4.65423e-06 6.49698e-07 0.0981884)
(5.52914e-06 1.04933e-08 0.100656)
(-4.57489e-06 -7.38052e-07 0.0981902)
(3.35278e-07 -3.2918e-07 0.10104)
(-3.29145e-07 3.34739e-07 0.10104)
(3.42712e-07 3.24466e-07 0.10104)
(-3.32335e-07 -3.34343e-07 0.10104)
(3.35933e-07 -3.29192e-07 0.10104)
(-3.28956e-07 3.35163e-07 0.10104)
(3.42585e-07 3.24868e-07 0.10104)
(9.95063e-06 -4.38733e-08 0.100985)
(-8.64424e-06 2.6386e-06 0.100739)
(-2.75016e-07 -1.21902e-07 0.10104)
(-2.23232e-07 3.87254e-07 0.101039)
(-1.003e-05 3.96918e-08 0.100985)
(8.37606e-06 -2.74255e-06 0.10074)
(-2.72639e-07 -1.22486e-07 0.10104)
(1.22949e-06 -1.07895e-06 0.0919523)
(-1.23367e-06 1.01356e-06 0.0919549)
(-4.27147e-08 9.9421e-06 0.100985)
(-1.20674e-07 -2.71817e-07 0.10104)
(2.65483e-06 -8.66878e-06 0.100739)