/*--------------------------------*- C++ -*----------------------------------*\
| =========                 |                                                 |
| \\      /  F ield         | OpenFOAM: The Open Source CFD Toolbox           |
|  \\    /   O peration     | Version:  2206                                  |
|   \\  /    A nd           | Website:  www.openfoam.com                      |
|    \\/     M anipulation  |                                                 |
\*---------------------------------------------------------------------------*/
FoamFile
{
    version     2.0;
    format      ascii;
    arch        "LSB;label=32;scalar=64";
    class       volScalarField;
    location    "10";
    object      nut;
}
// * * * * * * * * * * * * * * * * * * * * * * * * * * * * * * * * * * * * * //

dimensions      [0 2 -1 0 0 0 0];

internalField   nonuniform List<scalar> 
28897
(
0.000231899
0.000227427
0.000227423
0.000220667
0.000231895
0.000227422
0.000227418
0.000220659
0.000231878
0.00022738
0.000227379
0.000220575
0.000231888
0.000227388
0.000227387
0.000220596
0.000231888
0.000227389
0.000227387
0.000220594
0.000231889
0.000227389
0.000227388
0.000220593
0.000231889
0.000227389
0.000227388
0.000220593
0.000231889
0.000227389
0.000227388
0.000220593
0.000231889
0.000227389
0.000227388
0.000220593
0.000231889
0.000227389
0.000227388
0.000220593
0.000231889
0.000227389
0.000227387
0.000220593
0.000231889
0.000227389
0.000227387
0.000220593
0.000231888
0.000227389
0.000227387
0.000220593
0.000231889
0.000227389
0.000227387
0.000220593
0.000231888
0.000227389
0.000227387
0.000220593
0.000231889
0.000227389
0.000227388
0.000220593
0.000231889
0.000227389
0.000227387
0.000220593
0.000231889
0.00022739
0.000227388
0.000220593
0.00022073
0.000227421
0.000227421
0.000220739
0.000227424
0.000227418
0.000227427
0.000227422
0.000220727
0.000227423
0.000227423
0.000220729
0.000220668
0.000220723
0.000227421
0.000227422
0.000227419
0.00022742
0.000220678
0.000220725
0.000227424
0.000227419
0.000227422
0.000227417
0.000227422
0.000227424
0.00022742
0.000220667
0.000220719
0.000227424
0.000227421
0.000227421
0.000220723
0.000220661
0.000220641
0.000227416
0.000227417
0.000227376
0.00022738
0.000220665
0.000220664
0.000227419
0.000227414
0.000227379
0.000227373
0.000227417
0.000227385
0.000227379
0.000220658
0.000220639
0.000227419
0.000227378
0.000227378
0.000220642
0.000220576
0.000220661
0.000227377
0.000227379
0.000227385
0.000227384
0.000220577
0.000220662
0.00022738
0.000227374
0.000227387
0.000227382
0.000227378
0.000227388
0.000227384
0.000220574
0.000220658
0.00022738
0.000227387
0.000227387
0.000220658
0.0002206
0.000220655
0.000227385
0.000227385
0.000227385
0.000227385
0.000220603
0.000220656
0.000227388
0.000227382
0.000227388
0.000227382
0.000227385
0.000227389
0.000227385
0.000220598
0.000220653
0.000227387
0.000227387
0.000227387
0.000220655
0.000220596
0.000220656
0.000227386
0.000227385
0.000227385
0.000227385
0.000220597
0.000220657
0.000227388
0.000227383
0.000227388
0.000227382
0.000227385
0.00022739
0.000227385
0.000220594
0.000220653
0.000227388
0.000227388
0.000227387
0.000220655
0.000220595
0.000220656
0.000227386
0.000227385
0.000227385
0.000227385
0.000220597
0.000220658
0.000227388
0.000227383
0.000227388
0.000227382
0.000227385
0.00022739
0.000227385
0.000220594
0.000220654
0.000227388
0.000227388
0.000227387
0.000220655
0.000220596
0.000220656
0.000227386
0.000227385
0.000227385
0.000227385
0.000220598
0.000220658
0.000227388
0.000227383
0.000227388
0.000227382
0.000227385
0.000227389
0.000227385
0.000220594
0.000220654
0.000227388
0.000227388
0.000227387
0.000220655
0.000220596
0.000220656
0.000227386
0.000227385
0.000227385
0.000227385
0.000220598
0.000220658
0.000227388
0.000227383
0.000227388
0.000227382
0.000227385
0.00022739
0.000227385
0.000220594
0.000220654
0.000227388
0.000227388
0.000227387
0.000220655
0.000220596
0.000220656
0.000227386
0.000227385
0.000227385
0.000227385
0.000220598
0.000220658
0.000227388
0.000227383
0.000227388
0.000227382
0.000227385
0.00022739
0.000227385
0.000220594
0.000220654
0.000227388
0.000227388
0.000227387
0.000220655
0.000220596
0.000220656
0.000227386
0.000227385
0.000227385
0.000227385
0.000220598
0.000220658
0.000227388
0.000227383
0.000227388
0.000227382
0.000227385
0.00022739
0.000227385
0.000220594
0.000220654
0.000227388
0.000227388
0.000227387
0.000220655
0.000220596
0.000220656
0.000227386
0.000227385
0.000227385
0.000227385
0.000220597
0.000220657
0.000227388
0.000227383
0.000227388
0.000227382
0.000227385
0.00022739
0.000227385
0.000220594
0.000220654
0.000227388
0.000227388
0.000227387
0.000220655
0.000220596
0.000220656
0.000227386
0.000227385
0.000227385
0.000227385
0.000220597
0.000220658
0.000227388
0.000227383
0.000227388
0.000227382
0.000227385
0.00022739
0.000227385
0.000220594
0.000220654
0.000227388
0.000227388
0.000227387
0.000220655
0.000220596
0.000220657
0.000227386
0.000227385
0.000227385
0.000227385
0.000220598
0.000220658
0.000227388
0.000227383
0.000227388
0.000227382
0.000227385
0.00022739
0.000227385
0.000220594
0.000220653
0.000227388
0.000227388
0.000227387
0.000220655
0.000220596
0.000220657
0.000227386
0.000227385
0.000227385
0.000227385
0.000220598
0.000220658
0.000227388
0.000227383
0.000227388
0.000227382
0.000227385
0.00022739
0.000227385
0.000220594
0.000220654
0.000227388
0.000227388
0.000227387
0.000220655
0.000220596
0.000220657
0.000227386
0.000227385
0.000227385
0.000227385
0.000220598
0.000220658
0.000227388
0.000227383
0.000227388
0.000227382
0.000227385
0.00022739
0.000227385
0.000220594
0.000220654
0.000227388
0.000227388
0.000227387
0.000220655
0.000220596
0.000220657
0.000227386
0.000227385
0.000227385
0.000227385
0.000220598
0.000220658
0.000227388
0.000227383
0.000227388
0.000227382
0.000227385
0.00022739
0.000227385
0.000220594
0.000220654
0.000227388
0.000227388
0.000227387
0.000220655
0.000220596
0.000220657
0.000227386
0.000227385
0.000227385
0.000227385
0.000220598
0.000220658
0.000227388
0.000227383
0.000227388
0.000227382
0.000227385
0.000227389
0.000227385
0.000220594
0.000220654
0.000227388
0.000227387
0.000227387
0.000220655
0.000220597
0.000227386
0.000227386
0.000220598
0.000227389
0.000227383
0.000227386
0.000220594
0.000227388
0.000231899
0.000231899
0.000231898
0.000231898
7.45406e-05
4.54478e-05
7.45241e-05
4.54469e-05
2.56909e-05
2.56898e-05
7.45494e-05
4.54457e-05
7.4534e-05
4.54447e-05
0.000231899
0.000231898
0.000231898
0.000231897
0.000231897
0.000231897
0.000231897
0.000166457
8.84937e-05
0.000230845
0.000227427
0.000166429
8.85256e-05
0.000230843
2.56879e-05
2.56869e-05
0.000166456
0.000230844
8.84976e-05
0.000227422
0.000166428
0.000230844
8.85257e-05
4.7394e-05
4.73828e-05
0.000220727
4.74036e-05
4.73927e-05
7.45164e-05
4.54476e-05
7.45273e-05
4.54493e-05
2.56892e-05
2.56892e-05
7.45242e-05
4.54455e-05
7.45379e-05
4.54472e-05
0.000231895
0.000231894
0.000231894
0.000231872
0.000231874
0.000231872
0.000231872
0.000166437
8.85062e-05
0.000230841
0.000227418
0.000166426
8.85192e-05
0.000230836
2.5687e-05
2.56887e-05
0.000166426
0.00023084
8.85033e-05
0.00022741
0.000166427
0.000230832
8.84987e-05
4.74051e-05
4.7393e-05
0.000220704
4.73996e-05
4.73822e-05
7.44276e-05
4.5463e-05
7.44241e-05
4.54621e-05
2.56973e-05
2.56974e-05
7.44372e-05
4.54608e-05
7.44331e-05
4.54599e-05
0.000231878
0.000231878
0.000231878
0.000231888
0.000231888
0.000231888
0.000231888
0.000166287
8.84195e-05
0.000230817
0.000227381
0.000166277
8.84095e-05
0.000230821
2.56953e-05
2.56949e-05
0.000166288
0.000230816
8.83963e-05
0.000227383
0.000166267
0.000230822
8.84079e-05
4.73358e-05
4.73183e-05
0.000220653
4.73273e-05
4.73179e-05
7.44274e-05
4.54626e-05
7.44142e-05
4.54618e-05
2.56976e-05
2.56973e-05
7.4437e-05
4.54604e-05
7.44252e-05
4.54596e-05
0.000231889
0.000231889
0.000231889
0.000231888
0.000231888
0.000231888
0.000231888
0.000166287
8.83791e-05
0.000230827
0.000227389
0.00016626
8.84027e-05
0.000230828
2.56951e-05
2.56948e-05
0.00016629
0.000230827
8.8384e-05
0.000227388
0.000166263
0.000230827
8.84064e-05
4.73226e-05
4.73133e-05
0.000220653
4.73278e-05
4.73183e-05
7.44274e-05
4.54625e-05
7.44142e-05
4.54618e-05
2.56976e-05
2.56973e-05
7.44371e-05
4.54603e-05
7.44254e-05
4.54596e-05
0.000231889
0.000231888
0.000231888
0.000231889
0.000231889
0.000231888
0.000231888
0.000166287
8.83789e-05
0.000230827
0.000227389
0.00016626
8.84027e-05
0.000230827
2.56951e-05
2.56947e-05
0.000166289
0.000230827
8.8384e-05
0.000227388
0.000166262
0.000230827
8.84063e-05
4.73228e-05
4.73133e-05
0.000220654
4.73279e-05
4.73183e-05
7.44274e-05
4.54625e-05
7.44143e-05
4.54618e-05
2.56976e-05
2.56973e-05
7.44371e-05
4.54603e-05
7.44254e-05
4.54596e-05
0.000231889
0.000231888
0.000231888
0.000231889
0.000231889
0.000231888
0.000231888
0.000166287
8.83789e-05
0.000230827
0.00022739
0.00016626
8.84027e-05
0.000230828
2.56951e-05
2.56947e-05
0.000166289
0.000230827
8.8384e-05
0.000227388
0.000166262
0.000230827
8.84063e-05
4.73228e-05
4.73133e-05
0.000220654
4.73279e-05
4.73183e-05
7.44274e-05
4.54625e-05
7.44142e-05
4.54618e-05
2.56976e-05
2.56973e-05
7.44371e-05
4.54603e-05
7.44254e-05
4.54596e-05
0.000231889
0.000231888
0.000231888
0.000231889
0.000231889
0.000231888
0.000231888
0.000166287
8.83789e-05
0.000230827
0.000227389
0.00016626
8.84027e-05
0.000230827
2.56951e-05
2.56947e-05
0.000166289
0.000230827
8.8384e-05
0.000227388
0.000166263
0.000230827
8.84063e-05
4.73228e-05
4.73133e-05
0.000220654
4.73279e-05
4.73182e-05
7.44274e-05
4.54625e-05
7.44143e-05
4.54618e-05
2.56976e-05
2.56973e-05
7.44371e-05
4.54603e-05
7.44254e-05
4.54596e-05
0.000231889
0.000231888
0.000231888
0.000231889
0.000231889
0.000231888
0.000231888
0.000166287
8.83789e-05
0.000230827
0.000227389
0.00016626
8.84027e-05
0.000230828
2.56951e-05
2.56947e-05
0.000166289
0.000230827
8.8384e-05
0.000227388
0.000166263
0.000230827
8.84063e-05
4.73228e-05
4.73133e-05
0.000220654
4.73279e-05
4.73183e-05
7.44274e-05
4.54625e-05
7.44143e-05
4.54618e-05
2.56976e-05
2.56973e-05
7.44371e-05
4.54603e-05
7.44254e-05
4.54596e-05
0.000231889
0.000231888
0.000231888
0.000231889
0.000231889
0.000231888
0.000231888
0.000166287
8.83789e-05
0.000230827
0.000227389
0.00016626
8.84027e-05
0.000230827
2.56951e-05
2.56947e-05
0.000166289
0.000230827
8.8384e-05
0.000227388
0.000166263
0.000230827
8.84063e-05
4.73228e-05
4.73134e-05
0.000220654
4.73279e-05
4.73183e-05
7.44274e-05
4.54625e-05
7.44143e-05
4.54618e-05
2.56976e-05
2.56973e-05
7.44371e-05
4.54603e-05
7.44254e-05
4.54596e-05
0.000231889
0.000231888
0.000231888
0.000231889
0.000231889
0.000231888
0.000231888
0.000166287
8.83789e-05
0.000230827
0.000227389
0.00016626
8.84027e-05
0.000230828
2.56951e-05
2.56947e-05
0.000166289
0.000230827
8.83839e-05
0.000227388
0.000166263
0.000230827
8.84065e-05
4.73228e-05
4.73134e-05
0.000220654
4.73279e-05
4.73183e-05
7.44274e-05
4.54629e-05
7.44143e-05
4.54624e-05
2.56973e-05
2.5697e-05
7.44371e-05
4.546e-05
7.44254e-05
4.54591e-05
0.000231889
0.000231888
0.000231888
0.000231889
0.000231889
0.000231888
0.000231888
0.000166287
8.83789e-05
0.000230827
0.000227389
0.00016626
8.84027e-05
0.000230828
2.56951e-05
2.56947e-05
0.000166289
0.000230827
8.8384e-05
0.000227388
0.000166262
0.000230827
8.84066e-05
4.73228e-05
4.73134e-05
0.000220654
4.73279e-05
4.73183e-05
7.44274e-05
4.54635e-05
7.44143e-05
4.54627e-05
2.56972e-05
2.56968e-05
7.44371e-05
4.54595e-05
7.44254e-05
4.54588e-05
0.000231889
0.000231888
0.000231889
0.000231888
0.000231889
0.000231888
0.000231888
0.000166287
8.83789e-05
0.000230827
0.00022739
0.00016626
8.84027e-05
0.000230827
2.56951e-05
2.56947e-05
0.000166289
0.000230827
8.8384e-05
0.000227388
0.000166261
0.000230827
8.84066e-05
4.73228e-05
4.73134e-05
0.000220654
4.73279e-05
4.73183e-05
7.44274e-05
4.54635e-05
7.44143e-05
4.54627e-05
2.56971e-05
2.56968e-05
7.44372e-05
4.54596e-05
7.44254e-05
4.54589e-05
0.000231889
0.000231888
0.000231888
0.000231889
0.000231889
0.000231888
0.000231888
0.000166287
8.83789e-05
0.000230827
0.00022739
0.00016626
8.84027e-05
0.000230827
2.56951e-05
2.56947e-05
0.000166288
0.000230827
8.83841e-05
0.000227388
0.00016626
0.000230827
8.84067e-05
4.73228e-05
4.73134e-05
0.000220654
4.73279e-05
4.73183e-05
7.44274e-05
4.54635e-05
7.44143e-05
4.54627e-05
2.56971e-05
2.56968e-05
7.44372e-05
4.54597e-05
7.44255e-05
4.54589e-05
0.000231889
0.000231888
0.000231888
0.000231889
0.000231889
0.000231888
0.000231888
0.000166287
8.83789e-05
0.000230827
0.00022739
0.00016626
8.84027e-05
0.000230828
2.56951e-05
2.56947e-05
0.000166288
0.000230827
8.83841e-05
0.000227388
0.00016626
0.000230827
8.84067e-05
4.73228e-05
4.73134e-05
0.000220654
4.73278e-05
4.73183e-05
7.44274e-05
4.54635e-05
7.44143e-05
4.54627e-05
2.56971e-05
2.56968e-05
7.44372e-05
4.54597e-05
7.44255e-05
4.54589e-05
0.000231889
0.000231888
0.000231888
0.000231889
0.000231889
0.000231888
0.000231888
0.000166287
8.83789e-05
0.000230827
0.00022739
0.00016626
8.84027e-05
0.000230827
2.56951e-05
2.56947e-05
0.000166287
0.000230827
8.83841e-05
0.000227388
0.00016626
0.000230827
8.84067e-05
4.73228e-05
4.73134e-05
0.000220654
4.73279e-05
4.73183e-05
7.44274e-05
4.54635e-05
7.44143e-05
4.54627e-05
2.56971e-05
2.56968e-05
7.44372e-05
4.54597e-05
7.44255e-05
4.54589e-05
0.000231889
0.000231888
0.000231888
0.000231889
0.000231889
0.000231888
0.000231888
0.000166287
8.83789e-05
0.000230827
0.00022739
0.00016626
8.84027e-05
0.000230828
2.56951e-05
2.56947e-05
0.000166288
0.000230827
8.83841e-05
0.000227388
0.00016626
0.000230827
8.84067e-05
4.73228e-05
4.73133e-05
0.000220654
4.73278e-05
4.73183e-05
7.44274e-05
4.54635e-05
7.44143e-05
4.54627e-05
2.56971e-05
2.56968e-05
7.44372e-05
4.54597e-05
7.44255e-05
4.54589e-05
0.000231889
0.000231888
0.000231889
0.000231889
0.000231889
0.000231888
0.000231888
0.000166287
8.83789e-05
0.000230827
0.00022739
0.00016626
8.84027e-05
0.000230827
2.56951e-05
2.56947e-05
0.000166287
0.000230827
8.83841e-05
0.000227388
0.000166259
0.000230827
8.84067e-05
4.73228e-05
4.73133e-05
0.000220654
4.73278e-05
4.73182e-05
4.54635e-05
7.44143e-05
2.56971e-05
4.54597e-05
7.44254e-05
0.000231889
0.000231889
0.000231889
8.83788e-05
0.000230828
0.00016626
2.56951e-05
0.000230828
8.8384e-05
0.000166259
4.73227e-05
4.73132e-05
2.56904e-05
2.56923e-05
2.56895e-05
2.5691e-05
0.00022068
4.73854e-05
4.73858e-05
4.73737e-05
4.73766e-05
7.45094e-05
4.54473e-05
4.5448e-05
7.45356e-05
7.45099e-05
4.54483e-05
4.5449e-05
7.45359e-05
0.000166393
0.000227421
8.85119e-05
0.000230844
8.8455e-05
0.000230845
0.000166452
0.000166394
0.000227421
8.85153e-05
0.000230844
8.84615e-05
0.000230845
0.000166454
2.5691e-05
4.73882e-05
4.73828e-05
2.56913e-05
7.45202e-05
4.54451e-05
4.54458e-05
7.45437e-05
0.000166397
0.000227424
8.85111e-05
0.000230845
8.84571e-05
0.000230845
0.000166456
7.45174e-05
4.54427e-05
4.54436e-05
7.45408e-05
0.000166394
0.000227418
0.000230844
8.84972e-05
0.000230844
8.84407e-05
0.000166453
8.85117e-05
0.000230845
0.000230846
0.000166454
4.54467e-05
7.45404e-05
0.000227422
0.000230845
8.85274e-05
0.000230845
0.000166455
4.54447e-05
7.454e-05
2.56879e-05
2.56898e-05
0.000220678
4.73732e-05
4.7394e-05
4.73618e-05
4.73844e-05
2.56903e-05
2.56918e-05
0.000166396
0.000227424
0.000230845
8.85168e-05
0.000230845
8.84634e-05
0.000166452
0.000166394
0.000227423
0.000230845
8.85102e-05
0.000230845
8.84559e-05
0.000166454
7.45185e-05
4.5445e-05
4.54459e-05
7.45419e-05
7.45189e-05
4.54446e-05
4.54454e-05
7.45428e-05
0.000220678
4.73965e-05
4.73846e-05
4.73754e-05
2.56903e-05
2.56893e-05
2.56909e-05
2.56904e-05
2.56895e-05
2.56894e-05
2.56886e-05
4.73847e-05
4.73866e-05
0.000220727
4.73927e-05
4.73939e-05
2.56891e-05
2.56896e-05
2.56882e-05
2.56886e-05
0.00022067
4.73982e-05
4.73997e-05
4.73908e-05
4.73941e-05
7.45411e-05
4.54483e-05
7.45294e-05
4.54479e-05
0.000166454
8.84963e-05
0.000230845
0.000227421
0.000166435
8.85199e-05
0.000230844
0.000166457
8.85016e-05
0.000230845
0.000227421
0.000166436
8.8524e-05
0.000230844
7.45333e-05
4.54469e-05
4.54469e-05
7.45423e-05
7.45338e-05
4.54478e-05
4.54479e-05
7.45427e-05
0.00016643
0.000227421
8.85223e-05
0.000230842
8.85031e-05
0.000230843
0.000166451
0.000166432
0.000227421
8.85273e-05
0.000230842
8.85089e-05
0.000230844
0.000166451
4.73877e-05
4.73825e-05
0.000220731
4.73958e-05
4.73911e-05
2.56912e-05
2.569e-05
2.5689e-05
2.56897e-05
0.000220671
4.74027e-05
4.73974e-05
4.7396e-05
4.739e-05
2.56893e-05
2.569e-05
0.000166457
8.84969e-05
0.000230845
0.000227424
0.000166438
8.85196e-05
0.000230845
7.45467e-05
4.54428e-05
7.45361e-05
4.54424e-05
0.000166456
0.000230844
8.84819e-05
0.000227418
0.000166435
0.000230844
8.85056e-05
7.45438e-05
4.54447e-05
4.54448e-05
7.45513e-05
0.000166433
0.000227423
8.85223e-05
0.000230843
8.85042e-05
0.000230844
0.000166453
7.45411e-05
4.54424e-05
4.54425e-05
7.45487e-05
0.000166431
0.000227418
0.000230842
8.85074e-05
0.000230843
8.84886e-05
0.00016645
7.4544e-05
4.54469e-05
7.45333e-05
4.54463e-05
0.000166457
0.000230845
8.85116e-05
0.000227422
0.000166436
0.000230844
8.85316e-05
7.45436e-05
4.54447e-05
7.45329e-05
4.54445e-05
0.000166438
0.000227426
8.85296e-05
0.000230842
8.85092e-05
0.000230843
0.000166454
7.45365e-05
4.54461e-05
4.54463e-05
7.45453e-05
0.000166435
0.000227422
0.000230843
8.85323e-05
0.000230843
8.85152e-05
0.000166452
7.4536e-05
4.54445e-05
4.54445e-05
7.45447e-05
4.73726e-05
4.73946e-05
0.000220721
4.73805e-05
4.7402e-05
2.56902e-05
2.56894e-05
2.56866e-05
2.5687e-05
0.000220663
4.73858e-05
4.74079e-05
4.73789e-05
4.7402e-05
2.5689e-05
2.56894e-05
0.000166459
0.000230845
8.8496e-05
0.000227423
0.000166436
0.000230844
8.85189e-05
7.45477e-05
4.5445e-05
7.45372e-05
4.54447e-05
7.45487e-05
4.54446e-05
7.45378e-05
4.54443e-05
0.000166438
0.000227422
0.000230843
8.8528e-05
0.000230844
8.85105e-05
0.000166456
0.000166437
0.000227423
0.000230843
8.85214e-05
0.000230844
8.8503e-05
0.000166456
7.45422e-05
4.54446e-05
4.54447e-05
7.45501e-05
7.45428e-05
4.54442e-05
4.54443e-05
7.45507e-05
2.56902e-05
2.56892e-05
2.56892e-05
2.56884e-05
0.000220668
4.74091e-05
4.73986e-05
4.74031e-05
4.73928e-05
2.56887e-05
2.56892e-05
2.5688e-05
2.56884e-05
2.56892e-05
2.5691e-05
2.56883e-05
2.56901e-05
4.73942e-05
4.73975e-05
0.000220701
4.73831e-05
4.73835e-05
2.56972e-05
2.5694e-05
2.56962e-05
2.5693e-05
0.000220618
4.73307e-05
4.73289e-05
4.73651e-05
4.73662e-05
7.45173e-05
4.54478e-05
7.45327e-05
4.54489e-05
0.000166422
8.85013e-05
0.00023084
0.000227407
0.000166424
8.8493e-05
0.000230832
0.000166423
8.85095e-05
0.00023084
0.000227411
0.000166424
8.8506e-05
0.000230833
7.44908e-05
4.54617e-05
4.54535e-05
7.44447e-05
7.44912e-05
4.54616e-05
4.54519e-05
7.44443e-05
0.000166367
0.000227385
8.84226e-05
0.000230812
8.84586e-05
0.000230815
0.000166303
0.000166368
0.000227393
8.84372e-05
0.000230812
8.84747e-05
0.000230815
0.000166304
4.74022e-05
4.73955e-05
0.000220714
4.73995e-05
4.73974e-05
2.56894e-05
2.56895e-05
2.56958e-05
2.56899e-05
0.000220646
4.73556e-05
4.73601e-05
4.73914e-05
4.73858e-05
2.56956e-05
2.56902e-05
0.000166423
8.85025e-05
0.000230841
0.00022741
0.000166427
8.84926e-05
0.000230832
7.45222e-05
4.54425e-05
7.45403e-05
4.54445e-05
0.000166421
0.00023084
8.84865e-05
0.000227404
0.000166423
0.000230832
8.84782e-05
7.44999e-05
4.54595e-05
4.54513e-05
7.44522e-05
0.000166369
0.000227388
8.84213e-05
0.000230812
8.84587e-05
0.000230815
0.000166303
7.44973e-05
4.5457e-05
4.54488e-05
7.44493e-05
0.000166366
0.000227382
0.000230811
8.84075e-05
0.000230814
8.84435e-05
0.000166301
7.45296e-05
4.54462e-05
7.45368e-05
4.54464e-05
0.000166435
0.000230841
8.85143e-05
0.000227409
0.000166427
0.000230834
8.85126e-05
7.45291e-05
4.54445e-05
7.45362e-05
4.54453e-05
0.000166398
0.000227404
8.84582e-05
0.000230815
8.84908e-05
0.000230821
0.000166329
7.45077e-05
4.54557e-05
4.54469e-05
7.446e-05
0.000166396
0.00022739
0.000230814
8.84427e-05
0.000230818
8.84814e-05
0.000166326
7.45071e-05
4.54576e-05
4.54471e-05
7.44594e-05
4.73816e-05
4.74053e-05
0.000220698
4.73702e-05
4.73918e-05
2.5689e-05
2.56909e-05
2.56949e-05
2.56916e-05
0.000220616
4.73167e-05
4.73368e-05
4.73522e-05
4.73741e-05
2.5697e-05
2.56937e-05
0.000166426
0.00023084
8.85016e-05
0.00022741
0.000166427
0.000230832
8.84921e-05
7.45235e-05
4.54447e-05
7.45417e-05
4.54467e-05
7.45242e-05
4.54443e-05
7.4542e-05
4.54461e-05
0.000166371
0.000227387
0.000230812
8.84269e-05
0.000230815
8.84649e-05
0.000166306
0.000166369
0.000227388
0.000230811
8.84206e-05
0.000230814
8.84578e-05
0.000166305
7.44986e-05
4.54592e-05
4.54509e-05
7.44505e-05
7.44991e-05
4.54587e-05
4.54503e-05
7.44511e-05
2.56886e-05
2.56893e-05
2.5688e-05
2.56898e-05
0.000220622
4.73488e-05
4.7328e-05
4.73867e-05
4.73649e-05
2.56962e-05
2.56909e-05
2.5696e-05
2.56926e-05
2.56976e-05
2.56973e-05
2.56965e-05
2.56963e-05
4.73204e-05
4.73216e-05
0.000220654
4.73146e-05
4.73193e-05
2.56972e-05
2.56974e-05
2.56963e-05
2.56963e-05
0.000220599
4.73155e-05
4.73194e-05
4.73105e-05
4.73177e-05
7.44281e-05
4.54634e-05
7.44277e-05
4.54631e-05
0.000166286
8.83942e-05
0.000230817
0.000227381
0.000166271
8.84012e-05
0.000230822
0.000166287
8.8408e-05
0.000230817
0.000227381
0.000166272
8.84077e-05
0.000230822
7.44192e-05
4.54619e-05
4.54621e-05
7.44274e-05
7.44196e-05
4.54629e-05
4.54632e-05
7.4428e-05
0.000166265
0.000227384
8.83994e-05
0.000230826
8.8382e-05
0.000230825
0.000166286
0.000166267
0.000227383
8.84042e-05
0.000230826
8.83894e-05
0.000230825
0.000166288
4.73405e-05
4.73422e-05
0.000220646
4.73208e-05
4.73174e-05
2.56974e-05
2.56977e-05
2.56974e-05
2.56974e-05
0.000220592
4.73205e-05
4.73155e-05
4.73184e-05
4.73124e-05
2.56976e-05
2.56978e-05
0.000166287
8.83947e-05
0.000230817
0.000227384
0.000166273
8.84022e-05
0.000230822
7.44342e-05
4.54581e-05
7.44338e-05
4.54576e-05
0.000166286
0.000230816
8.83792e-05
0.000227378
0.00016627
0.000230821
8.83865e-05
7.44303e-05
4.54598e-05
4.54599e-05
7.44369e-05
0.000166267
0.000227386
8.84006e-05
0.000230827
8.83844e-05
0.000230825
0.00016629
7.44274e-05
4.54574e-05
4.54577e-05
7.44341e-05
0.000166265
0.00022738
0.000230826
8.83848e-05
0.000230825
8.83673e-05
0.000166287
7.44277e-05
4.54603e-05
7.44378e-05
4.54618e-05
0.000166286
0.000230817
8.84111e-05
0.000227381
0.000166282
0.000230822
8.84092e-05
7.44274e-05
4.54601e-05
7.44373e-05
4.54601e-05
0.000166266
0.000227385
8.8403e-05
0.000230827
8.83882e-05
0.000230825
0.000166284
7.44188e-05
4.54615e-05
4.54618e-05
7.44269e-05
0.000166265
0.000227383
0.000230827
8.84054e-05
0.000230825
8.83902e-05
0.000166286
7.44184e-05
4.546e-05
4.54601e-05
7.44265e-05
4.73071e-05
4.73293e-05
0.000220651
4.7303e-05
4.7327e-05
2.56972e-05
2.56971e-05
2.56948e-05
2.56949e-05
0.000220596
4.73043e-05
4.73273e-05
4.72995e-05
4.73251e-05
2.5697e-05
2.56971e-05
0.000166288
0.000230817
8.83939e-05
0.000227383
0.000166272
0.000230822
8.84014e-05
7.44351e-05
4.54602e-05
7.44348e-05
4.54598e-05
7.4436e-05
4.54598e-05
7.44352e-05
4.54594e-05
0.000166268
0.000227386
0.000230827
8.84062e-05
0.000230826
8.83903e-05
0.000166288
0.000166266
0.000227386
0.000230827
8.83995e-05
0.000230825
8.83831e-05
0.00016629
7.44283e-05
4.54597e-05
4.54598e-05
7.44352e-05
7.44288e-05
4.54593e-05
4.54594e-05
7.4436e-05
2.5697e-05
2.5697e-05
2.56963e-05
2.56961e-05
0.000220597
4.73274e-05
4.7318e-05
4.73252e-05
4.7316e-05
2.56969e-05
2.5697e-05
2.56961e-05
2.56961e-05
2.56973e-05
2.56972e-05
2.56963e-05
2.56963e-05
4.73117e-05
4.73178e-05
0.000220656
4.7316e-05
4.73196e-05
2.56972e-05
2.56973e-05
2.56962e-05
2.56963e-05
0.000220597
4.73157e-05
4.73195e-05
4.73115e-05
4.7318e-05
7.44279e-05
4.54629e-05
7.44198e-05
4.54629e-05
0.000166288
8.83808e-05
0.000230827
0.000227385
0.000166266
8.83993e-05
0.000230827
0.000166289
8.83875e-05
0.000230827
0.000227385
0.000166268
8.84041e-05
0.000230827
7.44193e-05
4.54618e-05
4.54619e-05
7.44275e-05
7.44197e-05
4.54629e-05
4.54629e-05
7.4428e-05
0.000166267
0.000227386
8.83994e-05
0.000230827
8.83812e-05
0.000230827
0.000166286
0.000166268
0.000227385
8.8404e-05
0.000230827
8.83876e-05
0.000230827
0.000166287
4.73186e-05
4.73117e-05
0.000220659
4.7321e-05
4.7316e-05
2.56977e-05
2.56976e-05
2.56973e-05
2.56973e-05
0.0002206
4.7321e-05
4.73157e-05
4.73192e-05
4.73117e-05
2.56976e-05
2.56977e-05
0.000166291
8.83833e-05
0.000230827
0.000227388
0.00016627
8.84005e-05
0.000230827
7.44341e-05
4.54575e-05
7.44275e-05
4.54573e-05
0.000166288
0.000230827
8.83665e-05
0.000227382
0.000166267
0.000230827
8.83848e-05
7.44305e-05
4.54597e-05
4.54597e-05
7.44371e-05
0.000166269
0.000227388
8.84006e-05
0.000230827
8.83836e-05
0.000230828
0.000166289
7.44274e-05
4.54573e-05
4.54574e-05
7.44341e-05
0.000166266
0.000227383
0.000230826
8.83847e-05
0.000230826
8.83665e-05
0.000166286
7.44268e-05
4.54616e-05
7.44187e-05
4.54615e-05
0.000166288
0.000230827
8.83883e-05
0.000227385
0.000166266
0.000230827
8.84056e-05
7.44265e-05
4.546e-05
7.44183e-05
4.54599e-05
0.000166267
0.000227389
8.84025e-05
0.000230827
8.83845e-05
0.000230827
0.000166285
7.44186e-05
4.54614e-05
4.54616e-05
7.4427e-05
0.000166267
0.000227386
0.000230827
8.84053e-05
0.000230827
8.83884e-05
0.000166286
7.44182e-05
4.54599e-05
4.54599e-05
7.44266e-05
4.73008e-05
4.73254e-05
0.000220653
4.73042e-05
4.73275e-05
2.5697e-05
2.5697e-05
2.56948e-05
2.56948e-05
0.000220595
4.73043e-05
4.73275e-05
4.73005e-05
4.73256e-05
2.5697e-05
2.5697e-05
0.000166292
0.000230827
8.83822e-05
0.000227387
0.000166268
0.000230827
8.83997e-05
7.44351e-05
4.54597e-05
7.44286e-05
4.54596e-05
7.4436e-05
4.54593e-05
7.44291e-05
4.54592e-05
0.00016627
0.000227387
0.000230826
8.84062e-05
0.000230827
8.83897e-05
0.000166287
0.000166269
0.000227388
0.000230827
8.83995e-05
0.000230827
8.83823e-05
0.000166289
7.44285e-05
4.54596e-05
4.54597e-05
7.44353e-05
7.44291e-05
4.54592e-05
4.54592e-05
7.44361e-05
2.56969e-05
2.56968e-05
2.56961e-05
2.5696e-05
0.000220594
4.73277e-05
4.73182e-05
4.73257e-05
4.73163e-05
2.56968e-05
2.56968e-05
2.5696e-05
2.5696e-05
2.56973e-05
2.56972e-05
2.56963e-05
2.56962e-05
4.73116e-05
4.73179e-05
0.000220657
4.7316e-05
4.73197e-05
2.56972e-05
2.56973e-05
2.56962e-05
2.56962e-05
0.000220599
4.73157e-05
4.73196e-05
4.73115e-05
4.7318e-05
7.44279e-05
4.54629e-05
7.44198e-05
4.54629e-05
0.000166287
8.83809e-05
0.000230827
0.000227386
0.000166266
8.83994e-05
0.000230827
0.000166289
8.83874e-05
0.000230827
0.000227385
0.000166267
8.84041e-05
0.000230827
7.44193e-05
4.54618e-05
4.54619e-05
7.44275e-05
7.44197e-05
4.54629e-05
4.54629e-05
7.4428e-05
0.000166266
0.000227386
8.83994e-05
0.000230827
8.83812e-05
0.000230827
0.000166287
0.000166268
0.000227386
8.8404e-05
0.000230827
8.83876e-05
0.000230827
0.000166288
4.7319e-05
4.73119e-05
0.000220659
4.73211e-05
4.73161e-05
2.56977e-05
2.56976e-05
2.56973e-05
2.56973e-05
0.000220601
4.7321e-05
4.73157e-05
4.73192e-05
4.73117e-05
2.56976e-05
2.56977e-05
0.000166291
8.83833e-05
0.000230827
0.000227388
0.000166269
8.84005e-05
0.000230827
7.44341e-05
4.54574e-05
7.44275e-05
4.54573e-05
0.000166288
0.000230827
8.83664e-05
0.000227383
0.000166266
0.000230827
8.83847e-05
7.44306e-05
4.54597e-05
4.54597e-05
7.44371e-05
0.000166269
0.000227388
8.84006e-05
0.000230827
8.83837e-05
0.000230828
0.00016629
7.44275e-05
4.54573e-05
4.54574e-05
7.44342e-05
0.000166267
0.000227383
0.000230826
8.83847e-05
0.000230827
8.83665e-05
0.000166287
7.44268e-05
4.54615e-05
7.44188e-05
4.54614e-05
0.000166287
0.000230827
8.83883e-05
0.000227385
0.000166265
0.000230827
8.84055e-05
7.44265e-05
4.54599e-05
7.44183e-05
4.54599e-05
0.000166267
0.00022739
8.84025e-05
0.000230827
8.83845e-05
0.000230828
0.000166285
7.44186e-05
4.54614e-05
4.54615e-05
7.4427e-05
0.000166267
0.000227386
0.000230827
8.84053e-05
0.000230827
8.83884e-05
0.000166286
7.44182e-05
4.54599e-05
4.54599e-05
7.44266e-05
4.73007e-05
4.73256e-05
0.000220654
4.73042e-05
4.73276e-05
2.5697e-05
2.5697e-05
2.56948e-05
2.56948e-05
0.000220596
4.73043e-05
4.73275e-05
4.73005e-05
4.73256e-05
2.5697e-05
2.5697e-05
0.000166291
0.000230827
8.83822e-05
0.000227388
0.000166267
0.000230827
8.83997e-05
7.44351e-05
4.54596e-05
7.44286e-05
4.54596e-05
7.44361e-05
4.54592e-05
7.44292e-05
4.54592e-05
0.000166269
0.000227388
0.000230827
8.84062e-05
0.000230827
8.83896e-05
0.000166288
0.000166269
0.000227388
0.000230827
8.83995e-05
0.000230827
8.83823e-05
0.00016629
7.44285e-05
4.54596e-05
4.54597e-05
7.44353e-05
7.44292e-05
4.54592e-05
4.54592e-05
7.44362e-05
2.56968e-05
2.56968e-05
2.5696e-05
2.5696e-05
0.000220595
4.73278e-05
4.73182e-05
4.73258e-05
4.73163e-05
2.56968e-05
2.56968e-05
2.5696e-05
2.5696e-05
2.56973e-05
2.56972e-05
2.56963e-05
2.56962e-05
4.73117e-05
4.73179e-05
0.000220656
4.73159e-05
4.73197e-05
2.56972e-05
2.56973e-05
2.56962e-05
2.56962e-05
0.000220599
4.73157e-05
4.73196e-05
4.73115e-05
4.7318e-05
7.44278e-05
4.54629e-05
7.44197e-05
4.54628e-05
0.000166287
8.83809e-05
0.000230827
0.000227386
0.000166267
8.83994e-05
0.000230827
0.000166288
8.83874e-05
0.000230827
0.000227385
0.000166267
8.84041e-05
0.000230827
7.44193e-05
4.54618e-05
4.54619e-05
7.44275e-05
7.44196e-05
4.54628e-05
4.54629e-05
7.44279e-05
0.000166266
0.000227386
8.83994e-05
0.000230827
8.83812e-05
0.000230827
0.000166287
0.000166267
0.000227385
8.84041e-05
0.000230827
8.83876e-05
0.000230827
0.000166288
4.7319e-05
4.73119e-05
0.000220657
4.73211e-05
4.7316e-05
2.56977e-05
2.56976e-05
2.56973e-05
2.56973e-05
0.0002206
4.7321e-05
4.73157e-05
4.73192e-05
4.73117e-05
2.56976e-05
2.56977e-05
0.00016629
8.83834e-05
0.000230827
0.000227388
0.000166269
8.84006e-05
0.000230827
7.44341e-05
4.54574e-05
7.44275e-05
4.54573e-05
0.000166288
0.000230827
8.83664e-05
0.000227383
0.000166266
0.000230827
8.83847e-05
7.44306e-05
4.54597e-05
4.54597e-05
7.44371e-05
0.000166269
0.000227388
8.84006e-05
0.000230827
8.83837e-05
0.000230828
0.00016629
7.44275e-05
4.54573e-05
4.54574e-05
7.44342e-05
0.000166266
0.000227383
0.000230826
8.83847e-05
0.000230827
8.83665e-05
0.000166287
7.44268e-05
4.54615e-05
7.44188e-05
4.54614e-05
0.000166287
0.000230827
8.83883e-05
0.000227385
0.000166265
0.000230827
8.84055e-05
7.44265e-05
4.54599e-05
7.44183e-05
4.54599e-05
0.000166267
0.00022739