/*--------------------------------*- C++ -*----------------------------------*\
| =========                 |                                                 |
| \\      /  F ield         | OpenFOAM: The Open Source CFD Toolbox           |
|  \\    /   O peration     | Version:  2206                                  |
|   \\  /    A nd           | Website:  www.openfoam.com                      |
|    \\/     M anipulation  |                                                 |
\*---------------------------------------------------------------------------*/
FoamFile
{
    version     2.0;
    format      ascii;
    arch        "LSB;label=32;scalar=64";
    class       volScalarField;
    location    "21";
    object      k;
}
// * * * * * * * * * * * * * * * * * * * * * * * * * * * * * * * * * * * * * //

dimensions      [0 2 -2 0 0 0 0];

internalField   nonuniform List<scalar> 
28688
(
3.58952e-05
3.58917e-05
3.58917e-05
3.59961e-05
3.39377e-05
3.38932e-05
3.38932e-05
3.39637e-05
3.21485e-05
3.19972e-05
3.19972e-05
3.19502e-05
3.05167e-05
3.02275e-05
3.02275e-05
3.00122e-05
2.90435e-05
2.85765e-05
2.85764e-05
2.81214e-05
2.86677e-05
2.83052e-05
2.83051e-05
2.78371e-05
2.8642e-05
2.83187e-05
2.83186e-05
2.79157e-05
2.86419e-05
2.8321e-05
2.83209e-05
2.79217e-05
2.8642e-05
2.83214e-05
2.83213e-05
2.79222e-05
2.8642e-05
2.83215e-05
2.83215e-05
2.79223e-05
2.8642e-05
2.83216e-05
2.83215e-05
2.79223e-05
2.8642e-05
2.83216e-05
2.83215e-05
2.79222e-05
3.63065e-05
3.62906e-05
3.62906e-05
3.63065e-05
3.62906e-05
3.62906e-05
3.64227e-05
3.64227e-05
3.64227e-05
3.64227e-05
3.62906e-05
3.62906e-05
3.63065e-05
3.62906e-05
3.62906e-05
3.63065e-05
3.59961e-05
3.42671e-05
3.58917e-05
3.58917e-05
3.4375e-05
3.4375e-05
3.59961e-05
3.42671e-05
3.58917e-05
3.58917e-05
3.4375e-05
3.4375e-05
3.58917e-05
3.43751e-05
3.4375e-05
3.59961e-05
3.42671e-05
3.58917e-05
3.43751e-05
3.4375e-05
3.42671e-05
3.39637e-05
3.22546e-05
3.38932e-05
3.38931e-05
3.24557e-05
3.24556e-05
3.39637e-05
3.22547e-05
3.38932e-05
3.38931e-05
3.24557e-05
3.24556e-05
3.38932e-05
3.24559e-05
3.24557e-05
3.39637e-05
3.22546e-05
3.38932e-05
3.24558e-05
3.24557e-05
3.22546e-05
3.19503e-05
3.03052e-05
3.1997e-05
3.19969e-05
3.06987e-05
3.06985e-05
3.19503e-05
3.03053e-05
3.19971e-05
3.19969e-05
3.06988e-05
3.06984e-05
3.1997e-05
3.0699e-05
3.06986e-05
3.19502e-05
3.03051e-05
3.19971e-05
3.06989e-05
3.06988e-05
3.03051e-05
3.00122e-05
2.83222e-05
3.02273e-05
3.02271e-05
2.88583e-05
2.88581e-05
3.00123e-05
2.83224e-05
3.02274e-05
3.0227e-05
2.88585e-05
2.8858e-05
3.02272e-05
2.88587e-05
2.88582e-05
3.00121e-05
2.83221e-05
3.02274e-05
2.88586e-05
2.88584e-05
2.83221e-05
2.81216e-05
2.78281e-05
2.85762e-05
2.85759e-05
2.8307e-05
2.83069e-05
2.81217e-05
2.78282e-05
2.85763e-05
2.85758e-05
2.83072e-05
2.83068e-05
2.85761e-05
2.83073e-05
2.8307e-05
2.81215e-05
2.7828e-05
2.85763e-05
2.83072e-05
2.83072e-05
2.78279e-05
2.78374e-05
2.79171e-05
2.8305e-05
2.83049e-05
2.83164e-05
2.83163e-05
2.78374e-05
2.79171e-05
2.83052e-05
2.83048e-05
2.83165e-05
2.83162e-05
2.8305e-05
2.83166e-05
2.83164e-05
2.78372e-05
2.79169e-05
2.83052e-05
2.83165e-05
2.83166e-05
2.79171e-05
2.79158e-05
2.79242e-05
2.83186e-05
2.83185e-05
2.83206e-05
2.83205e-05
2.79158e-05
2.79242e-05
2.83187e-05
2.83183e-05
2.83208e-05
2.83203e-05
2.83186e-05
2.83208e-05
2.83206e-05
2.79156e-05
2.7924e-05
2.83188e-05
2.83207e-05
2.83208e-05
2.79243e-05
2.79218e-05
2.7925e-05
2.83208e-05
2.83208e-05
2.83211e-05
2.8321e-05
2.79218e-05
2.79249e-05
2.8321e-05
2.83206e-05
2.83213e-05
2.83209e-05
2.83209e-05
2.83213e-05
2.83211e-05
2.79216e-05
2.79247e-05
2.83211e-05
2.83212e-05
2.83213e-05
2.7925e-05
2.79224e-05
2.7925e-05
2.83213e-05
2.83212e-05
2.83214e-05
2.83213e-05
2.79224e-05
2.7925e-05
2.83215e-05
2.83211e-05
2.83216e-05
2.83211e-05
2.83213e-05
2.83215e-05
2.83214e-05
2.79222e-05
2.79248e-05
2.83215e-05
2.83215e-05
2.83216e-05
2.79251e-05
2.79225e-05
2.7925e-05
2.83215e-05
2.83215e-05
2.83214e-05
2.83213e-05
2.79224e-05
2.7925e-05
2.83217e-05
2.83213e-05
2.83216e-05
2.83212e-05
2.83216e-05
2.83216e-05
2.83214e-05
2.79223e-05
2.79248e-05
2.83218e-05
2.83215e-05
2.83216e-05
2.79251e-05
2.79225e-05
2.7925e-05
2.83215e-05
2.83214e-05
2.83214e-05
2.83213e-05
2.79224e-05
2.79249e-05
2.83217e-05
2.83213e-05
2.83216e-05
2.83212e-05
2.83215e-05
2.83216e-05
2.83214e-05
2.79223e-05
2.79248e-05
2.83217e-05
2.83215e-05
2.83216e-05
2.79251e-05
2.79225e-05
2.79253e-05
2.83215e-05
2.83214e-05
2.83216e-05
2.79224e-05
2.83217e-05
2.83213e-05
2.83218e-05
2.83214e-05
2.83215e-05
2.83216e-05
2.79223e-05
2.7925e-05
2.83217e-05
2.83217e-05
2.83218e-05
2.79253e-05
3.7377e-05
3.73764e-05
3.73767e-05
3.73767e-05
3.73699e-05
3.73777e-05
3.73043e-05
3.73766e-05
3.73699e-05
3.73777e-05
3.73766e-05
3.73043e-05
3.7374e-05
3.72959e-05
3.72959e-05
3.58808e-05
4.08837e-05
3.66044e-05
4.5137e-05
5.51151e-05
6.48768e-05
3.5881e-05
4.08829e-05
3.66046e-05
4.51366e-05
3.58952e-05
3.58952e-05
3.58952e-05
3.43997e-05
3.43997e-05
3.43997e-05
3.43997e-05
3.52759e-05
3.56308e-05
3.58943e-05
3.53775e-05
3.60484e-05
3.42475e-05
3.53819e-05
5.51172e-05
6.48797e-05
3.52759e-05
3.58943e-05
3.56307e-05
3.53775e-05
3.60483e-05
3.53819e-05
3.42482e-05
3.65885e-05
3.65888e-05
3.52787e-05
3.40622e-05
3.40616e-05
3.39753e-05
5.13756e-05
3.46764e-05
5.45993e-05
7.65723e-05
8.08413e-05
3.3977e-05
5.13766e-05
3.46766e-05
5.45997e-05
3.39378e-05
3.39378e-05
3.39378e-05
3.25671e-05
3.25671e-05
3.25671e-05
3.25671e-05
3.3057e-05
3.24693e-05
3.39355e-05
3.34148e-05
3.38959e-05
3.15836e-05
3.34737e-05
7.65748e-05
8.08444e-05
3.30569e-05
3.39355e-05
3.24684e-05
3.34147e-05
3.38958e-05
3.34737e-05
3.15855e-05
3.17363e-05
3.17354e-05
3.32636e-05
3.09036e-05
3.09022e-05
3.22721e-05
5.91675e-05
3.29013e-05
6.14435e-05
8.44035e-05
8.50397e-05
3.22744e-05
5.91695e-05
3.28994e-05
6.14452e-05
3.21485e-05
3.21485e-05
3.21485e-05
3.09577e-05
3.09577e-05
3.09577e-05
3.09577e-05
3.07925e-05
3.04791e-05
3.21287e-05
3.15617e-05
3.16324e-05
2.99214e-05
3.17225e-05
8.44062e-05
8.5042e-05
3.07924e-05
3.21287e-05
3.04785e-05
3.15617e-05
3.16319e-05
3.17224e-05
2.99233e-05
3.01892e-05
3.01881e-05
3.12704e-05
3.00188e-05
3.00175e-05
3.08298e-05
6.43743e-05
3.13383e-05
6.57399e-05
8.46935e-05
8.38153e-05
3.08315e-05
6.43767e-05
3.13366e-05
6.57429e-05
3.05167e-05
3.05167e-05
3.05167e-05
2.93045e-05
2.93045e-05
2.93044e-05
2.93045e-05
2.86092e-05
2.91812e-05
3.04604e-05
2.97313e-05
2.94287e-05
2.8673e-05
2.99996e-05
8.46951e-05
8.38163e-05
2.8609e-05
3.04603e-05
2.91803e-05
2.97312e-05
2.94284e-05
2.99995e-05
2.86742e-05
2.99657e-05
2.99645e-05
2.93027e-05
3.0021e-05
3.00199e-05
2.95112e-05
6.70932e-05
2.96433e-05
6.78159e-05
8.27828e-05
8.27625e-05
2.95113e-05
6.70957e-05
2.96431e-05
6.78185e-05
2.90436e-05
2.90435e-05
2.90435e-05
2.86992e-05
2.86992e-05
2.86991e-05
2.86991e-05
2.69849e-05
2.79707e-05
2.89109e-05
2.84089e-05
2.72483e-05
2.80838e-05
2.87278e-05
8.27837e-05
8.27623e-05
2.69847e-05
2.89109e-05
2.79711e-05
2.84088e-05
2.72481e-05
2.87277e-05
2.8085e-05
3.02337e-05
3.02329e-05
2.78544e-05
3.12671e-05
3.12665e-05
2.97771e-05
6.84838e-05
2.97064e-05
6.85606e-05
8.29465e-05
8.29716e-05
2.97774e-05
6.84872e-05
2.97059e-05
6.85634e-05
2.86677e-05
2.86677e-05
2.86677e-05
2.8643e-05
2.8643e-05
2.86429e-05
2.8643e-05
2.71075e-05
2.91376e-05
2.8538e-05
2.83075e-05
2.7048e-05
2.93374e-05
2.85268e-05
8.29441e-05
8.29686e-05
2.71075e-05
2.8538e-05
2.91364e-05
2.83074e-05
2.70479e-05
2.85268e-05
2.93372e-05
3.28842e-05
3.28845e-05
2.7896e-05
3.31567e-05
3.31575e-05
2.98135e-05
6.85783e-05
2.98127e-05
6.85764e-05
8.29807e-05
8.29803e-05
2.98142e-05
6.85814e-05
2.98132e-05
6.85793e-05
2.86422e-05
2.86421e-05
2.86421e-05
2.86419e-05
2.86419e-05
2.86419e-05
2.86419e-05
2.7138e-05
2.94233e-05
2.85208e-05
2.832e-05
2.71349e-05
2.9424e-05
2.8521e-05
8.29778e-05
8.29769e-05
2.71381e-05
2.85208e-05
2.94232e-05
2.83199e-05
2.71349e-05
2.8521e-05
2.94241e-05
3.3252e-05
3.32527e-05
2.79227e-05
3.32529e-05
3.32537e-05
2.98158e-05
6.85781e-05
2.98171e-05
6.8576e-05
8.29813e-05
8.29804e-05
2.98166e-05
6.8581e-05
2.98177e-05
6.85787e-05
2.86421e-05
2.86421e-05
2.86421e-05
2.8642e-05
2.8642e-05
2.8642e-05
2.8642e-05
2.71405e-05
2.94295e-05
2.85211e-05
2.83213e-05
2.714e-05
2.9427e-05
2.85213e-05
8.29781e-05
8.29769e-05
2.71407e-05
2.85211e-05
2.94295e-05
2.83212e-05
2.71401e-05
2.85212e-05
2.94272e-05
3.32555e-05
3.32563e-05
2.79249e-05
3.32544e-05
3.32551e-05
2.98161e-05
6.8578e-05
2.98179e-05
6.85759e-05
8.29813e-05
8.29805e-05
2.9817e-05
6.85808e-05
2.98186e-05
6.85787e-05
2.86422e-05
2.86421e-05
2.86421e-05
2.8642e-05
2.86421e-05
2.8642e-05
2.8642e-05
2.71413e-05
2.94304e-05
2.85212e-05
2.83215e-05
2.71411e-05
2.94274e-05
2.85214e-05
8.29781e-05
8.29769e-05
2.71415e-05
2.85212e-05
2.94304e-05
2.83215e-05
2.71413e-05
2.85213e-05
2.94276e-05
3.32561e-05
3.32568e-05
2.79251e-05
3.32546e-05
3.32554e-05
2.98161e-05
6.85775e-05
2.98179e-05
6.85748e-05
8.29813e-05
8.29805e-05
2.9817e-05
6.85804e-05
2.98186e-05
6.8578e-05
2.86422e-05
2.86421e-05
2.86421e-05
2.8642e-05
2.86421e-05
2.8642e-05
2.8642e-05
2.71411e-05
2.94304e-05
2.85213e-05
2.83217e-05
2.71411e-05
2.94274e-05
2.85214e-05
8.29781e-05
8.29769e-05
2.71414e-05
2.85212e-05
2.94305e-05
2.83216e-05
2.71413e-05
2.85213e-05
2.94276e-05
3.32561e-05
3.32569e-05
2.79251e-05
3.32546e-05
3.32554e-05
2.98161e-05
6.85769e-05
2.98179e-05
6.85751e-05
8.29814e-05
8.29805e-05
2.9817e-05
6.85799e-05
2.98186e-05
6.85776e-05
2.86422e-05
2.86421e-05
2.86421e-05
2.8642e-05
2.86421e-05
2.8642e-05
2.8642e-05
2.7141e-05
2.94304e-05
2.85213e-05
2.83217e-05
2.71409e-05
2.94274e-05
2.85214e-05
8.29781e-05
8.29769e-05
2.71413e-05
2.85212e-05
2.94305e-05
2.83216e-05
2.71412e-05
2.85213e-05
2.94276e-05
3.32561e-05
3.32569e-05
2.79251e-05
3.32546e-05
3.32554e-05
2.98161e-05
6.85773e-05
2.98179e-05
6.85753e-05
8.29814e-05
8.29806e-05
2.9817e-05
6.85797e-05
2.98186e-05
6.85774e-05
2.86422e-05
2.86421e-05
2.86421e-05
2.86422e-05
2.86425e-05
2.86422e-05
2.86422e-05
2.71411e-05
2.94304e-05
2.85213e-05
2.83216e-05
2.71411e-05
2.94274e-05
2.85214e-05
8.29781e-05
8.29769e-05
2.71414e-05
2.85212e-05
2.94305e-05
2.83216e-05
2.71414e-05
2.85213e-05
2.94276e-05
3.32561e-05
3.32569e-05
2.79251e-05
3.32546e-05
3.32554e-05
3.7374e-05
3.72959e-05
3.72959e-05
5.31121e-05
3.71932e-05
5.3114e-05
3.71932e-05
3.70932e-05
3.72463e-05
3.72466e-05
3.71762e-05
3.71762e-05
3.73699e-05
3.73777e-05
3.73043e-05
3.73766e-05
3.73699e-05
3.73777e-05
3.73043e-05
3.73766e-05
3.71732e-05
3.94124e-05
3.7168e-05
3.67254e-05
3.71732e-05
3.94122e-05
3.7168e-05
3.67255e-05
3.70963e-05
3.71023e-05
3.60326e-05
3.64208e-05
3.71636e-05
3.71111e-05
3.63051e-05
3.70963e-05
3.71023e-05
3.60326e-05
3.64208e-05
3.71636e-05
3.71111e-05
3.63051e-05
3.7374e-05
3.72959e-05
3.72959e-05
5.31122e-05
3.71933e-05
3.70932e-05
3.72469e-05
3.72464e-05
3.71762e-05
3.71762e-05
5.31138e-05
3.71933e-05
3.73699e-05
3.73777e-05
3.73043e-05
3.73766e-05
3.73699e-05
3.73777e-05
3.73766e-05
3.73043e-05
3.71732e-05
3.94127e-05
3.7168e-05
3.67257e-05
3.70963e-05
3.71023e-05
3.60325e-05
3.64208e-05
3.71636e-05
3.71111e-05
3.63051e-05
3.71732e-05
3.9413e-05
3.7168e-05
3.67254e-05
3.70963e-05
3.71023e-05
3.64208e-05
3.60326e-05
3.71111e-05
3.71636e-05
3.63051e-05
3.7377e-05
3.73764e-05
3.73767e-05
3.73767e-05
3.7377e-05
3.73764e-05
3.73767e-05
3.73767e-05
3.7377e-05
3.73764e-05
3.73767e-05
3.73767e-05
3.71138e-05
3.71101e-05
3.6424e-05
3.6424e-05
3.71129e-05
3.71129e-05
3.64261e-05
3.71138e-05
3.71101e-05
3.6424e-05
3.6424e-05
3.71129e-05
3.71129e-05
3.64262e-05
3.71138e-05
3.71101e-05
3.6424e-05
3.6424e-05
3.71129e-05
3.71129e-05
3.64262e-05
3.71138e-05
3.71101e-05
3.6424e-05
3.6424e-05
3.71129e-05
3.71129e-05
3.64262e-05
3.73699e-05
3.73777e-05
3.73766e-05
3.73043e-05
3.70963e-05
3.71022e-05
3.60324e-05
3.64208e-05
3.71636e-05
3.71111e-05
3.63051e-05
3.71732e-05
3.94124e-05
3.7168e-05
3.67256e-05
3.70963e-05
3.71023e-05
3.64208e-05
3.60326e-05
3.71111e-05
3.71636e-05
3.63051e-05
3.71732e-05
3.9413e-05
3.7168e-05
3.67253e-05
3.7374e-05
3.72959e-05
3.72959e-05
5.31144e-05
3.71933e-05
3.70932e-05
3.72467e-05
3.72468e-05
3.71762e-05
3.71762e-05
5.31146e-05
3.71933e-05
3.73699e-05
3.73777e-05
3.73766e-05
3.73043e-05
3.70963e-05
3.71022e-05
3.64208e-05
3.60327e-05
3.71111e-05
3.71636e-05
3.63051e-05
3.70963e-05
3.71023e-05
3.64208e-05
3.60327e-05
3.71111e-05
3.71636e-05
3.63051e-05
3.71732e-05
3.94129e-05
3.7168e-05
3.67254e-05
3.71732e-05
3.94129e-05
3.7168e-05
3.67257e-05
3.70932e-05
3.72463e-05
3.72471e-05
3.71762e-05
3.71762e-05
5.31144e-05
3.71933e-05
5.31143e-05
3.71932e-05
5.51151e-05
6.48761e-05
5.51169e-05
6.48792e-05
3.65882e-05
3.65893e-05
3.52787e-05
3.40623e-05
3.40613e-05
7.47134e-05
6.76949e-05
7.47173e-05
6.76987e-05
3.49738e-05
3.20356e-05
3.20338e-05
3.34724e-05
3.34726e-05
3.58806e-05
4.08829e-05
3.66046e-05
4.51354e-05
3.52758e-05
3.56309e-05
3.58943e-05
3.53775e-05
3.60483e-05
3.42481e-05
3.53819e-05
3.52758e-05
3.56307e-05
3.58943e-05
3.53775e-05
3.60484e-05
3.42485e-05
3.53819e-05
3.56314e-05
5.0202e-05
4.64714e-05
3.48999e-05
3.56318e-05
5.0201e-05
4.64708e-05
3.49003e-05
3.49993e-05
3.487e-05
3.27441e-05
3.44009e-05
3.38564e-05
3.4882e-05
3.41814e-05
3.49993e-05
3.487e-05
3.27448e-05
3.44009e-05
3.38557e-05
3.4882e-05
3.41815e-05
3.65886e-05
3.65886e-05
3.52787e-05
3.40622e-05
3.40611e-05
5.51162e-05
6.48779e-05
7.47145e-05
6.76969e-05
3.49738e-05
3.20348e-05
3.20337e-05
3.34721e-05
3.34731e-05
7.47154e-05
6.76973e-05
3.52759e-05
3.56309e-05
3.58943e-05
3.53775e-05
3.60484e-05
3.42479e-05
3.53819e-05
3.58807e-05
4.08842e-05
3.66042e-05
4.51378e-05
3.52758e-05
3.58943e-05
3.56309e-05
3.53775e-05
3.60483e-05
3.53819e-05
3.4248e-05
3.56315e-05
5.02018e-05
4.6471e-05
3.49005e-05
3.49993e-05
3.487e-05
3.27438e-05
3.44009e-05
3.38558e-05
3.48821e-05
3.41816e-05
3.56314e-05
5.02035e-05
4.6473e-05
3.49001e-05
3.49993e-05
3.487e-05
3.44009e-05
3.27437e-05
3.48821e-05
3.3856e-05
3.41815e-05
3.58808e-05
4.08819e-05
3.66045e-05
4.51369e-05
3.52758e-05
3.58943e-05
3.56308e-05
3.53775e-05
3.60483e-05
3.53819e-05
3.42485e-05
3.58808e-05
4.08844e-05
3.66041e-05
4.51372e-05
3.49994e-05
3.487e-05
3.27432e-05
3.44009e-05
3.38561e-05
3.4882e-05
3.41816e-05
3.56317e-05
5.02012e-05
4.64691e-05
3.49003e-05
3.49993e-05
3.487e-05
3.44009e-05
3.27447e-05
3.48821e-05
3.38555e-05
3.41815e-05
3.56312e-05
5.02024e-05
4.6473e-05
3.49001e-05
3.65885e-05
3.65882e-05
3.52787e-05
3.40614e-05
3.40618e-05
5.51173e-05
6.48783e-05
7.47178e-05
6.76988e-05
3.49738e-05
3.2034e-05
3.20357e-05
3.34723e-05
3.34723e-05
7.47161e-05
6.76983e-05
3.52759e-05
3.58943e-05
3.56308e-05
3.53775e-05
3.60484e-05
3.53819e-05
3.42483e-05
3.58812e-05
4.08837e-05
3.66042e-05
4.51378e-05
3.58815e-05
4.08828e-05
3.66045e-05
4.51367e-05
3.49993e-05
3.487e-05
3.44009e-05
3.27446e-05
3.4882e-05
3.38558e-05
3.41815e-05
3.49993e-05
3.487e-05
3.44009e-05
3.27445e-05
3.48821e-05
3.38553e-05
3.41816e-05
3.56308e-05
5.02034e-05
4.64726e-05
3.49003e-05
3.5631e-05
5.02029e-05
4.64706e-05
3.49006e-05
5.51168e-05
6.48782e-05
5.51169e-05
6.48788e-05
3.49738e-05
3.2035e-05
3.20339e-05
3.34719e-05
3.3472e-05
7.47151e-05
6.76976e-05
7.47167e-05
6.76991e-05
7.65702e-05
8.08402e-05
7.65742e-05
8.08443e-05
3.17362e-05
3.17358e-05
3.32636e-05
3.09026e-05
3.09015e-05
8.39827e-05
8.18851e-05
8.39862e-05
8.18887e-05
3.29587e-05
3.02756e-05
3.02753e-05
3.0761e-05
3.07592e-05
3.39757e-05
5.13751e-05
3.46767e-05
5.45993e-05
3.30567e-05
3.24694e-05
3.39355e-05
3.34146e-05
3.38958e-05
3.15844e-05
3.34737e-05
3.30569e-05
3.24683e-05
3.39355e-05
3.34146e-05
3.38959e-05
3.15857e-05
3.34737e-05
3.37776e-05
5.83412e-05
5.56175e-05
3.30791e-05
3.37778e-05
5.83413e-05
5.56166e-05
3.30795e-05
3.27724e-05
3.2933e-05
3.06487e-05
3.25581e-05
3.13841e-05
3.30109e-05
3.19117e-05
3.27725e-05
3.29329e-05
3.065e-05
3.25581e-05
3.13822e-05
3.30109e-05
3.19119e-05
3.17355e-05
3.17361e-05
3.32636e-05
3.09025e-05
3.08995e-05
7.65724e-05
8.08417e-05
8.39836e-05
8.18869e-05
3.29587e-05
3.02761e-05
3.02732e-05
3.07595e-05
3.07618e-05
8.39841e-05
8.1887e-05
3.3057e-05
3.24687e-05
3.39355e-05
3.34147e-05
3.38958e-05
3.15847e-05
3.34737e-05
3.39765e-05
5.13778e-05
3.46765e-05
5.46021e-05
3.30568e-05
3.39355e-05
3.24692e-05
3.34145e-05
3.38958e-05
3.34737e-05
3.15839e-05
3.37763e-05
5.8342e-05
5.5619e-05
3.30814e-05
3.27724e-05
3.2933e-05
3.06488e-05
3.25581e-05
3.13826e-05
3.30109e-05
3.1912e-05
3.37761e-05
5.83442e-05
5.56196e-05
3.3081e-05
3.27722e-05
3.29329e-05
3.2558e-05
3.06481e-05
3.30109e-05
3.13838e-05
3.19118e-05
3.39761e-05
5.13747e-05
3.46766e-05
5.4599e-05
3.30568e-05
3.39355e-05
3.24686e-05
3.34146e-05
3.38959e-05
3.34737e-05
3.1586e-05
3.39753e-05
5.13771e-05
3.46766e-05
5.46006e-05
3.27725e-05
3.29331e-05
3.0648e-05
3.25581e-05
3.13836e-05
3.30109e-05
3.1912e-05
3.37772e-05
5.83412e-05
5.56164e-05
3.30796e-05
3.27724e-05
3.2933e-05
3.25581e-05
3.06503e-05
3.30109e-05
3.13825e-05
3.19118e-05
3.37771e-05
5.83432e-05
5.56186e-05
3.30793e-05
3.1736e-05
3.17358e-05
3.32636e-05
3.09006e-05
3.09024e-05
7.65733e-05
8.08422e-05
8.39865e-05
8.18898e-05
3.29586e-05
3.02739e-05
3.02762e-05
3.0761e-05
3.0761e-05
8.39844e-05
8.18878e-05
3.3057e-05
3.39355e-05
3.24679e-05
3.34146e-05
3.38959e-05
3.34737e-05
3.15856e-05
3.39766e-05
5.13771e-05
3.46765e-05
5.46016e-05
3.39765e-05
5.13758e-05
3.46767e-05
5.46007e-05
3.27722e-05
3.29331e-05
3.25581e-05
3.06499e-05
3.30109e-05
3.13825e-05
3.19119e-05
3.27724e-05
3.2933e-05
3.25581e-05
3.06498e-05
3.30109e-05
3.13821e-05
3.19121e-05
3.3776e-05
5.83434e-05
5.56187e-05
3.30811e-05
3.37765e-05
5.83429e-05
5.5618e-05
3.30816e-05
7.65731e-05
8.08421e-05
7.65748e-05
8.08437e-05
3.29586e-05
3.0277e-05
3.02755e-05
3.07603e-05
3.07593e-05
8.39845e-05
8.18878e-05
8.39857e-05
8.18893e-05
8.44029e-05
8.50393e-05
8.4405e-05
8.50416e-05
3.01895e-05
3.01881e-05
3.12704e-05
3.00193e-05
3.00175e-05
8.48632e-05
8.50602e-05
8.48653e-05
8.50617e-05
3.09743e-05
2.993e-05
2.99286e-05
2.99394e-05
2.99385e-05
3.22725e-05
5.91669e-05
3.29016e-05
6.14441e-05
3.07923e-05
3.04801e-05
3.21287e-05
3.15615e-05
3.16322e-05
2.9922e-05
3.17224e-05
3.07925e-05
3.04781e-05
3.21287e-05
3.15614e-05
3.16323e-05
2.9923e-05
3.17224e-05
3.2071e-05
6.38299e-05
6.20934e-05
3.15067e-05
3.20713e-05
6.38314e-05
6.20927e-05
3.1507e-05
3.04986e-05
3.11368e-05
2.9257e-05
3.09058e-05
2.97478e-05
3.13224e-05
2.9696e-05
3.04988e-05
3.11367e-05
2.92581e-05
3.09058e-05
2.9746e-05
3.13224e-05
2.96962e-05
3.01886e-05
3.01877e-05
3.12705e-05
3.00181e-05
3.00183e-05
8.44039e-05
8.50401e-05
8.48634e-05
8.50603e-05
3.09743e-05
2.99294e-05
2.99277e-05
2.9939e-05
2.99383e-05
8.48637e-05
8.50607e-05
3.07926e-05
3.04787e-05
3.21287e-05
3.15616e-05
3.16321e-05
2.9922e-05
3.17224e-05
3.2274e-05
5.91699e-05
3.28992e-05
6.14468e-05
3.07923e-05
3.21287e-05
3.04793e-05
3.15613e-05
3.16319e-05
3.17224e-05
2.99215e-05
3.20689e-05
6.38324e-05
6.20954e-05
3.15092e-05
3.04985e-05
3.11369e-05
2.9258e-05
3.09058e-05
2.97465e-05
3.13224e-05
2.96962e-05
3.20686e-05
6.38336e-05
6.20958e-05
3.15087e-05
3.04983e-05
3.11366e-05
3.09058e-05
2.92564e-05
3.13224e-05
2.97473e-05
2.9696e-05
3.22726e-05
5.91669e-05
3.29016e-05
6.14441e-05
3.07923e-05
3.21287e-05
3.04784e-05
3.15615e-05
3.16322e-05
3.17224e-05
2.99231e-05
3.22722e-05
5.91687e-05
3.29013e-05
6.14457e-05
3.04988e-05
3.1137e-05
2.92563e-05
3.09059e-05
2.97472e-05
3.13224e-05
2.96963e-05
3.20713e-05
6.38313e-05
6.2093e-05
3.1507e-05
3.04986e-05
3.11367e-05
3.09058e-05
2.92582e-05
3.13224e-05
2.97461e-05
2.9696e-05
3.20709e-05
6.38326e-05
6.20943e-05
3.15066e-05
3.01878e-05
3.01896e-05
3.12704e-05
3.00185e-05
3.00193e-05
8.44042e-05
8.50403e-05
8.4865e-05
8.50623e-05
3.09742e-05
2.99287e-05
2.99303e-05
2.99385e-05
2.99399e-05
8.48639e-05
8.50609e-05
3.07926e-05
3.21287e-05
3.04779e-05
3.15616e-05
3.16321e-05
3.17224e-05
2.99227e-05
3.22741e-05
5.91687e-05
3.28991e-05
6.14459e-05
3.22745e-05
5.91685e-05
3.28995e-05
6.14459e-05
3.04983e-05
3.1137e-05
3.09059e-05
2.92583e-05
3.13224e-05
2.97463e-05
2.96961e-05
3.04985e-05
3.11369e-05
3.09058e-05
2.92578e-05
3.13224e-05
2.97456e-05
2.96963e-05
3.20686e-05
6.38329e-05
6.20945e-05
3.15088e-05
3.2069e-05
6.38332e-05
6.20945e-05
3.15092e-05
8.44044e-05
8.50405e-05
8.44055e-05
8.50414e-05
3.09742e-05
2.99301e-05
2.99288e-05
2.99395e-05
2.99384e-05
8.48642e-05
8.50611e-05
8.48645e-05
8.50617e-05
8.4694e-05
8.38158e-05
8.46942e-05
8.38165e-05
2.99667e-05
2.99643e-05
2.93028e-05
3.00214e-05
3.00199e-05
8.28581e-05
8.34948e-05
8.28583e-05
8.34951e-05
2.90011e-05
3.01515e-05
3.01504e-05
3.00417e-05
3.00405e-05
3.08301e-05
6.43741e-05
3.13386e-05
6.57413e-05
2.86089e-05
2.91817e-05
3.04604e-05
2.97309e-05
2.94285e-05
2.86743e-05
2.99994e-05
2.86092e-05
2.91803e-05
3.04604e-05
2.97307e-05
2.94287e-05
2.86741e-05
2.99994e-05
3.06637e-05
6.68501e-05
6.60879e-05
2.98177e-05
3.06641e-05
6.68516e-05
6.60882e-05
2.98181e-05
2.83108e-05
2.92551e-05
2.79891e-05
2.9189e-05
2.84607e-05
2.95609e-05
2.74509e-05
2.83111e-05
2.92549e-05
2.79893e-05
2.91889e-05
2.84604e-05
2.95608e-05
2.74511e-05
2.99651e-05
2.99651e-05
2.93029e-05
3.00203e-05
3.00195e-05
8.46941e-05
8.38157e-05
8.28578e-05
8.34945e-05
2.90011e-05
3.0151e-05
3.01493e-05
3.0041e-05
3.00416e-05
8.28581e-05
8.34951e-05
2.86091e-05
2.91803e-05
3.04604e-05
2.9731e-05
2.94285e-05
2.8674e-05
2.99994e-05
3.0831e-05
6.43765e-05
3.13363e-05
6.57432e-05
2.86088e-05
3.04603e-05
2.91814e-05
2.97306e-05
2.94283e-05
2.99993e-05
2.86731e-05
3.06627e-05
6.68531e-05
6.60907e-05
2.98189e-05
2.83109e-05
2.92553e-05
2.79889e-05
2.91889e-05
2.84603e-05
2.95609e-05
2.74509e-05
3.06624e-05
6.68529e-05
6.60905e-05
2.98185e-05
2.83106e-05
2.92548e-05
2.91889e-05
2.79886e-05
2.95608e-05
2.84614e-05
2.74507e-05
3.083e-05
6.43743e-05
3.13386e-05
6.57415e-05
2.86089e-05
3.04604e-05
2.91803e-05
2.97308e-05
2.94285e-05
2.99994e-05
2.86741e-05
3.08296e-05
6.43752e-05
3.13382e-05
6.57423e-05
2.8311e-05
2.92554e-05
2.79884e-05
2.91891e-05
2.84611e-05
2.95609e-05
2.74511e-05
3.0664e-05
6.68515e-05
6.60888e-05
2.9818e-05
2.83108e-05
2.9255e-05
2.9189e-05
2.79891e-05
2.95608e-05
2.84603e-05
2.74508e-05
3.06636e-05
6.6852e-05
6.60891e-05
2.98176e-05
2.99656e-05
2.99659e-05
2.93027e-05
3.00205e-05
3.00214e-05
8.46941e-05
8.38158e-05
8.28585e-05
8.34956e-05
2.9001e-05
3.01507e-05
3.01519e-05
3.00421e-05
3.00419e-05
8.28584e-05
8.34951e-05
2.86091e-05
3.04604e-05
2.91799e-05
2.9731e-05
2.94286e-05
2.99994e-05
2.86738e-05
3.08311e-05
6.43754e-05
3.13363e-05
6.57427e-05
3.08314e-05
6.43759e-05
3.13367e-05
6.57432e-05
2.83106e-05
2.92553e-05
2.9189e-05
2.79892e-05
2.95608e-05
2.84603e-05
2.74508e-05
2.83109e-05
2.92552e-05
2.91889e-05
2.79889e-05
2.95608e-05
2.846e-05
2.7451e-05
3.06623e-05
6.68523e-05
6.60895e-05
2.98185e-05
3.06628e-05
6.68534e-05
6.60901e-05
2.98189e-05
8.46943e-05
8.3816e-05
8.46945e-05
8.3816e-05
2.90009e-05
3.01515e-05
3.01506e-05
3.00415e-05
3.00406e-05
8.28585e-05
8.34953e-05
8.28583e-05
8.34952e-05
8.27831e-05
8.27625e-05
8.27831e-05
8.27626e-05
3.02337e-05
3.02326e-05
2.78545e-05
3.12668e-05
3.12657e-05
8.29138e-05
8.28018e-05
8.29149e-05
8.28019e-05
2.78178e-05
3.26853e-05
3.26854e-05
3.17184e-05
3.17179e-05
2.95113e-05
6.70938e-05
2.96435e-05
6.78177e-05
2.69848e-05
2.7971e-05
2.89109e-05
2.84085e-05
2.72482e-05
2.80849e-05
2.87277e-05
2.69849e-05
2.79713e-05
2.89109e-05
2.84083e-05
2.72484e-05
2.80852e-05
2.87276e-05
2.95205e-05
6.84111e-05
6.80256e-05
2.96479e-05
2.95206e-05
6.84127e-05
6.80268e-05
2.96479e-05
2.6976e-05
2.83305e-05
2.89753e-05
2.85645e-05
2.83473e-05
2.86205e-05
2.70171e-05
2.6976e-05
2.83303e-05
2.89757e-05
2.85645e-05
2.83475e-05
2.86205e-05
2.70171e-05
3.02332e-05
3.02326e-05
2.78546e-05
3.12666e-05
3.12642e-05
8.27833e-05
8.27619e-05
8.29144e-05
8.28023e-05
2.78178e-05
3.26857e-05
3.26831e-05
3.17181e-05
3.17178e-05
8.29116e-05
8.2803e-05
2.69847e-05
2.79709e-05
2.89109e-05
2.84087e-05
2.72482e-05
2.80846e-05
2.87276e-05
2.95111e-05
6.70957e-05
2.96427e-05
6.78185e-05
2.69845e-05
2.89108e-05
2.79709e-05
2.84082e-05
2.7248e-05
2.87275e-05
2.80841e-05
2.95199e-05
6.84136e-05
6.80284e-05
2.9649e-05
2.69758e-05
2.83306e-05
2.89754e-05
2.85645e-05
2.83474e-05
2.86205e-05
2.70171e-05
2.95197e-05
6.8411e-05
6.80282e-05
2.96488e-05
2.69757e-05
2.83302e-05
2.85644e-05
2.89752e-05
2.86204e-05
2.83475e-05
2.7017e-05
2.95112e-05
6.70943e-05
2.96434e-05
6.78175e-05
2.69847e-05
2.89109e-05
2.79711e-05
2.84085e-05
2.72482e-05
2.87276e-05
2.8085e-05
2.95109e-05
6.70941e-05
2.96431e-05
6.78173e-05
2.6976e-05
2.83308e-05
2.89749e-05
2.85646e-05
2.83469e-05
2.86205e-05
2.70171e-05
2.95204e-05
6.84103e-05
6.80272e-05
2.96478e-05
2.69759e-05
2.83304e-05
2.85645e-05
2.89751e-05
2.86205e-05
2.83471e-05
2.7017e-05
2.95202e-05
6.8412e-05
6.80263e-05
2.96477e-05
3.02336e-05
3.02341e-05
2.78544e-05
3.12658e-05
3.12673e-05
8.27834e-05
8.27628e-05
8.29119e-05
8.28035e-05
2.78176e-05
3.26848e-05
3.26859e-05
3.1719e-05
3.17186e-05
8.29149e-05
8.28025e-05
2.69848e-05
2.89109e-05
2.79709e-05
2.84087e-05
2.72482e-05
2.87276e-05
2.80848e-05
2.95112e-05
6.70945e-05
2.96427e-05
6.78177e-05
2.95113e-05
6.70956e-05
2.9643e-05
6.7819e-05
2.69758e-05
2.83307e-05
2.85645e-05
2.89752e-05
2.86204e-05
2.83469e-05
2.70172e-05
2.69759e-05
2.83306e-05
2.85645e-05
2.89754e-05
2.86205e-05
2.83472e-05
2.70172e-05
2.95198e-05
6.84124e-05
6.80267e-05
2.96488e-05
2.95199e-05
6.84139e-05
6.8028e-05
2.96488e-05
8.27835e-05
8.27629e-05
8.27833e-05
8.27627e-05
2.78177e-05
3.26857e-05
3.2686e-05
3.17184e-05
3.1718e-05
8.29149e-05
8.28026e-05
8.29148e-05
8.28023e-05
8.29453e-05
8.29716e-05
8.29459e-05
8.29723e-05
3.28839e-05
3.28847e-05
2.7896e-05
3.31556e-05
3.31573e-05
8.2979e-05
8.29774e-05
8.29799e-05
8.29782e-05
2.78983e-05
3.32426e-05
3.32447e-05
3.32004e-05
3.32024e-05
2.97772e-05
6.84856e-05
2.97066e-05
6.8563e-05
2.71074e-05
2.91369e-05
2.85381e-05
2.83072e-05
2.70484e-05
2.9337e-05
2.85268e-05
2.71074e-05
2.91375e-05
2.8538e-05
2.83071e-05
2.70483e-05
2.9338e-05
2.85267e-05
2.97975e-05
6.85761e-05
6.85734e-05
2.98091e-05
2.97976e-05
6.85788e-05
6.8576e-05
2.98094e-05
2.7118e-05
2.83126e-05
2.9416e-05
2.85209e-05
2.93831e-05
2.85223e-05
2.71325e-05
2.7118e-05
2.83125e-05
2.94173e-05
2.85209e-05
2.93842e-05
2.85222e-05
2.71325e-05
3.28845e-05
3.28836e-05
2.78961e-05
3.31568e-05
3.31538e-05
8.2944e-05
8.29685e-05
8.29793e-05
8.29775e-05
2.78984e-05
3.32436e-05
3.32393e-05
3.32017e-05
3.32002e-05
8.2976e-05
8.29745e-05
2.71074e-05
2.91378e-05
2.85381e-05
2.83073e-05
2.70483e-05
2.9338e-05
2.85267e-05
2.97771e-05
6.84844e-05
2.9706e-05
6.85604e-05
2.71073e-05
2.8538e-05
2.91383e-05
2.83069e-05
2.70482e-05
2.85267e-05
2.93375e-05
2.97971e-05
6.85791e-05
6.85766e-05
2.98101e-05
2.7118e-05
2.83128e-05
2.94174e-05
2.85209e-05
2.93844e-05
2.85222e-05
2.71326e-05
2.97968e-05
6.85763e-05
6.85738e-05
2.98097e-05
2.71179e-05
2.83124e-05
2.85208e-05
2.94163e-05
2.85222e-05
2.93844e-05
2.71325e-05
2.97772e-05
6.84837e-05
2.97065e-05
6.856e-05
2.71073e-05
2.85381e-05
2.91367e-05
2.83071e-05
2.70482e-05
2.85267e-05
2.93371e-05
2.9777e-05
6.84847e-05
2.97064e-05
6.85619e-05
2.71179e-05
2.83128e-05
2.94162e-05
2.8521e-05
2.93842e-05
2.85223e-05
2.71325e-05
2.97975e-05
6.85761e-05
6.85734e-05
2.98093e-05
2.71179e-05
2.83126e-05
2.85209e-05
2.94164e-05
2.85222e-05
2.93833e-05
2.71324e-05
2.97973e-05
6.85777e-05
6.85749e-05
2.98091e-05
3.28846e-05
3.28845e-05
2.78959e-05
3.31546e-05
3.31569e-05
8.29463e-05
8.29724e-05
8.29762e-05
8.29747e-05
2.78982e-05
3.32406e-05
3.32437e-05
3.32006e-05
3.32016e-05
8.29798e-05
8.29782e-05
2.71075e-05
2.85381e-05
2.91372e-05
2.83073e-05
2.70483e-05
2.85267e-05
2.93378e-05
2.97772e-05
6.84851e-05
2.9706e-05
6.85623e-05
2.97772e-05
6.84867e-05
2.9706e-05
6.8564e-05
2.71179e-05
2.83127e-05
2.8521e-05
2.94164e-05
2.85223e-05
2.93833e-05
2.71326e-05
2.71181e-05
2.83128e-05
2.85209e-05
2.94171e-05
2.85222e-05
2.93841e-05
2.71327e-05
2.97969e-05
6.85781e-05
6.85753e-05
2.98098e-05
2.97969e-05
6.85798e-05
6.8577e-05
2.98099e-05
8.29464e-05
8.29725e-05
8.29462e-05
8.29724e-05
2.78983e-05
3.32438e-05
3.32445e-05
3.32016e-05
3.32024e-05
8.29798e-05
8.29782e-05
8.29797e-05
8.29781e-05
8.29807e-05
8.29799e-05
8.29814e-05
8.29806e-05
3.32509e-05
3.3253e-05
2.79226e-05
3.3252e-05
3.32539e-05
8.29802e-05
8.29813e-05
8.29806e-05
8.29817e-05
2.79204e-05
3.3253e-05
3.32549e-05
3.32536e-05
3.32557e-05
2.98137e-05
6.85806e-05
2.98132e-05
6.85789e-05
2.71379e-05
2.9423e-05
2.85209e-05
2.83197e-05
2.71351e-05
2.94237e-05
2.85209e-05
2.7138e-05
2.94244e-05
2.85208e-05
2.83196e-05
2.71351e-05
2.9425e-05
2.85209e-05
2.98161e-05
6.85761e-05
6.85779e-05
2.98151e-05
2.98163e-05
6.85785e-05
6.85805e-05
2.98153e-05
2.71386e-05
2.83203e-05
2.9426e-05
2.8521e-05
2.94277e-05
2.85209e-05
2.71395e-05
2.71386e-05
2.83202e-05
2.94272e-05
2.8521e-05
2.9429e-05
2.85209e-05
2.71395e-05
3.32519e-05
3.32475e-05
2.79226e-05
3.32529e-05
3.32487e-05
8.2978e-05
8.29767e-05
8.29804e-05
8.29816e-05
2.79204e-05
3.32539e-05
3.32497e-05
3.32546e-05
3.32508e-05
8.29767e-05
8.29784e-05
2.71381e-05
2.94243e-05
2.85209e-05
2.83199e-05
2.71352e-05
2.94251e-05
2.85209e-05
2.98138e-05
6.85783e-05
2.98131e-05
6.85764e-05
2.71379e-05
2.85208e-05
2.94236e-05
2.83195e-05
2.7135e-05
2.85208e-05
2.94241e-05
2.98166e-05
6.85789e-05
6.85809e-05
2.98159e-05
2.71388e-05
2.83205e-05
2.94273e-05
2.8521e-05
2.9429e-05
2.85209e-05
2.71397e-05
2.98162e-05
6.8576e-05
6.85781e-05
2.98155e-05
2.71386e-05
2.83201e-05
2.85209e-05
2.94262e-05
2.85208e-05
2.94283e-05
2.71395e-05
2.98137e-05
6.8578e-05
2.98132e-05
6.85762e-05
2.71379e-05
2.85209e-05
2.94234e-05
2.83197e-05
2.7135e-05
2.85209e-05
2.94241e-05
2.98135e-05
6.85795e-05
2.9813e-05
6.85779e-05
2.71386e-05
2.83204e-05
2.94262e-05
2.85211e-05
2.94282e-05
2.8521e-05
2.71396e-05
2.98163e-05
6.85758e-05
6.85779e-05
2.98153e-05
2.71385e-05
2.83203e-05
2.8521e-05
2.94262e-05
2.85209e-05
2.9428e-05
2.71395e-05
2.98161e-05
6.85775e-05
6.85794e-05
2.98151e-05
3.32489e-05
3.32519e-05
2.79224e-05
3.32499e-05
3.32528e-05
8.29814e-05
8.29805e-05
8.29769e-05
8.29785e-05
2.79202e-05
3.32509e-05
3.32538e-05
3.32519e-05
3.32546e-05