/*--------------------------------*- C++ -*----------------------------------*\
| =========                 |                                                 |
| \\      /  F ield         | OpenFOAM: The Open Source CFD Toolbox           |
|  \\    /   O peration     | Version:  2206                                  |
|   \\  /    A nd           | Website:  www.openfoam.com                      |
|    \\/     M anipulation  |                                                 |
\*---------------------------------------------------------------------------*/
FoamFile
{
    version     2.0;
    format      ascii;
    arch        "LSB;label=32;scalar=64";
    class       surfaceScalarField;
    location    "21";
    object      phi;
}
// * * * * * * * * * * * * * * * * * * * * * * * * * * * * * * * * * * * * * //

dimensions      [0 3 -1 0 0 0 0];

oriented        oriented;

internalField   nonuniform List<scalar> 
83438
(
-0.00104221
-1.45809e-05
-1.44772e-05
9.3473e-06
9.17725e-06
0.00105274
-0.00026146
-5.64084e-06
1.44578e-05
6.83911e-06
0.00105941
-4.53176e-06
-1.62549e-06
-2.2188e-06
-2.57736e-06
-6.58895e-06
-7.04203e-06
-3.1663e-06
-0.000263303
-0.000259727
-0.00026283
-0.000261438
-5.64583e-06
1.44868e-05
6.92871e-06
0.00105921
-4.53687e-06
-1.63567e-06
-2.2264e-06
-2.58167e-06
-6.58304e-06
-7.0381e-06
-3.16849e-06
-0.000259699
-0.000263275
-0.000262793
-0.000260565
5.61633e-06
5.65643e-06
-4.87668e-06
-4.87075e-06
0.000259039
-1.62187e-06
-1.62368e-06
-0.00106074
8.90803e-07
8.91552e-07
0.00106221
-0.00106268
-1.60552e-06
1.6177e-06
8.24806e-07
0.00106397
-6.52204e-07
7.8288e-07
-1.49894e-07
3.74561e-07
-7.95841e-07
-1.39064e-06
-2.95975e-07
-0.00106236
-1.60044e-06
1.62829e-06
8.20049e-07
0.00106364
-6.52188e-07
7.77372e-07
-1.49952e-07
3.71941e-07
-7.98363e-07
-1.39033e-06
-2.93435e-07
-0.000261532
1.63815e-06
1.60059e-06
-7.12183e-07
-7.15333e-07
0.000259721
-1.37438e-06
-1.37586e-06
-0.0010664
6.84945e-07
6.85714e-07
0.00106778
-0.00106788
-1.55637e-06
1.38061e-06
7.01268e-07
0.00106925
-6.20166e-07
8.27445e-07
-1.18218e-07
4.05377e-07
-7.72278e-07
-1.35391e-06
-2.65928e-07
-0.00106756
-1.55113e-06
1.37542e-06
7.06595e-07
0.00106892
-6.20167e-07
8.22025e-07
-1.18194e-07
4.0533e-07
-7.72193e-07
-1.34835e-06
-2.63365e-07
-0.000262763
1.58654e-06
1.55126e-06
-6.71527e-07
-6.79699e-07
0.000260976
-1.32658e-06
-1.32779e-06
-0.00107179
6.39942e-07
6.4085e-07
0.00107316
-0.00107325
-1.54581e-06
1.32748e-06
6.68874e-07
0.00107459
-6.05924e-07
8.49376e-07
-9.3789e-08
4.13434e-07
-7.55577e-07
-1.35043e-06
-2.47167e-07
-0.00107292
-1.54047e-06
1.32738e-06
6.68922e-07
0.00107425
-6.03218e-07
8.43966e-07
-9.62481e-08
4.13381e-07
-7.58034e-07
-1.35021e-06
-2.44596e-07
-0.00026405
1.57349e-06
1.54068e-06
-6.52679e-07
-6.58308e-07
0.000262247
-6.9233e-07
-6.93212e-07
-0.00107637
3.74909e-07
3.75226e-07
0.001077
-0.00107755
-1.36403e-06
6.93086e-07
3.30258e-07
0.00107801
-4.05708e-07
1.0449e-06
1.05081e-07
6.75587e-07
-4.72914e-07
-1.09894e-06
2.77145e-08
-0.00107721
-1.35873e-06
6.93023e-07
3.30389e-07
0.00107767
-4.03029e-07
1.03941e-06
1.02245e-07
6.75483e-07
-4.75417e-07
-1.09871e-06
3.07109e-08
-0.000265037
1.39191e-06
1.35882e-06
-4.2125e-07
-4.26567e-07
0.000263134
-1.62596e-07
-1.62898e-07
-0.00107798
9.98607e-08
9.98902e-08
0.0010781
-0.00107855
-1.22989e-06
1.62865e-07
9.25159e-08
0.00107859
-2.78825e-07
1.16264e-06
2.16285e-07
8.36016e-07
-2.8058e-07
-9.20808e-07
2.00676e-07
-0.00107821
-1.22451e-06
1.62833e-07
9.25596e-08
0.00107825
-2.76089e-07
1.15724e-06
2.1355e-07
8.35855e-07
-2.8317e-07
-9.20669e-07
2.03347e-07
-0.000265163
1.25794e-06
1.22462e-06
-2.61232e-07
-2.66538e-07
0.000263208
-1.48235e-08
-1.47743e-08
-0.00107823
9.93779e-09
9.96078e-09
0.00107824
-0.0010786
-1.19497e-06
1.47491e-08
1.0947e-08
0.0010786
-2.47972e-07
1.19161e-06
2.42196e-07
8.71493e-07
-2.41623e-07
-8.77824e-07
2.33274e-07
-0.00107826
-1.18959e-06
1.47558e-08
1.09382e-08
0.00107826
-2.45234e-07
1.18621e-06
2.39453e-07
8.71323e-07
-2.4424e-07
-8.77697e-07
2.35922e-07
-0.000265143
1.22304e-06
1.18971e-06
-2.26295e-07
-2.31544e-07
0.000263188
3.37599e-10
4.76057e-10
-0.00107825
-6.11048e-10
-5.86218e-10
0.00107825
-0.0010786
-1.19192e-06
-5.16108e-10
2.64262e-09
0.0010786
-2.45345e-07
1.19397e-06
2.44287e-07
8.74274e-07
-2.38485e-07
-8.74347e-07
2.35856e-07
-0.00107826
-1.18654e-06
-4.9646e-10
2.61874e-09
0.00107826
-2.42603e-07
1.18857e-06
2.41544e-07
8.74101e-07
-2.41096e-07
-8.7422e-07
2.38505e-07
-0.000265139
1.21999e-06
1.18665e-06
-2.2364e-07
-2.28889e-07
0.000263185
1.20249e-09
1.31781e-09
-0.00107825
-1.27286e-09
-1.25359e-09
0.00107825
-0.0010786
-1.1918e-06
-1.33953e-09
2.2915e-09
0.0010786
-2.45243e-07
1.19406e-06
2.44359e-07
8.7436e-07
-2.38372e-07
-8.74223e-07
2.35931e-07
-0.00107826
-1.18642e-06
-1.32925e-09
2.26602e-09
0.00107826
-2.42502e-07
1.18866e-06
2.41622e-07
8.7419e-07
-2.40985e-07
-8.74098e-07
2.38587e-07
-0.000265139
1.21987e-06
1.18653e-06
-2.23548e-07
-2.288e-07
0.000263185
1.20402e-09
1.33318e-09
-0.00107825
-1.28533e-09
-1.26129e-09
0.00107825
-0.0010786
-1.1918e-06
-1.36906e-09
2.28976e-09
0.0010786
-2.45246e-07
1.19406e-06
2.44361e-07
8.74365e-07
-2.38375e-07
-8.74223e-07
2.35936e-07
-0.00107826
-1.18642e-06
-1.35611e-09
2.26295e-09
0.00107826
-2.42504e-07
1.18866e-06
2.41627e-07
8.74195e-07
-2.40987e-07
-8.74098e-07
2.38592e-07
-0.000265139
1.21987e-06
1.18653e-06
-2.23552e-07
-2.28803e-07
0.000263185
1.12547e-09
1.32622e-09
-0.00107825
-1.26496e-09
-1.22713e-09
0.00107825
-0.0010786
-1.1918e-06
-1.38571e-09
2.29124e-09
0.0010786
-2.42522e-07
1.19405e-06
2.41633e-07
8.7436e-07
-2.38338e-07
-8.74215e-07
2.35907e-07
-0.00107826
-1.18642e-06
-1.37014e-09
2.26283e-09
0.00107826
-2.425e-07
1.18866e-06
2.41622e-07
8.7419e-07
-2.40978e-07
-8.74091e-07
2.38585e-07
-0.000265139
1.21987e-06
1.18652e-06
-2.23545e-07
-2.28797e-07
0.000263185
1.23249e-09
1.34397e-09
-0.00107825
-1.30537e-09
-1.2939e-09
0.00107825
-0.0010786
-1.19179e-06
-1.37123e-09
2.27788e-09
0.0010786
-2.42507e-07
1.19405e-06
2.41621e-07
8.74341e-07
-2.38315e-07
-8.742e-07
2.3588e-07
-0.00107826
-1.18641e-06
-1.35052e-09
2.26447e-09
0.00107826
-2.42487e-07
1.18865e-06
2.41609e-07
8.7417e-07
-2.40959e-07
-8.74076e-07
2.38561e-07
-0.000265139
1.21986e-06
1.18652e-06
-2.23535e-07
-2.28788e-07
0.000263185
5.22193e-06
5.23277e-06
0.000260567
-0.00025917
-5.93317e-06
-5.91905e-06
5.08146e-06
0.000261409
-0.000258686
-5.96213e-06
3.37923e-06
-5.222e-06
5.07644e-06
0.000261442
-0.000258701
-5.97014e-06
3.37439e-06
5.2226e-06
0.00026058
-0.000259172
-5.90455e-06
-5.94778e-06
5.07456e-06
0.000261473
-0.000258716
-5.96765e-06
3.36907e-06
5.08128e-06
-5.22425e-06
0.000261417
-0.000258686
3.38428e-06
-5.97234e-06
1.07114e-05
1.06177e-05
-0.000252648
-0.000256079
-0.000255118
-0.000255118
-6.41722e-06
-4.12495e-06
-6.66236e-06
-6.41759e-06
-4.12589e-06
-6.6679e-06
-5.06951e-06
0.00104223
1.0671e-05
1.0623e-05
-0.000252651
-0.000256076
-0.000255121
-0.000255121
-6.41984e-06
-4.12524e-06
-6.6651e-06
-6.41505e-06
-4.12068e-06
-6.66031e-06
-5.06916e-06
0.0010421
1.07313e-05
1.06836e-05
-0.000252643
-0.000256071
-0.000255118
-0.000255113
-6.41969e-06
-4.13262e-06
-6.66503e-06
-6.41989e-06
-4.1229e-06
-6.66264e-06
-5.08385e-06
-5.07197e-06
0.00104217
1.07266e-05
1.06279e-05
-0.000252646
-0.000256074
-0.000255118
-0.000255118
-6.41458e-06
-4.12757e-06
-6.66003e-06
-6.42003e-06
-4.12573e-06
-6.66537e-06
-0.000258711
-5.96001e-06
3.36402e-06
-5.22185e-06
0.000261404
-0.000258683
3.37926e-06
-5.96208e-06
5.22499e-06
0.00026056
-0.000259157
-5.90687e-06
-5.94501e-06
-0.000258696
3.37155e-06
-5.95713e-06
-5.23275e-06
0.000261471
-0.000258711
3.36655e-06
-5.96512e-06
-0.000259167
-5.93304e-06
-5.91908e-06
5.61659e-06
5.6538e-06
-4.87691e-06
-4.87077e-06
0.000259044
-7.75837e-07
-7.39955e-07
0.000261542
-0.000259459
-2.87447e-07
-2.80059e-07
7.09157e-06
0.00105882
-4.5291e-06
-1.57896e-06
-2.21348e-06
-2.57849e-06
-6.60339e-06
-7.04786e-06
-3.1733e-06
-0.000263265
-0.000259684
-0.000262793
-5.62704e-06
1.45544e-05
7.03097e-06
0.00105919
-4.54822e-06
-1.57135e-06
-2.21662e-06
-2.58939e-06
-6.63491e-06
-7.06477e-06
-3.18897e-06
-0.000263339
-0.000259714
-0.000262835
0.00106193
2.03646e-06
-0.00106086
9.8134e-07
-1.71816e-06
-1.73999e-07
-6.92217e-07
-1.46368e-06
-3.16993e-07
-8.25374e-07
3.34673e-07
7.83925e-07
0.00106235
2.03682e-06
-0.00106128
9.76279e-07
-1.72856e-06
-1.66497e-07
-6.97713e-07
-1.46939e-06
-3.17148e-07
-8.25742e-07
3.40088e-07
-4.875e-06
-4.86766e-06
0.000259055
-7.42635e-07
0.000261568
-0.000259479
-2.84797e-07
-2.77177e-07
6.81282e-06
0.00105966
-4.55338e-06
-1.63829e-06
-2.22968e-06
-2.58769e-06
-6.61742e-06
-7.06014e-06
-3.18419e-06
-0.000263359
-0.000259742
-0.000262847
-5.62674e-06
1.45889e-05
7.12503e-06
0.00105896
-4.54806e-06
-1.58143e-06
-2.22166e-06
-2.59135e-06
-6.63422e-06
-7.06364e-06
-3.18858e-06
-0.000259684
-0.000263316
-0.000262806
0.00106294
2.04409e-06
-0.00106187
9.69862e-07
-1.68823e-06
-1.76512e-07
-6.92488e-07
-1.46671e-06
-3.17105e-07
-8.23141e-07
3.37057e-07
7.7329e-07
0.00106204
2.04704e-06
-0.00106099
9.91657e-07
-1.71823e-06
-1.71549e-07
-6.92417e-07
-1.4665e-06
-3.14518e-07
-8.28131e-07
3.3462e-07
1.45858e-05
7.11235e-06
0.00105877
-4.52904e-06
-1.57886e-06
-2.21085e-06
-2.57851e-06
-6.6034e-06
-3.17334e-06
-7.04553e-06
-0.000259679
-0.000263259
-0.000262788
2.0434e-06
-0.00106161
9.75096e-07
-1.68813e-06
-1.73831e-07
-6.89571e-07
-1.46401e-06
-3.19473e-07
3.31868e-07
-8.22877e-07
7.73268e-07
0.00106182
2.04666e-06
-0.00106078
9.91684e-07
-1.71814e-06
-1.71431e-07
-6.92171e-07
-1.46636e-06
-3.16959e-07
-8.25333e-07
3.37213e-07
-4.87983e-06
-4.86743e-06
0.000259034
-7.34474e-07
0.000261519
-0.000259441
-2.87854e-07
-2.82427e-07
1.4487e-05
6.83135e-06
0.00105961
-4.55353e-06
-1.6383e-06
-2.22973e-06
-2.58752e-06
-6.61729e-06
-3.1841e-06
-7.05741e-06
-0.000259732
-0.000263357
-0.000262842
2.04846e-06
-0.00106131
9.90714e-07
-1.68567e-06
-1.76388e-07
-6.92252e-07
-1.46089e-06
-3.1446e-07
3.31898e-07
-8.25406e-07
7.34567e-07
0.00106285
2.04911e-06
-0.00106179
9.80271e-07
-1.68321e-06
-1.76547e-07
-6.89916e-07
-1.46396e-06
-3.16957e-07
-8.25573e-07
3.32051e-07
-0.000259456
-2.84985e-07
-2.82644e-07
1.63822e-06
1.60301e-06
-7.09462e-07
-7.17931e-07
0.000259728
-8.60115e-07
-8.21419e-07
0.000262776
-0.000260664
-2.18636e-07
-2.11077e-07
8.25994e-07
0.00106321
-6.54757e-07
8.16132e-07
-1.45043e-07
3.74711e-07
-7.95729e-07
-1.39294e-06
-2.959e-07
-1.64349e-06
1.62229e-06
8.20759e-07
0.00106363
-6.57608e-07
8.24207e-07
-1.4505e-07
3.80137e-07
-7.987e-07
-1.39863e-06
-2.93594e-07
0.00106711
1.39291e-06
-0.0010658
7.0976e-07
-1.58818e-06
-1.09462e-07
-6.23742e-07
-1.34525e-06
-2.61006e-07
-7.65035e-07
4.11389e-07
8.65479e-07
0.00106755
1.39317e-06
-0.00106623
7.04691e-07
-1.59351e-06
-1.09584e-07
-6.23971e-07
-1.34824e-06
-2.61128e-07
-7.65378e-07
4.14188e-07
-7.09955e-07
-7.17262e-07
0.000259746
-8.26671e-07
0.000262802
-0.000260677
-2.18687e-07
-2.13566e-07
8.19534e-07
0.00106423
-6.52389e-07
7.80227e-07
-1.47502e-07
3.77157e-07
-7.98763e-07
-1.39607e-06
-2.93543e-07
-1.63822e-06
1.62754e-06
8.2606e-07
0.00106332
-6.57599e-07
8.1623e-07
-1.45087e-07
3.74733e-07
-7.9843e-07
-1.39313e-06
-2.93407e-07
0.00106814
1.39427e-06
-0.00106683
7.08719e-07
-1.55026e-06
-1.14411e-07
-6.18737e-07
-1.34294e-06
-2.5858e-07
-7.65358e-07
4.14045e-07
8.54891e-07
0.00106723
1.39292e-06
-0.00106591
7.0985e-07
-1.58559e-06
-1.12056e-07
-6.23892e-07
-1.34537e-06
-2.60965e-07
-7.65086e-07
4.14172e-07
1.62212e-06
8.26093e-07
0.00106311
-6.57388e-07
8.13557e-07
-1.47481e-07
3.74654e-07
-7.98351e-07
-2.9345e-07
-1.39303e-06
1.39387e-06
-0.00106657
7.14078e-07
-1.55805e-06
-1.16835e-07
-6.18585e-07
-1.34285e-06
-2.58583e-07
4.13922e-07
-7.6518e-07
8.57492e-07
0.00106702
1.3876e-06
-0.0010657
7.09862e-07
-1.58551e-06
-1.11924e-07
-6.23724e-07
-1.34531e-06
-2.6103e-07
-7.65028e-07
4.11414e-07
-7.12736e-07
-7.14718e-07
0.000259708
-8.18605e-07
0.00026275
-0.000260644
-2.18875e-07
-2.13533e-07
1.62343e-06
8.1448e-07
0.00106415
-6.52459e-07
7.74795e-07
-1.52624e-07
3.7202e-07
-7.95975e-07
-2.98385e-07
-1.39055e-06
1.39389e-06
-0.00106624
7.09003e-07
-1.54753e-06
-1.16837e-07
-6.18545e-07
-1.33729e-06
-2.61009e-07
4.05855e-07
-7.65099e-07
8.2128e-07
0.00106805
1.39428e-06
-0.00106673
7.08811e-07
-1.54773e-06
-1.16989e-07
-6.18818e-07
-1.34551e-06
-2.61038e-07
-7.67939e-07
4.1138e-07
-0.000260652
-2.18743e-07
-2.13671e-07
1.58917e-06
1.55644e-06
-6.68823e-07
-6.77149e-07
0.000260976
-8.80988e-07
-8.44779e-07
0.000264065
-0.000261941
-2.01909e-07
-1.96871e-07
7.02101e-07
0.00106849
-6.28036e-07
8.60909e-07
-1.10858e-07
4.05525e-07
-7.69511e-07
-1.34838e-06
-2.68318e-07
-1.59454e-06
1.37469e-06
7.12723e-07
0.00106891
-6.28244e-07
8.66316e-07
-1.10922e-07
4.11061e-07
-7.72473e-07
-1.354e-06
-2.63453e-07
0.00107249
1.324e-06
-0.00107116
6.71318e-07
-1.57421e-06
-9.63092e-08
-6.09205e-07
-1.34179e-06
-2.50523e-07
-7.49046e-07
4.14571e-07
8.86429e-07
0.00107291
1.32433e-06
-0.00107158
6.71579e-07
-1.57958e-06
-9.3883e-08
-6.12081e-07
-1.35008e-06
-2.45618e-07
-7.54601e-07
4.22819e-07
-6.71868e-07
-6.74076e-07
0.000260997
-8.4745e-07
0.000264094
-0.000261967
-1.99304e-07
-1.94114e-07
7.01118e-07
0.00106952
-6.25688e-07
8.24809e-07
-1.15818e-07
4.08127e-07
-7.72445e-07
-1.35397e-06
-2.63431e-07
-1.58657e-06
1.37454e-06
7.07461e-07
0.00106859
-6.28195e-07
8.58335e-07
-1.10892e-07
4.08277e-07
-7.72162e-07
-1.35114e-06
-2.63291e-07
0.00107352
1.32531e-06
-0.00107219
6.70326e-07
-1.53867e-06
-9.87595e-08
-6.0679e-07
-1.34473e-06
-2.45615e-07
-7.54609e-07
4.1721e-07
8.81069e-07
0.00107259
1.3241e-06
-0.00107126
6.71516e-07
-1.57424e-06
-9.3837e-08
-6.12017e-07
-1.34448e-06
-2.4546e-07
-7.54315e-07
4.17329e-07
1.37948e-06
7.02223e-07
0.0010684
-6.25341e-07
8.55637e-07
-1.1579e-07
4.08185e-07
-7.72103e-07
-2.6584e-07
-1.35109e-06
1.32498e-06
-0.00107192
6.70476e-07
-1.54125e-06
-9.86431e-08
-6.06636e-07
-1.34204e-06
-2.48113e-07
4.14443e-07
-7.51875e-07
8.75677e-07
0.00107239
1.32389e-06
-0.00107106
6.71426e-07
-1.56893e-06
-9.87354e-08
-6.06475e-07
-1.34186e-06
-2.48038e-07
-7.5164e-07
4.1457e-07
-6.71967e-07
-6.76594e-07
0.000260961
-8.42024e-07
0.000264045
-0.000261925
-2.02009e-07
-1.9412e-07
1.37585e-06
7.06435e-07
0.00106943
-6.2043e-07
8.16769e-07
-1.20833e-07
4.05547e-07
-7.69767e-07
-2.65888e-07
-1.34869e-06
1.32488e-06
-0.00107158
6.70511e-07
-1.53593e-06
-1.01115e-07
-6.03925e-07
-1.34174e-06
-2.45572e-07
4.14427e-07
-7.54351e-07
8.42013e-07
0.00107343
1.32532e-06
-0.0010721
6.70386e-07
-1.53615e-06
-1.01267e-07
-6.04203e-07
-1.33948e-06
-2.4809e-07
-7.5192e-07
4.11915e-07
-0.000261938
-1.99428e-07
-1.94256e-07
1.57877e-06
1.54322e-06
-6.49966e-07
-6.5567e-07
0.000262249
-1.02801e-06
-9.91849e-07
0.000265052
-0.00026303
-3.7588e-09
1.29284e-09
6.69646e-07
0.00107383
-6.08481e-07
8.8297e-07
-9.14383e-08
4.13506e-07
-7.5277e-07
-1.35022e-06
-2.49625e-07
-1.58413e-06
1.32688e-06
6.69824e-07
0.00107425
-6.11337e-07
8.88422e-07
-8.89989e-08
4.21762e-07
-7.58307e-07
-1.35852e-06
-2.44695e-07
0.00107678
8.8368e-07
-0.00107607
4.14455e-07
-1.45261e-06
5.49546e-08
-4.66248e-07
-1.17216e-06
-5.0454e-08
-5.59144e-07
6.10199e-07
1.03346e-06
0.0010772
8.8384e-07
-0.00107649
4.14671e-07
-1.4581e-06
5.77068e-08
-4.69089e-07
-1.18041e-06
-4.56886e-08
-5.64639e-07
6.18467e-07
-6.53077e-07
-6.57778e-07
0.000262275
-9.94497e-07
0.000265081
-0.000263056
-7.36941e-10
3.26285e-09
6.6875e-07
0.00107486
-6.06074e-07
8.46699e-07
-9.39092e-08
4.16201e-07
-7.58312e-07
-1.35314e-06
-2.44659e-07
-1.57879e-06
1.32658e-06
6.69759e-07
0.00107393
-6.11273e-07
8.83059e-07
-8.89516e-08
4.16293e-07
-7.58014e-07
-1.35287e-06
-2.44536e-07
0.00107781
8.84656e-07
-0.0010771
4.13751e-07
-1.41677e-06
5.21172e-08
-4.63691e-07
-1.175e-06
-4.56496e-08
-5.64622e-07
6.12953e-07
1.02806e-06
0.00107688
8.83776e-07
-0.00107617
4.14639e-07
-1.45271e-06
5.78433e-08
-4.69051e-07
-1.17484e-06
-4.5621e-08
-5.6443e-07
6.12916e-07
1.32642e-06
6.69746e-07
0.00107373
-6.0575e-07
8.77655e-07
-9.3862e-08
4.1354e-07
-7.55348e-07
-2.47109e-07
-1.35026e-06
8.84451e-07
-0.00107684
4.13784e-07
-1.41946e-06
5.22574e-08
-4.63542e-07
-1.17233e-06
-4.80899e-08
6.10121e-07
-5.61913e-07
1.02279e-06
0.00107668
8.83783e-07
-0.00107597
4.14587e-07
-1.44736e-06
5.20722e-08
-4.63503e-07
-1.17221e-06
-4.80781e-08
-5.61749e-07
6.10176e-07
-6.50505e-07
-6.57717e-07
0.000262234
-9.89004e-07
0.000265032
-0.000263015
-3.63019e-09
3.3577e-09
1.3278e-06
6.68779e-07
0.00107477
-6.03482e-07
8.4395e-07
-9.64035e-08
4.10911e-07
-7.55623e-07
-2.47136e-07
-1.34787e-06
8.84458e-07
-0.0010765
4.13974e-07
-1.41405e-06
4.93717e-08
-4.60815e-07
-1.17207e-06
-4.56553e-08
6.10117e-07
-5.64439e-07
9.89164e-07
0.00107772
8.84642e-07
-0.00107701
4.13818e-07
-1.41426e-06
4.92775e-08
-4.61034e-07
-1.16971e-06
-4.80047e-08
-5.61901e-07
6.07654e-07
-0.000263027
-8.60507e-10
3.36318e-09
1.3973e-06
1.36145e-06
-4.18686e-07
-4.24159e-07
0.000263137
-1.17699e-06
-1.14103e-06
0.000265178
-0.000263214
1.74474e-07
1.79579e-07
3.30951e-07
0.00107724
-4.08372e-07
1.0783e-06
1.07656e-07
6.757e-07
-4.70039e-07
-1.09865e-06
2.48672e-08
-1.40271e-06
6.92402e-07
3.31019e-07
0.00107766
-4.11247e-07
1.08372e-06
1.10398e-07
6.83885e-07
-4.75619e-07
-1.10702e-06
3.0693e-08
0.00107778
2.54366e-07
-0.00107769
1.39754e-07
-1.28499e-06
2.01663e-07
-3.01222e-07
-9.50519e-07
1.73683e-07
-3.06058e-07
8.10293e-07
1.18238e-06
0.0010782
2.54527e-07
-0.00107811
1.39877e-07
-1.29043e-06
2.0442e-07
-3.0404e-07
-9.58846e-07
1.79165e-07
-3.11594e-07
8.1852e-07
-4.2158e-07
-4.26313e-07
0.000263162
-1.14363e-06
0.000265207
-0.00026324
1.77167e-07
1.81976e-07
3.30161e-07
0.00107828
-4.05816e-07
1.04221e-06
1.05032e-07
6.78363e-07
-4.7563e-07
-1.10159e-06
3.06925e-08
-1.39735e-06
6.92453e-07
3.31008e-07
0.00107735
-4.11181e-07
1.07836e-06
1.10452e-07
6.78315e-07
-4.75468e-07
-1.10147e-06
3.07097e-08
0.00107881
2.54834e-07
-0.00107873
1.3927e-07
-1.24897e-06
1.99141e-07
-2.98561e-07
-9.53369e-07
1.79128e-07
-3.11615e-07
8.13047e-07
1.17705e-06
0.00107788
2.54553e-07
-0.00107779
1.39782e-07
-1.28504e-06
2.04439e-07
-3.04004e-07
-9.53281e-07
1.7917e-07
-3.11495e-07
8.12975e-07
6.92448e-07
3.30987e-07
0.00107714
-4.05637e-07
1.07308e-06
1.04888e-07
6.75617e-07
-4.72723e-07
2.77412e-08
-1.0988e-06
2.54769e-07
-0.00107846
1.39375e-07
-1.25163e-06
1.99106e-07
-2.98559e-07
-9.50652e-07
1.76417e-07
8.10306e-07
-3.08861e-07
1.17169e-06
0.00107768
2.54528e-07
-0.00107759
1.39801e-07
-1.27968e-06
1.98945e-07
-2.98484e-07
-9.50598e-07
1.76329e-07
-3.0875e-07
8.10285e-07
-4.19049e-07
-4.26265e-07
0.000263121
-1.13821e-06
0.000265158
-0.000263199
1.74584e-07
1.81985e-07
6.9322e-07
3.30346e-07
0.00107819
-4.03185e-07
1.03956e-06
1.0219e-07
6.73112e-07
-4.72874e-07
2.78178e-08
-1.09631e-06
2.54732e-07
-0.00107812
1.39462e-07
-1.24628e-06
1.96333e-07
-2.95865e-07
-9.50427e-07
1.79073e-07
8.10223e-07
-3.11438e-07
1.13833e-06
0.00107872
2.54843e-07
-0.00107864
1.39456e-07
-1.24637e-06
1.96389e-07
-2.95923e-07
-9.48081e-07
1.76437e-07
-3.08876e-07
8.07773e-07
-0.000263212
1.7697e-07
1.82162e-07
1.26325e-06
1.22723e-06
-2.58649e-07
-2.63983e-07
0.00026321
-1.22233e-06
-1.18635e-06
0.000265158
-0.000263193
2.19128e-07
2.24358e-07
9.27788e-08
0.00107782
-2.81456e-07
1.196e-06
2.18865e-07
8.35973e-07
-2.77804e-07
-9.20713e-07
1.97951e-07
-1.26869e-06
1.62775e-07
9.28938e-08
0.00107824
-2.84277e-07
1.20139e-06
2.21627e-07
8.44183e-07
-2.83333e-07
-9.29036e-07
2.03353e-07
0.00107783
2.96269e-08
-0.00107783
1.94451e-08
-1.23166e-06
2.42418e-07
-2.53512e-07
-8.81533e-07
2.27703e-07
-2.42275e-07
8.68387e-07
1.22775e-06
0.00107826
2.97068e-08
-0.00107826
1.94793e-08
-1.23707e-06
2.45211e-07
-2.56299e-07
-8.89805e-07
2.33161e-07
-2.47767e-07
8.76649e-07
-2.6151e-07
-2.66328e-07
0.000263236
-1.18899e-06
0.000265187
-0.000263219
2.21911e-07
2.26735e-07
9.24279e-08
0.00107885
-2.788e-07
1.16003e-06
2.16336e-07
8.38738e-07
-2.83331e-07
-9.2352e-07
2.03404e-07
-1.26331e-06
1.62753e-07
9.28166e-08
0.00107792
-2.84247e-07
1.19605e-06
2.21647e-07
8.38658e-07
-2.83216e-07
-9.23455e-07
2.03372e-07
0.00107887
2.96051e-08
-0.00107887
1.92916e-08
-1.19566e-06
2.39856e-07
-2.50889e-07
-8.84285e-07
2.33212e-07
-2.47739e-07
8.71223e-07
1.22238e-06
0.00107794
2.96604e-08
-0.00107794
1.94583e-08
-1.23172e-06
2.45198e-07
-2.56299e-07
-8.84252e-07
2.33142e-07
-2.47682e-07
8.71099e-07
1.62739e-07
9.28292e-08
0.00107772
-2.78718e-07
1.19069e-06
2.16145e-07
8.35975e-07
-2.80498e-07
2.00584e-07
-9.2078e-07
2.96022e-08
-0.0010786
1.93072e-08
-1.1983e-06
2.39856e-07
-2.50877e-07
-8.81582e-07
2.30493e-07
8.68471e-07
-2.44993e-07
1.21701e-06
0.00107773
2.9701e-08
-0.00107773
1.94711e-08
-1.22636e-06
2.39693e-07
-2.50777e-07
-8.81576e-07
2.30359e-07
-2.44953e-07
8.68404e-07
-2.5894e-07
-2.66286e-07
0.000263195
-1.18359e-06
0.000265138
-0.000263178
2.19352e-07
2.2669e-07
1.62908e-07
9.25676e-08
0.00107876
-2.76145e-07
1.15735e-06
2.13605e-07
8.33473e-07
-2.8061e-07
2.00707e-07
-9.18253e-07
2.95893e-08
-0.00107826
1.9286e-08
-1.1929e-06
2.37116e-07
-2.48126e-07
-8.814e-07
2.33117e-07
8.68353e-07
-2.47632e-07
1.18369e-06
0.00107878
2.96224e-08
-0.00107878
1.93346e-08
-1.19303e-06
2.37162e-07
-2.48193e-07
-8.79026e-07
2.30507e-07
-2.45034e-07
8.65935e-07
-0.000263191
2.21655e-07
2.26916e-07
1.22835e-06
1.19235e-06
-2.2375e-07
-2.28977e-07
0.00026319
-1.22983e-06
-1.19118e-06
0.000265157
-0.000263188
2.23091e-07
2.28328e-07
1.11068e-08
0.00107783
-2.50626e-07
1.2276e-06
2.47471e-07
8.7139e-07
-2.38915e-07
-8.77797e-07
2.30473e-07
-1.23375e-06
1.48614e-08
1.10783e-08
0.00107825
-2.53397e-07
1.23037e-06
2.47552e-07
8.79668e-07
-2.4439e-07
-8.86045e-07
2.35941e-07
0.00107782
6.67547e-10
-0.00107782
3.30889e-09
-1.22812e-06
2.49445e-07
-2.50861e-07
-8.74524e-07
2.32904e-07
-2.35962e-07
8.74003e-07
1.2326e-06
0.00107825
6.5351e-10
-0.00107825
3.23336e-09
-1.23086e-06
2.49535e-07
-2.50903e-07
-8.80107e-07
2.38387e-07
-2.41418e-07
8.79621e-07
-2.2652e-07
-2.31332e-07
0.000263216
-1.19384e-06
0.000265183
-0.000263214
2.25875e-07
2.30696e-07
1.09669e-08
0.00107887
-2.48006e-07
1.18896e-06
2.42184e-07
8.74243e-07
-2.44366e-07
-8.80532e-07
2.35997e-07
-1.22841e-06
1.48296e-08
1.10921e-08
0.00107793
-2.53405e-07
1.225e-06
2.47537e-07
8.74113e-07
-2.44313e-07
-8.80506e-07
2.35922e-07
0.00107886
5.34468e-10
-0.00107886
3.16633e-09
-1.18948e-06
2.44146e-07
-2.45535e-07
-8.77231e-07
2.38447e-07
-2.41379e-07
8.76874e-07
1.22723e-06
0.00107793
6.28046e-10
-0.00107793
3.23423e-09
-1.22551e-06
2.4952e-07
-2.50906e-07
-8.77217e-07
2.38363e-07
-2.41338e-07
8.76735e-07
1.48598e-08
1.10995e-08
0.00107773
-2.47881e-07
1.21963e-06
2.42032e-07
8.71425e-07
-2.41575e-07
2.33149e-07
-8.77823e-07
5.17e-10
-0.0010786
3.13992e-09
-1.19209e-06
2.44172e-07
-2.45485e-07
-8.74534e-07
2.35714e-07
8.7412e-07
-2.38652e-07
1.22186e-06
0.00107773
6.30719e-10
-0.00107773
3.25488e-09
-1.22015e-06
2.44014e-07
-2.45385e-07
-8.74538e-07
2.35595e-07
-2.38594e-07
8.74048e-07
-2.2396e-07
-2.31319e-07
0.000263175
-1.18844e-06
0.000265134
-0.000263172
2.23308e-07
2.3066e-07
1.47619e-08
1.09783e-08
0.00107878
-2.45297e-07
1.18631e-06
2.39502e-07
8.68959e-07
-2.41657e-07
2.33296e-07
-8.75267e-07
5.15541e-10
-0.00107826
3.10569e-09
-1.18669e-06
2.41434e-07
-2.42737e-07
-8.74353e-07
2.38345e-07
8.74003e-07
-2.4128e-07
1.18855e-06
0.00107877
5.26975e-10
-0.00107877
3.13763e-09
-1.18681e-06
2.41484e-07
-2.42801e-07
-8.71977e-07
2.35739e-07
-2.38679e-07
8.71582e-07
-0.000263185
2.25619e-07
2.30883e-07
1.22795e-06
1.18931e-06
-2.21145e-07
-2.26319e-07
0.000263187
-1.23005e-06
-1.19141e-06
0.000265157
-0.000263187
2.23259e-07
2.28471e-07
2.78078e-09
0.00107782
-2.50712e-07
1.22996e-06
2.49593e-07
8.74157e-07
-2.35776e-07
-8.74333e-07
2.35748e-07
-1.2307e-06
-3.2752e-10
2.72329e-09
0.00107825
-2.50766e-07
1.23273e-06
2.49647e-07
8.79771e-07
-2.4125e-07
-8.7992e-07
2.38526e-07
0.00107782
-1.16538e-09
-0.00107782
2.42698e-09
-1.22784e-06
2.49668e-07
-2.50635e-07
-8.74204e-07
2.35834e-07
-2.38347e-07
8.74251e-07
1.23281e-06
0.00107825
-1.16062e-09
-0.00107825
2.40601e-09
-1.23059e-06
2.49718e-07
-2.5067e-07
-8.79799e-07
2.38604e-07
-2.41137e-07
8.79858e-07
-2.23868e-07
-2.28681e-07
0.000263213
-1.19406e-06
0.000265183
-0.000263213
2.26016e-07
2.30838e-07
2.65568e-09
0.00107886
-2.45388e-07
1.19131e-06
2.44273e-07
8.77023e-07
-2.41212e-07
-8.77049e-07
2.38586e-07
-1.22535e-06
-3.56664e-10
2.73861e-09
0.00107793
-2.50772e-07
1.22736e-06
2.49631e-07
8.76882e-07
-2.41178e-07
-8.77037e-07
2.38497e-07
0.00107886
-1.30681e-09
-0.00107886
2.29051e-09
-1.18918e-06
2.44356e-07
-2.45274e-07
-8.76927e-07
2.38663e-07
-2.41102e-07
8.77108e-07
1.22745e-06
0.00107793
-1.15954e-09
-0.00107793
2.40225e-09
-1.22524e-06
2.49708e-07
-2.50674e-07
-8.76918e-07
2.38579e-07
-2.4107e-07
8.7697e-07
-3.65211e-10
2.74463e-09
0.00107773
-2.45247e-07
1.22199e-06
2.44128e-07
8.742e-07
-2.38427e-07
2.35737e-07
-8.74353e-07
-1.31177e-09
-0.0010786
2.30139e-09
-1.19181e-06
2.4436e-07
-2.45246e-07
-8.74227e-07
2.35935e-07
8.74358e-07
-2.38376e-07
1.22208e-06
0.00107773
-1.1699e-09
-0.00107773
2.41033e-09
-1.21988e-06
2.44204e-07
-2.4515e-07
-8.74235e-07
2.35816e-07
-2.3832e-07
8.74286e-07
-2.21312e-07
-2.28661e-07
0.000263172
-1.18866e-06
0.000265134
-0.000263172
2.23452e-07
2.30804e-07
-5.09716e-10
2.63706e-09
0.00107877
-2.42661e-07
1.18868e-06
2.416e-07
8.71736e-07
-2.3851e-07
2.35883e-07
-8.71791e-07
-1.31178e-09
-0.00107826
2.27165e-09
-1.18642e-06
2.41623e-07
-2.42504e-07
-8.7405e-07
2.38567e-07
8.74242e-07
-2.41006e-07
1.18876e-06
0.00107877
-1.30298e-09
-0.00107877
2.29343e-09
-1.18654e-06
2.41677e-07
-2.42564e-07
-8.71672e-07
2.35961e-07
-2.38404e-07
8.71822e-07
-0.000263185
2.25766e-07
2.31027e-07
1.22783e-06
1.18917e-06
-2.21041e-07
-2.2623e-07
0.000263187
-1.23005e-06
-1.19141e-06
0.000265157
-0.000263187
2.23264e-07
2.28474e-07
2.41409e-09
0.00107782
-2.50629e-07
1.23005e-06
2.49671e-07
8.74253e-07
-2.38341e-07
-8.74201e-07
2.35835e-07
-1.23058e-06
-1.17001e-09
2.38733e-09
0.00107825
-2.50666e-07
1.23281e-06
2.49718e-07
8.79854e-07
-2.41137e-07
-8.79799e-07
2.38597e-07
0.00107782
-1.21346e-09
-0.00107782
2.41511e-09
-1.22783e-06
2.49669e-07
-2.50631e-07
-8.742e-07
2.35843e-07
-2.38336e-07
8.74256e-07
1.23282e-06
0.00107825
-1.2157e-09
-0.00107825
2.38989e-09
-1.23058e-06
2.4973e-07
-2.50671e-07
-8.79801e-07
2.38616e-07
-2.41135e-07
8.79865e-07
-2.23775e-07
-2.2859e-07
0.000263213
-1.19406e-06
0.000265183
-0.000263213
2.26021e-07
2.30849e-07
2.28434e-09
0.00107886
-2.45269e-07
1.19141e-06
2.44357e-07
8.77107e-07
-2.41103e-07
-8.76929e-07
2.38659e-07
-1.22523e-06
-1.19637e-09
2.39468e-09
0.00107793
-2.5067e-07
1.22745e-06
2.49709e-07
8.7697e-07
-2.41069e-07
-8.76915e-07
2.38575e-07
0.00107886
-1.36167e-09
-0.00107886
2.2799e-09
-1.18917e-06
2.4436e-07
-2.45268e-07
-8.76923e-07
2.38663e-07
-2.41097e-07
8.77111e-07
1.22745e-06
0.00107793
-1.21285e-09
-0.00107793
2.37592e-09
-1.22523e-06
2.49712e-07
-2.50667e-07
-8.76913e-07
2.38578e-07
-2.41063e-07
8.7697e-07
-1.21058e-09
2.39369e-09
0.00107773
-2.45144e-07
1.22208e-06
2.44206e-07
8.74291e-07
-2.38315e-07
2.35817e-07
-8.74229e-07
-1.36717e-09
-0.0010786
2.29057e-09
-1.19181e-06
2.44367e-07
-2.45248e-07
-8.74222e-07
2.3594e-07
8.74364e-07
-2.38376e-07
1.22208e-06
0.00107773
-1.22589e-09
-0.00107773
2.38861e-09
-1.21987e-06
2.44207e-07
-2.45145e-07
-8.7423e-07
2.35815e-07
-2.38313e-07
8.74287e-07
-2.21223e-07
-2.28571e-07
0.000263172
-1.18866e-06
0.000265134
-0.000263172
2.23454e-07
2.30807e-07
-1.34224e-09
2.28017e-09
0.00107877
-2.42558e-07
1.18877e-06
2.41678e-07
8.71826e-07
-2.38399e-07
2.35962e-07
-8.71666e-07
-1.37449e-09
-0.00107826
2.25312e-09
-1.18641e-06
2.41626e-07
-2.42498e-07
-8.74043e-07
2.38569e-07
8.74246e-07
-2.41e-07
1.18877e-06
0.00107877
-1.36182e-09
-0.00107877
2.26967e-09
-1.18653e-06
2.41681e-07
-2.42557e-07
-8.71666e-07
2.3596e-07
-2.38397e-07
8.71822e-07
-0.000263185
2.25769e-07
2.3103e-07
1.22783e-06
1.18918e-06
-2.21046e-07
-2.26235e-07
0.000263187
-1.23004e-06
-1.19138e-06
0.000265157
-0.000263187
2.23199e-07
2.28466e-07
2.42177e-09
0.00107782
-2.50638e-07
1.23005e-06
2.49669e-07
8.74255e-07
-2.38347e-07
-8.74207e-07
2.3584e-07
-1.23058e-06
-1.17033e-09
-2.88469e-09
0.00107826
-2.50667e-07
1.23282e-06
2.49729e-07
8.79824e-07
-2.4114e-07
-8.79809e-07
2.38604e-07
0.00107782
-1.10969e-09
-0.00107782
2.49667e-09
-1.22784e-06
2.49633e-07
-2.50659e-07
-8.7423e-07
2.3578e-07
-2.38389e-07
8.74217e-07
1.23283e-06
0.00107825
-1.20313e-09
-0.00107826
7.47665e-09
-1.23058e-06
2.49735e-07
-2.50662e-07
-8.79754e-07
2.38618e-07
-2.41124e-07
8.7987e-07
-2.2378e-07
-2.28593e-07
0.000263213
-1.19406e-06
0.000265183
-0.000263213
2.26015e-07
2.30852e-07
2.2951e-09
0.00107886
-2.45276e-07
1.19141e-06
2.44357e-07
8.77113e-07
-2.41107e-07
-8.76931e-07
2.38663e-07
-1.22523e-06
-1.21371e-09
2.3787e-09
0.00107793
-2.50671e-07
1.22746e-06
2.49716e-07
8.76973e-07
-2.41071e-07
-8.76918e-07
2.38579e-07
0.00107886
-1.34519e-09
-0.00107886
2.34194e-09
-1.1892e-06
2.44315e-07
-2.45302e-07
-8.76916e-07
2.38661e-07
-2.4109e-07
8.77113e-07
1.22745e-06
0.00107793
-1.21234e-09
-0.00107793
2.36035e-09
-1.22523e-06
2.49711e-07
-2.50661e-07
-8.76908e-07
2.38572e-07
-2.41056e-07
8.76966e-07
-1.23115e-09
2.38599e-09
0.00107773
-2.45147e-07
1.22208e-06
2.44211e-07
8.74294e-07
-2.38317e-07
2.35822e-07
-8.74231e-07
-1.38791e-09
-0.0010786
2.29452e-09
-1.19181e-06
2.41638e-07
-2.42523e-07
-8.74215e-07
2.35912e-07
8.74362e-07
-2.3834e-07
1.22208e-06
0.00107773
-1.2354e-09
-0.00107773
2.38429e-09
-1.21987e-06
2.44205e-07
-2.45139e-07
-8.74224e-07
2.35809e-07
-2.38305e-07
8.74284e-07
-2.21228e-07
-2.28574e-07
0.000263172
-1.18866e-06
0.000265134
-0.000263172
2.23449e-07
2.30804e-07
-1.36362e-09
2.2711e-09
0.00107877
-2.4256e-07
1.18877e-06
2.41685e-07
8.71829e-07
-2.38401e-07
2.35966e-07
-8.71668e-07
-1.38623e-09
-0.00107826
2.25551e-09
-1.18641e-06
2.41623e-07
-2.42495e-07
-8.74036e-07
2.38565e-07
8.74243e-07
-2.40992e-07
1.18877e-06
0.00107877
-1.37118e-09
-0.00107877
2.2646e-09
-1.18653e-06
2.41678e-07
-2.42552e-07
-8.7166e-07
2.35955e-07