/*--------------------------------*- C++ -*----------------------------------*\
| =========                 |                                                 |
| \\      /  F ield         | OpenFOAM: The Open Source CFD Toolbox           |
|  \\    /   O peration     | Version:  2206                                  |
|   \\  /    A nd           | Website:  www.openfoam.com                      |
|    \\/     M anipulation  |                                                 |
\*---------------------------------------------------------------------------*/
FoamFile
{
    version     2.0;
    format      ascii;
    arch        "LSB;label=32;scalar=64";
    class       volScalarField;
    location    "8.5";
    object      epsilon;
}
// * * * * * * * * * * * * * * * * * * * * * * * * * * * * * * * * * * * * * //

dimensions      [0 2 -3 0 0 0 0];

internalField   nonuniform List<scalar> 
28335
(
4.32228e-07
4.37254e-07
4.37256e-07
4.4513e-07
4.32119e-07
4.37159e-07
4.37161e-07
4.45083e-07
4.31965e-07
4.37022e-07
4.37024e-07
4.4494e-07
4.31963e-07
4.3702e-07
4.37022e-07
4.44949e-07
4.31963e-07
4.3702e-07
4.37022e-07
4.44947e-07
4.31963e-07
4.3702e-07
4.37022e-07
4.44947e-07
4.31963e-07
4.3702e-07
4.37022e-07
4.44947e-07
4.31963e-07
4.3702e-07
4.37022e-07
4.44947e-07
4.31963e-07
4.3702e-07
4.37022e-07
4.44947e-07
4.31963e-07
4.3702e-07
4.37022e-07
4.44947e-07
4.31963e-07
4.3702e-07
4.37022e-07
4.44947e-07
4.31963e-07
4.3702e-07
4.37022e-07
4.44947e-07
4.31963e-07
4.3702e-07
4.37022e-07
4.44947e-07
4.31963e-07
4.3702e-07
4.37022e-07
4.44947e-07
4.31963e-07
4.3702e-07
4.37022e-07
4.44947e-07
4.31963e-07
4.3702e-07
4.37022e-07
4.44947e-07
4.31963e-07
4.3702e-07
4.37022e-07
4.44947e-07
4.45053e-07
4.3726e-07
4.37261e-07
4.45051e-07
4.37258e-07
4.37264e-07
4.37255e-07
4.37261e-07
4.45056e-07
4.37257e-07
4.37258e-07
4.45053e-07
4.45133e-07
4.45027e-07
4.3726e-07
4.3726e-07
4.37228e-07
4.37228e-07
4.4513e-07
4.45024e-07
4.37257e-07
4.37263e-07
4.37225e-07
4.37231e-07
4.3726e-07
4.37222e-07
4.37227e-07
4.45135e-07
4.45029e-07
4.37258e-07
4.37225e-07
4.37225e-07
4.45026e-07
4.45088e-07
4.44869e-07
4.37166e-07
4.37166e-07
4.37033e-07
4.37034e-07
4.45085e-07
4.44866e-07
4.37164e-07
4.37169e-07
4.37031e-07
4.37037e-07
4.37165e-07
4.37029e-07
4.37034e-07
4.4509e-07
4.44871e-07
4.37163e-07
4.37031e-07
4.37031e-07
4.44869e-07
4.44943e-07
4.44871e-07
4.37029e-07
4.3703e-07
4.37025e-07
4.37025e-07
4.4494e-07
4.44868e-07
4.37027e-07
4.37033e-07
4.37022e-07
4.37028e-07
4.37029e-07
4.37021e-07
4.37025e-07
4.44945e-07
4.44873e-07
4.37027e-07
4.37023e-07
4.37023e-07
4.44874e-07
4.4495e-07
4.44869e-07
4.37028e-07
4.37029e-07
4.37025e-07
4.37026e-07
4.44947e-07
4.44866e-07
4.37026e-07
4.37032e-07
4.37023e-07
4.37029e-07
4.37028e-07
4.3702e-07
4.37026e-07
4.44952e-07
4.44871e-07
4.37026e-07
4.37022e-07
4.37023e-07
4.44872e-07
4.44948e-07
4.44869e-07
4.37028e-07
4.37028e-07
4.37025e-07
4.37026e-07
4.44945e-07
4.44866e-07
4.37025e-07
4.37031e-07
4.37023e-07
4.37029e-07
4.37028e-07
4.3702e-07
4.37026e-07
4.4495e-07
4.44872e-07
4.37026e-07
4.37022e-07
4.37023e-07
4.44871e-07
4.44948e-07
4.44869e-07
4.37028e-07
4.37028e-07
4.37025e-07
4.37026e-07
4.44945e-07
4.44866e-07
4.37025e-07
4.37031e-07
4.37023e-07
4.37029e-07
4.37028e-07
4.3702e-07
4.37026e-07
4.4495e-07
4.44872e-07
4.37026e-07
4.37022e-07
4.37023e-07
4.44871e-07
4.44948e-07
4.44869e-07
4.37028e-07
4.37028e-07
4.37025e-07
4.37026e-07
4.44945e-07
4.44866e-07
4.37025e-07
4.37031e-07
4.37023e-07
4.37029e-07
4.37028e-07
4.3702e-07
4.37026e-07
4.4495e-07
4.44871e-07
4.37026e-07
4.37022e-07
4.37023e-07
4.44871e-07
4.44947e-07
4.44869e-07
4.37028e-07
4.37028e-07
4.37025e-07
4.37026e-07
4.44945e-07
4.44866e-07
4.37026e-07
4.37031e-07
4.37023e-07
4.37029e-07
4.37028e-07
4.3702e-07
4.37026e-07
4.4495e-07
4.44871e-07
4.37026e-07
4.37022e-07
4.37023e-07
4.44871e-07
4.44947e-07
4.44869e-07
4.37028e-07
4.37029e-07
4.37025e-07
4.37026e-07
4.44945e-07
4.44866e-07
4.37026e-07
4.37031e-07
4.37023e-07
4.37029e-07
4.37028e-07
4.3702e-07
4.37026e-07
4.4495e-07
4.44871e-07
4.37026e-07
4.37022e-07
4.37023e-07
4.44871e-07
4.44947e-07
4.44869e-07
4.37028e-07
4.37028e-07
4.37025e-07
4.37026e-07
4.44945e-07
4.44866e-07
4.37026e-07
4.37031e-07
4.37023e-07
4.37029e-07
4.37028e-07
4.3702e-07
4.37026e-07
4.4495e-07
4.44871e-07
4.37026e-07
4.37022e-07
4.37023e-07
4.44871e-07
4.44947e-07
4.44869e-07
4.37028e-07
4.37028e-07
4.37025e-07
4.37026e-07
4.44945e-07
4.44866e-07
4.37025e-07
4.37031e-07
4.37023e-07
4.37029e-07
4.37028e-07
4.3702e-07
4.37026e-07
4.4495e-07
4.44872e-07
4.37026e-07
4.37022e-07
4.37023e-07
4.44871e-07
4.44947e-07
4.44869e-07
4.37028e-07
4.37028e-07
4.37025e-07
4.37026e-07
4.44945e-07
4.44866e-07
4.37025e-07
4.37031e-07
4.37023e-07
4.37029e-07
4.37028e-07
4.3702e-07
4.37026e-07
4.4495e-07
4.44872e-07
4.37026e-07
4.37022e-07
4.37023e-07
4.44871e-07
4.44947e-07
4.44869e-07
4.37028e-07
4.37028e-07
4.37025e-07
4.37026e-07
4.44945e-07
4.44866e-07
4.37026e-07
4.37031e-07
4.37023e-07
4.37029e-07
4.37028e-07
4.3702e-07
4.37026e-07
4.4495e-07
4.44871e-07
4.37026e-07
4.37022e-07
4.37023e-07
4.44871e-07
4.44947e-07
4.44869e-07
4.37028e-07
4.37028e-07
4.37025e-07
4.37026e-07
4.44945e-07
4.44866e-07
4.37025e-07
4.37031e-07
4.37023e-07
4.37029e-07
4.37028e-07
4.3702e-07
4.37026e-07
4.4495e-07
4.44871e-07
4.37026e-07
4.37022e-07
4.37023e-07
4.44871e-07
4.44948e-07
4.44869e-07
4.37028e-07
4.37028e-07
4.37025e-07
4.37026e-07
4.44945e-07
4.44866e-07
4.37026e-07
4.37031e-07
4.37023e-07
4.37029e-07
4.37028e-07
4.3702e-07
4.37026e-07
4.4495e-07
4.44871e-07
4.37026e-07
4.37022e-07
4.37023e-07
4.44871e-07
4.44947e-07
4.44869e-07
4.37028e-07
4.37028e-07
4.37025e-07
4.37026e-07
4.44945e-07
4.44866e-07
4.37026e-07
4.37031e-07
4.37023e-07
4.37029e-07
4.37028e-07
4.3702e-07
4.37026e-07
4.4495e-07
4.44872e-07
4.37026e-07
4.37022e-07
4.37023e-07
4.44871e-07
4.44947e-07
4.37028e-07
4.37028e-07
4.44945e-07
4.37026e-07
4.3703e-07
4.37027e-07
4.4495e-07
4.37025e-07
1.26123e-06
6.42226e-06
2.25426e-05
1.26114e-06
6.42331e-06
4.32229e-07
4.3223e-07
4.3223e-07
4.3223e-07
5.58743e-07
4.37256e-07
1.05983e-06
4.33276e-07
2.2544e-05
5.58739e-07
4.37258e-07
4.33276e-07
1.05982e-06
4.45042e-07
2.06827e-06
2.06869e-06
1.26125e-06
6.42248e-06
1.2615e-06
6.42214e-06
2.25405e-05
2.25384e-05
1.26114e-06
6.42351e-06
1.26136e-06
6.42317e-06
4.32229e-07
4.32229e-07
4.32229e-07
4.32191e-07
4.32191e-07
4.32192e-07
4.32192e-07
5.58749e-07
1.06011e-06
4.33272e-07
4.37252e-07
5.58821e-07
1.05979e-06
4.3327e-07
2.25416e-05
2.25396e-05
5.58748e-07
4.33273e-07
1.06006e-06
4.37254e-07
5.58823e-07
4.3327e-07
1.05976e-06
2.06869e-06
2.0691e-06
4.45053e-07
2.0684e-06
2.06882e-06
1.26247e-06
6.42702e-06
1.26226e-06
6.42957e-06
2.25598e-05
2.25685e-05
1.26235e-06
6.42807e-06
1.26213e-06
6.43062e-06
4.32122e-07
4.32122e-07
4.32122e-07
4.31974e-07
4.31973e-07
4.31973e-07
4.31973e-07
5.58869e-07
1.06063e-06
4.33168e-07
4.37097e-07
5.58902e-07
1.0606e-06
4.331e-07
2.25619e-05
2.25698e-05
5.58871e-07
4.33168e-07
1.06058e-06
4.37099e-07
5.58908e-07
4.331e-07
1.06056e-06
2.07036e-06
2.07079e-06
4.44919e-07
2.07074e-06
2.07118e-06
1.26254e-06
6.42986e-06
1.2628e-06
6.42949e-06
2.25687e-05
2.25678e-05
1.26242e-06
6.43093e-06
1.26264e-06
6.43054e-06
4.31968e-07
4.31969e-07
4.31969e-07
4.31963e-07
4.31964e-07
4.31964e-07
4.31964e-07
5.58883e-07
1.06102e-06
4.33018e-07
4.37024e-07
5.58963e-07
1.06069e-06
4.3302e-07
2.25705e-05
2.25693e-05
5.58882e-07
4.33018e-07
1.06096e-06
4.37026e-07
5.5897e-07
4.3302e-07
1.06065e-06
2.071e-06
2.07142e-06
4.44865e-07
2.07074e-06
2.07116e-06
1.26254e-06
6.4298e-06
1.2628e-06
6.42948e-06
2.25688e-05
2.25678e-05
1.26242e-06
6.43086e-06
1.26264e-06
6.43053e-06
4.31967e-07
4.31967e-07
4.31967e-07
4.31963e-07
4.31964e-07
4.31964e-07
4.31964e-07
5.58886e-07
1.06102e-06
4.33016e-07
4.37023e-07
5.58962e-07
1.06069e-06
4.33019e-07
2.25704e-05
2.25693e-05
5.58886e-07
4.33016e-07
1.06096e-06
4.37025e-07
5.58966e-07
4.33019e-07
1.06065e-06
2.071e-06
2.07142e-06
4.44868e-07
2.07074e-06
2.07116e-06
1.26254e-06
6.4298e-06
1.2628e-06
6.42948e-06
2.25688e-05
2.25678e-05
1.26242e-06
6.43086e-06
1.26264e-06
6.43053e-06
4.31967e-07
4.31967e-07
4.31967e-07
4.31963e-07
4.31964e-07
4.31964e-07
4.31964e-07
5.58886e-07
1.06102e-06
4.33016e-07
4.37023e-07
5.58959e-07
1.06069e-06
4.3302e-07
2.25704e-05
2.25693e-05
5.58885e-07
4.33016e-07
1.06096e-06
4.37025e-07
5.58964e-07
4.3302e-07
1.06065e-06
2.07099e-06
2.07142e-06
4.44869e-07
2.07073e-06
2.07116e-06
1.26254e-06
6.4298e-06
1.2628e-06
6.42948e-06
2.25688e-05
2.25679e-05
1.26242e-06
6.43079e-06
1.26264e-06
6.43043e-06
4.31967e-07
4.31967e-07
4.31967e-07
4.31963e-07
4.31964e-07
4.31964e-07
4.31964e-07
5.58885e-07
1.06102e-06
4.33016e-07
4.37023e-07
5.58959e-07
1.06069e-06
4.33019e-07
2.25704e-05
2.25693e-05
5.58885e-07
4.33016e-07
1.06096e-06
4.37025e-07
5.58964e-07
4.3302e-07
1.06065e-06
2.07099e-06
2.07142e-06
4.44869e-07
2.07073e-06
2.07116e-06
1.26254e-06
6.4298e-06
1.2628e-06
6.42948e-06
2.25686e-05
2.25676e-05
1.26242e-06
6.43072e-06
1.26264e-06
6.43038e-06
4.31967e-07
4.31967e-07
4.31967e-07
4.31963e-07
4.31964e-07
4.31964e-07
4.31964e-07
5.58886e-07
1.06102e-06
4.33016e-07
4.37023e-07
5.58959e-07
1.06069e-06
4.3302e-07
2.25704e-05
2.25693e-05
5.58885e-07
4.33016e-07
1.06096e-06
4.37025e-07
5.58964e-07
4.33019e-07
1.06065e-06
2.07099e-06
2.07142e-06
4.44869e-07
2.07073e-06
2.07116e-06
1.26254e-06
6.4298e-06
1.2628e-06
6.42948e-06
2.25685e-05
2.25676e-05
1.26242e-06
6.4307e-06
1.26264e-06
6.43038e-06
4.31967e-07
4.31967e-07
4.31967e-07
4.31963e-07
4.31964e-07
4.31964e-07
4.31964e-07
5.58886e-07
1.06102e-06
4.33016e-07
4.37023e-07
5.58959e-07
1.06069e-06
4.33019e-07
2.25704e-05
2.25693e-05
5.58886e-07
4.33016e-07
1.06096e-06
4.37025e-07
5.58965e-07
4.3302e-07
1.06065e-06
2.07099e-06
2.07142e-06
4.44869e-07
2.07073e-06
2.07116e-06
1.26254e-06
6.4298e-06
1.2628e-06
6.42948e-06
2.25685e-05
2.25675e-05
1.26242e-06
6.4307e-06
1.26264e-06
6.43038e-06
4.31967e-07
4.31967e-07
4.31967e-07
4.31963e-07
4.31964e-07
4.31964e-07
4.31964e-07
5.58886e-07
1.06102e-06
4.33016e-07
4.37023e-07
5.58959e-07
1.06069e-06
4.33019e-07
2.25704e-05
2.25693e-05
5.58885e-07
4.33016e-07
1.06096e-06
4.37025e-07
5.58965e-07
4.33019e-07
1.06065e-06
2.07099e-06
2.07141e-06
4.44869e-07
2.07073e-06
2.07116e-06
1.26254e-06
6.4298e-06
1.2628e-06
6.42948e-06
2.25685e-05
2.25675e-05
1.26242e-06
6.43071e-06
1.26264e-06
6.43038e-06
4.31967e-07
4.31967e-07
4.31967e-07
4.31963e-07
4.31964e-07
4.31964e-07
4.31964e-07
5.58886e-07
1.06102e-06
4.33016e-07
4.37023e-07
5.58959e-07
1.06069e-06
4.3302e-07
2.25704e-05
2.25693e-05
5.58886e-07
4.33016e-07
1.06096e-06
4.37025e-07
5.58965e-07
4.3302e-07
1.06065e-06
2.07099e-06
2.07142e-06
4.44869e-07
2.07073e-06
2.07116e-06
1.26254e-06
6.4298e-06
1.2628e-06
6.42948e-06
2.25685e-05
2.25675e-05
1.26242e-06
6.4307e-06
1.26264e-06
6.43038e-06
4.31967e-07
4.31967e-07
4.31967e-07
4.31963e-07
4.31964e-07
4.31964e-07
4.31964e-07
5.58886e-07
1.06102e-06
4.33016e-07
4.37023e-07
5.58959e-07
1.06069e-06
4.33019e-07
2.25704e-05
2.25693e-05
5.58886e-07
4.33016e-07
1.06096e-06
4.37025e-07
5.58965e-07
4.33019e-07
1.06065e-06
2.07099e-06
2.07141e-06
4.44869e-07
2.07073e-06
2.07116e-06
1.26254e-06
6.4298e-06
1.2628e-06
6.42948e-06
2.25685e-05
2.25675e-05
1.26242e-06
6.43071e-06
1.26264e-06
6.43038e-06
4.31967e-07
4.31967e-07
4.31967e-07
4.31963e-07
4.31964e-07
4.31964e-07
4.31964e-07
5.58885e-07
1.06102e-06
4.33016e-07
4.37023e-07
5.58959e-07
1.06069e-06
4.3302e-07
2.25704e-05
2.25693e-05
5.58892e-07
4.33016e-07
1.06096e-06
4.37025e-07
5.58968e-07
4.33019e-07
1.06065e-06
2.07099e-06
2.07142e-06
4.44869e-07
2.07073e-06
2.07116e-06
1.26254e-06
6.4298e-06
1.2628e-06
6.42948e-06
2.25685e-05
2.25675e-05
1.26242e-06
6.4307e-06
1.26264e-06
6.43038e-06
4.31967e-07
4.31967e-07
4.31967e-07
4.31963e-07
4.31964e-07
4.31964e-07
4.31964e-07
5.58886e-07
1.06102e-06
4.33016e-07
4.37023e-07
5.58959e-07
1.06069e-06
4.33019e-07
2.25704e-05
2.25693e-05
5.58901e-07
4.33016e-07
1.06096e-06
4.37025e-07
5.58977e-07
4.3302e-07
1.06065e-06
2.07099e-06
2.07142e-06
4.44869e-07
2.07073e-06
2.07116e-06
1.26254e-06
6.4298e-06
1.2628e-06
6.42948e-06
2.25685e-05
2.25675e-05
1.26242e-06
6.4307e-06
1.26264e-06
6.43038e-06
4.31967e-07
4.31967e-07
4.31967e-07
4.31963e-07
4.31964e-07
4.31964e-07
4.31964e-07
5.58886e-07
1.06102e-06
4.33016e-07
4.37023e-07
5.58959e-07
1.06069e-06
4.33019e-07
2.25704e-05
2.25693e-05
5.58903e-07
4.33016e-07
1.06096e-06
4.37025e-07
5.58983e-07
4.33019e-07
1.06065e-06
2.07099e-06
2.07142e-06
4.44869e-07
2.07073e-06
2.07116e-06
1.26254e-06
6.4298e-06
1.2628e-06
6.42948e-06
2.25685e-05
2.25675e-05
1.26242e-06
6.43071e-06
1.26264e-06
6.43038e-06
4.31967e-07
4.31967e-07
4.31967e-07
4.31963e-07
4.31964e-07
4.31964e-07
4.31964e-07
5.58886e-07
1.06102e-06
4.33016e-07
4.37023e-07
5.58958e-07
1.06069e-06
4.33019e-07
2.25704e-05
2.25693e-05
5.58902e-07
4.33016e-07
1.06096e-06
4.37025e-07
5.58979e-07
4.3302e-07
1.06065e-06
2.071e-06
2.07142e-06
4.44869e-07
2.07073e-06
2.07116e-06
1.26254e-06
6.4298e-06
1.2628e-06
6.42948e-06
2.25685e-05
2.25675e-05
1.26242e-06
6.43071e-06
1.26265e-06
6.43038e-06
4.31967e-07
4.31967e-07
4.31967e-07
4.31963e-07
4.31964e-07
4.31964e-07
4.31964e-07
5.58885e-07
1.06102e-06
4.33016e-07
4.37023e-07
5.58959e-07
1.06069e-06
4.33019e-07
2.25704e-05
2.25692e-05
5.58902e-07
4.33016e-07
1.06096e-06
4.37025e-07
5.5898e-07
4.3302e-07
1.06066e-06
2.071e-06
2.07142e-06
4.44869e-07
2.07074e-06
2.07116e-06
1.26254e-06
6.4298e-06
1.2628e-06
6.42948e-06
2.25685e-05
2.25675e-05
1.26242e-06
6.43071e-06
1.26264e-06
6.43038e-06
4.31967e-07
4.31965e-07
4.31965e-07
5.58883e-07
1.06102e-06
4.33016e-07
4.37022e-07
5.58959e-07
1.06069e-06
4.3302e-07
2.25704e-05
2.25692e-05
5.58902e-07
4.33016e-07
1.06096e-06
4.37026e-07
5.5898e-07
4.33021e-07
1.06078e-06
2.071e-06
2.07142e-06
4.44869e-07
2.07083e-06
2.07125e-06
2.25406e-05
2.25433e-05
4.45043e-07
2.06813e-06
2.0686e-06
2.25381e-05
2.25402e-05
2.25408e-05
2.25428e-05
4.45127e-07
2.06833e-06
2.0688e-06
2.06838e-06
2.06885e-06
1.26118e-06
6.42251e-06
5.58742e-07
4.37261e-07
1.05976e-06
4.33276e-07
5.58739e-07
4.37261e-07
1.05983e-06
4.33275e-07
1.26145e-06
6.42226e-06
6.42229e-06
1.26125e-06
1.2614e-06
6.42241e-06
6.42252e-06
1.2612e-06
5.58814e-07
4.37261e-07
1.05974e-06
4.33275e-07
1.06002e-06
4.33276e-07
5.5875e-07
5.58811e-07
4.37261e-07
1.05981e-06
4.33274e-07
1.0601e-06
4.33275e-07
5.58744e-07
4.45041e-07
2.06855e-06
2.06834e-06
2.25392e-05
2.25405e-05
2.25422e-05
4.45124e-07
2.06877e-06
2.06852e-06
2.06882e-06
2.06868e-06
2.2536e-05
2.2539e-05
5.58737e-07
4.37258e-07
1.0599e-06
4.33276e-07
1.26112e-06
6.42343e-06
5.58741e-07
4.37264e-07
4.33276e-07
1.06001e-06
1.26131e-06
6.42328e-06
6.42335e-06
1.26114e-06
5.5881e-07
4.37258e-07
1.0599e-06
4.33275e-07
1.06016e-06
4.33276e-07
5.58747e-07
1.26129e-06
6.42332e-06
6.42348e-06
1.26112e-06
5.58813e-07
4.37264e-07
4.33275e-07
1.05999e-06
4.33276e-07
1.0603e-06
5.58747e-07
1.2612e-06
6.42245e-06
5.58743e-07
4.37261e-07
4.33276e-07
1.05979e-06
1.2612e-06
6.423e-06
5.58813e-07
4.37255e-07
1.05979e-06
4.33273e-07
1.06011e-06
4.33274e-07
5.58745e-07
1.26141e-06
6.42232e-06
6.42249e-06
1.26122e-06
5.58813e-07
4.37261e-07
4.33275e-07
1.05976e-06
4.33275e-07
1.06005e-06
5.58747e-07
1.26141e-06
6.42288e-06
6.42301e-06
1.26122e-06
4.45045e-07
2.06897e-06
2.0682e-06
2.25422e-05
2.25413e-05
2.25439e-05
4.45129e-07
2.06917e-06
2.06839e-06
2.0693e-06
2.06845e-06
2.25397e-05
2.25418e-05
5.5874e-07
4.37259e-07
4.33276e-07
1.05988e-06
1.2611e-06
6.42311e-06
1.2611e-06
6.42331e-06
5.58814e-07
4.37257e-07
4.33274e-07
1.05977e-06
4.33274e-07
1.06007e-06
5.58743e-07
5.58815e-07
4.37259e-07
4.33275e-07
1.05985e-06
4.33275e-07
1.06015e-06
5.58745e-07
1.26128e-06
6.423e-06
6.42312e-06
1.2611e-06
1.26128e-06
6.42318e-06
6.42332e-06
1.26111e-06
2.25425e-05
2.25438e-05
4.45126e-07
2.06844e-06
2.06886e-06
2.06851e-06
2.06893e-06
2.25399e-05
2.25421e-05
2.25413e-05
2.25434e-05
2.25378e-05
2.25363e-05
2.25404e-05
2.2539e-05
2.06846e-06
2.06893e-06
4.45054e-07
2.0683e-06
2.06877e-06
2.2547e-05
2.25363e-05
2.25502e-05
2.2539e-05
4.45133e-07
2.06918e-06
2.06967e-06
2.06846e-06
2.06894e-06
1.26121e-06
6.42241e-06
1.26139e-06
6.42243e-06
5.58757e-07
1.05999e-06
4.33274e-07
4.37257e-07
5.58823e-07
1.05974e-06
4.33271e-07
5.58751e-07
1.06006e-06
4.33273e-07
4.37257e-07
5.58818e-07
1.05981e-06
4.3327e-07
1.26148e-06
6.42411e-06
6.42215e-06
1.26168e-06
1.26144e-06
6.42429e-06
6.42243e-06
1.26166e-06
5.58834e-07
4.37249e-07
1.06008e-06
4.33239e-07
1.06003e-06
4.33262e-07
5.58804e-07
5.58829e-07
4.37249e-07
1.06015e-06
4.33238e-07
1.06011e-06
4.33261e-07
5.588e-07
2.06893e-06
2.06884e-06
4.45051e-07
2.06877e-06
2.06856e-06
2.2536e-05
2.25348e-05
2.25496e-05
2.25385e-05
4.4513e-07
2.06964e-06
2.06943e-06
2.06896e-06
2.06888e-06
2.25462e-05
2.25351e-05
5.58754e-07
1.06015e-06
4.33274e-07
4.37254e-07
5.5882e-07
1.05991e-06
4.33271e-07
1.26112e-06
6.42332e-06
1.26127e-06
6.42335e-06
5.58754e-07
4.33274e-07
1.06027e-06
4.3726e-07
5.58819e-07
4.33271e-07
1.06e-06
1.26132e-06
6.42512e-06
6.42318e-06
1.26159e-06
5.58829e-07
4.37247e-07
1.06024e-06
4.33238e-07
1.06019e-06
4.33262e-07
5.58802e-07
1.26131e-06
6.42514e-06
6.42335e-06
1.26159e-06
5.58831e-07
4.37252e-07
4.33239e-07
1.06033e-06
4.33262e-07
1.06032e-06
5.58803e-07
1.26122e-06
6.42233e-06
1.2614e-06
6.42234e-06
5.58752e-07
4.33273e-07
1.06002e-06
4.37257e-07
5.58818e-07
4.3327e-07
1.05976e-06
1.26122e-06
6.42288e-06
1.26141e-06
6.4229e-06
5.58823e-07
4.37244e-07
1.06013e-06
4.33237e-07
1.06011e-06
4.33261e-07
5.58795e-07
1.26145e-06
6.42424e-06
6.42235e-06
1.26167e-06
5.58828e-07
4.37249e-07
4.33238e-07
1.06011e-06
4.33261e-07
1.06006e-06
5.58799e-07
1.26146e-06
6.42479e-06
6.42289e-06
1.26167e-06
2.06947e-06
2.06853e-06
4.45056e-07
2.06922e-06
2.06837e-06
2.25394e-05
2.25379e-05
2.25508e-05
2.254e-05
4.45135e-07
2.07006e-06
2.06925e-06
2.06952e-06
2.06853e-06
2.25486e-05
2.25379e-05
5.5875e-07
4.33274e-07
1.06011e-06
4.37255e-07
5.58821e-07
4.3327e-07
1.05986e-06
1.2611e-06
6.423e-06
1.26125e-06
6.42301e-06
1.2611e-06
6.42319e-06
1.26126e-06
6.4232e-06
5.58826e-07
4.37246e-07
4.33237e-07
1.0601e-06
4.33261e-07
1.06006e-06
5.58794e-07
5.58828e-07
4.37247e-07
4.33238e-07
1.0602e-06
4.33262e-07
1.06016e-06
5.58794e-07
1.26129e-06
6.42484e-06
6.42301e-06
1.26157e-06
1.26129e-06
6.4251e-06
6.4232e-06
1.26156e-06
2.25396e-05
2.25382e-05
2.2541e-05
2.25396e-05
4.45132e-07
2.06932e-06
2.06974e-06
2.06858e-06
2.06899e-06
2.25494e-05
2.25382e-05
2.25508e-05
2.25395e-05
2.25573e-05
2.25668e-05
2.25603e-05
2.25695e-05
2.07018e-06
2.07067e-06
4.4492e-07
2.07072e-06
2.07119e-06
2.25665e-05
2.25671e-05
2.25692e-05
2.25699e-05
4.44984e-07
2.07069e-06
2.07117e-06
2.07085e-06
2.07133e-06
1.26247e-06
6.42724e-06
1.26221e-06
6.43e-06
5.58874e-07
1.06051e-06
4.33171e-07
4.37102e-07
5.58903e-07
1.06053e-06
4.33101e-07
5.58873e-07
1.06059e-06
4.3317e-07
4.37103e-07
5.58901e-07
1.06062e-06
4.331e-07
1.26271e-06
6.42966e-06
6.42969e-06
1.26254e-06
1.2627e-06
6.43004e-06
6.43013e-06
1.26253e-06
5.58955e-07
4.37056e-07
1.06062e-06
4.33025e-07
1.06084e-06
4.3305e-07
5.58893e-07
5.58954e-07
4.37057e-07
1.0607e-06
4.33025e-07
1.06093e-06
4.3305e-07
5.58891e-07
2.07067e-06
2.07051e-06
4.44917e-07
2.07116e-06
2.07097e-06
2.25571e-05
2.25654e-05
2.25683e-05
2.25685e-05
4.44981e-07
2.07114e-06
2.07099e-06
2.07131e-06
2.07132e-06
2.25652e-05
2.25659e-05
5.58875e-07
1.06067e-06
4.3317e-07
4.371e-07
5.589e-07
1.06071e-06
4.33101e-07
1.26238e-06
6.4281e-06
1.26211e-06
6.43093e-06
5.58877e-07
4.33171e-07
1.0608e-06
4.37106e-07
5.58905e-07
4.33101e-07
1.06082e-06
1.26255e-06
6.43071e-06
6.43078e-06
1.26242e-06
5.58954e-07
4.37054e-07
1.0608e-06
4.33025e-07
1.06101e-06
4.3305e-07
5.58892e-07
1.26257e-06
6.43096e-06
6.43112e-06
1.26244e-06
5.58957e-07
4.3706e-07
4.33026e-07
1.0609e-06
4.3305e-07
1.06115e-06
5.58894e-07
1.26248e-06
6.42724e-06
1.26222e-06
6.42996e-06
5.58873e-07
4.3317e-07
1.06054e-06
4.37102e-07
5.58899e-07
4.331e-07
1.06057e-06
1.26249e-06
6.42775e-06
1.26222e-06
6.4305e-06
5.5895e-07
4.37052e-07
1.06069e-06
4.33025e-07
1.06093e-06
4.3305e-07
5.58889e-07
1.26271e-06
6.42997e-06
6.43013e-06
1.26254e-06
5.58953e-07
4.37057e-07
4.33025e-07
1.06066e-06
4.3305e-07
1.06088e-06
5.58893e-07
1.26271e-06
6.43052e-06
6.43063e-06
1.26255e-06
2.07112e-06
2.07024e-06
4.44922e-07
2.07159e-06
2.07077e-06
2.25588e-05
2.25684e-05
2.25698e-05
2.25702e-05
4.44986e-07
2.0716e-06
2.07075e-06
2.07189e-06
2.07092e-06
2.25681e-05
2.25687e-05
5.58872e-07
4.3317e-07
1.06064e-06
4.371e-07
5.58902e-07
4.331e-07
1.06067e-06
1.26236e-06
6.4278e-06
1.2621e-06
6.4306e-06
1.26237e-06
6.42805e-06
1.26209e-06
6.43082e-06
5.58956e-07
4.37054e-07
4.33026e-07
1.06065e-06
4.33051e-07
1.06087e-06
5.58891e-07
5.58958e-07
4.37054e-07
4.33026e-07
1.06076e-06
4.3305e-07
1.06098e-06
5.58894e-07
1.26256e-06
6.43063e-06
6.43074e-06
1.26242e-06
1.26256e-06
6.43084e-06
6.43095e-06
1.26243e-06
2.25595e-05
2.25686e-05
2.25609e-05
2.25699e-05
4.44984e-07
2.07076e-06
2.07118e-06
2.07091e-06
2.07133e-06
2.25683e-05
2.2569e-05
2.25697e-05
2.25703e-05
2.25665e-05
2.25664e-05
2.25692e-05
2.25691e-05
2.07081e-06
2.07129e-06
4.44864e-07
2.07068e-06
2.07115e-06
2.25663e-05
2.25664e-05
2.25689e-05
2.25691e-05
4.44946e-07
2.07067e-06
2.07115e-06
2.07081e-06
2.07129e-06
1.26253e-06
6.43003e-06
1.26273e-06
6.42997e-06
5.58884e-07
1.06089e-06
4.33021e-07
4.37028e-07
5.58964e-07
1.06063e-06
4.3302e-07
5.58883e-07
1.06098e-06
4.33021e-07
4.37028e-07
5.58963e-07
1.06071e-06
4.3302e-07
1.26273e-06
6.42957e-06
6.42949e-06
1.26254e-06
1.26272e-06
6.42997e-06
6.42998e-06
1.26253e-06
5.58954e-07
4.37025e-07
1.06063e-06
4.33017e-07
1.06089e-06
4.33017e-07
5.58889e-07
5.58953e-07
4.37025e-07
1.06071e-06
4.33017e-07
1.06098e-06
4.33017e-07
5.58887e-07
2.07128e-06
2.07125e-06
4.44861e-07
2.07111e-06
2.07093e-06
2.25652e-05
2.2565e-05
2.25683e-05
2.25678e-05
4.44943e-07
2.07112e-06
2.07097e-06
2.07126e-06
2.07122e-06
2.25652e-05
2.2565e-05
5.58879e-07
1.06106e-06
4.33021e-07
4.37025e-07
5.58961e-07
1.0608e-06
4.3302e-07
1.26244e-06
6.43096e-06
1.2626e-06
6.43088e-06
5.58884e-07
4.33021e-07
1.0612e-06
4.37031e-07
5.58964e-07
4.3302e-07
1.06091e-06
1.26258e-06
6.43061e-06
6.43055e-06
1.26243e-06
5.58948e-07
4.37022e-07
1.0608e-06
4.33016e-07
1.06106e-06
4.33016e-07
5.58885e-07
1.2626e-06
6.43087e-06
6.43088e-06
1.26244e-06
5.58953e-07
4.37028e-07
4.33017e-07
1.06091e-06
4.33017e-07
1.0612e-06
5.58889e-07
1.26255e-06
6.42997e-06
1.26274e-06
6.42989e-06
5.58885e-07
4.33021e-07
1.06093e-06
4.37028e-07
5.58963e-07
4.33019e-07
1.06066e-06
1.26255e-06
6.43052e-06
1.26274e-06
6.43046e-06
5.58952e-07
4.37023e-07
1.06069e-06
4.33017e-07
1.06098e-06
4.33019e-07
5.58885e-07
1.26274e-06
6.42989e-06
6.42989e-06
1.26255e-06
5.58954e-07
4.37025e-07
4.33017e-07
1.06066e-06
4.33017e-07
1.06093e-06
5.58888e-07
1.26274e-06
6.43045e-06
6.43046e-06
1.26255e-06
2.07185e-06
2.07088e-06
4.44867e-07
2.07157e-06
2.07074e-06
2.25681e-05
2.2568e-05
2.25696e-05
2.25693e-05
4.44948e-07
2.07156e-06
2.07074e-06
2.07182e-06
2.07088e-06
2.25679e-05
2.2568e-05
5.58885e-07
4.33021e-07
1.06103e-06
4.37026e-07
5.58969e-07
4.3302e-07
1.06076e-06
1.26242e-06
6.43063e-06
1.26258e-06
6.43057e-06
1.26243e-06
6.43084e-06
1.26259e-06
6.43077e-06
5.58955e-07
4.37025e-07
4.33017e-07
1.06066e-06
4.33019e-07
1.06092e-06
5.58884e-07
5.58957e-07
4.37023e-07
4.33017e-07
1.06076e-06
4.33017e-07
1.06103e-06
5.58886e-07
1.26258e-06
6.43056e-06
6.43057e-06
1.26242e-06
1.26259e-06
6.43076e-06
6.43077e-06
1.26243e-06
2.25683e-05
2.25683e-05
2.25696e-05
2.25696e-05
4.44948e-07
2.07074e-06
2.07117e-06
2.07088e-06
2.0713e-06
2.25681e-05
2.25683e-05
2.25695e-05
2.25696e-05
2.25663e-05
2.25664e-05
2.25689e-05
2.2569e-05
2.0708e-06
2.07128e-06
4.44868e-07
2.07067e-06
2.07115e-06
2.25663e-05
2.25664e-05
2.25689e-05
2.2569e-05
4.44948e-07
2.07067e-06
2.07115e-06
2.0708e-06
2.07128e-06
1.26253e-06
6.42997e-06
1.26273e-06
6.42997e-06
5.58885e-07
1.06089e-06
4.3302e-07
4.37028e-07
5.58962e-07
1.06063e-06
4.3302e-07
5.58886e-07
1.06098e-06
4.3302e-07
4.37028e-07
5.58961e-07
1.06071e-06
4.33019e-07
1.26273e-06
6.42957e-06
6.42949e-06
1.26254e-06
1.26273e-06
6.42997e-06
6.42997e-06
1.26253e-06
5.58955e-07
4.37025e-07
1.06063e-06
4.33017e-07
1.06089e-06
4.33017e-07
5.58889e-07
5.58956e-07
4.37026e-07
1.06071e-06
4.33016e-07
1.06098e-06
4.33017e-07
5.58886e-07
2.07127e-06
2.07126e-06
4.44866e-07
2.07111e-06
2.07095e-06
2.25653e-05
2.25651e-05
2.25683e-05
2.25678e-05
4.44946e-07
2.07112e-06
2.07096e-06
2.07126e-06
2.07124e-06
2.25651e-05
2.25651e-05
5.58883e-07
1.06106e-06
4.3302e-07
4.37025e-07
5.58957e-07
1.0608e-06
4.33019e-07
1.26244e-06
6.43088e-06
1.2626e-06
6.43088e-06
5.58888e-07
4.33021e-07
1.0612e-06
4.37031e-07
5.58962e-07
4.3302e-07
1.06091e-06
1.26258e-06
6.43061e-06
6.43053e-06
1.26243e-06
5.58952e-07
4.37023e-07
1.0608e-06
4.33016e-07
1.06106e-06
4.33017e-07
5.58883e-07
1.26259e-06
6.43087e-06
6.43089e-06
1.26244e-06
5.58957e-07
4.37029e-07
4.33017e-07
1.06091e-06
4.33017e-07
1.0612e-06
5.58887e-07
1.26255e-06
6.4299e-06
1.26274e-06
6.42991e-06
5.5889e-07
4.3302e-07
1.06093e-06
4.37028e-07
5.5896e-07
4.3302e-07
1.06066e-06
1.26255e-06
6.43045e-06
1.26274e-06
6.43045e-06
5.58955e-07
4.37023e-07
1.06069e-06
4.33016e-07
1.06098e-06
4.33018e-07
5.58884e-07
1.26274e-06
6.42989e-06
6.42992e-06
1.26255e-06
5.58958e-07
4.37026e-07
4.33016e-07
1.06066e-06
4.33017e-07
1.06093e-06
5.58886e-07
1.26274e-06
6.43044e-06
6.43045e-06
1.26255e-06
2.07183e-06
2.07087e-06
4.44871e-07
2.07157e-06
2.07074e-06
2.25679e-05
2.2568e-05
2.25696e-05
2.25693e-05
4.4495e-07
2.07156e-06
2.07074e-06
2.07182e-06
2.07087e-06
2.25679e-05
2.2568e-05
5.5889e-07
4.3302e-07
1.06103e-06
4.37026e-07
5.58965e-07
4.3302e-07
1.06076e-06
1.26242e-06
6.43056e-06
1.26259e-06
6.43056e-06
1.26243e-06
6.43076e-06
1.26259e-06
6.43076e-06
5.58959e-07
4.37025e-07
4.33016e-07
1.06066e-06
4.33019e-07
1.06092e-06
5.58884e-07
5.58962e-07
4.37024e-07
4.33017e-07
1.06076e-06
4.33017e-07
1.06103e-06
5.58886e-07
1.26258e-06
6.43056e-06
6.43057e-06
1.26242e-06
1.26259e-06
6.43076e-06
6.43076e-06
1.26243e-06
2.25681e-05
2.25683e-05
2.25695e-05
2.25696e-05
4.44949e-07
2.07074e-06
2.07117e-06
2.07088e-06
2.0713e-06
2.25681e-05
2.25683e-05
2.25695e-05
2.25696e-05
2.25663e-05
2.25664e-05
2.25689e-05
2.2569e-05
2.0708e-06
2.07128e-06
4.44869e-07
2.07067e-06
2.07114e-06
2.25663e-05
2.25664e-05
2.25689e-05
2.2569e-05
4.44949e-07
2.07067e-06
2.07114e-06
2.07081e-06
2.07128e-06
1.26253e-06
6.42997e-06
1.26273e-06
6.42996e-06
5.58885e-07
1.06089e-06
4.3302e-07
4.37028e-07
5.58962e-07
1.06063e-06
4.3302e-07
5.58885e-07
1.06098e-06
4.33019e-07
4.37028e-07
5.58959e-07
1.06071e-06
4.33019e-07
1.26273e-06
6.42957e-06
6.42949e-06
1.26254e-06
1.26273e-06
6.42997e-06
6.42996e-06
1.26253e-06
5.58955e-07
4.37026e-07
1.06063e-06
4.33017e-07
1.06089e-06
4.33018e-07
5.58889e-07
5.58957e-07
4.37026e-07
1.06071e-06
4.33016e-07
1.06098e-06
4.33017e-07
5.58886e-07
2.07127e-06
2.07125e-06
4.44866e-07
2.07111e-06
2.07095e-06
2.25652e-05
2.2565e-05
2.25683e-05
2.25678e-05
4.44946e-07
2.07112e-06
2.07096e-06
2.07126e-06
2.07124e-06
2.25652e-05
2.25651e-05
5.58884e-07
1.06106e-06
4.33019e-07
4.37025e-07
5.58956e-07
1.0608e-06
4.33019e-07
1.26244e-06
6.43087e-06
1.2626e-06
6.43088e-06
5.58888e-07
4.3302e-07
1.0612e-06
4.37031e-07
5.5896e-07
4.3302e-07
1.06091e-06
1.26258e-06
6.43054e-06
6.43054e-06
1.26243e-06
5.58953e-07
4.37023e-07
1.0608e-06
4.33017e-07
1.06106e-06
4.33017e-07
5.58883e-07
1.26259e-06
6.43087e-06
6.43089e-06
1.26244e-06
5.58958e-07
4.37029e-07
4.33017e-07
1.06091e-06
4.33018e-07
1.0612e-06
5.58887e-07
1.26255e-06
6.42989e-06
1.26274e-06
6.4299e-06
5.58889e-07
4.33019e-07
1.06093e-06
4.37028e-07
5.58957e-07
4.33019e-07
1.06066e-06
1.26255e-06
6.43045e-06
1.26274e-06
6.43045e-06
5.58956e-07
4.37023e-07
1.06069e-06
4.33016e-07
1.06098e-06
4.33019e-07
5.58885e-07
1.26274e-06
6.42989e-06
6.42991e-06
1.26255e-06
5.58959e-07
4.37026e-07
4.33017e-07
1.06066e-06
4.33017e-07
1.06093e-06
5.58887e-07
1.26274e-06
6.43045e-06
6.43045e-06
1.26255e-06
2.07183e-06
2.07087e-06
4.44871e-07
2.07157e-06
2.07074e-06
2.25679e-05
2.2568e-05
2.25696e-05
2.25693e-05
4.44952e-07
2.07156e-06
2.07074e-06
2.07182e-06
2.07087e-06
2.25679e-05
2.2568e-05
5.58889e-07
4.3302e-07
1.06103e-06
4.37026e-07
5.58963e-07
4.3302e-07
1.06076e-06
1.26242e-06
6.43056e-06
1.26259e-06
6.43056e-06
1.26243e-06
6.43075e-06
1.26259e-06
6.43076e-06
5.5896e-07
4.37025e-07
4.33016e-07
1.06066e-06
4.33019e-07
1.06092e-06
5.58884e-07
5.58963e-07
4.37024e-07
4.33017e-07
1.06076e-06
4.33017e-07
1.06103e-06
5.58887e-07
1.26258e-06
6.43056e-06
6.43057e-06
1.26242e-06
1.26259e-06
6.43075e-06
6.43076e-06
1.26243e-06
2.25681e-05
2.25683e-05
2.25694e-05
2.25696e-05
4.44949e-07
2.07074e-06
2.07117e-06
2.07088e-06
2.0713e-06
2.25681e-05
2.25683e-05
2.25695e-05
2.25696e-05
2.25663e-05
2.25664e-05
2.25689e-05
2.2569e-05
2.0708e-06
2.07128e-06
4.44869e-07
2.07067e-06
2.07115e-06
2.25663e-05
2.25664e-05
2.25689e-05
2.2569e-05
4.44949e-07
2.07067e-06
2.07115e-06
2.0708e-06
2.07129e-06
1.26253e-06
6.42997e-06
1.26273e-06
6.42996e-06
5.58885e-07
1.06089e-06
4.3302e-07
4.37028e-07
5.58962e-07
1.06063e-06
4.3302e-07
5.58886e-07
1.06098e-06
4.33019e-07
4.37028e-07
5.58959e-07
1.06071e-06
4.33019e-07
1.26273e-06
6.42957e-06
6.42949e-06
1.26254e-06
1.26273e-06
6.42995e-06
6.42997e-06
1.26253e-06
5.58955e-07
4.37026e-07
1.06063e-06
4.33016e-07
1.06089e-06
4.33017e-07
5.58889e-07
5.58957e-07
4.37026e-07
1.06071e-06
4.33016e-07
1.06098e-06
4.33017e-07
5.58885e-07
2.07127e-06
2.07125e-06
4.44866e-07
2.0711e-06
2.07095e-06
2.25652e-05
2.25651e-05
2.25682e-05
2.25679e-05
4.44946e-07
2.0712e-06
2.07096e-06
2.07125e-06
2.07124e-06
2.25652e-05
2.25651e-05
5.58884e-07
1.06109e-06
4.3302e-07
4.37025e-07
5.58956e-07
1.06081e-06
4.3302e-07
1.26244e-06
6.43088e-06
1.2626e-06
6.43088e-06
5.58888e-07
4.3302e-07
1.0612e-06
4.37031e-07
5.58959e-07
4.3302e-07
1.06091e-06
1.26258e-06
6.43047e-06
6.43044e-06
1.26243e-06
5.58953e-07
4.37023e-07
1.06082e-06
4.33017e-07
1.0611e-06