/*--------------------------------*- C++ -*----------------------------------*\
| =========                 |                                                 |
| \\      /  F ield         | OpenFOAM: The Open Source CFD Toolbox           |
|  \\    /   O peration     | Version:  2206                                  |
|   \\  /    A nd           | Website:  www.openfoam.com                      |
|    \\/     M anipulation  |                                                 |
\*---------------------------------------------------------------------------*/
FoamFile
{
    version     2.0;
    format      ascii;
    arch        "LSB;label=32;scalar=64";
    class       volVectorField;
    location    "9";
    object      U;
}
// * * * * * * * * * * * * * * * * * * * * * * * * * * * * * * * * * * * * * //

dimensions      [0 1 -1 0 0 0 0];

internalField   nonuniform List<vector> 
28688
(
(0.000106939 0.000106884 0.100299)
(-0.000190396 0.000118403 0.100384)
(0.000118463 -0.000190393 0.100384)
(-0.000236282 -0.000236304 0.100393)
(9.57362e-05 9.5681e-05 0.100858)
(-0.000147475 9.06527e-05 0.100942)
(9.06894e-05 -0.000147482 0.100942)
(-0.000199405 -0.000199443 0.100962)
(2.33826e-05 2.33506e-05 0.101122)
(-2.77494e-05 1.80144e-05 0.101144)
(1.80343e-05 -2.774e-05 0.101144)
(-6.11274e-05 -6.11508e-05 0.101152)
(1.60006e-06 1.59547e-06 0.101148)
(-2.22955e-06 1.67644e-06 0.101147)
(1.67868e-06 -2.23026e-06 0.101147)
(-3.63856e-05 -3.64035e-05 0.101144)
(-2.45333e-07 -2.4049e-07 0.101149)
(-3.28163e-07 4.74082e-07 0.101147)
(4.66161e-07 -3.28326e-07 0.101147)
(-3.511e-05 -3.51239e-05 0.101142)
(-3.55509e-07 -3.48821e-07 0.101149)
(-2.44538e-07 4.24962e-07 0.101147)
(4.12748e-07 -2.44892e-07 0.101147)
(-3.50621e-05 -3.50749e-05 0.101142)
(-3.58315e-07 -3.54762e-07 0.101149)
(-2.40736e-07 4.15793e-07 0.101147)
(4.10987e-07 -2.41167e-07 0.101147)
(-3.50592e-05 -3.50736e-05 0.101142)
(-3.57273e-07 -3.55833e-07 0.101149)
(-2.389e-07 4.12364e-07 0.101147)
(4.10569e-07 -2.40664e-07 0.101147)
(-3.50577e-05 -3.50734e-05 0.101142)
(-3.59154e-07 -3.57823e-07 0.101149)
(-2.39941e-07 4.1169e-07 0.101147)
(4.10191e-07 -2.41046e-07 0.101147)
(-3.50577e-05 -3.50738e-05 0.101142)
(-3.57694e-07 -3.55414e-07 0.101149)
(-2.39656e-07 4.13019e-07 0.101147)
(4.11153e-07 -2.41333e-07 0.101147)
(-3.50581e-05 -3.50745e-05 0.101142)
(-3.54739e-07 -3.51118e-07 0.101149)
(-2.38032e-07 4.13184e-07 0.101147)
(4.10393e-07 -2.40238e-07 0.101147)
(-3.50571e-05 -3.50738e-05 0.101142)
(-3.6037e-07 -3.62449e-07 0.101149)
(-2.36204e-07 4.05624e-07 0.101147)
(4.07476e-07 -2.36689e-07 0.101147)
(-3.50505e-05 -3.50687e-05 0.101142)
(0.000135066 0.000135057 0.100284)
(0.000124 0.000152267 0.100229)
(-0.000123991 0.000152246 0.100229)
(-0.000135065 0.000135027 0.100284)
(0.000152295 0.000123952 0.100229)
(0.000152265 -0.000123975 0.100229)
(9.10523e-05 9.09925e-05 0.100152)
(-9.10426e-05 9.09897e-05 0.100152)
(9.10218e-05 -9.10424e-05 0.100152)
(-9.10175e-05 -9.10415e-05 0.100152)
(-0.000152288 0.000123948 0.100229)
(-0.000152275 -0.000123973 0.100229)
(0.000135056 -0.000135071 0.100284)
(0.000123962 -0.000152296 0.100229)
(-0.000123958 -0.000152276 0.100229)
(-0.000135065 -0.000135043 0.100284)
(0.00023632 0.000236305 0.100393)
(0.000129062 0.000128965 0.100887)
(0.000118525 0.000190296 0.100384)
(-0.000118476 0.000190339 0.100384)
(0.000103784 0.000167654 0.100822)
(-0.000103733 0.000167659 0.100822)
(-0.000236325 0.00023625 0.100393)
(-0.000129024 0.000128939 0.100887)
(0.000190433 0.000118425 0.100384)
(0.000190385 -0.000118471 0.100384)
(0.000167641 0.000103766 0.100822)
(0.000167677 -0.000103784 0.100822)
(-0.000190362 -0.00011847 0.100384)
(-0.000167608 0.00010376 0.100822)
(-0.000167619 -0.000103774 0.100822)
(0.000236258 -0.00023635 0.100393)
(0.000129023 -0.000129019 0.100887)
(-0.000118441 -0.000190427 0.100384)
(0.000103775 -0.000167601 0.100822)
(-0.000103753 -0.000167632 0.100822)
(-0.00012902 -0.000129022 0.100887)
(0.000199489 0.000199337 0.100962)
(-3.11927e-07 -3.3944e-07 0.101152)
(9.06459e-05 0.000147524 0.100941)
(-9.06171e-05 0.000147516 0.100941)
(2.96451e-05 4.70757e-05 0.101133)
(-2.96278e-05 4.70664e-05 0.101133)
(-0.000199456 0.00019931 0.100962)
(3.28348e-07 -3.60212e-07 0.101152)
(0.000147526 9.0652e-05 0.100942)
(0.000147517 -9.06555e-05 0.100942)
(4.71072e-05 2.95973e-05 0.101133)
(4.70897e-05 -2.96372e-05 0.101133)
(-0.000147503 -9.06539e-05 0.100942)
(-4.71022e-05 2.95899e-05 0.101133)
(-4.70834e-05 -2.96351e-05 0.101133)
(0.000199412 -0.000199447 0.100962)
(-2.99862e-07 3.36604e-07 0.101152)
(-9.06743e-05 -0.000147517 0.100942)
(2.96182e-05 -4.70837e-05 0.101133)
(-2.96145e-05 -4.70921e-05 0.101133)
(3.13984e-07 3.32882e-07 0.101152)
(6.11577e-05 6.10938e-05 0.101152)
(-3.42535e-05 -3.42431e-05 0.101144)
(1.80537e-05 2.77245e-05 0.101144)
(-1.80479e-05 2.77238e-05 0.101144)
(3.03268e-06 4.26326e-06 0.101148)
(-3.03372e-06 4.2717e-06 0.101148)
(-6.11546e-05 6.10846e-05 0.101152)
(3.42607e-05 -3.42408e-05 0.101144)
(2.77544e-05 1.80114e-05 0.101144)
(2.7744e-05 -1.80496e-05 0.101144)
(4.2645e-06 3.01374e-06 0.101148)
(4.27291e-06 -3.0332e-06 0.101148)
(-2.77334e-05 -1.80395e-05 0.101144)
(-4.26202e-06 3.01435e-06 0.101148)
(-4.27342e-06 -3.03024e-06 0.101148)
(6.11321e-05 -6.1156e-05 0.101152)
(-3.4231e-05 3.42631e-05 0.101144)
(-1.80195e-05 -2.77383e-05 0.101144)
(3.01789e-06 -4.26235e-06 0.101148)
(-3.01704e-06 -4.26386e-06 0.101148)
(3.42395e-05 3.42543e-05 0.101144)
(3.63969e-05 3.63713e-05 0.101144)
(-3.61856e-05 -3.61624e-05 0.101143)
(1.6903e-06 2.23073e-06 0.101147)
(-1.69158e-06 2.23926e-06 0.101147)
(5.44282e-07 4.55608e-07 0.101147)
(-5.51485e-07 4.62007e-07 0.101147)
(-3.63946e-05 3.63699e-05 0.101144)
(3.61854e-05 -3.61565e-05 0.101143)
(2.23236e-06 1.67647e-06 0.101147)
(2.23731e-06 -1.69094e-06 0.101147)
(4.46114e-07 5.37412e-07 0.101147)
(4.56557e-07 -5.46293e-07 0.101147)
(-2.2391e-06 -1.68873e-06 0.101147)
(-4.4743e-07 5.40408e-07 0.101147)
(-4.55835e-07 -5.42946e-07 0.101147)
(3.63769e-05 -3.64094e-05 0.101144)
(-3.61589e-05 3.61912e-05 0.101143)
(-1.67644e-06 -2.22961e-06 0.101147)
(5.35105e-07 -4.46082e-07 0.101147)
(-5.35678e-07 -4.45522e-07 0.101147)
(3.6164e-05 3.61835e-05 0.101143)
(3.51142e-05 3.51002e-05 0.101142)
(-3.62613e-05 -3.62331e-05 0.101143)
(4.74389e-07 3.35148e-07 0.101147)
(-4.84005e-07 3.45409e-07 0.101147)
(4.21087e-07 2.58607e-07 0.101147)
(-4.3486e-07 2.69018e-07 0.101147)
(-3.51199e-05 3.51029e-05 0.101142)
(3.62572e-05 -3.6221e-05 0.101143)
(3.28125e-07 4.69889e-07 0.101147)
(3.35857e-07 -4.75951e-07 0.101147)
(2.4557e-07 4.19334e-07 0.101147)
(2.56564e-07 -4.23839e-07 0.101147)
(-3.35532e-07 -4.72243e-07 0.101147)
(-2.46661e-07 4.25931e-07 0.101147)
(-2.56594e-07 -4.1976e-07 0.101147)
(3.50982e-05 -3.51297e-05 0.101142)
(-3.62329e-05 3.62666e-05 0.101143)
(-4.65835e-07 -3.24881e-07 0.101147)
(4.1418e-07 -2.45532e-07 0.101147)
(-4.14334e-07 -2.44459e-07 0.101147)
(3.62386e-05 3.62596e-05 0.101143)
(3.5066e-05 3.5055e-05 0.101142)
(-3.62619e-05 -3.6235e-05 0.101143)
(4.19895e-07 2.55784e-07 0.101147)
(-4.33025e-07 2.68528e-07 0.101147)
(4.18665e-07 2.52091e-07 0.101147)
(-4.20494e-07 2.51866e-07 0.101147)
(-3.50744e-05 3.50633e-05 0.101142)
(3.62634e-05 -3.62368e-05 0.101143)
(2.44775e-07 4.17931e-07 0.101147)
(2.53053e-07 -4.21101e-07 0.101147)
(2.40272e-07 4.15574e-07 0.101147)
(2.50968e-07 -4.18832e-07 0.101147)
(-2.5292e-07 -4.16828e-07 0.101147)
(-2.38704e-07 4.1402e-07 0.101147)
(-2.49919e-07 -4.16435e-07 0.101147)
(3.50504e-05 -3.50812e-05 0.101142)
(-3.62358e-05 3.62703e-05 0.101143)
(-4.11737e-07 -2.41133e-07 0.101147)
(4.10064e-07 -2.38638e-07 0.101147)
(-4.09596e-07 -2.3849e-07 0.101147)
(3.62417e-05 3.62614e-05 0.101143)
(3.50686e-05 3.50538e-05 0.101142)
(-3.62617e-05 -3.62295e-05 0.101143)
(4.24603e-07 2.54431e-07 0.101147)
(-4.24504e-07 2.57735e-07 0.101147)
(4.28294e-07 2.55868e-07 0.101147)
(-4.20613e-07 2.5327e-07 0.101147)
(-3.50673e-05 3.50475e-05 0.101142)
(3.62651e-05 -3.62374e-05 0.101143)
(2.43193e-07 4.1798e-07 0.101147)
(2.50314e-07 -4.18357e-07 0.101147)
(2.39051e-07 4.17661e-07 0.101147)
(2.49924e-07 -4.18027e-07 0.101147)
(-2.48973e-07 -4.16196e-07 0.101147)
(-2.38267e-07 4.13446e-07 0.101147)
(-2.48044e-07 -4.17006e-07 0.101147)
(3.50485e-05 -3.50784e-05 0.101142)
(-3.62366e-05 3.62712e-05 0.101143)
(-4.08757e-07 -2.38077e-07 0.101147)
(4.09716e-07 -2.37701e-07 0.101147)
(-4.08001e-07 -2.37793e-07 0.101147)
(3.62434e-05 3.62616e-05 0.101143)
(3.50668e-05 3.5053e-05 0.101142)
(-3.62627e-05 -3.62396e-05 0.101143)
(4.21853e-07 2.50219e-07 0.101147)
(-4.20122e-07 2.51971e-07 0.101147)
(4.21208e-07 2.48992e-07 0.101147)
(-4.20952e-07 2.49711e-07 0.101147)
(-3.5066e-05 3.50464e-05 0.101142)
(3.62645e-05 -3.62389e-05 0.101143)
(2.41676e-07 4.14175e-07 0.101147)
(2.49231e-07 -4.17864e-07 0.101147)
(2.39141e-07 4.11978e-07 0.101147)
(2.49489e-07 -4.18419e-07 0.101147)
(-2.47377e-07 -4.16663e-07 0.101147)
(-2.38401e-07 4.11872e-07 0.101147)
(-2.47139e-07 -4.1718e-07 0.101147)
(3.50475e-05 -3.50775e-05 0.101142)
(-3.62367e-05 3.62705e-05 0.101143)
(-4.07836e-07 -2.37699e-07 0.101147)
(4.09064e-07 -2.37363e-07 0.101147)
(-4.07458e-07 -2.37483e-07 0.101147)
(3.62433e-05 3.6261e-05 0.101143)
(3.50663e-05 3.5046e-05 0.101142)
(-3.62617e-05 -3.62369e-05 0.101143)
(4.20764e-07 2.48867e-07 0.101147)
(-4.20984e-07 2.51691e-07 0.101147)
(4.24182e-07 2.52114e-07 0.101147)
(-4.21961e-07 2.48674e-07 0.101147)
(-3.50666e-05 3.50449e-05 0.101142)
(3.62663e-05 -3.62372e-05 0.101143)
(2.41968e-07 4.12645e-07 0.101147)
(2.49739e-07 -4.18678e-07 0.101147)
(2.40305e-07 4.13989e-07 0.101147)
(2.50915e-07 -4.19328e-07 0.101147)
(-2.4742e-07 -4.16775e-07 0.101147)
(-2.39645e-07 4.13702e-07 0.101147)
(-2.48085e-07 -4.17944e-07 0.101147)
(3.50476e-05 -3.50782e-05 0.101142)
(-3.62353e-05 3.62698e-05 0.101143)
(-4.07119e-07 -2.37743e-07 0.101147)
(4.10394e-07 -2.38757e-07 0.101147)
(-4.08035e-07 -2.38599e-07 0.101147)
(3.62429e-05 3.62604e-05 0.101143)
(3.50678e-05 3.50485e-05 0.101142)
(-3.62582e-05 -3.62189e-05 0.101143)
(4.24092e-07 2.51504e-07 0.101147)
(-4.20809e-07 2.57537e-07 0.101147)
(4.31607e-07 2.61925e-07 0.101147)
(-4.21321e-07 2.48946e-07 0.101147)
(-3.50658e-05 3.50463e-05 0.101142)
(3.62731e-05 -3.62376e-05 0.101143)
(2.43649e-07 4.16151e-07 0.101147)
(2.50629e-07 -4.18569e-07 0.101147)
(2.4028e-07 4.21544e-07 0.101147)
(2.50555e-07 -4.17441e-07 0.101147)
(-2.47456e-07 -4.1734e-07 0.101147)
(-2.37573e-07 4.13665e-07 0.101147)
(-2.4689e-07 -4.17273e-07 0.101147)
(3.50488e-05 -3.50787e-05 0.101142)
(-3.62365e-05 3.62717e-05 0.101143)
(-4.07772e-07 -2.38347e-07 0.101147)
(4.09697e-07 -2.36879e-07 0.101147)
(-4.07192e-07 -2.37608e-07 0.101147)
(3.6244e-05 3.62612e-05 0.101143)
(3.50707e-05 3.50656e-05 0.101142)
(-3.62551e-05 -3.62329e-05 0.101143)
(4.33942e-07 2.62479e-07 0.101147)
(-4.20357e-07 2.58165e-07 0.101147)
(4.25404e-07 2.50295e-07 0.101147)
(-4.20294e-07 2.41829e-07 0.101147)
(-3.50646e-05 3.50457e-05 0.101142)
(3.62702e-05 -3.62397e-05 0.101143)
(2.4238e-07 4.21287e-07 0.101147)
(2.49722e-07 -4.16959e-07 0.101147)
(2.40341e-07 4.12565e-07 0.101147)
(2.49316e-07 -4.18572e-07 0.101147)
(-2.46586e-07 -4.16789e-07 0.101147)
(-2.36553e-07 4.08888e-07 0.101147)
(-2.46039e-07 -4.18355e-07 0.101147)
(3.50479e-05 -3.50772e-05 0.101142)
(-3.62332e-05 3.62671e-05 0.101143)
(-4.0652e-07 -2.37172e-07 0.101147)
(4.09264e-07 -2.37628e-07 0.101147)
(-4.06215e-07 -2.38022e-07 0.101147)
(3.62411e-05 3.62567e-05 0.101143)
(3.50629e-05 3.50397e-05 0.101142)
(-3.62628e-05 -3.62447e-05 0.101143)
(4.20212e-07 2.42786e-07 0.101147)
(-4.17166e-07 2.49903e-07 0.101147)
(4.07231e-07 2.14756e-07 0.101147)
(-3.50599e-05 3.50366e-05 0.101142)
(2.39045e-07 4.08475e-07 0.101147)
(2.45741e-07 -4.16286e-07 0.101147)
(2.12189e-07 3.91573e-07 0.101147)
(2.21482e-07 -4.0275e-07 0.101147)
(-2.41685e-07 -4.15625e-07 0.101147)
(-2.18642e-07 -4.03724e-07 0.101147)
(3.50417e-05 -3.50727e-05 0.101142)
(-3.62403e-05 3.62734e-05 0.101143)
(-4.02971e-07 -2.34681e-07 0.101147)
(3.92349e-07 -2.10371e-07 0.101147)
(-3.89346e-07 -2.12785e-07 0.101147)
(3.62471e-05 3.62622e-05 0.101143)
(-2.63633e-07 -2.6626e-07 0.099998)
(1.67802e-05 1.67758e-05 0.100003)
(-4.98299e-07 1.43625e-05 0.0999998)
(1.43708e-05 -5.00856e-07 0.0999998)
(-4.76268e-05 5.75343e-06 0.100008)
(-1.456e-05 1.51341e-05 0.100001)
(-0.000128359 6.04695e-05 0.100057)
(-1.42422e-05 -8.90546e-07 0.0999954)
(5.74761e-06 -4.76111e-05 0.100008)
(1.51396e-05 -1.45606e-05 0.100001)
(-8.88061e-07 -1.42407e-05 0.0999954)
(6.04836e-05 -0.00012829 0.100057)
(-1.93398e-05 -1.93428e-05 0.100003)
(-0.000135333 -8.10969e-05 0.100053)
(-8.1106e-05 -0.000135313 0.100053)
(-3.49013e-05 0.000132534 0.100722)
(0.000175451 0.000385934 0.0994328)
(2.68223e-06 0.00030079 0.100519)
(-8.27276e-05 0.00023608 0.0991266)
(-0.000298954 0.000831395 0.0977969)
(-0.000136284 0.000298538 0.0956787)
(0.000132272 -3.50289e-05 0.100722)
(0.000386537 0.0001744 0.0994335)
(0.00030154 2.54397e-06 0.100519)
(0.000236219 -8.26454e-05 0.0991272)
(-0.000106925 0.000106886 0.100299)
(0.000106921 -0.000106924 0.100299)
(-0.000106915 -0.000106931 0.100299)
(9.47861e-05 9.47287e-05 0.100737)
(-9.47468e-05 9.47395e-05 0.100737)
(9.47776e-05 -9.47767e-05 0.100737)
(-9.47555e-05 -9.47885e-05 0.100737)
(-0.000278991 6.80262e-06 0.100755)
(-0.000393607 0.000227613 0.100533)
(-0.000171027 3.66283e-05 0.100332)
(-0.000147423 9.09293e-05 0.100559)
(-0.000354521 1.57693e-05 0.100478)
(-0.000145002 0.000197207 0.100729)
(-0.000145783 3.13562e-05 0.100497)
(0.000830408 -0.000297099 0.0977961)
(0.000298522 -0.000135815 0.0956789)
(6.74628e-06 -0.000278899 0.100755)
(3.66666e-05 -0.000171008 0.100332)
(0.000227687 -0.000393561 0.100533)
(9.08805e-05 -0.0001474 0.100559)
(1.57684e-05 -0.000354388 0.100478)
(3.14061e-05 -0.000145764 0.100497)
(0.000197291 -0.000145042 0.100729)
(-0.000366534 -0.000138055 0.100378)
(-0.000138267 -0.000366791 0.100378)
(-0.000111287 -0.000111364 0.100662)
(1.40496e-05 -7.82219e-05 0.100571)
(-7.84937e-05 1.40525e-05 0.100571)
(-2.55538e-05 0.000107157 0.100838)
(-6.10011e-05 0.000281389 0.0983686)
(-2.58546e-05 0.00021954 0.100822)
(-4.79432e-05 0.000178546 0.0980384)
(-0.000161305 0.000310425 0.0925761)
(-8.0397e-05 0.000132785 0.0913248)
(0.000107189 -2.57154e-05 0.100839)
(0.00028162 -6.09121e-05 0.0983691)
(0.000219542 -2.59721e-05 0.100822)
(0.000178729 -4.79007e-05 0.0980386)
(-9.56862e-05 9.57043e-05 0.100858)
(9.57443e-05 -9.57286e-05 0.100858)
(-9.57177e-05 -9.57223e-05 0.100858)
(3.86099e-05 3.85677e-05 0.101095)
(-3.85911e-05 3.85764e-05 0.101095)
(3.86093e-05 -3.8612e-05 0.101095)
(-3.85973e-05 -3.86146e-05 0.101095)
(-0.000162135 7.0257e-06 0.101103)
(-0.000208967 0.00021691 0.100865)
(-0.000162128 3.13135e-05 0.100896)
(-0.00011097 6.68839e-05 0.101041)
(-0.000307725 1.2626e-05 0.100992)
(-8.25718e-05 0.000113118 0.100884)
(-0.000126271 2.67778e-05 0.101002)
(0.000310392 -0.000161044 0.0925758)
(0.000132851 -8.02101e-05 0.091325)
(7.08229e-06 -0.000162062 0.101103)
(3.13894e-05 -0.000162121 0.100896)
(0.000216943 -0.000209055 0.100865)
(6.69168e-05 -0.000110956 0.101041)
(1.27144e-05 -0.000307677 0.100992)
(2.68546e-05 -0.000126262 0.101002)
(0.000113098 -8.24865e-05 0.100883)
(-8.7005e-05 -9.66682e-05 0.10051)
(-9.67423e-05 -8.70047e-05 0.10051)
(-6.74375e-05 -6.74796e-05 0.101105)
(-3.93544e-06 -2.12638e-05 0.100418)
(-2.13741e-05 -4.02836e-06 0.100417)
(-1.61958e-06 -5.10844e-06 0.100698)
(-1.31544e-05 3.18109e-05 0.0979232)
(-7.27102e-06 1.10794e-05 0.100724)
(-3.6337e-06 -1.80048e-06 0.097922)
(-1.48439e-05 1.32079e-06 0.0910348)
(-3.1424e-06 -3.54092e-06 0.0910533)
(-5.13901e-06 -1.63563e-06 0.100698)
(3.1872e-05 -1.31785e-05 0.097923)
(1.1145e-05 -7.31501e-06 0.100724)
(-1.79133e-06 -3.66482e-06 0.0979218)
(-2.33683e-05 2.33527e-05 0.101122)
(2.33829e-05 -2.33845e-05 0.101122)
(-2.33732e-05 -2.3387e-05 0.101122)
(3.47597e-06 3.46756e-06 0.101146)
(-3.47343e-06 3.46686e-06 0.101146)
(3.47657e-06 -3.47857e-06 0.101146)
(-3.47648e-06 -3.48177e-06 0.101146)
(2.94231e-06 5.90851e-07 0.101086)
(-2.16296e-05 1.74662e-05 0.100825)
(-3.15781e-05 8.73257e-06 0.101133)
(-1.54002e-05 1.02757e-05 0.101147)
(-3.59252e-05 1.79434e-06 0.101098)
(4.4636e-06 1.01185e-06 0.100799)
(-1.73794e-05 4.93312e-06 0.101142)
(1.21817e-06 -1.4751e-05 0.0910336)
(-3.45955e-06 -3.17871e-06 0.0910529)
(6.1493e-07 2.94256e-06 0.101086)
(8.76383e-06 -3.15788e-05 0.101133)
(1.74989e-05 -2.16501e-05 0.100825)
(1.02885e-05 -1.53976e-05 0.101147)
(1.82232e-06 -3.59103e-05 0.101098)
(4.95236e-06 -1.73731e-05 0.101142)
(1.00503e-06 4.49336e-06 0.100799)
(1.90912e-06 -1.41287e-07 0.100253)
(-1.31364e-07 1.90506e-06 0.100252)
(2.70473e-05 2.7058e-05 0.101149)
(2.82089e-06 3.09821e-06 0.100209)
(3.09721e-06 2.81471e-06 0.100209)
(-1.54368e-08 -5.79813e-06 0.100688)
(6.82375e-07 4.769e-06 0.0979177)
(-5.12304e-08 6.19458e-06 0.100688)
(-7.3436e-07 -4.85556e-06 0.0979197)
(-1.65412e-06 1.16804e-06 0.0910541)
(1.00108e-06 -1.49555e-06 0.0910561)
(-5.83267e-06 -2.06544e-08 0.100688)
(4.78002e-06 6.66563e-07 0.0979176)
(6.22539e-06 -4.51762e-08 0.100688)
(-4.8586e-06 -7.30343e-07 0.0979196)
(-1.59872e-06 1.59662e-06 0.101148)
(1.60231e-06 -1.60327e-06 0.101148)
(-1.6005e-06 -1.6062e-06 0.101148)
(-1.19714e-07 -1.16168e-07 0.101149)
(1.16334e-07 -1.14594e-07 0.101149)
(-1.15631e-07 1.17804e-07 0.101149)
(1.14309e-07 1.16277e-07 0.101149)
(9.9612e-06 -1.73958e-08 0.101079)
(-9.96181e-06 3.24429e-06 0.100785)
(-2.44577e-06 5.31186e-07 0.101149)
(-1.20404e-06 1.01112e-06 0.101147)
(-1.16485e-05 1.19582e-07 0.101079)
(8.57026e-06 -2.76295e-06 0.100785)
(-1.31679e-06 1.85361e-07 0.101149)
(1.11087e-06 -1.61321e-06 0.0910526)
(-1.42061e-06 9.61651e-07 0.0910555)
(-7.54808e-09 9.96188e-06 0.101079)
(5.35842e-07 -2.44665e-06 0.101149)
(3.27284e-06 -9.98575e-06 0.100785)
(1.01033e-06 -1.20172e-06 0.101147)
(1.18414e-07 -1.16522e-05 0.101079)
(1.86572e-07 -1.31342e-06 0.101149)
(-2.7813e-06 8.59323e-06 0.100785)
(-3.23342e-06 -3.86274e-06 0.100191)
(-3.84973e-06 -3.22946e-06 0.100191)
(3.58374e-05 3.58553e-05 0.101143)
(2.74771e-06 3.23986e-06 0.100192)
(3.2334e-06 2.74261e-06 0.100192)
(-1.61396e-08 -5.93217e-06 0.100688)
(6.76799e-07 4.90468e-06 0.097917)
(-3.04707e-09 5.85272e-06 0.100686)
(-7.85293e-07 -4.8209e-06 0.0979194)
(-1.21298e-06 1.37876e-06 0.0910535)
(1.00976e-06 -1.32227e-06 0.0910558)
(-5.96765e-06 -1.27265e-08 0.100687)
(4.88615e-06 6.64088e-07 0.0979168)
(5.88516e-06 1.20126e-08 0.100686)
(-4.80634e-06 -7.54838e-07 0.0979193)
(2.4005e-07 -2.36874e-07 0.101149)
(-2.41453e-07 2.4321e-07 0.101149)
(2.39805e-07 2.42454e-07 0.101149)
(-3.49365e-07 -3.41268e-07 0.101149)
(3.40705e-07 -3.36005e-07 0.101149)
(-3.4492e-07 3.47426e-07 0.101149)
(3.42956e-07 3.46919e-07 0.101149)
(1.03479e-05 -3.65865e-08 0.101079)
(-9.18969e-06 2.80011e-06 0.100783)
(-3.97989e-07 -9.73147e-08 0.101149)
(-2.75502e-07 4.45801e-07 0.101147)
(-1.05056e-05 4.11335e-08 0.101078)
(8.84807e-06 -2.88416e-06 0.100785)
(-3.40586e-07 -1.1156e-07 0.101149)
(1.34958e-06 -1.18169e-06 0.091052)
(-1.36321e-06 1.08573e-06 0.0910553)
(-3.3726e-08 1.03519e-05 0.101079)
(-1.02993e-07 -3.97316e-07 0.101149)
(2.8154e-06 -9.213e-06 0.100783)
(4.33933e-07 -2.74354e-07 0.101147)
(3.18698e-08 -1.05098e-05 0.101078)
(-1.19105e-07 -3.34788e-07 0.101149)
(-2.91498e-06 8.8693e-06 0.100785)
(-2.94457e-06 -3.49897e-06 0.10019)
(-3.49076e-06 -2.93792e-06 0.100189)
(3.6226e-05 3.62462e-05 0.101143)
(2.84808e-06 3.37918e-06 0.100191)
(3.36898e-06 2.84559e-06 0.100191)
(-1.94255e-08 -5.93555e-06 0.100688)
(6.79031e-07 4.92959e-06 0.0979172)
(-8.94305e-09 5.83514e-06 0.100686)
(-7.98716e-07 -4.83208e-06 0.0979193)
(-1.25339e-06 1.4531e-06 0.0910533)
(9.78846e-07 -1.27912e-06 0.0910559)
(-5.97324e-06 -1.1723e-08 0.100687)
(4.89246e-06 6.58275e-07 0.0979168)
(5.86683e-06 1.28918e-08 0.100686)
(-4.80345e-06 -7.56958e-07 0.0979193)
(3.47405e-07 -3.43525e-07 0.101149)
(-3.52087e-07 3.54317e-07 0.101149)
(3.49975e-07 3.54034e-07 0.101149)
(-3.59313e-07 -3.52876e-07 0.101149)
(3.54585e-07 -3.52351e-07 0.101149)
(-3.56103e-07 3.59704e-07 0.101149)
(3.54723e-07 3.58251e-07 0.101149)
(1.03636e-05 -3.64048e-08 0.101079)
(-9.14846e-06 2.78822e-06 0.100783)
(-3.03263e-07 -1.17888e-07 0.101149)
(-2.42349e-07 4.26197e-07 0.101147)
(-1.04524e-05 4.14034e-08 0.101078)
(8.86135e-06 -2.88688e-06 0.100785)
(-2.98571e-07 -1.18669e-07 0.101149)
(1.36208e-06 -1.16451e-06 0.091052)
(-1.36001e-06 1.09274e-06 0.0910553)
(-3.37919e-08 1.03683e-05 0.101079)
(-1.27416e-07 -3.00592e-07 0.101149)
(2.79872e-06 -9.17493e-06 0.100783)
(4.1073e-07 -2.40435e-07 0.101147)
(2.92212e-08 -1.04563e-05 0.101078)
(-1.2779e-07 -2.91994e-07 0.101149)
(-2.91946e-06 8.88039e-06 0.100785)
(-2.93264e-06 -3.47505e-06 0.100189)
(-3.46865e-06 -2.9256e-06 0.100189)
(3.62415e-05 3.62622e-05 0.101143)
(2.85221e-06 3.38717e-06 0.100191)
(3.37688e-06 2.84946e-06 0.100191)
(2.38815e-11 -5.93718e-06 0.100688)
(6.89144e-07 4.92325e-06 0.0979172)
(6.22294e-09 5.8316e-06 0.100686)
(-7.4962e-07 -4.82823e-06 0.0979192)
(-1.21523e-06 1.41823e-06 0.0910534)
(1.11614e-06 -1.40947e-06 0.0910557)
(-5.97389e-06 -1.08056e-08 0.100687)
(4.893e-06 6.59826e-07 0.0979168)
(5.86577e-06 1.37091e-08 0.100686)
(-4.80509e-06 -7.53732e-07 0.0979193)
(3.57047e-07 -3.55692e-07 0.101149)
(-3.56787e-07 3.60273e-07 0.101149)
(3.5617e-07 3.59053e-07 0.101149)
(-3.5697e-07 -3.52605e-07 0.101149)
(3.5947e-07 -3.56803e-07 0.101149)
(-3.56571e-07 3.60353e-07 0.101149)
(3.56698e-07 3.582e-07 0.101149)
(1.0365e-05 -4.03607e-08 0.101079)
(-9.14829e-06 2.77792e-06 0.100783)
(-2.97527e-07 -1.23464e-07 0.101149)
(-2.39803e-07 4.1538e-07 0.101147)
(-1.04494e-05 3.79838e-08 0.101078)
(8.86016e-06 -2.89628e-06 0.100785)
(-2.94882e-07 -1.24629e-07 0.101149)
(1.36247e-06 -1.16327e-06 0.091052)
(-1.35977e-06 1.09357e-06 0.0910553)
(-3.33256e-08 1.03698e-05 0.101079)
(-1.27147e-07 -2.96118e-07 0.101149)
(2.79774e-06 -9.17257e-06 0.100783)
(4.10019e-07 -2.3844e-07 0.101147)
(2.97412e-08 -1.04537e-05 0.101078)
(-1.27367e-07 -2.89782e-07 0.101149)
(-2.9197e-06 8.88179e-06 0.100785)
(-2.93038e-06 -3.47392e-06 0.100189)
(-3.46656e-06 -2.92422e-06 0.100189)
(3.62438e-05 3.62623e-05 0.101143)
(2.85372e-06 3.38808e-06 0.100191)
(3.37944e-06 2.8497e-06 0.100191)
(-7.46174e-09 -5.93958e-06 0.100688)
(6.71533e-07 4.92431e-06 0.0979172)
(8.28277e-09 5.83217e-06 0.100686)
(-7.7821e-07 -4.83154e-06 0.0979193)
(-1.19411e-06 1.40257e-06 0.0910534)
(1.12796e-06 -1.42573e-06 0.0910557)
(-5.97384e-06 -1.24465e-08 0.100687)
(4.89067e-06 6.58305e-07 0.0979168)
(5.86467e-06 1.319e-08 0.100686)
(-4.80072e-06 -7.57981e-07 0.0979193)
(3.5984e-07 -3.57667e-07 0.101149)
(-3.57207e-07 3.60648e-07 0.101149)
(3.57404e-07 3.58746e-07 0.101149)
(-3.59152e-07 -3.56935e-07 0.101149)
(3.5969e-07 -3.5782e-07 0.101149)
(-3.56317e-07 3.59468e-07 0.101149)
(3.56558e-07 3.57317e-07 0.101149)
(1.03656e-05 -4.11431e-08 0.101079)
(-9.14809e-06 2.7778e-06 0.100783)
(-2.95254e-07 -1.25063e-07 0.101149)
(-2.38114e-07 4.12692e-07 0.101147)
(-1.04481e-05 3.65214e-08 0.101078)
(8.85935e-06 -2.8977e-06 0.100785)
(-2.92513e-07 -1.2577e-07 0.101149)
(1.36234e-06 -1.16337e-06 0.091052)
(-1.35973e-06 1.09318e-06 0.0910553)
(-3.35779e-08 1.03713e-05 0.101079)
(-1.26757e-07 -2.95368e-07 0.101149)
(2.79763e-06 -9.17186e-06 0.100783)
(4.09676e-07 -2.37937e-07 0.101147)
(3.01386e-08 -1.04531e-05 0.101078)
(-1.27106e-07 -2.89077e-07 0.101149)
(-2.91911e-06 8.88171e-06 0.100785)
(-2.92958e-06 -3.47557e-06 0.100189)
(-3.46663e-06 -2.92428e-06 0.100189)
(3.62445e-05 3.62624e-05 0.101143)
(2.85316e-06 3.38703e-06 0.100191)
(3.37957e-06 2.84877e-06 0.100191)
(-6.36469e-09 -5.93887e-06 0.100688)
(6.79262e-07 4.91628e-06 0.0979171)
(3.86314e-09 5.83288e-06 0.100686)
(-7.90128e-07 -4.82753e-06 0.0979193)
(-1.19509e-06 1.4113e-06 0.0910534)
(1.12665e-06 -1.4272e-06 0.0910557)
(-5.97253e-06 -1.25781e-08 0.100687)
(4.88687e-06 6.54293e-07 0.0979168)
(5.86778e-06 1.20483e-08 0.100686)
(-4.79247e-06 -7.54113e-07 0.0979194)
(3.59221e-07 -3.58147e-07 0.101149)
(-3.56805e-07 3.59365e-07 0.101149)
(3.57151e-07 3.57974e-07 0.101149)
(-3.58061e-07 -3.55065e-07 0.101149)
(3.59548e-07 -3.56242e-07 0.101149)
(-3.5561e-07 3.59031e-07 0.101149)
(3.56506e-07 3.57157e-07 0.101149)
(1.03646e-05 -4.13136e-08 0.101079)
(-9.15e-06 2.77788e-06 0.100783)
(-2.95589e-07 -1.25498e-07 0.101149)
(-2.39517e-07 4.13027e-07 0.101147)
(-1.04495e-05 3.61124e-08 0.101078)
(8.85828e-06 -2.89821e-06 0.100785)
(-2.93161e-07 -1.2584e-07 0.101149)
(1.36268e-06 -1.16386e-06 0.091052)
(-1.36026e-06 1.09268e-06 0.0910553)
(-3.45451e-08 1.0372e-05 0.101079)
(-1.26674e-07 -2.95475e-07 0.101149)
(2.79769e-06 -9.17387e-06 0.100783)
(4.09725e-07 -2.38645e-07 0.101147)
(3.16731e-08 -1.04574e-05 0.101078)
(-1.2701e-07 -2.89163e-07 0.101149)
(-2.91906e-06 8.88082e-06 0.100785)
(-2.9305e-06 -3.47664e-06 0.100189)
(-3.46748e-06 -2.92532e-06 0.100189)
(3.62441e-05 3.62616e-05 0.101143)
(2.85296e-06 3.38727e-06 0.100191)
(3.37949e-06 2.84843e-06 0.100191)
(1.14753e-09 -5.93828e-06 0.100688)
(6.89746e-07 4.90812e-06 0.0979171)
(5.81506e-09 5.83265e-06 0.100686)
(-7.66612e-07 -4.82471e-06 0.0979193)
(-1.19447e-06 1.41142e-06 0.0910534)
(1.12891e-06 -1.42944e-06 0.0910557)
(-5.97369e-06 -1.0453e-08 0.100687)
(4.88099e-06 6.53706e-07 0.0979168)
(5.86671e-06 1.33255e-08 0.100686)
(-4.78801e-06 -7.47627e-07 0.0979194)
(3.59503e-07 -3.56001e-07 0.101149)
(-3.56267e-07 3.59754e-07 0.101149)
(3.5721e-07 3.5805e-07 0.101149)
(-3.55401e-07 -3.49624e-07 0.101149)
(3.61738e-07 -3.5301e-07 0.101149)
(-3.55776e-07 3.60775e-07 0.101149)
(3.57156e-07 3.58001e-07 0.101149)
(1.03657e-05 -4.12144e-08 0.101079)
(-9.1489e-06 2.7784e-06 0.100783)
(-2.95465e-07 -1.25087e-07 0.101149)
(-2.38873e-07 4.14661e-07 0.101147)
(-1.04489e-05 3.60587e-08 0.101078)
(8.85987e-06 -2.89831e-06 0.100785)
(-2.92982e-07 -1.25441e-07 0.101149)
(1.36232e-06 -1.16359e-06 0.091052)
(-1.36016e-06 1.09385e-06 0.0910553)
(-3.4369e-08 1.03734e-05 0.101079)
(-1.2645e-07 -2.95819e-07 0.101149)
(2.79825e-06 -9.17341e-06 0.100783)
(4.09829e-07 -2.38027e-07 0.101147)
(3.12343e-08 -1.04561e-05 0.101078)
(-1.26662e-07 -2.89248e-07 0.101149)
(-2.91886e-06 8.88187e-06 0.100785)
(-2.93041e-06 -3.47616e-06 0.100189)
(-3.46739e-06 -2.92536e-06 0.100189)
(3.62442e-05 3.62616e-05 0.101143)
(2.85312e-06 3.38686e-06 0.100191)
(3.37911e-06 2.84878e-06 0.100191)
(-5.18755e-09 -5.93722e-06 0.100688)
(7.865e-07 4.95723e-06 0.0979172)
(2.08408e-08 5.83733e-06 0.100686)
(-8.11859e-07 -4.86397e-06 0.0979193)
(-1.21274e-06 1.4512e-06 0.0910535)
(1.13966e-06 -1.45281e-06 0.0910554)
(-5.97507e-06 -1.25232e-08 0.100687)
(4.89027e-06 6.52892e-07 0.0979168)
(5.86789e-06 1.58618e-08 0.100686)
(-4.80935e-06 -7.46647e-07 0.0979193)
(3.61695e-07 -3.53765e-07 0.101149)
(-3.56388e-07 3.60946e-07 0.101149)
(3.57756e-07 3.58609e-07 0.101149)
(-3.58906e-07 -3.58905e-07 0.101149)
(3.63573e-07 -3.56903e-07 0.101149)
(-3.57003e-07 3.60555e-07 0.101149)
(3.5861e-07 3.57298e-07 0.101149)
(1.03677e-05 -4.08376e-08 0.101079)
(-9.15309e-06 2.78429e-06 0.100783)
(-2.93396e-07 -1.25249e-07 0.101149)
(-2.36962e-07 4.12035e-07 0.101147)
(-1.04506e-05 3.63092e-08 0.101078)
(8.85619e-06 -2.89352e-06 0.100785)
(-2.90603e-07 -1.26093e-07 0.101149)
(1.38125e-06 -1.17269e-06 0.0910521)
(-1.40408e-06 1.11916e-06 0.0910551)
(-3.42664e-08 1.03759e-05 0.101079)
(-1.26381e-07 -2.94491e-07 0.101149)
(2.8016e-06 -9.17538e-06 0.100783)
(4.09417e-07 -2.36971e-07 0.101147)
(3.16848e-08 -1.04575e-05 0.101078)
(-1.26599e-07 -2.87888e-07 0.101149)
(-2.92205e-06 8.88422e-06 0.100785)
(-2.92792e-06 -3.47961e-06 0.100189)
(-3.47013e-06 -2.92308e-06 0.100189)
(3.62447e-05 3.62611e-05 0.101143)
(2.84704e-06 3.39168e-06 0.100191)
(3.38525e-06 2.8416e-06 0.100191)
(-2.36251e-09 -5.92985e-06 0.100688)
(7.00913e-07 4.92391e-06 0.0979173)
(3.19109e-09 5.82941e-06 0.100686)
(-7.89932e-07 -4.83583e-06 0.0979192)
(-1.22029e-06 1.45253e-06 0.0910536)
(1.0918e-06 -1.38221e-06 0.0910556)
(-5.96402e-06 -1.56532e-08 0.100687)
(4.88237e-06 6.71137e-07 0.0979168)
(5.86318e-06 9.47888e-09 0.100686)
(-4.7845e-06 -7.58923e-07 0.0979193)
(3.66106e-07 -3.58204e-07 0.101149)
(-3.59327e-07 3.62099e-07 0.101149)
(3.61551e-07 3.58585e-07 0.101149)
(-3.70934e-07 -3.76529e-07 0.101149)
(3.88846e-07 -3.71042e-07 0.101149)
(-3.70827e-07 3.73929e-07 0.101149)
(3.74057e-07 3.67077e-07 0.101149)
(1.03693e-05 -4.82135e-08 0.101079)
(-9.1464e-06 2.78243e-06 0.100783)
(-2.88763e-07 -1.29747e-07 0.101149)
(-2.32107e-07 4.04877e-07 0.101147)
(-1.04403e-05 3.39991e-08 0.101078)
(8.85327e-06 -2.89513e-06 0.100785)
(-2.8248e-07 -1.31984e-07 0.101149)
(1.38085e-06 -1.17386e-06 0.0910523)
(-1.36201e-06 1.09642e-06 0.0910551)
(-3.43354e-08 1.03762e-05 0.101079)
(-1.26783e-07 -2.89865e-07 0.101149)
(2.7944e-06 -9.16551e-06 0.100783)
(4.0515e-07 -2.32015e-07 0.101147)
(3.19853e-08 -1.04475e-05 0.101078)
(-1.27214e-07 -2.80705e-07 0.101149)
(-2.91574e-06 8.87899e-06 0.100785)
(-2.93676e-06 -3.46482e-06 0.100189)
(-3.45286e-06 -2.93311e-06 0.100189)
(3.62436e-05 3.62581e-05 0.101143)
(2.86428e-06 3.38427e-06 0.100191)
(3.37993e-06 2.85725e-06 0.100191)
(1.9345e-05 1.93338e-05 0.100003)
(8.10822e-05 0.000135312 0.100053)
(0.000135371 8.10956e-05 0.100053)
(0.00041522 0.0010436 0.0978659)
(0.000115178 0.00020445 0.100125)
(0.00104271 0.000412612 0.0978661)
(0.000204597 0.000115206 0.100125)
(0.000100818 0.000100782 0.100042)
(0.000118857 0.000513935 0.100267)
(0.000512826 0.000118486 0.100267)
(0.000117053 0.000179877 0.100098)
(0.000180017 0.000117071 0.100098)
(5.75072e-06 4.75959e-05 0.100008)
(1.5142e-05 1.45608e-05 0.100001)
(6.04721e-05 0.000128296 0.100057)
(-8.86868e-07 1.42323e-05 0.0999954)
(-5.7632e-06 4.76054e-05 0.100008)
(-1.51398e-05 1.45555e-05 0.100001)
(-6.04452e-05 0.000128285 0.100057)
(8.87165e-07 1.42332e-05 0.0999954)
(4.58686e-06 0.000154261 0.100054)
(0.000327309 0.000317674 0.0993444)
(9.8408e-05 0.000167317 0.100057)
(7.30098e-06 0.000328777 0.100417)
(-4.62571e-06 0.000154276 0.100054)
(-0.000326767 0.000318417 0.0993446)