/*--------------------------------*- C++ -*----------------------------------*\
| =========                 |                                                 |
| \\      /  F ield         | OpenFOAM: The Open Source CFD Toolbox           |
|  \\    /   O peration     | Version:  2206                                  |
|   \\  /    A nd           | Website:  www.openfoam.com                      |
|    \\/     M anipulation  |                                                 |
\*---------------------------------------------------------------------------*/
FoamFile
{
    version     2.0;
    format      ascii;
    arch        "LSB;label=32;scalar=64";
    class       surfaceScalarField;
    location    "29.5";
    object      phi;
}
// * * * * * * * * * * * * * * * * * * * * * * * * * * * * * * * * * * * * * //

dimensions      [0 3 -1 0 0 0 0];

oriented        oriented;

internalField   nonuniform List<scalar> 
83378
(
-0.00108711
-1.20635e-06
-1.67361e-09
2.92168e-09
0.00108711
-2.53819e-07
1.20906e-06
2.52656e-07
8.93183e-07
-2.5556e-07
-8.92832e-07
2.524e-07
1.23465e-06
1.20108e-06
-2.31217e-07
-2.36501e-07
0.000265125
1.64208e-09
1.66805e-09
-0.00108721
-1.59883e-09
-1.68169e-09
0.00108721
-0.00108711
-1.20633e-06
-1.78564e-09
2.85696e-09
0.00108711
-2.53792e-07
1.20907e-06
2.52674e-07
8.93215e-07
-2.55502e-07
-8.92785e-07
2.52447e-07
-0.00108677
-1.20094e-06
-1.76856e-09
2.94056e-09
0.00108677
-2.538e-07
1.20363e-06
2.52671e-07
8.93043e-07
-2.58175e-07
-8.92663e-07
2.55121e-07
-0.000267093
1.23464e-06
1.20106e-06
-2.31195e-07
-2.36486e-07
0.000265125
1.7027e-09
1.72581e-09
-0.00108721
-1.62111e-09
-1.71086e-09
0.00108721
-0.00108711
-1.20631e-06
-1.88238e-09
2.80723e-09
0.00108711
-2.53766e-07
1.20909e-06
2.52699e-07
8.93236e-07
-2.55459e-07
-8.92772e-07
2.52496e-07
-0.00108677
-1.20093e-06
-1.82111e-09
2.91898e-09
0.00108677
-2.53782e-07
1.20364e-06
2.52688e-07
8.93051e-07
-2.58131e-07
-8.92661e-07
2.55171e-07
-0.000267093
1.23462e-06
1.20104e-06
-2.31169e-07
-2.36464e-07
0.000265125
1.81332e-09
1.81252e-09
-0.00108721
-1.66339e-09
-1.7755e-09
0.00108721
-0.00108711
-1.20628e-06
-2.04807e-09
2.74391e-09
0.00108711
-2.53738e-07
1.20913e-06
2.52744e-07
8.93296e-07
-2.55431e-07
-8.92728e-07
2.52546e-07
-0.00108677
-1.20091e-06
-1.91574e-09
2.89012e-09
0.00108677
-2.53758e-07
1.20366e-06
2.52721e-07
8.93104e-07
-2.58092e-07
-8.9262e-07
2.55226e-07
-0.000267093
1.2346e-06
1.20103e-06
-2.3115e-07
-2.36438e-07
0.000265125
1.78542e-09
2.03745e-09
-0.0010872
-1.79774e-09
-1.76311e-09
0.0010872
-0.00108711
-1.20628e-06
-2.00443e-09
2.78651e-09
0.00108711
-2.53737e-07
1.20911e-06
2.52738e-07
8.93302e-07
-2.55403e-07
-8.92708e-07
2.52564e-07
-0.00108677
-1.20085e-06
-2.03895e-09
2.72083e-09
0.00108677
-2.53667e-07
1.20372e-06
2.52772e-07
8.93149e-07
-2.58027e-07
-8.92566e-07
2.5527e-07
-0.000267093
1.23457e-06
1.201e-06
-2.31101e-07
-2.3638e-07
0.000265124
1.92801e-09
2.65604e-09
-0.0010872
-2.17593e-09
-1.72043e-09
0.0010872
-0.00108711
-1.20627e-06
-1.67223e-09
3.06919e-09
0.00108711
-2.5379e-07
1.209e-06
2.52556e-07
8.93029e-07
-2.55169e-07
-8.92522e-07
2.52036e-07
-0.00108677
-1.20069e-06
-2.51223e-09
2.18931e-09
0.00108677
-2.53515e-07
1.20385e-06
2.52887e-07
8.9302e-07
-2.57639e-07
-8.92283e-07
2.54969e-07
-0.000267092
1.23441e-06
1.2009e-06
-2.30963e-07
-2.36202e-07
0.000265124
4.92262e-10
3.74865e-10
-0.0010872
-1.11145e-09
-1.23466e-09
0.00108721
-0.00108711
-1.20612e-06
-9.36621e-10
2.63532e-09
0.00108711
-2.53631e-07
1.20855e-06
2.52131e-07
8.91029e-07
-2.5341e-07
-8.91756e-07
2.49003e-07
-0.00108677
-1.20088e-06
-5.09655e-10
3.18387e-09
0.00108677
-2.5378e-07
1.20286e-06
2.51844e-07
8.90816e-07
-2.56126e-07
-8.91628e-07
2.51532e-07
-0.000267093
1.23455e-06
1.20098e-06
-2.30898e-07
-2.36176e-07
0.000265124
4.47664e-10
2.62724e-10
-0.00108721
-1.18269e-09
-1.40525e-09
0.00108721
-0.00108712
-1.20591e-06
-5.89435e-10
3.17317e-09
0.00108711
-2.52469e-07
1.20844e-06
2.51189e-07
8.93587e-07
-2.54575e-07
-8.92978e-07
2.51261e-07
-0.00108677
-1.20057e-06
-4.53506e-10
3.37556e-09
0.00108677
-2.52489e-07
1.20301e-06
2.51155e-07
8.93341e-07
-2.57295e-07
-8.92921e-07
2.53891e-07
-0.000267094
1.23422e-06
1.20061e-06
-2.30143e-07
-2.35473e-07
0.000265125
-3.06876e-09
-2.95229e-09
-0.00108721
9.33302e-11
1.24871e-10
0.00108721
-0.00108712
-1.20443e-06
2.97888e-09
4.6541e-09
0.00108712
-2.50875e-07
1.20655e-06
2.4862e-07
8.88265e-07
-2.48154e-07
-8.89098e-07
2.43229e-07
-0.00108678
-1.19902e-06
2.93356e-09
4.60868e-09
0.00108677
-2.50819e-07
1.20114e-06
2.48621e-07
8.88092e-07
-2.50788e-07
-8.8897e-07
2.45922e-07
-0.000267096
1.23273e-06
1.19916e-06
-2.27095e-07
-2.32379e-07
0.000265124
-8.03816e-09
-7.91718e-09
-0.0010872
1.49633e-09
1.54371e-09
0.00108722
-0.00108712
-1.20363e-06
7.91798e-09
7.91182e-09
0.00108711
-2.496e-07
1.20436e-06
2.45923e-07
8.83555e-07
-2.43576e-07
-8.85972e-07
2.36725e-07
-0.00108678
-1.19823e-06
7.88014e-09
7.88663e-09
0.00108677
-2.49592e-07
1.19894e-06
2.45941e-07
8.83379e-07
-2.46227e-07
-8.85785e-07
2.39415e-07
-0.000267098
1.23193e-06
1.19835e-06
-2.24989e-07
-2.30272e-07
0.000265123
-1.266e-09
-1.06289e-09
-0.0010872
-3.85836e-09
-8.88434e-09
0.00108722
-0.00108712
-1.19915e-06
6.22351e-09
3.44411e-09
0.00108712
-2.43154e-07
1.20022e-06
2.42597e-07
8.75608e-07
-2.31987e-07
-8.7882e-07
2.21579e-07
-0.00108679
-1.19105e-06
1.06157e-09
8.57433e-09
0.00108679
-2.43078e-07
1.19212e-06
2.39868e-07
8.72739e-07
-2.31934e-07
-8.75942e-07
2.24284e-07
-0.000267108
1.2301e-06
1.19384e-06
-2.14371e-07
-2.1961e-07
0.000265118
8.25138e-07
8.32176e-07
-0.00108706
-7.08497e-07
-6.9836e-07
0.00108681
-0.00108739
-1.10084e-06
-8.26341e-07
-3.63187e-07
0.0010877
-1.56412e-07
1.35664e-06
3.30346e-07
1.01662e-06
-1.18804e-07
-7.65079e-07
3.15814e-07
-0.00108706
-1.09264e-06
-8.37031e-07
-3.74088e-07
0.00108739
-1.56276e-07
1.35135e-06
3.33209e-07
1.01368e-06
-1.24229e-07
-7.62188e-07
3.18541e-07
-0.000267185
1.13447e-06
1.09281e-06
-1.22937e-07
-1.25466e-07
0.000265206
4.97834e-06
4.97169e-06
-0.00107311
-1.06081e-05
-1.05108e-05
0.000260484
0.000263888
0.000262962
0.000262962
4.03758e-06
6.32513e-06
6.62268e-06
4.04133e-06
6.32589e-06
6.62604e-06
-0.000268945
5.13877e-06
-4.96904e-06
5.73113e-06
-3.26224e-06
0.000266306
-0.000268921
-4.97125e-06
5.144e-06
-3.27015e-06
5.72818e-06
0.00026629
-0.000267639
-5.13576e-06
-5.14682e-06
5.74967e-06
5.73779e-06
0.000266434
1.2481e-06
0.00108677
-1.24545e-06
2.60805e-07
-2.62048e-07
2.55075e-07
-2.58402e-07
-1.20906e-06
0.000267138
-0.000265152
2.34121e-07
2.36409e-07
-1.20635e-06
2.52655e-07
-2.53817e-07
2.52392e-07
-2.5557e-07
-1.24264e-06
-1.20641e-06
0.000267109
-0.000265131
2.31342e-07
2.39143e-07
3.07544e-09
0.00108633
-2.59263e-07
2.58002e-07
8.93085e-07
-2.55539e-07
-8.92802e-07
2.52296e-07
-1.24545e-06
-1.44064e-09
3.08365e-09
0.00108677
-2.62051e-07
1.2481e-06
2.60805e-07
8.98675e-07
-2.58392e-07
-8.98431e-07
2.55085e-07
0.00108633
-1.62919e-09
-0.00108633
3.09495e-09
-1.24e-06
2.58005e-07
-2.59257e-07
-8.92754e-07
2.52332e-07
-2.55495e-07
8.93122e-07
1.24812e-06
0.00108677
-1.514e-09
-0.00108677
3.02498e-09
-1.24543e-06
2.60821e-07
-2.62027e-07
-8.98388e-07
2.55119e-07
-2.58352e-07
8.98704e-07
-2.31428e-07
-2.33737e-07
0.000265152
-1.20907e-06
0.000267138
-0.000265152
2.3414e-07
2.3643e-07
0.00108738
-1.66511e-09
-0.00108738
2.88857e-09
-1.20373e-06
2.55467e-07
-2.56603e-07
-8.9553e-07
2.5518e-07
-2.58324e-07
8.95977e-07
1.2427e-06
0.00108644
-1.49047e-09
-0.00108644
3.09367e-09
-1.24006e-06
2.60785e-07
-2.62039e-07
-8.95531e-07
2.55081e-07
-2.58288e-07
8.95814e-07
-1.52367e-09
3.07247e-09
0.00108624
-2.56466e-07
1.23729e-06
2.55262e-07
8.93093e-07
-2.5555e-07
2.52285e-07
-8.92855e-07
-1.75549e-09
-0.00108711
2.86884e-09
-1.20633e-06
2.52671e-07
-2.53796e-07
-8.92788e-07
2.52438e-07
8.93216e-07
-2.55518e-07
1.2373e-06
0.00108624
-1.58287e-09
-0.00108624
3.07369e-09
-1.23464e-06
2.55269e-07
-2.56455e-07
-8.9281e-07
2.52317e-07
-2.55511e-07
8.93127e-07
-1.20362e-06
0.000267088
-0.000265112
2.3153e-07
2.38933e-07
-1.51935e-09
2.911e-09
0.00108729
-2.53883e-07
1.20372e-06
2.52707e-07
8.93292e-07
-2.58359e-07
2.55128e-07
-8.92949e-07
-1.74652e-09
-0.00108677
2.9449e-09
-1.20095e-06
2.52667e-07
-2.53807e-07
-8.92617e-07
2.55091e-07
8.93098e-07
-2.58208e-07
1.20373e-06
0.00108729
-1.55614e-09
-0.00108729
2.88108e-09
-1.20107e-06
2.5272e-07
-2.53867e-07
-8.92914e-07
2.55156e-07
-2.58323e-07
8.93317e-07
-0.000265125
2.33859e-07
2.39173e-07
1.23999e-06
1.20372e-06
-2.2867e-07
-2.36452e-07
0.000265131
-1.24265e-06
-1.20642e-06
0.000267109
-0.000265131
2.31359e-07
2.39166e-07
3.09098e-09
0.00108633
-2.59251e-07
1.24264e-06
2.58007e-07
8.93118e-07
-2.55484e-07
-8.92759e-07
2.52344e-07
-1.24543e-06
-1.54748e-09
3.01043e-09
0.00108677
-2.62022e-07
1.24812e-06
2.60824e-07
8.98704e-07
-2.58337e-07
-8.98386e-07
2.55132e-07
0.00108633
-1.67148e-09
-0.00108633
3.07876e-09
-1.23998e-06
2.58022e-07
-2.5924e-07
-8.92754e-07
2.52372e-07
-2.55453e-07
8.93119e-07
1.24813e-06
0.00108677
-1.57279e-09
-0.00108677
2.98783e-09
-1.24542e-06
2.60846e-07
-2.62003e-07
-8.98383e-07
2.55159e-07
-2.58313e-07
8.9871e-07
-2.31405e-07
-2.33712e-07
0.000265152
-1.20908e-06
0.000267138
-0.000265152
2.34165e-07
2.36458e-07
2.88165e-09
0.00108738
-2.56594e-07
1.20641e-06
2.55469e-07
8.9598e-07
-2.58323e-07
-8.95522e-07
2.55187e-07
-1.24005e-06
-1.50809e-09
3.09883e-09
0.00108644
-2.6203e-07
1.2427e-06
2.60786e-07
8.95817e-07
-2.58278e-07
-8.95522e-07
2.55091e-07
0.00108738
-1.72228e-09
-0.00108738
2.8564e-09
-1.20371e-06
2.55482e-07
-2.56582e-07
-8.9552e-07
2.55224e-07
-2.58282e-07
8.95983e-07
1.24271e-06
0.00108644
-1.54673e-09
-0.00108644
3.06815e-09
-1.24005e-06
2.60798e-07
-2.62019e-07
-8.95519e-07
2.55122e-07
-2.58246e-07
8.95818e-07
-1.62107e-09
3.06847e-09
0.00108624
-2.56452e-07
1.2373e-06
2.55268e-07
8.93125e-07
-2.55497e-07
2.5233e-07
-8.92808e-07
-1.82725e-09
-0.00108711
2.84022e-09
-1.20632e-06
2.52693e-07
-2.53774e-07
-8.92779e-07
2.5248e-07
8.93225e-07
-2.55478e-07
1.23731e-06
0.00108624
-1.64124e-09
-0.00108624
3.055e-09
-1.23463e-06
2.55285e-07
-2.56439e-07
-8.92805e-07
2.52364e-07
-2.55464e-07
8.93133e-07
-2.2886e-07
-2.36254e-07
0.000265112
-1.20363e-06
0.000267088
-0.000265112
2.31547e-07
2.38949e-07
-1.57531e-09
2.86236e-09
0.00108729
-2.53862e-07
1.20373e-06
2.52722e-07
8.93314e-07
-2.58311e-07
2.55166e-07
-8.92915e-07
-1.79559e-09
-0.00108677
2.92147e-09
-1.20094e-06
2.52683e-07
-2.53788e-07
-8.92615e-07
2.55136e-07
8.93097e-07
-2.58166e-07
1.20375e-06
0.00108729
-1.58727e-09
-0.00108729
2.84629e-09
-1.20105e-06
2.52741e-07
-2.53846e-07
-8.92915e-07
2.55192e-07
-2.58286e-07
8.93316e-07
-0.000265125
2.33883e-07
2.39192e-07
1.23997e-06
1.2037e-06
-2.2865e-07
-2.36425e-07
0.00026513
-1.24267e-06
-1.20645e-06
0.000267109
-0.00026513
2.31397e-07
2.39198e-07
3.05943e-09
0.00108633
-2.59228e-07
1.24266e-06
2.58032e-07
8.93122e-07
-2.55446e-07
-8.92759e-07
2.52384e-07
-1.24541e-06
-1.62759e-09
2.95163e-09
0.00108677
-2.61993e-07
1.24814e-06
2.60853e-07
8.9872e-07
-2.58298e-07
-8.98377e-07
2.55175e-07
0.00108633
-1.74778e-09
-0.00108633
3.05641e-09
-1.23996e-06
2.58045e-07
-2.59221e-07
-8.92704e-07
2.52423e-07
-2.55412e-07
8.93181e-07
1.24815e-06
0.00108677
-1.64003e-09
-0.00108677
2.98292e-09
-1.2454e-06
2.60865e-07
-2.61985e-07
-8.98348e-07
2.55199e-07
-2.58277e-07
8.98754e-07
-2.3138e-07
-2.33682e-07
0.000265151
-1.2091e-06
0.000267138
-0.000265151
2.34195e-07
2.3648e-07
2.84773e-09
0.00108738
-2.56574e-07
1.20642e-06
2.55493e-07
8.95987e-07
-2.58281e-07
-8.95517e-07
2.55231e-07
-1.24004e-06
-1.53412e-09
3.08368e-09
0.00108644
-2.62014e-07
1.24271e-06
2.60804e-07
8.95816e-07
-2.58244e-07
-8.95526e-07
2.55126e-07
0.00108738
-1.81545e-09
-0.00108738
2.8197e-09
-1.20368e-06
2.55523e-07
-2.56548e-07
-8.95494e-07
2.55273e-07
-2.58248e-07
8.96025e-07
1.24274e-06
0.00108644
-1.67777e-09
-0.00108644
2.99987e-09
-1.24001e-06
2.60832e-07
-2.61988e-07
-8.95474e-07
2.5518e-07
-2.58202e-07
8.95881e-07
-1.70715e-09
3.03123e-09
0.00108624
-2.56429e-07
1.23731e-06
2.55294e-07
8.93143e-07
-2.55451e-07
2.5238e-07
-8.92796e-07
-1.88935e-09
-0.00108711
2.83981e-09
-1.2063e-06
2.52714e-07
-2.53756e-07
-8.92747e-07
2.52515e-07
8.93266e-07
-2.55445e-07
1.23733e-06
0.00108624
-1.69984e-09
-0.00108624
3.0326e-09
-1.23461e-06
2.55314e-07
-2.56415e-07
-8.92771e-07
2.52411e-07
-2.55428e-07
8.93174e-07
-2.28847e-07
-2.36236e-07
0.000265112
-1.20366e-06
0.000267088
-0.000265112
2.31584e-07
2.38987e-07
-1.64715e-09
2.81534e-09
0.00108729
-2.53836e-07
1.20375e-06
2.52751e-07
8.93332e-07
-2.58274e-07
2.55209e-07
-8.92906e-07
-1.9001e-09
-0.00108677
2.88104e-09
-1.20091e-06
2.52709e-07
-2.53767e-07
-8.92571e-07
2.5519e-07
8.9315e-07
-2.58118e-07
1.20376e-06
0.00108729
-1.68817e-09
-0.00108729
2.82894e-09
-1.20103e-06
2.52766e-07
-2.53825e-07
-8.92857e-07
2.5525e-07
-2.58239e-07
8.93381e-07
-0.000265125
2.33913e-07
2.3923e-07
1.23995e-06
1.20368e-06
-2.28625e-07
-2.36397e-07
0.00026513
-1.24274e-06
-1.20649e-06
0.000267108
-0.00026513
2.31443e-07
2.39264e-07
3.04341e-09
0.00108633
-2.5921e-07
1.24268e-06
2.58055e-07
8.93187e-07
-2.55407e-07
-8.92703e-07
2.5243e-07
-1.24538e-06
-1.80743e-09
2.89141e-09
0.00108677
-2.61967e-07
1.24817e-06
2.60896e-07
8.98785e-07
-2.58263e-07
-8.98328e-07
2.55232e-07
0.00108633
-1.82966e-09
-0.00108633
2.93337e-09
-1.2399e-06
2.58109e-07
-2.59162e-07
-8.92661e-07
2.52479e-07
-2.55361e-07
8.9323e-07
1.24817e-06
0.00108676
-1.63224e-09
-0.00108677
3.05393e-09
-1.24537e-06
2.60887e-07
-2.61967e-07
-8.9831e-07
2.55238e-07
-2.58245e-07
8.98793e-07
-2.31348e-07
-2.3366e-07
0.000265151
-1.20913e-06
0.000267137
-0.000265151
2.34244e-07
2.36532e-07
2.82692e-09
0.00108738
-2.56548e-07
1.20644e-06
2.55517e-07
8.96035e-07
-2.58238e-07
-8.95479e-07
2.55283e-07
-1.24002e-06
-1.65079e-09
3.05142e-09
0.00108644
-2.6199e-07
1.24273e-06
2.60831e-07
8.95884e-07
-2.58194e-07
-8.95466e-07
2.55191e-07
0.00108738
-2.0503e-09
-0.00108738
2.77508e-09
-1.20364e-06
2.55562e-07
-2.56511e-07
-8.95417e-07
2.5536e-07
-2.58162e-07
8.96101e-07
1.24279e-06
0.00108644
-1.92887e-09
-0.00108644
2.90449e-09
-1.23997e-06
2.60896e-07
-2.61941e-07
-8.95418e-07
2.55263e-07
-2.58133e-07
8.95941e-07
-1.79206e-09
3.02423e-09
0.00108624
-2.56411e-07
1.23733e-06
2.55318e-07
8.93187e-07
-2.55418e-07
2.52421e-07
-8.92764e-07
-1.85685e-09
-0.00108711
2.87919e-09
-1.20626e-06
2.52739e-07
-2.53736e-07
-8.92712e-07
2.52554e-07
8.93301e-07
-2.55413e-07
1.23739e-06
0.00108624
-1.76353e-09
-0.00108624
2.94646e-09
-1.23455e-06
2.55371e-07
-2.56365e-07
-8.92727e-07
2.52468e-07
-2.55375e-07
8.93226e-07
-2.28806e-07
-2.36204e-07
0.000265112
-1.20374e-06
0.00026709
-0.000265112
2.31649e-07
2.36487e-07
-1.74948e-09
2.81334e-09
0.00108728
-2.53821e-07
1.20377e-06
2.52771e-07
8.93386e-07
-2.58232e-07
2.55257e-07
-8.92857e-07
-2.07389e-09
-0.00108677
2.73936e-09
-1.20085e-06
2.52755e-07
-2.53705e-07
-8.92528e-07
2.55262e-07
8.93208e-07
-2.58068e-07
1.20382e-06
0.00108728
-1.82125e-09
-0.00108728
2.80875e-09
-1.20098e-06
2.52819e-07
-2.53778e-07
-8.92819e-07
2.55315e-07
-2.58182e-07
8.93435e-07
-0.000265125
2.33969e-07
2.39291e-07
1.2399e-06
1.20365e-06
-2.28575e-07
-2.36338e-07
0.00026513
-1.24284e-06
-1.20652e-06
0.000267108
-0.000265129
2.31463e-07
2.39322e-07
2.94017e-09
0.00108633
-2.59172e-07
1.24272e-06
2.58086e-07
8.93203e-07
-2.55375e-07
-8.92673e-07
2.52452e-07
-1.24538e-06
-1.79338e-09
2.96829e-09
0.00108676
-2.6197e-07
1.24815e-06
2.60884e-07
8.98797e-07
-2.58233e-07
-8.98302e-07
2.55252e-07
0.00108633
-1.99787e-09
-0.00108633
2.68486e-09
-1.23979e-06
2.58201e-07
-2.59046e-07
-8.92507e-07
2.5237e-07
-2.55175e-07
8.93204e-07
1.24823e-06
0.00108676
-1.73926e-09
-0.00108676
3.11659e-09
-1.24527e-06
2.60897e-07
-2.61902e-07
-8.98119e-07
2.55121e-07
-2.58039e-07
8.98786e-07
-2.3132e-07
-2.3363e-07
0.000265151
-1.20919e-06
0.000267137
-0.00026515
2.34266e-07
2.36547e-07
2.78896e-09
0.00108738
-2.56519e-07
1.20647e-06
2.55555e-07
8.9609e-07
-2.58174e-07
-8.95412e-07
2.55325e-07
-1.23996e-06
-1.93537e-09
2.90739e-09
0.00108644
-2.61927e-07
1.24279e-06
2.60897e-07
8.95943e-07
-2.58115e-07
-8.95407e-07
2.55257e-07
0.00108738
-2.22117e-09
-0.00108738
2.8173e-09
-1.2036e-06
2.55571e-07
-2.56484e-07
-8.95258e-07
2.5524e-07
-2.57955e-07
8.96066e-07
1.24281e-06
0.00108644
-1.95788e-09
-0.00108644
2.90218e-09
-1.23994e-06
2.60909e-07
-2.61903e-07
-8.95292e-07
2.55125e-07
-2.57957e-07
8.95874e-07
-1.75339e-09
2.97952e-09
0.00108623
-2.56381e-07
1.23736e-06
2.5534e-07
8.93201e-07
-2.5539e-07
2.52432e-07
-8.92731e-07
-1.92379e-09
-0.00108711
2.91099e-09
-1.20616e-06
2.52755e-07
-2.53662e-07
-8.92534e-07
2.52425e-07
8.93283e-07
-2.5522e-07
1.2375e-06
0.00108623
-1.91195e-09
-0.00108623
2.70992e-09
-1.23444e-06
2.55461e-07
-2.56255e-07
-8.92561e-07
2.52358e-07
-2.5518e-07
8.93206e-07
-2.28741e-07
-2.33597e-07
0.000265112
-1.20378e-06
0.00026709
-0.000265111
2.3167e-07
2.36485e-07
-1.80286e-09
2.8599e-09
0.00108728
-2.53802e-07
1.20377e-06
2.52778e-07
8.93416e-07
-2.58191e-07
2.55283e-07
-8.92815e-07
-2.21307e-09
-0.00108677
2.65883e-09
-1.20079e-06
2.52801e-07
-2.53627e-07
-8.92379e-07
2.55147e-07
8.93167e-07
-2.57871e-07
1.20388e-06
0.00108728
-2.15482e-09
-0.00108728
2.78502e-09
-1.20091e-06
2.52862e-07
-2.53711e-07
-8.92616e-07
2.55241e-07
-2.57953e-07
8.93456e-07
-0.000265124
2.34009e-07
2.3937e-07
1.23973e-06
1.20354e-06
-2.28442e-07
-2.36155e-07
0.000265129
-1.24213e-06
-1.20574e-06
0.000267108
-0.000265129
2.3031e-07
2.38257e-07
2.37121e-09
0.00108633
-2.59022e-07
1.24285e-06
2.58174e-07
8.93024e-07
-2.55026e-07
-8.92427e-07
2.52096e-07
-1.24538e-06
-1.5068e-09
3.30587e-09
0.00108676
-2.62035e-07
1.24803e-06
2.60692e-07
8.9853e-07
-2.57986e-07
-8.98106e-07
2.54733e-07
0.00108633
3.7134e-10
-0.00108633
3.93149e-09
-1.24e-06
2.57517e-07
-2.59381e-07
-8.92297e-07
2.49414e-07
-2.54279e-07
8.91322e-07
1.2476e-06
0.00108677
3.21988e-10
-0.00108676
3.9733e-09
-1.24555e-06
2.6033e-07
-2.6225e-07
-8.9793e-07
2.52276e-07
-2.57126e-07
8.96928e-07
-2.31271e-07
-2.33592e-07
0.00026515
-1.20856e-06
0.000267138
-0.00026515
2.33233e-07
2.35519e-07
2.63956e-09
0.00108738
-2.56441e-07
1.20651e-06
2.55567e-07
8.96021e-07
-2.57784e-07
-8.951e-07
2.55034e-07
-1.23982e-06
-2.58203e-09
2.45698e-09
0.00108644
-2.61799e-07
1.24289e-06
2.60987e-07
8.95881e-07
-2.57711e-07
-8.95098e-07
2.54998e-07
0.00108738
-2.14007e-11
-0.00108738
4.09521e-09
-1.20392e-06
2.54785e-07
-2.5693e-07
-8.94826e-07
2.52549e-07
-2.56755e-07
8.94332e-07
1.24211e-06
0.00108644
3.8547e-11
-0.00108644
4.04566e-09
-1.24012e-06
2.6021e-07
-2.62195e-07
-8.94794e-07
2.52436e-07
-2.5672e-07
8.94177e-07
-1.8608e-09
2.5368e-09
0.00108623
-2.56255e-07
1.23744e-06
2.55392e-07
8.93019e-07
-2.55052e-07
2.5206e-07
-8.92484e-07
1.79816e-10
-0.00108711
3.77767e-09
-1.20645e-06
2.52184e-07
-2.54014e-07
-8.92347e-07
2.49585e-07
8.91431e-07
-2.54299e-07
1.23673e-06
0.00108624
4.03459e-10
-0.00108623
4.03933e-09
-1.23475e-06
2.54715e-07
-2.56674e-07
-8.9234e-07
2.49438e-07
-2.54265e-07
8.91341e-07
-2.28574e-07
-2.3345e-07
0.000265111
-1.20315e-06
0.00026709
-0.000265111
2.30697e-07
2.35436e-07
-2.23524e-09
2.78965e-09
0.00108728
-2.53729e-07
1.2038e-06
2.52773e-07
8.93291e-07
-2.57806e-07
2.54962e-07
-8.92517e-07
9.3531e-11
-0.00108677
3.62613e-09
-1.20089e-06
2.52168e-07
-2.53855e-07
-8.92054e-07
2.5231e-07
8.91367e-07
-2.56798e-07
1.20312e-06
0.00108728
3.10189e-10
-0.00108728
4.03328e-09
-1.20123e-06
2.52122e-07
-2.54141e-07
-8.92411e-07
2.52316e-07
-2.57029e-07
8.91567e-07
-0.000265124
2.32865e-07
2.38213e-07
1.2399e-06
1.20368e-06
-2.28406e-07
-2.36142e-07
0.000265129
-1.24204e-06
-1.20593e-06
0.00026711
-0.00026513
2.30207e-07
2.37895e-07
3.28155e-09
0.00108633
-2.59215e-07
1.24193e-06
2.57277e-07
8.90902e-07
-2.53487e-07
-8.91747e-07
2.48774e-07
-1.24522e-06
-6.94258e-10
2.7659e-09
0.00108677
-2.61864e-07
1.2476e-06
2.6028e-07
8.96527e-07
-2.56235e-07
-8.97337e-07
2.51691e-07
0.00108633
-2.55815e-09
-0.00108633
3.27748e-09
-1.23937e-06
2.56575e-07
-2.57893e-07
-8.91515e-07
2.50874e-07
-2.5341e-07
8.92624e-07
1.2476e-06
0.00108677
-2.40945e-09
-0.00108677
2.88711e-09
-1.2447e-06
2.59476e-07
-2.60542e-07
-8.97143e-07
2.53638e-07
-2.56263e-07
8.98198e-07
-2.30977e-07
-2.33292e-07
0.000265151
-1.20854e-06
0.000267139
-0.000265151
2.32964e-07
2.35267e-07
3.02636e-09
0.00108738
-2.5666e-07
1.20571e-06
2.547e-07
8.93659e-07
-2.56191e-07
-8.94505e-07
2.51637e-07
-1.24002e-06
-1.14305e-10
3.3782e-09
0.00108644
-2.62092e-07
1.24193e-06
2.5994e-07
8.93491e-07
-2.56193e-07
-8.94495e-07
2.51495e-07
0.00108738
-2.15701e-09
-0.00108738
2.69835e-09
-1.20295e-06
2.54175e-07
-2.55081e-07
-8.94488e-07
2.53532e-07
-2.56448e-07
8.9532e-07
1.24214e-06
0.00108644
-1.88871e-09
-0.00108644
3.19379e-09
-1.23939e-06
2.59388e-07
-2.60653e-07
-8.94496e-07
2.53413e-07
-2.56422e-07
8.95173e-07
-5.18715e-10
3.18783e-09
0.00108624
-2.56429e-07
1.23664e-06
2.54563e-07
8.90915e-07
-2.53466e-07
2.48789e-07
-8.91776e-07
-2.69151e-09
-0.00108712
2.78535e-09
-1.20561e-06
2.51313e-07
-2.52322e-07
-8.9154e-07
2.50981e-07
8.92722e-07
-2.53426e-07
1.23675e-06
0.00108624
-2.50864e-09
-0.00108624
3.13921e-09
-1.23395e-06
2.53897e-07
-2.55021e-07
-8.91579e-07
2.50834e-07
-2.53437e-07
8.92609e-07
-2.28538e-07
-2.33436e-07
0.000265111
-1.20301e-06
0.000267092
-0.000265112
2.30236e-07
2.35159e-07
-4.00576e-10
2.91614e-09
0.00108729
-2.53854e-07
1.20308e-06
2.52013e-07
8.91091e-07
-2.56267e-07
2.51627e-07
-8.91897e-07
-2.38487e-09
-0.00108677
3.24562e-09
-1.20037e-06
2.51165e-07
-2.52511e-07
-8.91453e-07
2.53539e-07
8.92508e-07
-2.56232e-07
1.20323e-06
0.00108729
-2.31493e-09
-0.00108729
2.69161e-09
-1.20032e-06
2.51396e-07
-2.52375e-07
-8.91732e-07
2.53638e-07
-2.56292e-07
8.92771e-07
-0.000265125
2.32707e-07
2.37983e-07
1.2396e-06
1.20325e-06
-2.27615e-07
-2.35463e-07
0.00026513
-1.24142e-06
-1.20515e-06
0.000267112
-0.00026513
2.28179e-07
2.36014e-07
3.48257e-09
0.00108633
-2.5796e-07
1.24201e-06
2.56516e-07
8.93477e-07
-2.54555e-07
-8.92961e-07
2.51158e-07
-1.245e-06
-2.91593e-10
3.28953e-09
0.00108677
-2.60687e-07
1.2475e-06
2.5935e-07
8.99059e-07
-2.5741e-07
-8.98575e-07
2.53909e-07
0.00108633
-5.16781e-09
-0.00108633
1.95185e-09
-1.2381e-06
2.56082e-07
-2.56793e-07
-8.89895e-07
2.464e-07
-2.49496e-07
8.90639e-07
1.24686e-06
0.00108677
-5.05084e-09
-0.00108677
2.005e-09
-1.24357e-06
2.58865e-07
-2.59597e-07
-8.95522e-07
2.49166e-07
-2.52359e-07
8.96227e-07
-2.30389e-07
-2.32685e-07
0.000265151
-1.20781e-06
0.000267141
-0.000265151
2.30974e-07
2.33259e-07
3.07054e-09
0.00108738
-2.55209e-07
1.20583e-06
2.54047e-07
8.96284e-07
-2.57499e-07
-8.95813e-07
2.53894e-07
-1.23963e-06
-3.76288e-11
3.40957e-09
0.00108644
-2.60699e-07
1.24209e-06
2.59332e-07
8.9611e-07
-2.57443e-07
-8.95832e-07
2.53813e-07
0.00108738
-5.29896e-09
-0.00108738
1.79992e-09
-1.20185e-06
2.53523e-07
-2.5415e-07
-8.92634e-07
2.49269e-07
-2.52298e-07
8.93514e-07
1.24146e-06
0.00108644
-5.14366e-09
-0.00108644
1.96329e-09
-1.23817e-06
2.58861e-07
-2.59561e-07
-8.92637e-07
2.49183e-07
-2.52259e-07
8.93366e-07
-4.45741e-10
3.40542e-09
0.00108624
-2.55123e-07
1.23668e-06
2.53802e-07
8.93472e-07
-2.54563e-07
2.51115e-07
-8.93001e-07
-5.25564e-09
-0.00108711
1.83364e-09
-1.20447e-06
2.50712e-07
-2.51369e-07
-8.89937e-07
2.4649e-07
8.90727e-07
-2.49538e-07
1.23605e-06
0.00108624
-5.11438e-09
-0.00108624
1.98007e-09
-1.23277e-06
2.53325e-07
-2.54009e-07
-8.89956e-07
2.4638e-07
-2.49504e-07
8.90656e-07
-2.27895e-07
-2.32688e-07
0.000265112
-1.20242e-06
0.000267094
-0.000265111
2.28414e-07
2.3323e-07
-2.75733e-10
3.05599e-09
0.00108729
-2.5249e-07
1.20314e-06
2.51285e-07
8.93657e-07
-2.57412e-07
2.53931e-07
-8.93144e-07
-5.31752e-09
-0.00108677
1.77281e-09
-1.19905e-06
2.50725e-07
-2.51291e-07
-8.89753e-07
2.49156e-07
8.906e-07
-2.52191e-07
1.20248e-06
0.00108729
-5.16251e-09
-0.00108729
1.8095e-09
-1.19919e-06
2.5078e-07
-2.51407e-07
-8.90058e-07
2.49221e-07
-2.52309e-07
8.90854e-07
-0.000265124
2.30701e-07
2.36012e-07
1.23806e-06
1.20182e-06
-2.24579e-07
-2.32324e-07
0.000265129
-1.24093e-06
-1.20467e-06
0.000267114
-0.000265129
2.2645e-07
2.34267e-07
4.7743e-09
0.00108633
-2.56303e-07
1.24015e-06
2.53991e-07
8.88185e-07
-2.48122e-07
-8.89092e-07
2.43142e-07
-1.24353e-06
3.16163e-09
4.82855e-09
0.00108677
-2.59103e-07
1.2456e-06
2.56774e-07
8.93768e-07
-2.50982e-07
-8.9471e-07
2.45919e-07
0.00108633
-7.89321e-09
-0.00108633
-1.22036e-10
-1.23693e-06
2.54928e-07
-2.54461e-07
-8.86091e-07
2.42014e-07
-2.43717e-07
8.87807e-07
1.24638e-06
0.00108677
-7.82757e-09
-0.00108677
-6.11344e-11
-1.2424e-06
2.57717e-07
-2.57252e-07
-8.91707e-07
2.44798e-07
-2.46566e-07
8.93395e-07
-2.27313e-07
-2.29624e-07
0.00026515
-1.20733e-06
0.000267143
-0.00026515
2.29249e-07
2.31532e-07
4.6368e-09
0.00108738
-2.5367e-07
1.20388e-06
2.51422e-07
8.91053e-07
-2.5091e-07
-8.91799e-07
2.4602e-07
-1.23813e-06
3.07015e-09
4.81304e-09
0.00108644
-2.59089e-07
1.24019e-06
2.56761e-07
8.9091e-07
-2.50897e-07
-8.91821e-07
2.4594e-07
0.00108738
-8.06356e-09
-0.00108738
-2.56673e-10
-1.20068e-06
2.52367e-07
-2.51826e-07
-8.88835e-07
2.44893e-07
-2.46501e-07
8.90673e-07
1.24098e-06
0.00108644
-7.8638e-09
-0.00108644
-7.66114e-11
-1.237e-06
2.57698e-07
-2.57246e-07
-8.88848e-07
2.44793e-07
-2.46485e-07
8.90521e-07
3.1051e-09
4.78117e-09
0.00108624
-2.53524e-07
1.23479e-06
2.51236e-07
8.88193e-07
-2.48136e-07
2.43128e-07
-8.89121e-07
-8.02664e-09
-0.00108711
-2.36672e-10
-1.20329e-06
2.49563e-07
-2.49022e-07
-8.8612e-07
2.42118e-07
8.87899e-07
-2.43742e-07
1.23557e-06
0.00108624
-7.85148e-09
-0.00108624
-8.8552e-11
-1.2316e-06
2.52172e-07
-2.51677e-07
-8.86138e-07
2.42004e-07
-2.43723e-07
8.87819e-07
-2.24732e-07
-2.29586e-07
0.000265111
-1.20191e-06
0.000267093
-0.000265111
2.2667e-07
2.34041e-07
3.06371e-09
4.65275e-09
0.00108729
-2.5093e-07
1.20121e-06
2.48676e-07
8.88396e-07
-2.50926e-07
2.45965e-07
-8.89217e-07
-8.04733e-09
-0.00108677
-2.68319e-10
-1.19789e-06
2.49582e-07
-2.49017e-07
-8.85935e-07
2.44804e-07
8.87719e-07
-2.46412e-07
1.202e-06
0.00108729
-8.00796e-09
-0.00108729
-2.10436e-10
-1.19802e-06
2.49618e-07
-2.49079e-07
-8.86229e-07
2.44865e-07
-2.46509e-07
8.88041e-07
-0.000265124
2.28964e-07
2.34283e-07
1.23726e-06
1.20102e-06
-2.22475e-07
-2.3023e-07
0.000265128
-1.24029e-06
-1.20406e-06
0.000267121
-0.000265127
2.22195e-07
2.27543e-07
8.04213e-09
0.00108633
-2.55035e-07
1.23795e-06
2.51291e-07
8.83459e-07
-2.43541e-07
-8.85965e-07
2.36621e-07
-1.24273e-06
8.09296e-09
8.07497e-09
0.00108677
-2.57824e-07
1.24341e-06
2.54078e-07
8.8905e-07
-2.46389e-07
-8.91569e-07
2.39415e-07
0.00108633
-1.44714e-08
-0.00108632
-1.06618e-08
-1.23445e-06
2.5256e-07
-2.47263e-07
-8.7833e-07
2.32523e-07
-2.32078e-07
8.81983e-07
1.24574e-06
0.00108679
-2.50403e-08
-0.00108677
-5.22624e-09
-1.23724e-06
2.52602e-07
-2.50052e-07
-8.78586e-07
2.29867e-07
-2.29516e-07
8.82212e-07
-2.25211e-07
-2.27513e-07
0.000265149
-1.20668e-06
0.000267145
-0.000265145
2.22474e-07
2.29846e-07
7.87642e-09
0.00108738
-2.52405e-07
1.20438e-06
2.51464e-07
8.86329e-07
-2.46352e-07
-8.88686e-07
2.39494e-07
-1.23733e-06
8.03913e-09
8.08872e-09
0.00108644
-2.57815e-07
1.23801e-06
2.54064e-07
8.86176e-07
-2.46322e-07
-8.88708e-07
2.3941e-07
0.00108739
-1.46983e-08
-0.00108738
-5.42014e-09
-1.19824e-06
2.49989e-07
-2.47362e-07
-8.8105e-07
2.32667e-07
-2.32163e-07
8.84845e-07
1.235e-06
0.00108645
-1.44774e-08
-0.00108644
-1.06409e-08
-1.22918e-06
2.52601e-07
-2.5003e-07
-8.78441e-07
2.32579e-07
-2.32147e-07
8.82082e-07
8.04651e-09
8.02269e-09
0.00108624
-2.52248e-07
1.23261e-06
2.48542e-07
8.83476e-07
-2.43545e-07
2.3662e-07
-8.85984e-07
-1.99521e-08
-0.00108712
-5.37305e-09
-1.19818e-06
2.44459e-07
-2.41836e-07
-8.78348e-07
2.32587e-07
8.84748e-07
-2.29408e-07
1.23497e-06
0.00108624
-1.98136e-08
-0.00108624
-5.30524e-09
-1.22648e-06
2.49831e-07
-2.44477e-07
-8.78371e-07
2.32497e-07
-2.29383e-07
8.82001e-07
-2.22652e-07
-2.30033e-07
0.00026511
-1.19862e-06
0.000267095
-0.000265111
2.22432e-07
2.27275e-07
7.94395e-09
7.93404e-09
0.00108729
-2.49651e-07
1.19902e-06
2.45975e-07
8.83697e-07
-2.46329e-07
2.39477e-07
-8.86077e-07
-1.47085e-08
-0.00108678
-1.07683e-08
-1.19276e-06
2.44471e-07
-2.41816e-07
-8.75466e-07
2.32589e-07
8.79217e-07
-2.3205e-07
1.19868e-06
0.00108729
-1.46493e-08
-0.00108729
-1.0694e-08
-1.18755e-06
2.44499e-07
-2.39133e-07
-8.73078e-07
2.29939e-07
-2.29434e-07
8.79495e-07
-0.000265127
2.22237e-07
2.30049e-07
1.23277e-06
1.19387e-06
-2.16901e-07
-2.19592e-07
0.000265131
-1.28769e-06
-1.2514e-06
0.000267198
-0.000265156
2.45655e-07
2.51062e-07
1.38973e-08
0.00108633
-2.48529e-07
1.23652e-06
2.45258e-07
8.75485e-07
-2.31973e-07
-8.78793e-07
2.21515e-07
-1.23819e-06
1.15643e-08
8.7925e-09
0.00108678
-2.51328e-07
1.23927e-06
2.48026e-07
8.78475e-07
-2.29374e-07
-8.79115e-07
2.24252e-07
0.00108661
-3.40952e-07
-0.00108643
-1.63299e-07
-1.19216e-06
2.73502e-07
-2.10057e-07
-8.21328e-07
2.45301e-07
-1.74482e-07
9.15049e-07
1.29307e-06
0.00108704
-3.40976e-07
-0.00108687
-1.57781e-07
-1.19767e-06
2.73467e-07
-2.10171e-07
-8.29686e-07
2.48045e-07
-1.74577e-07
9.23363e-07
-2.17142e-07
-2.21955e-07
0.000265147
-1.25139e-06
0.000267222
-0.000265176
2.48475e-07
2.50737e-07
8.61405e-09
0.0010874
-2.45879e-07
1.19489e-06
2.39894e-07
8.75731e-07
-2.32028e-07
-8.78892e-07
2.24373e-07
-1.22749e-06
1.20708e-09
8.70013e-09
0.00108645
-2.48518e-07
1.23121e-06
2.45251e-07
8.75611e-07
-2.29294e-07
-8.78931e-07
2.21559e-07
0.00108765
-3.47108e-07
-0.00108748
-1.5773e-07
-1.15327e-06
2.70845e-07
-2.0471e-07
-8.2669e-07
2.48249e-07
-1.74453e-07
9.20687e-07
1.28501e-06
0.00108673
-3.46389e-07
-0.00108654
-1.63215e-07
-1.18959e-06
2.73526e-07
-2.07374e-07
-8.24074e-07
2.48121e-07
-1.77155e-07
9.17852e-07
6.317e-09
8.68637e-09
0.00108624
-2.4848e-07
1.23116e-06
2.45243e-07
8.75549e-07
-2.29237e-07
2.21499e-07
-8.76169e-07
-3.41545e-07
-0.00108721
-1.62916e-07
-1.15589e-06
2.68037e-07
-2.02005e-07
-8.24092e-07
2.45361e-07
9.17868e-07
-1.7448e-07
1.28497e-06
0.00108651
-3.40997e-07
-0.00108634
-1.63294e-07
-1.18686e-06
2.73487e-07
-2.04581e-07
-8.24024e-07
2.48035e-07
-1.77163e-07
9.17768e-07