/*--------------------------------*- C++ -*----------------------------------*\
| =========                 |                                                 |
| \\      /  F ield         | OpenFOAM: The Open Source CFD Toolbox           |
|  \\    /   O peration     | Version:  2206                                  |
|   \\  /    A nd           | Website:  www.openfoam.com                      |
|    \\/     M anipulation  |                                                 |
\*---------------------------------------------------------------------------*/
FoamFile
{
    version     2.0;
    format      ascii;
    arch        "LSB;label=32;scalar=64";
    class       surfaceScalarField;
    location    "34";
    object      phi;
}
// * * * * * * * * * * * * * * * * * * * * * * * * * * * * * * * * * * * * * //

dimensions      [0 3 -1 0 0 0 0];

oriented        oriented;

internalField   nonuniform List<scalar> 
81717
(
1.7205e-09
1.87449e-09
-0.00109173
-1.80254e-09
-1.78949e-09
0.00109173
-0.00109135
-1.2136e-06
-1.89451e-09
3.28998e-09
0.00109135
-2.59258e-07
1.21655e-06
2.5795e-07
9.02267e-07
-2.63433e-07
-9.01732e-07
2.59922e-07
-0.001091
-1.20818e-06
-1.89751e-09
3.26691e-09
0.001091
-2.59243e-07
1.2111e-06
2.5797e-07
9.02097e-07
-2.66093e-07
-9.01608e-07
2.6262e-07
-0.000268043
1.24202e-06
1.20831e-06
-2.34964e-07
-2.40277e-07
0.000266068
1.76191e-09
1.92061e-09
-0.00109173
-1.82545e-09
-1.81391e-09
0.00109173
-0.00109135
-1.21359e-06
-1.96099e-09
3.26465e-09
0.00109135
-2.59243e-07
1.21656e-06
2.57961e-07
9.02274e-07
-2.63403e-07
-9.01722e-07
2.5995e-07
-0.001091
-1.20817e-06
-1.95367e-09
3.25072e-09
0.001091
-2.5923e-07
1.21111e-06
2.57979e-07
9.02102e-07
-2.66069e-07
-9.01601e-07
2.62643e-07
-0.000268043
1.242e-06
1.20829e-06
-2.34947e-07
-2.40262e-07
0.000266068
1.8314e-09
1.98434e-09
-0.00109173
-1.86212e-09
-1.85359e-09
0.00109173
-0.00109135
-1.21357e-06
-2.00805e-09
3.24562e-09
0.00109135
-2.59229e-07
1.21657e-06
2.57977e-07
9.02285e-07
-2.63375e-07
-9.01716e-07
2.59984e-07
-0.001091
-1.20816e-06
-2.00434e-09
3.22492e-09
0.001091
-2.59218e-07
1.21112e-06
2.57993e-07
9.02113e-07
-2.66032e-07
-9.01593e-07
2.62683e-07
-0.000268043
1.24199e-06
1.20828e-06
-2.34927e-07
-2.40244e-07
0.000266068
1.85216e-09
2.02634e-09
-0.00109173
-1.88342e-09
-1.86111e-09
0.00109173
-0.00109135
-1.21357e-06
-2.03528e-09
3.25786e-09
0.00109135
-2.59225e-07
1.21658e-06
2.57987e-07
9.02326e-07
-2.63351e-07
-9.0169e-07
2.60017e-07
-0.001091
-1.20814e-06
-2.0317e-09
3.23043e-09
0.001091
-2.59205e-07
1.21114e-06
2.5801e-07
9.02153e-07
-2.66013e-07
-9.01569e-07
2.62713e-07
-0.000268043
1.24198e-06
1.20827e-06
-2.34912e-07
-2.40225e-07
0.000266068
1.92138e-09
2.05745e-09
-0.00109173
-1.88614e-09
-1.88609e-09
0.00109173
-0.00109134
-1.21353e-06
-2.08043e-09
3.21835e-09
0.00109134
-2.59194e-07
1.21663e-06
2.58034e-07
9.0238e-07
-2.63329e-07
-9.01659e-07
2.60063e-07
-0.001091
-1.20811e-06
-2.08381e-09
3.213e-09
0.001091
-2.59183e-07
1.21118e-06
2.5805e-07
9.0221e-07
-2.65989e-07
-9.01534e-07
2.62761e-07
-0.000268042
1.24194e-06
1.20824e-06
-2.34874e-07
-2.40183e-07
0.000266067
2.25951e-09
2.38075e-09
-0.00109173
-1.96896e-09
-1.98596e-09
0.00109173
-0.00109134
-1.21346e-06
-2.44152e-09
2.97859e-09
0.00109134
-2.5915e-07
1.21675e-06
2.58119e-07
9.02482e-07
-2.63286e-07
-9.01602e-07
2.60153e-07
-0.001091
-1.20805e-06
-2.43767e-09
2.99613e-09
0.001091
-2.59144e-07
1.21129e-06
2.58129e-07
9.02314e-07
-2.65949e-07
-9.01478e-07
2.6285e-07
-0.000268042
1.24188e-06
1.20817e-06
-2.34825e-07
-2.40136e-07
0.000266067
2.11141e-10
3.34216e-10
-0.00109173
-1.06218e-09
-1.0976e-09
0.00109173
-0.00109134
-1.21396e-06
-3.97171e-10
3.82605e-09
0.00109134
-2.59654e-07
1.21626e-06
2.57641e-07
9.01742e-07
-2.64104e-07
-9.02358e-07
2.59341e-07
-0.001091
-1.20858e-06
-3.50346e-10
3.90055e-09
0.001091
-2.59688e-07
1.21078e-06
2.57617e-07
9.01571e-07
-2.66768e-07
-9.02235e-07
2.62035e-07
-0.000268042
1.24242e-06
1.2087e-06
-2.35454e-07
-2.40772e-07
0.000266067
1.83914e-09
1.98244e-09
-0.00109173
-1.86973e-09
-1.87504e-09
0.00109173
-0.00109135
-1.21358e-06
-2.00479e-09
3.13572e-09
0.00109135
-2.59237e-07
1.21667e-06
2.58082e-07
9.02328e-07
-2.63565e-07
-9.01821e-07
2.59957e-07
-0.001091
-1.20816e-06
-1.99268e-09
3.12836e-09
0.001091
-2.59227e-07
1.21121e-06
2.58097e-07
9.02149e-07
-2.66224e-07
-9.01699e-07
2.62651e-07
-0.000268043
1.242e-06
1.20829e-06
-2.34961e-07
-2.4028e-07
0.000266068
1.87886e-09
2.01063e-09
-0.00109173
-1.88563e-09
-1.89631e-09
0.00109173
-0.00109135
-1.21359e-06
-2.03868e-09
3.19061e-09
0.00109135
-2.59253e-07
1.21663e-06
2.58031e-07
9.02338e-07
-2.63461e-07
-9.01762e-07
2.60002e-07
-0.001091
-1.20817e-06
-2.05578e-09
3.18664e-09
0.001091
-2.59238e-07
1.21118e-06
2.5805e-07
9.02166e-07
-2.66119e-07
-9.01637e-07
2.62701e-07
-0.000268043
1.242e-06
1.2083e-06
-2.34951e-07
-2.4026e-07
0.000266068
1.74975e-09
1.88216e-09
-0.00109173
-1.81259e-09
-1.82494e-09
0.00109173
-0.00109135
-1.21362e-06
-1.90556e-09
3.26137e-09
0.00109135
-2.59292e-07
1.2166e-06
2.58e-07
9.02303e-07
-2.63501e-07
-9.01804e-07
2.59967e-07
-0.001091
-1.2082e-06
-1.93129e-09
3.26193e-09
0.001091
-2.5928e-07
1.21115e-06
2.58016e-07
9.02134e-07
-2.66156e-07
-9.01676e-07
2.62669e-07
-0.000268043
1.24203e-06
1.20834e-06
-2.34991e-07
-2.40298e-07
0.000266068
1.73772e-09
1.86806e-09
-0.00109173
-1.80303e-09
-1.81744e-09
0.00109173
-0.00109135
-1.21362e-06
-1.89348e-09
3.2643e-09
0.00109135
-2.59293e-07
1.2166e-06
2.57998e-07
9.023e-07
-2.63503e-07
-9.01806e-07
2.59966e-07
-0.001091
-1.20821e-06
-1.9205e-09
3.26778e-09
0.001091
-2.59282e-07
1.21114e-06
2.58012e-07
9.02131e-07
-2.66156e-07
-9.01677e-07
2.62667e-07
-0.000268043
1.24203e-06
1.20834e-06
-2.34992e-07
-2.40299e-07
0.000266068
1.73198e-09
1.86002e-09
-0.00109173
-1.79796e-09
-1.81386e-09
0.00109173
-0.00109135
-1.21362e-06
-1.88681e-09
3.26631e-09
0.00109135
-2.59294e-07
1.2166e-06
2.57997e-07
9.02298e-07
-2.63504e-07
-9.0181e-07
2.59963e-07
-0.001091
-1.20821e-06
-1.91277e-09
3.27458e-09
0.001091
-2.59286e-07
1.21114e-06
2.58012e-07
9.0213e-07
-2.6616e-07
-9.01681e-07
2.62667e-07
-0.000268043
1.24203e-06
1.20834e-06
-2.34994e-07
-2.40301e-07
0.000266068
1.72758e-09
1.85593e-09
-0.00109173
-1.79458e-09
-1.80966e-09
0.00109173
-0.00109135
-1.21362e-06
-1.8855e-09
3.26622e-09
0.00109135
-2.59293e-07
1.21659e-06
2.57996e-07
9.02297e-07
-2.63503e-07
-9.01808e-07
2.59962e-07
-0.001091
-1.20821e-06
-1.91463e-09
3.27392e-09
0.001091
-2.59283e-07
1.21114e-06
2.5801e-07
9.02128e-07
-2.66156e-07
-9.01679e-07
2.62665e-07
-0.000268043
1.24203e-06
1.20834e-06
-2.34992e-07
-2.40298e-07
0.000266068
1.72454e-09
1.85212e-09
-0.00109173
-1.79292e-09
-1.80872e-09
0.00109173
-0.00109135
-1.21362e-06
-1.88002e-09
3.26913e-09
0.00109135
-2.59294e-07
1.21659e-06
2.57994e-07
9.02295e-07
-2.63504e-07
-9.01809e-07
2.59959e-07
-0.001091
-1.20821e-06
-1.90778e-09
3.27729e-09
0.001091
-2.59285e-07
1.21114e-06
2.58008e-07
9.02126e-07
-2.66156e-07
-9.01679e-07
2.62662e-07
-0.000268043
1.24203e-06
1.20834e-06
-2.34993e-07
-2.40299e-07
0.000266068
1.72663e-09
1.85419e-09
-0.00109173
-1.79391e-09
-1.80917e-09
0.00109173
-0.00109135
-1.21362e-06
-1.88005e-09
3.26811e-09
0.00109135
-2.59293e-07
1.21659e-06
2.57994e-07
9.02292e-07
-2.635e-07
-9.01806e-07
2.59957e-07
-0.001091
-1.20821e-06
-1.90872e-09
3.27647e-09
0.001091
-2.59284e-07
1.21114e-06
2.58007e-07
9.02124e-07
-2.66152e-07
-9.01676e-07
2.62659e-07
-0.000268043
1.24203e-06
1.20834e-06
-2.34992e-07
-2.40298e-07
0.000266068
1.7261e-09
1.85524e-09
-0.00109173
-1.79332e-09
-1.80758e-09
0.00109173
-0.00109135
-1.21362e-06
-1.88406e-09
3.26597e-09
0.00109135
-2.59288e-07
1.21659e-06
2.57991e-07
9.02285e-07
-2.6349e-07
-9.01797e-07
2.59949e-07
-0.001091
-1.2082e-06
-1.91442e-09
3.27456e-09
0.001091
-2.59278e-07
1.21114e-06
2.58003e-07
9.02116e-07
-2.66141e-07
-9.01666e-07
2.6265e-07
-0.000268043
1.24203e-06
1.20834e-06
-2.34986e-07
-2.40292e-07
0.000266068
1.72795e-09
1.85768e-09
-0.00109173
-1.79288e-09
-1.81015e-09
0.00109173
-0.00109135
-1.21361e-06
-1.88443e-09
3.25748e-09
0.00109135
-2.59274e-07
1.21658e-06
2.5798e-07
9.02264e-07
-2.63469e-07
-9.01776e-07
2.59929e-07
-0.001091
-1.20819e-06
-1.91239e-09
3.27413e-09
0.001091
-2.5926e-07
1.21112e-06
2.57986e-07
9.02092e-07
-2.66118e-07
-9.01643e-07
2.62627e-07
-0.000268043
1.24202e-06
1.20832e-06
-2.34975e-07
-2.4028e-07
0.000266068
-1.25025e-06
-1.21388e-06
0.000268059
-0.000266074
2.35308e-07
2.43157e-07
0.00109056
-1.71006e-09
-0.00109056
3.45758e-09
-1.24737e-06
2.63307e-07
-2.64727e-07
-9.0171e-07
2.59803e-07
-2.63422e-07
9.02158e-07
1.25574e-06
0.001091
-1.65679e-09
-0.001091
3.46908e-09
-1.25285e-06
2.66121e-07
-2.67516e-07
-9.07351e-07
2.62597e-07
-2.66289e-07
9.07774e-07
-1.21655e-06
0.000268088
-0.000266095
2.38112e-07
2.40414e-07
0.00109162
-1.8616e-09
-0.00109162
3.27139e-09
-1.21099e-06
2.60762e-07
-2.62066e-07
-9.04465e-07
2.62683e-07
-2.66243e-07
9.05056e-07
1.25031e-06
0.00109067
-1.65599e-09
-0.00109067
3.47434e-09
-1.24744e-06
2.66097e-07
-2.67512e-07
-9.04481e-07
2.6258e-07
-2.66206e-07
9.04872e-07
-1.86451e-09
-0.00109135
3.30048e-09
-1.21361e-06
2.57946e-07
-2.59265e-07
-9.01741e-07
2.5991e-07
9.0226e-07
-2.63448e-07
1.24488e-06
0.00109047
-1.65689e-09
-0.00109047
3.47284e-09
-1.24203e-06
2.60549e-07
-2.61935e-07
-9.01763e-07
2.5979e-07
-2.63436e-07
9.02165e-07
-1.2111e-06
0.000268038
-0.000266055
2.35515e-07
2.42937e-07
-1.86603e-09
-0.001091
3.2759e-09
-1.20819e-06
2.57966e-07
-2.59249e-07
-9.01568e-07
2.62586e-07
9.02142e-07
-2.6613e-07
1.2112e-06
0.00109152
-1.84542e-09
-0.00109152
3.29353e-09
-1.20832e-06
2.58015e-07
-2.59319e-07
-9.01842e-07
2.6268e-07
-2.66218e-07
9.02395e-07
-0.000266068
2.37837e-07
2.43175e-07
1.24737e-06
1.21098e-06
-2.32432e-07
-2.40227e-07
0.000266074
-1.25026e-06
-1.21389e-06
0.000268059
-0.000266073
2.3532e-07
2.43172e-07
3.44331e-09
0.00109056
-2.64718e-07
1.25026e-06
2.63313e-07
9.0216e-07
-2.63411e-07
-9.01706e-07
2.59814e-07
-1.25284e-06
-1.69125e-09
3.45875e-09
0.001091
-2.67508e-07
1.25574e-06
2.66125e-07
9.07781e-07
-2.66276e-07
-9.07341e-07
2.62611e-07
0.00109056
-1.7695e-09
-0.00109056
3.44242e-09
-1.24736e-06
2.63318e-07
-2.64707e-07
-9.01697e-07
2.59823e-07
-2.63392e-07
9.0216e-07
1.25575e-06
0.001091
-1.72141e-09
-0.001091
3.4366e-09
-1.25283e-06
2.66133e-07
-2.67495e-07
-9.07338e-07
2.62626e-07
-2.66255e-07
9.07778e-07
-2.35184e-07
-2.37489e-07
0.000266095
-1.21656e-06
0.000268088
-0.000266095
2.38135e-07
2.40431e-07
3.26267e-09
0.00109162
-2.62058e-07
1.21388e-06
2.60766e-07
9.05062e-07
-2.66232e-07
-9.04458e-07
2.62694e-07
-1.24744e-06
-1.68673e-09
3.47085e-09
0.00109067
-2.67504e-07
1.25031e-06
2.66101e-07
9.0488e-07
-2.66192e-07
-9.0447e-07
2.62593e-07
0.00109162
-1.92094e-09
-0.00109162
3.25268e-09
-1.21097e-06
2.60773e-07
-2.62046e-07
-9.04451e-07
2.62705e-07
-2.66211e-07
9.05059e-07
1.25032e-06
0.00109067
-1.71479e-09
-0.00109067
3.44838e-09
-1.24743e-06
2.66107e-07
-2.67493e-07
-9.04469e-07
2.62605e-07
-2.66173e-07
9.04875e-07
-1.69416e-09
3.45642e-09
0.00109047
-2.61927e-07
1.24488e-06
2.60554e-07
9.02173e-07
-2.63421e-07
2.59804e-07
-9.01752e-07
-1.9406e-09
-0.00109135
3.27483e-09
-1.21359e-06
2.57956e-07
-2.59247e-07
-9.01722e-07
2.59939e-07
9.0227e-07
-2.63412e-07
1.24488e-06
0.00109047
-1.72804e-09
-0.00109047
3.45346e-09
-1.242e-06
2.60558e-07
-2.61915e-07
-9.01746e-07
2.59815e-07
-2.63402e-07
9.02172e-07
-2.32615e-07
-2.40033e-07
0.000266055
-1.21111e-06
0.000268038
-0.000266055
2.35535e-07
2.4295e-07
-1.89836e-09
3.27732e-09
0.00109152
-2.59311e-07
1.21121e-06
2.58019e-07
9.02405e-07
-2.66201e-07
2.62695e-07
-9.01828e-07
-1.93483e-09
-0.001091
3.25697e-09
-1.20817e-06
2.57975e-07
-2.59232e-07
-9.01551e-07
2.6261e-07
9.0215e-07
-2.66097e-07
1.21121e-06
0.00109152
-1.90737e-09
-0.00109152
3.26892e-09
-1.2083e-06
2.58024e-07
-2.59299e-07
-9.01828e-07
2.62702e-07
-2.66187e-07
9.02398e-07
-0.000266068
2.37853e-07
2.43189e-07
1.24736e-06
1.21097e-06
-2.3242e-07
-2.40212e-07
0.000266073
-1.25028e-06
-1.2139e-06
0.000268059
-0.000266073
2.35344e-07
2.43192e-07
3.4382e-09
0.00109056
-2.64705e-07
1.25026e-06
2.63321e-07
9.02158e-07
-2.63392e-07
-9.01706e-07
2.5983e-07
-1.25282e-06
-1.74731e-09
3.42508e-09
0.001091
-2.67492e-07
1.25575e-06
2.66137e-07
9.07783e-07
-2.66246e-07
-9.07337e-07
2.6264e-07
0.00109056
-1.81506e-09
-0.00109056
3.41134e-09
-1.24734e-06
2.63334e-07
-2.64694e-07
-9.01686e-07
2.59868e-07
-2.63355e-07
9.02178e-07
1.25576e-06
0.001091
-1.75832e-09
-0.001091
3.4214e-09
-1.25282e-06
2.66146e-07
-2.67484e-07
-9.0733e-07
2.62667e-07
-2.66217e-07
9.07791e-07
-2.35161e-07
-2.37471e-07
0.000266095
-1.21657e-06
0.000268088
-0.000266094
2.38154e-07
2.40443e-07
3.25315e-09
0.00109162
-2.62045e-07
1.21389e-06
2.60775e-07
9.05062e-07
-2.6621e-07
-9.04455e-07
2.62713e-07
-1.24742e-06
-1.73941e-09
3.44519e-09
0.00109067
-2.6749e-07
1.25032e-06
2.6611e-07
9.04883e-07
-2.66164e-07
-9.04467e-07
2.6262e-07
0.00109161
-1.96223e-09
-0.00109161
3.21987e-09
-1.21095e-06
2.60789e-07
-2.62032e-07
-9.04441e-07
2.62745e-07
-2.66174e-07
9.05073e-07
1.25033e-06
0.00109067
-1.73348e-09
-0.00109067
3.4385e-09
-1.24741e-06
2.66119e-07
-2.67483e-07
-9.04464e-07
2.62636e-07
-2.66144e-07
9.04883e-07
-1.7516e-09
3.4458e-09
0.00109047
-2.61914e-07
1.24489e-06
2.60562e-07
9.02176e-07
-2.63396e-07
2.59827e-07
-9.01746e-07
-1.96761e-09
-0.00109135
3.25993e-09
-1.21358e-06
2.57971e-07
-2.59235e-07
-9.01719e-07
2.59972e-07
9.02279e-07
-2.63382e-07
1.2449e-06
0.00109047
-1.76305e-09
-0.00109047
3.43234e-09
-1.24199e-06
2.60571e-07
-2.61904e-07
-9.0174e-07
2.59857e-07
-2.63366e-07
9.02184e-07
-2.32593e-07
-2.4002e-07
0.000266055
-1.21112e-06
0.000268038
-0.000266055
2.35544e-07
2.42971e-07
-1.94376e-09
3.26002e-09
0.00109152
-2.59297e-07
1.21121e-06
2.58028e-07
9.02406e-07
-2.6618e-07
2.62715e-07
-9.01828e-07
-1.96954e-09
-0.001091
3.24043e-09
-1.20816e-06
2.57988e-07
-2.59221e-07
-9.01544e-07
2.62651e-07
9.02161e-07
-2.66061e-07
1.21122e-06
0.00109152
-1.94048e-09
-0.00109152
3.24686e-09
-1.20828e-06
2.58037e-07
-2.59288e-07
-9.01818e-07
2.62741e-07
-2.66152e-07
9.02411e-07
-0.000266068
2.37872e-07
2.43207e-07
1.24734e-06
1.21095e-06
-2.32395e-07
-2.40191e-07
0.000266073
-1.2503e-06
-1.21392e-06
0.000268059
-0.000266073
2.35369e-07
2.43223e-07
3.39749e-09
0.00109056
-2.64689e-07
1.25028e-06
2.6334e-07
9.02178e-07
-2.63352e-07
-9.01689e-07
2.59874e-07
-1.25281e-06
-1.80178e-09
3.41172e-09
0.001091
-2.6748e-07
1.25576e-06
2.66151e-07
9.07797e-07
-2.66212e-07
-9.07327e-07
2.62677e-07
0.00109056
-1.85048e-09
-0.00109056
3.38786e-09
-1.24732e-06
2.63357e-07
-2.64677e-07
-9.01662e-07
2.59901e-07
-2.63335e-07
9.02214e-07
1.25578e-06
0.001091
-1.80371e-09
-0.001091
3.40007e-09
-1.25279e-06
2.6617e-07
-2.67466e-07
-9.07306e-07
2.62704e-07
-2.66196e-07
9.07827e-07
-2.35143e-07
-2.37459e-07
0.000266094
-1.21659e-06
0.000268088
-0.000266094
2.38182e-07
2.4048e-07
3.21211e-09
0.00109161
-2.62028e-07
1.21391e-06
2.60795e-07
9.05076e-07
-2.6617e-07
-9.04442e-07
2.62754e-07
-1.24741e-06
-1.77908e-09
3.43266e-09
0.00109067
-2.67478e-07
1.25033e-06
2.66126e-07
9.0489e-07
-2.66142e-07
-9.04463e-07
2.62646e-07
0.00109161
-2.02455e-09
-0.00109161
3.22054e-09
-1.21094e-06
2.60808e-07
-2.62019e-07
-9.04411e-07
2.62785e-07
-2.66145e-07
9.05113e-07
1.25035e-06
0.00109067
-1.83222e-09
-0.00109067
3.40763e-09
-1.2474e-06
2.6614e-07
-2.67467e-07
-9.04412e-07
2.62695e-07
-2.66102e-07
9.04949e-07
-1.80839e-09
3.42316e-09
0.00109047
-2.61902e-07
1.2449e-06
2.60575e-07
9.02191e-07
-2.63359e-07
2.59868e-07
-9.01736e-07
-2.0225e-09
-0.00109135
3.23897e-09
-1.21356e-06
2.57992e-07
-2.59219e-07
-9.0169e-07
2.60017e-07
9.02319e-07
-2.63351e-07
1.24492e-06
0.00109047
-1.80994e-09
-0.00109047
3.41066e-09
-1.24197e-06
2.60595e-07
-2.61887e-07
-9.01713e-07
2.59897e-07
-2.6334e-07
9.02222e-07
-2.32587e-07
-2.39998e-07
0.000266055
-1.21115e-06
0.000268038
-0.000266055
2.35589e-07
2.42997e-07
-1.97963e-09
3.23619e-09
0.00109152
-2.59284e-07
1.21123e-06
2.58044e-07
9.02411e-07
-2.6615e-07
2.62748e-07
-9.01823e-07
-2.01569e-09
-0.001091
3.20552e-09
-1.20813e-06
2.58018e-07
-2.59198e-07
-9.0152e-07
2.62688e-07
9.02197e-07
-2.66038e-07
1.21124e-06
0.00109152
-1.99603e-09
-0.00109152
3.22902e-09
-1.20826e-06
2.58061e-07
-2.5927e-07
-9.01794e-07
2.62782e-07
-2.6613e-07
9.02455e-07
-0.000266068
2.37902e-07
2.43237e-07
1.24733e-06
1.21094e-06
-2.32385e-07
-2.40175e-07
0.000266073
-1.25035e-06
-1.21398e-06
0.000268058
-0.000266073
2.35428e-07
2.43271e-07
3.40344e-09
0.00109056
-2.64682e-07
1.25029e-06
2.63352e-07
9.0222e-07
-2.63336e-07
-9.01665e-07
2.59904e-07
-1.2528e-06
-1.83003e-09
3.42101e-09
0.001091
-2.67473e-07
1.25577e-06
2.66163e-07
9.07838e-07
-2.66192e-07
-9.07303e-07
2.6271e-07
0.00109056
-2.10657e-09
-0.00109056
3.27792e-09
-1.24729e-06
2.63413e-07
-2.64639e-07
-9.016e-07
2.59986e-07
-2.63274e-07
9.02299e-07
1.25584e-06
0.001091
-2.04493e-09
-0.001091
3.29593e-09
-1.25276e-06
2.66227e-07
-2.67428e-07
-9.07252e-07
2.62783e-07
-2.6614e-07
9.07904e-07
-2.35129e-07
-2.3744e-07
0.000266094
-1.21665e-06
0.000268088
-0.000266094
2.38236e-07
2.40528e-07
3.24038e-09
0.00109161
-2.62025e-07
1.21391e-06
2.60803e-07
9.0512e-07
-2.66144e-07
-9.04412e-07
2.62788e-07
-1.2474e-06
-1.84717e-09
3.43671e-09
0.00109067
-2.67475e-07
1.25034e-06
2.66133e-07
9.04955e-07
-2.66101e-07
-9.04411e-07
2.62696e-07
0.00109161
-2.2437e-09
-0.00109161
3.08769e-09
-1.21089e-06
2.60873e-07
-2.61973e-07
-9.04363e-07
2.62856e-07
-2.66093e-07
9.05182e-07
1.25041e-06
0.00109067
-2.02767e-09
-0.00109067
3.3054e-09
-1.24735e-06
2.66201e-07
-2.67425e-07
-9.04381e-07
2.62757e-07
-2.66063e-07
9.05002e-07
-1.83299e-09
3.42472e-09
0.00109047
-2.61892e-07
1.24491e-06
2.6059e-07
9.02231e-07
-2.63338e-07
2.59901e-07
-9.01711e-07
-2.24292e-09
-0.00109134
3.12769e-09
-1.21352e-06
2.58053e-07
-2.59177e-07
-9.01643e-07
2.60088e-07
9.02389e-07
-2.63304e-07
1.24498e-06
0.00109046
-2.04239e-09
-0.00109046
3.2958e-09
-1.24193e-06
2.60655e-07
-2.61845e-07
-9.01663e-07
2.59971e-07
-2.63289e-07
9.02295e-07
-2.32556e-07
-2.39987e-07
0.000266055
-1.2112e-06
0.000268037
-0.000266054
2.3563e-07
2.43052e-07
-2.03202e-09
3.24478e-09
0.00109152
-2.59278e-07
1.21124e-06
2.58054e-07
9.02471e-07
-2.66123e-07
2.6279e-07
-9.01785e-07
-2.25112e-09
-0.001091
3.11645e-09
-1.2081e-06
2.5807e-07
-2.59165e-07
-9.01467e-07
2.62765e-07
9.02272e-07
-2.65983e-07
1.2113e-06
0.00109152
-2.24741e-09
-0.00109152
3.11267e-09
-1.20823e-06
2.58116e-07
-2.59234e-07
-9.01729e-07
2.62865e-07
-2.66069e-07
9.02539e-07
-0.000266067
2.3795e-07
2.43292e-07
1.2473e-06
1.2109e-06
-2.32336e-07
-2.40137e-07
0.000266073
-1.2504e-06
-1.21404e-06
0.000268058
-0.000266072
2.35475e-07
2.43314e-07
3.37639e-09
0.00109056
-2.64658e-07
1.25033e-06
2.63393e-07
9.02282e-07
-2.63305e-07
-9.01623e-07
2.59957e-07
-1.25277e-06
-1.88733e-09
3.38753e-09
0.001091
-2.67446e-07
1.25582e-06
2.66208e-07
9.07896e-07
-2.66166e-07
-9.07267e-07
2.62758e-07
0.00109056
-2.30081e-09
-0.00109056
3.17601e-09
-1.24729e-06
2.63455e-07
-2.64645e-07
-9.016e-07
2.60039e-07
-2.63272e-07
9.02355e-07
1.25589e-06
0.00109099
-2.24964e-09
-0.001091
3.1537e-09
-1.25275e-06
2.66277e-07
-2.67425e-07
-9.0725e-07
2.62837e-07
-2.66137e-07
9.07963e-07
-2.35084e-07
-2.37399e-07
0.000266094
-1.21671e-06
0.000268087
-0.000266093
2.38285e-07
2.40579e-07
3.18584e-09
0.00109161
-2.61992e-07
1.21396e-06
2.60853e-07
9.0517e-07
-2.66123e-07
-9.04383e-07
2.62829e-07
-1.24736e-06
-1.86644e-09
3.40381e-09
0.00109067
-2.67443e-07
1.25039e-06
2.66183e-07
9.04993e-07
-2.66091e-07
-9.04397e-07
2.62732e-07
0.00109161
-2.42127e-09
-0.00109161
2.96585e-09
-1.21089e-06
2.60918e-07
-2.61975e-07
-9.04367e-07
2.62908e-07
-2.66094e-07
9.05238e-07
1.25046e-06
0.00109067
-2.21898e-09
-0.00109067
3.17297e-09
-1.24735e-06
2.66249e-07
-2.67426e-07
-9.0438e-07
2.62811e-07
-2.66061e-07
9.05062e-07
-1.88222e-09
3.39272e-09
0.00109046
-2.61864e-07
1.24496e-06
2.60635e-07
9.02287e-07
-2.63316e-07
2.59946e-07
-9.01678e-07
-2.45627e-09
-0.00109134
2.98334e-09
-1.21351e-06
2.58104e-07
-2.59174e-07
-9.01638e-07
2.60146e-07
9.0245e-07
-2.63296e-07
1.24503e-06
0.00109046
-2.24497e-09
-0.00109046
3.18108e-09
-1.24193e-06
2.60702e-07
-2.61847e-07
-9.01662e-07
2.60025e-07
-2.63288e-07
9.02354e-07
-2.32524e-07
-2.39942e-07
0.000266054
-1.21125e-06
0.000268037
-0.000266054
2.35679e-07
2.43099e-07
-2.08677e-09
3.20695e-09
0.00109152
-2.59253e-07
1.21128e-06
2.58097e-07
9.02528e-07
-2.66097e-07
2.62839e-07
-9.01747e-07
-2.45532e-09
-0.001091
2.99243e-09
-1.2081e-06
2.58117e-07
-2.59165e-07
-9.01464e-07
2.62818e-07
9.02332e-07
-2.6598e-07
1.21136e-06
0.00109152
-2.43421e-09
-0.00109152
2.98806e-09
-1.20823e-06
2.58164e-07
-2.59235e-07
-9.01734e-07
2.62918e-07
-2.66068e-07
9.02593e-07
-0.000266067
2.37998e-07
2.43338e-07
1.24724e-06
1.21084e-06
-2.3229e-07
-2.40093e-07
0.000266072
-1.24993e-06
-1.21358e-06
0.000268058
-0.000266072
2.34933e-07
2.42767e-07
3.18666e-09
0.00109056
-2.64625e-07
1.25043e-06
2.63466e-07
9.02379e-07
-2.63269e-07
-9.01574e-07
2.60042e-07
-1.2527e-06
-2.25008e-09
3.14711e-09
0.00109099
-2.67402e-07
1.25593e-06
2.66291e-07
9.08e-07
-2.66124e-07
-9.07211e-07
2.62852e-07
0.00109056
-4.47221e-10
-0.00109055
4.13079e-09
-1.24769e-06
2.62962e-07
-2.65093e-07
-9.02155e-07
2.59356e-07
-2.63881e-07
9.01731e-07
1.25544e-06
0.00109099
-4.96092e-10
-0.00109099
4.01133e-09
-1.25314e-06
2.6582e-07
-2.67839e-07
-9.07773e-07
2.62209e-07
-2.66688e-07
9.07368e-07
-2.35032e-07
-2.37347e-07
0.000266093
-1.21628e-06
0.000268087
-0.000266093
2.37803e-07
2.40037e-07
2.97656e-09
0.00109161
-2.61956e-07
1.21407e-06
2.60928e-07
9.05266e-07
-2.6609e-07
-9.04335e-07
2.62912e-07
-1.2473e-06
-2.20678e-09
3.18195e-09
0.00109067
-2.67405e-07
1.2505e-06
2.66261e-07
9.05095e-07
-2.66053e-07
-9.04344e-07
2.6282e-07
0.00109161
-5.44531e-10
-0.00109161
3.88318e-09
-1.21129e-06
2.60432e-07
-2.62419e-07
-9.04928e-07
2.6222e-07
-2.6671e-07
9.04608e-07
1.24999e-06
0.00109067
-3.47062e-10
-0.00109067
4.1072e-09
-1.24776e-06
2.65758e-07
-2.67871e-07
-9.04936e-07
2.6213e-07
-2.66668e-07
9.04435e-07
-2.23619e-09
3.18677e-09
0.00109046
-2.61826e-07
1.24506e-06
2.60712e-07
9.02389e-07
-2.63277e-07
2.60036e-07
-9.01624e-07
-6.02841e-10
-0.00109134
3.84277e-09
-1.21388e-06
2.57659e-07
-2.59577e-07
-9.02202e-07
2.59455e-07
9.01812e-07
-2.63909e-07
1.24456e-06
0.00109046
-3.70943e-10
-0.00109046
4.12468e-09
-1.24233e-06
2.60213e-07
-2.62293e-07
-9.0222e-07
2.59337e-07
-2.63897e-07
9.01724e-07
-2.32475e-07
-2.39894e-07
0.000266054
-1.21079e-06
0.000268037
-0.000266054
2.35138e-07
2.4255e-07
-2.42568e-09
2.98928e-09
0.00109151
-2.59213e-07
1.21139e-06
2.58177e-07
9.02626e-07
-2.66058e-07
2.62928e-07
-9.01698e-07
-5.64171e-10
-0.001091
3.91837e-09
-1.2085e-06
2.57631e-07
-2.59607e-07
-9.02028e-07
2.62127e-07
9.01693e-07
-2.66593e-07
1.2109e-06
0.00109152
-5.48996e-10
-0.00109151
3.90271e-09
-1.20862e-06
2.57684e-07
-2.59673e-07
-9.02299e-07
2.62226e-07
-2.66682e-07
9.01955e-07
-0.000266067
2.37458e-07
2.42792e-07
1.24778e-06
1.21137e-06
-2.32921e-07
-2.40731e-07
0.000266072
-1.25031e-06
-1.21394e-06
0.000268059
-0.000266073
2.35321e-07
2.43169e-07
4.10778e-09
0.00109056
-2.65176e-07
1.24992e-06
2.62948e-07
9.01655e-07
-2.64075e-07
-9.02315e-07
2.59245e-07
-1.25322e-06
-2.87611e-10
3.99081e-09
0.001091
-2.67921e-07
1.25543e-06
2.65798e-07
9.07295e-07
-2.6689e-07
-9.07927e-07
2.62078e-07
0.00109056
-1.55569e-09
-0.00109056
3.41476e-09
-1.24743e-06
2.63374e-07
-2.64797e-07
-9.01922e-07
2.59731e-07
-2.6369e-07
9.02122e-07
1.2558e-06
0.001091
-1.49654e-09
-0.001091
3.41949e-09
-1.25291e-06
2.66183e-07
-2.67594e-07
-9.07568e-07
2.62534e-07
-2.66556e-07
9.07738e-07
-2.35608e-07
-2.3798e-07
0.000266093
-1.21661e-06
0.000268088
-0.000266095
2.38134e-07
2.40423e-07
3.86336e-09
0.00109161
-2.62501e-07
1.21356e-06
2.60417e-07
9.04542e-07
-2.66899e-07
-9.05079e-07
2.62115e-07
-1.24784e-06
-1.27596e-10
4.1039e-09
0.00109067
-2.67959e-07
1.24997e-06
2.65738e-07
9.04366e-07
-2.66861e-07
-9.0509e-07
2.62019e-07
0.00109162
-1.6971e-09
-0.00109162
3.20752e-09
-1.21104e-06
2.6083e-07
-2.62134e-07
-9.04675e-07
2.62609e-07
-2.66504e-07
9.05019e-07
1.25036e-06
0.00109067
-1.48221e-09
-0.00109067
3.4474e-09
-1.24751e-06
2.66156e-07
-2.67588e-07
-9.04695e-07
2.62504e-07
-2.66479e-07
9.04836e-07
-1.78457e-10
4.09568e-09
0.00109046
-2.62371e-07
1.24455e-06
2.60201e-07
9.01658e-07
-2.64089e-07
2.59231e-07
-9.02372e-07
-1.69668e-09
-0.00109135
3.24564e-09
-1.21366e-06
2.58014e-07
-2.59334e-07
-9.01959e-07
2.5983e-07
9.02221e-07
-2.63726e-07
1.24493e-06
0.00109047
-1.50035e-09
-0.00109047
3.44052e-09
-1.24208e-06
2.60608e-07
-2.62008e-07
-9.01973e-07
2.5972e-07
-2.637e-07
9.0213e-07
-2.33106e-07
-2.40536e-07
0.000266054
-1.21115e-06
0.000268038
-0.000266055
2.35524e-07
2.42944e-07
-3.51463e-10
3.86961e-09
0.00109152
-2.59749e-07
1.21088e-06
2.57675e-07
9.01885e-07
-2.66877e-07
2.62115e-07
-9.02455e-07
-1.68579e-09
-0.001091
3.24002e-09
-1.20825e-06
2.58028e-07
-2.59323e-07
-9.01782e-07
2.62507e-07
9.02099e-07
-2.664e-07
1.21126e-06
0.00109152
-1.64992e-09
-0.00109152
3.23215e-09
-1.20837e-06
2.58078e-07
-2.59387e-07
-9.02063e-07
2.62598e-07
-2.66497e-07
9.02353e-07
-0.000266068
2.37851e-07
2.43181e-07
1.24735e-06
1.21096e-06
-2.32431e-07
-2.40226e-07
0.000266074
-1.25034e-06
-1.21397e-06
0.000268059
-0.000266074
2.35397e-07
2.43242e-07
3.30287e-09
0.00109056
-2.647e-07
1.25037e-06
2.63441e-07
9.02221e-07
-2.63541e-07
-9.01796e-07
2.59849e-07
-1.25282e-06
-1.80084e-09
3.3064e-09
0.001091
-2.67493e-07
1.25586e-06
2.66252e-07
9.07843e-07
-2.66396e-07
-9.0743e-07
2.62657e-07
0.00109056
-1.96589e-09
-0.00109056
3.33234e-09
-1.24734e-06
2.6341e-07
-2.64696e-07
-9.01708e-07
2.59916e-07
-2.63418e-07
9.02258e-07
1.25583e-06
0.001091
-1.86419e-09
-0.001091
3.32456e-09
-1.25281e-06
2.66222e-07
-2.67486e-07
-9.07363e-07
2.62707e-07
-2.66291e-07
9.07861e-07
-2.35174e-07
-2.3749e-07
0.000266095
-1.21664e-06
0.000268088
-0.000266095
2.38207e-07
2.40503e-07
3.11139e-09
0.00109162
-2.62039e-07
1.214e-06
2.60896e-07
9.05118e-07
-2.66355e-07
-9.04546e-07
2.62725e-07
-1.24742e-06
-1.80099e-09
3.34051e-09
0.00109067
-2.67492e-07
1.25042e-06
2.66223e-07
9.04943e-07
-2.66322e-07
-9.04558e-07
2.6263e-07
0.00109162
-2.09418e-09
-0.00109162
3.1409e-09
-1.21095e-06
2.60867e-07
-2.62032e-07
-9.0447e-07
2.62788e-07
-2.66241e-07
9.05147e-07
1.2504e-06
0.00109067
-1.90152e-09
-0.00109067
3.34777e-09
-1.24741e-06
2.66197e-07
-2.67484e-07
-9.04479e-07
2.62695e-07
-2.66201e-07
9.04973e-07
-1.80691e-09
3.33185e-09
0.00109047
-2.61914e-07
1.24499e-06
2.60675e-07
9.02232e-07
-2.63549e-07
2.59838e-07
-9.01841e-07
-2.10487e-09
-0.00109135
3.15194e-09
-1.21357e-06
2.58053e-07
-2.5923e-07
-9.01744e-07
2.60019e-07
9.02355e-07
-2.63447e-07
1.24497e-06
0.00109047
-1.89673e-09
-0.00109047
3.34657e-09
-1.24198e-06
2.60655e-07
-2.61899e-07
-9.0177e-07
2.59898e-07
-2.63437e-07
9.02256e-07
-2.32614e-07
-2.40037e-07
0.000266055
-1.2112e-06
0.000268038
-0.000266055
2.35609e-07
2.4302e-07
-1.94554e-09
3.12403e-09
0.00109152
-2.59295e-07
1.21131e-06
2.58142e-07
9.02457e-07
-2.66344e-07
2.62718e-07
-9.01929e-07
-2.11987e-09
-0.001091
3.14615e-09
-1.20815e-06
2.58074e-07
-2.59213e-07
-9.0157e-07
2.62694e-07
9.02234e-07
-2.66129e-07
1.21129e-06
0.00109152
-1.96992e-09
-0.00109152
3.13946e-09
-1.20828e-06
2.58109e-07
-2.59293e-07
-9.01859e-07
2.62774e-07
-2.66233e-07
9.02476e-07
-0.000266068
2.3792e-07
2.43261e-07
1.24736e-06
1.21097e-06
-2.32416e-07
-2.40213e-07
0.000266074
-1.2503e-06
-1.21393e-06
0.000268059
-0.000266074
2.35345e-07
2.43195e-07
3.371e-09
0.00109056
-2.64719e-07
1.25033e-06
2.63388e-07
9.02235e-07
-2.63437e-07
-9.01733e-07
2.59896e-07
-1.25283e-06
-1.79537e-09
3.36292e-09
0.001091
-2.67509e-07
1.25581e-06
2.662e-07
9.07845e-07
-2.66306e-07
-9.0738e-07
2.62691e-07
0.00109056
-1.7919e-09
-0.00109056
3.43382e-09
-1.24739e-06
2.63359e-07
-2.64755e-07
-9.01763e-07
2.59868e-07
-2.63468e-07
9.0221e-07
1.25578e-06
0.001091
-1.67006e-09
-0.001091
3.42984e-09
-1.25286e-06
2.66169e-07
-2.67547e-07
-9.07419e-07
2.62656e-07
-2.66344e-07
9.07812e-07
-2.35162e-07
-2.37473e-07
0.000266095
-1.2166e-06
0.000268088
-0.000266095
2.3816e-07
2.40452e-07
3.18653e-09
0.00109162
-2.62057e-07
1.21395e-06
2.60842e-07
9.05129e-07
-2.66257e-07
-9.04489e-07
2.6277e-07
-1.24743e-06
-1.83667e-09
3.3952e-09
0.00109067
-2.67508e-07
1.25038e-06
2.66173e-07
9.04956e-07
-2.66217e-07
-9.04497e-07
2.62678e-07
0.00109162
-1.91855e-09
-0.00109162
3.24838e-09
-1.211e-06
2.60812e-07
-2.62095e-07
-9.04523e-07
2.62741e-07
-2.66289e-07
9.05101e-07
1.25035e-06
0.00109067
-1.71344e-09
-0.00109067
3.45796e-09
-1.24746e-06
2.66142e-07
-2.67546e-07
-9.04536e-07
2.62644e-07
-2.66254e-07
9.04922e-07
-1.84582e-09
3.37723e-09
0.00109047
-2.61921e-07
1.24495e-06
2.60635e-07
9.0224e-07
-2.63451e-07
2.59882e-07
-9.01786e-07
-1.92541e-09
-0.00109135
3.25513e-09
-1.21362e-06
2.58001e-07
-2.59289e-07
-9.01798e-07
2.5997e-07
9.02307e-07
-2.63498e-07
1.24493e-06
0.00109047
-1.72791e-09
-0.00109047
3.43736e-09
-1.24203e-06
2.60607e-07
-2.61954e-07
-9.01823e-07
2.59851e-07
-2.63486e-07
9.02209e-07
-2.32594e-07
-2.40021e-07
0.000266055
-1.21115e-06
0.000268038
-0.000266055
2.35557e-07
2.42971e-07
-1.89518e-09
3.16959e-09
0.00109152
-2.59316e-07
1.21127e-06
2.58088e-07
9.02457e-07
-2.66251e-07
2.62755e-07
-9.0188e-07
-1.95544e-09
-0.001091
3.25507e-09
-1.2082e-06
2.58018e-07
-2.59277e-07
-9.0162e-07
2.6265e-07
9.0219e-07
-2.66174e-07
1.21124e-06
0.00109152
-1.77462e-09
-0.00109152
3.24024e-09
-1.20834e-06
2.58058e-07
-2.59353e-07
-9.01921e-07
2.6272e-07
-2.6629e-07
9.02423e-07
-0.000266068
2.37872e-07
2.43215e-07
1.24739e-06
1.211e-06
-2.32458e-07
-2.40252e-07
0.000266074
-1.2503e-06
-1.21392e-06
0.000268059
-0.000266074
2.35342e-07
2.43192e-07
3.43898e-09
0.00109056
-2.64757e-07
1.2503e-06
2.63358e-07
9.022e-07
-2.63477e-07
-9.01776e-07
2.59862e-07
-1.25287e-06
-1.65568e-09
3.4364e-09
0.001091
-2.67549e-07
1.25578e-06
2.66167e-07
9.07809e-07
-2.66348e-07
-9.07424e-07
2.62655e-07
0.00109056
-1.76623e-09
-0.00109056
3.4435e-09
-1.24739e-06
2.63356e-07
-2.6476e-07
-9.01771e-07
2.59864e-07
-2.63474e-07