/*--------------------------------*- C++ -*----------------------------------*\
| =========                 |                                                 |
| \\      /  F ield         | OpenFOAM: The Open Source CFD Toolbox           |
|  \\    /   O peration     | Version:  2206                                  |
|   \\  /    A nd           | Website:  www.openfoam.com                      |
|    \\/     M anipulation  |                                                 |
\*---------------------------------------------------------------------------*/
FoamFile
{
    version     2.0;
    format      ascii;
    arch        "LSB;label=32;scalar=64";
    class       surfaceScalarField;
    location    "16";
    object      phi;
}
// * * * * * * * * * * * * * * * * * * * * * * * * * * * * * * * * * * * * * //

dimensions      [0 3 -1 0 0 0 0];

oriented        oriented;

internalField   nonuniform List<scalar> 
82026
(
1.14585e-09
1.2812e-09
-0.00107272
-1.17507e-09
-1.13529e-09
0.00107272
-0.00107324
-1.18223e-06
-1.31351e-09
1.92486e-09
0.00107324
-2.34574e-07
1.18424e-06
2.33829e-07
8.6149e-07
-2.25894e-07
-8.61326e-07
2.241e-07
-0.00107291
-1.17687e-06
-1.40321e-09
1.85571e-09
0.00107291
-2.34542e-07
1.17889e-06
2.33858e-07
8.61331e-07
-2.28495e-07
-8.6119e-07
2.26802e-07
-0.000263883
1.21015e-06
1.17699e-06
-2.18329e-07
-2.23532e-07
0.000261938
1.46855e-09
1.52461e-09
-0.00107272
-1.28845e-09
-1.31463e-09
0.00107272
-0.00107324
-1.18216e-06
-1.5241e-09
1.71969e-09
0.00107324
-2.34494e-07
1.18433e-06
2.33937e-07
8.61582e-07
-2.25786e-07
-8.61278e-07
2.24243e-07
-0.0010729
-1.17679e-06
-1.53218e-09
1.75036e-09
0.0010729
-2.34445e-07
1.17897e-06
2.33958e-07
8.61408e-07
-2.28384e-07
-8.61127e-07
2.26925e-07
-0.000263883
1.21008e-06
1.17691e-06
-2.18219e-07
-2.23433e-07
0.000261938
2.09456e-09
1.80017e-09
-0.00107272
-1.38371e-09
-1.72919e-09
0.00107272
-0.00107324
-1.18197e-06
-1.58703e-09
1.19175e-09
0.00107324
-2.34295e-07
1.18454e-06
2.34166e-07
8.61592e-07
-2.25696e-07
-8.61194e-07
2.24329e-07
-0.0010729
-1.17679e-06
-9.22108e-10
1.9194e-09
0.0010729
-2.3448e-07
1.17889e-06
2.33837e-07
8.61191e-07
-2.28455e-07
-8.61225e-07
2.26745e-07
-0.000263882
1.21014e-06
1.17692e-06
-2.18168e-07
-2.23415e-07
0.000261937
-5.62143e-11
1.81015e-10
-0.00107272
-6.44827e-10
-5.34062e-10
0.00107272
-0.00107324
-1.18256e-06
-3.09015e-10
2.49454e-09
0.00107324
-2.35e-07
1.18406e-06
2.33588e-07
8.61306e-07
-2.2671e-07
-8.61719e-07
2.23511e-07
-0.0010729
-1.17706e-06
-7.29819e-10
2.1118e-09
0.00107291
-2.34779e-07
1.17883e-06
2.33788e-07
8.61237e-07
-2.29145e-07
-8.61491e-07
2.26415e-07
-0.000263883
1.21032e-06
1.17718e-06
-2.18591e-07
-2.23789e-07
0.000261938
9.46656e-10
1.12005e-09
-0.00107272
-1.08657e-09
-1.00627e-09
0.00107272
-0.00107324
-1.18229e-06
-1.16843e-09
1.99281e-09
0.00107324
-2.34649e-07
1.18426e-06
2.33857e-07
8.61489e-07
-2.26076e-07
-8.61465e-07
2.24063e-07
-0.00107291
-1.17695e-06
-1.37813e-09
1.98065e-09
0.00107291
-2.34645e-07
1.17889e-06
2.33854e-07
8.61381e-07
-2.28652e-07
-8.6127e-07
2.26779e-07
-0.000263883
1.21018e-06
1.17707e-06
-2.18417e-07
-2.23578e-07
0.000261938
1.05229e-09
1.14972e-09
-0.00107272
-1.10876e-09
-1.0941e-09
0.00107272
-0.00107324
-1.18227e-06
-1.1804e-09
1.92772e-09
0.00107324
-2.34637e-07
1.18428e-06
2.33868e-07
8.61491e-07
-2.26065e-07
-8.61461e-07
2.24066e-07
-0.00107291
-1.17694e-06
-1.26774e-09
1.94192e-09
0.00107291
-2.34638e-07
1.17891e-06
2.3387e-07
8.61341e-07
-2.28682e-07
-8.61318e-07
2.26754e-07
-0.000263883
1.2102e-06
1.17706e-06
-2.18408e-07
-2.23597e-07
0.000261938
1.07348e-09
1.14668e-09
-0.00107272
-1.11151e-09
-1.12295e-09
0.00107272
-0.00107324
-1.18227e-06
-1.16236e-09
1.90512e-09
0.00107324
-2.34636e-07
1.18428e-06
2.33869e-07
8.61488e-07
-2.26069e-07
-8.61465e-07
2.24062e-07
-0.00107291
-1.17693e-06
-1.20116e-09
1.91291e-09
0.00107291
-2.3463e-07
1.17891e-06
2.33874e-07
8.6132e-07
-2.28696e-07
-8.61335e-07
2.26735e-07
-0.000263883
1.21021e-06
1.17705e-06
-2.184e-07
-2.23608e-07
0.000261938
1.07794e-09
1.14189e-09
-0.00107272
-1.10876e-09
-1.13053e-09
0.00107272
-0.00107324
-1.18227e-06
-1.16093e-09
1.89719e-09
0.00107324
-2.34634e-07
1.18428e-06
2.33871e-07
8.61488e-07
-2.26069e-07
-8.61465e-07
2.24062e-07
-0.00107291
-1.17693e-06
-1.18891e-09
1.91061e-09
0.00107291
-2.34629e-07
1.17891e-06
2.33876e-07
8.61321e-07
-2.287e-07
-8.61338e-07
2.26734e-07
-0.000263883
1.21022e-06
1.17705e-06
-2.184e-07
-2.23612e-07
0.000261938
1.07331e-09
1.13351e-09
-0.00107272
-1.10365e-09
-1.12896e-09
0.00107272
-0.00107324
-1.18227e-06
-1.15765e-09
1.89738e-09
0.00107324
-2.34634e-07
1.18428e-06
2.33871e-07
8.61487e-07
-2.26071e-07
-8.61466e-07
2.24061e-07
-0.00107291
-1.17693e-06
-1.17902e-09
1.91604e-09
0.00107291
-2.34631e-07
1.17891e-06
2.33874e-07
8.61318e-07
-2.28704e-07
-8.6134e-07
2.26731e-07
-0.000263883
1.21022e-06
1.17705e-06
-2.18401e-07
-2.23614e-07
0.000261938
1.07134e-09
1.13531e-09
-0.00107272
-1.1048e-09
-1.12668e-09
0.00107272
-0.00107324
-1.18227e-06
-1.15625e-09
1.89907e-09
0.00107324
-2.34635e-07
1.18428e-06
2.3387e-07
8.61486e-07
-2.26072e-07
-8.61467e-07
2.2406e-07
-0.00107291
-1.17693e-06
-1.1866e-09
1.91333e-09
0.00107291
-2.34629e-07
1.17891e-06
2.33876e-07
8.61319e-07
-2.28703e-07
-8.6134e-07
2.26731e-07
-0.000263883
1.21022e-06
1.17705e-06
-2.18401e-07
-2.23614e-07
0.000261938
1.07806e-09
1.14174e-09
-0.00107272
-1.11005e-09
-1.13138e-09
0.00107272
-0.00107324
-1.18227e-06
-1.1565e-09
1.89722e-09
0.00107324
-2.34634e-07
1.18428e-06
2.33871e-07
8.61486e-07
-2.26071e-07
-8.61466e-07
2.2406e-07
-0.00107291
-1.17693e-06
-1.18813e-09
1.91247e-09
0.00107291
-2.34629e-07
1.17891e-06
2.33876e-07
8.6132e-07
-2.28702e-07
-8.61338e-07
2.26733e-07
-0.000263883
1.21022e-06
1.17705e-06
-2.18401e-07
-2.23613e-07
0.000261938
1.08154e-09
1.1445e-09
-0.00107272
-1.10991e-09
-1.13312e-09
0.00107272
-0.00107324
-1.18227e-06
-1.16591e-09
1.89303e-09
0.00107324
-2.34632e-07
1.18428e-06
2.33873e-07
8.61489e-07
-2.2607e-07
-8.61464e-07
2.24062e-07
-0.00107291
-1.17693e-06
-1.18986e-09
1.91183e-09
0.00107291
-2.34628e-07
1.17891e-06
2.33877e-07
8.6132e-07
-2.28702e-07
-8.61338e-07
2.26732e-07
-0.000263883
1.21022e-06
1.17705e-06
-2.184e-07
-2.23612e-07
0.000261938
1.08447e-09
1.14845e-09
-0.00107272
-1.11227e-09
-1.13357e-09
0.00107272
-0.00107324
-1.18227e-06
-1.1703e-09
1.89349e-09
0.00107324
-2.34633e-07
1.18428e-06
2.33872e-07
8.6149e-07
-2.26068e-07
-8.61463e-07
2.24064e-07
-0.00107291
-1.17693e-06
-1.19816e-09
1.90922e-09
0.00107291
-2.34627e-07
1.17892e-06
2.33878e-07
8.61322e-07
-2.287e-07
-8.61336e-07
2.26734e-07
-0.000263883
1.21022e-06
1.17705e-06
-2.18399e-07
-2.23611e-07
0.000261938
1.08385e-09
1.14999e-09
-0.00107272
-1.11404e-09
-1.13332e-09
0.00107272
-0.00107324
-1.18227e-06
-1.1644e-09
1.89497e-09
0.00107324
-2.34633e-07
1.18428e-06
2.33873e-07
8.61489e-07
-2.26071e-07
-8.61465e-07
2.24064e-07
-0.00107291
-1.17693e-06
-1.19636e-09
1.90731e-09
0.00107291
-2.34626e-07
1.17892e-06
2.33879e-07
8.61322e-07
-2.287e-07
-8.61337e-07
2.26734e-07
-0.000263883
1.21022e-06
1.17705e-06
-2.184e-07
-2.23612e-07
0.000261938
1.08391e-09
1.14493e-09
-0.00107272
-1.11086e-09
-1.13506e-09
0.00107272
-0.00107324
-1.18227e-06
-1.16372e-09
1.89401e-09
0.00107324
-2.34629e-07
1.18428e-06
2.33868e-07
8.61485e-07
-2.26065e-07
-8.61462e-07
2.24055e-07
-0.00107291
-1.17693e-06
-1.19012e-09
1.91089e-09
0.00107291
-2.34629e-07
1.17891e-06
2.33877e-07
8.6132e-07
-2.28703e-07
-8.61338e-07
2.26733e-07
-0.000263883
1.21022e-06
1.17705e-06
-2.18399e-07
-2.23611e-07
0.000261938
1.07354e-09
1.1359e-09
-0.00107272
-1.10166e-09
-1.13084e-09
0.00107272
-0.00107324
-1.18226e-06
-1.16722e-09
1.89172e-09
0.00107324
-2.34628e-07
1.18427e-06
2.33864e-07
8.61485e-07
-2.26064e-07
-8.61461e-07
2.24052e-07
-0.00107291
-1.17693e-06
-1.1832e-09
1.91351e-09
0.00107291
-2.34628e-07
1.17891e-06
2.33878e-07
8.6132e-07
-2.28699e-07
-8.61338e-07
2.26731e-07
-0.000263883
1.21022e-06
1.17705e-06
-2.18404e-07
-2.23617e-07
0.000261938
1.08994e-09
1.12208e-09
-0.00107272
-1.09238e-09
-1.1416e-09
0.00107272
-0.00107324
-1.18225e-06
-1.17316e-09
1.88481e-09
0.00107324
-2.34614e-07
1.18427e-06
2.33857e-07
8.61465e-07
-2.2604e-07
-8.61442e-07
2.24031e-07
-0.00107291
-1.17693e-06
-1.1867e-09
1.9262e-09
0.00107291
-2.34625e-07
1.17891e-06
2.33867e-07
8.61301e-07
-2.28688e-07
-8.61323e-07
2.26715e-07
-0.000263883
1.21021e-06
1.17704e-06
-2.18389e-07
-2.23606e-07
0.000261938
1.16458e-09
-0.00107272
-1.20025e-09
-0.00107291
-1.1769e-06
-1.27441e-09
-2.34587e-07
1.17888e-06
2.33835e-07
-2.28606e-07
2.26709e-07
-1.21743e-06
-1.1816e-06
0.000263899
-0.000261943
2.17823e-07
2.25533e-07
0.00107247
-1.14236e-09
1.97821e-09
-1.21546e-06
2.39135e-07
-2.39956e-07
-8.61325e-07
2.2395e-07
-2.2592e-07
8.61371e-07
1.22283e-06
0.0010729
-1.03247e-09
1.9603e-09
-1.22084e-06
2.41909e-07
-2.42717e-07
-8.6689e-07
2.26705e-07
-2.28742e-07
8.66887e-07
-1.18423e-06
0.000263928
-0.000261964
2.20564e-07
2.2286e-07
0.00107351
-1.25175e-09
1.94236e-09
-1.17964e-06
2.36577e-07
-2.37363e-07
-8.64058e-07
2.26777e-07
-2.287e-07
8.64187e-07
1.2175e-06
0.00107258
-1.12261e-09
-0.00107258
1.9288e-09
-1.21551e-06
2.4191e-07
-2.42691e-07
-8.64025e-07
2.2674e-07
-2.28622e-07
8.64076e-07
-1.27472e-09
1.93764e-09
-1.18223e-06
2.33808e-07
-2.34588e-07
-8.61359e-07
2.2405e-07
8.61463e-07
-2.25948e-07
1.21217e-06
0.00107238
-1.16803e-09
-0.00107238
1.92077e-09
-1.21016e-06
2.36439e-07
-2.37174e-07
-8.61356e-07
2.23992e-07
-2.25882e-07
8.61409e-07
-1.17888e-06
0.000263878
-0.000261925
2.18037e-07
2.25368e-07
-1.33896e-09
-0.00107291
1.8873e-09
-1.17688e-06
2.33844e-07
-2.34566e-07
-8.61167e-07
2.26746e-07
8.61372e-07
-2.28562e-07
1.17898e-06
0.00107341
-1.16409e-09
-0.00107341
1.86349e-09
-1.177e-06
2.33888e-07
-2.34629e-07
-8.61466e-07
2.26794e-07
-2.28661e-07
8.61581e-07
-0.000261938
2.20343e-07
2.25591e-07
1.21545e-06
1.17964e-06
-2.15862e-07
-2.23519e-07
0.000261943
-1.21748e-06
-1.18166e-06
0.000263899
-0.000261943
2.17918e-07
2.25621e-07
1.96068e-09
0.00107247
-2.39937e-07
1.21745e-06
2.3916e-07
8.6139e-07
-2.25876e-07
-8.61316e-07
2.23997e-07
-1.22083e-06
-1.07139e-09
1.94195e-09
0.0010729
-2.42696e-07
1.22284e-06
2.41934e-07
8.6692e-07
-2.28694e-07
-8.66869e-07
2.26759e-07
0.00107247
-1.48985e-09
-0.00107247
1.812e-09
-1.2154e-06
2.39213e-07
-2.39869e-07
-8.61232e-07
2.24113e-07
-2.25739e-07
8.61449e-07
1.22288e-06
0.0010729
-1.38759e-09
-0.0010729
1.80443e-09
-1.22078e-06
2.41984e-07
-2.42632e-07
-8.66798e-07
2.26871e-07
-2.28562e-07
8.66965e-07
-2.18564e-07
-2.20836e-07
0.000261964
-1.1843e-06
0.000263927
-0.000261964
2.20664e-07
2.22944e-07
1.93411e-09
0.00107351
-2.37347e-07
1.18161e-06
2.36598e-07
8.64218e-07
-2.28653e-07
-8.64029e-07
2.26829e-07
-1.21549e-06
-1.19481e-09
1.90001e-09
0.00107258
-2.42665e-07
1.21751e-06
2.41926e-07
8.64088e-07
-2.28582e-07
-8.64003e-07
2.26772e-07
0.00107351
-1.55941e-09
-0.00107351
1.74325e-09
-1.17958e-06
2.36662e-07
-2.37272e-07
-8.63972e-07
2.26937e-07
-2.28522e-07
8.64255e-07
1.21757e-06
0.00107258
-1.42423e-09
-0.00107258
1.7981e-09
-1.21545e-06
2.42007e-07
-2.42616e-07
-8.63963e-07
2.26892e-07
-2.28496e-07
8.64169e-07
-1.24917e-09
1.88034e-09
0.00107238
-2.37152e-07
1.21217e-06
2.36453e-07
8.61426e-07
-2.25836e-07
2.2403e-07
-8.61326e-07
-1.56764e-09
-0.00107324
1.73909e-09
-1.18217e-06
2.33899e-07
-2.34496e-07
-8.61287e-07
2.24205e-07
8.61529e-07
-2.2578e-07
1.21224e-06
0.00107238
-1.44579e-09
-0.00107238
1.79018e-09
-1.2101e-06
2.36538e-07
-2.371e-07
-8.61301e-07
2.2414e-07
-2.25759e-07
8.61492e-07
-2.16007e-07
-2.23315e-07
0.000261925
-1.17897e-06
0.000263878
-0.000261925
2.1814e-07
2.25457e-07
-1.24164e-09
1.82554e-09
0.00107341
-2.34608e-07
1.17899e-06
2.33902e-07
8.61599e-07
-2.28615e-07
2.26832e-07
-8.61437e-07
-1.58443e-09
-0.0010729
1.72144e-09
-1.17681e-06
2.3395e-07
-2.34486e-07
-8.61117e-07
2.26885e-07
8.6145e-07
-2.28444e-07
1.17907e-06
0.00107341
-1.42194e-09
-0.00107341
1.71052e-09
-1.17694e-06
2.33992e-07
-2.34553e-07
-8.61413e-07
2.26937e-07
-2.28542e-07
8.61662e-07
-0.000261938
2.20444e-07
2.25681e-07
1.21539e-06
1.17957e-06
-2.15789e-07
-2.23458e-07
0.000261943
-1.21766e-06
-1.18188e-06
0.000263898
-0.000261943
2.18117e-07
2.25785e-07
1.80935e-09
0.00107247
-2.39869e-07
1.21753e-06
2.39262e-07
8.61485e-07
-2.25754e-07
-8.61257e-07
2.24152e-07
-1.22078e-06
-1.40299e-09
1.81163e-09
0.0010729
-2.42633e-07
1.22292e-06
2.42034e-07
8.67012e-07
-2.2857e-07
-8.66812e-07
2.26917e-07
0.00107247
-2.11083e-09
-0.00107247
1.5435e-09
-1.21532e-06
2.39408e-07
-2.39793e-07
-8.61146e-07
2.2435e-07
-2.2564e-07
8.61689e-07
1.22305e-06
0.0010729
-2.01902e-09
-0.0010729
1.56434e-09
-1.22071e-06
2.42176e-07
-2.42558e-07
-8.66707e-07
2.27112e-07
-2.28454e-07
8.67207e-07
-2.18488e-07
-2.20776e-07
0.000261964
-1.18449e-06
0.000263927
-0.000261963
2.20857e-07
2.23104e-07
1.72711e-09
0.00107351
-2.37268e-07
1.18171e-06
2.36713e-07
8.64292e-07
-2.28541e-07
-8.6399e-07
2.26972e-07
-1.21543e-06
-1.41192e-09
1.86013e-09
0.00107258
-2.42581e-07
1.21757e-06
2.42011e-07
8.64184e-07
-2.28453e-07
-8.63919e-07
2.26915e-07
0.0010735
-1.99958e-09
-0.0010735
1.31416e-09
-1.17947e-06
2.36893e-07
-2.37159e-07
-8.63919e-07
2.27133e-07
-2.28453e-07
8.64451e-07
1.21771e-06
0.00107258
-1.88776e-09
-0.00107258
1.71714e-09
-1.21531e-06
2.42159e-07
-2.42475e-07
-8.63754e-07
2.27128e-07
-2.28304e-07
8.64397e-07
-1.43389e-09
1.85272e-09
0.00107238
-2.37067e-07
1.21223e-06
2.36537e-07
8.6151e-07
-2.25716e-07
2.24162e-07
-8.61256e-07
-1.99684e-09
-0.00107324
1.31983e-09
-1.18206e-06
2.34112e-07
-2.34385e-07
-8.6117e-07
2.24402e-07
8.61759e-07
-2.25691e-07
1.21238e-06
0.00107237
-1.89098e-09
-0.00107238
1.71111e-09
-1.20996e-06
2.36693e-07
-2.36952e-07
-8.61088e-07
2.24373e-07
-2.25565e-07
8.61722e-07
-2.15891e-07
-2.23218e-07
0.000261925
-1.17915e-06
0.000263877
-0.000261924
2.1837e-07
2.25655e-07
-1.38331e-09
1.74169e-09
0.00107341
-2.34514e-07
1.17906e-06
2.33997e-07
8.61675e-07
-2.28501e-07
2.26957e-07
-8.61372e-07
-1.85464e-09
-0.0010729
1.46685e-09
-1.17664e-06
2.34138e-07
-2.34309e-07
-8.60937e-07
2.27089e-07
8.61644e-07
-2.28279e-07
1.17924e-06
0.00107341
-1.71615e-09
-0.00107341
1.4768e-09
-1.17677e-06
2.34182e-07
-2.34374e-07
-8.61227e-07
2.27145e-07
-2.28371e-07
8.61861e-07
-0.000261937
2.20675e-07
2.25883e-07
1.21524e-06
1.17936e-06
-2.15548e-07
-2.23259e-07
0.000261942
-1.21717e-06
-1.18135e-06
0.000263898
-0.000261942
2.17413e-07
2.25107e-07
1.60433e-09
0.00107247
-2.39702e-07
1.21768e-06
2.39437e-07
8.61724e-07
-2.25538e-07
-8.6103e-07
2.24409e-07
-1.22065e-06
-2.06137e-09
1.68058e-09
0.0010729
-2.42482e-07
1.22304e-06
2.42184e-07
8.67257e-07
-2.28351e-07
-8.66579e-07
2.27175e-07
0.00107247
1.50118e-10
-0.00107247
2.58612e-09
-1.21583e-06
2.38775e-07
-2.40439e-07
-8.61904e-07
2.23258e-07
-2.26657e-07
8.60949e-07
1.22256e-06
0.0010729
2.00033e-10
-0.0010729
2.58376e-09
-1.22123e-06
2.41549e-07
-2.43208e-07
-8.67451e-07
2.26037e-07
-2.29455e-07
8.66483e-07
-2.18256e-07
-2.20597e-07
0.000261963
-1.18396e-06
0.000263927
-0.000261963
2.20146e-07
2.22429e-07
1.17339e-09
0.0010735
-2.37051e-07
1.18192e-06
2.36946e-07
8.64441e-07
-2.28388e-07
-8.63833e-07
2.27155e-07
-1.21548e-06
-1.17478e-09
2.40323e-09
0.00107257
-2.42667e-07
1.21743e-06
2.41834e-07
8.64061e-07
-2.28469e-07
-8.63948e-07
2.26807e-07
0.00107351
1.24236e-10
-0.0010735
2.51395e-09
-1.17998e-06
2.36236e-07
-2.37807e-07
-8.64672e-07
2.26064e-07
-2.29475e-07
8.63753e-07
1.21734e-06
0.00107258
-1.42011e-11
-0.00107258
2.35086e-09
-1.21582e-06
2.417e-07
-2.431e-07
-8.64489e-07
2.26133e-07
-2.29429e-07
8.63813e-07
-1.10103e-09
2.35537e-09
0.00107237
-2.37151e-07
1.2121e-06
2.36365e-07
8.6135e-07
-2.25749e-07
2.24028e-07
-8.61306e-07
8.87558e-11
-0.00107324
2.49694e-09
-1.18259e-06
2.33451e-07
-2.35041e-07
-8.61887e-07
2.23356e-07
8.61129e-07
-2.2672e-07
1.21201e-06
0.00107238
-3.7413e-11
-0.00107238
2.35923e-09
-1.21047e-06
2.36232e-07
-2.37577e-07
-8.61824e-07
2.23379e-07
-2.26702e-07
8.6115e-07
-2.15837e-07
-2.23201e-07
0.000261924
-1.17874e-06
0.000263878
-0.000261925
2.17764e-07
2.25089e-07
-8.05107e-10
1.94951e-09
0.00107341
-2.34553e-07
1.17897e-06
2.3387e-07
8.61468e-07
-2.28568e-07
2.26779e-07
-8.6146e-07
-1.93061e-10
-0.0010729
2.28108e-09
-1.17717e-06
2.3365e-07
-2.34941e-07
-8.61657e-07
2.26121e-07
8.6111e-07
-2.29402e-07
1.17884e-06
0.00107341
4.70372e-12
-0.00107341
2.27765e-09
-1.17729e-06
2.33693e-07
-2.35009e-07
-8.61959e-07
2.26171e-07
-2.29498e-07
8.61312e-07
-0.000261938
2.20075e-07
2.25311e-07
1.21575e-06
1.17995e-06
-2.16306e-07
-2.23959e-07
0.000261943
-1.21747e-06
-1.18162e-06
0.000263899
-0.000261943
2.17831e-07
2.25559e-07
2.39087e-09
0.00107247
-2.40341e-07
1.2173e-06
2.38948e-07
8.61114e-07
-2.26728e-07
-8.61807e-07
2.23357e-07
-1.22112e-06
9.827e-11
2.35223e-09
0.0010729
-2.43093e-07
1.22271e-06
2.41733e-07
8.6665e-07
-2.2953e-07
-8.67347e-07
2.26127e-07
0.00107247
-8.83141e-10
-0.00107247
1.996e-09
-1.21551e-06
2.39194e-07
-2.40011e-07
-8.61454e-07
2.23913e-07
-2.26123e-07
8.61378e-07
1.22287e-06
0.0010729
-7.68859e-10
-0.0010729
1.96745e-09
-1.22088e-06
2.41971e-07
-2.42767e-07
-8.67024e-07
2.26664e-07
-2.28949e-07
8.66888e-07
-2.19015e-07
-2.21266e-07
0.000261964
-1.18425e-06
0.000263928
-0.000261964
2.20574e-07
2.22894e-07
2.49183e-09
0.00107351
-2.37759e-07
1.18144e-06
2.36368e-07
8.63974e-07
-2.29497e-07
-8.64502e-07
2.26211e-07
-1.21566e-06
-4.07624e-10
2.00418e-09
0.00107258
-2.42888e-07
1.21748e-06
2.41883e-07
8.6395e-07
-2.29247e-07
-8.64338e-07
2.26362e-07
0.00107351
-1.07733e-09
-0.00107351
2.03971e-09
-1.17972e-06
2.36616e-07
-2.37441e-07
-8.64167e-07
2.26762e-07
-2.28876e-07
8.64207e-07
1.21756e-06
0.00107258
-9.15237e-10
-0.00107258
1.84368e-09
-1.21552e-06
2.41976e-07
-2.42719e-07
-8.6417e-07
2.26682e-07
-2.2882e-07
8.64056e-07
-4.88044e-10
2.0327e-09
0.00107238
-2.37378e-07
1.21214e-06
2.36406e-07
8.61301e-07
-2.26495e-07
2.23627e-07
-8.61647e-07
-1.12888e-09
-0.00107324
2.03129e-09
-1.1823e-06
2.33851e-07
-2.34663e-07
-8.61478e-07
2.24038e-07
8.61478e-07
-2.26123e-07
1.21222e-06
0.00107238
-9.77223e-10
-0.00107238
1.84353e-09
-1.21018e-06
2.36503e-07
-2.37207e-07
-8.61497e-07
2.23936e-07
-2.26076e-07
8.6139e-07
-2.16274e-07
-2.23567e-07
0.000261925
-1.17889e-06
0.000263878
-0.000261925
2.18018e-07
2.25401e-07
-5.58141e-10
2.08791e-09
0.00107341
-2.34843e-07
1.17893e-06
2.33837e-07
8.61495e-07
-2.29266e-07
2.26444e-07
-8.61748e-07
-1.37211e-09
-0.00107291
1.97143e-09
-1.17695e-06
2.33861e-07
-2.34642e-07
-8.61231e-07
2.2675e-07
8.61432e-07
-2.28694e-07
1.17899e-06
0.00107341
-1.15972e-09
-0.00107341
1.95037e-09
-1.17707e-06
2.33906e-07
-2.34707e-07
-8.61544e-07
2.26785e-07
-2.28806e-07
8.61623e-07
-0.000261938
2.20329e-07
2.25619e-07
1.2155e-06
1.1797e-06
-2.1593e-07
-2.23575e-07
0.000261943
-1.21747e-06
-1.18165e-06
0.000263899
-0.000261943
2.17859e-07
2.25564e-07
1.98389e-09
0.00107247
-2.4e-07
1.21747e-06
2.39195e-07
8.61381e-07
-2.26068e-07
-8.61449e-07
2.23946e-07
-1.22088e-06
-8.59947e-10
1.9623e-09
0.0010729
-2.4276e-07
1.22287e-06
2.41969e-07
8.66904e-07
-2.2889e-07
-8.67008e-07
2.26704e-07
0.00107247
-1.06863e-09
-0.00107247
1.98886e-09
-1.2155e-06
2.3919e-07
-2.40007e-07
-8.61419e-07
2.23979e-07
-2.26023e-07
8.61408e-07
1.22286e-06
0.0010729
-9.57983e-10
-0.0010729
1.97992e-09
-1.22089e-06
2.41961e-07
-2.42771e-07
-8.66984e-07
2.26735e-07
-2.28845e-07
8.66923e-07
-2.18631e-07
-2.20886e-07
0.000261964
-1.18427e-06
0.000263928
-0.000261964
2.20601e-07
2.22884e-07
2.00441e-09
0.00107351
-2.37424e-07
1.18163e-06
2.36623e-07
8.64211e-07
-2.28831e-07
-8.64158e-07
2.26788e-07
-1.21553e-06
-9.54395e-10
1.87582e-09
0.00107258
-2.42724e-07
1.21755e-06
2.41968e-07
8.64066e-07
-2.28801e-07
-8.64162e-07
2.26694e-07
0.00107351
-1.16095e-09
-0.00107351
1.94239e-09
-1.17969e-06
2.36634e-07
-2.37413e-07
-8.6416e-07
2.26803e-07
-2.28805e-07
8.64213e-07
1.21754e-06
0.00107258
-1.02523e-09
-0.00107258
1.94004e-09
-1.21555e-06
2.4195e-07
-2.42747e-07
-8.64137e-07
2.26717e-07
-2.28775e-07
8.64089e-07
-1.0161e-09
1.85483e-09
0.00107238
-2.3721e-07
1.21222e-06
2.36499e-07
8.61402e-07
-2.26054e-07
2.23951e-07
-8.61486e-07
-1.18621e-09
-0.00107324
1.93958e-09
-1.18227e-06
2.33867e-07
-2.3464e-07
-8.6146e-07
2.24068e-07
8.61489e-07
-2.26063e-07
1.21221e-06
0.00107238
-1.05904e-09
-0.00107238
1.91724e-09
-1.21019e-06
2.36485e-07
-2.37224e-07
-8.61474e-07
2.23962e-07
-2.26039e-07
8.61413e-07
-2.16099e-07
-2.23358e-07
0.000261925
-1.17891e-06
0.000263878
-0.000261925
2.18039e-07
2.2538e-07
-1.20828e-09
1.94878e-09
0.00107341
-2.34709e-07
1.17899e-06
2.33903e-07
8.6164e-07
-2.28779e-07
2.26806e-07
-8.6153e-07
-1.29038e-09
-0.00107291
1.96157e-09
-1.17694e-06
2.33866e-07
-2.34643e-07
-8.61264e-07
2.26734e-07
8.61394e-07
-2.28698e-07
1.179e-06
0.00107341
-1.1254e-09
-0.00107341
1.92309e-09
-1.17707e-06
2.33906e-07
-2.34711e-07
-8.61543e-07
2.26788e-07
-2.28787e-07
8.61614e-07
-0.000261938
2.20342e-07
2.25608e-07
1.2155e-06
1.17968e-06
-2.15911e-07
-2.23575e-07
0.000261943
-1.21747e-06
-1.18165e-06
0.000263899
-0.000261943
2.17862e-07
2.25563e-07
1.99098e-09
0.00107247
-2.40007e-07
1.21747e-06
2.39189e-07
8.61401e-07
-2.26029e-07
-8.6143e-07
2.23973e-07
-1.22089e-06
-9.72319e-10
1.98029e-09
0.0010729
-2.42771e-07
1.22286e-06
2.41961e-07
8.66928e-07
-2.28847e-07
-8.66983e-07
2.26736e-07
0.00107247
-1.09857e-09
-0.00107247
1.99367e-09
-1.2155e-06
2.39188e-07
-2.4001e-07
-8.61414e-07
2.23983e-07
-2.26019e-07
8.61413e-07
1.22286e-06
0.0010729
-9.90711e-10
-0.0010729
1.99004e-09
-1.22089e-06
2.41958e-07
-2.42775e-07
-8.66978e-07
2.2674e-07
-2.2884e-07
8.66929e-07
-2.18611e-07
-2.20897e-07
0.000261964
-1.18428e-06
0.000263928
-0.000261964
2.20604e-07
2.22883e-07
1.93827e-09
0.00107351
-2.37412e-07
1.18165e-06
2.36634e-07
8.64215e-07
-2.28812e-07
-8.64157e-07
2.26798e-07
-1.21555e-06
-1.03597e-09
1.96706e-09
0.00107258
-2.42751e-07
1.21753e-06
2.41945e-07
8.64092e-07
-2.28778e-07
-8.64137e-07
2.26716e-07
0.00107351
-1.15919e-09
-0.00107351
1.91214e-09
-1.17968e-06
2.36639e-07
-2.37408e-07
-8.64161e-07
2.26802e-07
-2.28807e-07
8.64212e-07
1.21752e-06
0.00107258
-1.04637e-09
-0.00107258
1.9928e-09
-1.21556e-06
2.41937e-07
-2.4276e-07
-8.6413e-07
2.26722e-07
-2.28769e-07
8.64095e-07
-1.07763e-09
1.93492e-09
0.00107238
-2.37232e-07
1.2122e-06
2.3648e-07
8.61421e-07
-2.26038e-07
2.23967e-07
-8.6147e-07
-1.16871e-09
-0.00107324
1.90672e-09
-1.18227e-06
2.3387e-07
-2.34636e-07
-8.61462e-07
2.24065e-07
8.61487e-07
-2.26067e-07
1.21219e-06
0.00107238
-1.0723e-09
-0.00107238
1.97753e-09
-1.21021e-06
2.36469e-07
-2.37242e-07
-8.61467e-07
2.23968e-07
-2.26033e-07
8.61419e-07
-2.16081e-07
-2.23385e-07
0.000261925
-1.17892e-06
0.000263878
-0.000261925
2.18047e-07
2.25368e-07
-1.11555e-09
1.90576e-09
0.00107341
-2.34708e-07
1.17901e-06
2.33912e-07
8.61601e-07
-2.28799e-07
2.2678e-07
-8.61563e-07
-1.22572e-09
-0.00107291
1.91036e-09
-1.17693e-06
2.33877e-07
-2.3463e-07
-8.61281e-07
2.26723e-07
8.61381e-07
-2.28712e-07
1.17901e-06
0.00107341
-1.03545e-09
-0.00107341
1.89131e-09
-1.17705e-06
2.33919e-07
-2.34697e-07
-8.6158e-07
2.26771e-07
-2.2881e-07
8.61589e-07
-0.000261938
2.20351e-07
2.25594e-07
1.2155e-06
1.17968e-06
-2.15908e-07
-2.23576e-07
0.000261943
-1.21747e-06
-1.18165e-06
0.000263899
-0.000261943
2.17863e-07
2.25563e-07
1.99396e-09
0.00107247
-2.40009e-07
1.21747e-06
2.39188e-07
8.61404e-07
-2.26027e-07
-8.61426e-07
2.23976e-07
-1.22089e-06
-9.94447e-10
1.9895e-09
0.0010729
-2.42774e-07
1.22286e-06
2.41958e-07
8.66931e-07
-2.28844e-07
-8.6698e-07
2.26738e-07
0.00107247
-1.10657e-09
-0.00107247
1.99549e-09
-1.2155e-06
2.39188e-07
-2.40011e-07
-8.61413e-07
2.23985e-07
-2.26018e-07
8.61414e-07
1.22286e-06
0.0010729
-1.00157e-09
-0.0010729
1.99018e-09
-1.22089e-06
2.41958e-07
-2.42775e-07
-8.66977e-07
2.26742e-07
-2.28838e-07
8.66931e-07
-2.1861e-07
-2.20899e-07
0.000261964
-1.18428e-06
0.000263928
-0.000261964
2.20606e-07
2.22883e-07
1.91619e-09
0.00107351
-2.37409e-07
1.18165e-06
2.36637e-07
8.64213e-07
-2.28814e-07
-8.64159e-07
2.26797e-07
-1.21556e-06
-1.0459e-09
2.00519e-09
0.00107258
-2.42761e-07
1.21752e-06
2.41934e-07
8.64094e-07
-2.28775e-07
-8.64134e-07
2.26718e-07
0.00107351
-1.15577e-09
-0.00107351
1.90415e-09
-1.17968e-06
2.3664e-07
-2.37407e-07
-8.64162e-07
2.26801e-07
-2.28808e-07
8.64212e-07
1.21752e-06
0.00107258
-1.04517e-09
-0.00107258
2.00619e-09
-1.21557e-06
2.41933e-07
-2.42764e-07
-8.64131e-07
2.26723e-07
-2.28768e-07
8.64094e-07
-1.07913e-09
1.97748e-09
0.00107238
-2.37244e-07
1.21219e-06
2.36467e-07
8.61422e-07
-2.26035e-07
2.23969e-07
-8.61467e-07
-1.16583e-09
-0.00107324
1.89548e-09
-1.18227e-06
2.33873e-07
-2.34634e-07
-8.61464e-07
2.24064e-07
8.61486e-07
-2.26068e-07
1.21219e-06
0.00107238
-1.07153e-09
-0.00107238
1.99065e-09
-1.21022e-06
2.36465e-07
-2.37246e-07
-8.61468e-07
2.23968e-07
-2.26033e-07
8.61419e-07
-2.16076e-07
-2.23394e-07
0.000261925
-1.17892e-06
0.000263878
-0.000261925
2.18048e-07
2.25364e-07
-1.04793e-09
1.88944e-09
0.00107341
-2.34699e-07
1.17901e-06
2.33918e-07
8.61584e-07
-2.28813e-07
2.26764e-07
-8.61576e-07
-1.20091e-09
-0.00107291
1.90665e-09
-1.17693e-06
2.33878e-07
-2.34628e-07
-8.61288e-07
2.26715e-07
8.61372e-07
-2.28718e-07
1.17901e-06
0.00107341
-1.01749e-09
-0.00107341
1.88996e-09
-1.17705e-06
2.33919e-07
-2.34697e-07
-8.61586e-07
2.26761e-07
-2.28818e-07
8.6158e-07
-0.000261938
2.20351e-07
2.25589e-07
1.2155e-06
1.17968e-06
-2.15907e-07
-2.23577e-07
0.000261943
-1.21747e-06
-1.18165e-06
0.000263899
-0.000261943
2.17863e-07
2.25561e-07
1.99699e-09
0.00107247
-2.4001e-07
1.21747e-06
2.39187e-07
8.61405e-07
-2.26026e-07
-8.61426e-07
2.23977e-07
-1.22089e-06
-1.00122e-09
1.98924e-09
0.0010729
-2.42774e-07
1.22286e-06
2.41958e-07
8.66932e-07
-2.28843e-07
-8.66979e-07
2.2674e-07
0.00107247
-1.10279e-09
-0.00107247
1.99944e-09
-1.2155e-06
2.39186e-07
-2.40012e-07
-8.61415e-07
2.23983e-07
-2.2602e-07
8.61413e-07
1.22286e-06
0.0010729
-9.95494e-10
-0.0010729
1.99194e-09
-1.22089e-06
2.41957e-07
-2.42776e-07
-8.66978e-07
2.2674e-07
-2.2884e-07
8.66929e-07
-2.18608e-07
-2.20899e-07
0.000261964
-1.18428e-06
0.000263928
-0.000261964
2.20605e-07
2.22882e-07
1.91144e-09
0.00107351
-2.37408e-07
1.18165e-06
2.36638e-07
8.64213e-07
-2.28815e-07
-8.6416e-07
2.26796e-07
-1.21557e-06
-1.04269e-09
2.01621e-09
0.00107258
-2.42765e-07
1.21752e-06
2.41931e-07
8.64094e-07
-2.28774e-07
-8.64134e-07
2.26718e-07
0.00107351
-1.14603e-09
-0.00107351
1.90434e-09
-1.17968e-06
2.3664e-07
-2.37408e-07
-8.64165e-07
2.26798e-07
-2.28811e-07
8.64209e-07
1.21752e-06
0.00107258
-1.03621e-09
-0.00107258
2.01322e-09
-1.21557e-06
2.4193e-07
-2.42767e-07
-8.64133e-07
2.26721e-07
-2.28769e-07
8.64092e-07
-1.07948e-09
1.98934e-09
0.00107238
-2.37248e-07
1.21219e-06
2.36464e-07
8.61423e-07
-2.26034e-07
2.2397e-07
-8.61467e-07
-1.16106e-09
-0.00107324
1.89612e-09
-1.18227e-06
2.33872e-07
-2.34634e-07
-8.61465e-07
2.24063e-07
8.61485e-07
-2.2607e-07
1.21219e-06
0.00107238
-1.07078e-09
-0.00107238
1.99718e-09
-1.21022e-06
2.36463e-07
-2.37248e-07
-8.61468e-07
2.23968e-07
-2.26033e-07
8.61418e-07
-2.16075e-07
-2.23397e-07
0.000261925
-1.17891e-06
0.000263878
-0.000261925
2.18045e-07
2.25362e-07
-1.0265e-09
1.88639e-09
0.00107341
-2.34698e-07
1.17901e-06
2.33919e-07
8.61584e-07
-2.28818e-07
2.26763e-07
-8.61576e-07
-1.1889e-09
-0.00107291
1.91127e-09
-1.17693e-06
2.33877e-07
-2.34629e-07
-8.6129e-07
2.26711e-07
8.6137e-07
-2.28722e-07
1.17901e-06
0.00107341
-1.01274e-09
-0.00107341
1.89111e-09
-1.17705e-06
2.33919e-07
-2.34697e-07
-8.61582e-07
2.26759e-07
-2.2882e-07
8.61579e-07
-0.000261938
2.20351e-07
2.25587e-07
1.2155e-06
1.17968e-06
-2.15908e-07
-2.23578e-07
0.000261943
-1.21747e-06
-1.18165e-06
0.000263899
-0.000261943
2.17862e-07
2.25561e-07
2.00014e-09
0.00107247
-2.40011e-07
1.21747e-06
2.39186e-07
8.61403e-07
-2.26028e-07
-8.61428e-07
2.23975e-07
-1.22089e-06
-9.96375e-10
1.99018e-09
0.0010729
-2.42775e-07
1.22286e-06
2.41957e-07
8.66931e-07
-2.28844e-07
-8.66981e-07
2.26739e-07
0.00107247
-1.09866e-09
-0.00107247
2.00107e-09
-1.2155e-06
2.39186e-07
-2.40013e-07
-8.61415e-07
2.23983e-07
-2.2602e-07
8.61412e-07
1.22286e-06
0.0010729
-9.94126e-10
-0.0010729
1.99383e-09
-1.22089e-06
2.41956e-07
-2.42777e-07
-8.66979e-07
2.2674e-07
-2.2884e-07
8.66929e-07
-2.18609e-07
-2.209e-07
0.000261964
-1.18428e-06
0.000263928
-0.000261964
2.20605e-07
2.22881e-07
1.91151e-09
0.00107351
-2.37409e-07
1.18165e-06
2.36638e-07
8.6421e-07
-2.28818e-07
-8.64162e-07
2.26793e-07
-1.21557e-06
-1.03548e-09
2.0226e-09
0.00107258
-2.42769e-07
1.21751e-06
2.41928e-07
8.64092e-07
-2.28776e-07
-8.64136e-07
2.26717e-07
0.00107351
-1.14473e-09
-0.00107351
1.9068e-09
-1.17968e-06
2.36639e-07
-2.37409e-07
-8.64165e-07
2.26798e-07
-2.28811e-07
8.64209e-07
1.21752e-06
0.00107258
-1.03976e-09
-0.00107258
2.01202e-09
-1.21557e-06
2.4193e-07
-2.42767e-07
-8.64132e-07
2.26722e-07
-2.28769e-07
8.64093e-07
-1.08006e-09
1.99398e-09
0.00107238
-2.3725e-07
1.21219e-06
2.36463e-07
8.61423e-07
-2.26034e-07
2.2397e-07
-8.61467e-07
-1.15872e-09
-0.00107324
1.89735e-09
-1.18227e-06
2.33872e-07
-2.34634e-07
-8.61466e-07
2.24061e-07
8.61484e-07
-2.26071e-07
1.21219e-06
0.00107238
-1.07174e-09
-0.00107238
1.99548e-09
-1.21022e-06
2.36463e-07
-2.37248e-07
-8.61468e-07
2.23968e-07
-2.26033e-07
8.61418e-07
-2.16077e-07
-2.234e-07
0.000261925
-1.17891e-06
0.000263878
-0.000261925
2.18046e-07
2.25363e-07
-1.01509e-09
1.88729e-09
0.00107341
-2.34699e-07
1.17901e-06
2.33919e-07
8.61582e-07
-2.28822e-07
2.26759e-07
-8.61582e-07
-1.19207e-09
-0.00107291
1.91136e-09
-1.17693e-06
2.33878e-07
-2.34628e-07
-8.6129e-07
2.26711e-07
8.6137e-07
-2.28722e-07
1.17901e-06
0.00107341
-1.01667e-09
-0.00107341
1.89206e-09
-1.17705e-06
2.33918e-07
-2.34698e-07
-8.6158e-07
2.26758e-07
-2.2882e-07
8.6158e-07
-0.000261938
2.2035e-07
2.25587e-07
1.2155e-06
1.17968e-06
-2.15909e-07
-2.23578e-07
0.000261943
-1.21747e-06
-1.18165e-06
0.000263899
-0.000261943
2.17864e-07
2.25563e-07
2.00026e-09
0.00107247
-2.40012e-07
1.21747e-06
2.39186e-07
8.61403e-07
-2.26028e-07
-8.61428e-07
2.23975e-07
-1.22089e-06
-9.95431e-10
1.99248e-09
0.0010729
-2.42777e-07