/*--------------------------------*- C++ -*----------------------------------*\
| =========                 |                                                 |
| \\      /  F ield         | OpenFOAM: The Open Source CFD Toolbox           |
|  \\    /   O peration     | Version:  2206                                  |
|   \\  /    A nd           | Website:  www.openfoam.com                      |
|    \\/     M anipulation  |                                                 |
\*---------------------------------------------------------------------------*/
FoamFile
{
    version     2.0;
    format      ascii;
    arch        "LSB;label=32;scalar=64";
    class       volScalarField;
    location    "26";
    object      k;
}
// * * * * * * * * * * * * * * * * * * * * * * * * * * * * * * * * * * * * * //

dimensions      [0 2 -2 0 0 0 0];

internalField   nonuniform List<scalar> 
28448
(
2.70299e-05
2.65527e-05
2.65523e-05
2.6015e-05
2.70299e-05
2.65528e-05
2.65524e-05
2.60151e-05
2.703e-05
2.65527e-05
2.65524e-05
2.60153e-05
2.70299e-05
2.65528e-05
2.65524e-05
2.60155e-05
2.70298e-05
2.65526e-05
2.65523e-05
2.60154e-05
2.70288e-05
2.65513e-05
2.65498e-05
2.60123e-05
2.70228e-05
2.65445e-05
2.65439e-05
2.6006e-05
2.70219e-05
2.65438e-05
2.65437e-05
2.60057e-05
2.70219e-05
2.65439e-05
2.65437e-05
2.60057e-05
2.70219e-05
2.65439e-05
2.65438e-05
2.60057e-05
2.70219e-05
2.65439e-05
2.65438e-05
2.60057e-05
2.70219e-05
2.65439e-05
2.65438e-05
2.60057e-05
2.70219e-05
2.65439e-05
2.65438e-05
2.60057e-05
2.70219e-05
2.65439e-05
2.65438e-05
2.60057e-05
2.70219e-05
2.65439e-05
2.65438e-05
2.60057e-05
2.70219e-05
2.65439e-05
2.65438e-05
2.60057e-05
2.70219e-05
2.65439e-05
2.65438e-05
2.60057e-05
2.70224e-05
2.6544e-05
2.60186e-05
2.65523e-05
2.65522e-05
2.60187e-05
2.65525e-05
2.65519e-05
2.65527e-05
2.65522e-05
2.60183e-05
2.65523e-05
2.65525e-05
2.60186e-05
2.60153e-05
2.60187e-05
2.65523e-05
2.65522e-05
2.65522e-05
2.65521e-05
2.60153e-05
2.60187e-05
2.65525e-05
2.65521e-05
2.65525e-05
2.6552e-05
2.65524e-05
2.65528e-05
2.65523e-05
2.60149e-05
2.60183e-05
2.65527e-05
2.65524e-05
2.65526e-05
2.60187e-05
2.60153e-05
2.60188e-05
2.65523e-05
2.65522e-05
2.65523e-05
2.65522e-05
2.60153e-05
2.60188e-05
2.65526e-05
2.65521e-05
2.65526e-05
2.65521e-05
2.65525e-05
2.65527e-05
2.65524e-05
2.6015e-05
2.60185e-05
2.65527e-05
2.65524e-05
2.65527e-05
2.60189e-05
2.60154e-05
2.6019e-05
2.65525e-05
2.65525e-05
2.65525e-05
2.65524e-05
2.60154e-05
2.6019e-05
2.65528e-05
2.65523e-05
2.65528e-05
2.65522e-05
2.65526e-05
2.65528e-05
2.65526e-05
2.60152e-05
2.60187e-05
2.65529e-05
2.65524e-05
2.65528e-05
2.60191e-05
2.60157e-05
2.60193e-05
2.65527e-05
2.65527e-05
2.65526e-05
2.65525e-05
2.60157e-05
2.60193e-05
2.6553e-05
2.65522e-05
2.65529e-05
2.65519e-05
2.65525e-05
2.65527e-05
2.65522e-05
2.60154e-05
2.60188e-05
2.65528e-05
2.65523e-05
2.65525e-05
2.60191e-05
2.6016e-05
2.60182e-05
2.65525e-05
2.65524e-05
2.65519e-05
2.65518e-05
2.60159e-05
2.60181e-05
2.65529e-05
2.65519e-05
2.65522e-05
2.6551e-05
2.65522e-05
2.65521e-05
2.65512e-05
2.60154e-05
2.60168e-05
2.65525e-05
2.65514e-05
2.65515e-05
2.60171e-05
2.60142e-05
2.60114e-05
2.65512e-05
2.65511e-05
2.65456e-05
2.65455e-05
2.60141e-05
2.60113e-05
2.65515e-05
2.65495e-05
2.65458e-05
2.65441e-05
2.65497e-05
2.65456e-05
2.65444e-05
2.60124e-05
2.60098e-05
2.65499e-05
2.65446e-05
2.65447e-05
2.60101e-05
2.60071e-05
2.60092e-05
2.65445e-05
2.65443e-05
2.65435e-05
2.65434e-05
2.6007e-05
2.60092e-05
2.65447e-05
2.65436e-05
2.65438e-05
2.65432e-05
2.65439e-05
2.65438e-05
2.65435e-05
2.6006e-05
2.6009e-05
2.65441e-05
2.65437e-05
2.65438e-05
2.60093e-05
2.60059e-05
2.60093e-05
2.65436e-05
2.65436e-05
2.65436e-05
2.65435e-05
2.60059e-05
2.60093e-05
2.65439e-05
2.65433e-05
2.65438e-05
2.65432e-05
2.65437e-05
2.65439e-05
2.65436e-05
2.60057e-05
2.6009e-05
2.65439e-05
2.65438e-05
2.65438e-05
2.60093e-05
2.60059e-05
2.60094e-05
2.65437e-05
2.65436e-05
2.65436e-05
2.65435e-05
2.60059e-05
2.60094e-05
2.65439e-05
2.65434e-05
2.65439e-05
2.65433e-05
2.65437e-05
2.65439e-05
2.65436e-05
2.60056e-05
2.60091e-05
2.65439e-05
2.65438e-05
2.65438e-05
2.60094e-05
2.6006e-05
2.60093e-05
2.65437e-05
2.65436e-05
2.65436e-05
2.65435e-05
2.6006e-05
2.60093e-05
2.6544e-05
2.65434e-05
2.65438e-05
2.65433e-05
2.65437e-05
2.65439e-05
2.65436e-05
2.60057e-05
2.6009e-05
2.65439e-05
2.65438e-05
2.65438e-05
2.60094e-05
2.60059e-05
2.60093e-05
2.65437e-05
2.65436e-05
2.65436e-05
2.65435e-05
2.60059e-05
2.60093e-05
2.65439e-05
2.65434e-05
2.65438e-05
2.65433e-05
2.65437e-05
2.65439e-05
2.65436e-05
2.60057e-05
2.6009e-05
2.65439e-05
2.65438e-05
2.65438e-05
2.60093e-05
2.60059e-05
2.60094e-05
2.65437e-05
2.65436e-05
2.65436e-05
2.65435e-05
2.60059e-05
2.60094e-05
2.65439e-05
2.65434e-05
2.65439e-05
2.65433e-05
2.65437e-05
2.65439e-05
2.65436e-05
2.60056e-05
2.60091e-05
2.65439e-05
2.65438e-05
2.65438e-05
2.60093e-05
2.6006e-05
2.60094e-05
2.65437e-05
2.65436e-05
2.65436e-05
2.65435e-05
2.60059e-05
2.60094e-05
2.6544e-05
2.65434e-05
2.65438e-05
2.65433e-05
2.65437e-05
2.65439e-05
2.65436e-05
2.60057e-05
2.60091e-05
2.65439e-05
2.65438e-05
2.65438e-05
2.60094e-05
2.6006e-05
2.60094e-05
2.65437e-05
2.65436e-05
2.65436e-05
2.65435e-05
2.6006e-05
2.60094e-05
2.6544e-05
2.65434e-05
2.65439e-05
2.65433e-05
2.65437e-05
2.65439e-05
2.65436e-05
2.60057e-05
2.60091e-05
2.65439e-05
2.65438e-05
2.65438e-05
2.60093e-05
2.6006e-05
2.60094e-05
2.65437e-05
2.65436e-05
2.65436e-05
2.65435e-05
2.6006e-05
2.60094e-05
2.6544e-05
2.65434e-05
2.65438e-05
2.65433e-05
2.65437e-05
2.65439e-05
2.65436e-05
2.60057e-05
2.60091e-05
2.65439e-05
2.65438e-05
2.65438e-05
2.60094e-05
2.6006e-05
2.60093e-05
2.65437e-05
2.65436e-05
2.65436e-05
2.65435e-05
2.6006e-05
2.60093e-05
2.65439e-05
2.65434e-05
2.65439e-05
2.65433e-05
2.65437e-05
2.65439e-05
2.65436e-05
2.60057e-05
2.6009e-05
2.65439e-05
2.65438e-05
2.65438e-05
2.60094e-05
2.6006e-05
2.60094e-05
2.65437e-05
2.65436e-05
2.65437e-05
2.6006e-05
2.6544e-05
2.65434e-05
2.65439e-05
2.65433e-05
2.65437e-05
2.65438e-05
2.60057e-05
2.6009e-05
2.65439e-05
2.65438e-05
2.6544e-05
2.60096e-05
2.60064e-05
2.6544e-05
2.65434e-05
2.60057e-05
2.70299e-05
2.703e-05
2.70299e-05
2.70299e-05
2.87881e-05
6.973e-05
2.87891e-05
6.97263e-05
8.04418e-05
8.04371e-05
2.87897e-05
6.9731e-05
2.87903e-05
6.97275e-05
2.703e-05
2.703e-05
2.70301e-05
2.703e-05
2.703e-05
2.703e-05
2.703e-05
2.51166e-05
2.83717e-05
2.6834e-05
2.65529e-05
2.51164e-05
2.83688e-05
2.68341e-05
8.04355e-05
8.04315e-05
2.51164e-05
2.68338e-05
2.83721e-05
2.65524e-05
2.51163e-05
2.68339e-05
2.83692e-05
3.39446e-05
3.39461e-05
2.60186e-05
3.39429e-05
3.39444e-05
2.87903e-05
6.97265e-05
2.87919e-05
6.97238e-05
8.04341e-05
8.04326e-05
2.87916e-05
6.97278e-05
2.87931e-05
6.9725e-05
2.70299e-05
2.703e-05
2.70301e-05
2.703e-05
2.70299e-05
2.70298e-05
2.703e-05
2.51172e-05
2.83739e-05
2.68341e-05
2.65528e-05
2.51171e-05
2.83706e-05
2.68341e-05
8.04297e-05
8.04278e-05
2.51172e-05
2.68339e-05
2.83739e-05
2.65525e-05
2.51171e-05
2.6834e-05
2.83706e-05
3.39459e-05
3.39474e-05
2.60188e-05
3.39452e-05
3.39467e-05
2.8791e-05
6.9725e-05
2.8793e-05
6.97228e-05
8.04319e-05
8.04313e-05
2.87922e-05
6.97264e-05
2.87938e-05
6.9724e-05
2.703e-05
2.70298e-05
2.70301e-05
2.70299e-05
2.703e-05
2.70297e-05
2.70299e-05
2.51177e-05
2.83753e-05
2.6834e-05
2.65528e-05
2.51175e-05
2.83718e-05
2.68341e-05
8.04281e-05
8.04275e-05
2.51174e-05
2.68339e-05
2.83749e-05
2.65525e-05
2.51174e-05
2.68339e-05
2.83715e-05
3.39497e-05
3.39512e-05
2.6019e-05
3.39491e-05
3.39507e-05
2.87922e-05
6.97248e-05
2.87939e-05
6.97229e-05
8.04321e-05
8.04322e-05
2.87935e-05
6.97261e-05
2.87951e-05
6.9724e-05
2.70301e-05
2.70297e-05
2.70299e-05
2.70298e-05
2.70298e-05
2.70295e-05
2.70296e-05
2.51185e-05
2.83761e-05
2.6834e-05
2.65528e-05
2.51181e-05
2.83723e-05
2.6834e-05
8.04289e-05
8.04287e-05
2.51183e-05
2.68338e-05
2.83756e-05
2.65524e-05
2.51181e-05
2.68337e-05
2.83721e-05
3.39527e-05
3.39543e-05
2.60192e-05
3.39514e-05
3.3953e-05
2.87921e-05
6.97252e-05
2.87948e-05
6.97244e-05
8.04342e-05
8.04351e-05
2.87931e-05
6.97265e-05
2.87957e-05
6.97255e-05
2.70298e-05
2.70295e-05
2.70296e-05
2.70294e-05
2.70293e-05
2.70288e-05
2.70289e-05
2.5118e-05
2.83764e-05
2.68339e-05
2.65526e-05
2.51187e-05
2.83723e-05
2.68338e-05
8.04314e-05
8.04316e-05
2.51176e-05
2.68336e-05
2.8376e-05
2.65522e-05
2.51183e-05
2.68336e-05
2.83721e-05
3.39531e-05
3.39547e-05
2.60188e-05
3.39509e-05
3.39524e-05
2.8789e-05
6.97299e-05
2.87931e-05
6.97298e-05
8.04356e-05
8.04342e-05
2.87894e-05
6.97314e-05
2.87936e-05
6.97311e-05
2.70288e-05
2.70276e-05
2.70276e-05
2.7024e-05
2.70239e-05
2.70229e-05
2.70229e-05
2.51109e-05
2.83749e-05
2.68321e-05
2.65495e-05
2.51157e-05
2.83688e-05
2.68303e-05
8.04313e-05
8.04294e-05
2.51102e-05
2.68314e-05
2.8374e-05
2.65478e-05
2.51152e-05
2.68295e-05
2.83677e-05
3.39515e-05
3.39531e-05
2.60134e-05
3.39474e-05
3.3949e-05
2.87827e-05
6.97324e-05
2.87867e-05
6.97302e-05
8.04333e-05
8.04325e-05
2.87836e-05
6.97339e-05
2.87871e-05
6.97314e-05
2.70229e-05
2.70223e-05
2.70224e-05
2.70219e-05
2.7022e-05
2.7022e-05
2.7022e-05
2.5107e-05
2.83686e-05
2.68262e-05
2.65441e-05
2.51072e-05
2.83632e-05
2.68259e-05
8.04294e-05
8.04284e-05
2.51068e-05
2.68259e-05
2.83678e-05
2.65439e-05
2.5107e-05
2.68258e-05
2.83631e-05
3.39456e-05
3.39472e-05
2.60094e-05
3.39425e-05
3.39441e-05
2.87813e-05
6.97318e-05
2.87837e-05
6.97297e-05
8.04328e-05
8.04323e-05
2.87824e-05
6.97333e-05
2.87845e-05
6.97311e-05
2.70222e-05
2.70221e-05
2.70221e-05
2.7022e-05
2.70221e-05
2.7022e-05
2.7022e-05
2.51068e-05
2.83661e-05
2.68257e-05
2.6544e-05
2.5107e-05
2.8362e-05
2.68258e-05
8.04291e-05
8.04283e-05
2.51066e-05
2.68256e-05
2.83662e-05
2.65438e-05
2.51068e-05
2.68257e-05
2.83624e-05
3.39438e-05
3.39454e-05
2.60093e-05
3.39418e-05
3.39433e-05
2.87812e-05
6.97317e-05
2.87834e-05
6.97297e-05
8.04328e-05
8.04323e-05
2.87823e-05
6.97332e-05
2.87843e-05
6.9731e-05
2.70221e-05
2.7022e-05
2.70221e-05
2.7022e-05
2.70221e-05
2.7022e-05
2.7022e-05
2.51068e-05
2.83659e-05
2.68257e-05
2.6544e-05
2.51068e-05
2.83619e-05
2.68258e-05
8.04291e-05
8.04283e-05
2.51067e-05
2.68256e-05
2.83661e-05
2.65438e-05
2.51067e-05
2.68257e-05
2.83624e-05
3.39437e-05
3.39453e-05
2.60094e-05
3.39418e-05
3.39433e-05
2.87812e-05
6.97317e-05
2.87834e-05
6.97297e-05
8.04328e-05
8.04323e-05
2.87823e-05
6.97332e-05
2.87843e-05
6.9731e-05
2.70221e-05
2.70221e-05
2.70221e-05
2.7022e-05
2.70221e-05
2.7022e-05
2.7022e-05
2.51067e-05
2.83659e-05
2.68257e-05
2.6544e-05
2.51069e-05
2.83619e-05
2.68258e-05
8.04291e-05
8.04283e-05
2.51068e-05
2.68256e-05
2.83661e-05
2.65439e-05
2.51069e-05
2.68257e-05
2.83624e-05
3.39437e-05
3.39452e-05
2.60093e-05
3.39418e-05
3.39433e-05
2.87812e-05
6.97317e-05
2.87834e-05
6.97297e-05
8.04328e-05
8.04323e-05
2.87823e-05
6.97332e-05
2.87843e-05
6.9731e-05
2.70221e-05
2.70221e-05
2.70221e-05
2.7022e-05
2.70221e-05
2.7022e-05
2.7022e-05
2.51067e-05
2.83659e-05
2.68257e-05
2.6544e-05
2.51066e-05
2.83619e-05
2.68258e-05
8.04291e-05
8.04283e-05
2.51067e-05
2.68256e-05
2.83661e-05
2.65439e-05
2.51068e-05
2.68257e-05
2.83624e-05
3.39437e-05
3.39452e-05
2.60094e-05
3.39418e-05
3.39433e-05
2.87812e-05
6.97317e-05
2.87834e-05
6.97297e-05
8.04328e-05
8.04323e-05
2.87823e-05
6.97332e-05
2.87843e-05
6.9731e-05
2.70221e-05
2.70221e-05
2.70221e-05
2.7022e-05
2.70221e-05
2.7022e-05
2.7022e-05
2.51066e-05
2.83659e-05
2.68257e-05
2.6544e-05
2.51067e-05
2.83619e-05
2.68258e-05
8.04291e-05
8.04283e-05
2.51066e-05
2.68256e-05
2.83661e-05
2.65439e-05
2.51067e-05
2.68257e-05
2.83624e-05
3.39437e-05
3.39452e-05
2.60094e-05
3.39418e-05
3.39433e-05
2.87812e-05
6.97317e-05
2.87834e-05
6.97297e-05
8.04328e-05
8.04323e-05
2.87823e-05
6.97332e-05
2.87843e-05
6.9731e-05
2.70221e-05
2.70221e-05
2.70221e-05
2.7022e-05
2.70221e-05
2.7022e-05
2.7022e-05
2.51068e-05
2.83659e-05
2.68257e-05
2.6544e-05
2.51069e-05
2.83619e-05
2.68258e-05
8.04291e-05
8.04283e-05
2.51065e-05
2.68256e-05
2.83661e-05
2.65439e-05
2.51066e-05
2.68257e-05
2.83624e-05
3.39437e-05
3.39452e-05
2.60094e-05
3.39418e-05
3.39433e-05
2.87812e-05
6.97317e-05
2.87834e-05
6.97297e-05
8.04328e-05
8.04323e-05
2.87823e-05
6.97332e-05
2.87843e-05
6.9731e-05
2.70221e-05
2.70221e-05
2.70221e-05
2.7022e-05
2.70221e-05
2.7022e-05
2.7022e-05
2.51066e-05
2.83659e-05
2.68257e-05
2.6544e-05
2.51066e-05
2.83619e-05
2.68258e-05
8.04291e-05
8.04283e-05
2.51063e-05
2.68256e-05
2.83661e-05
2.65439e-05
2.51065e-05
2.68257e-05
2.83624e-05
3.39437e-05
3.39452e-05
2.60094e-05
3.39418e-05
3.39433e-05
2.87812e-05
6.97317e-05
2.87834e-05
6.97297e-05
8.04328e-05
8.04323e-05
2.87823e-05
6.97331e-05
2.87843e-05
6.9731e-05
2.70221e-05
2.70221e-05
2.70221e-05
2.7022e-05
2.70221e-05
2.7022e-05
2.7022e-05
2.51067e-05
2.83659e-05
2.68257e-05
2.6544e-05
2.51069e-05
2.83619e-05
2.68258e-05
8.04291e-05
8.04283e-05
2.51062e-05
2.68256e-05
2.83661e-05
2.65439e-05
2.51064e-05
2.68257e-05
2.83624e-05
3.39437e-05
3.39452e-05
2.60094e-05
3.39418e-05
3.39433e-05
2.87812e-05
6.97317e-05
2.87834e-05
6.97297e-05
8.04328e-05
8.04323e-05
2.87823e-05
6.97332e-05
2.87843e-05
6.9731e-05
2.70221e-05
2.70221e-05
2.70221e-05
2.7022e-05
2.70221e-05
2.7022e-05
2.7022e-05
2.51067e-05
2.83659e-05
2.68257e-05
2.6544e-05
2.51065e-05
2.83619e-05
2.68258e-05
8.04291e-05
8.04283e-05
2.51061e-05
2.68256e-05
2.83661e-05
2.65439e-05
2.51062e-05
2.68257e-05
2.83623e-05
3.39437e-05
3.39452e-05
2.60094e-05
3.39418e-05
3.39433e-05
2.87812e-05
6.97317e-05
2.87834e-05
6.97297e-05
8.04328e-05
8.04323e-05
2.87823e-05
6.97332e-05
2.87843e-05
6.9731e-05
2.70221e-05
2.70221e-05
2.70221e-05
2.70221e-05
2.70224e-05
2.7022e-05
2.70222e-05
2.51069e-05
2.83659e-05
2.68257e-05
2.65439e-05
2.51069e-05
2.83619e-05
2.68258e-05
8.04291e-05
8.04284e-05
2.51061e-05
2.68256e-05
2.83661e-05
2.65439e-05
2.51062e-05
2.68257e-05
2.83623e-05
3.39437e-05
3.39452e-05
2.60094e-05
3.39418e-05
3.39433e-05
6.97332e-05
2.87843e-05
2.70222e-05
8.04291e-05
2.83662e-05
8.04427e-05
8.04417e-05
3.39414e-05
3.39423e-05
6.97282e-05
2.87865e-05
6.97313e-05
2.87868e-05
2.83678e-05
2.6834e-05
2.51168e-05
2.83688e-05
2.6834e-05
2.5117e-05
8.04424e-05
3.39425e-05
3.39352e-05
8.04384e-05
6.97289e-05
2.87879e-05
2.83688e-05
2.68342e-05
2.51178e-05
2.87886e-05
6.97267e-05
6.97294e-05
2.87878e-05
2.51167e-05
2.65519e-05
2.68339e-05
2.8368e-05
2.68339e-05
2.8371e-05
2.51167e-05
2.51166e-05
2.83674e-05
2.6834e-05
2.6834e-05
2.51163e-05
2.87884e-05
6.97273e-05
2.87873e-05
2.51165e-05
2.65522e-05
2.6834e-05
2.83681e-05
2.6834e-05
2.83709e-05
2.51164e-05
2.87882e-05
6.97293e-05
6.97319e-05
2.87872e-05
8.04353e-05
8.04403e-05
2.60123e-05
3.39382e-05
3.39424e-05
3.39399e-05
3.39429e-05
8.04395e-05
8.04441e-05
2.51163e-05
2.65524e-05
2.68338e-05
2.83681e-05
2.68339e-05
2.83709e-05
2.51163e-05
2.51165e-05
2.65525e-05
2.68339e-05
2.83688e-05
2.68339e-05
2.83716e-05
2.51164e-05
2.87884e-05
6.97297e-05
6.97323e-05
2.87873e-05
2.87883e-05
6.97316e-05
6.97342e-05
2.87875e-05
2.60126e-05
3.39425e-05
3.3944e-05
3.3943e-05
3.39445e-05
8.04395e-05
8.04441e-05
8.0439e-05
8.04436e-05
8.04422e-05
8.04374e-05
8.04412e-05
8.04365e-05
3.39438e-05
3.39447e-05
2.60186e-05
3.39427e-05
3.39436e-05
8.04344e-05
8.04374e-05
8.04335e-05
8.04365e-05
2.60153e-05
3.39432e-05
3.39442e-05
3.39445e-05
3.39455e-05
2.87885e-05
6.9733e-05
2.87897e-05
6.97295e-05
2.5117e-05
2.83721e-05
2.6834e-05
2.65523e-05
2.51173e-05
2.83692e-05
2.6834e-05
2.51172e-05
2.83731e-05
2.6834e-05
2.65522e-05
2.51175e-05
2.83702e-05
2.6834e-05
2.87909e-05
6.97247e-05
6.97277e-05
2.87894e-05
2.87913e-05
6.97279e-05
6.97309e-05
2.87898e-05
2.51175e-05
2.65522e-05
2.83701e-05
2.6834e-05
2.83734e-05
2.6834e-05
2.51172e-05
2.51177e-05
2.65522e-05
2.83712e-05
2.68339e-05
2.83744e-05
2.6834e-05
2.51174e-05
3.39449e-05
3.39377e-05
2.60187e-05
3.39439e-05
3.39371e-05
8.04387e-05
8.04337e-05
8.04341e-05
8.04371e-05
2.60153e-05
3.39452e-05
3.39392e-05
3.3946e-05
3.39397e-05
8.04306e-05
8.04342e-05
2.51182e-05
2.83733e-05
2.68342e-05
2.65525e-05
2.51184e-05
2.83702e-05
2.68341e-05
2.87892e-05
6.97282e-05
2.87904e-05
6.97249e-05
2.51172e-05
2.68341e-05
2.83725e-05
2.65521e-05
2.51172e-05
2.6834e-05
2.83692e-05
2.87922e-05
6.97259e-05
6.97291e-05
2.87909e-05
2.51187e-05
2.65525e-05
2.83711e-05
2.6834e-05
2.83746e-05
2.68341e-05
2.51182e-05
2.87917e-05
6.97237e-05
6.97266e-05
2.87903e-05
2.51176e-05
2.65521e-05
2.6834e-05
2.837e-05
2.6834e-05
2.83736e-05
2.51176e-05
2.87887e-05
6.97295e-05
2.87901e-05
6.97265e-05
2.51168e-05
2.68341e-05
2.83724e-05
2.65524e-05
2.5117e-05
2.68341e-05
2.83692e-05
2.87886e-05
6.97306e-05
2.879e-05
6.97273e-05
2.51171e-05
2.65528e-05
2.83698e-05
2.68341e-05
2.83732e-05
2.68341e-05
2.51171e-05
2.87914e-05
6.9725e-05
6.97281e-05
2.87898e-05
2.51173e-05
2.65524e-05
2.68341e-05
2.837e-05
2.68341e-05
2.83733e-05
2.51172e-05
2.87913e-05
6.97261e-05
6.97288e-05
2.87897e-05
3.39405e-05
3.39443e-05
2.60183e-05
3.39397e-05
3.39428e-05
8.04392e-05
8.04354e-05
8.04292e-05
8.04321e-05
2.60149e-05
3.39413e-05
3.39435e-05
3.39422e-05
3.39446e-05
8.04332e-05
8.04356e-05
2.51168e-05
2.68341e-05
2.8373e-05
2.65527e-05
2.51169e-05
2.68341e-05
2.83699e-05
2.87887e-05
6.9731e-05
2.87901e-05
6.97277e-05
2.8789e-05
6.97329e-05
2.87901e-05
6.97296e-05
2.5117e-05
2.65524e-05
2.68339e-05
2.837e-05
2.68339e-05
2.83733e-05
2.5117e-05
2.51173e-05
2.65526e-05
2.6834e-05
2.83707e-05
2.68341e-05
2.8374e-05
2.51172e-05
2.87914e-05
6.97265e-05
6.97292e-05
2.87897e-05
2.87914e-05
6.97284e-05
6.97311e-05
2.879e-05
8.04391e-05
8.04353e-05
8.04387e-05
8.04349e-05
2.60153e-05
3.39437e-05
3.39452e-05
3.39448e-05
3.39462e-05
8.04332e-05
8.04356e-05
8.04327e-05
8.04351e-05
8.04348e-05
8.04328e-05
8.04338e-05
8.04318e-05
3.39452e-05
3.39462e-05
2.60187e-05
3.39445e-05
3.39455e-05
8.04318e-05
8.04334e-05
8.04308e-05
8.04324e-05
2.60153e-05
3.39465e-05
3.39474e-05
3.39467e-05
3.39476e-05
2.87907e-05
6.97295e-05
2.87925e-05
6.97269e-05
2.51177e-05
2.83742e-05
2.6834e-05
2.65523e-05
2.51176e-05
2.83709e-05
2.68339e-05
2.5118e-05
2.83753e-05
2.68339e-05
2.65522e-05
2.51178e-05
2.83719e-05
2.68339e-05
2.87928e-05
6.97231e-05
6.97255e-05
2.87907e-05
2.87932e-05
6.97263e-05
6.97286e-05
2.87911e-05
2.51182e-05
2.65523e-05
2.83714e-05
2.68339e-05
2.83749e-05
2.68339e-05
2.51181e-05
2.51185e-05
2.65522e-05
2.83725e-05
2.68338e-05
2.8376e-05
2.68338e-05
2.51182e-05
3.39474e-05
3.39417e-05
2.60187e-05
3.39466e-05
3.39406e-05
8.04312e-05
8.04287e-05
8.04316e-05
8.04332e-05
2.60154e-05
3.39483e-05
3.39425e-05
3.39488e-05
3.3943e-05
8.04278e-05
8.04295e-05
2.51186e-05
2.83754e-05
2.68341e-05
2.65526e-05
2.51186e-05
2.83718e-05
2.68341e-05
2.87908e-05
6.97256e-05
2.87926e-05
6.9723e-05
2.51182e-05
2.6834e-05
2.83744e-05
2.65521e-05
2.51181e-05
2.6834e-05
2.83707e-05
2.87939e-05
6.97244e-05
6.97268e-05
2.87918e-05
2.51191e-05
2.65526e-05
2.83724e-05
2.68341e-05
2.83761e-05
2.68341e-05
2.51186e-05
2.8793e-05
6.97225e-05
6.97249e-05
2.8791e-05
2.51187e-05
2.65521e-05
2.68339e-05
2.83713e-05
2.68339e-05
2.8375e-05
2.51184e-05
2.87903e-05
6.97268e-05
2.87924e-05
6.97241e-05
2.51178e-05
2.68341e-05
2.83741e-05
2.65525e-05
2.51177e-05
2.6834e-05
2.83707e-05
2.87904e-05
6.97277e-05
2.87923e-05
6.97253e-05
2.51178e-05
2.65528e-05
2.83712e-05
2.6834e-05
2.83749e-05
2.6834e-05
2.51175e-05
2.87928e-05
6.97236e-05
6.9726e-05
2.87906e-05
2.51183e-05
2.65525e-05
2.6834e-05
2.83712e-05
2.6834e-05
2.83747e-05
2.51179e-05
2.87929e-05
6.97249e-05
6.97271e-05
2.87907e-05
3.39437e-05
3.39455e-05
2.60184e-05
3.39427e-05
3.39451e-05
8.04338e-05
8.0432e-05
8.04274e-05
8.04288e-05
2.60151e-05
3.39446e-05
3.39472e-05
3.39451e-05
3.39473e-05
8.04314e-05
8.04327e-05
2.51177e-05
2.6834e-05
2.83748e-05
2.65527e-05
2.51177e-05
2.6834e-05
2.83713e-05
2.87902e-05
6.97281e-05
2.87923e-05
6.97257e-05
2.87904e-05
6.97301e-05
2.87923e-05
6.97277e-05
2.51178e-05
2.65525e-05
2.68339e-05
2.83712e-05
2.68339e-05
2.83747e-05
2.51174e-05
2.51183e-05
2.65527e-05
2.68339e-05
2.83719e-05
2.68339e-05
2.83754e-05
2.51178e-05
2.87928e-05
6.97253e-05
6.97275e-05
2.87905e-05
2.87926e-05
6.97272e-05
6.97294e-05
2.87907e-05
8.04338e-05
8.0432e-05
8.04333e-05
8.04315e-05
2.60154e-05
3.39472e-05
3.39488e-05
3.39474e-05
3.39489e-05
8.04314e-05
8.04327e-05
8.04309e-05
8.04322e-05
8.04326e-05
8.04315e-05
8.04316e-05
8.04305e-05
3.39487e-05
3.39496e-05
2.60189e-05
3.39486e-05
3.39495e-05
8.04317e-05
8.04325e-05
8.04307e-05
8.04315e-05
2.60155e-05
3.39503e-05
3.39512e-05
3.39508e-05
3.39516e-05
2.87913e-05
6.97281e-05
2.87935e-05
6.9726e-05
2.51182e-05
2.83754e-05
2.6834e-05
2.65525e-05
2.51185e-05
2.83719e-05
2.6834e-05
2.51183e-05
2.83765e-05
2.6834e-05
2.65525e-05
2.51185e-05
2.83729e-05
2.6834e-05
2.87935e-05
6.97227e-05
6.97246e-05
2.87916e-05
2.87938e-05
6.97259e-05
6.97278e-05
2.87918e-05
2.51187e-05
2.65525e-05
2.83722e-05
2.6834e-05
2.83759e-05
2.6834e-05
2.51186e-05
2.51188e-05
2.65525e-05
2.83732e-05
2.6834e-05
2.8377e-05
2.6834e-05
2.51185e-05
3.39506e-05
3.39451e-05
2.60189e-05
3.39503e-05
3.39448e-05
8.04288e-05
8.04276e-05
8.04315e-05
8.04322e-05
2.60155e-05
3.3952e-05
3.39465e-05
3.39526e-05
3.39473e-05
8.04278e-05
8.04288e-05
2.51189e-05
2.83767e-05
2.68342e-05
2.65528e-05
2.51189e-05
2.83729e-05
2.68342e-05
2.87916e-05
6.97245e-05
2.87933e-05
6.97224e-05
2.51185e-05
2.6834e-05
2.83756e-05
2.65523e-05
2.51187e-05
2.6834e-05
2.83718e-05
2.87945e-05
6.97239e-05
6.9726e-05
2.87929e-05
2.51193e-05
2.65528e-05
2.83732e-05
2.68341e-05
2.83771e-05
2.68342e-05
2.51195e-05
2.87939e-05
6.97224e-05
6.97244e-05
2.87923e-05
2.51189e-05
2.65523e-05
2.68339e-05
2.83721e-05
2.6834e-05
2.8376e-05
2.51189e-05
2.8791e-05
6.97256e-05
2.87931e-05
6.97233e-05
2.5118e-05
2.68341e-05
2.83752e-05
2.65526e-05
2.51182e-05
2.68341e-05
2.83716e-05
2.87911e-05
6.97267e-05
2.87932e-05
6.97247e-05
2.51183e-05
2.65528e-05
2.83721e-05
2.6834e-05
2.8376e-05
2.68341e-05
2.5118e-05
2.87935e-05
6.97232e-05
6.97253e-05
2.87916e-05
2.51185e-05
2.65526e-05
2.6834e-05
2.83719e-05
2.68341e-05
2.83756e-05
2.51186e-05
2.87936e-05
6.97247e-05
6.97265e-05
2.87917e-05
3.39471e-05
3.39494e-05
2.60186e-05
3.39466e-05
3.39491e-05
8.04323e-05
8.04314e-05
8.04279e-05
8.04287e-05
2.60153e-05
3.3948e-05
3.39505e-05
3.3949e-05
3.39512e-05
8.04319e-05
8.04324e-05
2.5118e-05
2.68339e-05
2.83759e-05
2.65529e-05
2.51181e-05
2.68339e-05
2.83723e-05
2.87909e-05
6.97271e-05
2.8793e-05
6.97251e-05
2.87912e-05
6.9729e-05
2.87929e-05
6.9727e-05
2.5118e-05
2.65524e-05
2.68338e-05
2.83719e-05
2.68338e-05
2.83755e-05
2.5118e-05
2.51184e-05
2.65529e-05
2.68339e-05
2.83726e-05
2.68339e-05
2.83763e-05
2.51186e-05
2.87934e-05
6.9725e-05
6.97269e-05
2.87916e-05
2.87935e-05
6.9727e-05
6.97289e-05
2.87919e-05
8.04323e-05
8.04314e-05
8.04318e-05
8.0431e-05
2.60157e-05
3.39505e-05
3.39521e-05
3.39513e-05
3.39528e-05
8.04318e-05
8.04324e-05
8.04314e-05
8.04319e-05
8.04328e-05
8.04325e-05
8.04318e-05
8.04315e-05
3.39524e-05
3.39532e-05
2.60192e-05
3.39515e-05
3.39523e-05
8.04335e-05
8.04336e-05
8.04326e-05
8.04327e-05
2.60158e-05
3.39519e-05
3.39527e-05
3.39534e-05
3.39542e-05
2.87925e-05
6.97278e-05
2.87944e-05
6.9726e-05
2.51192e-05
2.83762e-05
2.68342e-05
2.65527e-05
2.51192e-05
2.83726e-05
2.68341e-05
2.51192e-05
2.83772e-05
2.68341e-05
2.65526e-05
2.5119e-05
2.83735e-05
2.68341e-05
2.87947e-05
6.97231e-05
6.97248e-05
2.87926e-05
2.8795e-05
6.97262e-05
6.97279e-05
2.87929e-05
2.51197e-05
2.65527e-05
2.83728e-05
2.6834e-05
2.83765e-05
2.68341e-05
2.51193e-05
2.51198e-05
2.65526e-05
2.83737e-05
2.6834e-05
2.83775e-05
2.6834e-05
2.51195e-05
3.39541e-05
3.39488e-05
2.60192e-05
3.39531e-05
3.39474e-05
8.04291e-05
8.04286e-05
8.04332e-05
8.04333e-05
2.60158e-05
3.39535e-05
3.39477e-05
3.39551e-05
3.39496e-05
8.04296e-05
8.043e-05
2.51198e-05
2.83774e-05
2.68342e-05
2.6553e-05
2.512e-05
2.83735e-05
2.68342e-05
2.87929e-05
6.97245e-05
2.87946e-05
6.97226e-05
2.51195e-05
2.6834e-05
2.83764e-05
2.65521e-05
2.51194e-05
2.6834e-05
2.83724e-05
2.87958e-05
6.97242e-05
6.97261e-05
2.87938e-05
2.51202e-05
2.6553e-05
2.83738e-05
2.68342e-05
2.83777e-05
2.68342e-05
2.51195e-05
2.87952e-05
6.97231e-05
6.97247e-05
2.87931e-05
2.512e-05
2.65519e-05
2.68339e-05
2.83725e-05
2.68339e-05
2.83767e-05
2.51193e-05
2.87922e-05
6.97252e-05
2.87942e-05
6.97232e-05
2.51189e-05
2.6834e-05
2.83759e-05
2.65524e-05
2.51192e-05
2.68339e-05
2.83722e-05
2.87921e-05
6.97266e-05
2.87942e-05
6.97248e-05
2.51191e-05
2.65527e-05
2.83725e-05
2.68339e-05
2.83765e-05
2.68339e-05
2.51187e-05
2.87947e-05
6.97233e-05
6.97253e-05
2.87924e-05
2.51194e-05
2.65523e-05
2.68338e-05
2.83724e-05
2.68338e-05
2.83762e-05
2.51186e-05
2.87946e-05
6.97253e-05
6.97267e-05
2.87922e-05
3.39502e-05
3.39525e-05
2.60188e-05
3.39488e-05
3.39514e-05
8.0433e-05
8.04327e-05
8.043e-05
8.04301e-05
2.60154e-05
3.39486e-05
3.39513e-05
3.39508e-05
3.39532e-05
8.04341e-05
8.04339e-05
2.5119e-05
2.6834e-05
2.83766e-05
2.65527e-05
2.5119e-05
2.6834e-05
2.83729e-05
2.87921e-05
6.9727e-05
2.87941e-05
6.97252e-05
2.87924e-05
6.9729e-05
2.87942e-05
6.97272e-05
2.51188e-05
2.65523e-05
2.68337e-05
2.83723e-05
2.68337e-05
2.83761e-05
2.51183e-05
2.51194e-05
2.65526e-05
2.68338e-05
2.83731e-05
2.68339e-05
2.83769e-05
2.51185e-05
2.87946e-05
6.97257e-05
6.97271e-05
2.87921e-05
2.87947e-05
6.97277e-05
6.97291e-05
2.87925e-05
8.0433e-05
8.04327e-05
8.04325e-05
8.04322e-05
2.60158e-05
3.39513e-05
3.39529e-05
3.39532e-05
3.39548e-05
8.04341e-05
8.04339e-05
8.04337e-05
8.04334e-05
8.04349e-05
8.04355e-05
8.0434e-05
8.04346e-05
3.39535e-05
3.39543e-05
2.60192e-05
3.39514e-05
3.39522e-05
8.04358e-05
8.04367e-05
8.04348e-05
8.04358e-05
2.60157e-05
3.39509e-05
3.39517e-05
3.3953e-05
3.39538e-05
2.87924e-05
6.97282e-05
2.87953e-05
6.97274e-05
2.51184e-05
2.83767e-05
2.68339e-05
2.65524e-05
2.51193e-05
2.83727e-05
2.68338e-05
2.51185e-05
2.83777e-05
2.68339e-05
2.65523e-05
2.51195e-05
2.83737e-05
2.68338e-05
2.87943e-05
6.97273e-05
6.97268e-05
2.87911e-05
2.87946e-05
6.97301e-05
6.97298e-05
2.87914e-05
2.51182e-05
2.65522e-05
2.83721e-05
2.68334e-05
2.83766e-05
2.68337e-05
2.51173e-05
2.51184e-05
2.65521e-05
2.8373e-05
2.68334e-05
2.83775e-05
2.68337e-05
2.51173e-05
3.39553e-05
3.39496e-05
2.60191e-05
3.3953e-05
3.3947e-05
8.04313e-05
8.04317e-05
8.04355e-05
8.04363e-05
2.60156e-05
3.39525e-05
3.39465e-05
3.39547e-05
3.39489e-05
8.04319e-05
8.04333e-05
2.51185e-05
2.83779e-05
2.68341e-05
2.65528e-05
2.51194e-05
2.83737e-05
2.68339e-05
2.87923e-05
6.97256e-05
2.87951e-05
6.97252e-05
2.5118e-05
2.68338e-05
2.83767e-05
2.65518e-05
2.51191e-05
2.68337e-05
2.83722e-05
2.87951e-05
6.97285e-05
6.97281e-05
2.8792e-05
2.51184e-05
2.65525e-05
2.8373e-05
2.68334e-05
2.83778e-05
2.68337e-05
2.51174e-05
2.87943e-05
6.97279e-05
6.97278e-05
2.87911e-05
2.51179e-05
2.65515e-05
2.6833e-05
2.83709e-05
2.68335e-05
2.83762e-05
2.51168e-05
2.87916e-05
6.97254e-05
2.87946e-05
6.97243e-05
2.51176e-05
2.68338e-05
2.83763e-05
2.65521e-05
2.51185e-05
2.68337e-05
2.83721e-05
2.87914e-05
6.97276e-05
2.87944e-05
6.97273e-05
2.51178e-05
2.65524e-05
2.83714e-05
2.68332e-05
2.83763e-05
2.68336e-05
2.51163e-05
2.87939e-05
6.97273e-05
6.97269e-05
2.87904e-05
2.51175e-05
2.65518e-05
2.6833e-05
2.83708e-05
2.68335e-05
2.83759e-05
2.51161e-05
2.87936e-05
6.97301e-05
6.97298e-05
2.87901e-05
3.39505e-05
3.39529e-05
2.60185e-05
3.39481e-05
3.39508e-05
8.04356e-05
8.04356e-05
8.04308e-05
8.04326e-05
2.60148e-05
3.39472e-05
3.395e-05
3.395e-05
3.39524e-05
8.04347e-05
8.04364e-05
2.51175e-05
2.68337e-05
2.8377e-05
2.65523e-05
2.51184e-05
2.68336e-05
2.83728e-05
2.87913e-05
6.97279e-05
2.87944e-05
6.97277e-05
2.87915e-05
6.97299e-05
2.87944e-05
6.97297e-05
2.51174e-05
2.65519e-05
2.68328e-05
2.83709e-05
2.68333e-05
2.83759e-05
2.51158e-05
2.51174e-05
2.65521e-05
2.68328e-05
2.83715e-05
2.68334e-05
2.83766e-05
2.5116e-05
2.87936e-05
6.97306e-05
6.97302e-05
2.87901e-05
2.87935e-05
6.97326e-05
6.97322e-05
2.87902e-05
8.04356e-05
8.04355e-05
8.04351e-05
8.04351e-05
2.60152e-05
3.395e-05
3.39516e-05
3.39525e-05
3.39541e-05
8.04348e-05
8.04363e-05
8.04342e-05
8.04359e-05
8.04363e-05
8.04344e-05
8.04353e-05
8.04333e-05
3.39524e-05
3.39533e-05
2.60154e-05
3.39493e-05
3.39502e-05
8.04333e-05
8.04349e-05
8.04323e-05
8.04339e-05
2.60106e-05
3.3946e-05
3.39469e-05
3.39503e-05
3.39512e-05
2.87893e-05
6.97327e-05
2.87936e-05
6.97327e-05
2.51142e-05
2.83757e-05
2.68329e-05
2.65496e-05
2.5117e-05
2.83698e-05
2.68314e-05
2.51143e-05
2.83766e-05
2.68329e-05
2.65494e-05
2.51171e-05
2.83708e-05
2.68314e-05
2.87906e-05
6.97305e-05
6.97319e-05
2.87853e-05
2.87909e-05
6.97335e-05
6.97349e-05
2.87856e-05
2.51128e-05
2.65474e-05
2.83662e-05
2.68277e-05
2.83729e-05
2.68294e-05
2.51079e-05
2.51129e-05
2.65473e-05
2.83672e-05
2.68277e-05
2.83739e-05
2.68294e-05
2.5108e-05
3.39541e-05
3.39484e-05
2.60153e-05
3.39509e-05
3.39451e-05
8.04326e-05
8.04301e-05
8.0433e-05
8.04347e-05
2.60105e-05
3.39476e-05
3.39418e-05
3.3952e-05
3.39466e-05
8.04291e-05
8.04309e-05
2.51132e-05
2.83769e-05
2.68326e-05
2.65497e-05
2.5117e-05
2.83708e-05
2.68309e-05
2.87882e-05
6.97304e-05
2.87929e-05
6.97295e-05
2.5112e-05
2.68318e-05
2.83745e-05
2.65473e-05
2.51163e-05
2.68299e-05
2.83677e-05
2.87907e-05
6.97318e-05
6.97334e-05
2.87858e-05
2.51117e-05
2.65476e-05
2.83672e-05
2.68274e-05
2.83741e-05
2.6829e-05
2.5108e-05
2.87895e-05
6.97297e-05
6.97317e-05
2.87848e-05
2.51105e-05
2.65455e-05
2.68267e-05
2.83646e-05
2.68281e-05
2.8371e-05
2.51075e-05
2.87873e-05
6.973e-05
2.87923e-05
6.97299e-05
2.51105e-05
2.68316e-05
2.83741e-05
2.65476e-05
2.51155e-05
2.68297e-05
2.83676e-05
2.8787e-05
6.97325e-05
2.8792e-05
6.97318e-05
2.51097e-05
2.65473e-05
2.83654e-05
2.68271e-05
2.83721e-05
2.68284e-05
2.51072e-05
2.87888e-05
6.97305e-05
6.97322e-05
2.8784e-05
2.51093e-05
2.65457e-05
2.68267e-05
2.83645e-05
2.68279e-05
2.83706e-05
2.51072e-05
2.87885e-05
6.97319e-05
6.97337e-05
2.87838e-05
3.39487e-05
3.39513e-05
2.60131e-05
3.39446e-05
3.39474e-05
8.04352e-05
8.04334e-05
8.04287e-05
8.04303e-05
2.60084e-05
3.39412e-05
3.39442e-05
3.39457e-05
3.39483e-05
8.04327e-05
8.04341e-05
2.51104e-05
2.68314e-05
2.83748e-05
2.65478e-05
2.51154e-05
2.68294e-05
2.83683e-05
2.87871e-05
6.9733e-05
2.87921e-05