/*--------------------------------*- C++ -*----------------------------------*\
| =========                 |                                                 |
| \\      /  F ield         | OpenFOAM: The Open Source CFD Toolbox           |
|  \\    /   O peration     | Version:  2206                                  |
|   \\  /    A nd           | Website:  www.openfoam.com                      |
|    \\/     M anipulation  |                                                 |
\*---------------------------------------------------------------------------*/
FoamFile
{
    version     2.0;
    format      ascii;
    arch        "LSB;label=32;scalar=64";
    class       volScalarField;
    location    "26";
    object      nut;
}
// * * * * * * * * * * * * * * * * * * * * * * * * * * * * * * * * * * * * * //

dimensions      [0 2 -1 0 0 0 0];

internalField   nonuniform List<scalar> 
28448
(
0.000221368
0.000196874
0.000196864
0.000171701
0.000221368
0.000196873
0.000196862
0.000171699
0.000221368
0.00019687
0.00019686
0.000171698
0.000221368
0.000196871
0.000196859
0.000171696
0.000221367
0.000196868
0.000196858
0.000171694
0.000221358
0.000196853
0.000196834
0.000171656
0.000221337
0.000196817
0.00019681
0.000171629
0.000221345
0.000196821
0.000196813
0.000171633
0.000221345
0.000196822
0.000196814
0.00017163
0.000221345
0.000196822
0.000196814
0.000171632
0.000221345
0.000196822
0.000196814
0.000171632
0.000221345
0.000196822
0.000196814
0.00017163
0.000221345
0.000196822
0.000196814
0.000171631
0.000221345
0.000196822
0.000196814
0.000171631
0.000221345
0.000196822
0.000196814
0.000171631
0.000221345
0.000196822
0.000196814
0.000171631
0.000221345
0.000196822
0.000196814
0.000171631
0.000221347
0.000196816
0.000171877
0.000196856
0.000196852
0.000171882
0.000196868
0.000196843
0.000196874
0.000196854
0.000171867
0.000196864
0.000196867
0.000171872
0.000171707
0.000171872
0.000196856
0.000196852
0.000196856
0.000196852
0.000171711
0.000171876
0.000196868
0.000196844
0.000196868
0.000196843
0.000196855
0.000196874
0.000196854
0.000171699
0.000171864
0.000196868
0.000196863
0.000196867
0.000171869
0.000171703
0.000171871
0.000196855
0.000196851
0.000196855
0.000196851
0.000171708
0.000171875
0.000196868
0.000196843
0.000196868
0.000196843
0.000196854
0.00019687
0.000196853
0.000171696
0.000171863
0.000196867
0.000196861
0.000196867
0.000171868
0.000171703
0.00017187
0.000196856
0.000196852
0.000196856
0.000196852
0.000171707
0.000171874
0.000196869
0.000196844
0.000196868
0.000196842
0.000196854
0.000196871
0.000196853
0.000171695
0.000171861
0.000196867
0.000196859
0.000196866
0.000171867
0.000171702
0.00017187
0.000196857
0.000196853
0.000196855
0.000196852
0.000171706
0.000171874
0.000196869
0.00019684
0.000196869
0.000196838
0.000196851
0.000196869
0.000196849
0.000171693
0.00017186
0.000196864
0.000196859
0.000196862
0.000171865
0.000171702
0.000171855
0.000196853
0.00019685
0.000196846
0.000196841
0.000171705
0.000171858
0.000196867
0.000196837
0.000196859
0.000196827
0.000196848
0.000196861
0.000196837
0.000171692
0.000171836
0.000196861
0.000196848
0.00019685
0.000171839
0.000171679
0.000171804
0.000196839
0.000196834
0.000196802
0.000196797
0.000171682
0.000171808
0.000196851
0.000196813
0.000196814
0.000196787
0.000196822
0.000196819
0.000196798
0.000171657
0.000171795
0.000196834
0.000196809
0.000196811
0.000171799
0.000171631
0.00017181
0.0001968
0.000196796
0.000196803
0.000196799
0.000171635
0.000171814
0.000196813
0.000196789
0.000196816
0.000196791
0.000196799
0.000196821
0.000196802
0.000171628
0.0001718
0.000196813
0.000196813
0.000196815
0.000171805
0.000171641
0.000171803
0.000196804
0.0001968
0.000196804
0.0001968
0.000171644
0.000171807
0.000196817
0.000196792
0.000196817
0.000196792
0.000196802
0.000196822
0.000196802
0.000171631
0.000171795
0.000196816
0.000196814
0.000196816
0.0001718
0.000171634
0.000171806
0.000196805
0.000196801
0.000196805
0.000196801
0.000171638
0.00017181
0.000196817
0.000196793
0.000196818
0.000196793
0.000196803
0.000196822
0.000196803
0.000171627
0.000171799
0.000196816
0.000196814
0.000196817
0.000171803
0.000171638
0.000171803
0.000196806
0.000196802
0.000196805
0.000196801
0.000171642
0.000171807
0.000196818
0.000196793
0.000196818
0.000196793
0.000196804
0.000196822
0.000196803
0.00017163
0.000171796
0.000196817
0.000196814
0.000196817
0.000171801
0.000171634
0.000171806
0.000196805
0.000196801
0.000196805
0.000196801
0.000171638
0.00017181
0.000196818
0.000196793
0.000196818
0.000196793
0.000196804
0.000196822
0.000196803
0.000171629
0.000171797
0.000196817
0.000196814
0.000196817
0.000171801
0.000171636
0.000171806
0.000196805
0.000196801
0.000196805
0.000196801
0.00017164
0.000171811
0.000196818
0.000196793
0.000196818
0.000196793
0.000196804
0.000196823
0.000196803
0.000171628
0.000171798
0.000196817
0.000196815
0.000196817
0.000171801
0.000171637
0.000171806
0.000196805
0.000196802
0.000196805
0.000196801
0.000171641
0.00017181
0.000196818
0.000196793
0.000196818
0.000196793
0.000196804
0.000196823
0.000196803
0.000171629
0.000171798
0.000196817
0.000196814
0.000196817
0.000171802
0.000171637
0.000171805
0.000196805
0.000196802
0.000196805
0.000196801
0.000171641
0.00017181
0.000196818
0.000196793
0.000196818
0.000196793
0.000196804
0.000196823
0.000196803
0.00017163
0.000171798
0.000196817
0.000196814
0.000196816
0.000171802
0.000171637
0.000171805
0.000196805
0.000196801
0.000196805
0.000196801
0.000171641
0.000171809
0.000196818
0.000196793
0.000196818
0.000196793
0.000196804
0.000196823
0.000196803
0.00017163
0.000171797
0.000196817
0.000196814
0.000196816
0.000171802
0.000171637
0.000171805
0.000196806
0.000196802
0.000196805
0.000196801
0.000171641
0.000171809
0.000196818
0.000196793
0.000196818
0.000196793
0.000196803
0.000196823
0.000196803
0.00017163
0.000171797
0.000196817
0.000196814
0.000196816
0.000171802
0.000171637
0.000171805
0.000196805
0.000196802
0.000196806
0.000171641
0.000196818
0.000196793
0.000196818
0.000196793
0.000196804
0.000196805
0.00017163
0.000171797
0.000196817
0.000196814
0.000196818
0.000171804
0.000171641
0.000196818
0.000196793
0.000171629
0.000221368
0.000221369
0.000221365
0.000221367
4.30038e-05
4.94485e-05
4.29952e-05
4.94473e-05
2.53909e-05
2.53902e-05
4.30114e-05
4.9444e-05
4.30033e-05
4.94428e-05
0.000221369
0.000221366
0.000221368
0.000221369
0.000221369
0.000221365
0.000221367
9.97202e-05
5.24604e-05
0.000212162
0.000196875
9.96941e-05
5.24759e-05
0.000212163
2.53879e-05
2.53872e-05
9.97136e-05
0.000212158
5.2463e-05
0.000196863
9.96876e-05
0.000212158
5.24779e-05
3.52653e-05
3.52597e-05
0.00017187
3.52669e-05
3.52613e-05
4.30076e-05
4.94473e-05
4.29994e-05
4.94463e-05
2.53897e-05
2.53894e-05
4.30147e-05
4.94429e-05
4.30075e-05
4.94419e-05
0.000221368
0.000221365
0.000221368
0.000221368
0.000221367
0.000221364
0.000221369
9.97206e-05
5.24636e-05
0.000212162
0.000196871
9.96949e-05
5.24789e-05
0.00021216
2.53869e-05
2.53866e-05
9.97152e-05
0.000212157
5.24658e-05
0.000196862
9.96887e-05
0.000212157
5.24807e-05
3.52659e-05
3.52604e-05
0.000171869
3.527e-05
3.52645e-05
4.30097e-05
4.94468e-05
4.30019e-05
4.9446e-05
2.53893e-05
2.53892e-05
4.30164e-05
4.94424e-05
4.3009e-05
4.94416e-05
0.000221368
0.000221364
0.000221368
0.000221369
0.00022137
0.000221363
0.000221367
9.97214e-05
5.24664e-05
0.000212159
0.00019687
9.96941e-05
5.24816e-05
0.000212159
2.53867e-05
2.53866e-05
9.97139e-05
0.000212156
5.24684e-05
0.00019686
9.96877e-05
0.000212154
5.2483e-05
3.52717e-05
3.52663e-05
0.000171868
3.5276e-05
3.52706e-05
4.30135e-05
4.94467e-05
4.3005e-05
4.9446e-05
2.53894e-05
2.53894e-05
4.30206e-05
4.94423e-05
4.30128e-05
4.94416e-05
0.000221371
0.000221363
0.000221367
0.000221367
0.000221368
0.000221362
0.000221365
9.97244e-05
5.24684e-05
0.000212159
0.00019687
9.96964e-05
5.24833e-05
0.000212159
2.53868e-05
2.53868e-05
9.97182e-05
0.000212155
5.24704e-05
0.000196858
9.96906e-05
0.000212155
5.2485e-05
3.52766e-05
3.52712e-05
0.000171866
3.52797e-05
3.52743e-05
4.30132e-05
4.94469e-05
4.30075e-05
4.94465e-05
2.53897e-05
2.53898e-05
4.3019e-05
4.94424e-05
4.30146e-05
4.94421e-05
0.000221367
0.000221362
0.000221365
0.000221364
0.000221364
0.000221357
0.000221359
9.97187e-05
5.24696e-05
0.000212161
0.000196866
9.96991e-05
5.2482e-05
0.00021216
2.53872e-05
2.53872e-05
9.97113e-05
0.000212157
5.24712e-05
0.000196856
9.9691e-05
0.000212155
5.2482e-05
3.52775e-05
3.52722e-05
0.00017186
3.52779e-05
3.52726e-05
4.29962e-05
4.94485e-05
4.29961e-05
4.94484e-05
2.53899e-05
2.53897e-05
4.30011e-05
4.94441e-05
4.30016e-05
4.9444e-05
0.000221359
0.000221345
0.000221346
0.000221336
0.000221336
0.000221334
0.000221336
9.9671e-05
5.24581e-05
0.000212141
0.000196837
9.96738e-05
5.24648e-05
0.000212128
2.53872e-05
2.53869e-05
9.96616e-05
0.000212133
5.24574e-05
0.000196821
9.96654e-05
0.000212122
5.24637e-05
3.52716e-05
3.52664e-05
0.000171809
3.52706e-05
3.52653e-05
4.29844e-05
4.94494e-05
4.29801e-05
4.94486e-05
2.53896e-05
2.53894e-05
4.29907e-05
4.9445e-05
4.29865e-05
4.94442e-05
0.000221338
0.000221337
0.000221339
0.000221344
0.000221345
0.000221342
0.000221344
9.96595e-05
5.24402e-05
0.00021212
0.000196819
9.963e-05
5.24518e-05
0.000212123
2.53869e-05
2.53867e-05
9.96531e-05
0.000212118
5.24419e-05
0.000196812
9.9624e-05
0.000212121
5.2454e-05
3.52636e-05
3.52583e-05
0.000171808
3.52645e-05
3.52591e-05
4.29824e-05
4.94492e-05
4.29757e-05
4.94484e-05
2.53895e-05
2.53894e-05
4.29891e-05
4.94448e-05
4.29829e-05
4.9444e-05
0.000221346
0.000221342
0.000221344
0.000221345
0.000221345
0.000221342
0.000221344
9.96601e-05
5.24358e-05
0.000212124
0.000196821
9.9635e-05
5.24498e-05
0.000212124
2.53868e-05
2.53867e-05
9.96544e-05
0.000212122
5.24392e-05
0.000196813
9.9629e-05
0.000212121
5.24529e-05
3.52616e-05
3.52562e-05
0.0001718
3.52637e-05
3.52583e-05
4.29823e-05
4.94491e-05
4.29753e-05
4.94484e-05
2.53895e-05
2.53894e-05
4.29891e-05
4.94448e-05
4.29826e-05
4.9444e-05
0.000221346
0.000221342
0.000221344
0.000221345
0.000221346
0.000221342
0.000221344
9.96597e-05
5.24354e-05
0.000212125
0.000196822
9.96338e-05
5.24497e-05
0.000212125
2.53868e-05
2.53867e-05
9.9655e-05
0.000212122
5.2439e-05
0.000196814
9.96292e-05
0.000212123
5.24529e-05
3.52615e-05
3.52561e-05
0.000171802
3.52637e-05
3.52583e-05
4.29823e-05
4.94491e-05
4.29753e-05
4.94484e-05
2.53895e-05
2.53894e-05
4.29891e-05
4.94448e-05
4.29827e-05
4.9444e-05
0.000221346
0.000221342
0.000221344
0.000221345
0.000221346
0.000221342
0.000221344
9.96591e-05
5.24354e-05
0.000212125
0.000196822
9.96346e-05
5.24497e-05
0.000212125
2.53868e-05
2.53867e-05
9.9654e-05
0.000212122
5.2439e-05
0.000196814
9.96292e-05
0.000212123
5.24529e-05
3.52615e-05
3.52561e-05
0.000171801
3.52637e-05
3.52583e-05
4.29823e-05
4.94491e-05
4.29753e-05
4.94484e-05
2.53895e-05
2.53894e-05
4.29891e-05
4.94448e-05
4.29826e-05
4.9444e-05
0.000221346
0.000221342
0.000221344
0.000221345
0.000221346
0.000221342
0.000221344
9.96591e-05
5.24354e-05
0.000212125
0.000196823
9.96319e-05
5.24497e-05
0.000212125
2.53868e-05
2.53867e-05
9.96522e-05
0.000212122
5.2439e-05
0.000196815
9.96272e-05
0.000212123
5.24529e-05
3.52615e-05
3.52561e-05
0.000171803
3.52637e-05
3.52583e-05
4.29823e-05
4.94491e-05
4.29753e-05
4.94484e-05
2.53895e-05
2.53894e-05
4.2989e-05
4.94448e-05
4.29826e-05
4.9444e-05
0.000221346
0.000221342
0.000221344
0.000221345
0.000221346
0.000221342
0.000221344
9.96589e-05
5.24354e-05
0.000212125
0.000196823
9.96331e-05
5.24497e-05
0.000212125
2.53868e-05
2.53867e-05
9.96509e-05
0.000212122
5.2439e-05
0.000196815
9.96257e-05
0.000212123
5.24528e-05
3.52615e-05
3.52561e-05
0.000171803
3.52637e-05
3.52583e-05
4.29823e-05
4.94491e-05
4.29753e-05
4.94484e-05
2.53895e-05
2.53894e-05
4.2989e-05
4.94448e-05
4.29826e-05
4.9444e-05
0.000221346
0.000221342
0.000221344
0.000221345
0.000221346
0.000221342
0.000221344
9.96598e-05
5.24353e-05
0.000212125
0.000196822
9.96345e-05
5.24496e-05
0.000212125
2.53868e-05
2.53867e-05
9.96503e-05
0.000212122
5.2439e-05
0.000196814
9.96246e-05
0.000212123
5.24528e-05
3.52615e-05
3.52561e-05
0.000171802
3.52637e-05
3.52583e-05
4.29823e-05
4.94491e-05
4.29753e-05
4.94484e-05
2.53895e-05
2.53894e-05
4.2989e-05
4.94448e-05
4.29826e-05
4.9444e-05
0.000221346
0.000221342
0.000221344
0.000221345
0.000221346
0.000221342
0.000221344
9.96588e-05
5.24353e-05
0.000212125
0.000196823
9.9632e-05
5.24497e-05
0.000212125
2.53868e-05
2.53867e-05
9.96499e-05
0.000212122
5.2439e-05
0.000196814
9.96243e-05
0.000212122
5.24528e-05
3.52615e-05
3.52561e-05
0.000171802
3.52637e-05
3.52583e-05
4.29823e-05
4.94491e-05
4.29753e-05
4.94484e-05
2.53895e-05
2.53894e-05
4.2989e-05
4.94448e-05
4.29826e-05
4.9444e-05
0.000221346
0.000221342
0.000221344
0.000221345
0.000221346
0.000221342
0.000221344
9.96594e-05
5.24354e-05
0.000212125
0.000196823
9.96344e-05
5.24497e-05
0.000212125
2.53868e-05
2.53867e-05
9.96494e-05
0.000212122
5.2439e-05
0.000196814
9.9624e-05
0.000212122
5.24528e-05
3.52615e-05
3.52561e-05
0.000171802
3.52637e-05
3.52583e-05
4.29823e-05
4.94491e-05
4.29753e-05
4.94484e-05
2.53895e-05
2.53894e-05
4.29891e-05
4.94448e-05
4.29826e-05
4.9444e-05
0.000221346
0.000221342
0.000221344
0.000221345
0.000221346
0.000221342
0.000221344
9.9659e-05
5.24354e-05
0.000212125
0.000196823
9.96319e-05
5.24497e-05
0.000212125
2.53868e-05
2.53867e-05
9.96491e-05
0.000212122
5.2439e-05
0.000196814
9.96234e-05
0.000212122
5.24528e-05
3.52615e-05
3.52561e-05
0.000171802
3.52637e-05
3.52583e-05
4.29823e-05
4.94491e-05
4.29754e-05
4.94484e-05
2.53895e-05
2.53894e-05
4.29891e-05
4.94448e-05
4.29826e-05
4.9444e-05
0.000221346
0.000221342
0.000221344
0.000221345
0.000221348
0.000221342
0.000221345
9.96606e-05
5.24354e-05
0.000212125
0.000196822
9.96346e-05
5.24497e-05
0.000212125
2.53868e-05
2.53867e-05
9.96494e-05
0.000212122
5.2439e-05
0.000196814
9.96234e-05
0.000212122
5.24528e-05
3.52615e-05
3.52561e-05
0.000171802
3.52637e-05
3.52583e-05
4.94448e-05
4.29827e-05
0.000221343
2.53868e-05
5.24397e-05
2.53921e-05
2.53901e-05
3.52684e-05
3.5262e-05
4.94479e-05
4.30017e-05
4.94477e-05
4.30024e-05
5.24794e-05
0.000212162
9.97247e-05
5.2477e-05
0.000212161
9.97258e-05
2.5391e-05
3.52636e-05
3.52574e-05
2.53915e-05
4.94433e-05
4.30091e-05
5.24704e-05
0.000212161
9.97291e-05
4.30001e-05
4.94403e-05
4.94413e-05
4.30073e-05
9.96972e-05
0.000196843
0.000212156
5.24645e-05
0.000212156
5.24499e-05
9.97221e-05
9.96967e-05
5.24743e-05
0.000212162
0.000212162
9.97202e-05
4.2994e-05
4.94457e-05
4.30018e-05
9.96956e-05
0.000196854
0.00021216
5.24761e-05
0.00021216
5.2462e-05
9.97201e-05
4.29937e-05
4.94441e-05
4.94449e-05
4.30015e-05
2.53878e-05
2.53886e-05
0.00017167
3.5251e-05
3.52677e-05
3.52489e-05
3.52654e-05
2.53905e-05
2.53912e-05
9.96893e-05
0.000196865
0.000212158
5.24764e-05
0.000212159
5.24625e-05
9.97147e-05
9.96957e-05
0.000196867
0.000212159
5.2473e-05
0.000212159
5.24589e-05
9.97202e-05
4.29932e-05
4.94438e-05
4.94447e-05
4.3001e-05
4.29993e-05
4.94437e-05
4.94446e-05
4.30065e-05
0.000171675
3.52678e-05
3.52622e-05
3.52658e-05
3.52601e-05
2.53903e-05
2.5391e-05
2.53892e-05
2.539e-05
2.5392e-05
2.53913e-05
2.539e-05
2.53893e-05
3.52665e-05
3.526e-05
0.000171873
3.52682e-05
3.52616e-05
2.53908e-05
2.53913e-05
2.53888e-05
2.53893e-05
0.000171704
3.52682e-05
3.52616e-05
3.52658e-05
3.52592e-05
4.30046e-05
4.94484e-05
4.29968e-05
4.94472e-05
9.97243e-05
5.24672e-05
0.000212162
0.000196856
9.97011e-05
5.24811e-05
0.000212162
9.97252e-05
5.24644e-05
0.000212161
0.000196852
9.97021e-05
5.24786e-05
0.000212161
4.29982e-05
4.94467e-05
4.94477e-05
4.30059e-05
4.29989e-05
4.94466e-05
4.94477e-05
4.30066e-05
9.97005e-05
0.000196856
5.24825e-05
0.000212162
5.24688e-05
0.000212162
9.97228e-05
9.97013e-05
0.000196852
5.24801e-05
0.000212161
5.24661e-05
0.000212161
9.9724e-05
3.52614e-05
3.52546e-05
0.000171877
3.52632e-05
3.52578e-05
2.53916e-05
2.53908e-05
2.53897e-05
2.53902e-05
0.000171708
3.5264e-05
3.52599e-05
3.52611e-05
3.52558e-05
2.53903e-05
2.53909e-05
9.97299e-05
5.24575e-05
0.000212161
0.000196869
9.97064e-05
5.24721e-05
0.000212161
4.30095e-05
4.94409e-05
4.30023e-05
4.94397e-05
9.97236e-05
0.000212157
5.24516e-05
0.000196844
9.96987e-05
0.000212157
5.24662e-05
4.30064e-05
4.94422e-05
4.94434e-05
4.30135e-05
9.97064e-05
0.000196868
5.24735e-05
0.00021216
5.24591e-05
0.00021216
9.97273e-05
4.30044e-05
4.94393e-05
4.94403e-05
4.30113e-05
9.96993e-05
0.000196844
0.000212157
5.24677e-05
0.000212157
5.24533e-05
9.97237e-05
4.30038e-05
4.94465e-05
4.29961e-05
4.94455e-05
9.97208e-05
0.000212161
5.24637e-05
0.000196855
9.96972e-05
0.000212161
5.24776e-05
4.30036e-05
4.94445e-05
4.29958e-05
4.94434e-05
9.96964e-05
0.000196874
5.24776e-05
0.000212162
5.24632e-05
0.000212163
9.97216e-05
4.29981e-05
4.9445e-05
4.94461e-05
4.30057e-05
9.96968e-05
0.000196855
0.000212161
5.24789e-05
0.000212161
5.24651e-05
9.97212e-05
4.29979e-05
4.94429e-05
4.94439e-05
4.30056e-05
3.52483e-05
3.52653e-05
0.000171865
3.52517e-05
3.52669e-05
2.53904e-05
2.53898e-05
2.53869e-05
2.53873e-05
0.000171696
3.52535e-05
3.52676e-05
3.52495e-05
3.52646e-05
2.53895e-05
2.53899e-05
9.97211e-05
0.00021216
5.24605e-05
0.000196868
9.9697e-05
0.000212159
5.24746e-05
4.3003e-05
4.94443e-05
4.29952e-05
4.94431e-05
4.30086e-05
4.94442e-05
4.30014e-05
4.9443e-05
9.96897e-05
0.000196863
0.000212157
5.24793e-05
0.000212158
5.24655e-05
9.97154e-05
9.96971e-05
0.000196868
0.000212159
5.2476e-05
0.00021216
5.2462e-05
9.97214e-05
4.29972e-05
4.94427e-05
4.94436e-05
4.30049e-05
4.30035e-05
4.94426e-05
4.94436e-05
4.30103e-05
2.53902e-05
2.53896e-05
2.53892e-05
2.53886e-05
0.000171701
3.52677e-05
3.52621e-05
3.52647e-05
3.52591e-05
2.53893e-05
2.53897e-05
2.53883e-05
2.53886e-05
2.53909e-05
2.53905e-05
2.53888e-05
2.53885e-05
3.52663e-05
3.52597e-05
0.000171871
3.527e-05
3.52634e-05
2.53904e-05
2.53906e-05
2.53884e-05
2.53886e-05
0.000171703
3.5273e-05
3.52663e-05
3.52685e-05
3.52618e-05
4.30083e-05
4.94472e-05
4.30009e-05
4.94462e-05
9.97247e-05
5.24702e-05
0.000212159
0.000196855
9.96983e-05
5.24839e-05
0.000212159
9.97262e-05
5.24675e-05
0.000212158
0.000196851
9.96997e-05
5.24815e-05
0.000212158
4.30017e-05
4.94461e-05
4.94469e-05
4.30086e-05
4.30024e-05
4.9446e-05
4.94469e-05
4.30093e-05
9.97009e-05
0.000196855
5.24851e-05
0.000212159
5.24716e-05
0.000212159
9.97254e-05
9.9703e-05
0.000196852
5.24827e-05
0.000212158
5.24689e-05
0.000212158
9.97261e-05
3.52622e-05
3.52578e-05
0.000171876
3.52658e-05
3.52616e-05
2.53904e-05
2.539e-05
2.53893e-05
2.53895e-05
0.000171706
3.52683e-05
3.52642e-05
3.52641e-05
3.52596e-05
2.53899e-05
2.53901e-05
9.97281e-05
5.24605e-05
0.00021216
0.000196868
9.9703e-05
5.24749e-05
0.00021216
4.30123e-05
4.94399e-05
4.30061e-05
4.9439e-05
9.97262e-05
0.000212155
5.24547e-05
0.000196843
9.97001e-05
0.000212154
5.24691e-05
4.30092e-05
4.94417e-05
4.94426e-05
4.30152e-05
9.9705e-05
0.000196868
5.24762e-05
0.00021216
5.24619e-05
0.00021216
9.97261e-05
4.30069e-05
4.94389e-05
4.94397e-05
4.30132e-05
9.97031e-05
0.000196843
0.000212154
5.24705e-05
0.000212154
5.24562e-05
9.97258e-05
4.30069e-05
4.94456e-05
4.29999e-05
4.94447e-05
9.97234e-05
0.000212158
5.24665e-05
0.000196854
9.96977e-05
0.000212158
5.24804e-05
4.30071e-05
4.94435e-05
4.29999e-05
4.94427e-05
9.96977e-05
0.000196871
5.24803e-05
0.000212159
5.24661e-05
0.00021216
9.97207e-05
4.30009e-05
4.94445e-05
4.94453e-05
4.30078e-05
9.97004e-05
0.000196854
0.000212158
5.24817e-05
0.000212158
5.2468e-05
9.97226e-05
4.30012e-05
4.94425e-05
4.94433e-05
4.30081e-05
3.52513e-05
3.52659e-05
0.000171863
3.52554e-05
3.527e-05
2.53896e-05
2.53893e-05
2.53866e-05
2.53868e-05
0.000171695
3.52582e-05
3.52732e-05
3.52534e-05
3.52686e-05
2.53892e-05
2.53894e-05
9.97233e-05
0.000212157
5.24634e-05
0.000196867
9.96982e-05
0.000212157
5.24775e-05
4.30061e-05
4.94433e-05
4.2999e-05
4.94424e-05
4.30113e-05
4.94432e-05
4.30051e-05
4.94424e-05
9.96915e-05
0.000196862
0.000212157
5.2482e-05
0.000212157
5.24683e-05
9.97146e-05
9.97002e-05
0.000196867
0.000212156
5.24787e-05
0.000212157
5.24649e-05
9.97222e-05
4.3e-05
4.94422e-05
4.9443e-05
4.30069e-05
4.30059e-05
4.94422e-05
4.9443e-05
4.30121e-05
2.53894e-05
2.53891e-05
2.53883e-05
2.53881e-05
0.0001717
3.52731e-05
3.52677e-05
3.52685e-05
3.52631e-05
2.5389e-05
2.53892e-05
2.5388e-05
2.53882e-05
2.53905e-05
2.53903e-05
2.53885e-05
2.53883e-05
3.52717e-05
3.52649e-05
0.00017187
3.52763e-05
3.52695e-05
2.53904e-05
2.53905e-05
2.53884e-05
2.53885e-05
0.000171702
3.5279e-05
3.52721e-05
3.52749e-05
3.5268e-05
4.30102e-05
4.94467e-05
4.30033e-05
4.94459e-05
9.97247e-05
5.24728e-05
0.000212158
0.000196856
9.97009e-05
5.24863e-05
0.000212158
9.97255e-05
5.24701e-05
0.000212158
0.000196852
9.97011e-05
5.24839e-05
0.000212158
4.30039e-05
4.9446e-05
4.94466e-05
4.30115e-05
4.30045e-05
4.94459e-05
4.94466e-05
4.3012e-05
9.97012e-05
0.000196856
5.24873e-05
0.000212159
5.2474e-05
0.000212159
9.97268e-05
9.97018e-05
0.000196852
5.24848e-05
0.000212159
5.24713e-05
0.000212159
9.97257e-05
3.52669e-05
3.52626e-05
0.000171875
3.52713e-05
3.52677e-05
2.539e-05
2.53898e-05
2.53893e-05
2.53894e-05
0.000171705
3.52739e-05
3.52703e-05
3.52698e-05
3.5266e-05
2.53899e-05
2.539e-05
9.97266e-05
5.24632e-05
0.000212159
0.000196869
9.97017e-05
5.24774e-05
0.000212159
4.30148e-05
4.94396e-05
4.3008e-05
4.94388e-05
9.97253e-05
0.000212154
5.24576e-05
0.000196844
9.9701e-05
0.000212154
5.24719e-05
4.30114e-05
4.94415e-05
4.94423e-05
4.30186e-05
9.97032e-05
0.000196869
5.24783e-05
0.00021216
5.24644e-05
0.00021216
9.97295e-05
4.30099e-05
4.94388e-05
4.94395e-05
4.3017e-05
9.97013e-05
0.000196843
0.000212153
5.2473e-05
0.000212154
5.24589e-05
9.97267e-05
4.30091e-05
4.94452e-05
4.30019e-05
4.94444e-05
9.9722e-05
0.000212158
5.24692e-05
0.000196854
9.9698e-05
0.000212157
5.24829e-05
4.30094e-05
4.94431e-05
4.30022e-05
4.94424e-05
9.96983e-05
0.00019687
5.24825e-05
0.000212159
5.24686e-05
0.000212159
9.97222e-05
4.30034e-05
4.94443e-05
4.94451e-05
4.3011e-05
9.96985e-05
0.000196854
0.000212157
5.24838e-05
0.000212158
5.24703e-05
9.97248e-05
4.30037e-05
4.94424e-05
4.94431e-05
4.30112e-05
3.52564e-05
3.52719e-05
0.000171862
3.52612e-05
3.52763e-05
2.53893e-05
2.53892e-05
2.53867e-05
2.53868e-05
0.000171693
3.52634e-05
3.52785e-05
3.52592e-05
3.52747e-05
2.53893e-05
2.53893e-05
9.97221e-05
0.000212154
5.24661e-05
0.000196867
9.96976e-05
0.000212154
5.24799e-05
4.30083e-05
4.94429e-05
4.30009e-05
4.94422e-05
4.30138e-05
4.94428e-05
4.30069e-05
4.94421e-05
9.96902e-05
0.000196859
0.000212154
5.2484e-05
0.000212154
5.24705e-05
9.97165e-05
9.96984e-05
0.000196867
0.000212155
5.24809e-05
0.000212154
5.24672e-05
9.97248e-05
4.30026e-05
4.94422e-05
4.94428e-05
4.30103e-05
4.30088e-05
4.94421e-05
4.94428e-05
4.30159e-05
2.53891e-05
2.5389e-05
2.53881e-05
2.5388e-05
0.000171699
3.52783e-05
3.52729e-05
3.52744e-05
3.52691e-05
2.53891e-05
2.53892e-05
2.5388e-05
2.53881e-05
2.53905e-05
2.53905e-05
2.53885e-05
2.53885e-05
3.52774e-05
3.52705e-05
0.000171869
3.52809e-05
3.5274e-05
2.53906e-05
2.53907e-05
2.53886e-05
2.53887e-05
0.000171701
3.52819e-05
3.52749e-05
3.52791e-05
3.52721e-05
4.30139e-05
4.94465e-05
4.30063e-05
4.94459e-05
9.97296e-05
5.24749e-05
0.00021216
0.000196856
9.97038e-05
5.24884e-05
0.000212161
9.97294e-05
5.24721e-05
0.00021216
0.000196852
9.97018e-05
5.24858e-05
0.00021216
4.30078e-05
4.94461e-05
4.94467e-05
4.30144e-05
4.30082e-05
4.9446e-05
4.94466e-05
4.30149e-05
9.97063e-05
0.000196857
5.24892e-05
0.000212161
5.2476e-05
0.000212162
9.97299e-05
9.97065e-05
0.000196853
5.24866e-05
0.000212161
5.24732e-05
0.000212161
9.97311e-05
3.52723e-05
3.52683e-05
0.000171874
3.52758e-05
3.52719e-05
2.53901e-05
2.539e-05
2.53895e-05
2.53896e-05
0.000171705
3.52767e-05
3.52726e-05
3.52739e-05
3.52696e-05
2.53901e-05
2.53902e-05
9.97308e-05
5.24653e-05
0.000212161
0.000196869
9.97068e-05
5.24793e-05
0.000212161
4.30189e-05
4.94396e-05
4.3012e-05
4.94389e-05
9.97303e-05
0.000212155
5.246e-05
0.000196838
9.97036e-05
0.000212156
5.2474e-05
4.30154e-05
4.94416e-05
4.94423e-05
4.30211e-05
9.97077e-05
0.00019687
5.24802e-05
0.000212162
5.24663e-05
0.000212162
9.97288e-05
4.30137e-05
4.94391e-05
4.94396e-05
4.30193e-05
9.97071e-05
0.000196838
0.000212157
5.24741e-05
0.000212158
5.24609e-05
9.97286e-05
4.30128e-05
4.94451e-05
4.30054e-05
4.94443e-05
9.97267e-05
0.000212157
5.24713e-05
0.00019685
9.97023e-05
0.000212157
5.24849e-05
4.30128e-05
4.94431e-05
4.30056e-05
4.94425e-05
9.9702e-05
0.000196869
5.24839e-05
0.000212161
5.24703e-05
0.00021216
9.97257e-05
4.30068e-05
4.94443e-05
4.94451e-05
4.30133e-05
9.97033e-05
0.000196849
0.000212159
5.24852e-05
0.000212158
5.24724e-05
9.97246e-05
4.30068e-05
4.94426e-05
4.94432e-05
4.30129e-05
3.52612e-05
3.52768e-05
0.00017186
3.52647e-05
3.52799e-05
2.53894e-05
2.53894e-05
2.5387e-05
2.5387e-05
0.000171691
3.52649e-05
3.52802e-05
3.52623e-05
3.5278e-05
2.53896e-05
2.53896e-05
9.97274e-05
0.000212157
5.24682e-05
0.000196863
9.97013e-05
0.000212157
5.2482e-05
4.3012e-05
4.94428e-05
4.30046e-05
4.94422e-05
4.30177e-05
4.94428e-05
4.30109e-05
4.94422e-05
9.96948e-05
0.000196859
0.000212157
5.24854e-05
0.000212157
5.24725e-05
9.9718e-05
9.97036e-05
0.000196862
0.000212158
5.24822e-05
0.000212158
5.24693e-05
9.9724e-05
4.3006e-05
4.94424e-05
4.94429e-05
4.30126e-05
4.30123e-05
4.94423e-05
4.94429e-05
4.30178e-05
2.53892e-05
2.53892e-05
2.53882e-05
2.53882e-05
0.000171697
3.528e-05
3.52746e-05
3.52777e-05
3.52724e-05
2.53894e-05
2.53894e-05
2.53884e-05
2.53884e-05
2.53909e-05
2.5391e-05
2.53889e-05
2.5389e-05
3.52798e-05
3.52727e-05
0.000171868
3.52809e-05
3.52738e-05
2.5391e-05
2.53911e-05
2.5389e-05
2.53891e-05
0.000171698
3.5278e-05
3.52711e-05
3.5278e-05
3.52709e-05
4.30138e-05
4.94467e-05
4.30088e-05
4.94464e-05
9.97229e-05
5.24766e-05
0.000212161
0.000196851
9.97027e-05
5.24878e-05
0.00021216
9.97237e-05
5.24737e-05
0.000212161
0.000196847
9.97042e-05
5.24852e-05
0.00021216
4.30058e-05
4.94475e-05
4.94474e-05
4.30059e-05
4.30064e-05
4.94473e-05
4.94472e-05
4.30066e-05
9.96943e-05
0.000196849
5.24813e-05
0.000212156
5.24739e-05
0.000212158
9.97118e-05
9.9695e-05
0.000196845
5.24788e-05
0.000212156
5.24711e-05
0.000212159
9.97124e-05
3.52746e-05
3.527e-05
0.000171871
3.52757e-05
3.52712e-05
2.53904e-05
2.53905e-05
2.53899e-05
2.539e-05
0.000171701
3.52728e-05
3.52684e-05
3.52728e-05
3.52678e-05
2.53905e-05
2.53907e-05
9.97208e-05
5.24669e-05
0.000212161
0.000196865
9.97016e-05
5.24787e-05
0.000212159
4.30162e-05
4.94399e-05
4.30136e-05
4.94398e-05
9.97185e-05
0.000212156
5.24603e-05
0.000196836
9.97005e-05
0.000212154
5.24702e-05
4.30119e-05
4.94431e-05
4.9443e-05
4.30109e-05
9.96932e-05
0.000196862
5.24721e-05
0.000212153
5.24642e-05
0.000212157
9.97105e-05
4.30086e-05
4.94407e-05
4.94407e-05
4.30074e-05
9.969e-05
0.000196833
0.000212147
5.24619e-05
0.000212152
5.2455e-05
9.9707e-05
4.30099e-05
4.94451e-05
4.3007e-05
4.94447e-05
9.97158e-05
0.000212159
5.24719e-05
0.000196846
9.96971e-05
0.000212158
5.24814e-05
4.30092e-05
4.94434e-05
4.30065e-05
4.94433e-05
9.96897e-05
0.000196864
5.24748e-05
0.000212153
5.24674e-05
0.000212158
9.97039e-05
4.30015e-05
4.94457e-05
4.94456e-05
4.30007e-05
9.96874e-05
0.000196843
0.00021215
5.24731e-05
0.000212155
5.24667e-05
9.97025e-05
4.30008e-05
4.94443e-05
4.94442e-05
4.3e-05
3.5262e-05
3.52777e-05
0.000171855
3.52628e-05
3.52782e-05
2.53898e-05
2.53898e-05
2.53871e-05
2.53874e-05
0.000171683
3.52595e-05
3.52751e-05
3.52593e-05
3.52751e-05
2.53897e-05
2.539e-05
9.97154e-05
0.000212157
5.24689e-05
0.000196859
9.96966e-05
0.000212156
5.24784e-05
4.30092e-05
4.94432e-05
4.30062e-05
4.94431e-05
4.30142e-05
4.94431e-05
4.3012e-05
4.9443e-05
9.96819e-05
0.000196853
0.000212148
5.24737e-05
0.000212153
5.24674e-05
9.96962e-05
9.96871e-05
0.000196856
0.000212147
5.24701e-05
0.000212153
5.24636e-05
9.97026e-05
4.30007e-05
4.94441e-05
4.9444e-05
4.3e-05
4.30066e-05
4.94441e-05
4.94439e-05
4.30052e-05
2.53897e-05
2.53897e-05
2.53886e-05
2.53886e-05
0.000171688
3.52748e-05
3.52696e-05
3.52749e-05
3.52696e-05
2.53895e-05
2.53898e-05
2.53885e-05
2.53888e-05
2.53911e-05
2.53908e-05
2.53891e-05
2.53888e-05
3.5275e-05
3.52681e-05
0.000171827
3.52745e-05
3.52678e-05
2.53906e-05
2.53909e-05
2.53886e-05
2.53888e-05
0.000171645
3.52698e-05
3.52631e-05
3.52711e-05
3.52644e-05
4.29968e-05
4.94482e-05
4.29976e-05
4.94482e-05
9.96911e-05
5.24662e-05
0.00021215
0.000196823
9.96824e-05
5.24716e-05
0.000212134
9.96917e-05
5.24634e-05
0.000212149
0.000196818
9.96829e-05
5.24691e-05
0.000212133
4.29876e-05
4.94487e-05
4.94492e-05
4.29885e-05
4.29883e-05
4.94485e-05
4.9449e-05
4.29892e-05
9.96561e-05
0.00019681
5.24621e-05
0.000212118
5.24563e-05
0.000212123
9.9655e-05
9.96564e-05
0.000196805
5.24597e-05
0.000212117
5.24535e-05
0.000212121
9.96558e-05
3.52697e-05
3.52652e-05
0.000171829
3.52693e-05
3.52655e-05
2.53906e-05
2.53902e-05
2.53895e-05
2.53898e-05
0.000171647
3.52646e-05
3.52608e-05
3.52659e-05
3.52619e-05
2.53901e-05
2.53904e-05
9.96834e-05
5.24564e-05
0.000212144
0.000196834
9.96812e-05
5.24625e-05
0.000212127
4.29982e-05
4.94416e-05
4.29991e-05
4.94413e-05
9.96767e-05
0.000212134
5.2446e-05
0.000196799
9.9677e-05
0.00021212
5.24518e-05
4.29932e-05
4.94443e-05
4.94449e-05
4.29941e-05
9.9648e-05
0.000196822
5.24532e-05
0.000212115
5.24465e-05
0.00021212
9.96553e-05
4.29906e-05
4.94414e-05
4.94421e-05
4.29919e-05
9.96417e-05
0.000196791
0.000212112
5.24446e-05
0.000212114
5.24361e-05
9.96546e-05
4.29919e-05
4.94467e-05
4.29919e-05
4.94467e-05
9.96681e-05
0.000212135
5.24577e-05
0.000196809
9.96722e-05
0.000212123
5.2463e-05
4.29912e-05
4.94452e-05
4.29912e-05
4.94449e-05
9.96375e-05
0.000196825
5.2456e-05
0.000212119
5.2449e-05
0.000212121
9.96544e-05
4.29837e-05
4.94469e-05
4.94475e-05
4.29861e-05
9.9635e-05
0.000196801
0.000212117
5.2456e-05
0.000212118
5.24479e-05
9.96536e-05
4.29831e-05
4.9445e-05
4.94456e-05
4.29856e-05
3.52559e-05
3.5272e-05
0.000171804
3.52553e-05
3.5271e-05
2.53898e-05
2.53895e-05
2.53868e-05
2.5387e-05
0.000171626
3.52509e-05
3.52668e-05
3.52514e-05
3.52675e-05
2.53894e-05
2.53896e-05
9.96678e-05
0.000212132
5.24546e-05
0.000196822
9.96723e-05
0.000212121
5.246e-05