/*--------------------------------*- C++ -*----------------------------------*\
| =========                 |                                                 |
| \\      /  F ield         | OpenFOAM: The Open Source CFD Toolbox           |
|  \\    /   O peration     | Version:  2206                                  |
|   \\  /    A nd           | Website:  www.openfoam.com                      |
|    \\/     M anipulation  |                                                 |
\*---------------------------------------------------------------------------*/
FoamFile
{
    version     2.0;
    format      ascii;
    arch        "LSB;label=32;scalar=64";
    class       volVectorField;
    location    "26";
    object      U;
}
// * * * * * * * * * * * * * * * * * * * * * * * * * * * * * * * * * * * * * //

dimensions      [0 1 -1 0 0 0 0];

internalField   nonuniform List<vector> 
28448
(
(-7.01444e-07 -7.00337e-07 0.102941)
(-4.74158e-07 7.20975e-07 0.102885)
(7.17934e-07 -4.6509e-07 0.102885)
(-4.35915e-05 -4.36e-05 0.102805)
(-7.10483e-07 -7.05216e-07 0.102941)
(-4.61232e-07 7.15989e-07 0.102885)
(7.1289e-07 -4.54149e-07 0.102885)
(-4.35817e-05 -4.35893e-05 0.102805)
(-7.18234e-07 -7.12324e-07 0.102941)
(-4.52973e-07 7.16451e-07 0.102885)
(7.0708e-07 -4.36139e-07 0.102885)
(-4.35686e-05 -4.35751e-05 0.102805)
(-7.24398e-07 -7.24438e-07 0.102941)
(-4.62831e-07 7.17462e-07 0.102885)
(7.21693e-07 -4.49885e-07 0.102885)
(-4.35672e-05 -4.35748e-05 0.102804)
(-7.26743e-07 -7.569e-07 0.102941)
(-4.56103e-07 6.67808e-07 0.102885)
(7.62007e-07 -5.02481e-07 0.102884)
(-4.35714e-05 -4.35797e-05 0.102804)
(-6.18461e-07 -6.01279e-07 0.102941)
(-5.66854e-07 7.96339e-07 0.102885)
(7.40876e-07 -5.23698e-07 0.102885)
(-4.37013e-05 -4.36992e-05 0.102805)
(-7.13211e-07 -7.05836e-07 0.102941)
(-4.55002e-07 7.02598e-07 0.102885)
(7.05626e-07 -4.51775e-07 0.102885)
(-4.35918e-05 -4.3592e-05 0.102805)
(-7.06127e-07 -7.06421e-07 0.102941)
(-4.69703e-07 7.12118e-07 0.102885)
(7.15079e-07 -4.6586e-07 0.102885)
(-4.36049e-05 -4.36133e-05 0.102805)
(-7.02781e-07 -7.03145e-07 0.102941)
(-4.7335e-07 7.15805e-07 0.102885)
(7.17173e-07 -4.68179e-07 0.102885)
(-4.36067e-05 -4.36156e-05 0.102805)
(-7.02248e-07 -7.02763e-07 0.102941)
(-4.73633e-07 7.16155e-07 0.102885)
(7.17642e-07 -4.68446e-07 0.102885)
(-4.36074e-05 -4.36158e-05 0.102805)
(-7.0154e-07 -7.02382e-07 0.102941)
(-4.73845e-07 7.16442e-07 0.102885)
(7.18577e-07 -4.69324e-07 0.102885)
(-4.36078e-05 -4.36162e-05 0.102805)
(-7.01294e-07 -7.01862e-07 0.102941)
(-4.74089e-07 7.16793e-07 0.102885)
(7.18366e-07 -4.68921e-07 0.102885)
(-4.3608e-05 -4.36162e-05 0.102805)
(-7.01718e-07 -7.02128e-07 0.102941)
(-4.74208e-07 7.16764e-07 0.102885)
(7.18161e-07 -4.68476e-07 0.102885)
(-4.36078e-05 -4.36157e-05 0.102805)
(-7.02117e-07 -7.02525e-07 0.102941)
(-4.73414e-07 7.16113e-07 0.102885)
(7.17814e-07 -4.68503e-07 0.102885)
(-4.36084e-05 -4.36165e-05 0.102805)
(-7.02302e-07 -7.027e-07 0.102941)
(-4.72905e-07 7.16029e-07 0.102885)
(7.17713e-07 -4.67915e-07 0.102885)
(-4.36066e-05 -4.36147e-05 0.102805)
(-7.02426e-07 -7.02582e-07 0.102941)
(-4.73063e-07 7.15988e-07 0.102885)
(7.1705e-07 -4.67581e-07 0.102885)
(-4.36058e-05 -4.36141e-05 0.102805)
(-7.02147e-07 -7.0226e-07 0.102941)
(-4.73311e-07 7.15823e-07 0.102885)
(7.17141e-07 -4.68338e-07 0.102885)
(-4.36021e-05 -4.36106e-05 0.102805)
(-7.00253e-07 -7.02094e-07 0.102941)
(7.17636e-07 -4.691e-07 0.102885)
(-4.55659e-05 -4.55378e-05 0.102808)
(7.42487e-07 4.89645e-07 0.102885)
(-7.44832e-07 5.04245e-07 0.102885)
(4.55706e-05 -4.5543e-05 0.102809)
(4.75322e-07 7.2476e-07 0.102885)
(4.96593e-07 -7.44785e-07 0.102885)
(-4.75496e-07 7.19201e-07 0.102885)
(-5.02525e-07 -7.34957e-07 0.102885)
(-4.55377e-05 4.55721e-05 0.102808)
(7.21847e-07 -4.7026e-07 0.102885)
(-7.18932e-07 -4.85955e-07 0.102885)
(4.55373e-05 4.55634e-05 0.102808)
(4.35967e-05 4.35835e-05 0.102805)
(-4.55714e-05 -4.55414e-05 0.102808)
(7.43206e-07 4.96023e-07 0.102885)
(-7.45714e-07 5.06004e-07 0.102885)
(7.37115e-07 4.82592e-07 0.102885)
(-7.40125e-07 4.97134e-07 0.102885)
(-4.35915e-05 4.35657e-05 0.102805)
(4.55751e-05 -4.55469e-05 0.102808)
(4.77495e-07 7.27632e-07 0.102885)
(4.9026e-07 -7.40573e-07 0.102885)
(4.65725e-07 7.2144e-07 0.102885)
(4.86533e-07 -7.3589e-07 0.102885)
(-4.96864e-07 -7.30767e-07 0.102885)
(-4.64555e-07 7.17402e-07 0.102885)
(-4.90823e-07 -7.25859e-07 0.102885)
(4.35767e-05 -4.36091e-05 0.102805)
(-4.55448e-05 4.55816e-05 0.102808)
(-7.14656e-07 -4.79652e-07 0.102885)
(7.14954e-07 -4.57606e-07 0.102885)
(-7.11565e-07 -4.74258e-07 0.102885)
(4.55456e-05 4.55722e-05 0.102808)
(4.35858e-05 4.35747e-05 0.102805)
(-4.55847e-05 -4.5556e-05 0.102808)
(7.35865e-07 4.86892e-07 0.102885)
(-7.38614e-07 4.965e-07 0.102885)
(7.30178e-07 4.6795e-07 0.102885)
(-7.33896e-07 4.82978e-07 0.102885)
(-4.3581e-05 4.35566e-05 0.102805)
(4.55875e-05 -4.55611e-05 0.102808)
(4.65268e-07 7.22219e-07 0.102885)
(4.80551e-07 -7.33676e-07 0.102885)
(4.53109e-07 7.14869e-07 0.102885)
(4.79264e-07 -7.36813e-07 0.102885)
(-4.87058e-07 -7.2334e-07 0.102885)
(-4.55612e-07 7.12301e-07 0.102885)
(-4.85217e-07 -7.26708e-07 0.102885)
(4.35673e-05 -4.35987e-05 0.102805)
(-4.55589e-05 4.55949e-05 0.102808)
(-7.0966e-07 -4.68575e-07 0.102885)
(7.16245e-07 -4.51659e-07 0.102885)
(-7.13496e-07 -4.66795e-07 0.102885)
(4.55587e-05 4.55869e-05 0.102808)
(4.35744e-05 4.3562e-05 0.102805)
(-4.56167e-05 -4.55891e-05 0.102808)
(7.35678e-07 4.78111e-07 0.102885)
(-7.39554e-07 4.87579e-07 0.102885)
(7.1281e-07 4.41368e-07 0.102885)
(-7.18198e-07 4.55055e-07 0.102885)
(-4.35714e-05 4.35437e-05 0.102805)
(4.56204e-05 -4.55933e-05 0.102808)
(4.56628e-07 7.2121e-07 0.102885)
(4.6438e-07 -7.28133e-07 0.102885)
(4.31228e-07 6.95593e-07 0.102885)
(4.74937e-07 -7.39908e-07 0.102885)
(-4.6938e-07 -7.17823e-07 0.102885)
(-4.392e-07 6.9469e-07 0.102885)
(-4.83943e-07 -7.32722e-07 0.102885)
(4.35541e-05 -4.35849e-05 0.102805)
(-4.55864e-05 4.56212e-05 0.102808)
(-7.04004e-07 -4.49861e-07 0.102885)
(7.18177e-07 -4.52947e-07 0.102885)
(-7.1803e-07 -4.68545e-07 0.102885)
(4.55845e-05 4.56113e-05 0.102808)
(4.35492e-05 4.35345e-05 0.102804)
(-4.56699e-05 -4.56559e-05 0.102808)
(7.39913e-07 4.75906e-07 0.102885)
(-7.45965e-07 4.84421e-07 0.102885)
(6.71485e-07 3.77942e-07 0.102885)
(-6.78398e-07 3.92288e-07 0.102885)
(-4.3546e-05 4.35213e-05 0.102804)
(4.56725e-05 -4.56578e-05 0.102808)
(4.61656e-07 7.21076e-07 0.102885)
(4.73551e-07 -7.44838e-07 0.102885)
(3.79419e-07 6.40452e-07 0.102885)
(4.26878e-07 -7.1398e-07 0.102885)
(-4.83061e-07 -7.36551e-07 0.102885)
(-3.86438e-07 6.41062e-07 0.102885)
(-4.35746e-07 -7.0691e-07 0.102885)
(4.355e-05 -4.35819e-05 0.102804)
(-4.56329e-05 4.56682e-05 0.102808)
(-7.21342e-07 -4.64012e-07 0.102885)
(6.87013e-07 -4.01793e-07 0.102885)
(-6.88456e-07 -4.1921e-07 0.102885)
(4.56314e-05 4.56587e-05 0.102808)
(4.35142e-05 4.34839e-05 0.102804)
(-4.54203e-05 -4.53939e-05 0.102808)
(7.09864e-07 4.18403e-07 0.102885)
(-7.23262e-07 4.2599e-07 0.102885)
(8.33571e-07 6.30513e-07 0.102885)
(-8.34573e-07 6.43007e-07 0.102885)
(-4.35173e-05 4.34721e-05 0.102804)
(4.54273e-05 -4.53989e-05 0.102808)
(4.3255e-07 6.6942e-07 0.102885)
(5.08608e-07 -7.99341e-07 0.102884)
(6.18088e-07 8.14098e-07 0.102885)
(6.07815e-07 -7.95117e-07 0.102885)
(-5.29731e-07 -7.9075e-07 0.102884)
(-6.13011e-07 8.10885e-07 0.102885)
(-6.15311e-07 -7.82884e-07 0.102885)
(4.35513e-05 -4.35877e-05 0.102804)
(-4.5437e-05 4.54755e-05 0.102808)
(-7.65346e-07 -5.14632e-07 0.102884)
(7.78807e-07 -5.75777e-07 0.102885)
(-7.75143e-07 -5.92126e-07 0.102885)
(4.54375e-05 4.54718e-05 0.102808)
(4.37657e-05 4.37594e-05 0.102804)
(-4.56106e-05 -4.5569e-05 0.102808)
(7.95035e-07 6.14953e-07 0.102885)
(-7.92411e-07 6.24857e-07 0.102885)
(7.18648e-07 4.90514e-07 0.102885)
(-7.18262e-07 5.07007e-07 0.102885)
(-4.37523e-05 4.37445e-05 0.102804)
(4.56189e-05 -4.55748e-05 0.102809)
(5.81434e-07 7.95101e-07 0.102885)
(5.6709e-07 -7.41121e-07 0.102885)
(4.6173e-07 7.14928e-07 0.102885)
(4.87886e-07 -7.09458e-07 0.102885)
(-5.6883e-07 -7.34822e-07 0.102885)
(-4.5718e-07 7.09569e-07 0.102885)
(-4.90042e-07 -7.01471e-07 0.102885)
(4.36906e-05 -4.37099e-05 0.102805)
(-4.55769e-05 4.56233e-05 0.102808)
(-7.3538e-07 -5.39593e-07 0.102885)
(7.02303e-07 -4.48217e-07 0.102885)
(-6.98329e-07 -4.66403e-07 0.102885)
(4.55776e-05 4.56137e-05 0.102808)
(4.35871e-05 4.35834e-05 0.102805)
(-4.55934e-05 -4.55672e-05 0.102808)
(7.18975e-07 4.83719e-07 0.102885)
(-7.20703e-07 4.95219e-07 0.102885)
(7.33784e-07 4.79322e-07 0.102885)
(-7.37403e-07 4.9465e-07 0.102885)
(-4.35796e-05 4.35647e-05 0.102805)
(4.55963e-05 -4.55721e-05 0.102808)
(4.5804e-07 7.10292e-07 0.102885)
(4.84179e-07 -7.1967e-07 0.102885)
(4.6584e-07 7.15011e-07 0.102885)
(4.88253e-07 -7.38393e-07 0.102885)
(-4.89571e-07 -7.1002e-07 0.102885)
(-4.66191e-07 7.10339e-07 0.102885)
(-4.94501e-07 -7.27426e-07 0.102885)
(4.35771e-05 -4.36015e-05 0.102805)
(-4.55649e-05 4.55971e-05 0.102808)
(-7.02399e-07 -4.65262e-07 0.102885)
(7.1423e-07 -4.61801e-07 0.102885)
(-7.12116e-07 -4.7823e-07 0.102885)
(4.55634e-05 4.55896e-05 0.102808)
(4.36062e-05 4.35908e-05 0.102805)
(-4.55889e-05 -4.55625e-05 0.102808)
(7.35716e-07 4.86669e-07 0.102885)
(-7.39777e-07 4.96586e-07 0.102885)
(7.39189e-07 4.84533e-07 0.102885)
(-7.42727e-07 4.99444e-07 0.102885)
(-4.3603e-05 4.35733e-05 0.102805)
(4.55922e-05 -4.55674e-05 0.102808)
(4.70394e-07 7.18049e-07 0.102885)
(4.88949e-07 -7.39907e-07 0.102885)
(4.71549e-07 7.19841e-07 0.102885)
(4.90929e-07 -7.41842e-07 0.102885)
(-4.96454e-07 -7.29158e-07 0.102885)
(-4.71981e-07 7.15608e-07 0.102885)
(-4.97286e-07 -7.31307e-07 0.102885)
(4.35884e-05 -4.36237e-05 0.102805)
(-4.55626e-05 4.55945e-05 0.102808)
(-7.13161e-07 -4.80201e-07 0.102885)
(7.16836e-07 -4.66071e-07 0.102885)
(-7.14985e-07 -4.81892e-07 0.102885)
(4.5561e-05 4.55864e-05 0.102808)
(4.36099e-05 4.3595e-05 0.102805)
(-4.55882e-05 -4.55613e-05 0.102808)
(7.38808e-07 4.90202e-07 0.102885)
(-7.42844e-07 5.00085e-07 0.102885)
(7.39733e-07 4.85286e-07 0.102885)
(-7.43105e-07 5.00128e-07 0.102885)
(-4.36062e-05 4.35777e-05 0.102805)
(4.55916e-05 -4.55663e-05 0.102808)
(4.73851e-07 7.21218e-07 0.102885)
(4.90965e-07 -7.41915e-07 0.102885)
(4.72142e-07 7.20741e-07 0.102885)
(4.91628e-07 -7.42033e-07 0.102885)
(-4.98742e-07 -7.31653e-07 0.102885)
(-4.72647e-07 7.16438e-07 0.102885)
(-4.97955e-07 -7.31493e-07 0.102885)
(4.35904e-05 -4.36256e-05 0.102805)
(-4.55616e-05 4.55942e-05 0.102808)
(-7.15299e-07 -4.83306e-07 0.102885)
(7.17521e-07 -4.66377e-07 0.102885)
(-7.15831e-07 -4.82599e-07 0.102885)
(4.556e-05 4.5586e-05 0.102808)
(4.36101e-05 4.35956e-05 0.102805)
(-4.55879e-05 -4.55612e-05 0.102808)
(7.39104e-07 4.90654e-07 0.102885)
(-7.42905e-07 5.00425e-07 0.102885)
(7.40054e-07 4.85712e-07 0.102885)
(-7.4313e-07 5.0069e-07 0.102885)
(-4.36062e-05 4.35781e-05 0.102805)
(4.55916e-05 -4.55661e-05 0.102808)
(4.74258e-07 7.21751e-07 0.102885)
(4.91416e-07 -7.41953e-07 0.102885)
(4.72883e-07 7.21041e-07 0.102885)
(4.92379e-07 -7.42552e-07 0.102885)
(-4.98996e-07 -7.3169e-07 0.102885)
(-4.72858e-07 7.16731e-07 0.102885)
(-4.98066e-07 -7.31882e-07 0.102885)
(4.35909e-05 -4.36256e-05 0.102805)
(-4.55609e-05 4.55936e-05 0.102808)
(-7.15878e-07 -4.83914e-07 0.102885)
(7.18315e-07 -4.67153e-07 0.102885)
(-7.1616e-07 -4.83449e-07 0.102885)
(4.55595e-05 4.55855e-05 0.102808)
(4.36106e-05 4.35959e-05 0.102805)
(-4.55876e-05 -4.55606e-05 0.102808)
(7.39433e-07 4.91068e-07 0.102885)
(-7.42934e-07 5.01016e-07 0.102885)
(7.40433e-07 4.86359e-07 0.102885)
(-7.43418e-07 5.01177e-07 0.102885)
(-4.36064e-05 4.35784e-05 0.102805)
(4.55914e-05 -4.55659e-05 0.102808)
(4.74999e-07 7.22017e-07 0.102885)
(4.92371e-07 -7.42669e-07 0.102885)
(4.73251e-07 7.21469e-07 0.102885)
(4.92624e-07 -7.42656e-07 0.102885)
(-4.99237e-07 -7.32135e-07 0.102885)
(-4.73227e-07 7.17047e-07 0.102885)
(-4.98159e-07 -7.31864e-07 0.102885)
(4.35918e-05 -4.36263e-05 0.102805)
(-4.55608e-05 4.55935e-05 0.102808)
(-7.16251e-07 -4.84828e-07 0.102885)
(7.18564e-07 -4.67261e-07 0.102885)
(-7.16458e-07 -4.83472e-07 0.102885)
(4.55593e-05 4.55855e-05 0.102808)
(4.36109e-05 4.35966e-05 0.102805)
(-4.5588e-05 -4.55609e-05 0.102808)
(7.39688e-07 4.91572e-07 0.102885)
(-7.43269e-07 5.01345e-07 0.102885)
(7.40074e-07 4.85991e-07 0.102885)
(-7.43485e-07 5.00994e-07 0.102885)
(-4.3607e-05 4.35789e-05 0.102805)
(4.55911e-05 -4.55654e-05 0.102808)
(4.75099e-07 7.22483e-07 0.102885)
(4.9214e-07 -7.42286e-07 0.102885)
(4.72821e-07 7.21369e-07 0.102885)
(4.92162e-07 -7.41958e-07 0.102885)
(-4.99105e-07 -7.31725e-07 0.102885)
(-4.73228e-07 7.1718e-07 0.102885)
(-4.98286e-07 -7.31544e-07 0.102885)
(4.35918e-05 -4.36262e-05 0.102805)
(-4.55615e-05 4.55945e-05 0.102808)
(-7.16348e-07 -4.84329e-07 0.102885)
(7.18146e-07 -4.66477e-07 0.102885)
(-7.16707e-07 -4.82979e-07 0.102885)
(4.55594e-05 4.5586e-05 0.102808)
(4.36104e-05 4.35958e-05 0.102805)
(-4.5588e-05 -4.55614e-05 0.102808)
(7.39362e-07 4.91234e-07 0.102885)
(-7.43237e-07 5.01154e-07 0.102885)
(7.39648e-07 4.85515e-07 0.102885)
(-7.43097e-07 5.00611e-07 0.102885)
(-4.3606e-05 4.35781e-05 0.102805)
(4.55926e-05 -4.55671e-05 0.102808)
(4.74737e-07 7.2222e-07 0.102885)
(4.92e-07 -7.41888e-07 0.102885)
(4.72519e-07 7.21001e-07 0.102885)
(4.92129e-07 -7.41953e-07 0.102885)
(-4.9951e-07 -7.31755e-07 0.102885)
(-4.72826e-07 7.16773e-07 0.102885)
(-4.97988e-07 -7.31378e-07 0.102885)
(4.35914e-05 -4.36255e-05 0.102805)
(-4.55606e-05 4.55938e-05 0.102808)
(-7.1673e-07 -4.8413e-07 0.102885)
(7.17963e-07 -4.66459e-07 0.102885)
(-7.16451e-07 -4.82783e-07 0.102885)
(4.55596e-05 4.5586e-05 0.102808)
(4.36106e-05 4.35964e-05 0.102805)
(-4.55869e-05 -4.55603e-05 0.102808)
(7.39094e-07 4.9094e-07 0.102885)
(-7.42585e-07 5.00529e-07 0.102885)
(7.39881e-07 4.85409e-07 0.102885)
(-7.42813e-07 5.00254e-07 0.102885)
(-4.3607e-05 4.3579e-05 0.102805)
(4.55921e-05 -4.55665e-05 0.102808)
(4.74281e-07 7.21822e-07 0.102885)
(4.91534e-07 -7.41751e-07 0.102885)
(4.72425e-07 7.20878e-07 0.102885)
(4.91916e-07 -7.41852e-07 0.102885)
(-4.9909e-07 -7.31568e-07 0.102885)
(-4.7218e-07 7.16522e-07 0.102885)
(-4.97269e-07 -7.30865e-07 0.102885)
(4.3591e-05 -4.36253e-05 0.102805)
(-4.55601e-05 4.55934e-05 0.102808)
(-7.16315e-07 -4.84098e-07 0.102885)
(7.18034e-07 -4.66206e-07 0.102885)
(-7.15865e-07 -4.82173e-07 0.102885)
(4.55591e-05 4.55855e-05 0.102808)
(4.36093e-05 4.35952e-05 0.102805)
(-4.55874e-05 -4.55605e-05 0.102808)
(7.39007e-07 4.90595e-07 0.102885)
(-7.42436e-07 5.00283e-07 0.102885)
(7.39295e-07 4.84787e-07 0.102885)
(-7.43129e-07 5.00373e-07 0.102885)
(-4.36061e-05 4.35781e-05 0.102805)
(4.55904e-05 -4.55649e-05 0.102808)
(4.7407e-07 7.21909e-07 0.102885)
(4.91406e-07 -7.41638e-07 0.102885)
(4.72104e-07 7.20748e-07 0.102885)
(4.91662e-07 -7.41632e-07 0.102885)
(-4.98141e-07 -7.3088e-07 0.102885)
(-4.72427e-07 7.16802e-07 0.102885)
(-4.96863e-07 -7.30757e-07 0.102885)
(4.35895e-05 -4.36239e-05 0.102805)
(-4.55608e-05 4.55937e-05 0.102808)
(-7.15702e-07 -4.83195e-07 0.102885)
(7.17438e-07 -4.6582e-07 0.102885)
(-7.15588e-07 -4.8173e-07 0.102885)
(4.55591e-05 4.55854e-05 0.102808)
(4.36085e-05 4.35941e-05 0.102805)
(-4.55849e-05 -4.55583e-05 0.102808)
(7.38987e-07 4.90797e-07 0.102885)
(-7.42521e-07 5.00246e-07 0.102885)
(7.39354e-07 4.84685e-07 0.102885)
(-7.42934e-07 5.00027e-07 0.102885)
(-4.36043e-05 4.35763e-05 0.102805)
(4.55872e-05 -4.55615e-05 0.102808)
(4.73632e-07 7.21436e-07 0.102885)
(4.90582e-07 -7.41135e-07 0.102885)
(4.72592e-07 7.20646e-07 0.102885)
(4.92005e-07 -7.41816e-07 0.102885)
(-4.98918e-07 -7.31463e-07 0.102885)
(-4.72073e-07 7.16705e-07 0.102885)
(-4.96817e-07 -7.30772e-07 0.102885)
(4.35891e-05 -4.36237e-05 0.102805)
(-4.55587e-05 4.55917e-05 0.102808)
(-7.16016e-07 -4.83872e-07 0.102885)
(7.17781e-07 -4.65895e-07 0.102885)
(-7.15278e-07 -4.819e-07 0.102885)
(4.55562e-05 4.55823e-05 0.102808)
(4.36059e-05 4.35914e-05 0.102805)
(-4.55772e-05 -4.55496e-05 0.102808)
(7.39097e-07 4.90905e-07 0.102885)
(-7.42161e-07 5.00494e-07 0.102885)
(7.39931e-07 4.83589e-07 0.102885)
(-4.35991e-05 4.35713e-05 0.102805)
(4.73751e-07 7.21675e-07 0.102885)
(4.90825e-07 -7.4141e-07 0.102885)
(4.72015e-07 7.2041e-07 0.102885)
(4.90937e-07 -7.41365e-07 0.102885)
(-4.98773e-07 -7.31416e-07 0.102885)
(-4.95777e-07 -7.31388e-07 0.102885)
(4.35872e-05 -4.36215e-05 0.102805)
(-4.55512e-05 4.55847e-05 0.102808)
(-7.1579e-07 -4.8401e-07 0.102885)
(7.1728e-07 -4.65058e-07 0.102885)
(-7.15284e-07 -4.8171e-07 0.102885)
(4.55446e-05 4.557e-05 0.102808)
(4.35983e-05 4.35832e-05 0.102805)
(4.73761e-07 7.22356e-07 0.102885)
(4.90317e-07 -7.41751e-07 0.102885)
(4.3578e-05 -4.36118e-05 0.102805)
(-7.01696e-07 -7.00347e-07 0.102941)
(7.0525e-07 -6.95249e-07 0.102941)
(-6.94519e-07 7.05348e-07 0.102941)
(7.07042e-07 6.90551e-07 0.102941)
(7.02422e-08 -9.39644e-06 0.100551)
(6.92846e-07 6.79306e-06 0.0932339)
(-7.76219e-08 9.09552e-06 0.100538)
(-1.11977e-06 -6.63903e-06 0.0932519)
(-1.94105e-06 2.80221e-06 0.0811003)
(1.88608e-06 -2.75293e-06 0.0811188)
(-9.46502e-06 7.20679e-08 0.10055)
(6.7604e-06 6.70003e-07 0.0932334)
(9.16303e-06 -4.92749e-08 0.100538)
(-6.60826e-06 -1.08913e-06 0.0932518)
(7.05869e-07 -6.94916e-07 0.102941)
(-6.96436e-07 7.07721e-07 0.102941)
(7.10416e-07 6.92868e-07 0.102941)
(-7.0803e-07 -7.03456e-07 0.102941)
(7.11214e-07 -6.97741e-07 0.102941)
(-7.01408e-07 7.14911e-07 0.102941)
(7.14649e-07 7.00678e-07 0.102941)
(1.52407e-05 8.64547e-08 0.102403)
(-1.48274e-05 4.22774e-06 0.100907)
(-5.98257e-07 -1.84802e-07 0.102924)
(-4.67014e-07 7.19169e-07 0.102885)
(-1.53389e-05 -8.48794e-08 0.102398)
(1.42055e-05 -4.60701e-06 0.100926)
(-5.90599e-07 -1.84055e-07 0.102924)
(2.67856e-06 -1.87352e-06 0.0810973)
(-2.64754e-06 1.82402e-06 0.0811194)
(8.39354e-08 1.52334e-05 0.102403)
(-1.86073e-07 -5.901e-07 0.102924)
(4.26173e-06 -1.48783e-05 0.100907)
(7.15126e-07 -4.58897e-07 0.102885)
(-9.58961e-08 -1.5336e-05 0.102398)
(-1.86959e-07 -5.87607e-07 0.102924)
(-4.65532e-06 1.4265e-05 0.100925)
(-4.52626e-06 -5.55807e-06 0.09825)
(-5.54999e-06 -4.51805e-06 0.0982493)
(4.55432e-05 4.55695e-05 0.102808)
(4.24315e-06 5.39998e-06 0.0982692)
(5.39439e-06 4.23665e-06 0.0982683)
(6.56508e-08 -9.41377e-06 0.100551)
(6.91646e-07 6.75828e-06 0.0932342)
(-7.11109e-08 9.07991e-06 0.100538)
(-1.11639e-06 -6.66916e-06 0.0932522)
(-1.91662e-06 2.76701e-06 0.0811003)
(1.89695e-06 -2.7818e-06 0.081119)
(-9.48843e-06 6.50361e-08 0.10055)
(6.71751e-06 6.78947e-07 0.0932337)
(9.14714e-06 -4.87329e-08 0.100538)
(-6.63919e-06 -1.08542e-06 0.0932521)
(7.14376e-07 -6.99238e-07 0.102941)
(-7.03985e-07 7.17823e-07 0.102941)
(7.17644e-07 7.04382e-07 0.102941)
(-7.14105e-07 -7.09704e-07 0.102941)
(7.15522e-07 -7.03489e-07 0.102941)
(-7.08107e-07 7.20625e-07 0.102941)
(7.20249e-07 7.07747e-07 0.102941)
(1.52656e-05 8.36407e-08 0.102403)
(-1.48025e-05 4.19839e-06 0.100907)
(-5.829e-07 -1.85566e-07 0.102924)
(-4.549e-07 7.14163e-07 0.102885)
(-1.53131e-05 -8.54283e-08 0.102398)
(1.42318e-05 -4.64172e-06 0.100926)
(-5.72895e-07 -1.87474e-07 0.102924)
(2.65186e-06 -1.85947e-06 0.0810976)
(-2.68696e-06 1.8621e-06 0.0811198)
(8.40477e-08 1.52611e-05 0.102403)
(-1.89361e-07 -5.73957e-07 0.102924)
(4.22251e-06 -1.48527e-05 0.100907)
(7.07311e-07 -4.44526e-07 0.102885)
(-9.78616e-08 -1.53115e-05 0.102397)
(-1.90242e-07 -5.6839e-07 0.102924)
(-4.68747e-06 1.42993e-05 0.100925)
(-4.53742e-06 -5.54875e-06 0.0982501)
(-5.54082e-06 -4.53165e-06 0.0982494)
(4.55542e-05 4.55827e-05 0.102808)
(4.2387e-06 5.40694e-06 0.0982693)
(5.39906e-06 4.23441e-06 0.0982683)
(6.39966e-08 -9.45246e-06 0.100551)
(7.15686e-07 6.71607e-06 0.0932346)
(-7.62218e-08 9.04091e-06 0.100538)
(-1.13087e-06 -6.69933e-06 0.0932526)
(-1.91999e-06 2.7246e-06 0.081101)
(1.92341e-06 -2.83205e-06 0.0811199)
(-9.52772e-06 6.8774e-08 0.10055)
(6.67744e-06 6.95787e-07 0.0932341)
(9.10943e-06 -5.96919e-08 0.100538)
(-6.67076e-06 -1.09912e-06 0.0932526)
(7.21668e-07 -7.06307e-07 0.102941)
(-7.14265e-07 7.29082e-07 0.102941)
(7.28151e-07 7.16134e-07 0.102941)
(-7.25505e-07 -7.26754e-07 0.102941)
(7.25972e-07 -7.22787e-07 0.102941)
(-7.18264e-07 7.24502e-07 0.102941)
(7.28203e-07 7.11919e-07 0.102941)
(1.53152e-05 8.35992e-08 0.102403)
(-1.47745e-05 4.18052e-06 0.100906)
(-5.66602e-07 -1.89233e-07 0.102924)
(-4.31739e-07 7.06152e-07 0.102885)
(-1.52852e-05 -8.61953e-08 0.102397)
(1.42724e-05 -4.66052e-06 0.100925)
(-5.43261e-07 -1.91399e-07 0.102924)
(2.5941e-06 -1.81111e-06 0.0810984)
(-2.69792e-06 1.82419e-06 0.0811209)
(8.02503e-08 1.53094e-05 0.102403)
(-1.94124e-07 -5.51369e-07 0.102924)
(4.20195e-06 -1.48173e-05 0.100907)
(6.88869e-07 -4.13779e-07 0.102885)
(-9.92287e-08 -1.52807e-05 0.102397)
(-1.9385e-07 -5.34506e-07 0.102924)
(-4.7084e-06 1.43351e-05 0.100925)
(-4.53743e-06 -5.53963e-06 0.0982502)
(-5.53325e-06 -4.52976e-06 0.0982494)
(4.55723e-05 4.55989e-05 0.102808)
(4.25318e-06 5.40999e-06 0.0982693)
(5.40479e-06 4.24651e-06 0.0982683)
(6.00211e-08 -9.51001e-06 0.10055)
(6.80289e-07 6.70242e-06 0.0932351)
(-8.19378e-08 9.01679e-06 0.100538)
(-1.11069e-06 -6.71653e-06 0.0932532)
(-1.84728e-06 2.69459e-06 0.0811022)
(1.84217e-06 -2.81518e-06 0.0811213)
(-9.57484e-06 2.95498e-08 0.10055)
(6.66703e-06 6.53473e-07 0.0932346)
(9.08144e-06 -4.80641e-08 0.100538)
(-6.68216e-06 -1.09249e-06 0.0932532)
(7.25314e-07 -7.20328e-07 0.102941)
(-7.17272e-07 7.27506e-07 0.102941)
(7.28114e-07 7.14834e-07 0.102941)
(-7.41791e-07 -7.57209e-07 0.102941)
(7.40537e-07 -7.52622e-07 0.102941)
(-7.29369e-07 7.28115e-07 0.102941)
(7.38107e-07 7.15663e-07 0.102941)
(1.53261e-05 6.84535e-08 0.102403)
(-1.47332e-05 4.14269e-06 0.100906)
(-5.76996e-07 -2.00128e-07 0.102924)
(-4.4194e-07 7.11333e-07 0.102885)
(-1.52506e-05 -9.4313e-08 0.102397)
(1.42869e-05 -4.7022e-06 0.100925)
(-5.52952e-07 -1.95411e-07 0.102924)
(2.59025e-06 -1.86874e-06 0.0810998)
(-2.68578e-06 1.87638e-06 0.0811221)
(7.24183e-08 1.53421e-05 0.102403)
(-1.94736e-07 -5.61725e-07 0.102924)
(4.16977e-06 -1.47935e-05 0.100906)
(6.79714e-07 -3.96229e-07 0.102885)
(-1.04936e-07 -1.52461e-05 0.102397)
(-1.95052e-07 -5.25884e-07 0.102924)
(-4.72136e-06 1.43727e-05 0.100925)
(-4.49334e-06 -5.53884e-06 0.0982502)
(-5.52943e-06 -4.48542e-06 0.0982495)
(4.55866e-05 4.56148e-05 0.102808)
(4.26603e-06 5.44448e-06 0.0982694)
(5.43812e-06 4.26314e-06 0.0982684)
(8.84078e-08 -9.49195e-06 0.10055)
(6.57082e-07 6.7004e-06 0.0932358)
(-1.07345e-07 9.01198e-06 0.100538)
(-1.10293e-06 -6.67808e-06 0.093254)
(-1.81588e-06 2.6549e-06 0.0811039)
(1.70631e-06 -2.73559e-06 0.081123)
(-9.49806e-06 -7.53534e-08 0.10055)
(6.67871e-06 5.88868e-07 0.0932353)
(9.0815e-06 -7.34614e-08 0.100538)
(-6.61443e-06 -1.12385e-06 0.093254)
(7.15695e-07 -7.54019e-07 0.102941)
(-6.91623e-07 6.77699e-07 0.102941)
(6.98013e-07 6.67436e-07 0.102941)
(-6.0777e-07 -6.03219e-07 0.102941)
(6.14689e-07 -5.98684e-07 0.102941)
(-6.10005e-07 6.2599e-07 0.102941)
(6.24486e-07 6.16956e-07 0.102941)
(1.51001e-05 3.98022e-08 0.102402)
(-1.47206e-05 4.08225e-06 0.100906)
(-5.77444e-07 -2.35375e-07 0.102924)
(-5.55226e-07 7.30971e-07 0.102885)
(-1.5221e-05 -1.19957e-07 0.102397)
(1.4157e-05 -4.71133e-06 0.100925)
(-6.94074e-07 -2.2393e-07 0.102924)
(2.61195e-06 -1.9606e-06 0.0811015)
(-2.50052e-06 1.62243e-06 0.0811229)
(1.1228e-07 1.50778e-05 0.102402)
(-1.8584e-07 -5.99934e-07 0.102924)
(4.19786e-06 -1.47948e-05 0.100906)
(8.1223e-07 -5.86488e-07 0.102884)
(-1.05105e-07 -1.52017e-05 0.102397)
(-1.63456e-07 -7.15528e-07 0.102924)
(-4.57758e-06 1.4135e-05 0.100924)
(-4.4673e-06 -5.56592e-06 0.0982504)
(-5.56027e-06 -4.45317e-06 0.0982497)
(4.54248e-05 4.54516e-05 0.102808)
(4.12584e-06 5.28948e-06 0.0982695)
(5.27176e-06 4.12786e-06 0.0982685)
(2.52755e-08 -9.11141e-06 0.10055)
(7.97869e-07 7.24468e-06 0.0932358)
(-9.66319e-08 9.4079e-06 0.100538)
(-1.06798e-06 -6.19968e-06 0.0932528)
(-1.95567e-06 2.9723e-06 0.0811024)
(1.92826e-06 -2.63305e-06 0.0811197)
(-9.22273e-06 1.44693e-07 0.10055)
(7.20731e-06 8.11545e-07 0.0932354)
(9.47324e-06 -5.38768e-08 0.100538)
(-6.19381e-06 -9.93864e-07 0.0932527)
(6.32048e-07 -5.96135e-07 0.102941)
(-6.37438e-07 6.66816e-07 0.102941)
(6.56886e-07 6.55552e-07 0.102941)
(-7.06095e-07 -6.92898e-07 0.102941)
(7.11898e-07 -6.8717e-07 0.102941)
(-7.02223e-07 7.26703e-07 0.102941)
(7.1687e-07 7.11732e-07 0.102941)
(1.50501e-05 1.36353e-07 0.102403)
(-1.51347e-05 4.46733e-06 0.100906)
(-7.25541e-07 -1.28663e-07 0.102924)
(-5.11999e-07 7.62211e-07 0.102885)
(-1.5724e-05 -5.41918e-08 0.102397)
(1.39901e-05 -4.3609e-06 0.100925)
(-6.66127e-07 -1.35682e-07 0.102924)
(2.82252e-06 -1.81715e-06 0.0810985)
(-2.54997e-06 1.88871e-06 0.0811198)
(8.40268e-08 1.50573e-05 0.102403)
(-1.60405e-07 -6.93044e-07 0.102924)
(4.4712e-06 -1.51552e-05 0.100906)
(7.14484e-07 -4.77974e-07 0.102885)
(-7.92981e-08 -1.57045e-05 0.102397)
(-1.73921e-07 -6.42401e-07 0.102924)
(-4.50643e-06 1.41064e-05 0.100925)
(-4.66625e-06 -5.55825e-06 0.0982499)
(-5.56407e-06 -4.65019e-06 0.0982492)
(4.55572e-05 4.55969e-05 0.102808)
(4.17579e-06 5.42841e-06 0.0982689)
(5.40864e-06 4.1779e-06 0.098268)
(5.85308e-08 -9.37077e-06 0.100551)
(7.2999e-07 6.90012e-06 0.0932341)
(-8.73751e-08 9.16667e-06 0.100538)
(-1.10041e-06 -6.57593e-06 0.0932518)
(-1.90412e-06 2.81275e-06 0.0811004)
(1.89768e-06 -2.74621e-06 0.0811188)
(-9.44371e-06 5.21541e-08 0.10055)
(6.85541e-06 7.11089e-07 0.0932336)
(9.21758e-06 -4.20532e-08 0.100538)
(-6.54455e-06 -1.07646e-06 0.0932517)
(7.17562e-07 -6.99727e-07 0.102941)
(-7.04466e-07 7.23062e-07 0.102941)
(7.1887e-07 7.08749e-07 0.102941)
(-7.09047e-07 -7.08034e-07 0.102941)
(7.11007e-07 -7.01993e-07 0.102941)
(-6.99706e-07 7.09526e-07 0.102941)
(7.11608e-07 6.95693e-07 0.102941)
(1.52183e-05 8.04563e-08 0.102403)
(-1.4864e-05 4.25879e-06 0.100906)
(-5.95358e-07 -1.8192e-07 0.102924)
(-4.57584e-07 7.03572e-07 0.102885)
(-1.53761e-05 -7.8082e-08 0.102398)
(1.41894e-05 -4.61408e-06 0.100926)
(-5.91723e-07 -1.87859e-07 0.102924)
(2.68387e-06 -1.84091e-06 0.0810974)
(-2.63264e-06 1.8351e-06 0.0811194)
(8.0897e-08 1.52099e-05 0.102403)
(-1.86925e-07 -5.85395e-07 0.102924)
(4.26875e-06 -1.49005e-05 0.100907)
(7.08873e-07 -4.54477e-07 0.102885)
(-9.65293e-08 -1.53557e-05 0.102398)
(-1.8745e-07 -5.89221e-07 0.102924)
(-4.65408e-06 1.42532e-05 0.100925)
(-4.54742e-06 -5.54392e-06 0.0982499)
(-5.54319e-06 -4.535e-06 0.0982492)
(4.55692e-05 4.55984e-05 0.102808)
(4.23113e-06 5.4021e-06 0.0982691)
(5.3959e-06 4.22313e-06 0.0982681)
(6.00437e-08 -9.38441e-06 0.100551)
(7.18311e-07 6.81778e-06 0.0932339)
(-8.11307e-08 9.105e-06 0.100538)
(-1.1072e-06 -6.59189e-06 0.0932517)
(-1.92612e-06 2.78316e-06 0.0811003)
(1.8895e-06 -2.75552e-06 0.0811188)
(-9.45212e-06 5.05151e-08 0.10055)
(6.7841e-06 6.92085e-07 0.0932334)
(9.1744e-06 -6.6282e-08 0.100538)
(-6.55917e-06 -1.08049e-06 0.0932517)
(7.08642e-07 -7.00412e-07 0.102941)
(-6.98302e-07 7.07421e-07 0.102941)
(7.11307e-07 6.93459e-07 0.102941)
(-7.03823e-07 -7.03507e-07 0.102941)
(7.05791e-07 -6.97791e-07 0.102941)
(-6.96584e-07 7.05214e-07 0.102941)
(7.08326e-07 6.91167e-07 0.102941)
(1.52146e-05 8.04247e-08 0.102403)
(-1.4838e-05 4.21503e-06 0.100907)
(-5.97741e-07 -1.88733e-07 0.102924)
(-4.70481e-07 7.13572e-07 0.102885)
(-1.53659e-05 -9.09682e-08 0.102398)
(1.41892e-05 -4.6116e-06 0.100926)
(-5.969e-07 -1.88986e-07 0.102924)
(2.66688e-06 -1.8593e-06 0.0810974)
(-2.63666e-06 1.82994e-06 0.0811194)
(7.97946e-08 1.51982e-05 0.102403)
(-1.86069e-07 -5.92196e-07 0.102924)
(4.25234e-06 -1.48894e-05 0.100907)
(7.15672e-07 -4.6536e-07 0.102885)
(-9.45011e-08 -1.53524e-05 0.102398)
(-1.86487e-07 -5.9576e-07 0.102924)
(-4.65246e-06 1.42506e-05 0.100925)
(-4.54553e-06 -5.55497e-06 0.09825)
(-5.54539e-06 -4.53963e-06 0.0982492)
(4.55625e-05 4.55877e-05 0.102808)
(4.22955e-06 5.399e-06 0.0982691)
(5.39632e-06 4.22021e-06 0.0982681)
(6.0426e-08 -9.38375e-06 0.100551)
(7.16834e-07 6.81953e-06 0.0932339)
(-8.06482e-08 9.10491e-06 0.100538)
(-1.10784e-06 -6.5904e-06 0.0932517)
(-1.92675e-06 2.78259e-06 0.0811003)
(1.89026e-06 -2.75504e-06 0.0811188)
(-9.45181e-06 5.12514e-08 0.10055)
(6.78496e-06 6.92728e-07 0.0932334)
(9.17432e-06 -6.50071e-08 0.100538)
(-6.55812e-06 -1.08022e-06 0.0932517)
(7.05189e-07 -6.97304e-07 0.102941)
(-6.96117e-07 7.04855e-07 0.102941)
(7.09056e-07 6.90736e-07 0.102941)
(-7.03019e-07 -7.02743e-07 0.102941)
(7.05094e-07 -6.97164e-07 0.102941)
(-6.95974e-07 7.04804e-07 0.102941)
(7.07681e-07 6.90754e-07 0.102941)
(1.52139e-05 8.12214e-08 0.102403)
(-1.48383e-05 4.21913e-06 0.100907)
(-6.00872e-07 -1.87499e-07 0.102924)
(-4.72779e-07 7.16153e-07 0.102885)
(-1.53661e-05 -8.97295e-08 0.102398)
(1.41888e-05 -4.61053e-06 0.100926)
(-5.99225e-07 -1.88076e-07 0.102924)
(2.66723e-06 -1.85923e-06 0.0810974)
(-2.63603e-06 1.83077e-06 0.0811194)
(7.94325e-08 1.51976e-05 0.102403)
(-1.85598e-07 -5.94589e-07 0.102924)
(4.25445e-06 -1.48908e-05 0.100907)
(7.17053e-07 -4.66499e-07 0.102885)
(-9.26151e-08 -1.53502e-05 0.102398)
(-1.86018e-07 -5.9732e-07 0.102924)
(-4.65179e-06 1.42501e-05 0.100925)
(-4.54573e-06 -5.55505e-06 0.09825)
(-5.54519e-06 -4.53948e-06 0.0982493)
(4.55605e-05 4.55862e-05 0.102808)
(4.22877e-06 5.39989e-06 0.0982691)
(5.39735e-06 4.22001e-06 0.0982681)
(6.06129e-08 -9.38398e-06 0.100551)
(7.17124e-07 6.81964e-06 0.0932339)
(-8.04415e-08 9.10519e-06 0.100538)
(-1.10766e-06 -6.59032e-06 0.0932517)
(-1.92626e-06 2.78272e-06 0.0811003)
(1.89006e-06 -2.7552e-06 0.0811188)
(-9.45206e-06 5.15869e-08 0.10055)
(6.7849e-06 6.9297e-07 0.0932334)
(9.17441e-06 -6.45423e-08 0.100538)
(-6.55833e-06 -1.07978e-06 0.0932517)
(7.04897e-07 -6.97075e-07 0.102941)
(-6.95702e-07 7.04588e-07 0.102941)
(7.08735e-07 6.90437e-07 0.102941)
(-7.02375e-07 -7.02441e-07 0.102941)
(7.04974e-07 -6.96818e-07 0.102941)
(-6.95243e-07 7.04107e-07 0.102941)
(7.07639e-07 6.90144e-07 0.102941)
(1.52144e-05 8.15586e-08 0.102403)
(-1.48386e-05 4.21955e-06 0.100907)
(-6.01143e-07 -1.8726e-07 0.102924)
(-4.72989e-07 7.16407e-07 0.102885)
(-1.5367e-05 -8.91893e-08 0.102398)
(1.41891e-05 -4.60988e-06 0.100926)
(-5.99316e-07 -1.87925e-07 0.102924)