/*--------------------------------*- C++ -*----------------------------------*\
| =========                 |                                                 |
| \\      /  F ield         | OpenFOAM: The Open Source CFD Toolbox           |
|  \\    /   O peration     | Version:  2206                                  |
|   \\  /    A nd           | Website:  www.openfoam.com                      |
|    \\/     M anipulation  |                                                 |
\*---------------------------------------------------------------------------*/
FoamFile
{
    version     2.0;
    format      ascii;
    arch        "LSB;label=32;scalar=64";
    class       volScalarField;
    location    "0.5";
    object      nut;
}
// * * * * * * * * * * * * * * * * * * * * * * * * * * * * * * * * * * * * * //

dimensions      [0 2 -1 0 0 0 0];

internalField   nonuniform List<scalar> 
28515
(
0.000236307
0.000239382
0.000239381
0.000248418
0.000234684
0.000234849
0.000234852
0.000242927
0.000234683
0.000234851
0.000234849
0.000242967
0.000234683
0.000234851
0.000234846
0.000242951
0.000234683
0.000234851
0.000234849
0.000242989
0.000234683
0.000234846
0.000234851
0.000242952
0.000234683
0.000234846
0.000234851
0.000242946
0.000234683
0.000234848
0.000234847
0.000242951
0.000234683
0.000234848
0.000234847
0.000242947
0.000234683
0.000234851
0.000234849
0.000242933
0.000234683
0.000234849
0.000234847
0.000242948
0.000234683
0.000234849
0.00023485
0.000242951
0.000244772
0.000253623
0.00025364
0.000244782
0.000253606
0.000253633
0.000241678
0.000241657
0.000241655
0.000241664
0.00025361
0.000253596
0.000244785
0.000253615
0.000253602
0.000244782
0.00024843
0.000242479
0.00023938
0.000239374
0.000234854
0.000234859
0.00024845
0.000242478
0.00023938
0.00023938
0.000234855
0.000234859
0.000239388
0.000234853
0.000234853
0.000248433
0.000242471
0.000239381
0.000234856
0.000234852
0.00024248
0.000242901
0.000242428
0.000234855
0.000234849
0.000234853
0.000234854
0.000242936
0.000242426
0.00023485
0.000234854
0.00023485
0.000234848
0.000234855
0.000234852
0.000234849
0.000242923
0.000242433
0.000234851
0.000234846
0.000234853
0.000242435
0.000242956
0.000242413
0.000234853
0.00023485
0.000234856
0.000234845
0.000242949
0.000242434
0.000234851
0.000234853
0.000234853
0.000234855
0.00023485
0.000234852
0.00023485
0.00024296
0.000242425
0.000234851
0.000234853
0.00023485
0.000242424
0.000242954
0.000242415
0.000234851
0.000234852
0.000234855
0.000234845
0.000242944
0.000242435
0.000234852
0.000234851
0.000234853
0.000234855
0.000234848
0.000234852
0.00023485
0.000242974
0.000242425
0.00023485
0.000234853
0.00023485
0.000242428
0.000242955
0.000242425
0.000234851
0.000234853
0.000234851
0.00023485
0.00024295
0.000242422
0.000234854
0.000234851
0.000234857
0.000234849
0.000234849
0.000234852
0.000234851
0.000242959
0.000242431
0.000234848
0.000234853
0.000234847
0.000242425
0.00024297
0.000242412
0.000234845
0.000234853
0.000234852
0.00023485
0.000242949
0.000242421
0.000234852
0.000234846
0.000234855
0.000234851
0.000234847
0.000234852
0.000234852
0.000242975
0.000242429
0.000234851
0.000234853
0.000234848
0.000242423
0.000242948
0.000242424
0.00023485
0.000234853
0.000234851
0.000234854
0.000242947
0.000242425
0.000234853
0.000234846
0.000234856
0.000234855
0.00023485
0.000234851
0.000234853
0.000242974
0.000242431
0.000234851
0.000234852
0.000234846
0.000242432
0.00024295
0.000242424
0.000234851
0.000234851
0.000234851
0.000234851
0.000242955
0.000242427
0.000234853
0.000234853
0.000234857
0.000234851
0.000234848
0.000234851
0.000234853
0.000242969
0.000242432
0.000234849
0.000234852
0.000234846
0.000242434
0.000242936
0.000242426
0.000234853
0.000234851
0.000234851
0.000234854
0.000242956
0.000242426
0.000234851
0.000234853
0.000234856
0.000234854
0.000234848
0.000234851
0.000234853
0.000242971
0.000242432
0.000234849
0.000234852
0.000234846
0.000242434
0.000242971
0.000242425
0.000234848
0.000234849
0.000234845
0.000234849
0.000242954
0.000242424
0.00023485
0.000234849
0.000234857
0.000234849
0.000234851
0.000234848
0.000234849
0.00024296
0.00024243
0.000234855
0.00023485
0.000234846
0.000242434
0.000242949
0.000242424
0.000234851
0.000234857
0.000234845
0.000234854
0.000242932
0.000242421
0.00023485
0.000234848
0.000234856
0.000234849
0.000234849
0.00023485
0.000234847
0.000242975
0.000242429
0.000234851
0.000234849
0.000234851
0.000242431
0.000242969
0.000234849
0.000234853
0.000242952
0.000234849
0.000234853
0.000234853
0.000242953
0.00023485
3.09056e-05
3.1299e-05
3.09976e-05
3.09974e-05
4.2944e-05
3.19162e-05
0.000222496
3.11299e-05
4.29507e-05
3.19169e-05
3.11297e-05
0.000222296
3.31239e-05
0.000199338
0.000199228
0.000191476
3.633e-05
0.000207971
3.54241e-05
1.709e-05
1.64753e-05
0.000191467
3.63266e-05
0.000207968
3.5421e-05
0.000236307
0.000236307
0.000236307
0.000234686
0.000234686
0.000234686
0.000234686
0.00023824
0.000221621
0.000235715
0.000235156
0.000239769
0.00019828
0.000234811
1.70888e-05
1.64743e-05
0.000238239
0.000235715
0.000221617
0.000235163
0.000239766
0.000234811
0.000198275
0.000185546
0.000185538
0.000243126
0.00017185
0.000171841
0.000191047
3.54223e-05
0.000207026
3.53893e-05
1.6469e-05
1.64618e-05
0.000191046
3.5419e-05
0.000207024
3.5386e-05
0.000234683
0.000234684
0.000234684
0.000234683
0.000234683
0.000234683
0.000234683
0.000238206
0.000219178
0.000234688
0.000234852
0.000239525
0.000197706
0.000234688
1.64676e-05
1.64603e-05
0.000238206
0.000234688
0.000219175
0.000234851
0.000239527
0.000234688
0.000197702
0.000183365
0.000183351
0.000242436
0.00017158
0.000171572
0.000191037
3.54206e-05
0.000207017
3.53887e-05
1.64687e-05
1.64618e-05
0.000191033
3.5418e-05
0.000207015
3.53858e-05
0.000234683
0.000234683
0.000234683
0.000234683
0.000234683
0.000234683
0.000234683
0.000238202
0.000219176
0.000234688
0.000234852
0.000239533
0.000197697
0.000234688
1.6467e-05
1.64601e-05
0.000238201
0.000234687
0.000219175
0.000234857
0.000239536
0.000234688
0.000197692
0.000183359
0.000183346
0.000242428
0.00017158
0.000171569
0.000191046
3.54206e-05
0.000207017
3.53887e-05
1.64687e-05
1.64618e-05
0.000191043
3.54176e-05
0.000207015
3.53856e-05
0.000234683
0.000234683
0.000234683
0.000234683
0.000234683
0.000234683
0.000234683
0.000238198
0.000219177
0.000234688
0.000234852
0.000239531
0.000197695
0.000234687
1.6467e-05
1.64601e-05
0.0002382
0.000234687
0.000219176
0.000234852
0.000239536
0.000234688
0.000197692
0.00018336
0.000183346
0.00024243
0.000171576
0.000171566
0.000191044
3.54207e-05
0.000207017
3.53888e-05
1.64687e-05
1.64617e-05
0.00019104
3.54176e-05
0.000207015
3.53856e-05
0.000234683
0.000234683
0.000234683
0.000234683
0.000234683
0.000234683
0.000234683
0.0002382
0.000219177
0.000234687
0.000234849
0.000239535
0.000197699
0.000234688
1.6467e-05
1.64601e-05
0.000238199
0.000234688
0.000219176
0.000234853
0.000239535
0.000234688
0.000197696
0.00018336
0.000183346
0.000242416
0.000171584
0.000171575
0.000191043
3.54208e-05
0.000207017
3.53889e-05
1.64686e-05
1.64616e-05
0.000191035
3.54176e-05
0.000207015
3.53856e-05
0.000234683
0.000234683
0.000234683
0.000234683
0.000234683
0.000234683
0.000234683
0.0002382
0.000219176
0.000234688
0.000234849
0.000239534
0.000197697
0.000234688
1.6467e-05
1.64602e-05
0.000238198
0.000234688
0.000219172
0.000234853
0.000239533
0.000234688
0.000197691
0.000183359
0.000183345
0.000242414
0.000171581
0.000171574
0.000191034
3.54208e-05
0.000207016
3.53888e-05
1.64685e-05
1.64616e-05
0.000191029
3.54176e-05
0.000207015
3.53856e-05
0.000234683
0.000234683
0.000234683
0.000234683
0.000234683
0.000234683
0.000234683
0.000238195
0.000219175
0.000234687
0.000234852
0.000239532
0.00019769
0.000234688
1.64671e-05
1.64602e-05
0.000238199
0.000234688
0.000219172
0.00023485
0.000239534
0.000234687
0.000197687
0.00018336
0.000183345
0.000242422
0.000171572
0.000171562
0.000191042
3.54208e-05
0.000207017
3.53888e-05
1.64685e-05
1.64616e-05
0.000191034
3.54176e-05
0.000207015
3.53856e-05
0.000234683
0.000234683
0.000234683
0.000234683
0.000234683
0.000234683
0.000234683
0.000238197
0.000219177
0.000234687
0.000234851
0.000239534
0.000197698
0.000234687
1.6467e-05
1.64601e-05
0.0002382
0.000234688
0.000219175
0.000234853
0.000239533
0.000234688
0.000197691
0.000183359
0.000183346
0.000242426
0.00017158
0.000171571
0.000191054
3.54207e-05
0.000207017
3.53888e-05
1.64685e-05
1.64616e-05
0.000191048
3.54176e-05
0.000207015
3.53856e-05
0.000234683
0.000234683
0.000234683
0.000234683
0.000234683
0.000234683
0.000234683
0.000238199
0.000219177
0.000234687
0.000234851
0.000239535
0.000197701
0.000234687
1.6467e-05
1.64601e-05
0.000238203
0.000234688
0.000219177
0.000234853
0.000239535
0.000234688
0.000197699
0.000183359
0.000183346
0.000242428
0.000171581
0.000171571
0.000191049
3.54209e-05
0.000207016
3.5389e-05
1.64685e-05
1.64616e-05
0.000191045
3.54178e-05
0.000207015
3.53858e-05
0.000234683
0.000234683
0.000234683
0.000234683
0.000234683
0.000234683
0.000234683
0.0002382
0.000219177
0.000234688
0.000234853
0.000239533
0.000197703
0.000234688
1.6467e-05
1.64601e-05
0.000238202
0.000234687
0.000219175
0.00023485
0.000239536
0.000234688
0.000197698
0.00018336
0.000183345
0.000242427
0.00017159
0.000171582
0.00019105
3.54211e-05
0.000207017
3.53892e-05
1.64685e-05
1.64616e-05
0.000191047
3.54178e-05
0.000207015
3.53858e-05
0.000234683
0.000234683
0.000234683
0.000234683
0.000234683
0.000234683
0.000234683
0.000238199
0.000219175
0.000234688
0.000234851
0.000239533
0.000197698
0.000234688
1.6467e-05
1.64601e-05
0.000238204
0.000234687
0.000219174
0.000234849
0.000239536
0.000234688
0.000197696
0.000183359
0.000183345
0.000242424
0.000171586
0.000171575
0.000191033
3.54211e-05
0.000207016
3.53892e-05
1.64685e-05
1.64616e-05
3.54178e-05
0.000207015
0.000234683
0.000234683
0.000234683
0.000238195
0.000219173
0.000234688
0.000234852
0.000239531
0.000197688
0.000234688
1.64671e-05
0.000238199
0.000234688
0.000219173
0.000239533
0.000234688
0.000183359
0.000183345
0.000242422
0.00017157
0.000171558
3.31243e-05
0.000199141
0.000199071
1.93616e-05
0.000243605
1.93582e-05
0.000243485
0.000219858
0.00016408
0.000164087
0.000262738
0.000262722
4.29412e-05
3.19162e-05
0.000222434
3.11297e-05
4.29444e-05
3.1916e-05
0.000222478
3.11299e-05
0.000315361
3.89544e-05
0.000247424
0.000204997
0.000315284
3.89538e-05
0.000247357
0.000204994
0.000224262
0.000221017
0.000217435
0.000240084
0.000282034
0.000205919
0.000238936
0.000224243
0.000221027
0.000217432
0.000240077
0.000281958
0.000205904
0.000238935
3.31234e-05
0.000199245
0.000199111
1.93584e-05
0.000243606
0.000219879
0.000164091
0.000164053
0.00026262
0.000262715
1.9361e-05
0.000243506
4.29443e-05
3.19167e-05
0.000222431
3.11299e-05
4.29706e-05
3.19164e-05
3.11297e-05
0.000222351
0.000315482
3.89477e-05
0.000247503
0.000204993
0.000224239
0.000221018
0.000217428
0.000240064
0.000282018
0.000205916
0.000238935
0.000315487
3.89526e-05
0.000247382
0.000204994
0.000224146
0.000221025
0.000240078
0.000217428
0.00020592
0.000281981
0.000238934
3.09056e-05
3.12987e-05
3.09976e-05
3.09976e-05
3.09057e-05
3.12987e-05
3.09974e-05
3.09974e-05
3.09056e-05
3.1299e-05
3.09974e-05
3.09975e-05
0.000218189
0.000206303
0.000237018
0.000237017
0.000212059
0.000212056
0.000236434
0.00021819
0.000206311
0.000237018
0.000237018
0.000212054
0.000212056
0.000236434
0.00021819
0.000206318
0.000237018
0.000237018
0.000212058
0.000212055
0.000236434
0.000218194
0.000206304
0.000237018
0.000237018
0.000212059
0.000212058
0.000236434
4.29388e-05
3.19169e-05
3.11299e-05
0.000222282
0.000224253
0.000221023
0.00021743
0.000240063
0.000282072
0.000205907
0.000238933
0.000315485
3.89534e-05
0.000247339
0.000204987
0.000224281
0.000221018
0.000240078
0.000217435
0.000205914
0.000282015
0.000238932
0.000315396
3.89485e-05
0.000247333
0.000204994
3.31236e-05
0.000199113
0.000199198
1.9361e-05
0.000243464
0.000219884
0.000164057
0.000164035
0.000262637
0.000262742
1.93621e-05
0.000243522
4.29547e-05
3.19165e-05
3.11297e-05
0.000222367
0.000224226
0.00022103
0.000240072
0.000217433
0.000205921
0.000282103
0.000238934
0.000224153
0.000221011
0.000240067
0.00021743
0.000205919
0.000282011
0.000238934
0.000315338
3.89512e-05
0.000247489
0.000204987
0.000315496
3.89473e-05
0.000247359
0.000204991
0.00021986
0.000164079
0.000164058
0.000262769
0.000262722
1.93585e-05
0.000243569
1.93618e-05
0.000243396
1.70904e-05
1.64762e-05
1.7089e-05
1.64746e-05
0.000185551
0.000185539
0.000243121
0.000171838
0.000171831
1.64632e-05
1.64777e-05
1.64616e-05
1.64763e-05
0.000242944
0.000171601
0.000171592
0.000183455
0.000183441
0.000191475
3.63295e-05
0.000207971
3.5423e-05
0.000238238
0.000221617
0.000235715
0.00023516
0.000239768
0.000198276
0.000234811
0.000238237
0.000221619
0.000235715
0.000235157
0.000239767
0.000198268
0.000234811
0.000207108
3.53915e-05
3.5439e-05
0.00019108
0.000207107
3.53906e-05
3.54383e-05
0.00019108
0.000239512
0.000234865
0.000197757
0.000234689
0.000219286
0.000234705
0.000238218
0.000239513
0.000234866
0.000197746
0.000234689
0.000219281
0.000234705
0.000238218
0.000185541
0.00018555
0.000243125
0.00017184
0.000171847
1.70899e-05
1.64759e-05
1.64625e-05
1.64769e-05
0.000242941
0.000171595
0.000171602
0.000183442
0.000183457
1.64631e-05
1.64776e-05
0.000238238
0.000221615
0.000235715
0.000235158
0.000239764
0.000198263
0.000234811
0.000191465
3.63257e-05
0.00020797
3.54199e-05
0.000238238
0.000235715
0.000221616
0.000235156
0.000239767
0.000234811
0.000198261
0.000207106
3.53883e-05
3.5436e-05
0.000191074
0.000239513
0.000234865
0.000197744
0.000234689
0.000219279
0.000234705
0.000238217
0.000207105
3.53869e-05
3.54348e-05
0.000191075
0.000239513
0.000234865
0.000234689
0.000197739
0.000234705
0.000219278
0.000238218
0.000191479
3.63276e-05
0.000207971
3.54229e-05
0.00023824
0.000235715
0.000221616
0.000235158
0.000239767
0.000234811
0.000198278
0.000191477
3.63268e-05
0.000207972
3.54213e-05
0.000239513
0.000234866
0.000197755
0.000234689
0.000219284
0.000234705
0.000238219
0.000207107
3.53904e-05
3.54379e-05
0.00019108
0.000239513
0.000234864
0.000234689
0.000197751
0.000234705
0.000219284
0.000238217
0.000207107
3.53891e-05
3.54365e-05
0.000191077
0.000185537
0.000185543
0.000243126
0.000171833
0.000171842
1.70893e-05
1.64752e-05
1.64612e-05
1.64757e-05
0.000242942
0.000171586
0.000171594
0.000183434
0.000183453
1.64623e-05
1.64768e-05
0.000238239
0.000235715
0.000221615
0.000235156
0.000239768
0.000234811
0.000198268
0.000191475
3.63263e-05
0.000207969
3.54213e-05
0.000191473
3.63262e-05
0.000207971
3.54208e-05
0.000239514
0.000234867
0.000234689
0.00019775
0.000234705
0.000219282
0.000238219
0.000239514
0.000234863
0.000234689
0.000197742
0.000234705
0.000219278
0.000238218
0.000207105
3.53884e-05
3.54363e-05
0.000191078
0.000207106
3.5388e-05
3.54359e-05
0.000191073
1.70896e-05
1.64752e-05
1.70889e-05
1.64747e-05
0.000242963
0.000171599
0.000171593
0.000183452
0.000183439
1.64625e-05
1.6477e-05
1.64617e-05
1.64763e-05
1.64697e-05
1.64626e-05
1.64681e-05
1.6461e-05
0.000183368
0.000183351
0.000242426
0.000171583
0.000171573
1.64622e-05
1.64694e-05
1.64609e-05
1.64679e-05
0.000242942
0.000171583
0.000171573
0.000183361
0.000183347
0.000191047
3.54215e-05
0.000207027
3.53884e-05
0.000238209
0.000219177
0.000234688
0.000234855
0.000239526
0.000197704
0.000234688
0.000238208
0.000219174
0.000234688
0.000234852
0.000239526
0.000197693
0.000234688
0.000207018
3.53887e-05
3.54211e-05
0.00019104
0.000207018
3.53883e-05
3.54202e-05
0.000191042
0.000239531
0.000234854
0.000197697
0.000234688
0.000219176
0.000234688
0.000238201
0.000239528
0.000234857
0.000197686
0.000234688
0.000219172
0.000234688
0.000238201
0.000183354
0.00018337
0.000242441
0.000171575
0.000171592
1.64696e-05
1.64625e-05
1.64618e-05
1.64687e-05
0.000242926
0.000171577
0.000171588
0.000183348
0.000183366
1.64623e-05
1.64692e-05
0.000238207
0.000219172
0.000234688
0.000234858
0.000239527
0.000197691
0.000234688
0.000191047
3.54177e-05
0.000207026
3.53844e-05
0.000238209
0.000234688
0.000219173
0.00023485
0.000239529
0.000234688
0.000197688
0.000207016
3.5386e-05
3.54179e-05
0.000191038
0.000239528
0.000234851
0.000197684
0.000234688
0.000219169
0.000234688
0.000238202
0.000207017
3.53842e-05
3.54162e-05
0.000191039
0.00023953
0.000234853
0.000234688
0.000197681
0.000234688
0.000219172
0.000238205
0.000191043
3.54212e-05
0.000207026
3.53882e-05
0.000238206
0.000234688
0.000219174
0.000234853
0.000239527
0.000234688
0.0001977
0.000191045
3.54199e-05
0.000207026
3.53866e-05
0.000239533
0.000234848
0.000197698
0.000234688
0.000219176
0.000234688
0.000238201
0.000207017
3.5388e-05
3.54199e-05
0.000191042
0.000239532
0.000234852
0.000234687
0.000197693
0.000234688
0.000219175
0.000238201
0.000207018
3.53863e-05
3.54183e-05
0.000191042
0.000183347
0.000183366
0.000242439
0.000171567
0.000171583
1.6469e-05
1.64615e-05
1.64601e-05
1.6467e-05
0.000242946
0.000171568
0.00017158
0.000183342
0.00018336
1.64615e-05
1.64684e-05
0.000238204
0.000234688
0.000219171
0.00023485
0.000239528
0.000234688
0.000197688
0.000191043
3.54195e-05
0.000207026
3.53864e-05
0.000191044
3.5419e-05
0.000207026
3.53857e-05
0.000239532
0.00023485
0.000234688
0.000197693
0.000234688
0.000219173
0.000238202
0.000239532
0.000234854
0.000234688
0.00019768
0.000234688
0.00021917
0.000238203
0.000207017
3.53863e-05
3.54182e-05
0.00019104
0.000207017
3.53854e-05
3.54174e-05
0.000191039
1.6469e-05
1.64614e-05
1.64682e-05
1.64607e-05
0.000242929
0.000171579
0.000171568
0.000183359
0.000183347
1.64614e-05
1.64682e-05
1.64607e-05
1.64676e-05
1.64691e-05
1.64623e-05
1.64678e-05
1.64609e-05
0.000183361
0.000183346
0.000242416
0.000171577
0.000171566
1.64623e-05
1.64691e-05
1.64609e-05
1.64678e-05
0.000242969
0.000171588
0.000171577
0.000183361
0.000183346
0.000191037
3.54203e-05
0.000207017
3.53883e-05
0.000238199
0.000219176
0.000234688
0.000234853
0.000239533
0.000197694
0.000234688
0.000238199
0.000219173
0.000234688
0.000234852
0.000239532
0.000197684
0.000234688
0.000207017
3.53887e-05
3.54206e-05
0.000191045
0.000207017
3.53883e-05
3.54203e-05
0.000191042
0.000239533
0.000234851
0.000197699
0.000234688
0.000219177
0.000234688
0.0002382
0.000239534
0.000234852
0.000197685
0.000234688
0.000219175
0.000234688
0.000238199
0.000183348
0.000183365
0.000242413
0.000171576
0.000171583
1.64692e-05
1.64623e-05
1.64618e-05
1.64687e-05
0.000242944
0.000171578
0.000171586
0.000183349
0.000183365
1.64624e-05
1.64692e-05
0.0002382
0.000219171
0.000234688
0.000234851
0.000239534
0.00019768
0.000234688
0.000191035
3.54162e-05
0.000207015
3.53842e-05
0.0002382
0.000234688
0.000219168
0.000234851
0.000239534
0.000234688
0.000197676
0.000207015
3.53856e-05
3.54178e-05
0.000191044
0.000239535
0.000234851
0.000197686
0.000234688
0.000219172
0.000234688
0.000238199
0.000207015
3.53842e-05
3.54162e-05
0.000191043
0.000239535
0.000234851
0.000234688
0.00019768
0.000234688
0.000219171
0.000238201
0.000191044
3.54199e-05
0.000207017
3.5388e-05
0.0002382
0.000234688
0.000219178
0.000234846
0.000239534
0.000234688
0.000197693
0.000191045
3.54182e-05
0.000207017
3.53863e-05
0.000239531
0.000234854
0.000197695
0.000234688
0.000219175
0.000234688
0.000238197
0.000207016
3.5388e-05
3.542e-05
0.00019104
0.000239535
0.000234854
0.000234688
0.000197694
0.000234688
0.000219177
0.000238197
0.000207016
3.53863e-05
3.54182e-05
0.000191038
0.00018334
0.000183361
0.000242426
0.000171562
0.000171573
1.64684e-05
1.64615e-05
1.64601e-05
1.6467e-05
0.000242953
0.000171567
0.000171578
0.00018334
0.00018336
1.64615e-05
1.64684e-05
0.000238201
0.000234688
0.000219171
0.00023485
0.000239534
0.000234688
0.00019768
0.000191038
3.54181e-05
0.000207015
3.5386e-05
0.00019104
3.54174e-05
0.000207015
3.53854e-05
0.000239533
0.000234852
0.000234688
0.000197692
0.000234688
0.000219176
0.000238198
0.000239533
0.000234852
0.000234688
0.000197682
0.000234688
0.000219171
0.000238203
0.000207016
3.5386e-05
3.54179e-05
0.000191038
0.000207016
3.53854e-05
3.54174e-05
0.000191037
1.64682e-05
1.64614e-05
1.64676e-05
1.64607e-05
0.00024293
0.000171583
0.000171576
0.00018336
0.000183346
1.64614e-05
1.64682e-05
1.64607e-05
1.64676e-05
1.64692e-05
1.64623e-05
1.64678e-05
1.64609e-05
0.000183361
0.000183346
0.000242416
0.000171587
0.000171575
1.64625e-05
1.64694e-05
1.64609e-05
1.64677e-05
0.00024297
0.000171591
0.00017158
0.00018336
0.000183346
0.000191044
3.54203e-05
0.000207017
3.53883e-05
0.000238201
0.000219177
0.000234687
0.000234852
0.000239534
0.000197698
0.000234688
0.0002382
0.000219175
0.000234688
0.000234852
0.000239534
0.000197686
0.000234688
0.000207017
3.53888e-05
3.54207e-05
0.000191049
0.000207017
3.53883e-05
3.54202e-05
0.000191048
0.000239535
0.000234851
0.0001977
0.000234688
0.000219177
0.000234688
0.000238201
0.000239535
0.000234852
0.000197689
0.000234687
0.000219176
0.000234688
0.000238201
0.000183349
0.000183365
0.000242413
0.000171577
0.000171586
1.64692e-05
1.64623e-05
1.64618e-05
1.64687e-05
0.000242944
0.000171581
0.000171596
0.000183349
0.000183365
1.64623e-05
1.64692e-05
0.000238201
0.000219172
0.000234688
0.000234853
0.000239534
0.000197684
0.000234688
0.000191042
3.54162e-05
0.000207016
3.53842e-05
0.000238202
0.000234688
0.000219171
0.000234851
0.000239534
0.000234688
0.000197679
0.000207015
3.53856e-05
3.54176e-05
0.000191044
0.000239535
0.000234851
0.000197687
0.000234688
0.000219172
0.000234687
0.000238202
0.000207015
3.53842e-05
3.54162e-05
0.000191044
0.000239534
0.000234851
0.000234688
0.000197683
0.000234688
0.000219172
0.000238201
0.000191038
3.542e-05
0.000207016
3.5388e-05
0.000238198
0.000234688
0.000219177
0.00023485
0.000239534
0.000234688
0.000197689
0.000191038
3.54182e-05
0.000207016
3.53863e-05
0.000239535
0.000234854
0.000197701
0.000234688
0.000219176
0.000234688
0.0002382
0.000207017
3.5388e-05
3.54199e-05
0.000191046
0.000239535
0.00023485
0.000234687
0.000197697
0.000234688
0.000219178
0.0002382
0.000207016
3.53862e-05
3.54182e-05
0.000191045
0.00018334
0.00018336
0.000242429
0.000171565
0.000171579
1.64684e-05
1.64615e-05
1.64601e-05
1.6467e-05
0.000242974
0.000171568
0.000171585
0.000183341
0.00018336
1.64615e-05
1.64684e-05
0.000238202
0.000234688
0.000219171
0.000234848
0.000239535
0.000234687
0.000197677
0.000191038
3.54179e-05
0.000207015
3.5386e-05
0.000191036
3.54174e-05
0.000207016
3.53854e-05
0.000239536
0.000234845
0.000234687
0.000197698
0.000234688
0.000219177
0.000238201
0.000239536
0.000234853
0.000234688
0.000197685
0.000234688
0.000219172
0.000238203
0.000207016
3.5386e-05
3.54179e-05
0.000191044
0.000207016
3.53854e-05
3.54174e-05
0.000191041
1.64683e-05
1.64614e-05
1.64676e-05
1.64607e-05
0.000242952
0.000171585
0.000171577
0.00018336
0.000183346
1.64613e-05
1.64682e-05
1.64607e-05
1.64676e-05
1.64694e-05
1.64625e-05
1.64677e-05
1.64609e-05
0.000183361
0.000183346
0.000242426
0.000171592
0.000171579
1.64625e-05
1.64694e-05
1.64609e-05
1.64677e-05
0.000242954
0.000171588
0.000171577
0.000183362
0.000183346
0.000191044
3.54203e-05
0.000207017
3.53883e-05
0.000238201
0.000219177
0.000234688
0.000234851
0.000239534
0.0001977
0.000234688
0.0002382
0.000219175
0.000234688
0.000234851
0.000239534
0.000197689
0.000234688
0.000207017
3.53888e-05
3.54207e-05
0.00019105
0.000207017
3.53883e-05
3.54203e-05
0.000191048
0.000239534
0.000234849
0.000197698
0.000234688
0.000219176
0.000234688
0.000238201
0.000239533
0.000234854
0.000197688
0.000234688
0.000219173
0.000234688
0.000238201
0.000183349
0.000183365
0.000242426
0.00017158
0.000171596
1.64692e-05
1.64623e-05
1.64617e-05
1.64686e-05
0.000242965
0.000171577
0.000171592
0.000183349
0.000183365
1.64623e-05
1.64692e-05
0.0002382
0.000219171
0.000234687
0.000234857
0.000239535
0.000197686
0.000234688
0.000191041
3.54162e-05
0.000207015
3.53842e-05
0.000238201
0.000234688
0.000219171
0.000234853
0.000239536
0.000234688
0.000197683
0.000207015
3.53856e-05
3.54176e-05
0.000191047
0.000239534
0.000234852
0.000197684
0.000234688
0.000219171
0.000234688
0.000238202
0.000207015
3.53842e-05
3.54162e-05
0.000191049
0.000239534
0.000234857
0.000234688
0.000197682
0.000234688
0.000219169
0.000238201
0.000191043
3.54199e-05
0.000207017
3.5388e-05
0.000238201
0.000234688
0.000219178
0.000234854
0.000239533
0.000234688
0.000197697
0.000191042
3.54182e-05
0.000207017
3.53863e-05
0.000239537
0.000234848
0.000197698
0.000234688
0.000219175
0.000234688
0.000238201
0.000207016
3.5388e-05
3.54199e-05
0.000191047
0.000239535
0.000234856
0.000234688
0.000197696
0.000234688
0.000219175
0.0002382
0.000207017
3.53863e-05
3.54182e-05
0.000191047
0.00018334
0.000183361
0.00024243
0.000171572
0.000171589
1.64684e-05
1.64615e-05
1.64601e-05
1.6467e-05
0.000242953
0.000171567
0.000171589
0.000183341
0.00018336
1.64615e-05
1.64684e-05
0.000238201
0.000234688
0.000219173
0.000234848
0.000239535
0.000234688
0.000197683
0.000191041
3.54179e-05
0.000207016
3.5386e-05
0.000191038
3.54174e-05
0.000207016
3.53854e-05
0.000239535
0.000234847
0.000234688
0.000197696
0.000234687
0.000219173
0.000238202
0.000239536
0.000234849
0.000234688
0.000197682
0.000234688
0.00021917
0.000238199
0.000207016
3.5386e-05
3.54179e-05
0.000191047
0.000207016
3.53854e-05
3.54174e-05
0.000191044
1.64682e-05
1.64613e-05
1.64676e-05
1.64607e-05
0.000242952
0.000171583
0.000171573
0.000183359
0.000183345
1.64613e-05
1.64682e-05
1.64607e-05
1.64676e-05
1.64696e-05
1.64627e-05
1.64678e-05
1.64609e-05
0.000183362
0.000183346
0.000242424
0.000171578
0.000171567
1.64627e-05
1.64696e-05
1.64609e-05
1.64678e-05
0.000242953
0.000171576
0.000171565
0.000183362
0.000183345
0.00019104
3.54203e-05
0.000207017
3.53883e-05
0.0002382
0.000219178
0.000234688
0.000234851
0.000239532
0.000197693
0.000234688
0.000238199
0.000219172
0.000234688
0.000234851
0.000239532
0.000197683
0.000234688
0.000207016
3.53888e-05
3.54208e-05
0.000191033
0.000207017
3.53883e-05
3.54203e-05
0.000191034
0.000239529
0.000234849
0.00019769
0.000234688
0.000219177
0.000234688
0.000238195
0.000239531
0.000234854
0.000197681
0.000234688
0.000219171
0.000234688
0.000238197
0.000183348
0.000183365
0.000242424
0.000171573
0.000171591
1.64692e-05
1.64623e-05
1.64616e-05
1.64685e-05
0.000242963
0.000171571
0.000171582
0.000183348
0.000183365
1.64624e-05
1.64692e-05
0.000238199
0.000219169
0.000234688
0.000234857
0.000239532
0.000197678
0.000234688
0.000191035
3.54162e-05
0.000207015
3.53843e-05
0.0002382
0.000234687
0.00021917
0.000234853
0.000239532
0.000234688
0.000197675
0.000207015
3.53856e-05
3.54176e-05
0.000191028
0.000239534
0.000234852
0.000197676
0.000234688
0.00021917
0.000234688
0.000238197
0.000207015
3.53842e-05
3.54162e-05
0.000191029
0.000239534
0.000234857
0.000234688
0.000197674
0.000234688
0.000219167
0.000238197
0.000191042
3.54199e-05
0.000207016
3.5388e-05
0.0002382
0.000234688
0.000219176
0.000234854
0.000239534
0.000234688
0.000197694
0.000191043
3.54182e-05
0.000207016
3.53863e-05
0.000239532
0.000234848
0.000197692
0.000234688
0.000219174
0.000234688
0.000238198
0.000207016
3.5388e-05
3.54199e-05
0.000191037
0.000239533
0.000234856
0.000234688
0.000197693
0.000234688
0.000219174
0.000238198
0.000207016
3.53863e-05
3.54182e-05
0.000191038
0.000183341
0.00018336
0.000242427
0.000171562
0.000171582
1.64684e-05
1.64615e-05
1.64602e-05
1.64671e-05
0.000242951
0.000171561
0.000171577
0.00018334
0.00018336
1.64615e-05
1.64684e-05
0.0002382
0.000234688
0.000219172
0.000234848
0.000239534
0.000234688
0.00019768
0.000191039
3.54179e-05
0.000207016
3.5386e-05
0.000191039
3.54174e-05
0.000207016
3.53854e-05
0.000239533
0.000234847
0.000234688
0.000197689
0.000234688
0.000219172
0.000238199
0.000239532
0.000234849
0.000234688
0.000197679
0.000234688
0.000219169
0.000238198
0.000207015
3.5386e-05
3.54179e-05
0.000191032
0.000207016
3.53855e-05
3.54174e-05
0.000191032
1.64682e-05
1.64613e-05
1.64676e-05
1.64607e-05
0.000242951
0.00017158
0.000171572
0.000183359
0.000183345
1.64614e-05
1.64682e-05
1.64607e-05
1.64676e-05
1.64696e-05
1.64627e-05
1.64678e-05
1.64609e-05
0.000183362
0.000183346
0.000242422
0.000171576
0.000171566
1.64626e-05
1.64695e-05
1.64609e-05
1.64678e-05
0.00024295
0.000171582
0.000171573
0.000183361
0.000183346
0.000191035
3.54203e-05
0.000207017
3.53883e-05
0.000238199
0.000219178
0.000234688
0.000234855
0.000239531
0.000197691
0.000234688
0.000238195
0.000219171
0.000234688
0.000234844
0.000239532
0.00019768
0.000234687
0.000207017
3.53888e-05
3.54208e-05
0.000191042
0.000207017
3.53883e-05
3.54203e-05
0.000191038
0.000239534
0.000234851
0.000197696
0.000234688
0.000219177
0.000234688
0.000238201
0.000239533
0.000234852
0.000197683
0.000234688
0.000219173
0.000234688
0.000238197
0.000183348
0.000183365
0.000242433
0.000171568
0.000171575
1.64692e-05
1.64624e-05
1.64616e-05
1.64685e-05
0.000242944
0.000171571
0.00017158
0.000183348
0.000183363
1.64623e-05
1.64692e-05
0.000238197
0.000219171
0.000234688
0.000234855
0.000239533
0.000197679
0.000234688
0.00019103
3.54162e-05
0.000207015
3.53842e-05
0.000238198
0.000234688
0.00021917
0.000234855
0.000239534
0.000234688
0.000197676
0.000207015
3.53856e-05
3.54176e-05
0.00019104
0.000239535
0.00023485
0.000197682
0.000234688
0.000219174
0.000234688
0.000238198
0.000207015
3.53842e-05
3.54162e-05
0.000191039
0.000239535
0.000234853
0.000234687
0.000197678
0.000234688
0.000219172
0.0002382
0.000191033
3.542e-05
0.000207016
3.5388e-05
0.000238196
0.000234688
0.000219175
0.000234855
0.000239531
0.000234688
0.000197687
0.000191034
3.54182e-05
0.000207016
3.53863e-05
0.000239532
0.000234851
0.000197693
0.000234688
0.000219176
0.000234688
0.000238196
0.000207016
3.5388e-05
3.542e-05
0.000191037
0.000239534
0.000234856
0.000234688
0.00019769
0.000234688
0.000219175
0.000238199
0.000207016
3.53863e-05
3.54182e-05
0.000191037
0.000183341
0.00018336
0.000242426
0.000171562
0.000171571
1.64684e-05
1.64615e-05
1.64601e-05
1.6467e-05
0.000242968
0.000171563
0.000171576
0.000183341
0.00018336
1.64615e-05
1.64684e-05
0.000238198
0.000234688
0.000219171
0.000234851
0.000239533
0.000234688
0.000197675
0.000191033
3.54179e-05
0.000207015
3.5386e-05
0.000191033