/*--------------------------------*- C++ -*----------------------------------*\
| =========                 |                                                 |
| \\      /  F ield         | OpenFOAM: The Open Source CFD Toolbox           |
|  \\    /   O peration     | Version:  2206                                  |
|   \\  /    A nd           | Website:  www.openfoam.com                      |
|    \\/     M anipulation  |                                                 |
\*---------------------------------------------------------------------------*/
FoamFile
{
    version     2.0;
    format      ascii;
    arch        "LSB;label=32;scalar=64";
    class       volScalarField;
    location    "25";
    object      p;
}
// * * * * * * * * * * * * * * * * * * * * * * * * * * * * * * * * * * * * * //

dimensions      [0 2 -2 0 0 0 0];

internalField   nonuniform List<scalar> 
171728
(
0.00406918
0.00406952
0.00406952
0.00407257
0.00401383
0.00401425
0.00401425
0.00401723
0.00396305
0.00396305
0.00396305
0.00396585
0.00391072
0.00391075
0.00391075
0.00391353
0.0038597
0.00385953
0.00385952
0.00386212
0.003813
0.00381286
0.00381286
0.00381533
0.00376968
0.00376963
0.00376963
0.00377219
0.00372678
0.00372674
0.00372674
0.00372926
0.00368394
0.0036839
0.0036839
0.00368643
0.0036411
0.00364107
0.00364107
0.00364359
0.00359827
0.00359824
0.00359824
0.00360076
0.00355544
0.00355541
0.00355541
0.00355793
0.00351261
0.00351257
0.00351257
0.0035151
0.00346978
0.00346974
0.00346974
0.00347227
0.00342695
0.00342691
0.00342691
0.00342944
0.00338412
0.00338408
0.00338408
0.00338661
0.00334128
0.00334125
0.00334125
0.00334378
0.00329845
0.00329842
0.00329842
0.00330094
0.00325562
0.00325559
0.00325559
0.00325811
0.00321279
0.00321276
0.00321276
0.00321528
0.00316996
0.00316993
0.00316993
0.00317245
0.00312713
0.0031271
0.0031271
0.00312962
0.0030843
0.00308427
0.00308427
0.00308679
0.00304147
0.00304144
0.00304144
0.00304396
0.00299864
0.00299861
0.00299861
0.00300113
0.00295581
0.00295578
0.00295578
0.0029583
0.00291298
0.00291295
0.00291295
0.00291547
0.00287015
0.00287012
0.00287012
0.00287264
0.00282732
0.00282729
0.00282729
0.00282981
0.0027845
0.00278446
0.00278446
0.00278699
0.00274167
0.00274164
0.00274164
0.00274416
0.00269884
0.00269881
0.00269881
0.00270133
0.00265602
0.00265599
0.00265599
0.00265851
0.00261319
0.00261316
0.00261316
0.00261569
0.00257037
0.00257034
0.00257034
0.00257286
0.00252755
0.00252751
0.00252751
0.00253004
0.00248472
0.00248469
0.00248469
0.00248721
0.0024419
0.00244186
0.00244186
0.00244439
0.00239907
0.00239904
0.00239904
0.00240156
0.00235625
0.00235622
0.00235622
0.00235874
0.00231343
0.0023134
0.0023134
0.00231592
0.00227061
0.00227058
0.00227058
0.0022731
0.00222779
0.00222776
0.00222776
0.00223028
0.00218497
0.00218494
0.00218494
0.00218746
0.00214215
0.00214212
0.00214212
0.00214464
0.00209933
0.0020993
0.0020993
0.00210182
0.00205651
0.00205648
0.00205648
0.00205901
0.0020137
0.00201366
0.00201366
0.00201619
0.00197088
0.00197084
0.00197084
0.00197337
0.00192806
0.00192802
0.00192803
0.00193055
0.00188524
0.0018852
0.0018852
0.00188773
0.00184242
0.00184238
0.00184238
0.00184491
0.0017996
0.00179956
0.00179956
0.00180209
0.00175677
0.00175674
0.00175674
0.00175927
0.00171395
0.00171392
0.00171392
0.00171644
0.00167113
0.00167109
0.00167109
0.00167362
0.0016283
0.00162827
0.00162827
0.00163079
0.00158548
0.00158545
0.00158545
0.00158797
0.00154266
0.00154263
0.00154263
0.00154515
0.00149984
0.0014998
0.0014998
0.00150233
0.00145701
0.00145698
0.00145698
0.00145951
0.00141419
0.00141416
0.00141416
0.00141668
0.00137137
0.00137134
0.00137134
0.00137386
0.00132855
0.00132851
0.00132851
0.00133104
0.00128573
0.00128569
0.00128569
0.00128822
0.00124291
0.00124287
0.00124287
0.0012454
0.00120008
0.00120005
0.00120005
0.00120257
0.00115726
0.00115723
0.00115723
0.00115975
0.00111444
0.00111441
0.00111441
0.00111693
0.00107162
0.00107159
0.00107159
0.00107411
0.0010288
0.00102876
0.00102876
0.00103129
0.000985973
0.00098594
0.00098594
0.000988464
0.00094315
0.000943116
0.000943116
0.000945641
0.000900327
0.000900293
0.000900293
0.000902817
0.000857504
0.00085747
0.00085747
0.000859994
0.000814681
0.000814647
0.000814647
0.000817171
0.000771859
0.000771825
0.000771825
0.00077435
0.000729038
0.000729004
0.000729004
0.000731528
0.000686217
0.000686184
0.000686184
0.000688708
0.000643397
0.000643364
0.000643364
0.000645888
0.000600577
0.000600543
0.000600543
0.000603067
0.000557757
0.000557723
0.000557723
0.000560247
0.000514937
0.000514903
0.000514903
0.000517427
0.000472116
0.000472082
0.000472082
0.000474606
0.000429295
0.000429261
0.000429261
0.000431785
0.000386475
0.000386442
0.000386442
0.000388966
0.000343658
0.000343624
0.000343624
0.000346148
0.00030084
0.000300807
0.000300807
0.000303331
0.000258021
0.000257989
0.000257989
0.000260512
0.000215196
0.000215157
0.000215157
0.000217678
0.000172378
0.000172359
0.000172359
0.00017487
0.000129537
0.000129496
0.000129496
0.000131998
8.67152e-05
8.66695e-05
8.66684e-05
8.91335e-05
4.45567e-05
4.39992e-05
4.39963e-05
4.6332e-05
9.65226e-06
9.89846e-06
9.89627e-06
9.45077e-06
0.0040826
0.00408282
0.00408282
0.0040826
0.00408282
0.00408282
0.00408358
0.00408358
0.00408358
0.00408358
0.00408282
0.00408282
0.0040826
0.00408282
0.00408282
0.0040826
0.00407257
0.00402381
0.00406951
0.00406951
0.00402608
0.00402608
0.00407257
0.00402381
0.00406952
0.00406951
0.00402608
0.00402608
0.00406951
0.00402608
0.00402608
0.00407257
0.00402381
0.00406952
0.00402608
0.00402607
0.00402381
0.00401723
0.00397275
0.00401425
0.00401425
0.00397616
0.00397616
0.00401723
0.00397275
0.00401425
0.00401425
0.00397616
0.00397616
0.00401425
0.00397616
0.00397616
0.00401723
0.00397275
0.00401425
0.00397616
0.00397616
0.00397275
0.00396585
0.0039204
0.00396305
0.00396305
0.00392366
0.00392366
0.00396585
0.0039204
0.00396305
0.00396305
0.00392366
0.00392366
0.00396305
0.00392366
0.00392366
0.00396585
0.00392039
0.00396305
0.00392366
0.00392366
0.00392039
0.00391353
0.00386879
0.00391075
0.00391075
0.00387204
0.00387204
0.00391353
0.00386879
0.00391075
0.00391075
0.00387204
0.00387204
0.00391075
0.00387204
0.00387204
0.00391353
0.00386879
0.00391075
0.00387204
0.00387204
0.00386879
0.00386212
0.00382113
0.00385953
0.00385953
0.00382399
0.00382398
0.00386212
0.00382112
0.00385953
0.00385953
0.00382399
0.00382399
0.00385953
0.00382398
0.00382399
0.00386212
0.00382113
0.00385952
0.00382399
0.00382398
0.00382113
0.00381533
0.00377787
0.00381286
0.00381285
0.00378038
0.00378038
0.00381533
0.00377786
0.00381286
0.00381286
0.00378038
0.00378038
0.00381286
0.00378038
0.00378039
0.00381533
0.00377786
0.00381286
0.00378039
0.00378039
0.00377787
0.00377219
0.00373493
0.00376963
0.00376963
0.00373745
0.00373745
0.00377219
0.00373493
0.00376963
0.00376963
0.00373745
0.00373745
0.00376963
0.00373745
0.00373745
0.00377219
0.00373493
0.00376963
0.00373745
0.00373745
0.00373493
0.00372926
0.00369209
0.00372674
0.00372674
0.00369461
0.00369461
0.00372926
0.00369209
0.00372674
0.00372674
0.00369461
0.00369461
0.00372674
0.00369461
0.00369461
0.00372926
0.00369209
0.00372674
0.00369461
0.00369461
0.00369209
0.00368643
0.00364926
0.0036839
0.0036839
0.00365178
0.00365178
0.00368643
0.00364926
0.0036839
0.0036839
0.00365178
0.00365178
0.0036839
0.00365178
0.00365178
0.00368643
0.00364926
0.0036839
0.00365178
0.00365178
0.00364926
0.00364359
0.00360643
0.00364107
0.00364107
0.00360895
0.00360895
0.00364359
0.00360643
0.00364107
0.00364107
0.00360895
0.00360895
0.00364107
0.00360895
0.00360895
0.00364359
0.00360643
0.00364107
0.00360895
0.00360895
0.00360643
0.00360076
0.00356359
0.00359824
0.00359824
0.00356611
0.00356611
0.00360076
0.00356359
0.00359824
0.00359824
0.00356611
0.00356611
0.00359824
0.00356611
0.00356611
0.00360076
0.00356359
0.00359824
0.00356611
0.00356611
0.00356359
0.00355793
0.00352076
0.00355541
0.00355541
0.00352328
0.00352328
0.00355793
0.00352076
0.00355541
0.00355541
0.00352328
0.00352328
0.00355541
0.00352328
0.00352328
0.00355793
0.00352076
0.00355541
0.00352328
0.00352328
0.00352076
0.0035151
0.00347793
0.00351257
0.00351257
0.00348045
0.00348045
0.0035151
0.00347793
0.00351257
0.00351257
0.00348045
0.00348045
0.00351257
0.00348045
0.00348045
0.0035151
0.00347793
0.00351257
0.00348045
0.00348045
0.00347793
0.00347227
0.0034351
0.00346974
0.00346974
0.00343762
0.00343762
0.00347227
0.0034351
0.00346974
0.00346974
0.00343762
0.00343762
0.00346974
0.00343762
0.00343762
0.00347227
0.0034351
0.00346974
0.00343762
0.00343762
0.0034351
0.00342944
0.00339227
0.00342691
0.00342691
0.00339479
0.00339479
0.00342944
0.00339227
0.00342691
0.00342691
0.00339479
0.00339479
0.00342691
0.00339479
0.00339479
0.00342944
0.00339227
0.00342691
0.00339479
0.00339479
0.00339227
0.00338661
0.00334944
0.00338408
0.00338408
0.00335196
0.00335196
0.00338661
0.00334944
0.00338408
0.00338408
0.00335196
0.00335196
0.00338408
0.00335196
0.00335196
0.00338661
0.00334944
0.00338408
0.00335196
0.00335196
0.00334944
0.00334378
0.00330661
0.00334125
0.00334125
0.00330913
0.00330913
0.00334378
0.00330661
0.00334125
0.00334125
0.00330913
0.00330913
0.00334125
0.00330913
0.00330913
0.00334378
0.00330661
0.00334125
0.00330913
0.00330913
0.00330661
0.00330095
0.00326378
0.00329842
0.00329842
0.0032663
0.0032663
0.00330095
0.00326378
0.00329842
0.00329842
0.0032663
0.0032663
0.00329842
0.0032663
0.0032663
0.00330094
0.00326378
0.00329842
0.0032663
0.0032663
0.00326378
0.00325811
0.00322095
0.00325559
0.00325559
0.00322347
0.00322347
0.00325811
0.00322095
0.00325559
0.00325559
0.00322347
0.00322347
0.00325559
0.00322347
0.00322347
0.00325811
0.00322095
0.00325559
0.00322347
0.00322347
0.00322095
0.00321528
0.00317812
0.00321276
0.00321276
0.00318064
0.00318064
0.00321528
0.00317812
0.00321276
0.00321276
0.00318064
0.00318064
0.00321276
0.00318064
0.00318064
0.00321528
0.00317812
0.00321276
0.00318064
0.00318064
0.00317812
0.00317245
0.00313529
0.00316993
0.00316993
0.00313781
0.00313781
0.00317245
0.00313529
0.00316993
0.00316993
0.00313781
0.00313781
0.00316993
0.00313781
0.00313781
0.00317245
0.00313529
0.00316993
0.00313781
0.00313781
0.00313529
0.00312962
0.00309246
0.0031271
0.0031271
0.00309498
0.00309498
0.00312962
0.00309246
0.0031271
0.0031271
0.00309498
0.00309498
0.0031271
0.00309498
0.00309498
0.00312962
0.00309246
0.0031271
0.00309498
0.00309498
0.00309246
0.00308679
0.00304963
0.00308427
0.00308427
0.00305215
0.00305215
0.00308679
0.00304963
0.00308427
0.00308427
0.00305215
0.00305215
0.00308427
0.00305215
0.00305214
0.00308679
0.00304963
0.00308427
0.00305214
0.00305214
0.00304963
0.00304396
0.0030068
0.00304144
0.00304144
0.00300932
0.00300932
0.00304396
0.0030068
0.00304144
0.00304144
0.00300932
0.00300932
0.00304144
0.00300932
0.00300932
0.00304396
0.0030068
0.00304144
0.00300932
0.00300932
0.0030068
0.00300113
0.00296397
0.00299861
0.00299861
0.00296649
0.00296649
0.00300113
0.00296397
0.00299861
0.00299861
0.00296649
0.00296649
0.00299861
0.00296649
0.00296649
0.00300113
0.00296397
0.00299861
0.00296649
0.00296649
0.00296397
0.0029583
0.00292114
0.00295578
0.00295578
0.00292366
0.00292366
0.0029583
0.00292114
0.00295578
0.00295578
0.00292366
0.00292366
0.00295578
0.00292366
0.00292366
0.0029583
0.00292114
0.00295578
0.00292366
0.00292366
0.00292114
0.00291547
0.00287831
0.00291295
0.00291295
0.00288083
0.00288083
0.00291547
0.00287831
0.00291295
0.00291295
0.00288083
0.00288083
0.00291295
0.00288083
0.00288083
0.00291547
0.00287831
0.00291295
0.00288083
0.00288083
0.00287831
0.00287264
0.00283548
0.00287012
0.00287012
0.002838
0.002838
0.00287264
0.00283548
0.00287012
0.00287012
0.002838
0.002838
0.00287012
0.002838
0.002838
0.00287264
0.00283548
0.00287012
0.002838
0.002838
0.00283548
0.00282981
0.00279265
0.00282729
0.00282729
0.00279517
0.00279517
0.00282981
0.00279265
0.00282729
0.00282729
0.00279517
0.00279517
0.00282729
0.00279517
0.00279517
0.00282981
0.00279265
0.00282729
0.00279517
0.00279517
0.00279265
0.00278699
0.00274982
0.00278446
0.00278446
0.00275234
0.00275234
0.00278699
0.00274982
0.00278446
0.00278446
0.00275234
0.00275234
0.00278446
0.00275234
0.00275234
0.00278699
0.00274982
0.00278446
0.00275234
0.00275234
0.00274982
0.00274416
0.002707
0.00274164
0.00274164
0.00270952
0.00270952
0.00274416
0.002707
0.00274164
0.00274164
0.00270952
0.00270952
0.00274164
0.00270952
0.00270952
0.00274416
0.002707
0.00274164
0.00270952
0.00270952
0.002707
0.00270133
0.00266417
0.00269881
0.00269881
0.00266669
0.00266669
0.00270133
0.00266417
0.00269881
0.00269881
0.00266669
0.00266669
0.00269881
0.00266669
0.00266669
0.00270133
0.00266417
0.00269881
0.00266669
0.00266669
0.00266417
0.00265851
0.00262135
0.00265599
0.00265599
0.00262387
0.00262387
0.00265851
0.00262135
0.00265599
0.00265599
0.00262387
0.00262387
0.00265599
0.00262387
0.00262387
0.00265851
0.00262135
0.00265599
0.00262387
0.00262387
0.00262135
0.00261569
0.00257852
0.00261316
0.00261316
0.00258104
0.00258104
0.00261568
0.00257852
0.00261316
0.00261316
0.00258104
0.00258104
0.00261316
0.00258104
0.00258104
0.00261569
0.00257852
0.00261316
0.00258104
0.00258104
0.00257852
0.00257286
0.0025357
0.00257034
0.00257034
0.00253822
0.00253822
0.00257286
0.0025357
0.00257034
0.00257034
0.00253822
0.00253822
0.00257034
0.00253822
0.00253822
0.00257286
0.0025357
0.00257034
0.00253822
0.00253822
0.0025357
0.00253004
0.00249288
0.00252751
0.00252751
0.00249539
0.00249539
0.00253004
0.00249288
0.00252751
0.00252751
0.00249539
0.00249539
0.00252751
0.00249539
0.00249539
0.00253004
0.00249288
0.00252751
0.00249539
0.00249539
0.00249288
0.00248721
0.00245005
0.00248469
0.00248469
0.00245257
0.00245257
0.00248721
0.00245005
0.00248469
0.00248469
0.00245257
0.00245257
0.00248469
0.00245257
0.00245257
0.00248721
0.00245005
0.00248469
0.00245257
0.00245257
0.00245005
0.00244439
0.00240723
0.00244186
0.00244186
0.00240975
0.00240975
0.00244439
0.00240723
0.00244186
0.00244186
0.00240975
0.00240975
0.00244186
0.00240975
0.00240975
0.00244439
0.00240723
0.00244186
0.00240974
0.00240975
0.00240723
0.00240156
0.0023644
0.00239904
0.00239904
0.00236692
0.00236692
0.00240156
0.0023644
0.00239904
0.00239904
0.00236692
0.00236692
0.00239904
0.00236692
0.00236692
0.00240156
0.0023644
0.00239904
0.00236692
0.00236692
0.0023644
0.00235874
0.00232158
0.00235622
0.00235622
0.0023241
0.0023241
0.00235874
0.00232158
0.00235622
0.00235622
0.0023241
0.0023241
0.00235622
0.0023241
0.0023241
0.00235874
0.00232158
0.00235622
0.0023241
0.0023241
0.00232158
0.00231592
0.00227876
0.0023134
0.0023134
0.00228128
0.00228128
0.00231592
0.00227876
0.0023134
0.0023134
0.00228128
0.00228128
0.0023134
0.00228128
0.00228128
0.00231592
0.00227876
0.0023134
0.00228128
0.00228128
0.00227876
0.0022731
0.00223594
0.00227058
0.00227058
0.00223846
0.00223846
0.0022731
0.00223594
0.00227058
0.00227058
0.00223846
0.00223846
0.00227058
0.00223846
0.00223846
0.0022731
0.00223594
0.00227058
0.00223846
0.00223846
0.00223594
0.00223028
0.00219313
0.00222776
0.00222776
0.00219564
0.00219564
0.00223028
0.00219313
0.00222776
0.00222776
0.00219564
0.00219564
0.00222776
0.00219564
0.00219564
0.00223028
0.00219313
0.00222776
0.00219564
0.00219564
0.00219313
0.00218746
0.00215031
0.00218494
0.00218494
0.00215282
0.00215282
0.00218746
0.00215031
0.00218494
0.00218494
0.00215282
0.00215282
0.00218494
0.00215282
0.00215282
0.00218746
0.00215031
0.00218494
0.00215282
0.00215282
0.00215031
0.00214464
0.00210749
0.00214212
0.00214212
0.00211001
0.00211001
0.00214464
0.00210749
0.00214212
0.00214212
0.00211001
0.00211001
0.00214212
0.00211001
0.00211001
0.00214464
0.00210749
0.00214212
0.00211001
0.00211001
0.00210749
0.00210182
0.00206467
0.0020993
0.0020993
0.00206719
0.00206719
0.00210182
0.00206467
0.0020993
0.0020993
0.00206719
0.00206719
0.0020993
0.00206719
0.00206719
0.00210182
0.00206467
0.0020993
0.00206719
0.00206719
0.00206467
0.00205901
0.00202185
0.00205648
0.00205648
0.00202437
0.00202437
0.002059
0.00202185
0.00205648
0.00205648
0.00202437
0.00202437
0.00205648
0.00202437
0.00202437
0.00205901
0.00202185
0.00205648
0.00202437
0.00202437
0.00202185
0.00201619
0.00197903
0.00201366
0.00201366
0.00198155
0.00198155
0.00201619
0.00197903
0.00201366
0.00201366
0.00198155
0.00198155
0.00201366
0.00198155
0.00198155
0.00201619
0.00197903
0.00201366
0.00198155
0.00198155
0.00197903
0.00197337
0.00193621
0.00197084
0.00197084
0.00193873
0.00193873
0.00197337
0.00193621
0.00197084
0.00197084
0.00193873
0.00193873
0.00197084
0.00193873
0.00193873
0.00197337
0.00193621
0.00197084
0.00193873
0.00193873
0.00193621
0.00193055
0.00189339
0.00192803
0.00192802
0.00189591
0.00189591
0.00193055
0.00189339
0.00192802
0.00192803
0.00189591
0.00189591
0.00192803
0.00189591
0.00189591
0.00193055
0.00189339
0.00192803
0.00189591
0.00189591
0.00189339
0.00188773
0.00185057
0.0018852
0.0018852
0.00185309
0.00185309
0.00188773
0.00185057
0.0018852
0.0018852
0.00185309
0.00185309
0.0018852
0.00185309
0.00185309
0.00188773
0.00185057
0.0018852
0.00185309
0.00185309
0.00185057
0.00184491
0.00180775
0.00184238
0.00184238
0.00181027
0.00181027
0.00184491
0.00180775
0.00184238
0.00184238
0.00181027
0.00181027
0.00184238
0.00181027
0.00181027
0.00184491
0.00180775
0.00184238
0.00181027
0.00181027
0.00180775
0.00180209
0.00176493
0.00179956
0.00179956
0.00176745
0.00176745
0.00180209
0.00176493
0.00179956
0.00179956
0.00176745
0.00176745
0.00179956
0.00176745
0.00176745
0.00180209
0.00176493
0.00179956
0.00176745
0.00176745
0.00176493
0.00175927
0.00172211
0.00175674
0.00175674
0.00172462
0.00172462
0.00175926
0.00172211
0.00175674
0.00175674
0.00172462
0.00172462
0.00175674
0.00172462
0.00172462
0.00175927
0.00172211
0.00175674
0.00172462
0.00172462
0.00172211
0.00171644
0.00167928
0.00171392
0.00171392
0.0016818
0.0016818
0.00171644
0.00167928
0.00171392
0.00171392
0.0016818
0.0016818
0.00171392
0.0016818
0.0016818
0.00171644
0.00167928
0.00171392
0.0016818
0.0016818
0.00167928
0.00167362
0.00163646
0.00167109
0.00167109
0.00163898
0.00163898
0.00167362
0.00163646
0.00167109
0.00167109
0.00163898
0.00163898
0.00167109
0.00163898
0.00163898
0.00167362
0.00163646
0.00167109
0.00163898
0.00163898
0.00163646
0.00163079
0.00159363
0.00162827
0.00162827
0.00159615
0.00159615
0.00163079
0.00159363
0.00162827
0.00162827
0.00159615
0.00159615
0.00162827
0.00159615
0.00159615
0.00163079
0.00159363
0.00162827
0.00159615
0.00159615
0.00159363
0.00158797
0.00155081
0.00158545
0.00158545
0.00155333
0.00155333
0.00158797
0.00155081
0.00158545
0.00158545
0.00155333
0.00155333
0.00158545
0.00155333
0.00155333
0.00158797
0.00155081
0.00158545
0.00155333
0.00155333
0.00155081
0.00154515
0.00150799
0.00154263
0.00154263
0.00151051
0.00151051
0.00154515
0.00150799
0.00154262
0.00154263
0.00151051
0.00151051
0.00154263
0.00151051
0.00151051
0.00154515
0.00150799
0.00154263
0.00151051
0.00151051
0.00150799
0.00150233
0.00146517
0.0014998
0.0014998
0.00146769
0.00146769
0.00150233
0.00146517
0.0014998
0.0014998
0.00146769
0.00146769
0.0014998
0.00146769
0.00146769
0.00150233
0.00146517
0.0014998
0.00146769
0.00146769
0.00146517
0.00145951
0.00142235
0.00145698
0.00145698
0.00142486
0.00142486
0.00145951
0.00142235
0.00145698
0.00145698
0.00142486
0.00142486
0.00145698
0.00142486
0.00142486
0.00145951
0.00142235
0.00145698
0.00142486
0.00142486
0.00142235
0.00141668
0.00137952
0.00141416
0.00141416
0.00138204
0.00138204
0.00141668
0.00137952
0.00141416
0.00141416
0.00138204
0.00138204
0.00141416
0.00138204
0.00138204
0.00141668
0.00137952
0.00141416
0.00138204
0.00138204
0.00137952
0.00137386
0.0013367
0.00137134
0.00137134
0.00133922
0.00133922
0.00137386
0.0013367
0.00137134
0.00137134
0.00133922
0.00133922
0.00137134
0.00133922
0.00133922
0.00137386
0.0013367
0.00137134
0.00133922
0.00133922
0.0013367
0.00133104
0.00129388
0.00132851
0.00132851
0.0012964
0.0012964
0.00133104
0.00129388
0.00132851
0.00132851
0.0012964
0.0012964
0.00132852
0.0012964
0.0012964
0.00133104
0.00129388
0.00132851
0.0012964
0.0012964
0.00129388
0.00128822
0.00125106
0.00128569
0.00128569
0.00125358
0.00125358
0.00128822
0.00125106
0.00128569
0.00128569
0.00125358
0.00125358
0.00128569
0.00125358
0.00125358
0.00128822
0.00125106
0.00128569
0.00125358
0.00125358
0.00125106
0.0012454
0.00120824
0.00124287
0.00124287
0.00121076
0.00121076
0.0012454
0.00120824
0.00124287
0.00124287
0.00121076
0.00121076
0.00124287
0.00121076
0.00121076
0.0012454
0.00120824
0.00124287
0.00121076
0.00121076
0.00120824
0.00120257
0.00116542
0.00120005
0.00120005
0.00116793
0.00116793
0.00120257
0.00116542
0.00120005
0.00120005
0.00116793
0.00116793
0.00120005
0.00116793
0.00116793
0.00120257
0.00116542
0.00120005
0.00116793
0.00116793
0.00116542
0.00115975
0.00112259
0.00115723
0.00115723
0.00112511
0.00112511
0.00115975
0.0011226
0.00115723
0.00115723
0.00112511
0.00112511
0.00115723
0.00112511
0.00112511
0.00115975
0.00112259
0.00115723
0.00112511
0.00112511
0.00112259
0.00111693
0.00107977
0.00111441
0.00111441
0.00108229
0.00108229
0.00111693
0.00107977
0.00111441
0.00111441
0.00108229
0.00108229
0.00111441
0.00108229
0.00108229
0.00111693
0.00107977
0.00111441
0.00108229
0.00108229
0.00107977
0.00107411
0.00103695
0.00107159
0.00107159
0.00103947
0.00103947
0.00107411
0.00103695
0.00107159
0.00107159
0.00103947
0.00103947
0.00107159
0.00103947
0.00103947
0.00107411
0.00103695
0.00107159
0.00103947
0.00103947
0.00103695
0.00103129
0.000994127
0.00102876
0.00102876
0.000996645
0.000996645
0.00103129
0.000994127
0.00102876
0.00102876
0.000996645
0.000996645
0.00102876
0.000996645
0.000996646
0.00103129
0.000994127
0.00102876
0.000996645
0.000996645
0.000994127
0.000988464
0.000951304
0.00098594
0.000985939
0.000953822
0.000953822
0.000988464
0.000951304
0.000985939
0.00098594
0.000953822
0.000953822
0.00098594
0.000953822
0.000953822
0.000988464
0.000951304
0.00098594
0.000953822
0.000953822
0.000951304
0.000945641
0.000908481
0.000943116
0.000943116
0.000910999
0.000910999
0.00094564
0.000908481
0.000943116
0.000943116
0.000910999
0.000910999
0.000943117
0.000910999
0.000910999
0.000945641
0.000908481
0.000943116
0.000910999
0.000910999
0.000908481
0.000902817
0.000865658
0.000900293
0.000900293
0.000868176
0.000868176
0.000902817
0.000865658
0.000900293
0.000900293
0.000868176
0.000868176
0.000900293
0.000868176
0.000868176
0.000902817
0.000865658
0.000900293
0.000868176
0.000868176
0.000865658
0.000859994
0.000822834
0.00085747
0.00085747
0.000825353
0.000825353
0.000859994
0.000822835
0.00085747
0.00085747
0.000825352
0.000825353
0.00085747
0.000825353
0.000825353
0.000859994
0.000822834
0.00085747
0.000825353
0.000825353
0.000822834
0.000817171
0.000780013
0.000814647
0.000814647
0.000782531
0.000782531
0.000817171
0.000780013
0.000814647
0.000814647
0.000782531
0.000782531
0.000814647
0.000782531
0.000782531
0.000817171
0.000780013
0.000814647
0.000782531
0.000782531
0.000780013
0.00077435
0.000737191
0.000771825
0.000771825
0.000739709
0.000739709
0.000774349
0.000737191
0.000771825
0.000771825
0.000739709
0.000739709
0.000771826
0.000739709
0.000739709
0.000774349
0.000737191
0.000771825
0.000739709
0.000739709
0.000737191
0.000731528
0.000694371
0.000729004
0.000729004
0.000696889
0.000696889
0.000731528
0.000694371
0.000729004
0.000729004
0.000696889
0.000696889
0.000729004
0.000696889
0.000696889
0.000731528
0.000694371
0.000729004
0.000696889
0.000696889
0.000694371
0.000688708
0.000651551
0.000686184
0.000686184
0.000654069
0.000654069
0.000688708
0.000651551
0.000686184
0.000686184
0.000654069
0.000654069
0.000686184
0.000654069
0.000654069
0.000688708
0.000651551
0.000686184
0.000654069
0.000654069
0.000651551
0.000645888
0.00060873
0.000643364
0.000643364
0.000611248
0.000611248
0.000645888
0.000608731
0.000643364
0.000643364
0.000611248
0.000611248
0.000643364
0.000611248
0.000611249
0.000645888
0.00060873
0.000643364
0.000611248
0.000611248
0.00060873
0.000603067
0.00056591
0.000600543
0.000600543
0.000568428
0.000568428
0.000603067
0.00056591
0.000600543
0.000600543
0.000568428
0.000568428
0.000600543
0.000568428
0.000568428
0.000603067
0.00056591
0.000600543
0.000568428
0.000568428
0.00056591
0.000560247
0.00052309
0.000557723
0.000557723
0.000525608
0.000525608
0.000560247
0.00052309
0.000557723
0.000557723
0.000525608
0.000525608
0.000557723
0.000525608
0.000525608
0.000560247
0.00052309
0.000557723
0.000525608
0.000525608
0.00052309
0.000517427
0.000480269
0.000514903
0.000514903
0.000482787
0.000482787
0.000517427
0.000480269
0.000514903
0.000514903
0.000482787
0.000482787
0.000514903
0.000482787
0.000482787
0.000517427
0.000480269
0.000514903
0.000482787
0.000482787
0.000480269
0.000474606
0.000437448
0.000472082
0.000472082
0.000439966
0.000439966
0.000474606
0.000437448
0.000472082
0.000472082
0.000439966
0.000439966
0.000472082
0.000439966
0.000439966
0.000474606
0.000437448
0.000472082
0.000439966
0.000439966
0.000437448
0.000431785
0.000394628
0.000429261
0.000429261
0.000397146
0.000397146
0.000431785
0.000394628
0.000429261
0.000429261
0.000397146
0.000397146
0.000429261
0.000397146
0.000397146
0.000431785
0.000394628
0.000429261
0.000397146
0.000397146
0.000394628
0.000388966
0.000351811
0.000386442
0.000386442
0.000354328
0.000354328
0.000388966
0.000351811
0.000386442
0.000386442
0.000354328
0.000354328
0.000386442
0.000354328
0.000354329
0.000388966
0.00035181
0.000386442
0.000354328
0.000354328
0.000351811
0.000346148
0.000308993
0.000343624
0.000343624
0.000311511
0.000311511
0.000346148
0.000308993
0.000343624
0.000343624
0.000311511
0.000311511
0.000343624
0.000311511
0.000311511
0.000346148
0.000308993
0.000343624
0.000311511
0.000311511
0.000308993
0.000303331
0.000266175
0.000300807
0.000300807
0.000268693
0.000268693
0.000303331
0.000266175
0.000300807
0.000300807
0.000268693
0.000268693
0.000300807
0.000268693
0.000268693
0.000303331
0.000266175
0.000300807
0.000268693
0.000268693
0.000266175
0.000260511
0.00022335
0.000257989
0.000257989
0.000225867
0.000225867
0.000260511
0.00022335
0.000257989
0.000257989
0.000225867
0.000225867
0.000257989
0.000225867
0.000225867
0.000260512
0.00022335
0.000257989
0.000225867
0.000225867
0.00022335
0.000217678
0.000180538
0.000215157
0.000215157
0.000183053
0.000183053
0.000217678
0.000180538
0.000215157
0.000215157
0.000183053
0.000183053
0.000215157
0.000183053
0.000183053
0.000217678
0.000180538
0.000215157
0.000183053
0.000183053
0.000180538
0.00017487
0.00013771
0.000172359
0.000172359
0.000140213
0.000140213
0.00017487
0.00013771
0.000172359
0.000172359
0.000140213
0.000140213
0.000172359
0.000140213
0.000140213
0.00017487
0.000137709
0.000172359
0.000140213
0.000140213
0.000137709
0.000131998
9.48837e-05
0.000129496
0.000129497
9.73972e-05
9.73976e-05
0.000131998
9.48845e-05
0.000129496
0.000129496
9.73969e-05
9.73964e-05
0.000129496
9.73975e-05
9.7397e-05
0.000131998
9.4883e-05
0.000129496
9.73965e-05
9.73963e-05
9.48831e-05
8.91344e-05
5.20903e-05
8.66697e-05
8.66701e-05
5.46032e-05
5.46038e-05
8.91343e-05
5.20915e-05
8.66689e-05
8.66682e-05
5.46014e-05
5.46008e-05
8.66692e-05
5.46026e-05
5.46006e-05
8.9134e-05
5.20879e-05
8.66685e-05
5.46001e-05
5.45992e-05
5.20875e-05
4.63356e-05
1.31851e-05
4.40008e-05
4.40009e-05
1.54101e-05
1.54094e-05
4.63359e-05
1.31849e-05
4.39995e-05
4.39982e-05
1.54079e-05
1.54043e-05
4.39975e-05
1.54067e-05
1.54025e-05
4.63324e-05
1.31807e-05
4.39956e-05
1.54046e-05
1.5404e-05
1.31793e-05
9.45476e-06
9.89979e-06
9.90009e-06
9.45582e-06
9.89813e-06
9.8957e-06
9.65215e-06
9.65005e-06
9.64968e-06
9.89477e-06
9.45189e-06
9.89532e-06
0.00409097
0.00410073
0.00409553
0.00409553
0.0041179
0.00410469
0.00413329
0.00409874
0.0041179
0.0041047
0.00409874
0.00413329
0.00410926
0.00413703
0.00413703
0.00404633
0.00406547
0.00407467
0.00403838
0.00403917
0.00404192
0.00404631
0.00406544
0.00407466
0.00403837
0.00406918
0.00406918
0.00406918
0.00402576
0.00402576
0.00402575
0.00402575
0.00404383
0.00406966
0.00406958
0.00405265
0.00407268
0.00404273
0.00405353
0.00403928
0.00404191
0.00404384
0.00406959
0.00406967
0.00405265
0.00407267
0.00405353
0.00404273
0.00407553
0.00407551
0.00404705
0.00404236
0.00404236
0.00399961
0.004019
0.00402035
0.0039981
0.00401789
0.00399768
0.00399961
0.00401899
0.00402035
0.00399809
0.00401383
0.00401383
0.00401383
0.00397624
0.00397624
0.00397624
0.00397624
0.00399823
0.00401905
0.00401383
0.00400196
0.00401784
0.00399874
0.00400169
0.00401789
0.00399768
0.00399823
0.00401382
0.00401905
0.00400196
0.00401783
0.00400169
0.00399874
0.0040201
0.0040201
0.00399849
0.00399904
0.00399904
0.00394732
0.00396644
0.00396744
0.00394621
0.0039661
0.00394591
0.00394732
0.00396644
0.00396744
0.00394621
0.00396305
0.00396305
0.00396305
0.00392365
0.00392365
0.00392365
0.00392365
0.00394646
0.00396677
0.00396294
0.00394991
0.00396615
0.00394676
0.0039498
0.0039661
0.00394591
0.00394646
0.00396294
0.00396677
0.00394991
0.00396615
0.0039498
0.00394676
0.00396708
0.00396708
0.00394647
0.00394676
0.00394676
0.00389482
0.00391355
0.00391452
0.00389415
0.00391334
0.00389396
0.00389482
0.00391355
0.00391452
0.00389415
0.00391072
0.00391072
0.00391072
0.00387221
0.00387221
0.00387221
0.00387221
0.00389436
0.00391399
0.00391068
0.0038978
0.00391373
0.00389457
0.00389778
0.00391334
0.00389395
0.00389436
0.00391068
0.00391399
0.0038978
0.00391373
0.00389778
0.00389456
0.003914
0.003914
0.0038944
0.00389452
0.00389452
0.00384365
0.00386167
0.00386264
0.00384306
0.00386149
0.00384271
0.00384365
0.00386166
0.00386263
0.00384306
0.0038597
0.0038597
0.0038597
0.00382417
0.00382416
0.00382417
0.00382416
0.00384371
0.00386215
0.00385957
0.00384731
0.00386219
0.0038436
0.00384737
0.00386149
0.00384271
0.00384371
0.00385957
0.00386215
0.00384731
0.00386219
0.00384737
0.0038436
0.00386197
0.00386197
0.00384411
0.00384313
0.00384314
0.00379884
0.00381481
0.00381479
0.00379881
0.0038147
0.00379882
0.00379884
0.00381481
0.00381479
0.00379881
0.003813
0.003813
0.003813
0.00378044
0.00378044
0.00378044
0.00378044
0.00379911
0.00381512
0.00381291
0.00380195
0.00381515
0.00379906
0.00380198
0.00381469