/*--------------------------------*- C++ -*----------------------------------*\
| =========                 |                                                 |
| \\      /  F ield         | OpenFOAM: The Open Source CFD Toolbox           |
|  \\    /   O peration     | Version:  2206                                  |
|   \\  /    A nd           | Website:  www.openfoam.com                      |
|    \\/     M anipulation  |                                                 |
\*---------------------------------------------------------------------------*/
FoamFile
{
    version     2.0;
    format      ascii;
    arch        "LSB;label=32;scalar=64";
    class       volScalarField;
    location    "25";
    object      Ux;
}
// * * * * * * * * * * * * * * * * * * * * * * * * * * * * * * * * * * * * * //

dimensions      [0 1 -1 0 0 0 0];

internalField   nonuniform List<scalar> 
171728
(
0.000107987
-0.000189991
0.000119218
-0.000239344
9.46304e-05
-0.000159558
9.71488e-05
-0.000200518
9.44264e-05
-0.000153387
9.14177e-05
-0.000200125
9.28319e-05
-0.000147496
8.68661e-05
-0.000195998
8.29245e-05
-0.00013654
7.83659e-05
-0.00018164
4.40186e-05
-6.05538e-05
3.625e-05
-9.98023e-05
1.1551e-05
-1.56037e-05
1.1428e-05
-5.63161e-05
7.28314e-07
-2.00094e-06
1.81982e-06
-4.42812e-05
-6.01901e-07
-5.12927e-07
7.49442e-07
-4.32227e-05
-6.81855e-07
-4.57379e-07
6.98706e-07
-4.3182e-05
-6.82133e-07
-4.57782e-07
6.99163e-07
-4.31823e-05
-6.86127e-07
-4.61078e-07
6.98668e-07
-4.31829e-05
-6.84801e-07
-4.68398e-07
6.98433e-07
-4.31839e-05
-6.84591e-07
-4.66003e-07
6.98247e-07
-4.3184e-05
-6.88194e-07
-4.59741e-07
6.97609e-07
-4.31833e-05
-6.89302e-07
-4.58786e-07
6.97003e-07
-4.31829e-05
-6.8822e-07
-4.5913e-07
6.97049e-07
-4.3182e-05
-6.87189e-07
-4.59989e-07
6.97811e-07
-4.31833e-05
-6.84375e-07
-4.60662e-07
6.98287e-07
-4.31836e-05
-6.77964e-07
-4.58482e-07
6.99779e-07
-4.31845e-05
-6.74032e-07
-4.64448e-07
6.9991e-07
-4.31833e-05
-6.83669e-07
-4.61319e-07
6.99077e-07
-4.31833e-05
-6.84982e-07
-4.59047e-07
6.98138e-07
-4.31822e-05
-6.86598e-07
-4.58188e-07
6.97487e-07
-4.31819e-05
-6.87432e-07
-4.57923e-07
6.97208e-07
-4.31825e-05
-6.87196e-07
-4.58724e-07
6.97955e-07
-4.31833e-05
-6.86901e-07
-4.58966e-07
6.98299e-07
-4.31837e-05
-6.8588e-07
-4.59408e-07
6.98956e-07
-4.31845e-05
-6.86206e-07
-4.59481e-07
6.98294e-07
-4.31844e-05
-6.86593e-07
-4.59009e-07
6.98725e-07
-4.3184e-05
-6.86617e-07
-4.58449e-07
6.98126e-07
-4.31838e-05
-6.87763e-07
-4.57571e-07
6.97481e-07
-4.31829e-05
-6.86942e-07
-4.58023e-07
6.97935e-07
-4.3183e-05
-6.87058e-07
-4.58108e-07
6.97719e-07
-4.31833e-05
-6.86342e-07
-4.58616e-07
6.9861e-07
-4.3184e-05
-6.86263e-07
-4.59363e-07
6.98676e-07
-4.31844e-05
-6.86016e-07
-4.58959e-07
6.98958e-07
-4.31845e-05
-6.86512e-07
-4.5898e-07
6.985e-07
-4.31842e-05
-6.87248e-07
-4.57742e-07
6.97845e-07
-4.31833e-05
-6.86922e-07
-4.57627e-07
6.97102e-07
-4.31802e-05
-6.82418e-07
-4.54565e-07
6.9686e-07
-4.31803e-05
-6.89906e-07
-4.58707e-07
6.97491e-07
-4.31845e-05
-6.86862e-07
-4.58553e-07
6.9767e-07
-4.31844e-05
-6.84918e-07
-4.59509e-07
6.98603e-07
-4.31847e-05
-6.84735e-07
-4.59814e-07
6.97547e-07
-4.31843e-05
-6.85069e-07
-4.59494e-07
6.97743e-07
-4.31843e-05
-6.85293e-07
-4.59227e-07
6.96966e-07
-4.31837e-05
-6.85703e-07
-4.58036e-07
6.97098e-07
-4.3183e-05
-6.85829e-07
-4.59168e-07
6.97324e-07
-4.31838e-05
-6.85753e-07
-4.5888e-07
6.97485e-07
-4.31838e-05
-6.84662e-07
-4.60107e-07
6.97975e-07
-4.3185e-05
-6.84772e-07
-4.59798e-07
6.98196e-07
-4.31852e-05
-6.84367e-07
-4.60298e-07
6.98244e-07
-4.31846e-05
-6.83848e-07
-4.59829e-07
6.97999e-07
-4.31841e-05
-6.83083e-07
-4.58342e-07
6.97847e-07
-4.31829e-05
-6.85348e-07
-4.59209e-07
6.97211e-07
-4.31842e-05
-6.85008e-07
-4.6036e-07
6.97543e-07
-4.31863e-05
-6.83903e-07
-4.61734e-07
6.98698e-07
-4.31871e-05
-6.83263e-07
-4.61591e-07
6.9891e-07
-4.31872e-05
-6.82981e-07
-4.62827e-07
6.99439e-07
-4.31878e-05
-6.83102e-07
-4.62228e-07
6.99745e-07
-4.31875e-05
-6.83079e-07
-4.61427e-07
6.98933e-07
-4.31868e-05
-6.83696e-07
-4.61156e-07
6.98665e-07
-4.31867e-05
-6.8493e-07
-4.60319e-07
6.98131e-07
-4.31855e-05
-6.83826e-07
-4.61165e-07
6.98823e-07
-4.31866e-05
-6.83838e-07
-4.6083e-07
6.98367e-07
-4.31865e-05
-6.83145e-07
-4.62106e-07
6.99662e-07
-4.31873e-05
-6.82891e-07
-4.62459e-07
6.99588e-07
-4.31879e-05
-6.82714e-07
-4.61796e-07
7.00656e-07
-4.31887e-05
-6.82491e-07
-4.61697e-07
7.06285e-07
-4.31918e-05
-6.83578e-07
-4.60348e-07
7.02078e-07
-4.31897e-05
-6.84122e-07
-4.6122e-07
6.98873e-07
-4.31865e-05
-6.84139e-07
-4.59963e-07
6.98313e-07
-4.31861e-05
-6.83509e-07
-4.61958e-07
6.99085e-07
-4.31873e-05
-6.83373e-07
-4.61791e-07
6.99092e-07
-4.31879e-05
-6.82724e-07
-4.62174e-07
7.00212e-07
-4.31881e-05
-6.82919e-07
-4.62385e-07
6.99946e-07
-4.31883e-05
-6.83713e-07
-4.61296e-07
6.98969e-07
-4.31877e-05
-6.8389e-07
-4.60996e-07
6.98981e-07
-4.31873e-05
-6.8439e-07
-4.60563e-07
6.98682e-07
-4.31868e-05
-6.84232e-07
-4.61222e-07
6.98692e-07
-4.31871e-05
-6.83666e-07
-4.60988e-07
6.99085e-07
-4.31876e-05
-6.82874e-07
-4.62206e-07
6.99465e-07
-4.31881e-05
-6.82946e-07
-4.62256e-07
6.99402e-07
-4.31881e-05
-6.8293e-07
-4.62429e-07
6.9949e-07
-4.31882e-05
-6.83488e-07
-4.61078e-07
6.99111e-07
-4.31874e-05
-6.84706e-07
-4.59689e-07
6.98011e-07
-4.31869e-05
-6.90804e-07
-4.53629e-07
6.92596e-07
-4.31832e-05
-7.01246e-07
-4.5527e-07
6.8373e-07
-4.3138e-05
-7.22522e-07
-5.41608e-07
7.16178e-07
-4.28075e-05
-6.09767e-07
-9.27352e-07
1.01571e-06
-4.27321e-05
-3.48369e-07
-1.81107e-06
1.57386e-06
-4.11563e-05
-2.28348e-07
-3.39299e-06
2.88038e-06
-3.86303e-05
-5.61698e-06
-2.38809e-06
3.2876e-06
-2.63011e-05
-4.19232e-05
4.15893e-05
-3.44083e-05
4.76197e-05
0.000135166
0.000124289
-0.000124281
-0.000135162
0.000152977
0.000152949
9.07217e-05
-9.0712e-05
9.06956e-05
-9.06932e-05
-0.000152973
-0.000152958
0.000135155
0.00012424
-0.000124237
-0.000135164
0.000239389
0.00011199
0.000119268
-0.000119219
8.86436e-05
-8.86041e-05
-0.000239399
-0.000111949
0.000190027
0.000189965
0.000146617
0.000146649
-0.000189947
-0.000146586
-0.000146607
0.000239319
0.000111941
-0.000119198
8.86149e-05
-8.85937e-05
-0.000111938
0.000200607
0.000106324
9.71569e-05
-9.71316e-05
9.30399e-05
-9.3039e-05
-0.000200569
-0.000106311
0.000159592
0.000159608
0.000154476
0.000154516
-0.000159586
-0.000154472
-0.000154494
0.000200516
0.000106288
-9.71311e-05
9.30435e-05
-9.3048e-05
-0.000106303
0.000200192
0.00010109
9.14112e-05
-9.14141e-05
9.17365e-05
-9.17233e-05
-0.000200181
-0.000101077
0.000153393
0.000153437
0.000153832
0.000153867
-0.00015342
-0.000153831
-0.000153864
0.000200108
0.000101052
-9.14249e-05
9.17462e-05
-9.17339e-05
-0.000101106
0.000196026
9.14224e-05
8.6857e-05
-8.68446e-05
8.63396e-05
-8.63266e-05
-0.000196017
-9.14162e-05
0.000147504
0.000147532
0.000147062
0.000147093
-0.000147536
-0.000147059
-0.000147096
0.000195942
9.13713e-05
-8.68486e-05
8.63592e-05
-8.63424e-05
-9.1439e-05
0.000181664
1.9202e-05
7.8331e-05
-7.83174e-05
4.39791e-05
-4.40005e-05
-0.000181668
-1.91897e-05
0.000136534
0.000136567
7.69426e-05
7.69703e-05
-0.000136581
-7.6933e-05
-7.6963e-05
0.000181567
1.923e-05
-7.83397e-05
4.39546e-05
-4.39391e-05
-1.92066e-05
9.98287e-05
-2.86264e-05
3.62856e-05
-3.63053e-05
1.67301e-05
-1.67321e-05
-9.98304e-05
2.86319e-05
6.05605e-05
6.05753e-05
2.37325e-05
2.37422e-05
-6.05643e-05
-2.37238e-05
-2.37278e-05
9.98112e-05
-2.86112e-05
-3.62491e-05
1.67021e-05
-1.67001e-05
2.86227e-05
5.63383e-05
-4.3527e-05
1.14589e-05
-1.14548e-05
2.88938e-06
-2.88267e-06
-5.63317e-05
4.35345e-05
1.56123e-05
1.56222e-05
3.42229e-06
3.4364e-06
-1.56156e-05
-3.41618e-06
-3.44054e-06
5.63067e-05
-4.35059e-05
-1.14277e-05
2.85625e-06
-2.85699e-06
4.35069e-05
4.4288e-05
-4.50605e-05
1.84712e-06
-1.84453e-06
8.42335e-07
-8.42124e-07
-4.42833e-05
4.50641e-05
2.0083e-06
2.02042e-06
6.0177e-07
6.21552e-07
-2.02437e-06
-5.99441e-07
-6.21329e-07
4.42682e-05
-4.50332e-05
-1.82032e-06
8.16183e-07
-8.14837e-07
4.50379e-05
4.32293e-05
-4.51233e-05
7.74697e-07
-7.74725e-07
7.27435e-07
-7.25253e-07
-4.32271e-05
4.51293e-05
5.18295e-07
5.34403e-07
4.61334e-07
4.82254e-07
-5.34174e-07
-4.58344e-07
-4.80328e-07
4.32129e-05
-4.50962e-05
-7.47763e-07
7.00012e-07
-6.98148e-07
4.51018e-05
4.31897e-05
-4.51203e-05
7.25965e-07
-7.22079e-07
7.33079e-07
-7.22958e-07
-4.3186e-05
4.51334e-05
4.63983e-07
4.80403e-07
4.60509e-07
4.81695e-07
-4.79347e-07
-4.56284e-07
-4.79075e-07
4.31729e-05
-4.50954e-05
-6.96886e-07
6.98259e-07
-6.9529e-07
4.51021e-05
4.31924e-05
-4.51211e-05
7.32663e-07
-7.22126e-07
7.23595e-07
-7.25157e-07
-4.3186e-05
4.51314e-05
4.64074e-07
4.81607e-07
4.60206e-07
4.81952e-07
-4.79723e-07
-4.58202e-07
-4.79887e-07
4.31742e-05
-4.50951e-05
-6.9606e-07
6.98149e-07
-6.95525e-07
4.51013e-05
4.31902e-05
-4.51227e-05
7.23371e-07
-7.24823e-07
7.21332e-07
-7.24112e-07
-4.31878e-05
4.51281e-05
4.64365e-07
4.81457e-07
4.58838e-07
4.81213e-07
-4.80673e-07
-4.65432e-07
-4.81719e-07
4.31737e-05
-4.50958e-05
-6.96447e-07
6.97635e-07
-6.95697e-07
4.50999e-05
4.31891e-05
-4.51235e-05
7.21806e-07
-7.23389e-07
7.21163e-07
-7.21887e-07
-4.31911e-05
4.51255e-05
4.62467e-07
4.80668e-07
4.5882e-07
4.80462e-07
-4.82541e-07
-4.65646e-07
-4.824e-07
4.31732e-05
-4.50963e-05
-6.96393e-07
6.97657e-07
-6.95769e-07
4.50999e-05
4.31888e-05
-4.51205e-05
7.22409e-07
-7.22215e-07
7.19844e-07
-7.25099e-07
-4.31933e-05
4.51284e-05
4.62456e-07
4.79961e-07
4.58788e-07
4.80221e-07
-4.82537e-07
-4.58806e-07
-4.80792e-07
4.31727e-05
-4.50967e-05
-6.96593e-07
6.97177e-07
-6.96042e-07
4.5101e-05
4.31895e-05
-4.51231e-05
7.17777e-07
-7.27064e-07
7.15686e-07
-7.34207e-07
-4.31925e-05
4.51255e-05
4.6217e-07
4.79761e-07
4.58046e-07
4.8001e-07
-4.80908e-07
-4.5865e-07
-4.80104e-07
4.31726e-05
-4.5097e-05
-6.96916e-07
6.96397e-07
-6.96086e-07
4.51013e-05
4.31873e-05
-4.51205e-05
7.14735e-07
-7.3053e-07
7.1804e-07
-7.2463e-07
-4.31916e-05
4.51268e-05
4.6168e-07
4.79488e-07
4.58982e-07
4.797e-07
-4.80408e-07
-4.57609e-07
-4.78922e-07
4.31724e-05
-4.50972e-05
-6.96723e-07
6.96249e-07
-6.95331e-07
4.51022e-05
4.3189e-05
-4.51208e-05
7.17081e-07
-7.24487e-07
7.18558e-07
-7.23253e-07
-4.31888e-05
4.51288e-05
4.62731e-07
4.79512e-07
4.59853e-07
4.80602e-07
-4.79404e-07
-4.58253e-07
-4.7975e-07
4.31722e-05
-4.50966e-05
-6.96012e-07
6.96978e-07
-6.95947e-07
4.51016e-05
4.31897e-05
-4.51228e-05
7.16205e-07
-7.24318e-07
7.2012e-07
-7.28897e-07
-4.31874e-05
4.51273e-05
4.63635e-07
4.80437e-07
4.5954e-07
4.81227e-07
-4.80541e-07
-4.59176e-07
-4.80249e-07
4.31733e-05
-4.50961e-05
-6.9683e-07
6.97359e-07
-6.95547e-07
4.51014e-05
4.3191e-05
-4.51234e-05
7.22277e-07
-7.30311e-07
7.23382e-07
-7.20043e-07
-4.31925e-05
4.51318e-05
4.63164e-07
4.80949e-07
4.61039e-07
4.81668e-07
-4.81958e-07
-4.59005e-07
-4.85945e-07
4.3174e-05
-4.50954e-05
-6.9591e-07
6.9862e-07
-6.94306e-07
4.50997e-05
4.3194e-05
-4.5127e-05
7.23348e-07
-7.09806e-07
7.27053e-07
-7.24349e-07
-4.3176e-05
4.51195e-05
4.65775e-07
4.81456e-07
4.67507e-07
4.8237e-07
-4.86738e-07
-4.63514e-07
-4.80017e-07
4.31743e-05
-4.50947e-05
-6.9501e-07
6.99499e-07
-6.94926e-07
4.51008e-05
4.31916e-05
-4.51256e-05
7.28185e-07
-7.2287e-07
7.20476e-07
-7.22326e-07
-4.3193e-05
4.5131e-05
4.69863e-07
4.81977e-07
4.6228e-07
4.8171e-07
-4.80197e-07
-4.59627e-07
-4.80199e-07
4.31743e-05
-4.50951e-05
-6.95967e-07
6.9861e-07
-6.95646e-07
4.51006e-05
4.31942e-05
-4.51255e-05
7.20273e-07
-7.24292e-07
7.21635e-07
-7.24986e-07
-4.31838e-05
4.51271e-05
4.63976e-07
4.80971e-07
4.60298e-07
4.80776e-07
-4.80417e-07
-4.58254e-07
-4.7937e-07
4.31739e-05
-4.50959e-05
-6.96547e-07
6.97573e-07
-6.95683e-07
4.51017e-05
4.31948e-05
-4.51265e-05
7.20979e-07
-7.25326e-07
7.20967e-07
-7.25423e-07
-4.31867e-05
4.5127e-05
4.63645e-07
4.80411e-07
4.58632e-07
4.80096e-07
-4.79744e-07
-4.57193e-07
-4.78962e-07
4.3173e-05
-4.50964e-05
-6.96418e-07
6.96798e-07
-6.95053e-07
4.5102e-05
4.31939e-05
-4.51269e-05
7.20968e-07
-7.25777e-07
7.21055e-07
-7.2576e-07
-4.31866e-05
4.51269e-05
4.62466e-07
4.79675e-07
4.58025e-07
4.79805e-07
-4.79249e-07
-4.56815e-07
-4.78441e-07
4.31724e-05
-4.50965e-05
-6.96039e-07
6.96658e-07
-6.95381e-07
4.51015e-05
4.31935e-05
-4.51266e-05
7.20583e-07
-7.25785e-07
7.21423e-07
-7.26156e-07
-4.31867e-05
4.51265e-05
4.61871e-07
4.79337e-07
4.58472e-07
4.80252e-07
-4.78695e-07
-4.57391e-07
-4.78589e-07
4.31723e-05
-4.50961e-05
-6.96126e-07
6.97134e-07
-6.95726e-07
4.5101e-05
4.31942e-05
-4.51261e-05
7.21552e-07
-7.26426e-07
7.22224e-07
-7.26484e-07
-4.31873e-05
4.51258e-05
4.62718e-07
4.80075e-07
4.58942e-07
4.8069e-07
-4.79338e-07
-4.57658e-07
-4.78729e-07
4.31729e-05
-4.50957e-05
-6.96776e-07
6.97582e-07
-6.96043e-07
4.51004e-05
4.31947e-05
-4.51255e-05
7.22274e-07
-7.26893e-07
7.23608e-07
-7.2616e-07
-4.31881e-05
4.51261e-05
4.629e-07
4.80338e-07
4.59517e-07
4.8136e-07
-4.79113e-07
-4.58001e-07
-4.79588e-07
4.31734e-05
-4.50953e-05
-6.96813e-07
6.9811e-07
-6.96634e-07
4.50996e-05
4.31952e-05
-4.51254e-05
7.23546e-07
-7.26966e-07
7.23627e-07
-7.25972e-07
-4.31876e-05
4.51253e-05
4.63708e-07
4.81287e-07
4.59435e-07
4.81274e-07
-4.80295e-07
-4.58416e-07
-4.796e-07
4.31738e-05
-4.50954e-05
-6.97616e-07
6.9781e-07
-6.96723e-07
4.50995e-05
4.31951e-05
-4.51258e-05
7.2333e-07
-7.27334e-07
7.23026e-07
-7.25251e-07
-4.31884e-05
4.51259e-05
4.63182e-07
4.80609e-07
4.59185e-07
4.81338e-07
-4.7994e-07
-4.58119e-07
-4.79083e-07
4.31733e-05
-4.50951e-05
-6.97449e-07
6.9817e-07
-6.9637e-07
4.51e-05
4.31948e-05
-4.51263e-05
7.22696e-07
-7.28072e-07
7.23288e-07
-7.2324e-07
-4.31882e-05
4.51263e-05
4.6302e-07
4.80837e-07
4.58653e-07
4.80533e-07
-4.79209e-07
-4.57416e-07
-4.78671e-07
4.31739e-05
-4.50961e-05
-6.96776e-07
6.97562e-07
-6.9611e-07
4.51004e-05
4.31943e-05
-4.51269e-05
7.23178e-07
-7.30188e-07
7.22132e-07
-7.24645e-07
-4.31884e-05
4.51277e-05
4.62586e-07
4.80102e-07
4.57866e-07
4.79798e-07
-4.79243e-07
-4.56658e-07
-4.77872e-07
4.31728e-05
-4.50965e-05
-6.96986e-07
6.97031e-07
-6.95468e-07
4.51009e-05
4.31936e-05
-4.51268e-05
7.21754e-07
-7.27058e-07
7.22934e-07
-7.27285e-07
-4.31873e-05
4.51282e-05
4.6148e-07
4.79171e-07
4.58026e-07
4.79895e-07
-4.78272e-07
-4.56879e-07
-4.77845e-07
4.31723e-05
-4.50964e-05
-6.96148e-07
6.97182e-07
-6.95548e-07
4.51009e-05
4.31941e-05
-4.51265e-05
7.22909e-07
-7.27523e-07
7.22793e-07
-7.27325e-07
-4.31868e-05
4.51286e-05
4.62324e-07
4.79888e-07
4.58155e-07
4.80031e-07
-4.78447e-07
-4.56677e-07
-4.77935e-07
4.31726e-05
-4.50963e-05
-6.96215e-07
6.97129e-07
-6.95589e-07
4.51008e-05
4.3194e-05
-4.51258e-05
7.22512e-07
-7.27587e-07
7.2323e-07
-7.28124e-07
-4.31863e-05
4.51283e-05
4.62056e-07
4.79691e-07
4.59124e-07
4.80976e-07
-4.78673e-07
-4.57286e-07
-4.78824e-07
4.31725e-05
-4.50955e-05
-6.96478e-07
6.97746e-07
-6.96071e-07
4.51001e-05
4.31951e-05
-4.5126e-05
7.23313e-07
-7.28298e-07
7.23098e-07
-7.28702e-07
-4.31865e-05
4.51273e-05
4.63274e-07
4.80908e-07
4.59041e-07
4.81009e-07
-4.79644e-07
-4.58024e-07
-4.79236e-07
4.31736e-05
-4.50955e-05
-6.96993e-07
6.97984e-07
-6.96649e-07
4.50996e-05
4.31947e-05
-4.51254e-05
7.23159e-07
-7.28898e-07
7.23373e-07
-7.28759e-07
-4.31877e-05
4.51278e-05
4.63244e-07
4.80901e-07
4.59467e-07
4.81296e-07
-4.79829e-07
-4.57777e-07
-4.79321e-07
4.31735e-05
-4.5095e-05
-6.97406e-07
6.98338e-07
-6.96803e-07
4.50996e-05
4.31951e-05
-4.51259e-05
7.23479e-07
-7.28511e-07
7.22897e-07
-7.29207e-07
-4.31868e-05
4.5127e-05
4.63468e-07
4.81084e-07
4.59298e-07
4.81177e-07
-4.79976e-07
-4.58195e-07
-4.79227e-07
4.31739e-05
-4.50953e-05
-6.97518e-07
6.98204e-07
-6.9688e-07
4.50996e-05
4.31945e-05
-4.51264e-05
7.22969e-07
-7.28632e-07
7.22458e-07
-7.28193e-07
-4.31876e-05
4.51289e-05
4.62857e-07
4.80569e-07
4.58201e-07
4.79914e-07
-4.79348e-07
-4.56667e-07
-4.78243e-07
4.31735e-05
-4.50962e-05
-6.97114e-07
6.97386e-07
-6.9623e-07
4.51004e-05
4.31936e-05
-4.51267e-05
7.22636e-07
-7.27415e-07
7.21026e-07
-7.29283e-07
-4.31854e-05
4.51294e-05
4.61848e-07
4.79615e-07
4.59937e-07
4.80989e-07
-4.79052e-07
-4.57074e-07
-4.81217e-07
4.31726e-05
-4.50969e-05
-6.96731e-07
6.96977e-07
-6.95237e-07
4.51033e-05
4.31915e-05
-4.51197e-05
7.20628e-07
-7.26443e-07
7.20267e-07
-7.25844e-07
-4.31847e-05
4.5131e-05
4.64511e-07
4.80864e-07
4.64839e-07
4.80852e-07
-4.83864e-07
-4.52813e-07
-4.83087e-07
4.31722e-05
-4.50982e-05
-6.93425e-07
6.95708e-07
-6.90582e-07
4.51047e-05
4.31983e-05
-4.51299e-05
7.25843e-07
-7.26221e-07
7.16278e-07
-7.31994e-07
-4.31861e-05
4.51231e-05
4.69695e-07
4.80672e-07
4.57829e-07
4.8047e-07
-4.80604e-07
-4.58126e-07
-4.79286e-07
4.31713e-05
-4.50975e-05
-6.93207e-07
6.97023e-07
-6.95982e-07
4.51002e-05
4.31863e-05
-4.51261e-05
7.1736e-07
-7.34744e-07
7.19984e-07
-7.24809e-07
-4.31943e-05
4.51274e-05
4.60564e-07
4.80284e-07
4.58742e-07
4.80846e-07
-4.80546e-07
-4.57072e-07
-4.79556e-07
4.31719e-05
-4.50971e-05
-6.97001e-07
6.97066e-07
-6.96539e-07
4.50998e-05
4.31894e-05
-4.5124e-05
7.20007e-07
-7.24758e-07
7.22088e-07
-7.24711e-07
-4.31871e-05
4.51281e-05
4.62026e-07
4.80611e-07
4.59926e-07
4.81677e-07
-4.79825e-07
-4.58643e-07
-4.79752e-07
4.31721e-05
-4.50963e-05
-6.97055e-07
6.9816e-07
-6.96881e-07
4.50996e-05
4.31914e-05
-4.51231e-05
7.22138e-07
-7.24564e-07
7.22443e-07
-7.24402e-07
-4.31869e-05
4.51284e-05
4.64135e-07
4.81864e-07
4.6071e-07
4.81835e-07
-4.80436e-07
-4.58626e-07
-4.79264e-07
4.3173e-05
-4.50962e-05
-6.97537e-07
6.98226e-07
-6.96562e-07
4.50998e-05
4.31919e-05
-4.51235e-05
7.21512e-07
-7.24622e-07
7.21517e-07
-7.24093e-07
-4.31866e-05
4.51292e-05
4.64041e-07
4.81482e-07
4.59949e-07
4.81224e-07
-4.79693e-07
-4.58253e-07
-4.78974e-07
4.31728e-05
-4.50966e-05
-6.96872e-07
6.9802e-07
-6.96621e-07
4.51e-05
4.31915e-05
-4.51233e-05
7.20597e-07
-7.24442e-07
7.20584e-07
-7.24298e-07
-4.31857e-05
4.51286e-05
4.63682e-07
4.81147e-07
4.60489e-07
4.80816e-07
-4.79732e-07
-4.58448e-07
-4.78565e-07
4.31725e-05
-4.5097e-05
-6.97213e-07
6.97523e-07
-6.9625e-07
4.51004e-05
4.31916e-05
-4.51237e-05
7.19717e-07
-7.2429e-07
7.19968e-07
-7.23216e-07
-4.31861e-05
4.51304e-05
4.63872e-07
4.80351e-07
4.59684e-07
4.8031e-07
-4.78794e-07
-4.56862e-07
-4.77476e-07
4.31719e-05
-4.50973e-05
-6.96579e-07
6.97289e-07
-6.95664e-07
4.51012e-05
4.31911e-05
-4.51239e-05
7.19155e-07
-7.23446e-07
7.1971e-07
-7.24052e-07
-4.31844e-05
4.51289e-05
4.63189e-07
4.80175e-07
4.59673e-07
4.80598e-07
-4.7814e-07
-4.58151e-07
-4.78078e-07
4.31718e-05
-4.50969e-05
-6.96357e-07
6.97686e-07
-6.96262e-07
4.51004e-05
4.31909e-05
-4.5124e-05
7.18964e-07
-7.24204e-07
7.19678e-07
-7.23555e-07
-4.3186e-05
4.51299e-05
4.63132e-07
4.80329e-07
4.59449e-07
4.80509e-07
-4.78699e-07
-4.57609e-07
-4.78049e-07
4.31721e-05
-4.5097e-05
-6.96889e-07
6.97649e-07
-6.96326e-07
4.51003e-05
4.3191e-05
-4.51227e-05
7.1914e-07
-7.23939e-07
7.20612e-07
-7.24378e-07
-4.3185e-05
4.51287e-05
4.63164e-07
4.8044e-07
4.60806e-07
4.81521e-07
-4.78748e-07
-4.58666e-07
-4.79027e-07
4.31721e-05
-4.50963e-05
-6.96975e-07
6.98174e-07
-6.97106e-07
4.50991e-05
4.31922e-05
-4.51227e-05
7.20015e-07
-7.24674e-07
7.20733e-07
-7.24476e-07
-4.31862e-05
4.51285e-05
4.645e-07
4.8154e-07
4.60973e-07
4.81832e-07
-4.79827e-07
-4.58896e-07
-4.79487e-07
4.31727e-05
-4.5096e-05
-6.9768e-07
6.98454e-07
-6.97353e-07
4.50988e-05
4.31921e-05
-4.51222e-05
7.19839e-07
-7.24476e-07
7.21031e-07
-7.24535e-07
-4.31861e-05
4.51281e-05
4.64237e-07
4.81403e-07
4.61102e-07
4.81648e-07
-4.79762e-07
-4.59131e-07
-4.78978e-07
4.31729e-05
-4.5096e-05
-6.97814e-07
6.98405e-07
-6.97163e-07
4.50994e-05
4.31927e-05
-4.51215e-05
7.20573e-07
-7.24869e-07
7.21704e-07
-7.23702e-07
-4.31868e-05
4.5128e-05
4.6487e-07
4.81602e-07
4.61558e-07
4.81767e-07
-4.79647e-07
-4.5925e-07
-4.7876e-07
4.31729e-05
-4.50958e-05
-6.97799e-07
6.98435e-07
-6.97077e-07
4.50994e-05
4.31927e-05
-4.51208e-05
7.21336e-07
-7.2263e-07
7.23311e-07
-7.13431e-07
-4.31856e-05
4.51328e-05
4.65101e-07
4.81197e-07
4.61669e-07
4.80887e-07
-4.78767e-07
-4.57133e-07
-4.76811e-07
4.31726e-05
-4.50965e-05
-6.97188e-07
6.98063e-07
-6.95845e-07
4.51008e-05
4.31932e-05
-4.51231e-05
7.22541e-07
-7.13197e-07
7.20815e-07
-7.22928e-07
-4.3181e-05
4.51309e-05
4.65117e-07
4.80486e-07
4.60442e-07
4.80172e-07
-4.77168e-07
-4.5835e-07
-4.77884e-07
4.3172e-05
-4.5097e-05
-6.96019e-07
6.97659e-07
-6.95727e-07
4.51002e-05
4.31914e-05
-4.51243e-05
7.19453e-07
-7.2235e-07
7.20032e-07
-7.2289e-07
-4.31841e-05
4.51297e-05
4.63452e-07
4.79355e-07
4.59047e-07
4.78253e-07
-4.80183e-07
-4.59327e-07
-4.84753e-07
4.31716e-05
-4.50981e-05
-6.95975e-07
6.97494e-07
-6.9465e-07
4.50977e-05
4.31906e-05
-4.51241e-05
7.19444e-07
-7.22278e-07
7.20557e-07
-7.23023e-07
-4.31849e-05
4.51281e-05
4.62414e-07
4.7761e-07
4.59123e-07
4.7847e-07
-4.86601e-07
-4.60431e-07
-4.85348e-07
4.31708e-05
-4.50978e-05
-6.94805e-07
6.98772e-07
-6.95093e-07
4.50971e-05
4.31909e-05
-4.51236e-05
7.20052e-07
-7.23447e-07
7.20991e-07
-7.2324e-07
-4.31868e-05
4.5128e-05
4.62989e-07
4.78324e-07
4.59791e-07
4.78922e-07
-4.8699e-07
-4.60658e-07
-4.85569e-07
4.31713e-05
-4.50975e-05
-6.9556e-07
6.99114e-07
-6.9551e-07
4.50969e-05
4.31913e-05
-4.51235e-05
7.20304e-07
-7.23292e-07
7.21028e-07
-7.23858e-07
-4.31867e-05
4.51272e-05
4.63273e-07
4.78488e-07
4.59886e-07
4.79117e-07
-4.87057e-07
-4.61552e-07
-4.86223e-07
4.31714e-05
-4.50972e-05
-6.96003e-07
6.9945e-07
-6.96435e-07
4.50963e-05
4.31914e-05
-4.51232e-05
7.20433e-07
-7.24345e-07
7.21045e-07
-7.24202e-07
-4.31878e-05
4.51272e-05
4.63656e-07
4.78947e-07
4.60163e-07
4.79741e-07
-4.87817e-07
-4.61558e-07
-4.86283e-07
4.31719e-05
-4.50965e-05
-6.96898e-07
7.00037e-07
-6.96557e-07
4.50965e-05
4.31914e-05
-4.51235e-05
7.20168e-07
-7.24157e-07
7.21047e-07
-7.23495e-07
-4.31874e-05
4.51281e-05
4.63446e-07
4.79278e-07
4.5986e-07
4.79025e-07
-4.87452e-07
-4.60576e-07
-4.85265e-07
4.31725e-05
-4.50974e-05
-6.96757e-07
6.99301e-07
-6.9599e-07
4.50972e-05
4.31914e-05
-4.51238e-05
7.20412e-07
-7.23577e-07
7.20748e-07
-7.23548e-07
-4.31865e-05
4.51281e-05
4.63273e-07
4.78568e-07
4.59657e-07
4.78847e-07
-4.86666e-07
-4.60401e-07
-4.85384e-07
4.31714e-05
-4.50977e-05
-6.96269e-07
6.99034e-07
-6.96113e-07
4.50972e-05
4.31908e-05
-4.51251e-05
7.19769e-07
-7.23555e-07
7.19767e-07
-7.22845e-07
-4.31865e-05
4.5129e-05
4.62656e-07
4.78261e-07
4.58317e-07
4.77615e-07
-4.86586e-07
-4.59298e-07
-4.84011e-07
4.31711e-05
-4.50985e-05
-6.96241e-07
6.98279e-07
-6.95221e-07
4.50984e-05
4.31897e-05
-4.5124e-05
7.18968e-07
-7.23003e-07
7.20379e-07
-7.23299e-07
-4.31857e-05
4.51283e-05
4.61136e-07
4.77286e-07
4.59657e-07
4.78467e-07
-4.85467e-07
-4.59999e-07
-4.8474e-07
4.31705e-05
-4.50977e-05
-6.95511e-07
6.98895e-07
-6.95725e-07
4.50977e-05
4.3191e-05
-4.51242e-05
7.19801e-07
-7.2357e-07
7.20519e-07
-7.2327e-07
-4.31865e-05
4.51284e-05
4.61916e-07
4.78254e-07
4.59837e-07
4.78333e-07
-4.86442e-07
-4.59957e-07
-4.84661e-07
4.31714e-05
-4.50978e-05
-6.96425e-07
6.98796e-07
-6.96436e-07
4.50975e-05
4.31906e-05
-4.51237e-05
7.1971e-07
-7.23352e-07
7.20863e-07
-7.23716e-07
-4.31862e-05
4.51278e-05
4.618e-07
4.778e-07
4.60507e-07
4.78972e-07
-4.85893e-07
-4.60777e-07
-4.85315e-07
4.31711e-05
-4.5097e-05
-6.96602e-07
6.99407e-07
-6.96793e-07
4.5097e-05
4.31912e-05
-4.51234e-05
7.20331e-07
-7.2407e-07
7.21017e-07
-7.24164e-07
-4.3187e-05
4.51272e-05
4.62842e-07
4.78989e-07
4.60771e-07
4.79475e-07
-4.87171e-07
-4.61531e-07
-4.86124e-07
4.31723e-05
-4.50966e-05
-6.97442e-07
6.99881e-07
-6.97571e-07
4.50963e-05
4.3191e-05
-4.51234e-05
7.20262e-07
-7.24357e-07
7.21031e-07
-7.23743e-07
-4.31872e-05
4.51278e-05
4.62769e-07
4.7916e-07
4.60673e-07
4.8002e-07
-4.87619e-07
-4.60752e-07
-4.86429e-07
4.31724e-05
-4.50953e-05
-6.97927e-07
7.00225e-07
-6.98356e-07
4.50949e-05
4.31908e-05
-4.51233e-05
7.20133e-07
-7.23844e-07
7.20997e-07
-7.23986e-07
-4.31861e-05
4.51271e-05
4.62574e-07
4.80217e-07
4.60493e-07
4.8276e-07
-4.88564e-07
-4.60976e-07
-4.8885e-07
4.31732e-05
-4.50901e-05
-6.99489e-07
7.05021e-07
-7.02546e-07
4.50903e-05
4.31907e-05
-4.51245e-05
7.20268e-07
-7.23936e-07
7.20172e-07
-7.23059e-07
-4.31867e-05
4.51288e-05
4.62363e-07
4.82395e-07
4.59238e-07
4.80326e-07
-4.90529e-07
-4.595e-07
-4.86867e-07
4.31769e-05
-4.50944e-05
-7.03676e-07
7.04442e-07
-7.0159e-07
4.50935e-05
4.31899e-05
-4.51246e-05
7.1935e-07
-7.23177e-07
7.19994e-07
-7.23613e-07
-4.31855e-05
4.51277e-05
4.61233e-07
4.79221e-07
4.59353e-07
4.78358e-07
-4.87428e-07
-4.60332e-07
-4.84744e-07
4.3174e-05
-4.50978e-05
-7.00255e-07
6.99224e-07
-6.96852e-07
4.50976e-05
4.319e-05
-4.51248e-05
7.19197e-07
-7.23716e-07
7.20067e-07
-7.22549e-07
-4.31869e-05
4.51295e-05
4.61311e-07
4.77912e-07
4.59233e-07
4.78039e-07
-4.86143e-07
-4.58938e-07
-4.84152e-07
4.31711e-05
-4.50982e-05
-6.97313e-07
6.98492e-07
-6.96135e-07
4.50979e-05
4.31901e-05
-4.51241e-05
7.19475e-07
-7.227e-07
7.20548e-07
-7.23739e-07
-4.31851e-05
4.51276e-05
4.61423e-07
4.77601e-07
4.59971e-07
4.78663e-07
-4.85405e-07
-4.60742e-07
-4.85073e-07
4.31707e-05
-4.50974e-05
-6.96575e-07
6.99103e-07
-6.97019e-07
4.5097e-05
4.31908e-05
-4.51239e-05
7.20026e-07
-7.23985e-07
7.2085e-07
-7.23533e-07
-4.31873e-05
4.51283e-05
4.6239e-07
4.78583e-07
4.60467e-07
4.78823e-07
-4.86816e-07
-4.60652e-07
-4.85411e-07
4.31717e-05
-4.50972e-05
-6.97577e-07
6.99362e-07
-6.97655e-07
4.50962e-05
4.31909e-05
-4.51235e-05
7.20026e-07
-7.23744e-07
7.21081e-07
-7.23783e-07
-4.31864e-05
4.51278e-05
4.62469e-07
4.78371e-07
4.60936e-07
4.79469e-07
-4.86975e-07
-4.60953e-07
-4.85525e-07
4.31717e-05
-4.50964e-05
-6.98177e-07
7.00056e-07
-6.97868e-07
4.50959e-05
4.31914e-05
-4.51234e-05
7.20509e-07
-7.24024e-07
7.21192e-07
-7.24383e-07
-4.31869e-05
4.5127e-05
4.63148e-07
4.79337e-07
4.61014e-07
4.79828e-07
-4.86951e-07
-4.61508e-07
-4.85647e-07
4.31728e-05
-4.50962e-05
-6.98238e-07
7.00424e-07
-6.98193e-07
4.50957e-05
4.31913e-05
-4.51241e-05
7.20359e-07
-7.2453e-07
7.20568e-07
-7.23646e-07
-4.31875e-05
4.51278e-05
4.62997e-07
4.79241e-07
4.602e-07
4.78631e-07
-4.87153e-07
-4.60679e-07
-4.85185e-07
4.31726e-05
-4.50974e-05
-6.98592e-07
6.99315e-07
-6.98062e-07
4.50961e-05
4.31905e-05
-4.51243e-05
7.19722e-07
-7.23517e-07
7.20568e-07
-7.23188e-07
-4.31866e-05
4.51285e-05
4.62028e-07
4.7812e-07
4.59918e-07
4.78449e-07
-4.86321e-07
-4.60107e-07
-4.84674e-07
4.31714e-05
-4.50976e-05
-6.98194e-07
6.99176e-07
-6.97559e-07
4.50966e-05
4.31904e-05
-4.51247e-05
7.197e-07
-7.23245e-07
7.20104e-07
-7.23277e-07
-4.31861e-05
4.51283e-05
4.61875e-07
4.78013e-07
4.59475e-07
4.78139e-07
-4.86183e-07
-4.59698e-07
-4.8402e-07
4.31713e-05
-4.50976e-05
-6.97851e-07
6.98987e-07
-6.97121e-07
4.5097e-05
4.31901e-05
-4.51248e-05
7.19396e-07
-7.23416e-07
7.20061e-07
-7.23263e-07
-4.31863e-05
4.51284e-05
4.61473e-07
4.77766e-07
4.59421e-07
4.77985e-07
-4.85328e-07
-4.60229e-07
-4.84383e-07
4.31712e-05
-4.50978e-05
-6.97335e-07
6.9884e-07
-6.97201e-07
4.50968e-05
4.31899e-05
-4.51239e-05
7.19345e-07
-7.2341e-07
7.20704e-07
-7.22988e-07
-4.31862e-05
4.51288e-05
4.61553e-07
4.77736e-07
4.60032e-07
4.78405e-07
-4.85879e-07
-4.59721e-07
-4.84516e-07
4.31711e-05
-4.50973e-05
-6.97578e-07
6.99209e-07
-6.97429e-07
4.50964e-05
4.31909e-05
-4.51235e-05
7.2004e-07
-7.23303e-07
7.21084e-07
-7.23956e-07
-4.31858e-05
4.51273e-05
4.62176e-07
4.78202e-07
4.60782e-07
4.79142e-07
-4.86207e-07
-4.61161e-07
-4.85427e-07
4.31716e-05
-4.50968e-05
-6.97926e-07
6.99651e-07
-6.9794e-07
4.50958e-05
4.31913e-05
-4.51236e-05
7.20496e-07
-7.24162e-07
7.21006e-07
-7.2397e-07
-4.31873e-05
4.51274e-05
4.63071e-07
4.78939e-07
4.60922e-07
4.79148e-07
-4.86947e-07
-4.61335e-07
-4.85456e-07
4.31721e-05
-4.50968e-05
-6.98287e-07
6.99663e-07
-6.97805e-07
4.50959e-05
4.31911e-05
-4.51236e-05
7.20239e-07
-7.24082e-07
7.2098e-07
-7.24216e-07
-4.31872e-05
4.51273e-05
4.6291e-07
4.7881e-07
4.60786e-07
4.79275e-07
-4.86845e-07
-4.61462e-07
-4.85614e-07
4.3172e-05
-4.50966e-05
-6.98166e-07
6.99747e-07
-6.98055e-07
4.50958e-05
4.31911e-05
-4.51239e-05
7.20281e-07
-7.2433e-07
7.20875e-07
-7.23341e-07
-4.31874e-05
4.51286e-05
4.62777e-07
4.78815e-07
4.60392e-07
4.78763e-07
-4.86911e-07
-4.60363e-07
-4.84875e-07
4.31721e-05
-4.50971e-05
-6.98257e-07
6.9912e-07
-6.97471e-07
4.50964e-05
4.31907e-05
-4.51242e-05
7.19846e-07
-7.23236e-07
7.20984e-07
-7.2393e-07
-4.31858e-05
4.51279e-05
4.62024e-07
4.78058e-07
4.60456e-07
4.78787e-07
-4.86047e-07
-4.60748e-07
-4.84885e-07
4.31713e-05
-4.50977e-05
-6.97578e-07
6.99003e-07
-6.97592e-07
4.50967e-05
4.31902e-05
-4.51219e-05
7.1852e-07
-7.22217e-07
7.24631e-07
-7.27589e-07
-4.31863e-05
4.51258e-05
4.60457e-07
4.76364e-07
4.64617e-07
4.83043e-07
-4.84265e-07
-4.6509e-07
-4.89542e-07
4.31698e-05
-4.50957e-05
-6.96095e-07
7.02813e-07
-7.01446e-07
4.50943e-05
4.31863e-05
-4.50973e-05
7.12834e-07
-7.16466e-07
7.30221e-07
-7.33543e-07
-4.31822e-05
4.51017e-05
4.5412e-07
4.70138e-07
4.70164e-07
4.88527e-07
-4.78279e-07
-4.70286e-07
-4.95399e-07
4.31658e-05
-4.50717e-05
-6.90699e-07
7.08399e-07
-7.07159e-07
4.50701e-05
4.31416e-05
-4.48886e-05
7.04149e-07
-7.07813e-07
7.00298e-07
-7.04132e-07
-4.31377e-05
4.48921e-05
4.56314e-07
4.71904e-07
4.17107e-07
4.366e-07
-4.80919e-07
-4.17988e-07
-4.4588e-07
4.31208e-05
-4.48625e-05
-6.82286e-07
6.78734e-07
-6.77571e-07
4.48613e-05
4.2812e-05
-4.45633e-05
7.37088e-07
-7.40556e-07
5.44101e-07
-5.48551e-07
-4.28074e-05
4.45668e-05
5.42936e-07
5.56871e-07
1.49514e-07
1.69644e-07
-5.67544e-07
-1.50061e-07
-1.75287e-07
4.27906e-05
-4.45381e-05
-7.15119e-07
5.23077e-07
-5.22127e-07
4.45349e-05
4.27362e-05
-4.35084e-05
1.03432e-06
-1.03823e-06
1.63723e-09
-8.57407e-09
-4.27336e-05
4.35127e-05
9.29378e-07
9.43221e-07
-5.80147e-07
-5.56714e-07
-9.51746e-07
5.79568e-07
5.59099e-07
4.27148e-05
-4.34832e-05
-1.01379e-06
-1.74178e-08
1.85931e-08
4.34818e-05
4.11634e-05
-4.19079e-05
1.59248e-06
-1.59559e-06
-1.14212e-06
1.13143e-06
-4.11602e-05
4.19156e-05
1.81428e-06
1.82953e-06
-1.84413e-06
-1.81594e-06
-1.83252e-06
1.83151e-06
1.81498e-06
4.11461e-05
-4.1885e-05
-1.5721e-06
-1.15873e-06
1.15228e-06
4.18719e-05
3.86241e-05
-3.533e-05
2.89525e-06
-2.90314e-06
-5.00678e-06
4.98361e-06
-3.86215e-05
3.52968e-05
3.3826e-06
3.39934e-06
-6.7381e-06
-6.72e-06
-3.40841e-06
6.71467e-06
6.70636e-06
3.86201e-05