/*--------------------------------*- C++ -*----------------------------------*\
| =========                 |                                                 |
| \\      /  F ield         | OpenFOAM: The Open Source CFD Toolbox           |
|  \\    /   O peration     | Version:  2206                                  |
|   \\  /    A nd           | Website:  www.openfoam.com                      |
|    \\/     M anipulation  |                                                 |
\*---------------------------------------------------------------------------*/
FoamFile
{
    version     2.0;
    format      ascii;
    arch        "LSB;label=32;scalar=64";
    class       surfaceScalarField;
    location    "7.5";
    object      phi;
}
// * * * * * * * * * * * * * * * * * * * * * * * * * * * * * * * * * * * * * //

dimensions      [0 3 -1 0 0 0 0];

oriented        oriented;

internalField   nonuniform List<scalar> 
83438
(
-0.00104218
-1.45375e-05
-1.44339e-05
9.31632e-06
9.14636e-06
0.00105269
-0.000261464
-5.63472e-06
1.44145e-05
6.81286e-06
0.00105943
-4.52431e-06
-1.61554e-06
-2.20901e-06
-2.56828e-06
-6.57751e-06
-7.03041e-06
-3.15958e-06
-0.00026331
-0.000259729
-0.000262835
-0.000261441
-5.63974e-06
1.44434e-05
6.90202e-06
0.00105922
-4.52944e-06
-1.62572e-06
-2.21664e-06
-2.57265e-06
-6.57157e-06
-7.02647e-06
-3.16181e-06
-0.000259701
-0.000263281
-0.000262799
-0.000260571
5.61021e-06
5.65033e-06
-4.8726e-06
-4.86667e-06
0.00025905
-1.277e-06
-1.27903e-06
-0.00106074
7.75007e-07
7.75356e-07
0.00106175
-0.00106261
-1.4975e-06
1.27293e-06
6.23298e-07
0.00106319
-5.16122e-07
9.13884e-07
-1.3211e-08
5.47446e-07
-5.95315e-07
-1.21674e-06
-1.07937e-07
-0.00106229
-1.49253e-06
1.2835e-06
6.18772e-07
0.00106287
-5.16222e-07
9.08342e-07
-1.33909e-08
5.44779e-07
-5.97838e-07
-1.21648e-06
-1.05486e-07
-0.00026149
1.53035e-06
1.49265e-06
-5.75431e-07
-5.78487e-07
0.000259621
-1.17812e-07
-1.18153e-07
-0.00106284
8.04001e-08
8.02965e-08
0.00106292
-0.00106368
-1.18717e-06
1.23176e-07
6.14411e-08
0.00106369
-2.38943e-07
1.14536e-06
1.99742e-07
8.10748e-07
-2.32128e-07
-8.70228e-07
1.75284e-07
-0.00106336
-1.18192e-06
1.18079e-07
6.67073e-08
0.00106336
-2.38993e-07
1.14001e-06
1.99711e-07
8.10585e-07
-2.32073e-07
-8.64769e-07
1.77944e-07
-0.000261612
1.21752e-06
1.18199e-06
-2.31148e-07
-2.38807e-07
0.000259682
-6.71367e-09
-6.7305e-09
-0.00106299
4.43351e-09
4.42097e-09
0.001063
-0.00106368
-1.16386e-06
6.71928e-09
4.53806e-09
0.00106368
-2.21077e-07
1.1633e-06
2.18659e-07
8.33337e-07
-2.01319e-07
-8.36336e-07
1.97437e-07
-0.00106335
-1.15855e-06
6.7324e-09
4.55146e-09
0.00106335
-2.18369e-07
1.15797e-06
2.15943e-07
8.33166e-07
-2.03901e-07
-8.36208e-07
2.00058e-07
-0.000261592
1.19154e-06
1.15866e-06
-2.0846e-07
-2.13629e-07
0.000259664
2.44793e-10
3.2158e-10
-0.001063
-4.54208e-10
-4.12865e-10
0.001063
-0.00106368
-1.16278e-06
-2.9162e-10
1.43954e-09
0.00106368
-2.20134e-07
1.16413e-06
2.19396e-07
8.34564e-07
-1.99957e-07
-8.34821e-07
1.9857e-07
-0.00106335
-1.15744e-06
-3.10464e-10
1.36963e-09
0.00106335
-2.17399e-07
1.15883e-06
2.16712e-07
8.34389e-07
-2.02539e-07
-8.34693e-07
2.01188e-07
-0.000261591
1.19043e-06
1.15755e-06
-2.07497e-07
-2.1266e-07
0.000259663
6.23911e-10
7.26881e-10
-0.001063
-7.2876e-10
-6.69164e-10
0.001063
-0.00106368
-1.16275e-06
-6.76959e-10
1.3735e-09
0.00106368
-2.20113e-07
1.16414e-06
2.194e-07
8.34617e-07
-1.99894e-07
-8.34752e-07
1.98621e-07
-0.00106335
-1.15739e-06
-7.19118e-10
1.26234e-09
0.00106335
-2.1736e-07
1.15886e-06
2.16743e-07
8.34442e-07
-2.02481e-07
-8.34627e-07
2.01235e-07
-0.000261591
1.19038e-06
1.15751e-06
-2.07461e-07
-2.12621e-07
0.000259663
6.36786e-10
7.29568e-10
-0.001063
-7.10438e-10
-6.81937e-10
0.001063
-0.00106368
-1.16272e-06
-7.30564e-10
1.30175e-09
0.00106368
-2.20079e-07
1.16417e-06
2.19441e-07
8.34617e-07
-1.99885e-07
-8.34747e-07
1.98624e-07
-0.00106335
-1.15739e-06
-7.48052e-10
1.26131e-09
0.00106335
-2.17358e-07
1.15887e-06
2.16745e-07
8.34448e-07
-2.02474e-07
-8.3462e-07
2.01241e-07
-0.000261591
1.19038e-06
1.1575e-06
-2.07454e-07
-2.12618e-07
0.000259663
6.74798e-10
7.26443e-10
-0.001063
-7.0031e-10
-6.9235e-10
0.001063
-0.00106368
-1.16271e-06
-7.60025e-10
1.27707e-09
0.00106368
-2.20071e-07
1.16419e-06
2.19455e-07
8.34622e-07
-1.99886e-07
-8.34745e-07
1.98626e-07
-0.00106335
-1.15739e-06
-7.51948e-10
1.26194e-09
0.00106335
-2.17357e-07
1.15887e-06
2.16746e-07
8.34448e-07
-2.02474e-07
-8.3462e-07
2.01241e-07
-0.000261591
1.19038e-06
1.1575e-06
-2.07453e-07
-2.12619e-07
0.000259663
6.83045e-10
7.30512e-10
-0.001063
-7.14104e-10
-7.09864e-10
0.001063
-0.00106368
-1.16271e-06
-7.41014e-10
1.27623e-09
0.00106368
-2.20071e-07
1.16419e-06
2.19453e-07
8.34618e-07
-1.99891e-07
-8.3475e-07
1.98622e-07
-0.00106335
-1.15739e-06
-7.34526e-10
1.26441e-09
0.00106335
-2.17358e-07
1.15886e-06
2.16744e-07
8.34446e-07
-2.02478e-07
-8.34624e-07
2.01238e-07
-0.000261591
1.19038e-06
1.1575e-06
-2.07453e-07
-2.12621e-07
0.000259663
6.68561e-10
7.19219e-10
-0.001063
-6.98965e-10
-6.88468e-10
0.001063
-0.00106368
-1.16271e-06
-7.54901e-10
1.279e-09
0.00106368
-2.20071e-07
1.16419e-06
2.19451e-07
8.34621e-07
-1.99888e-07
-8.34747e-07
1.98624e-07
-0.00106335
-1.15739e-06
-7.46449e-10
1.26342e-09
0.00106335
-2.17359e-07
1.15886e-06
2.16745e-07
8.34448e-07
-2.02476e-07
-8.34622e-07
2.01241e-07
-0.000261591
1.19038e-06
1.1575e-06
-2.07453e-07
-2.12621e-07
0.000259663
5.63321e-10
7.07076e-10
-0.001063
-6.67586e-10
-6.51299e-10
0.001063
-0.00106368
-1.16271e-06
-7.80016e-10
1.27859e-09
0.00106368
-2.17382e-07
1.16419e-06
2.16762e-07
8.34626e-07
-1.99863e-07
-8.34744e-07
1.98611e-07
-0.00106335
-1.15739e-06
-7.58018e-10
1.26245e-09
0.00106335
-2.17357e-07
1.15887e-06
2.16747e-07
8.34451e-07
-2.02473e-07
-8.34618e-07
2.01245e-07
-0.000261591
1.19038e-06
1.15749e-06
-2.0745e-07
-2.12619e-07
0.000259663
7.60364e-10
7.63029e-10
-0.001063
-7.23273e-10
-7.55409e-10
0.001063
-0.00106368
-1.16268e-06
-8.15879e-10
1.21942e-09
0.00106368
-2.17352e-07
1.1642e-06
2.16774e-07
8.34619e-07
-1.99824e-07
-8.34723e-07
1.986e-07
-0.00106335
-1.15737e-06
-7.85248e-10
1.24303e-09
0.00106335
-2.17335e-07
1.15886e-06
2.1674e-07
8.34443e-07
-2.02444e-07
-8.34599e-07
2.01226e-07
-0.000261591
1.19037e-06
1.15748e-06
-2.0743e-07
-2.12603e-07
0.000259663
5.22574e-06
5.23658e-06
0.000260574
-0.000259162
-5.94425e-06
-5.93015e-06
5.07823e-06
0.000261412
-0.000258681
-5.96249e-06
3.37867e-06
-5.22581e-06
5.0732e-06
0.000261446
-0.000258696
-5.97049e-06
3.37382e-06
5.22641e-06
0.000260587
-0.000259164
-5.91565e-06
-5.95885e-06
5.07133e-06
0.000261476
-0.000258712
-5.96801e-06
3.36849e-06
5.07806e-06
-5.22806e-06
0.00026142
-0.000258681
3.38374e-06
-5.97271e-06
1.07183e-05
1.06245e-05
-0.000252647
-0.000256075
-0.000255116
-0.000255116
-6.41951e-06
-4.1209e-06
-6.66667e-06
-6.4199e-06
-4.12183e-06
-6.67223e-06
-5.06628e-06
0.0010422
1.06779e-05
1.06298e-05
-0.00025265
-0.000256073
-0.000255118
-0.000255119
-6.42213e-06
-4.12118e-06
-6.66941e-06
-6.41736e-06
-4.11661e-06
-6.66463e-06
-5.06592e-06
0.00104208
1.07381e-05
1.06904e-05
-0.000252642
-0.000256068
-0.000255116
-0.000255111
-6.42199e-06
-4.12857e-06
-6.66936e-06
-6.4222e-06
-4.11883e-06
-6.66696e-06
-5.08063e-06
-5.06873e-06
0.00104215
1.07335e-05
1.06347e-05
-0.000252645
-0.00025607
-0.000255116
-0.000255116
-6.41689e-06
-4.12352e-06
-6.66435e-06
-6.42234e-06
-4.12166e-06
-6.66969e-06
-0.000258707
-5.96036e-06
3.36344e-06
-5.22567e-06
0.000261407
-0.000258679
3.37872e-06
-5.96244e-06
5.22883e-06
0.000260566
-0.000259149
-5.91795e-06
-5.95609e-06
-0.000258691
3.37101e-06
-5.95748e-06
-5.23658e-06
0.000261474
-0.000258707
3.36601e-06
-5.96547e-06
-0.000259159
-5.94412e-06
-5.93016e-06
5.61048e-06
5.64767e-06
-4.8728e-06
-4.86665e-06
0.000259055
-7.79808e-07
-7.44016e-07
0.0002615
-0.000259456
-2.64126e-07
-2.56832e-07
7.06507e-06
0.00105883
-4.52167e-06
-1.56904e-06
-2.20371e-06
-2.56939e-06
-6.5919e-06
-7.0362e-06
-3.16659e-06
-0.000263271
-0.000259685
-0.000262799
-5.62094e-06
1.45111e-05
7.00458e-06
0.0010592
-4.54079e-06
-1.56146e-06
-2.20686e-06
-2.58033e-06
-6.62342e-06
-7.05311e-06
-3.18229e-06
-0.000263345
-0.000259716
-0.00026284
0.00106185
2.04946e-06
-0.0010609
9.94567e-07
-1.71096e-06
-1.63987e-07
-6.84294e-07
-1.44502e-06
-3.05922e-07
-8.08556e-07
3.46425e-07
7.87903e-07
0.00106227
2.04995e-06
-0.00106132
9.89453e-07
-1.72139e-06
-1.56457e-07
-6.8975e-07
-1.45072e-06
-3.06125e-07
-8.08921e-07
3.51828e-07
-4.87088e-06
-4.86354e-06
0.000259065
-7.46692e-07
0.000261526
-0.000259476
-2.61483e-07
-2.53959e-07
6.78651e-06
0.00105967
-4.54593e-06
-1.6283e-06
-2.21989e-06
-2.57864e-06
-6.60594e-06
-7.04851e-06
-3.1775e-06
-0.000263366
-0.000259744
-0.000262853
-5.62062e-06
1.45456e-05
7.09836e-06
0.00105898
-4.5406e-06
-1.57147e-06
-2.21186e-06
-2.58228e-06
-6.62276e-06
-7.05201e-06
-3.18189e-06
-0.000259685
-0.000263322
-0.000262811
0.00106287
2.05733e-06
-0.00106191
9.82678e-07
-1.68104e-06
-1.6648e-07
-6.84574e-07
-1.44812e-06
-3.06183e-07
-8.06345e-07
3.48676e-07
7.77289e-07
0.00106196
2.06045e-06
-0.00106103
1.00505e-06
-1.71099e-06
-1.6154e-07
-6.8447e-07
-1.44792e-06
-3.03571e-07
-8.11343e-07
3.46257e-07
1.45425e-05
7.08566e-06
0.00105878
-4.52158e-06
-1.5689e-06
-2.20106e-06
-2.56943e-06
-6.59193e-06
-3.16663e-06
-7.03389e-06
-0.00025968
-0.000263266
-0.000262793
2.05659e-06
-0.00106165
9.87945e-07
-1.68097e-06
-1.63794e-07
-6.81641e-07
-1.44542e-06
-3.0854e-07
3.43513e-07
-8.06096e-07
7.77259e-07
0.00106175
2.0599e-06
-0.00106082
1.00509e-06
-1.7109e-06
-1.61436e-07
-6.84241e-07
-1.44775e-06
-3.05985e-07
-8.08535e-07
3.48887e-07
-4.87576e-06
-4.86333e-06
0.000259045
-7.38487e-07
0.000261477
-0.000259438
-2.64599e-07
-2.59121e-07
1.44436e-05
6.80473e-06
0.00105962
-4.54608e-06
-1.62834e-06
-2.21998e-06
-2.5785e-06
-6.60584e-06
-3.17743e-06
-7.0458e-06
-0.000259734
-0.000263363
-0.000262847
2.06167e-06
-0.00106135
1.00403e-06
-1.67848e-06
-1.66439e-07
-6.84386e-07
-1.44232e-06
-3.03523e-07
3.43531e-07
-8.08639e-07
7.38616e-07
0.00106277
2.0624e-06
-0.00106183
9.9342e-07
-1.67599e-06
-1.66569e-07
-6.82024e-07
-1.44544e-06
-3.06048e-07
-8.08821e-07
3.43671e-07
-0.000259453
-2.61675e-07
-2.59366e-07
1.53041e-06
1.49498e-06
-5.72655e-07
-5.81141e-07
0.000259629
-1.15943e-06
-1.12139e-06
0.000261625
-0.000259695
1.71645e-07
1.79152e-07
6.24637e-07
0.00106244
-5.18755e-07
9.46875e-07
-9.09188e-09
5.47615e-07
-5.95066e-07
-1.21895e-06
-1.07798e-07
-1.5357e-06
1.27735e-06
6.19301e-07
0.00106286
-5.2159e-07
9.54934e-07
-9.05183e-09
5.53104e-07
-5.97975e-07
-1.22455e-06
-1.05531e-07
0.00106291
2.35271e-07
-0.00106288
1.19216e-07
-1.2475e-06
1.90916e-07
-2.68545e-07
-9.00542e-07
1.50412e-07
-2.63991e-07
7.87041e-07
1.16481e-06
0.00106335
2.35332e-07
-0.00106331
1.14057e-07
-1.25274e-06
1.90955e-07
-2.68568e-07
-9.03403e-07
1.50427e-07
-2.64132e-07
7.89897e-07
-5.7309e-07
-5.8059e-07
0.000259646
-1.1266e-06
0.00026165
-0.000259707
1.71849e-07
1.76539e-07
6.18153e-07
0.00106346
-5.16217e-07
9.11304e-07
-1.10538e-08
5.50037e-07
-5.98184e-07
-1.22218e-06
-1.05599e-07
-1.53037e-06
1.28278e-06
6.24768e-07
0.00106254
-5.21523e-07
9.47001e-07
-9.11369e-09
5.47565e-07
-5.97801e-07
-1.21921e-06
-1.0544e-07
0.00106394
2.35849e-07
-0.00106391
1.18783e-07
-1.20929e-06
1.8575e-07
-2.6319e-07
-8.98125e-07
1.53038e-07
-2.64286e-07
7.89766e-07
1.15429e-06
0.00106303
2.35576e-07
-0.00106299
1.19253e-07
-1.24488e-06
1.88213e-07
-2.68566e-07
-9.00696e-07
1.50347e-07
-2.64124e-07
7.8975e-07
1.27726e-06
6.24704e-07
0.00106234
-5.21422e-07
9.44297e-07
-1.124e-08
5.47462e-07
-5.97785e-07
-1.05507e-07
-1.21912e-06
2.35656e-07
-0.00106365
1.23886e-07
-1.21708e-06
1.82982e-07
-2.63155e-07
-8.98017e-07
1.53083e-07
7.89674e-07
-2.64139e-07
1.15686e-06
0.00106282
2.30306e-07
-0.00106278
1.19269e-07
-1.24483e-06
1.88223e-07
-2.68521e-07
-9.0061e-07
1.50297e-07
-2.64063e-07
7.87066e-07
-5.75939e-07
-5.77959e-07
0.000259608
-1.11859e-06
0.000261599
-0.000259674
1.71718e-07
1.76546e-07
1.27867e-06
6.13114e-07
0.00106338
-5.1643e-07
9.05768e-07
-1.57208e-08
5.44893e-07
-5.95386e-07
-1.10274e-07
-1.21664e-06
2.35739e-07
-0.00106332
1.19057e-07
-1.20664e-06
1.82903e-07
-2.63241e-07
-8.9255e-07
1.50386e-07
7.81639e-07
-2.64087e-07
1.12132e-06
0.00106385
2.35852e-07
-0.00106381
1.18963e-07
-1.20675e-06
1.82963e-07
-2.63274e-07
-9.00659e-07
1.5039e-07
-2.66846e-07
7.87138e-07
-0.000259682
1.71606e-07
1.76721e-07
1.22013e-06
1.1872e-06
-2.28573e-07
-2.36302e-07
0.000259682
-1.19512e-06
-1.15964e-06
0.000261607
-0.000259667
2.04858e-07
2.09994e-07
6.17557e-08
0.00106293
-2.46994e-07
1.17823e-06
2.07669e-07
8.10708e-07
-2.29369e-07
-8.64884e-07
1.72606e-07
-1.22546e-06
1.17845e-07
7.19289e-08
0.00106335
-2.47042e-07
1.18358e-06
2.07743e-07
8.16246e-07
-2.32149e-07
-8.70375e-07
1.77986e-07
0.00106292
1.45074e-08
-0.00106293
8.40935e-09
-1.19816e-06
2.20237e-07
-2.24886e-07
-8.38039e-07
1.93393e-07
-2.00191e-07
8.31869e-07
1.20047e-06
0.00106334
1.45434e-08
-0.00106334
8.39775e-09
-1.20349e-06
2.23003e-07
-2.27648e-07
-8.46198e-07
1.98789e-07
-2.05613e-07
8.40007e-07
-2.31279e-07
-2.33603e-07
0.000259703
-1.16224e-06
0.000261636
-0.000259693
2.07596e-07
2.12358e-07
6.142e-08
0.00106396
-2.44362e-07
1.14277e-06
2.02474e-07
8.13454e-07
-2.32206e-07
-8.70285e-07
1.77962e-07
-1.21755e-06
1.18043e-07
6.68599e-08
0.00106303
-2.47023e-07
1.17567e-06
2.07744e-07
8.1338e-07
-2.32112e-07
-8.6767e-07
1.77949e-07
0.00106394
1.45447e-08
-0.00106395
8.28999e-09
-1.16264e-06
2.17703e-07
-2.22294e-07
-8.4077e-07
1.98806e-07
-2.05615e-07
8.34615e-07
1.19518e-06
0.00106303
1.45697e-08
-0.00106303
8.40741e-09
-1.19822e-06
2.22992e-07
-2.2764e-07
-8.40724e-07
1.98744e-07
-2.05573e-07
8.34528e-07
1.23104e-07
6.1776e-08
0.00106284
-2.44278e-07
1.17301e-06
2.02292e-07
8.13363e-07
-2.32044e-07
1.75227e-07
-8.67586e-07
1.45208e-08
-0.00106369
8.29185e-09
-1.16524e-06
2.17699e-07
-2.22294e-07
-8.38095e-07
1.96127e-07
8.31927e-07
-2.02923e-07
1.18989e-06
0.00106283
1.45686e-08
-0.00106283
8.41374e-09
-1.19293e-06
2.17552e-07
-2.22189e-07
-8.38074e-07
1.96023e-07
-2.02846e-07
8.31884e-07
-2.31307e-07
-2.36093e-07
0.000259667
-1.15691e-06
0.000261587
-0.000259652
2.05052e-07
2.12317e-07
1.18122e-07
6.66809e-08
0.00106386
-2.39021e-07
1.13492e-06
1.97079e-07
8.10898e-07
-2.29495e-07
1.75296e-07
-8.65023e-07
1.45433e-08
-0.00106335
8.32334e-09
-1.15994e-06
2.14982e-07
-2.19591e-07
-8.37925e-07
1.98728e-07
8.31807e-07
-2.05527e-07
1.15702e-06
0.00106386
1.45714e-08
-0.00106386
8.31392e-09
-1.16004e-06
2.15036e-07
-2.19645e-07
-8.3557e-07
1.96127e-07
-2.02925e-07
8.29405e-07
-0.000259665
2.07357e-07
2.12527e-07
1.19677e-06
1.16126e-06
-2.05939e-07
-2.11094e-07
0.000259666
-1.197e-06
-1.16149e-06
0.000261606
-0.000259665
2.06344e-07
2.11505e-07
4.6129e-09
0.00106292
-2.23664e-07
1.19619e-06
2.21204e-07
8.33277e-07
-1.98585e-07
-8.36279e-07
1.94707e-07
-1.20211e-06
6.7693e-09
4.61047e-09
0.00106334
-2.26428e-07
1.20153e-06
2.23964e-07
8.41418e-07
-2.04004e-07
-8.44434e-07
2.00101e-07
0.00106292
2.06598e-10
-0.00106292
1.56898e-09
-1.19571e-06
2.21935e-07
-2.22734e-07
-8.3486e-07
1.95759e-07
-1.9731e-07
8.34425e-07
1.20233e-06
0.00106334
2.38971e-10
-0.00106334
1.62992e-09
-1.20106e-06
2.24681e-07
-2.25509e-07
-8.4301e-07
2.01151e-07
-2.02722e-07
8.42562e-07
-2.08673e-07
-2.13447e-07
0.000259692
-1.16409e-06
0.000261635
-0.000259691
2.09069e-07
2.13853e-07
4.52936e-09
0.00106394
-2.21083e-07
1.16069e-06
2.1866e-07
8.36026e-07
-2.04005e-07
-8.39008e-07
2.00123e-07
-1.19683e-06
6.76047e-09
4.62571e-09
0.00106302
-2.2642e-07
1.19624e-06
2.23954e-07
8.35946e-07
-2.03954e-07
-8.38955e-07
2.00067e-07
0.00106394
1.46708e-10
-0.00106394
1.53895e-09
-1.16022e-06
2.19376e-07
-2.20169e-07
-8.37564e-07
2.01196e-07
-2.02706e-07
8.37192e-07
1.19705e-06
0.00106302
2.04748e-10
-0.00106302
1.5854e-09
-1.19577e-06
2.24681e-07
-2.25495e-07
-8.37528e-07
2.01133e-07
-2.02665e-07
8.37095e-07
6.76115e-09
4.62172e-09
0.00106282
-2.20967e-07
1.19095e-06
2.18513e-07
8.33294e-07
-2.01241e-07
1.97334e-07
-8.36317e-07
1.68346e-10
-0.00106368
1.57643e-09
-1.16282e-06
2.19362e-07
-2.20168e-07
-8.34899e-07
1.98512e-07
8.34497e-07
-2.00024e-07
1.19176e-06
0.00106282
2.03266e-10
-0.00106282
1.56548e-09
-1.19049e-06
2.19248e-07
-2.20039e-07
-8.34883e-07
1.98414e-07
-1.99941e-07
8.34452e-07
-2.06146e-07
-2.13424e-07
0.000259651
-1.15878e-06
0.000261586
-0.00025965
2.06552e-07
2.13821e-07
6.76089e-09
4.55026e-09
0.00106386
-2.18422e-07
1.15808e-06
2.15996e-07
8.30816e-07
-2.01319e-07
1.97436e-07
-8.33807e-07
1.55024e-10
-0.00106335
1.52475e-09
-1.1575e-06
2.16667e-07
-2.17446e-07
-8.34724e-07
2.01113e-07
8.34378e-07
-2.02624e-07
1.15888e-06
0.00106385
1.53106e-10
-0.00106385
1.54001e-09
-1.15761e-06
2.16724e-07
-2.17502e-07
-8.32367e-07
1.98517e-07
-2.00018e-07
8.31978e-07
-0.000259663
2.08855e-07
2.14033e-07
1.19566e-06
1.16016e-06
-2.04987e-07
-2.1012e-07
0.000259665
-1.19709e-06
-1.16157e-06
0.000261606
-0.000259665
2.06397e-07
2.11565e-07
1.40072e-09
0.00106292
-2.22689e-07
1.19705e-06
2.21978e-07
8.34488e-07
-1.97246e-07
-8.34774e-07
1.95822e-07
-1.20101e-06
-1.54412e-10
1.47678e-09
0.00106334
-2.25473e-07
1.20237e-06
2.24714e-07
8.42615e-07
-2.02667e-07
-8.42941e-07
2.01193e-07
0.00106292
-6.04318e-10
-0.00106292
1.26966e-09
-1.19561e-06
2.22009e-07
-2.22647e-07
-8.34722e-07
1.95863e-07
-1.97191e-07
8.34534e-07
1.2024e-06
0.00106334
-5.07152e-10
-0.00106334
1.39593e-09
-1.20097e-06
2.24742e-07
-2.2544e-07
-8.42886e-07
2.01236e-07
-2.02624e-07
8.42662e-07
-2.07732e-07
-2.1249e-07
0.000259691
-1.16415e-06
0.000261634
-0.000259691
2.09105e-07
2.13908e-07
1.39383e-09
0.00106394
-2.20127e-07
1.16154e-06
2.19417e-07
8.37258e-07
-2.02634e-07
-8.37486e-07
2.01261e-07
-1.19572e-06
-2.5472e-10
1.42014e-09
0.00106302
-2.25449e-07
1.19709e-06
2.24725e-07
8.37162e-07
-2.0259e-07
-8.37445e-07
2.01197e-07
0.00106394
-7.28278e-10
-0.00106394
1.29382e-09
-1.16012e-06
2.19442e-07
-2.20091e-07
-8.37416e-07
2.01304e-07
-2.02576e-07
8.37311e-07
1.19713e-06
0.00106302
-6.43458e-10
-0.00106302
1.30222e-09
-1.19567e-06
2.24754e-07
-2.25408e-07
-8.37383e-07
2.01241e-07
-2.02538e-07
8.37214e-07
-2.3916e-10
1.39817e-09
0.00106282
-2.19991e-07
1.19181e-06
2.19289e-07
8.34514e-07
-1.99875e-07
1.98467e-07
-8.34808e-07
-6.63507e-10
-0.00106368
1.36777e-09
-1.16275e-06
2.1941e-07
-2.20116e-07
-8.34751e-07
1.98625e-07
8.3462e-07
-1.99893e-07
1.19185e-06
0.00106282
-6.25252e-10
-0.00106282
1.27005e-09
-1.19038e-06
2.19322e-07
-2.19951e-07
-8.34743e-07
1.98519e-07
-1.99816e-07
8.34566e-07
-2.05184e-07
-2.12456e-07
0.00025965
-1.15886e-06
0.000261585
-0.00025965
2.0661e-07
2.1388e-07
-3.21408e-10
1.38985e-09
0.00106385
-2.17454e-07
1.15893e-06
2.16765e-07
8.32043e-07
-1.99951e-07
1.98572e-07
-8.32289e-07
-7.15136e-10
-0.00106335
1.2555e-09
-1.1574e-06
2.16739e-07
-2.1736e-07
-8.34578e-07
2.0122e-07
8.34497e-07
-2.02498e-07
1.15896e-06
0.00106385
-7.21097e-10
-0.00106385
1.27486e-09
-1.15751e-06
2.16794e-07
-2.17417e-07
-8.3222e-07
1.98627e-07
-1.99887e-07
8.32099e-07
-0.000259663
2.08912e-07
2.14093e-07
1.19561e-06
1.16012e-06
-2.04954e-07
-2.10082e-07
0.000259665
-1.19708e-06
-1.16157e-06
0.000261606
-0.000259665
2.06398e-07
2.11565e-07
1.27667e-09
0.00106292
-2.22648e-07
1.19709e-06
2.22012e-07
8.34533e-07
-1.97187e-07
-8.3472e-07
1.95868e-07
-1.20097e-06
-5.06506e-10
1.39319e-09
0.00106334
-2.25442e-07
1.2024e-06
2.24729e-07
8.42645e-07
-2.02638e-07
-8.42886e-07
2.01201e-07
0.00106292
-6.50024e-10
-0.00106292
1.29145e-09
-1.19561e-06
2.22005e-07
-2.22652e-07
-8.34713e-07
1.95866e-07
-1.97183e-07
8.34539e-07
1.20242e-06
0.00106334
-6.44697e-10
-0.00106334
1.31319e-09
-1.20095e-06
2.24772e-07
-2.25404e-07
-8.42847e-07
2.01279e-07
-2.02576e-07
8.42697e-07
-2.07722e-07
-2.12454e-07
0.000259691
-1.16418e-06
0.000261634
-0.000259691
2.09144e-07
2.13917e-07
1.29885e-09
0.00106394
-2.20092e-07
1.16157e-06
2.19444e-07
8.37309e-07
-2.02576e-07
-8.3742e-07
2.01308e-07
-1.19567e-06
-6.60167e-10
1.30219e-09
0.00106302
-2.25408e-07
1.19713e-06
2.24757e-07
8.37214e-07
-2.02532e-07
-8.37379e-07
2.01244e-07
0.00106394
-7.52046e-10
-0.00106394
1.29242e-09
-1.16011e-06
2.19442e-07
-2.20088e-07
-8.37412e-07
2.01307e-07
-2.02572e-07
8.37315e-07
1.19713e-06
0.00106302
-6.8155e-10
-0.00106302
1.28568e-09
-1.19567e-06
2.24759e-07
-2.25403e-07
-8.37377e-07
2.01246e-07
-2.02532e-07
8.37219e-07
-6.39196e-10
1.27314e-09
0.00106282
-2.1995e-07
1.19185e-06
2.19323e-07
8.34565e-07
-1.99818e-07
1.98514e-07
-8.34744e-07
-7.29815e-10
-0.00106368
1.3055e-09
-1.16272e-06
2.19447e-07
-2.20081e-07
-8.34742e-07
1.98633e-07
8.34624e-07
-1.9988e-07
1.19185e-06
0.00106282
-6.77411e-10
-0.00106282
1.27453e-09
-1.19038e-06
2.19324e-07
-2.19949e-07
-8.34733e-07
1.98527e-07
-1.99808e-07
8.34576e-07
-2.05146e-07
-2.12418e-07
0.00025965
-1.15886e-06
0.000261585
-0.00025965
2.06614e-07
2.13885e-07
-7.33067e-10
1.28239e-09
0.00106385
-2.17415e-07
1.15896e-06
2.16795e-07
8.32096e-07
-1.9989e-07
1.98621e-07
-8.32221e-07
-7.63106e-10
-0.00106335
1.25059e-09
-1.15739e-06
2.16742e-07
-2.17356e-07
-8.3457e-07
2.01227e-07
8.34505e-07
-2.0249e-07
1.15897e-06
0.00106385
-7.67429e-10
-0.00106385
1.25883e-09
-1.1575e-06
2.16801e-07
-2.17411e-07
-8.32212e-07
1.98635e-07
-1.9988e-07
8.32106e-07
-0.000259663
2.08918e-07
2.14096e-07
1.19562e-06
1.16012e-06
-2.04955e-07
-2.10087e-07
0.000259665
-1.1997e-06
-1.16156e-06
0.000261609
-0.000259665
2.06412e-07
2.11564e-07
1.33269e-09
0.00106292
-2.22665e-07
1.19969e-06
2.24687e-07
8.34529e-07
-1.97189e-07
-8.34717e-07
1.95857e-07
-1.20095e-06
-6.29785e-10
1.31519e-09
0.00106334
-2.25414e-07
1.20241e-06
2.24763e-07
8.4268e-07
-2.02595e-07
-8.42855e-07
2.01257e-07
0.00106292
-6.2071e-10
-0.00106292
1.36654e-09
-1.19824e-06
2.24682e-07
-2.25363e-07
-8.34725e-07
1.9586e-07
-1.97205e-07
8.34532e-07
1.20242e-06
0.00106334
-6.67799e-10
-0.00106334
1.28255e-09
-1.20095e-06
2.24771e-07
-2.25405e-07
-8.4022e-07
2.01281e-07
-2.02581e-07
8.40064e-07
-2.07686e-07
-2.12444e-07
0.000259691
-1.16418e-06
0.000261634
-0.000259691
2.09145e-07
2.13921e-07
1.30931e-09
0.00106394
-2.20094e-07
1.16156e-06
2.1944e-07
8.37313e-07
-2.02574e-07
-8.37418e-07
2.0131e-07
-1.19567e-06
-6.81587e-10
1.2898e-09
0.00106302
-2.25403e-07
1.19714e-06
2.24762e-07
8.3722e-07
-2.02527e-07
-8.37374e-07
2.01249e-07
0.00106394
-7.42858e-10
-0.00106394
1.31207e-09
-1.16013e-06
2.19428e-07
-2.2011e-07
-8.37407e-07
2.01314e-07
-2.02567e-07
8.3732e-07
1.19714e-06
0.00106302
-6.8625e-10
-0.00106302
1.27989e-09
-1.19566e-06
2.24761e-07
-2.25399e-07
-8.37374e-07
2.01248e-07
-2.02529e-07
8.37222e-07
-6.7504e-10
1.28772e-09
0.00106282
-2.19948e-07
1.19185e-06
2.19323e-07
8.34572e-07
-1.99811e-07
1.9852e-07
-8.34736e-07
-7.64924e-10
-0.00106368
1.27968e-09
-1.16271e-06
2.1945e-07
-2.20071e-07
-8.34741e-07
1.98632e-07
8.34626e-07
-1.99881e-07
1.19185e-06
0.00106282
-6.97345e-10
-0.00106282
1.28803e-09
-1.19038e-06
2.19324e-07
-2.19949e-07
-8.34729e-07
1.9853e-07
-1.99804e-07
8.34579e-07
-2.05143e-07
-2.12413e-07
0.00025965
-1.15886e-06
0.000261585
-0.00025965
2.06615e-07
2.13887e-07
-7.55737e-10
1.2668e-09
0.00106385
-2.17409e-07
1.15897e-06
2.16801e-07
8.32101e-07
-1.99884e-07
1.98626e-07
-8.32216e-07
-7.72218e-10
-0.00106335
1.25212e-09
-1.15739e-06
2.16744e-07
-2.17354e-07
-8.34567e-07
2.0123e-07
8.34507e-07
-2.02487e-07
1.15897e-06
0.00106385
-7.65078e-10
-0.00106385
1.24791e-09
-1.1575e-06
2.16804e-07
-2.17407e-07
-8.32211e-07
1.98635e-07
-1.99879e-07
8.32106e-07
-0.000259663
2.08921e-07
2.14096e-07
1.19823e-06
1.16012e-06
-2.04991e-07
-2.10088e-07
0.000259665
-1.1997e-06
-1.16158e-06
0.000261609
-0.000259665
2.06443e-07
2.11565e-07
1.32283e-09
0.00106291
-2.25348e-07
1.1997e-06
2.24726e-07
8.34541e-07
-1.97177e-07
-8.34714e-07
1.98551e-07
-1.20095e-06
-6.69508e-10
1.28611e-09
0.00106334
-2.25408e-07
1.20242e-06
2.24772e-07
8.40062e-07
-2.02577e-07
-8.40218e-07
2.0128e-07
0.00106291
-6.84394e-10
-0.00106291
1.31558e-09
-1.19823e-06
2.24722e-07
-2.25367e-07
-8.34702e-07
1.98547e-07
-1.99837e-07
8.3455e-07
1.20242e-06
0.00106334
-6.8225e-10
-0.00106334
1.30275e-09
-1.20095e-06
2.24766e-07
-2.2541e-07
-8.40217e-07
2.01282e-07
-2.02576e-07
8.40064e-07
-2.07673e-07
-2.12441e-07
0.000259691
-1.16419e-06
0.000261634
-0.000259691
2.09147e-07
2.13917e-07
1.28976e-09
0.00106394
-2.20098e-07
1.16157e-06
2.1945e-07
8.37313e-07
-2.02568e-07
-8.37414e-07
2.01313e-07
-1.19566e-06
-6.84692e-10
1.2898e-09
0.00106302
-2.25402e-07
1.19714e-06
2.24762e-07
8.3722e-07
-2.02526e-07
-8.37373e-07
2.01249e-07
0.00106394
-7.51083e-10
-0.00106394
1.26098e-09
-1.1601e-06
2.19453e-07
-2.20078e-07
-8.37412e-07
2.01306e-07
-2.0257e-07
8.37312e-07
1.19713e-06
0.00106302
-6.78429e-10
-0.00106302
1.29705e-09
-1.19567e-06
2.24758e-07
-2.25403e-07
-8.37376e-07
2.01245e-07
-2.02531e-07
8.37219e-07
-6.91055e-10
1.29733e-09
0.00106282
-2.19949e-07
1.19185e-06
2.19322e-07
8.34574e-07
-1.99809e-07
1.98522e-07
-8.34733e-07
-7.53378e-10
-0.00106368
1.27272e-09
-1.16271e-06
2.19451e-07
-2.2007e-07
-8.34745e-07
1.98628e-07
8.34622e-07
-1.99886e-07
1.19185e-06
0.00106282
-6.93762e-10
-0.00106282
1.29554e-09
-1.19038e-06
2.19321e-07
-2.19952e-07
-8.3473e-07
1.98529e-07
-1.99805e-07
8.34578e-07
-2.05142e-07
-2.12412e-07
0.00025965
-1.15886e-06
0.000261585
-0.00025965
2.06614e-07
2.13884e-07
-7.53623e-10
1.26101e-09
0.00106385
-2.17407e-07
1.15897e-06
2.16803e-07
8.321e-07
-1.99885e-07
1.98625e-07
-8.32216e-07
-7.58109e-10
-0.00106335
1.25267e-09
-1.15739e-06
2.16743e-07
-2.17355e-07
-8.34571e-07
2.01226e-07
8.34503e-07
-2.0249e-07
1.15897e-06
0.00106385
-7.54431e-10
-0.00106385
1.24621e-09
-1.1575e-06
2.16803e-07
-2.17408e-07
-8.32213e-07
1.98632e-07
-1.99882e-07
8.32104e-07
-0.000259663
2.0892e-07
2.14094e-07
1.19823e-06
1.1601e-06
-2.04977e-07
-2.10088e-07
0.000259665
-1.1997e-06
-1.16158e-06
0.000261609
-0.000259665
2.06443e-07
2.11563e-07
1.31912e-09
0.00106291
-2.25367e-07
1.1997e-06
2.24723e-07
8.34545e-07
-1.99836e-07
-8.34704e-07
1.98548e-07
-1.20095e-06
-6.69947e-10
1.30572e-09
0.00106334
-2.25413e-07
1.20242e-06
2.24768e-07
8.4006e-07
-2.02576e-07
-8.4022e-07
2.01278e-07
0.00106291
-6.60981e-10
-0.00106291
1.33878e-09
-1.19824e-06
2.24713e-07
-2.25374e-07
-8.34708e-07
1.98547e-07
-1.99844e-07
8.34548e-07
1.20242e-06
0.00106334
-6.82236e-10
-0.00106334
1.30978e-09
-1.20095e-06
2.24771e-07
-2.25408e-07
-8.40219e-07
2.01287e-07
-2.02574e-07
8.40068e-07
-2.07669e-07
-2.12444e-07
0.000259691
-1.16418e-06
0.000261634
-0.000259691
2.09143e-07
2.13922e-07
1.26922e-09
0.00106394
-2.20079e-07
1.16158e-06
2.19455e-07
8.37308e-07
-2.02573e-07
-8.37419e-07
2.01307e-07
-1.19567e-06
-6.74681e-10
1.30663e-09
0.00106302
-2.25406e-07
1.19713e-06
2.24758e-07
8.37217e-07
-2.02529e-07
-8.37376e-07
2.01246e-07
0.00106394
-7.41971e-10
-0.00106394
1.27694e-09
-1.16011e-06
2.19447e-07
-2.20083e-07
-8.37413e-07
2.01305e-07
-2.02572e-07
8.37314e-07
1.19713e-06
0.00106302
-6.76151e-10
-0.00106302
1.29339e-09
-1.19567e-06
2.24758e-07
-2.25403e-07
-8.37378e-07
2.01245e-07
-2.02533e-07
8.37219e-07
-6.8158e-10
1.30477e-09
0.00106282
-2.19951e-07
1.19184e-06
2.1932e-07
8.34573e-07
-1.99809e-07
1.98521e-07
-8.34734e-07
-7.53567e-10
-0.00106368
1.27881e-09
-1.16271e-06
2.19448e-07
-2.20071e-07
-8.34745e-07
1.98628e-07
8.34623e-07
-1.99886e-07
1.19184e-06
0.00106282
-6.94185e-10
-0.00106282
1.29749e-09
-1.19038e-06
2.1932e-07
-2.19953e-07
-8.3473e-07
1.9853e-07
-1.99805e-07
8.34578e-07
-2.05144e-07
-2.12415e-07
0.00025965
-1.15886e-06
0.000261585
-0.00025965
2.06613e-07
2.13884e-07
-7.39533e-10
1.25891e-09
0.00106385
-2.17407e-07
1.15897e-06
2.16803e-07
8.32098e-07
-1.99887e-07
1.98623e-07
-8.32219e-07
-7.56052e-10
-0.00106335
1.25568e-09
-1.15739e-06
2.16741e-07
-2.17357e-07
-8.34571e-07
2.01226e-07
8.34504e-07
-2.02491e-07
1.15897e-06
0.00106385
-7.52411e-10
-0.00106385
1.24678e-09
-1.1575e-06
2.16803e-07
-2.17408e-07
-8.32214e-07
1.98632e-07
-1.99883e-07
8.32104e-07
-0.000259663
2.0892e-07
2.14093e-07
1.19824e-06
1.16011e-06
-2.04983e-07
-2.10091e-07
0.000259665
-1.19969e-06
-1.16154e-06
0.000261609
-0.000259665
2.06375e-07
2.11561e-07
1.34117e-09
0.00106291
-2.25377e-07
1.1997e-06
2.24713e-07
8.34541e-07
-1.99841e-07
-8.34708e-07
1.98544e-07
-1.20094e-06
-6.31092e-10
-3.95339e-09
0.00106334
-2.25407e-07
1.20243e-06
2.24778e-07
8.40026e-07
-2.02577e-07
-8.40228e-07
2.01282e-07
0.00106291
-5.63093e-10
-0.00106291
1.42071e-09
-1.19825e-06
2.24683e-07
-2.25407e-07
-8.34745e-07
1.98489e-07
-1.9991e-07
8.34513e-07
1.20244e-06
0.00106334
-6.63781e-10
-0.00106334
6.32254e-09
-1.20094e-06
2.24782e-07
-2.25402e-07
-8.40176e-07
2.01305e-07
-2.02573e-07
8.40082e-07
-2.07669e-07
-2.12441e-07
0.000259691
-1.16418e-06
0.000261634
-0.000259691
2.09143e-07
2.13934e-07
1.29288e-09
0.00106394
-2.20088e-07
1.16157e-06
2.19442e-07
8.37309e-07
-2.02575e-07
-8.37419e-07
2.01305e-07
-1.19567e-06
-6.7545e-10
1.29236e-09
0.00106302
-2.25404e-07
1.19713e-06
2.24761e-07
8.37218e-07
-2.02528e-07
-8.37375e-07
2.01247e-07
0.00106394
-7.28861e-10
-0.00106394
1.33648e-09
-1.16014e-06
2.19403e-07
-2.20124e-07
-8.3741e-07
2.01313e-07
-2.0257e-07
8.37321e-07
1.19714e-06
0.00106302
-6.78839e-10
-0.00106302
1.27064e-09
-1.19566e-06
2.24762e-07
-2.25399e-07
-8.37376e-07
2.01248e-07
-2.0253e-07
8.37221e-07
-6.87108e-10
1.3037e-09
0.00106282
-2.19952e-07
1.19184e-06
2.1932e-07
8.34574e-07
-1.99809e-07
1.98522e-07
-8.34733e-07
-7.80747e-10
-0.00106368
1.27967e-09
-1.16271e-06
2.16756e-07
-2.1738e-07
-8.34741e-07
1.98612e-07
8.34628e-07
-1.99858e-07
1.19185e-06
0.00106282
-7.05597e-10
-0.00106282
1.29156e-09
-1.19038e-06
2.19323e-07
-2.1995e-07
-8.34727e-07
1.98533e-07
-1.99802e-07
8.34581e-07
-2.05144e-07
-2.12414e-07
0.00025965
-1.15886e-06
0.000261585
-0.00025965
2.06615e-07
2.13888e-07
-7.43942e-10
1.25975e-09
0.00106385
-2.17407e-07
1.15897e-06
2.16802e-07
8.32099e-07
-1.99887e-07
1.98624e-07
-8.32218e-07
-7.79316e-10
-0.00106335
1.25252e-09
-1.15739e-06
2.16743e-07
-2.17355e-07
-8.34566e-07
2.01232e-07
8.34509e-07
-2.02486e-07
1.15898e-06
0.00106385
-7.66694e-10
-0.00106385
1.23904e-09
-1.1575e-06
2.16807e-07
-2.17405e-07
-8.32211e-07
1.98636e-07
-1.9988e-07
8.32107e-07
-0.000259663