/*--------------------------------*- C++ -*----------------------------------*\
| =========                 |                                                 |
| \\      /  F ield         | OpenFOAM: The Open Source CFD Toolbox           |
|  \\    /   O peration     | Version:  2206                                  |
|   \\  /    A nd           | Website:  www.openfoam.com                      |
|    \\/     M anipulation  |                                                 |
\*---------------------------------------------------------------------------*/
FoamFile
{
    version     2.0;
    format      ascii;
    arch        "LSB;label=32;scalar=64";
    class       volScalarField;
    location    "24";
    object      epsilon;
}
// * * * * * * * * * * * * * * * * * * * * * * * * * * * * * * * * * * * * * //

dimensions      [0 2 -3 0 0 0 0];

internalField   nonuniform List<scalar> 
171728
(
4.95537e-07
4.97317e-07
4.97317e-07
4.99572e-07
4.45448e-07
4.53667e-07
4.53669e-07
4.63711e-07
4.03672e-07
4.18466e-07
4.1847e-07
4.39415e-07
3.68928e-07
3.88777e-07
3.88783e-07
4.17693e-07
3.36388e-07
3.61063e-07
3.61071e-07
3.9589e-07
3.14199e-07
3.3804e-07
3.38048e-07
3.70655e-07
3.08985e-07
3.32863e-07
3.32871e-07
3.6412e-07
3.08502e-07
3.32416e-07
3.32424e-07
3.63811e-07
3.08489e-07
3.32406e-07
3.32414e-07
3.63815e-07
3.08489e-07
3.32406e-07
3.32414e-07
3.63815e-07
3.08489e-07
3.32406e-07
3.32414e-07
3.63821e-07
3.08489e-07
3.32406e-07
3.32414e-07
3.63819e-07
3.08642e-07
3.32539e-07
3.32548e-07
3.63915e-07
3.0864e-07
3.32542e-07
3.32547e-07
3.63933e-07
3.08642e-07
3.32545e-07
3.32551e-07
3.63939e-07
3.08641e-07
3.32548e-07
3.32553e-07
3.63948e-07
3.08638e-07
3.32548e-07
3.32554e-07
3.63952e-07
3.08619e-07
3.32514e-07
3.32536e-07
3.63946e-07
3.08505e-07
3.32413e-07
3.32427e-07
3.63832e-07
3.08489e-07
3.32406e-07
3.32415e-07
3.63815e-07
3.08489e-07
3.32406e-07
3.32414e-07
3.63821e-07
3.08489e-07
3.32406e-07
3.32414e-07
3.63816e-07
3.08489e-07
3.32406e-07
3.32414e-07
3.63816e-07
3.08489e-07
3.32406e-07
3.32414e-07
3.63819e-07
3.08489e-07
3.32406e-07
3.32414e-07
3.63819e-07
3.08489e-07
3.32406e-07
3.32414e-07
3.63819e-07
3.08489e-07
3.32406e-07
3.32414e-07
3.63819e-07
3.08489e-07
3.32406e-07
3.32414e-07
3.63819e-07
3.08489e-07
3.32406e-07
3.32414e-07
3.63819e-07
3.08489e-07
3.32406e-07
3.32414e-07
3.63819e-07
3.0864e-07
3.32542e-07
3.32547e-07
3.63929e-07
3.08642e-07
3.32545e-07
3.3255e-07
3.63936e-07
3.08643e-07
3.32548e-07
3.32553e-07
3.63944e-07
3.08639e-07
3.32549e-07
3.32552e-07
3.63953e-07
3.08634e-07
3.32549e-07
3.32552e-07
3.63955e-07
3.08554e-07
3.32484e-07
3.32474e-07
3.63906e-07
3.0849e-07
3.32408e-07
3.32415e-07
3.63804e-07
3.08489e-07
3.32407e-07
3.32415e-07
3.63822e-07
3.08489e-07
3.32406e-07
3.32414e-07
3.63817e-07
3.08489e-07
3.32406e-07
3.32415e-07
3.63822e-07
3.08489e-07
3.32406e-07
3.32415e-07
3.63819e-07
3.08489e-07
3.32406e-07
3.32415e-07
3.63818e-07
3.08489e-07
3.32405e-07
3.32415e-07
3.63819e-07
3.08489e-07
3.32405e-07
3.32415e-07
3.63819e-07
3.08489e-07
3.32405e-07
3.32415e-07
3.63819e-07
3.08489e-07
3.32405e-07
3.32415e-07
3.63819e-07
3.08489e-07
3.32405e-07
3.32415e-07
3.63819e-07
3.08491e-07
3.32408e-07
3.32417e-07
3.63819e-07
3.08639e-07
3.32538e-07
3.32547e-07
3.63934e-07
3.08641e-07
3.32541e-07
3.32551e-07
3.63938e-07
3.08641e-07
3.32544e-07
3.32553e-07
3.63946e-07
3.08637e-07
3.32543e-07
3.32553e-07
3.63952e-07
3.08629e-07
3.32539e-07
3.32548e-07
3.63954e-07
3.08525e-07
3.32437e-07
3.32446e-07
3.63865e-07
3.08489e-07
3.32406e-07
3.32415e-07
3.63808e-07
3.08489e-07
3.32406e-07
3.32415e-07
3.63822e-07
3.08489e-07
3.32405e-07
3.32415e-07
3.63815e-07
3.08489e-07
3.32405e-07
3.32415e-07
3.63821e-07
3.08489e-07
3.32405e-07
3.32415e-07
3.63821e-07
3.08489e-07
3.32405e-07
3.32415e-07
3.6382e-07
3.08489e-07
3.32405e-07
3.32415e-07
3.63819e-07
3.08489e-07
3.32405e-07
3.32415e-07
3.63819e-07
3.08489e-07
3.32405e-07
3.32415e-07
3.63819e-07
3.08489e-07
3.32405e-07
3.32415e-07
3.63819e-07
3.08489e-07
3.32405e-07
3.32415e-07
3.63819e-07
3.08641e-07
3.3254e-07
3.32547e-07
3.63929e-07
3.08643e-07
3.32543e-07
3.32551e-07
3.63936e-07
3.08644e-07
3.32546e-07
3.32554e-07
3.63945e-07
3.08641e-07
3.32546e-07
3.32553e-07
3.63953e-07
3.08639e-07
3.32547e-07
3.32553e-07
3.63955e-07
3.08587e-07
3.32491e-07
3.32474e-07
3.63903e-07
3.08494e-07
3.32408e-07
3.32416e-07
3.63805e-07
3.08489e-07
3.32406e-07
3.32415e-07
3.63822e-07
3.08489e-07
3.32405e-07
3.32415e-07
3.63818e-07
3.08489e-07
3.32405e-07
3.32415e-07
3.63822e-07
3.08489e-07
3.32405e-07
3.32415e-07
3.63819e-07
3.08489e-07
3.32405e-07
3.32415e-07
3.63818e-07
3.08489e-07
3.32405e-07
3.32415e-07
3.63818e-07
3.08489e-07
3.32405e-07
3.32415e-07
3.63819e-07
3.08489e-07
3.32405e-07
3.32415e-07
3.63819e-07
3.08489e-07
3.32405e-07
3.32415e-07
3.63819e-07
3.08489e-07
3.32405e-07
3.32415e-07
3.63819e-07
3.08495e-07
3.32538e-07
3.32419e-07
3.63916e-07
3.08642e-07
3.32541e-07
3.3255e-07
3.63933e-07
3.08643e-07
3.32545e-07
3.32553e-07
3.63939e-07
3.08641e-07
3.32547e-07
3.32555e-07
3.63949e-07
3.08639e-07
3.32548e-07
3.32556e-07
3.63953e-07
3.08628e-07
3.32514e-07
3.32547e-07
3.63947e-07
3.08517e-07
3.32413e-07
3.3244e-07
3.63832e-07
3.08489e-07
3.32405e-07
3.32414e-07
3.63815e-07
3.08489e-07
3.32403e-07
3.32413e-07
3.6382e-07
3.08489e-07
3.32401e-07
3.32411e-07
3.63811e-07
3.08489e-07
3.32394e-07
3.32404e-07
3.63805e-07
3.08492e-07
3.32403e-07
3.32412e-07
3.63773e-07
3.07884e-07
3.28724e-07
3.28727e-07
3.58217e-07
5.06425e-07
5.0559e-07
5.05589e-07
5.06425e-07
5.05589e-07
5.05589e-07
5.09651e-07
5.0965e-07
5.09651e-07
5.09651e-07
5.05591e-07
5.0559e-07
5.06425e-07
5.05591e-07
5.05589e-07
5.06425e-07
4.99572e-07
4.67242e-07
4.97318e-07
4.97322e-07
4.63702e-07
4.6371e-07
4.99573e-07
4.67239e-07
4.97322e-07
4.97323e-07
4.63707e-07
4.63713e-07
4.97319e-07
4.63698e-07
4.63703e-07
4.99572e-07
4.67245e-07
4.97321e-07
4.637e-07
4.63708e-07
4.67245e-07
4.6371e-07
4.41458e-07
4.53672e-07
4.53681e-07
4.26839e-07
4.26847e-07
4.63709e-07
4.41451e-07
4.53677e-07
4.53684e-07
4.2684e-07
4.26852e-07
4.53674e-07
4.2683e-07
4.26841e-07
4.63713e-07
4.41462e-07
4.53677e-07
4.26835e-07
4.26841e-07
4.4146e-07
4.39412e-07
4.19275e-07
4.18475e-07
4.18483e-07
3.957e-07
3.95706e-07
4.3941e-07
4.19267e-07
4.18475e-07
4.18488e-07
3.95695e-07
3.95712e-07
4.18478e-07
3.95687e-07
3.95703e-07
4.39418e-07
4.19281e-07
4.18477e-07
3.95693e-07
3.95697e-07
4.19279e-07
4.17689e-07
3.9761e-07
3.88792e-07
3.88798e-07
3.68349e-07
3.68353e-07
4.17682e-07
3.976e-07
3.88786e-07
3.88804e-07
3.68339e-07
3.6836e-07
3.88795e-07
3.68332e-07
3.68352e-07
4.17695e-07
3.97615e-07
3.88788e-07
3.6834e-07
3.68341e-07
3.97614e-07
3.95884e-07
3.71892e-07
3.61083e-07
3.61086e-07
3.41888e-07
3.41894e-07
3.95877e-07
3.71884e-07
3.61071e-07
3.61093e-07
3.41878e-07
3.41902e-07
3.61085e-07
3.41872e-07
3.41892e-07
3.9589e-07
3.71899e-07
3.61073e-07
3.4188e-07
3.41878e-07
3.71898e-07
3.70649e-07
3.63937e-07
3.38058e-07
3.38064e-07
3.33322e-07
3.33327e-07
3.70644e-07
3.6393e-07
3.38048e-07
3.38072e-07
3.3331e-07
3.33335e-07
3.38063e-07
3.33305e-07
3.33326e-07
3.70656e-07
3.63945e-07
3.38047e-07
3.33313e-07
3.3331e-07
3.63943e-07
3.64116e-07
3.63573e-07
3.32881e-07
3.32886e-07
3.32462e-07
3.32467e-07
3.64109e-07
3.63565e-07
3.32869e-07
3.32894e-07
3.3245e-07
3.32476e-07
3.32885e-07
3.32445e-07
3.32466e-07
3.64124e-07
3.63581e-07
3.32868e-07
3.32453e-07
3.32449e-07
3.63579e-07
3.63807e-07
3.63556e-07
3.32435e-07
3.3244e-07
3.32424e-07
3.32427e-07
3.63801e-07
3.63549e-07
3.32423e-07
3.32449e-07
3.3241e-07
3.32436e-07
3.32439e-07
3.32406e-07
3.32426e-07
3.63815e-07
3.63564e-07
3.32422e-07
3.32414e-07
3.32409e-07
3.63563e-07
3.6381e-07
3.63567e-07
3.32427e-07
3.32431e-07
3.32425e-07
3.32428e-07
3.63805e-07
3.63559e-07
3.32413e-07
3.32439e-07
3.32411e-07
3.32437e-07
3.3243e-07
3.32406e-07
3.32427e-07
3.63819e-07
3.63575e-07
3.32413e-07
3.32414e-07
3.3241e-07
3.63573e-07
3.63812e-07
3.63567e-07
3.32427e-07
3.3243e-07
3.32426e-07
3.32429e-07
3.63806e-07
3.63561e-07
3.32413e-07
3.32438e-07
3.32411e-07
3.32437e-07
3.32429e-07
3.32406e-07
3.32427e-07
3.6382e-07
3.63576e-07
3.32412e-07
3.32415e-07
3.32411e-07
3.63575e-07
3.63816e-07
3.63564e-07
3.32428e-07
3.32431e-07
3.32425e-07
3.32429e-07
3.6381e-07
3.63558e-07
3.32414e-07
3.32439e-07
3.32411e-07
3.32437e-07
3.3243e-07
3.32406e-07
3.32427e-07
3.63825e-07
3.63574e-07
3.32413e-07
3.32414e-07
3.3241e-07
3.63572e-07
3.63812e-07
3.63566e-07
3.32427e-07
3.32432e-07
3.32427e-07
3.32563e-07
3.63808e-07
3.63665e-07
3.32413e-07
3.32439e-07
3.32414e-07
3.32439e-07
3.32429e-07
3.32539e-07
3.3243e-07
3.63822e-07
3.63575e-07
3.32412e-07
3.32418e-07
3.32413e-07
3.63573e-07
3.63908e-07
3.6368e-07
3.32558e-07
3.32563e-07
3.32557e-07
3.32562e-07
3.63918e-07
3.63678e-07
3.32544e-07
3.32569e-07
3.32543e-07
3.32568e-07
3.3256e-07
3.32541e-07
3.32559e-07
3.63917e-07
3.63688e-07
3.32543e-07
3.32547e-07
3.32542e-07
3.63686e-07
3.63928e-07
3.63686e-07
3.3256e-07
3.32566e-07
3.3256e-07
3.32565e-07
3.63927e-07
3.63683e-07
3.32546e-07
3.32572e-07
3.32546e-07
3.32572e-07
3.32562e-07
3.32545e-07
3.32562e-07
3.63937e-07
3.63695e-07
3.32546e-07
3.3255e-07
3.32545e-07
3.63692e-07
3.63936e-07
3.63695e-07
3.32564e-07
3.32569e-07
3.32565e-07
3.3257e-07
3.63934e-07
3.63693e-07
3.3255e-07
3.32575e-07
3.32551e-07
3.32575e-07
3.32566e-07
3.32548e-07
3.32566e-07
3.63944e-07
3.63704e-07
3.32549e-07
3.32553e-07
3.32549e-07
3.63701e-07
3.63945e-07
3.63701e-07
3.32569e-07
3.32573e-07
3.32567e-07
3.32571e-07
3.63943e-07
3.63696e-07
3.32554e-07
3.32578e-07
3.32552e-07
3.32576e-07
3.32569e-07
3.32548e-07
3.32567e-07
3.63953e-07
3.63709e-07
3.32552e-07
3.32554e-07
3.3255e-07
3.63706e-07
3.6395e-07
3.63699e-07
3.32569e-07
3.32571e-07
3.32562e-07
3.32558e-07
3.63946e-07
3.63686e-07
3.32553e-07
3.32578e-07
3.32546e-07
3.32571e-07
3.32568e-07
3.32537e-07
3.32562e-07
3.63957e-07
3.63708e-07
3.32551e-07
3.32549e-07
3.32544e-07
3.63705e-07
3.63944e-07
3.63595e-07
3.3255e-07
3.32533e-07
3.32459e-07
3.32447e-07
3.63926e-07
3.63567e-07
3.32535e-07
3.32559e-07
3.32444e-07
3.32469e-07
3.3255e-07
3.32428e-07
3.32459e-07
3.63952e-07
3.63603e-07
3.32532e-07
3.32447e-07
3.32442e-07
3.63601e-07
3.63829e-07
3.63559e-07
3.32442e-07
3.32436e-07
3.32429e-07
3.32428e-07
3.63805e-07
3.63555e-07
3.32427e-07
3.32451e-07
3.32413e-07
3.32437e-07
3.32442e-07
3.32406e-07
3.32428e-07
3.63837e-07
3.63567e-07
3.32425e-07
3.32415e-07
3.32411e-07
3.63565e-07
3.63811e-07
3.6357e-07
3.32431e-07
3.32431e-07
3.32428e-07
3.3243e-07
3.63806e-07
3.6356e-07
3.32416e-07
3.3244e-07
3.32413e-07
3.32438e-07
3.3243e-07
3.32406e-07
3.32428e-07
3.63819e-07
3.63577e-07
3.32414e-07
3.32415e-07
3.32412e-07
3.63576e-07
3.63818e-07
3.63563e-07
3.32429e-07
3.32431e-07
3.32426e-07
3.32429e-07
3.63809e-07
3.63555e-07
3.32414e-07
3.32439e-07
3.32412e-07
3.32437e-07
3.3243e-07
3.32406e-07
3.32427e-07
3.63825e-07
3.63571e-07
3.32413e-07
3.32414e-07
3.3241e-07
3.63569e-07
3.63813e-07
3.63566e-07
3.32427e-07
3.32431e-07
3.32425e-07
3.32428e-07
3.63806e-07
3.63555e-07
3.32413e-07
3.32439e-07
3.32411e-07
3.32437e-07
3.32429e-07
3.32406e-07
3.32427e-07
3.6382e-07
3.63574e-07
3.32412e-07
3.32414e-07
3.3241e-07
3.63572e-07
3.63814e-07
3.63568e-07
3.32427e-07
3.3243e-07
3.32425e-07
3.32428e-07
3.63804e-07
3.63559e-07
3.32413e-07
3.32439e-07
3.32411e-07
3.32437e-07
3.32429e-07
3.32406e-07
3.32427e-07
3.63821e-07
3.63576e-07
3.32412e-07
3.32414e-07
3.32411e-07
3.63574e-07
3.63816e-07
3.63567e-07
3.32426e-07
3.3243e-07
3.32424e-07
3.32428e-07
3.63807e-07
3.6356e-07
3.32412e-07
3.32438e-07
3.3241e-07
3.32437e-07
3.32429e-07
3.32406e-07
3.32427e-07
3.63823e-07
3.63576e-07
3.32415e-07
3.32414e-07
3.32413e-07
3.63574e-07
3.63816e-07
3.63566e-07
3.32426e-07
3.3243e-07
3.32424e-07
3.32428e-07
3.63809e-07
3.6356e-07
3.32412e-07
3.32439e-07
3.3241e-07
3.32437e-07
3.3243e-07
3.32406e-07
3.32427e-07
3.63824e-07
3.63575e-07
3.32416e-07
3.32414e-07
3.32413e-07
3.63574e-07
3.63816e-07
3.63566e-07
3.32426e-07
3.3243e-07
3.32424e-07
3.32428e-07
3.63809e-07
3.6356e-07
3.32412e-07
3.32438e-07
3.3241e-07
3.32437e-07
3.32429e-07
3.32406e-07
3.32427e-07
3.63824e-07
3.63576e-07
3.32415e-07
3.32414e-07
3.32413e-07
3.63573e-07
3.63815e-07
3.63566e-07
3.32426e-07
3.3243e-07
3.32424e-07
3.32428e-07
3.63809e-07
3.63559e-07
3.32412e-07
3.32439e-07
3.3241e-07
3.32437e-07
3.32429e-07
3.32406e-07
3.32427e-07
3.63824e-07
3.63576e-07
3.32415e-07
3.32414e-07
3.32413e-07
3.63573e-07
3.63815e-07
3.63566e-07
3.32426e-07
3.3243e-07
3.32424e-07
3.32428e-07
3.63809e-07
3.63559e-07
3.32412e-07
3.32439e-07
3.3241e-07
3.32437e-07
3.32429e-07
3.32406e-07
3.32427e-07
3.63825e-07
3.63575e-07
3.32415e-07
3.32414e-07
3.32413e-07
3.63573e-07
3.63815e-07
3.63567e-07
3.32426e-07
3.3243e-07
3.32424e-07
3.32428e-07
3.63808e-07
3.6356e-07
3.32412e-07
3.32439e-07
3.3241e-07
3.32437e-07
3.32429e-07
3.32406e-07
3.32427e-07
3.63824e-07
3.63576e-07
3.32415e-07
3.32414e-07
3.32413e-07
3.63573e-07
3.63816e-07
3.63674e-07
3.32425e-07
3.32429e-07
3.32557e-07
3.32561e-07
3.63809e-07
3.63672e-07
3.32411e-07
3.32438e-07
3.32543e-07
3.3257e-07
3.32429e-07
3.32542e-07
3.3256e-07
3.63824e-07
3.63684e-07
3.32414e-07
3.32547e-07
3.32546e-07
3.63682e-07
3.63925e-07
3.63683e-07
3.3256e-07
3.32565e-07
3.3256e-07
3.32564e-07
3.63925e-07
3.63681e-07
3.32546e-07
3.32573e-07
3.32545e-07
3.32572e-07
3.32563e-07
3.32545e-07
3.32562e-07
3.63934e-07
3.63692e-07
3.32549e-07
3.3255e-07
3.32548e-07
3.6369e-07
3.63932e-07
3.63691e-07
3.32563e-07
3.32568e-07
3.32563e-07
3.32568e-07
3.63931e-07
3.63686e-07
3.32549e-07
3.32576e-07
3.32549e-07
3.32575e-07
3.32566e-07
3.32548e-07
3.32565e-07
3.63941e-07
3.63699e-07
3.32552e-07
3.32553e-07
3.32552e-07
3.63697e-07
3.63941e-07
3.637e-07
3.32567e-07
3.32572e-07
3.32565e-07
3.32572e-07
3.63937e-07
3.63695e-07
3.32552e-07
3.32579e-07
3.32551e-07
3.32577e-07
3.32569e-07
3.32549e-07
3.32569e-07
3.63949e-07
3.63708e-07
3.32555e-07
3.32553e-07
3.32554e-07
3.63707e-07
3.63949e-07
3.63702e-07
3.32566e-07
3.32574e-07
3.32563e-07
3.32571e-07
3.63946e-07
3.63696e-07
3.32552e-07
3.32578e-07
3.3255e-07
3.32576e-07
3.3257e-07
3.32549e-07
3.32566e-07
3.63957e-07
3.6371e-07
3.32555e-07
3.32553e-07
3.32552e-07
3.6371e-07
3.63951e-07
3.63667e-07
3.32563e-07
3.32571e-07
3.32519e-07
3.32531e-07
3.63946e-07
3.63674e-07
3.32549e-07
3.32576e-07
3.32505e-07
3.32531e-07
3.32566e-07
3.32519e-07
3.32525e-07
3.63958e-07
3.63675e-07
3.32552e-07
3.32508e-07
3.32508e-07
3.63676e-07
3.63899e-07
3.63554e-07
3.32485e-07
3.32496e-07
3.32428e-07
3.32434e-07
3.63911e-07
3.63553e-07
3.32471e-07
3.32497e-07
3.32414e-07
3.32441e-07
3.32491e-07
3.32414e-07
3.32432e-07
3.63907e-07
3.63563e-07
3.32474e-07
3.32418e-07
3.32417e-07
3.63561e-07
3.638e-07
3.63568e-07
3.32428e-07
3.32432e-07
3.32425e-07
3.3243e-07
3.63796e-07
3.63559e-07
3.32413e-07
3.3244e-07
3.32411e-07
3.32438e-07
3.32431e-07
3.32407e-07
3.32428e-07
3.63808e-07
3.63577e-07
3.32416e-07
3.32415e-07
3.32414e-07
3.63576e-07
3.63817e-07
3.63566e-07
3.32428e-07
3.32433e-07
3.32425e-07
3.3243e-07
3.6381e-07
3.63559e-07
3.32414e-07
3.3244e-07
3.3241e-07
3.32437e-07
3.32431e-07
3.32406e-07
3.32428e-07
3.63826e-07
3.63575e-07
3.32417e-07
3.32414e-07
3.32413e-07
3.63573e-07
3.63814e-07
3.63566e-07
3.32426e-07
3.32431e-07
3.32424e-07
3.32429e-07
3.63808e-07
3.63556e-07
3.32412e-07
3.32439e-07
3.3241e-07
3.32437e-07
3.32429e-07
3.32406e-07
3.32427e-07
3.63822e-07
3.63576e-07
3.32415e-07
3.32415e-07
3.32413e-07
3.63576e-07
3.63816e-07
3.63563e-07
3.32426e-07
3.32431e-07
3.32424e-07
3.32429e-07
3.63807e-07
3.63556e-07
3.32412e-07
3.32439e-07
3.3241e-07
3.32437e-07
3.32429e-07
3.32406e-07
3.32427e-07
3.63824e-07
3.63573e-07
3.32415e-07
3.32415e-07
3.32413e-07
3.63572e-07
3.63812e-07
3.63566e-07
3.32426e-07
3.32431e-07
3.32424e-07
3.32429e-07
3.63805e-07
3.6356e-07
3.32412e-07
3.32439e-07
3.3241e-07
3.32437e-07
3.32429e-07
3.32406e-07
3.32427e-07
3.63821e-07
3.63575e-07
3.32415e-07
3.32415e-07
3.32413e-07
3.63572e-07
3.63813e-07
3.63567e-07
3.32427e-07
3.3243e-07
3.32425e-07
3.32429e-07
3.63807e-07
3.6356e-07
3.32413e-07
3.32438e-07
3.32411e-07
3.32437e-07
3.32429e-07
3.32405e-07
3.32427e-07
3.63822e-07
3.63576e-07
3.32415e-07
3.32415e-07
3.32413e-07
3.63573e-07
3.63815e-07
3.63568e-07
3.32426e-07
3.32431e-07
3.32424e-07
3.32429e-07
3.63808e-07
3.6356e-07
3.32413e-07
3.32439e-07
3.32411e-07
3.32437e-07
3.32429e-07
3.32405e-07
3.32427e-07
3.63824e-07
3.63576e-07
3.32415e-07
3.32415e-07
3.32413e-07
3.63573e-07
3.63816e-07
3.63568e-07
3.32426e-07
3.3243e-07
3.32424e-07
3.32429e-07
3.63809e-07
3.63559e-07
3.32413e-07
3.32439e-07
3.32411e-07
3.32437e-07
3.32429e-07
3.32405e-07
3.32427e-07
3.63824e-07
3.63576e-07
3.32415e-07
3.32415e-07
3.32413e-07
3.63573e-07
3.63816e-07
3.63568e-07
3.32427e-07
3.32431e-07
3.32424e-07
3.32429e-07
3.63809e-07
3.63559e-07
3.32413e-07
3.32438e-07
3.32411e-07
3.32437e-07
3.32429e-07
3.32405e-07
3.32427e-07
3.63824e-07
3.63576e-07
3.32415e-07
3.32415e-07
3.32413e-07
3.63573e-07
3.63816e-07
3.63568e-07
3.32426e-07
3.3243e-07
3.32424e-07
3.32429e-07
3.63808e-07
3.63559e-07
3.32413e-07
3.32439e-07
3.32411e-07
3.32437e-07
3.32429e-07
3.32405e-07
3.32427e-07
3.63824e-07
3.63576e-07
3.32415e-07
3.32415e-07
3.32413e-07
3.63573e-07
3.63816e-07
3.63568e-07
3.32426e-07
3.32431e-07
3.32424e-07
3.32429e-07
3.63808e-07
3.63559e-07
3.32413e-07
3.32439e-07
3.32411e-07
3.32437e-07
3.32429e-07
3.32406e-07
3.32427e-07
3.63824e-07
3.63576e-07
3.32415e-07
3.32416e-07
3.32413e-07
3.63573e-07
3.63816e-07
3.63682e-07
3.32427e-07
3.32431e-07
3.32557e-07
3.32561e-07
3.63808e-07
3.63674e-07
3.32413e-07
3.32439e-07
3.32544e-07
3.32569e-07
3.3243e-07
3.32537e-07
3.3256e-07
3.63825e-07
3.6369e-07
3.32415e-07
3.32547e-07
3.32546e-07
3.63687e-07
3.63931e-07
3.63687e-07
3.3256e-07
3.32564e-07
3.3256e-07
3.32564e-07
3.63923e-07
3.63679e-07
3.32547e-07
3.32572e-07
3.32546e-07
3.32571e-07
3.32562e-07
3.32541e-07
3.32562e-07
3.63939e-07
3.63696e-07
3.32548e-07
3.3255e-07
3.32548e-07
3.63692e-07
3.63936e-07
3.63695e-07
3.32563e-07
3.32567e-07
3.32563e-07
3.32567e-07
3.63928e-07
3.63686e-07
3.3255e-07
3.32575e-07
3.3255e-07
3.32575e-07
3.32565e-07
3.32544e-07
3.32565e-07
3.63944e-07
3.63702e-07
3.32551e-07
3.32553e-07
3.32551e-07
3.637e-07
3.63945e-07
3.63702e-07
3.32567e-07
3.3257e-07
3.32564e-07
3.32568e-07
3.63936e-07
3.63693e-07
3.32553e-07
3.32578e-07
3.3255e-07
3.32576e-07
3.32569e-07
3.32544e-07
3.32566e-07
3.63952e-07
3.63709e-07
3.32555e-07
3.32553e-07
3.32552e-07
3.63707e-07
3.6395e-07
3.63703e-07
3.32565e-07
3.32569e-07
3.32562e-07
3.32566e-07
3.63942e-07
3.63694e-07
3.32551e-07
3.32577e-07
3.32549e-07
3.32575e-07
3.32567e-07
3.32542e-07
3.32565e-07
3.63957e-07
3.63711e-07
3.32553e-07
3.32552e-07
3.32551e-07
3.63708e-07
3.6395e-07
3.63631e-07
3.32559e-07
3.32563e-07
3.32485e-07
3.32489e-07
3.63942e-07
3.63623e-07
3.32545e-07
3.32571e-07
3.32472e-07
3.32497e-07
3.32562e-07
3.32466e-07
3.32488e-07
3.63958e-07
3.63638e-07
3.32548e-07
3.32475e-07
3.32474e-07
3.63636e-07
3.63862e-07
3.63553e-07
3.32458e-07
3.32462e-07
3.32425e-07
3.3243e-07
3.63854e-07
3.63544e-07
3.32444e-07
3.3247e-07
3.32412e-07
3.32438e-07
3.3246e-07
3.32406e-07
3.32428e-07
3.63869e-07
3.63561e-07
3.32446e-07
3.32415e-07
3.32414e-07
3.63559e-07
3.63804e-07
3.6357e-07
3.32427e-07
3.32431e-07
3.32425e-07
3.3243e-07
3.63796e-07
3.63561e-07
3.32413e-07
3.32439e-07
3.32412e-07
3.32438e-07
3.3243e-07
3.32406e-07
3.32429e-07
3.63812e-07
3.63578e-07
3.32416e-07
3.32416e-07
3.32414e-07
3.63577e-07
3.63818e-07
3.63564e-07
3.32427e-07
3.32431e-07
3.32424e-07
3.32429e-07
3.6381e-07
3.63556e-07
3.32414e-07
3.32439e-07
3.32411e-07
3.32437e-07
3.3243e-07
3.32405e-07
3.32428e-07
3.63825e-07
3.63572e-07
3.32416e-07
3.32415e-07
3.32413e-07
3.63571e-07
3.63812e-07
3.63569e-07
3.32426e-07
3.3243e-07
3.32424e-07
3.32428e-07
3.63804e-07
3.6356e-07
3.32413e-07
3.32439e-07
3.32411e-07
3.32437e-07
3.32429e-07
3.32405e-07
3.32427e-07
3.6382e-07
3.63577e-07
3.32415e-07
3.32415e-07
3.32413e-07
3.63576e-07
3.63816e-07
3.63567e-07
3.32426e-07
3.32431e-07
3.32424e-07
3.32429e-07
3.63808e-07
3.63559e-07
3.32413e-07
3.32439e-07
3.32411e-07
3.32437e-07
3.32429e-07
3.32405e-07
3.32427e-07
3.63824e-07
3.63575e-07
3.32415e-07
3.32415e-07
3.32413e-07
3.63575e-07
3.63816e-07
3.63567e-07
3.32426e-07
3.32431e-07
3.32424e-07
3.32429e-07
3.63808e-07
3.63558e-07
3.32413e-07
3.32439e-07
3.32411e-07
3.32437e-07
3.32429e-07
3.32405e-07
3.32427e-07
3.63824e-07
3.63575e-07
3.32415e-07
3.32415e-07
3.32413e-07
3.63573e-07
3.63815e-07
3.63567e-07
3.32426e-07
3.32431e-07
3.32424e-07
3.32429e-07
3.63807e-07
3.63559e-07
3.32413e-07
3.32439e-07
3.32411e-07
3.32437e-07
3.32429e-07
3.32405e-07
3.32427e-07
3.63823e-07
3.63576e-07
3.32415e-07
3.32415e-07
3.32413e-07
3.63573e-07
3.63816e-07
3.63567e-07
3.32426e-07
3.3243e-07
3.32424e-07
3.32429e-07
3.63808e-07
3.63559e-07
3.32413e-07
3.32439e-07
3.32411e-07
3.32437e-07
3.32429e-07
3.32405e-07
3.32427e-07
3.63824e-07
3.63575e-07
3.32415e-07
3.32415e-07
3.32413e-07
3.63574e-07
3.63816e-07
3.63567e-07
3.32426e-07
3.32431e-07
3.32424e-07
3.32429e-07
3.63808e-07
3.63559e-07
3.32413e-07
3.32439e-07
3.32411e-07
3.32437e-07
3.32429e-07
3.32405e-07
3.32427e-07
3.63824e-07
3.63575e-07
3.32415e-07
3.32415e-07
3.32413e-07
3.63573e-07
3.63816e-07
3.63567e-07
3.32426e-07
3.3243e-07
3.32424e-07
3.32429e-07
3.63808e-07
3.63559e-07
3.32413e-07
3.32438e-07
3.32411e-07
3.32437e-07
3.32429e-07
3.32405e-07
3.32427e-07
3.63824e-07
3.63576e-07
3.32415e-07
3.32415e-07
3.32413e-07
3.63573e-07
3.63816e-07
3.63567e-07
3.32426e-07
3.32431e-07
3.32424e-07
3.32428e-07
3.63808e-07
3.63559e-07
3.32413e-07
3.32439e-07
3.32411e-07
3.32437e-07
3.32429e-07
3.32405e-07
3.32427e-07
3.63824e-07
3.63576e-07
3.32415e-07
3.32415e-07
3.32413e-07
3.63573e-07
3.63816e-07
3.63673e-07
3.32426e-07
3.32431e-07
3.32558e-07
3.32563e-07
3.63808e-07
3.63664e-07
3.32413e-07
3.32438e-07
3.32545e-07
3.3257e-07
3.32429e-07
3.3254e-07
3.3256e-07
3.63824e-07
3.63684e-07
3.32414e-07
3.32547e-07
3.32546e-07
3.63682e-07
3.63925e-07
3.63684e-07
3.32558e-07
3.32563e-07
3.32557e-07
3.32561e-07
3.63917e-07
3.63677e-07
3.32545e-07
3.32573e-07
3.32544e-07
3.32572e-07
3.32564e-07
3.32543e-07
3.32563e-07
3.63934e-07
3.63692e-07
3.32549e-07
3.32551e-07
3.32549e-07
3.6369e-07
3.63933e-07
3.6369e-07
3.32561e-07
3.32565e-07
3.32561e-07
3.32565e-07
3.63926e-07
3.63683e-07
3.32548e-07
3.32576e-07
3.32548e-07
3.32576e-07
3.32566e-07
3.32546e-07
3.32566e-07
3.63941e-07
3.637e-07
3.32552e-07
3.32554e-07
3.32552e-07
3.63698e-07
3.6394e-07
3.637e-07
3.32564e-07
3.32569e-07
3.32565e-07
3.32568e-07
3.63932e-07
3.63692e-07
3.32552e-07
3.32579e-07
3.32552e-07
3.32578e-07
3.3257e-07
3.32546e-07
3.32569e-07
3.63949e-07
3.63709e-07
3.32556e-07
3.32555e-07
3.32555e-07
3.63707e-07
3.63949e-07
3.63703e-07
3.32568e-07
3.32571e-07
3.32566e-07
3.32569e-07
3.63941e-07
3.63694e-07
3.32555e-07
3.32579e-07
3.32553e-07
3.32576e-07
3.32569e-07
3.32547e-07
3.32566e-07
3.63958e-07
3.63711e-07
3.32555e-07
3.32553e-07
3.32552e-07
3.63709e-07
3.63952e-07
3.63689e-07
3.32566e-07
3.32569e-07
3.32548e-07
3.32552e-07
3.63943e-07
3.63681e-07
3.32553e-07
3.32576e-07
3.32535e-07
3.32533e-07
3.32566e-07
3.32524e-07
3.32523e-07
3.63959e-07
3.63676e-07
3.32552e-07
3.32509e-07
3.32508e-07
3.63674e-07
3.63928e-07
3.63569e-07
3.32518e-07
3.32521e-07
3.32438e-07
3.32442e-07
3.6392e-07
3.6356e-07
3.32504e-07
3.32499e-07
3.32424e-07
3.32441e-07
3.32488e-07
3.32416e-07
3.32432e-07
3.63908e-07
3.63563e-07
3.32474e-07
3.32418e-07
3.32417e-07
3.63561e-07
3.63809e-07
3.63566e-07
3.3243e-07
3.32434e-07
3.32425e-07
3.3243e-07
3.638e-07
3.63557e-07
3.32417e-07
3.3244e-07
3.32412e-07
3.32438e-07
3.32431e-07
3.32406e-07
3.32428e-07
3.63809e-07
3.63577e-07
3.32416e-07
3.32416e-07
3.32414e-07
3.63576e-07
3.63816e-07
3.63569e-07
3.32428e-07
3.32433e-07
3.32425e-07
3.32429e-07
3.63808e-07
3.6356e-07
3.32415e-07
3.32441e-07
3.32412e-07
3.32437e-07
3.32431e-07
3.32405e-07
3.32428e-07
3.63826e-07
3.63575e-07
3.32417e-07
3.32415e-07
3.32413e-07
3.63573e-07
3.63817e-07
3.63564e-07
3.32426e-07
3.32431e-07
3.32424e-07
3.32429e-07
3.63809e-07
3.63556e-07
3.32413e-07
3.32439e-07
3.32411e-07
3.32437e-07
3.32429e-07
3.32405e-07
3.32427e-07
3.63822e-07
3.63576e-07
3.32415e-07
3.32415e-07
3.32413e-07
3.63576e-07
3.63814e-07
3.63564e-07
3.32426e-07
3.3243e-07
3.32424e-07
3.32429e-07
3.63807e-07
3.63556e-07
3.32413e-07
3.32439e-07
3.32411e-07
3.32437e-07
3.32429e-07
3.32405e-07
3.32427e-07
3.63824e-07
3.63573e-07
3.32415e-07
3.32415e-07
3.32413e-07
3.63572e-07
3.63812e-07
3.63568e-07
3.32426e-07
3.3243e-07
3.32424e-07
3.32429e-07
3.63804e-07
3.63559e-07
3.32413e-07
3.32439e-07
3.32411e-07
3.32437e-07
3.32429e-07
3.32405e-07
3.32427e-07
3.63821e-07
3.63575e-07
3.32415e-07
3.32415e-07
3.32413e-07
3.63572e-07
3.63815e-07
3.63568e-07
3.32426e-07
3.3243e-07
3.32424e-07
3.32429e-07
3.63806e-07
3.6356e-07
3.32413e-07
3.32439e-07
3.32411e-07
3.32437e-07
3.32429e-07
3.32405e-07
3.32427e-07
3.63822e-07
3.63576e-07
3.32415e-07
3.32415e-07
3.32413e-07
3.63573e-07
3.63816e-07
3.63568e-07
3.32426e-07
3.32431e-07
3.32424e-07
3.32429e-07
3.63808e-07
3.63559e-07
3.32413e-07
3.32439e-07
3.32411e-07
3.32437e-07
3.32429e-07
3.32405e-07
3.32427e-07
3.63823e-07
3.63576e-07
3.32415e-07
3.32415e-07
3.32413e-07
3.63573e-07
3.63816e-07
3.63568e-07
3.32426e-07
3.3243e-07
3.32424e-07
3.32429e-07
3.63808e-07
3.63559e-07
3.32413e-07
3.32439e-07
3.32411e-07
3.32437e-07
3.32429e-07
3.32405e-07
3.32427e-07
3.63824e-07
3.63576e-07
3.32415e-07
3.32415e-07
3.32413e-07
3.63573e-07
3.63816e-07
3.63567e-07
3.32426e-07
3.32431e-07
3.32424e-07
3.32429e-07
3.63808e-07
3.63559e-07
3.32413e-07
3.32439e-07
3.32411e-07
3.32437e-07
3.32429e-07
3.32405e-07
3.32427e-07
3.63824e-07
3.63576e-07
3.32415e-07
3.32415e-07
3.32413e-07
3.63574e-07
3.63816e-07
3.63567e-07
3.32426e-07
3.3243e-07
3.32424e-07
3.32428e-07
3.63808e-07
3.63559e-07
3.32413e-07
3.32439e-07
3.32411e-07
3.32437e-07
3.32429e-07
3.32405e-07
3.32427e-07
3.63824e-07
3.63576e-07
3.32415e-07
3.32415e-07
3.32413e-07
3.63573e-07
3.63816e-07
3.63568e-07
3.32426e-07
3.32431e-07
3.32427e-07
3.32563e-07
3.63808e-07
3.63664e-07
3.32413e-07
3.32438e-07
3.32411e-07
3.32437e-07
3.32429e-07
3.32538e-07
3.3243e-07
3.63824e-07
3.63576e-07
3.32415e-07
3.32416e-07
3.32415e-07
3.63574e-07
3.63821e-07
3.63692e-07
3.32557e-07
3.32562e-07
3.32557e-07
3.32561e-07
3.63918e-07
3.63676e-07
3.32414e-07
3.32439e-07
3.32545e-07
3.3257e-07
3.3256e-07
3.32541e-07
3.32559e-07
3.63824e-07
3.63691e-07
3.32546e-07
3.32549e-07
3.32545e-07
3.63687e-07
3.6394e-07
3.63693e-07
3.3256e-07
3.32565e-07
3.3256e-07
3.32565e-07
3.63926e-07
3.63682e-07
3.32548e-07
3.32573e-07
3.32548e-07
3.32572e-07
3.32563e-07
3.32545e-07
3.32562e-07
3.6394e-07
3.63696e-07
3.32548e-07
3.32553e-07
3.32548e-07
3.63693e-07
3.63942e-07
3.63699e-07
3.32564e-07
3.32569e-07
3.32564e-07
3.32569e-07
3.63932e-07
3.63691e-07
3.32551e-07
3.32576e-07
3.32551e-07
3.32575e-07
3.32566e-07
3.32547e-07
3.32566e-07
3.63945e-07
3.63703e-07
3.32551e-07
3.32555e-07
3.32552e-07
3.63702e-07
3.63948e-07
3.63706e-07
3.32568e-07
3.32573e-07
3.32567e-07
3.32571e-07
3.63941e-07
3.63695e-07
3.32554e-07
3.32579e-07
3.32552e-07
3.32576e-07
3.32569e-07
3.32548e-07
3.32567e-07
3.63952e-07
3.6371e-07
3.32555e-07
3.32556e-07
3.32553e-07
3.63707e-07
3.63954e-07
3.63705e-07
3.32569e-07
3.32572e-07
3.32563e-07
3.3256e-07
3.63944e-07
3.63686e-07
3.32553e-07
3.32577e-07
3.3255e-07
3.32575e-07
3.32568e-07
3.32537e-07
3.32562e-07
3.63958e-07
3.63712e-07
3.32554e-07
3.32554e-07
3.32547e-07
3.63706e-07
3.63951e-07
3.63614e-07
3.32554e-07
3.32538e-07
3.32465e-07
3.32451e-07
3.63927e-07
3.63568e-07
3.32546e-07
3.32571e-07
3.32468e-07
3.32496e-07
3.3255e-07
3.32428e-07
3.32459e-07
3.63958e-07
3.63635e-07
3.32535e-07
3.32466e-07
3.32445e-07
3.63601e-07
3.63847e-07
3.63556e-07
3.32444e-07
3.32438e-07
3.32424e-07
3.32429e-07
3.63806e-07
3.63555e-07
3.32442e-07
3.32469e-07
3.32411e-07
3.32437e-07
3.32442e-07
3.32405e-07
3.32427e-07
3.63865e-07
3.63561e-07
3.32427e-07
3.32414e-07
3.32413e-07
3.63566e-07
3.63807e-07
3.63568e-07
3.32426e-07
3.32431e-07
3.32423e-07
3.32427e-07
3.63806e-07
3.6356e-07
3.32413e-07
3.32438e-07
3.3241e-07
3.32435e-07
3.32429e-07
3.32404e-07
3.32426e-07
3.63811e-07
3.63576e-07
3.32415e-07
3.32413e-07
3.32412e-07
3.63575e-07
3.63816e-07
3.6356e-07
3.32424e-07
3.32429e-07
3.3242e-07
3.32424e-07
3.63808e-07
3.63552e-07
3.32411e-07
3.32437e-07
3.32406e-07
3.32432e-07
3.32427e-07
3.32401e-07
3.32423e-07
3.63823e-07
3.63569e-07
3.32413e-07
3.32411e-07
3.32408e-07
3.63566e-07
3.63806e-07
3.6356e-07
3.32421e-07
3.32425e-07
3.32413e-07
3.32417e-07
3.63801e-07
3.63546e-07
3.32407e-07
3.32433e-07
3.324e-07
3.32425e-07
3.32424e-07
3.32393e-07
3.32416e-07
3.63815e-07
3.63568e-07
3.3241e-07
3.32403e-07
3.32401e-07
3.63564e-07
3.63805e-07
3.63527e-07
3.32416e-07
3.32418e-07
3.32373e-07
3.32375e-07
3.63793e-07
3.63517e-07
3.32402e-07
3.32427e-07
3.32358e-07
3.32383e-07
3.32417e-07
3.32353e-07
3.32376e-07
3.63813e-07
3.63533e-07
3.32403e-07
3.32362e-07
3.32359e-07
3.63532e-07
3.63771e-07
3.61208e-07
3.32424e-07
3.32427e-07
3.30125e-07
3.30127e-07
3.63761e-07
3.61204e-07
3.32409e-07
3.32435e-07
3.30114e-07
3.30129e-07
3.32428e-07
3.30112e-07
3.30126e-07
3.63777e-07
3.61211e-07
3.3241e-07
3.30115e-07
3.30113e-07
3.61208e-07
3.58218e-07
3.28734e-07
3.28736e-07
3.58215e-07
3.28726e-07
3.28737e-07
3.07885e-07
3.07885e-07
3.07885e-07
3.28735e-07
3.58221e-07
3.28726e-07
5.35669e-07
5.35604e-07
5.3566e-07
5.3566e-07
5.34573e-07
5.35517e-07
5.33635e-07
5.35658e-07
5.34574e-07
5.35517e-07
5.35658e-07
5.33634e-07
5.35261e-07
5.35987e-07
5.35987e-07
1.10844e-06
3.88239e-06
9.33277e-07
4.6046e-06
1.26082e-05
1.65931e-05
1.10857e-06
3.88263e-06
9.33302e-07
4.60495e-06
4.95537e-07
4.95538e-07
4.95538e-07
4.57201e-07
4.572e-07
4.57201e-07
4.57201e-07
5.43388e-07
1.22023e-06
4.95542e-07
4.85529e-07
5.25212e-07
1.20986e-06
4.8232e-07
1.26098e-05
1.65953e-05
5.43412e-07
4.95542e-07
1.2202e-06
4.8553e-07
5.2519e-07
4.82321e-07
1.20985e-06
2.52159e-06
2.5223e-06
4.84196e-07
2.3733e-06
2.37369e-06
1.43161e-06
5.59619e-06
1.32951e-06
6.13404e-06
2.12929e-05
2.31065e-05