/*--------------------------------*- C++ -*----------------------------------*\
| =========                 |                                                 |
| \\      /  F ield         | OpenFOAM: The Open Source CFD Toolbox           |
|  \\    /   O peration     | Version:  2206                                  |
|   \\  /    A nd           | Website:  www.openfoam.com                      |
|    \\/     M anipulation  |                                                 |
\*---------------------------------------------------------------------------*/
FoamFile
{
    version     2.0;
    format      ascii;
    arch        "LSB;label=32;scalar=64";
    class       volScalarField;
    location    "24";
    object      p;
}
// * * * * * * * * * * * * * * * * * * * * * * * * * * * * * * * * * * * * * //

dimensions      [0 2 -2 0 0 0 0];

internalField   nonuniform List<scalar> 
171728
(
0.00409237
0.0040927
0.0040927
0.00409575
0.00403701
0.00403742
0.00403742
0.0040404
0.00398623
0.00398624
0.00398624
0.003989
0.00393391
0.00393392
0.00393392
0.00393667
0.00388315
0.00388297
0.00388297
0.00388547
0.00383723
0.00383712
0.00383712
0.00383965
0.00379384
0.00379379
0.00379379
0.00379635
0.0037507
0.00375066
0.00375066
0.0037532
0.0037076
0.00370757
0.00370757
0.00371011
0.00366451
0.00366448
0.00366448
0.00366702
0.00362142
0.00362139
0.00362139
0.00362393
0.00357833
0.0035783
0.0035783
0.00358084
0.00353524
0.0035352
0.0035352
0.00353774
0.00349214
0.00349211
0.0034921
0.00349464
0.00344904
0.00344901
0.00344901
0.00345155
0.00340595
0.00340592
0.00340592
0.00340846
0.00336286
0.00336282
0.00336282
0.00336536
0.00331975
0.00331972
0.00331972
0.00332226
0.00327665
0.00327662
0.00327662
0.00327916
0.00323355
0.00323352
0.00323352
0.00323606
0.00319046
0.00319042
0.00319042
0.00319296
0.00314736
0.00314733
0.00314733
0.00314986
0.00310426
0.00310423
0.00310423
0.00310676
0.00306116
0.00306113
0.00306113
0.00306366
0.00301806
0.00301803
0.00301803
0.00302057
0.00297496
0.00297493
0.00297493
0.00297747
0.00293187
0.00293183
0.00293183
0.00293437
0.00288877
0.00288874
0.00288874
0.00289127
0.00284567
0.00284564
0.00284564
0.00284818
0.00280258
0.00280254
0.00280254
0.00280508
0.00275948
0.00275944
0.00275944
0.00276198
0.00271638
0.00271635
0.00271635
0.00271888
0.00267328
0.00267325
0.00267325
0.00267579
0.00263019
0.00263015
0.00263015
0.00263269
0.00258709
0.00258705
0.00258705
0.00258959
0.00254397
0.00254394
0.00254394
0.00254648
0.00250087
0.00250084
0.00250084
0.00250338
0.00245777
0.00245774
0.00245774
0.00246028
0.00241468
0.00241464
0.00241464
0.00241718
0.00237158
0.00237154
0.00237154
0.00237408
0.00232848
0.00232844
0.00232844
0.00233098
0.00228538
0.00228535
0.00228535
0.00228788
0.00224228
0.00224225
0.00224225
0.00224479
0.00219918
0.00219915
0.00219915
0.00220169
0.00215609
0.00215605
0.00215605
0.00215859
0.00211299
0.00211296
0.00211296
0.0021155
0.00206989
0.00206986
0.00206986
0.0020724
0.0020268
0.00202676
0.00202676
0.0020293
0.0019837
0.00198366
0.00198366
0.0019862
0.0019406
0.00194057
0.00194057
0.0019431
0.0018975
0.00189747
0.00189747
0.00190001
0.00185441
0.00185438
0.00185438
0.00185692
0.00181131
0.00181127
0.00181127
0.00181381
0.0017682
0.00176817
0.00176817
0.00177071
0.0017251
0.00172507
0.00172507
0.00172761
0.001682
0.00168197
0.00168197
0.00168451
0.00163891
0.00163887
0.00163887
0.00164141
0.00159581
0.00159578
0.00159578
0.00159831
0.00155271
0.00155268
0.00155268
0.00155522
0.00150961
0.00150958
0.00150958
0.00151212
0.00146651
0.00146648
0.00146648
0.00146902
0.00142342
0.00142338
0.00142338
0.00142592
0.00138032
0.00138029
0.00138029
0.00138282
0.00133722
0.00133719
0.00133719
0.00133973
0.00129412
0.00129409
0.00129409
0.00129663
0.00125103
0.001251
0.001251
0.00125353
0.00120793
0.0012079
0.0012079
0.00121044
0.00116484
0.00116481
0.00116481
0.00116735
0.00112175
0.00112171
0.00112172
0.00112425
0.00107865
0.00107862
0.00107862
0.00108116
0.00103554
0.00103551
0.00103551
0.00103805
0.000992443
0.00099241
0.00099241
0.000994949
0.000949344
0.000949311
0.000949312
0.00095185
0.000906246
0.000906213
0.000906213
0.000908752
0.000863148
0.000863115
0.000863115
0.000865654
0.000820051
0.000820018
0.000820017
0.000822556
0.000776954
0.00077692
0.00077692
0.000779459
0.000733857
0.000733824
0.000733824
0.000736362
0.000690761
0.000690728
0.000690728
0.000693266
0.000647666
0.000647633
0.000647633
0.000650172
0.000604573
0.000604539
0.00060454
0.000607078
0.000561479
0.000561446
0.000561446
0.000563984
0.000518385
0.000518352
0.000518352
0.000520891
0.000475291
0.000475258
0.000475257
0.000477796
0.000432199
0.000432166
0.000432166
0.000434704
0.000389107
0.000389074
0.000389074
0.000391613
0.000346014
0.000345981
0.000345982
0.000348521
0.000302911
0.000302877
0.000302879
0.000305416
0.000259806
0.000259775
0.000259774
0.000262312
0.000216702
0.000216669
0.000216668
0.000219203
0.000173607
0.000173577
0.000173577
0.000176107
0.000130487
0.00013045
0.00013045
0.000132964
8.73974e-05
8.73602e-05
8.73588e-05
8.98424e-05
4.49622e-05
4.44074e-05
4.44046e-05
4.67609e-05
9.79443e-06
1.00546e-05
1.00526e-05
9.6088e-06
0.00410578
0.00410601
0.004106
0.00410578
0.00410601
0.00410601
0.00410676
0.00410676
0.00410677
0.00410677
0.00410601
0.00410601
0.00410578
0.00410601
0.00410601
0.00410578
0.00409575
0.00404699
0.00409269
0.0040927
0.00404926
0.00404926
0.00409575
0.00404699
0.0040927
0.0040927
0.00404926
0.00404926
0.0040927
0.00404926
0.00404926
0.00409575
0.00404699
0.0040927
0.00404926
0.00404926
0.00404699
0.0040404
0.00399593
0.00403743
0.00403743
0.00399933
0.00399933
0.0040404
0.00399593
0.00403742
0.00403743
0.00399933
0.00399933
0.00403743
0.00399933
0.00399933
0.0040404
0.00399593
0.00403742
0.00399933
0.00399933
0.00399593
0.003989
0.00394356
0.00398624
0.00398624
0.00394687
0.00394687
0.003989
0.00394356
0.00398624
0.00398624
0.00394687
0.00394687
0.00398624
0.00394687
0.00394687
0.003989
0.00394356
0.00398624
0.00394687
0.00394687
0.00394356
0.00393667
0.00389206
0.00393392
0.00393393
0.00389534
0.00389534
0.00393667
0.00389206
0.00393392
0.00393393
0.00389534
0.00389534
0.00393392
0.00389534
0.00389534
0.00393667
0.00389206
0.00393392
0.00389534
0.00389534
0.00389206
0.00388548
0.00384542
0.00388297
0.00388297
0.00384813
0.00384813
0.00388548
0.00384542
0.00388297
0.00388297
0.00384812
0.00384813
0.00388297
0.00384813
0.00384813
0.00388548
0.00384542
0.00388298
0.00384812
0.00384813
0.00384542
0.00383965
0.00380206
0.00383712
0.00383712
0.00380459
0.00380459
0.00383965
0.00380206
0.00383712
0.00383712
0.00380459
0.00380459
0.00383712
0.00380459
0.0038046
0.00383965
0.00380206
0.00383712
0.0038046
0.0038046
0.00380206
0.00379635
0.0037589
0.00379379
0.00379379
0.00376144
0.00376144
0.00379635
0.0037589
0.00379379
0.00379379
0.00376144
0.00376144
0.00379379
0.00376144
0.00376144
0.00379635
0.0037589
0.00379379
0.00376144
0.00376144
0.0037589
0.0037532
0.00371581
0.00375066
0.00375066
0.00371834
0.00371834
0.0037532
0.00371581
0.00375066
0.00375066
0.00371834
0.00371834
0.00375066
0.00371834
0.00371834
0.0037532
0.00371581
0.00375066
0.00371834
0.00371834
0.00371581
0.00371011
0.00367272
0.00370757
0.00370757
0.00367525
0.00367525
0.00371011
0.00367272
0.00370757
0.00370757
0.00367525
0.00367525
0.00370757
0.00367525
0.00367525
0.00371011
0.00367272
0.00370757
0.00367525
0.00367525
0.00367272
0.00366702
0.00362963
0.00366448
0.00366448
0.00363216
0.00363216
0.00366702
0.00362963
0.00366448
0.00366448
0.00363216
0.00363216
0.00366448
0.00363216
0.00363216
0.00366702
0.00362963
0.00366448
0.00363216
0.00363216
0.00362963
0.00362393
0.00358654
0.00362139
0.00362139
0.00358907
0.00358907
0.00362393
0.00358654
0.00362139
0.00362139
0.00358907
0.00358907
0.00362139
0.00358907
0.00358907
0.00362393
0.00358654
0.00362139
0.00358907
0.00358907
0.00358654
0.00358084
0.00354345
0.0035783
0.0035783
0.00354598
0.00354598
0.00358084
0.00354345
0.0035783
0.0035783
0.00354598
0.00354598
0.0035783
0.00354598
0.00354598
0.00358084
0.00354345
0.0035783
0.00354598
0.00354598
0.00354345
0.00353774
0.00350035
0.0035352
0.0035352
0.00350288
0.00350288
0.00353774
0.00350035
0.0035352
0.0035352
0.00350288
0.00350288
0.0035352
0.00350288
0.00350288
0.00353774
0.00350035
0.0035352
0.00350288
0.00350288
0.00350035
0.00349464
0.00345725
0.0034921
0.00349211
0.00345978
0.00345978
0.00349464
0.00345725
0.0034921
0.0034921
0.00345978
0.00345978
0.00349211
0.00345978
0.00345978
0.00349464
0.00345725
0.00349211
0.00345978
0.00345978
0.00345725
0.00345155
0.00341416
0.00344901
0.00344901
0.00341669
0.00341669
0.00345155
0.00341416
0.00344901
0.00344901
0.00341669
0.00341669
0.00344901
0.00341669
0.00341669
0.00345155
0.00341416
0.00344901
0.00341669
0.00341669
0.00341416
0.00340846
0.00337107
0.00340592
0.00340592
0.0033736
0.0033736
0.00340846
0.00337107
0.00340592
0.00340592
0.0033736
0.0033736
0.00340592
0.0033736
0.0033736
0.00340846
0.00337107
0.00340592
0.0033736
0.0033736
0.00337107
0.00336536
0.00332796
0.00336282
0.00336282
0.0033305
0.0033305
0.00336536
0.00332796
0.00336282
0.00336282
0.0033305
0.0033305
0.00336282
0.0033305
0.0033305
0.00336536
0.00332796
0.00336282
0.0033305
0.0033305
0.00332796
0.00332226
0.00328486
0.00331972
0.00331972
0.00328739
0.00328739
0.00332226
0.00328486
0.00331972
0.00331972
0.00328739
0.00328739
0.00331972
0.00328739
0.00328739
0.00332226
0.00328486
0.00331972
0.00328739
0.00328739
0.00328486
0.00327916
0.00324176
0.00327662
0.00327662
0.0032443
0.00324429
0.00327916
0.00324176
0.00327662
0.00327662
0.0032443
0.0032443
0.00327662
0.0032443
0.0032443
0.00327916
0.00324176
0.00327662
0.0032443
0.0032443
0.00324176
0.00323606
0.00319867
0.00323352
0.00323352
0.0032012
0.0032012
0.00323606
0.00319867
0.00323352
0.00323352
0.0032012
0.0032012
0.00323352
0.0032012
0.0032012
0.00323606
0.00319867
0.00323352
0.0032012
0.0032012
0.00319867
0.00319296
0.00315557
0.00319042
0.00319042
0.0031581
0.0031581
0.00319296
0.00315557
0.00319042
0.00319042
0.0031581
0.0031581
0.00319042
0.0031581
0.0031581
0.00319296
0.00315557
0.00319042
0.0031581
0.0031581
0.00315557
0.00314986
0.00311247
0.00314733
0.00314733
0.003115
0.003115
0.00314986
0.00311247
0.00314733
0.00314733
0.003115
0.003115
0.00314733
0.003115
0.003115
0.00314986
0.00311247
0.00314733
0.003115
0.003115
0.00311247
0.00310676
0.00306937
0.00310423
0.00310423
0.0030719
0.0030719
0.00310676
0.00306937
0.00310423
0.00310423
0.0030719
0.0030719
0.00310423
0.0030719
0.0030719
0.00310676
0.00306937
0.00310423
0.0030719
0.0030719
0.00306937
0.00306366
0.00302627
0.00306113
0.00306113
0.0030288
0.0030288
0.00306366
0.00302627
0.00306113
0.00306113
0.0030288
0.0030288
0.00306113
0.0030288
0.0030288
0.00306366
0.00302627
0.00306113
0.0030288
0.0030288
0.00302627
0.00302057
0.00298317
0.00301803
0.00301803
0.0029857
0.0029857
0.00302057
0.00298317
0.00301803
0.00301803
0.0029857
0.0029857
0.00301803
0.0029857
0.0029857
0.00302057
0.00298317
0.00301803
0.0029857
0.0029857
0.00298317
0.00297747
0.00294007
0.00297493
0.00297493
0.00294261
0.00294261
0.00297747
0.00294007
0.00297493
0.00297493
0.00294261
0.00294261
0.00297493
0.00294261
0.00294261
0.00297747
0.00294007
0.00297493
0.00294261
0.00294261
0.00294007
0.00293437
0.00289698
0.00293183
0.00293183
0.00289951
0.00289951
0.00293437
0.00289698
0.00293183
0.00293183
0.00289951
0.00289951
0.00293183
0.00289951
0.00289951
0.00293437
0.00289698
0.00293183
0.00289951
0.00289951
0.00289698
0.00289127
0.00285388
0.00288874
0.00288874
0.00285641
0.00285641
0.00289127
0.00285388
0.00288874
0.00288874
0.00285641
0.00285641
0.00288874
0.00285641
0.00285641
0.00289127
0.00285388
0.00288874
0.00285641
0.00285641
0.00285388
0.00284818
0.00281079
0.00284564
0.00284564
0.00281332
0.00281332
0.00284818
0.00281079
0.00284564
0.00284564
0.00281332
0.00281332
0.00284564
0.00281332
0.00281332
0.00284818
0.00281079
0.00284564
0.00281332
0.00281332
0.00281078
0.00280508
0.00276769
0.00280254
0.00280254
0.00277022
0.00277022
0.00280508
0.00276769
0.00280254
0.00280254
0.00277022
0.00277022
0.00280254
0.00277022
0.00277022
0.00280508
0.00276769
0.00280254
0.00277022
0.00277022
0.00276769
0.00276198
0.00272459
0.00275944
0.00275944
0.00272712
0.00272712
0.00276198
0.00272459
0.00275944
0.00275944
0.00272712
0.00272712
0.00275944
0.00272712
0.00272712
0.00276198
0.00272459
0.00275944
0.00272712
0.00272712
0.00272459
0.00271888
0.00268149
0.00271635
0.00271635
0.00268402
0.00268402
0.00271888
0.00268149
0.00271635
0.00271635
0.00268402
0.00268402
0.00271635
0.00268402
0.00268402
0.00271888
0.00268149
0.00271635
0.00268402
0.00268402
0.00268149
0.00267579
0.00263839
0.00267325
0.00267325
0.00264093
0.00264093
0.00267579
0.00263839
0.00267325
0.00267325
0.00264093
0.00264093
0.00267325
0.00264093
0.00264093
0.00267579
0.00263839
0.00267325
0.00264093
0.00264093
0.00263839
0.00263269
0.0025953
0.00263015
0.00263015
0.00259783
0.00259783
0.00263269
0.0025953
0.00263015
0.00263015
0.00259783
0.00259783
0.00263015
0.00259783
0.00259783
0.00263269
0.0025953
0.00263015
0.00259783
0.00259783
0.0025953
0.00258959
0.00255218
0.00258705
0.00258705
0.00255472
0.00255472
0.00258959
0.00255218
0.00258705
0.00258705
0.00255472
0.00255472
0.00258705
0.00255472
0.00255472
0.00258959
0.00255218
0.00258705
0.00255472
0.00255472
0.00255218
0.00254648
0.00250908
0.00254394
0.00254394
0.00251161
0.00251161
0.00254648
0.00250908
0.00254394
0.00254394
0.00251161
0.00251161
0.00254394
0.00251161
0.00251161
0.00254648
0.00250908
0.00254394
0.00251161
0.00251161
0.00250908
0.00250338
0.00246598
0.00250084
0.00250084
0.00246852
0.00246852
0.00250338
0.00246598
0.00250084
0.00250084
0.00246852
0.00246852
0.00250084
0.00246852
0.00246852
0.00250338
0.00246598
0.00250084
0.00246852
0.00246852
0.00246598
0.00246028
0.00242288
0.00245774
0.00245774
0.00242542
0.00242542
0.00246028
0.00242288
0.00245774
0.00245774
0.00242542
0.00242542
0.00245774
0.00242542
0.00242542
0.00246028
0.00242288
0.00245774
0.00242542
0.00242542
0.00242288
0.00241718
0.00237978
0.00241464
0.00241464
0.00238232
0.00238232
0.00241718
0.00237978
0.00241464
0.00241464
0.00238232
0.00238232
0.00241464
0.00238232
0.00238232
0.00241718
0.00237978
0.00241464
0.00238232
0.00238232
0.00237978
0.00237408
0.00233669
0.00237154
0.00237154
0.00233922
0.00233922
0.00237408
0.00233669
0.00237154
0.00237154
0.00233922
0.00233922
0.00237154
0.00233922
0.00233922
0.00237408
0.00233669
0.00237154
0.00233922
0.00233922
0.00233668
0.00233098
0.00229359
0.00232844
0.00232844
0.00229612
0.00229612
0.00233098
0.00229359
0.00232844
0.00232844
0.00229612
0.00229612
0.00232844
0.00229612
0.00229612
0.00233098
0.00229359
0.00232844
0.00229612
0.00229612
0.00229359
0.00228788
0.00225049
0.00228535
0.00228535
0.00225302
0.00225302
0.00228788
0.00225049
0.00228535
0.00228535
0.00225302
0.00225302
0.00228535
0.00225302
0.00225302
0.00228788
0.00225049
0.00228535
0.00225302
0.00225302
0.00225049
0.00224479
0.00220739
0.00224225
0.00224225
0.00220993
0.00220993
0.00224479
0.00220739
0.00224225
0.00224225
0.00220993
0.00220993
0.00224225
0.00220993
0.00220993
0.00224479
0.00220739
0.00224225
0.00220993
0.00220993
0.00220739
0.00220169
0.0021643
0.00219915
0.00219915
0.00216683
0.00216683
0.00220169
0.0021643
0.00219915
0.00219915
0.00216683
0.00216683
0.00219915
0.00216683
0.00216683
0.00220169
0.0021643
0.00219915
0.00216683
0.00216683
0.0021643
0.00215859
0.0021212
0.00215606
0.00215605
0.00212373
0.00212373
0.00215859
0.0021212
0.00215605
0.00215606
0.00212373
0.00212373
0.00215605
0.00212373
0.00212373
0.00215859
0.0021212
0.00215605
0.00212373
0.00212373
0.0021212
0.0021155
0.0020781
0.00211296
0.00211296
0.00208064
0.00208064
0.0021155
0.0020781
0.00211296
0.00211296
0.00208064
0.00208064
0.00211296
0.00208064
0.00208064
0.0021155
0.0020781
0.00211296
0.00208064
0.00208064
0.0020781
0.0020724
0.00203501
0.00206986
0.00206986
0.00203754
0.00203754
0.0020724
0.00203501
0.00206986
0.00206986
0.00203754
0.00203754
0.00206986
0.00203754
0.00203754
0.0020724
0.002035
0.00206986
0.00203754
0.00203754
0.002035
0.0020293
0.0019919
0.00202676
0.00202676
0.00199444
0.00199444
0.0020293
0.0019919
0.00202676
0.00202676
0.00199444
0.00199444
0.00202676
0.00199444
0.00199444
0.0020293
0.0019919
0.00202676
0.00199444
0.00199444
0.0019919
0.0019862
0.00194881
0.00198366
0.00198366
0.00195134
0.00195134
0.0019862
0.00194881
0.00198366
0.00198366
0.00195134
0.00195134
0.00198366
0.00195134
0.00195134
0.0019862
0.00194881
0.00198366
0.00195134
0.00195134
0.00194881
0.0019431
0.00190571
0.00194057
0.00194057
0.00190824
0.00190824
0.0019431
0.00190571
0.00194057
0.00194057
0.00190824
0.00190824
0.00194057
0.00190824
0.00190824
0.0019431
0.00190571
0.00194057
0.00190824
0.00190824
0.00190571
0.00190001
0.00186262
0.00189747
0.00189747
0.00186515
0.00186515
0.00190001
0.00186262
0.00189747
0.00189747
0.00186515
0.00186515
0.00189747
0.00186515
0.00186515
0.00190001
0.00186262
0.00189747
0.00186515
0.00186515
0.00186262
0.00185692
0.00181952
0.00185438
0.00185438
0.00182205
0.00182205
0.00185692
0.00181952
0.00185438
0.00185438
0.00182205
0.00182205
0.00185438
0.00182205
0.00182205
0.00185692
0.00181952
0.00185438
0.00182205
0.00182205
0.00181952
0.00181381
0.00177641
0.00181127
0.00181127
0.00177894
0.00177894
0.00181381
0.00177641
0.00181127
0.00181127
0.00177894
0.00177894
0.00181127
0.00177894
0.00177894
0.00181381
0.00177641
0.00181127
0.00177894
0.00177894
0.00177641
0.00177071
0.00173331
0.00176817
0.00176817
0.00173584
0.00173584
0.00177071
0.00173331
0.00176817
0.00176817
0.00173584
0.00173584
0.00176817
0.00173584
0.00173584
0.00177071
0.00173331
0.00176817
0.00173584
0.00173584
0.00173331
0.00172761
0.00169021
0.00172507
0.00172507
0.00169275
0.00169275
0.00172761
0.00169021
0.00172507
0.00172507
0.00169275
0.00169275
0.00172507
0.00169275
0.00169275
0.00172761
0.00169021
0.00172507
0.00169275
0.00169275
0.00169021
0.00168451
0.00164712
0.00168197
0.00168197
0.00164965
0.00164965
0.00168451
0.00164712
0.00168197
0.00168197
0.00164965
0.00164965
0.00168197
0.00164965
0.00164965
0.00168451
0.00164712
0.00168197
0.00164965
0.00164965
0.00164712
0.00164141
0.00160402
0.00163887
0.00163887
0.00160655
0.00160655
0.00164141
0.00160402
0.00163887
0.00163887
0.00160655
0.00160655
0.00163887
0.00160655
0.00160655
0.00164141
0.00160402
0.00163887
0.00160655
0.00160655
0.00160402
0.00159831
0.00156092
0.00159578
0.00159578
0.00156345
0.00156345
0.00159831
0.00156092
0.00159578
0.00159578
0.00156345
0.00156345
0.00159578
0.00156345
0.00156345
0.00159831
0.00156092
0.00159578
0.00156345
0.00156345
0.00156092
0.00155522
0.00151782
0.00155268
0.00155268
0.00152035
0.00152035
0.00155522
0.00151782
0.00155268
0.00155268
0.00152035
0.00152035
0.00155268
0.00152035
0.00152035
0.00155522
0.00151782
0.00155268
0.00152035
0.00152035
0.00151782
0.00151212
0.00147472
0.00150958
0.00150958
0.00147726
0.00147726
0.00151212
0.00147472
0.00150958
0.00150958
0.00147726
0.00147726
0.00150958
0.00147726
0.00147726
0.00151212
0.00147472
0.00150958
0.00147726
0.00147726
0.00147472
0.00146902
0.00143162
0.00146648
0.00146648
0.00143416
0.00143416
0.00146902
0.00143162
0.00146648
0.00146648
0.00143416
0.00143416
0.00146648
0.00143416
0.00143416
0.00146902
0.00143162
0.00146648
0.00143416
0.00143416
0.00143162
0.00142592
0.00138853
0.00142338
0.00142338
0.00139106
0.00139106
0.00142592
0.00138853
0.00142338
0.00142338
0.00139106
0.00139106
0.00142338
0.00139106
0.00139106
0.00142592
0.00138853
0.00142338
0.00139106
0.00139106
0.00138853
0.00138282
0.00134543
0.00138029
0.00138029
0.00134796
0.00134796
0.00138282
0.00134543
0.00138029
0.00138029
0.00134796
0.00134796
0.00138029
0.00134796
0.00134796
0.00138282
0.00134543
0.00138029
0.00134796
0.00134796
0.00134543
0.00133973
0.00130233
0.00133719
0.00133719
0.00130487
0.00130487
0.00133973
0.00130233
0.00133719
0.00133719
0.00130487
0.00130487
0.00133719
0.00130487
0.00130487
0.00133973
0.00130233
0.00133719
0.00130487
0.00130487
0.00130233
0.00129663
0.00125924
0.00129409
0.00129409
0.00126177
0.00126177
0.00129663
0.00125924
0.00129409
0.00129409
0.00126177
0.00126177
0.00129409
0.00126177
0.00126177
0.00129663
0.00125924
0.00129409
0.00126177
0.00126177
0.00125924
0.00125353
0.00121614
0.001251
0.001251
0.00121867
0.00121867
0.00125353
0.00121614
0.001251
0.001251
0.00121867
0.00121867
0.001251
0.00121867
0.00121867
0.00125353
0.00121614
0.001251
0.00121867
0.00121867
0.00121614
0.00121044
0.00117305
0.0012079
0.0012079
0.00117558
0.00117558
0.00121044
0.00117305
0.0012079
0.0012079
0.00117558
0.00117558
0.0012079
0.00117558
0.00117558
0.00121044
0.00117305
0.0012079
0.00117558
0.00117558
0.00117305
0.00116735
0.00112996
0.00116481
0.00116481
0.00113249
0.00113249
0.00116735
0.00112996
0.00116481
0.00116481
0.00113249
0.00113249
0.00116481
0.00113249
0.00113249
0.00116735
0.00112996
0.00116481
0.00113249
0.00113249
0.00112996
0.00112425
0.00108686
0.00112171
0.00112171
0.00108939
0.00108939
0.00112425
0.00108686
0.00112171
0.00112172
0.00108939
0.00108939
0.00112172
0.00108939
0.00108939
0.00112425
0.00108686
0.00112172
0.00108939
0.00108939
0.00108686
0.00108116
0.00104375
0.00107862
0.00107862
0.00104629
0.00104629
0.00108116
0.00104375
0.00107862
0.00107862
0.00104629
0.00104629
0.00107862
0.00104629
0.00104629
0.00108116
0.00104375
0.00107862
0.00104629
0.00104629
0.00104375
0.00103805
0.00100065
0.00103551
0.00103551
0.00100318
0.00100318
0.00103805
0.00100065
0.00103551
0.00103551
0.00100318
0.00100318
0.00103551
0.00100318
0.00100319
0.00103805
0.00100065
0.00103551
0.00100318
0.00100318
0.00100065
0.000994948
0.000957553
0.00099241
0.00099241
0.000960086
0.000960086
0.000994948
0.000957553
0.00099241
0.00099241
0.000960086
0.000960086
0.00099241
0.000960086
0.000960086
0.000994949
0.000957553
0.00099241
0.000960086
0.000960086
0.000957553
0.00095185
0.000914455
0.000949311
0.000949311
0.000916988
0.000916987
0.00095185
0.000914455
0.000949311
0.000949311
0.000916987
0.000916988
0.000949312
0.000916988
0.000916988
0.00095185
0.000914455
0.000949312
0.000916988
0.000916988
0.000914455
0.000908752
0.000871357
0.000906213
0.000906213
0.00087389
0.000873889
0.000908752
0.000871357
0.000906213
0.000906213
0.000873889
0.00087389
0.000906213
0.00087389
0.00087389
0.000908752
0.000871357
0.000906213
0.00087389
0.000873889
0.000871357
0.000865654
0.000828259
0.000863115
0.000863115
0.000830792
0.000830792
0.000865654
0.000828259
0.000863115
0.000863115
0.000830792
0.000830792
0.000863115
0.000830792
0.000830792
0.000865654
0.000828259
0.000863115
0.000830792
0.000830792
0.000828259
0.000822556
0.000785162
0.000820018
0.000820018
0.000787695
0.000787695
0.000822556
0.000785162
0.000820017
0.000820017
0.000787695
0.000787695
0.000820018
0.000787695
0.000787695
0.000822556
0.000785162
0.000820017
0.000787695
0.000787695
0.000785162
0.000779459
0.000742065
0.000776921
0.00077692
0.000744598
0.000744598
0.000779459
0.000742065
0.00077692
0.00077692
0.000744598
0.000744598
0.000776921
0.000744598
0.000744598
0.000779459
0.000742065
0.00077692
0.000744598
0.000744598
0.000742065
0.000736362
0.000698969
0.000733824
0.000733824
0.000701502
0.000701501
0.000736362
0.000698969
0.000733824
0.000733824
0.000701501
0.000701502
0.000733824
0.000701502
0.000701502
0.000736362
0.000698969
0.000733824
0.000701502
0.000701502
0.000698969
0.000693266
0.000655874
0.000690728
0.000690728
0.000658407
0.000658407
0.000693266
0.000655874
0.000690728
0.000690728
0.000658407
0.000658407
0.000690728
0.000658407
0.000658407
0.000693266
0.000655874
0.000690728
0.000658407
0.000658407
0.000655874
0.000650172
0.00061278
0.000647633
0.000647633
0.000615313
0.000615313
0.000650172
0.00061278
0.000647633
0.000647633
0.000615313
0.000615313
0.000647633
0.000615313
0.000615313
0.000650172
0.00061278
0.000647633
0.000615313
0.000615313
0.00061278
0.000607078
0.000569687
0.00060454
0.000604539
0.000572219
0.000572219
0.000607078
0.000569687
0.000604539
0.00060454
0.000572219
0.000572219
0.00060454
0.000572219
0.000572219
0.000607078
0.000569687
0.000604539
0.000572219
0.000572219
0.000569687
0.000563984
0.000526593
0.000561446
0.000561446
0.000529126
0.000529126
0.000563984
0.000526593
0.000561446
0.000561446
0.000529126
0.000529126
0.000561446
0.000529126
0.000529126
0.000563984
0.000526593
0.000561446
0.000529126
0.000529126
0.000526593
0.000520891
0.000483498
0.000518352
0.000518352
0.000486031
0.000486031
0.00052089
0.000483499
0.000518352
0.000518352
0.000486031
0.000486031
0.000518352
0.000486031
0.000486031
0.000520891
0.000483498
0.000518352
0.000486031
0.000486031
0.000483498
0.000477796
0.000440406
0.000475258
0.000475258
0.000442939
0.000442939
0.000477796
0.000440407
0.000475257
0.000475257
0.000442939
0.000442939
0.000475258
0.000442939
0.000442939
0.000477796
0.000440406
0.000475257
0.000442939
0.000442939
0.000440406
0.000434704
0.000397315
0.000432166
0.000432166
0.000399847
0.000399847
0.000434704
0.000397315
0.000432166
0.000432166
0.000399847
0.000399847
0.000432166
0.000399847
0.000399848
0.000434704
0.000397315
0.000432166
0.000399847
0.000399847
0.000397315
0.000391612
0.000354223
0.000389074
0.000389074
0.000356756
0.000356756
0.000391613
0.000354224
0.000389074
0.000389074
0.000356756
0.000356755
0.000389074
0.000356756
0.000356756
0.000391612
0.000354223
0.000389074
0.000356755
0.000356756
0.000354223
0.000348521
0.000311121
0.000345982
0.000345981
0.000313655
0.000313654
0.000348521
0.00031112
0.000345982
0.000345982
0.000313655
0.000313655
0.000345982
0.000313654
0.000313655
0.000348521
0.000311122
0.000345982
0.000313655
0.000313655
0.000311121
0.000305417
0.000268015
0.000302878
0.000302877
0.000270549
0.000270549
0.000305415
0.000268016
0.000302878
0.000302879
0.000270549
0.000270549
0.000302878
0.000270549
0.000270549
0.000305418
0.000268015
0.000302878
0.000270549
0.000270549
0.000268015
0.000262312
0.000224913
0.000259775
0.000259775
0.000227447
0.000227447
0.000262312
0.000224914
0.000259774
0.000259774
0.000227447
0.000227447
0.000259775
0.000227447
0.000227447
0.000262312
0.000224913
0.000259775
0.000227447
0.000227447
0.000224914
0.000219203
0.000181815
0.000216668
0.000216668
0.000184338
0.000184338
0.000219203
0.000181816
0.000216668
0.000216668
0.000184338
0.000184338
0.000216669
0.000184338
0.000184338
0.000219203
0.000181815
0.000216668
0.000184338
0.000184338
0.000181816
0.000176107
0.00013872
0.000173577
0.000173577
0.000141248
0.000141248
0.000176107
0.000138721
0.000173577
0.000173577
0.000141247
0.000141248
0.000173577
0.000141248
0.000141248
0.000176107
0.00013872
0.000173577
0.000141247
0.000141248
0.00013872
0.000132964
9.56139e-05
0.00013045
0.00013045
9.81442e-05
9.81451e-05
0.000132964
9.56147e-05
0.00013045
0.00013045
9.81443e-05
9.81435e-05
0.00013045
9.81447e-05
9.8144e-05
0.000132964
9.56129e-05
0.00013045
9.81433e-05
9.81435e-05
9.56132e-05
8.98436e-05
5.25467e-05
8.736e-05
8.73603e-05
5.50805e-05
5.50813e-05
8.98434e-05
5.25479e-05
8.73594e-05
8.73586e-05
5.50785e-05
5.50779e-05
8.73592e-05
5.50799e-05
5.50775e-05
8.98429e-05
5.25442e-05
8.7359e-05
5.50774e-05
5.50765e-05
5.25438e-05
4.67644e-05
1.33738e-05
4.44092e-05
4.44094e-05
1.56124e-05
1.56117e-05
4.6765e-05
1.33735e-05
4.44072e-05
4.44059e-05
1.56103e-05
1.56068e-05
4.4405e-05
1.5609e-05
1.56049e-05
4.67614e-05
1.33695e-05
4.44039e-05
1.56071e-05
1.56065e-05
1.33681e-05
9.61273e-06
1.0056e-05
1.00563e-05
9.6137e-06
1.00544e-05
1.00521e-05
9.79427e-06
9.7923e-06
9.7919e-06
1.0051e-05
9.60994e-06
1.00516e-05
0.00411415
0.00412391
0.00411871
0.00411872
0.00414109
0.00412788
0.00415648
0.00412193
0.00414109
0.00412788
0.00412193
0.00415648
0.00413245
0.00416021
0.00416022
0.00406951
0.00408865
0.00409785
0.00406156
0.00406236
0.0040651
0.00406949
0.00408863
0.00409784
0.00406155
0.00409237
0.00409237
0.00409237
0.00404894
0.00404894
0.00404893
0.00404893
0.00406701
0.00409284
0.00409277
0.00407583
0.00409586
0.00406592
0.00407672
0.00406246
0.00406509
0.00406702
0.00409277
0.00409285
0.00407583
0.00409586
0.00407672
0.00406592
0.00409871
0.0040987
0.00407023
0.00406554
0.00406553
0.0040228
0.00404218
0.00404352
0.00402126
0.00404107
0.00402084
0.0040228
0.00404217
0.00404352
0.00402125
0.00403701
0.00403701
0.00403701
0.00399941
0.00399941
0.00399941
0.00399941
0.00402141
0.00404223
0.00403701
0.00402514
0.00404102
0.00402191
0.00402487
0.00404107
0.00402083
0.00402141
0.004037
0.00404223
0.00402514
0.00404102
0.00402487
0.00402191
0.00404327
0.00404327
0.00402168
0.0040222
0.00402221
0.00397042
0.00398962
0.00399065
0.00396936
0.00398927
0.00396906
0.00397042
0.00398962
0.00399065
0.00396935
0.00398623
0.00398623
0.00398623
0.00394683
0.00394683
0.00394683
0.00394683
0.00396962
0.00398995
0.00398611
0.00397305
0.00398933
0.00396991
0.00397297
0.00398927
0.00396906
0.00396962
0.00398611
0.00398995
0.00397305
0.00398933
0.00397297
0.00396991
0.00399026
0.00399026
0.00396966
0.00396991
0.00396991
0.00391801
0.00393668
0.0039376
0.00391732
0.00393644
0.00391717
0.00391801
0.00393668
0.0039376
0.00391732
0.00393391
0.00393391
0.00393391
0.00389552
0.00389552
0.00389552
0.00389552
0.00391754
0.00393712
0.00393387
0.00392092
0.00393687
0.00391773
0.00392094
0.00393644
0.00391717
0.00391754
0.00393387
0.00393712
0.00392092
0.00393687
0.00392095
0.00391773
0.00393709
0.00393709
0.00391757
0.00391774
0.00391774
0.00386709
0.00388482
0.00388573
0.00386676
0.00388452
0.00386644
0.0038671
0.00388482
0.00388573
0.00386677
0.00388315
0.00388315
0.00388315
0.00384828
0.00384828
0.00384828
0.00384828
0.00386739
0.00388535
0.00388304
0.00387096
0.00388543
0.0038673
0.00387104
0.00388452
0.00386644
0.00386739
0.00388304
0.00388535
0.00387096
0.00388543
0.00387104
0.0038673
0.003885
0.003885
0.00386786
0.00386679
0.00386679
0.00382329
0.00383924
0.00383922
0.00382324
0.00383922
0.00382327
0.00382329
0.00383924
0.00383923
0.00382323
0.00383723
0.00383723
0.00383723
0.00380465
0.00380465
0.00380465
0.00380465
0.00382348
0.00383948
0.00383716
0.00382624
0.00383947
0.00382342
0.00382626
0.00383922
0.00382328
0.00382348
0.00383716
0.00383948
0.00382624