/*--------------------------------*- C++ -*----------------------------------*\
| =========                 |                                                 |
| \\      /  F ield         | OpenFOAM: The Open Source CFD Toolbox           |
|  \\    /   O peration     | Version:  2206                                  |
|   \\  /    A nd           | Website:  www.openfoam.com                      |
|    \\/     M anipulation  |                                                 |
\*---------------------------------------------------------------------------*/
FoamFile
{
    version     2.0;
    format      ascii;
    arch        "LSB;label=32;scalar=64";
    class       volScalarField;
    location    "24";
    object      p;
}
// * * * * * * * * * * * * * * * * * * * * * * * * * * * * * * * * * * * * * //

dimensions      [0 2 -2 0 0 0 0];

internalField   nonuniform List<scalar> 
171728
(
0.00409186
0.00409219
0.0040922
0.00409525
0.00403651
0.00403693
0.00403693
0.0040399
0.00398573
0.00398574
0.00398574
0.00398851
0.00393342
0.00393343
0.00393343
0.00393618
0.00388265
0.00388248
0.00388248
0.00388498
0.00383674
0.00383663
0.00383663
0.00383916
0.00379334
0.00379329
0.0037933
0.00379586
0.00375019
0.00375016
0.00375016
0.0037527
0.00370709
0.00370706
0.00370706
0.0037096
0.003664
0.00366397
0.00366397
0.00366651
0.00362091
0.00362088
0.00362088
0.00362341
0.00357782
0.00357779
0.00357779
0.00358033
0.00353473
0.0035347
0.0035347
0.00353724
0.00349164
0.00349161
0.00349161
0.00349415
0.00344856
0.00344852
0.00344852
0.00345106
0.00340547
0.00340544
0.00340544
0.00340798
0.00336239
0.00336235
0.00336235
0.00336489
0.0033193
0.00331927
0.00331927
0.00332181
0.00327622
0.00327618
0.00327618
0.00327872
0.00323313
0.00323309
0.0032331
0.00323563
0.00319004
0.00319001
0.00319
0.00319254
0.00314694
0.00314691
0.00314691
0.00314945
0.00310384
0.00310381
0.00310381
0.00310635
0.00306075
0.00306071
0.00306071
0.00306325
0.00301765
0.00301761
0.00301761
0.00302015
0.00297455
0.00297452
0.00297452
0.00297705
0.00293145
0.00293142
0.00293142
0.00293396
0.00288836
0.00288833
0.00288833
0.00289086
0.00284527
0.00284523
0.00284523
0.00284777
0.00280218
0.00280214
0.00280214
0.00280468
0.00275909
0.00275905
0.00275905
0.00276159
0.002716
0.00271597
0.00271597
0.0027185
0.00267291
0.00267288
0.00267288
0.00267542
0.00262982
0.00262979
0.00262979
0.00263232
0.00258673
0.0025867
0.00258669
0.00258923
0.00254364
0.0025436
0.0025436
0.00254614
0.00250054
0.00250051
0.00250051
0.00250305
0.00245745
0.00245742
0.00245742
0.00245996
0.00241436
0.00241433
0.00241433
0.00241686
0.00237127
0.00237123
0.00237123
0.00237377
0.00232818
0.00232814
0.00232814
0.00233068
0.00228509
0.00228505
0.00228505
0.00228759
0.002242
0.00224196
0.00224196
0.0022445
0.00219891
0.00219887
0.00219887
0.00220141
0.00215582
0.00215578
0.00215578
0.00215832
0.00211273
0.00211269
0.00211269
0.00211523
0.00206964
0.0020696
0.0020696
0.00207214
0.00202654
0.00202651
0.00202651
0.00202905
0.00198345
0.00198342
0.00198342
0.00198596
0.00194036
0.00194033
0.00194033
0.00194287
0.00189727
0.00189723
0.00189723
0.00189977
0.00185417
0.00185414
0.00185414
0.00185668
0.00181108
0.00181105
0.00181105
0.00181359
0.00176799
0.00176796
0.00176796
0.0017705
0.0017249
0.00172487
0.00172487
0.0017274
0.00168181
0.00168178
0.00168178
0.00168431
0.00163872
0.00163868
0.00163868
0.00164122
0.00159563
0.00159559
0.00159559
0.00159813
0.00155253
0.0015525
0.0015525
0.00155504
0.00150944
0.00150941
0.00150941
0.00151195
0.00146635
0.00146632
0.00146632
0.00146886
0.00142326
0.00142323
0.00142323
0.00142577
0.00138017
0.00138014
0.00138014
0.00138267
0.00133708
0.00133704
0.00133704
0.00133958
0.00129398
0.00129395
0.00129395
0.00129649
0.00125089
0.00125086
0.00125086
0.0012534
0.0012078
0.00120777
0.00120777
0.00121031
0.00116471
0.00116468
0.00116468
0.00116721
0.00112162
0.00112158
0.00112158
0.00112412
0.00107853
0.00107849
0.00107849
0.00108103
0.00103544
0.0010354
0.0010354
0.00103794
0.000992347
0.000992313
0.000992314
0.000994852
0.000949256
0.000949223
0.000949223
0.000951761
0.000906165
0.000906132
0.000906132
0.00090867
0.000863073
0.00086304
0.00086304
0.000865578
0.000819981
0.000819948
0.000819948
0.000822486
0.000776889
0.000776856
0.000776856
0.000779394
0.000733797
0.000733764
0.000733764
0.000736302
0.000690705
0.000690671
0.000690671
0.00069321
0.000647612
0.000647579
0.000647579
0.000650118
0.00060452
0.000604487
0.000604487
0.000607026
0.000561428
0.000561395
0.000561395
0.000563933
0.000518335
0.000518302
0.000518302
0.000520841
0.000475243
0.00047521
0.00047521
0.000477748
0.000432151
0.000432118
0.000432118
0.000434657
0.000389059
0.000389026
0.000389026
0.000391565
0.000345967
0.000345934
0.000345934
0.000348473
0.000302876
0.000302843
0.000302843
0.000305381
0.000259783
0.000259752
0.000259752
0.000262289
0.000216686
0.000216652
0.000216652
0.000219187
0.000173596
0.000173567
0.000173566
0.000176097
0.00013048
0.000130444
0.000130443
0.000132958
8.7394e-05
8.73569e-05
8.73554e-05
8.9839e-05
4.49612e-05
4.44065e-05
4.44036e-05
4.67598e-05
9.79436e-06
1.00546e-05
1.00525e-05
9.60874e-06
0.00410528
0.0041055
0.0041055
0.00410528
0.0041055
0.0041055
0.00410626
0.00410626
0.00410626
0.00410626
0.0041055
0.0041055
0.00410528
0.0041055
0.0041055
0.00410528
0.00409525
0.00404649
0.00409219
0.00409219
0.00404876
0.00404877
0.00409525
0.00404649
0.0040922
0.00409219
0.00404876
0.00404876
0.00409219
0.00404876
0.00404876
0.00409525
0.00404649
0.0040922
0.00404876
0.00404876
0.00404649
0.0040399
0.00399544
0.00403693
0.00403693
0.00399883
0.00399883
0.0040399
0.00399544
0.00403693
0.00403693
0.00399883
0.00399883
0.00403693
0.00399883
0.00399883
0.0040399
0.00399544
0.00403692
0.00399883
0.00399883
0.00399544
0.00398851
0.00394307
0.00398574
0.00398574
0.00394638
0.00394638
0.00398851
0.00394307
0.00398574
0.00398574
0.00394638
0.00394638
0.00398574
0.00394638
0.00394638
0.00398851
0.00394307
0.00398574
0.00394638
0.00394638
0.00394307
0.00393618
0.00389157
0.00393343
0.00393343
0.00389485
0.00389485
0.00393618
0.00389157
0.00393343
0.00393343
0.00389485
0.00389485
0.00393343
0.00389485
0.00389485
0.00393618
0.00389157
0.00393343
0.00389485
0.00389485
0.00389157
0.00388498
0.00384493
0.00388248
0.00388248
0.00384764
0.00384763
0.00388498
0.00384493
0.00388248
0.00388248
0.00384763
0.00384763
0.00388248
0.00384763
0.00384763
0.00388498
0.00384493
0.00388248
0.00384763
0.00384763
0.00384493
0.00383916
0.00380157
0.00383663
0.00383663
0.0038041
0.0038041
0.00383916
0.00380156
0.00383663
0.00383663
0.0038041
0.0038041
0.00383663
0.0038041
0.0038041
0.00383916
0.00380156
0.00383663
0.0038041
0.0038041
0.00380157
0.00379586
0.0037584
0.00379329
0.00379329
0.00376094
0.00376094
0.00379585
0.0037584
0.00379329
0.00379329
0.00376094
0.00376094
0.0037933
0.00376094
0.00376094
0.00379586
0.0037584
0.0037933
0.00376094
0.00376094
0.0037584
0.0037527
0.0037153
0.00375016
0.00375016
0.00371783
0.00371783
0.0037527
0.0037153
0.00375016
0.00375016
0.00371783
0.00371783
0.00375016
0.00371783
0.00371783
0.0037527
0.0037153
0.00375016
0.00371783
0.00371783
0.0037153
0.0037096
0.00367221
0.00370706
0.00370706
0.00367474
0.00367474
0.0037096
0.00367221
0.00370706
0.00370706
0.00367474
0.00367474
0.00370706
0.00367474
0.00367474
0.0037096
0.00367221
0.00370706
0.00367474
0.00367474
0.00367221
0.00366651
0.00362912
0.00366397
0.00366397
0.00363165
0.00363165
0.00366651
0.00362912
0.00366397
0.00366397
0.00363165
0.00363165
0.00366397
0.00363165
0.00363165
0.00366651
0.00362912
0.00366397
0.00363165
0.00363165
0.00362912
0.00362341
0.00358603
0.00362088
0.00362088
0.00358856
0.00358856
0.00362341
0.00358603
0.00362088
0.00362088
0.00358856
0.00358856
0.00362088
0.00358856
0.00358856
0.00362341
0.00358603
0.00362088
0.00358856
0.00358856
0.00358603
0.00358033
0.00354294
0.00357779
0.00357779
0.00354547
0.00354547
0.00358033
0.00354294
0.00357779
0.00357779
0.00354547
0.00354547
0.00357779
0.00354547
0.00354547
0.00358033
0.00354294
0.00357779
0.00354547
0.00354547
0.00354294
0.00353724
0.00349985
0.0035347
0.0035347
0.00350238
0.00350238
0.00353724
0.00349985
0.0035347
0.0035347
0.00350238
0.00350238
0.0035347
0.00350238
0.00350238
0.00353724
0.00349985
0.0035347
0.00350238
0.00350238
0.00349985
0.00349415
0.00345676
0.00349161
0.00349161
0.0034593
0.0034593
0.00349415
0.00345676
0.00349161
0.00349161
0.0034593
0.0034593
0.00349161
0.0034593
0.0034593
0.00349415
0.00345676
0.00349161
0.0034593
0.0034593
0.00345676
0.00345106
0.00341368
0.00344852
0.00344852
0.00341621
0.00341621
0.00345106
0.00341368
0.00344852
0.00344852
0.00341621
0.00341621
0.00344852
0.00341621
0.00341621
0.00345106
0.00341368
0.00344852
0.00341621
0.00341621
0.00341368
0.00340798
0.00337059
0.00340544
0.00340544
0.00337312
0.00337312
0.00340798
0.00337059
0.00340544
0.00340544
0.00337312
0.00337312
0.00340544
0.00337312
0.00337312
0.00340798
0.00337059
0.00340544
0.00337312
0.00337312
0.00337059
0.00336489
0.00332751
0.00336235
0.00336235
0.00333004
0.00333004
0.00336489
0.00332751
0.00336235
0.00336235
0.00333004
0.00333004
0.00336235
0.00333004
0.00333004
0.00336489
0.00332751
0.00336235
0.00333004
0.00333004
0.00332751
0.00332181
0.00328442
0.00331927
0.00331927
0.00328695
0.00328695
0.00332181
0.00328442
0.00331927
0.00331927
0.00328695
0.00328695
0.00331927
0.00328695
0.00328695
0.00332181
0.00328442
0.00331927
0.00328695
0.00328695
0.00328442
0.00327872
0.00324133
0.00327618
0.00327618
0.00324387
0.00324387
0.00327872
0.00324133
0.00327618
0.00327618
0.00324387
0.00324387
0.00327618
0.00324387
0.00324387
0.00327872
0.00324134
0.00327618
0.00324387
0.00324387
0.00324134
0.00323563
0.00319825
0.00323309
0.00323309
0.00320078
0.00320078
0.00323563
0.00319825
0.0032331
0.0032331
0.00320078
0.00320078
0.0032331
0.00320078
0.00320078
0.00323563
0.00319825
0.0032331
0.00320078
0.00320078
0.00319825
0.00319254
0.00315515
0.00319
0.00319001
0.00315768
0.00315768
0.00319254
0.00315515
0.00319
0.00319
0.00315768
0.00315768
0.00319001
0.00315768
0.00315768
0.00319254
0.00315515
0.00319001
0.00315768
0.00315768
0.00315515
0.00314945
0.00311205
0.00314691
0.00314691
0.00311459
0.00311459
0.00314945
0.00311205
0.00314691
0.00314691
0.00311459
0.00311459
0.00314691
0.00311459
0.00311459
0.00314945
0.00311205
0.00314691
0.00311459
0.00311459
0.00311205
0.00310635
0.00306895
0.00310381
0.00310381
0.00307149
0.00307149
0.00310635
0.00306895
0.00310381
0.00310381
0.00307149
0.00307149
0.00310381
0.00307149
0.00307149
0.00310635
0.00306895
0.00310381
0.00307149
0.00307149
0.00306895
0.00306325
0.00302586
0.00306071
0.00306071
0.00302839
0.00302839
0.00306325
0.00302586
0.00306071
0.00306071
0.00302839
0.00302839
0.00306071
0.00302839
0.00302839
0.00306325
0.00302586
0.00306071
0.00302839
0.00302839
0.00302586
0.00302015
0.00298276
0.00301761
0.00301761
0.00298529
0.00298529
0.00302015
0.00298276
0.00301761
0.00301761
0.00298529
0.00298529
0.00301761
0.00298529
0.00298529
0.00302015
0.00298276
0.00301761
0.00298529
0.00298529
0.00298276
0.00297705
0.00293966
0.00297452
0.00297452
0.00294219
0.00294219
0.00297705
0.00293966
0.00297452
0.00297452
0.00294219
0.00294219
0.00297452
0.00294219
0.00294219
0.00297705
0.00293966
0.00297452
0.00294219
0.00294219
0.00293966
0.00293396
0.00289657
0.00293142
0.00293142
0.0028991
0.0028991
0.00293396
0.00289657
0.00293142
0.00293142
0.0028991
0.0028991
0.00293142
0.0028991
0.0028991
0.00293396
0.00289657
0.00293142
0.0028991
0.0028991
0.00289657
0.00289086
0.00285347
0.00288833
0.00288833
0.00285601
0.00285601
0.00289086
0.00285347
0.00288833
0.00288833
0.00285601
0.00285601
0.00288833
0.00285601
0.00285601
0.00289086
0.00285347
0.00288833
0.00285601
0.00285601
0.00285347
0.00284777
0.00281038
0.00284523
0.00284523
0.00281292
0.00281292
0.00284777
0.00281038
0.00284523
0.00284523
0.00281292
0.00281292
0.00284523
0.00281292
0.00281292
0.00284777
0.00281038
0.00284523
0.00281292
0.00281292
0.00281038
0.00280468
0.00276729
0.00280214
0.00280214
0.00276983
0.00276983
0.00280468
0.0027673
0.00280214
0.00280214
0.00276983
0.00276983
0.00280214
0.00276983
0.00276983
0.00280468
0.00276729
0.00280214
0.00276983
0.00276983
0.00276729
0.00276159
0.00272421
0.00275905
0.00275905
0.00272674
0.00272674
0.00276159
0.00272421
0.00275905
0.00275905
0.00272674
0.00272674
0.00275905
0.00272674
0.00272674
0.00276159
0.00272421
0.00275905
0.00272674
0.00272674
0.00272421
0.0027185
0.00268112
0.00271597
0.00271597
0.00268365
0.00268365
0.0027185
0.00268112
0.00271597
0.00271597
0.00268365
0.00268365
0.00271597
0.00268365
0.00268365
0.0027185
0.00268112
0.00271597
0.00268365
0.00268365
0.00268112
0.00267541
0.00263803
0.00267288
0.00267288
0.00264056
0.00264056
0.00267541
0.00263803
0.00267288
0.00267288
0.00264056
0.00264056
0.00267288
0.00264056
0.00264056
0.00267542
0.00263803
0.00267288
0.00264056
0.00264056
0.00263803
0.00263232
0.00259494
0.00262979
0.00262979
0.00259747
0.00259747
0.00263232
0.00259494
0.00262979
0.00262979
0.00259747
0.00259747
0.00262979
0.00259747
0.00259747
0.00263232
0.00259494
0.00262979
0.00259747
0.00259747
0.00259494
0.00258923
0.00255184
0.0025867
0.00258669
0.00255438
0.00255438
0.00258923
0.00255184
0.00258669
0.0025867
0.00255438
0.00255438
0.0025867
0.00255438
0.00255438
0.00258923
0.00255184
0.0025867
0.00255438
0.00255438
0.00255184
0.00254614
0.00250875
0.0025436
0.0025436
0.00251128
0.00251128
0.00254614
0.00250875
0.0025436
0.0025436
0.00251128
0.00251128
0.0025436
0.00251128
0.00251128
0.00254614
0.00250875
0.0025436
0.00251128
0.00251128
0.00250875
0.00250305
0.00246566
0.00250051
0.00250051
0.00246819
0.00246819
0.00250305
0.00246566
0.00250051
0.00250051
0.00246819
0.00246819
0.00250051
0.00246819
0.00246819
0.00250305
0.00246566
0.00250051
0.00246819
0.00246819
0.00246566
0.00245996
0.00242257
0.00245742
0.00245742
0.0024251
0.0024251
0.00245996
0.00242257
0.00245742
0.00245742
0.0024251
0.0024251
0.00245742
0.0024251
0.0024251
0.00245996
0.00242257
0.00245742
0.0024251
0.0024251
0.00242257
0.00241686
0.00237948
0.00241433
0.00241433
0.00238201
0.00238201
0.00241686
0.00237948
0.00241433
0.00241433
0.00238201
0.00238201
0.00241433
0.00238201
0.00238201
0.00241686
0.00237948
0.00241433
0.00238201
0.00238201
0.00237948
0.00237377
0.00233638
0.00237124
0.00237123
0.00233892
0.00233892
0.00237377
0.00233638
0.00237123
0.00237123
0.00233892
0.00233892
0.00237123
0.00233892
0.00233892
0.00237377
0.00233638
0.00237124
0.00233892
0.00233892
0.00233638
0.00233068
0.00229329
0.00232814
0.00232814
0.00229583
0.00229583
0.00233068
0.00229329
0.00232814
0.00232814
0.00229583
0.00229583
0.00232814
0.00229583
0.00229583
0.00233068
0.00229329
0.00232814
0.00229583
0.00229583
0.00229329
0.00228759
0.0022502
0.00228505
0.00228505
0.00225274
0.00225274
0.00228759
0.0022502
0.00228505
0.00228505
0.00225274
0.00225274
0.00228505
0.00225274
0.00225274
0.00228759
0.0022502
0.00228505
0.00225274
0.00225274
0.0022502
0.0022445
0.00220711
0.00224196
0.00224196
0.00220965
0.00220965
0.0022445
0.00220711
0.00224196
0.00224196
0.00220965
0.00220965
0.00224196
0.00220965
0.00220965
0.0022445
0.00220711
0.00224196
0.00220965
0.00220965
0.00220711
0.00220141
0.00216402
0.00219887
0.00219887
0.00216656
0.00216656
0.00220141
0.00216402
0.00219887
0.00219887
0.00216656
0.00216656
0.00219887
0.00216656
0.00216656
0.00220141
0.00216402
0.00219887
0.00216656
0.00216656
0.00216402
0.00215832
0.00212093
0.00215578
0.00215578
0.00212347
0.00212347
0.00215832
0.00212093
0.00215578
0.00215578
0.00212347
0.00212347
0.00215578
0.00212347
0.00212347
0.00215832
0.00212093
0.00215578
0.00212347
0.00212347
0.00212093
0.00211523
0.00207784
0.00211269
0.00211269
0.00208038
0.00208037
0.00211523
0.00207784
0.00211269
0.00211269
0.00208037
0.00208038
0.00211269
0.00208038
0.00208038
0.00211523
0.00207784
0.00211269
0.00208038
0.00208038
0.00207784
0.00207214
0.00203475
0.0020696
0.0020696
0.00203728
0.00203728
0.00207214
0.00203475
0.0020696
0.0020696
0.00203728
0.00203728
0.0020696
0.00203728
0.00203728
0.00207214
0.00203475
0.0020696
0.00203728
0.00203728
0.00203475
0.00202905
0.00199166
0.00202651
0.00202651
0.00199419
0.00199419
0.00202905
0.00199166
0.00202651
0.00202651
0.00199419
0.00199419
0.00202651
0.00199419
0.00199419
0.00202905
0.00199166
0.00202651
0.00199419
0.00199419
0.00199166
0.00198596
0.00194857
0.00198342
0.00198342
0.0019511
0.0019511
0.00198596
0.00194857
0.00198342
0.00198342
0.0019511
0.0019511
0.00198342
0.0019511
0.0019511
0.00198596
0.00194857
0.00198342
0.0019511
0.0019511
0.00194857
0.00194287
0.00190547
0.00194033
0.00194033
0.00190801
0.00190801
0.00194287
0.00190548
0.00194033
0.00194033
0.00190801
0.00190801
0.00194033
0.00190801
0.00190801
0.00194287
0.00190547
0.00194033
0.00190801
0.00190801
0.00190547
0.00189977
0.00186238
0.00189723
0.00189723
0.00186491
0.00186491
0.00189977
0.00186238
0.00189723
0.00189723
0.00186491
0.00186491
0.00189723
0.00186491
0.00186491
0.00189977
0.00186238
0.00189723
0.00186491
0.00186491
0.00186238
0.00185668
0.00181929
0.00185414
0.00185414
0.00182182
0.00182182
0.00185668
0.00181929
0.00185414
0.00185414
0.00182182
0.00182182
0.00185414
0.00182182
0.00182182
0.00185668
0.00181929
0.00185414
0.00182182
0.00182182
0.00181929
0.00181359
0.0017762
0.00181105
0.00181105
0.00177873
0.00177873
0.00181359
0.0017762
0.00181105
0.00181105
0.00177873
0.00177873
0.00181105
0.00177873
0.00177873
0.00181359
0.0017762
0.00181105
0.00177873
0.00177873
0.0017762
0.0017705
0.00173311
0.00176796
0.00176796
0.00173564
0.00173564
0.0017705
0.00173311
0.00176796
0.00176796
0.00173564
0.00173564
0.00176796
0.00173564
0.00173564
0.0017705
0.00173311
0.00176796
0.00173564
0.00173564
0.00173311
0.0017274
0.00169002
0.00172487
0.00172487
0.00169255
0.00169255
0.0017274
0.00169002
0.00172487
0.00172487
0.00169255
0.00169255
0.00172487
0.00169255
0.00169255
0.0017274
0.00169002
0.00172487
0.00169255
0.00169255
0.00169002
0.00168431
0.00164692
0.00168178
0.00168178
0.00164946
0.00164946
0.00168431
0.00164692
0.00168178
0.00168178
0.00164946
0.00164946
0.00168178
0.00164946
0.00164946
0.00168431
0.00164692
0.00168178
0.00164946
0.00164946
0.00164692
0.00164122
0.00160383
0.00163868
0.00163868
0.00160637
0.00160637
0.00164122
0.00160383
0.00163868
0.00163868
0.00160637
0.00160637
0.00163868
0.00160637
0.00160637
0.00164122
0.00160383
0.00163868
0.00160637
0.00160637
0.00160383
0.00159813
0.00156074
0.00159559
0.00159559
0.00156327
0.00156327
0.00159813
0.00156074
0.00159559
0.00159559
0.00156327
0.00156327
0.00159559
0.00156327
0.00156327
0.00159813
0.00156074
0.00159559
0.00156327
0.00156327
0.00156074
0.00155504
0.00151765
0.0015525
0.0015525
0.00152018
0.00152018
0.00155504
0.00151765
0.0015525
0.0015525
0.00152018
0.00152018
0.0015525
0.00152018
0.00152018
0.00155504
0.00151765
0.0015525
0.00152018
0.00152018
0.00151765
0.00151195
0.00147456
0.00150941
0.00150941
0.00147709
0.00147709
0.00151195
0.00147456
0.00150941
0.00150941
0.00147709
0.00147709
0.00150941
0.00147709
0.00147709
0.00151195
0.00147456
0.00150941
0.00147709
0.00147709
0.00147456
0.00146886
0.00143147
0.00146632
0.00146632
0.001434
0.001434
0.00146886
0.00143147
0.00146632
0.00146632
0.001434
0.001434
0.00146632
0.001434
0.001434
0.00146886
0.00143147
0.00146632
0.001434
0.001434
0.00143147
0.00142577
0.00138838
0.00142323
0.00142323
0.00139091
0.00139091
0.00142577
0.00138838
0.00142323
0.00142323
0.00139091
0.00139091
0.00142323
0.00139091
0.00139091
0.00142577
0.00138838
0.00142323
0.00139091
0.00139091
0.00138838
0.00138267
0.00134528
0.00138014
0.00138014
0.00134782
0.00134782
0.00138267
0.00134528
0.00138014
0.00138014
0.00134782
0.00134782
0.00138014
0.00134782
0.00134782
0.00138267
0.00134528
0.00138014
0.00134782
0.00134782
0.00134528
0.00133958
0.00130219
0.00133704
0.00133704
0.00130472
0.00130472
0.00133958
0.00130219
0.00133704
0.00133704
0.00130472
0.00130472
0.00133704
0.00130472
0.00130472
0.00133958
0.00130219
0.00133704
0.00130472
0.00130472
0.00130219
0.00129649
0.0012591
0.00129395
0.00129395
0.00126163
0.00126163
0.00129649
0.0012591
0.00129395
0.00129395
0.00126163
0.00126163
0.00129395
0.00126163
0.00126163
0.00129649
0.0012591
0.00129395
0.00126163
0.00126163
0.0012591
0.0012534
0.00121601
0.00125086
0.00125086
0.00121854
0.00121854
0.0012534
0.00121601
0.00125086
0.00125086
0.00121854
0.00121854
0.00125086
0.00121854
0.00121854
0.0012534
0.00121601
0.00125086
0.00121854
0.00121854
0.00121601
0.0012103
0.00117292
0.00120777
0.00120777
0.00117545
0.00117545
0.0012103
0.00117292
0.00120777
0.00120777
0.00117545
0.00117545
0.00120777
0.00117545
0.00117545
0.0012103
0.00117292
0.00120777
0.00117545
0.00117545
0.00117292
0.00116721
0.00112982
0.00116468
0.00116468
0.00113236
0.00113236
0.00116721
0.00112983
0.00116468
0.00116468
0.00113236
0.00113236
0.00116468
0.00113236
0.00113236
0.00116721
0.00112982
0.00116468
0.00113236
0.00113236
0.00112982
0.00112412
0.00108673
0.00112158
0.00112158
0.00108927
0.00108927
0.00112412
0.00108673
0.00112158
0.00112158
0.00108927
0.00108927
0.00112158
0.00108927
0.00108927
0.00112412
0.00108673
0.00112158
0.00108927
0.00108927
0.00108673
0.00108103
0.00104364
0.00107849
0.00107849
0.00104618
0.00104618
0.00108103
0.00104364
0.00107849
0.00107849
0.00104618
0.00104618
0.00107849
0.00104618
0.00104618
0.00108103
0.00104364
0.00107849
0.00104618
0.00104618
0.00104364
0.00103794
0.00100055
0.0010354
0.0010354
0.00100309
0.00100309
0.00103794
0.00100055
0.0010354
0.0010354
0.00100309
0.00100309
0.0010354
0.00100309
0.00100309
0.00103794
0.00100055
0.0010354
0.00100309
0.00100309
0.00100055
0.000994852
0.000957463
0.000992313
0.000992313
0.000959995
0.000959995
0.000994852
0.000957463
0.000992313
0.000992314
0.000959995
0.000959995
0.000992314
0.000959995
0.000959996
0.000994852
0.000957463
0.000992314
0.000959995
0.000959995
0.000957463
0.000951761
0.000914372
0.000949223
0.000949223
0.000916904
0.000916904
0.000951761
0.000914372
0.000949223
0.000949223
0.000916904
0.000916904
0.000949223
0.000916904
0.000916905
0.000951761
0.000914372
0.000949223
0.000916904
0.000916904
0.000914372
0.00090867
0.00087128
0.000906132
0.000906131
0.000873813
0.000873813
0.00090867
0.000871281
0.000906131
0.000906132
0.000873813
0.000873813
0.000906132
0.000873813
0.000873813
0.00090867
0.00087128
0.000906132
0.000873813
0.000873813
0.00087128
0.000865578
0.000828188
0.00086304
0.00086304
0.000830721
0.000830721
0.000865578
0.000828189
0.00086304
0.00086304
0.000830721
0.000830721
0.00086304
0.000830721
0.000830721
0.000865578
0.000828188
0.00086304
0.000830721
0.000830721
0.000828188
0.000822486
0.000785096
0.000819948
0.000819948
0.000787629
0.000787629
0.000822486
0.000785097
0.000819948
0.000819948
0.000787629
0.000787629
0.000819948
0.000787629
0.000787629
0.000822486
0.000785096
0.000819948
0.000787629
0.000787629
0.000785096
0.000779394
0.000742004
0.000776856
0.000776856
0.000744537
0.000744537
0.000779394
0.000742004
0.000776856
0.000776856
0.000744537
0.000744537
0.000776856
0.000744537
0.000744537
0.000779394
0.000742004
0.000776856
0.000744537
0.000744537
0.000742004
0.000736302
0.000698912
0.000733764
0.000733764
0.000701445
0.000701444
0.000736302
0.000698912
0.000733763
0.000733764
0.000701444
0.000701444
0.000733764
0.000701444
0.000701445
0.000736302
0.000698912
0.000733764
0.000701444
0.000701444
0.000698912
0.00069321
0.00065582
0.000690671
0.000690671
0.000658352
0.000658352
0.00069321
0.00065582
0.000690671
0.000690671
0.000658352
0.000658352
0.000690672
0.000658352
0.000658352
0.00069321
0.00065582
0.000690671
0.000658352
0.000658352
0.00065582
0.000650118
0.000612728
0.000647579
0.000647579
0.00061526
0.00061526
0.000650118
0.000612728
0.000647579
0.000647579
0.00061526
0.00061526
0.000647579
0.00061526
0.00061526
0.000650118
0.000612728
0.000647579
0.00061526
0.00061526
0.000612728
0.000607025
0.000569635
0.000604487
0.000604487
0.000572168
0.000572168
0.000607025
0.000569635
0.000604487
0.000604487
0.000572168
0.000572168
0.000604487
0.000572168
0.000572168
0.000607025
0.000569635
0.000604487
0.000572168
0.000572168
0.000569635
0.000563933
0.000526543
0.000561395
0.000561395
0.000529075
0.000529075
0.000563933
0.000526543
0.000561395
0.000561395
0.000529075
0.000529075
0.000561395
0.000529075
0.000529075
0.000563933
0.000526543
0.000561395
0.000529075
0.000529075
0.000526543
0.000520841
0.00048345
0.000518302
0.000518302
0.000485983
0.000485983
0.00052084
0.000483451
0.000518302
0.000518302
0.000485983
0.000485983
0.000518302
0.000485983
0.000485983
0.000520841
0.00048345
0.000518302
0.000485983
0.000485983
0.00048345
0.000477748
0.000440359
0.00047521
0.00047521
0.000442891
0.000442891
0.000477748
0.000440359
0.00047521
0.00047521
0.000442891
0.000442891
0.00047521
0.000442891
0.000442891
0.000477748
0.000440359
0.00047521
0.000442891
0.000442891
0.000440359
0.000434657
0.000397267
0.000432118
0.000432118
0.000399799
0.000399799
0.000434656
0.000397267
0.000432118
0.000432118
0.000399799
0.000399799
0.000432118
0.000399799
0.000399799
0.000434657
0.000397267
0.000432118
0.000399799
0.000399799
0.000397267
0.000391565
0.000354175
0.000389026
0.000389026
0.000356707
0.000356707
0.000391565
0.000354175
0.000389026
0.000389026
0.000356707
0.000356707
0.000389026
0.000356707
0.000356707
0.000391565
0.000354175
0.000389026
0.000356707
0.000356707
0.000354175
0.000348473
0.000311083
0.000345934
0.000345934
0.000313615
0.000313615
0.000348473
0.000311083
0.000345934
0.000345934
0.000313615
0.000313615
0.000345934
0.000313615
0.000313616
0.000348473
0.000311083
0.000345934
0.000313615
0.000313615
0.000311083
0.000305381
0.000267991
0.000302843
0.000302843
0.000270524
0.000270524
0.000305381
0.000267992
0.000302843
0.000302843
0.000270524
0.000270524
0.000302843
0.000270524
0.000270524
0.000305381
0.000267991
0.000302843
0.000270524
0.000270524
0.000267991
0.000262289
0.000224896
0.000259752
0.000259752
0.000227429
0.000227429
0.000262289
0.000224896
0.000259752
0.000259752
0.000227429
0.000227429
0.000259752
0.000227429
0.000227429
0.000262289
0.000224896
0.000259752
0.000227429
0.000227429
0.000224896
0.000219187
0.000181804
0.000216652
0.000216652
0.000184326
0.000184326
0.000219187
0.000181804
0.000216652
0.000216652
0.000184326
0.000184326
0.000216653
0.000184326
0.000184326
0.000219187
0.000181804
0.000216652
0.000184326
0.000184326
0.000181804
0.000176096
0.000138713
0.000173567
0.000173567
0.00014124
0.000141241
0.000176096
0.000138714
0.000173566
0.000173567
0.00014124
0.000141241
0.000173567
0.000141241
0.00014124
0.000176096
0.000138713
0.000173567
0.00014124
0.000141241
0.000138713
0.000132958
9.56101e-05
0.000130444
0.000130444
9.81402e-05
9.81411e-05
0.000132958
9.56108e-05
0.000130444
0.000130444
9.81403e-05
9.81395e-05
0.000130444
9.81408e-05
9.814e-05
0.000132958
9.56091e-05
0.000130444
9.81394e-05
9.81395e-05
9.56094e-05
8.98402e-05
5.25453e-05
8.73566e-05
8.7357e-05
5.50791e-05
5.50798e-05
8.984e-05
5.25466e-05
8.7356e-05
8.73553e-05
5.5077e-05
5.50764e-05
8.73559e-05
5.50784e-05
5.5076e-05
8.98395e-05
5.25429e-05
8.73557e-05
5.50759e-05
5.5075e-05
5.25425e-05
4.67634e-05
1.33737e-05
4.44083e-05
4.44085e-05
1.56123e-05
1.56115e-05
4.67641e-05
1.33735e-05
4.44062e-05
4.44049e-05
1.56102e-05
1.56066e-05
4.4404e-05
1.56089e-05
1.56047e-05
4.67603e-05
1.33694e-05
4.44029e-05
1.5607e-05
1.56064e-05
1.3368e-05
9.61272e-06
1.0056e-05
1.00562e-05
9.61368e-06
1.00544e-05
1.0052e-05
9.79419e-06
9.79219e-06
9.79179e-06
1.0051e-05
9.60987e-06
1.00516e-05
0.00411365
0.00412341
0.00411821
0.00411821
0.00414059
0.00412737
0.00415597
0.00412142
0.00414059
0.00412738
0.00412142
0.00415597
0.00413194
0.00415971
0.00415971
0.00406901
0.00408815
0.00409734
0.00406106
0.00406185
0.00406459
0.00406899
0.00408812
0.00409734
0.00406104
0.00409186
0.00409186
0.00409186
0.00404844
0.00404844
0.00404843
0.00404843
0.00406651
0.00409234
0.00409226
0.00407533
0.00409536
0.00406542
0.00407622
0.00406196
0.00406459
0.00406652
0.00409227
0.00409235
0.00407533
0.00409535
0.00407622
0.00406541
0.00409821
0.00409819
0.00406973
0.00406504
0.00406503
0.0040223
0.00404168
0.00404303
0.00402076
0.00404057
0.00402034
0.0040223
0.00404168
0.00404303
0.00402075
0.00403651
0.00403651
0.00403651
0.00399891
0.00399892
0.00399891
0.00399891
0.00402091
0.00404173
0.00403651
0.00402465
0.00404052
0.00402142
0.00402437
0.00404057
0.00402033
0.00402091
0.00403651
0.00404173
0.00402464
0.00404052
0.00402437
0.00402142
0.00404278
0.00404277
0.00402118
0.00402171
0.00402171
0.00396992
0.00398912
0.00399015
0.00396886
0.00398878
0.00396857
0.00396992
0.00398912
0.00399015
0.00396886
0.00398573
0.00398573
0.00398573
0.00394634
0.00394634
0.00394634
0.00394634
0.00396912
0.00398945
0.00398562
0.00397255
0.00398883
0.00396941
0.00397248
0.00398878
0.00396857
0.00396912
0.00398562
0.00398945
0.00397255
0.00398883
0.00397248
0.00396941
0.00398977
0.00398977
0.00396916
0.00396941
0.00396941
0.00391751
0.00393619
0.0039371
0.00391682
0.00393594
0.00391668
0.00391751
0.00393619
0.0039371
0.00391682
0.00393342
0.00393342
0.00393342
0.00389502
0.00389502
0.00389502
0.00389502
0.00391704
0.00393662
0.00393338
0.00392043
0.00393637
0.00391723
0.00392045
0.00393594
0.00391668
0.00391704
0.00393338
0.00393662
0.00392043
0.00393637
0.00392045
0.00391723
0.00393659
0.00393659
0.00391707
0.00391725
0.00391725
0.0038666
0.00388433
0.00388524
0.00386627
0.00388403
0.00386594
0.0038666
0.00388433
0.00388524
0.00386627
0.00388265
0.00388265
0.00388266
0.00384779
0.00384779
0.00384779
0.00384779
0.0038669
0.00388486
0.00388254
0.00387047
0.00388494
0.00386681
0.00387055
0.00388402
0.00386595
0.0038669
0.00388254
0.00388486
0.00387047
0.00388494
0.00387055
0.00386681
0.0038845
0.0038845
0.00386737
0.0038663
0.0038663
0.0038228
0.00383875
0.00383873
0.00382274
0.00383873
0.00382277
0.0038228
0.00383875
0.00383873
0.00382274
0.00383674
0.00383674
0.00383674
0.00380415
0.00380415
0.00380415
0.00380415
0.00382298
0.00383899
0.00383667
0.00382575
0.00383898
0.00382292
0.00382577
0.00383872
0.00382279
0.00382298
0.00383667
0.00383899
0.00382575