/*--------------------------------*- C++ -*----------------------------------*\
| =========                 |                                                 |
| \\      /  F ield         | OpenFOAM: The Open Source CFD Toolbox           |
|  \\    /   O peration     | Version:  2206                                  |
|   \\  /    A nd           | Website:  www.openfoam.com                      |
|    \\/     M anipulation  |                                                 |
\*---------------------------------------------------------------------------*/
FoamFile
{
    version     2.0;
    format      ascii;
    arch        "LSB;label=32;scalar=64";
    class       volScalarField;
    location    "24";
    object      Ux;
}
// * * * * * * * * * * * * * * * * * * * * * * * * * * * * * * * * * * * * * //

dimensions      [0 1 -1 0 0 0 0];

internalField   nonuniform List<scalar> 
171728
(
0.000108143
-0.000190139
0.000119253
-0.000239279
9.49751e-05
-0.000160354
9.78108e-05
-0.000200377
9.53247e-05
-0.000155972
9.29827e-05
-0.000199694
9.08086e-05
-0.00014619
8.58534e-05
-0.000192333
7.80394e-05
-0.000123531
6.96596e-05
-0.000170539
3.58592e-05
-4.83328e-05
3.03529e-05
-8.64178e-05
7.20161e-06
-9.94857e-06
7.52415e-06
-5.07626e-05
7.99764e-08
-1.21309e-06
1.23647e-06
-4.32651e-05
-6.2927e-07
-4.66473e-07
7.00752e-07
-4.27728e-05
-6.6522e-07
-4.44818e-07
6.8001e-07
-4.27576e-05
-6.63478e-07
-4.45628e-07
6.80994e-07
-4.2758e-05
-6.67679e-07
-4.48784e-07
6.80266e-07
-4.27588e-05
-6.66318e-07
-4.56128e-07
6.80235e-07
-4.27596e-05
-6.66216e-07
-4.53515e-07
6.79924e-07
-4.27596e-05
-6.69834e-07
-4.47174e-07
6.79206e-07
-4.2759e-05
-6.71007e-07
-4.4622e-07
6.78641e-07
-4.27585e-05
-6.69623e-07
-4.46836e-07
6.78873e-07
-4.27577e-05
-6.68683e-07
-4.47607e-07
6.7954e-07
-4.27593e-05
-6.6577e-07
-4.48399e-07
6.80189e-07
-4.27592e-05
-6.59357e-07
-4.46202e-07
6.81614e-07
-4.27604e-05
-6.5569e-07
-4.52023e-07
6.8168e-07
-4.27589e-05
-6.6515e-07
-4.49087e-07
6.80641e-07
-4.27589e-05
-6.66719e-07
-4.46592e-07
6.79774e-07
-4.2758e-05
-6.68296e-07
-4.45841e-07
6.79329e-07
-4.27576e-05
-6.6898e-07
-4.4575e-07
6.78974e-07
-4.27582e-05
-6.6867e-07
-4.46437e-07
6.7971e-07
-4.27592e-05
-6.68221e-07
-4.4675e-07
6.8009e-07
-4.27594e-05
-6.67399e-07
-4.47329e-07
6.80717e-07
-4.27604e-05
-6.67818e-07
-4.47127e-07
6.8002e-07
-4.27599e-05
-6.68136e-07
-4.46517e-07
6.8023e-07
-4.27593e-05
-6.68287e-07
-4.46078e-07
6.79729e-07
-4.27595e-05
-6.6926e-07
-4.45347e-07
6.79194e-07
-4.27585e-05
-6.68442e-07
-4.4559e-07
6.7968e-07
-4.27586e-05
-6.68489e-07
-4.46024e-07
6.79582e-07
-4.27591e-05
-6.67864e-07
-4.4656e-07
6.80388e-07
-4.27597e-05
-6.67703e-07
-4.47083e-07
6.80521e-07
-4.27601e-05
-6.67564e-07
-4.46911e-07
6.80718e-07
-4.27602e-05
-6.68238e-07
-4.46249e-07
6.79999e-07
-4.27596e-05
-6.68693e-07
-4.45689e-07
6.79634e-07
-4.27592e-05
-6.68669e-07
-4.44887e-07
6.78518e-07
-4.27557e-05
-6.63822e-07
-4.42669e-07
6.78607e-07
-4.2756e-05
-6.71215e-07
-4.46492e-07
6.79344e-07
-4.27605e-05
-6.68191e-07
-4.46283e-07
6.79525e-07
-4.27599e-05
-6.66274e-07
-4.47166e-07
6.80427e-07
-4.27605e-05
-6.66477e-07
-4.47322e-07
6.79217e-07
-4.27598e-05
-6.66764e-07
-4.47292e-07
6.79462e-07
-4.27599e-05
-6.67006e-07
-4.46407e-07
6.78596e-07
-4.2759e-05
-6.67317e-07
-4.46006e-07
6.7896e-07
-4.27588e-05
-6.67507e-07
-4.4657e-07
6.79009e-07
-4.27594e-05
-6.67147e-07
-4.46767e-07
6.79359e-07
-4.27595e-05
-6.66185e-07
-4.48006e-07
6.7984e-07
-4.27605e-05
-6.66461e-07
-4.4746e-07
6.7992e-07
-4.27604e-05
-6.65994e-07
-4.481e-07
6.80065e-07
-4.27601e-05
-6.65625e-07
-4.47006e-07
6.79532e-07
-4.27591e-05
-6.64739e-07
-4.45924e-07
6.79596e-07
-4.27581e-05
-6.67036e-07
-4.4678e-07
6.7891e-07
-4.27597e-05
-6.66517e-07
-4.48171e-07
6.79403e-07
-4.27617e-05
-6.65262e-07
-4.49458e-07
6.80515e-07
-4.27626e-05
-6.64832e-07
-4.49382e-07
6.80698e-07
-4.27626e-05
-6.64474e-07
-4.50599e-07
6.81337e-07
-4.27632e-05
-6.64788e-07
-4.49608e-07
6.81318e-07
-4.27627e-05
-6.64723e-07
-4.49075e-07
6.80643e-07
-4.27621e-05
-6.65656e-07
-4.48459e-07
6.80129e-07
-4.27619e-05
-6.66404e-07
-4.48086e-07
6.79976e-07
-4.27608e-05
-6.65324e-07
-4.48851e-07
6.80531e-07
-4.27621e-05
-6.6536e-07
-4.48579e-07
6.80106e-07
-4.27617e-05
-6.64657e-07
-4.4992e-07
6.8151e-07
-4.27629e-05
-6.64463e-07
-4.49904e-07
6.81258e-07
-4.27633e-05
-6.64351e-07
-4.49567e-07
6.82344e-07
-4.2764e-05
-6.64425e-07
-4.48932e-07
6.87877e-07
-4.27671e-05
-6.6518e-07
-4.48168e-07
6.83802e-07
-4.27651e-05
-6.65767e-07
-4.48384e-07
6.80406e-07
-4.27617e-05
-6.65701e-07
-4.47994e-07
6.80263e-07
-4.27615e-05
-6.6491e-07
-4.4949e-07
6.80881e-07
-4.27629e-05
-6.64958e-07
-4.49554e-07
6.80892e-07
-4.27633e-05
-6.64232e-07
-4.50029e-07
6.82082e-07
-4.27634e-05
-6.64673e-07
-4.49919e-07
6.8135e-07
-4.27636e-05
-6.65431e-07
-4.48705e-07
6.80609e-07
-4.27628e-05
-6.65624e-07
-4.48556e-07
6.8068e-07
-4.27625e-05
-6.66058e-07
-4.48153e-07
6.80262e-07
-4.2762e-05
-6.65693e-07
-4.48689e-07
6.80451e-07
-4.27625e-05
-6.65177e-07
-4.49014e-07
6.80838e-07
-4.27631e-05
-6.64435e-07
-4.49888e-07
6.81182e-07
-4.27635e-05
-6.64606e-07
-4.49855e-07
6.81149e-07
-4.27634e-05
-6.64579e-07
-4.49847e-07
6.81086e-07
-4.27635e-05
-6.65274e-07
-4.48801e-07
6.80729e-07
-4.27626e-05
-6.65989e-07
-4.47766e-07
6.80168e-07
-4.27622e-05
-6.7065e-07
-4.43134e-07
6.76124e-07
-4.27605e-05
-6.81741e-07
-4.40617e-07
6.68219e-07
-4.27287e-05
-6.88115e-07
-5.19396e-07
6.87524e-07
-4.24905e-05
-6.95304e-07
-8.36424e-07
9.63207e-07
-4.21346e-05
-2.4159e-07
-1.82274e-06
1.58019e-06
-4.08319e-05
-2.45116e-07
-3.29934e-06
2.80242e-06
-3.88008e-05
-5.65248e-06
-2.35753e-06
3.20077e-06
-2.6436e-05
-4.20697e-05
4.15725e-05
-3.45554e-05
4.79938e-05
0.000135211
0.000124272
-0.000124264
-0.000135207
0.000152917
0.000152888
9.07037e-05
-9.0694e-05
9.06775e-05
-9.06751e-05
-0.000152912
-0.000152897
0.0001352
0.000124224
-0.000124221
-0.000135209
0.000239323
0.000112013
0.000119304
-0.000119255
8.87813e-05
-8.87426e-05
-0.000239334
-0.000111972
0.000190175
0.000190114
0.000147085
0.000147117
-0.000190096
-0.000147055
-0.000147075
0.000239253
0.000111963
-0.000119233
8.87518e-05
-8.87308e-05
-0.00011196
0.000200465
0.000106384
9.78166e-05
-9.77917e-05
9.19773e-05
-9.19762e-05
-0.000200428
-0.000106374
0.000160388
0.000160403
0.000153376
0.000153418
-0.000160381
-0.000153373
-0.000153397
0.000200375
0.00010635
-9.77931e-05
9.19797e-05
-9.19842e-05
-0.000106363
0.000199759
9.9071e-05
9.2978e-05
-9.2983e-05
8.85244e-05
-8.85119e-05
-0.000199751
-9.90552e-05
0.00015598
0.000156022
0.000149555
0.000149587
-0.000156005
-0.000149553
-0.000149587
0.000199678
9.90272e-05
-9.29921e-05
8.85333e-05
-8.85203e-05
-9.90843e-05
0.000192364
8.70146e-05
8.58533e-05
-8.58435e-05
8.18289e-05
-8.18092e-05
-0.000192352
-8.70049e-05
0.0001462
0.000146226
0.000141359
0.000141393
-0.000146231
-0.000141362
-0.000141404
0.000192271
8.69615e-05
-8.58386e-05
8.1863e-05
-8.18413e-05
-8.70327e-05
0.000170533
5.72807e-06
6.96415e-05
-6.96281e-05
3.76384e-05
-3.7657e-05
-0.000170529
-5.71003e-06
0.000123524
0.00012356
6.33337e-05
6.33517e-05
-0.000123579
-6.33254e-05
-6.33384e-05
0.000170454
5.73628e-06
-6.96357e-05
3.76134e-05
-3.76013e-05
-5.71219e-06
8.64349e-05
-3.41726e-05
3.03842e-05
-3.04014e-05
1.16937e-05
-1.16955e-05
-8.64501e-05
3.41766e-05
4.83386e-05
4.83449e-05
1.6007e-05
1.602e-05
-4.83324e-05
-1.60028e-05
-1.60131e-05
8.64223e-05
-3.41569e-05
-3.03496e-05
1.16666e-05
-1.16673e-05
3.41604e-05
5.07771e-05
-4.38932e-05
7.55445e-06
-7.5506e-06
1.84227e-06
-1.83633e-06
-5.0771e-05
4.38979e-05
9.95892e-06
9.96984e-06
2.00835e-06
2.02296e-06
-9.96892e-06
-2.00388e-06
-2.02695e-06
5.07483e-05
-4.38691e-05
-7.52576e-06
1.81101e-06
-1.8119e-06
4.38713e-05
4.32706e-05
-4.46297e-05
1.26241e-06
-1.26012e-06
7.55868e-07
-7.55518e-07
-4.32678e-05
4.46333e-05
1.21955e-06
1.23271e-06
5.0229e-07
5.21437e-07
-1.23527e-06
-5.00065e-07
-5.2124e-07
4.32525e-05
-4.46035e-05
-1.23681e-06
7.30251e-07
-7.29047e-07
4.46086e-05
4.27796e-05
-4.4655e-05
7.25421e-07
-7.25367e-07
7.06214e-07
-7.04358e-07
-4.27775e-05
4.46607e-05
4.71772e-07
4.87738e-07
4.47705e-07
4.67279e-07
-4.86758e-07
-4.448e-07
-4.6626e-07
4.27627e-05
-4.4628e-05
-6.99294e-07
6.7958e-07
-6.78283e-07
4.46335e-05
4.27649e-05
-4.46518e-05
7.06329e-07
-7.03154e-07
7.13855e-07
-7.03986e-07
-4.27617e-05
4.46645e-05
4.51392e-07
4.67502e-07
4.48402e-07
4.68396e-07
-4.66166e-07
-4.44521e-07
-4.66462e-07
4.27478e-05
-4.46265e-05
-6.78357e-07
6.80007e-07
-6.77353e-07
4.46333e-05
4.27679e-05
-4.46526e-05
7.1412e-07
-7.03568e-07
7.04312e-07
-7.06031e-07
-4.27619e-05
4.46627e-05
4.51937e-07
4.69002e-07
4.47974e-07
4.68458e-07
-4.66788e-07
-4.46201e-07
-4.67282e-07
4.27495e-05
-4.46267e-05
-6.78154e-07
6.79572e-07
-6.77761e-07
4.46325e-05
4.27655e-05
-4.46542e-05
7.04495e-07
-7.06072e-07
7.02032e-07
-7.05044e-07
-4.27635e-05
4.46595e-05
4.51964e-07
4.68643e-07
4.46493e-07
4.67711e-07
-4.67625e-07
-4.53373e-07
-4.68884e-07
4.27487e-05
-4.46272e-05
-6.78547e-07
6.79282e-07
-6.77778e-07
4.46313e-05
4.27644e-05
-4.46551e-05
7.03034e-07
-7.04813e-07
7.01805e-07
-7.02625e-07
-4.27668e-05
4.46568e-05
4.50244e-07
4.6786e-07
4.4647e-07
4.6682e-07
-4.69282e-07
-4.53433e-07
-4.69492e-07
4.27483e-05
-4.46279e-05
-6.78377e-07
6.79124e-07
-6.77792e-07
4.46313e-05
4.27639e-05
-4.46523e-05
7.03487e-07
-7.03547e-07
7.00414e-07
-7.06018e-07
-4.27689e-05
4.46595e-05
4.49904e-07
4.67061e-07
4.46287e-07
4.66581e-07
-4.69198e-07
-4.46505e-07
-4.67917e-07
4.27477e-05
-4.46282e-05
-6.78523e-07
6.78607e-07
-6.78108e-07
4.46324e-05
4.27645e-05
-4.46548e-05
6.98882e-07
-7.0826e-07
6.96323e-07
-7.14946e-07
-4.27683e-05
4.46569e-05
4.49656e-07
4.66855e-07
4.45602e-07
4.6637e-07
-4.67684e-07
-4.46317e-07
-4.67263e-07
4.27475e-05
-4.46285e-05
-6.78928e-07
6.77881e-07
-6.78079e-07
4.46328e-05
4.27624e-05
-4.46522e-05
6.95828e-07
-7.11734e-07
6.98769e-07
-7.05512e-07
-4.27673e-05
4.4658e-05
4.4918e-07
4.66509e-07
4.46624e-07
4.66157e-07
-4.67155e-07
-4.45427e-07
-4.66084e-07
4.27474e-05
-4.46288e-05
-6.78685e-07
6.77766e-07
-6.77389e-07
4.46337e-05
4.27643e-05
-4.46522e-05
6.98432e-07
-7.05837e-07
6.99554e-07
-7.04342e-07
-4.27647e-05
4.46599e-05
4.50412e-07
4.66789e-07
4.47804e-07
4.67149e-07
-4.66453e-07
-4.46273e-07
-4.67184e-07
4.27473e-05
-4.46279e-05
-6.78199e-07
6.78579e-07
-6.78236e-07
4.46327e-05
4.27651e-05
-4.46545e-05
6.97378e-07
-7.05625e-07
7.00998e-07
-7.09608e-07
-4.27634e-05
4.46586e-05
4.51225e-07
4.67629e-07
4.47295e-07
4.67836e-07
-4.67384e-07
-4.46967e-07
-4.67504e-07
4.27485e-05
-4.46275e-05
-6.78904e-07
6.78978e-07
-6.77579e-07
4.46329e-05
4.27661e-05
-4.4655e-05
7.03711e-07
-7.118e-07
7.04125e-07
-7.01146e-07
-4.27683e-05
4.46628e-05
4.50962e-07
4.68352e-07
4.4884e-07
4.6831e-07
-4.68984e-07
-4.46935e-07
-4.73444e-07
4.27492e-05
-4.46267e-05
-6.78055e-07
6.80329e-07
-6.7661e-07
4.46307e-05
4.27692e-05
-4.46588e-05
7.04915e-07
-6.91162e-07
7.07873e-07
-7.04973e-07
-4.2752e-05
4.46513e-05
4.53519e-07
4.68711e-07
4.55003e-07
4.68769e-07
-4.73805e-07
-4.51227e-07
-4.67216e-07
4.27496e-05
-4.46263e-05
-6.77226e-07
6.80979e-07
-6.76982e-07
4.46323e-05
4.27666e-05
-4.46575e-05
7.09244e-07
-7.04072e-07
7.01229e-07
-7.02908e-07
-4.27683e-05
4.46625e-05
4.57386e-07
4.69254e-07
4.49814e-07
4.68077e-07
-4.67126e-07
-4.47523e-07
-4.67373e-07
4.27493e-05
-4.46266e-05
-6.78099e-07
6.80073e-07
-6.77676e-07
4.46321e-05
4.27692e-05
-4.46573e-05
7.01488e-07
-7.05449e-07
7.02171e-07
-7.05905e-07
-4.27595e-05
4.46586e-05
4.51335e-07
4.67963e-07
4.47772e-07
4.67146e-07
-4.67126e-07
-4.45868e-07
-4.66491e-07
4.27489e-05
-4.46275e-05
-6.78497e-07
6.79049e-07
-6.77764e-07
4.46331e-05
4.27699e-05
-4.46584e-05
7.02078e-07
-7.06564e-07
7.01647e-07
-7.06288e-07
-4.27622e-05
4.46584e-05
4.5101e-07
4.6747e-07
4.46103e-07
4.66424e-07
-4.6647e-07
-4.44913e-07
-4.66113e-07
4.2748e-05
-4.4628e-05
-6.78402e-07
6.78329e-07
-6.77111e-07
4.46336e-05
4.27692e-05
-4.46588e-05
7.02101e-07
-7.07155e-07
7.01527e-07
-7.06384e-07
-4.27623e-05
4.46585e-05
4.49907e-07
4.66804e-07
4.45665e-07
4.66204e-07
-4.66145e-07
-4.44658e-07
-4.65562e-07
4.27475e-05
-4.46281e-05
-6.78175e-07
6.78078e-07
-6.77384e-07
4.4633e-05
4.27687e-05
-4.4658e-05
7.01568e-07
-7.07038e-07
7.0239e-07
-7.06947e-07
-4.27624e-05
4.46578e-05
4.49587e-07
4.66591e-07
4.46372e-07
4.66849e-07
-4.65525e-07
-4.45396e-07
-4.66092e-07
4.27473e-05
-4.46274e-05
-6.78132e-07
6.78756e-07
-6.77965e-07
4.46321e-05
4.27696e-05
-4.46574e-05
7.02702e-07
-7.07627e-07
7.03207e-07
-7.07248e-07
-4.27631e-05
4.46569e-05
4.50471e-07
4.67336e-07
4.46683e-07
4.67189e-07
-4.66323e-07
-4.45619e-07
-4.65976e-07
4.27481e-05
-4.4627e-05
-6.7888e-07
6.79141e-07
-6.78106e-07
4.46318e-05
4.27702e-05
-4.46569e-05
7.03629e-07
-7.08025e-07
7.04448e-07
-7.06962e-07
-4.2764e-05
4.46575e-05
4.50668e-07
4.67625e-07
4.47427e-07
4.68075e-07
-4.66156e-07
-4.46107e-07
-4.67124e-07
4.27485e-05
-4.46265e-05
-6.78933e-07
6.79814e-07
-6.78883e-07
4.46308e-05
4.27707e-05
-4.46571e-05
7.04549e-07
-7.08272e-07
7.04253e-07
-7.06582e-07
-4.27635e-05
4.46569e-05
4.51447e-07
4.68602e-07
4.46978e-07
4.67478e-07
-4.67274e-07
-4.46206e-07
-4.66729e-07
4.27491e-05
-4.46272e-05
-6.79721e-07
6.7915e-07
-6.78726e-07
4.46311e-05
4.27702e-05
-4.46573e-05
7.0417e-07
-7.08504e-07
7.03628e-07
-7.05792e-07
-4.27639e-05
4.46573e-05
4.50768e-07
4.67747e-07
4.46794e-07
4.67672e-07
-4.66773e-07
-4.45794e-07
-4.66018e-07
4.27481e-05
-4.46264e-05
-6.79461e-07
6.79657e-07
-6.78166e-07
4.46316e-05
4.27701e-05
-4.46577e-05
7.03682e-07
-7.09023e-07
7.04048e-07
-7.03965e-07
-4.27637e-05
4.46577e-05
4.5053e-07
4.67784e-07
4.46361e-07
4.66907e-07
-4.65889e-07
-4.45297e-07
-4.66035e-07
4.27488e-05
-4.46275e-05
-6.78615e-07
6.79014e-07
-6.78333e-07
4.46316e-05
4.27697e-05
-4.46586e-05
7.03952e-07
-7.11414e-07
7.0265e-07
-7.05177e-07
-4.2764e-05
4.46594e-05
4.50201e-07
4.67183e-07
4.45241e-07
4.65966e-07
-4.66047e-07
-4.44354e-07
-4.64958e-07
4.27479e-05
-4.4628e-05
-6.78935e-07
6.78418e-07
-6.77465e-07
4.46325e-05
4.27688e-05
-4.46579e-05
7.02912e-07
-7.08306e-07
7.03821e-07
-7.08061e-07
-4.27628e-05
4.46594e-05
4.49064e-07
4.66288e-07
4.46092e-07
4.66598e-07
-4.65226e-07
-4.44792e-07
-4.65115e-07
4.27473e-05
-4.46276e-05
-6.78317e-07
6.78829e-07
-6.77558e-07
4.46324e-05
4.27697e-05
-4.46582e-05
7.03869e-07
-7.08597e-07
7.03414e-07
-7.08123e-07
-4.27626e-05
4.46599e-05
4.501e-07
4.67142e-07
4.45835e-07
4.66476e-07
-4.65316e-07
-4.44835e-07
-4.65432e-07
4.27478e-05
-4.46278e-05
-6.78243e-07
6.78657e-07
-6.7786e-07
4.46321e-05
4.27692e-05
-4.4657e-05
7.0348e-07
-7.0894e-07
7.04177e-07
-7.08896e-07
-4.27622e-05
4.46597e-05
4.49893e-07
4.67042e-07
4.47053e-07
4.67652e-07
-4.65825e-07
-4.45358e-07
-4.66319e-07
4.27476e-05
-4.46267e-05
-6.78725e-07
6.79458e-07
-6.78249e-07
4.46314e-05
4.27706e-05
-4.46575e-05
7.0428e-07
-7.09559e-07
7.03945e-07
-7.09491e-07
-4.27624e-05
4.46585e-05
4.50905e-07
4.68098e-07
4.46957e-07
4.67627e-07
-4.66718e-07
-4.46055e-07
-4.66538e-07
4.27488e-05
-4.46269e-05
-6.79179e-07
6.79534e-07
-6.78738e-07
4.4631e-05
4.27701e-05
-4.46569e-05
7.04304e-07
-7.10091e-07
7.04219e-07
-7.09359e-07
-4.27634e-05
4.46593e-05
4.51119e-07
4.68243e-07
4.47274e-07
4.67817e-07
-4.66811e-07
-4.45702e-07
-4.66679e-07
4.27486e-05
-4.46265e-05
-6.79499e-07
6.79859e-07
-6.78894e-07
4.46309e-05
4.27704e-05
-4.46576e-05
7.04542e-07
-7.09788e-07
7.03419e-07
-7.09705e-07
-4.27626e-05
4.46586e-05
4.512e-07
4.68358e-07
4.46769e-07
4.67391e-07
-4.67005e-07
-4.45806e-07
-4.66113e-07
4.27489e-05
-4.4627e-05
-6.79618e-07
6.79465e-07
-6.78634e-07
4.46312e-05
4.27697e-05
-4.46579e-05
7.03924e-07
-7.09357e-07
7.02995e-07
-7.08828e-07
-4.2763e-05
4.46604e-05
4.50227e-07
4.67453e-07
4.45907e-07
4.66272e-07
-4.65904e-07
-4.44589e-07
-4.65575e-07
4.27483e-05
-4.46277e-05
-6.78833e-07
6.78823e-07
-6.78372e-07
4.46316e-05
4.2769e-05
-4.46583e-05
7.03618e-07
-7.08661e-07
7.01553e-07
-7.09816e-07
-4.27614e-05
4.46608e-05
4.49673e-07
4.66912e-07
4.4746e-07
4.67319e-07
-4.66071e-07
-4.44776e-07
-4.6825e-07
4.27477e-05
-4.46282e-05
-6.78818e-07
6.78442e-07
-6.77144e-07
4.46349e-05
4.27666e-05
-4.46508e-05
7.01169e-07
-7.07284e-07
7.01268e-07
-7.06527e-07
-4.27602e-05
4.46624e-05
4.51848e-07
4.67723e-07
4.52736e-07
4.67377e-07
-4.70434e-07
-4.40673e-07
-4.70345e-07
4.27472e-05
-4.46295e-05
-6.75176e-07
6.77197e-07
-6.72607e-07
4.46362e-05
4.27739e-05
-4.46613e-05
7.06965e-07
-7.07545e-07
6.97067e-07
-7.12892e-07
-4.27621e-05
4.46545e-05
4.57444e-07
4.67934e-07
4.45712e-07
4.67181e-07
-4.67773e-07
-4.46285e-07
-4.66945e-07
4.27465e-05
-4.46287e-05
-6.75423e-07
6.78734e-07
-6.78361e-07
4.46313e-05
4.27618e-05
-4.46574e-05
6.98636e-07
-7.16118e-07
7.00894e-07
-7.05472e-07
-4.277e-05
4.46587e-05
4.48464e-07
4.67662e-07
4.46448e-07
4.67272e-07
-4.67722e-07
-4.44788e-07
-4.6668e-07
4.27472e-05
-4.46286e-05
-6.79226e-07
6.78586e-07
-6.78508e-07
4.46313e-05
4.27649e-05
-4.46551e-05
7.01238e-07
-7.059e-07
7.0318e-07
-7.05491e-07
-4.27628e-05
4.46593e-05
4.4976e-07
4.67869e-07
4.47855e-07
4.68452e-07
-4.66823e-07
-4.46664e-07
-4.67232e-07
4.27472e-05
-4.46274e-05
-6.79173e-07
6.79856e-07
-6.7909e-07
4.46307e-05
4.27671e-05
-4.46547e-05
7.035e-07
-7.05899e-07
7.0301e-07
-7.05095e-07
-4.27628e-05
4.46597e-05
4.52106e-07
4.69212e-07
4.48109e-07
4.6808e-07
-4.67362e-07
-4.46368e-07
-4.66397e-07
4.27483e-05
-4.46278e-05
-6.79607e-07
6.79606e-07
-6.78536e-07
4.46313e-05
4.27669e-05
-4.46551e-05
7.02574e-07
-7.05729e-07
7.02021e-07
-7.05037e-07
-4.27624e-05
4.46604e-05
4.51476e-07
4.68493e-07
4.47687e-07
4.67705e-07
-4.66584e-07
-4.4616e-07
-4.66303e-07
4.27478e-05
-4.46279e-05
-6.7892e-07
6.79557e-07
-6.78765e-07
4.46313e-05
4.27667e-05
-4.46549e-05
7.01518e-07
-7.05866e-07
7.01176e-07
-7.04936e-07
-4.27616e-05
4.46601e-05
4.51437e-07
4.68314e-07
4.48028e-07
4.6699e-07
-4.66691e-07
-4.45949e-07
-4.65446e-07
4.27476e-05
-4.46287e-05
-6.79309e-07
6.78836e-07
-6.78042e-07
4.46321e-05
4.27668e-05
-4.46554e-05
7.00779e-07
-7.05284e-07
7.00609e-07
-7.04047e-07
-4.27616e-05
4.46617e-05
4.51417e-07
4.67384e-07
4.4724e-07
4.66764e-07
-4.65336e-07
-4.44719e-07
-4.64813e-07
4.27467e-05
-4.46286e-05
-6.7835e-07
6.78889e-07
-6.77779e-07
4.46325e-05
4.27662e-05
-4.46555e-05
7.00271e-07
-7.04948e-07
7.00413e-07
-7.04831e-07
-4.27604e-05
4.46601e-05
4.50861e-07
4.67441e-07
4.47187e-07
4.66948e-07
-4.65181e-07
-4.45914e-07
-4.65406e-07
4.27469e-05
-4.46283e-05
-6.78512e-07
6.79131e-07
-6.78341e-07
4.46318e-05
4.27661e-05
-4.46553e-05
7.0011e-07
-7.05303e-07
7.00559e-07
-7.04473e-07
-4.27617e-05
4.4661e-05
4.50664e-07
4.67426e-07
4.47219e-07
4.67062e-07
-4.65635e-07
-4.45559e-07
-4.65408e-07
4.27472e-05
-4.46282e-05
-6.78979e-07
6.79259e-07
-6.78365e-07
4.46318e-05
4.27665e-05
-4.46542e-05
7.00521e-07
-7.05431e-07
7.01499e-07
-7.05345e-07
-4.27612e-05
4.46598e-05
4.51088e-07
4.67777e-07
4.48625e-07
4.68208e-07
-4.65924e-07
-4.46813e-07
-4.66531e-07
4.27474e-05
-4.46276e-05
-6.79263e-07
6.79791e-07
-6.79144e-07
4.46306e-05
4.27675e-05
-4.46544e-05
7.01262e-07
-7.06123e-07
7.01297e-07
-7.05126e-07
-4.27622e-05
4.46601e-05
4.52243e-07
4.68855e-07
4.48367e-07
4.68109e-07
-4.66926e-07
-4.46493e-07
-4.66588e-07
4.2748e-05
-4.46275e-05
-6.79811e-07
6.79931e-07
-6.79242e-07
4.46304e-05
4.27671e-05
-4.46536e-05
7.00947e-07
-7.05736e-07
7.01902e-07
-7.05419e-07
-4.27617e-05
4.46593e-05
4.518e-07
4.68474e-07
4.48835e-07
4.68249e-07
-4.66471e-07
-4.47093e-07
-4.66535e-07
4.27479e-05
-4.46273e-05
-6.79715e-07
6.79972e-07
-6.79282e-07
4.46308e-05
4.2768e-05
-4.46535e-05
7.01745e-07
-7.06231e-07
7.02231e-07
-7.04283e-07
-4.27625e-05
4.46594e-05
4.52552e-07
4.68871e-07
4.48919e-07
4.67926e-07
-4.66777e-07
-4.46772e-07
-4.65662e-07
4.27481e-05
-4.46275e-05
-6.80034e-07
6.79713e-07
-6.78756e-07
4.46313e-05
4.27676e-05
-4.46524e-05
7.02329e-07
-7.036e-07
7.04071e-07
-6.93952e-07
-4.27611e-05
4.46642e-05
4.52461e-07
4.68003e-07
4.49236e-07
4.67276e-07
-4.65261e-07
-4.44669e-07
-4.63861e-07
4.27473e-05
-4.46279e-05
-6.78975e-07
6.79563e-07
-6.77578e-07
4.46326e-05
4.27684e-05
-4.46548e-05
7.0371e-07
-6.94332e-07
7.01417e-07
-7.0376e-07
-4.27566e-05
4.46621e-05
4.52679e-07
4.6762e-07
4.47907e-07
4.66437e-07
-4.64019e-07
-4.46238e-07
-4.65273e-07
4.27471e-05
-4.46285e-05
-6.77963e-07
6.79061e-07
-6.77765e-07
4.46316e-05
4.27665e-05
-4.46558e-05
7.00514e-07
-7.03557e-07
7.00833e-07
-7.03646e-07
-4.276e-05
4.46611e-05
4.51003e-07
4.66423e-07
4.46685e-07
4.64701e-07
-4.6711e-07
-4.47198e-07
-4.72069e-07
4.27466e-05
-4.46294e-05
-6.78036e-07
6.79012e-07
-6.76556e-07
4.46293e-05
4.27658e-05
-4.46555e-05
7.00694e-07
-7.03623e-07
7.01429e-07
-7.03971e-07
-4.27608e-05
4.46592e-05
4.50116e-07
4.64868e-07
4.47031e-07
4.65086e-07
-4.73656e-07
-4.48395e-07
-4.72905e-07
4.2746e-05
-4.4629e-05
-6.76921e-07
6.80345e-07
-6.77189e-07
4.46285e-05
4.27663e-05
-4.46552e-05
7.01354e-07
-7.04792e-07
7.01762e-07
-7.0396e-07
-4.27626e-05
4.46593e-05
4.50891e-07
4.6565e-07
4.47431e-07
4.65334e-07
-4.73981e-07
-4.48416e-07
-4.73017e-07
4.27465e-05
-4.46289e-05
-6.77682e-07
6.80605e-07
-6.77589e-07
4.46284e-05
4.27665e-05
-4.4655e-05
7.01529e-07
-7.04638e-07
7.01849e-07
-7.04944e-07
-4.27624e-05
4.46581e-05
4.50957e-07
4.65664e-07
4.47734e-07
4.6572e-07
-4.74122e-07
-4.49623e-07
-4.7377e-07
4.27465e-05
-4.46284e-05
-6.78218e-07
6.81082e-07
-6.78534e-07
4.46278e-05
4.27667e-05
-4.46551e-05
7.01717e-07
-7.05792e-07
7.01618e-07
-7.04824e-07
-4.27638e-05
4.46588e-05
4.5153e-07
4.66307e-07
4.47593e-07
4.6608e-07
-4.74865e-07
-4.49075e-07
-4.73429e-07
4.27471e-05
-4.46279e-05
-6.79006e-07
6.81485e-07
-6.78457e-07
4.46281e-05
4.27664e-05
-4.4655e-05
7.0129e-07
-7.05262e-07
7.01857e-07
-7.04222e-07
-4.27629e-05
4.46595e-05
4.50998e-07
4.66226e-07
4.47495e-07
4.65343e-07
-4.7409e-07
-4.4824e-07
-4.72489e-07
4.27475e-05
-4.4629e-05
-6.7867e-07
6.80644e-07
-6.77889e-07
4.46288e-05
4.27667e-05
-4.46557e-05
7.0159e-07
-7.04907e-07
7.01223e-07
-7.04217e-07
-4.27623e-05
4.46596e-05
4.50925e-07
4.65715e-07
4.47034e-07
4.65027e-07
-4.73652e-07
-4.47976e-07
-4.72549e-07
4.27464e-05
-4.46293e-05
-6.7839e-07
6.80369e-07
-6.77943e-07
4.46289e-05
4.27657e-05
-4.46568e-05
7.00681e-07
-7.04621e-07
7.00419e-07
-7.03625e-07
-4.2762e-05
4.46603e-05
4.49932e-07
4.6504e-07
4.45842e-07
4.64021e-07
-4.73159e-07
-4.47072e-07
-4.71294e-07
4.2746e-05
-4.46298e-05
-6.78053e-07
6.79818e-07
-6.7709e-07
4.46302e-05
4.27649e-05
-4.46554e-05
7.00237e-07
-7.04369e-07
7.01262e-07
-7.04198e-07
-4.27615e-05
4.46594e-05
4.49012e-07
4.64653e-07
4.47484e-07
4.65018e-07
-4.72556e-07
-4.4793e-07
-4.72273e-07
4.27457e-05
-4.46289e-05
-6.77562e-07
6.80485e-07
-6.7789e-07
4.4629e-05
4.27663e-05
-4.46559e-05
7.01061e-07
-7.04897e-07
7.01189e-07
-7.04024e-07
-4.27623e-05
4.46597e-05
4.4966e-07
4.65448e-07
4.47389e-07
4.64628e-07
-4.73473e-07
-4.47663e-07
-4.71862e-07
4.27465e-05
-4.46293e-05
-6.78644e-07
6.80152e-07
-6.78297e-07
4.46292e-05
4.27658e-05
-4.4655e-05
7.00929e-07
-7.04706e-07
7.01782e-07
-7.04681e-07
-4.2762e-05
4.46587e-05
4.49561e-07
4.65018e-07
4.48399e-07
4.65686e-07
-4.72911e-07
-4.48847e-07
-4.72967e-07
4.27461e-05
-4.46279e-05
-6.78642e-07
6.81247e-07
-6.78926e-07
4.46283e-05
4.27667e-05
-4.46551e-05
7.01593e-07
-7.05462e-07
7.01757e-07
-7.0502e-07
-4.2763e-05
4.46584e-05
4.50611e-07
4.66298e-07
4.48407e-07
4.65914e-07
-4.74297e-07
-4.49327e-07
-4.73465e-07
4.27478e-05
-4.46281e-05
-6.79593e-07
6.81326e-07
-6.79578e-07
4.46278e-05
4.27662e-05
-4.4655e-05
7.01527e-07
-7.05609e-07
7.01669e-07
-7.04485e-07
-4.27631e-05
4.46592e-05
4.50489e-07
4.6633e-07
4.48256e-07
4.66338e-07
-4.74424e-07
-4.4858e-07
-4.7376e-07
4.27475e-05
-4.46268e-05
-6.79924e-07
6.8172e-07
-6.80272e-07
4.46266e-05
4.27659e-05
-4.4655e-05
7.01263e-07
-7.05232e-07
7.01684e-07
-7.0458e-07
-4.2762e-05
4.46586e-05
4.50227e-07
4.6736e-07
4.47949e-07
4.69022e-07
-4.75473e-07
-4.48523e-07
-4.76081e-07
4.27482e-05
-4.46215e-05
-6.8145e-07
6.86475e-07
-6.84412e-07
4.46219e-05
4.27657e-05
-4.46562e-05
7.01197e-07
-7.0492e-07
7.00839e-07
-7.03847e-07
-4.27622e-05
4.466e-05
4.49623e-07
4.6924e-07
4.46789e-07
4.66681e-07
-4.77243e-07
-4.47169e-07
-4.74063e-07
4.27519e-05
-4.46258e-05
-6.85592e-07
6.85913e-07
-6.83427e-07
4.46252e-05
4.27651e-05
-4.46563e-05
7.00552e-07
-7.04589e-07
7.00673e-07
-7.04353e-07
-4.27615e-05
4.4659e-05
4.48931e-07
4.6639e-07
4.46916e-07
4.64688e-07
-4.74391e-07
-4.47997e-07
-4.71943e-07
4.2749e-05
-4.46292e-05
-6.82286e-07
6.80748e-07
-6.78818e-07
4.46292e-05
4.27651e-05
-4.46563e-05
7.0035e-07
-7.04686e-07
7.00888e-07
-7.03342e-07
-4.27625e-05
4.46608e-05
4.48873e-07
4.64986e-07
4.4691e-07
4.64477e-07
-4.72886e-07
-4.46756e-07
-4.7147e-07
4.27462e-05
-4.46295e-05
-6.79124e-07
6.80068e-07
-6.77996e-07
4.46294e-05
4.27654e-05
-4.46556e-05
7.00777e-07
-7.04278e-07
7.01462e-07
-7.04644e-07
-4.27611e-05
4.46586e-05
4.49194e-07
4.64894e-07
4.47925e-07
4.65372e-07
-4.72522e-07
-4.48772e-07
-4.7278e-07
4.27459e-05
-4.46286e-05
-6.78774e-07
6.80761e-07
-6.79127e-07
4.46283e-05
4.27662e-05
-4.46555e-05
7.01359e-07
-7.05173e-07
7.01516e-07
-7.04386e-07
-4.27631e-05
4.46595e-05
4.50251e-07
4.65888e-07
4.4808e-07
4.65142e-07
-4.73855e-07
-4.4855e-07
-4.72883e-07
4.2747e-05
-4.46287e-05
-6.79593e-07
6.8079e-07
-6.79737e-07
4.46277e-05
4.27661e-05
-4.46549e-05
7.01222e-07
-7.05154e-07
7.0199e-07
-7.04687e-07
-4.27625e-05
4.4659e-05
4.50189e-07
4.65625e-07
4.48783e-07
4.66161e-07
-4.74032e-07
-4.48975e-07
-4.72865e-07
4.27467e-05
-4.46274e-05
-6.80276e-07
6.81896e-07
-6.79777e-07
4.46275e-05
4.27668e-05
-4.46552e-05
7.01776e-07
-7.0547e-07
7.01817e-07
-7.05188e-07
-4.27629e-05
4.46584e-05
4.50903e-07
4.6663e-07
4.48551e-07
4.66054e-07
-4.73901e-07
-4.49231e-07
-4.73094e-07
4.27482e-05
-4.46278e-05
-6.80268e-07
6.81678e-07
-6.80154e-07
4.46273e-05
4.27664e-05
-4.46559e-05
7.01428e-07
-7.05702e-07
7.01193e-07
-7.04162e-07
-4.27632e-05
4.46594e-05
4.50536e-07
4.6611e-07
4.47605e-07
4.64843e-07
-4.74106e-07
-4.48098e-07
-4.72256e-07
4.27474e-05
-4.46289e-05
-6.80598e-07
6.80689e-07
-6.79775e-07
4.4628e-05
4.27657e-05
-4.4656e-05
7.00907e-07
-7.04662e-07
7.01228e-07
-7.03955e-07
-4.27621e-05
4.46598e-05
4.49587e-07
4.65153e-07
4.47533e-07
4.64882e-07
-4.73047e-07
-4.47852e-07
-4.72016e-07
4.27465e-05
-4.46289e-05
-6.80003e-07
6.80728e-07
-6.79412e-07
4.46283e-05
4.27655e-05
-4.46563e-05
7.00722e-07
-7.0452e-07
7.00808e-07
-7.0401e-07
-4.27619e-05
4.46596e-05
4.49415e-07
4.65111e-07
4.4701e-07
4.64446e-07
-4.73043e-07
-4.47299e-07
-4.71197e-07
4.27465e-05
-4.46291e-05
-6.79797e-07
6.80336e-07
-6.78889e-07
4.46289e-05
4.27653e-05
-4.46564e-05
7.00561e-07
-7.04591e-07
7.00832e-07
-7.04094e-07
-4.27621e-05
4.46596e-05
4.49051e-07
4.64795e-07
4.47156e-07
4.6451e-07
-4.72345e-07
-4.48089e-07
-4.71788e-07
4.27462e-05
-4.46291e-05
-6.79327e-07
6.80412e-07
-6.79153e-07
4.46284e-05
4.27653e-05
-4.46554e-05
7.00677e-07
-7.0462e-07
7.0151e-07
-7.03925e-07
-4.27621e-05
4.46601e-05
4.49392e-07
4.65017e-07
4.4774e-07
4.6493e-07
-4.72869e-07
-4.47745e-07
-4.72064e-07
4.27464e-05
-4.46286e-05
-6.79624e-07
6.8082e-07
-6.79479e-07
4.46279e-05
4.27662e-05
-4.4655e-05
7.01227e-07
-7.04855e-07
7.01936e-07
-7.04837e-07
-4.27619e-05
4.46586e-05
4.49928e-07
4.65486e-07
4.48623e-07
4.65732e-07
-4.73438e-07
-4.49045e-07
-4.72859e-07
4.27468e-05
-4.46281e-05
-6.80064e-07
6.81251e-07
-6.79878e-07
4.46274e-05
4.27667e-05
-4.46553e-05
7.01676e-07
-7.0545e-07
7.01685e-07
-7.0471e-07
-4.2763e-05
4.46587e-05
4.50774e-07
4.66136e-07
4.48497e-07
4.6553e-07
-4.73936e-07
-4.49039e-07
-4.72741e-07
4.27473e-05
-4.46282e-05
-6.80243e-07
6.81177e-07
-6.7971e-07
4.46275e-05
4.27663e-05
-4.46553e-05
7.0141e-07
-7.0539e-07
7.0179e-07
-7.05048e-07
-4.27629e-05
4.46585e-05
4.50537e-07
4.66024e-07
4.48443e-07
4.65667e-07
-4.73819e-07
-4.49299e-07
-4.72982e-07
4.27472e-05
-4.46281e-05
-6.80197e-07
6.81277e-07
-6.80026e-07
4.46273e-05
4.27663e-05
-4.46557e-05
7.01488e-07
-7.05413e-07
7.01438e-07
-7.04018e-07
-4.27632e-05
4.46601e-05
4.50399e-07
4.65841e-07
4.47798e-07
4.64995e-07
-4.73774e-07
-4.48017e-07
-4.72039e-07
4.27471e-05
-4.46286e-05
-6.80172e-07
6.80519e-07
-6.7924e-07
4.46282e-05
4.27658e-05
-4.4656e-05
7.0091e-07
-7.04618e-07
7.01429e-07
-7.04377e-07
-4.27617e-05
4.46595e-05
4.49558e-07
4.65105e-07
4.47678e-07
4.64813e-07
-4.72969e-07
-4.48067e-07
-4.71751e-07
4.27464e-05
-4.46293e-05
-6.79541e-07
6.80202e-07
-6.79124e-07
4.46286e-05
4.27655e-05
-4.46549e-05
7.00144e-07
-7.03909e-07
7.03918e-07
-7.06912e-07
-4.2762e-05
4.46584e-05
4.48518e-07
4.63965e-07
4.50495e-07
4.67687e-07
-4.71697e-07
-4.51174e-07
-4.75127e-07
4.27449e-05
-4.46283e-05
-6.78545e-07
6.8292e-07
-6.81973e-07
4.46271e-05
4.27634e-05
-4.46369e-05
6.95844e-07
-6.99591e-07
7.10038e-07
-7.13388e-07
-4.27599e-05
4.46409e-05
4.43692e-07
4.59195e-07
4.5758e-07
4.74924e-07
-4.67019e-07
-4.57881e-07
-4.82545e-07
4.27429e-05
-4.46109e-05
-6.74468e-07
6.88993e-07
-6.88201e-07
4.46094e-05
4.27319e-05
-4.45096e-05
6.88066e-07
-6.91833e-07
6.84407e-07
-6.88287e-07
-4.27285e-05
4.45128e-05
4.41566e-07
4.56903e-07
4.12865e-07
4.3092e-07
-4.65315e-07
-4.13793e-07
-4.40793e-07
4.2711e-05
-4.44836e-05
-6.67002e-07
6.63636e-07
-6.62725e-07
4.44825e-05
4.24942e-05
-4.39011e-05
7.07719e-07
-7.11456e-07
5.75127e-07
-5.79529e-07
-4.24907e-05
4.3905e-05
5.20622e-07
5.34573e-07
1.90416e-07
2.09268e-07
-5.44712e-07
-1.92053e-07
-2.17415e-07
4.24737e-05
-4.38753e-05
-6.86708e-07
5.54926e-07
-5.54513e-07
4.38725e-05
4.21397e-05
-4.33119e-05
9.81572e-07
-9.85066e-07
-5.072e-08
4.44976e-08
-4.21374e-05
4.33153e-05
8.38073e-07
8.51139e-07
-5.97485e-07
-5.77116e-07
-8.60823e-07
5.96287e-07
5.75282e-07
4.21166e-05
-4.32879e-05
-9.61537e-07
-6.90843e-08
7.01428e-08
4.32859e-05
4.08389e-05
-4.18892e-05
1.59828e-06
-1.60195e-06
-1.08844e-06
1.07844e-06
-4.08362e-05
4.18957e-05
1.82613e-06
1.8413e-06
-1.78284e-06
-1.75564e-06
-1.84365e-06
1.77076e-06
1.75375e-06
4.0821e-05
-4.18631e-05
-1.57935e-06
-1.10389e-06
1.09625e-06
4.18486e-05
3.8797e-05
-3.54441e-05
2.81633e-06
-2.82487e-06
-4.97974e-06
4.95713e-06
-3.87965e-05
3.54113e-05
3.29105e-06
3.30594e-06
-6.72246e-06
-6.70497e-06
-3.31509e-06
6.70297e-06
6.6901e-06
3.87915e-05