/*--------------------------------*- C++ -*----------------------------------*\
| =========                 |                                                 |
| \\      /  F ield         | OpenFOAM: The Open Source CFD Toolbox           |
|  \\    /   O peration     | Version:  2206                                  |
|   \\  /    A nd           | Website:  www.openfoam.com                      |
|    \\/     M anipulation  |                                                 |
\*---------------------------------------------------------------------------*/
FoamFile
{
    version     2.0;
    format      ascii;
    arch        "LSB;label=32;scalar=64";
    class       volScalarField;
    location    "25.5";
    object      Uy;
}
// * * * * * * * * * * * * * * * * * * * * * * * * * * * * * * * * * * * * * //

dimensions      [0 1 -1 0 0 0 0];

internalField   nonuniform List<scalar> 
171728
(
0.000107835
0.000119157
-0.000189957
-0.000239372
9.43532e-05
9.6898e-05
-0.000159191
-0.000200642
9.4184e-05
9.1357e-05
-0.000153002
-0.00020033
9.38241e-05
8.83604e-05
-0.000149477
-0.000197403
8.44723e-05
8.16934e-05
-0.000141061
-0.000184348
4.79507e-05
3.9123e-05
-6.68478e-05
-0.000107128
1.41948e-05
1.37546e-05
-1.91085e-05
-5.97351e-05
1.21812e-06
2.26457e-06
-2.60618e-06
-4.49874e-05
-5.68446e-07
7.87637e-07
-5.54581e-07
-4.34726e-05
-6.83138e-07
7.11729e-07
-4.66589e-07
-4.34097e-05
-6.83327e-07
7.11722e-07
-4.66736e-07
-4.34093e-05
-6.90456e-07
7.10249e-07
-4.67818e-07
-4.34101e-05
-6.91741e-07
7.0787e-07
-4.67223e-07
-4.34101e-05
-6.91499e-07
7.07406e-07
-4.66758e-07
-4.34091e-05
-6.89544e-07
7.13686e-07
-4.66546e-07
-4.34081e-05
-6.88141e-07
7.16351e-07
-4.66128e-07
-4.34076e-05
-6.9005e-07
7.12128e-07
-4.6598e-07
-4.3408e-05
-6.87496e-07
7.14827e-07
-4.66152e-07
-4.34084e-05
-6.79309e-07
7.27055e-07
-4.64577e-07
-4.34074e-05
-6.81928e-07
7.02398e-07
-4.64789e-07
-4.34078e-05
-6.84856e-07
7.14902e-07
-4.66977e-07
-4.34097e-05
-6.91255e-07
7.09877e-07
-4.67548e-07
-4.34096e-05
-6.90866e-07
7.08747e-07
-4.67383e-07
-4.34093e-05
-6.91406e-07
7.08265e-07
-4.66916e-07
-4.34089e-05
-6.91925e-07
7.07905e-07
-4.6702e-07
-4.34092e-05
-6.91493e-07
7.08231e-07
-4.67882e-07
-4.34095e-05
-6.90969e-07
7.08983e-07
-4.67811e-07
-4.341e-05
-6.89648e-07
7.09048e-07
-4.6882e-07
-4.34106e-05
-6.89594e-07
7.09556e-07
-4.68367e-07
-4.34106e-05
-6.90202e-07
7.09438e-07
-4.68405e-07
-4.34102e-05
-6.90184e-07
7.09897e-07
-4.67694e-07
-4.34098e-05
-6.91307e-07
7.08393e-07
-4.66793e-07
-4.34092e-05
-6.90549e-07
7.08482e-07
-4.6708e-07
-4.34093e-05
-6.9056e-07
7.08177e-07
-4.66782e-07
-4.34094e-05
-6.9003e-07
7.08383e-07
-4.67996e-07
-4.34103e-05
-6.89846e-07
7.09005e-07
-4.68073e-07
-4.34105e-05
-6.89597e-07
7.08595e-07
-4.68432e-07
-4.34106e-05
-6.89899e-07
7.08988e-07
-4.67988e-07
-4.34105e-05
-6.90811e-07
7.07742e-07
-4.67463e-07
-4.34098e-05
-6.90289e-07
7.0863e-07
-4.67989e-07
-4.34117e-05
-6.85833e-07
7.06069e-07
-4.65896e-07
-4.34095e-05
-6.88308e-07
7.19196e-07
-4.65741e-07
-4.34082e-05
-6.88837e-07
7.09921e-07
-4.65761e-07
-4.34088e-05
-6.89016e-07
7.10615e-07
-4.66529e-07
-4.34099e-05
-6.89618e-07
7.10905e-07
-4.6613e-07
-4.341e-05
-6.90665e-07
7.10141e-07
-4.66166e-07
-4.34101e-05
-6.91409e-07
7.10116e-07
-4.65403e-07
-4.34098e-05
-6.91714e-07
7.09011e-07
-4.6471e-07
-4.34088e-05
-6.91696e-07
7.09925e-07
-4.65063e-07
-4.34089e-05
-6.91696e-07
7.09543e-07
-4.65145e-07
-4.3409e-05
-6.90612e-07
7.10372e-07
-4.6615e-07
-4.34097e-05
-6.90574e-07
7.10146e-07
-4.66043e-07
-4.34095e-05
-6.90786e-07
7.10328e-07
-4.66483e-07
-4.34101e-05
-6.92263e-07
7.06779e-07
-4.67068e-07
-4.34114e-05
-6.93809e-07
6.99607e-07
-4.66112e-07
-4.34108e-05
-6.93027e-07
7.08185e-07
-4.6509e-07
-4.34095e-05
-6.94025e-07
7.0705e-07
-4.62865e-07
-4.34073e-05
-6.93398e-07
7.07613e-07
-4.63112e-07
-4.34069e-05
-6.93029e-07
7.07235e-07
-4.63085e-07
-4.34069e-05
-6.92761e-07
7.08038e-07
-4.63562e-07
-4.34073e-05
-6.92898e-07
7.07919e-07
-4.63594e-07
-4.34071e-05
-6.92933e-07
7.0711e-07
-4.62545e-07
-4.34064e-05
-6.93236e-07
7.07093e-07
-4.62354e-07
-4.34063e-05
-6.94372e-07
7.06367e-07
-4.61155e-07
-4.34052e-05
-6.93447e-07
7.07043e-07
-4.62088e-07
-4.34056e-05
-6.93493e-07
7.06713e-07
-4.61864e-07
-4.3406e-05
-6.92984e-07
7.07486e-07
-4.63364e-07
-4.34065e-05
-6.92288e-07
7.0832e-07
-4.6329e-07
-4.34065e-05
-6.90984e-07
7.08634e-07
-4.58924e-07
-4.34034e-05
-6.89433e-07
7.10258e-07
-4.49213e-07
-4.33968e-05
-6.9177e-07
7.08489e-07
-4.58415e-07
-4.34008e-05
-6.93234e-07
7.0782e-07
-4.61087e-07
-4.34047e-05
-6.93763e-07
7.06092e-07
-4.61302e-07
-4.34051e-05
-6.93379e-07
7.07478e-07
-4.624e-07
-4.34062e-05
-6.9315e-07
7.07029e-07
-4.62579e-07
-4.34066e-05
-6.92809e-07
7.07428e-07
-4.63343e-07
-4.34069e-05
-6.92679e-07
7.07946e-07
-4.63364e-07
-4.34069e-05
-6.93291e-07
7.07167e-07
-4.61863e-07
-4.34062e-05
-6.93515e-07
7.06735e-07
-4.62022e-07
-4.34058e-05
-6.9391e-07
7.06959e-07
-4.61349e-07
-4.34054e-05
-6.93915e-07
7.06831e-07
-4.61981e-07
-4.34056e-05
-6.93463e-07
7.06792e-07
-4.62194e-07
-4.34061e-05
-6.92831e-07
7.07595e-07
-4.6298e-07
-4.34068e-05
-6.92897e-07
7.07464e-07
-4.63317e-07
-4.34069e-05
-6.93016e-07
7.07758e-07
-4.63312e-07
-4.34071e-05
-6.93497e-07
7.06573e-07
-4.6254e-07
-4.34066e-05
-6.94925e-07
7.05451e-07
-4.60293e-07
-4.34059e-05
-7.01411e-07
6.9893e-07
-4.53936e-07
-4.34007e-05
-7.10827e-07
6.90059e-07
-4.58488e-07
-4.33488e-05
-7.40146e-07
7.34061e-07
-5.48072e-07
-4.29749e-05
-5.57276e-07
1.03789e-06
-9.71555e-07
-4.2981e-05
-3.93508e-07
1.57087e-06
-1.79521e-06
-4.14073e-05
-2.38882e-07
2.90797e-06
-3.40878e-06
-3.86377e-05
-5.56359e-06
3.35313e-06
-2.3716e-06
-2.62847e-05
-4.17274e-05
-3.42237e-05
4.1573e-05
4.7493e-05
0.000135132
0.000152969
0.00015295
0.0001351
0.000124243
-0.00012426
9.06993e-05
9.0697e-05
-9.07459e-05
-9.07439e-05
0.00012424
-0.000124256
-0.000135152
-0.000153
-0.000152983
-0.000135125
0.000239375
0.000111808
0.000189857
0.000189898
0.000146669
0.000146666
0.000239324
0.000111775
0.000119176
-0.000119239
8.8706e-05
-8.87276e-05
-0.000119242
8.87076e-05
-8.87219e-05
-0.000239417
-0.000111901
-0.000189985
-0.000146604
-0.000146629
-0.000111904
0.00020051
0.000106346
0.000159246
0.000159243
0.000155505
0.000155505
0.000200477
0.000106339
9.68918e-05
-9.69041e-05
9.37656e-05
-9.37662e-05
-9.68989e-05
9.3774e-05
-9.37572e-05
-0.000200651
-0.000106405
-0.000159217
-0.000155461
-0.000155479
-0.000106413
0.000200217
0.00010117
0.000153054
0.000153049
0.0001556
0.000155589
0.000200202
0.000101162
9.13548e-05
-9.13491e-05
9.29304e-05
-9.29117e-05
-9.13432e-05
9.2926e-05
-9.29174e-05
-0.000200336
-0.000101215
-0.000153024
-0.000155539
-0.00015555
-0.000101241
0.000197293
9.10689e-05
0.000149532
0.000149517
0.000147594
0.000147594
0.000197274
9.10683e-05
8.8371e-05
-8.83503e-05
8.68806e-05
-8.6857e-05
-8.83561e-05
8.68781e-05
-8.68712e-05
-0.000197394
-9.11045e-05
-0.00014948
-0.000147537
-0.00014754
-9.11375e-05
0.000184246
2.63858e-05
0.000141126
0.000141116
8.4041e-05
8.40396e-05
0.000184233
2.63822e-05
8.1699e-05
-8.16461e-05
4.73146e-05
-4.73464e-05
-8.16674e-05
4.73067e-05
-4.73318e-05
-0.000184343
-2.63472e-05
-0.000141059
-8.40003e-05
-8.39809e-05
-2.63243e-05
0.000107134
-2.52993e-05
6.68493e-05
6.68645e-05
2.81962e-05
2.82112e-05
0.000107105
-2.52979e-05
3.91283e-05
-3.91711e-05
1.94566e-05
-1.94969e-05
-3.91573e-05
1.94547e-05
-1.94904e-05
-0.000107178
2.53159e-05
-6.68314e-05
-2.82031e-05
-2.82076e-05
2.53002e-05
5.96903e-05
-4.30814e-05
1.91077e-05
1.91238e-05
4.46908e-06
4.48275e-06
5.96793e-05
-4.30846e-05
1.37611e-05
-1.37922e-05
3.62332e-06
-3.64164e-06
-1.37903e-05
3.61545e-06
-3.63962e-06
-5.97405e-05
4.31152e-05
-1.91122e-05
-4.45281e-06
-4.45218e-06
4.31035e-05
4.49598e-05
-4.52373e-05
2.61925e-06
2.63237e-06
7.10702e-07
7.16726e-07
4.49505e-05
-4.52362e-05
2.27029e-06
-2.28902e-06
8.88542e-07
-9.07536e-07
-2.28728e-06
8.86136e-07
-9.03809e-07
-4.49928e-05
4.52692e-05
-2.60221e-06
-6.91083e-07
-6.88656e-07
4.52573e-05
4.3443e-05
-4.53299e-05
5.72056e-07
5.81046e-07
4.90598e-07
4.92776e-07
4.34366e-05
-4.533e-05
7.91616e-07
-8.0888e-07
7.18989e-07
-7.3369e-07
-8.05793e-07
7.15291e-07
-7.30897e-07
-4.34782e-05
4.53648e-05
-5.49468e-07
-4.66849e-07
-4.64549e-07
4.53518e-05
4.33839e-05
-4.5316e-05
4.89473e-07
4.97581e-07
4.99155e-07
4.91042e-07
4.33759e-05
-4.5329e-05
7.18002e-07
-7.29545e-07
7.22259e-07
-7.28481e-07
-7.27867e-07
7.12256e-07
-7.26114e-07
-4.3414e-05
4.53659e-05
-4.62402e-07
-4.63022e-07
-4.61393e-07
4.53529e-05
4.33979e-05
-4.53317e-05
4.97202e-07
4.98258e-07
4.85672e-07
4.8871e-07
4.33772e-05
-4.53306e-05
7.21823e-07
-7.28593e-07
7.12395e-07
-7.3032e-07
-7.26683e-07
7.10983e-07
-7.26859e-07
-4.34141e-05
4.53638e-05
-4.62303e-07
-4.64507e-07
-4.62462e-07
4.53517e-05
4.338e-05
-4.53322e-05
4.87236e-07
4.95729e-07
4.82495e-07
4.9702e-07
4.33754e-05
-4.53324e-05
7.13996e-07
-7.30446e-07
7.11554e-07
-7.31182e-07
-7.27536e-07
7.08835e-07
-7.26862e-07
-4.34154e-05
4.53633e-05
-4.63569e-07
-4.64327e-07
-4.64863e-07
4.53514e-05
4.33805e-05
-4.53329e-05
4.85284e-07
5.01616e-07
4.80878e-07
4.99852e-07
4.33732e-05
-4.53342e-05
7.14119e-07
-7.31072e-07
7.11919e-07
-7.31686e-07
-7.26883e-07
7.0752e-07
-7.25463e-07
-4.3416e-05
4.5363e-05
-4.66101e-07
-4.63667e-07
-4.65766e-07
4.53526e-05
4.33834e-05
-4.53312e-05
4.85688e-07
4.98866e-07
4.84121e-07
4.93832e-07
4.33725e-05
-4.53301e-05
7.16595e-07
-7.31263e-07
7.14684e-07
-7.31174e-07
-7.2563e-07
7.11633e-07
-7.24482e-07
-4.34161e-05
4.53636e-05
-4.65943e-07
-4.63548e-07
-4.62777e-07
4.53539e-05
4.33871e-05
-4.53318e-05
4.88522e-07
4.94933e-07
4.85565e-07
5.04059e-07
4.33795e-05
-4.53138e-05
7.1475e-07
-7.30708e-07
7.13849e-07
-7.30253e-07
-7.24582e-07
7.20458e-07
-7.23543e-07
-4.34156e-05
4.53646e-05
-4.62617e-07
-4.6306e-07
-4.60754e-07
4.53545e-05
4.33858e-05
-4.53324e-05
4.88996e-07
4.97464e-07
4.8226e-07
4.89961e-07
4.33912e-05
-4.53349e-05
7.14125e-07
-7.29863e-07
7.12619e-07
-7.29841e-07
-7.24068e-07
7.11512e-07
-7.24487e-07
-4.34148e-05
4.53649e-05
-4.61372e-07
-4.62871e-07
-4.60486e-07
4.5354e-05
4.33843e-05
-4.53303e-05
4.88346e-07
4.90148e-07
4.83898e-07
4.88785e-07
4.33737e-05
-4.53338e-05
7.1325e-07
-7.29491e-07
7.14197e-07
-7.29352e-07
-7.24991e-07
7.12866e-07
-7.24671e-07
-4.34144e-05
4.53655e-05
-4.61136e-07
-4.63007e-07
-4.60793e-07
4.53541e-05
4.33853e-05
-4.5318e-05
4.89739e-07
4.91694e-07
4.94263e-07
5.0134e-07
4.33766e-05
-4.5316e-05
7.15836e-07
-7.28825e-07
7.21512e-07
-7.27452e-07
-7.24905e-07
7.23211e-07
-7.22904e-07
-4.34143e-05
4.53668e-05
-4.61622e-07
-4.61921e-07
-4.60392e-07
4.53551e-05
4.34018e-05
-4.53184e-05
5.04534e-07
5.0658e-07
4.90417e-07
4.9672e-07
4.33955e-05
-4.53275e-05
7.25352e-07
-7.26678e-07
7.21412e-07
-7.27596e-07
-7.22785e-07
7.12672e-07
-7.23479e-07
-4.34133e-05
4.53661e-05
-4.6222e-07
-4.61281e-07
-4.6841e-07
4.53545e-05
4.33935e-05
-4.53216e-05
4.89387e-07
4.87076e-07
5.00621e-07
4.98409e-07
4.33681e-05
-4.53297e-05
7.18159e-07
-7.28106e-07
7.12945e-07
-7.29841e-07
-7.24923e-07
7.1358e-07
-7.26455e-07
-4.34139e-05
4.5364e-05
-4.70507e-07
-4.635e-07
-4.64617e-07
4.5352e-05
4.33881e-05
-4.53243e-05
4.97843e-07
4.91116e-07
4.86697e-07
4.91153e-07
4.33764e-05
-4.53317e-05
7.13645e-07
-7.29497e-07
7.12531e-07
-7.30693e-07
-7.26587e-07
7.09533e-07
-7.25998e-07
-4.34151e-05
4.53635e-05
-4.64364e-07
-4.64232e-07
-4.63975e-07
4.53522e-05
4.33813e-05
-4.53265e-05
4.84088e-07
4.9117e-07
4.86401e-07
4.90303e-07
4.33766e-05
-4.53326e-05
7.11841e-07
-7.30743e-07
7.1076e-07
-7.3072e-07
-7.26763e-07
7.09111e-07
-7.26544e-07
-4.34156e-05
4.53636e-05
-4.64081e-07
-4.64213e-07
-4.62726e-07
4.53521e-05
4.33801e-05
-4.53276e-05
4.82737e-07
4.90302e-07
4.85805e-07
4.90986e-07
4.33747e-05
-4.53318e-05
7.10462e-07
-7.3028e-07
7.09173e-07
-7.30116e-07
-7.2683e-07
7.08804e-07
-7.26054e-07
-4.34151e-05
4.53642e-05
-4.62685e-07
-4.63736e-07
-4.60785e-07
4.53527e-05
4.33795e-05
-4.5328e-05
4.83007e-07
4.90097e-07
4.85555e-07
4.90692e-07
4.33751e-05
-4.53318e-05
7.0966e-07
-7.29872e-07
7.08282e-07
-7.30373e-07
-7.26471e-07
7.08592e-07
-7.2626e-07
-4.34146e-05
4.5364e-05
-4.62601e-07
-4.64034e-07
-4.62906e-07
4.53524e-05
4.33789e-05
-4.53284e-05
4.82418e-07
4.89878e-07
4.855e-07
4.91067e-07
4.33752e-05
-4.53317e-05
7.08515e-07
-7.29981e-07
7.07768e-07
-7.30599e-07
-7.2654e-07
7.08504e-07
-7.26286e-07
-4.34148e-05
4.53638e-05
-4.63653e-07
-4.64423e-07
-4.63611e-07
4.53522e-05
4.3379e-05
-4.53276e-05
4.83141e-07
4.90622e-07
4.86042e-07
4.91681e-07
4.33756e-05
-4.53309e-05
7.08581e-07
-7.30497e-07
7.08225e-07
-7.30895e-07
-7.26969e-07
7.09156e-07
-7.26636e-07
-4.34153e-05
4.53634e-05
-4.64775e-07
-4.64778e-07
-4.64429e-07
4.53516e-05
4.33796e-05
-4.53257e-05
4.83424e-07
4.91083e-07
4.87742e-07
4.92505e-07
4.33764e-05
-4.53304e-05
7.08924e-07
-7.30565e-07
7.09244e-07
-7.30857e-07
-7.26954e-07
7.0937e-07
-7.27019e-07
-4.34156e-05
4.53632e-05
-4.65072e-07
-4.65338e-07
-4.65187e-07
4.53512e-05
4.33817e-05
-4.53253e-05
4.85416e-07
4.922e-07
4.88274e-07
4.92827e-07
4.33769e-05
-4.53301e-05
7.10113e-07
-7.30751e-07
7.09637e-07
-7.30751e-07
-7.27655e-07
7.09876e-07
-7.27177e-07
-4.34158e-05
4.53631e-05
-4.66232e-07
-4.65466e-07
-4.65654e-07
4.53508e-05
4.33818e-05
-4.53261e-05
4.85504e-07
4.92043e-07
4.87587e-07
4.9253e-07
4.33769e-05
-4.53304e-05
7.10179e-07
-7.30191e-07
7.09151e-07
-7.31002e-07
-7.27476e-07
7.09418e-07
-7.26903e-07
-4.34155e-05
4.53631e-05
-4.66156e-07
-4.65462e-07
-4.65232e-07
4.53513e-05
4.33808e-05
-4.53259e-05
4.84679e-07
4.91918e-07
4.87536e-07
4.91749e-07
4.33767e-05
-4.53304e-05
7.0952e-07
-7.30735e-07
7.08991e-07
-7.30389e-07
-7.27006e-07
7.08238e-07
-7.26533e-07
-4.34159e-05
4.53638e-05
-4.65534e-07
-4.64787e-07
-4.64815e-07
4.53518e-05
4.33813e-05
-4.53269e-05
4.84925e-07
4.91702e-07
4.86397e-07
4.91507e-07
4.33757e-05
-4.53315e-05
7.0977e-07
-7.30052e-07
7.08361e-07
-7.29955e-07
-7.27115e-07
7.08048e-07
-7.26112e-07
-4.34149e-05
4.53642e-05
-4.65457e-07
-4.64189e-07
-4.64295e-07
4.53521e-05
4.33798e-05
-4.53264e-05
4.83212e-07
4.90695e-07
4.86675e-07
4.91752e-07
4.33737e-05
-4.53307e-05
7.0856e-07
-7.29455e-07
7.08633e-07
-7.29973e-07
-7.26315e-07
7.08644e-07
-7.26015e-07
-4.34145e-05
4.53643e-05
-4.64464e-07
-4.64309e-07
-4.64281e-07
4.53522e-05
4.3381e-05
-4.53263e-05
4.84285e-07
4.91473e-07
4.8699e-07
4.92221e-07
4.33735e-05
-4.53308e-05
7.09581e-07
-7.29841e-07
7.08814e-07
-7.29813e-07
-7.26352e-07
7.08549e-07
-7.2591e-07
-4.34147e-05
4.53643e-05
-4.64504e-07
-4.6421e-07
-4.64299e-07
4.53522e-05
4.33809e-05
-4.53263e-05
4.84206e-07
4.91485e-07
4.87315e-07
4.9301e-07
4.33731e-05
-4.53304e-05
7.09299e-07
-7.29509e-07
7.09016e-07
-7.30628e-07
-7.26478e-07
7.08622e-07
-7.2674e-07
-4.34146e-05
4.53635e-05
-4.64454e-07
-4.65174e-07
-4.65209e-07
4.53513e-05
4.33811e-05
-4.53262e-05
4.8492e-07
4.92667e-07
4.87549e-07
4.93245e-07
4.33737e-05
-4.53302e-05
7.09886e-07
-7.30598e-07
7.09076e-07
-7.30697e-07
-7.27327e-07
7.09267e-07
-7.27053e-07
-4.34156e-05
4.53633e-05
-4.6552e-07
-4.65496e-07
-4.65709e-07
4.5351e-05
4.33815e-05
-4.5326e-05
4.85096e-07
4.9283e-07
4.87888e-07
4.93851e-07
4.33739e-05
-4.53297e-05
7.09782e-07
-7.30444e-07
7.09448e-07
-7.30941e-07
-7.2741e-07
7.09002e-07
-7.2707e-07
-4.34156e-05
4.53629e-05
-4.65717e-07
-4.65781e-07
-4.65852e-07
4.53509e-05
4.33822e-05
-4.53266e-05
4.85478e-07
4.93133e-07
4.87581e-07
4.93732e-07
4.33741e-05
-4.53299e-05
7.10019e-07
-7.30668e-07
7.094e-07
-7.30971e-07
-7.27539e-07
7.0949e-07
-7.27198e-07
-4.3416e-05
4.53631e-05
-4.6594e-07
-4.65761e-07
-4.65941e-07
4.5351e-05
4.33823e-05
-4.53276e-05
4.85132e-07
4.93013e-07
4.86505e-07
4.92489e-07
4.33737e-05
-4.53309e-05
7.09619e-07
-7.30328e-07
7.08831e-07
-7.30128e-07
-7.27267e-07
7.08204e-07
-7.26341e-07
-4.34157e-05
4.5364e-05
-4.65503e-07
-4.64683e-07
-4.64921e-07
4.53519e-05
4.33825e-05
-4.53296e-05
4.84673e-07
4.9213e-07
4.85713e-07
4.93969e-07
4.33729e-05
-4.533e-05
7.09089e-07
-7.29743e-07
7.08187e-07
-7.31027e-07
-7.26982e-07
7.09555e-07
-7.27427e-07
-4.34148e-05
4.5363e-05
-4.65237e-07
-4.65398e-07
-4.6837e-07
4.53499e-05
4.33803e-05
-4.53364e-05
4.84849e-07
4.94835e-07
4.85604e-07
4.96785e-07
4.33748e-05
-4.53273e-05
7.07957e-07
-7.30839e-07
7.09572e-07
-7.2971e-07
-7.2825e-07
7.04725e-07
-7.26592e-07
-4.34161e-05
4.53646e-05
-4.70329e-07
-4.64218e-07
-4.68679e-07
4.53515e-05
4.33819e-05
-4.5335e-05
4.94101e-07
4.90917e-07
4.80343e-07
5.03647e-07
4.33733e-05
-4.53205e-05
7.11636e-07
-7.28789e-07
7.07171e-07
-7.29081e-07
-7.25861e-07
7.16768e-07
-7.24342e-07
-4.34144e-05
4.53653e-05
-4.65341e-07
-4.63502e-07
-4.63575e-07
4.5354e-05
4.33844e-05
-4.53287e-05
4.88521e-07
5.06103e-07
4.83908e-07
4.9183e-07
4.33882e-05
-4.53313e-05
7.10438e-07
-7.29401e-07
7.11517e-07
-7.30323e-07
-7.24773e-07
7.10607e-07
-7.25043e-07
-4.34141e-05
4.53642e-05
-4.63815e-07
-4.64121e-07
-4.64367e-07
4.53528e-05
4.33876e-05
-4.53279e-05
4.8833e-07
4.91973e-07
4.83517e-07
4.91914e-07
4.33721e-05
-4.53318e-05
7.11559e-07
-7.3001e-07
7.11646e-07
-7.31005e-07
-7.25785e-07
7.11222e-07
-7.26605e-07
-4.34149e-05
4.53636e-05
-4.63973e-07
-4.64761e-07
-4.65649e-07
4.53516e-05
4.33888e-05
-4.53276e-05
4.89558e-07
4.91544e-07
4.84015e-07
4.91518e-07
4.33724e-05
-4.53319e-05
7.1287e-07
-7.31055e-07
7.12214e-07
-7.31233e-07
-7.27217e-07
7.11046e-07
-7.26804e-07
-4.34155e-05
4.53632e-05
-4.65255e-07
-4.65356e-07
-4.66047e-07
4.53514e-05
4.33885e-05
-4.53289e-05
4.88539e-07
4.91721e-07
4.82808e-07
4.90495e-07
4.33723e-05
-4.53328e-05
7.12483e-07
-7.30913e-07
7.11563e-07
-7.31011e-07
-7.27125e-07
7.10462e-07
-7.26833e-07
-4.34157e-05
4.53635e-05
-4.64733e-07
-4.65033e-07
-4.66099e-07
4.53514e-05
4.33872e-05
-4.53307e-05
4.87576e-07
4.90821e-07
4.81418e-07
4.89899e-07
4.33714e-05
-4.53331e-05
7.11963e-07
-7.30839e-07
7.10797e-07
-7.30678e-07
-7.27331e-07
7.10622e-07
-7.26707e-07
-4.34154e-05
4.53639e-05
-4.64715e-07
-4.64674e-07
-4.66038e-07
4.53515e-05
4.33854e-05
-4.53313e-05
4.86098e-07
4.89842e-07
4.80685e-07
4.889e-07
4.33709e-05
-4.5334e-05
7.11227e-07
-7.30211e-07
7.10393e-07
-7.30292e-07
-7.26818e-07
7.09379e-07
-7.25761e-07
-4.34149e-05
4.53644e-05
-4.6403e-07
-4.63675e-07
-4.64559e-07
4.53526e-05
4.33849e-05
-4.53316e-05
4.85605e-07
4.8913e-07
4.80709e-07
4.88962e-07
4.33701e-05
-4.53337e-05
7.10879e-07
-7.30121e-07
7.10295e-07
-7.30694e-07
-7.2617e-07
7.10242e-07
-7.25874e-07
-4.34145e-05
4.5364e-05
-4.6304e-07
-4.63952e-07
-4.64632e-07
4.53525e-05
4.33846e-05
-4.53315e-05
4.85721e-07
4.89234e-07
4.80673e-07
4.88879e-07
4.33704e-05
-4.53336e-05
7.10847e-07
-7.30446e-07
7.10234e-07
-7.30552e-07
-7.26233e-07
7.09714e-07
-7.25847e-07
-4.34148e-05
4.53641e-05
-4.63261e-07
-4.63905e-07
-4.64499e-07
4.53524e-05
4.33849e-05
-4.53305e-05
4.85798e-07
4.89352e-07
4.81806e-07
4.8991e-07
4.33704e-05
-4.53329e-05
7.10948e-07
-7.30411e-07
7.11185e-07
-7.30966e-07
-7.26228e-07
7.10539e-07
-7.26382e-07
-4.34148e-05
4.53636e-05
-4.63349e-07
-4.64528e-07
-4.65077e-07
4.53518e-05
4.33859e-05
-4.533e-05
4.87085e-07
4.90363e-07
4.8236e-07
4.90347e-07
4.33713e-05
-4.53325e-05
7.11869e-07
-7.30908e-07
7.11431e-07
-7.31223e-07
-7.26899e-07
7.10707e-07
-7.26477e-07
-4.34153e-05
4.53632e-05
-4.6488e-07
-4.64947e-07
-4.65036e-07
4.53519e-05
4.33861e-05
-4.53303e-05
4.87063e-07
4.90446e-07
4.81899e-07
4.89884e-07
4.33713e-05
-4.53327e-05
7.11756e-07
-7.30865e-07
7.11223e-07
-7.31143e-07
-7.26726e-07
7.10745e-07
-7.26678e-07
-4.34154e-05
4.53633e-05
-4.64364e-07
-4.64616e-07
-4.65605e-07
4.53515e-05
4.33858e-05
-4.5331e-05
4.86963e-07
4.90302e-07
4.81039e-07
4.88775e-07
4.33711e-05
-4.53343e-05
7.11849e-07
-7.31182e-07
7.10342e-07
-7.31961e-07
-7.27529e-07
7.08798e-07
-7.28305e-07
-4.34153e-05
4.53624e-05
-4.66106e-07
-4.65619e-07
-4.67238e-07
4.53495e-05
4.33843e-05
-4.53328e-05
4.85382e-07
4.87149e-07
4.7845e-07
4.74946e-07
4.33676e-05
-4.53521e-05
7.10334e-07
-7.31681e-07
7.08722e-07
-7.31653e-07
-7.28806e-07
6.98761e-07
-7.28697e-07
-4.34159e-05
4.53631e-05
-4.67067e-07
-4.64457e-07
-4.66388e-07
4.53499e-05
4.3383e-05
-4.53317e-05
4.83415e-07
4.77532e-07
4.7986e-07
4.88497e-07
4.33496e-05
-4.5335e-05
7.0931e-07
-7.31421e-07
7.09628e-07
-7.3132e-07
-7.2884e-07
7.09049e-07
-7.27054e-07
-4.34153e-05
4.53635e-05
-4.66386e-07
-4.6358e-07
-4.66499e-07
4.53514e-05
4.33847e-05
-4.53316e-05
4.8477e-07
4.88216e-07
4.79014e-07
4.91449e-07
4.33687e-05
-4.53347e-05
7.10406e-07
-7.30941e-07
7.10237e-07
-7.31219e-07
-7.26888e-07
7.07955e-07
-7.24463e-07
-4.34151e-05
4.53637e-05
-4.68416e-07
-4.61474e-07
-4.7421e-07
4.53537e-05
4.33848e-05
-4.53304e-05
4.8413e-07
4.91322e-07
4.79417e-07
4.92227e-07
4.3369e-05
-4.5335e-05
7.10953e-07
-7.31069e-07
7.1124e-07
-7.31959e-07
-7.24257e-07
7.07765e-07
-7.23136e-07
-4.34151e-05
4.5363e-05
-4.76119e-07
-4.61043e-07
-4.75505e-07
4.53545e-05
4.3386e-05
-4.53299e-05
4.84565e-07
4.93146e-07
4.79794e-07
4.934e-07
4.3369e-05
-4.53347e-05
7.12028e-07
-7.31911e-07
7.11913e-07
-7.32479e-07
-7.23574e-07
7.07748e-07
-7.22972e-07
-4.3416e-05
4.53624e-05
-4.77056e-07
-4.6127e-07
-4.76311e-07
4.53543e-05
4.33864e-05
-4.53295e-05
4.84702e-07
4.93614e-07
4.79952e-07
4.93844e-07
4.33691e-05
-4.53344e-05
7.12474e-07
-7.32206e-07
7.12125e-07
-7.32594e-07
-7.23381e-07
7.08039e-07
-7.23103e-07
-4.34164e-05
4.53622e-05
-4.77593e-07
-4.6149e-07
-4.76973e-07
4.5354e-05
4.33868e-05
-4.53294e-05
4.85116e-07
4.94518e-07
4.80117e-07
4.94805e-07
4.33697e-05
-4.53337e-05
7.12841e-07
-7.32494e-07
7.12393e-07
-7.33173e-07
-7.2355e-07
7.08494e-07
-7.23021e-07
-4.34167e-05
4.53617e-05
-4.78357e-07
-4.61882e-07
-4.77278e-07
4.53541e-05
4.33868e-05
-4.53296e-05
4.84847e-07
4.94949e-07
4.7966e-07
4.94098e-07
4.337e-05
-4.53347e-05
7.1275e-07
-7.33003e-07
7.12241e-07
-7.32552e-07
-7.23338e-07
7.07569e-07
-7.22326e-07
-4.34172e-05
4.53623e-05
-4.7832e-07
-4.6085e-07
-4.76372e-07
4.53547e-05
4.33867e-05
-4.53297e-05
4.84656e-07
4.94281e-07
4.79448e-07
4.94049e-07
4.33691e-05
-4.53347e-05
7.12971e-07
-7.32145e-07
7.12235e-07
-7.32272e-07
-7.22611e-07
7.07534e-07
-7.2228e-07
-4.34163e-05
4.53627e-05
-4.77476e-07
-4.60531e-07
-4.76314e-07
4.53548e-05
4.33863e-05
-4.5331e-05
4.84277e-07
4.94183e-07
4.78071e-07
4.92688e-07
4.3369e-05
-4.53357e-05
7.12638e-07
-7.31937e-07
7.11185e-07
-7.31523e-07
-7.22564e-07
7.0673e-07
-7.21283e-07
-4.3416e-05
4.53637e-05
-4.77297e-07
-4.59216e-07
-4.74874e-07
4.53559e-05
4.33851e-05
-4.53303e-05
4.82948e-07
4.92866e-07
4.78808e-07
4.93452e-07
4.33681e-05
-4.5335e-05
7.11752e-07
-7.31298e-07
7.11597e-07
-7.31979e-07
-7.21581e-07
7.07245e-07
-7.2153e-07
-4.3415e-05
4.53629e-05
-4.75934e-07
-4.59918e-07
-4.75417e-07
4.53557e-05
4.3386e-05
-4.53301e-05
4.84065e-07
4.93993e-07
4.79036e-07
4.93581e-07
4.33689e-05
-4.53352e-05
7.12716e-07
-7.31865e-07
7.11749e-07
-7.32109e-07
-7.22161e-07
7.0714e-07
-7.21945e-07
-4.34159e-05
4.53629e-05
-4.76898e-07
-4.60137e-07
-4.7597e-07
4.53551e-05
4.3386e-05
-4.53297e-05
4.83986e-07
4.93769e-07
4.79502e-07
4.94078e-07
4.33686e-05
-4.53346e-05
7.12563e-07
-7.31767e-07
7.11948e-07
-7.3259e-07
-7.22203e-07
7.07574e-07
-7.22148e-07
-4.34158e-05
4.53623e-05
-4.76895e-07
-4.60813e-07
-4.76586e-07
4.53548e-05
4.33866e-05
-4.53288e-05
4.84871e-07
4.94726e-07
4.80166e-07
4.94911e-07
4.33694e-05
-4.53336e-05
7.13085e-07
-7.32717e-07
7.12427e-07
-7.32737e-07
-7.22749e-07
7.08378e-07
-7.22397e-07
-4.34168e-05
4.53619e-05
-4.78102e-07
-4.61519e-07
-4.77445e-07
4.53545e-05
4.33872e-05
-4.53278e-05
4.85316e-07
4.95309e-07
4.80841e-07
4.95445e-07
4.337e-05
-4.53331e-05
7.13477e-07
-7.32266e-07
7.1343e-07
-7.30498e-07
-7.22633e-07
7.08736e-07
-7.20499e-07
-4.34165e-05
4.53643e-05
-4.77876e-07
-4.59043e-07
-4.75426e-07
4.53562e-05
4.33879e-05
-4.53271e-05
4.85913e-07
4.95849e-07
4.8136e-07
4.96054e-07
4.33702e-05
-4.53324e-05
7.1455e-07
-7.29024e-07
7.14648e-07
-7.25419e-07
-7.19885e-07
7.10524e-07
-7.15856e-07
-4.34127e-05
4.53714e-05
-4.742e-07
-4.47306e-07
-4.66642e-07
4.53623e-05
4.33883e-05
-4.53285e-05
4.86435e-07
4.96232e-07
4.79893e-07
4.95044e-07
4.33705e-05
-4.53335e-05
7.15759e-07
-7.24777e-07
7.13398e-07
-7.27455e-07
-7.15315e-07
7.09254e-07
-7.16104e-07
-4.34058e-05
4.53675e-05
-4.64145e-07
-4.54947e-07
-4.70108e-07
4.53615e-05
4.3387e-05
-4.53297e-05
4.84583e-07
4.94899e-07
4.7915e-07
4.9408e-07
4.33698e-05
-4.53344e-05
7.13765e-07
-7.28268e-07
7.11882e-07
-7.30766e-07
-7.17957e-07
7.08326e-07
-7.20317e-07
-4.34117e-05
4.53639e-05
-4.72119e-07
-4.59757e-07
-4.76996e-07
4.53566e-05
4.33863e-05
-4.53304e-05
4.84039e-07
4.94211e-07
4.78527e-07
4.9319e-07
4.33692e-05
-4.53356e-05
7.12573e-07
-7.31096e-07
7.11265e-07
-7.31548e-07
-7.2118e-07
7.06621e-07
-7.21133e-07
-4.3415e-05
4.53634e-05
-4.74189e-07
-4.58814e-07
-4.75631e-07
4.53558e-05
4.33858e-05
-4.533e-05
4.83583e-07
4.9338e-07
4.78876e-07
4.93618e-07
4.33682e-05
-4.53348e-05
7.12187e-07
-7.31222e-07
7.11518e-07
-7.32237e-07
-7.21433e-07
7.07626e-07
-7.21819e-07
-4.34152e-05
4.53626e-05
-4.76093e-07
-4.60243e-07
-4.7626e-07
4.53551e-05
4.33863e-05
-4.53294e-05
4.84309e-07
4.9415e-07
4.79647e-07
4.94145e-07
4.33691e-05
-4.53346e-05
7.12626e-07
-7.32213e-07
7.11892e-07
-7.32483e-07
-7.22455e-07
7.07288e-07
-7.22131e-07
-4.34162e-05
4.53623e-05
-4.77759e-07
-4.60645e-07
-4.76955e-07
4.53546e-05
4.33867e-05
-4.53294e-05
4.84638e-07
4.94456e-07
4.79765e-07
4.9443e-07
4.33693e-05
-4.53344e-05
7.12724e-07
-7.32119e-07
7.11954e-07
-7.32921e-07
-7.22697e-07
7.07582e-07
-7.22496e-07
-4.34164e-05
4.53619e-05
-4.78392e-07
-4.61099e-07
-4.77636e-07
4.53541e-05
4.33868e-05
-4.53289e-05
4.84979e-07
4.94807e-07
4.80205e-07
4.95161e-07
4.33694e-05
-4.53337e-05
7.13004e-07
-7.33026e-07
7.12211e-07
-7.33296e-07
-7.22914e-07
7.0825e-07
-7.22454e-07
-4.3417e-05
4.53614e-05
-4.78873e-07
-4.61602e-07
-4.77742e-07
4.53541e-05
4.33872e-05
-4.53297e-05
4.85236e-07
4.95472e-07
4.79507e-07
4.94123e-07
4.33701e-05
-4.53346e-05
7.13114e-07
-7.32843e-07
7.11853e-07
-7.32074e-07
-7.22818e-07
7.0784e-07
-7.21984e-07
-4.34171e-05
4.53629e-05
-4.7897e-07
-4.60276e-07
-4.77008e-07
4.53547e-05
4.33864e-05
-4.53299e-05
4.84275e-07
4.94053e-07
4.79128e-07
4.93576e-07
4.33689e-05
-4.53351e-05
7.12601e-07
-7.31689e-07
7.11657e-07
-7.31891e-07
-7.22205e-07
7.07143e-07
-7.21539e-07
-4.34155e-05
4.5363e-05
-4.77749e-07
-4.59918e-07
-4.7635e-07
4.53552e-05
4.33862e-05
-4.53304e-05
4.84142e-07
4.93766e-07
4.78652e-07
4.93484e-07
4.33685e-05
-4.5335e-05
7.12483e-07
-7.31727e-07
7.11268e-07
-7.31822e-07
-7.21975e-07
7.07275e-07
-7.21161e-07
-4.34157e-05
4.53631e-05
-4.77655e-07
-4.59468e-07
-4.75857e-07
4.53555e-05
4.33857e-05
-4.53304e-05
4.83654e-07
4.93784e-07
4.78619e-07
4.93245e-07
4.33688e-05
-4.53352e-05
7.12207e-07
-7.31573e-07
7.11148e-07
-7.31776e-07
-7.21409e-07
7.07111e-07
-7.21261e-07
-4.34154e-05
4.53631e-05
-4.76838e-07
-4.59853e-07
-4.7613e-07
4.53554e-05
4.33857e-05
-4.53298e-05
4.83703e-07
4.9355e-07
4.79138e-07
4.93674e-07
4.33685e-05
-4.5335e-05
7.12022e-07
-7.3174e-07
7.11672e-07
-7.31991e-07
-7.21753e-07
7.06944e-07
-7.21676e-07
-4.34155e-05
4.53628e-05
-4.77539e-07
-4.6006e-07
-4.76443e-07
4.53549e-05
4.33865e-05
-4.53294e-05
4.84255e-07
4.9415e-07
4.79704e-07
4.94358e-07
4.33689e-05
-4.53343e-05
7.12685e-07
-7.31977e-07
7.12061e-07
-7.32423e-07
-7.22208e-07
7.0785e-07
-7.22259e-07
-4.34159e-05
4.53623e-05
-4.77845e-07
-4.60758e-07
-4.77395e-07
4.53543e-05
4.33868e-05
-4.53294e-05
4.85022e-07
4.94834e-07
4.80047e-07
4.94589e-07
4.33694e-05
-4.53341e-05
7.1312e-07
-7.32739e-07
7.12037e-07
-7.32477e-07
-7.22771e-07
7.07904e-07
-7.22437e-07
-4.34165e-05
4.53619e-05
-4.78856e-07
-4.61305e-07
-4.77844e-07
4.53541e-05
4.33867e-05
-4.53296e-05
4.8505e-07
4.94837e-07
4.79871e-07
4.94675e-07
4.33696e-05
-4.5334e-05
7.12818e-07
-7.33051e-07
7.11832e-07
-7.32222e-07
-7.22819e-07
7.07987e-07
-7.22667e-07
-4.34167e-05
4.53618e-05
-4.79033e-07
-4.61383e-07
-4.7803e-07
4.5354e-05
4.33865e-05
-4.53298e-05
4.84911e-07
4.94914e-07
4.79664e-07
4.94233e-07
4.33697e-05
-4.53347e-05
7.12699e-07
-7.33685e-07
7.11738e-07
-7.30943e-07
-7.22991e-07
7.07252e-07
-7.22297e-07
-4.34167e-05
4.5362e-05
-4.79162e-07
-4.60992e-07
-4.77537e-07
4.53544e-05
4.33862e-05
-4.53303e-05
4.84351e-07
4.941e-07
4.79738e-07
4.94275e-07
4.3369e-05
-4.53349e-05
7.12243e-07
-7.34057e-07
7.12022e-07
-7.30532e-07
-7.22408e-07
7.07965e-07
-7.2255e-07
-4.34154e-05
4.5361e-05
-4.78452e-07
-4.61046e-07
-4.77599e-07
4.53548e-05
4.33856e-05
-4.53269e-05
4.82372e-07
4.92106e-07
4.84827e-07
4.99206e-07
4.33684e-05
-4.53317e-05
7.10627e-07
-7.32617e-07
7.16355e-07
-7.35247e-07
-7.20461e-07
7.12139e-07
-7.26931e-07
-4.34146e-05
4.53579e-05
-4.7616e-07
-4.66259e-07
-4.82736e-07
4.53516e-05
4.33804e-05
-4.52992e-05
4.75647e-07
4.85061e-07
4.88501e-07
5.03407e-07
4.33632e-05
-4.53036e-05
7.04227e-07
-7.26263e-07
7.21548e-07
-7.40964e-07
-7.14236e-07
7.17548e-07
-7.32429e-07
-4.34092e-05
4.53299e-05
-4.69455e-07
-4.70455e-07
-4.86845e-07
4.53239e-05
4.33276e-05
-4.50379e-05
4.80778e-07
4.89146e-07
4.32097e-07
4.47378e-07
4.33106e-05
-4.50425e-05
6.94947e-07
-7.1604e-07
6.90508e-07
-7.10987e-07
-7.0515e-07
6.86312e-07
-7.01643e-07
-4.33565e-05
4.50676e-05
-4.73837e-07
-4.1502e-07
-4.30514e-07
4.50619e-05
4.29528e-05
-4.48647e-05
5.70718e-07
5.78377e-07
1.345e-07
1.49623e-07
4.29356e-05
-4.4869e-05
7.38649e-07
-7.58393e-07
5.02762e-07
-5.23948e-07
-7.4837e-07
4.99439e-07
-5.1532e-07
-4.29812e-05
4.48943e-05
-5.64618e-07
-1.17606e-07
-1.30091e-07
4.48881e-05
4.29609e-05
-4.36457e-05
9.93637e-07
1.00054e-06
-5.44458e-07
-5.36797e-07
4.29424e-05
-4.36495e-05
1.04219e-06
-1.0612e-06
1.07417e-08
-3.04341e-08
-1.05014e-06
9.09891e-09
-2.46949e-08
-4.29873e-05
4.36788e-05
-9.84326e-07
5.67693e-07
5.63722e-07
4.36696e-05
4.13879e-05
-4.18397e-05
1.81422e-06
1.82834e-06
-1.84444e-06
-1.83481e-06
4.13686e-05
-4.18431e-05
1.57404e-06
-1.59005e-06
-1.17094e-06
1.16021e-06
-1.57998e-06
-1.16553e-06
1.15711e-06
-4.14114e-05
4.18719e-05
-1.80259e-06
1.87268e-06
1.86931e-06
4.18692e-05
3.86313e-05
-3.52436e-05
3.43088e-06
3.45209e-06
-6.7063e-06
-6.69811e-06
3.86215e-05
-3.52549e-05
2.9016e-06
-2.91208e-06
-5.01468e-06
5.02022e-06
-2.9038e-06
-4.99886e-06
5.02357e-06
-3.86508e-05
3.52725e-05