/*--------------------------------*- C++ -*----------------------------------*\
| =========                 |                                                 |
| \\      /  F ield         | OpenFOAM: The Open Source CFD Toolbox           |
|  \\    /   O peration     | Version:  2206                                  |
|   \\  /    A nd           | Website:  www.openfoam.com                      |
|    \\/     M anipulation  |                                                 |
\*---------------------------------------------------------------------------*/
FoamFile
{
    version     2.0;
    format      ascii;
    arch        "LSB;label=32;scalar=64";
    class       volScalarField;
    location    "32.5";
    object      p;
}
// * * * * * * * * * * * * * * * * * * * * * * * * * * * * * * * * * * * * * //

dimensions      [0 2 -2 0 0 0 0];

internalField   nonuniform List<scalar> 
28448
(
0.0011921
0.00119207
0.00119206
0.0011945
0.001151
0.00115096
0.00115096
0.00115339
0.00110989
0.00110985
0.00110985
0.00111228
0.00106879
0.00106875
0.00106875
0.00107118
0.00102768
0.00102765
0.00102765
0.00103008
0.000986583
0.000986546
0.000986547
0.000988979
0.000945477
0.000945439
0.000945438
0.000947871
0.000904366
0.000904328
0.000904328
0.00090676
0.000863263
0.000863225
0.000863226
0.000865658
0.000822163
0.000822125
0.000822125
0.000824557
0.000781065
0.000781027
0.000781027
0.000783459
0.000739967
0.00073993
0.000739929
0.000742362
0.000698871
0.000698833
0.000698833
0.000701265
0.000657776
0.000657738
0.000657738
0.00066017
0.000616679
0.000616641
0.000616641
0.000619074
0.000575583
0.000575545
0.000575545
0.000577977
0.000534487
0.000534449
0.000534449
0.000536882
0.000493392
0.000493354
0.00119992
0.00120234
0.00120234
0.00119992
0.00120234
0.00120234
0.00120234
0.00120234
0.00119992
0.00120234
0.00120234
0.00119992
0.0011945
0.00115881
0.00119207
0.00119207
0.00116123
0.00116123
0.0011945
0.00115881
0.00119207
0.00119207
0.00116123
0.00116123
0.00119207
0.00116123
0.00116123
0.0011945
0.00115881
0.00119207
0.00116123
0.00116123
0.00115881
0.00115339
0.0011177
0.00115096
0.00115096
0.00112013
0.00112013
0.00115339
0.0011177
0.00115096
0.00115096
0.00112013
0.00112013
0.00115096
0.00112013
0.00112013
0.00115339
0.0011177
0.00115096
0.00112013
0.00112013
0.0011177
0.00111228
0.0010766
0.00110985
0.00110985
0.00107902
0.00107902
0.00111228
0.0010766
0.00110985
0.00110985
0.00107902
0.00107902
0.00110985
0.00107902
0.00107902
0.00111228
0.0010766
0.00110985
0.00107902
0.00107902
0.0010766
0.00107118
0.0010355
0.00106875
0.00106875
0.00103792
0.00103792
0.00107118
0.0010355
0.00106875
0.00106875
0.00103792
0.00103792
0.00106875
0.00103792
0.00103792
0.00107118
0.0010355
0.00106875
0.00103792
0.00103792
0.0010355
0.00103008
0.000994396
0.00102765
0.00102765
0.000996821
0.000996821
0.00103008
0.000994396
0.00102765
0.00102765
0.000996821
0.000996822
0.00102765
0.000996821
0.000996822
0.00103008
0.000994397
0.00102765
0.000996822
0.000996822
0.000994397
0.000988979
0.000953291
0.000986546
0.000986546
0.000955716
0.000955716
0.000988979
0.000953291
0.000986546
0.000986547
0.000955716
0.000955716
0.000986547
0.000955716
0.000955716
0.000988979
0.000953291
0.000986547
0.000955716
0.000955716
0.00095329
0.000947872
0.000912179
0.000945439
0.000945439
0.000914605
0.000914605
0.000947872
0.000912179
0.000945439
0.000945438
0.000914605
0.000914605
0.000945438
0.000914605
0.000914605
0.000947871
0.000912178
0.000945438
0.000914605
0.000914605
0.000912178
0.00090676
0.000871075
0.000904328
0.000904328
0.000873501
0.0008735
0.00090676
0.000871075
0.000904328
0.000904328
0.000873501
0.000873501
0.000904328
0.000873501
0.000873501
0.00090676
0.000871076
0.000904328
0.000873501
0.000873501
0.000871076
0.000865658
0.000829975
0.000863225
0.000863225
0.0008324
0.0008324
0.000865657
0.000829975
0.000863225
0.000863226
0.0008324
0.0008324
0.000863226
0.0008324
0.0008324
0.000865658
0.000829975
0.000863226
0.0008324
0.0008324
0.000829975
0.000824557
0.000788876
0.000822125
0.000822125
0.000791301
0.000791301
0.000824557
0.000788876
0.000822125
0.000822125
0.000791301
0.000791301
0.000822125
0.000791301
0.000791301
0.000824557
0.000788876
0.000822125
0.000791301
0.000791301
0.000788876
0.000783459
0.000747779
0.000781027
0.000781027
0.000750204
0.000750204
0.000783459
0.000747779
0.000781027
0.000781027
0.000750204
0.000750204
0.000781027
0.000750204
0.000750204
0.000783459
0.000747779
0.000781027
0.000750204
0.000750204
0.000747779
0.000742362
0.000706682
0.000739929
0.000739929
0.000709107
0.000709107
0.000742362
0.000706682
0.000739929
0.000739929
0.000709107
0.000709107
0.00073993
0.000709107
0.000709107
0.000742361
0.000706682
0.000739929
0.000709107
0.000709107
0.000706682
0.000701265
0.000665587
0.000698833
0.000698833
0.000668012
0.000668011
0.000701265
0.000665587
0.000698833
0.000698833
0.000668011
0.000668011
0.000698833
0.000668012
0.000668012
0.000701265
0.000665587
0.000698833
0.000668011
0.000668012
0.000665587
0.00066017
0.000624491
0.000657738
0.000657737
0.000626916
0.000626915
0.00066017
0.000624491
0.000657737
0.000657738
0.000626915
0.000626916
0.000657738
0.000626915
0.000626916
0.00066017
0.000624491
0.000657738
0.000626916
0.000626915
0.000624491
0.000619074
0.000583394
0.000616641
0.000616641
0.000585819
0.000585819
0.000619073
0.000583394
0.000616641
0.000616641
0.000585819
0.000585819
0.000616641
0.000585819
0.000585819
0.000619074
0.000583394
0.000616641
0.000585819
0.000585819
0.000583394
0.000577977
0.000542298
0.000575545
0.000575545
0.000544723
0.000544723
0.000577977
0.000542298
0.000575545
0.000575545
0.000544723
0.000544723
0.000575545
0.000544723
0.000544723
0.000577977
0.000542298
0.000575545
0.000544723
0.000544723
0.000542298
0.000536881
0.000501203
0.000534449
0.000534449
0.000503628
0.000536881
0.000534449
0.000534449
0.000503628
0.000503628
0.00053445
0.000503628
0.000536881
0.000501203
0.000534449
0.000503628
0.000503628
0.000501203
0.000495786
0.000493354
0.000493354
0.000495786
0.00120238
0.00120238
0.00120238
0.00120238
0.00117925
0.00119464
0.00119464
0.00117925
0.00119464
0.00117925
0.00117925
0.00119464
0.00119464
0.00117925
0.0011921
0.0011921
0.0011921
0.00116127
0.00116127
0.00116127
0.00116127
0.0011793
0.0011946
0.00119207
0.00118179
0.00119459
0.00117928
0.0011818
0.00119464
0.00117925
0.0011793
0.00119207
0.0011946
0.00118179
0.00119459
0.0011818
0.00117928
0.00119464
0.00119464
0.00117936
0.00117925
0.00117925
0.00113814
0.00115353
0.00115353
0.00113814
0.00115353
0.00113814
0.00113814
0.00115353
0.00115353
0.00113814
0.001151
0.001151
0.001151
0.00112017
0.00112017
0.00112017
0.00112017
0.00113819
0.0011535
0.00115097
0.00114068
0.00115349
0.00113817
0.00114069
0.00115353
0.00113814
0.00113819
0.00115097
0.0011535
0.00114068
0.00115349
0.00114069
0.00113817
0.00115353
0.00115353
0.00113826
0.00113814
0.00113814
0.00109704
0.00111242
0.00111243
0.00109704
0.00111242
0.00109704
0.00109704
0.00111242
0.00111243
0.00109704
0.00110989
0.00110989
0.00110989
0.00107906
0.00107906
0.00107906
0.00107906
0.00109709
0.00111239
0.00110986
0.00109958
0.00111238
0.00109707
0.00109958
0.00111242
0.00109704
0.00109709
0.00110986
0.00111239
0.00109958
0.00111238
0.00109958
0.00109707
0.00111243
0.00111243
0.00109715
0.00109703
0.00109703
0.00105593
0.00107132
0.00107132
0.00105593
0.00107132
0.00105593
0.00105593
0.00107132
0.00107132
0.00105593
0.00106879
0.00106879
0.00106878
0.00103796
0.00103796
0.00103796
0.00103796
0.00105598
0.00107129
0.00106876
0.00105847
0.00107128
0.00105596
0.00105848
0.00107132
0.00105593
0.00105598
0.00106876
0.00107129
0.00105847
0.00107127
0.00105848
0.00105596
0.00107132
0.00107132
0.00105605
0.00105593
0.00105593
0.00101483
0.00103022
0.00103022
0.00101483
0.00103022
0.00101483
0.00101483
0.00103022
0.00103022
0.00101483
0.00102768
0.00102768
0.00102768
0.000996859
0.000996859
0.000996859
0.000996859
0.00101488
0.00103018
0.00102765
0.00101737
0.00103017
0.00101486
0.00101738
0.00103022
0.00101483
0.00101488
0.00102765
0.00103018
0.00101737
0.00103017
0.00101738
0.00101486
0.00103022
0.00103022
0.00101495
0.00101483
0.00101483
0.000973733
0.000989117
0.00098912
0.000973736
0.000989118
0.000973734
0.000973733
0.000989117
0.000989121
0.000973736
0.000986583
0.000986584
0.000986584
0.000955755
0.000955754
0.000955754
0.000955754
0.000973782
0.000989085
0.000986555
0.00097627
0.000989075
0.000973765
0.000976279
0.00098912
0.000973735
0.000973783
0.000986556
0.000989087
0.00097627
0.000989077
0.000976279
0.000973766
0.000989123
0.000989124
0.000973845
0.000973732
0.000973732
0.000932624
0.000948012
0.000948017
0.000932624
0.000948013
0.000932622
0.000932623
0.000948011
0.000948016
0.000932623
0.000945477
0.000945476
0.000945476
0.000914643
0.000914643
0.000914643
0.000914642
0.00093267
0.00094798
0.000945448
0.000935161
0.000947969
0.000932654
0.00093517
0.000948011
0.00093262
0.00093267
0.000945447
0.000947979
0.00093516
0.000947968
0.000935169
0.000932652
0.000948015
0.000948015
0.000932733
0.000932617
0.000932617
0.000891513
0.000906898
0.000906901
0.000891514
0.000906899
0.000891513
0.000891513
0.000906898
0.000906901
0.000891515
0.000904366
0.000904366
0.000904366
0.000873539
0.000873539
0.000873539
0.000873539
0.000891563
0.000906866
0.000904337
0.000894052
0.000906856
0.000891545
0.000894061
0.000906899
0.000891514
0.000891563
0.000904337
0.000906866
0.000894052
0.000906856
0.000894061
0.000891545
0.000906903
0.000906903
0.000891627
0.000891511
0.000891511
0.000850412
0.000865795
0.000865799
0.000850413
0.000865797
0.000850412
0.000850412
0.000865795
0.000865799
0.000850413
0.000863263
0.000863264
0.000863263
0.000832438
0.000832438
0.000832438
0.000832438
0.000850461
0.000865764
0.000863234
0.00085295
0.000865754
0.000850444
0.000852959
0.000865797
0.000850412
0.000850462
0.000863235
0.000865764
0.00085295
0.000865754
0.000852959
0.000850444
0.000865801
0.000865801
0.000850525
0.000850409
0.000850409
0.000809313
0.000824695
0.000824698
0.000809314
0.000824696
0.000809312
0.000809313
0.000824695
0.000824698
0.000809314
0.000822163
0.000822163
0.000822163
0.000791339
0.000791339
0.000791339
0.000791339
0.000809362
0.000824663
0.000822134
0.00081185
0.000824654
0.000809344
0.000811859
0.000824696
0.000809312
0.000809362
0.000822134
0.000824664
0.00081185
0.000824653
0.000811859
0.000809344
0.0008247
0.0008247
0.000809425
0.000809309
0.000809309
0.000768215
0.000783597
0.0007836
0.000768216
0.000783598
0.000768215
0.000768215
0.000783597
0.000783601
0.000768216
0.000781065
0.000781065
0.000781065
0.000750242
0.000750242
0.000750242
0.000750242
0.000768264
0.000783565
0.000781036
0.000770752
0.000783555
0.000768246
0.000770761
0.000783598
0.000768215
0.000768264
0.000781036
0.000783565
0.000770752
0.000783555
0.000770761
0.000768246
0.000783602
0.000783602
0.000768327
0.000768212
0.000768212
0.000727118
0.000742499
0.000742503
0.000727119
0.000742501
0.000727118
0.000727118
0.000742499
0.000742503
0.000727119
0.000739967
0.000739967
0.000739967
0.000709145
0.000709145
0.000709145
0.000709145
0.000727167
0.000742468
0.000739939
0.000729655
0.000742458
0.000727149
0.000729664
0.000742501
0.000727117
0.000727167
0.000739938
0.000742468
0.000729655
0.000742458
0.000729664
0.000727149
0.000742505
0.000742505
0.00072723
0.000727114
0.000727114
0.000686022
0.000701403
0.000701406
0.000686023
0.000701404
0.000686022
0.000686022
0.000701403
0.000701407
0.000686023
0.000698871
0.000698871
0.000698871
0.000668049
0.000668049
0.000668049
0.000668049
0.000686071
0.000701371
0.000698842
0.000688559
0.000701361
0.000686053
0.000688568
0.000701405
0.000686022
0.000686071
0.000698842
0.000701372
0.000688559
0.000701361
0.000688568
0.000686053
0.000701408
0.000701408
0.000686134
0.000686019
0.000686019
0.000644927
0.000660307
0.000660311
0.000644927
0.000660309
0.000644926
0.000644926
0.000660307
0.000660311
0.000644927
0.000657775
0.000657776
0.000657775
0.000626953
0.000626953
0.000626953
0.000626953
0.000644975
0.000660276
0.000657747
0.000647464
0.000660266
0.000644958
0.000647473
0.000660309
0.000644926
0.000644975
0.000657747
0.000660276
0.000647464
0.000660266
0.000647473
0.000644958
0.000660313
0.000660313
0.000645039
0.000644923
0.000644923
0.00060383
0.000619211
0.000619215
0.000603831
0.000619213
0.00060383
0.00060383
0.000619211
0.000619215
0.000603831
0.000616679
0.000616679
0.000616679
0.000585857
0.000585857
0.000585857
0.000585857
0.000603879
0.00061918
0.00061665
0.000606367
0.00061917
0.000603861
0.000606376
0.000619213
0.00060383
0.000603879
0.00061665
0.00061918
0.000606367
0.00061917
0.000606376
0.000603861
0.000619217
0.000619217
0.000603942
0.000603826
0.000603826
0.000562734
0.000578115
0.000578118
0.000562735
0.000578116
0.000562734
0.000562733
0.000578115
0.000578118
0.000562735
0.000575583
0.000575583
0.000575583
0.000544761
0.000544761
0.000544761
0.000544761
0.000562782
0.000578083
0.000575554
0.000565271
0.000578073
0.000562765
0.00056528
0.000578116
0.000562733
0.000562782
0.000575554
0.000578083
0.000565271
0.000578073
0.00056528
0.000562765
0.00057812
0.00057812
0.000562846
0.00056273
0.00056273
0.000521638
0.000537019
0.000537022
0.000521639
0.000537021
0.000521638
0.000521638
0.000537019
0.000537023
0.000521639
0.000534487
0.000534487
0.000534487
0.000503666
0.000503666
0.000503666
0.000503666
0.000521687
0.000536988
0.000534458
0.000524176
0.000536978
0.00052167
0.000524185
0.000537021
0.000521638
0.000521687
0.000534458
0.000536988
0.000524175
0.000536977
0.000524184
0.000521669
0.000537025
0.000537025
0.000521751
0.000521635
0.000521635
0.000495924
0.000495928
0.000493392
0.000495925
0.000495892
0.0011998
0.0011998
0.0011998
0.0011998
0.00119981
0.0011998
0.00119981
0.0011998
0.00119984
0.00120235
0.00119985
0.00119984
0.00120235
0.00119985
0.0011998
0.0011998
0.0011998
0.0011998
0.00119981
0.0011998
0.00119984
0.00120235
0.00119985
0.00121519
0.0011998
0.00121519
0.0011998
0.00121515
0.00121262
0.00120235
0.00119983
0.00121263
0.00121516
0.00119985
0.00121515
0.00119984
0.00120235
0.00121263
0.00119985
0.00121519
0.00119981
0.0011998
0.00121515
0.00121262
0.00120235
0.00119983
0.00121263
0.00121516
0.00119985
0.00121519
0.0011998
0.00121519
0.0011998
0.0011998
0.00121519
0.00121505
0.0011998
0.0011998
0.00121519
0.0012152
0.0011998
0.00121519
0.00121515
0.00121262
0.00120235
0.00119983
0.00121263
0.00121516
0.00119985
0.00121515
0.00121262
0.00120235
0.00119983
0.00121263
0.00121516
0.00119985
0.00121519
0.0011998
0.00121519
0.0011998
0.00121519
0.0011998
0.00121519
0.0011998
0.00121505
0.0011998
0.0011998
0.0012152
0.00121519
0.0011998
0.00121519
0.0011998
0.00121519
0.00119464
0.00117925
0.00119464
0.00117925
0.00119464
0.00119464
0.00117936
0.00117925
0.00117925
0.0011587
0.00117408
0.0011587
0.00117408
0.00117394
0.00115869
0.00115869
0.00117409
0.00117409
0.00117925
0.00119464
0.00119464
0.00117925
0.0011793
0.0011946
0.00119207
0.00118179
0.00119459
0.00117928
0.0011818
0.0011793
0.0011946
0.00119207
0.00118179
0.00119459
0.00117928
0.0011818
0.00117408
0.0011587
0.00117408
0.0011587
0.00117409
0.0011587
0.00117408
0.0011587
0.00117404
0.00117151
0.00115873
0.00116124
0.00117405
0.00117152
0.00115875
0.00117404
0.00117151
0.00115873
0.00116124
0.00117405
0.00117152
0.00115875
0.00119464
0.00119464
0.00117936
0.00117925
0.00117925
0.00119464
0.00117925
0.0011587
0.00117408
0.00117394
0.00115869
0.00115869
0.00117409
0.00117409
0.0011587
0.00117408
0.0011793
0.0011946
0.00119207
0.00118179
0.00119459
0.00117928
0.0011818
0.00117925
0.00119463
0.00119464
0.00117925
0.0011793
0.00119207
0.0011946
0.00118179
0.00119459
0.0011818
0.00117928
0.00117409
0.0011587
0.00117408
0.0011587
0.00117404
0.00117151
0.00115873
0.00116124
0.00117405
0.00117152
0.00115875
0.00117409
0.0011587
0.00117408
0.0011587
0.00117404
0.00117151
0.00116124
0.00115873
0.00117152
0.00117405
0.00115875
0.00117925
0.00119464
0.00119464
0.00117925
0.0011793
0.00119207
0.0011946
0.00118179
0.00119459
0.0011818
0.00117928
0.00117925
0.00119464
0.00119464
0.00117925
0.00117404
0.00117151
0.00115873
0.00116124
0.00117405
0.00117152
0.00115875
0.00117409
0.0011587
0.00117408
0.0011587
0.00117404
0.00117151
0.00116124
0.00115873
0.00117152
0.00117405
0.00115875
0.00117409
0.0011587
0.00117408
0.0011587
0.00119464
0.00119464
0.00117936
0.00117925
0.00117925
0.00119464
0.00117925
0.0011587
0.00117408
0.00117394
0.00115869
0.00115869
0.00117409
0.00117409
0.0011587
0.00117408
0.0011793
0.00119207
0.0011946
0.00118179
0.00119459
0.0011818
0.00117928
0.00117925
0.00119463
0.00119464
0.00117925
0.00117925
0.00119464
0.00119464
0.00117925
0.00117404
0.00117151
0.00116124
0.00115873
0.00117152
0.00117405
0.00115875
0.00117404
0.00117151
0.00116124
0.00115873
0.00117152
0.00117405
0.00115875
0.00117409
0.0011587
0.00117408
0.0011587
0.00117409
0.0011587
0.00117408
0.0011587
0.00119464
0.00117925
0.00119464
0.00117925
0.00117394
0.00115869
0.00115869
0.00117409
0.00117409
0.0011587
0.00117408
0.0011587
0.00117408
0.00115353
0.00113814
0.00115353
0.00113814
0.00115353
0.00115353
0.00113826
0.00113814
0.00113814
0.00111759
0.00113298
0.00111759
0.00113298
0.00113284
0.00111759
0.00111759
0.00113298
0.00113298
0.00113814
0.00115353
0.00115353
0.00113814
0.00113819
0.0011535
0.00115097
0.00114068
0.00115349
0.00113817
0.00114069
0.00113819
0.0011535
0.00115097
0.00114068
0.00115349
0.00113817
0.00114069
0.00113298
0.00111759
0.00113298
0.00111759
0.00113298
0.00111759
0.00113297
0.00111759
0.00113293
0.00113041
0.00111762
0.00112014
0.00113294
0.00113041
0.00111764
0.00113293
0.0011304
0.00111762
0.00112014
0.00113294
0.00113041
0.00111764
0.00115353
0.00115353
0.00113826
0.00113814
0.00113814
0.00115353
0.00113814
0.00111759
0.00113298
0.00113284
0.00111759
0.00111759
0.00113298
0.00113298
0.00111759
0.00113298
0.00113819
0.0011535
0.00115097
0.00114068
0.00115349
0.00113817
0.00114069
0.00113814
0.00115353
0.00115353
0.00113814
0.00113819
0.00115097
0.0011535
0.00114068
0.00115349
0.00114069
0.00113817
0.00113298
0.00111759
0.00113298
0.00111759
0.00113293
0.0011304
0.00111762
0.00112014
0.00113294
0.00113041
0.00111764
0.00113298
0.00111759
0.00113298
0.00111759
0.00113293
0.0011304
0.00112014
0.00111762
0.00113041
0.00113294
0.00111764
0.00113814
0.00115353
0.00115353
0.00113814
0.00113819
0.00115097
0.0011535
0.00114068
0.00115349
0.00114069
0.00113817
0.00113814
0.00115353
0.00115353
0.00113814
0.00113293
0.0011304
0.00111762
0.00112014
0.00113294
0.00113041
0.00111764
0.00113298
0.00111759
0.00113297
0.00111759
0.00113293
0.00113041
0.00112014
0.00111762
0.00113041
0.00113294
0.00111764
0.00113298
0.00111759
0.00113297
0.00111759
0.00115353
0.00115353
0.00113826
0.00113814
0.00113814
0.00115353
0.00113814
0.00111759
0.00113298
0.00113284
0.00111759
0.00111759
0.00113298
0.00113298
0.00111759
0.00113298
0.00113819
0.00115097
0.0011535
0.00114068
0.00115349
0.00114069
0.00113817
0.00113814
0.00115353
0.00115353
0.00113814
0.00113814
0.00115353
0.00115353
0.00113814
0.00113293
0.0011304
0.00112014
0.00111762
0.00113041
0.00113294
0.00111764
0.00113293
0.0011304
0.00112014
0.00111762
0.00113041
0.00113294
0.00111764
0.00113298
0.00111759
0.00113298
0.00111759
0.00113298
0.00111759
0.00113298
0.00111759
0.00115353
0.00113814
0.00115353
0.00113814
0.00113284
0.00111759
0.00111759
0.00113298
0.00113298
0.00111759
0.00113298
0.00111759
0.00113298
0.00111242
0.00109704
0.00111242
0.00109704
0.00111243
0.00111243
0.00109715
0.00109703
0.00109703
0.00107648
0.00109187
0.00107648
0.00109187
0.00109173
0.00107648
0.00107648
0.00109187
0.00109187
0.00109704
0.00111242
0.00111243
0.00109704
0.00109709
0.00111239
0.00110986
0.00109958
0.00111238
0.00109707
0.00109958
0.00109709
0.00111239
0.00110986
0.00109958
0.00111238
0.00109707
0.00109958
0.00109187
0.00107649
0.00109187
0.00107648
0.00109187
0.00107649
0.00109187
0.00107648
0.00109183
0.0010893
0.00107652
0.00107903
0.00109184
0.00108931
0.00107653
0.00109183
0.0010893
0.00107652
0.00107903
0.00109184
0.00108931
0.00107653
0.00111243
0.00111243
0.00109715
0.00109703
0.00109703
0.00111242
0.00109704
0.00107648
0.00109187
0.00109173
0.00107648
0.00107648
0.00109187
0.00109187
0.00107648
0.00109187
0.00109709
0.00111239
0.00110986
0.00109958
0.00111238
0.00109707
0.00109958
0.00109704
0.00111242
0.00111243
0.00109704
0.00109709
0.00110986
0.00111239
0.00109958
0.00111238
0.00109958
0.00109707
0.00109187
0.00107649
0.00109187
0.00107648
0.00109183
0.0010893
0.00107652
0.00107903
0.00109184
0.00108931
0.00107653
0.00109187
0.00107649
0.00109187
0.00107648
0.00109183
0.0010893
0.00107903
0.00107652
0.00108931
0.00109184
0.00107653
0.00109704
0.00111242
0.00111243
0.00109704
0.00109709
0.00110986
0.00111239
0.00109958
0.00111238
0.00109958
0.00109707
0.00109704
0.00111242
0.00111243
0.00109704
0.00109183
0.0010893
0.00107652
0.00107903
0.00109184
0.00108931
0.00107653
0.00109187
0.00107649
0.00109187
0.00107648
0.00109183
0.0010893
0.00107903
0.00107652
0.00108931
0.00109184
0.00107653
0.00109187
0.00107649
0.00109187
0.00107648
0.00111243
0.00111243
0.00109715
0.00109703
0.00109703
0.00111242
0.00109704
0.00107648
0.00109187
0.00109173
0.00107648
0.00107648
0.00109187
0.00109187
0.00107648
0.00109187
0.00109709
0.00110986
0.00111239
0.00109958
0.00111238
0.00109958
0.00109707
0.00109704
0.00111242
0.00111243
0.00109704
0.00109704
0.00111242
0.00111243
0.00109704
0.00109183
0.0010893
0.00107903
0.00107652
0.00108931
0.00109184
0.00107653
0.00109183
0.0010893
0.00107903
0.00107652
0.00108931
0.00109184
0.00107653
0.00109187
0.00107649
0.00109187
0.00107648
0.00109187
0.00107649
0.00109187
0.00107648
0.00111242
0.00109704
0.00111242
0.00109704
0.00109173
0.00107648
0.00107648
0.00109187
0.00109187
0.00107648
0.00109187
0.00107648
0.00109187
0.00107132
0.00105593
0.00107132
0.00105593
0.00107132
0.00107132
0.00105605
0.00105593
0.00105593
0.00103538
0.00105077
0.00103538
0.00105077
0.00105063
0.00103538
0.00103538
0.00105077
0.00105077
0.00105593
0.00107132
0.00107132
0.00105593
0.00105598
0.00107129
0.00106876
0.00105847
0.00107128
0.00105596
0.00105848
0.00105598
0.00107129
0.00106876
0.00105847
0.00107128
0.00105596
0.00105848
0.00105077
0.00103538
0.00105077
0.00103538
0.00105077
0.00103538
0.00105077
0.00103538
0.00105072
0.0010482
0.00103541
0.00103793
0.00105073
0.00104821
0.00103543
0.00105072
0.0010482
0.00103541
0.00103793
0.00105073
0.00104821
0.00103543
0.00107132
0.00107132
0.00105605
0.00105593
0.00105593
0.00107132
0.00105593
0.00103538
0.00105077
0.00105063
0.00103538
0.00103538
0.00105077
0.00105077
0.00103538
0.00105077
0.00105598
0.00107129
0.00106876
0.00105847
0.00107128
0.00105596
0.00105848
0.00105593
0.00107132
0.00107132
0.00105593
0.00105598
0.00106876
0.00107129
0.00105847
0.00107128
0.00105848
0.00105596
0.00105077
0.00103538
0.00105077
0.00103538
0.00105072
0.0010482
0.00103541
0.00103793
0.00105073
0.00104821
0.00103543
0.00105077
0.00103538
0.00105077
0.00103538
0.00105072
0.0010482
0.00103793
0.00103541
0.00104821
0.00105073
0.00103543
0.00105593
0.00107132
0.00107132
0.00105593
0.00105598
0.00106876
0.00107129
0.00105847
0.00107128
0.00105848
0.00105596
0.00105593
0.00107132
0.00107132
0.00105593
0.00105072
0.0010482
0.00103541
0.00103793
0.00105073
0.00104821
0.00103543
0.00105077
0.00103538
0.00105077
0.00103538
0.00105072
0.0010482
0.00103793
0.00103541
0.00104821
0.00105073
0.00103543
0.00105077
0.00103538
0.00105077
0.00103538
0.00107132
0.00107132
0.00105605
0.00105593
0.00105593
0.00107132
0.00105593
0.00103538
0.00105077
0.00105063
0.00103538
0.00103538
0.00105077
0.00105077
0.00103538
0.00105077
0.00105598
0.00106876
0.00107129
0.00105847
0.00107127
0.00105848
0.00105596
0.00105593
0.00107132
0.00107132
0.00105593
0.00105593
0.00107132
0.00107132
0.00105593
0.00105072
0.0010482
0.00103793
0.00103541
0.0010482
0.00105073
0.00103543
0.00105072
0.0010482
0.00103793
0.00103541
0.0010482
0.00105073
0.00103543
0.00105077
0.00103538
0.00105076
0.00103538
0.00105077
0.00103538
0.00105076
0.00103538
0.00107132
0.00105593
0.00107132
0.00105593
0.00105063
0.00103538
0.00103538
0.00105077
0.00105077
0.00103538
0.00105077
0.00103538
0.00105077
0.00103022
0.00101483
0.00103022
0.00101483
0.00103022
0.00103022
0.00101495
0.00101483
0.00101483
0.000994283
0.00100967
0.000994284
0.00100967
0.00100953
0.00099428
0.00099428
0.00100967
0.00100967
0.00101483
0.00103022
0.00103022
0.00101483
0.00101488
0.00103018
0.00102765
0.00101737
0.00103017
0.00101486
0.00101738
0.00101488
0.00103018
0.00102765
0.00101737
0.00103017
0.00101486
0.00101738
0.00100967
0.000994284
0.00100967
0.000994284
0.00100967
0.000994284
0.00100967
0.000994284
0.00100962
0.0010071
0.000994314
0.00099683
0.00100963
0.0010071
0.000994332
0.00100962
0.0010071
0.000994315
0.00099683
0.00100963
0.0010071
0.000994332
0.00103022
0.00103022
0.00101495
0.00101483
0.00101483
0.00103022
0.00101483
0.000994283
0.00100967
0.00100953
0.00099428
0.00099428
0.00100967
0.00100967
0.000994283
0.00100967
0.00101488
0.00103018
0.00102765
0.00101737
0.00103017
0.00101486
0.00101738
0.00101483
0.00103022
0.00103022
0.00101483
0.00101488
0.00102765
0.00103018
0.00101737
0.00103017
0.00101738
0.00101486
0.00100967
0.000994285
0.00100967
0.000994284
0.00100962
0.0010071
0.000994315
0.00099683
0.00100963
0.0010071
0.000994333
0.00100967
0.000994286
0.00100967
0.000994284
0.00100962
0.0010071
0.00099683
0.000994316
0.0010071
0.00100963
0.000994333
0.00101483
0.00103022
0.00103022
0.00101483
0.00101488
0.00102765
0.00103018
0.00101737
0.00103017
0.00101738
0.00101486
0.00101483
0.00103022
0.00103022
0.00101483
0.00100962
0.0010071
0.000994315
0.00099683
0.00100963
0.0010071
0.000994333
0.00100967
0.000994285
0.00100967
0.000994284
0.00100962
0.0010071
0.00099683
0.000994316
0.0010071
0.00100963
0.000994333
0.00100967
0.000994286
0.00100967
0.000994285
0.00103022
0.00103022
0.00101495
0.00101483
0.00101483
0.00103022
0.00101483
0.000994285
0.00100967
0.00100953
0.000994282
0.000994282
0.00100967
0.00100967
0.000994286
0.00100967
0.00101488
0.00102765
0.00103018
0.00101737
0.00103017
0.00101738
0.00101486
0.00101484
0.00103022
0.00103022
0.00101484
0.00101483
0.00103022
0.00103022
0.00101483
0.00100963
0.0010071
0.000996831
0.000994316
0.00100711
0.00100964
0.000994335
0.00100963
0.0010071
0.000996831
0.000994317
0.00100711
0.00100964
0.000994335
0.00100967
0.000994287
0.00100967
0.000994287
0.00100967
0.000994288
0.00100967
0.000994288
0.00103022
0.00101483
0.00103022
0.00101483
0.00100953
0.000994281
0.000994282
0.00100967
0.00100967
0.000994285
0.00100967
0.000994286
0.00100967
0.000989118
0.000973735
0.000989118
0.000973735
0.000989122
0.000989122
0.000973845
0.000973731
0.000973731
0.000953181
0.000968568
0.000953181
0.000968569
0.000968427
0.000953178
0.000953178
0.000968572
0.000968573
0.000973733
0.000989117
0.00098912
0.000973736
0.000973782
0.000989085
0.000986555
0.000976271
0.000989075
0.000973765
0.000976279
0.000973782
0.000989085
0.000986555
0.00097627
0.000989075
0.000973765
0.000976279
0.000968569
0.000953182
0.000968567
0.000953182
0.000968569
0.000953182
0.000968567
0.000953182
0.000968524
0.000965994
0.000953212
0.000955725
0.000968535
0.000966003
0.000953229
0.000968524
0.000965994
0.000953212
0.000955725
0.000968535
0.000966003
0.000953229
0.000989122
0.000989122
0.000973845
0.000973731
0.000973732
0.000989119
0.000973735
0.000953181
0.000968568
0.000968427
0.000953178
0.000953178
0.000968572
0.000968572
0.00095318
0.000968569
0.000973782
0.000989085
0.000986555
0.00097627
0.000989075
0.000973765
0.000976279
0.000973733
0.000989118
0.000989121
0.000973736
0.000973782
0.000986555
0.000989086
0.00097627
0.000989075
0.000976279
0.000973765
0.00096857
0.000953182
0.000968567
0.000953182
0.000968524
0.000965994
0.000953212
0.000955725
0.000968535
0.000966002
0.000953229
0.00096857
0.00095318
0.000968566
0.000953182
0.000968524
0.000965993
0.000955725
0.000953211
0.000966002
0.000968535
0.000953228
0.000973734
0.000989117
0.00098912
0.000973736
0.000973782
0.000986555
0.000989086
0.00097627
0.000989075
0.000976279
0.000973765
0.000973734
0.000989118
0.00098912
0.000973736
0.000968524
0.000965994
0.000953211
0.000955725
0.000968535
0.000966002
0.000953228
0.00096857
0.000953181
0.000968567
0.000953182
0.000968524
0.000965993
0.000955725
0.00095321
0.000966002
0.000968535
0.000953228
0.00096857
0.00095318
0.000968566
0.000953182
0.000989123
0.000989124
0.000973845
0.000973732
0.000973732
0.00098912
0.000973735
0.000953179
0.000968568
0.000968427
0.000953176
0.000953176
0.000968572
0.000968573
0.000953179
0.000968569
0.000973783
0.000986556
0.000989088
0.00097627
0.000989077
0.00097628
0.000973766
0.000973734
0.000989119
0.000989122
0.000973736
0.000973734
0.00098912
0.000989123
0.000973736
0.000968524
0.000965993
0.000955725
0.000953211
0.000966002
0.000968535
0.000953228
0.000968524
0.000965993
0.000955725
0.00095321
0.000966002
0.000968535
0.000953228
0.00096857
0.00095318
0.000968567
0.000953181
0.00096857
0.00095318
0.000968566
0.000953181
0.00098912
0.000973735
0.000989121
0.000973735
0.000968427
0.000953176
0.000953176
0.000968572
0.000968573
0.000953179
0.000968568
0.000953179
0.000968568
0.000948013
0.000932622
0.000948013
0.000932622
0.000948018
0.000948017
0.000932735
0.000932619
0.000932619
0.000912066
0.000927454
0.000912065
0.000927454
0.000927315
0.000912063
0.000912063
0.000927459
0.000927459
0.000932624
0.000948011
0.000948017
0.000932624
0.000932672
0.00094798
0.000945448
0.000935161
0.00094797
0.000932654
0.00093517
0.000932672
0.00094798
0.000945448
0.000935161
0.00094797
0.000932654
0.00093517
0.000927458
0.000912067
0.000927453
0.000912066
0.000927458
0.000912067
0.000927453
0.000912066
0.000927412
0.000924883
0.000912097
0.000914614
0.000927422
0.000924892
0.000912115
0.000927412
0.000924883
0.000912097
0.000914614
0.000927422
0.000924892
0.000912115
0.000948017
0.000948017
0.000932735
0.000932619
0.000932619
0.000948013
0.000932621
0.000912066
0.000927454
0.000927315
0.000912063
0.000912063
0.000927459
0.000927458
0.000912065
0.000927454
0.000932671
0.00094798