/*--------------------------------*- C++ -*----------------------------------*\
| =========                 |                                                 |
| \\      /  F ield         | OpenFOAM: The Open Source CFD Toolbox           |
|  \\    /   O peration     | Version:  2206                                  |
|   \\  /    A nd           | Website:  www.openfoam.com                      |
|    \\/     M anipulation  |                                                 |
\*---------------------------------------------------------------------------*/
FoamFile
{
    version     2.0;
    format      ascii;
    arch        "LSB;label=32;scalar=64";
    class       volScalarField;
    location    "19";
    object      epsilon;
}
// * * * * * * * * * * * * * * * * * * * * * * * * * * * * * * * * * * * * * //

dimensions      [0 2 -3 0 0 0 0];

internalField   nonuniform List<scalar> 
28688
(
4.95529e-07
4.97336e-07
4.97336e-07
4.99567e-07
4.45563e-07
4.53739e-07
4.53741e-07
4.63707e-07
4.0449e-07
4.18889e-07
4.18893e-07
4.39514e-07
3.66198e-07
3.87149e-07
3.87156e-07
4.17398e-07
3.44822e-07
3.64831e-07
3.64838e-07
3.93605e-07
3.41216e-07
3.6054e-07
3.60547e-07
3.87603e-07
3.41001e-07
3.60255e-07
3.60262e-07
3.87257e-07
3.41e-07
3.60254e-07
3.60261e-07
3.87282e-07
3.41e-07
3.60254e-07
3.6026e-07
3.87272e-07
3.41e-07
3.60254e-07
3.6026e-07
3.87273e-07
3.41e-07
3.60253e-07
3.6026e-07
3.87274e-07
3.41e-07
3.60253e-07
3.6026e-07
3.87274e-07
5.06418e-07
5.05588e-07
5.05586e-07
5.06418e-07
5.05587e-07
5.05586e-07
5.09681e-07
5.09681e-07
5.09681e-07
5.09681e-07
5.05588e-07
5.05588e-07
5.06419e-07
5.05588e-07
5.05587e-07
5.06419e-07
4.99567e-07
4.67275e-07
4.97337e-07
4.97341e-07
4.63843e-07
4.63851e-07
4.99567e-07
4.67272e-07
4.97341e-07
4.97342e-07
4.63847e-07
4.63853e-07
4.97338e-07
4.63839e-07
4.63844e-07
4.99567e-07
4.67278e-07
4.9734e-07
4.63841e-07
4.63848e-07
4.67278e-07
4.63707e-07
4.41444e-07
4.53745e-07
4.53753e-07
4.2684e-07
4.26848e-07
4.63705e-07
4.41437e-07
4.53749e-07
4.53756e-07
4.26841e-07
4.26853e-07
4.53747e-07
4.26832e-07
4.26842e-07
4.63709e-07
4.41448e-07
4.53749e-07
4.26836e-07
4.26843e-07
4.41446e-07
4.3951e-07
4.19172e-07
4.18899e-07
4.18907e-07
3.95118e-07
3.95124e-07
4.39509e-07
4.19164e-07
4.18899e-07
4.18912e-07
3.95113e-07
3.9513e-07
4.18902e-07
3.95105e-07
3.95121e-07
4.39516e-07
4.19178e-07
4.189e-07
3.95111e-07
3.95115e-07
4.19176e-07
4.17393e-07
3.94721e-07
3.87165e-07
3.87171e-07
3.68243e-07
3.68249e-07
4.17386e-07
3.94712e-07
3.87159e-07
3.87177e-07
3.68235e-07
3.68256e-07
3.87168e-07
3.68228e-07
3.68246e-07
4.17399e-07
3.94727e-07
3.87161e-07
3.68236e-07
3.68236e-07
3.94725e-07
3.936e-07
3.87463e-07
3.64847e-07
3.64853e-07
3.6089e-07
3.60894e-07
3.93596e-07
3.87456e-07
3.64839e-07
3.6486e-07
3.6088e-07
3.60901e-07
3.64851e-07
3.60876e-07
3.60893e-07
3.93607e-07
3.8747e-07
3.64839e-07
3.60883e-07
3.6088e-07
3.87468e-07
3.876e-07
3.87048e-07
3.60556e-07
3.60559e-07
3.6028e-07
3.60284e-07
3.87593e-07
3.87039e-07
3.60546e-07
3.60567e-07
3.6027e-07
3.60292e-07
3.60559e-07
3.60266e-07
3.60283e-07
3.87607e-07
3.87054e-07
3.60546e-07
3.60273e-07
3.6027e-07
3.87051e-07
3.87255e-07
3.87059e-07
3.60271e-07
3.60275e-07
3.60268e-07
3.60272e-07
3.87249e-07
3.87053e-07
3.60261e-07
3.60283e-07
3.60258e-07
3.6028e-07
3.60274e-07
3.60254e-07
3.60271e-07
3.87262e-07
3.87067e-07
3.60261e-07
3.60261e-07
3.60258e-07
3.87064e-07
3.87279e-07
3.87051e-07
3.60271e-07
3.60275e-07
3.60269e-07
3.60271e-07
3.87274e-07
3.87045e-07
3.60261e-07
3.60283e-07
3.60258e-07
3.60279e-07
3.60274e-07
3.60254e-07
3.60271e-07
3.87287e-07
3.87058e-07
3.60261e-07
3.6026e-07
3.60257e-07
3.87055e-07
3.87269e-07
3.87054e-07
3.60272e-07
3.60273e-07
3.6027e-07
3.60271e-07
3.87264e-07
3.87048e-07
3.6026e-07
3.60281e-07
3.60258e-07
3.60279e-07
3.60273e-07
3.60254e-07
3.60271e-07
3.87277e-07
3.87062e-07
3.60259e-07
3.6026e-07
3.60257e-07
3.87058e-07
3.87271e-07
3.87053e-07
3.60271e-07
3.60273e-07
3.60269e-07
3.60271e-07
3.87267e-07
3.87048e-07
3.6026e-07
3.60281e-07
3.60258e-07
3.60279e-07
3.60273e-07
3.60254e-07
3.60271e-07
3.87279e-07
3.87061e-07
3.60259e-07
3.6026e-07
3.60257e-07
3.87058e-07
3.87271e-07
3.87052e-07
3.60271e-07
3.60273e-07
3.60269e-07
3.60272e-07
3.87267e-07
3.87047e-07
3.6026e-07
3.60281e-07
3.60258e-07
3.60279e-07
3.60273e-07
3.60253e-07
3.60271e-07
3.87279e-07
3.8706e-07
3.60259e-07
3.6026e-07
3.60257e-07
3.87058e-07
3.8727e-07
3.87052e-07
3.60271e-07
3.60274e-07
3.60271e-07
3.87267e-07
3.6026e-07
3.60281e-07
3.60261e-07
3.60282e-07
3.60273e-07
3.60273e-07
3.87279e-07
3.8706e-07
3.60259e-07
3.60264e-07
3.6026e-07
3.87058e-07
5.35668e-07
5.35603e-07
5.35659e-07
5.35659e-07
5.34574e-07
5.3552e-07
5.33635e-07
5.35656e-07
5.34574e-07
5.3552e-07
5.35656e-07
5.33634e-07
5.35265e-07
5.35987e-07
5.35987e-07
1.10784e-06
3.88243e-06
9.32573e-07
4.60338e-06
1.26083e-05
1.65907e-05
1.10794e-06
3.88267e-06
9.32613e-07
4.60372e-06
4.9553e-07
4.9553e-07
4.9553e-07
4.57454e-07
4.57453e-07
4.57454e-07
4.57454e-07
5.43338e-07
1.22018e-06
4.95533e-07
4.8547e-07
5.25086e-07
1.20964e-06
4.82219e-07
1.26099e-05
1.65927e-05
5.43356e-07
4.95534e-07
1.22016e-06
4.85471e-07
5.25067e-07
4.8222e-07
1.20963e-06
2.52156e-06
2.52226e-06
4.84183e-07
2.37178e-06
2.37218e-06
1.43673e-06
5.59364e-06
1.32558e-06
6.13505e-06
2.12941e-05
2.30994e-05
1.43716e-06
5.59431e-06
1.32563e-06
6.1357e-06
4.45563e-07
4.45564e-07
4.45564e-07
4.13752e-07
4.13751e-07
4.13752e-07
4.13752e-07
5.8788e-07
1.19446e-06
4.46429e-07
4.44091e-07
5.73191e-07
1.20494e-06
4.35381e-07
2.1297e-05
2.31025e-05
5.87914e-07
4.4643e-07
1.19447e-06
4.44093e-07
5.7319e-07
4.35382e-07
1.20503e-06
2.30979e-06
2.31029e-06
4.53489e-07
2.35717e-06
2.35763e-06
1.65844e-06
6.92453e-06
1.59877e-06
7.31027e-06
2.46499e-05
2.49423e-05
1.65856e-06
6.9254e-06
1.59851e-06
7.31115e-06
4.04491e-07
4.04492e-07
4.04492e-07
3.75392e-07
3.7539e-07
3.75392e-07
3.75392e-07
6.152e-07
1.24388e-06
4.07175e-07
4.11005e-07
6.08668e-07
1.26272e-06
3.98289e-07
2.46534e-05
2.49456e-05
6.15211e-07
4.07176e-07
1.24401e-06
4.11009e-07
6.08676e-07
3.98291e-07
1.26284e-06
2.47839e-06
2.47887e-06
4.30236e-07
2.52258e-06
2.52306e-06
1.78289e-06
7.8559e-06
1.79065e-06
8.06341e-06
2.47236e-05
2.44295e-05
1.78317e-06
7.857e-06
1.79063e-06
8.06453e-06
3.66198e-07
3.662e-07
3.662e-07
3.4774e-07
3.4774e-07
3.47742e-07
3.47741e-07
6.21257e-07
1.31141e-06
3.71648e-07
3.79644e-07
6.26354e-07
1.30246e-06
3.64182e-07
2.47267e-05
2.44323e-05
6.21277e-07
3.7165e-07
1.31153e-06
3.7965e-07
6.26369e-07
3.64184e-07
1.30269e-06
2.63438e-06
2.63487e-06
4.06583e-07
2.60975e-06
2.61022e-06
1.63935e-06
8.33757e-06
1.66029e-06
8.42649e-06
2.43521e-05
2.43984e-05
1.63924e-06
8.33873e-06
1.66024e-06
8.42777e-06
3.44824e-07
3.44826e-07
3.44825e-07
3.41489e-07
3.41489e-07
3.41491e-07
3.4149e-07
5.85814e-07
1.28895e-06
3.5072e-07
3.62731e-07
5.92942e-07
1.30117e-06
3.48895e-07
2.43556e-05
2.43996e-05
5.85811e-07
3.50722e-07
1.28895e-06
3.62739e-07
5.9295e-07
3.48897e-07
1.30127e-06
2.62156e-06
2.62202e-06
3.8889e-07
2.68852e-06
2.68908e-06
1.6399e-06
8.46257e-06
1.63996e-06
8.46308e-06
2.44295e-05
2.44303e-05
1.63976e-06
8.46391e-06
1.63976e-06
8.46439e-06
3.41217e-07
3.41219e-07
3.41218e-07
3.41008e-07
3.41009e-07
3.41011e-07
3.41009e-07
5.84717e-07
1.31434e-06
3.47037e-07
3.60379e-07
5.84872e-07
1.31456e-06
3.4691e-07
2.44305e-05
2.44312e-05
5.84708e-07
3.47038e-07
1.31426e-06
3.60386e-07
5.84863e-07
3.46912e-07
1.3145e-06
2.72641e-06
2.727e-06
3.87134e-07
2.7285e-06
2.7291e-06
1.64001e-06
8.4634e-06
1.64048e-06
8.46296e-06
2.44312e-05
2.44308e-05
1.63986e-06
8.46471e-06
1.64029e-06
8.46423e-06
3.41005e-07
3.41007e-07
3.41005e-07
3.41e-07
3.41001e-07
3.41003e-07
3.41002e-07
5.84692e-07
1.31541e-06
3.4682e-07
3.60256e-07
5.84823e-07
1.31479e-06
3.46821e-07
2.44321e-05
2.44314e-05
5.84683e-07
3.46821e-07
1.31533e-06
3.60262e-07
5.84814e-07
3.46822e-07
1.31475e-06
2.72945e-06
2.73004e-06
3.87041e-07
2.72903e-06
2.72963e-06
1.64001e-06
8.46331e-06
1.64049e-06
8.46293e-06
2.44312e-05
2.44308e-05
1.63987e-06
8.46458e-06
1.64029e-06
8.46417e-06
3.41003e-07
3.41005e-07
3.41004e-07
3.41e-07
3.41001e-07
3.41003e-07
3.41002e-07
5.84701e-07
1.31542e-06
3.46819e-07
3.60256e-07
5.8483e-07
1.31479e-06
3.46821e-07
2.4432e-05
2.44314e-05
5.84693e-07
3.4682e-07
1.31534e-06
3.60262e-07
5.84821e-07
3.46822e-07
1.31476e-06
2.7295e-06
2.73009e-06
3.87061e-07
2.72905e-06
2.72965e-06
1.64001e-06
8.4633e-06
1.64049e-06
8.46292e-06
2.44312e-05
2.44308e-05
1.63987e-06
8.46457e-06
1.64029e-06
8.46417e-06
3.41003e-07
3.41005e-07
3.41004e-07
3.41e-07
3.41001e-07
3.41003e-07
3.41002e-07
5.84701e-07
1.31542e-06
3.46819e-07
3.60256e-07
5.8483e-07
1.31479e-06
3.46821e-07
2.4432e-05
2.44314e-05
5.84692e-07
3.4682e-07
1.31534e-06
3.60262e-07
5.84822e-07
3.46822e-07
1.31476e-06
2.7295e-06
2.73009e-06
3.8706e-07
2.72905e-06
2.72965e-06
1.64001e-06
8.46317e-06
1.64049e-06
8.46268e-06
2.44312e-05
2.44308e-05
1.63987e-06
8.46446e-06
1.64029e-06
8.464e-06
3.41003e-07
3.41005e-07
3.41004e-07
3.41e-07
3.41001e-07
3.41003e-07
3.41002e-07
5.847e-07
1.31542e-06
3.46818e-07
3.60255e-07
5.8483e-07
1.31479e-06
3.46821e-07
2.4432e-05
2.44314e-05
5.84691e-07
3.4682e-07
1.31534e-06
3.60262e-07
5.84822e-07
3.46822e-07
1.31476e-06
2.7295e-06
2.73009e-06
3.87059e-07
2.72905e-06
2.72965e-06
1.64001e-06
8.46303e-06
1.64049e-06
8.46268e-06
2.44313e-05
2.44308e-05
1.63987e-06
8.46437e-06
1.64029e-06
8.46394e-06
3.41003e-07
3.41005e-07
3.41004e-07
3.41e-07
3.41001e-07
3.41003e-07
3.41002e-07
5.847e-07
1.31542e-06
3.46818e-07
3.60255e-07
5.8483e-07
1.31479e-06
3.46821e-07
2.4432e-05
2.44314e-05
5.84691e-07
3.4682e-07
1.31534e-06
3.60262e-07
5.84822e-07
3.46822e-07
1.31476e-06
2.7295e-06
2.73009e-06
3.87059e-07
2.72905e-06
2.72965e-06
1.64001e-06
8.46309e-06
1.64049e-06
8.46273e-06
2.44313e-05
2.44309e-05
1.63986e-06
8.46433e-06
1.64029e-06
8.46391e-06
3.41003e-07
3.41005e-07
3.41004e-07
3.41004e-07
3.41008e-07
3.41006e-07
3.41005e-07
5.847e-07
1.31542e-06
3.46818e-07
3.60254e-07
5.8483e-07
1.31479e-06
3.4682e-07
2.4432e-05
2.44314e-05
5.84691e-07
3.4682e-07
1.31534e-06
3.60262e-07
5.84822e-07
3.46822e-07
1.31476e-06
2.7295e-06
2.73009e-06
3.87059e-07
2.72905e-06
2.72965e-06
5.35265e-07
5.3599e-07
5.35988e-07
1.0916e-05
5.81346e-07
1.09173e-05
5.81338e-07
5.28193e-07
2.43138e-06
2.43231e-06
5.40833e-07
5.4083e-07
5.34574e-07
5.3552e-07
5.33635e-07
5.35657e-07
5.34574e-07
5.3552e-07
5.33634e-07
5.35657e-07
5.30398e-07
3.47225e-06
5.68207e-07
8.21875e-07
5.30397e-07
3.47227e-06
5.68206e-07
8.21839e-07
5.29522e-07
5.28371e-07
1.16681e-06
5.09629e-07
5.32664e-07
5.2836e-07
5.19221e-07
5.29522e-07
5.28372e-07
1.16696e-06
5.09628e-07
5.32664e-07
5.2836e-07
5.19223e-07
5.35265e-07
5.35989e-07
5.35988e-07
1.09162e-05
5.81325e-07
5.28193e-07
2.43185e-06
2.432e-06
5.40834e-07
5.4083e-07
1.09169e-05
5.81319e-07
5.34574e-07
5.3552e-07
5.33635e-07
5.35657e-07
5.34574e-07
5.3552e-07
5.35657e-07
5.33635e-07
5.30397e-07
3.47259e-06
5.68204e-07
8.22013e-07
5.29522e-07
5.28372e-07
1.16708e-06
5.09629e-07
5.32663e-07
5.2836e-07
5.19229e-07
5.30398e-07
3.47268e-06
5.68202e-07
8.21916e-07
5.29522e-07
5.28372e-07
5.09629e-07
1.16698e-06
5.2836e-07
5.32663e-07
5.19223e-07
5.35668e-07
5.35603e-07
5.35659e-07
5.35659e-07
5.35668e-07
5.35603e-07
5.35659e-07
5.35659e-07
5.35668e-07
5.35603e-07
5.35659e-07
5.35659e-07
5.2844e-07
5.2838e-07
5.09762e-07
5.09762e-07
5.28415e-07
5.28415e-07
5.09819e-07
5.28441e-07
5.2838e-07
5.09761e-07
5.09761e-07
5.28415e-07
5.28415e-07
5.0982e-07
5.28441e-07
5.2838e-07
5.09761e-07
5.09761e-07
5.28415e-07
5.28415e-07
5.0982e-07
5.28441e-07
5.2838e-07
5.09761e-07
5.09761e-07
5.28415e-07
5.28415e-07
5.0982e-07
5.34574e-07
5.3552e-07
5.35657e-07
5.33635e-07
5.29522e-07
5.28371e-07
1.16702e-06
5.09629e-07
5.32663e-07
5.2836e-07
5.19227e-07
5.30398e-07
3.47247e-06
5.68198e-07
8.21927e-07
5.29522e-07
5.28371e-07
5.09629e-07
1.1669e-06
5.2836e-07
5.32662e-07
5.19223e-07
5.30398e-07
3.47261e-06
5.68202e-07
8.21872e-07
5.35265e-07
5.35987e-07
5.35986e-07
1.09175e-05
5.81335e-07
5.28193e-07
2.43213e-06
2.43197e-06
5.4083e-07
5.40827e-07
1.09174e-05
5.81314e-07
5.34574e-07
5.3552e-07
5.35657e-07
5.33634e-07
5.29522e-07
5.28371e-07
5.09629e-07
1.16696e-06
5.2836e-07
5.32662e-07
5.19226e-07
5.29522e-07
5.28372e-07
5.09629e-07
1.16708e-06
5.2836e-07
5.32663e-07
5.19229e-07
5.30397e-07
3.47263e-06
5.68196e-07
8.21991e-07
5.30397e-07
3.47265e-06
5.68207e-07
8.22079e-07
5.28193e-07
2.43177e-06
2.43244e-06
5.40828e-07
5.40829e-07
1.09172e-05
5.81318e-07
1.09174e-05
5.81332e-07
1.26081e-05
1.65895e-05
1.26097e-05
1.65923e-05
2.52151e-06
2.52225e-06
4.84181e-07
2.37146e-06
2.37217e-06
2.05177e-05
1.76961e-05
2.05213e-05
1.76989e-05
4.79276e-07
2.30588e-06
2.30654e-06
2.33831e-06
2.33907e-06
1.10769e-06
3.88236e-06
9.32687e-07
4.60328e-06
5.43323e-07
1.22006e-06
4.95534e-07
4.85472e-07
5.25099e-07
1.20958e-06
4.82219e-07
5.43319e-07
1.22024e-06
4.95534e-07
4.85479e-07
5.25107e-07
1.20981e-06
4.82219e-07
1.15831e-06
5.40478e-06
4.81176e-06
1.28257e-06
1.15841e-06
5.40475e-06
4.81177e-06
1.28257e-06
5.50538e-07
4.74325e-07
1.19308e-06
4.57951e-07
1.20421e-06
4.69776e-07
5.66778e-07
5.5054e-07
4.74333e-07
1.19326e-06
4.57951e-07
1.20437e-06
4.69776e-07
5.66774e-07
2.52199e-06
2.52174e-06
4.8418e-07
2.37205e-06
2.37158e-06
1.26088e-05
1.65905e-05
2.05191e-05
1.76976e-05
4.79276e-07
2.30639e-06
2.30608e-06
2.33884e-06
2.33863e-06
2.05186e-05
1.76971e-05
5.43354e-07
1.22033e-06
4.95534e-07
4.85476e-07
5.25102e-07
1.20984e-06
4.8222e-07
1.1079e-06
3.88296e-06
9.3246e-07
4.60404e-06
5.4335e-07
4.95534e-07
1.22029e-06
4.8548e-07
5.25091e-07
4.8222e-07
1.20984e-06
1.15834e-06
5.40523e-06
4.81211e-06
1.28273e-06
5.50539e-07
4.74331e-07
1.19327e-06
4.57952e-07
1.20439e-06
4.69776e-07
5.66801e-07
1.15832e-06
5.40569e-06
4.81261e-06
1.28272e-06
5.5054e-07
4.74335e-07
4.57952e-07
1.19332e-06
4.69776e-07
1.20444e-06
5.66805e-07
1.10785e-06
3.88242e-06
9.32543e-07
4.60353e-06
5.43336e-07
4.95534e-07
1.22015e-06
4.85473e-07
5.25075e-07
4.8222e-07
1.20969e-06
1.10787e-06
3.88285e-06
9.32381e-07
4.60378e-06
5.50533e-07
4.74322e-07
1.19308e-06
4.57951e-07
1.20421e-06
4.69775e-07
5.66785e-07
1.15834e-06
5.40479e-06
4.81157e-06
1.28266e-06
5.50532e-07
4.74326e-07
4.57951e-07
1.19313e-06
4.69776e-07
1.2042e-06
5.66782e-07
1.15824e-06
5.40521e-06
4.81235e-06
1.28263e-06
2.52217e-06
2.52167e-06
4.84183e-07
2.37218e-06
2.37141e-06
1.26096e-05
1.65914e-05
2.05219e-05
1.76997e-05
4.79277e-07
2.30661e-06
2.30604e-06
2.33898e-06
2.33851e-06
2.052e-05
1.76983e-05
5.43364e-07
4.95534e-07
1.22032e-06
4.85477e-07
5.2508e-07
4.8222e-07
1.20983e-06
1.1081e-06
3.88281e-06
9.32327e-07
4.60386e-06
1.10816e-06
3.8827e-06
9.32445e-07
4.60376e-06
5.50532e-07
4.74323e-07
4.57952e-07
1.19313e-06
4.69775e-07
1.20427e-06
5.66804e-07
5.50531e-07
4.7433e-07
4.57952e-07
1.19325e-06
4.69776e-07
1.20436e-06
5.6681e-07
1.1581e-06
5.40546e-06
4.81233e-06
1.28275e-06
1.15812e-06
5.40544e-06
4.81208e-06
1.28277e-06
1.26092e-05
1.65913e-05
1.26097e-05
1.65921e-05
4.79277e-07
2.30602e-06
2.30651e-06
2.33822e-06
2.33903e-06
2.05193e-05
1.76978e-05
2.05209e-05
1.7699e-05
2.12924e-05
2.30976e-05
2.12961e-05
2.31018e-05
2.30965e-06
2.31036e-06
4.53485e-07
2.35675e-06
2.3575e-06
2.44668e-05
2.35396e-05
2.44703e-05
2.35431e-05
4.50832e-07
2.45022e-06
2.45125e-06
2.37739e-06
2.37768e-06
1.43673e-06
5.59368e-06
1.32555e-06
6.13523e-06
5.87869e-07
1.19444e-06
4.4643e-07
4.44097e-07
5.73198e-07
1.20496e-06
4.35381e-07
5.8787e-07
1.19459e-06
4.46431e-07
4.44105e-07
5.73192e-07
1.20514e-06
4.35381e-07
1.47338e-06
6.77803e-06
6.30199e-06
1.55947e-06
1.47334e-06
6.77815e-06
6.30197e-06
1.55944e-06
5.9337e-07
4.35134e-07
1.23161e-06
4.15973e-07
1.21196e-06
4.25214e-07
6.0346e-07
5.93358e-07
4.35143e-07
1.23174e-06
4.15974e-07
1.21211e-06
4.25214e-07
6.03454e-07
2.31015e-06
2.30984e-06
4.53481e-07
2.35734e-06
2.35655e-06
2.12935e-05
2.30984e-05
2.44679e-05
2.35412e-05
4.50831e-07
2.45107e-06
2.45005e-06
2.37755e-06
2.37798e-06
2.44672e-05
2.35408e-05
5.87903e-07
1.19465e-06
4.46431e-07
4.441e-07
5.73203e-07
1.20514e-06
4.35382e-07
1.43716e-06
5.59472e-06
1.32563e-06
6.13637e-06
5.87908e-07
4.46432e-07
1.19467e-06
4.44109e-07
5.73208e-07
4.35383e-07
1.20521e-06
1.47308e-06
6.7787e-06
6.30278e-06
1.55986e-06
5.93377e-07
4.35137e-07
1.23175e-06
4.15974e-07
1.21212e-06
4.25214e-07
6.03478e-07
1.47308e-06
6.77938e-06
6.30321e-06
1.55987e-06
5.93374e-07
4.35147e-07
4.15975e-07
1.2318e-06
4.25216e-07
1.21226e-06
6.03494e-07
1.43691e-06
5.59366e-06
1.32554e-06
6.13519e-06
5.87884e-07
4.46431e-07
1.19448e-06
4.44099e-07
5.73196e-07
4.35381e-07
1.20506e-06
1.43678e-06
5.59426e-06
1.32564e-06
6.13577e-06
5.93361e-07
4.35127e-07
1.23153e-06
4.15972e-07
1.21198e-06
4.25212e-07
6.03461e-07
1.47324e-06
6.77817e-06
6.30199e-06
1.55951e-06
5.93363e-07
4.35137e-07
4.15973e-07
1.23167e-06
4.25214e-07
1.21204e-06
6.03466e-07
1.47327e-06
6.77885e-06
6.30265e-06
1.55953e-06
2.31039e-06
2.30965e-06
4.53489e-07
2.35725e-06
2.35696e-06
2.12945e-05
2.31002e-05
2.44714e-05
2.3545e-05
4.50836e-07
2.45085e-06
2.45066e-06
2.37851e-06
2.37739e-06
2.44686e-05
2.35421e-05
5.87908e-07
4.46431e-07
1.19458e-06
4.44102e-07
5.73189e-07
4.35382e-07
1.20516e-06
1.43716e-06
5.59432e-06
1.32562e-06
6.13595e-06
1.43704e-06
5.59418e-06
1.32561e-06
6.13592e-06
5.93362e-07
4.3513e-07
4.15974e-07
1.23164e-06
4.25213e-07
1.21201e-06
6.03492e-07
5.93358e-07
4.35137e-07
4.15974e-07
1.23177e-06
4.25215e-07
1.21214e-06
6.03488e-07
1.47305e-06
6.77888e-06
6.30268e-06
1.55987e-06
1.47308e-06
6.77897e-06
6.3027e-06
1.55989e-06
2.12945e-05
2.31003e-05
2.12962e-05
2.31019e-05
4.50834e-07
2.45082e-06
2.4513e-06
2.37736e-06
2.37782e-06
2.44689e-05
2.35422e-05
2.44703e-05
2.35438e-05
2.46489e-05
2.49414e-05
2.46519e-05
2.49444e-05
2.47852e-06
2.47873e-06
4.30234e-07
2.52213e-06
2.52301e-06
2.48326e-05
2.49575e-05
2.48354e-05
2.49601e-05
4.28454e-07
2.62897e-06
2.62965e-06
2.55369e-06
2.55391e-06
1.65842e-06
6.92448e-06
1.59874e-06
7.31047e-06
6.15198e-07
1.24396e-06
4.07177e-07
4.11014e-07
6.08671e-07
1.26279e-06
3.98289e-07
6.15193e-07
1.24408e-06
4.07178e-07
4.11021e-07
6.08666e-07
1.26288e-06
3.9829e-07
1.67786e-06
7.76438e-06
7.43263e-06
1.76724e-06
1.67783e-06
7.76471e-06
7.43262e-06
1.7672e-06
6.16394e-07
4.03102e-07
1.30764e-06
3.80157e-07
1.27472e-06
3.89192e-07
6.25208e-07
6.16389e-07
4.03109e-07
1.30787e-06
3.80158e-07
1.27479e-06
3.89193e-07
6.25203e-07
2.47867e-06
2.4785e-06
4.30224e-07
2.52287e-06
2.522e-06
2.46493e-05
2.49416e-05
2.48335e-05
2.49582e-05
4.28451e-07
2.62956e-06
2.62879e-06
2.55387e-06
2.5536e-06
2.48329e-05
2.49576e-05
6.15221e-07
1.24409e-06
4.07178e-07
4.11013e-07
6.08685e-07
1.26292e-06
3.98291e-07
1.65855e-06
6.92581e-06
1.59852e-06
7.31176e-06
6.15218e-07
4.0718e-07
1.24416e-06
4.11027e-07
6.08681e-07
3.98292e-07
1.263e-06
1.6777e-06
7.76551e-06
7.43358e-06
1.76746e-06
6.16406e-07
4.03099e-07
1.3079e-06
3.80159e-07
1.27488e-06
3.89193e-07
6.25237e-07
1.6777e-06
7.766e-06
7.43397e-06
1.76746e-06
6.16405e-07
4.03115e-07
3.80161e-07
1.30786e-06
3.89195e-07
1.27495e-06
6.25239e-07
1.65849e-06
6.92456e-06
1.59881e-06
7.31049e-06
6.15203e-07
4.07178e-07
1.24401e-06
4.11016e-07
6.08671e-07
3.9829e-07
1.26281e-06
1.65849e-06
6.92519e-06
1.59882e-06
7.31116e-06
6.16393e-07
4.03089e-07
1.30758e-06
3.80157e-07
1.27466e-06
3.89189e-07
6.25212e-07
1.67791e-06
7.76478e-06
7.4327e-06
1.76726e-06
6.16392e-07
4.03105e-07
3.80159e-07
1.30779e-06
3.89193e-07
1.27471e-06
6.25215e-07
1.6779e-06
7.76539e-06
7.4333e-06
1.76726e-06
2.4792e-06
2.47838e-06
4.30239e-07
2.5228e-06
2.52256e-06
2.46507e-05
2.4943e-05
2.48366e-05
2.49615e-05
4.28461e-07
2.62963e-06
2.6292e-06
2.55437e-06
2.55353e-06
2.48342e-05
2.49589e-05
6.15211e-07
4.07178e-07
1.24411e-06
4.11014e-07
6.08677e-07
3.98291e-07
1.2629e-06
1.65854e-06
6.92523e-06
1.59851e-06
7.31125e-06
1.65856e-06
6.92532e-06
1.59852e-06
7.31135e-06
6.16397e-07
4.03094e-07
3.8016e-07
1.30782e-06
3.89191e-07
1.27472e-06
6.25233e-07
6.164e-07
4.03101e-07
3.80159e-07
1.30789e-06
3.89194e-07
1.27482e-06
6.25231e-07
1.67769e-06
7.76551e-06
7.43339e-06
1.76745e-06
1.6777e-06
7.76567e-06
7.43352e-06
1.76745e-06
2.46509e-05
2.49433e-05
2.46524e-05
2.49446e-05
4.28459e-07
2.62922e-06
2.62971e-06
2.55359e-06
2.55406e-06
2.48345e-05
2.49592e-05
2.48355e-05
2.49604e-05
2.47231e-05
2.44289e-05
2.47253e-05
2.44312e-05
2.63442e-06
2.63478e-06
4.06578e-07
2.60965e-06
2.61019e-06
2.43442e-05
2.43782e-05
2.43468e-05
2.43808e-05
4.04426e-07
2.59548e-06
2.596e-06
2.59295e-06
2.59349e-06
1.78289e-06
7.85592e-06
1.79063e-06
8.06374e-06
6.21247e-07
1.31148e-06
3.7165e-07
3.79659e-07
6.26352e-07
1.30258e-06
3.64182e-07
6.21245e-07
1.31159e-06
3.71651e-07
3.79665e-07
6.26349e-07
1.30274e-06
3.64183e-07
1.76001e-06
8.28967e-06
8.12208e-06
1.67424e-06
1.76001e-06
8.29004e-06
8.12224e-06
1.67423e-06
6.16442e-07
3.732e-07
1.28633e-06
3.53701e-07
1.29782e-06
3.58144e-07
5.96384e-07
6.16445e-07
3.73206e-07
1.28645e-06
3.53703e-07
1.29794e-06
3.58146e-07
5.96383e-07
2.63473e-06
2.63433e-06
4.06569e-07
2.61009e-06
2.60937e-06
2.47231e-05
2.44288e-05
2.43453e-05
2.43792e-05
4.04422e-07
2.59591e-06
2.59535e-06
2.59345e-06
2.59317e-06
2.43443e-05
2.43788e-05
6.21289e-07
1.31164e-06
3.71651e-07
3.79652e-07
6.26377e-07
1.30278e-06
3.64184e-07
1.78316e-06
7.85732e-06
1.79064e-06
8.06499e-06
6.21287e-07
3.71654e-07
1.3117e-06
3.79671e-07
6.26379e-07
3.64186e-07
1.30273e-06
1.75986e-06
8.29085e-06
8.12325e-06
1.67455e-06
6.16456e-07
3.73193e-07
1.2865e-06
3.53704e-07
1.29798e-06
3.58146e-07
5.96422e-07
1.75982e-06
8.29123e-06
8.12358e-06
1.67453e-06
6.16455e-07
3.73213e-07
3.53705e-07
1.28656e-06
3.58148e-07
1.29819e-06
5.9642e-07
1.78296e-06
7.85608e-06
1.7907e-06
8.06378e-06
6.2126e-07
3.71651e-07
1.31152e-06
3.79662e-07
6.26356e-07
3.64183e-07
1.30266e-06
1.78294e-06
7.8566e-06
1.79069e-06
8.06436e-06
6.16447e-07
3.73184e-07
1.2863e-06
3.53701e-07
1.2979e-06
3.58142e-07
5.96395e-07
1.76009e-06
8.29007e-06
8.12238e-06
1.6743e-06
6.16439e-07
3.73203e-07
3.53702e-07
1.28638e-06
3.58145e-07
1.29786e-06
5.96396e-07
1.76006e-06
8.29053e-06
8.12282e-06
1.67427e-06
2.63512e-06
2.63436e-06
4.06584e-07
2.61019e-06
2.60973e-06
2.47243e-05
2.44302e-05
2.43477e-05
2.43822e-05
4.04433e-07
2.59619e-06
2.59558e-06
2.59393e-06
2.59309e-06
2.43459e-05
2.43799e-05
6.21278e-07
3.71652e-07
1.31162e-06
3.79653e-07
6.26373e-07
3.64184e-07
1.30275e-06
1.78314e-06
7.85672e-06
1.79063e-06
8.06448e-06
1.78317e-06
7.85689e-06
1.79064e-06
8.06473e-06
6.16445e-07
3.73191e-07
3.53703e-07
1.28639e-06
3.58144e-07
1.29786e-06
5.96409e-07
6.16454e-07
3.73194e-07
3.53703e-07
1.28649e-06
3.58146e-07
1.29796e-06
5.96409e-07
1.75981e-06
8.29067e-06
8.12294e-06
1.67452e-06
1.75984e-06
8.29099e-06
8.12322e-06
1.67454e-06
2.47245e-05
2.44304e-05
2.47256e-05
2.44314e-05
4.0443e-07
2.59559e-06
2.59606e-06
2.59311e-06
2.59358e-06
2.43462e-05
2.43802e-05
2.43471e-05
2.43811e-05
2.4351e-05
2.43966e-05
2.43536e-05
2.43996e-05
2.62146e-06
2.62193e-06
3.88885e-07
2.68841e-06
2.68904e-06
2.44252e-05
2.44121e-05
2.44282e-05
2.4415e-05
3.88748e-07
2.72212e-06
2.72287e-06
2.70352e-06
2.70418e-06
1.63935e-06
8.33781e-06
1.66026e-06
8.42696e-06
5.85811e-07
1.2889e-06
3.50723e-07
3.62744e-07
5.92934e-07
1.30121e-06
3.48894e-07
5.85808e-07
1.28902e-06
3.50724e-07
3.62749e-07
5.92933e-07
1.30134e-06
3.48895e-07
1.6393e-06
8.45997e-06
8.44261e-06
1.63926e-06
1.6393e-06
8.46046e-06
8.44299e-06
1.63926e-06
5.85573e-07
3.61539e-07
1.31265e-06
3.47312e-07
1.30745e-06
3.47859e-07
5.84754e-07
5.85571e-07
3.61544e-07
1.31279e-06
3.47313e-07
1.30757e-06
3.4786e-07
5.84752e-07
2.62188e-06
2.62164e-06
3.88877e-07
2.68889e-06
2.68807e-06
2.43523e-05
2.43962e-05
2.44268e-05
2.4414e-05
3.88742e-07
2.72272e-06
2.72235e-06
2.70411e-06
2.70388e-06
2.44243e-05
2.44123e-05
5.85819e-07
1.2891e-06
3.50724e-07
3.62736e-07
5.92955e-07
1.30139e-06
3.48896e-07
1.63924e-06
8.33915e-06
1.6602e-06
8.42774e-06
5.85821e-07
3.50727e-07
1.28921e-06
3.62756e-07
5.92957e-07
3.48898e-07
1.30144e-06
1.6391e-06
8.46124e-06
8.44398e-06
1.63911e-06
5.85575e-07
3.6153e-07
1.31288e-06
3.47313e-07
1.30766e-06
3.4786e-07
5.84753e-07
1.6391e-06
8.46108e-06
8.44388e-06
1.63912e-06
5.85578e-07
3.61551e-07
3.47315e-07
1.31298e-06
3.47862e-07
1.30781e-06
5.84756e-07
1.63938e-06
8.338e-06
1.66032e-06
8.42664e-06
5.85818e-07
3.50724e-07
1.28895e-06
3.62748e-07
5.92934e-07
3.48895e-07
1.30126e-06
1.63937e-06
8.33827e-06
1.6603e-06
8.42736e-06
5.85573e-07
3.61524e-07
1.31273e-06
3.47312e-07
1.30754e-06
3.47857e-07
5.84755e-07
1.63933e-06
8.46002e-06
8.44278e-06
1.63928e-06
5.85576e-07
3.61543e-07
3.47313e-07
1.31271e-06
3.47859e-07
1.3075e-06
5.84759e-07
1.63932e-06
8.46082e-06
8.44338e-06
1.63928e-06
2.62246e-06
2.62154e-06
3.88891e-07
2.68894e-06
2.68853e-06
2.43529e-05
2.43987e-05
2.44276e-05
2.44156e-05
3.88755e-07
2.72313e-06
2.72236e-06
2.7047e-06
2.7037e-06
2.44273e-05
2.44144e-05
5.85806e-07
3.50724e-07
1.28907e-06
3.62736e-07
5.92948e-07
3.48895e-07
1.30138e-06
1.63922e-06
8.33841e-06
1.66018e-06
8.4275e-06
1.63922e-06
8.33874e-06
1.6602e-06
8.42788e-06
5.85568e-07
3.61531e-07
3.47314e-07
1.31272e-06
3.47858e-07
1.30749e-06
5.84746e-07
5.85566e-07
3.6153e-07
3.47313e-07
1.31283e-06
3.4786e-07
1.30762e-06
5.84742e-07
1.63908e-06
8.46096e-06
8.44352e-06
1.6391e-06
1.63908e-06
8.46136e-06
8.44391e-06
1.6391e-06
2.43532e-05
2.43989e-05
2.43541e-05
2.43999e-05
3.88753e-07
2.72237e-06
2.72297e-06
2.70372e-06
2.70426e-06
2.44275e-05
2.44146e-05
2.44285e-05
2.44155e-05
2.44279e-05
2.44286e-05
2.4431e-05
2.44317e-05
2.72614e-06
2.72686e-06
3.8713e-07
2.72826e-06
2.72901e-06
2.44289e-05
2.44294e-05
2.4432e-05
2.44324e-05
3.87322e-07
2.72875e-06
2.72948e-06
2.72889e-06
2.72962e-06
1.63991e-06
8.46308e-06
1.63994e-06
8.46369e-06
5.84715e-07
1.31418e-06
3.47038e-07
3.60393e-07
5.84873e-07
1.31443e-06
3.46911e-07
5.84714e-07
1.31434e-06
3.47039e-07
3.60396e-07
5.84872e-07
1.31459e-06
3.46912e-07
1.6404e-06
8.46305e-06
8.46336e-06
1.64e-06
1.64041e-06
8.46364e-06
8.46397e-06
1.64002e-06
5.84841e-07
3.60314e-07
1.31464e-06
3.46827e-07
1.31511e-06
3.46851e-07
5.84694e-07
5.8484e-07
3.60318e-07
1.31482e-06
3.46828e-07
1.31529e-06
3.46852e-07
5.84693e-07
2.72684e-06
2.72665e-06
3.87122e-07
2.72892e-06
2.72848e-06
2.44272e-05
2.44279e-05
2.44307e-05
2.44311e-05
3.87316e-07
2.72937e-06
2.729e-06
2.72955e-06
2.7293e-06
2.44281e-05
2.44288e-05
5.84714e-07
1.31442e-06
3.47039e-07
3.60383e-07
5.8487e-07
1.31469e-06
3.46912e-07
1.63977e-06
8.46376e-06
1.63974e-06
8.46431e-06
5.84718e-07
3.47041e-07
1.31459e-06
3.60404e-07
5.84874e-07
3.46914e-07
1.31481e-06
1.64021e-06
8.46433e-06
8.46469e-06
1.63986e-06
5.84837e-07
3.60304e-07
1.31492e-06
3.46828e-07
1.31537e-06
3.46852e-07
5.84693e-07
1.64022e-06
8.46424e-06
8.46461e-06
1.63987e-06
5.84842e-07
3.60326e-07
3.4683e-07
1.31503e-06
3.46854e-07
1.31554e-06
5.84696e-07
1.63994e-06
8.46273e-06
1.63996e-06
8.46328e-06
5.84721e-07
3.47039e-07
1.31426e-06
3.60396e-07
5.84876e-07
3.46911e-07
1.31451e-06
1.63993e-06
8.46342e-06
1.63996e-06
8.46401e-06
5.84841e-07
3.603e-07
1.31477e-06
3.46827e-07
1.31528e-06
3.46851e-07
5.84696e-07
1.64044e-06
8.46322e-06
8.46359e-06
1.64004e-06
5.84844e-07
3.60318e-07
3.46828e-07
1.31473e-06
3.46851e-07
1.3152e-06
5.847e-07
1.64043e-06
8.46397e-06
8.46429e-06
1.64003e-06
2.72741e-06
2.72637e-06
3.87136e-07
2.72928e-06
2.72848e-06
2.443e-05
2.44307e-05
2.44314e-05
2.44321e-05
3.87329e-07
2.72979e-06
2.72895e-06
2.73006e-06
2.72911e-06
2.4431e-05
2.44315e-05
5.84703e-07
3.47039e-07
1.31438e-06
3.60383e-07
5.8486e-07
3.46911e-07
1.31463e-06
1.63976e-06
8.46357e-06
1.63973e-06
8.46416e-06
1.63976e-06
8.46398e-06
1.63973e-06
8.46457e-06
5.84832e-07
3.60307e-07
3.46828e-07
1.31473e-06
3.46852e-07
1.31519e-06
5.84687e-07
5.84827e-07
3.60304e-07
3.46827e-07
1.31486e-06
3.46851e-07
1.31533e-06
5.84681e-07
1.64021e-06
8.46412e-06
8.46444e-06
1.63986e-06
1.64021e-06
8.46453e-06
8.46485e-06
1.63986e-06
2.44303e-05
2.44309e-05
2.44312e-05
2.44319e-05
3.87327e-07
2.72898e-06
2.72957e-06
2.72913e-06
2.72972e-06
2.44312e-05
2.44317e-05
2.44322e-05
2.44327e-05
2.44296e-05
2.4429e-05
2.44325e-05
2.4432e-05
2.72919e-06
2.72991e-06
3.87036e-07
2.72883e-06
2.72954e-06
2.44292e-05
2.44297e-05
2.4432e-05
2.44325e-05
3.87259e-07
2.72888e-06
2.72955e-06
2.72926e-06
2.72995e-06
1.64002e-06
8.46387e-06
1.64047e-06
8.46353e-06
5.8469e-07
1.31523e-06
3.46823e-07
3.60268e-07
5.84823e-07
1.31467e-06
3.46821e-07
5.84689e-07
1.31541e-06
3.46824e-07
3.60273e-07
5.84823e-07
1.31484e-06
3.46822e-07
1.64046e-06
8.46294e-06
8.46322e-06
1.64001e-06
1.64047e-06
8.46347e-06
8.46378e-06
1.64002e-06
5.84823e-07
3.60267e-07
1.31468e-06
3.4682e-07
1.31525e-06
3.4682e-07
5.84697e-07
5.84822e-07
3.60271e-07
1.31484e-06
3.46821e-07
1.31542e-06
3.46821e-07
5.84696e-07
2.72981e-06
2.72952e-06
3.87029e-07
2.72942e-06
2.72904e-06
2.44289e-05
2.44281e-05
2.44308e-05
2.44314e-05
3.87254e-07
2.72943e-06
2.72904e-06
2.72984e-06
2.72954e-06
2.44281e-05
2.44289e-05
5.84689e-07
1.3155e-06
3.46823e-07
3.60259e-07
5.8482e-07
1.31494e-06
3.46822e-07
1.63988e-06
8.4645e-06
1.64028e-06
8.46411e-06
5.84692e-07
3.46826e-07
1.31566e-06
3.6028e-07
5.84824e-07
3.46824e-07
1.31505e-06
1.64026e-06
8.46418e-06
8.46451e-06
1.63987e-06
5.84819e-07
3.60258e-07
1.31495e-06
3.46821e-07
1.31551e-06
3.4682e-07
5.84696e-07
1.64027e-06
8.46406e-06
8.46439e-06
1.63987e-06
5.84824e-07
3.60279e-07
3.46823e-07
1.31505e-06
3.46823e-07
1.31567e-06
5.84699e-07
1.64004e-06
8.46349e-06
1.64049e-06
8.4631e-06
5.84695e-07
3.46823e-07
1.31532e-06
3.60272e-07
5.84826e-07
3.46822e-07
1.31475e-06
1.64004e-06
8.46421e-06
1.64049e-06
8.46386e-06
5.84824e-07
3.60255e-07
1.31479e-06
3.4682e-07
1.3154e-06
3.46821e-07
5.84699e-07
1.64049e-06
8.46305e-06
8.46338e-06
1.64004e-06
5.84826e-07
3.60271e-07
3.46821e-07
1.31476e-06
3.46821e-07
1.31533e-06
5.84702e-07
1.64049e-06
8.46381e-06
8.46412e-06
1.64004e-06
2.7303e-06
2.72939e-06
3.87043e-07
2.72983e-06
2.72901e-06
2.44316e-05
2.4431e-05
2.44314e-05
2.44322e-05
3.87267e-07
2.72984e-06
2.72903e-06
2.73033e-06
2.72942e-06
2.4431e-05
2.44316e-05