/*--------------------------------*- C++ -*----------------------------------*\
| =========                 |                                                 |
| \\      /  F ield         | OpenFOAM: The Open Source CFD Toolbox           |
|  \\    /   O peration     | Version:  2206                                  |
|   \\  /    A nd           | Website:  www.openfoam.com                      |
|    \\/     M anipulation  |                                                 |
\*---------------------------------------------------------------------------*/
FoamFile
{
    version     2.0;
    format      ascii;
    arch        "LSB;label=32;scalar=64";
    class       surfaceScalarField;
    location    "20";
    object      phi;
}
// * * * * * * * * * * * * * * * * * * * * * * * * * * * * * * * * * * * * * //

dimensions      [0 3 -1 0 0 0 0];

oriented        oriented;

internalField   nonuniform List<scalar> 
82330
(
3.85313e-09
-7.97093e-08
2.1405e-08
4.20688e-09
-8.00305e-08
2.12949e-08
-1.11559e-08
2.25237e-08
2.30237e-08
-1.14163e-08
-3.31199e-08
-1.11898e-07
1.97714e-08
6.88177e-08
-1.76857e-08
6.88505e-08
-1.11664e-07
1.95923e-08
-1.76555e-08
-1.49042e-07
-2.14415e-11
1.45558e-08
1.55822e-07
-3.62684e-08
-2.12635e-07
4.33176e-08
2.40672e-08
-3.60425e-11
-3.34065e-09
-1.24663e-07
-4.04713e-08
1.8626e-07
-3.97293e-08
4.59211e-08
-5.61189e-08
-3.68099e-09
-1.16949e-07
5.06355e-08
8.66749e-08
-4.89965e-08
-3.07155e-08
7.1638e-09
-4.86234e-08
-7.98551e-08
-1.05505e-09
3.95352e-08
-1.48056e-08
8.61452e-08
7.62436e-08
-4.23316e-10
1.49256e-07
-1.49128e-07
1.55876e-07
1.45445e-08
-3.62162e-08
-2.12531e-07
8.00662e-08
4.32493e-08
2.42163e-08
-1.248e-07
-3.36635e-09
-4.0396e-08
1.8729e-07
1.14312e-08
-3.85465e-08
-5.6312e-08
-4.03178e-09
5.04798e-08
-1.17193e-07
-4.88357e-08
4.60471e-08
-3.06844e-08
8.97517e-08
3.85053e-08
-1.46846e-08
8.63264e-08
7.64326e-08
-3.03238e-10
1.50312e-07
-6.88456e-08
7.10924e-09
-4.84474e-08
-7.94114e-08
1.14023e-08
-3.87861e-08
-5.62756e-08
-4.13934e-09
5.04786e-08
-1.17208e-07
-4.88378e-08
4.59645e-08
-3.0704e-08
8.97575e-08
1.87567e-07
2.12394e-07
-6.88864e-08
7.08003e-09
-4.82989e-08
-7.92717e-08
7.96885e-08
4.34407e-08
2.43431e-08
4.24118e-09
2.12886e-08
-1.12321e-08
-3.2863e-08
2.27735e-08
2.28439e-08
-1.11641e-07
1.97696e-08
-1.74889e-08
-3.75329e-09
6.87748e-08
-1.1188e-07
1.957e-08
-1.77489e-08
-7.96262e-08
2.13931e-08
-2.70902e-11
1.49033e-07
-1.24688e-07
-3.38099e-09
-4.02975e-08
1.87626e-07
-3.92681e-08
-4.90371e-08
4.59239e-08
-3.07427e-08
-5.6131e-08
-3.79106e-09
5.05962e-08
-1.16953e-07
8.37706e-08
4.94598e-10
3.95408e-08
-1.47923e-08
8.61704e-08
7.62743e-08
-4.25153e-10
1.48025e-07
2.12595e-07
7.14616e-09
-4.85861e-08
-8.00598e-08
1.49031e-07
-1.24677e-07
-3.44385e-09
-4.02651e-08
1.8682e-07
1.13127e-08
-3.90536e-08
-5.61371e-08
-3.64519e-09
5.06471e-08
-1.1694e-07
-4.89971e-08
4.60492e-08
-3.06953e-08
8.4293e-08
3.99885e-08
-1.48372e-08
8.61308e-08
7.62505e-08
-4.62156e-10
1.48301e-07
2.12807e-07
-6.88381e-08
7.24521e-09
-4.87635e-08
-8.00343e-08
-6.31343e-11
1.45449e-08
1.55815e-07
-3.61166e-08
4.3579e-08
2.41605e-08
1.44077e-08
1.55834e-07
-3.60944e-08
7.99331e-08
4.35793e-08
2.41194e-08
-3.27781e-08
2.26834e-08
2.29709e-08
-3.86047e-09
-1.11983e-07
1.97831e-08
-1.73941e-08
-4.11675e-09
-1.11613e-07
1.95464e-08
-1.77214e-08
2.14291e-08
2.13598e-08
-1.28786e-08
-2.98635e-08
4.68354e-09
-1.24356e-08
-3.02463e-08
4.63761e-09
-2.64028e-08
-2.65345e-08
-1.66211e-08
-1.81722e-07
-1.18528e-09
2.7856e-08
-1.44633e-08
-5.35324e-08
4.89405e-08
-1.1655e-07
-6.47879e-08
-1.81874e-07
-1.24655e-09
2.7794e-08
-1.4876e-08
4.89687e-08
-5.35229e-08
-1.17033e-07
-6.47449e-08
-5.50919e-08
9.24358e-08
-1.24153e-07
1.78525e-07
-9.17151e-08
1.52455e-07
-2.90843e-08
1.7513e-08
-1.48581e-07
-3.70434e-08
7.88709e-08
-1.62387e-10
5.49324e-08
-6.8989e-08
8.52106e-11
-7.25712e-09
-1.50397e-08
-3.11044e-08
1.32021e-07
8.59795e-09
-2.23355e-08
2.25816e-10
-1.14498e-07
-1.95723e-08
2.52333e-07
-5.42364e-08
1.0465e-07
-3.31347e-10
-1.13874e-07
-3.87971e-07
3.40353e-07
1.37197e-07
-6.5511e-08
6.66395e-08
-7.05883e-08
-5.50478e-08
-1.24551e-07
9.24342e-08
1.78801e-07
-9.16367e-08
-3.72638e-08
7.88717e-08
1.52487e-07
-2.89591e-08
1.75562e-08
-1.48649e-07
-6.89221e-08
5.51208e-08
-7.35578e-09
-1.49741e-08
-3.12072e-08
-1.14376e-07
1.3226e-07
8.51376e-09
-2.21778e-08
-1.9565e-08
2.52517e-07
-5.41506e-08
1.04764e-07
-8.17479e-11
-1.13878e-07
-3.88168e-07
1.37333e-07
3.40297e-07
-6.52458e-08
6.66988e-08
-7.0171e-08
-1.96414e-08
2.52582e-07
-1.78865e-07
-5.40754e-08
1.04782e-07
-1.10492e-11
-1.13795e-07
-1.75543e-08
-3.88446e-07
1.37689e-07
3.40302e-07
-6.52013e-08
3.12444e-08
6.66971e-08
-1.32372e-07
-7.02001e-08
2.13387e-07
-5.47651e-08
1.64568e-08
1.12318e-08
1.08043e-08
2.91047e-09
2.78054e-09
-4.41839e-08
-1.24905e-08
4.69174e-09
-3.02068e-08
-1.28247e-08
4.72205e-09
-2.99208e-08
-2.65014e-08
-2.64504e-08
5.41466e-08
-3.82229e-08
5.37686e-08
-3.82425e-08
4.65029e-08
6.44712e-08
-1.55331e-07
4.81365e-08
-8.68769e-10
-1.81768e-07
-1.18173e-09
-5.30471e-08
2.77819e-08
4.89954e-08
-1.46388e-08
1.71635e-07
6.08656e-08
8.31457e-09
-4.49172e-08
6.97144e-08
1.05957e-07
-1.05809e-08
-1.16918e-07
-4.15007e-08
6.46297e-08
-1.55449e-07
4.63648e-08
4.81966e-08
-9.61569e-10
-1.81819e-07
-1.12317e-09
2.79513e-08
-5.36698e-08
-1.47364e-08
4.88122e-08
6.12592e-08
1.71749e-07
-2.13733e-07
8.17747e-09
-4.52012e-08
-1.1668e-07
-4.15446e-08
1.05911e-07
6.96432e-08
-1.11103e-08
-1.37633e-07
-5.47069e-08
-5.5051e-08
9.24534e-08
-1.24426e-07
1.78684e-07
-9.16594e-08
1.52387e-07
-2.89392e-08
1.7474e-08
-1.48544e-07
-3.71511e-08
7.883e-08
-5.16113e-11
5.51064e-08
-6.89622e-08
-1.03977e-10
-7.27192e-09
-1.4885e-08
-3.12338e-08
1.32221e-07
8.60354e-09
-2.22038e-08
-1.08259e-10
-1.14451e-07
-1.96337e-08
2.52409e-07
-5.40916e-08
1.04801e-07
-1.77985e-10
-1.1387e-07
-3.88241e-07
3.40252e-07
-6.54837e-08
6.66709e-08
-7.04613e-08
-5.50811e-08
9.24587e-08
-1.242e-07
1.78531e-07
-9.17088e-08
1.52458e-07
-2.89521e-08
1.73911e-08
-1.486e-07
-3.72367e-08
7.89247e-08
5.49061e-08
-6.89868e-08
-7.25488e-09
-1.48628e-08
-3.12999e-08
1.31985e-07
8.58775e-09
-2.21596e-08
-1.14371e-07
-1.95341e-08
2.52322e-07
-5.42559e-08
1.04915e-07
-2.5272e-10
-1.14008e-07
-3.8794e-07
1.37216e-07
3.40292e-07
-6.54482e-08
6.66051e-08
-7.049e-08
1.64598e-08
1.09568e-08
1.10877e-08
2.82668e-09
2.85601e-09
-4.4187e-08
-1.29442e-08
4.7119e-09
-2.97881e-08
-1.23923e-08
4.70294e-09
-3.03221e-08
-2.63314e-08
-2.66264e-08
5.39162e-08
-3.82475e-08
5.40287e-08
-3.82376e-08
6.4426e-08
4.63896e-08
-1.55459e-07
4.82457e-08
-7.75058e-10
-1.81742e-07
-1.0869e-09
2.77846e-08
-5.29664e-08
4.89507e-08
-1.45386e-08
1.71842e-07
6.11473e-08
-2.13766e-07
8.13405e-09
-4.47525e-08
-1.16656e-07
6.96222e-08
1.06101e-07
-1.04584e-08
-4.14828e-08
6.46102e-08
4.64828e-08
-1.55285e-07
4.80456e-08
-9.97434e-10
-1.81882e-07
-1.16892e-09
2.79339e-08
-5.36028e-08
4.88941e-08
-1.48684e-08
1.71507e-07
6.08885e-08
-2.13278e-07
8.40684e-09
-4.52461e-08
-1.16983e-07
6.97458e-08
1.05735e-07
-1.10929e-08
-4.15363e-08
-5.46478e-08
-5.47024e-08
-3.95861e-08
-3.8715e-08
3.20709e-07
3.80095e-08
3.12339e-10
4.39422e-10
-3.94299e-08
2.34982e-07
-2.48061e-10
-6.19731e-10
2.37345e-07
-7.62109e-11
-1.18798e-10
1.71801e-07
-3.92803e-08
-3.89585e-08
3.21395e-07
3.84343e-08
3.92544e-08
-1.71919e-11
-3.94767e-08
2.36846e-07
4.41439e-10
-5.20307e-12
-4.01991e-08
2.36629e-07
-3.28781e-10
1.72342e-07
-3.85957e-08
-3.90122e-08
3.19055e-07
-3.89055e-10
2.35365e-07
3.70499e-10
2.23372e-10
2.34926e-07
9.76725e-11
1.70991e-07
-3.85463e-08
-3.94873e-08
3.1951e-07
-1.69342e-10
-3.8964e-08
2.36111e-07
5.97282e-10
2.35251e-07
1.71524e-07
8.86877e-08
-4.59549e-08
-4.70472e-08
8.86396e-08
-4.72322e-08
-6.5886e-08
2.68593e-08
4.99986e-09
3.57637e-08
-7.34593e-08
-8.96895e-09
-1.1712e-07
-4.35284e-08
-9.81647e-09
-2.54468e-08
-2.32462e-08
-9.81413e-11
-5.96759e-09
-2.23497e-08
6.3835e-12
-1.94176e-08
-4.85948e-08
-1.74175e-08
-1.84805e-08
-5.89205e-11
-1.01961e-08
-9.9516e-08
3.59681e-08
-5.94618e-08
-6.56854e-09
-8.19349e-08
-4.91623e-08
-4.90298e-08
5.08037e-08
2.01216e-07
4.50112e-08
-8.38945e-09
2.2659e-08
-6.97288e-08
5.45108e-09
-1.43907e-08
2.65239e-08
3.58422e-08
5.09671e-09
-7.34672e-08
-8.68029e-09
-2.55828e-08
-2.31047e-08
-1.17262e-07
-4.33343e-08
-9.78305e-09
-2.24516e-08
-5.93834e-09
-1.93556e-08
-4.86194e-08
-1.00763e-08
-1.7325e-08
-1.83374e-08
3.53021e-08
-5.95643e-08
-9.95086e-08
-6.00838e-09
-8.18758e-08
-4.87776e-08
5.07842e-08
-4.82879e-08
4.49127e-08
2.01328e-07
2.296e-08
-1.40554e-08
6.05238e-09
3.52015e-08
-5.95331e-08
-9.94524e-08
7.34298e-08
-5.92145e-09
-8.1829e-08
-4.86654e-08
9.7384e-09
5.07471e-08
-4.8174e-08
4.47667e-08
2.01358e-07
2.30395e-08
4.8583e-08
1.7246e-08
-1.39811e-08
6.14571e-09
1.99977e-08
6.55923e-08
1.99782e-08
-9.23509e-09
-6.05313e-08
-6.04096e-08
-9.79519e-09
-4.66121e-08
8.87785e-08
8.86179e-08
-4.71381e-08
-1.18729e-08
-1.24022e-08
2.68904e-08
3.58173e-08
4.98471e-09
-7.34533e-08
-9.03136e-09
-2.55895e-08
-2.31663e-08
1.88747e-11
-1.17138e-07
-4.34278e-08
-9.84371e-09
-2.23377e-08
-5.90566e-09
-5.06575e-11
-1.92751e-08
-4.86979e-08
3.76072e-12
-1.01159e-08
-1.7317e-08
-1.84283e-08
3.62974e-08
-9.94402e-08
-5.949e-08
-6.95156e-09
-8.19463e-08
-4.92339e-08
5.07937e-08
-4.94736e-08
2.01195e-07
4.48245e-08
2.23508e-08
4.97158e-09
-1.45454e-08
2.67938e-08
3.58243e-08
4.96926e-09
-7.34933e-08
-8.9314e-09
-2.55751e-08
-2.31154e-08
-1.17158e-07
-4.33786e-08
-9.94128e-09
-2.23167e-08
-6.0075e-09
-1.92464e-08
-4.87226e-08
-1.00661e-08
-1.74469e-08
-1.83819e-08
3.61989e-08
-5.94638e-08
-9.95269e-08
-6.83845e-09
-8.20349e-08
-4.91993e-08
5.08527e-08
-4.93892e-08
4.50419e-08
2.01179e-07
2.24433e-08
-1.44629e-08
5.0693e-09
6.55347e-08
1.98799e-08
2.00566e-08
-9.17982e-09
-6.06076e-08
-6.02939e-08
-9.71169e-09
8.86289e-08
-4.64386e-08
8.88024e-08
-4.71536e-08
-1.17693e-08
-1.23515e-08
3.88834e-08
3.91888e-08
-3.86784e-08
-3.93912e-08
3.19802e-07
-3.19804e-07
1.13595e-08
-3.9436e-08
1.86952e-07
8.34413e-08
4.60957e-08
-4.89465e-08
-3.06395e-08
-5.60037e-08
-3.37434e-09
-1.16861e-07
5.08346e-08
-8.34223e-08
3.88588e-08
3.91644e-08
-3.19845e-07
-3.86755e-08
-3.93844e-08
3.19882e-07
-8.33955e-08
1.13513e-08
-3.94044e-08
1.87062e-07
8.34385e-08
4.60884e-08
-4.89586e-08
-3.06522e-08
-5.60295e-08
-3.41886e-09
5.08068e-08
-1.16888e-07
1.13335e-08
-3.93902e-08
1.87327e-07
8.36448e-08
4.60716e-08
-4.89839e-08
-3.06791e-08
-5.60831e-08
-3.46967e-09
-1.16909e-07
5.07431e-08
-8.36048e-08
-1.15438e-08
-1.14174e-08
2.28528e-08
2.31232e-08
-3.28424e-08
9.82765e-09
-8.33438e-08
1.14699e-08
-3.99048e-08
1.86583e-07
4.61833e-08
-4.88062e-08
-3.04896e-08
-5.58494e-08
-3.17933e-09
5.09578e-08
-1.16648e-07
-1.14722e-08
-1.1382e-08
2.28064e-08
2.30907e-08
-3.309e-08
1.0047e-08
4.8793e-08
4.89549e-08
-1.00545e-08
3.30966e-08
-6.05534e-08
-6.02367e-08
1.87273e-07
8.91423e-08
4.60813e-08
-4.87933e-08
-3.06473e-08
-5.62076e-08
-3.80534e-09
-1.17142e-07
5.06403e-08
-8.91306e-08
1.1548e-08
-3.8657e-08
1.86524e-07
8.99297e-08
4.6201e-08
-4.87463e-08
-3.05896e-08
-5.62073e-08
-3.6521e-09
-1.17122e-07
5.06953e-08
-8.99246e-08
8.91334e-08
-3.8873e-08
-8.91363e-08
1.87279e-07
1.14721e-08
-3.06475e-08
4.60822e-08
5.06398e-08
-1.1714e-07
-3.81087e-09
-5.62056e-08
-4.87434e-08
8.99046e-08
-3.86763e-08
-8.99212e-08
1.86513e-07
1.15531e-08
-3.05827e-08
4.62113e-08
5.0702e-08
-1.17113e-07
-3.65211e-09
-5.61957e-08
2.29456e-08
2.30066e-08
-3.31122e-08
1.00676e-08
4.8954e-08
-1.00724e-08
3.31159e-08
-6.0434e-08
-6.03069e-08
1.8665e-07
8.34023e-08
4.61661e-08
-4.89532e-08
-3.06364e-08
-5.60658e-08
-3.30282e-09
-1.16864e-07
5.08101e-08
-8.34001e-08
-3.86674e-08
1.86943e-07
9.0068e-08
-5.62763e-08
-3.72505e-09
5.06163e-08
-1.17154e-07
-9.00764e-08
1.15123e-08
4.61797e-08
-4.87925e-08
-3.06278e-08
8.33604e-08
-3.91747e-08
-8.33856e-08
1.86672e-07
1.13797e-08
-3.06385e-08
4.61654e-08
5.08109e-08
-1.16864e-07
-3.30624e-09
-5.60647e-08
9.00577e-08
-3.86489e-08
-9.00427e-08
1.86964e-07
5.06164e-08
-1.17164e-07
-5.62797e-08
-3.73199e-09
-4.87966e-08
1.15017e-08
-3.06386e-08
4.61622e-08
-3.88378e-08
1.8753e-07
9.02e-08
-5.62509e-08
-3.85614e-09
-1.17193e-07
5.06086e-08
1.14222e-08
-9.01311e-08
4.60202e-08
-4.88261e-08
-3.06864e-08
-3.94253e-08
-8.33991e-08
1.87093e-07
1.135e-08
-3.0647e-08
4.60885e-08
5.08143e-08
-1.16884e-07
-5.60255e-08
-3.4061e-09
9.0165e-08
-3.89199e-08
-9.01736e-08
1.86806e-07
5.06718e-08
-1.17093e-07
-5.6186e-08
-3.69625e-09
-4.8718e-08
1.15507e-08
-3.0568e-08
4.61614e-08
-1.14638e-08
-1.1369e-08
2.27961e-08
2.30824e-08
-3.31002e-08
4.86504e-08
4.88013e-08
3.31371e-08
-6.03781e-08
-6.00675e-08
1.87294e-07
8.91498e-08
4.60737e-08
-4.8802e-08
-3.06558e-08
-5.62146e-08
-3.80716e-09
5.06424e-08
-1.17152e-07
1.15461e-08
-3.86609e-08
1.86544e-07
8.99156e-08
4.62026e-08
-4.87555e-08
-3.05964e-08
-5.6211e-08
-3.65261e-09
5.06998e-08
-1.17128e-07
-3.92514e-08
-8.92063e-08
1.86953e-07
1.15826e-08
-3.04984e-08
4.61732e-08
5.07579e-08
-1.16935e-07
-3.61409e-09
-5.60676e-08
-4.87619e-08
8.99503e-08
-3.88456e-08
-8.99641e-08
1.86573e-07
1.15055e-08
-3.06146e-08
4.61661e-08
5.07659e-08
-1.17063e-07
-3.57714e-09
-5.61341e-08
2.29424e-08
2.30014e-08
-3.31188e-08
4.89212e-08
-1.00941e-08
3.31317e-08
-6.04055e-08
-6.03152e-08
1.86682e-07
8.33768e-08
4.61533e-08
-4.89649e-08
-3.06482e-08
-5.60729e-08
-3.30804e-09
5.08095e-08
-1.16872e-07
1.1507e-08
-3.86253e-08
1.86989e-07
9.00636e-08
4.61664e-08
-4.87984e-08
-3.06423e-08
-5.62938e-08
-3.74228e-09
5.06082e-08
-1.17174e-07
-3.94996e-08
-8.33763e-08
1.86309e-07
1.15057e-08
-3.048e-08
4.62649e-08
5.09259e-08
-1.1666e-07
-3.11682e-09
-5.5927e-08
-4.86908e-08
-3.9189e-08
-9.00057e-08
1.86887e-07
1.14269e-08
-3.04746e-08
4.6027e-08
5.0759e-08
-1.16776e-07
-3.60447e-09
-5.60192e-08
-3.89296e-08
1.87109e-07
9.0056e-08
4.61564e-08
-4.87536e-08
-3.06103e-08
-5.62135e-08
-3.72022e-09
-1.17139e-07
5.06658e-08
-3.93931e-08
-8.33961e-08
1.86964e-07
1.13684e-08
-3.06312e-08
4.60982e-08
5.08238e-08
-1.16865e-07
-5.59996e-08
-3.39209e-09
-4.86734e-08
-3.91397e-08
-8.98209e-08
1.87174e-07
1.14516e-08
-3.04715e-08
4.59973e-08
5.073e-08
-1.16805e-07
-3.7259e-09
-5.59993e-08
2.29092e-08
2.29651e-08
-3.29081e-08
9.87425e-09
3.28849e-08
-6.02335e-08
-3.92788e-08
1.86633e-07
8.37412e-08
4.61925e-08
-4.89488e-08
-3.06427e-08
-5.60715e-08
-3.29526e-09
-1.16886e-07
5.08271e-08
-8.36883e-08
3.27556e-08
-6.03198e-08
1.16788e-08
-3.8983e-08
4.63083e-08
-4.85788e-08
-3.04148e-08
-3.5335e-09
-1.1686e-07
2.30598e-08
2.3128e-08
-3.31331e-08
-1.04321e-10
-7.47746e-09
-1.49616e-08
-6.88693e-08
5.5199e-08
3.62136e-08
7.97235e-08
-2.12738e-07
2.43886e-08
4.34709e-08
6.51546e-08
1.37773e-07
3.40268e-07
-6.51595e-08
-3.88494e-07
-2.43872e-08
-6.58585e-11
-1.49351e-07
-3.62124e-08
1.56039e-07
1.46301e-08
1.49598e-08
-8.00458e-08
4.01081e-09
2.14606e-08
5.45744e-08
-1.37349e-07
2.13384e-07
-5.45771e-08
-2.14575e-08
-7.32547e-09
9.63396e-11
-1.49088e-08
5.49224e-08
-6.89395e-08
3.61551e-08
8.00137e-08
-2.13188e-07
2.40569e-08
4.36005e-08
6.55165e-08
1.37242e-07
3.40289e-07
-6.55223e-08
-3.87955e-07
-2.40541e-08
-1.49235e-07
4.1665e-11
-3.61609e-08
1.44449e-08
1.55987e-07
1.49223e-08
-3.90413e-08
-3.90428e-08
3.20875e-07
-3.20883e-07
-3.89944e-08
-3.90514e-08
3.19754e-07
3.93671e-08
-3.19743e-07
-3.88362e-08
-3.9517e-08
3.19936e-07
3.92918e-08
-3.19713e-07
-3.19825e-07
-3.86788e-08
-3.93892e-08
3.20869e-07
-3.20848e-07
-3.9043e-08
-3.90798e-08
3.19833e-07
-3.1979e-07
-3.89943e-08
-3.9094e-08
3.93961e-08
3.19722e-07
-3.19921e-07
-3.87923e-08
-3.92468e-08
3.93173e-08
7.36766e-09
2.37938e-11
-1.94125e-08
-5.9487e-09
-2.24831e-08
4.04528e-08
-6.86969e-08
2.13069e-07
-4.90047e-08
-8.01713e-08
7.11892e-09
-2.23146e-08
1.48175e-07
-3.8478e-10
3.95334e-08
-1.46757e-08
8.63197e-08
-3.10227e-10
7.64353e-08
-1.48141e-07
1.86955e-07
-4.89466e-08
8.34351e-08
-3.94418e-08
5.08422e-08
-1.16859e-07
-3.36605e-09
-5.59984e-08
1.13628e-08
-3.06408e-08
4.60988e-08
-8.18396e-09
-3.40295e-07
2.23482e-08
4.48415e-08
8.01512e-08
2.01138e-07
-4.16974e-10
1.4821e-07
3.95376e-08
7.64411e-08
-2.99347e-10
8.63257e-08
-1.46675e-08
1.49273e-07
3.9032e-11
-4.04526e-08
-3.40839e-09
-1.24874e-07
1.94228e-08
-1.02121e-10
-7.46364e-09
-1.49646e-08
3.62202e-08
-6.88857e-08
5.51958e-08
6.51627e-08
7.97294e-08
-2.12745e-07
4.34655e-08
2.43873e-08
1.49624e-08
-6.59871e-11
-1.49359e-07
-3.62137e-08
1.56043e-07
1.46324e-08
1.37762e-07
3.40282e-07
-6.51792e-08
-3.88484e-07
-2.43812e-08
5.45778e-08
-8.00438e-08
4.00541e-09
2.14606e-08
-1.37349e-07
2.13394e-07
-5.4591e-08
-2.14539e-08
-7.30886e-09
9.40691e-11
-1.48906e-08
3.61432e-08
5.49201e-08
-6.89579e-08
6.55239e-08
8.00205e-08
-2.1319e-07
4.35927e-08
2.40534e-08
1.49027e-08
-1.49236e-07
4.22386e-11
-3.61429e-08
1.44474e-08
1.55987e-07
1.37233e-07
3.40303e-07
-6.55448e-08
-3.87945e-07
-2.40464e-08
-3.90189e-08
-3.90626e-08
3.20886e-07
-3.89966e-08
-3.90912e-08
3.19905e-07
-3.8749e-08
-3.93666e-08
3.19629e-07
-3.19861e-07
-3.88188e-08
-3.96538e-08
3.20919e-07
-3.20957e-07
-3.89568e-08
-3.9243e-08
-3.19569e-07
-3.89097e-08
-3.91181e-08
-3.19558e-07
-3.87809e-08
-3.95154e-08
7.35981e-09
2.61961e-11
-1.94496e-08
4.04851e-08
-5.94855e-09
-2.24729e-08
-2.23198e-08
-6.86965e-08
2.13055e-07
-4.89714e-08
7.11715e-09
-8.01844e-08
1.48268e-07
-1.48156e-07
-2.84565e-10
3.95154e-08
-1.46921e-08
8.631e-08
7.64183e-08
-3.17576e-10
1.87044e-07
-4.89544e-08
8.34118e-08
-3.93741e-08
5.08181e-08
-1.16878e-07
-3.39823e-09
-5.60178e-08
1.13497e-08
-3.06487e-08
4.60866e-08
1.94215e-08
1.49266e-07
5.29613e-11
-4.04655e-08
-3.4125e-09
-1.24863e-07
-8.18896e-09
-3.40303e-07
2.23008e-08
4.48411e-08
8.01996e-08
2.0115e-07
-2.98916e-10
1.48269e-07
3.96258e-08
7.64162e-08
-3.15388e-10
8.63042e-08
-1.46885e-08
-8.00424e-08
3.97742e-09
2.13258e-08
5.47392e-08
-1.37326e-07
2.13421e-07
-5.47708e-08
-2.13246e-08
-5.48584e-11
7.3416e-09
-1.92259e-08
-2.24307e-08
-5.90744e-09
4.02774e-08
1.48065e-07
3.36919e-10
3.94757e-08
-1.47444e-08
8.62439e-08
-3.76412e-10
7.6366e-08
-1.4804e-07
-6.87205e-08
2.12959e-07
-4.8902e-08
-8.01432e-08
7.11994e-09
-2.23132e-08
1.8738e-07
-4.89835e-08
8.35697e-08
-3.94504e-08
5.07685e-08
-1.16877e-07
-3.43262e-09
-5.60454e-08
1.13284e-08
-3.06813e-08
4.60692e-08
4.28437e-10
1.47994e-07
3.9447e-08
7.63792e-08
-3.4827e-10
8.62547e-08
-1.4711e-08
-8.19226e-09
-3.40254e-07
2.23488e-08
4.48302e-08
8.01436e-08
2.01124e-07
-3.95883e-11
1.49211e-07
-4.03157e-08
-1.24805e-07
-3.36546e-09
1.93143e-08
6.87247e-08
-3.61824e-09
1.94706e-08
-1.75256e-08
-1.1193e-07
4.48785e-08
6.87777e-08
-3.87265e-09
1.93272e-08
-1.76966e-08
-1.11635e-07
4.50991e-08
4.87505e-08
4.8954e-08
-9.77239e-09
3.2805e-08
-6.05416e-08
-6.01954e-08
8.11767e-09
-2.13819e-07
-4.47904e-08
6.11643e-08
1.75057e-08
1.71821e-07
8.39734e-09
-2.13346e-07
-4.5211e-08
6.09146e-08
1.77447e-08
1.715e-07
5.45513e-08
-7.99727e-08
3.97448e-09
2.14469e-08
-3.92481e-08
-2.22975e-08
-6.86055e-08
2.13112e-07
-4.91294e-08
7.07776e-09
-8.01576e-08
-1.47837e-07
-5.34962e-10
3.87978e-08
-1.45701e-08
8.64346e-08
7.65396e-08
-2.2551e-10
1.94515e-08
1.49405e-07
1.69108e-11
-4.0481e-08
-3.39246e-09
-1.24999e-07
3.64474e-09
2.15162e-08
5.45625e-08
2.13858e-07
-5.45682e-08
-2.15171e-08
3.93577e-09
2.13829e-08
5.46949e-08
2.13323e-07
-5.46991e-08
-2.1382e-08
6.87473e-08
1.95446e-08
-1.74105e-08
-1.11961e-07
4.47243e-08
6.86901e-08
1.93022e-08
-1.7894e-08
-1.11565e-07
4.54022e-08
-1.00531e-08
4.88e-08
4.89589e-08
3.30958e-08
-6.05588e-08
-6.02429e-08
-4.47232e-08
8.08984e-09
6.12394e-08
1.74102e-08
1.71842e-07
-4.54029e-08
8.38516e-09
6.09342e-08
1.78944e-08
1.71512e-07
2.1385e-07
-1.37768e-07
-5.45657e-08
-2.15155e-08
3.6393e-09
-7.9726e-08
2.15184e-08
2.13319e-07
-1.37238e-07
-5.46977e-08
-2.13824e-08
3.93425e-09
-8.00159e-08
2.13824e-08
-1.14612e-08
-1.13711e-08
-3.30996e-08
2.27977e-08
2.30811e-08
8.09206e-09
-4.47267e-08
1.71837e-07
1.74144e-08
6.12326e-08
8.38542e-09
-4.54074e-08
1.71511e-07
1.78978e-08
6.09321e-08
6.87441e-08
-1.11959e-07
1.95415e-08
-1.74103e-08
6.86872e-08
-1.11566e-07
1.93038e-08
-1.78938e-08
-7.46946e-09
-1.4967e-08
-6.88943e-08
5.49984e-08
3.62281e-08
-2.12982e-07
2.42859e-08
4.34483e-08
6.52022e-08
3.40312e-07
-6.52038e-08
-3.88173e-07
-2.42834e-08
-1.4937e-07
-3.62266e-08
1.56072e-07
1.44935e-08
1.49653e-08
-5.06929e-11
-1.93681e-08
-5.86995e-09
-2.26002e-08
4.04116e-08
-4.8633e-08
-7.94369e-08
6.9994e-09
-2.29199e-08
1.50259e-07
3.82634e-10
3.85698e-08
-1.45719e-08
8.64911e-08
-1.83095e-10
7.65677e-08
-1.50242e-07
1.87286e-07
8.91056e-08
-3.88843e-08
1.1475e-08
-3.06546e-08
4.60879e-08
5.06493e-08
-1.17134e-07
-3.79041e-09
-5.61978e-08
2.29223e-08
4.47144e-08
7.94389e-08
2.01282e-07
3.90524e-10
1.50248e-07
3.85666e-08
7.65753e-08
-1.72781e-10
8.64988e-08
-1.45604e-08
-3.53285e-11
-4.04106e-08
-3.28262e-09
-1.24989e-07
1.93671e-08
-1.93607e-08
-5.96856e-09
-2.25983e-08
4.04077e-08
-6.88031e-08
-4.88269e-08
-7.95345e-08
7.09777e-09
-2.29155e-08
1.50979e-07
3.86059e-08
-1.4582e-08
8.64856e-08
-1.9654e-10
7.65883e-08
-1.50973e-07
1.86511e-07
8.98979e-08
-4.87459e-08
-3.86712e-08
5.07083e-08
-1.17107e-07
-5.61898e-08
-3.63942e-09
1.15515e-08
-3.05906e-08
4.6205e-08
2.29181e-08
-8.33252e-09
4.49355e-08
7.9535e-08
2.01256e-07
1.50982e-07
3.85407e-08
7.6603e-08
-1.8243e-10
8.65001e-08
-1.45631e-08
-4.04067e-08
-3.35905e-09
-1.25e-07
1.93601e-08
-6.60976e-11
-1.49356e-07
1.5604e-07
1.46301e-08
-3.62101e-08
3.40273e-07
-2.43844e-08
-3.88494e-07
-2.12756e-07
4.34758e-08
2.43947e-08
-1.04664e-10
-7.47685e-09
3.62133e-08
-6.88703e-08
5.52009e-08
-1.49376e-07
1.56075e-07
1.44935e-08
-3.62244e-08
3.40318e-07
1.37346e-07
-6.52082e-08
-2.42829e-08
-3.88173e-07
-2.12993e-07
8.00479e-08
4.34495e-08
2.42914e-08
-7.46881e-09
-1.49673e-08
3.62272e-08
-6.88945e-08
5.49986e-08
-3.53456e-11
-3.28011e-09
-1.24999e-07
-4.04092e-08
1.87284e-07
-3.88714e-08
-4.88046e-08
4.60742e-08
-3.06588e-08
-5.62148e-08
-3.79527e-09
-1.17155e-07
5.06492e-08
2.29179e-08
2.01289e-07
7.94418e-08
4.47158e-08
-1.50256e-07
3.8378e-10
1.50248e-07
3.85741e-08
7.6573e-08
-1.76172e-10
8.64996e-08
-1.45671e-08
6.99462e-09
-4.86488e-08
-7.94354e-08
3.83609e-10
3.85579e-08
-1.45691e-08
8.65023e-08
7.6579e-08
-1.78391e-10
-5.17245e-11
-1.93691e-08
4.04103e-08
-5.86901e-09
-2.25975e-08
-3.35677e-09
-1.2501e-07
-4.04052e-08
1.86514e-07
1.15484e-08
-3.86504e-08
-5.62136e-08
-3.64668e-09
5.07033e-08
-1.17133e-07
-4.87512e-08
4.62003e-08
-3.05938e-08
-8.33402e-09
2.29133e-08
2.01264e-07
7.95379e-08
4.49369e-08
-1.50964e-07
1.50971e-07
3.85377e-08
7.66026e-08
-1.84961e-10
8.65019e-08
-1.45676e-08
-6.88022e-08
7.09417e-09
-4.88366e-08
-7.95301e-08
3.85871e-08
-1.4578e-08
8.64973e-08
7.66e-08
-1.91246e-10
-1.93618e-08
4.04068e-08
-5.96947e-09
-2.25963e-08
1.95001e-08
-1.75048e-08
-1.11689e-07
4.49016e-08
-3.5223e-09
1.92915e-08
-1.77589e-08
-1.11877e-07
4.51696e-08
-1.00667e-08
3.31114e-08
-6.04314e-08
-6.03058e-08
-4.49008e-08
6.08449e-08
1.75057e-08
1.71601e-07
-2.13746e-07
-4.51424e-08
6.12393e-08
1.77472e-08
1.71718e-07
-7.96719e-08
2.1395e-08
5.47545e-08
-5.47537e-08
-1.37597e-07
-2.13949e-08
2.13383e-07
-2.14589e-08
4.00873e-09
2.14619e-08
-1.13335e-08
-3.31165e-08
2.2931e-08
2.30006e-08
-4.49037e-08
1.71604e-07
1.75086e-08
6.08404e-08
-2.13742e-07
8.18656e-09
-4.51639e-08
1.71725e-07
1.77537e-08
6.12403e-08
-1.11691e-07
1.95005e-08
-1.75032e-08
-3.52842e-09
6.86899e-08
-1.11865e-07
1.93036e-08
-1.77429e-08
-1.3759e-07
-5.47524e-08
-2.13988e-08
-7.96821e-08
2.13999e-08
3.24384e-11
-1.93351e-08
-5.98617e-09
-2.241e-08
4.03734e-08
-4.91175e-08
-8.02855e-08
7.17155e-09
-2.22662e-08
1.48652e-07
-3.58848e-10
3.95514e-08
-1.47642e-08
8.62406e-08
-3.86264e-10
7.63633e-08
-1.48647e-07
1.86664e-07
8.33682e-08
-3.91815e-08
1.13846e-08
-3.06445e-08
4.61688e-08
5.08158e-08
-1.16859e-07
-3.29866e-09
-5.60573e-08
2.2268e-08
4.50069e-08
8.02856e-08
2.01114e-07
-3.48257e-10
1.48624e-07
3.95639e-08
7.63679e-08
-3.79183e-10
8.62456e-08
-1.47576e-08
4.95248e-11
-4.03828e-08
-3.43843e-09
-1.24815e-07
1.93525e-08
-7.43813e-09
-1.48523e-08
-6.88773e-08
3.61148e-08
5.51493e-08
-2.12867e-07
4.33984e-08
2.42316e-08
8.00404e-08
6.51963e-08
-1.49308e-07
-3.61217e-08
1.56038e-07
1.45678e-08
1.48657e-08
3.40294e-07
-6.5204e-08
-3.88232e-07
-2.42318e-08
1.37374e-07
-1.92378e-08
-2.25221e-08
4.02695e-08
-5.91528e-09
1.50934e-07
3.86089e-08
-1.46498e-08
8.64006e-08
-2.67301e-10
7.65168e-08
-1.50959e-07
-4.87417e-08
7.06963e-09
-7.94523e-08
-2.2964e-08
-6.87785e-08
1.86947e-07
9.00536e-08
-3.86679e-08
5.06199e-08
-1.17159e-07
-5.62745e-08
-3.72782e-09
-4.87881e-08
1.15131e-08
-3.06265e-08
4.61779e-08
1.50928e-07
3.85619e-08
7.65267e-08
-2.5738e-10
8.64121e-08
-1.46388e-08
-4.02792e-08
-1.24929e-07
-3.30554e-09
1.92554e-08
2.2969e-08
4.48908e-08
7.94493e-08
2.01286e-07
-8.3006e-09
-1.4924e-07
4.0569e-11
1.44488e-08
1.5599e-07
-3.61479e-08
3.40296e-07
-2.40549e-08
-3.87955e-07
-2.13196e-07
4.3598e-08
2.40602e-08
-7.32215e-09
9.66748e-11
3.61462e-08
5.4923e-08
-6.8941e-08
4.99879e-11
-3.43464e-09
-1.24823e-07
-4.03668e-08
1.86669e-07
-3.91685e-08
-4.89633e-08
4.61561e-08
-3.06466e-08
-5.60724e-08
-3.30186e-09
-1.16874e-07
5.08135e-08
2.22636e-08
2.01122e-07
8.02879e-08
4.50084e-08
-1.48616e-07
-3.51744e-10
1.48601e-07
3.9582e-08
7.63647e-08
-3.85439e-10
8.62437e-08
-1.4766e-08
7.16521e-09
-4.9125e-08
-8.02814e-08
-3.53313e-10
3.95718e-08
-1.47666e-08
8.6245e-08
7.63665e-08
-3.86389e-10
3.1859e-11
-1.93293e-08
4.03647e-08
-5.98587e-09
-2.24036e-08
-1.49316e-07
1.56044e-07
-3.61086e-08
1.45696e-08
3.40297e-07
-6.52047e-08
-3.8823e-07
-2.4233e-08
1.37371e-07
-7.43508e-09
-1.48437e-08
3.61042e-08
-6.88783e-08
5.51493e-08
-2.12877e-07
4.34032e-08
2.42354e-08
8.00343e-08
-1.24939e-07
-4.02627e-08
-3.302e-09
1.86968e-07
-3.86516e-08
-5.62863e-08
-3.72939e-09
5.06157e-08
-1.17168e-07
1.15199e-08
-4.87997e-08
4.61838e-08
-3.06411e-08
-1.5091e-07
1.50914e-07
3.85791e-08
7.65258e-08
-2.62588e-10
8.64114e-08
-1.4645e-08
2.29667e-08
2.01288e-07
4.48946e-08
7.94518e-08
-8.30403e-09
3.86227e-08
-1.46511e-08
8.64065e-08
7.6521e-08
-2.66265e-10
-1.92297e-08
4.02593e-08
-2.25167e-08
-5.91621e-09
7.06722e-09
-4.87442e-08
-7.94479e-08
-6.87832e-08
9.60282e-11
-1.49685e-08
5.49735e-08
-6.89382e-08
3.62051e-08
2.40728e-08
4.37349e-08
6.5589e-08
-6.56041e-08
-3.88219e-07
-2.40692e-08
3.1084e-11
-3.61989e-08
1.44677e-08
1.55999e-07
1.49738e-08
7.46671e-09
-1.93251e-08
-2.25823e-08
4.03603e-08
-5.8957e-09
1.50576e-07
3.87486e-08
-1.45912e-08
8.64578e-08
-2.12254e-10
7.65618e-08
-1.50395e-07
2.12757e-07
-4.86144e-08
7.05436e-09
-7.94172e-08
-6.88213e-08
-2.29582e-08
1.87586e-07
8.99098e-08
-3.87763e-08
5.06286e-08
-1.17176e-07
-5.62433e-08
-3.80066e-09
-4.88289e-08
1.14694e-08
-3.06758e-08
4.6108e-08
1.5077e-07
3.87135e-08
7.65726e-08
-1.98819e-10
8.64668e-08
-1.45781e-08
1.49345e-07
-4.03476e-08
-1.24979e-07
-3.3037e-09
1.9324e-08
-3.40384e-07
2.30016e-08
4.47421e-08
7.94656e-08
2.01332e-07
-8.15726e-09
-1.49298e-08
-6.88842e-08
3.61845e-08
5.51924e-08
4.35355e-08
2.42905e-08
6.52121e-08
7.97188e-08
-3.61627e-08
1.5605e-07
1.45688e-08
1.492e-08
-6.52911e-08
-3.88621e-07
-2.42471e-08
1.37776e-07
1.49284e-07
2.66252e-11
-3.39609e-09
-1.24879e-07
-4.04478e-08
1.87198e-07
-3.94442e-08
-4.89757e-08
4.60725e-08
-3.06687e-08
-5.60283e-08
-3.38879e-09
5.08272e-08
-1.1689e-07
-3.403e-07
2.01162e-07
8.01614e-08
4.4843e-08
-1.48146e-07
-1.59083e-10
3.9511e-08
7.64211e-08
-3.12714e-10
-1.46885e-08
8.63115e-08
2.13075e-07
7.10533e-09
-4.9e-08
-8.01418e-08
4.58911e-11
3.94675e-08
-1.46887e-08
8.63216e-08
7.64318e-08
-3.15877e-10
7.35904e-09
3.34834e-11
4.04492e-08
-5.95342e-09
-2.24669e-08
-1.67362e-11
1.45081e-08
1.56018e-07
-3.61936e-08
-6.558e-08
-2.40887e-08
-3.88221e-07
4.37053e-08
2.40829e-08
9.0947e-11
-1.49735e-08
3.61944e-08
5.49763e-08
-6.89292e-08
1.49365e-07
-1.2499e-07
-4.03595e-08
-3.31363e-09
1.86512e-07
-3.88121e-08
-5.62338e-08
-3.71986e-09
5.0666e-08
-1.17141e-07
1.15876e-08
-4.87406e-08
4.62263e-08
-3.06091e-08
-1.5052e-07
1.50422e-07
3.84498e-08
7.65807e-08
-1.95227e-10
8.6473e-08
-1.45637e-08
-3.40252e-07
2.29727e-08
2.01235e-07
4.47201e-08
7.94092e-08
-8.08577e-09
3.85488e-08
-1.4586e-08
8.64707e-08
7.65835e-08
-2.08528e-10
7.45733e-09
-1.9325e-08
4.03497e-08
-2.25699e-08
-5.87883e-09
2.12987e-07
7.10726e-09
-4.87483e-08
-7.94471e-08
-6.88971e-08
1.56088e-07
-3.61753e-08
1.45054e-08
-6.51864e-08
-3.88451e-07
-2.43319e-08
1.37717e-07
-1.4925e-08
3.61648e-08
-6.88733e-08
5.51817e-08
4.37592e-08
2.42565e-08
7.96803e-08
3.64727e-09
2.15162e-08
2.13866e-07
-5.45892e-08
-2.1514e-08
3.94229e-09
2.13806e-08
2.13334e-07
-5.47228e-08
-2.13783e-08
6.87446e-08
1.95462e-08
-1.11956e-07
-1.74145e-08
6.86848e-08
1.9307e-08
-1.11556e-07
-1.79004e-08
-1.00568e-08
4.88137e-08
4.89713e-08
3.31035e-08
-6.05731e-08
-6.02585e-08
-4.47425e-08
8.10256e-09
6.12225e-08
1.74261e-08
1.71857e-07
-4.54243e-08
8.39579e-09
6.09219e-08
1.79126e-08
1.71528e-07
2.1363e-07
-1.37729e-07
-2.15295e-08
3.62037e-09
-7.97354e-08
2.15257e-08
2.13101e-07
-1.37203e-07
-2.13983e-08
3.91503e-09
-8.00279e-08
2.13899e-08
-1.1457e-08
-1.13698e-08
-3.31104e-08
2.27997e-08
2.30805e-08
8.00126e-09
1.71583e-07
1.73399e-08
6.12863e-08
8.29275e-09
1.71257e-07
1.78236e-08
6.09869e-08
6.87319e-08
-1.11943e-07
1.95261e-08
-1.74373e-08
6.86722e-08
-1.11544e-07
1.92853e-08
-1.79228e-08
-7.45133e-09
-1.49702e-08
3.62339e-08
-6.89126e-08
5.49981e-08
-2.12983e-07
4.34459e-08
2.42847e-08
-1.49378e-07
-3.62272e-08
1.56077e-07
1.44946e-08
3.40323e-07
-6.52222e-08
-3.88174e-07
-2.42762e-08
-4.96937e-11
-1.93686e-08
4.04173e-08
-5.87244e-09
-2.25903e-08
-4.86378e-08
6.99661e-09
-7.94413e-08
1.50269e-07
3.80192e-10
3.85782e-08
-1.45737e-08
8.6498e-08
7.65736e-08
-1.83648e-10
1.87324e-07
8.91567e-08
-3.88525e-08
1.14574e-08
-3.06689e-08
4.60716e-08
5.06397e-08
-1.17147e-07
-3.80953e-09
-5.62079e-08
-3.59385e-11
-4.04128e-08
-3.28075e-09
-1.24998e-07
2.2915e-08
4.47241e-08
7.94491e-08
2.01296e-07
3.87018e-10
1.50286e-07
3.86074e-08
7.65692e-08
-1.80269e-10
8.64928e-08
-1.45684e-08
-1.93608e-08
4.04126e-08
-5.96888e-09
-2.25839e-08
-6.8802e-08
-4.88269e-08