/*--------------------------------*- C++ -*----------------------------------*\
| =========                 |                                                 |
| \\      /  F ield         | OpenFOAM: The Open Source CFD Toolbox           |
|  \\    /   O peration     | Version:  2206                                  |
|   \\  /    A nd           | Website:  www.openfoam.com                      |
|    \\/     M anipulation  |                                                 |
\*---------------------------------------------------------------------------*/
FoamFile
{
    version     2.0;
    format      ascii;
    arch        "LSB;label=32;scalar=64";
    class       volScalarField;
    location    "11.5";
    object      k;
}
// * * * * * * * * * * * * * * * * * * * * * * * * * * * * * * * * * * * * * //

dimensions      [0 2 -2 0 0 0 0];

internalField   nonuniform List<scalar> 
28335
(
3.21554e-05
3.20861e-05
3.20861e-05
3.19776e-05
3.21549e-05
3.20857e-05
3.20857e-05
3.19772e-05
3.21469e-05
3.20771e-05
3.20771e-05
3.19673e-05
3.21451e-05
3.20755e-05
3.20755e-05
3.19664e-05
3.21451e-05
3.20756e-05
3.20755e-05
3.19664e-05
3.21452e-05
3.20756e-05
3.20755e-05
3.19664e-05
3.21451e-05
3.20756e-05
3.20755e-05
3.19664e-05
3.21451e-05
3.20756e-05
3.20755e-05
3.19664e-05
3.21451e-05
3.20756e-05
3.20755e-05
3.19664e-05
3.21451e-05
3.20756e-05
3.20755e-05
3.19664e-05
3.21451e-05
3.20756e-05
3.20755e-05
3.19664e-05
3.21451e-05
3.20756e-05
3.20755e-05
3.19664e-05
3.21451e-05
3.20756e-05
3.20755e-05
3.19664e-05
3.21451e-05
3.20756e-05
3.20755e-05
3.19664e-05
3.21451e-05
3.20756e-05
3.20755e-05
3.19664e-05
3.21451e-05
3.20756e-05
3.20755e-05
3.19664e-05
3.21451e-05
3.20756e-05
3.20755e-05
3.19664e-05
3.19787e-05
3.20862e-05
3.20861e-05
3.19787e-05
3.20862e-05
3.20861e-05
3.20862e-05
3.20861e-05
3.19787e-05
3.20861e-05
3.20862e-05
3.19785e-05
3.19781e-05
3.19784e-05
3.20863e-05
3.20863e-05
3.2086e-05
3.2086e-05
3.19781e-05
3.19783e-05
3.20863e-05
3.20862e-05
3.20861e-05
3.2086e-05
3.20863e-05
3.20859e-05
3.2086e-05
3.1978e-05
3.19783e-05
3.20863e-05
3.20859e-05
3.2086e-05
3.19784e-05
3.19776e-05
3.19701e-05
3.20858e-05
3.20858e-05
3.20793e-05
3.20793e-05
3.19776e-05
3.19701e-05
3.20858e-05
3.20857e-05
3.20793e-05
3.20792e-05
3.20857e-05
3.20794e-05
3.20793e-05
3.19775e-05
3.197e-05
3.20858e-05
3.20793e-05
3.20793e-05
3.197e-05
3.19676e-05
3.19675e-05
3.20772e-05
3.20772e-05
3.20755e-05
3.20755e-05
3.19676e-05
3.19675e-05
3.20772e-05
3.20771e-05
3.20755e-05
3.20754e-05
3.20772e-05
3.20755e-05
3.20755e-05
3.19675e-05
3.19674e-05
3.20772e-05
3.20755e-05
3.20755e-05
3.19673e-05
3.19668e-05
3.19674e-05
3.20756e-05
3.20756e-05
3.20755e-05
3.20755e-05
3.19668e-05
3.19674e-05
3.20757e-05
3.20755e-05
3.20756e-05
3.20755e-05
3.20756e-05
3.20756e-05
3.20755e-05
3.19668e-05
3.19674e-05
3.20756e-05
3.20756e-05
3.20755e-05
3.19673e-05
3.19668e-05
3.19675e-05
3.20756e-05
3.20756e-05
3.20755e-05
3.20755e-05
3.19668e-05
3.19674e-05
3.20757e-05
3.20756e-05
3.20756e-05
3.20755e-05
3.20756e-05
3.20756e-05
3.20755e-05
3.19667e-05
3.19674e-05
3.20757e-05
3.20756e-05
3.20756e-05
3.19673e-05
3.19668e-05
3.19675e-05
3.20756e-05
3.20756e-05
3.20755e-05
3.20755e-05
3.19668e-05
3.19674e-05
3.20757e-05
3.20756e-05
3.20756e-05
3.20755e-05
3.20756e-05
3.20756e-05
3.20755e-05
3.19667e-05
3.19674e-05
3.20757e-05
3.20756e-05
3.20756e-05
3.19673e-05
3.19668e-05
3.19675e-05
3.20756e-05
3.20756e-05
3.20755e-05
3.20755e-05
3.19668e-05
3.19674e-05
3.20757e-05
3.20756e-05
3.20756e-05
3.20755e-05
3.20756e-05
3.20756e-05
3.20755e-05
3.19667e-05
3.19674e-05
3.20757e-05
3.20756e-05
3.20756e-05
3.19673e-05
3.19668e-05
3.19675e-05
3.20756e-05
3.20756e-05
3.20755e-05
3.20755e-05
3.19668e-05
3.19674e-05
3.20757e-05
3.20756e-05
3.20756e-05
3.20755e-05
3.20756e-05
3.20756e-05
3.20755e-05
3.19667e-05
3.19674e-05
3.20757e-05
3.20756e-05
3.20756e-05
3.19673e-05
3.19668e-05
3.19675e-05
3.20756e-05
3.20756e-05
3.20755e-05
3.20755e-05
3.19668e-05
3.19674e-05
3.20757e-05
3.20756e-05
3.20756e-05
3.20755e-05
3.20756e-05
3.20756e-05
3.20755e-05
3.19667e-05
3.19674e-05
3.20757e-05
3.20756e-05
3.20756e-05
3.19673e-05
3.19668e-05
3.19675e-05
3.20756e-05
3.20756e-05
3.20755e-05
3.20755e-05
3.19668e-05
3.19674e-05
3.20757e-05
3.20756e-05
3.20756e-05
3.20755e-05
3.20756e-05
3.20756e-05
3.20755e-05
3.19667e-05
3.19674e-05
3.20757e-05
3.20756e-05
3.20756e-05
3.19673e-05
3.19668e-05
3.19675e-05
3.20756e-05
3.20756e-05
3.20755e-05
3.20755e-05
3.19668e-05
3.19674e-05
3.20757e-05
3.20756e-05
3.20756e-05
3.20755e-05
3.20756e-05
3.20756e-05
3.20755e-05
3.19667e-05
3.19674e-05
3.20757e-05
3.20756e-05
3.20756e-05
3.19673e-05
3.19668e-05
3.19675e-05
3.20756e-05
3.20756e-05
3.20755e-05
3.20755e-05
3.19668e-05
3.19674e-05
3.20757e-05
3.20756e-05
3.20756e-05
3.20755e-05
3.20756e-05
3.20756e-05
3.20755e-05
3.19667e-05
3.19674e-05
3.20757e-05
3.20756e-05
3.20756e-05
3.19673e-05
3.19668e-05
3.19675e-05
3.20756e-05
3.20756e-05
3.20755e-05
3.20755e-05
3.19668e-05
3.19674e-05
3.20757e-05
3.20756e-05
3.20756e-05
3.20755e-05
3.20756e-05
3.20756e-05
3.20755e-05
3.19667e-05
3.19674e-05
3.20757e-05
3.20756e-05
3.20755e-05
3.19673e-05
3.19668e-05
3.19675e-05
3.20756e-05
3.20756e-05
3.20755e-05
3.20755e-05
3.19668e-05
3.19674e-05
3.20757e-05
3.20756e-05
3.20756e-05
3.20755e-05
3.20756e-05
3.20756e-05
3.20755e-05
3.19667e-05
3.19674e-05
3.20757e-05
3.20756e-05
3.20756e-05
3.19673e-05
3.19668e-05
3.19675e-05
3.20756e-05
3.20756e-05
3.20755e-05
3.20755e-05
3.19668e-05
3.19674e-05
3.20757e-05
3.20756e-05
3.20756e-05
3.20755e-05
3.20756e-05
3.20756e-05
3.20755e-05
3.19667e-05
3.19674e-05
3.20757e-05
3.20756e-05
3.20756e-05
3.19673e-05
3.19668e-05
3.19675e-05
3.20756e-05
3.20756e-05
3.20755e-05
3.20755e-05
3.19668e-05
3.19674e-05
3.20757e-05
3.20756e-05
3.20756e-05
3.20755e-05
3.20756e-05
3.20756e-05
3.20755e-05
3.19667e-05
3.19674e-05
3.20757e-05
3.20756e-05
3.20755e-05
3.19673e-05
3.19668e-05
3.20756e-05
3.20756e-05
3.19668e-05
3.20757e-05
3.20755e-05
3.20756e-05
3.19667e-05
3.20756e-05
3.27731e-05
6.09487e-05
8.38303e-05
3.27737e-05
6.0951e-05
3.21554e-05
3.21555e-05
3.21554e-05
3.21554e-05
3.16275e-05
3.20863e-05
3.25307e-05
3.21355e-05
8.38277e-05
3.16275e-05
3.20862e-05
3.21355e-05
3.25308e-05
3.19786e-05
3.38902e-05
3.38903e-05
3.27752e-05
6.09491e-05
3.27754e-05
6.09466e-05
8.38221e-05
8.38175e-05
3.27758e-05
6.09516e-05
3.27758e-05
6.0949e-05
3.21554e-05
3.21554e-05
3.21554e-05
3.21551e-05
3.21552e-05
3.21552e-05
3.21552e-05
3.16283e-05
3.2533e-05
3.21354e-05
3.20861e-05
3.16277e-05
3.25323e-05
3.21354e-05
8.38206e-05
8.38152e-05
3.16284e-05
3.21354e-05
3.25331e-05
3.20861e-05
3.16277e-05
3.21354e-05
3.25325e-05
3.38958e-05
3.38959e-05
3.19786e-05
3.38971e-05
3.38973e-05
3.27742e-05
6.09484e-05
3.27762e-05
6.09508e-05
8.38177e-05
8.38242e-05
3.27747e-05
6.09509e-05
3.27766e-05
6.09531e-05
3.21549e-05
3.21549e-05
3.21549e-05
3.2149e-05
3.2149e-05
3.2149e-05
3.2149e-05
3.1627e-05
3.25341e-05
3.21349e-05
3.2085e-05
3.16279e-05
3.25317e-05
3.21342e-05
8.38161e-05
8.38228e-05
3.1627e-05
3.21349e-05
3.25341e-05
3.2085e-05
3.16279e-05
3.21342e-05
3.25318e-05
3.38992e-05
3.38992e-05
3.19771e-05
3.38977e-05
3.38977e-05
3.27637e-05
6.09837e-05
3.27678e-05
6.09818e-05
8.38577e-05
8.38557e-05
3.27642e-05
6.09862e-05
3.27676e-05
6.09842e-05
3.2147e-05
3.2147e-05
3.2147e-05
3.21452e-05
3.21452e-05
3.21452e-05
3.21452e-05
3.16151e-05
3.25262e-05
3.21267e-05
3.20762e-05
3.16161e-05
3.25217e-05
3.21257e-05
8.38565e-05
8.38541e-05
3.16151e-05
3.21267e-05
3.25257e-05
3.20761e-05
3.1616e-05
3.21257e-05
3.25219e-05
3.38884e-05
3.38885e-05
3.19675e-05
3.38834e-05
3.38835e-05
3.27634e-05
6.0983e-05
3.27643e-05
6.0981e-05
8.38565e-05
8.38552e-05
3.2764e-05
6.09854e-05
3.27647e-05
6.09834e-05
3.21453e-05
3.21453e-05
3.21453e-05
3.21452e-05
3.21452e-05
3.21452e-05
3.21452e-05
3.1615e-05
3.25224e-05
3.21251e-05
3.20757e-05
3.16148e-05
3.2521e-05
3.21252e-05
8.38552e-05
8.38533e-05
3.16151e-05
3.21251e-05
3.25225e-05
3.20757e-05
3.16149e-05
3.21252e-05
3.25212e-05
3.38838e-05
3.38839e-05
3.19675e-05
3.38832e-05
3.38833e-05
3.27635e-05
6.09828e-05
3.27643e-05
6.0981e-05
8.38565e-05
8.38552e-05
3.27641e-05
6.09852e-05
3.27648e-05
6.09834e-05
3.21453e-05
3.21453e-05
3.21453e-05
3.21452e-05
3.21452e-05
3.21452e-05
3.21452e-05
3.1615e-05
3.25224e-05
3.21251e-05
3.20757e-05
3.16148e-05
3.2521e-05
3.21252e-05
8.38551e-05
8.38533e-05
3.16151e-05
3.21251e-05
3.25225e-05
3.20757e-05
3.16149e-05
3.21252e-05
3.25212e-05
3.38838e-05
3.38839e-05
3.19675e-05
3.38832e-05
3.38833e-05
3.27635e-05
6.09828e-05
3.27643e-05
6.0981e-05
8.38565e-05
8.38552e-05
3.27641e-05
6.09849e-05
3.27648e-05
6.09829e-05
3.21453e-05
3.21453e-05
3.21453e-05
3.21452e-05
3.21452e-05
3.21452e-05
3.21452e-05
3.1615e-05
3.25224e-05
3.21251e-05
3.20757e-05
3.16148e-05
3.2521e-05
3.21252e-05
8.38551e-05
8.38533e-05
3.16151e-05
3.21251e-05
3.25225e-05
3.20757e-05
3.16149e-05
3.21252e-05
3.25212e-05
3.38838e-05
3.38839e-05
3.19675e-05
3.38832e-05
3.38833e-05
3.27635e-05
6.09828e-05
3.27643e-05
6.0981e-05
8.38563e-05
8.3855e-05
3.27641e-05
6.09846e-05
3.27648e-05
6.09826e-05
3.21453e-05
3.21453e-05
3.21453e-05
3.21452e-05
3.21452e-05
3.21452e-05
3.21452e-05
3.1615e-05
3.25224e-05
3.21251e-05
3.20757e-05
3.16148e-05
3.2521e-05
3.21252e-05
8.38551e-05
8.38533e-05
3.16151e-05
3.21251e-05
3.25225e-05
3.20757e-05
3.16149e-05
3.21252e-05
3.25212e-05
3.38838e-05
3.38839e-05
3.19675e-05
3.38832e-05
3.38833e-05
3.27635e-05
6.09828e-05
3.27643e-05
6.0981e-05
8.38562e-05
8.38549e-05
3.27641e-05
6.09844e-05
3.27648e-05
6.09825e-05
3.21453e-05
3.21453e-05
3.21453e-05
3.21452e-05
3.21452e-05
3.21452e-05
3.21452e-05
3.1615e-05
3.25224e-05
3.21251e-05
3.20757e-05
3.16148e-05
3.2521e-05
3.21252e-05
8.38551e-05
8.38533e-05
3.16151e-05
3.21251e-05
3.25225e-05
3.20757e-05
3.16149e-05
3.21252e-05
3.25212e-05
3.38838e-05
3.38839e-05
3.19675e-05
3.38832e-05
3.38833e-05
3.27635e-05
6.09828e-05
3.27643e-05
6.0981e-05
8.38562e-05
8.38549e-05
3.27641e-05
6.09844e-05
3.27648e-05
6.09825e-05
3.21453e-05
3.21453e-05
3.21453e-05
3.21452e-05
3.21452e-05
3.21452e-05
3.21452e-05
3.1615e-05
3.25224e-05
3.21251e-05
3.20757e-05
3.16148e-05
3.2521e-05
3.21252e-05
8.38551e-05
8.38533e-05
3.16151e-05
3.21251e-05
3.25225e-05
3.20757e-05
3.16149e-05
3.21252e-05
3.25212e-05
3.38838e-05
3.38839e-05
3.19675e-05
3.38832e-05
3.38833e-05
3.27635e-05
6.09828e-05
3.27643e-05
6.0981e-05
8.38562e-05
8.38549e-05
3.27641e-05
6.09844e-05
3.27648e-05
6.09825e-05
3.21453e-05
3.21453e-05
3.21453e-05
3.21452e-05
3.21452e-05
3.21452e-05
3.21452e-05
3.1615e-05
3.25224e-05
3.21251e-05
3.20757e-05
3.16148e-05
3.2521e-05
3.21252e-05
8.38551e-05
8.38533e-05
3.16151e-05
3.21251e-05
3.25225e-05
3.20757e-05
3.16149e-05
3.21252e-05
3.25212e-05
3.38838e-05
3.38839e-05
3.19675e-05
3.38832e-05
3.38833e-05
3.27635e-05
6.09828e-05
3.27643e-05
6.0981e-05
8.38562e-05
8.38549e-05
3.27641e-05
6.09844e-05
3.27648e-05
6.09825e-05
3.21453e-05
3.21453e-05
3.21453e-05
3.21452e-05
3.21452e-05
3.21452e-05
3.21452e-05
3.1615e-05
3.25224e-05
3.21251e-05
3.20757e-05
3.16148e-05
3.2521e-05
3.21252e-05
8.38551e-05
8.38533e-05
3.16151e-05
3.21251e-05
3.25225e-05
3.20757e-05
3.16149e-05
3.21252e-05
3.25212e-05
3.38838e-05
3.38839e-05
3.19675e-05
3.38832e-05
3.38833e-05
3.27635e-05
6.09828e-05
3.27643e-05
6.0981e-05
8.38562e-05
8.38549e-05
3.27641e-05
6.09844e-05
3.27648e-05
6.09825e-05
3.21453e-05
3.21453e-05
3.21453e-05
3.21452e-05
3.21452e-05
3.21452e-05
3.21452e-05
3.1615e-05
3.25224e-05
3.21251e-05
3.20757e-05
3.16148e-05
3.2521e-05
3.21252e-05
8.38551e-05
8.38533e-05
3.16151e-05
3.21251e-05
3.25225e-05
3.20757e-05
3.16149e-05
3.21252e-05
3.25212e-05
3.38838e-05
3.38839e-05
3.19675e-05
3.38832e-05
3.38833e-05
3.27635e-05
6.09828e-05
3.27643e-05
6.0981e-05
8.38562e-05
8.38549e-05
3.27641e-05
6.09844e-05
3.27648e-05
6.09825e-05
3.21453e-05
3.21453e-05
3.21453e-05
3.21452e-05
3.21452e-05
3.21452e-05
3.21452e-05
3.1615e-05
3.25224e-05
3.21251e-05
3.20757e-05
3.16148e-05
3.2521e-05
3.21252e-05
8.38551e-05
8.38533e-05
3.16151e-05
3.21251e-05
3.25225e-05
3.20757e-05
3.16149e-05
3.21252e-05
3.25212e-05
3.38838e-05
3.38839e-05
3.19675e-05
3.38832e-05
3.38833e-05
3.27635e-05
6.09828e-05
3.27643e-05
6.0981e-05
8.38562e-05
8.38549e-05
3.27641e-05
6.09844e-05
3.27648e-05
6.09825e-05
3.21453e-05
3.21453e-05
3.21453e-05
3.21452e-05
3.21452e-05
3.21452e-05
3.21452e-05
3.1615e-05
3.25224e-05
3.21251e-05
3.20757e-05
3.16148e-05
3.2521e-05
3.21252e-05
8.38551e-05
8.38533e-05
3.16149e-05
3.21251e-05
3.25225e-05
3.20757e-05
3.16148e-05
3.21252e-05
3.25212e-05
3.38838e-05
3.38839e-05
3.19675e-05
3.38832e-05
3.38833e-05
3.27635e-05
6.09828e-05
3.27643e-05
6.0981e-05
8.38562e-05
8.38549e-05
3.27641e-05
6.09844e-05
3.27648e-05
6.09825e-05
3.21453e-05
3.21453e-05
3.21453e-05
3.21452e-05
3.21452e-05
3.21452e-05
3.21452e-05
3.1615e-05
3.25224e-05
3.21251e-05
3.20757e-05
3.16148e-05
3.2521e-05
3.21252e-05
8.38551e-05
8.38532e-05
3.1615e-05
3.21251e-05
3.25225e-05
3.20757e-05
3.16148e-05
3.21252e-05
3.25212e-05
3.38838e-05
3.38839e-05
3.19675e-05
3.38832e-05
3.38833e-05
3.27635e-05
6.09828e-05
3.27643e-05
6.0981e-05
8.38562e-05
8.38549e-05
3.27641e-05
6.09844e-05
3.27648e-05
6.09825e-05
3.21453e-05
3.21453e-05
3.21453e-05
3.21452e-05
3.21452e-05
3.21452e-05
3.21452e-05
3.1615e-05
3.25224e-05
3.21251e-05
3.20757e-05
3.16148e-05
3.2521e-05
3.21252e-05
8.38551e-05
8.38532e-05
3.1615e-05
3.21251e-05
3.25225e-05
3.20757e-05
3.16148e-05
3.21252e-05
3.25212e-05
3.38838e-05
3.38839e-05
3.19675e-05
3.38832e-05
3.38833e-05
3.27634e-05
6.09828e-05
3.27643e-05
6.0981e-05
8.38561e-05
8.38549e-05
3.27641e-05
6.09844e-05
3.27648e-05
6.09825e-05
3.21453e-05
3.21453e-05
3.21453e-05
3.16155e-05
3.25224e-05
3.21251e-05
3.20756e-05
3.16148e-05
3.2521e-05
3.21253e-05
8.38551e-05
8.38536e-05
3.16154e-05
3.21251e-05
3.25225e-05
3.20757e-05
3.16148e-05
3.21252e-05
3.25214e-05
3.38838e-05
3.38839e-05
3.19678e-05
3.38832e-05
3.38833e-05
8.38283e-05
8.38301e-05
3.19787e-05
3.38902e-05
3.38902e-05
8.38205e-05
8.38274e-05
8.38223e-05
8.38293e-05
3.19781e-05
3.38944e-05
3.38944e-05
3.38924e-05
3.38924e-05
3.27733e-05
6.09497e-05
3.16278e-05
3.20862e-05
3.25309e-05
3.21355e-05
3.16278e-05
3.20862e-05
3.25313e-05
3.21355e-05
3.27747e-05
6.09477e-05
6.09492e-05
3.27743e-05
3.27749e-05
6.09488e-05
6.09503e-05
3.27746e-05
3.16283e-05
3.20862e-05
3.25318e-05
3.21355e-05
3.25328e-05
3.21355e-05
3.1628e-05
3.16283e-05
3.20862e-05
3.25322e-05
3.21355e-05
3.25332e-05
3.21355e-05
3.1628e-05
3.19787e-05
3.38902e-05
3.38871e-05
8.38246e-05
8.38223e-05
8.38294e-05
3.19781e-05
3.38945e-05
3.38917e-05
3.38927e-05
3.38901e-05
8.38169e-05
8.38246e-05
3.1628e-05
3.20863e-05
3.25314e-05
3.21355e-05
3.27734e-05
6.095e-05
3.16279e-05
3.20862e-05
3.21355e-05
3.25309e-05
3.27751e-05
6.09501e-05
6.09517e-05
3.27749e-05
3.16285e-05
3.20862e-05
3.25324e-05
3.21355e-05
3.25332e-05
3.21355e-05
3.16282e-05
3.27748e-05
6.09491e-05
6.09507e-05
3.27746e-05
3.16283e-05
3.20861e-05
3.21355e-05
3.25318e-05
3.21355e-05
3.25329e-05
3.1628e-05
3.27732e-05
6.09482e-05
3.16278e-05
3.20862e-05
3.21355e-05
3.25308e-05
3.27731e-05
6.09502e-05
3.16278e-05
3.20862e-05
3.25314e-05
3.21354e-05
3.25326e-05
3.21354e-05
3.16277e-05
3.27748e-05
6.09473e-05
6.0949e-05
3.27745e-05
3.16282e-05
3.20862e-05
3.21355e-05
3.25317e-05
3.21355e-05
3.25327e-05
3.16279e-05
3.27747e-05
6.09492e-05
6.09507e-05
3.27744e-05
3.19787e-05
3.38882e-05
3.38902e-05
8.38294e-05
8.382e-05
8.38277e-05
3.1978e-05
3.38926e-05
3.38944e-05
3.3891e-05
3.38923e-05
8.38216e-05
8.38286e-05
3.16279e-05
3.20863e-05
3.21355e-05
3.25311e-05
3.27733e-05
6.09506e-05
3.27734e-05
6.09514e-05
3.16278e-05
3.20862e-05
3.21354e-05
3.25316e-05
3.21354e-05
3.25327e-05
3.16277e-05
3.16283e-05
3.20862e-05
3.21355e-05
3.2532e-05
3.21355e-05
3.2533e-05
3.16281e-05
3.27748e-05
6.09496e-05
6.09511e-05
3.27746e-05
3.27749e-05
6.09504e-05
6.0952e-05
3.27747e-05
8.38296e-05
8.38306e-05
3.19779e-05
3.38943e-05
3.38944e-05
3.38923e-05
3.38924e-05
8.38218e-05
8.38288e-05
8.38227e-05
8.38297e-05
8.38202e-05
8.38163e-05
8.38221e-05
8.38181e-05
3.38962e-05
3.38962e-05
3.19787e-05
3.38976e-05
3.38975e-05
8.38143e-05
8.38163e-05
8.38162e-05
8.38181e-05
3.19779e-05
3.38991e-05
3.38991e-05
3.38991e-05
3.3899e-05
3.27755e-05
6.09488e-05
3.27761e-05
6.09478e-05
3.16285e-05
3.25338e-05
3.21355e-05
3.20863e-05
3.16286e-05
3.25328e-05
3.21355e-05
3.16285e-05
3.25342e-05
3.21355e-05
3.20862e-05
3.16286e-05
3.25332e-05
3.21354e-05
3.27767e-05
6.09465e-05
6.09468e-05
3.27755e-05
3.27769e-05
6.09476e-05
6.0948e-05
3.27758e-05
3.16288e-05
3.20862e-05
3.25332e-05
3.21352e-05
3.25347e-05
3.21354e-05
3.16281e-05
3.1629e-05
3.20862e-05
3.25336e-05
3.21352e-05
3.25351e-05
3.21353e-05
3.16284e-05
3.38965e-05
3.38941e-05
3.19786e-05
3.38975e-05
3.38948e-05
8.3817e-05
8.3812e-05
8.38159e-05
8.38175e-05
3.19779e-05
3.38991e-05
3.38966e-05
3.38991e-05
3.38968e-05
8.38103e-05
8.38126e-05
3.16287e-05
3.25343e-05
3.21355e-05
3.20863e-05
3.16288e-05
3.25333e-05
3.21355e-05
3.27756e-05
6.09494e-05
3.2776e-05
6.09482e-05
3.16285e-05
3.21354e-05
3.25339e-05
3.20862e-05
3.16286e-05
3.21354e-05
3.25327e-05
3.2777e-05
6.09488e-05
6.09493e-05
3.27761e-05
3.16287e-05
3.20862e-05
3.25337e-05
3.21352e-05
3.25351e-05
3.21354e-05
3.16282e-05
3.27768e-05
6.0948e-05
6.09486e-05
3.27759e-05
3.1629e-05
3.20861e-05
3.21352e-05
3.25331e-05
3.21353e-05
3.25348e-05
3.16284e-05
3.27755e-05
6.09477e-05
3.2776e-05
6.09463e-05
3.16285e-05
3.21355e-05
3.25337e-05
3.20862e-05
3.16285e-05
3.21354e-05
3.25326e-05
3.27754e-05
6.09492e-05
3.2776e-05
6.09482e-05
3.16288e-05
3.20861e-05
3.25328e-05
3.21352e-05
3.25343e-05
3.21353e-05
3.16281e-05
3.27769e-05
6.09461e-05
6.09467e-05
3.27758e-05
3.16288e-05
3.20861e-05
3.21352e-05
3.2533e-05
3.21353e-05
3.25345e-05
3.16282e-05
3.27768e-05
6.0948e-05
6.09484e-05
3.27757e-05
3.38947e-05
3.38961e-05
3.19786e-05
3.38956e-05
3.38973e-05
8.38213e-05
8.38173e-05
8.38134e-05
8.38157e-05
3.19778e-05
3.38973e-05
3.3899e-05
3.38974e-05
3.38988e-05
8.38154e-05
8.38173e-05
3.16286e-05
3.21355e-05
3.2534e-05
3.20863e-05
3.16287e-05
3.21354e-05
3.25329e-05
3.27756e-05
6.09497e-05
3.2776e-05
6.09486e-05
3.27756e-05
6.09505e-05
3.2776e-05
6.09494e-05
3.16289e-05
3.2086e-05
3.21352e-05
3.25329e-05
3.21353e-05
3.25344e-05
3.16282e-05
3.16287e-05
3.20861e-05
3.21352e-05
3.25333e-05
3.21353e-05
3.25348e-05
3.16281e-05
3.27768e-05
6.09484e-05
6.09488e-05
3.27758e-05
3.27768e-05
6.09492e-05
6.09496e-05
3.27758e-05
8.38215e-05
8.38175e-05
8.38224e-05
8.38185e-05
3.19779e-05
3.38987e-05
3.38988e-05
3.38986e-05
3.38987e-05
8.38156e-05
8.38175e-05
8.38165e-05
8.38185e-05
8.38151e-05
8.38221e-05
8.38169e-05
8.38242e-05
3.38998e-05
3.38998e-05
3.1977e-05
3.3898e-05
3.3898e-05
8.38537e-05
8.38341e-05
8.38556e-05
8.38365e-05
3.19749e-05
3.38902e-05
3.38901e-05
3.38982e-05
3.38982e-05
3.27744e-05
6.0948e-05
3.27769e-05
6.09513e-05
3.1627e-05
3.25348e-05
3.2135e-05
3.2085e-05
3.1628e-05
3.2532e-05
3.21342e-05
3.16271e-05
3.25352e-05
3.2135e-05
3.2085e-05
3.16282e-05
3.25324e-05
3.21342e-05
3.27749e-05
6.09792e-05
6.09578e-05
3.27683e-05
3.27751e-05
6.09804e-05
6.09584e-05
3.27684e-05
3.16258e-05
3.20826e-05
3.25259e-05
3.21288e-05
3.2533e-05
3.21319e-05
3.16178e-05
3.16258e-05
3.20827e-05
3.25263e-05
3.21288e-05
3.25334e-05
3.21319e-05
3.16178e-05
3.38999e-05
3.38977e-05
3.1977e-05
3.3898e-05
3.38955e-05
8.38119e-05
8.38194e-05
8.38552e-05
8.38361e-05
3.19748e-05
3.38903e-05
3.38888e-05
3.38985e-05
3.38963e-05
8.38505e-05
8.38325e-05
3.16272e-05
3.25353e-05
3.2135e-05
3.20851e-05
3.16281e-05
3.25325e-05
3.21342e-05
3.27745e-05
6.09486e-05
3.27768e-05
6.09519e-05
3.16272e-05
3.2135e-05
3.25349e-05
3.2085e-05
3.16283e-05
3.21342e-05
3.2532e-05
3.27752e-05
6.09815e-05
6.09604e-05
3.27684e-05
3.16259e-05
3.20827e-05
3.25263e-05
3.21288e-05
3.25334e-05
3.21319e-05
3.16178e-05
3.27749e-05
6.09807e-05
6.09592e-05
3.27682e-05
3.16258e-05
3.20826e-05
3.21288e-05
3.25262e-05
3.21319e-05
3.25331e-05
3.16177e-05
3.27744e-05
6.09467e-05
3.27768e-05
6.09501e-05
3.1627e-05
3.2135e-05
3.25346e-05
3.2085e-05
3.1628e-05
3.21342e-05
3.25319e-05
3.27743e-05
6.09484e-05
3.27767e-05
6.09517e-05
3.16258e-05
3.20826e-05
3.25261e-05
3.21288e-05
3.25328e-05
3.21318e-05
3.1618e-05
3.27751e-05
6.09791e-05
6.09577e-05
3.27684e-05
3.16258e-05
3.20827e-05
3.21288e-05
3.25258e-05
3.21319e-05
3.25328e-05
3.16178e-05
3.2775e-05
6.09809e-05
6.09589e-05
3.27683e-05
3.38982e-05
3.38997e-05
3.1977e-05
3.38962e-05
3.38979e-05
8.38161e-05
8.3823e-05
8.38531e-05
8.38351e-05
3.19748e-05
3.38892e-05
3.38901e-05
3.38968e-05
3.38981e-05
8.38547e-05
8.3835e-05
3.16271e-05
3.2135e-05
3.25349e-05
3.2085e-05
3.1628e-05
3.21342e-05
3.25321e-05
3.27745e-05
6.09488e-05
3.27767e-05
6.0952e-05
3.27744e-05
6.09496e-05
3.27767e-05
6.09529e-05
3.16258e-05
3.20826e-05
3.21288e-05
3.25258e-05
3.21318e-05
3.25328e-05
3.16179e-05
3.16259e-05
3.20827e-05
3.21288e-05
3.25261e-05
3.21319e-05
3.2533e-05
3.16178e-05
3.27749e-05
6.09811e-05
6.0959e-05
3.27684e-05
3.27749e-05
6.09822e-05
6.09601e-05
3.27684e-05
8.38163e-05
8.38236e-05
8.38173e-05
8.38246e-05
3.19749e-05
3.38901e-05
3.38902e-05
3.38979e-05
3.3898e-05
8.3855e-05
8.3836e-05
8.38559e-05
8.3837e-05
8.38561e-05
8.38548e-05
8.3858e-05
8.38567e-05
3.38886e-05
3.38885e-05
3.19675e-05
3.38834e-05
3.38833e-05
8.38542e-05
8.38551e-05
8.38561e-05
8.3857e-05
3.19667e-05
3.38832e-05
3.38831e-05
3.38841e-05
3.38841e-05
3.27638e-05
6.09847e-05
3.27679e-05
6.09838e-05
3.16151e-05
3.2526e-05
3.21268e-05
3.20762e-05
3.16164e-05
3.25218e-05
3.21258e-05
3.16152e-05
3.25264e-05
3.21268e-05
3.20762e-05
3.16164e-05
3.25222e-05
3.21258e-05
3.27649e-05
6.09813e-05
6.09819e-05
3.27634e-05
3.27649e-05
6.09834e-05
6.09839e-05
3.27635e-05
3.16155e-05
3.20756e-05
3.25212e-05
3.21251e-05
3.25232e-05
3.21252e-05
3.16151e-05
3.16155e-05
3.20756e-05
3.25216e-05
3.21251e-05
3.25237e-05
3.21251e-05
3.16152e-05
3.38889e-05
3.3888e-05
3.19674e-05
3.38832e-05
3.38806e-05
8.38534e-05
8.38515e-05
8.3855e-05
8.38559e-05
3.19667e-05
3.38831e-05
3.38799e-05
3.38841e-05
3.38813e-05
8.38509e-05
8.38523e-05
3.16153e-05
3.25264e-05
3.21268e-05
3.20762e-05
3.16165e-05
3.25222e-05
3.21258e-05
3.27639e-05
6.09855e-05
3.27674e-05
6.09843e-05
3.16152e-05
3.21268e-05
3.25265e-05
3.20761e-05
3.16164e-05
3.21258e-05
3.25218e-05
3.27652e-05
6.09837e-05
6.09844e-05
3.2764e-05
3.16157e-05
3.20756e-05
3.25216e-05
3.21251e-05
3.25236e-05
3.21252e-05
3.16154e-05
3.27649e-05
6.09837e-05
6.09847e-05
3.27636e-05
3.16156e-05
3.20755e-05
3.21251e-05
3.25211e-05
3.21251e-05
3.25233e-05
3.16152e-05
3.27638e-05
6.09837e-05
3.27679e-05
6.09825e-05
3.16151e-05
3.21268e-05
3.25259e-05
3.20762e-05
3.16164e-05
3.21258e-05
3.25218e-05
3.27636e-05
6.09852e-05
3.27678e-05
6.09842e-05
3.16154e-05
3.20757e-05
3.25211e-05
3.21251e-05
3.25233e-05
3.21252e-05
3.16149e-05
3.27649e-05
6.09819e-05
6.09829e-05
3.27635e-05
3.16154e-05
3.20756e-05
3.21251e-05
3.25212e-05
3.21252e-05
3.25232e-05
3.16151e-05
3.27648e-05
6.09838e-05
6.09844e-05
3.27634e-05
3.3888e-05
3.38884e-05
3.19673e-05
3.38811e-05
3.38833e-05
8.38571e-05
8.38559e-05
8.38534e-05
8.38549e-05
3.19666e-05
3.38809e-05
3.38831e-05
3.3882e-05
3.3884e-05
8.38554e-05
8.38562e-05
3.16152e-05
3.21268e-05
3.25262e-05
3.20762e-05
3.16164e-05
3.21258e-05
3.2522e-05
3.27639e-05
6.09856e-05
3.27675e-05
6.09846e-05
3.27638e-05
6.09865e-05
3.27675e-05
6.09855e-05
3.16154e-05
3.20757e-05
3.21251e-05
3.25213e-05
3.21252e-05
3.25233e-05
3.1615e-05
3.16155e-05
3.20756e-05
3.21251e-05
3.25214e-05
3.21252e-05
3.25235e-05
3.16152e-05
3.27649e-05
6.09842e-05
6.09848e-05
3.27636e-05
3.27648e-05
6.09851e-05
6.09857e-05
3.27636e-05
8.38572e-05
8.3856e-05
8.38582e-05
8.3857e-05
3.19668e-05
3.38832e-05
3.38833e-05
3.38841e-05
3.38842e-05
8.38554e-05
8.38563e-05
8.38564e-05
8.38573e-05
8.38546e-05
8.3854e-05
8.38565e-05
8.38558e-05
3.3884e-05
3.3884e-05
3.19674e-05
3.38832e-05
3.38832e-05
8.38539e-05
8.38544e-05
8.38558e-05
8.38563e-05
3.19667e-05
3.38831e-05
3.38832e-05
3.3884e-05
3.38841e-05
3.27635e-05
6.09836e-05
3.27648e-05
6.09832e-05
3.16152e-05
3.25229e-05
3.21252e-05
3.20756e-05
3.16154e-05
3.25211e-05
3.21252e-05
3.16152e-05
3.25233e-05
3.21252e-05
3.20756e-05
3.16155e-05
3.25216e-05
3.21252e-05
3.27647e-05
6.09811e-05
6.09813e-05
3.27634e-05
3.27648e-05
6.09832e-05
6.09835e-05
3.27635e-05
3.16155e-05
3.20756e-05
3.25211e-05
3.21251e-05
3.25228e-05
3.21251e-05
3.16151e-05
3.16155e-05
3.20756e-05
3.25216e-05
3.21251e-05
3.25233e-05
3.21251e-05
3.16152e-05
3.3884e-05
3.38811e-05
3.19674e-05
3.38831e-05
3.38802e-05
8.38519e-05
8.38509e-05
8.3855e-05
8.38556e-05
3.19667e-05
3.38831e-05
3.38801e-05
3.38841e-05
3.38813e-05
8.3851e-05
8.38519e-05
3.16154e-05
3.25233e-05
3.21252e-05
3.20757e-05
3.16157e-05
3.25216e-05
3.21252e-05
3.27637e-05
6.09841e-05
3.27648e-05
6.09835e-05
3.16152e-05
3.21252e-05
3.25229e-05
3.20755e-05
3.16155e-05
3.21252e-05
3.25211e-05
3.27652e-05
6.09835e-05
6.09838e-05
3.27641e-05
3.16157e-05
3.20756e-05
3.25216e-05
3.21251e-05
3.25233e-05
3.21252e-05
3.16154e-05
3.27648e-05
6.09835e-05
6.0984e-05
3.27637e-05
3.16155e-05
3.20755e-05
3.21251e-05
3.2521e-05
3.21251e-05
3.25229e-05
3.16152e-05
3.27634e-05
6.09823e-05
3.27647e-05
6.09818e-05
3.16151e-05
3.21252e-05
3.25229e-05
3.20756e-05
3.16154e-05
3.21252e-05
3.25211e-05
3.27634e-05
6.09841e-05
3.27646e-05
6.09837e-05
3.16154e-05
3.20757e-05
3.2521e-05
3.21251e-05
3.25229e-05
3.21252e-05
3.16149e-05
3.27647e-05
6.09818e-05
6.09822e-05
3.27634e-05
3.16154e-05
3.20756e-05
3.21251e-05
3.25211e-05
3.21251e-05
3.25229e-05
3.16151e-05
3.27646e-05
6.09836e-05
6.09839e-05
3.27634e-05
3.3882e-05
3.38839e-05
3.19673e-05
3.3881e-05
3.38831e-05
8.38558e-05
8.38551e-05
8.38532e-05
8.38542e-05
3.19666e-05
3.38809e-05
3.38831e-05
3.38821e-05
3.38839e-05
8.38551e-05
8.38555e-05
3.16152e-05
3.21252e-05
3.25231e-05
3.20756e-05
3.16155e-05
3.21252e-05
3.25214e-05
3.27636e-05
6.09844e-05
3.27648e-05
6.0984e-05
3.27636e-05
6.09853e-05
3.27647e-05
6.09849e-05
3.16154e-05
3.20757e-05
3.21251e-05
3.25212e-05
3.21252e-05
3.2523e-05
3.16149e-05
3.16155e-05
3.20756e-05
3.21251e-05
3.25213e-05
3.21251e-05
3.25231e-05
3.16152e-05
3.27648e-05
6.0984e-05
6.09843e-05
3.27637e-05
3.27647e-05
6.09848e-05
6.09851e-05
3.27636e-05
8.38559e-05
8.38553e-05
8.38569e-05
8.38562e-05
3.19668e-05
3.38832e-05
3.38833e-05
3.38841e-05
3.38842e-05
8.38552e-05
8.38557e-05
8.38562e-05
8.38567e-05
8.38544e-05
8.38539e-05
8.38563e-05
8.38557e-05
3.3884e-05
3.3884e-05
3.19675e-05
3.38831e-05
3.38832e-05
8.38539e-05
8.38544e-05
8.38558e-05
8.38562e-05
3.19667e-05
3.38832e-05
3.38831e-05
3.3884e-05
3.3884e-05
3.27635e-05
6.09834e-05
3.27648e-05
6.09832e-05
3.16152e-05
3.25228e-05
3.21252e-05
3.20756e-05
3.16155e-05
3.25211e-05
3.21252e-05
3.16152e-05
3.25233e-05
3.21252e-05
3.20756e-05
3.16156e-05
3.25216e-05
3.21252e-05
3.27647e-05
6.09811e-05
6.09812e-05
3.27635e-05
3.27648e-05
6.09832e-05
6.09834e-05
3.27635e-05
3.16155e-05
3.20756e-05
3.25211e-05
3.21251e-05
3.25228e-05
3.21251e-05
3.16151e-05
3.16155e-05
3.20756e-05
3.25216e-05
3.21251e-05
3.25233e-05
3.21251e-05
3.16152e-05
3.38841e-05
3.38812e-05
3.19674e-05
3.38832e-05
3.38801e-05
8.38519e-05
8.38509e-05
8.38551e-05
8.38556e-05
3.19667e-05
3.38831e-05
3.38801e-05
3.38841e-05
3.38812e-05
8.38509e-05
8.38519e-05
3.16154e-05
3.25232e-05
3.21252e-05
3.20757e-05
3.16157e-05
3.25216e-05
3.21252e-05
3.27637e-05
6.0984e-05
3.27648e-05
6.09835e-05
3.16152e-05
3.21252e-05
3.25229e-05
3.20756e-05
3.16156e-05
3.21252e-05
3.25211e-05
3.27652e-05
6.09832e-05
6.09837e-05
3.27641e-05
3.16157e-05
3.20756e-05
3.25215e-05
3.21251e-05
3.25232e-05
3.21251e-05
3.16154e-05
3.27648e-05
6.09835e-05
6.0984e-05
3.27637e-05
3.16155e-05
3.20755e-05
3.21251e-05
3.2521e-05
3.21251e-05
3.25229e-05
3.16152e-05
3.27635e-05
6.09823e-05
3.27647e-05
6.09818e-05
3.16151e-05
3.21252e-05
3.25228e-05
3.20756e-05
3.16154e-05
3.21252e-05
3.25211e-05
3.27634e-05
6.09839e-05
3.27646e-05
6.09836e-05
3.16154e-05
3.20757e-05
3.2521e-05
3.21251e-05
3.25229e-05
3.21252e-05
3.16149e-05
3.27647e-05
6.09818e-05
6.09822e-05
3.27635e-05
3.16154e-05
3.20756e-05
3.21251e-05
3.25211e-05
3.21251e-05
3.25228e-05
3.16151e-05
3.27646e-05
6.09836e-05
6.09838e-05
3.27634e-05
3.3882e-05
3.3884e-05
3.19674e-05
3.3881e-05
3.38831e-05
8.38556e-05
8.3855e-05
8.38532e-05
8.38542e-05
3.19667e-05
3.38809e-05
3.38831e-05
3.3882e-05
3.3884e-05
8.38551e-05
8.38555e-05
3.16152e-05
3.21252e-05
3.25231e-05
3.20757e-05
3.16155e-05
3.21252e-05
3.25214e-05
3.27636e-05
6.09842e-05
3.27648e-05
6.0984e-05
3.27636e-05
6.09851e-05
3.27647e-05
6.09848e-05
3.16155e-05
3.20757e-05
3.21251e-05
3.25212e-05
3.21252e-05
3.2523e-05
3.16149e-05
3.16155e-05
3.20756e-05
3.21251e-05
3.25213e-05
3.21251e-05
3.25231e-05
3.16152e-05
3.27648e-05
6.0984e-05
6.09842e-05
3.27636e-05
3.27648e-05
6.09848e-05
6.09851e-05
3.27636e-05
8.38558e-05
8.38552e-05
8.38567e-05
8.38562e-05
3.19668e-05
3.38833e-05
3.38833e-05
3.38841e-05
3.38842e-05
8.38552e-05
8.38557e-05
8.38562e-05
8.38566e-05
8.38544e-05
8.38539e-05
8.38562e-05
8.38557e-05
3.3884e-05
3.3884e-05
3.19674e-05
3.38832e-05
3.38831e-05
8.38539e-05
8.38544e-05
8.38557e-05
8.38562e-05
3.19667e-05
3.38832e-05
3.38831e-05
3.38841e-05
3.3884e-05
3.27635e-05
6.09834e-05
3.27648e-05
6.09832e-05
3.16152e-05
3.25228e-05
3.21252e-05
3.20756e-05
3.16154e-05
3.25211e-05
3.21252e-05
3.16152e-05
3.25233e-05
3.21252e-05
3.20756e-05
3.16156e-05
3.25216e-05
3.21252e-05
3.27647e-05
6.09811e-05
6.09812e-05
3.27635e-05
3.27648e-05
6.0983e-05
6.09834e-05
3.27635e-05
3.16155e-05
3.20756e-05
3.25211e-05
3.21251e-05
3.25229e-05
3.21251e-05
3.16151e-05
3.16155e-05
3.20756e-05
3.25216e-05
3.21251e-05
3.25233e-05
3.21251e-05
3.16152e-05
3.38841e-05
3.38812e-05
3.19674e-05
3.38832e-05
3.38801e-05
8.38519e-05
8.38509e-05
8.38549e-05
8.38556e-05
3.19667e-05
3.38832e-05
3.38801e-05
3.38841e-05
3.38812e-05
8.38509e-05
8.38519e-05
3.16154e-05
3.25234e-05
3.21252e-05
3.20757e-05
3.16157e-05
3.25217e-05
3.21252e-05
3.27637e-05
6.0984e-05
3.27648e-05
6.09835e-05
3.16152e-05
3.21252e-05
3.25229e-05
3.20756e-05
3.16156e-05
3.21252e-05
3.25211e-05