/*--------------------------------*- C++ -*----------------------------------*\
| =========                 |                                                 |
| \\      /  F ield         | OpenFOAM: The Open Source CFD Toolbox           |
|  \\    /   O peration     | Version:  2206                                  |
|   \\  /    A nd           | Website:  www.openfoam.com                      |
|    \\/     M anipulation  |                                                 |
\*---------------------------------------------------------------------------*/
FoamFile
{
    version     2.0;
    format      ascii;
    arch        "LSB;label=32;scalar=64";
    class       volScalarField;
    location    "11.5";
    object      nut;
}
// * * * * * * * * * * * * * * * * * * * * * * * * * * * * * * * * * * * * * //

dimensions      [0 2 -1 0 0 0 0];

internalField   nonuniform List<scalar> 
28335
(
0.000231291
0.000225168
0.000225166
0.000216172
0.000231288
0.000225164
0.000225162
0.000216166
0.000231268
0.000225121
0.000225118
0.000216078
0.00023128
0.000225129
0.000225127
0.0002161
0.00023128
0.00022513
0.000225127
0.000216095
0.00023128
0.00022513
0.000225127
0.000216095
0.00023128
0.00022513
0.000225127
0.000216095
0.00023128
0.00022513
0.000225127
0.000216095
0.00023128
0.00022513
0.000225127
0.000216095
0.00023128
0.00022513
0.000225127
0.000216095
0.00023128
0.00022513
0.000225127
0.000216095
0.00023128
0.00022513
0.000225127
0.000216095
0.00023128
0.00022513
0.000225127
0.000216095
0.00023128
0.00022513
0.000225127
0.000216095
0.00023128
0.00022513
0.000225127
0.000216095
0.00023128
0.00022513
0.000225127
0.000216095
0.00023128
0.00022513
0.000225127
0.000216095
0.000216252
0.000225164
0.000225163
0.000216254
0.000225167
0.00022516
0.000225169
0.000225164
0.000216249
0.000225166
0.000225167
0.000216249
0.000216178
0.000216246
0.000225164
0.000225163
0.000225163
0.000225162
0.00021618
0.000216247
0.000225167
0.00022516
0.000225166
0.000225159
0.000225163
0.000225166
0.000225162
0.000216175
0.000216242
0.000225166
0.000225163
0.000225165
0.000216245
0.000216171
0.00021617
0.000225161
0.00022516
0.00022512
0.000225119
0.000216172
0.000216172
0.000225164
0.000225157
0.000225123
0.000225116
0.00022516
0.000225125
0.00022512
0.000216168
0.000216167
0.000225163
0.000225122
0.000225123
0.000216168
0.000216081
0.00021618
0.000225117
0.000225116
0.000225124
0.000225123
0.000216083
0.000216182
0.00022512
0.000225113
0.000225127
0.000225119
0.000225117
0.000225129
0.000225123
0.000216078
0.000216176
0.000225119
0.000225126
0.000225126
0.000216177
0.000216106
0.000216173
0.000225125
0.000225124
0.000225125
0.000225124
0.000216108
0.000216174
0.000225128
0.00022512
0.000225128
0.00022512
0.000225124
0.00022513
0.000225124
0.000216103
0.000216169
0.000225127
0.000225127
0.000225127
0.000216169
0.0002161
0.000216174
0.000225125
0.000225124
0.000225125
0.000225124
0.000216102
0.000216176
0.000225128
0.000225121
0.000225128
0.00022512
0.000225124
0.00022513
0.000225124
0.000216097
0.00021617
0.000225127
0.000225128
0.000225127
0.00021617
0.000216101
0.000216174
0.000225125
0.000225124
0.000225125
0.000225124
0.000216102
0.000216176
0.000225128
0.000225121
0.000225128
0.00022512
0.000225124
0.00022513
0.000225124
0.000216097
0.000216171
0.000225127
0.000225128
0.000225127
0.000216171
0.000216101
0.000216174
0.000225125
0.000225124
0.000225125
0.000225124
0.000216103
0.000216176
0.000225128
0.000225121
0.000225128
0.00022512
0.000225124
0.00022513
0.000225124
0.000216098
0.00021617
0.000225127
0.000225128
0.000225127
0.000216171
0.000216101
0.000216174
0.000225125
0.000225124
0.000225125
0.000225124
0.000216103
0.000216176
0.000225128
0.000225121
0.000225127
0.00022512
0.000225124
0.00022513
0.000225124
0.000216098
0.000216171
0.000225127
0.000225128
0.000225127
0.000216171
0.000216101
0.000216174
0.000225125
0.000225124
0.000225125
0.000225124
0.000216103
0.000216176
0.000225128
0.000225121
0.000225127
0.00022512
0.000225124
0.00022513
0.000225124
0.000216098
0.000216171
0.000225127
0.000225128
0.000225127
0.000216171
0.000216101
0.000216174
0.000225125
0.000225124
0.000225125
0.000225124
0.000216103
0.000216176
0.000225128
0.000225121
0.000225128
0.00022512
0.000225124
0.00022513
0.000225124
0.000216098
0.000216171
0.000225127
0.000225128
0.000225127
0.000216171
0.000216101
0.000216174
0.000225125
0.000225124
0.000225125
0.000225124
0.000216103
0.000216176
0.000225128
0.000225121
0.000225128
0.00022512
0.000225124
0.00022513
0.000225124
0.000216098
0.000216171
0.000225127
0.000225128
0.000225127
0.000216171
0.000216101
0.000216174
0.000225125
0.000225124
0.000225125
0.000225124
0.000216103
0.000216176
0.000225128
0.000225121
0.000225128
0.00022512
0.000225124
0.00022513
0.000225124
0.000216098
0.00021617
0.000225127
0.000225128
0.000225127
0.000216171
0.000216101
0.000216174
0.000225125
0.000225124
0.000225125
0.000225124
0.000216103
0.000216176
0.000225128
0.000225121
0.000225128
0.00022512
0.000225124
0.00022513
0.000225124
0.000216097
0.000216171
0.000225127
0.000225128
0.000225127
0.000216171
0.000216101
0.000216174
0.000225125
0.000225124
0.000225125
0.000225124
0.000216103
0.000216176
0.000225128
0.000225121
0.000225128
0.00022512
0.000225124
0.00022513
0.000225124
0.000216098
0.00021617
0.000225127
0.000225128
0.000225127
0.000216171
0.000216101
0.000216174
0.000225125
0.000225124
0.000225125
0.000225124
0.000216103
0.000216176
0.000225128
0.000225121
0.000225127
0.00022512
0.000225124
0.00022513
0.000225124
0.000216098
0.000216171
0.000225127
0.000225128
0.000225127
0.000216171
0.000216101
0.000216174
0.000225125
0.000225124
0.000225125
0.000225124
0.000216103
0.000216176
0.000225128
0.000225121
0.000225127
0.00022512
0.000225124
0.00022513
0.000225124
0.000216098
0.00021617
0.000225127
0.000225128
0.000225127
0.000216171
0.000216101
0.000225125
0.000225124
0.000216103
0.000225128
0.000225121
0.000225124
0.000216098
0.000225127
6.85235e-05
4.62653e-05
2.59354e-05
6.85311e-05
4.62614e-05
0.000231291
0.000231291
0.000231291
0.000231291
0.000156937
0.000225169
8.18922e-05
0.000229733
2.59331e-05
0.000156922
0.000225167
0.000229733
8.18872e-05
0.000216255
4.39733e-05
4.39644e-05
6.85341e-05
4.62655e-05
6.85183e-05
4.62645e-05
2.59341e-05
2.59334e-05
6.85428e-05
4.62617e-05
6.85282e-05
4.62607e-05
0.000231291
0.000231291
0.000231291
0.00023129
0.00023129
0.00023129
0.00023129
0.000156946
8.1885e-05
0.000229733
0.000225166
0.000156914
8.19138e-05
0.000229732
2.5932e-05
2.59311e-05
0.000156948
0.000229733
8.18888e-05
0.000225164
0.000156908
0.000229732
8.19166e-05
4.39779e-05
4.39692e-05
0.000216249
4.3987e-05
4.39781e-05
6.85179e-05
4.62652e-05
6.85225e-05
4.6266e-05
2.59334e-05
2.59343e-05
6.85261e-05
4.62614e-05
6.85327e-05
4.62621e-05
0.000231289
0.000231288
0.000231288
0.000231264
0.000231265
0.000231264
0.000231265
0.000156923
8.18929e-05
0.00022973
0.000225159
0.000156914
8.18975e-05
0.000229725
2.59313e-05
2.59322e-05
0.000156923
0.00022973
8.18972e-05
0.000225157
0.000156913
0.000229724
8.19008e-05
4.39871e-05
4.39783e-05
0.000216231
4.39805e-05
4.39715e-05
6.84399e-05
4.62785e-05
6.84427e-05
4.62778e-05
2.59395e-05
2.59392e-05
6.84487e-05
4.62747e-05
6.84513e-05
4.6274e-05
0.000231269
0.000231268
0.000231268
0.000231279
0.000231279
0.000231279
0.000231279
0.00015679
8.18111e-05
0.000229701
0.000225124
0.000156775
8.18161e-05
0.000229706
2.59374e-05
2.59371e-05
0.00015679
0.000229701
8.18136e-05
0.000225121
0.000156773
0.000229706
8.18198e-05
4.39329e-05
4.39241e-05
0.000216168
4.39269e-05
4.39179e-05
6.84387e-05
4.62782e-05
6.84264e-05
4.62775e-05
2.59393e-05
2.59391e-05
6.84479e-05
4.62744e-05
6.84368e-05
4.62736e-05
0.00023128
0.00023128
0.00023128
0.00023128
0.00023128
0.00023128
0.00023128
0.00015679
8.17901e-05
0.000229713
0.00022513
0.000156763
8.18126e-05
0.000229713
2.59372e-05
2.59369e-05
0.000156792
0.000229712
8.17949e-05
0.000225127
0.000156761
0.000229713
8.18164e-05
4.39223e-05
4.39134e-05
0.000216174
4.3927e-05
4.3918e-05
6.84387e-05
4.62782e-05
6.84264e-05
4.62775e-05
2.59393e-05
2.59391e-05
6.8448e-05
4.62743e-05
6.8437e-05
4.62736e-05
0.00023128
0.00023128
0.00023128
0.00023128
0.00023128
0.00023128
0.00023128
0.00015679
8.17899e-05
0.000229713
0.00022513
0.000156761
8.18126e-05
0.000229713
2.59372e-05
2.59369e-05
0.00015679
0.000229712
8.17948e-05
0.000225128
0.00015676
0.000229713
8.18164e-05
4.39224e-05
4.39136e-05
0.000216175
4.3927e-05
4.39181e-05
6.84387e-05
4.62782e-05
6.84264e-05
4.62775e-05
2.59393e-05
2.59391e-05
6.8448e-05
4.62744e-05
6.8437e-05
4.62737e-05
0.00023128
0.00023128
0.00023128
0.00023128
0.00023128
0.00023128
0.00023128
0.00015679
8.17899e-05
0.000229713
0.00022513
0.000156762
8.18126e-05
0.000229713
2.59372e-05
2.59369e-05
0.00015679
0.000229712
8.17948e-05
0.000225128
0.000156761
0.000229713
8.18164e-05
4.39224e-05
4.39136e-05
0.000216175
4.3927e-05
4.39181e-05
6.84387e-05
4.62782e-05
6.84264e-05
4.62775e-05
2.59395e-05
2.59393e-05
6.8448e-05
4.62743e-05
6.8437e-05
4.62736e-05
0.00023128
0.00023128
0.00023128
0.00023128
0.00023128
0.00023128
0.00023128
0.00015679
8.17899e-05
0.000229713
0.00022513
0.000156762
8.18126e-05
0.000229713
2.59372e-05
2.59369e-05
0.00015679
0.000229712
8.17948e-05
0.000225128
0.000156761
0.000229713
8.18164e-05
4.39224e-05
4.39136e-05
0.000216174
4.3927e-05
4.39181e-05
6.84387e-05
4.62782e-05
6.84264e-05
4.62775e-05
2.59395e-05
2.59393e-05
6.8448e-05
4.62742e-05
6.8437e-05
4.62735e-05
0.00023128
0.00023128
0.00023128
0.00023128
0.00023128
0.00023128
0.00023128
0.00015679
8.17899e-05
0.000229713
0.00022513
0.000156762
8.18126e-05
0.000229713
2.59372e-05
2.59369e-05
0.00015679
0.000229713
8.17948e-05
0.000225128
0.000156761
0.000229713
8.18164e-05
4.39225e-05
4.39136e-05
0.000216174
4.3927e-05
4.39181e-05
6.84387e-05
4.62782e-05
6.84264e-05
4.62775e-05
2.59395e-05
2.59393e-05
6.84479e-05
4.62742e-05
6.8437e-05
4.62735e-05
0.00023128
0.00023128
0.00023128
0.00023128
0.00023128
0.00023128
0.00023128
0.00015679
8.17899e-05
0.000229713
0.00022513
0.000156762
8.18126e-05
0.000229713
2.59372e-05
2.59369e-05
0.00015679
0.000229712
8.17948e-05
0.000225128
0.000156761
0.000229713
8.18164e-05
4.39225e-05
4.39136e-05
0.000216174
4.3927e-05
4.39181e-05
6.84387e-05
4.62782e-05
6.84264e-05
4.62775e-05
2.59395e-05
2.59393e-05
6.8448e-05
4.62742e-05
6.8437e-05
4.62735e-05
0.00023128
0.00023128
0.00023128
0.00023128
0.00023128
0.00023128
0.00023128
0.000156789
8.17899e-05
0.000229713
0.00022513
0.000156762
8.18125e-05
0.000229713
2.59372e-05
2.59369e-05
0.00015679
0.000229713
8.17948e-05
0.000225128
0.000156761
0.000229713
8.18164e-05
4.39224e-05
4.39136e-05
0.000216174
4.3927e-05
4.39181e-05
6.84387e-05
4.62782e-05
6.84264e-05
4.62775e-05
2.59395e-05
2.59393e-05
6.84479e-05
4.62742e-05
6.8437e-05
4.62735e-05
0.00023128
0.00023128
0.00023128
0.00023128
0.00023128
0.00023128
0.00023128
0.00015679
8.17899e-05
0.000229713
0.00022513
0.000156762
8.18125e-05
0.000229713
2.59372e-05
2.59369e-05
0.00015679
0.000229712
8.17948e-05
0.000225128
0.000156761
0.000229713
8.18164e-05
4.39224e-05
4.39136e-05
0.000216174
4.3927e-05
4.39181e-05
6.84387e-05
4.62782e-05
6.84264e-05
4.62775e-05
2.59395e-05
2.59393e-05
6.84479e-05
4.62742e-05
6.8437e-05
4.62735e-05
0.00023128
0.00023128
0.00023128
0.00023128
0.00023128
0.00023128
0.00023128
0.00015679
8.17899e-05
0.000229713
0.00022513
0.000156762
8.18126e-05
0.000229713
2.59372e-05
2.59369e-05
0.000156788
0.000229713
8.17948e-05
0.000225128
0.00015676
0.000229713
8.18164e-05
4.39224e-05
4.39136e-05
0.000216174
4.3927e-05
4.39181e-05
6.84387e-05
4.62782e-05
6.84264e-05
4.62775e-05
2.59395e-05
2.59393e-05
6.84479e-05
4.62742e-05
6.8437e-05
4.62735e-05
0.00023128
0.00023128
0.00023128
0.00023128
0.00023128
0.00023128
0.00023128
0.00015679
8.17899e-05
0.000229713
0.00022513
0.000156762
8.18126e-05
0.000229713
2.59372e-05
2.59369e-05
0.000156785
0.000229712
8.17948e-05
0.000225128
0.000156757
0.000229712
8.18164e-05
4.39225e-05
4.39136e-05
0.000216174
4.3927e-05
4.39181e-05
6.84387e-05
4.62782e-05
6.84264e-05
4.62775e-05
2.59395e-05
2.59393e-05
6.8448e-05
4.62742e-05
6.8437e-05
4.62735e-05
0.00023128
0.00023128
0.00023128
0.00023128
0.00023128
0.00023128
0.00023128
0.00015679
8.17899e-05
0.000229713
0.00022513
0.000156762
8.18126e-05
0.000229713
2.59372e-05
2.59369e-05
0.000156783
0.000229712
8.17948e-05
0.000225128
0.000156755
0.000229712
8.18164e-05
4.39224e-05
4.39136e-05
0.000216174
4.3927e-05
4.39181e-05
6.84387e-05
4.62782e-05
6.84264e-05
4.62775e-05
2.59395e-05
2.59393e-05
6.84479e-05
4.62742e-05
6.8437e-05
4.62735e-05
0.00023128
0.00023128
0.00023128
0.00023128
0.00023128
0.00023128
0.00023128
0.00015679
8.17899e-05
0.000229713
0.00022513
0.000156762
8.18126e-05
0.000229713
2.59372e-05
2.59369e-05
0.000156783
0.000229712
8.17948e-05
0.000225128
0.000156754
0.000229713
8.18164e-05
4.39224e-05
4.39136e-05
0.000216174
4.3927e-05
4.39181e-05
6.84387e-05
4.62782e-05
6.84263e-05
4.62775e-05
2.59395e-05
2.59393e-05
6.84479e-05
4.62742e-05
6.8437e-05
4.62735e-05
0.00023128
0.00023128
0.00023128
0.00023128
0.00023128
0.00023128
0.00023128
0.00015679
8.17899e-05
0.000229713
0.00022513
0.000156762
8.18125e-05
0.000229713
2.59372e-05
2.59369e-05
0.000156783
0.000229712
8.17948e-05
0.000225128
0.000156755
0.000229713
8.18163e-05
4.39224e-05
4.39136e-05
0.000216174
4.3927e-05
4.3918e-05
6.84387e-05
4.62782e-05
6.84264e-05
4.62775e-05
2.59395e-05
2.59393e-05
6.8448e-05
4.62742e-05
6.8437e-05
4.62735e-05
0.00023128
0.00023128
0.00023128
0.000156791
8.17899e-05
0.000229713
0.00022513
0.000156762
8.18126e-05
0.000229714
2.59372e-05
2.5937e-05
0.000156784
0.000229712
8.17948e-05
0.000225128
0.000156755
0.000229713
8.17984e-05
4.39224e-05
4.39136e-05
0.000216178
4.39241e-05
4.39152e-05
2.59363e-05
2.59347e-05
0.000216258
4.3976e-05
4.39659e-05
2.59351e-05
2.59362e-05
2.59335e-05
2.59346e-05
0.000216182
4.39829e-05
4.39726e-05
4.39754e-05
4.39652e-05
6.85267e-05
4.62646e-05
0.000156925
0.000225165
8.18924e-05
0.000229733
0.000156925
0.000225164
8.18872e-05
0.000229733
6.8516e-05
4.6265e-05
4.62655e-05
6.85289e-05
6.85191e-05
4.62642e-05
4.62648e-05
6.85317e-05
0.000156902
0.000225164
8.19123e-05
0.000229733
8.18821e-05
0.000229733
0.000156934
0.000156902
0.000225164
8.19079e-05
0.000229733
8.18769e-05
0.000229733
0.000156936
0.00021626
4.3967e-05
4.39655e-05
2.59359e-05
2.59342e-05
2.59352e-05
0.000216184
4.39737e-05
4.39721e-05
4.39665e-05
4.39647e-05
2.59347e-05
2.59359e-05
0.000156924
0.000225168
8.18816e-05
0.000229733
6.8531e-05
4.62592e-05
0.000156924
0.000225161
0.000229732
8.18786e-05
6.85253e-05
4.62611e-05
4.62617e-05
6.85373e-05
0.000156903
0.000225168
8.19022e-05
0.000229733
8.18725e-05
0.000229733
0.000156937
6.85251e-05
4.62589e-05
4.62595e-05
6.85369e-05
0.000156902
0.00022516
0.000229732
8.18911e-05
0.000229732
8.18613e-05
0.000156936
6.85259e-05
4.62635e-05
0.000156923
0.000225164
0.000229733
8.18887e-05
6.85253e-05
4.62619e-05
0.000156915
0.000225169
8.19042e-05
0.000229733
8.18747e-05
0.000229733
0.000156939
6.85184e-05
4.62631e-05
4.62638e-05
6.8531e-05
0.000156901
0.000225164
0.000229733
8.19089e-05
0.000229733
8.18782e-05
0.000156935
6.85177e-05
4.62616e-05
4.62622e-05
6.85305e-05
0.000216255
4.39551e-05
4.39745e-05
2.59354e-05
2.59319e-05
2.59331e-05
0.000216179
4.3961e-05
4.39812e-05
4.39538e-05
4.39737e-05
2.59342e-05
2.59352e-05
0.000156923
0.000225168
0.000229733
8.18827e-05
6.85319e-05
4.62617e-05
6.85321e-05
4.62614e-05
0.000156898
0.000225167
0.000229733
8.19068e-05
0.000229733
8.18751e-05
0.000156932
0.0001569
0.000225167
0.000229733
8.1903e-05
0.000229733
8.18721e-05
0.000156935
6.85257e-05
4.62613e-05
4.62619e-05
6.85378e-05
6.85258e-05
4.6261e-05
4.62616e-05
6.85378e-05
2.59352e-05
2.59344e-05
0.000216179
4.39801e-05
4.39712e-05
4.39725e-05
4.39637e-05
2.5934e-05
2.59351e-05
2.59332e-05
2.59343e-05
2.59351e-05
2.59345e-05
2.59335e-05
2.59329e-05
4.39829e-05
4.39726e-05
0.00021625
4.39899e-05
4.39796e-05
2.59342e-05
2.59345e-05
2.59326e-05
2.59329e-05
0.000216175
4.39947e-05
4.39845e-05
4.39893e-05
4.3979e-05
6.85364e-05
4.62643e-05
6.8525e-05
4.62639e-05
0.000156947
8.18986e-05
0.000229733
0.000225164
0.000156918
8.19208e-05
0.000229733
0.000156948
8.18939e-05
0.000229733
0.000225163
0.000156919
8.19167e-05
0.000229733
6.85267e-05
4.62645e-05
4.62646e-05
6.85358e-05
6.85289e-05
4.62638e-05
4.6264e-05
6.85379e-05
0.000156924
0.000225164
8.19234e-05
0.000229732
8.19055e-05
0.000229733
0.00015694
0.000156927
0.000225163
8.19192e-05
0.000229732
8.19008e-05
0.000229733
0.000156945
4.39738e-05
4.39713e-05
0.000216252
4.39803e-05
4.39786e-05
2.59347e-05
2.5934e-05
2.59331e-05
2.59334e-05
0.000216176
4.3985e-05
4.39835e-05
4.39796e-05
4.3977e-05
2.59337e-05
2.5934e-05
0.000156949
8.18883e-05
0.000229734
0.000225167
0.000156921
8.19097e-05
0.000229733
6.85421e-05
4.6259e-05
6.85317e-05
4.62586e-05
0.000156947
0.000229732
8.1876e-05
0.00022516
0.000156919
0.000229732
8.18994e-05
6.85368e-05
4.62606e-05
4.62608e-05
6.85446e-05
0.000156923
0.000225167
8.19121e-05
0.000229732
8.18943e-05
0.000229733
0.000156942
6.8536e-05
4.62585e-05
4.62587e-05
6.85439e-05
0.000156926
0.00022516
0.000229731
8.19016e-05
0.000229732
8.18825e-05
0.000156943
6.85356e-05
4.62633e-05
6.85242e-05
4.62628e-05
0.000156946
0.000229733
8.1895e-05
0.000225163
0.000156919
0.000229733
8.19175e-05
6.85353e-05
4.62616e-05
6.85237e-05
4.62612e-05
0.000156925
0.000225166
8.19168e-05
0.000229732
8.18972e-05
0.000229733
0.000156943
6.85281e-05
4.62626e-05
4.62629e-05
6.85372e-05
0.000156925
0.000225163
0.000229732
8.19199e-05
0.000229733
8.19016e-05
0.000156942
6.85277e-05
4.62611e-05
4.62613e-05
6.85366e-05
4.39601e-05
4.3981e-05
0.000216247
4.39673e-05
4.3988e-05
2.59341e-05
2.59335e-05
2.59308e-05
2.59312e-05
0.000216172
4.39721e-05
4.3993e-05
4.39657e-05
4.39872e-05
2.59332e-05
2.59335e-05
0.000156949
0.000229733
8.18889e-05
0.000225166
0.000156917
0.000229733
8.19114e-05
6.85431e-05
4.62614e-05
6.85324e-05
4.6261e-05
6.8543e-05
4.6261e-05
6.85324e-05
4.62606e-05
0.000156926
0.000225164
0.000229731
8.19199e-05
0.000229732
8.19012e-05
0.000156943
0.000156924
0.000225165
0.000229732
8.19138e-05
0.000229733
8.18953e-05
0.000156942
6.85368e-05
4.62609e-05
4.62611e-05
6.85449e-05
6.85366e-05
4.62605e-05
4.62607e-05
6.85446e-05
2.5934e-05
2.59333e-05
2.59331e-05
2.59325e-05
0.000216174
4.39919e-05
4.39831e-05
4.39862e-05
4.39775e-05
2.5933e-05
2.59333e-05
2.59322e-05
2.59325e-05
2.59343e-05
2.59352e-05
2.59327e-05
2.59337e-05
4.39923e-05
4.3982e-05
0.00021623
4.39835e-05
4.39732e-05
2.59401e-05
2.5937e-05
2.59385e-05
2.59355e-05
0.000216139
4.39457e-05
4.39353e-05
4.3973e-05
4.39626e-05
6.85197e-05
4.62639e-05
6.85286e-05
4.6265e-05
0.000156921
8.19051e-05
0.00022973
0.000225155
0.000156913
8.19035e-05
0.000229724
0.000156923
8.19005e-05
0.00022973
0.000225154
0.000156917
8.18994e-05
0.000229725
6.84977e-05
4.62766e-05
4.62684e-05
6.84639e-05
6.84991e-05
4.62759e-05
4.62675e-05
6.84645e-05
0.000156878
0.000225135
8.18478e-05
0.000229699
8.18748e-05
0.000229708
0.000156818
0.000156879
0.000225135
8.18433e-05
0.0002297
8.187e-05
0.000229708
0.000156819
4.39824e-05
4.39801e-05
0.000216232
4.39739e-05
4.39735e-05
2.59339e-05
2.59349e-05
2.59391e-05
2.5936e-05
0.00021614
4.39363e-05
4.39364e-05
4.39636e-05
4.39605e-05
2.59398e-05
2.59369e-05
0.000156923
8.18938e-05
0.00022973
0.000225158
0.000156916
8.18919e-05
0.000229724
6.85252e-05
4.62587e-05
6.85361e-05
4.62598e-05
0.000156923
0.000229729
8.1882e-05
0.000225151
0.000156917
0.000229724
8.1882e-05
6.85069e-05
4.62727e-05
4.62646e-05
6.84715e-05
0.000156881
0.000225139
8.18361e-05
0.000229699
8.18632e-05
0.000229708
0.000156818
6.85055e-05
4.62706e-05
4.62624e-05
6.84696e-05
0.000156878
0.000225132
0.000229699
8.1827e-05
0.000229707
8.18518e-05
0.000156817
6.8519e-05
4.62629e-05
6.85279e-05
4.6264e-05
0.000156922
0.00022973
8.19015e-05
0.000225154
0.000156915
0.000229725
8.19001e-05
6.85184e-05
4.62613e-05
6.85273e-05
4.62624e-05
0.000156881
0.000225141
8.18432e-05
0.0002297
8.18675e-05
0.000229708
0.000156821
6.84984e-05
4.62749e-05
4.62667e-05
6.8464e-05
0.000156879
0.000225136
0.000229699
8.1844e-05
0.000229708
8.18707e-05
0.000156818
6.84978e-05
4.62733e-05
4.62648e-05
6.84633e-05
4.39683e-05
4.39905e-05
0.000216227
4.39619e-05
4.39819e-05
2.59333e-05
2.59342e-05
2.59369e-05
2.5934e-05
0.000216135
4.39246e-05
4.3944e-05
4.39492e-05
4.39713e-05
2.59391e-05
2.5936e-05
0.000156924
0.00022973
8.18952e-05
0.000225157
0.000156914
0.000229724
8.1894e-05
6.85263e-05
4.6261e-05
6.85368e-05
4.62621e-05
6.85262e-05
4.62607e-05
6.85366e-05
4.62618e-05
0.00015688
0.000225138
0.0002297
8.18448e-05
0.000229708
8.18717e-05
0.00015682
0.000156879
0.000225139
0.000229699
8.1838e-05
0.000229708
8.18644e-05
0.000156819
6.85065e-05
4.6273e-05
4.62645e-05
6.84711e-05
6.85064e-05
4.62727e-05
4.62642e-05
6.8471e-05
2.59331e-05
2.59341e-05
2.59323e-05
2.59333e-05
0.000216138
4.3944e-05
4.39349e-05
4.397e-05
4.39611e-05
2.5939e-05
2.59359e-05
2.59382e-05
2.59351e-05
2.59405e-05
2.59403e-05
2.59389e-05
2.59387e-05
4.39364e-05
4.39259e-05
0.000216167
4.39283e-05
4.3918e-05
2.59402e-05
2.59404e-05
2.59386e-05
2.59388e-05
0.000216098
4.39283e-05
4.3918e-05
4.3926e-05
4.39157e-05
6.84404e-05
4.62777e-05
6.84458e-05
4.62774e-05
0.000156789
8.18201e-05
0.000229701
0.000225119
0.000156778
8.18223e-05
0.000229706
0.000156791
8.1815e-05
0.000229701
0.000225119
0.000156779
8.18175e-05
0.000229706
6.84309e-05
4.62776e-05
4.62778e-05
6.84387e-05
6.84313e-05
4.62773e-05
4.62775e-05
6.84392e-05
0.000156767
0.000225122
8.18191e-05
0.000229712
8.18041e-05
0.00022971
0.000156789
0.000156769
0.000225121
8.18142e-05
0.000229712
8.17988e-05
0.00022971
0.000156791
4.39273e-05
4.39263e-05
0.000216169
4.39185e-05
4.39156e-05
2.59403e-05
2.594e-05
2.59391e-05
2.59392e-05
0.000216099
4.39188e-05
4.39155e-05
4.39162e-05
4.39115e-05
2.59399e-05
2.59401e-05
0.000156791
8.18087e-05
0.000229701
0.000225122
0.000156779
8.18103e-05
0.000229706
6.84463e-05
4.62726e-05
6.84515e-05
4.62722e-05
0.00015679
0.0002297
8.17979e-05
0.000225115
0.000156778
0.000229705
8.17995e-05
6.84412e-05
4.62737e-05
4.6274e-05
6.84478e-05
0.000156769
0.000225125
8.18072e-05
0.000229712
8.17922e-05
0.00022971
0.000156792
6.84387e-05
4.62719e-05
4.62723e-05
6.84452e-05
0.000156768
0.000225118
0.000229711
8.17961e-05
0.000229709
8.17797e-05
0.00015679
6.84395e-05
4.62768e-05
6.84452e-05
4.62764e-05
0.000156789
0.000229701
8.1816e-05
0.000225119
0.000156779
0.000229706
8.18187e-05
6.84389e-05
4.62751e-05
6.84445e-05
4.62748e-05
0.000156768
0.000225127
8.18128e-05
0.000229712
8.17965e-05
0.00022971
0.000156788
6.84303e-05
4.62761e-05
4.62765e-05
6.84382e-05
0.000156767
0.000225121
0.000229712
8.18153e-05
0.00022971
8.18e-05
0.000156789
6.84298e-05
4.62746e-05
4.62748e-05
6.84377e-05
4.39146e-05
4.39346e-05
0.000216163
4.39046e-05
4.39267e-05
2.59396e-05
2.59394e-05
2.59369e-05
2.59372e-05
0.000216094
4.3905e-05
4.39266e-05
4.39009e-05
4.39243e-05
2.59393e-05
2.59394e-05
0.000156789
0.000229701
8.18098e-05
0.000225122
0.000156777
0.000229706
8.18124e-05
6.84472e-05
4.62749e-05
6.84526e-05
4.62745e-05
6.84469e-05
4.62745e-05
6.84525e-05
4.62742e-05
0.000156766
0.000225125
0.000229712
8.18166e-05
0.00022971
8.18014e-05
0.000156788
0.000156766
0.000225124
0.000229712
8.1809e-05
0.000229709
8.17936e-05
0.000156789
6.84393e-05
4.62744e-05
4.62746e-05
6.84461e-05
6.8439e-05
4.6274e-05
4.62743e-05
6.84457e-05
2.59394e-05
2.59392e-05
2.59386e-05
2.59384e-05
0.000216098
4.39268e-05
4.39178e-05
4.39244e-05
4.39155e-05
2.59391e-05
2.59392e-05
2.59383e-05
2.59384e-05
2.59403e-05
2.59402e-05
2.59387e-05
2.59386e-05
4.39261e-05
4.39159e-05
0.000216175
4.39285e-05
4.39183e-05
2.59402e-05
2.59403e-05
2.59386e-05
2.59387e-05
0.000216099
4.39284e-05
4.39183e-05
4.39263e-05
4.39161e-05
6.84393e-05
4.62773e-05
6.84309e-05
4.62772e-05
0.000156791
8.18021e-05
0.000229713
0.000225125
0.000156768
8.18188e-05
0.000229713
0.000156792
8.17969e-05
0.000229713
0.000225124
0.000156769
8.1814e-05
0.000229713
6.84304e-05
4.62775e-05
4.62776e-05
6.84387e-05
6.8431e-05
4.62772e-05
4.62773e-05
6.84393e-05
0.000156769
0.000225125
8.18188e-05
0.000229713
8.18021e-05
0.000229713
0.000156789
0.00015677
0.000225124
8.1814e-05
0.000229712
8.17969e-05
0.000229713
0.00015679
4.39165e-05
4.39121e-05
0.000216176
4.39189e-05
4.3916e-05
2.594e-05
2.59399e-05
2.59391e-05
2.59392e-05
0.0002161
4.39191e-05
4.39157e-05
4.39166e-05
4.39124e-05
2.59399e-05
2.594e-05
0.000156794
8.17903e-05
0.000229713
0.000225128
0.000156771
8.18069e-05
0.000229713
6.84454e-05
4.62721e-05
6.84384e-05
4.62719e-05
0.000156792
0.000229712
8.17778e-05
0.00022512
0.000156769
0.000229712
8.1796e-05
6.8441e-05
4.62736e-05
4.62738e-05
6.8448e-05
0.000156772
0.000225128
8.1807e-05
0.000229713
8.17904e-05
0.000229713
0.000156792
6.84385e-05
4.62719e-05
4.6272e-05
6.84454e-05
0.00015677
0.000225121
0.000229712
8.17959e-05
0.000229712
8.17778e-05
0.00015679
6.84383e-05
4.62763e-05
6.843e-05
4.62761e-05
0.000156791
0.000229713
8.17982e-05
0.000225124
0.000156768
0.000229713
8.18152e-05
6.84379e-05
4.62747e-05
6.84294e-05
4.62745e-05
0.000156769
0.00022513
8.18125e-05
0.000229713
8.17946e-05
0.000229713
0.000156788
6.84299e-05
4.62761e-05
4.62763e-05
6.84382e-05
0.000156769
0.000225124
0.000229713
8.18151e-05
0.000229713
8.17981e-05
0.000156789
6.84295e-05
4.62745e-05
4.62746e-05
6.84378e-05
4.39017e-05
4.39244e-05
0.000216171
4.39052e-05
4.39268e-05
2.59393e-05
2.59392e-05
2.59369e-05
2.59371e-05
0.000216095
4.39052e-05
4.39269e-05
4.39019e-05
4.39246e-05
2.59392e-05
2.59393e-05
0.000156792
0.000229713
8.17917e-05
0.000225127
0.000156766
0.000229713
8.1809e-05
6.84463e-05
4.62745e-05
6.84391e-05
4.62743e-05
6.8446e-05
4.62741e-05
6.84386e-05
4.62739e-05
0.000156769
0.000225128
0.000229712
8.18163e-05
0.000229713
8.17995e-05
0.000156788
0.000156769
0.000225127
0.000229712
8.18089e-05
0.000229713
8.17917e-05
0.000156789
6.84391e-05
4.62743e-05
4.62744e-05
6.84463e-05
6.84388e-05
4.62739e-05
4.6274e-05
6.8446e-05
2.59392e-05
2.59391e-05
2.59383e-05
2.59382e-05
0.000216098
4.3927e-05
4.39181e-05
4.39246e-05
4.39158e-05
2.59391e-05
2.59391e-05
2.59382e-05
2.59383e-05
2.59403e-05
2.59402e-05
2.59387e-05
2.59386e-05
4.39263e-05
4.3916e-05
0.000216175
4.39284e-05
4.39183e-05
2.59402e-05
2.59403e-05
2.59386e-05
2.59387e-05
0.0002161
4.39285e-05
4.39182e-05
4.39263e-05
4.39161e-05
6.84393e-05
4.62773e-05
6.8431e-05
4.62772e-05
0.000156791
8.1802e-05
0.000229713
0.000225125
0.000156767
8.18188e-05
0.000229713
0.000156792
8.17968e-05
0.000229713
0.000225124
0.000156769
8.1814e-05
0.000229713
6.84304e-05
4.62775e-05
4.62776e-05
6.84387e-05
6.84309e-05
4.62772e-05
4.62773e-05
6.84393e-05
0.000156769
0.000225125
8.18188e-05
0.000229713
8.18021e-05
0.000229713
0.000156789
0.000156769
0.000225124
8.1814e-05
0.000229713
8.17969e-05
0.000229713
0.000156791
4.39167e-05
4.3912e-05
0.000216176
4.3919e-05
4.39158e-05
2.594e-05
2.59399e-05
2.59391e-05
2.59392e-05
0.000216102
4.39191e-05
4.39158e-05
4.39167e-05
4.39123e-05
2.59399e-05
2.594e-05
0.000156793
8.17902e-05
0.000229713
0.000225128
0.00015677
8.18069e-05
0.000229713
6.84455e-05
4.6272e-05
6.84386e-05
4.62719e-05
0.000156791
0.000229712
8.17777e-05
0.000225121
0.000156769
0.000229712
8.17959e-05
6.84411e-05
4.62738e-05
4.62738e-05
6.8448e-05
0.000156772
0.000225128
8.18074e-05
0.000229713
8.17904e-05
0.000229714
0.000156793
6.84386e-05
4.62719e-05
4.6272e-05
6.84455e-05
0.000156769
0.000225121
0.000229712
8.17959e-05
0.000229712
8.17778e-05
0.000156791
6.84382e-05
4.62763e-05
6.84299e-05
4.62761e-05
0.00015679
0.000229713
8.17981e-05
0.000225124
0.000156767
0.000229713
8.18152e-05
6.84378e-05
4.62746e-05
6.84295e-05
4.62745e-05
0.000156769
0.00022513
8.18125e-05
0.000229713
8.17946e-05
0.000229713
0.000156788
6.84298e-05
4.62761e-05
4.62763e-05
6.84382e-05
0.000156768
0.000225125
0.000229713
8.18151e-05
0.000229713
8.17981e-05
0.00015679
6.84294e-05
4.62745e-05
4.62746e-05
6.84378e-05
4.39018e-05
4.39246e-05
0.000216171
4.39052e-05
4.39269e-05
2.59393e-05
2.59392e-05
2.59369e-05
2.59371e-05
0.000216097
4.39052e-05
4.39269e-05
4.39019e-05
4.39246e-05
2.59392e-05
2.59393e-05
0.00015679
0.000229713
8.17916e-05
0.000225127
0.000156765
0.000229712
8.1809e-05
6.84463e-05
4.62744e-05
6.84392e-05
4.62743e-05
6.8446e-05
4.6274e-05
6.84388e-05
4.62739e-05
0.000156768
0.000225128
0.000229713
8.18163e-05
0.000229713
8.17995e-05
0.000156789
0.000156767
0.000225128
0.000229712
8.18089e-05
0.000229713
8.17917e-05
0.000156791
6.84391e-05
4.62743e-05
4.62744e-05
6.84463e-05
6.84388e-05
4.62739e-05
4.6274e-05
6.8446e-05
2.59392e-05
2.59391e-05
2.59383e-05
2.59382e-05
0.000216101
4.3927e-05
4.39181e-05
4.39247e-05
4.39159e-05
2.59391e-05
2.59391e-05
2.59382e-05
2.59383e-05
2.59403e-05
2.59402e-05
2.59387e-05
2.59386e-05
4.39263e-05
4.3916e-05
0.000216174
4.39286e-05
4.39182e-05
2.59402e-05
2.59403e-05
2.59386e-05
2.59387e-05
0.0002161
4.39285e-05
4.39182e-05
4.39264e-05
4.3916e-05
6.84393e-05
4.62773e-05
6.8431e-05
4.62772e-05
0.000156791
8.1802e-05
0.000229713
0.000225125
0.000156767
8.18188e-05
0.000229713
0.000156791
8.17968e-05
0.000229713
0.000225124
0.000156769
8.18141e-05
0.000229713
6.84304e-05
4.62775e-05
4.62776e-05
6.84387e-05
6.84309e-05
4.62771e-05
4.62773e-05
6.84393e-05
0.000156769
0.000225125
8.18189e-05
0.000229713
8.18022e-05
0.000229713
0.000156789
0.000156769
0.000225124
8.18142e-05
0.000229713
8.17969e-05
0.000229713
0.000156791
4.39167e-05
4.39121e-05
0.000216176
4.3919e-05
4.39158e-05
2.594e-05
2.59399e-05
2.59393e-05
2.59392e-05
0.000216101
4.39177e-05
4.39158e-05
4.39169e-05
4.39123e-05
2.59399e-05
2.594e-05
0.000156793
8.17888e-05
0.000229713
0.000225128
0.000156771
8.18062e-05
0.000229713
6.84455e-05
4.6272e-05
6.84386e-05
4.62719e-05
0.000156791
0.000229712
8.17777e-05
0.000225121
0.000156769
0.000229712
8.17959e-05
6.84411e-05
4.62737e-05
4.62738e-05
6.8448e-05
0.000156771
0.000225128
8.18056e-05
0.000229713
8.17879e-05
0.000229714
0.000156793
6.84386e-05
4.62719e-05
4.6272e-05
6.84455e-05
0.000156769
0.000225121
0.000229712
8.17959e-05
0.000229712