/*--------------------------------*- C++ -*----------------------------------*\
| =========                 |                                                 |
| \\      /  F ield         | OpenFOAM: The Open Source CFD Toolbox           |
|  \\    /   O peration     | Version:  2206                                  |
|   \\  /    A nd           | Website:  www.openfoam.com                      |
|    \\/     M anipulation  |                                                 |
\*---------------------------------------------------------------------------*/
FoamFile
{
    version     2.0;
    format      ascii;
    arch        "LSB;label=32;scalar=64";
    class       volScalarField;
    location    "9";
    object      p;
}
// * * * * * * * * * * * * * * * * * * * * * * * * * * * * * * * * * * * * * //

dimensions      [0 2 -2 0 0 0 0];

internalField   nonuniform List<scalar> 
171728
(
0.00433034
0.00433063
0.00433063
0.00433369
0.00427597
0.00427608
0.00427608
0.00427856
0.00422824
0.00422818
0.00422817
0.00423084
0.00418213
0.0041821
0.0041821
0.00418477
0.00413618
0.00413616
0.00413616
0.00413883
0.00409025
0.00409022
0.00409022
0.0040929
0.00404431
0.00404429
0.00404429
0.00404696
0.00399838
0.00399835
0.00399835
0.00400103
0.00395244
0.00395242
0.00395242
0.00395509
0.0039065
0.00390648
0.00390648
0.00390915
0.00386057
0.00386055
0.00386055
0.00386322
0.00381463
0.00381461
0.00381461
0.00381728
0.0037687
0.00376868
0.00376868
0.00377135
0.00372276
0.00372274
0.00372274
0.00372541
0.00367683
0.0036768
0.0036768
0.00367948
0.00363089
0.00363087
0.00363087
0.00363354
0.00358495
0.00358493
0.00358493
0.0035876
0.00353902
0.00353899
0.00353899
0.00354166
0.00349308
0.00349305
0.00349305
0.00349573
0.00344714
0.00344712
0.00344712
0.00344979
0.00340121
0.00340118
0.00340118
0.00340386
0.00335527
0.00335525
0.00335525
0.00335792
0.00330933
0.00330931
0.00330931
0.00331198
0.0032634
0.00326337
0.00326337
0.00326605
0.00321746
0.00321743
0.00321743
0.00322011
0.00317152
0.00317149
0.00317149
0.00317417
0.00312558
0.00312556
0.00312556
0.00312823
0.00307964
0.00307962
0.00307962
0.00308229
0.00303371
0.00303369
0.00303369
0.00303636
0.00298778
0.00298775
0.00298775
0.00299043
0.00294184
0.00294182
0.00294182
0.00294449
0.00289591
0.00289588
0.00289588
0.00289855
0.00284997
0.00284995
0.00284995
0.00285262
0.00280404
0.00280401
0.00280401
0.00280668
0.0027581
0.00275808
0.00275808
0.00276075
0.00271217
0.00271214
0.00271214
0.00271482
0.00266624
0.00266621
0.00266621
0.00266888
0.0026203
0.00262028
0.00262028
0.00262295
0.00257437
0.00257435
0.00257435
0.00257702
0.00252844
0.00252842
0.00252842
0.00253109
0.00248251
0.00248249
0.00248249
0.00248516
0.00243659
0.00243656
0.00243656
0.00243923
0.00239066
0.00239063
0.00239063
0.00239331
0.00234473
0.00234471
0.00234471
0.00234738
0.0022988
0.00229878
0.00229878
0.00230145
0.00225287
0.00225285
0.00225285
0.00225552
0.00220694
0.00220692
0.00220692
0.00220959
0.00216101
0.00216099
0.00216099
0.00216366
0.00211508
0.00211505
0.00211505
0.00211773
0.00206915
0.00206912
0.00206912
0.0020718
0.00202321
0.00202319
0.00202319
0.00202586
0.00197728
0.00197726
0.00197726
0.00197993
0.00193134
0.00193132
0.00193132
0.00193399
0.00188541
0.00188539
0.00188539
0.00188806
0.00183948
0.00183945
0.00183945
0.00184212
0.00179354
0.00179352
0.00179352
0.00179619
0.0017476
0.00174758
0.00174758
0.00175025
0.00170167
0.00170165
0.00170165
0.00170432
0.00165574
0.00165571
0.00165571
0.00165838
0.0016098
0.00160978
0.00160978
0.00161245
0.00156387
0.00156385
0.00156385
0.00156652
0.00151794
0.00151792
0.00151792
0.00152059
0.00147201
0.00147199
0.00147199
0.00147466
0.00142609
0.00142606
0.00142606
0.00142873
0.00138015
0.00138013
0.00138013
0.0013828
0.00133422
0.0013342
0.0013342
0.00133687
0.00128829
0.00128827
0.00128827
0.00129094
0.00124236
0.00124234
0.00124234
0.00124501
0.00119644
0.00119641
0.00119641
0.00119908
0.00115051
0.00115049
0.00115049
0.00115316
0.00110458
0.00110456
0.00110456
0.00110723
0.00105866
0.00105863
0.00105863
0.00106131
0.00101274
0.00101271
0.00101271
0.00101538
0.000966814
0.00096679
0.00096679
0.000969462
0.000920892
0.000920869
0.000920869
0.000923541
0.00087497
0.000874947
0.000874947
0.000877619
0.000829048
0.000829024
0.000829024
0.000831696
0.000783124
0.000783101
0.000783101
0.000785773
0.000737202
0.000737178
0.000737178
0.00073985
0.00069128
0.000691256
0.000691256
0.000693928
0.00064536
0.000645336
0.000645336
0.000648008
0.000599441
0.000599417
0.000599417
0.000602089
0.000553523
0.000553499
0.0005535
0.000556171
0.000507606
0.000507582
0.000507582
0.000510254
0.00046169
0.000461667
0.000461667
0.000464338
0.000415777
0.000415753
0.000415753
0.000418424
0.000369864
0.000369841
0.000369841
0.000372512
0.000323954
0.00032393
0.00032393
0.000326601
0.000278044
0.00027802
0.00027802
0.000280691
0.000232136
0.000232112
0.000232112
0.000234783
0.000186227
0.000186204
0.000186204
0.000188876
0.000140315
0.000140295
0.000140295
0.000142963
9.43985e-05
9.43672e-05
9.43669e-05
9.69972e-05
4.91787e-05
4.86026e-05
4.86003e-05
5.11276e-05
1.14366e-05
1.18047e-05
1.18028e-05
1.1434e-05
0.00434368
0.00434391
0.00434391
0.00434368
0.00434391
0.00434391
0.00434466
0.00434466
0.00434466
0.00434466
0.00434391
0.00434391
0.00434368
0.00434392
0.00434392
0.00434368
0.00433369
0.00428526
0.00433062
0.00433062
0.00428722
0.00428722
0.00433369
0.00428526
0.00433063
0.00433062
0.00428721
0.00428722
0.00433062
0.00428721
0.00428721
0.00433369
0.00428526
0.00433063
0.00428721
0.00428721
0.00428526
0.00427856
0.00423697
0.00427608
0.00427608
0.00423986
0.00423986
0.00427857
0.00423697
0.00427608
0.00427608
0.00423986
0.00423986
0.00427608
0.00423986
0.00423986
0.00427856
0.00423697
0.00427608
0.00423986
0.00423986
0.00423697
0.00423084
0.00419091
0.00422818
0.00422818
0.00419359
0.00419359
0.00423084
0.00419091
0.00422817
0.00422818
0.00419359
0.00419359
0.00422818
0.00419359
0.00419359
0.00423084
0.00419091
0.00422818
0.00419359
0.00419359
0.00419091
0.00418477
0.00414497
0.0041821
0.0041821
0.00414764
0.00414764
0.00418477
0.00414497
0.0041821
0.0041821
0.00414764
0.00414764
0.0041821
0.00414764
0.00414764
0.00418477
0.00414497
0.0041821
0.00414764
0.00414764
0.00414497
0.00413883
0.00409904
0.00413616
0.00413616
0.00410171
0.00410171
0.00413883
0.00409904
0.00413616
0.00413616
0.00410171
0.00410171
0.00413616
0.00410171
0.00410171
0.00413883
0.00409904
0.00413616
0.00410171
0.00410171
0.00409904
0.0040929
0.00405311
0.00409022
0.00409022
0.00405577
0.00405577
0.00409289
0.0040531
0.00409022
0.00409022
0.00405577
0.00405577
0.00409022
0.00405577
0.00405577
0.0040929
0.00405311
0.00409022
0.00405577
0.00405577
0.0040531
0.00404696
0.00400717
0.00404429
0.00404429
0.00400984
0.00400984
0.00404696
0.00400717
0.00404429
0.00404429
0.00400984
0.00400984
0.00404429
0.00400984
0.00400984
0.00404696
0.00400717
0.00404429
0.00400984
0.00400984
0.00400717
0.00400103
0.00396123
0.00399835
0.00399835
0.0039639
0.0039639
0.00400103
0.00396123
0.00399835
0.00399835
0.0039639
0.0039639
0.00399835
0.0039639
0.0039639
0.00400103
0.00396123
0.00399835
0.0039639
0.0039639
0.00396123
0.00395509
0.0039153
0.00395242
0.00395242
0.00391796
0.00391796
0.00395509
0.0039153
0.00395242
0.00395242
0.00391796
0.00391796
0.00395242
0.00391796
0.00391796
0.00395509
0.0039153
0.00395242
0.00391796
0.00391796
0.0039153
0.00390915
0.00386936
0.00390648
0.00390648
0.00387203
0.00387203
0.00390915
0.00386936
0.00390648
0.00390648
0.00387203
0.00387203
0.00390648
0.00387203
0.00387203
0.00390915
0.00386936
0.00390648
0.00387203
0.00387203
0.00386936
0.00386322
0.00382343
0.00386055
0.00386055
0.00382609
0.00382609
0.00386322
0.00382343
0.00386055
0.00386055
0.00382609
0.00382609
0.00386055
0.00382609
0.00382609
0.00386322
0.00382343
0.00386055
0.00382609
0.00382609
0.00382343
0.00381728
0.00377749
0.00381461
0.00381461
0.00378016
0.00378016
0.00381728
0.00377749
0.00381461
0.00381461
0.00378016
0.00378016
0.00381461
0.00378016
0.00378016
0.00381728
0.00377749
0.00381461
0.00378016
0.00378016
0.00377749
0.00377135
0.00373156
0.00376868
0.00376868
0.00373422
0.00373422
0.00377135
0.00373156
0.00376868
0.00376868
0.00373422
0.00373422
0.00376868
0.00373422
0.00373422
0.00377135
0.00373156
0.00376868
0.00373422
0.00373422
0.00373156
0.00372541
0.00368562
0.00372274
0.00372274
0.00368829
0.00368829
0.00372541
0.00368562
0.00372274
0.00372274
0.00368829
0.00368829
0.00372274
0.00368829
0.00368829
0.00372541
0.00368562
0.00372274
0.00368829
0.00368829
0.00368562
0.00367948
0.00363968
0.0036768
0.0036768
0.00364235
0.00364235
0.00367948
0.00363968
0.0036768
0.0036768
0.00364235
0.00364235
0.0036768
0.00364235
0.00364235
0.00367948
0.00363968
0.0036768
0.00364235
0.00364235
0.00363968
0.00363354
0.00359375
0.00363087
0.00363087
0.00359641
0.00359641
0.00363354
0.00359375
0.00363087
0.00363087
0.00359641
0.00359641
0.00363087
0.00359641
0.00359641
0.00363354
0.00359375
0.00363087
0.00359641
0.00359641
0.00359375
0.0035876
0.00354781
0.00358493
0.00358493
0.00355048
0.00355048
0.0035876
0.00354781
0.00358493
0.00358493
0.00355048
0.00355048
0.00358493
0.00355048
0.00355048
0.0035876
0.00354781
0.00358493
0.00355048
0.00355048
0.00354781
0.00354166
0.00350187
0.00353899
0.00353899
0.00350454
0.00350454
0.00354166
0.00350187
0.00353899
0.00353899
0.00350454
0.00350454
0.00353899
0.00350454
0.00350454
0.00354166
0.00350187
0.00353899
0.00350454
0.00350454
0.00350187
0.00349573
0.00345593
0.00349305
0.00349305
0.0034586
0.0034586
0.00349573
0.00345593
0.00349305
0.00349305
0.0034586
0.0034586
0.00349305
0.0034586
0.0034586
0.00349573
0.00345593
0.00349305
0.0034586
0.0034586
0.00345593
0.00344979
0.00341
0.00344712
0.00344712
0.00341267
0.00341267
0.00344979
0.00341
0.00344712
0.00344712
0.00341267
0.00341267
0.00344712
0.00341267
0.00341267
0.00344979
0.00341
0.00344712
0.00341267
0.00341267
0.00341
0.00340385
0.00336406
0.00340118
0.00340118
0.00336673
0.00336673
0.00340385
0.00336406
0.00340118
0.00340118
0.00336673
0.00336673
0.00340118
0.00336673
0.00336673
0.00340385
0.00336406
0.00340118
0.00336673
0.00336673
0.00336406
0.00335792
0.00331813
0.00335525
0.00335525
0.00332079
0.00332079
0.00335792
0.00331813
0.00335525
0.00335525
0.00332079
0.00332079
0.00335525
0.00332079
0.00332079
0.00335792
0.00331813
0.00335525
0.00332079
0.00332079
0.00331813
0.00331198
0.00327219
0.00330931
0.00330931
0.00327486
0.00327486
0.00331198
0.00327219
0.00330931
0.00330931
0.00327486
0.00327486
0.00330931
0.00327486
0.00327486
0.00331198
0.00327219
0.00330931
0.00327486
0.00327486
0.00327219
0.00326605
0.00322625
0.00326337
0.00326337
0.00322892
0.00322892
0.00326605
0.00322625
0.00326337
0.00326337
0.00322892
0.00322892
0.00326337
0.00322892
0.00322892
0.00326605
0.00322625
0.00326337
0.00322892
0.00322892
0.00322625
0.00322011
0.00318031
0.00321743
0.00321743
0.00318298
0.00318298
0.00322011
0.00318031
0.00321743
0.00321743
0.00318298
0.00318298
0.00321743
0.00318298
0.00318298
0.00322011
0.00318031
0.00321743
0.00318298
0.00318298
0.00318031
0.00317417
0.00313437
0.00317149
0.00317149
0.00313704
0.00313704
0.00317417
0.00313437
0.00317149
0.00317149
0.00313704
0.00313704
0.00317149
0.00313704
0.00313704
0.00317417
0.00313437
0.00317149
0.00313704
0.00313704
0.00313437
0.00312823
0.00308844
0.00312556
0.00312556
0.0030911
0.0030911
0.00312823
0.00308844
0.00312556
0.00312556
0.0030911
0.0030911
0.00312556
0.0030911
0.0030911
0.00312823
0.00308844
0.00312556
0.0030911
0.0030911
0.00308844
0.00308229
0.0030425
0.00307962
0.00307962
0.00304517
0.00304517
0.00308229
0.0030425
0.00307962
0.00307962
0.00304517
0.00304517
0.00307962
0.00304517
0.00304517
0.00308229
0.0030425
0.00307962
0.00304517
0.00304517
0.0030425
0.00303636
0.00299657
0.00303369
0.00303369
0.00299924
0.00299924
0.00303636
0.00299657
0.00303369
0.00303369
0.00299924
0.00299924
0.00303369
0.00299924
0.00299924
0.00303636
0.00299657
0.00303369
0.00299924
0.00299924
0.00299657
0.00299043
0.00295063
0.00298775
0.00298775
0.0029533
0.0029533
0.00299043
0.00295063
0.00298775
0.00298775
0.0029533
0.0029533
0.00298775
0.0029533
0.0029533
0.00299043
0.00295063
0.00298775
0.0029533
0.0029533
0.00295063
0.00294449
0.0029047
0.00294182
0.00294182
0.00290737
0.00290737
0.00294449
0.0029047
0.00294182
0.00294182
0.00290737
0.00290737
0.00294182
0.00290737
0.00290737
0.00294449
0.0029047
0.00294182
0.00290737
0.00290737
0.0029047
0.00289855
0.00285876
0.00289588
0.00289588
0.00286143
0.00286143
0.00289855
0.00285876
0.00289588
0.00289588
0.00286143
0.00286143
0.00289588
0.00286143
0.00286143
0.00289855
0.00285876
0.00289588
0.00286143
0.00286143
0.00285876
0.00285262
0.00281283
0.00284995
0.00284995
0.0028155
0.0028155
0.00285262
0.00281283
0.00284995
0.00284995
0.0028155
0.0028155
0.00284995
0.0028155
0.0028155
0.00285262
0.00281283
0.00284995
0.0028155
0.0028155
0.00281283
0.00280668
0.00276689
0.00280401
0.00280401
0.00276956
0.00276956
0.00280668
0.00276689
0.00280401
0.00280401
0.00276956
0.00276956
0.00280401
0.00276956
0.00276956
0.00280668
0.00276689
0.00280401
0.00276956
0.00276956
0.00276689
0.00276075
0.00272096
0.00275808
0.00275808
0.00272363
0.00272363
0.00276075
0.00272096
0.00275808
0.00275808
0.00272363
0.00272363
0.00275808
0.00272363
0.00272363
0.00276075
0.00272096
0.00275808
0.00272363
0.00272363
0.00272096
0.00271482
0.00267503
0.00271214
0.00271214
0.0026777
0.0026777
0.00271482
0.00267503
0.00271214
0.00271214
0.0026777
0.0026777
0.00271214
0.0026777
0.0026777
0.00271482
0.00267503
0.00271214
0.0026777
0.0026777
0.00267503
0.00266888
0.0026291
0.00266621
0.00266621
0.00263176
0.00263176
0.00266888
0.0026291
0.00266621
0.00266621
0.00263176
0.00263176
0.00266621
0.00263176
0.00263176
0.00266888
0.0026291
0.00266621
0.00263176
0.00263176
0.0026291
0.00262295
0.00258317
0.00262028
0.00262028
0.00258583
0.00258583
0.00262295
0.00258317
0.00262028
0.00262028
0.00258583
0.00258583
0.00262028
0.00258583
0.00258583
0.00262295
0.00258316
0.00262028
0.00258583
0.00258583
0.00258316
0.00257702
0.00253723
0.00257435
0.00257435
0.0025399
0.0025399
0.00257702
0.00253723
0.00257435
0.00257435
0.0025399
0.0025399
0.00257435
0.0025399
0.0025399
0.00257702
0.00253723
0.00257435
0.0025399
0.0025399
0.00253723
0.00253109
0.00249131
0.00252842
0.00252842
0.00249397
0.00249397
0.00253109
0.00249131
0.00252842
0.00252842
0.00249397
0.00249397
0.00252842
0.00249397
0.00249397
0.00253109
0.00249131
0.00252842
0.00249397
0.00249397
0.00249131
0.00248516
0.00244538
0.00248249
0.00248249
0.00244804
0.00244804
0.00248516
0.00244538
0.00248249
0.00248249
0.00244804
0.00244804
0.00248249
0.00244804
0.00244804
0.00248516
0.00244538
0.00248249
0.00244804
0.00244804
0.00244538
0.00243923
0.00239945
0.00243656
0.00243656
0.00240212
0.00240211
0.00243923
0.00239945
0.00243656
0.00243656
0.00240212
0.00240212
0.00243656
0.00240211
0.00240212
0.00243923
0.00239945
0.00243656
0.00240212
0.00240212
0.00239945
0.00239331
0.00235352
0.00239063
0.00239063
0.00235619
0.00235619
0.00239331
0.00235352
0.00239063
0.00239063
0.00235619
0.00235619
0.00239063
0.00235619
0.00235619
0.00239331
0.00235352
0.00239063
0.00235619
0.00235619
0.00235352
0.00234738
0.00230759
0.00234471
0.00234471
0.00231026
0.00231026
0.00234738
0.00230759
0.00234471
0.00234471
0.00231026
0.00231026
0.00234471
0.00231026
0.00231026
0.00234738
0.00230759
0.00234471
0.00231026
0.00231026
0.00230759
0.00230145
0.00226166
0.00229878
0.00229878
0.00226433
0.00226433
0.00230145
0.00226166
0.00229878
0.00229878
0.00226433
0.00226433
0.00229878
0.00226433
0.00226433
0.00230145
0.00226166
0.00229878
0.00226433
0.00226433
0.00226166
0.00225552
0.00221573
0.00225285
0.00225285
0.0022184
0.0022184
0.00225552
0.00221573
0.00225285
0.00225285
0.0022184
0.0022184
0.00225285
0.0022184
0.0022184
0.00225552
0.00221573
0.00225285
0.0022184
0.0022184
0.00221573
0.00220959
0.0021698
0.00220692
0.00220692
0.00217247
0.00217247
0.00220959
0.0021698
0.00220692
0.00220692
0.00217247
0.00217247
0.00220692
0.00217247
0.00217247
0.00220959
0.0021698
0.00220692
0.00217247
0.00217247
0.0021698
0.00216366
0.00212387
0.00216099
0.00216099
0.00212654
0.00212654
0.00216366
0.00212387
0.00216099
0.00216099
0.00212654
0.00212654
0.00216099
0.00212654
0.00212654
0.00216366
0.00212387
0.00216099
0.00212654
0.00212654
0.00212387
0.00211773
0.00207794
0.00211505
0.00211505
0.00208061
0.00208061
0.00211773
0.00207794
0.00211505
0.00211505
0.00208061
0.00208061
0.00211505
0.00208061
0.00208061
0.00211773
0.00207794
0.00211505
0.00208061
0.00208061
0.00207794
0.0020718
0.00203201
0.00206912
0.00206912
0.00203467
0.00203467
0.00207179
0.00203201
0.00206912
0.00206912
0.00203467
0.00203467
0.00206912
0.00203467
0.00203467
0.0020718
0.00203201
0.00206912
0.00203467
0.00203467
0.00203201
0.00202586
0.00198607
0.00202319
0.00202319
0.00198874
0.00198874
0.00202586
0.00198607
0.00202319
0.00202319
0.00198874
0.00198874
0.00202319
0.00198874
0.00198874
0.00202586
0.00198607
0.00202319
0.00198874
0.00198874
0.00198607
0.00197993
0.00194014
0.00197726
0.00197726
0.0019428
0.0019428
0.00197993
0.00194014
0.00197726
0.00197726
0.0019428
0.0019428
0.00197726
0.0019428
0.0019428
0.00197993
0.00194014
0.00197726
0.0019428
0.0019428
0.00194014
0.00193399
0.0018942
0.00193132
0.00193132
0.00189687
0.00189687
0.00193399
0.0018942
0.00193132
0.00193132
0.00189687
0.00189687
0.00193132
0.00189687
0.00189687
0.00193399
0.0018942
0.00193132
0.00189687
0.00189687
0.0018942
0.00188806
0.00184827
0.00188539
0.00188539
0.00185094
0.00185094
0.00188806
0.00184827
0.00188539
0.00188539
0.00185094
0.00185094
0.00188539
0.00185094
0.00185094
0.00188806
0.00184827
0.00188539
0.00185094
0.00185094
0.00184827
0.00184212
0.00180233
0.00183945
0.00183945
0.001805
0.001805
0.00184213
0.00180233
0.00183945
0.00183945
0.001805
0.001805
0.00183945
0.001805
0.001805
0.00184212
0.00180233
0.00183945
0.001805
0.001805
0.00180233
0.00179619
0.0017564
0.00179352
0.00179352
0.00175907
0.00175906
0.00179619
0.0017564
0.00179352
0.00179352
0.00175906
0.00175906
0.00179352
0.00175907
0.00175907
0.00179619
0.0017564
0.00179352
0.00175906
0.00175906
0.0017564
0.00175025
0.00171046
0.00174758
0.00174758
0.00171313
0.00171313
0.00175025
0.00171046
0.00174758
0.00174758
0.00171313
0.00171313
0.00174758
0.00171313
0.00171313
0.00175025
0.00171046
0.00174758
0.00171313
0.00171313
0.00171046
0.00170432
0.00166453
0.00170165
0.00170165
0.0016672
0.00166719
0.00170432
0.00166453
0.00170165
0.00170165
0.00166719
0.00166719
0.00170165
0.0016672
0.0016672
0.00170432
0.00166453
0.00170165
0.0016672
0.00166719
0.00166453
0.00165838
0.00161859
0.00165571
0.00165571
0.00162126
0.00162126
0.00165838
0.00161859
0.00165571
0.00165571
0.00162126
0.00162126
0.00165571
0.00162126
0.00162126
0.00165838
0.00161859
0.00165571
0.00162126
0.00162126
0.00161859
0.00161245
0.00157266
0.00160978
0.00160978
0.00157533
0.00157533
0.00161245
0.00157266
0.00160978
0.00160978
0.00157533
0.00157533
0.00160978
0.00157533
0.00157533
0.00161245
0.00157266
0.00160978
0.00157533
0.00157533
0.00157266
0.00156652
0.00152674
0.00156385
0.00156385
0.0015294
0.0015294
0.00156652
0.00152674
0.00156385
0.00156385
0.0015294
0.0015294
0.00156385
0.0015294
0.0015294
0.00156652
0.00152674
0.00156385
0.0015294
0.0015294
0.00152674
0.00152059
0.00148081
0.00151792
0.00151792
0.00148347
0.00148347
0.00152059
0.00148081
0.00151792
0.00151792
0.00148347
0.00148347
0.00151792
0.00148347
0.00148347
0.00152059
0.00148081
0.00151792
0.00148347
0.00148347
0.00148081
0.00147466
0.00143488
0.00147199
0.00147199
0.00143754
0.00143754
0.00147466
0.00143488
0.00147199
0.00147199
0.00143754
0.00143754
0.00147199
0.00143754
0.00143754
0.00147466
0.00143488
0.00147199
0.00143754
0.00143754
0.00143488
0.00142873
0.00138895
0.00142606
0.00142606
0.00139161
0.00139161
0.00142873
0.00138895
0.00142606
0.00142606
0.00139161
0.00139161
0.00142606
0.00139161
0.00139161
0.00142873
0.00138895
0.00142606
0.00139161
0.00139161
0.00138895
0.0013828
0.00134301
0.00138013
0.00138013
0.00134568
0.00134568
0.0013828
0.00134301
0.00138013
0.00138013
0.00134568
0.00134568
0.00138013
0.00134568
0.00134568
0.0013828
0.00134301
0.00138013
0.00134568
0.00134568
0.00134301
0.00133687
0.00129708
0.0013342
0.0013342
0.00129975
0.00129975
0.00133687
0.00129708
0.0013342
0.0013342
0.00129975
0.00129975
0.0013342
0.00129975
0.00129975
0.00133687
0.00129708
0.0013342
0.00129975
0.00129975
0.00129708
0.00129094
0.00125115
0.00128827
0.00128827
0.00125382
0.00125382
0.00129094
0.00125115
0.00128827
0.00128827
0.00125382
0.00125382
0.00128827
0.00125382
0.00125382
0.00129094
0.00125115
0.00128827
0.00125382
0.00125382
0.00125115
0.00124501
0.00120523
0.00124234
0.00124234
0.00120789
0.00120789
0.00124501
0.00120523
0.00124234
0.00124234
0.00120789
0.00120789
0.00124234
0.00120789
0.00120789
0.00124501
0.00120523
0.00124234
0.00120789
0.00120789
0.00120523
0.00119908
0.0011593
0.00119641
0.00119641
0.00116197
0.00116197
0.00119908
0.0011593
0.00119641
0.00119641
0.00116197
0.00116197
0.00119641
0.00116197
0.00116197
0.00119908
0.0011593
0.00119641
0.00116197
0.00116197
0.0011593
0.00115316
0.00111337
0.00115049
0.00115049
0.00111604
0.00111604
0.00115316
0.00111337
0.00115049
0.00115049
0.00111604
0.00111604
0.00115049
0.00111604
0.00111604
0.00115316
0.00111337
0.00115048
0.00111604
0.00111604
0.00111337
0.00110723
0.00106745
0.00110456
0.00110456
0.00107012
0.00107012
0.00110723
0.00106745
0.00110456
0.00110456
0.00107012
0.00107012
0.00110456
0.00107012
0.00107012
0.00110723
0.00106745
0.00110456
0.00107012
0.00107012
0.00106745
0.00106131
0.00102153
0.00105863
0.00105863
0.00102419
0.00102419
0.00106131
0.00102153
0.00105863
0.00105863
0.00102419
0.00102419
0.00105864
0.00102419
0.00102419
0.00106131
0.00102153
0.00105863
0.00102419
0.00102419
0.00102153
0.00101538
0.000975604
0.00101271
0.00101271
0.00097827
0.00097827
0.00101538
0.000975604
0.00101271
0.00101271
0.00097827
0.00097827
0.00101271
0.00097827
0.000978271
0.00101538
0.000975604
0.00101271
0.00097827
0.00097827
0.000975603
0.000969462
0.000929682
0.00096679
0.00096679
0.000932349
0.000932349
0.000969462
0.000929683
0.00096679
0.00096679
0.000932349
0.000932349
0.00096679
0.000932349
0.000932349
0.000969462
0.000929682
0.00096679
0.000932349
0.000932349
0.000929682
0.000923541
0.00088376
0.000920869
0.000920869
0.000886427
0.000886427
0.00092354
0.000883761
0.000920869
0.000920869
0.000886427
0.000886427
0.000920869
0.000886427
0.000886428
0.000923541
0.00088376
0.000920869
0.000886427
0.000886427
0.000883761
0.000877619
0.000837838
0.000874947
0.000874947
0.000840505
0.000840505
0.000877618
0.000837838
0.000874947
0.000874947
0.000840505
0.000840505
0.000874947
0.000840505
0.000840505
0.000877619
0.000837838
0.000874947
0.000840505
0.000840505
0.000837838
0.000831696
0.000791915
0.000829024
0.000829024
0.000794582
0.000794582
0.000831696
0.000791915
0.000829024
0.000829024
0.000794581
0.000794581
0.000829024
0.000794582
0.000794582
0.000831696
0.000791915
0.000829024
0.000794582
0.000794582
0.000791915
0.000785773
0.000745992
0.000783101
0.000783101
0.000748659
0.000748658
0.000785773
0.000745992
0.000783101
0.000783101
0.000748658
0.000748658
0.000783101
0.000748659
0.000748659
0.000785773
0.000745991
0.000783101
0.000748658
0.000748658
0.000745992
0.00073985
0.00070007
0.000737178
0.000737178
0.000702737
0.000702737
0.00073985
0.00070007
0.000737178
0.000737178
0.000702737
0.000702737
0.000737178
0.000702737
0.000702737
0.00073985
0.00070007
0.000737178
0.000702737
0.000702737
0.00070007
0.000693928
0.000654149
0.000691256
0.000691256
0.000656816
0.000656816
0.000693928
0.000654149
0.000691256
0.000691256
0.000656816
0.000656816
0.000691256
0.000656816
0.000656816
0.000693928
0.000654149
0.000691256
0.000656816
0.000656816
0.000654149
0.000648008
0.00060823
0.000645336
0.000645336
0.000610897
0.000610897
0.000648007
0.00060823
0.000645336
0.000645336
0.000610897
0.000610897
0.000645336
0.000610897
0.000610897
0.000648008
0.00060823
0.000645336
0.000610897
0.000610897
0.00060823
0.000602089
0.000562312
0.000599417
0.000599417
0.000564979
0.000564979
0.000602089
0.000562312
0.000599417
0.000599417
0.000564979
0.000564979
0.000599418
0.000564979
0.000564979
0.000602089
0.000562312
0.000599417
0.000564979
0.000564979
0.000562312
0.000556171
0.000516395
0.000553499
0.000553499
0.000519062
0.000519062
0.000556171
0.000516395
0.000553499
0.0005535
0.000519062
0.000519062
0.0005535
0.000519062
0.000519062
0.000556171
0.000516395
0.000553499
0.000519062
0.000519062
0.000516395
0.000510254
0.000470479
0.000507582
0.000507582
0.000473146
0.000473146
0.000510254
0.000470479
0.000507582
0.000507582
0.000473146
0.000473146
0.000507583
0.000473146
0.000473146
0.000510254
0.000470479
0.000507582
0.000473146
0.000473146
0.000470479
0.000464338
0.000424565
0.000461667
0.000461667
0.000427231
0.000427231
0.000464338
0.000424565
0.000461667
0.000461667
0.000427231
0.000427231
0.000461667
0.000427231
0.000427231
0.000464338
0.000424565
0.000461667
0.000427231
0.000427231
0.000424565
0.000418424
0.000378652
0.000415753
0.000415753
0.000381319
0.000381319
0.000418424
0.000378652
0.000415753
0.000415753
0.000381318
0.000381318
0.000415753
0.000381319
0.000381319
0.000418424
0.000378652
0.000415753
0.000381319
0.000381319
0.000378652
0.000372512
0.000332741
0.000369841
0.000369841
0.000335407
0.000335407
0.000372512
0.000332741
0.00036984
0.00036984
0.000335407
0.000335407
0.000369841
0.000335408
0.000335408
0.000372512
0.000332741
0.000369841
0.000335407
0.000335407
0.000332741
0.000326601
0.000286831
0.00032393
0.00032393
0.000289498
0.000289497
0.000326601
0.000286831
0.00032393
0.00032393
0.000289497
0.000289497
0.00032393
0.000289498
0.000289498
0.000326601
0.000286831
0.00032393
0.000289497
0.000289497
0.000286831
0.000280691
0.000240923
0.00027802
0.00027802
0.000243589
0.000243589
0.000280691
0.000240923
0.00027802
0.00027802
0.000243589
0.000243589
0.00027802
0.000243589
0.000243589
0.000280691
0.000240923
0.00027802
0.000243589
0.000243589
0.000240923
0.000234783
0.000195015
0.000232112
0.000232112
0.000197681
0.000197681
0.000234783
0.000195016
0.000232112
0.000232112
0.000197681
0.000197681
0.000232112
0.000197681
0.000197681
0.000234783
0.000195015
0.000232112
0.000197681
0.000197681
0.000195015
0.000188875
0.000149104
0.000186204
0.000186204
0.000151771
0.000151771
0.000188875
0.000149104
0.000186204
0.000186204
0.000151771
0.000151771
0.000186204
0.000151771
0.000151771
0.000188876
0.000149104
0.000186204
0.000151771
0.000151771
0.000149104
0.000142963
0.000103183
0.000140295
0.000140295
0.000105866
0.000105866
0.000142963
0.000103184
0.000140295
0.000140295
0.000105866
0.000105866
0.000140295
0.000105866
0.000105865
0.000142963
0.000103183
0.000140295
0.000105866
0.000105866
0.000103183
9.69979e-05
5.7316e-05
9.43682e-05
9.43676e-05
5.99138e-05
5.99139e-05
9.69976e-05
5.7317e-05
9.43669e-05
9.43672e-05
5.99122e-05
5.99119e-05
9.43666e-05
5.99128e-05
5.9911e-05
9.69981e-05
5.73145e-05
9.4367e-05
5.99114e-05
5.99091e-05
5.7313e-05
5.11316e-05
1.54003e-05
4.86047e-05
4.86042e-05
1.77253e-05
1.77242e-05
5.11317e-05
1.54001e-05
4.86034e-05
4.86021e-05
1.77232e-05
1.77196e-05
4.86009e-05
1.77217e-05
1.77178e-05
5.1129e-05
1.5396e-05
4.8599e-05
1.77201e-05
1.77194e-05
1.53948e-05
1.14377e-05
1.18059e-05
1.18061e-05
1.14388e-05
1.18045e-05
1.18022e-05
1.14364e-05
1.14346e-05
1.1434e-05
1.18009e-05
1.14352e-05
1.18019e-05
0.00435208
0.00436182
0.00435663
0.00435664
0.00437897
0.00436579
0.00439437
0.00435984
0.00437897
0.00436579
0.00435985
0.00439437
0.00437036
0.0043981
0.00439811
0.0043075
0.00432632
0.00433573
0.00429953
0.00430009
0.00430362
0.00430748
0.0043263
0.00433572
0.00429951
0.00433034
0.00433034
0.00433034
0.00428722
0.00428722
0.00428722
0.00428722
0.00430503
0.00433067
0.0043307
0.00431382
0.00433378
0.00430398
0.0043147
0.0043002
0.00430362
0.00430503
0.0043307
0.00433069
0.00431382
0.00433377
0.0043147
0.00430397
0.00433654
0.00433653
0.00430815
0.0043034
0.0043034
0.00426074
0.00427708
0.00428018
0.0042599
0.00427664
0.00425933
0.00426074
0.00427707
0.00428018
0.0042599
0.00427597
0.00427597
0.00427597
0.00423994
0.00423994
0.00423994
0.00423994
0.00426019
0.0042784
0.00427579
0.00426392
0.00427841
0.00426075
0.00426389
0.00427663
0.00425933
0.00426019
0.00427578
0.0042784
0.00426392
0.00427839
0.00426389
0.00426074
0.00427855
0.00427854
0.00426054
0.0042603
0.00426031
0.00421366
0.00423059
0.00423081
0.00421359
0.0042306
0.00421362
0.00421366
0.00423059
0.00423082
0.00421359
0.00422824
0.00422824
0.00422824
0.00419363
0.00419363
0.00419363
0.00419363
0.00421376
0.00423094
0.00422817
0.00421661
0.00423085
0.00421372
0.00421662
0.00423059
0.00421362
0.00421376
0.00422817
0.00423094
0.00421661
0.00423085
0.00421662
0.00421372
0.00423082
0.00423082
0.00421392
0.00421366
0.00421366
0.00416776
0.00418495
0.00418495
0.00416775
0.00418495
0.00416776
0.00416776
0.00418495
0.00418495
0.00416775
0.00418213
0.00418213
0.00418213
0.00414767
0.00414767
0.00414767
0.00414767
0.00416783
0.00418492
0.00418211
0.00417061
0.0041849
0.00416779
0.00417062
0.00418495
0.00416775
0.00416782
0.00418211
0.00418492
0.00417061
0.0041849
0.00417062
0.00416779
0.00418495
0.00418495
0.00416794
0.00416775
0.00416775
0.00412183
0.00413902
0.00413902
0.00412183
0.00413903
0.00412183
0.00412183
0.00413902
0.00413902
0.00412183
0.00413618
0.00413618
0.00413618
0.00410173
0.00410173
0.00410173
0.00410173
0.00412189
0.00413899
0.00413616
0.00412467
0.00413896
0.00412186
0.00412468
0.00413903
0.00412182
0.00412189
0.00413616
0.00413899
0.00412467
0.00413896
0.00412468
0.00412186
0.00413903
0.00413903
0.00412201
0.00412182
0.00412182
0.0040759
0.00409309
0.00409309
0.00407589
0.0040931
0.00407588
0.0040759
0.00409309
0.00409309
0.00407589
0.00409025
0.00409025
0.00409025
0.0040558
0.0040558
0.0040558
0.0040558
0.00407596
0.00409306
0.00409023
0.00407874
0.00409303
0.00407593
0.00407875
0.00409309
0.00407589
0.00407596
0.00409023
0.00409306
0.00407874
0.00409303
0.00407875
0.00407593
0.00409309