/*--------------------------------*- C++ -*----------------------------------*\
| =========                 |                                                 |
| \\      /  F ield         | OpenFOAM: The Open Source CFD Toolbox           |
|  \\    /   O peration     | Version:  2206                                  |
|   \\  /    A nd           | Website:  www.openfoam.com                      |
|    \\/     M anipulation  |                                                 |
\*---------------------------------------------------------------------------*/
FoamFile
{
    version     2.0;
    format      ascii;
    arch        "LSB;label=32;scalar=64";
    class       volScalarField;
    location    "1";
    object      p;
}
// * * * * * * * * * * * * * * * * * * * * * * * * * * * * * * * * * * * * * //

dimensions      [0 2 -2 0 0 0 0];

internalField   nonuniform List<scalar> 
28755
(
0.00616102
0.0061406
0.00614057
0.00627258
0.0062733
0.00625289
0.00625283
0.00638498
0.00638558
0.00636517
0.0063651
0.00649731
0.00649785
0.00647741
0.00647739
0.00660952
0.00661013
0.0065897
0.00658965
0.00672166
0.0067224
0.00670196
0.00670195
0.00683387
0.00683465
0.00681423
0.0068142
0.0069463
0.0069469
0.00692648
0.00692646
0.00705858
0.0070591
0.00703868
0.00703862
0.00717069
0.00717141
0.00715075
0.00715065
0.00728229
0.00723091
0.00724191
0.00724163
0.00737202
0.00714221
0.00737143
0.00737135
0.00744132
0.00595012
0.0061125
0.00611252
0.00595019
0.00611249
0.00611247
0.00611254
0.0061125
0.00595017
0.00611248
0.00611249
0.00595022
0.00627261
0.00606229
0.00614058
0.00614059
0.00622479
0.0062248
0.00627263
0.00606227
0.00614057
0.00614055
0.00622478
0.00622476
0.00614058
0.00622482
0.00622479
0.00627254
0.00606231
0.00614057
0.00622477
0.00622478
0.00606232
0.006385
0.00617447
0.00625287
0.00625288
0.00633708
0.00633709
0.00638507
0.00617446
0.00625286
0.00625282
0.00633708
0.00633701
0.00625286
0.00633711
0.00633705
0.00638495
0.00617437
0.00625285
0.00633702
0.00633704
0.00617446
0.00649736
0.00628676
0.00636515
0.00636516
0.00644934
0.00644935
0.00649738
0.00628671
0.00636515
0.00636509
0.00644934
0.00644931
0.00636511
0.00644935
0.0064493
0.00649733
0.00628673
0.00636511
0.00644932
0.00644931
0.00628672
0.00660954
0.00639915
0.0064774
0.00647741
0.0065616
0.00656162
0.0066096
0.00639913
0.0064774
0.00647737
0.00656161
0.00656157
0.00647737
0.00656163
0.00656159
0.00660949
0.00639915
0.00647738
0.00656159
0.0065616
0.00639918
0.00672173
0.00651148
0.00658967
0.00658969
0.00667387
0.00667388
0.00672176
0.00651147
0.00658968
0.00658964
0.00667388
0.00667386
0.00658967
0.00667389
0.00667388
0.00672169
0.00651155
0.00658967
0.00667387
0.00667388
0.00651162
0.00683398
0.0066237
0.00670194
0.00670194
0.00678613
0.00678614
0.00683399
0.0066237
0.00670194
0.00670193
0.00678613
0.00678612
0.00670194
0.00678616
0.00678613
0.00683391
0.00662371
0.00670194
0.00678614
0.00678614
0.00662377
0.00694628
0.0067359
0.00681421
0.00681422
0.0068984
0.00689841
0.00694631
0.00673588
0.00681421
0.00681419
0.0068984
0.00689838
0.00681421
0.00689843
0.00689841
0.00694631
0.00673587
0.00681422
0.0068984
0.00689841
0.0067359
0.00705855
0.00684811
0.00692645
0.00692647
0.00701058
0.00701061
0.00705861
0.00684812
0.00692645
0.00692644
0.00701058
0.00701055
0.00692647
0.00701063
0.0070106
0.00705855
0.00684808
0.00692647
0.00701057
0.0070106
0.00684812
0.0071707
0.00696028
0.00703863
0.00703865
0.00712271
0.00712275
0.00717076
0.00696031
0.00703863
0.00703859
0.00712272
0.00712267
0.00703864
0.00712278
0.00712273
0.00717065
0.00696032
0.00703864
0.00712269
0.00712273
0.00696037
0.00728234
0.00708687
0.00715067
0.00715073
0.00725068
0.00725075
0.00728241
0.00708697
0.00715068
0.00715063
0.00725061
0.00725062
0.00715069
0.00725072
0.00725065
0.00728224
0.00708683
0.00715069
0.00725056
0.00725059
0.0070869
0.00737212
0.00723554
0.00724191
0.00724199
0.00732662
0.00732671
0.00737218
0.00723565
0.00724171
0.00724188
0.00732672
0.00732661
0.00724184
0.00732678
0.00732677
0.00737202
0.00723555
0.00724165
0.0073268
0.0073269
0.00723572
0.00744118
0.00737123
0.00737133
0.00744132
0.00737125
0.00737123
0.00714232
0.00714226
0.00714234
0.00737138
0.00744119
0.00737143
0.00558442
0.00613295
0.00613297
0.00613294
0.00613294
0.00563733
0.00605639
0.00563111
0.00605661
0.00589409
0.00559868
0.0055986
0.00573077
0.00659943
0.00657793
0.00570769
0.00660743
0.00569673
0.00573074
0.00659937
0.00657783
0.00570768
0.00616104
0.00616101
0.00616101
0.00624523
0.00624524
0.0062452
0.00624522
0.00574956
0.00656354
0.00614088
0.00616867
0.00655769
0.00574338
0.00616895
0.00660734
0.00569667
0.00574954
0.00614084
0.00656346
0.00616864
0.00655761
0.00616893
0.00574334
0.0065922
0.00659215
0.00600627
0.00571092
0.0057109
0.00584293
0.00671179
0.0066903
0.00581987
0.00671984
0.00580889
0.00584283
0.00671171
0.0066902
0.00581983
0.00627332
0.00627326
0.00627329
0.00635751
0.00635753
0.00635745
0.00635748
0.00586166
0.00667593
0.00625318
0.00628097
0.00667004
0.00585551
0.00628124
0.00671974
0.00580882
0.00586164
0.00625314
0.00667588
0.0062809
0.00667
0.0062812
0.00585546
0.00670456
0.00670453
0.00611839
0.00582304
0.00582299
0.00595513
0.00682413
0.00680261
0.00593206
0.00683213
0.00592106
0.00595502
0.00682411
0.00680255
0.00593206
0.0063856
0.00638553
0.00638554
0.00646978
0.00646978
0.00646977
0.00646975
0.00597387
0.00678828
0.00636543
0.00639323
0.00678239
0.00596772
0.00639349
0.00683211
0.00592097
0.00597378
0.0063654
0.00678821
0.00639317
0.00678231
0.00639346
0.00596759
0.00681691
0.00681687
0.00623057
0.00593521
0.00593517
0.00606744
0.00693634
0.00691485
0.00604438
0.00694436
0.00603336
0.00606742
0.00693635
0.00691481
0.00604436
0.00649785
0.00649784
0.00649783
0.00658206
0.00658208
0.00658204
0.00658207
0.00608617
0.00690051
0.00647768
0.00650549
0.00689461
0.00608001
0.00650574
0.0069443
0.00603329
0.00608618
0.00647766
0.00690046
0.00650545
0.00689459
0.00650572
0.00607999
0.00692909
0.00692912
0.00634292
0.00604747
0.00604747
0.00617985
0.00704856
0.00702708
0.00615674
0.00705654
0.00614573
0.00617981
0.0070485
0.00702701
0.00615673
0.00661016
0.00661011
0.00661014
0.00669433
0.00669435
0.00669434
0.00669435
0.00619863
0.00701269
0.00658994
0.00661777
0.00700681
0.00619244
0.00661801
0.00705648
0.00614572
0.00619864
0.00658994
0.00701266
0.00661773
0.0070068
0.00661801
0.00619243
0.00704125
0.00704127
0.00645543
0.00615995
0.00615992
0.00629212
0.00716076
0.00713926
0.00626904
0.00716874
0.00625805
0.00629215
0.00716073
0.00713923
0.00626903
0.00672241
0.0067224
0.0067224
0.00680659
0.0068066
0.00680656
0.00680657
0.00631094
0.00712486
0.00670221
0.00673002
0.00711902
0.00630472
0.00673027
0.00716872
0.00625808
0.00631097
0.00670221
0.00712485
0.00673001
0.00711899
0.00673028
0.00630475
0.0071535
0.00715346
0.00656772
0.00627233
0.00627229
0.00640435
0.00727306
0.00725156
0.00638128
0.00728107
0.0063703
0.00640428
0.007273
0.00725152
0.00638123
0.00683467
0.00683463
0.00683464
0.00691884
0.00691886
0.00691884
0.00691885
0.00642312
0.00723717
0.00681449
0.00684231
0.00723132
0.00641693
0.00684257
0.00728109
0.00637025
0.00642309
0.00681451
0.0072372
0.00684228
0.00723131
0.00684258
0.00641689
0.00726586
0.00726584
0.00667981
0.0063845
0.00638446
0.00651655
0.00738535
0.00736385
0.00649348
0.00739338
0.00648247
0.00651646
0.00738531
0.0073638
0.00649344
0.00694692
0.0069469
0.00694691
0.00703105
0.00703108
0.00703104
0.00703107
0.00653529
0.00734951
0.00692675
0.00695453
0.00734366
0.00652912
0.00695479
0.00739335
0.00648239
0.00653526
0.00692674
0.0073495
0.0069545
0.00734364
0.00695478
0.00652906
0.00737816
0.00737815
0.006792
0.00649661
0.00649656
0.00662871
0.00749749
0.00747601
0.00660564
0.00750549
0.00659464
0.00662864
0.00749746
0.00747591
0.00660564
0.00705914
0.0070591
0.00705913
0.00714333
0.00714338
0.00714331
0.00714336
0.00664748
0.00746167
0.00703895
0.00706672
0.00745579
0.00664134
0.00706701
0.00750541
0.00659455
0.00664747
0.00703892
0.0074616
0.00706666
0.00745576
0.00706697
0.00664126
0.00749024
0.00749023
0.00690425
0.0066088
0.00660878
0.00674221
0.00760876
0.00758734
0.0067194
0.00761672
0.00670854
0.00674213
0.0076087
0.00758722
0.00671932
0.00717147
0.00717137
0.00717142
0.00729075
0.00729084
0.00729064
0.00729072
0.00676073
0.00757297
0.00715122
0.0071786
0.00756725
0.00675493
0.00717953
0.00761661
0.00670842
0.00676063
0.00715117
0.00757283
0.00717847
0.00756715
0.00717947
0.00675479
0.00760144
0.00760137
0.00701694
0.00672267
0.00672257
0.00691827
0.00769304
0.00767168
0.00689391
0.00770085
0.00688459
0.00691821
0.00769288
0.00767153
0.00689386
0.00723097
0.00723083
0.00723084
0.00756985
0.00756994
0.00756987
0.00757
0.00693219
0.00765844
0.0072259
0.00731536
0.00765279
0.00692591
0.00734342
0.00770071
0.00688444
0.00693206
0.0072253
0.00765819
0.00731511
0.00765237
0.00734267
0.00692571
0.00768575
0.0076856
0.0071715
0.00689781
0.00689777
0.00725475
0.00764505
0.00749955
0.00738891
0.0075326
0.00741368
0.00725433
0.00764507
0.00749919
0.00738862
0.00726811
0.0072542
0.00725418
0.00724046
0.00720992
0.00726775
0.0072677
0.00693686
0.00754186
0.00716942
0.00720109
0.00748769
0.00742539
0.00723931
0.00753241
0.00741368
0.00693671
0.0071694
0.00754167
0.00720107
0.00748766
0.00723926
0.00742525
0.00750553
0.00750551
0.00721046
0.00741218
0.00741213
0.00564057
0.00655132
0.00564055
0.00655127
0.00621644
0.00565479
0.00565472
0.00653605
0.00653602
0.00559542
0.00605637
0.00563112
0.00652176
0.00565159
0.00654329
0.0056747
0.00652175
0.00565161
0.00654319
0.0056747
0.00650154
0.00608442
0.00568727
0.00611281
0.00650739
0.00608474
0.00569345
0.00650152
0.00608447
0.00568731
0.0061128
0.0065073
0.00608472
0.00569345
0.00589405
0.00559859
0.00559861
0.0055844
0.0056406
0.00655123
0.00621642
0.00565478
0.00565479
0.00653598
0.006536
0.00564058
0.00655128
0.00652166
0.00565157
0.00654324
0.00567465
0.00650145
0.00608441
0.00568726
0.00611275
0.00650733
0.00608468
0.00569343
0.00652167
0.00565155
0.00654312
0.00567467
0.00650143
0.00608439
0.00611276
0.00568725
0.00608468
0.00650723
0.00569343
0.00561858
0.00559541
0.00563735
0.00605634
0.00605665
0.00563118
0.00561859
0.00559548
0.00650153
0.00608447
0.00568729
0.00611278
0.00650735
0.00608471
0.00569349
0.00652176
0.0056516
0.00654325
0.00567474
0.00650153
0.00608442
0.00611282
0.00568734
0.00608474
0.00650734
0.00569351
0.00652177
0.00565164
0.00654324
0.00567476
0.00564055
0.00655116
0.00621634
0.00565473
0.00565472
0.00653592
0.00653591
0.00564051
0.00655118
0.00650142
0.0060844
0.00611275
0.00568722
0.00608466
0.00650726
0.00569344
0.00650142
0.00608441
0.00611277
0.00568732
0.00608468
0.00650725
0.00569346
0.00652165
0.00565153
0.00654314
0.00567468
0.00652164
0.00565164
0.00654315
0.0056747
0.00558447
0.00558444
0.00621634
0.00565484
0.00565479
0.00653602
0.00653592
0.00564063
0.00655128
0.00564062
0.00655118
0.00660747
0.00569667
0.00660741
0.00569666
0.0065922
0.00659215
0.00600621
0.00571089
0.00571083
0.00575275
0.00666364
0.00575272
0.00666357
0.0063288
0.00576697
0.0057669
0.00664836
0.0066483
0.00573078
0.00659938
0.00657792
0.00570775
0.00574953
0.00656353
0.00614089
0.00616864
0.0065577
0.00574337
0.00616897
0.00574955
0.00656348
0.00614089
0.00616866
0.00655768
0.00574343
0.00616896
0.0066341
0.00576377
0.00665559
0.00578684
0.00663409
0.00576384
0.00665558
0.00578684
0.00661387
0.00619672
0.00579945
0.00622512
0.0066197
0.00619704
0.00580561
0.00661386
0.00619673
0.0057995
0.00622512
0.00661968
0.00619705
0.00580563
0.00659218
0.00659219
0.00600623
0.00571091
0.0057109
0.00660748
0.00569668
0.00575281
0.00666364
0.00632886
0.00576699
0.00576696
0.00664839
0.00664838
0.00575274
0.00666368
0.00574953
0.00656346
0.00614083
0.00616863
0.00655761
0.00574336
0.0061689
0.00573077
0.00659929
0.00657784
0.00570767
0.00574954
0.00614084
0.0065634
0.00616861
0.00655759
0.00616892
0.00574337
0.006634
0.00576374
0.00665552
0.00578682
0.00661376
0.00619671
0.00579942
0.00622505
0.00661962
0.00619698
0.0058056
0.00663402
0.00576377
0.00665548
0.00578683
0.00661376
0.00619668
0.00622508
0.00579945
0.006197
0.00661958
0.00580561
0.0057308
0.00659944
0.00657793
0.0057077
0.00574958
0.00614091
0.00656352
0.00616865
0.00655769
0.00616898
0.00574341
0.00573082
0.00659941
0.00657793
0.00570772
0.00661387
0.00619674
0.00579944
0.0062251
0.00661973
0.00619703
0.0058056
0.00663409
0.00576377
0.00665563
0.00578681
0.00661386
0.00619672
0.00622512
0.00579945
0.00619705
0.0066197
0.00580561
0.00663411
0.00576377
0.00665558
0.00578683
0.0065921
0.00659211
0.00600626
0.00571085
0.00571087
0.00660739
0.00569665
0.00575275
0.00666353
0.00632875
0.00576693
0.00576696
0.00664828
0.00664834
0.00575274
0.00666362
0.00574956
0.00614086
0.00656346
0.00616865
0.00655761
0.00616894
0.00574341
0.00573078
0.00659934
0.00657785
0.00570766
0.00573079
0.00659937
0.00657783
0.00570775
0.00661382
0.00619671
0.00622508
0.00579942
0.006197
0.00661968
0.00580561
0.00661381
0.00619672
0.00622507
0.00579946
0.00619701
0.00661966
0.00580561
0.00663406
0.00576375
0.00665556
0.00578684
0.00663403
0.00576379
0.00665556
0.00578683
0.00660747
0.00569671
0.00660741
0.00569673
0.0063288
0.00576698
0.00576695
0.00664838
0.00664836
0.00575276
0.00666365
0.00575277
0.00666361
0.00671985
0.00580885
0.00671977
0.00580881
0.00670457
0.0067045
0.00611837
0.00582307
0.00582299
0.00586494
0.00677604
0.00586491
0.00677599
0.0064412
0.00587915
0.0058791
0.00676076
0.00676072
0.00584293
0.00671179
0.00669026
0.00581992
0.0058617
0.00667591
0.00625319
0.00628094
0.00667006
0.00585554
0.00628127
0.00586171
0.00667589
0.00625319
0.00628095
0.00667005
0.00585558
0.00628126
0.00674647
0.00587597
0.00676798
0.00589902
0.00674646
0.00587599
0.00676794
0.00589902
0.00672623
0.00630901
0.00591163
0.0063374
0.00673209
0.00630934
0.00591781
0.00672622
0.00630903
0.00591166
0.00633739
0.00673206
0.00630933
0.00591781
0.00670458
0.00670458
0.00611836
0.00582307
0.00582305
0.00671988
0.00580882
0.00586496
0.006776
0.00644124
0.00587914
0.00587916
0.00676075
0.00676077
0.00586493
0.00677606
0.00586164
0.00667582
0.00625312
0.00628094
0.00666994
0.0058555
0.00628119
0.00584285
0.00671169
0.00669018
0.00581984
0.00586165
0.00625315
0.00667579
0.00628088
0.00666994
0.00628122
0.00585551
0.00674637
0.00587593
0.00676792
0.00589888
0.00672613
0.00630901
0.00591159
0.00633733
0.00673203
0.00630927
0.00591771
0.00674637
0.00587589
0.00676788
0.00589889
0.00672613
0.00630894
0.00633736
0.00591155
0.0063093
0.00673199
0.00591772
0.00584287
0.00671182
0.00669026
0.00581984
0.00586167
0.00625319
0.00667588
0.00628092
0.00667003
0.00628126
0.00585552
0.00584288
0.00671177
0.00669027
0.00581985
0.00672622
0.00630905
0.00591162
0.00633737
0.00673211
0.00630931
0.00591776
0.00674645
0.00587595
0.00676799
0.00589895
0.00672621
0.00630899
0.0063374
0.00591161
0.00630933
0.00673207
0.00591778
0.00674645
0.00587594
0.00676795
0.00589897
0.00670447
0.00670455
0.00611835
0.005823
0.00582299
0.00671982
0.00580877
0.00586487
0.00677594
0.00644115
0.00587905
0.00587904
0.00676067
0.00676072
0.00586482
0.006776
0.00586165
0.00625314
0.00667584
0.00628091
0.00666998
0.0062812
0.0058555
0.00584286
0.00671176
0.00669024
0.00581979
0.00584286
0.00671173
0.00669021
0.00581983
0.00672615
0.00630896
0.00633733
0.0059115
0.00630927
0.00673204
0.00591769
0.00672614
0.00630898
0.00633733
0.00591157
0.00630926
0.006732
0.0059177
0.00674639
0.00587584
0.00676792
0.00589889
0.00674638
0.00587591
0.00676789
0.00589889
0.00671983
0.00580882
0.00671979
0.00580881
0.00644115
0.00587913
0.00587907
0.00676075
0.0067607
0.00586492
0.00677602
0.00586489
0.00677595
0.00683219
0.00592103
0.00683218
0.00592104
0.0068169
0.00681692
0.00623059
0.00593525
0.00593522
0.00597716
0.00688829
0.00597718
0.00688832
0.00655346
0.00599138
0.00599136
0.006873
0.00687306
0.00595512
0.00682407
0.00680259
0.00593209
0.00597391
0.00678824
0.00636547
0.0063932
0.00678237
0.00596772
0.00639352
0.00597392
0.00678818
0.00636545
0.00639322
0.00678236
0.00596776
0.00639351
0.00685873
0.00598819
0.00688022
0.00601125
0.0068587
0.00598821
0.00688018
0.00601125
0.00683849
0.00642128
0.00602386
0.00644964
0.00684435
0.00642158
0.00603003
0.00683847
0.00642127
0.00602388
0.00644963
0.0068443
0.00642157
0.00603004
0.00681686
0.00681695
0.00623059
0.00593523
0.00593526
0.00683224
0.00592103
0.00597719
0.00688824
0.00655348
0.00599137
0.00599137
0.00687297
0.00687307
0.00597715
0.00688835
0.00597385
0.00678822
0.00636541
0.00639321
0.00678232
0.00596772
0.00639347
0.00595504
0.00682404
0.00680256
0.00593199
0.00597385
0.00636543
0.00678816
0.00639315
0.00678232
0.00639349
0.00596765
0.00685872
0.0059882
0.00688026
0.00601121
0.00683848
0.00642128
0.00602388
0.00644959
0.00684436
0.00642153
0.00603003
0.00685872
0.00598813
0.00688016
0.00601123
0.00683847
0.00642123
0.00644961
0.00602381
0.00642155
0.00684429
0.00603002
0.00595506
0.00682416
0.00680261
0.00593205
0.00597388
0.00636546
0.00678823
0.00639317
0.00678238
0.00639353
0.00596769
0.00595507
0.00682411
0.00680261
0.00593203
0.00683851
0.00642128
0.00602385
0.00644961
0.00684439
0.00642155
0.00603
0.00685875
0.00598818
0.00688028
0.00601119
0.00683849
0.00642123
0.00644964
0.0060238
0.00642158
0.00684434
0.00603
0.00685873
0.00598813
0.00688022
0.0060112
0.00681685
0.00681688
0.00623051
0.00593515
0.00593513
0.00683216
0.00592091
0.0059771
0.00688823
0.00655342
0.00599129
0.00599129
0.00687298
0.00687301
0.00597707
0.00688828
0.0059738
0.0063654
0.00678818
0.00639317
0.0067823
0.00639347
0.00596768
0.00595497
0.00682408
0.00680254
0.00593193
0.00595497
0.00682406
0.00680252
0.00593203
0.00683846
0.00642125
0.00644959
0.00602376
0.00642152
0.00684434
0.00602995
0.00683845
0.00642124
0.00644959
0.00602381
0.00642153
0.00684433
0.00602996
0.0068587
0.00598809
0.0068802
0.00601115
0.00685865
0.00598815
0.00688022
0.00601115
0.00683219
0.005921
0.00683213
0.005921
0.00655343
0.00599131
0.00599131
0.00687301
0.00687301
0.0059771
0.00688829
0.00597713
0.00688828
0.0069444
0.00603336
0.0069444
0.00603334
0.00692911
0.00692914
0.00634296
0.00604757
0.00604752
0.00608953
0.00700052
0.00608951
0.00700047
0.00666564
0.00610375
0.00610368
0.00698524
0.00698521
0.00606743
0.00693629
0.00691483
0.00604438
0.00608622
0.00690046
0.00647771
0.00650548
0.00689461
0.00608005
0.00650577
0.00608622
0.00690042
0.0064777
0.00650548
0.00689459
0.00608005
0.00650576
0.00697098
0.00610055
0.00699247
0.00612365
0.00697095
0.00610056
0.0069924
0.00612364
0.00695074
0.00653354
0.00613623
0.0065619
0.00695658
0.00653384
0.00614242
0.00695072
0.00653355
0.00613624
0.00656188
0.00695653
0.00653382
0.00614241
0.0069291
0.00692917
0.0063429
0.00604754
0.00604753
0.00694446
0.00603331
0.00608954
0.00700046
0.00666568
0.00610372
0.00610372
0.00698521
0.00698525
0.00608951
0.00700055
0.00608622
0.00690045
0.00647765
0.00650547
0.00689457
0.00608004
0.00650571
0.00606744
0.00693625
0.00691482
0.00604431
0.00608622
0.00647766
0.00690037
0.00650544
0.00689456
0.00650573
0.00608001
0.00697091
0.00610053
0.00699241
0.00612362
0.00695065
0.00653354
0.00613622
0.00656184
0.00695652
0.00653378
0.0061424
0.00697091
0.00610052
0.00699233
0.00612363
0.00695064
0.0065335
0.00656187
0.00613621
0.0065338
0.00695644
0.00614241
0.00606737
0.0069364
0.00691483
0.00604434
0.00608618
0.00647769
0.00690042
0.00650544
0.00689459
0.00650575
0.00607996
0.0060674
0.00693629
0.00691484
0.00604428
0.00695071
0.00653356
0.00613622
0.00656187
0.0069566
0.0065338
0.00614239
0.00697092
0.00610054
0.00699249
0.0061236
0.00695069
0.00653352
0.00656189
0.0061362
0.00653382
0.0069565
0.0061424
0.00697093
0.00610051
0.00699237
0.00612362
0.00692905
0.00692913
0.00634297
0.00604747
0.00604751
0.0069444
0.0060333
0.0060895
0.00700038
0.00666557
0.00610368
0.00610373
0.00698512
0.00698525
0.00608952
0.00700051
0.00608617
0.00647765
0.00690043
0.00650545
0.00689457
0.00650571
0.00607998
0.00606739
0.00693634
0.00691483
0.00604432
0.00606738
0.00693631
0.0069148
0.00604431
0.0069507
0.00653352
0.00656186
0.00613622
0.00653379
0.00695657
0.00614241
0.00695068
0.00653353
0.00656184
0.00613621
0.00653377
0.00695649
0.0061424
0.00697094
0.00610054
0.00699246
0.00612363
0.00697092
0.00610053
0.00699237
0.00612363
0.00694436
0.00603326
0.00694437
0.00603329
0.00666558
0.0061037
0.00610369
0.00698516
0.00698519
0.00608949
0.00700043
0.00608952
0.00700043
0.0070566
0.00614572
0.00705655
0.00614572
0.00704133
0.00704129
0.00645532
0.00615993
0.00615989
0.00620188
0.0071127
0.00620189
0.00711267
0.00677785
0.00621609
0.00621606
0.00709742
0.00709741
0.00617985
0.00704849
0.00702704
0.00615675
0.00619861
0.00701267
0.00658997
0.00661774
0.00700684
0.00619242
0.00661803
0.00619861
0.0070126
0.00658995
0.00661775
0.00700681
0.00619244
0.00661802
0.00708317
0.0062129
0.00710465
0.006236
0.00708314
0.00621291
0.00710459
0.00623599
0.00706292
0.00664581
0.00624858
0.00667417
0.00706876
0.00664611
0.00625475
0.0070629
0.00664582
0.0062486
0.00667416
0.00706869
0.00664609
0.00625475
0.00704129
0.00704134
0.00645533
0.0061599
0.00615995
0.00705663
0.00614573
0.0062019
0.00711263
0.00677786
0.00621607
0.00621611
0.00709737
0.00709744
0.00620189
0.00711272
0.00619859
0.00701261
0.00658991
0.00661774
0.00700675
0.00619242
0.00661798
0.00617983
0.00704844
0.007027
0.00615673
0.0061986
0.00658994
0.00701255
0.00661772
0.00700675
0.00661801
0.00619242
0.00708312
0.0062129
0.00710462
0.00623599
0.00706288
0.00664582
0.00624859
0.00667413
0.00706872
0.00664606
0.00625478
0.00708312
0.00621291
0.00710455
0.00623601
0.00706287
0.00664579
0.00667415
0.00624861
0.00664609
0.00706866
0.00625478
0.00617986
0.00704858
0.00702702
0.00615676
0.00619864
0.00658996
0.00701259
0.00661774
0.00700679
0.00661803
0.00619245
0.00617988
0.00704847
0.00702703
0.00615676
0.00706292
0.00664583
0.0062486
0.00667414
0.00706877
0.00664608
0.00625481
0.00708315
0.00621291
0.00710467
0.00623605
0.00706291
0.00664582
0.00667417
0.00624866
0.0066461
0.00706871
0.00625483
0.00708315
0.00621296
0.0071046
0.00623607
0.00704122
0.00704134
0.00645534
0.0061599
0.00615993
0.0070566
0.00614572
0.0062019
0.0071126
0.00677779
0.00621608
0.0062161
0.00709735
0.00709741
0.00620189
0.00711268
0.00619864
0.00658991
0.00701257
0.00661775
0.00700677
0.00661799
0.00619245
0.00617989
0.00704855
0.00702703
0.00615674
0.00617989
0.00704846
0.00702701
0.00615676
0.00706289
0.0066458
0.00667414
0.0062486
0.00664608
0.00706874
0.00625484
0.00706287
0.00664582
0.00667413
0.00624866
0.00664606
0.00706866
0.00625484
0.00708313
0.00621291
0.00710463
0.0062361
0.00708311
0.00621297
0.00710455
0.0062361
0.00705652
0.00614574
0.00705651
0.00614575
0.00677775
0.00621616
0.00621613
0.00709737
0.00709734
0.00620195
0.00711264
0.00620196
0.00711259
0.0071688
0.00625803
0.00716878
0.00625801
0.00715352
0.00715352
0.0065676
0.00627224
0.00627219
0.00631415
0.00722495
0.00631412
0.00722489
0.00689012
0.00632837
0.00632829
0.00720967
0.00720963
0.00629212
0.00716069
0.00713923
0.00626906
0.00631088
0.00712487
0.00670223
0.00673
0.00711902
0.00630472
0.00673031
0.00631088
0.0071248
0.00670222
0.00673001
0.007119
0.00630474
0.00673029
0.0071954
0.00632517
0.0072169
0.00634825
0.00719537
0.0063252
0.00721683
0.00634825
0.00717517
0.00675807
0.00636084
0.00678645
0.00718101
0.00675838
0.00636701
0.00717515
0.00675808
0.00636088
0.00678643
0.00718095
0.00675836
0.00636701
0.00715347
0.00715353
0.00656759
0.00627223
0.00627223
0.00716881
0.00625801
0.00631418
0.00722489
0.00689014
0.00632836
0.00632835
0.00720964
0.00720964
0.00631413
0.00722492
0.00631092
0.00712483
0.0067022
0.00673001
0.00711899
0.00630472
0.00673026
0.00629217
0.00716068
0.00713924
0.00626909
0.00631094
0.00670222
0.00712479
0.00672999
0.00711899
0.0067303
0.00630478
0.00719538
0.00632513
0.00721685
0.00634823
0.00717512
0.00675808
0.00636081
0.0067864
0.00718095
0.00675833
0.006367
0.00719538
0.00632521
0.00721686
0.00634824
0.00717512
0.00675806
0.00678644
0.00636089
0.00675837
0.00718096
0.00636702
0.00629219
0.00716075
0.00713925
0.00626903
0.00631096
0.00670224
0.00712483
0.00673
0.00711901
0.00673032
0.00630482
0.00629221
0.00716072
0.00713925
0.00626914
0.00717514
0.00675809
0.00636084
0.00678642
0.00718098
0.00675834
0.00636704
0.00719538
0.00632515
0.00721687
0.00634829
0.00717514
0.00675806
0.00678647
0.00636092
0.00675839
0.00718099
0.00636707
0.00719537
0.00632525
0.00721689
0.0063483
0.00715347
0.0071535
0.00656769
0.00627226
0.00627226
0.00716877
0.00625805
0.00631419
0.00722491
0.00689009
0.00632837
0.00632837
0.00720965
0.00720967
0.00631415
0.00722494
0.00631097
0.0067022
0.00712478
0.00673001
0.00711898
0.00673028
0.00630481
0.00629223
0.00716073
0.00713923
0.00626906
0.00629222
0.00716068
0.00713922
0.00626913
0.00717513
0.00675808
0.00678643
0.00636084
0.00675836
0.007181
0.00636704
0.00717512
0.00675807
0.00678643
0.0063609
0.00675835
0.00718094
0.00636704
0.00719538
0.00632517
0.00721689
0.00634827
0.00719536
0.00632523
0.00721684
0.00634827
0.00716877
0.00625812
0.00716871
0.00625812
0.00689007
0.00632843
0.00632839
0.00720967
0.00720963
0.00631422
0.00722494
0.00631421
0.00722489
0.00728112
0.00637026
0.00728106
0.00637022
0.00726584
0.00726579
0.00667978
0.00638448
0.0063844
0.00642635
0.00733728
0.00642631
0.00733722
0.00700244
0.00644057
0.00644049
0.00732199
0.00732196
0.00640434
0.00727302
0.00725154
0.00638132
0.00642311
0.00723717
0.00681452
0.00684227
0.00723132
0.00641695
0.00684259
0.00642312
0.00723712
0.0068145
0.00684229
0.00723131
0.00641699
0.00684258
0.00730771
0.00643737
0.00732922
0.00646045
0.00730769
0.00643741
0.00732918
0.00646045
0.00728748
0.00687033
0.00647305
0.00689871
0.00729333
0.00687065
0.00647921
0.00728747
0.00687035
0.00647308
0.0068987
0.0072933
0.00687064
0.00647922
0.00726582
0.00726582
0.0066798
0.00638447
0.00638446
0.00728111
0.00637023
0.00642639
0.00733724
0.00700249
0.00644057
0.00644055
0.00732199
0.007322
0.00642633
0.00733729
0.00642307
0.00723711
0.00681447
0.00684227
0.00723127
0.00641691
0.00684254
0.0064043
0.00727304
0.00725151
0.00638127
0.00642309
0.00681451
0.00723714
0.00684225
0.00723128
0.00684258
0.00641694
0.00730767
0.00643733
0.00732917
0.00646036
0.00728743
0.00687033
0.006473
0.00689865
0.00729328
0.0068706
0.00647917
0.00730768
0.00643733
0.00732917
0.00646039
0.00728744
0.00687031
0.00689868
0.006473
0.00687063
0.00729329
0.00647918
0.00640436
0.00727305
0.00725156
0.00638125
0.00642314
0.00681454
0.00723719
0.00684228
0.00723133
0.00684261
0.00641698
0.00640438
0.00727308
0.00725156
0.00638131
0.0072875
0.00687036
0.00647302
0.0068987
0.00729335
0.00687064
0.00647921
0.00730774
0.00643735
0.00732923
0.00646042
0.0072875
0.00687035
0.00689873
0.00647304
0.00687067
0.00729336
0.00647922
0.00730775
0.00643737
0.00732924
0.00646044
0.00726583
0.00726586
0.00667976
0.00638442
0.00638443
0.00728114
0.00637021
0.00642631
0.00733723
0.00700247
0.00644049
0.0064405
0.00732198
0.00732203
0.00642628
0.00733731
0.0064231
0.0068145
0.00723715
0.00684229
0.0072313
0.00684258
0.00641696
0.00640431
0.00727307
0.00725155
0.00638123
0.00640431
0.00727304
0.00725152
0.0063813
0.0072875
0.00687033
0.00689868
0.00647297
0.00687063
0.00729337
0.00647918
0.00728749
0.00687035
0.00689869
0.00647302
0.00687063
0.00729333
0.00647919
0.00730773
0.0064373
0.00732924
0.00646041
0.00730771
0.00643735
0.00732922
0.0064604
0.00728114
0.00637029
0.0072811
0.00637028
0.00700248
0.00644056
0.00644051
0.00732203
0.00732202
0.00642635
0.00733731
0.00642634
0.00733728
0.0073934
0.00648246
0.00739336
0.00648243
0.00737812
0.0073781
0.00679201
0.00649668
0.0064966
0.00653855
0.0074495
0.00653852
0.00744946
0.00711464
0.00655276
0.00655269
0.00743422
0.0074342
0.00651655
0.00738531
0.00736383
0.00649349
0.00653532
0.00734946
0.00692677
0.0069545
0.00734361
0.00652915
0.00695481
0.00653532
0.00734943
0.00692676
0.00695452
0.0073436
0.00652916
0.0069548
0.00741996
0.00654957
0.00744144
0.00657265
0.00741993
0.00654958
0.0074414
0.00657265
0.00739972
0.00698255
0.00658524
0.00701091
0.00740556
0.00698287
0.00659142
0.0073997
0.00698257
0.00658526
0.0070109
0.00740551
0.00698285
0.00659142
0.00737812
0.00737815
0.00679201
0.00649664
0.00649665
0.00739344
0.00648242
0.00653856
0.00744945
0.00711469
0.00655273
0.00655275
0.00743419
0.00743426
0.00653853
0.00744955
0.00653527
0.00734941
0.00692671
0.00695449
0.00734356
0.00652912
0.00695475
0.00651648
0.00738528
0.00736381
0.0064934
0.00653527
0.00692673
0.0073494
0.00695447
0.00734356
0.00695477
0.00652909
0.00741988
0.00654954
0.00744141
0.00657255
0.00739965
0.00698255
0.00658522
0.00701085
0.00740551
0.00698281
0.00659137
0.00741989
0.00654948
0.00744135
0.00657257
0.00739964
0.00698252
0.00701087
0.00658517
0.00698283
0.00740546
0.00659136
0.00651649
0.00738539
0.00736388
0.00649345
0.00653529
0.00692678
0.00734949
0.00695451
0.00734365
0.00695482
0.00652909
0.00651651
0.00738537
0.00736389
0.00649342
0.00739975
0.00698259
0.00658524
0.00701089
0.00740561
0.00698285
0.00659139
0.00741996
0.00654956
0.0074415
0.00657259
0.00739973
0.00698255
0.00701091
0.00658518
0.00698286
0.00740555
0.00659139
0.00741997
0.00654949
0.00744142
0.00657261
0.00737809
0.00737816
0.00679199
0.00649657
0.00649658
0.00739344
0.00648237
0.00653847
0.0074494
0.00711462
0.00655265
0.00655267
0.00743415
0.00743423
0.00653846
0.00744951
0.00653526
0.00692674
0.00734946
0.00695451
0.00734363
0.00695478
0.00652908
0.00651648
0.00738538
0.00736389
0.00649339
0.00651648
0.00738535
0.00736387
0.00649341
0.00739971
0.00698254
0.00701087
0.00658516
0.00698283
0.00740558
0.00659137
0.0073997
0.00698255
0.00701086
0.00658518
0.00698281
0.00740551
0.00659136
0.00741995
0.00654949
0.00744146
0.00657258
0.00741994
0.0065495
0.0074414
0.00657258
0.00739344
0.0064824
0.0073934
0.00648239
0.00711464
0.00655269
0.00655266
0.00743422
0.0074342
0.00653847
0.00744949
0.00653848
0.00744945
0.00750553
0.00659462
0.0075055
0.00659462
0.00749026
0.00749024
0.00690419
0.00660883
0.00660879
0.00665081
0.00756143
0.00665079
0.0075614
0.0072267
0.00666501
0.00666496
0.00754614
0.00754614
0.00662871
0.00749745
0.00747598
0.00660566
0.00664749
0.0074616