/*--------------------------------*- C++ -*----------------------------------*\
| =========                 |                                                 |
| \\      /  F ield         | OpenFOAM: The Open Source CFD Toolbox           |
|  \\    /   O peration     | Version:  2206                                  |
|   \\  /    A nd           | Website:  www.openfoam.com                      |
|    \\/     M anipulation  |                                                 |
\*---------------------------------------------------------------------------*/
FoamFile
{
    version     2.0;
    format      ascii;
    arch        "LSB;label=32;scalar=64";
    class       volScalarField;
    location    "8.5";
    object      p;
}
// * * * * * * * * * * * * * * * * * * * * * * * * * * * * * * * * * * * * * //

dimensions      [0 2 -2 0 0 0 0];

internalField   nonuniform List<scalar> 
171728
(
0.00432309
0.00432341
0.00432341
0.00432644
0.00426884
0.00426901
0.00426901
0.00427134
0.0042215
0.00422144
0.00422144
0.00422411
0.00417551
0.00417548
0.00417548
0.00417815
0.00412964
0.00412962
0.00412961
0.00413228
0.00408378
0.00408375
0.00408375
0.00408642
0.00403792
0.00403789
0.00403789
0.00404056
0.00399206
0.00399204
0.00399204
0.0039947
0.0039462
0.00394618
0.00394618
0.00394885
0.00390034
0.00390032
0.00390032
0.00390299
0.00385449
0.00385446
0.00385446
0.00385713
0.00380863
0.00380861
0.00380861
0.00381127
0.00376278
0.00376275
0.00376275
0.00376542
0.00371692
0.0037169
0.0037169
0.00371956
0.00367107
0.00367104
0.00367104
0.00367371
0.00362522
0.00362519
0.00362519
0.00362786
0.00357936
0.00357934
0.00357934
0.00358201
0.00353351
0.00353349
0.00353349
0.00353616
0.00348766
0.00348764
0.00348764
0.00349031
0.00344181
0.00344179
0.00344179
0.00344445
0.00339596
0.00339594
0.00339594
0.0033986
0.00335011
0.00335009
0.00335009
0.00335275
0.00330426
0.00330424
0.00330424
0.0033069
0.00325841
0.00325839
0.00325839
0.00326105
0.00321256
0.00321254
0.00321254
0.0032152
0.00316671
0.00316669
0.00316669
0.00316935
0.00312086
0.00312084
0.00312084
0.0031235
0.00307501
0.00307499
0.00307499
0.00307765
0.00302916
0.00302914
0.00302914
0.0030318
0.00298331
0.00298329
0.00298329
0.00298595
0.00293746
0.00293744
0.00293744
0.00294011
0.00289161
0.00289159
0.00289159
0.00289426
0.00284577
0.00284574
0.00284574
0.00284841
0.00279992
0.00279989
0.00279989
0.00280256
0.00275406
0.00275404
0.00275404
0.00275671
0.00270821
0.00270819
0.00270819
0.00271086
0.00266236
0.00266234
0.00266234
0.00266501
0.00261651
0.00261649
0.00261649
0.00261916
0.00257066
0.00257064
0.00257064
0.0025733
0.00252481
0.00252478
0.00252478
0.00252745
0.00247896
0.00247893
0.00247893
0.0024816
0.0024331
0.00243308
0.00243308
0.00243575
0.00238725
0.00238723
0.00238723
0.00238989
0.0023414
0.00234137
0.00234137
0.00234404
0.00229554
0.00229552
0.00229552
0.00229819
0.00224969
0.00224967
0.00224967
0.00225234
0.00220384
0.00220381
0.00220381
0.00220648
0.00215798
0.00215796
0.00215796
0.00216063
0.00211213
0.0021121
0.0021121
0.00211477
0.00206627
0.00206624
0.00206624
0.00206891
0.00202041
0.00202039
0.00202039
0.00202305
0.00197455
0.00197453
0.00197453
0.00197719
0.00192869
0.00192867
0.00192867
0.00193134
0.00188284
0.00188281
0.00188281
0.00188548
0.00183698
0.00183696
0.00183696
0.00183962
0.00179112
0.0017911
0.0017911
0.00179377
0.00174527
0.00174524
0.00174524
0.00174791
0.00169941
0.00169939
0.00169939
0.00170205
0.00165355
0.00165353
0.00165353
0.0016562
0.0016077
0.00160767
0.00160767
0.00161034
0.00156184
0.00156181
0.00156181
0.00156448
0.00151598
0.00151596
0.00151596
0.00151862
0.00147012
0.0014701
0.0014701
0.00147277
0.00142426
0.00142424
0.00142424
0.00142691
0.0013784
0.00137838
0.00137838
0.00138105
0.00133254
0.00133252
0.00133252
0.00133519
0.00128668
0.00128666
0.00128666
0.00128933
0.00124082
0.0012408
0.0012408
0.00124347
0.00119496
0.00119494
0.00119494
0.00119761
0.0011491
0.00114908
0.00114908
0.00115174
0.00110324
0.00110322
0.00110322
0.00110588
0.00105738
0.00105736
0.00105736
0.00106002
0.00101152
0.0010115
0.0010115
0.00101416
0.000965658
0.000965635
0.000965635
0.000968301
0.000919797
0.000919774
0.000919774
0.000922441
0.000873937
0.000873913
0.000873913
0.00087658
0.000828076
0.000828053
0.000828053
0.00083072
0.000782215
0.000782191
0.000782191
0.000784858
0.000736353
0.00073633
0.00073633
0.000738997
0.000690492
0.000690469
0.000690469
0.000693136
0.000644632
0.000644609
0.000644609
0.000647276
0.000598773
0.00059875
0.00059875
0.000601416
0.000552914
0.000552891
0.000552891
0.000555558
0.000507056
0.000507032
0.000507032
0.000509699
0.000461197
0.000461174
0.000461174
0.000463841
0.000415339
0.000415315
0.000415315
0.000417982
0.000369481
0.000369457
0.000369457
0.000372124
0.000323622
0.000323599
0.000323599
0.000326266
0.000277763
0.00027774
0.00027774
0.000280406
0.000231903
0.00023188
0.00023188
0.000234547
0.000186043
0.00018602
0.00018602
0.000188687
0.000140183
0.000140163
0.000140163
0.000142828
9.43234e-05
9.42975e-05
9.42971e-05
9.69261e-05
4.91406e-05
4.85354e-05
4.85325e-05
5.10533e-05
1.148e-05
1.18278e-05
1.18255e-05
1.14606e-05
0.00433638
0.00433661
0.00433661
0.00433638
0.00433661
0.00433661
0.00433734
0.00433734
0.00433734
0.00433734
0.00433661
0.00433661
0.00433638
0.00433661
0.00433661
0.00433638
0.00432644
0.0042781
0.00432341
0.00432341
0.00428016
0.00428016
0.00432644
0.0042781
0.00432341
0.00432341
0.00428015
0.00428016
0.00432341
0.00428015
0.00428016
0.00432644
0.0042781
0.00432341
0.00428015
0.00428015
0.0042781
0.00427135
0.00423025
0.00426902
0.00426902
0.00423306
0.00423306
0.00427135
0.00423024
0.00426901
0.00426901
0.00423306
0.00423306
0.00426901
0.00423306
0.00423306
0.00427134
0.00423024
0.00426901
0.00423306
0.00423306
0.00423024
0.00422412
0.00418428
0.00422144
0.00422144
0.00418695
0.00418695
0.00422411
0.00418428
0.00422144
0.00422144
0.00418695
0.00418695
0.00422144
0.00418695
0.00418695
0.00422411
0.00418428
0.00422144
0.00418695
0.00418695
0.00418428
0.00417815
0.00413842
0.00417548
0.00417548
0.00414108
0.00414108
0.00417815
0.00413842
0.00417548
0.00417548
0.00414108
0.00414108
0.00417548
0.00414108
0.00414108
0.00417815
0.00413842
0.00417548
0.00414108
0.00414108
0.00413842
0.00413228
0.00409256
0.00412962
0.00412962
0.00409522
0.00409522
0.00413228
0.00409256
0.00412962
0.00412962
0.00409522
0.00409522
0.00412962
0.00409522
0.00409522
0.00413228
0.00409256
0.00412962
0.00409522
0.00409522
0.00409256
0.00408642
0.0040467
0.00408375
0.00408375
0.00404936
0.00404936
0.00408642
0.0040467
0.00408375
0.00408375
0.00404936
0.00404936
0.00408375
0.00404936
0.00404936
0.00408642
0.0040467
0.00408375
0.00404936
0.00404936
0.0040467
0.00404056
0.00400084
0.00403789
0.00403789
0.0040035
0.0040035
0.00404056
0.00400084
0.0040379
0.0040379
0.0040035
0.0040035
0.00403789
0.0040035
0.0040035
0.00404056
0.00400084
0.00403789
0.0040035
0.0040035
0.00400084
0.0039947
0.00395498
0.00399204
0.00399204
0.00395764
0.00395764
0.0039947
0.00395498
0.00399204
0.00399204
0.00395764
0.00395764
0.00399204
0.00395764
0.00395764
0.0039947
0.00395498
0.00399204
0.00395764
0.00395764
0.00395498
0.00394885
0.00390912
0.00394618
0.00394618
0.00391179
0.00391179
0.00394884
0.00390912
0.00394618
0.00394618
0.00391179
0.00391179
0.00394618
0.00391179
0.00391179
0.00394885
0.00390912
0.00394618
0.00391179
0.00391179
0.00390912
0.00390299
0.00386327
0.00390032
0.00390032
0.00386593
0.00386593
0.00390299
0.00386327
0.00390032
0.00390032
0.00386593
0.00386593
0.00390032
0.00386593
0.00386593
0.00390299
0.00386327
0.00390032
0.00386593
0.00386593
0.00386327
0.00385713
0.00381741
0.00385446
0.00385446
0.00382007
0.00382007
0.00385713
0.00381741
0.00385446
0.00385446
0.00382007
0.00382007
0.00385446
0.00382007
0.00382007
0.00385713
0.00381741
0.00385446
0.00382007
0.00382007
0.00381741
0.00381127
0.00377155
0.00380861
0.00380861
0.00377422
0.00377422
0.00381127
0.00377155
0.00380861
0.00380861
0.00377422
0.00377422
0.00380861
0.00377422
0.00377422
0.00381127
0.00377155
0.00380861
0.00377422
0.00377422
0.00377155
0.00376542
0.0037257
0.00376275
0.00376275
0.00372836
0.00372836
0.00376542
0.0037257
0.00376275
0.00376275
0.00372836
0.00372836
0.00376275
0.00372836
0.00372836
0.00376542
0.0037257
0.00376275
0.00372836
0.00372836
0.0037257
0.00371956
0.00367985
0.0037169
0.0037169
0.00368251
0.00368251
0.00371956
0.00367985
0.0037169
0.0037169
0.00368251
0.00368251
0.0037169
0.00368251
0.00368251
0.00371956
0.00367985
0.0037169
0.00368251
0.00368251
0.00367985
0.00367371
0.00363399
0.00367104
0.00367105
0.00363666
0.00363666
0.00367371
0.00363399
0.00367104
0.00367104
0.00363666
0.00363666
0.00367104
0.00363666
0.00363666
0.00367371
0.00363399
0.00367104
0.00363666
0.00363666
0.00363399
0.00362786
0.00358814
0.00362519
0.00362519
0.0035908
0.0035908
0.00362786
0.00358814
0.00362519
0.00362519
0.0035908
0.0035908
0.00362519
0.0035908
0.0035908
0.00362786
0.00358814
0.00362519
0.0035908
0.0035908
0.00358814
0.00358201
0.00354229
0.00357934
0.00357934
0.00354495
0.00354495
0.00358201
0.00354229
0.00357934
0.00357934
0.00354495
0.00354495
0.00357934
0.00354495
0.00354495
0.00358201
0.00354229
0.00357934
0.00354495
0.00354495
0.00354229
0.00353616
0.00349644
0.00353349
0.00353349
0.0034991
0.0034991
0.00353616
0.00349644
0.00353349
0.00353349
0.0034991
0.0034991
0.00353349
0.0034991
0.0034991
0.00353616
0.00349644
0.00353349
0.0034991
0.0034991
0.00349644
0.00349031
0.00345059
0.00348764
0.00348764
0.00345325
0.00345325
0.00349031
0.00345059
0.00348764
0.00348764
0.00345325
0.00345325
0.00348764
0.00345325
0.00345325
0.00349031
0.00345059
0.00348764
0.00345325
0.00345325
0.00345059
0.00344445
0.00340474
0.00344179
0.00344179
0.0034074
0.0034074
0.00344445
0.00340474
0.00344179
0.00344179
0.0034074
0.0034074
0.00344179
0.0034074
0.0034074
0.00344445
0.00340474
0.00344179
0.0034074
0.0034074
0.00340474
0.0033986
0.00335889
0.00339594
0.00339594
0.00336155
0.00336155
0.0033986
0.00335889
0.00339594
0.00339594
0.00336155
0.00336155
0.00339594
0.00336155
0.00336155
0.0033986
0.00335889
0.00339594
0.00336155
0.00336155
0.00335889
0.00335275
0.00331304
0.00335009
0.00335009
0.0033157
0.0033157
0.00335275
0.00331304
0.00335009
0.00335009
0.0033157
0.0033157
0.00335009
0.0033157
0.0033157
0.00335275
0.00331304
0.00335009
0.0033157
0.0033157
0.00331304
0.0033069
0.00326719
0.00330424
0.00330424
0.00326985
0.00326985
0.0033069
0.00326719
0.00330424
0.00330424
0.00326985
0.00326985
0.00330424
0.00326985
0.00326985
0.0033069
0.00326719
0.00330424
0.00326985
0.00326985
0.00326719
0.00326105
0.00322134
0.00325839
0.00325839
0.003224
0.003224
0.00326105
0.00322134
0.00325839
0.00325839
0.003224
0.003224
0.00325839
0.003224
0.003224
0.00326105
0.00322134
0.00325839
0.003224
0.003224
0.00322134
0.0032152
0.00317549
0.00321254
0.00321254
0.00317815
0.00317815
0.0032152
0.00317549
0.00321254
0.00321254
0.00317815
0.00317815
0.00321254
0.00317815
0.00317815
0.0032152
0.00317549
0.00321254
0.00317815
0.00317815
0.00317549
0.00316935
0.00312964
0.00316669
0.00316669
0.0031323
0.0031323
0.00316935
0.00312964
0.00316669
0.00316669
0.0031323
0.0031323
0.00316669
0.0031323
0.0031323
0.00316935
0.00312964
0.00316669
0.0031323
0.0031323
0.00312964
0.0031235
0.00308379
0.00312084
0.00312084
0.00308645
0.00308645
0.0031235
0.00308379
0.00312084
0.00312084
0.00308645
0.00308645
0.00312084
0.00308645
0.00308645
0.0031235
0.00308379
0.00312084
0.00308645
0.00308645
0.00308379
0.00307765
0.00303794
0.00307499
0.00307499
0.0030406
0.0030406
0.00307765
0.00303794
0.00307499
0.00307499
0.0030406
0.0030406
0.00307499
0.0030406
0.0030406
0.00307765
0.00303794
0.00307499
0.0030406
0.0030406
0.00303794
0.0030318
0.00299209
0.00302914
0.00302914
0.00299475
0.00299475
0.0030318
0.00299209
0.00302914
0.00302914
0.00299475
0.00299475
0.00302914
0.00299475
0.00299475
0.0030318
0.00299209
0.00302914
0.00299475
0.00299475
0.00299209
0.00298595
0.00294624
0.00298329
0.00298329
0.0029489
0.0029489
0.00298595
0.00294624
0.00298329
0.00298329
0.0029489
0.0029489
0.00298329
0.0029489
0.0029489
0.00298595
0.00294624
0.00298329
0.0029489
0.0029489
0.00294624
0.00294011
0.00290039
0.00293744
0.00293744
0.00290305
0.00290305
0.00294011
0.00290039
0.00293744
0.00293744
0.00290305
0.00290305
0.00293744
0.00290305
0.00290305
0.00294011
0.00290039
0.00293744
0.00290305
0.00290305
0.00290039
0.00289426
0.00285454
0.00289159
0.00289159
0.0028572
0.0028572
0.00289426
0.00285454
0.00289159
0.00289159
0.0028572
0.0028572
0.00289159
0.0028572
0.0028572
0.00289426
0.00285454
0.00289159
0.0028572
0.0028572
0.00285454
0.00284841
0.00280869
0.00284574
0.00284574
0.00281135
0.00281135
0.00284841
0.00280869
0.00284574
0.00284574
0.00281135
0.00281135
0.00284574
0.00281135
0.00281135
0.00284841
0.00280869
0.00284574
0.00281135
0.00281135
0.00280869
0.00280256
0.00276284
0.00279989
0.00279989
0.0027655
0.0027655
0.00280256
0.00276284
0.00279989
0.00279989
0.0027655
0.0027655
0.00279989
0.0027655
0.0027655
0.00280256
0.00276284
0.00279989
0.0027655
0.0027655
0.00276284
0.00275671
0.00271699
0.00275404
0.00275404
0.00271965
0.00271965
0.00275671
0.00271699
0.00275404
0.00275404
0.00271965
0.00271965
0.00275404
0.00271965
0.00271965
0.00275671
0.00271699
0.00275404
0.00271965
0.00271965
0.00271699
0.00271086
0.00267114
0.00270819
0.00270819
0.0026738
0.0026738
0.00271086
0.00267114
0.00270819
0.00270819
0.0026738
0.0026738
0.00270819
0.0026738
0.0026738
0.00271086
0.00267114
0.00270819
0.0026738
0.0026738
0.00267114
0.00266501
0.00262529
0.00266234
0.00266234
0.00262795
0.00262795
0.00266501
0.00262529
0.00266234
0.00266234
0.00262795
0.00262795
0.00266234
0.00262795
0.00262795
0.00266501
0.00262529
0.00266234
0.00262795
0.00262795
0.00262529
0.00261916
0.00257944
0.00261649
0.00261649
0.0025821
0.0025821
0.00261916
0.00257944
0.00261649
0.00261649
0.0025821
0.0025821
0.00261649
0.0025821
0.0025821
0.00261916
0.00257944
0.00261649
0.0025821
0.0025821
0.00257944
0.0025733
0.00253359
0.00257064
0.00257064
0.00253625
0.00253625
0.0025733
0.00253359
0.00257064
0.00257064
0.00253625
0.00253625
0.00257064
0.00253625
0.00253625
0.0025733
0.00253359
0.00257064
0.00253625
0.00253625
0.00253359
0.00252745
0.00248774
0.00252479
0.00252478
0.0024904
0.0024904
0.00252745
0.00248774
0.00252478
0.00252478
0.0024904
0.0024904
0.00252478
0.0024904
0.0024904
0.00252745
0.00248774
0.00252479
0.0024904
0.0024904
0.00248773
0.0024816
0.00244188
0.00247893
0.00247893
0.00244454
0.00244454
0.0024816
0.00244188
0.00247893
0.00247893
0.00244454
0.00244454
0.00247893
0.00244454
0.00244454
0.0024816
0.00244188
0.00247893
0.00244454
0.00244454
0.00244188
0.00243575
0.00239603
0.00243308
0.00243308
0.00239869
0.00239869
0.00243575
0.00239603
0.00243308
0.00243308
0.00239869
0.00239869
0.00243308
0.00239869
0.00239869
0.00243575
0.00239603
0.00243308
0.00239869
0.00239869
0.00239603
0.00238989
0.00235018
0.00238723
0.00238723
0.00235284
0.00235284
0.00238989
0.00235018
0.00238723
0.00238723
0.00235284
0.00235284
0.00238723
0.00235284
0.00235284
0.00238989
0.00235018
0.00238723
0.00235284
0.00235284
0.00235018
0.00234404
0.00230432
0.00234137
0.00234137
0.00230698
0.00230698
0.00234404
0.00230432
0.00234137
0.00234137
0.00230698
0.00230698
0.00234137
0.00230698
0.00230698
0.00234404
0.00230432
0.00234137
0.00230698
0.00230698
0.00230432
0.00229819
0.00225847
0.00229552
0.00229552
0.00226113
0.00226113
0.00229819
0.00225847
0.00229552
0.00229552
0.00226113
0.00226113
0.00229552
0.00226113
0.00226113
0.00229819
0.00225847
0.00229552
0.00226113
0.00226113
0.00225847
0.00225234
0.00221262
0.00224967
0.00224967
0.00221528
0.00221528
0.00225233
0.00221262
0.00224967
0.00224967
0.00221528
0.00221528
0.00224967
0.00221528
0.00221528
0.00225234
0.00221262
0.00224967
0.00221528
0.00221528
0.00221262
0.00220648
0.00216676
0.00220381
0.00220381
0.00216942
0.00216942
0.00220648
0.00216676
0.00220381
0.00220381
0.00216942
0.00216942
0.00220381
0.00216942
0.00216942
0.00220648
0.00216676
0.00220381
0.00216942
0.00216942
0.00216676
0.00216063
0.00212091
0.00215796
0.00215796
0.00212357
0.00212357
0.00216063
0.00212091
0.00215796
0.00215796
0.00212357
0.00212357
0.00215796
0.00212357
0.00212357
0.00216063
0.00212091
0.00215796
0.00212357
0.00212357
0.00212091
0.00211477
0.00207505
0.0021121
0.0021121
0.00207771
0.00207771
0.00211477
0.00207505
0.0021121
0.0021121
0.00207771
0.00207771
0.0021121
0.00207771
0.00207771
0.00211477
0.00207505
0.0021121
0.00207771
0.00207771
0.00207505
0.00206891
0.00202919
0.00206624
0.00206624
0.00203185
0.00203185
0.00206891
0.00202919
0.00206624
0.00206624
0.00203185
0.00203185
0.00206624
0.00203185
0.00203185
0.00206891
0.00202919
0.00206624
0.00203185
0.00203185
0.00202919
0.00202305
0.00198333
0.00202039
0.00202039
0.00198599
0.00198599
0.00202305
0.00198333
0.00202039
0.00202039
0.00198599
0.00198599
0.00202039
0.00198599
0.00198599
0.00202305
0.00198333
0.00202039
0.00198599
0.00198599
0.00198333
0.00197719
0.00193747
0.00197453
0.00197453
0.00194013
0.00194013
0.00197719
0.00193747
0.00197453
0.00197453
0.00194013
0.00194013
0.00197453
0.00194013
0.00194013
0.00197719
0.00193747
0.00197453
0.00194013
0.00194013
0.00193747
0.00193134
0.00189162
0.00192867
0.00192867
0.00189428
0.00189428
0.00193134
0.00189162
0.00192867
0.00192867
0.00189428
0.00189428
0.00192867
0.00189428
0.00189428
0.00193134
0.00189162
0.00192867
0.00189428
0.00189428
0.00189162
0.00188548
0.00184576
0.00188281
0.00188281
0.00184842
0.00184842
0.00188548
0.00184576
0.00188281
0.00188281
0.00184842
0.00184842
0.00188281
0.00184842
0.00184842
0.00188548
0.00184576
0.00188281
0.00184842
0.00184842
0.00184576
0.00183962
0.0017999
0.00183696
0.00183696
0.00180256
0.00180256
0.00183962
0.0017999
0.00183696
0.00183696
0.00180256
0.00180256
0.00183696
0.00180256
0.00180256
0.00183962
0.0017999
0.00183696
0.00180256
0.00180256
0.0017999
0.00179377
0.00175405
0.0017911
0.0017911
0.00175671
0.00175671
0.00179377
0.00175405
0.0017911
0.0017911
0.00175671
0.00175671
0.0017911
0.00175671
0.00175671
0.00179376
0.00175405
0.0017911
0.00175671
0.00175671
0.00175405
0.00174791
0.00170819
0.00174524
0.00174524
0.00171085
0.00171085
0.00174791
0.00170819
0.00174524
0.00174524
0.00171085
0.00171085
0.00174524
0.00171085
0.00171085
0.00174791
0.00170819
0.00174524
0.00171085
0.00171085
0.00170819
0.00170205
0.00166233
0.00169939
0.00169939
0.00166499
0.00166499
0.00170205
0.00166233
0.00169939
0.00169939
0.00166499
0.00166499
0.00169939
0.00166499
0.00166499
0.00170205
0.00166233
0.00169939
0.00166499
0.00166499
0.00166233
0.0016562
0.00161647
0.00165353
0.00165353
0.00161914
0.00161914
0.0016562
0.00161648
0.00165353
0.00165353
0.00161914
0.00161914
0.00165353
0.00161914
0.00161914
0.0016562
0.00161647
0.00165353
0.00161914
0.00161914
0.00161647
0.00161034
0.00157062
0.00160767
0.00160767
0.00157328
0.00157328
0.00161034
0.00157062
0.00160767
0.00160767
0.00157328
0.00157328
0.00160767
0.00157328
0.00157328
0.00161034
0.00157062
0.00160767
0.00157328
0.00157328
0.00157062
0.00156448
0.00152476
0.00156181
0.00156181
0.00152742
0.00152742
0.00156448
0.00152476
0.00156181
0.00156181
0.00152742
0.00152742
0.00156181
0.00152742
0.00152742
0.00156448
0.00152476
0.00156181
0.00152742
0.00152742
0.00152476
0.00151862
0.0014789
0.00151596
0.00151596
0.00148156
0.00148156
0.00151862
0.0014789
0.00151596
0.00151596
0.00148156
0.00148156
0.00151596
0.00148156
0.00148156
0.00151862
0.0014789
0.00151596
0.00148156
0.00148156
0.0014789
0.00147277
0.00143304
0.0014701
0.0014701
0.0014357
0.0014357
0.00147277
0.00143304
0.0014701
0.0014701
0.0014357
0.0014357
0.0014701
0.0014357
0.0014357
0.00147277
0.00143304
0.0014701
0.0014357
0.0014357
0.00143304
0.00142691
0.00138718
0.00142424
0.00142424
0.00138985
0.00138985
0.00142691
0.00138718
0.00142424
0.00142424
0.00138985
0.00138985
0.00142424
0.00138985
0.00138985
0.00142691
0.00138718
0.00142424
0.00138985
0.00138985
0.00138718
0.00138105
0.00134132
0.00137838
0.00137838
0.00134399
0.00134399
0.00138105
0.00134132
0.00137838
0.00137838
0.00134399
0.00134399
0.00137838
0.00134399
0.00134399
0.00138105
0.00134132
0.00137838
0.00134399
0.00134399
0.00134132
0.00133519
0.00129546
0.00133252
0.00133252
0.00129813
0.00129812
0.00133519
0.00129546
0.00133252
0.00133252
0.00129812
0.00129812
0.00133252
0.00129812
0.00129813
0.00133519
0.00129546
0.00133252
0.00129812
0.00129812
0.00129546
0.00128933
0.0012496
0.00128666
0.00128666
0.00125226
0.00125226
0.00128933
0.0012496
0.00128666
0.00128666
0.00125226
0.00125226
0.00128666
0.00125226
0.00125226
0.00128933
0.0012496
0.00128666
0.00125226
0.00125226
0.0012496
0.00124347
0.00120374
0.0012408
0.0012408
0.0012064
0.0012064
0.00124347
0.00120374
0.0012408
0.0012408
0.0012064
0.0012064
0.0012408
0.0012064
0.0012064
0.00124347
0.00120374
0.0012408
0.0012064
0.0012064
0.00120374
0.00119761
0.00115788
0.00119494
0.00119494
0.00116054
0.00116054
0.00119761
0.00115788
0.00119494
0.00119494
0.00116054
0.00116054
0.00119494
0.00116054
0.00116054
0.00119761
0.00115788
0.00119494
0.00116054
0.00116054
0.00115788
0.00115174
0.00111202
0.00114908
0.00114908
0.00111468
0.00111468
0.00115174
0.00111202
0.00114908
0.00114908
0.00111468
0.00111468
0.00114908
0.00111468
0.00111468
0.00115174
0.00111202
0.00114908
0.00111468
0.00111468
0.00111202
0.00110588
0.00106616
0.00110322
0.00110322
0.00106882
0.00106882
0.00110588
0.00106616
0.00110322
0.00110322
0.00106882
0.00106882
0.00110322
0.00106882
0.00106882
0.00110588
0.00106616
0.00110322
0.00106882
0.00106882
0.00106616
0.00106002
0.0010203
0.00105736
0.00105736
0.00102296
0.00102296
0.00106002
0.0010203
0.00105736
0.00105736
0.00102296
0.00102296
0.00105736
0.00102296
0.00102296
0.00106002
0.0010203
0.00105736
0.00102296
0.00102296
0.0010203
0.00101416
0.000974438
0.0010115
0.0010115
0.0009771
0.0009771
0.00101416
0.000974439
0.0010115
0.0010115
0.0009771
0.0009771
0.0010115
0.0009771
0.0009771
0.00101416
0.000974438
0.0010115
0.0009771
0.0009771
0.000974438
0.000968301
0.000928577
0.000965635
0.000965635
0.000931239
0.000931239
0.000968301
0.000928578
0.000965635
0.000965635
0.000931239
0.000931239
0.000965635
0.000931239
0.000931239
0.000968301
0.000928577
0.000965634
0.000931239
0.000931239
0.000928578
0.000922441
0.000882717
0.000919774
0.000919774
0.000885378
0.000885378
0.00092244
0.000882717
0.000919774
0.000919774
0.000885378
0.000885378
0.000919774
0.000885378
0.000885379
0.000922441
0.000882717
0.000919774
0.000885378
0.000885378
0.000882717
0.00087658
0.000836856
0.000873913
0.000873913
0.000839518
0.000839518
0.00087658
0.000836857
0.000873913
0.000873913
0.000839518
0.000839518
0.000873913
0.000839518
0.000839518
0.00087658
0.000836856
0.000873913
0.000839518
0.000839518
0.000836856
0.000830719
0.000790995
0.000828053
0.000828053
0.000793657
0.000793657
0.000830719
0.000790995
0.000828053
0.000828053
0.000793657
0.000793657
0.000828053
0.000793657
0.000793657
0.000830719
0.000790995
0.000828053
0.000793657
0.000793657
0.000790995
0.000784858
0.000745134
0.000782191
0.000782191
0.000747795
0.000747795
0.000784858
0.000745134
0.000782191
0.000782191
0.000747795
0.000747795
0.000782191
0.000747795
0.000747795
0.000784858
0.000745134
0.000782191
0.000747795
0.000747795
0.000745134
0.000738997
0.000699272
0.00073633
0.00073633
0.000701934
0.000701934
0.000738997
0.000699273
0.00073633
0.00073633
0.000701934
0.000701934
0.00073633
0.000701934
0.000701934
0.000738997
0.000699272
0.00073633
0.000701934
0.000701934
0.000699272
0.000693135
0.000653412
0.000690469
0.000690469
0.000656074
0.000656074
0.000693135
0.000653412
0.000690469
0.000690469
0.000656074
0.000656074
0.000690469
0.000656074
0.000656074
0.000693135
0.000653412
0.000690469
0.000656074
0.000656074
0.000653412
0.000647275
0.000607553
0.000644609
0.000644609
0.000610214
0.000610214
0.000647275
0.000607553
0.000644609
0.000644609
0.000610214
0.000610214
0.000644609
0.000610214
0.000610215
0.000647275
0.000607553
0.000644609
0.000610214
0.000610214
0.000607553
0.000601416
0.000561694
0.00059875
0.00059875
0.000564356
0.000564356
0.000601416
0.000561694
0.00059875
0.00059875
0.000564356
0.000564356
0.00059875
0.000564356
0.000564356
0.000601416
0.000561694
0.00059875
0.000564356
0.000564356
0.000561694
0.000555558
0.000515835
0.000552891
0.000552891
0.000518497
0.000518497
0.000555557
0.000515836
0.000552891
0.000552891
0.000518497
0.000518497
0.000552891
0.000518497
0.000518497
0.000555558
0.000515835
0.000552891
0.000518497
0.000518497
0.000515835
0.000509699
0.000469977
0.000507032
0.000507032
0.000472639
0.000472638
0.000509699
0.000469977
0.000507032
0.000507032
0.000472638
0.000472638
0.000507032
0.000472638
0.000472639
0.000509699
0.000469977
0.000507032
0.000472638
0.000472638
0.000469977
0.00046384
0.000424119
0.000461174
0.000461174
0.00042678
0.00042678
0.00046384
0.000424119
0.000461174
0.000461174
0.00042678
0.00042678
0.000461174
0.00042678
0.00042678
0.00046384
0.000424119
0.000461174
0.00042678
0.00042678
0.000424119
0.000417982
0.00037826
0.000415315
0.000415315
0.000380922
0.000380922
0.000417982
0.000378261
0.000415315
0.000415315
0.000380922
0.000380922
0.000415316
0.000380922
0.000380922
0.000417982
0.00037826
0.000415315
0.000380922
0.000380922
0.00037826
0.000372124
0.000332402
0.000369457
0.000369457
0.000335064
0.000335063
0.000372124
0.000332402
0.000369457
0.000369457
0.000335063
0.000335063
0.000369457
0.000335064
0.000335064
0.000372124
0.000332402
0.000369457
0.000335063
0.000335063
0.000332402
0.000326265
0.000286543
0.000323599
0.000323599
0.000289204
0.000289204
0.000326265
0.000286543
0.000323599
0.000323599
0.000289204
0.000289204
0.000323599
0.000289204
0.000289205
0.000326266
0.000286543
0.000323599
0.000289204
0.000289204
0.000286543
0.000280406
0.000240683
0.00027774
0.000277739
0.000243345
0.000243345
0.000280406
0.000240684
0.000277739
0.00027774
0.000243345
0.000243345
0.00027774
0.000243345
0.000243345
0.000280406
0.000240683
0.000277739
0.000243345
0.000243345
0.000240684
0.000234547
0.000194824
0.00023188
0.00023188
0.000197485
0.000197485
0.000234547
0.000194824
0.00023188
0.00023188
0.000197485
0.000197485
0.00023188
0.000197485
0.000197485
0.000234547
0.000194823
0.00023188
0.000197485
0.000197485
0.000194824
0.000188687
0.000148965
0.00018602
0.00018602
0.000151627
0.000151627
0.000188687
0.000148965
0.00018602
0.00018602
0.000151626
0.000151626
0.00018602
0.000151627
0.000151627
0.000188687
0.000148965
0.00018602
0.000151626
0.000151627
0.000148965
0.000142828
0.0001031
0.000140163
0.000140163
0.000105778
0.000105777
0.000142828
0.0001031
0.000140163
0.000140163
0.000105778
0.000105777
0.000140163
0.000105777
0.000105777
0.000142828
0.000103099
0.000140163
0.000105777
0.000105777
0.000103099
9.69269e-05
5.72786e-05
9.42985e-05
9.42984e-05
5.98549e-05
5.98553e-05
9.69268e-05
5.72792e-05
9.42971e-05
9.42969e-05
5.98524e-05
5.98513e-05
9.42973e-05
5.98535e-05
5.98519e-05
9.69268e-05
5.72764e-05
9.42974e-05
5.98514e-05
5.98503e-05
5.72753e-05
5.10574e-05
1.53917e-05
4.85376e-05
4.85371e-05
1.76771e-05
1.76762e-05
5.10574e-05
1.53919e-05
4.85355e-05
4.85335e-05
1.76751e-05
1.76709e-05
4.85333e-05
1.76738e-05
1.76695e-05
5.10542e-05
1.53869e-05
4.85321e-05
1.76715e-05
1.76715e-05
1.53864e-05
1.14641e-05
1.18288e-05
1.18292e-05
1.14656e-05
1.18274e-05
1.18247e-05
1.14799e-05
1.14779e-05
1.14774e-05
1.18239e-05
1.14612e-05
1.18249e-05
0.00434477
0.00435451
0.00434932
0.00434933
0.00437166
0.00435848
0.00438705
0.00435254
0.00437166
0.00435848
0.00435254
0.00438705
0.00436304
0.00439079
0.00439079
0.00430015
0.00431895
0.00432844
0.00429218
0.00429272
0.00429638
0.00430013
0.00431893
0.00432844
0.00429217
0.00432309
0.0043231
0.0043231
0.00428007
0.00428007
0.00428007
0.00428007
0.00429772
0.00432333
0.00432346
0.00430644
0.00432647
0.00429663
0.00430736
0.00429282
0.00429637
0.00429773
0.00432347
0.00432335
0.00430644
0.00432647
0.00430736
0.00429663
0.00432918
0.00432917
0.00430083
0.00429598
0.00429597
0.00425366
0.00426939
0.00427238
0.00425292
0.00426892
0.00425252
0.00425366
0.00426938
0.00427237
0.00425291
0.00426884
0.00426884
0.00426884
0.00423314
0.00423314
0.00423314
0.00423314
0.00425331
0.00427086
0.00426873
0.0042569
0.00427098
0.00425381
0.00425686
0.00426891
0.00425251
0.00425331
0.00426873
0.00427085
0.0042569
0.00427098
0.00425685
0.00425381
0.00427068
0.00427068
0.00425362
0.00425336
0.00425337
0.004207
0.00422398
0.00422414
0.00420696
0.004224
0.00420698
0.004207
0.00422398
0.00422414
0.00420695
0.0042215
0.0042215
0.0042215
0.00418699
0.00418699
0.00418699
0.00418699
0.00420709
0.00422421
0.00422144
0.00420992
0.00422415
0.00420705
0.00420993
0.004224
0.00420698
0.00420709
0.00422144
0.00422421
0.00420992
0.00422415
0.00420993
0.00420705
0.00422415
0.00422414
0.00420724
0.004207
0.004207
0.00416117
0.00417833
0.00417833
0.00416117
0.00417833
0.00416116
0.00416117
0.00417833
0.00417833
0.00416117
0.00417551
0.00417551
0.00417551
0.00414111
0.00414111
0.00414111
0.00414111
0.00416123
0.0041783
0.00417549
0.00416401
0.00417828
0.0041612
0.00416402
0.00417833
0.00416116
0.00416123
0.00417549
0.0041783
0.00416401
0.00417828
0.00416402
0.0041612
0.00417834
0.00417834
0.00416135
0.00416116
0.00416116
0.00411531
0.00413248
0.00413248
0.00411531
0.00413248
0.00411531
0.00411531
0.00413248
0.00413248
0.00411531
0.00412964
0.00412964
0.00412964
0.00409524
0.00409524
0.00409524
0.00409524
0.00411537
0.00413244
0.00412962
0.00411815
0.00413242
0.00411534
0.00411816
0.00413248
0.00411531
0.00411537
0.00412962
0.00413244
0.00411815
0.00413242
0.00411816
0.00411534
0.00413248
0.00413248
0.00411549
0.00411531
0.00411531
0.00406945
0.00408662
0.00408662
0.00406945
0.00408663
0.00406944
0.00406945
0.00408662
0.00408662
0.00406945
0.00408378
0.00408378
0.00408378
0.00404938
0.00404938
0.00404938
0.00404938
0.00406951
0.00408658
0.00408376
0.00407229
0.00408656
0.00406948
0.0040723
0.00408662
0.00406945
0.00406951
0.00408376
0.00408658
0.00407229
0.00408656
0.0040723
0.00406948
0.00408662
0.00408662
0.00406963
0.00406945
0.00406945
0.00402359
0.00404076
0.00404076