/*--------------------------------*- C++ -*----------------------------------*\
| =========                 |                                                 |
| \\      /  F ield         | OpenFOAM: The Open Source CFD Toolbox           |
|  \\    /   O peration     | Version:  2206                                  |
|   \\  /    A nd           | Website:  www.openfoam.com                      |
|    \\/     M anipulation  |                                                 |
\*---------------------------------------------------------------------------*/
FoamFile
{
    version     2.0;
    format      ascii;
    arch        "LSB;label=32;scalar=64";
    class       volScalarField;
    location    "28";
    object      epsilon;
}
// * * * * * * * * * * * * * * * * * * * * * * * * * * * * * * * * * * * * * //

dimensions      [0 2 -3 0 0 0 0];

internalField   nonuniform List<scalar> 
28448
(
2.8613e-07
3.12525e-07
3.12534e-07
3.45723e-07
2.86132e-07
3.12528e-07
3.12537e-07
3.45731e-07
2.86133e-07
3.12532e-07
3.12541e-07
3.45738e-07
2.86131e-07
3.12534e-07
3.12543e-07
3.45747e-07
2.86131e-07
3.12535e-07
3.12543e-07
3.45755e-07
2.86128e-07
3.12536e-07
3.12543e-07
3.45756e-07
2.86074e-07
3.12472e-07
3.12461e-07
3.4569e-07
2.86e-07
3.12404e-07
3.12413e-07
3.45604e-07
2.85996e-07
3.12403e-07
3.12413e-07
3.45622e-07
2.85996e-07
3.12402e-07
3.12412e-07
3.45617e-07
2.85996e-07
3.12402e-07
3.12412e-07
3.45619e-07
2.85996e-07
3.12402e-07
3.12412e-07
3.45615e-07
2.85996e-07
3.12402e-07
3.12412e-07
3.45615e-07
2.85996e-07
3.12402e-07
3.12412e-07
3.45617e-07
2.85996e-07
3.12402e-07
3.12412e-07
3.45617e-07
2.85996e-07
3.12402e-07
3.12412e-07
3.45617e-07
2.85996e-07
3.12402e-07
3.12412e-07
3.45617e-07
2.86002e-07
3.12416e-07
3.45452e-07
3.12545e-07
3.1255e-07
3.45443e-07
3.12531e-07
3.12558e-07
3.12525e-07
3.12548e-07
3.45463e-07
3.12533e-07
3.12532e-07
3.45463e-07
3.45718e-07
3.45464e-07
3.12545e-07
3.1255e-07
3.12545e-07
3.1255e-07
3.4571e-07
3.45455e-07
3.12531e-07
3.12561e-07
3.1253e-07
3.1256e-07
3.12551e-07
3.12528e-07
3.12551e-07
3.45726e-07
3.45471e-07
3.12535e-07
3.12537e-07
3.12535e-07
3.45471e-07
3.45726e-07
3.4547e-07
3.12548e-07
3.12553e-07
3.12548e-07
3.12553e-07
3.45718e-07
3.45461e-07
3.12534e-07
3.12563e-07
3.12534e-07
3.12563e-07
3.12554e-07
3.12531e-07
3.12554e-07
3.45733e-07
3.45478e-07
3.12538e-07
3.1254e-07
3.12538e-07
3.45478e-07
3.45732e-07
3.45477e-07
3.12552e-07
3.12557e-07
3.12552e-07
3.12557e-07
3.45725e-07
3.45469e-07
3.12537e-07
3.12567e-07
3.12538e-07
3.12567e-07
3.12557e-07
3.12534e-07
3.12558e-07
3.45741e-07
3.45487e-07
3.12541e-07
3.12543e-07
3.12542e-07
3.45487e-07
3.4574e-07
3.45487e-07
3.12556e-07
3.1256e-07
3.12556e-07
3.1256e-07
3.45732e-07
3.45478e-07
3.12541e-07
3.1257e-07
3.12541e-07
3.12568e-07
3.12561e-07
3.12535e-07
3.12558e-07
3.4575e-07
3.45495e-07
3.12545e-07
3.12543e-07
3.12543e-07
3.45495e-07
3.4575e-07
3.4549e-07
3.12558e-07
3.12562e-07
3.12556e-07
3.1256e-07
3.45741e-07
3.45481e-07
3.12544e-07
3.12569e-07
3.12543e-07
3.12568e-07
3.12559e-07
3.12537e-07
3.12558e-07
3.45757e-07
3.45497e-07
3.12544e-07
3.12544e-07
3.12542e-07
3.45497e-07
3.45752e-07
3.45467e-07
3.12556e-07
3.12561e-07
3.12532e-07
3.12536e-07
3.45743e-07
3.45458e-07
3.12543e-07
3.12567e-07
3.12516e-07
3.12517e-07
3.12557e-07
3.12504e-07
3.12506e-07
3.45759e-07
3.45449e-07
3.12541e-07
3.12492e-07
3.1249e-07
3.45448e-07
3.45717e-07
3.45351e-07
3.12502e-07
3.12506e-07
3.12433e-07
3.12438e-07
3.45708e-07
3.45341e-07
3.12486e-07
3.12487e-07
3.12418e-07
3.12439e-07
3.12477e-07
3.1241e-07
3.1243e-07
3.45694e-07
3.45346e-07
3.1246e-07
3.12415e-07
3.12414e-07
3.45346e-07
3.45605e-07
3.45351e-07
3.12428e-07
3.12433e-07
3.12424e-07
3.12429e-07
3.45596e-07
3.45342e-07
3.12413e-07
3.12439e-07
3.1241e-07
3.12437e-07
3.1243e-07
3.12403e-07
3.12428e-07
3.45606e-07
3.45363e-07
3.12414e-07
3.12413e-07
3.12412e-07
3.45362e-07
3.45615e-07
3.45352e-07
3.12427e-07
3.12432e-07
3.12424e-07
3.12429e-07
3.45606e-07
3.45342e-07
3.12412e-07
3.1244e-07
3.12409e-07
3.12436e-07
3.1243e-07
3.12402e-07
3.12427e-07
3.45624e-07
3.45359e-07
3.12414e-07
3.12412e-07
3.12411e-07
3.45359e-07
3.45613e-07
3.45348e-07
3.12425e-07
3.1243e-07
3.12423e-07
3.12428e-07
3.45604e-07
3.45339e-07
3.1241e-07
3.12438e-07
3.12408e-07
3.12436e-07
3.12428e-07
3.12402e-07
3.12426e-07
3.4562e-07
3.45358e-07
3.12412e-07
3.12412e-07
3.1241e-07
3.45358e-07
3.4561e-07
3.45351e-07
3.12425e-07
3.1243e-07
3.12423e-07
3.12428e-07
3.45602e-07
3.45342e-07
3.1241e-07
3.12438e-07
3.12409e-07
3.12436e-07
3.12429e-07
3.12402e-07
3.12426e-07
3.4562e-07
3.45357e-07
3.12412e-07
3.12412e-07
3.1241e-07
3.45356e-07
3.45611e-07
3.45353e-07
3.12425e-07
3.1243e-07
3.12423e-07
3.12428e-07
3.45603e-07
3.45344e-07
3.1241e-07
3.12438e-07
3.12409e-07
3.12436e-07
3.12428e-07
3.12402e-07
3.12426e-07
3.45618e-07
3.4536e-07
3.12412e-07
3.12412e-07
3.1241e-07
3.45357e-07
3.45615e-07
3.45351e-07
3.12425e-07
3.1243e-07
3.12423e-07
3.12428e-07
3.45606e-07
3.45342e-07
3.1241e-07
3.12438e-07
3.12409e-07
3.12436e-07
3.12428e-07
3.12402e-07
3.12426e-07
3.4562e-07
3.45359e-07
3.12412e-07
3.12412e-07
3.1241e-07
3.45359e-07
3.45613e-07
3.4535e-07
3.12425e-07
3.1243e-07
3.12423e-07
3.12428e-07
3.45605e-07
3.45341e-07
3.12411e-07
3.12438e-07
3.12408e-07
3.12436e-07
3.12428e-07
3.12402e-07
3.12426e-07
3.45621e-07
3.45358e-07
3.12412e-07
3.12412e-07
3.1241e-07
3.45358e-07
3.45612e-07
3.4535e-07
3.12425e-07
3.1243e-07
3.12423e-07
3.12428e-07
3.45604e-07
3.4534e-07
3.1241e-07
3.12438e-07
3.12409e-07
3.12436e-07
3.12428e-07
3.12402e-07
3.12426e-07
3.4562e-07
3.45358e-07
3.12412e-07
3.12412e-07
3.1241e-07
3.45358e-07
3.45612e-07
3.45349e-07
3.12425e-07
3.1243e-07
3.12423e-07
3.12428e-07
3.45603e-07
3.4534e-07
3.1241e-07
3.12438e-07
3.12409e-07
3.12436e-07
3.12428e-07
3.12402e-07
3.12426e-07
3.4562e-07
3.45357e-07
3.12412e-07
3.12412e-07
3.1241e-07
3.45358e-07
3.45611e-07
3.4535e-07
3.12425e-07
3.1243e-07
3.12425e-07
3.45603e-07
3.12411e-07
3.12438e-07
3.12409e-07
3.12436e-07
3.12428e-07
3.12429e-07
3.45619e-07
3.45357e-07
3.12412e-07
3.12413e-07
3.12412e-07
3.45358e-07
3.45616e-07
3.12411e-07
3.12438e-07
3.45619e-07
2.86131e-07
2.86132e-07
2.86135e-07
2.86133e-07
1.75203e-06
8.88231e-06
1.7525e-06
8.88192e-06
2.2515e-05
2.25133e-05
1.75191e-06
8.88344e-06
1.75233e-06
8.88299e-06
2.86132e-07
2.86138e-07
2.86136e-07
2.86132e-07
2.86131e-07
2.86137e-07
2.86135e-07
5.62882e-07
1.39527e-06
2.95065e-07
3.12528e-07
5.63028e-07
1.39455e-06
2.95067e-07
2.25142e-05
2.25127e-05
5.62912e-07
2.95067e-07
1.39525e-06
3.12537e-07
5.63061e-07
2.9507e-07
1.39456e-06
3.00048e-06
3.00124e-06
3.45468e-07
3.00007e-06
3.00084e-06
1.75215e-06
8.88202e-06
1.75268e-06
8.88149e-06
2.2512e-05
2.25114e-05
1.75203e-06
8.88314e-06
1.75252e-06
8.88259e-06
2.86133e-07
2.86137e-07
2.86135e-07
2.86133e-07
2.86132e-07
2.86136e-07
2.86134e-07
5.62911e-07
1.39542e-06
2.95067e-07
3.12531e-07
5.63057e-07
1.39466e-06
2.9507e-07
2.2512e-05
2.25112e-05
5.6294e-07
2.95069e-07
1.39536e-06
3.1254e-07
5.6309e-07
2.95072e-07
1.39462e-06
3.00068e-06
3.00144e-06
3.45475e-07
3.00017e-06
3.00093e-06
1.75217e-06
8.88171e-06
1.75274e-06
8.88128e-06
2.25111e-05
2.25109e-05
1.75205e-06
8.88285e-06
1.75256e-06
8.88239e-06
2.86135e-07
2.86138e-07
2.86137e-07
2.86132e-07
2.86132e-07
2.86135e-07
2.86135e-07
5.62929e-07
1.39548e-06
2.95069e-07
3.12535e-07
5.63079e-07
1.39471e-06
2.95072e-07
2.25113e-05
2.2511e-05
5.62958e-07
2.95071e-07
1.3954e-06
3.12544e-07
5.63113e-07
2.95074e-07
1.39465e-06
3.00079e-06
3.00154e-06
3.45483e-07
3.00032e-06
3.00108e-06
1.75215e-06
8.88164e-06
1.75271e-06
8.88127e-06
2.25112e-05
2.25112e-05
1.75204e-06
8.88278e-06
1.75254e-06
8.88238e-06
2.86133e-07
2.86135e-07
2.86134e-07
2.86132e-07
2.86131e-07
2.86133e-07
2.86131e-07
5.62943e-07
1.39551e-06
2.95071e-07
3.12536e-07
5.63094e-07
1.39473e-06
2.95071e-07
2.25115e-05
2.25115e-05
5.62973e-07
2.95072e-07
1.39542e-06
3.12545e-07
5.63127e-07
2.95072e-07
1.39467e-06
3.00094e-06
3.0017e-06
3.45492e-07
3.00044e-06
3.0012e-06
1.75216e-06
8.8817e-06
1.75271e-06
8.88138e-06
2.25118e-05
2.2512e-05
1.75204e-06
8.88283e-06
1.75254e-06
8.88248e-06
2.86131e-07
2.86132e-07
2.86131e-07
2.86128e-07
2.86128e-07
2.86129e-07
2.86128e-07
5.62953e-07
1.39552e-06
2.95066e-07
3.12537e-07
5.63108e-07
1.39473e-06
2.95067e-07
2.25122e-05
2.25124e-05
5.62978e-07
2.95067e-07
1.39542e-06
3.12545e-07
5.63138e-07
2.95068e-07
1.39468e-06
3.00097e-06
3.00173e-06
3.45496e-07
3.00042e-06
3.00119e-06
1.75235e-06
8.88217e-06
1.75277e-06
8.88214e-06
2.25128e-05
2.25124e-05
1.75225e-06
8.8833e-06
1.75263e-06
8.88326e-06
2.86127e-07
2.86128e-07
2.86126e-07
2.86105e-07
2.86102e-07
2.86082e-07
2.8608e-07
5.6296e-07
1.39559e-06
2.95064e-07
3.12534e-07
5.63122e-07
1.39486e-06
2.95061e-07
2.25129e-05
2.25121e-05
5.62982e-07
2.95064e-07
1.39555e-06
3.12537e-07
5.63149e-07
2.9506e-07
1.39482e-06
3.00112e-06
3.00187e-06
3.45491e-07
3.0006e-06
3.00137e-06
1.75226e-06
8.88281e-06
1.75296e-06
8.88243e-06
2.25118e-05
2.25114e-05
1.7521e-06
8.88396e-06
1.75275e-06
8.88355e-06
2.86072e-07
2.86052e-07
2.8605e-07
2.86008e-07
2.86006e-07
2.86004e-07
2.86002e-07
5.62825e-07
1.39561e-06
2.94997e-07
3.12446e-07
5.63034e-07
1.39473e-06
2.94974e-07
2.25118e-05
2.25113e-05
5.62848e-07
2.94989e-07
1.39548e-06
3.1244e-07
5.6306e-07
2.94968e-07
1.39464e-06
3.00098e-06
3.00174e-06
3.45381e-07
3.0003e-06
3.00106e-06
1.75205e-06
8.88271e-06
1.75266e-06
8.8823e-06
2.25113e-05
2.25111e-05
1.75192e-06
8.88386e-06
1.75247e-06
8.88342e-06
2.86001e-07
2.86003e-07
2.86002e-07
2.85996e-07
2.85998e-07
2.86001e-07
2.86e-07
5.62777e-07
1.39541e-06
2.94938e-07
3.12404e-07
5.6294e-07
1.39459e-06
2.94939e-07
2.25115e-05
2.25112e-05
5.62799e-07
2.9494e-07
1.39531e-06
3.12415e-07
5.62962e-07
2.94942e-07
1.39454e-06
3.0007e-06
3.00146e-06
3.45352e-07
3.00014e-06
3.0009e-06
1.75202e-06
8.88265e-06
1.75259e-06
8.88227e-06
2.25112e-05
2.25111e-05
1.7519e-06
8.88381e-06
1.75242e-06
8.8834e-06
2.86e-07
2.86003e-07
2.86001e-07
2.85996e-07
2.85997e-07
2.86001e-07
2.85999e-07
5.62775e-07
1.39536e-06
2.94938e-07
3.12404e-07
5.62932e-07
1.39457e-06
2.94939e-07
2.25115e-05
2.25112e-05
5.62798e-07
2.9494e-07
1.39528e-06
3.12414e-07
5.62953e-07
2.94941e-07
1.39453e-06
3.00066e-06
3.00142e-06
3.45361e-07
3.00012e-06
3.00089e-06
1.75202e-06
8.88264e-06
1.75259e-06
8.88227e-06
2.25112e-05
2.25111e-05
1.7519e-06
8.8838e-06
1.75241e-06
8.8834e-06
2.85999e-07
2.86002e-07
2.86e-07
2.85996e-07
2.85997e-07
2.86001e-07
2.85999e-07
5.62774e-07
1.39536e-06
2.94937e-07
3.12404e-07
5.6293e-07
1.39457e-06
2.94939e-07
2.25115e-05
2.25112e-05
5.62806e-07
2.94939e-07
1.39528e-06
3.12414e-07
5.62958e-07
2.94941e-07
1.39453e-06
3.00066e-06
3.00142e-06
3.45356e-07
3.00012e-06
3.00088e-06
1.75202e-06
8.88264e-06
1.75259e-06
8.88227e-06
2.25112e-05
2.25111e-05
1.7519e-06
8.8838e-06
1.75241e-06
8.8834e-06
2.85999e-07
2.86002e-07
2.86e-07
2.85996e-07
2.85997e-07
2.86001e-07
2.85999e-07
5.62773e-07
1.39536e-06
2.94937e-07
3.12404e-07
5.6293e-07
1.39457e-06
2.94939e-07
2.25115e-05
2.25112e-05
5.62814e-07
2.94939e-07
1.39528e-06
3.12414e-07
5.62968e-07
2.94941e-07
1.39453e-06
3.00066e-06
3.00142e-06
3.4536e-07
3.00012e-06
3.00088e-06
1.75202e-06
8.88264e-06
1.75259e-06
8.88227e-06
2.25112e-05
2.25111e-05
1.7519e-06
8.8838e-06
1.75241e-06
8.8834e-06
2.85999e-07
2.86002e-07
2.86e-07
2.85996e-07
2.85997e-07
2.86001e-07
2.85999e-07
5.62774e-07
1.39536e-06
2.94937e-07
3.12404e-07
5.6293e-07
1.39457e-06
2.94939e-07
2.25115e-05
2.25112e-05
5.62818e-07
2.94939e-07
1.39528e-06
3.12414e-07
5.62972e-07
2.94941e-07
1.39453e-06
3.00066e-06
3.00142e-06
3.4536e-07
3.00012e-06
3.00088e-06
1.75202e-06
8.88264e-06
1.75259e-06
8.88227e-06
2.25112e-05
2.25111e-05
1.7519e-06
8.8838e-06
1.75241e-06
8.8834e-06
2.85999e-07
2.86002e-07
2.86e-07
2.85996e-07
2.85997e-07
2.86001e-07
2.85999e-07
5.62774e-07
1.39536e-06
2.94937e-07
3.12403e-07
5.6293e-07
1.39457e-06
2.94939e-07
2.25115e-05
2.25112e-05
5.62815e-07
2.94939e-07
1.39528e-06
3.12414e-07
5.62974e-07
2.94941e-07
1.39453e-06
3.00066e-06
3.00142e-06
3.45358e-07
3.00012e-06
3.00088e-06
1.75202e-06
8.88264e-06
1.75259e-06
8.88227e-06
2.25112e-05
2.25111e-05
1.7519e-06
8.8838e-06
1.75241e-06
8.8834e-06
2.85999e-07
2.86002e-07
2.86e-07
2.85996e-07
2.85997e-07
2.86001e-07
2.85999e-07
5.62773e-07
1.39536e-06
2.94937e-07
3.12403e-07
5.6293e-07
1.39457e-06
2.94939e-07
2.25115e-05
2.25112e-05
5.6281e-07
2.94939e-07
1.39528e-06
3.12414e-07
5.62968e-07
2.94941e-07
1.39453e-06
3.00066e-06
3.00141e-06
3.45358e-07
3.00012e-06
3.00088e-06
1.75202e-06
8.88264e-06
1.75259e-06
8.88227e-06
2.25112e-05
2.25111e-05
1.7519e-06
8.8838e-06
1.75241e-06
8.88339e-06
2.85999e-07
2.86002e-07
2.86e-07
2.85996e-07
2.85997e-07
2.86001e-07
2.85999e-07
5.62774e-07
1.39536e-06
2.94937e-07
3.12403e-07
5.6293e-07
1.39457e-06
2.94939e-07
2.25115e-05
2.25112e-05
5.62806e-07
2.94939e-07
1.39528e-06
3.12414e-07
5.62965e-07
2.94941e-07
1.39453e-06
3.00066e-06
3.00141e-06
3.45358e-07
3.00012e-06
3.00088e-06
1.75202e-06
8.88264e-06
1.75259e-06
8.88227e-06
2.25112e-05
2.25111e-05
1.7519e-06
8.8838e-06
1.75241e-06
8.88339e-06
2.85999e-07
2.86002e-07
2.86e-07
2.85996e-07
2.85997e-07
2.86001e-07
2.85999e-07
5.62772e-07
1.39536e-06
2.94937e-07
3.12403e-07
5.6293e-07
1.39457e-06
2.94939e-07
2.25115e-05
2.25112e-05
5.62804e-07
2.94939e-07
1.39528e-06
3.12414e-07
5.62961e-07
2.94941e-07
1.39453e-06
3.00066e-06
3.00141e-06
3.45358e-07
3.00012e-06
3.00088e-06
1.75202e-06
8.88265e-06
1.75259e-06
8.88227e-06
2.25113e-05
2.25111e-05
1.7519e-06
8.8838e-06
1.75241e-06
8.88339e-06
2.85999e-07
2.86002e-07
2.86e-07
2.85998e-07
2.86002e-07
2.86001e-07
2.86001e-07
5.62774e-07
1.39536e-06
2.94937e-07
3.12403e-07
5.6293e-07
1.39457e-06
2.94939e-07
2.25115e-05
2.25112e-05
5.62802e-07
2.94939e-07
1.39528e-06
3.12414e-07
5.62959e-07
2.94941e-07
1.39453e-06
3.00066e-06
3.00141e-06
3.45359e-07
3.00012e-06
3.00088e-06
8.8838e-06
1.75241e-06
2.86004e-07
2.25115e-05
1.39528e-06
2.25145e-05
2.25157e-05
2.99966e-06
3.00038e-06
8.88194e-06
1.7519e-06
8.88279e-06
1.75192e-06
1.39436e-06
2.95067e-07
5.62863e-07
1.39453e-06
2.95068e-07
5.62866e-07
2.25153e-05
3.00028e-06
2.99955e-06
2.25125e-05
8.88306e-06
1.75178e-06
1.3947e-06
2.9507e-07
5.62886e-07
1.75224e-06
8.88299e-06
8.8835e-06
1.75185e-06
5.63022e-07
3.12558e-07
2.95071e-07
1.39478e-06
2.95071e-07
1.39549e-06
5.62874e-07
5.63018e-07
1.39445e-06
2.95065e-07
2.95065e-07
5.62869e-07
1.75246e-06
8.88224e-06
1.75201e-06
5.6302e-07
3.12548e-07
2.95067e-07
1.39448e-06
2.95067e-07
1.39515e-06
5.62873e-07
1.75245e-06
8.88302e-06
8.88342e-06
1.752e-06
2.25142e-05
2.2516e-05
3.45712e-07
3.00058e-06
2.99988e-06
3.00103e-06
3.00018e-06
2.25142e-05
2.25159e-05
5.63052e-07
3.12533e-07
2.95067e-07
1.39447e-06
2.95067e-07
1.39514e-06
5.62899e-07
5.63019e-07
3.12532e-07
2.95069e-07
1.39463e-06
2.95069e-07
1.3953e-06
5.62872e-07
1.75249e-06
8.88317e-06
8.88356e-06
1.75203e-06
1.75224e-06
8.88368e-06
8.88407e-06
1.75185e-06
3.45711e-07
2.99988e-06
3.00065e-06
3.00022e-06
3.00094e-06
2.25144e-05
2.25161e-05
2.2515e-05
2.25167e-05
2.25143e-05
2.25125e-05
2.25154e-05
2.25137e-05
3.00023e-06
3.00096e-06
3.45463e-07
2.99992e-06
3.00066e-06
2.25113e-05
2.25124e-05
2.25124e-05
2.25136e-05
3.45725e-07
3.00003e-06
3.00078e-06
3.00045e-06
3.0012e-06
1.75205e-06
8.88314e-06
1.75251e-06
8.88276e-06
5.62878e-07
1.39513e-06
2.95067e-07
3.12545e-07
5.63027e-07
1.39447e-06
2.95066e-07
5.62881e-07
1.39531e-06
2.95068e-07
3.1255e-07
5.6303e-07
1.39463e-06
2.95068e-07
1.75261e-06
8.8817e-06
8.88224e-06
1.75211e-06
1.75263e-06
8.88254e-06
8.88309e-06
1.75212e-06
5.63042e-07
3.12544e-07
1.39453e-06
2.95065e-07
1.39523e-06
2.95065e-07
5.62893e-07
5.63045e-07
3.12549e-07
1.3947e-06
2.95066e-07
1.39541e-06
2.95066e-07
5.62896e-07
3.00089e-06
3.00024e-06
3.45454e-07
3.0006e-06
2.9998e-06
2.25126e-05
2.25108e-05
2.2512e-05
2.25132e-05
3.45716e-07
3.00074e-06
2.99995e-06
3.00115e-06
3.00042e-06
2.25095e-05
2.25109e-05
5.62902e-07
1.39552e-06
2.9507e-07
3.12531e-07
5.63047e-07
1.39481e-06
2.9507e-07
1.75194e-06
8.88337e-06
1.75238e-06
8.88289e-06
5.62889e-07
2.95074e-07
1.39559e-06
3.12561e-07
5.63036e-07
2.95074e-07
1.39486e-06
1.75244e-06
8.88279e-06
8.88335e-06
1.75199e-06
5.63064e-07
3.1253e-07
1.39487e-06
2.95069e-07
1.39561e-06
2.95069e-07
5.62919e-07
1.75246e-06
8.88268e-06
8.88323e-06
1.752e-06
5.63053e-07
3.1256e-07
2.95073e-07
1.3949e-06
2.95073e-07
1.39566e-06
5.62906e-07
1.7521e-06
8.88261e-06
1.7526e-06
8.8822e-06
5.62888e-07
2.9507e-07
1.39526e-06
3.12551e-07
5.63035e-07
2.9507e-07
1.39457e-06
1.7521e-06
8.88339e-06
1.75259e-06
8.88291e-06
5.63045e-07
3.12528e-07
1.39462e-06
2.95067e-07
1.39535e-06
2.95067e-07
5.62898e-07
1.75268e-06
8.88207e-06
8.88258e-06
1.75216e-06
5.6305e-07
3.1255e-07
2.95069e-07
1.39461e-06
2.95069e-07
1.39533e-06
5.62903e-07
1.75267e-06
8.88266e-06
8.88321e-06
1.75215e-06
3.00122e-06
3.00044e-06
3.45469e-07
3.00077e-06
3.00006e-06
2.25141e-05
2.25126e-05
2.25118e-05
2.25129e-05
3.45731e-07
3.00089e-06
3.00011e-06
3.00139e-06
3.00058e-06
2.25117e-05
2.25126e-05
5.62887e-07
2.95072e-07
1.39541e-06
3.12535e-07
5.63034e-07
2.95072e-07
1.39471e-06
1.75213e-06
8.88354e-06
1.75263e-06
8.88306e-06
1.75194e-06
8.88404e-06
1.75238e-06
8.88357e-06
5.63079e-07
3.12537e-07
2.95069e-07
1.3946e-06
2.95069e-07
1.39532e-06
5.62927e-07
5.63049e-07
3.12534e-07
2.9507e-07
1.39475e-06
2.9507e-07
1.39548e-06
5.62903e-07
1.75271e-06
8.8828e-06
8.88336e-06
1.75218e-06
1.75246e-06
8.88333e-06
8.88387e-06
1.752e-06
2.25142e-05
2.25128e-05
2.25148e-05
2.25134e-05
3.4573e-07
3.00014e-06
3.0009e-06
3.0006e-06
3.00136e-06
2.25119e-05
2.25128e-05
2.25125e-05
2.25134e-05
2.25114e-05
2.25106e-05
2.25125e-05
2.25118e-05
3.00053e-06
3.00129e-06
3.45468e-07
3.00007e-06
3.00083e-06
2.25103e-05
2.25108e-05
2.25114e-05
2.2512e-05
3.4573e-07
3.00012e-06
3.00088e-06
3.00057e-06
3.00134e-06
1.75217e-06
8.88284e-06
1.75269e-06
8.88233e-06
5.62906e-07
1.39528e-06
2.95068e-07
3.12548e-07
5.63057e-07
1.39456e-06
2.95068e-07
5.62909e-07
1.39546e-06
2.95069e-07
3.12553e-07
5.6306e-07
1.39473e-06
2.95069e-07
1.75271e-06
8.88136e-06
8.88181e-06
1.75217e-06
1.75273e-06
8.8822e-06
8.88265e-06
1.75219e-06
5.6307e-07
3.12548e-07
1.39459e-06
2.95067e-07
1.39531e-06
2.95067e-07
5.6292e-07
5.63073e-07
3.12553e-07
1.39476e-06
2.95068e-07
1.3955e-06
2.95068e-07
5.62923e-07
3.00127e-06
3.00056e-06
3.45459e-07
3.00082e-06
3.00006e-06
2.25098e-05
2.25088e-05
2.25111e-05
2.25116e-05
3.45722e-07
3.00089e-06
3.00013e-06
3.00135e-06
3.00066e-06
2.25084e-05
2.2509e-05
5.62932e-07
1.39566e-06
2.95072e-07
3.12534e-07
5.63079e-07
1.3949e-06
2.95072e-07
1.75203e-06
8.88303e-06
1.75251e-06
8.88253e-06
5.6292e-07
2.95076e-07
1.3957e-06
3.12563e-07
5.63069e-07
2.95076e-07
1.39493e-06
1.75254e-06
8.88246e-06
8.88294e-06
1.75205e-06
5.63092e-07
3.12533e-07
1.39493e-06
2.95071e-07
1.39569e-06
2.95071e-07
5.62945e-07
1.75253e-06
8.88243e-06
8.8829e-06
1.75204e-06
5.63083e-07
3.12563e-07
2.95075e-07
1.39495e-06
2.95075e-07
1.39573e-06
5.62934e-07
1.75219e-06
8.88241e-06
1.75272e-06
8.88188e-06
5.62918e-07
2.95072e-07
1.39536e-06
3.12554e-07
5.63065e-07
2.95072e-07
1.39463e-06
1.75218e-06
8.88298e-06
1.75272e-06
8.8825e-06
5.63073e-07
3.12531e-07
1.39469e-06
2.95069e-07
1.39545e-06
2.9507e-07
5.62922e-07
1.75275e-06
8.88176e-06
8.88224e-06
1.7522e-06
5.63079e-07
3.12553e-07
2.95071e-07
1.39465e-06
2.95071e-07
1.39539e-06
5.62931e-07
1.75274e-06
8.8824e-06
8.88283e-06
1.7522e-06
3.00149e-06
3.00062e-06
3.45476e-07
3.00097e-06
3.00014e-06
2.25119e-05
2.25113e-05
2.2511e-05
2.25115e-05
3.45738e-07
3.00103e-06
3.00021e-06
3.00157e-06
3.00065e-06
2.2511e-05
2.25115e-05
5.62917e-07
2.95072e-07
1.39552e-06
3.12538e-07
5.63064e-07
2.95072e-07
1.39478e-06
1.75221e-06
8.88312e-06
1.75275e-06
8.88264e-06
1.75202e-06
8.88365e-06
1.75251e-06
8.88318e-06
5.63106e-07
3.1254e-07
2.95071e-07
1.39464e-06
2.95072e-07
1.39537e-06
5.62952e-07
5.63078e-07
3.12537e-07
2.95072e-07
1.3948e-06
2.95071e-07
1.39554e-06
5.62929e-07
1.75277e-06
8.88255e-06
8.88298e-06
1.75222e-06
1.75253e-06
8.88308e-06
8.88351e-06
1.75203e-06
2.25121e-05
2.25115e-05
2.25127e-05
2.25121e-05
3.45737e-07
3.00024e-06
3.001e-06
3.00069e-06
3.00144e-06
2.25112e-05
2.25117e-05
2.25118e-05
2.25123e-05
2.25105e-05
2.25101e-05
2.25117e-05
2.25113e-05
3.00063e-06
3.00139e-06
3.45474e-07
3.0002e-06
3.00096e-06
2.25102e-05
2.25104e-05
2.25113e-05
2.25116e-05
3.45737e-07
3.00028e-06
3.00104e-06
3.00071e-06
3.00147e-06
1.75219e-06
8.88255e-06
1.75275e-06
8.88213e-06
5.6293e-07
1.39533e-06
2.95071e-07
3.12552e-07
5.63083e-07
1.3946e-06
2.95071e-07
5.62933e-07
1.39552e-06
2.95071e-07
3.12557e-07
5.63087e-07
1.39478e-06
2.95071e-07
1.75272e-06
8.88125e-06
8.88163e-06
1.75216e-06
1.75274e-06
8.88211e-06
8.88249e-06
1.75217e-06
5.63092e-07
3.12552e-07
1.39461e-06
2.9507e-07
1.39535e-06
2.9507e-07
5.62938e-07
5.63095e-07
3.12556e-07
1.39479e-06
2.95071e-07
1.39553e-06
2.9507e-07
5.6294e-07
3.00142e-06
3.00073e-06
3.45466e-07
3.00097e-06
3.00022e-06
2.25087e-05
2.25083e-05
2.2511e-05
2.25112e-05
3.45729e-07
3.00104e-06
3.00031e-06
3.00149e-06
3.00082e-06
2.25084e-05
2.25087e-05
5.62953e-07
1.39571e-06
2.95074e-07
3.12537e-07
5.63104e-07
1.39494e-06
2.95074e-07
1.75203e-06
8.88281e-06
1.75254e-06
8.88238e-06
5.62942e-07
2.95078e-07
1.39574e-06
3.12567e-07
5.63095e-07
2.95078e-07
1.39497e-06
1.75254e-06
8.88237e-06
8.88278e-06
1.75204e-06
5.63111e-07
3.12537e-07
1.39495e-06
2.95072e-07
1.39573e-06
2.95072e-07
5.62961e-07
1.75253e-06
8.88238e-06
8.88278e-06
1.75202e-06
5.63103e-07
3.12567e-07
2.95077e-07
1.39498e-06
2.95077e-07
1.39576e-06
5.6295e-07
1.75219e-06
8.88214e-06
1.75275e-06
8.88171e-06
5.62938e-07
2.95074e-07
1.39541e-06
3.12557e-07
5.63091e-07
2.95074e-07
1.39467e-06
1.75219e-06
8.88276e-06
1.75275e-06
8.88236e-06
5.6309e-07
3.12535e-07
1.39472e-06
2.95072e-07
1.39549e-06
2.95072e-07
5.62937e-07
1.75274e-06
8.88169e-06
8.8821e-06
1.75218e-06
5.63098e-07
3.12557e-07
2.95073e-07
1.39468e-06
2.95073e-07
1.39542e-06
5.62946e-07
1.75274e-06
8.88235e-06
8.88272e-06
1.75218e-06
3.00163e-06
3.00072e-06
3.45484e-07
3.00111e-06
3.00029e-06
2.25113e-05
2.2511e-05
2.25112e-05
2.25115e-05
3.45746e-07
3.00119e-06
3.00037e-06
3.00171e-06
3.00081e-06
2.25112e-05
2.25113e-05
5.62936e-07
2.95075e-07
1.39556e-06
3.12541e-07
5.63088e-07
2.95075e-07
1.39482e-06
1.75221e-06
8.8829e-06
1.75278e-06
8.8825e-06
1.75202e-06
8.88343e-06
1.75253e-06
8.88303e-06
5.63123e-07
3.12544e-07
2.95073e-07
1.39466e-06
2.95073e-07
1.3954e-06
5.62966e-07
5.63095e-07
3.12541e-07
2.95074e-07
1.39483e-06
2.95074e-07
1.39557e-06
5.62944e-07
1.75276e-06
8.8825e-06
8.88287e-06
1.75219e-06
1.75252e-06
8.88302e-06
8.88339e-06
1.75201e-06
2.25115e-05
2.25112e-05
2.25121e-05
2.25118e-05
3.45745e-07
3.00039e-06
3.00116e-06
3.00084e-06
3.0016e-06
2.25113e-05
2.25115e-05
2.25119e-05
2.25121e-05
2.25105e-05
2.25104e-05
2.25117e-05
2.25116e-05
3.00079e-06
3.00156e-06
3.45483e-07
3.00035e-06
3.0011e-06
2.25108e-05
2.25108e-05
2.25119e-05
2.2512e-05
3.45746e-07
3.00038e-06
3.00114e-06
3.00084e-06
3.00161e-06
1.75217e-06
8.88248e-06
1.75272e-06
8.88211e-06
5.62946e-07
1.39536e-06
2.95072e-07
3.12556e-07
5.631e-07
1.39462e-06
2.95072e-07
5.62947e-07
1.39554e-06
2.95073e-07
3.12561e-07
5.63102e-07
1.39479e-06
2.95073e-07
1.75271e-06
8.88131e-06
8.88164e-06
1.75214e-06
1.75272e-06
8.88215e-06
8.88249e-06
1.75216e-06
5.63109e-07
3.12556e-07
1.39462e-06
2.9507e-07
1.39536e-06
2.95071e-07
5.62954e-07
5.6311e-07
3.1256e-07
1.39479e-06
2.9507e-07
1.39555e-06
2.95072e-07
5.62955e-07
3.00157e-06
3.00092e-06
3.45475e-07
3.00111e-06
3.00038e-06
2.25088e-05
2.25086e-05
2.25115e-05
2.25116e-05
3.45737e-07
3.00114e-06
3.00041e-06
3.00162e-06
3.00096e-06
2.2509e-05
2.25091e-05
5.6297e-07
1.39574e-06
2.95074e-07
3.12542e-07
5.6312e-07
1.39496e-06
2.95074e-07
1.75202e-06
8.88279e-06
1.75252e-06
8.88242e-06
5.62958e-07
2.95078e-07
1.39577e-06
3.1257e-07
5.6311e-07
2.95077e-07
1.39499e-06
1.75253e-06
8.88242e-06
8.88278e-06
1.75203e-06
5.63128e-07
3.12541e-07
1.39496e-06
2.95072e-07
1.39574e-06
2.95072e-07
5.62975e-07
1.75252e-06
8.88246e-06
8.88283e-06
1.75202e-06
5.63118e-07
3.12569e-07
2.95072e-07
1.39499e-06
2.95074e-07
1.39578e-06
5.62965e-07
1.75218e-06
8.88209e-06
1.75273e-06
8.88169e-06
5.62954e-07
2.95074e-07
1.39543e-06
3.12561e-07
5.63106e-07
2.95073e-07
1.39468e-06
1.75218e-06
8.88272e-06
1.75273e-06
8.88238e-06
5.63104e-07
3.12535e-07
1.39473e-06
2.95066e-07
1.39551e-06
2.95069e-07
5.62951e-07
1.75272e-06
8.88171e-06
8.88209e-06
1.75218e-06
5.63113e-07
3.12559e-07
2.95069e-07
1.39468e-06
2.95071e-07
1.39543e-06
5.62959e-07
1.75272e-06
8.88242e-06
8.88276e-06
1.75217e-06
3.00179e-06
3.00088e-06
3.45493e-07
3.00124e-06
3.00041e-06
2.25115e-05
2.25114e-05
2.25118e-05
2.2512e-05
3.45755e-07
3.00125e-06
3.00043e-06
3.00182e-06
3.00092e-06
2.25118e-05
2.25118e-05
5.62952e-07
2.95075e-07
1.39558e-06
3.12545e-07
5.63104e-07
2.95074e-07
1.39483e-06
1.7522e-06
8.88287e-06
1.75276e-06
8.88253e-06
1.75202e-06
8.88339e-06
1.75251e-06
8.88306e-06
5.63137e-07
3.12544e-07
2.95067e-07
1.39467e-06
2.9507e-07
1.39541e-06
5.62978e-07
5.63111e-07
3.12544e-07
2.9507e-07
1.39483e-06
2.95072e-07
1.39559e-06
5.62958e-07
1.75274e-06
8.88256e-06
8.88291e-06
1.75217e-06
1.75251e-06
8.88309e-06
8.88344e-06
1.75201e-06
2.25117e-05
2.25116e-05
2.25123e-05
2.25122e-05
3.45754e-07
3.00045e-06
3.00122e-06
3.00095e-06
3.00171e-06
2.2512e-05
2.2512e-05
2.25126e-05
2.25126e-05
2.25112e-05
2.25113e-05
2.25123e-05
2.25125e-05
3.00087e-06
3.00163e-06
3.45491e-07
3.00035e-06
3.00111e-06
2.25119e-05
2.25118e-05
2.25131e-05
2.2513e-05
3.45752e-07
3.00039e-06
3.00114e-06
3.00083e-06
3.0016e-06
1.75218e-06
8.88253e-06
1.75272e-06
8.88222e-06
5.62956e-07
1.39536e-06
2.95069e-07
3.12558e-07
5.63115e-07
1.39462e-06
2.95068e-07
5.62959e-07
1.39554e-06
2.95069e-07
3.12562e-07
5.63118e-07
1.39479e-06
2.95068e-07
1.75271e-06
8.88169e-06
8.8818e-06
1.75217e-06
1.75273e-06
8.88251e-06
8.88263e-06
1.75218e-06
5.63115e-07
3.12556e-07
1.39467e-06
2.95065e-07
1.39537e-06
2.95065e-07
5.62956e-07
5.63118e-07
3.1256e-07
1.39483e-06
2.95065e-07
1.39555e-06
2.95065e-07
5.62958e-07
3.00165e-06
3.00099e-06
3.45481e-07
3.0011e-06
3.00037e-06
2.25095e-05
2.25094e-05
2.25127e-05
2.25125e-05
3.45743e-07
3.00114e-06
3.0004e-06
3.0016e-06
3.00094e-06
2.25102e-05
2.25101e-05
5.62974e-07
1.39574e-06
2.95071e-07
3.12544e-07
5.63133e-07
1.39496e-06
2.95071e-07
1.75202e-06
8.88288e-06
1.75253e-06
8.88263e-06
5.62963e-07
2.95073e-07
1.39578e-06
3.12569e-07
5.63124e-07
2.95073e-07
1.395e-06
1.75254e-06
8.88278e-06
8.88291e-06
1.75207e-06
5.63129e-07
3.12543e-07
1.39501e-06
2.95068e-07
1.39575e-06
2.95068e-07
5.62975e-07
1.75252e-06
8.883e-06
8.88311e-06
1.75209e-06
5.63121e-07
3.12568e-07
2.95071e-07
1.39508e-06
2.95072e-07
1.3958e-06
5.62967e-07
1.75217e-06
8.88211e-06
1.75274e-06
8.88174e-06
5.62957e-07
2.95069e-07
1.39543e-06
3.12559e-07
5.63118e-07
2.95068e-07
1.3947e-06
1.75217e-06
8.88281e-06
1.75273e-06
8.88258e-06
5.63113e-07
3.12537e-07
1.39477e-06
2.95065e-07
1.39552e-06
2.95066e-07
5.62962e-07
1.75272e-06
8.88201e-06
8.88217e-06
1.75226e-06
5.63114e-07
3.12558e-07
2.95066e-07
1.39477e-06
2.95066e-07
1.39546e-06
5.62964e-07
1.75272e-06
8.88295e-06
8.88302e-06
1.75225e-06
3.00181e-06
3.00091e-06
3.45498e-07
3.00121e-06
3.0004e-06
2.25123e-05
2.25125e-05
2.25127e-05
2.2513e-05
3.45759e-07
3.00132e-06
3.00051e-06
3.00181e-06
3.00091e-06
2.25127e-05
2.25129e-05
5.62954e-07
2.95069e-07
1.39558e-06
3.12544e-07
5.63115e-07
2.95068e-07
1.39485e-06
1.75217e-06
8.88295e-06
1.75274e-06
8.88272e-06
1.75199e-06
8.88348e-06
1.75251e-06
8.88325e-06
5.63142e-07
3.12544e-07
2.95066e-07
1.39476e-06
2.95067e-07
1.39544e-06
5.62986e-07
5.6311e-07
3.12542e-07
2.95066e-07
1.39492e-06
2.95066e-07
1.39561e-06
5.62959e-07
1.75273e-06
8.8831e-06
8.88316e-06
1.75226e-06
1.75248e-06
8.88363e-06
8.8837e-06
1.75207e-06
2.25124e-05
2.25126e-05
2.2513e-05
2.25132e-05
3.45758e-07
3.00054e-06
3.0013e-06
3.00095e-06
3.0017e-06
2.25129e-05
2.25131e-05
2.25134e-05
2.25137e-05
2.25122e-05
2.25116e-05
2.25134e-05
2.25127e-05
3.00092e-06
3.00168e-06
3.45491e-07
3.00052e-06
3.00127e-06
2.2511e-05
2.25117e-05
2.25121e-05
2.25128e-05
3.4575e-07
3.0005e-06
3.00125e-06
3.00104e-06
3.0018e-06
1.75236e-06
8.88297e-06
1.75277e-06
8.88294e-06
5.62966e-07
1.39544e-06
2.95065e-07
3.12555e-07
5.63119e-07
1.39477e-06
2.95063e-07
5.62967e-07
1.39562e-06
2.95065e-07
3.12559e-07
5.63121e-07
1.39493e-06
2.95063e-07
1.75298e-06
8.88241e-06
8.88258e-06
1.75241e-06
1.75298e-06
8.88322e-06
8.88338e-06
1.75242e-06
5.63125e-07
3.12549e-07
1.39477e-06
2.95046e-07
1.39553e-06
2.95059e-07
5.62933e-07
5.63126e-07
3.12553e-07
1.39493e-06
2.95046e-07
1.39571e-06
2.95059e-07
5.62934e-07
3.00169e-06
3.00103e-06
3.4548e-07
3.00127e-06
3.00053e-06
2.25106e-05
2.25098e-05
2.25118e-05
2.25125e-05
3.4574e-07
3.00125e-06
3.0005e-06
3.00181e-06
3.00113e-06
2.2509e-05
2.251e-05
5.62981e-07
1.39582e-06
2.95068e-07
3.1254e-07
5.63135e-07
1.39511e-06
2.95066e-07
1.75227e-06
8.88349e-06
1.75266e-06
8.88336e-06
5.62968e-07
2.9507e-07
1.3959e-06
3.12562e-07
5.63129e-07
2.95066e-07
1.39514e-06
1.75281e-06
8.88354e-06
8.88373e-06
1.75226e-06
5.63133e-07
3.12534e-07
1.3951e-06
2.95042e-07
1.39591e-06
2.9506e-07
5.62935e-07
1.75281e-06
8.8835e-06
8.88379e-06
1.75223e-06
5.63121e-07
3.12547e-07
2.9503e-07
1.39507e-06
2.95056e-07
1.39593e-06
5.62912e-07
1.75244e-06
8.88252e-06
1.75289e-06
8.88249e-06
5.6296e-07
2.95065e-07
1.39555e-06
3.12552e-07
5.63126e-07
2.95061e-07
1.39483e-06
1.75242e-06
8.88341e-06
1.75289e-06
8.88332e-06
5.63111e-07
3.12525e-07
1.39484e-06
2.95029e-07
1.39566e-06
2.95051e-07
5.62898e-07
1.75302e-06
8.88277e-06
8.88298e-06
1.75237e-06
5.63109e-07
3.12536e-07
2.95022e-07
1.39476e-06
2.95049e-07
1.39559e-06
5.62896e-07
1.75301e-06
8.88346e-06
8.88373e-06
1.75236e-06
3.00195e-06
3.00105e-06
3.45491e-07
3.00139e-06
3.00058e-06
2.25129e-05
2.25121e-05
2.25116e-05
2.25123e-05
3.45746e-07
3.00128e-06
3.00046e-06
3.00197e-06
3.00107e-06
2.25116e-05
2.25122e-05
5.62954e-07
2.95065e-07
1.39571e-06
3.12536e-07
5.6312e-07
2.95061e-07
1.39498e-06
1.75243e-06
8.88356e-06