/*--------------------------------*- C++ -*----------------------------------*\
| =========                 |                                                 |
| \\      /  F ield         | OpenFOAM: The Open Source CFD Toolbox           |
|  \\    /   O peration     | Version:  2206                                  |
|   \\  /    A nd           | Website:  www.openfoam.com                      |
|    \\/     M anipulation  |                                                 |
\*---------------------------------------------------------------------------*/
FoamFile
{
    version     2.0;
    format      ascii;
    arch        "LSB;label=32;scalar=64";
    class       surfaceScalarField;
    location    "28";
    object      phi;
}
// * * * * * * * * * * * * * * * * * * * * * * * * * * * * * * * * * * * * * //

dimensions      [0 3 -1 0 0 0 0];

oriented        oriented;

internalField   nonuniform List<scalar> 
82026
(
1.46952e-09
1.59171e-09
-0.00108567
-1.55486e-09
-1.56331e-09
0.00108567
-0.00108566
-1.20387e-06
-1.6252e-09
2.80876e-09
0.00108566
-2.51938e-07
1.2065e-06
2.50822e-07
8.90065e-07
-2.5275e-07
-8.89717e-07
2.49741e-07
-0.00108532
-1.19848e-06
-1.67513e-09
2.80496e-09
0.00108532
-2.51927e-07
1.20108e-06
2.50838e-07
8.89911e-07
-2.55394e-07
-8.89581e-07
2.52447e-07
-0.000266764
1.23213e-06
1.19861e-06
-2.2992e-07
-2.35196e-07
0.000264799
1.54987e-09
1.69991e-09
-0.00108567
-1.60111e-09
-1.58008e-09
0.00108567
-0.00108566
-1.20386e-06
-1.72289e-09
2.78995e-09
0.00108566
-2.51915e-07
1.20651e-06
2.50839e-07
8.9008e-07
-2.52696e-07
-8.89693e-07
2.4979e-07
-0.00108532
-1.19846e-06
-1.7637e-09
2.77158e-09
0.00108532
-2.51902e-07
1.20109e-06
2.50857e-07
8.89916e-07
-2.55339e-07
-8.89568e-07
2.52496e-07
-0.000266764
1.23211e-06
1.19858e-06
-2.29894e-07
-2.3517e-07
0.000264798
1.67705e-09
1.80937e-09
-0.00108567
-1.65014e-09
-1.63117e-09
0.00108567
-0.00108566
-1.20383e-06
-1.80523e-09
2.74982e-09
0.00108566
-2.51892e-07
1.20654e-06
2.50867e-07
8.90123e-07
-2.52648e-07
-8.89659e-07
2.49843e-07
-0.00108532
-1.19844e-06
-1.83139e-09
2.75525e-09
0.00108532
-2.51878e-07
1.20111e-06
2.50888e-07
8.89959e-07
-2.55299e-07
-8.89534e-07
2.52547e-07
-0.000266764
1.23208e-06
1.19857e-06
-2.29867e-07
-2.35134e-07
0.000264798
1.96462e-09
2.0644e-09
-0.00108566
-1.74894e-09
-1.77699e-09
0.00108566
-0.00108566
-1.20378e-06
-2.03854e-09
2.58037e-09
0.00108566
-2.51832e-07
1.20661e-06
2.50954e-07
8.90212e-07
-2.52592e-07
-8.89606e-07
2.49944e-07
-0.00108532
-1.19838e-06
-1.96674e-09
2.67177e-09
0.00108532
-2.51824e-07
1.20118e-06
2.50952e-07
8.90043e-07
-2.55233e-07
-8.89477e-07
2.52633e-07
-0.000266764
1.23203e-06
1.19851e-06
-2.29811e-07
-2.35078e-07
0.000264798
2.25927e-09
2.30067e-09
-0.00108566
-1.84961e-09
-1.92669e-09
0.00108566
-0.00108566
-1.20373e-06
-2.35436e-09
2.34687e-09
0.00108566
-2.51777e-07
1.20671e-06
2.51062e-07
8.90328e-07
-2.52544e-07
-8.89559e-07
2.50054e-07
-0.00108532
-1.1983e-06
-2.45064e-09
2.43238e-09
0.00108532
-2.51756e-07
1.20131e-06
2.51065e-07
8.90231e-07
-2.55128e-07
-8.89338e-07
2.52793e-07
-0.000266763
1.23194e-06
1.19843e-06
-2.29728e-07
-2.34988e-07
0.000264797
2.07784e-10
1.66925e-10
-0.00108566
-9.13631e-10
-1.00912e-09
0.00108566
-0.00108566
-1.20415e-06
-1.43242e-10
3.27755e-09
0.00108566
-2.52263e-07
1.20622e-06
2.50514e-07
8.89565e-07
-2.5335e-07
-8.90299e-07
2.49173e-07
-0.00108532
-1.19887e-06
-1.5544e-10
3.41379e-09
0.00108532
-2.52378e-07
1.20077e-06
2.50499e-07
8.89395e-07
-2.56113e-07
-8.90222e-07
2.51835e-07
-0.000266763
1.23254e-06
1.19901e-06
-2.30439e-07
-2.3572e-07
0.000264797
1.22667e-09
1.56864e-09
-0.00108567
-1.51421e-09
-1.35277e-09
0.00108567
-0.00108566
-1.20396e-06
-1.67185e-09
2.95365e-09
0.00108566
-2.52035e-07
1.20653e-06
2.50868e-07
8.9012e-07
-2.52939e-07
-8.89811e-07
2.49748e-07
-0.00108532
-1.19847e-06
-1.90742e-09
2.71209e-09
0.00108532
-2.51917e-07
1.20117e-06
2.50955e-07
8.89993e-07
-2.55495e-07
-8.89632e-07
2.52508e-07
-0.000266764
1.23208e-06
1.19859e-06
-2.29914e-07
-2.35158e-07
0.000264799
1.63171e-09
1.74922e-09
-0.00108567
-1.64265e-09
-1.6514e-09
0.00108567
-0.00108566
-1.20386e-06
-1.76327e-09
2.70512e-09
0.00108566
-2.5193e-07
1.20658e-06
2.50913e-07
8.90135e-07
-2.52784e-07
-8.89757e-07
2.49829e-07
-0.00108532
-1.19848e-06
-1.76512e-09
2.75375e-09
0.00108532
-2.51943e-07
1.20114e-06
2.50907e-07
8.89961e-07
-2.55439e-07
-8.89634e-07
2.52515e-07
-0.000266764
1.23214e-06
1.19861e-06
-2.29927e-07
-2.352e-07
0.000264799
1.53651e-09
1.63975e-09
-0.00108567
-1.57985e-09
-1.60215e-09
0.00108567
-0.00108566
-1.20389e-06
-1.65566e-09
2.76401e-09
0.00108566
-2.51963e-07
1.20655e-06
2.50885e-07
8.90111e-07
-2.52816e-07
-8.89785e-07
2.49801e-07
-0.00108532
-1.1985e-06
-1.67856e-09
2.78773e-09
0.00108532
-2.51959e-07
1.20113e-06
2.50893e-07
8.8994e-07
-2.55465e-07
-8.8966e-07
2.52494e-07
-0.000266764
1.23216e-06
1.19863e-06
-2.29945e-07
-2.35223e-07
0.000264799
1.51699e-09
1.62528e-09
-0.00108567
-1.56974e-09
-1.58819e-09
0.00108567
-0.00108566
-1.20389e-06
-1.64104e-09
2.77855e-09
0.00108566
-2.51969e-07
1.20655e-06
2.5088e-07
8.90109e-07
-2.5282e-07
-8.89788e-07
2.49798e-07
-0.00108532
-1.1985e-06
-1.6728e-09
2.79621e-09
0.00108532
-2.51962e-07
1.20112e-06
2.5089e-07
8.89939e-07
-2.55466e-07
-8.89661e-07
2.52492e-07
-0.000266764
1.23216e-06
1.19863e-06
-2.29948e-07
-2.35225e-07
0.000264799
1.51259e-09
1.61806e-09
-0.00108567
-1.56474e-09
-1.58573e-09
0.00108567
-0.00108566
-1.2039e-06
-1.63944e-09
2.78144e-09
0.00108566
-2.5197e-07
1.20655e-06
2.50879e-07
8.90109e-07
-2.5282e-07
-8.89788e-07
2.49797e-07
-0.00108532
-1.1985e-06
-1.66605e-09
2.80144e-09
0.00108532
-2.51963e-07
1.20112e-06
2.50889e-07
8.89938e-07
-2.55468e-07
-8.89662e-07
2.5249e-07
-0.000266764
1.23216e-06
1.19864e-06
-2.29949e-07
-2.35226e-07
0.000264799
1.50568e-09
1.61167e-09
-0.00108567
-1.55997e-09
-1.58063e-09
0.00108567
-0.00108566
-1.2039e-06
-1.63711e-09
2.78415e-09
0.00108566
-2.51971e-07
1.20655e-06
2.50879e-07
8.90109e-07
-2.52822e-07
-8.89789e-07
2.49797e-07
-0.00108532
-1.19851e-06
-1.66238e-09
2.80737e-09
0.00108532
-2.51966e-07
1.20112e-06
2.50887e-07
8.89937e-07
-2.5547e-07
-8.89664e-07
2.52489e-07
-0.000266764
1.23216e-06
1.19864e-06
-2.29951e-07
-2.35227e-07
0.000264799
1.50569e-09
1.61485e-09
-0.00108567
-1.56206e-09
-1.57889e-09
0.00108567
-0.00108566
-1.2039e-06
-1.6365e-09
2.78621e-09
0.00108566
-2.5197e-07
1.20655e-06
2.50876e-07
8.90107e-07
-2.52817e-07
-8.89787e-07
2.49794e-07
-0.00108532
-1.1985e-06
-1.67172e-09
2.80412e-09
0.00108532
-2.51962e-07
1.20112e-06
2.50887e-07
8.89937e-07
-2.55466e-07
-8.8966e-07
2.52489e-07
-0.000266764
1.23216e-06
1.19863e-06
-2.29947e-07
-2.35223e-07
0.000264799
1.50907e-09
1.62022e-09
-0.00108567
-1.56609e-09
-1.58179e-09
0.00108567
-0.00108566
-1.20389e-06
-1.63786e-09
2.78344e-09
0.00108566
-2.51968e-07
1.20655e-06
2.50875e-07
8.90106e-07
-2.52818e-07
-8.89787e-07
2.49792e-07
-0.00108532
-1.19851e-06
-1.67247e-09
2.80151e-09
0.00108532
-2.51966e-07
1.20112e-06
2.50891e-07
8.89939e-07
-2.55469e-07
-8.89662e-07
2.52492e-07
-0.000266764
1.23216e-06
1.19864e-06
-2.29951e-07
-2.35226e-07
0.000264799
1.51152e-09
1.62178e-09
-0.00108567
-1.56538e-09
-1.58437e-09
0.00108567
-0.00108566
-1.20389e-06
-1.64678e-09
2.78004e-09
0.00108566
-2.51966e-07
1.20655e-06
2.50877e-07
8.90106e-07
-2.52814e-07
-8.89784e-07
2.49793e-07
-0.00108532
-1.1985e-06
-1.67327e-09
2.80214e-09
0.00108532
-2.51962e-07
1.20112e-06
2.50889e-07
8.89937e-07
-2.55465e-07
-8.8966e-07
2.52489e-07
-0.000266764
1.23216e-06
1.19863e-06
-2.29947e-07
-2.35223e-07
0.000264799
1.51342e-09
1.62732e-09
-0.00108567
-1.56935e-09
-1.58469e-09
0.00108567
-0.00108566
-1.20389e-06
-1.64636e-09
2.78176e-09
0.00108566
-2.51965e-07
1.20654e-06
2.50874e-07
8.90102e-07
-2.52806e-07
-8.89778e-07
2.49786e-07
-0.00108532
-1.1985e-06
-1.68066e-09
2.79634e-09
0.00108532
-2.51959e-07
1.20112e-06
2.50888e-07
8.89933e-07
-2.55458e-07
-8.89653e-07
2.52484e-07
-0.000266764
1.23216e-06
1.19863e-06
-2.29943e-07
-2.3522e-07
0.000264799
1.51351e-09
1.6266e-09
-0.00108567
-1.57011e-09
-1.58482e-09
0.00108567
-0.00108566
-1.20388e-06
-1.64379e-09
2.7814e-09
0.00108566
-2.51951e-07
1.20654e-06
2.50861e-07
8.90088e-07
-2.52786e-07
-8.89764e-07
2.49765e-07
-0.00108532
-1.1985e-06
-1.67628e-09
2.79646e-09
0.00108532
-2.51952e-07
1.20112e-06
2.50881e-07
8.89918e-07
-2.55445e-07
-8.8964e-07
2.5247e-07
-0.000266764
1.23215e-06
1.19863e-06
-2.29937e-07
-2.35213e-07
0.000264799
1.6196e-09
-0.00108567
-1.58244e-09
-0.00108532
-1.19848e-06
-1.66888e-09
-2.51928e-07
1.20109e-06
2.50851e-07
-2.55406e-07
2.52439e-07
-1.24005e-06
-1.20384e-06
0.00026678
-0.000264804
2.29959e-07
2.37765e-07
0.00108488
-1.51847e-09
2.9483e-09
-1.23747e-06
2.56171e-07
-2.57373e-07
-8.89698e-07
2.49636e-07
-2.52732e-07
8.89962e-07
1.2455e-06
0.00108532
-1.39445e-09
2.94415e-09
-1.24292e-06
2.5897e-07
-2.60156e-07
-8.95329e-07
2.52413e-07
-2.55594e-07
8.95537e-07
-1.2065e-06
0.000266809
-0.000264825
2.32753e-07
2.35041e-07
0.00108593
-1.61693e-09
2.80252e-09
-1.20126e-06
2.5362e-07
-2.54735e-07
-8.92456e-07
2.52493e-07
-2.55545e-07
8.92825e-07
1.2401e-06
0.00108499
-1.42663e-09
-0.00108499
2.9744e-09
-1.23755e-06
2.58943e-07
-2.60155e-07
-8.92448e-07
2.52407e-07
-2.55503e-07
8.92671e-07
-1.62899e-09
2.79367e-09
-1.20387e-06
2.50826e-07
-2.51935e-07
-8.89729e-07
2.49732e-07
8.90054e-07
-2.52764e-07
1.23471e-06
0.00108479
-1.45602e-09
-0.00108479
2.94626e-09
-1.23214e-06
2.5343e-07
-2.54583e-07
-8.89745e-07
2.49626e-07
-2.52741e-07
8.89975e-07
-1.20108e-06
0.000266759
-0.000264786
2.30165e-07
2.37553e-07
-1.65736e-09
-0.00108532
2.81071e-09
-1.19848e-06
2.50835e-07
-2.51931e-07
-8.89546e-07
2.52413e-07
8.89954e-07
-2.55428e-07
1.20117e-06
0.00108583
-1.46634e-09
-0.00108583
2.79933e-09
-1.19861e-06
2.50878e-07
-2.52002e-07
-8.89851e-07
2.52469e-07
-2.55546e-07
8.90169e-07
-0.000264799
2.3248e-07
2.37792e-07
1.23748e-06
1.20127e-06
-2.27409e-07
-2.35162e-07
0.000264804
-1.24006e-06
-1.20385e-06
0.00026678
-0.000264804
2.29977e-07
2.37789e-07
2.95793e-09
0.00108488
-2.57375e-07
1.24005e-06
2.56169e-07
8.89962e-07
-2.52728e-07
-8.89695e-07
2.49636e-07
-1.24292e-06
-1.37601e-09
2.94942e-09
0.00108532
-2.60158e-07
1.2455e-06
2.58968e-07
8.95548e-07
-2.55586e-07
-8.95317e-07
2.52417e-07
0.00108488
-1.58695e-09
-0.00108488
2.91505e-09
-1.23746e-06
2.56186e-07
-2.57352e-07
-8.89661e-07
2.49686e-07
-2.52674e-07
8.89989e-07
1.24551e-06
0.00108532
-1.45928e-09
-0.00108532
2.90642e-09
-1.2429e-06
2.58985e-07
-2.60134e-07
-8.9529e-07
2.52462e-07
-2.55536e-07
8.95562e-07
-2.30138e-07
-2.3244e-07
0.000264825
-1.20651e-06
0.000266809
-0.000264825
2.3277e-07
2.35064e-07
2.82285e-09
0.00108593
-2.5474e-07
1.20384e-06
2.53615e-07
8.92838e-07
-2.55538e-07
-8.92437e-07
2.52498e-07
-1.23754e-06
-1.44882e-09
2.9696e-09
0.00108499
-2.60151e-07
1.2401e-06
2.58945e-07
8.92682e-07
-2.55489e-07
-8.92434e-07
2.52421e-07
0.00108593
-1.70686e-09
-0.00108593
2.79226e-09
-1.20125e-06
2.53629e-07
-2.5472e-07
-8.92411e-07
2.52548e-07
-2.55481e-07
8.92855e-07
1.24012e-06
0.00108499
-1.51593e-09
-0.00108499
2.90421e-09
-1.23752e-06
2.58968e-07
-2.60122e-07
-8.9242e-07
2.52454e-07
-2.55446e-07
8.92684e-07
-1.48556e-09
2.93482e-09
0.00108479
-2.54578e-07
1.23471e-06
2.53433e-07
8.89986e-07
-2.5273e-07
2.4964e-07
-8.89731e-07
-1.72531e-09
-0.00108566
2.79393e-09
-1.20386e-06
2.50833e-07
-2.5192e-07
-8.89687e-07
2.49785e-07
8.90083e-07
-2.52699e-07
1.23472e-06
0.00108479
-1.56506e-09
-0.00108479
2.87541e-09
-1.23211e-06
2.53454e-07
-2.54551e-07
-8.89713e-07
2.49684e-07
-2.52677e-07
8.89993e-07
-2.27577e-07
-2.34969e-07
0.000264786
-1.20109e-06
0.000266759
-0.000264786
2.30182e-07
2.37582e-07
-1.49175e-09
2.78852e-09
0.00108583
-2.51998e-07
1.20118e-06
2.50881e-07
8.90182e-07
-2.55533e-07
2.52484e-07
-8.89836e-07
-1.77843e-09
-0.00108532
2.76623e-09
-1.19846e-06
2.50855e-07
-2.51903e-07
-8.89512e-07
2.52471e-07
8.89974e-07
-2.55363e-07
1.20119e-06
0.00108583
-1.58155e-09
-0.00108583
2.74824e-09
-1.19859e-06
2.50899e-07
-2.51973e-07
-8.89816e-07
2.52524e-07
-2.55483e-07
8.90189e-07
-0.000264799
2.32504e-07
2.37818e-07
1.23745e-06
1.20125e-06
-2.27386e-07
-2.35134e-07
0.000264804
-1.24009e-06
-1.20388e-06
0.00026678
-0.000264804
2.30011e-07
2.37823e-07
2.90947e-09
0.00108488
-2.57347e-07
1.24006e-06
2.56189e-07
8.89974e-07
-2.5267e-07
-8.89668e-07
2.49687e-07
-1.2429e-06
-1.45529e-09
2.90427e-09
0.00108532
-2.60131e-07
1.24551e-06
2.58988e-07
8.9556e-07
-2.55529e-07
-8.9529e-07
2.52469e-07
0.00108488
-1.71308e-09
-0.00108488
2.8439e-09
-1.23743e-06
2.56222e-07
-2.57319e-07
-8.89631e-07
2.49745e-07
-2.52626e-07
8.90034e-07
1.24555e-06
0.00108532
-1.57898e-09
-0.00108532
2.84397e-09
-1.24287e-06
2.59023e-07
-2.601e-07
-8.9527e-07
2.52519e-07
-2.55489e-07
8.95595e-07
-2.30115e-07
-2.32417e-07
0.000264825
-1.20653e-06
0.000266809
-0.000264825
2.32803e-07
2.35104e-07
2.79272e-09
0.00108593
-2.54716e-07
1.20385e-06
2.53633e-07
8.92853e-07
-2.55476e-07
-8.92408e-07
2.52554e-07
-1.23752e-06
-1.50618e-09
2.91723e-09
0.00108499
-2.6012e-07
1.24012e-06
2.58969e-07
8.9268e-07
-2.55446e-07
-8.92429e-07
2.52456e-07
0.00108593
-1.84282e-09
-0.00108593
2.74359e-09
-1.20123e-06
2.53665e-07
-2.54689e-07
-8.92386e-07
2.5261e-07
-2.55428e-07
8.92893e-07
1.24014e-06
0.00108499
-1.63693e-09
-0.00108499
2.84097e-09
-1.23749e-06
2.58998e-07
-2.60095e-07
-8.92371e-07
2.52517e-07
-2.55393e-07
8.92746e-07
-1.56211e-09
2.87632e-09
0.00108479
-2.54549e-07
1.23472e-06
2.53457e-07
8.8999e-07
-2.52675e-07
2.49687e-07
-8.89719e-07
-1.85378e-09
-0.00108566
2.73946e-09
-1.20383e-06
2.50866e-07
-2.5189e-07
-8.89661e-07
2.4985e-07
8.90124e-07
-2.52647e-07
1.23475e-06
0.00108479
-1.65431e-09
-0.00108479
2.81844e-09
-1.23208e-06
2.5349e-07
-2.54519e-07
-8.89686e-07
2.49734e-07
-2.52635e-07
8.90032e-07
-2.2756e-07
-2.34939e-07
0.000264786
-1.20112e-06
0.000266759
-0.000264785
2.30226e-07
2.37614e-07
-1.5766e-09
2.74841e-09
0.00108583
-2.51971e-07
1.20119e-06
2.50902e-07
8.90185e-07
-2.55483e-07
2.52526e-07
-8.89826e-07
-1.87596e-09
-0.00108532
2.71937e-09
-1.19843e-06
2.50888e-07
-2.51874e-07
-8.89482e-07
2.52524e-07
8.90017e-07
-2.55318e-07
1.20121e-06
0.00108583
-1.70728e-09
-0.00108583
2.70031e-09
-1.19856e-06
2.50929e-07
-2.51946e-07
-8.89768e-07
2.52584e-07
-2.55431e-07
8.90252e-07
-0.000264798
2.32537e-07
2.37859e-07
1.23742e-06
1.20122e-06
-2.27353e-07
-2.35102e-07
0.000264804
-1.24012e-06
-1.20391e-06
0.000266779
-0.000264803
2.30061e-07
2.37873e-07
2.84731e-09
0.00108488
-2.57317e-07
1.24009e-06
2.56223e-07
8.90039e-07
-2.5262e-07
-8.89618e-07
2.49748e-07
-1.24287e-06
-1.57194e-09
2.8593e-09
0.00108532
-2.601e-07
1.24554e-06
2.59022e-07
8.95608e-07
-2.55481e-07
-8.95257e-07
2.52525e-07
0.00108488
-1.91716e-09
-0.00108488
2.778e-09
-1.2374e-06
2.56264e-07
-2.57289e-07
-8.89587e-07
2.49805e-07
-2.52584e-07
8.90085e-07
1.24558e-06
0.00108531
-1.8027e-09
-0.00108532
2.77706e-09
-1.24285e-06
2.59062e-07
-2.60073e-07
-8.95214e-07
2.52586e-07
-2.55443e-07
8.95664e-07
-2.30085e-07
-2.32379e-07
0.000264825
-1.20657e-06
0.000266808
-0.000264824
2.32856e-07
2.35147e-07
2.75003e-09
0.00108593
-2.54687e-07
1.20388e-06
2.53666e-07
8.92901e-07
-2.55427e-07
-8.92373e-07
2.52611e-07
-1.2375e-06
-1.60338e-09
2.88946e-09
0.00108499
-2.60097e-07
1.24014e-06
2.58999e-07
8.92741e-07
-2.55394e-07
-8.92374e-07
2.52519e-07
0.00108593
-2.0571e-09
-0.00108593
2.65743e-09
-1.2012e-06
2.5371e-07
-2.54655e-07
-8.92336e-07
2.52675e-07
-2.55383e-07
8.92956e-07
1.24021e-06
0.00108499
-1.87911e-09
-0.00108499
2.71939e-09
-1.23745e-06
2.59075e-07
-2.60044e-07
-8.92334e-07
2.52603e-07
-2.55342e-07
8.92808e-07
-1.62361e-09
2.85347e-09
0.00108479
-2.54521e-07
1.23475e-06
2.53491e-07
8.9003e-07
-2.52637e-07
2.49736e-07
-8.89687e-07
-2.07588e-09
-0.00108566
2.65462e-09
-1.20381e-06
2.50915e-07
-2.51859e-07
-8.8961e-07
2.49912e-07
8.9019e-07
-2.52607e-07
1.23482e-06
0.00108479
-1.91726e-09
-0.00108479
2.69307e-09
-1.23204e-06
2.53561e-07
-2.54473e-07
-8.8963e-07
2.49829e-07
-2.52575e-07
8.90111e-07
-2.27522e-07
-2.34912e-07
0.000264785
-1.20118e-06
0.000266758
-0.000264785
2.30283e-07
2.37682e-07
-1.67371e-09
2.73492e-09
0.00108583
-2.51949e-07
1.20121e-06
2.50931e-07
8.90244e-07
-2.55434e-07
2.52586e-07
-8.89772e-07
-2.14409e-09
-0.00108532
2.5933e-09
-1.19839e-06
2.50959e-07
-2.51829e-07
-8.89425e-07
2.52621e-07
8.90097e-07
-2.55255e-07
1.20128e-06
0.00108583
-1.96937e-09
-0.00108583
2.58645e-09
-1.19852e-06
2.51002e-07
-2.51899e-07
-8.89724e-07
2.5268e-07
-2.55372e-07
8.90321e-07
-0.000264798
2.32599e-07
2.37919e-07
1.23738e-06
1.20118e-06
-2.27308e-07
-2.35057e-07
0.000264803
-1.2401e-06
-1.20392e-06
0.000266779
-0.000264803
2.30085e-07
2.37871e-07
2.72293e-09
0.00108488
-2.57268e-07
1.24016e-06
2.56301e-07
8.90109e-07
-2.5256e-07
-8.89577e-07
2.49846e-07
-1.24283e-06
-1.88444e-09
2.73326e-09
0.00108531
-2.60054e-07
1.24561e-06
2.59098e-07
8.95696e-07
-2.55414e-07
-8.95195e-07
2.52633e-07
0.00108488
-1.88212e-09
-0.00108488
2.84419e-09
-1.23744e-06
2.56259e-07
-2.57325e-07
-8.89594e-07
2.49837e-07
-2.5259e-07
8.90104e-07
1.24556e-06
0.00108531
-1.77032e-09
-0.00108531
2.84156e-09
-1.24289e-06
2.59057e-07
-2.6011e-07
-8.95222e-07
2.52624e-07
-2.55446e-07
8.95683e-07
-2.30032e-07
-2.3234e-07
0.000264824
-1.20659e-06
0.000266808
-0.000264824
2.3289e-07
2.35149e-07
2.587e-09
0.00108593
-2.54635e-07
1.20395e-06
2.53746e-07
8.92979e-07
-2.55366e-07
-8.9232e-07
2.5271e-07
-1.23744e-06
-1.75453e-09
2.82198e-09
0.00108499
-2.6004e-07
1.24021e-06
2.59068e-07
8.92811e-07
-2.55336e-07
-8.92333e-07
2.52601e-07
0.00108593
-2.00115e-09
-0.00108593
2.66726e-09
-1.20121e-06
2.53731e-07
-2.54669e-07
-8.92365e-07
2.52694e-07
-2.55402e-07
8.92954e-07
1.24028e-06
0.00108499
-2.08546e-09
-0.00108499
2.60797e-09
-1.23743e-06
2.59138e-07
-2.60032e-07
-8.92305e-07
2.52686e-07
-2.55315e-07
8.92897e-07
-1.768e-09
2.79708e-09
0.00108479
-2.5447e-07
1.23481e-06
2.53553e-07
8.9011e-07
-2.52575e-07
2.4982e-07
-8.89635e-07
-2.09329e-09
-0.00108566
2.62659e-09
-1.20381e-06
2.50955e-07
-2.51861e-07
-8.89638e-07
2.49949e-07
8.9021e-07
-2.52621e-07
1.23489e-06
0.00108478
-2.13302e-09
-0.00108478
2.5678e-09
-1.23202e-06
2.53633e-07
-2.54457e-07
-8.8961e-07
2.49914e-07
-2.5255e-07
8.90197e-07
-2.27467e-07
-2.34849e-07
0.000264785
-1.20124e-06
0.000266758
-0.000264784
2.30351e-07
2.37754e-07
-1.8004e-09
2.67282e-09
0.00108583
-2.51898e-07
1.20127e-06
2.50991e-07
8.9032e-07
-2.55371e-07
2.5267e-07
-8.89726e-07
-2.45938e-09
-0.00108532
2.48759e-09
-1.19838e-06
2.51025e-07
-2.51815e-07
-8.89363e-07
2.52732e-07
8.90224e-07
-2.55202e-07
1.20134e-06
0.00108583
-2.26344e-09
-0.00108583
2.49625e-09
-1.19851e-06
2.51065e-07
-2.5189e-07
-8.89674e-07
2.52784e-07
-2.55327e-07
8.90436e-07
-0.000264797
2.32664e-07
2.37995e-07
1.23737e-06
1.20114e-06
-2.27283e-07
-2.35061e-07
0.000264803
-1.23988e-06
-1.20374e-06
0.000266778
-0.000264802
2.29839e-07
2.37578e-07
2.59685e-09
0.00108488
-2.57256e-07
1.24022e-06
2.56371e-07
8.90214e-07
-2.52522e-07
-8.89541e-07
2.49948e-07
-1.24282e-06
-2.16871e-09
2.60683e-09
0.00108531
-2.6004e-07
1.24568e-06
2.5917e-07
8.95798e-07
-2.55372e-07
-8.95161e-07
2.52735e-07
0.00108487
-1.08552e-09
-0.00108487
3.37161e-09
-1.2376e-06
2.55975e-07
-2.57539e-07
-8.89807e-07
2.495e-07
-2.52826e-07
8.89807e-07
1.24529e-06
0.00108531
-1.00962e-09
-0.00108531
3.45998e-09
-1.24308e-06
2.58742e-07
-2.60354e-07
-8.95432e-07
2.52295e-07
-2.55677e-07
8.95388e-07
-2.30001e-07
-2.32336e-07
0.000264824
-1.20642e-06
0.000266808
-0.000264823
2.32641e-07
2.34803e-07
2.37111e-09
0.00108593
-2.5459e-07
1.20404e-06
2.5385e-07
8.93063e-07
-2.55344e-07
-8.92307e-07
2.52795e-07
-1.23735e-06
-2.18055e-09
2.60838e-09
0.00108499
-2.59979e-07
1.24034e-06
2.59176e-07
8.92969e-07
-2.5526e-07
-8.92234e-07
2.52739e-07
0.00108592
-8.26105e-10
-0.00108592
2.88739e-09
-1.20131e-06
2.53496e-07
-2.54836e-07
-8.92677e-07
2.52273e-07
-2.55724e-07
8.9256e-07
1.23974e-06
0.00108499
-3.04467e-10
-0.00108499
3.90225e-09
-1.2379e-06
2.5855e-07
-2.60568e-07
-8.92837e-07
2.51979e-07
-2.55925e-07
8.92288e-07
-2.21718e-09
2.57633e-09
0.00108478
-2.54399e-07
1.23495e-06
2.53671e-07
8.90275e-07
-2.52491e-07
2.49967e-07
-8.89533e-07
-6.24836e-10
-0.00108566
2.85452e-09
-1.20391e-06
2.50717e-07
-2.5203e-07
-8.90068e-07
2.49428e-07
8.89701e-07
-2.53037e-07
1.23437e-06
0.00108478
-1.79678e-10
-0.00108478
3.79454e-09
-1.23248e-06
2.53055e-07
-2.54984e-07
-8.90198e-07
2.49151e-07
-2.5321e-07
8.89527e-07
-2.27386e-07
-2.34764e-07
0.000264784
-1.20077e-06
0.000266758
-0.000264784
2.29786e-07
2.37123e-07
-2.28929e-09
2.4399e-09
0.00108583
-2.51829e-07
1.20141e-06
2.51107e-07
8.90511e-07
-2.55267e-07
2.52836e-07
-8.89593e-07
-2.07441e-10
-0.00108532
3.44542e-09
-1.19878e-06
2.5049e-07
-2.523e-07
-8.90023e-07
2.5191e-07
8.8948e-07
-2.55918e-07
1.20084e-06
0.00108583
-5.39223e-11
-0.00108583
3.46601e-09
-1.19894e-06
2.50515e-07
-2.52392e-07
-8.90302e-07
2.51981e-07
-2.56022e-07
8.89717e-07
-0.000264797
2.32072e-07
2.37379e-07
1.23782e-06
1.20156e-06
-2.27743e-07
-2.35553e-07
0.000264802
-1.24004e-06
-1.20377e-06
0.00026678
-0.000264804
2.29828e-07
2.37696e-07
3.6272e-09
0.00108488
-2.57776e-07
1.23971e-06
2.55794e-07
8.89509e-07
-2.53207e-07
-8.90155e-07
2.49147e-07
-1.2433e-06
-1.34802e-10
3.6522e-09
0.00108531
-2.60582e-07
1.24515e-06
2.58579e-07
8.95102e-07
-2.56046e-07
-8.95769e-07
2.51949e-07
0.00108488
-7.79452e-10
-0.00108488
3.04449e-09
-1.23762e-06
2.56163e-07
-2.57551e-07
-8.90063e-07
2.49372e-07
-2.53226e-07
8.89799e-07
1.24552e-06
0.00108532
-6.52171e-10
-0.00108532
2.97107e-09
-1.24304e-06
2.58984e-07
-2.6031e-07
-8.95693e-07
2.52146e-07
-2.56089e-07
8.95372e-07
-2.30461e-07
-2.32873e-07
0.000264823
-1.20642e-06
0.000266809
-0.000264825
2.32609e-07
2.35003e-07
3.33168e-09
0.00108593
-2.55082e-07
1.20354e-06
2.5329e-07
8.92329e-07
-2.56081e-07
-8.92976e-07
2.51957e-07
-1.23797e-06
-2.28287e-11
3.68529e-09
0.00108499
-2.60639e-07
1.23976e-06
2.58574e-07
8.92204e-07
-2.56158e-07
-8.93016e-07
2.51844e-07
0.00108593
-1.16864e-09
-0.00108593
3.18996e-09
-1.20148e-06
2.53549e-07
-2.54971e-07
-8.92736e-07
2.52304e-07
-2.55966e-07
8.92742e-07
1.24022e-06
0.00108499
-1.21418e-09
-0.00108499
2.62647e-09
-1.23753e-06
2.5909e-07
-2.60145e-07
-8.92658e-07
2.52319e-07
-2.55795e-07
8.92636e-07
-9.29948e-12
3.59481e-09
0.00108478
-2.55046e-07
1.23439e-06
2.53085e-07
8.8948e-07
-2.53431e-07
2.4904e-07
-8.90355e-07
-1.32253e-09
-0.00108566
3.21317e-09
-1.2041e-06
2.50736e-07
-2.5219e-07
-8.89936e-07
2.49586e-07
8.90029e-07
-2.53135e-07
1.23482e-06
0.00108479
-1.32805e-09
-0.00108479
2.66662e-09
-1.23214e-06
2.53564e-07
-2.54587e-07
-8.89922e-07
2.49565e-07
-2.53003e-07
8.89965e-07
-2.28075e-07
-2.35508e-07
0.000264784
-1.20114e-06
0.000266759
-0.000264786
2.30186e-07
2.37635e-07
-6.41974e-12
3.40246e-09
0.00108583
-2.52461e-07
1.20086e-06
2.50535e-07
8.89675e-07
-2.56242e-07
2.51877e-07
-8.90461e-07
-1.71313e-09
-0.00108532
2.78579e-09
-1.19854e-06
2.50914e-07
-2.51989e-07
-8.89683e-07
2.52389e-07
8.89984e-07
-2.55653e-07
1.20125e-06
0.00108583
-1.50514e-09
-0.00108583
2.73459e-09
-1.19865e-06
2.50971e-07
-2.52045e-07
-8.8999e-07
2.52443e-07
-2.55774e-07
8.902e-07
-0.000264799
2.32518e-07
2.37865e-07
1.23749e-06
1.20135e-06
-2.27519e-07
-2.35214e-07
0.000264804
-1.24014e-06
-1.20393e-06
0.00026678
-0.000264804
2.30045e-07
2.37854e-07
2.86787e-09
0.00108488
-2.57404e-07
1.24014e-06
2.56275e-07
8.89948e-07
-2.53008e-07
-8.89882e-07
2.49564e-07
-1.24292e-06
-1.12299e-09
2.81507e-09
0.00108532
-2.60169e-07
1.24561e-06
2.59089e-07
8.95526e-07
-2.5587e-07
-8.95508e-07
2.52339e-07
0.00108488
-1.68268e-09
-0.00108488
2.82666e-09
-1.23745e-06
2.5628e-07
-2.57343e-07
-8.897e-07
2.49744e-07
-2.52748e-07
8.90065e-07
1.24559e-06
0.00108532
-1.54957e-09
-0.00108532
2.82718e-09
-1.24289e-06
2.59078e-07
-2.60126e-07
-8.95337e-07
2.52517e-07
-2.55615e-07
8.95633e-07
-2.30256e-07
-2.3247e-07
0.000264825
-1.20659e-06
0.000266809
-0.000264825
2.32838e-07
2.35131e-07
2.94917e-09
0.00108593
-2.54826e-07
1.20388e-06
2.53668e-07
8.92878e-07
-2.55751e-07
-8.92558e-07
2.52487e-07
-1.23748e-06
-1.47038e-09
2.63399e-09
0.00108499
-2.60081e-07
1.24024e-06
2.59117e-07
8.92721e-07
-2.55649e-07
-8.92541e-07
2.5243e-07
0.00108593
-1.81214e-09
-0.00108593
2.69641e-09
-1.20124e-06
2.53724e-07
-2.54714e-07
-8.92456e-07
2.52611e-07
-2.55547e-07
8.92925e-07
1.24017e-06
0.00108499
-1.57381e-09
-0.00108499
2.87366e-09
-1.23753e-06
2.59034e-07
-2.60141e-07
-8.92472e-07
2.52495e-07
-2.55535e-07
8.92753e-07
-1.56113e-09
2.63609e-09
0.00108479
-2.54518e-07
1.23484e-06
2.53597e-07
8.90036e-07
-2.52868e-07
2.49664e-07
-8.8982e-07
-1.82317e-09
-0.00108566
2.68795e-09
-1.20385e-06
2.5093e-07
-2.51914e-07
-8.89744e-07
2.49847e-07
8.90147e-07
-2.52771e-07
1.23478e-06
0.00108479
-1.60277e-09
-0.00108479
2.84024e-09
-1.23212e-06
2.53523e-07
-2.54568e-07
-8.89775e-07
2.49715e-07
-2.52772e-07
8.90048e-07
-2.27583e-07
-2.34922e-07
0.000264786
-1.20115e-06
0.000266759
-0.000264786
2.3023e-07
2.37621e-07
-1.73026e-09
2.66274e-09
0.00108583
-2.51977e-07
1.20128e-06
2.51006e-07
8.90271e-07
-2.55633e-07
2.52543e-07
-8.89876e-07
-1.8315e-09
-0.00108532
2.73241e-09
-1.19847e-06
2.50919e-07
-2.51928e-07
-8.89569e-07
2.5251e-07
8.9003e-07
-2.55447e-07
1.20124e-06
0.00108583
-1.64439e-09
-0.00108583
2.71566e-09
-1.1986e-06
2.50959e-07
-2.52001e-07
-8.89866e-07
2.52565e-07
-2.55564e-07
8.90252e-07
-0.000264799
2.32544e-07
2.37862e-07
1.23746e-06
1.20125e-06
-2.27391e-07
-2.35145e-07
0.000264804
-1.2401e-06
-1.2039e-06
0.00026678
-0.000264804
2.30008e-07
2.37811e-07
2.86342e-09
0.00108488
-2.57367e-07
1.24012e-06
2.56256e-07
8.90046e-07
-2.52752e-07
-8.89715e-07
2.49732e-07
-1.24291e-06
-1.52892e-09
2.87032e-09
0.00108532
-2.60153e-07
1.24557e-06
2.59053e-07
8.95624e-07
-2.55614e-07
-8.95344e-07
2.52511e-07
0.00108488
-1.58042e-09
-0.00108488
2.92236e-09
-1.23749e-06
2.5623e-07
-2.57401e-07
-8.89738e-07
2.49713e-07
-2.52775e-07
8.90031e-07
1.24555e-06
0.00108532
-1.4554e-09
-0.00108532
2.92772e-09
-1.24294e-06
2.59027e-07
-2.60186e-07
-8.95369e-07
2.52491e-07
-2.55636e-07
8.95603e-07
-2.30121e-07
-2.32427e-07
0.000264825
-1.20656e-06
0.000266809
-0.000264825
2.32803e-07
2.35085e-07
2.71821e-09
0.00108593
-2.54731e-07
1.20392e-06
2.53706e-07
8.92909e-07
-2.55561e-07
-8.92468e-07
2.52594e-07
-1.23755e-06
-1.54255e-09
2.92918e-09
0.00108499
-2.60166e-07
1.24016e-06
2.59012e-07
8.92745e-07
-2.5554e-07
-8.92481e-07
2.52488e-07
0.00108593
-1.66592e-09
-0.00108593
2.75957e-09
-1.20128e-06
2.53684e-07
-2.54759e-07
-8.92502e-07
2.52569e-07
-2.55587e-07
8.92885e-07
1.24014e-06
0.00108499
-1.49029e-09
-0.00108499
2.96363e-09
-1.23757e-06
2.58998e-07
-2.60186e-07
-8.925e-07
2.52474e-07
-2.55556e-07
8.92729e-07
-1.57243e-09
2.88396e-09
0.00108479
-2.5459e-07
1.23477e-06
2.53505e-07
8.90039e-07
-2.52781e-07
2.49705e-07
-8.89786e-07
-1.67403e-09
-0.00108566
2.75215e-09
-1.20388e-06
2.50889e-07
-2.51959e-07
-8.89781e-07
2.49805e-07
8.90115e-07
-2.52813e-07
1.23475e-06
0.00108479
-1.51262e-09
-0.00108479
2.93213e-09
-1.23216e-06
2.53487e-07
-2.54612e-07
-8.89802e-07
2.49693e-07
-2.52794e-07
8.90025e-07
-2.27582e-07
-2.34974e-07
0.000264786
-1.20113e-06
0.000266759
-0.000264786
2.30209e-07
2.37591e-07
-1.59288e-09
2.73509e-09
0.00108583
-2.52016e-07
1.20123e-06
2.50947e-07
8.9024e-07
-2.55576e-07
2.52552e-07
-8.89873e-07
-1.69735e-09
-0.00108532
2.78021e-09
-1.1985e-06
2.50896e-07
-2.51957e-07
-8.89606e-07
2.52477e-07
8.89998e-07
-2.55482e-07
1.20122e-06
0.00108583
-1.51322e-09
-0.00108583
2.77038e-09
-1.19863e-06
2.50935e-07
-2.52032e-07
-8.89899e-07
2.52532e-07
-2.55598e-07
8.90221e-07
-0.000264799
2.32521e-07
2.37832e-07
1.2375e-06
1.20128e-06
-2.27423e-07
-2.35181e-07
0.000264804
-1.24009e-06
-1.20389e-06
0.00026678
-0.000264804
2.30002e-07
2.37807e-07
2.93066e-09
0.00108488
-2.57405e-07
1.24009e-06
2.56226e-07
8.90018e-07
-2.52782e-07
-8.89749e-07
2.49705e-07
-1.24295e-06
-1.43977e-09
2.93533e-09
0.00108532
-2.6019e-07
1.24555e-06
2.59023e-07
8.95599e-07
-2.55639e-07
-8.95374e-07
2.52487e-07
0.00108488
-1.54802e-09
-0.00108488
2.93532e-09
-1.2375e-06
2.56226e-07
-2.57407e-07
-8.89746e-07
2.49706e-07
-2.52783e-07
8.90023e-07
1.24555e-06
0.00108532
-1.42265e-09
-0.00108532
2.93925e-09
-1.24295e-06
2.59023e-07
-2.60191e-07
-8.95378e-07
2.52484e-07
-2.55644e-07
8.95595e-07
-2.30152e-07
-2.32462e-07
0.000264825
-1.20655e-06
0.000266809
-0.000264825
2.32796e-07
2.35081e-07
2.777e-09
0.00108593
-2.54764e-07
1.20389e-06
2.53678e-07
8.92882e-07
-2.55595e-07
-8.92503e-07
2.52564e-07
-1.23757e-06
-1.48052e-09
2.97492e-09
0.00108499
-2.60189e-07
1.24014e-06
2.58994e-07
8.92727e-07
-2.55556e-07
-8.92502e-07
2.52473e-07
0.00108593
-1.63986e-09
-0.00108593
2.78058e-09
-1.20129e-06
2.53677e-07
-2.54767e-07
-8.92508e-07
2.52564e-07
-2.55594e-07
8.92879e-07
1.24014e-06
0.00108499
-1.46984e-09
-0.00108499
2.96488e-09
-1.23757e-06
2.58996e-07
-2.60188e-07
-8.92505e-07
2.5247e-07
-2.5556e-07
8.92724e-07
-1.50899e-09
2.93411e-09
0.00108479
-2.54614e-07
1.23475e-06
2.53485e-07
8.90023e-07
-2.52796e-07
2.49691e-07
-8.89805e-07
-1.64716e-09
-0.00108566
2.77483e-09
-1.20389e-06
2.50881e-07
-2.51968e-07
-8.89786e-07
2.498e-07
8.9011e-07
-2.52819e-07
1.23475e-06
0.00108479
-1.49127e-09
-0.00108479
2.9364e-09
-1.23216e-06
2.53484e-07
-2.54615e-07
-8.89807e-07
2.49689e-07
-2.52798e-07
8.9002e-07
-2.27599e-07
-2.34997e-07
0.000264786
-1.20112e-06
0.000266759
-0.000264786
2.30204e-07
2.37589e-07
-1.50152e-09
2.77104e-09
0.00108583
-2.52034e-07
1.20122e-06
2.50932e-07
8.90219e-07
-2.55601e-07
2.52529e-07
-8.89901e-07
-1.68374e-09
-0.00108532
2.79259e-09
-1.1985e-06
2.50891e-07
-2.51961e-07
-8.89609e-07
2.52473e-07
8.89995e-07
-2.55486e-07
1.20122e-06
0.00108583
-1.49575e-09
-0.00108583
2.78174e-09
-1.19863e-06
2.5093e-07
-2.52036e-07
-8.89901e-07
2.52527e-07
-2.55603e-07
8.90217e-07
-0.000264799
2.32516e-07
2.37828e-07
1.2375e-06
1.20129e-06
-2.27428e-07
-2.35183e-07
0.000264804
-1.24009e-06
-1.20389e-06
0.00026678
-0.000264804
2.30001e-07
2.37806e-07
2.93751e-09
0.00108488
-2.57408e-07
1.24009e-06
2.56223e-07
8.90014e-07
-2.52786e-07
-8.89753e-07
2.49701e-07