/*--------------------------------*- C++ -*----------------------------------*\
| =========                 |                                                 |
| \\      /  F ield         | OpenFOAM: The Open Source CFD Toolbox           |
|  \\    /   O peration     | Version:  2206                                  |
|   \\  /    A nd           | Website:  www.openfoam.com                      |
|    \\/     M anipulation  |                                                 |
\*---------------------------------------------------------------------------*/
FoamFile
{
    version     2.0;
    format      ascii;
    arch        "LSB;label=32;scalar=64";
    class       surfaceScalarField;
    location    "26.5";
    object      phi;
}
// * * * * * * * * * * * * * * * * * * * * * * * * * * * * * * * * * * * * * //

dimensions      [0 3 -1 0 0 0 0];

oriented        oriented;

internalField   nonuniform List<scalar> 
83378
(
-0.00108419
-1.20136e-06
-1.55497e-09
2.68947e-09
0.00108419
-2.50019e-07
1.20391e-06
2.48946e-07
8.86848e-07
-2.49869e-07
-8.86568e-07
2.46972e-07
1.22959e-06
1.1961e-06
-2.28614e-07
-2.33884e-07
0.000264465
1.54011e-09
1.57478e-09
-0.00108411
-1.48617e-09
-1.56941e-09
0.00108411
-0.00108419
-1.20134e-06
-1.67506e-09
2.61693e-09
0.00108419
-2.49981e-07
1.20393e-06
2.48972e-07
8.8688e-07
-2.498e-07
-8.86521e-07
2.4703e-07
-0.00108385
-1.19597e-06
-1.65466e-09
2.70736e-09
0.00108385
-2.49998e-07
1.19849e-06
2.48962e-07
8.86707e-07
-2.52463e-07
-8.86399e-07
2.49706e-07
-0.000266428
1.22957e-06
1.19608e-06
-2.28585e-07
-2.33864e-07
0.000264465
1.65856e-09
1.6922e-09
-0.00108411
-1.53633e-09
-1.61213e-09
0.00108411
-0.00108419
-1.20131e-06
-1.76294e-09
2.58598e-09
0.00108419
-2.49949e-07
1.20395e-06
2.49014e-07
8.86921e-07
-2.49757e-07
-8.86492e-07
2.47086e-07
-0.00108385
-1.19595e-06
-1.79079e-09
2.65377e-09
0.00108385
-2.49965e-07
1.19852e-06
2.48997e-07
8.86753e-07
-2.52407e-07
-8.8637e-07
2.49777e-07
-0.000266428
1.22954e-06
1.19605e-06
-2.28551e-07
-2.33827e-07
0.000264465
1.90377e-09
1.97701e-09
-0.00108411
-1.69e-09
-1.70885e-09
0.00108411
-0.00108419
-1.20126e-06
-1.92892e-09
2.51626e-09
0.00108419
-2.49905e-07
1.20402e-06
2.49073e-07
8.86999e-07
-2.49684e-07
-8.86434e-07
2.47179e-07
-0.00108385
-1.1959e-06
-2.02447e-09
2.53214e-09
0.00108385
-2.49923e-07
1.19857e-06
2.49058e-07
8.86811e-07
-2.52357e-07
-8.86324e-07
2.49844e-07
-0.000266428
1.2295e-06
1.19601e-06
-2.2851e-07
-2.33786e-07
0.000264465
2.18238e-09
2.20251e-09
-0.00108411
-1.85674e-09
-1.80004e-09
0.00108411
-0.00108419
-1.20116e-06
-2.31118e-09
2.28548e-09
0.00108418
-2.49826e-07
1.20416e-06
2.49198e-07
8.87143e-07
-2.49621e-07
-8.86362e-07
2.47305e-07
-0.00108384
-1.19589e-06
-2.2098e-09
2.41978e-09
0.00108384
-2.49872e-07
1.19861e-06
2.49122e-07
8.86884e-07
-2.52344e-07
-8.86316e-07
2.49918e-07
-0.000266427
1.22944e-06
1.19599e-06
-2.28502e-07
-2.33746e-07
0.000264464
-3.57274e-11
9.29869e-10
-0.00108411
-1.26496e-09
-8.11301e-10
0.00108411
-0.00108418
-1.20173e-06
-1.70957e-10
3.27824e-09
0.00108419
-2.50458e-07
1.2036e-06
2.48597e-07
8.86273e-07
-2.50485e-07
-8.8711e-07
2.46305e-07
-0.00108384
-1.19603e-06
-6.45602e-10
2.71573e-09
0.00108384
-2.50073e-07
1.19837e-06
2.48797e-07
8.86239e-07
-2.528e-07
-8.86798e-07
2.49214e-07
-0.000266427
1.22989e-06
1.19647e-06
-2.29037e-07
-2.34251e-07
0.000264464
1.62678e-09
1.18611e-09
-0.00108411
-1.29589e-09
-1.68654e-09
0.00108411
-0.00108419
-1.20117e-06
-1.81884e-09
2.16675e-09
0.00108419
-2.49815e-07
1.20392e-06
2.49006e-07
8.86255e-07
-2.48894e-07
-8.85999e-07
2.45663e-07
-0.00108385
-1.19599e-06
-1.43816e-09
2.71733e-09
0.00108385
-2.50021e-07
1.19836e-06
2.48841e-07
8.85986e-07
-2.5173e-07
-8.85971e-07
2.48194e-07
-0.000266428
1.22945e-06
1.19591e-06
-2.28375e-07
-2.33695e-07
0.000264465
1.38905e-09
1.48387e-09
-0.00108411
-1.78533e-09
-1.82032e-09
0.00108411
-0.00108419
-1.20048e-06
-1.50578e-09
2.42561e-09
0.00108419
-2.48729e-07
1.20288e-06
2.47245e-07
8.84363e-07
-2.45903e-07
-8.8414e-07
2.43104e-07
-0.00108385
-1.19507e-06
-1.54123e-09
2.40143e-09
0.00108385
-2.48661e-07
1.19749e-06
2.47254e-07
8.84188e-07
-2.48546e-07
-8.84026e-07
2.45793e-07
-0.000266429
1.22871e-06
1.19521e-06
-2.26833e-07
-2.32118e-07
0.000264465
-3.0116e-09
-2.908e-09
-0.00108411
2.7252e-10
2.86644e-10
0.00108411
-0.00108419
-1.20063e-06
2.90184e-09
4.31498e-09
0.00108419
-2.48646e-07
1.20252e-06
2.47062e-07
8.85649e-07
-2.4729e-07
-8.86972e-07
2.42348e-07
-0.00108385
-1.19524e-06
2.87652e-09
4.3088e-09
0.00108385
-2.48609e-07
1.19711e-06
2.47049e-07
8.85469e-07
-2.49926e-07
-8.86824e-07
2.45024e-07
-0.00026643
1.22885e-06
1.19536e-06
-2.26795e-07
-2.32068e-07
0.000264464
-6.66869e-09
-6.56252e-09
-0.00108411
5.44573e-10
5.92408e-10
0.00108412
-0.00108419
-1.19871e-06
6.56184e-09
6.16267e-09
0.00108419
-2.44937e-07
1.2e-06
2.4275e-07
8.7927e-07
-2.38512e-07
-8.81446e-07
2.33071e-07
-0.00108385
-1.19333e-06
6.52751e-09
6.16399e-09
0.00108385
-2.44939e-07
1.19459e-06
2.4277e-07
8.79092e-07
-2.41203e-07
-8.81258e-07
2.35746e-07
-0.000266433
1.22694e-06
1.19344e-06
-2.2212e-07
-2.27389e-07
0.000264462
-9.38307e-10
-7.55868e-10
-0.00108411
-3.48834e-09
-8.49181e-09
0.00108412
-0.0010842
-1.19421e-06
5.82332e-09
2.42961e-09
0.0010842
-2.38861e-07
1.19591e-06
2.3961e-07
8.7147e-07
-2.28324e-07
-8.74965e-07
2.18932e-07
-0.00108387
-1.18614e-06
7.54329e-10
7.42437e-09
0.00108387
-2.38795e-07
1.18783e-06
2.36892e-07
8.6862e-07
-2.2827e-07
-8.72097e-07
2.21646e-07
-0.000266443
1.22508e-06
1.18892e-06
-2.11645e-07
-2.16858e-07
0.000264458
8.22312e-07
8.29282e-07
-0.00108397
-7.0577e-07
-6.95662e-07
0.00108372
-0.00108446
-1.09798e-06
-8.23487e-07
-3.62254e-07
0.00108477
-1.55538e-07
1.35346e-06
3.29673e-07
1.01426e-06
-1.18309e-07
-7.62969e-07
3.15252e-07
-0.00108414
-1.08979e-06
-8.34158e-07
-3.73138e-07
0.00108446
-1.55393e-07
1.34819e-06
3.32525e-07
1.01132e-06
-1.23717e-07
-7.60072e-07
3.17969e-07
-0.00026652
1.13152e-06
1.08996e-06
-1.22229e-07
-1.24754e-07
0.000264545
4.96399e-06
4.95735e-06
-0.00107003
-1.05788e-05
-1.04818e-05
0.000259737
0.000263131
0.000262208
0.000262209
4.02547e-06
6.3086e-06
6.60463e-06
4.0292e-06
6.30935e-06
6.60798e-06
-0.000268218
5.12609e-06
-4.95471e-06
5.71938e-06
-3.25422e-06
0.000265582
-0.000268195
-4.95692e-06
5.1313e-06
-3.26211e-06
5.71643e-06
0.000265566
-0.000266967
-5.12309e-06
-5.13412e-06
5.73852e-06
5.72666e-06
0.000265759
1.24286e-06
0.00108384
-1.24036e-06
2.57086e-07
-2.58226e-07
2.49648e-07
-2.52697e-07
-1.20391e-06
0.000266473
-0.000264491
2.3136e-07
2.33648e-07
-1.20136e-06
2.4895e-07
-2.50014e-07
2.46964e-07
-2.49876e-07
-1.23741e-06
-1.20127e-06
0.000266444
-0.00026447
2.286e-07
2.36369e-07
2.83922e-09
0.00108341
-2.5545e-07
2.54284e-07
8.86751e-07
-2.49843e-07
-8.86537e-07
2.4687e-07
-1.24036e-06
-1.33752e-09
2.83614e-09
0.00108384
-2.58232e-07
1.24286e-06
2.57083e-07
8.92329e-07
-2.52691e-07
-8.92151e-07
2.49655e-07
0.00108341
-1.57096e-09
-0.00108341
2.8463e-09
-1.23492e-06
2.5429e-07
-2.55439e-07
-8.86479e-07
2.46934e-07
-2.49774e-07
8.86802e-07
1.24287e-06
0.00108384
-1.43834e-09
-0.00108384
2.76351e-09
-1.24034e-06
2.57108e-07
-2.582e-07
-8.92108e-07
2.49708e-07
-2.52629e-07
8.9236e-07
-2.28826e-07
-2.31129e-07
0.000264491
-1.20392e-06
0.000266473
-0.000264491
2.31383e-07
2.33666e-07
0.00108446
-1.56079e-09
-0.00108446
2.63693e-09
-1.19873e-06
2.51757e-07
-2.52789e-07
-8.89262e-07
2.49761e-07
-2.52615e-07
8.89632e-07
1.23747e-06
0.00108352
-1.39782e-09
-0.00108352
2.84892e-09
-1.23498e-06
2.57062e-07
-2.58217e-07
-8.89259e-07
2.49665e-07
-2.52579e-07
8.89476e-07
-1.43047e-09
2.82869e-09
0.00108332
-2.52656e-07
1.23208e-06
2.51552e-07
8.86763e-07
-2.49854e-07
2.4686e-07
-8.86587e-07
-1.66485e-09
-0.00108419
2.62112e-09
-1.20134e-06
2.48971e-07
-2.49987e-07
-8.86523e-07
2.47022e-07
8.86879e-07
-2.49811e-07
1.23208e-06
0.00108332
-1.52368e-09
-0.00108332
2.81732e-09
-1.22958e-06
2.51561e-07
-2.52645e-07
-8.86541e-07
2.46915e-07
-2.49794e-07
8.86798e-07
-1.19849e-06
0.000266423
-0.000264452
2.28777e-07
2.36164e-07
-1.4001e-09
2.66726e-09
0.00108436
-2.50078e-07
1.19859e-06
2.49002e-07
8.86949e-07
-2.52661e-07
2.4969e-07
-8.86689e-07
-1.65313e-09
-0.00108385
2.71589e-09
-1.19597e-06
2.48958e-07
-2.50006e-07
-8.86354e-07
2.49674e-07
8.86763e-07
-2.52502e-07
1.1986e-06
0.00108436
-1.47131e-09
-0.00108436
2.61733e-09
-1.19608e-06
2.49018e-07
-2.5006e-07
-8.86651e-07
2.4974e-07
-2.52605e-07
8.8698e-07
-0.000264465
2.3111e-07
2.36403e-07
1.23491e-06
1.19873e-06
-2.26065e-07
-2.33832e-07
0.00026447
-1.23743e-06
-1.20129e-06
0.000266444
-0.00026447
2.28626e-07
2.36402e-07
2.84645e-09
0.00108341
-2.55434e-07
1.23741e-06
2.54294e-07
8.86778e-07
-2.4977e-07
-8.8649e-07
2.46931e-07
-1.24034e-06
-1.44761e-09
2.75389e-09
0.00108384
-2.58193e-07
1.24288e-06
2.57111e-07
8.92358e-07
-2.52621e-07
-8.92106e-07
2.49712e-07
0.00108341
-1.68698e-09
-0.00108341
2.79432e-09
-1.23489e-06
2.54324e-07
-2.55408e-07
-8.86463e-07
2.46988e-07
-2.49727e-07
8.86831e-07
1.24291e-06
0.00108384
-1.54751e-09
-0.00108384
2.69275e-09
-1.24031e-06
2.57148e-07
-2.58163e-07
-8.92086e-07
2.4976e-07
-2.52582e-07
8.92391e-07
-2.28795e-07
-2.311e-07
0.000264491
-1.20395e-06
0.000266473
-0.000264491
2.31421e-07
2.33708e-07
2.62817e-09
0.00108446
-2.5278e-07
1.20127e-06
2.51762e-07
8.89635e-07
-2.52605e-07
-8.89251e-07
2.49772e-07
-1.23497e-06
-1.43433e-09
2.84428e-09
0.00108352
-2.58207e-07
1.23747e-06
2.57068e-07
8.89481e-07
-2.52559e-07
-8.89248e-07
2.49678e-07
0.00108446
-1.65605e-09
-0.00108446
2.58709e-09
-1.19871e-06
2.51787e-07
-2.52758e-07
-8.89254e-07
2.4981e-07
-2.52572e-07
8.89644e-07
1.23748e-06
0.00108352
-1.47198e-09
-0.00108352
2.80406e-09
-1.23496e-06
2.57087e-07
-2.58189e-07
-8.89252e-07
2.49704e-07
-2.52542e-07
8.89488e-07
-1.53632e-09
2.81562e-09
0.00108332
-2.52638e-07
1.23208e-06
2.51564e-07
8.86796e-07
-2.49783e-07
2.46922e-07
-8.86539e-07
-1.78789e-09
-0.00108419
2.56229e-09
-1.20131e-06
2.49008e-07
-2.49954e-07
-8.86497e-07
2.47079e-07
8.86915e-07
-2.49758e-07
1.23211e-06
0.00108332
-1.6491e-09
-0.00108332
2.75926e-09
-1.22956e-06
2.51598e-07
-2.52612e-07
-8.86521e-07
2.46977e-07
-2.49742e-07
8.8683e-07
-2.26262e-07
-2.33636e-07
0.000264452
-1.1985e-06
0.000266423
-0.000264452
2.288e-07
2.36195e-07
-1.46457e-09
2.60651e-09
0.00108436
-2.50051e-07
1.1986e-06
2.49023e-07
8.86975e-07
-2.52596e-07
2.49744e-07
-8.86649e-07
-1.76643e-09
-0.00108385
2.67937e-09
-1.19596e-06
2.48982e-07
-2.49981e-07
-8.86339e-07
2.4973e-07
8.86785e-07
-2.52449e-07
1.19863e-06
0.00108436
-1.60553e-09
-0.00108436
2.55028e-09
-1.19606e-06
2.49055e-07
-2.50026e-07
-8.8662e-07
2.49801e-07
-2.52555e-07
8.87025e-07
-0.000264465
2.31144e-07
2.36439e-07
1.23489e-06
1.1987e-06
-2.26038e-07
-2.338e-07
0.00026447
-1.23747e-06
-1.20133e-06
0.000266444
-0.00026447
2.28685e-07
2.36452e-07
2.78491e-09
0.00108341
-2.55401e-07
1.23744e-06
2.54328e-07
8.86836e-07
-2.4972e-07
-8.86451e-07
2.46992e-07
-1.24031e-06
-1.53229e-09
2.71542e-09
0.00108384
-2.58159e-07
1.2429e-06
2.57153e-07
8.92398e-07
-2.52578e-07
-8.92079e-07
2.4977e-07
0.00108341
-1.94077e-09
-0.00108341
2.70634e-09
-1.23486e-06
2.54369e-07
-2.55368e-07
-8.86396e-07
2.47066e-07
-2.49666e-07
8.86904e-07
1.24296e-06
0.00108384
-1.8242e-09
-0.00108384
2.57751e-09
-1.24027e-06
2.5721e-07
-2.58116e-07
-8.92021e-07
2.49865e-07
-2.5251e-07
8.92477e-07
-2.2876e-07
-2.31065e-07
0.000264491
-1.20401e-06
0.000266473
-0.000264491
2.31483e-07
2.33771e-07
2.5731e-09
0.00108446
-2.52747e-07
1.2013e-06
2.51802e-07
8.89666e-07
-2.52557e-07
-8.89232e-07
2.49825e-07
-1.23495e-06
-1.56297e-09
2.78101e-09
0.00108352
-2.58173e-07
1.2375e-06
2.57107e-07
8.89526e-07
-2.52513e-07
-8.8922e-07
2.49739e-07
0.00108445
-1.83838e-09
-0.00108445
2.51066e-09
-1.19868e-06
2.51839e-07
-2.52715e-07
-8.89201e-07
2.49869e-07
-2.5252e-07
8.89705e-07
1.23752e-06
0.00108352
-1.61968e-09
-0.00108352
2.75251e-09
-1.23493e-06
2.57135e-07
-2.58148e-07
-8.892e-07
2.49778e-07
-2.52479e-07
8.89547e-07
-1.64812e-09
2.74919e-09
0.00108331
-2.52601e-07
1.23212e-06
2.51604e-07
8.86841e-07
-2.49729e-07
2.46984e-07
-8.86506e-07
-2.04909e-09
-0.00108419
2.43564e-09
-1.20127e-06
2.49072e-07
-2.49905e-07
-8.86435e-07
2.47182e-07
8.86997e-07
-2.49689e-07
1.23215e-06
0.00108331
-1.88472e-09
-0.00108331
2.67552e-09
-1.22952e-06
2.51642e-07
-2.52573e-07
-8.86465e-07
2.47046e-07
-2.49687e-07
8.86893e-07
-2.26237e-07
-2.33605e-07
0.000264452
-1.19854e-06
0.000266423
-0.000264452
2.28852e-07
2.36242e-07
-1.60851e-09
2.54616e-09
0.00108436
-2.50016e-07
1.19863e-06
2.4906e-07
8.87038e-07
-2.52539e-07
2.4981e-07
-8.86598e-07
-1.94731e-09
-0.00108385
2.62628e-09
-1.19592e-06
2.49026e-07
-2.49941e-07
-8.86288e-07
2.49803e-07
8.86846e-07
-2.52387e-07
1.19867e-06
0.00108436
-1.83562e-09
-0.00108436
2.46751e-09
-1.19602e-06
2.491e-07
-2.49986e-07
-8.86573e-07
2.49866e-07
-2.52502e-07
8.87076e-07
-0.000264465
2.31196e-07
2.36491e-07
1.23484e-06
1.19866e-06
-2.25989e-07
-2.33752e-07
0.00026447
-1.2375e-06
-1.2013e-06
0.000266443
-0.000264469
2.28677e-07
2.36509e-07
2.62606e-09
0.00108341
-2.55349e-07
1.23751e-06
2.54408e-07
8.86908e-07
-2.49656e-07
-8.86399e-07
2.47087e-07
-1.24026e-06
-1.71674e-09
2.666e-09
0.00108384
-2.58117e-07
1.24297e-06
2.5721e-07
8.92479e-07
-2.52505e-07
-8.92018e-07
2.49861e-07
0.0010834
-1.87616e-09
-0.0010834
2.67758e-09
-1.23485e-06
2.54408e-07
-2.55372e-07
-8.8643e-07
2.47079e-07
-2.49682e-07
8.86893e-07
1.24302e-06
0.00108384
-2.00527e-09
-0.00108384
2.5058e-09
-1.24026e-06
2.57273e-07
-2.5811e-07
-8.92004e-07
2.49936e-07
-2.52487e-07
8.92539e-07
-2.28706e-07
-2.31008e-07
0.000264491
-1.20408e-06
0.000266472
-0.00026449
2.31559e-07
2.33839e-07
2.46787e-09
0.00108445
-2.52698e-07
1.20135e-06
2.51863e-07
8.8975e-07
-2.52496e-07
-8.8917e-07
2.49926e-07
-1.23491e-06
-1.81276e-09
2.691e-09
0.00108352
-2.58134e-07
1.23754e-06
2.57152e-07
8.89583e-07
-2.52454e-07
-8.89171e-07
2.49813e-07
0.00108445
-1.86476e-09
-0.00108445
2.60622e-09
-1.1987e-06
2.51823e-07
-2.52741e-07
-8.89176e-07
2.49936e-07
-2.52502e-07
8.89753e-07
1.23751e-06
0.00108352
-1.60638e-09
-0.00108352
2.80009e-09
-1.23492e-06
2.5713e-07
-2.58148e-07
-8.89172e-07
2.49815e-07
-2.52458e-07
8.89582e-07
-1.87935e-09
2.6094e-09
0.00108331
-2.52556e-07
1.23218e-06
2.51679e-07
8.86915e-07
-2.49673e-07
2.47079e-07
-8.86458e-07
-2.19424e-09
-0.00108419
2.33813e-09
-1.20125e-06
2.49142e-07
-2.49894e-07
-8.86426e-07
2.47245e-07
8.87052e-07
-2.49673e-07
1.23216e-06
0.00108331
-1.82359e-09
-0.00108331
2.67547e-09
-1.22953e-06
2.51667e-07
-2.52589e-07
-8.86497e-07
2.47065e-07
-2.49707e-07
8.86892e-07
-2.26187e-07
-2.33563e-07
0.000264452
-1.19856e-06
0.000266425
-0.000264451
2.28901e-07
2.33717e-07
-1.87511e-09
2.43823e-09
0.00108436
-2.49971e-07
1.1987e-06
2.49135e-07
8.87106e-07
-2.52483e-07
2.49907e-07
-8.86561e-07
-1.88183e-09
-0.00108385
2.61593e-09
-1.1959e-06
2.49017e-07
-2.49937e-07
-8.86298e-07
2.49814e-07
8.86847e-07
-2.52394e-07
1.19865e-06
0.00108436
-1.86455e-09
-0.00108436
2.56083e-09
-1.19607e-06
2.49095e-07
-2.50029e-07
-8.86576e-07
2.49911e-07
-2.52501e-07
8.87106e-07
-0.000264464
2.31191e-07
2.36515e-07
1.23478e-06
1.19867e-06
-2.26005e-07
-2.33703e-07
0.000264469
-1.23738e-06
-1.20102e-06
0.000266443
-0.000264469
2.28305e-07
2.36358e-07
2.35346e-09
0.0010834
-2.55281e-07
1.23761e-06
2.54534e-07
8.87e-07
-2.49634e-07
-8.86381e-07
2.47173e-07
-1.24017e-06
-2.1376e-09
2.45804e-09
0.00108384
-2.58045e-07
1.24311e-06
2.57328e-07
8.92633e-07
-2.52431e-07
-8.91937e-07
2.50001e-07
0.0010834
-3.04645e-10
-0.0010834
2.86327e-09
-1.23489e-06
2.54186e-07
-2.55509e-07
-8.86767e-07
2.46544e-07
-2.50036e-07
8.86413e-07
1.24248e-06
0.00108384
3.30748e-11
-0.00108384
3.88278e-09
-1.24072e-06
2.56646e-07
-2.58669e-07
-8.92479e-07
2.49167e-07
-2.53089e-07
8.91912e-07
-2.2861e-07
-2.30923e-07
0.00026449
-1.20355e-06
0.000266472
-0.00026449
2.30935e-07
2.33214e-07
2.42642e-09
0.00108445
-2.52717e-07
1.20139e-06
2.51897e-07
8.89827e-07
-2.52432e-07
-8.89132e-07
2.50027e-07
-1.23494e-06
-1.88788e-09
2.66645e-09
0.00108352
-2.58157e-07
1.23755e-06
2.57174e-07
8.89623e-07
-2.52444e-07
-8.89166e-07
2.49869e-07
0.00108445
-1.57389e-09
-0.00108445
3.37727e-09
-1.1989e-06
2.51471e-07
-2.52996e-07
-8.8918e-07
2.49781e-07
-2.52559e-07
8.89656e-07
1.23746e-06
0.00108351
-1.68694e-09
-0.00108351
2.87212e-09
-1.23491e-06
2.57059e-07
-2.58165e-07
-8.89117e-07
2.49774e-07
-2.52418e-07
8.8956e-07
-2.15645e-09
2.33372e-09
0.00108331
-2.52495e-07
1.23231e-06
2.51803e-07
8.8702e-07
-2.49635e-07
2.47179e-07
-8.86427e-07
-1.15307e-10
-0.00108418
3.63696e-09
-1.2017e-06
2.48523e-07
-2.50439e-07
-8.869e-07
2.46479e-07
8.86426e-07
-2.50273e-07
1.23189e-06
0.00108331
-2.53722e-10
-0.00108331
3.1761e-09
-1.2297e-06
2.51326e-07
-2.52827e-07
-8.8683e-07
2.46532e-07
-2.50067e-07
8.86418e-07
-2.26162e-07
-2.31035e-07
0.000264451
-1.19861e-06
0.000266424
-0.000264451
2.28903e-07
2.3361e-07
-2.28064e-09
2.3069e-09
0.00108436
-2.49947e-07
1.19878e-06
2.49219e-07
8.87246e-07
-2.52417e-07
2.50038e-07
-8.86496e-07
-1.20266e-09
-0.00108384
2.42453e-09
-1.19582e-06
2.4901e-07
-2.499e-07
-8.86475e-07
2.49566e-07
8.86563e-07
-2.52528e-07
1.19832e-06
0.00108436
-6.848e-10
-0.00108436
3.53178e-09
-1.1963e-06
2.48696e-07
-2.50328e-07
-8.86844e-07
2.4944e-07
-2.52799e-07
8.86694e-07
-0.000264464
2.30803e-07
2.36168e-07
1.23508e-06
1.19913e-06
-2.26524e-07
-2.3401e-07
0.000264469
-1.23722e-06
-1.20125e-06
0.000266444
-0.00026447
2.28449e-07
2.36019e-07
3.0879e-09
0.0010834
-2.55691e-07
1.23721e-06
2.54032e-07
8.86179e-07
-2.50379e-07
-8.87046e-07
2.46198e-07
-1.24074e-06
9.55695e-12
3.48467e-09
0.00108384
-2.58678e-07
1.24254e-06
2.56726e-07
8.91761e-07
-2.53298e-07
-8.92684e-07
2.48992e-07
0.00108341
-8.90982e-10
-0.00108341
3.46136e-09
-1.23508e-06
2.54127e-07
-2.55577e-07
-8.86412e-07
2.45995e-07
-2.49638e-07
8.86327e-07
1.24288e-06
0.00108384
-9.01316e-10
-0.00108384
2.81686e-09
-1.24028e-06
2.57131e-07
-2.58127e-07
-8.92007e-07
2.48837e-07
-2.52399e-07
8.91915e-07
-2.29302e-07
-2.31612e-07
0.00026449
-1.20392e-06
0.000266473
-0.000264491
2.31266e-07
2.33559e-07
3.4824e-09
0.00108445
-2.53257e-07
1.20085e-06
2.51267e-07
8.89328e-07
-2.52781e-07
-8.89438e-07
2.49454e-07
-1.23517e-06
-9.63102e-10
3.22755e-09
0.00108351
-2.58428e-07
1.23721e-06
2.5678e-07
8.89199e-07
-2.52691e-07
-8.89399e-07
2.49377e-07
0.00108446
-2.79423e-10
-0.00108446
2.83749e-09
-1.19874e-06
2.51745e-07
-2.52804e-07
-8.89434e-07
2.48568e-07
-2.52692e-07
8.88909e-07
1.23729e-06
0.00108352
7.22429e-11
-0.00108352
3.4357e-09
-1.23513e-06
2.56853e-07
-2.58422e-07
-8.89435e-07
2.48444e-07
-2.52698e-07
8.8875e-07
1.39591e-11
3.29148e-09
0.00108331
-2.53018e-07
1.23176e-06
2.51194e-07
8.8621e-07
-2.50365e-07
2.46226e-07
-8.87081e-07
-1.15994e-09
-0.00108419
2.73318e-09
-1.20128e-06
2.48987e-07
-2.49919e-07
-8.86427e-07
2.46157e-07
8.86438e-07
-2.49584e-07
1.23199e-06
0.00108332
-8.5876e-10
-0.00108332
3.2598e-09
-1.22963e-06
2.51481e-07
-2.52705e-07
-8.86476e-07
2.45969e-07
-2.49656e-07
8.86313e-07
-2.26298e-07
-2.31287e-07
0.000264451
-1.19822e-06
0.000266426
-0.000264452
2.28336e-07
2.33287e-07
-2.38226e-10
3.46389e-09
0.00108436
-2.50508e-07
1.19821e-06
2.4858e-07
8.86454e-07
-2.5311e-07
2.49113e-07
-8.87117e-07
-5.81932e-10
-0.00108385
3.52873e-09
-1.19621e-06
2.4863e-07
-2.50288e-07
-8.86347e-07
2.48585e-07
8.8621e-07
-2.52495e-07
1.19856e-06
0.00108436
-6.16787e-10
-0.00108436
2.79338e-09
-1.1961e-06
2.48981e-07
-2.50084e-07
-8.86629e-07
2.48761e-07
-2.52496e-07
8.86459e-07
-0.000264465
2.30938e-07
2.36195e-07
1.23487e-06
1.19853e-06
-2.25836e-07
-2.33775e-07
0.00026447
-1.23677e-06
-1.20062e-06
0.000266445
-0.00026447
2.27186e-07
2.34983e-07
2.69917e-09
0.00108341
-2.55393e-07
1.23732e-06
2.54238e-07
8.86145e-07
-2.48904e-07
-8.85982e-07
2.45538e-07
-1.24016e-06
-1.56125e-09
2.24397e-09
0.00108384
-2.58018e-07
1.24288e-06
2.57154e-07
8.91727e-07
-2.51718e-07
-8.91578e-07
2.48336e-07
0.00108341
-1.46432e-09
-0.00108341
3.18919e-09
-1.2342e-06
2.53394e-07
-2.54631e-07
-8.84172e-07
2.43016e-07
-2.45912e-07
8.84457e-07
1.24221e-06
0.00108384
-1.29197e-09
-0.00108385
3.16816e-09
-1.23965e-06
2.56183e-07
-2.57411e-07
-8.89803e-07
2.45779e-07
-2.48785e-07
8.9002e-07
-2.28573e-07
-2.30869e-07
0.000264491
-1.20326e-06
0.000266474
-0.000264491
2.29954e-07
2.32247e-07
2.11591e-09
0.00108446
-2.52586e-07
1.20131e-06
2.51849e-07
8.88814e-07
-2.51975e-07
-8.88963e-07
2.48168e-07
-1.23491e-06
-9.26142e-10
2.64569e-09
0.00108352
-2.58173e-07
1.23741e-06
2.57026e-07
8.88656e-07
-2.51959e-07
-8.88957e-07
2.48062e-07
0.00108446
-1.47132e-09
-0.00108446
2.97238e-09
-1.19802e-06
2.50863e-07
-2.51966e-07
-8.86949e-07
2.45859e-07
-2.48757e-07
8.87307e-07
1.23683e-06
0.00108352
-1.32028e-09
-0.00108352
3.1613e-09
-1.23425e-06
2.56185e-07
-2.57374e-07
-8.8693e-07
2.45768e-07
-2.48725e-07
8.87156e-07
-1.63274e-09
2.5347e-09
0.00108332
-2.52521e-07
1.23205e-06
2.51574e-07
8.86141e-07
-2.48927e-07
2.45516e-07
-8.8604e-07
-1.52359e-09
-0.00108419
3.03395e-09
-1.20065e-06
2.48041e-07
-2.49202e-07
-8.84223e-07
2.43104e-07
8.84542e-07
-2.45957e-07
1.23143e-06
0.00108332
-1.39566e-09
-0.00108332
3.18877e-09
-1.22888e-06
2.50654e-07
-2.51841e-07
-8.84237e-07
2.42997e-07
-2.45938e-07
8.84458e-07
-2.26279e-07
-2.31006e-07
0.000264452
-1.19788e-06
0.000266427
-0.000264452
2.27399e-07
2.32217e-07
-1.40611e-09
2.08806e-09
0.00108436
-2.49888e-07
1.19862e-06
2.49079e-07
8.86292e-07
-2.51774e-07
2.48306e-07
-8.86197e-07
-1.53942e-09
-0.00108385
3.03144e-09
-1.19523e-06
2.48057e-07
-2.49163e-07
-8.84065e-07
2.45759e-07
8.84401e-07
-2.48639e-07
1.19796e-06
0.00108436
-1.34689e-09
-0.00108436
2.95885e-09
-1.19537e-06
2.48121e-07
-2.49238e-07
-8.84357e-07
2.45821e-07
-2.48753e-07
8.84643e-07
-0.000264465
2.297e-07
2.3499e-07
1.23403e-06
1.19786e-06
-2.24322e-07
-2.32062e-07
0.00026447
-1.23705e-06
-1.20088e-06
0.000266445
-0.00026447
2.27281e-07
2.35075e-07
2.55663e-09
0.00108341
-2.54153e-07
1.2364e-06
2.52601e-07
8.84276e-07
-2.45862e-07
-8.84113e-07
2.43013e-07
-1.23948e-06
-1.2812e-09
2.56252e-09
0.00108385
-2.56941e-07
1.24183e-06
2.55386e-07
8.89844e-07
-2.48723e-07
-8.89716e-07
2.4578e-07
0.00108341
-4.09738e-09
-0.00108341
1.79761e-09
-1.23405e-06
2.53106e-07
-2.53412e-07
-8.86867e-07
2.45457e-07
-2.47887e-07
8.8808e-07
1.24248e-06
0.00108384
-3.99297e-09
-0.00108384
1.83081e-09
-1.2395e-06
2.55893e-07
-2.56203e-07
-8.92474e-07
2.4823e-07
-2.50734e-07
8.93641e-07
-2.27058e-07
-2.29365e-07
0.000264491
-1.20354e-06
0.000266474
-0.000264491
2.30067e-07
2.32348e-07
2.39273e-09
0.00108446
-2.5151e-07
1.20023e-06
2.50054e-07
8.87134e-07
-2.48676e-07
-8.8685e-07
2.45876e-07
-1.23409e-06
-1.36819e-09
2.55234e-09
0.00108352
-2.56912e-07
1.23644e-06
2.55379e-07
8.87005e-07
-2.48631e-07
-8.86835e-07
2.4577e-07
0.00108446
-4.20526e-09
-0.00108446
1.6669e-09
-1.19789e-06
2.50552e-07
-2.5078e-07
-8.89613e-07
2.48324e-07
-2.5069e-07
8.90941e-07
1.23709e-06
0.00108352
-4.0375e-09
-0.00108352
1.82884e-09
-1.23412e-06
2.55871e-07
-2.56189e-07
-8.89616e-07
2.48224e-07
-2.50657e-07
8.90788e-07
-1.38445e-09
2.55482e-09
0.00108332
-2.51368e-07
1.23105e-06
2.49859e-07
8.84286e-07
-2.45875e-07
2.43e-07
-8.84151e-07
-4.18516e-09
-0.00108419
1.66547e-09
-1.20049e-06
2.47759e-07
-2.4799e-07
-8.8691e-07
2.45546e-07
8.88171e-07
-2.47924e-07
1.2317e-06
0.00108332
-4.05092e-09
-0.00108331
1.81333e-09
-1.22873e-06
2.50362e-07
-2.5063e-07
-8.86908e-07
2.45433e-07
-2.47893e-07
8.88064e-07
-2.24473e-07
-2.29329e-07
0.000264452
-1.19814e-06
0.000266427
-0.000264452
2.27489e-07
2.32306e-07
-1.33894e-09
2.3791e-09
0.00108436
-2.48774e-07
1.19757e-06
2.47313e-07
8.84471e-07
-2.48688e-07
2.45826e-07
-8.84267e-07
-4.21827e-09
-0.00108385
1.65394e-09
-1.1951e-06
2.47742e-07
-2.47942e-07
-8.86719e-07
2.48205e-07
8.88035e-07
-2.50579e-07
1.19821e-06
0.00108436
-4.09562e-09
-0.00108436
1.67648e-09
-1.19524e-06
2.4781e-07
-2.48046e-07
-8.87026e-07
2.48279e-07
-2.50695e-07
8.88293e-07
-0.000264465
2.29788e-07
2.35093e-07
1.23418e-06
1.19802e-06
-2.24287e-07
-2.32024e-07
0.00026447
-1.23498e-06
-1.19882e-06
0.000266449
-0.000264468
2.22546e-07
2.30331e-07
4.44028e-09
0.00108341
-2.54076e-07
1.23602e-06
2.52415e-07
8.85555e-07
-2.47261e-07
-8.86934e-07
2.42253e-07
-1.23962e-06
3.06368e-09
4.46286e-09
0.00108384
-2.56856e-07
1.24146e-06
2.55199e-07
8.91131e-07
-2.501e-07
-8.92529e-07
2.45028e-07
0.00108341
-7.78476e-09
-0.00108341
4.36487e-10
-1.23124e-06
2.49437e-07
-2.49471e-07
-8.79922e-07
2.36093e-07
-2.37506e-07
8.82055e-07
1.24043e-06
0.00108385
-7.74289e-09
-0.00108384
4.80443e-10
-1.23669e-06
2.5222e-07
-2.52255e-07
-8.85519e-07
2.38876e-07
-2.40344e-07
8.87625e-07
-2.27015e-07
-2.29316e-07
0.000264491
-1.20147e-06
0.000266478
-0.000264489
2.25326e-07
2.27608e-07
4.32003e-09
0.00108445
-2.51446e-07
1.19986e-06
2.49858e-07
8.8842e-07
-2.50052e-07
-8.89691e-07
2.45097e-07
-1.23425e-06
3.01623e-09
4.47829e-09
0.00108352
-2.56851e-07
1.23607e-06
2.55183e-07
8.88274e-07
-2.50012e-07
-8.89678e-07
2.45005e-07
0.00108446
-7.9487e-09
-0.00108446
3.25328e-10
-1.19508e-06
2.46877e-07
-2.4684e-07
-8.82658e-07
2.38949e-07
-2.40293e-07
8.84899e-07
1.23503e-06
0.00108352
-7.75522e-09
-0.00108352
4.68915e-10
-1.23131e-06
2.52202e-07
-2.52247e-07
-8.82661e-07
2.38862e-07
-2.4028e-07
8.84749e-07
3.0057e-09
4.43666e-09
0.00108331
-2.51287e-07
1.23069e-06
2.49676e-07
8.85559e-07
-2.47259e-07
2.42232e-07
-8.86964e-07
-7.92962e-09
-0.00108419
3.3316e-10
-1.19769e-06
2.44079e-07
-2.44043e-07
-8.79936e-07
2.3618e-07
8.82131e-07
-2.3753e-07
1.22964e-06
0.00108332
-7.7855e-09
-0.00108332
4.59973e-10
-1.22592e-06
2.46688e-07
-2.46695e-07
-8.79942e-07
2.36082e-07
-2.37507e-07
8.82053e-07
-2.24455e-07
-2.29291e-07
0.000264451
-1.19606e-06
0.000266428
-0.00026445
2.22749e-07
2.30107e-07
2.97662e-09
4.32583e-09
0.00108436
-2.48705e-07
1.19719e-06
2.47122e-07
8.85773e-07
-2.50062e-07
2.45077e-07
-8.87088e-07
-7.9615e-09
-0.00108385
3.17126e-10
-1.1923e-06
2.44096e-07
-2.44039e-07
-8.79746e-07
2.38865e-07
8.81962e-07
-2.40187e-07
1.19615e-06
0.00108436
-7.91585e-09
-0.00108436
3.45656e-10
-1.19242e-06
2.44137e-07
-2.44097e-07
-8.80045e-07
2.38925e-07
-2.40285e-07
8.82271e-07
-0.000264463
2.25049e-07
2.3035e-07
1.23227e-06
1.19611e-06
-2.19616e-07
-2.27349e-07
0.000264468
-1.23479e-06
-1.19865e-06
0.000266456
-0.000264467
2.19264e-07
2.24587e-07
6.28626e-09
0.00108341
-2.50366e-07
1.23351e-06
2.48113e-07
8.79191e-07
-2.38526e-07
-8.81422e-07
2.32973e-07
-1.23771e-06
6.73314e-09
6.30639e-09
0.00108384
-2.53143e-07
1.23897e-06
2.50903e-07
8.84774e-07
-2.41364e-07
-8.87003e-07
2.35754e-07
0.00108341
-1.43807e-08
-0.0010834
-1.05901e-08
-1.22942e-06
2.48094e-07
-2.43824e-07
-8.74243e-07
2.29044e-07
-2.29244e-07
8.78045e-07
1.24022e-06
0.00108386
-2.48245e-08
-0.00108385
-5.29819e-09
-1.2322e-06
2.48135e-07
-2.46609e-07
-8.74486e-07
2.26405e-07
-2.26686e-07
8.78256e-07
-2.22336e-07
-2.2464e-07
0.000264489
-1.20126e-06
0.00026648
-0.000264485
2.19524e-07
2.26887e-07
6.15186e-09
0.00108445
-2.47741e-07
1.20002e-06
2.48283e-07
8.8204e-07
-2.41283e-07
-8.84164e-07
2.35835e-07
-1.23233e-06
6.67088e-09
6.30773e-09
0.00108352
-2.53142e-07
1.23356e-06
2.50878e-07
8.81908e-07
-2.41246e-07
-8.84152e-07
2.35756e-07
0.00108447
-1.46289e-08
-0.00108446
-5.44646e-09
-1.1933e-06
2.45526e-07
-2.43929e-07
-8.76978e-07
2.29203e-07
-2.29329e-07
8.80904e-07
1.22952e-06
0.00108353
-1.44206e-08
-0.00108352
-1.05689e-08
-1.22416e-06
2.48134e-07
-2.46594e-07
-8.74352e-07
2.29109e-07
-2.29306e-07
8.78114e-07
6.67783e-09
6.27161e-09
0.00108331
-2.4758e-07
1.22818e-06
2.45368e-07
8.79196e-07
-2.3852e-07
2.32964e-07
-8.81435e-07
-1.978e-08
-0.00108419
-5.42089e-09
-1.19324e-06
2.40007e-07
-2.38416e-07
-8.74286e-07
2.29118e-07
8.808e-07
-2.2658e-07
1.22949e-06
0.00108332
-1.96763e-08
-0.00108332
-5.34368e-09
-1.22147e-06
2.45366e-07
-2.41056e-07
-8.74265e-07
2.2903e-07
-2.26552e-07
8.78043e-07
-2.1979e-07
-2.27155e-07
0.000264449
-1.19323e-06
0.00026643
-0.000264451
2.19495e-07
2.24319e-07
6.59885e-09
6.17297e-09
0.00108436
-2.4499e-07
1.19469e-06
2.42815e-07
8.79414e-07
-2.41306e-07
2.35807e-07
-8.8155e-07
-1.46069e-08
-0.00108385
-1.07024e-08
-1.18783e-06
2.40021e-07
-2.38397e-07
-8.7141e-07
2.29108e-07
8.75267e-07
-2.29224e-07
1.19329e-06
0.00108437
-1.45708e-08
-0.00108437
-1.0642e-08
-1.18264e-06
2.40049e-07
-2.35718e-07
-8.69018e-07
2.26465e-07
-2.2662e-07
8.75559e-07
-0.000264467
2.193e-07
2.27089e-07
1.22775e-06
1.18895e-06
-2.14166e-07
-2.16839e-07
0.000264471
-1.28361e-06
-1.24742e-06
0.000266533
-0.000264495
2.44e-07
2.4939e-07
1.26565e-08
0.00108341
-2.44226e-07
1.23213e-06
2.42271e-07
8.71375e-07
-2.28311e-07
-8.74927e-07
2.18903e-07
-1.23315e-06
1.10836e-08
7.63758e-09
0.00108385
-2.47013e-07
1.23488e-06
2.4504e-07
8.7436e-07
-2.25704e-07
-8.75259e-07
2.21631e-07
0.00108368
-3.40577e-07
-0.0010835
-1.63201e-07
-1.18839e-06
2.71598e-07
-2.08325e-07
-8.18697e-07
2.44219e-07
-1.73459e-07
9.12064e-07
1.28898e-06
0.00108411
-3.40599e-07
-0.00108394
-1.57689e-07
-1.19389e-06
2.71561e-07
-2.0844e-07
-8.27036e-07
2.46949e-07
-1.73544e-07
9.20344e-07
-2.14381e-07
-2.19203e-07
0.000264486
-1.2474e-06
0.000266557
-0.000264516
2.46812e-07
2.49058e-07
7.45415e-09
0.00108447
-2.41578e-07
1.19061e-06
2.36919e-07
8.71602e-07
-2.28361e-07
-8.75036e-07
2.21741e-07
-1.22248e-06
8.77347e-10
7.52881e-09
0.00108353
-2.44218e-07
1.22683e-06
2.42273e-07
8.71503e-07
-2.25632e-07
-8.7508e-07
2.18943e-07
0.00108472
-3.46699e-07
-0.00108455
-1.57638e-07
-1.14961e-06
2.68944e-07
-2.02993e-07
-8.24038e-07
2.4715e-07
-1.73435e-07
9.1768e-07
1.28094e-06
0.0010838
-3.46003e-07
-0.00108362
-1.63127e-07
-1.18582e-06
2.71623e-07
-2.0565e-07
-8.2143e-07
2.4704e-07
-1.7612e-07
9.14856e-07
5.9051e-09
7.5052e-09
0.00108332
-2.44168e-07
1.2268e-06
2.42272e-07
8.71449e-07
-2.25572e-07
2.1889e-07
-8.72318e-07
-3.41143e-07
-0.00108428
-1.62814e-07
-1.15222e-06
2.66143e-07
-2.00294e-07
-8.21446e-07
2.44258e-07
9.14862e-07
-1.73459e-07
1.28091e-06
0.00108359
-3.40622e-07
-0.00108341
-1.63204e-07
-1.18311e-06
2.71582e-07
-2.02853e-07
-8.21384e-07
2.46953e-07
-1.7614e-07
9.14778e-07
-2.11785e-07
-2.16652e-07