/*--------------------------------*- C++ -*----------------------------------*\
| =========                 |                                                 |
| \\      /  F ield         | OpenFOAM: The Open Source CFD Toolbox           |
|  \\    /   O peration     | Version:  2206                                  |
|   \\  /    A nd           | Website:  www.openfoam.com                      |
|    \\/     M anipulation  |                                                 |
\*---------------------------------------------------------------------------*/
FoamFile
{
    version     2.0;
    format      ascii;
    arch        "LSB;label=32;scalar=64";
    class       surfaceScalarField;
    location    "1.5";
    object      phi;
}
// * * * * * * * * * * * * * * * * * * * * * * * * * * * * * * * * * * * * * //

dimensions      [0 3 -1 0 0 0 0];

oriented        oriented;

internalField   nonuniform List<scalar> 
82330
(
-6.49205e-07
-1.64811e-07
6.41094e-07
-6.47068e-07
-1.66352e-07
6.40752e-07
-5.001e-06
4.73928e-06
4.75191e-06
-4.99764e-06
1.1397e-07
1.88098e-07
-1.25715e-06
-1.38056e-06
1.42851e-06
-1.38212e-06
1.87881e-07
-1.25344e-06
1.42829e-06
-2.66155e-06
-1.14017e-09
-9.27265e-08
1.35518e-06
1.09544e-06
-2.47297e-06
9.09028e-07
1.10637e-06
-1.30655e-09
2.98025e-07
-4.24726e-06
9.94955e-07
9.28455e-07
-4.67029e-07
3.66381e-06
-5.00461e-06
4.09569e-06
-4.47736e-06
4.74646e-06
1.3597e-06
-5.28913e-06
-3.21411e-06
-1.63709e-06
-3.58412e-06
1.09716e-06
-1.28192e-09
4.5298e-07
-4.85026e-06
5.13985e-06
5.04248e-06
-4.85508e-06
1.60081e-06
-2.66201e-06
1.35489e-06
-9.46159e-08
1.0959e-06
-2.4737e-06
1.6658e-07
9.09279e-07
1.1066e-06
-4.24759e-06
2.95721e-07
9.94611e-07
9.29983e-07
4.99706e-06
-4.58122e-07
-5.00185e-06
4.09553e-06
4.74625e-06
-4.47495e-06
-5.28672e-06
3.664e-06
-3.21353e-06
1.36792e-06
4.43672e-07
-4.84754e-06
5.14088e-06
5.04398e-06
-4.8535e-06
1.60314e-06
1.38196e-06
-1.63625e-06
-3.58521e-06
1.09727e-06
4.99543e-06
-4.4595e-07
-5.00461e-06
4.0926e-06
4.7443e-06
-4.4766e-06
-5.29283e-06
3.66791e-06
-3.22248e-06
1.36154e-06
9.39422e-07
2.47255e-06
1.381e-06
-1.63513e-06
-3.58411e-06
1.09998e-06
1.63921e-07
9.09985e-07
1.10315e-06
-6.47216e-07
6.4099e-07
-5.0021e-06
1.15961e-07
4.75066e-06
4.74196e-06
1.88165e-07
-1.25323e-06
1.42777e-06
6.50146e-07
-1.38052e-06
1.88391e-07
-1.25846e-06
1.42877e-06
-1.6471e-07
6.41794e-07
2.24554e-09
2.66346e-06
-4.24744e-06
2.94171e-07
9.96282e-07
9.33047e-07
-4.50668e-07
-5.29527e-06
3.66936e-06
-3.22133e-06
-5.00327e-06
4.09413e-06
4.74494e-06
-4.47487e-06
1.33884e-06
-1.14492e-09
4.55595e-07
-4.84989e-06
5.13861e-06
5.04193e-06
-4.85575e-06
1.60109e-06
2.4732e-06
-1.63356e-06
-3.58564e-06
1.09666e-06
2.66359e-06
-4.24743e-06
2.98823e-07
9.96661e-07
9.39063e-07
5.00005e-06
-4.47702e-07
-5.0067e-06
4.0943e-06
4.74543e-06
-4.47961e-06
-5.29353e-06
3.66303e-06
-3.21665e-06
1.33757e-06
4.60996e-07
-4.8516e-06
5.13866e-06
5.04137e-06
-4.85694e-06
1.60197e-06
2.47469e-06
1.38309e-06
-1.63759e-06
-3.58541e-06
1.09874e-06
2.10861e-09
-9.55479e-08
1.35676e-06
1.09726e-06
9.08977e-07
1.1074e-06
-9.16931e-08
1.35729e-06
1.09709e-06
1.66084e-07
9.08376e-07
1.10573e-06
1.19054e-07
4.74083e-06
4.75248e-06
6.50578e-07
1.8743e-07
-1.25735e-06
1.42908e-06
6.49227e-07
1.88868e-07
-1.25553e-06
1.42966e-06
6.38749e-07
6.40331e-07
4.65198e-07
-1.15102e-06
5.44376e-07
4.65297e-07
-1.15065e-06
5.44319e-07
-2.4661e-07
-2.55448e-07
1.14451e-06
-2.26356e-06
1.03823e-06
-6.23391e-07
-2.6465e-06
9.76417e-07
8.30003e-07
-4.35091e-06
9.88954e-07
-2.26252e-06
1.0379e-06
-6.15e-07
-2.64656e-06
8.25085e-07
9.76773e-07
-4.35074e-06
9.89161e-07
-9.25496e-07
1.214e-06
-9.93044e-08
7.37677e-08
-2.62972e-07
1.25903e-06
1.08648e-06
-1.83826e-07
-2.55255e-06
-4.77729e-08
1.08484e-06
-3.05801e-10
1.92923e-07
-1.3026e-06
-1.08051e-11
2.5106e-06
-3.05478e-07
2.16621e-08
3.88298e-07
2.40395e-06
-2.98834e-07
2.68232e-10
-3.17332e-07
-5.63401e-07
7.99364e-07
-1.62195e-07
7.04409e-07
1.42503e-06
-1.80779e-06
-1.34837e-06
2.49024e-06
2.56107e-07
-2.91599e-07
1.66856e-06
-4.04228e-07
-9.24016e-07
-9.99146e-08
1.21316e-06
7.41165e-08
-2.6335e-07
-4.84747e-08
1.08454e-06
1.25841e-06
1.08764e-06
-1.85041e-07
-2.55275e-06
-1.30207e-06
1.92871e-07
2.50983e-06
-3.04745e-07
2.11392e-08
-3.17187e-07
3.88316e-07
2.40291e-06
-2.97561e-07
-5.62031e-07
7.98684e-07
-1.62539e-07
7.0428e-07
1.42638e-06
-1.80851e-06
-1.34869e-06
2.56843e-07
2.4894e-06
-2.90967e-07
1.66716e-06
-4.02472e-07
-5.61099e-07
7.97735e-07
-7.41338e-08
-1.62503e-07
7.04361e-07
1.42654e-06
-1.80876e-06
1.85789e-07
-1.35161e-06
2.59224e-07
2.48711e-06
-2.91577e-07
-2.17012e-08
1.66588e-06
-3.9071e-07
-4.0251e-07
1.07026e-06
-1.72434e-07
-1.14467e-06
3.64687e-07
3.62876e-07
3.5504e-07
3.50174e-07
-2.88109e-07
4.65061e-07
5.45662e-07
-1.1514e-06
4.64549e-07
5.45757e-07
-1.15109e-06
-2.55479e-07
-2.47528e-07
1.05036e-06
-1.40015e-07
1.04858e-06
-1.39946e-07
-2.4726e-07
-9.87078e-07
-1.96124e-06
3.78085e-06
-2.30236e-07
-2.26402e-06
1.03905e-06
9.74679e-07
-6.16218e-07
8.26784e-07
-2.6454e-06
1.87298e-06
-3.89156e-07
1.38634e-06
-3.72124e-07
-2.52667e-07
3.06089e-06
-2.07824e-07
-4.352e-06
-2.60976e-07
-9.89635e-07
-1.96082e-06
-2.48386e-07
3.77791e-06
-2.28897e-07
-2.26409e-06
1.03973e-06
-6.22205e-07
9.77295e-07
-2.64862e-06
8.2958e-07
-3.88345e-07
1.87538e-06
-1.07336e-06
1.38717e-06
-3.72082e-07
-4.3511e-06
-2.6086e-07
3.06124e-06
-2.50034e-07
-2.06917e-07
-2.60251e-07
-1.71317e-07
-9.23726e-07
1.21203e-06
-1.01832e-07
7.58358e-08
-2.62309e-07
1.25985e-06
1.08805e-06
-1.86401e-07
-2.55318e-06
-4.6671e-08
1.08332e-06
-1.21385e-09
1.9263e-07
-1.29975e-06
7.90141e-10
2.50836e-06
-3.04774e-07
2.29978e-08
3.89053e-07
2.40169e-06
-2.98038e-07
-1.98865e-09
-3.16283e-07
-5.63143e-07
8.00419e-07
-1.61444e-07
7.03543e-07
1.42647e-06
-1.8098e-06
-1.35166e-06
2.48848e-06
-2.89674e-07
1.66703e-06
-4.0277e-07
-9.24124e-07
1.21174e-06
-9.80409e-08
7.29356e-08
-2.62508e-07
1.26049e-06
1.08875e-06
-1.82785e-07
-2.55398e-06
-4.90956e-08
1.08393e-06
1.94037e-07
-1.3e-06
2.50891e-06
-3.05074e-07
2.0553e-08
3.90082e-07
2.40252e-06
-2.9808e-07
-3.16092e-07
-5.62009e-07
7.97189e-07
-1.62242e-07
7.06088e-07
1.42725e-06
-1.81005e-06
-1.34943e-06
2.55989e-07
2.48898e-06
-2.89802e-07
1.66757e-06
-4.02495e-07
-1.14726e-06
3.66168e-07
3.66787e-07
3.47969e-07
3.53199e-07
-2.86863e-07
4.6336e-07
5.43221e-07
-1.14987e-06
4.64537e-07
5.43617e-07
-1.15131e-06
-2.48181e-07
-2.57104e-07
1.05001e-06
-1.40622e-07
1.05062e-06
-1.40211e-07
-9.92565e-07
-2.50901e-07
-1.95916e-06
3.77834e-06
-2.27745e-07
-2.26392e-06
1.03587e-06
-6.22261e-07
9.81557e-07
8.29526e-07
-2.64715e-06
1.87434e-06
-3.88672e-07
-1.07055e-06
1.38565e-06
-3.71683e-07
-4.35134e-06
-2.53101e-07
3.06274e-06
-2.04632e-07
-2.61943e-07
-9.92087e-07
-2.47041e-07
-1.95956e-06
3.77997e-06
-2.28093e-07
-2.26432e-06
1.03682e-06
-6.1426e-07
9.79317e-07
8.24875e-07
-2.64762e-06
1.87277e-06
-3.88692e-07
-1.06772e-06
1.38454e-06
-3.71243e-07
-4.35251e-06
-2.52417e-07
3.06358e-06
-2.06114e-07
-2.60806e-07
-1.72582e-07
-1.71401e-07
-4.63667e-07
-4.46652e-07
2.11127e-06
4.39151e-07
3.83964e-09
-2.41358e-09
-4.51182e-07
1.34323e-06
-3.74732e-09
-4.31722e-09
1.36826e-06
-5.31481e-09
2.82511e-09
1.32785e-06
-4.5059e-07
-4.52786e-07
2.11189e-06
4.49784e-07
4.48091e-07
1.67016e-09
-4.58138e-07
1.35729e-06
6.25114e-09
-6.96218e-10
-4.64148e-07
1.35664e-06
-2.55718e-09
1.33034e-06
-4.50099e-07
-4.5912e-07
2.10358e-06
-5.77114e-09
1.35132e-06
-6.58351e-10
-6.48755e-09
1.35505e-06
-2.05333e-09
1.32357e-06
-4.50645e-07
-4.49268e-07
2.1006e-06
3.00096e-09
-4.59572e-07
1.35518e-06
2.9786e-09
1.35466e-06
1.32569e-06
4.88625e-06
-3.66918e-06
7.12206e-07
4.89079e-06
7.1373e-07
8.86011e-07
-6.07666e-07
-3.99504e-06
4.6299e-08
-6.72939e-08
-2.26563e-07
-4.23417e-06
9.95807e-07
6.83576e-07
7.60584e-08
6.32258e-07
-1.44826e-09
-1.89161e-07
3.98995e-06
-5.35379e-10
-2.94695e-07
5.13129e-08
-4.82964e-07
-3.01479e-07
-5.61687e-10
-1.86014e-07
-9.13738e-08
-6.95929e-07
-4.02365e-06
-2.60942e-07
-4.10886e-06
1.04285e-06
9.00911e-07
2.68141e-07
3.75439e-06
1.48914e-06
-1.38621e-06
-2.69925e-07
2.53357e-07
-1.66798e-07
-3.06074e-07
-6.06066e-07
4.68033e-08
-3.99321e-06
-6.83565e-08
-2.26715e-07
7.4007e-08
6.32942e-07
-4.23434e-06
9.93776e-07
6.82438e-07
3.98882e-06
-1.9018e-07
-2.94738e-07
5.10194e-08
-1.85488e-07
-4.8455e-07
-3.02148e-07
-6.96616e-07
-4.02089e-06
-9.23497e-08
-2.60346e-07
-4.10985e-06
1.04311e-06
2.6934e-07
8.99906e-07
1.49e-06
3.75248e-06
-2.69463e-07
-3.05178e-07
-1.67583e-07
-7.01735e-07
-4.02196e-06
-9.18517e-08
6.86782e-08
-2.57735e-07
-4.10955e-06
1.04818e-06
-6.82142e-07
2.71339e-07
9.03645e-07
1.48898e-06
3.75205e-06
-2.68301e-07
-5.10335e-08
4.83946e-07
-3.02876e-07
-1.65859e-07
4.31787e-06
-8.85902e-07
4.31707e-06
-1.90282e-07
-5.04342e-06
-5.03291e-06
-3.89696e-07
7.14727e-07
4.89096e-06
4.8868e-06
7.11794e-07
-1.63472e-07
-1.64136e-07
-6.10268e-07
4.8907e-08
-3.99397e-06
-7.01789e-08
-2.24383e-07
7.35418e-08
6.34947e-07
1.11539e-09
-4.23365e-06
9.96728e-07
6.79749e-07
3.98956e-06
-1.92153e-07
1.901e-09
-2.94659e-07
4.92254e-08
2.20485e-09
-1.84545e-07
-4.86226e-07
-3.01479e-07
-6.95922e-07
-9.4522e-08
-4.02155e-06
-2.61458e-07
-4.11065e-06
1.04394e-06
2.7192e-07
8.98275e-07
3.75165e-06
1.49106e-06
-2.70396e-07
-1.69519e-07
-3.05753e-07
-6.11004e-07
4.42998e-08
-3.99521e-06
-6.54974e-08
-2.24184e-07
7.58941e-08
6.36218e-07
-4.23413e-06
9.98014e-07
6.84387e-07
3.99025e-06
-1.88183e-07
-2.94587e-07
5.11258e-08
-1.83975e-07
-4.82111e-07
-3.00739e-07
-6.97171e-07
-4.02358e-06
-9.07545e-08
-2.60693e-07
-4.11008e-06
1.0454e-06
2.6827e-07
9.01294e-07
1.48766e-06
3.75393e-06
-2.69329e-07
-3.05074e-07
-1.67568e-07
-8.89819e-07
4.31652e-06
4.32045e-06
-1.88833e-07
-5.03487e-06
-5.04712e-06
-3.85314e-07
4.88641e-06
7.16241e-07
4.89123e-06
7.17332e-07
-1.61847e-07
-1.62411e-07
4.53191e-07
4.55923e-07
-4.53503e-07
-4.54258e-07
2.1155e-06
-2.11685e-06
5.00252e-06
-4.52936e-07
9.34355e-07
1.34308e-06
3.67038e-06
-5.29526e-06
-3.22128e-06
-5.00355e-06
4.09528e-06
-4.47524e-06
4.74647e-06
-1.34381e-06
4.52528e-07
4.58156e-07
-2.10028e-06
-4.53146e-07
-4.51736e-07
2.09448e-06
-1.3365e-06
5.00302e-06
-4.52706e-07
9.35435e-07
1.33483e-06
3.67098e-06
-5.29569e-06
-3.22117e-06
-5.00467e-06
4.09552e-06
4.74732e-06
-4.47636e-06
5.00524e-06
-4.63562e-07
9.27547e-07
1.3353e-06
3.67309e-06
-5.29462e-06
-3.21938e-06
-5.00079e-06
4.09794e-06
-4.47198e-06
4.74946e-06
-1.33824e-06
-5.00034e-06
-5.00387e-06
4.74222e-06
4.75545e-06
1.17188e-07
3.89357e-07
-1.32551e-06
5.00584e-06
-4.59536e-07
9.26191e-07
3.67434e-06
-5.29628e-06
-3.22167e-06
-5.00541e-06
4.09964e-06
4.75228e-06
-4.47604e-06
-4.99685e-06
-5.00114e-06
4.73873e-06
4.75098e-06
1.12725e-07
3.95558e-07
5.29034e-06
5.29157e-06
-3.89645e-07
-1.16048e-07
-5.03239e-06
-5.04383e-06
9.33185e-07
1.3721e-06
3.66896e-06
-5.29007e-06
-3.21952e-06
-5.002e-06
4.09351e-06
-4.47417e-06
4.74507e-06
-1.37073e-06
4.99708e-06
-4.52694e-07
9.32367e-07
1.37246e-06
3.66365e-06
-5.2882e-06
-3.21482e-06
-5.00348e-06
4.09601e-06
-4.47581e-06
4.74716e-06
-1.37372e-06
1.3632e-06
-4.52345e-07
-1.36576e-06
9.29711e-07
4.99939e-06
-3.21962e-06
3.67108e-06
4.74697e-06
-4.47429e-06
4.09522e-06
-5.00321e-06
-5.28899e-06
1.3653e-06
-4.51021e-07
-1.36713e-06
9.34149e-07
4.9971e-06
-3.21501e-06
3.66387e-06
4.74753e-06
-4.47698e-06
4.09619e-06
-5.005e-06
4.75061e-06
4.74142e-06
1.12902e-07
3.94664e-07
5.29598e-06
-3.95382e-07
-1.12599e-07
-5.04281e-06
-5.03418e-06
9.31978e-07
1.348e-06
3.66337e-06
-5.29155e-06
-3.21445e-06
-5.00302e-06
4.09621e-06
-4.47533e-06
4.7467e-06
-1.34712e-06
-4.55432e-07
9.29257e-07
1.37693e-06
-5.00059e-06
4.09466e-06
4.74473e-06
-4.47272e-06
-1.37601e-06
4.99639e-06
3.66247e-06
-5.28657e-06
-3.21311e-06
1.33841e-06
-4.6078e-07
-1.34197e-06
9.308e-07
5.00358e-06
-3.21394e-06
3.66625e-06
4.74996e-06
-4.47541e-06
4.09852e-06
-5.00386e-06
1.36635e-06
-4.58647e-07
-1.36981e-06
9.24982e-07
4.74849e-06
-4.47267e-06
-5.00134e-06
4.09799e-06
-5.2869e-06
4.99912e-06
-3.21317e-06
3.66561e-06
-4.53292e-07
9.30937e-07
1.37794e-06
-5.00123e-06
4.09369e-06
-4.47272e-06
4.74486e-06
4.99677e-06
-1.37508e-06
3.66849e-06
-5.29036e-06
-3.22e-06
-4.51572e-07
-1.33778e-06
9.36367e-07
5.00272e-06
-3.22139e-06
3.67058e-06
4.74694e-06
-4.47664e-06
-5.00478e-06
4.09502e-06
1.36609e-06
-4.53004e-07
-1.36929e-06
9.28487e-07
4.74657e-06
-4.47321e-06
-5.00193e-06
4.09547e-06
-5.29e-06
4.99949e-06
-3.21943e-06
3.67077e-06
-4.99963e-06
-5.00358e-06
4.74198e-06
4.75443e-06
1.17149e-07
5.29345e-06
5.29596e-06
-1.16584e-07
-5.03809e-06
-5.04777e-06
9.29912e-07
1.35951e-06
3.6717e-06
-5.29041e-06
-3.21983e-06
-5.00349e-06
4.09566e-06
4.74774e-06
-4.47469e-06
4.99757e-06
-4.52483e-07
9.32262e-07
1.36405e-06
3.66416e-06
-5.28881e-06
-3.21489e-06
-5.00496e-06
4.0968e-06
4.74844e-06
-4.47684e-06
-4.47723e-07
-1.34843e-06
9.38634e-07
4.99798e-06
-3.22445e-06
3.67132e-06
4.74698e-06
-4.47885e-06
4.0943e-06
-5.0072e-06
-5.28802e-06
1.35672e-06
-4.58e-07
-1.35773e-06
9.25241e-07
4.99969e-06
-3.21417e-06
3.66692e-06
4.75116e-06
-4.47655e-06
4.09978e-06
-5.00505e-06
4.75096e-06
4.74167e-06
1.1258e-07
5.29565e-06
-3.91758e-07
-1.14813e-07
-5.04319e-06
-5.03391e-06
9.3142e-07
1.33404e-06
3.66627e-06
-5.29211e-06
-3.2148e-06
-5.00469e-06
4.09874e-06
4.75044e-06
-4.47632e-06
4.99967e-06
-4.58041e-07
9.24595e-07
1.36386e-06
3.66593e-06
-5.28765e-06
-3.21391e-06
-5.00218e-06
4.09837e-06
4.74914e-06
-4.47343e-06
-4.47718e-07
-1.32495e-06
9.37964e-07
5.00241e-06
-3.2199e-06
3.66518e-06
4.74933e-06
-4.48038e-06
4.09741e-06
-5.0087e-06
-5.28979e-06
-4.55266e-07
-1.35599e-06
9.26217e-07
5.0007e-06
-3.2147e-06
3.66505e-06
4.74975e-06
-4.47414e-06
4.09851e-06
-5.0041e-06
-4.54546e-07
9.27036e-07
1.36279e-06
3.67216e-06
-5.28987e-06
-3.21896e-06
-5.0028e-06
4.09637e-06
-4.47379e-06
4.74735e-06
-4.59159e-07
-1.32926e-06
9.29725e-07
5.00574e-06
-3.22072e-06
3.67387e-06
4.75102e-06
-4.47527e-06
-5.00451e-06
4.09872e-06
-5.29586e-06
-4.55599e-07
-1.35353e-06
9.3084e-07
5.00261e-06
-3.22101e-06
3.67327e-06
4.75028e-06
-4.47558e-06
4.09758e-06
-5.00422e-06
4.75405e-06
4.74444e-06
1.16795e-07
3.89624e-07
-1.20552e-07
-5.04432e-06
-4.60034e-07
9.29464e-07
1.3347e-06
3.66647e-06
-5.29244e-06
-3.21466e-06
-5.00366e-06
4.0992e-06
-4.47519e-06
4.75014e-06
-1.33787e-06
-1.22325e-07
-5.0382e-06
5.00048e-06
-4.63909e-07
3.66693e-06
-5.28864e-06
-3.21507e-06
4.10048e-06
-4.47486e-06
4.75357e-06
4.74488e-06
1.16103e-07
-9.81189e-11
2.50817e-06
-3.03846e-07
-1.30033e-06
1.93087e-07
-1.09698e-06
1.63837e-07
-2.47228e-06
1.10908e-06
9.09441e-07
2.89923e-07
2.5995e-07
2.48952e-06
-2.91368e-07
-1.35043e-06
-1.10767e-06
4.81401e-10
-2.66101e-06
1.09644e-06
1.35354e-06
-9.42455e-08
3.04794e-07
-1.6638e-07
-6.47407e-07
6.4135e-07
1.72437e-07
-2.57157e-07
1.07096e-06
-1.7267e-07
-6.41134e-07
2.5097e-06
-1.12322e-10
-3.05927e-07
1.9241e-07
-1.30259e-06
-1.09348e-06
1.66737e-07
-2.47427e-06
1.10967e-06
9.08145e-07
2.89718e-07
2.56456e-07
2.49066e-06
-2.91218e-07
-1.3476e-06
-1.1083e-06
-2.66169e-06
-1.26942e-09
1.09231e-06
-9.26151e-08
1.35554e-06
3.07722e-07
-4.51302e-07
-4.5345e-07
2.11383e-06
-2.1147e-06
-4.56127e-07
-4.56585e-07
2.11876e-06
4.58663e-07
-2.12014e-06
-4.56313e-07
-4.55467e-07
2.11436e-06
4.59228e-07
-2.11511e-06
-2.10601e-06
-4.5513e-07
-4.52266e-07
2.10952e-06
-2.11015e-06
-4.50273e-07
-4.51687e-07
2.10071e-06
-2.10624e-06
-4.58052e-07
-4.58181e-07
4.63114e-07
2.10167e-06
-2.10551e-06
-4.56994e-07
-4.5325e-07
4.61065e-07
-2.50897e-06
-1.22445e-09
-2.93689e-07
-1.89277e-07
3.98925e-06
-9.96084e-07
1.3814e-06
2.47216e-06
-3.58525e-06
1.09701e-06
-1.63528e-06
2.69964e-07
1.60702e-06
2.36862e-09
4.56595e-07
-4.85007e-06
5.13958e-06
-4.85526e-06
5.04278e-06
-1.60866e-06
9.35346e-07
-5.295e-06
1.34098e-06
-4.53028e-07
4.7466e-06
-4.47538e-06
4.09523e-06
-5.00356e-06
5.00236e-06
-3.22068e-06
3.67021e-06
-1.38633e-06
-2.48866e-06
-2.68991e-07
1.48942e-06
-1.09778e-06
3.75234e-06
4.02267e-09
1.60413e-06
4.56508e-07
5.04297e-06
-4.8551e-06
5.13983e-06
-4.84999e-06
2.66048e-06
-1.31683e-09
9.961e-07
2.97607e-07
-4.24688e-06
2.94016e-07
-9.06581e-10
2.5081e-06
-3.00743e-07
-1.10138e-06
-1.29913e-06
1.94054e-07
2.93151e-07
1.63001e-07
-2.47025e-06
9.11761e-07
1.10234e-06
3.02781e-07
5.6396e-10
-2.65928e-06
1.09982e-06
1.3508e-06
-9.46865e-08
2.58289e-07
2.48696e-06
-2.95098e-07
-1.34948e-06
-1.10067e-06
1.72114e-07
-1.65535e-07
-6.48347e-07
6.41768e-07
-2.56974e-07
1.07079e-06
-1.72665e-07
-6.41156e-07
2.50691e-06
-1.03641e-09
-2.99613e-07
-1.10255e-06
1.94129e-07
-1.29783e-06
2.94475e-07
1.6537e-07
-2.47151e-06
9.11067e-07
1.1006e-06
3.02333e-07
-2.65854e-06
-2.07193e-09
1.1007e-06
-9.26854e-08
1.35026e-06
2.56849e-07
2.48773e-06
-2.95404e-07
-1.34951e-06
-1.09967e-06
-4.5143e-07
-4.52114e-07
2.10787e-06
-4.58674e-07
-4.58047e-07
2.09583e-06
-4.56513e-07
-4.54229e-07
2.09783e-06
-2.08887e-06
-4.46292e-07
-4.49779e-07
2.09626e-06
-2.10054e-06
-4.56734e-07
-4.56148e-07
-2.08558e-06
-4.57762e-07
-4.5469e-07
-2.08658e-06
-4.5169e-07
-4.53375e-07
-2.50999e-06
-1.81938e-09
-2.91467e-07
-9.98426e-07
-1.88402e-07
3.9901e-06
2.69551e-07
1.38171e-06
2.47205e-06
-3.58487e-06
-1.6358e-06
1.09736e-06
1.59872e-06
-1.60037e-06
3.31472e-09
4.54609e-07
-4.85088e-06
5.1419e-06
5.04439e-06
-4.85624e-06
9.33503e-07
-5.2957e-06
1.33256e-06
-4.54622e-07
4.74822e-06
-4.47593e-06
4.09645e-06
-5.0046e-06
5.00397e-06
-3.22089e-06
3.67188e-06
2.92786e-07
2.66137e-06
-2.13324e-09
9.97892e-07
2.98619e-07
-4.24853e-06
-1.38611e-06
-2.48859e-06
-2.6858e-07
1.48877e-06
-1.09798e-06
3.75249e-06
2.46266e-09
1.59631e-06
4.51272e-07
5.04549e-06
-4.85591e-06
5.14298e-06
-4.85038e-06
-1.66248e-07
-6.45676e-07
6.38049e-07
1.73875e-07
-2.58841e-07
1.07078e-06
-1.7578e-07
-6.36159e-07
7.64988e-10
-2.50701e-06
-2.86623e-07
3.98801e-06
-1.90894e-07
-1.00426e-06
1.59497e-06
-1.35707e-09
4.44256e-07
-4.84764e-06
5.1439e-06
-4.85366e-06
5.04704e-06
-1.59997e-06
1.3796e-06
2.47104e-06
-3.5856e-06
1.09886e-06
-1.63282e-06
2.6892e-07
9.27189e-07
-5.29428e-06
1.32921e-06
-4.63995e-07
4.75052e-06
-4.47216e-06
4.09876e-06
-5.00108e-06
5.00631e-06
-3.21911e-06
3.67394e-06
-1.27896e-09
1.58889e-06
4.44575e-07
5.04818e-06
-4.85485e-06
5.14507e-06
-4.84845e-06
-1.38564e-06
-2.48666e-06
-2.65057e-07
1.48978e-06
-1.10146e-06
3.74904e-06
1.53255e-09
2.65994e-06
1.00125e-06
-4.24851e-06
2.94582e-07
2.912e-07
-1.38048e-06
6.49339e-07
-1.25724e-06
1.42862e-06
1.87534e-07
3.7222e-07
-1.38124e-06
6.46685e-07
-1.25479e-06
1.42933e-06
1.88979e-07
3.71037e-07
5.2901e-06
5.29313e-06
-3.84498e-07
-1.18988e-07
-5.03465e-06
-5.04509e-06
1.38699e-06
-1.07203e-06
-3.70763e-07
-3.90446e-07
-1.42931e-06
1.87555e-06
1.38542e-06
-1.0716e-06
-3.69648e-07
-3.87269e-07
-1.43032e-06
1.87341e-06
1.7357e-07
-1.66074e-07
-6.44785e-07
6.37289e-07
-4.57106e-07
2.66171e-07
1.38002e-06
2.47044e-06
-3.58584e-06
-1.63422e-06
1.10342e-06
-1.58929e-06
-3.9562e-10
4.44755e-07
-4.8524e-06
5.14674e-06
5.04972e-06
-4.85923e-06
2.87293e-07
2.6574e-06
3.90111e-10
1.0081e-06
2.96454e-07
-4.24964e-06
-6.50567e-07
6.43126e-07
1.71278e-07
1.07458e-06
-1.72446e-07
-6.42187e-07
-6.47973e-07
6.4388e-07
1.7083e-07
1.07141e-06
-1.71991e-07
-6.42965e-07
-1.38184e-06
-1.25689e-06
1.42751e-06
1.87762e-07
3.72886e-07
-1.38216e-06
-1.2549e-06
1.42609e-06
1.89218e-07
3.73768e-07
-3.9334e-07
5.28937e-06
5.29073e-06
-1.1398e-07
-5.03088e-06
-5.04191e-06
-3.72155e-07
1.38753e-06
-3.89248e-07
-1.42786e-06
1.87632e-06
-3.73049e-07
1.38704e-06
-3.90013e-07
-1.42643e-06
1.87387e-06
1.07205e-06
-2.58473e-07
-1.73694e-07
-6.3988e-07
-6.49238e-07
-1.63936e-07
6.40729e-07
1.06928e-06
-2.55914e-07
-1.74396e-07
-6.38971e-07
-6.47097e-07
-1.65919e-07
6.41025e-07
-4.99888e-06
-5.00318e-06
1.14782e-07
4.74109e-06
4.75286e-06
1.38687e-06
-3.70994e-07
1.87504e-06
-1.42939e-06
-3.89488e-07
1.38565e-06
-3.71403e-07
1.87292e-06
-1.42829e-06
-3.89601e-07
-1.38082e-06
1.87172e-07
-1.25652e-06
1.42878e-06
-1.38192e-06
1.88378e-07
-1.25395e-06
1.42735e-06
2.50873e-06
-3.03792e-07
-1.30063e-06
1.92936e-07
-1.09734e-06
-2.47351e-06
1.10695e-06
9.08804e-07
2.91376e-07
2.48992e-06
-2.91534e-07
-1.34891e-06
-1.10663e-06
-2.66097e-06
1.09672e-06
1.35327e-06
-9.33724e-08
3.04829e-07
4.92268e-10
-2.94014e-07
-1.90699e-07
3.98754e-06
-9.95146e-07
-3.58429e-06
1.09444e-06
-1.63555e-06
2.71287e-07
1.60798e-06
-5.14029e-10
4.50567e-07
-4.84748e-06
5.14119e-06
-4.85293e-06
5.04374e-06
-1.60936e-06
9.30478e-07
1.36915e-06
-4.54708e-07
4.99844e-06
-3.21864e-06
3.67038e-06
4.74619e-06
-4.47324e-06
4.0948e-06
-5.00136e-06
-2.70091e-07
1.49044e-06
-1.0952e-06
3.75191e-06
-1.38666e-09
1.60418e-06
4.48902e-07
5.04463e-06
-4.85262e-06
5.14174e-06
-4.84698e-06
3.57908e-10
9.95017e-07
2.96477e-07
-4.24767e-06
2.94811e-07
-2.93275e-07
-1.89691e-07
3.9884e-06
-9.96208e-07
1.38205e-06
-3.58585e-06
1.09633e-06
-1.63601e-06
2.69963e-07
1.60934e-06
4.50181e-07
-4.8491e-06
5.14184e-06
-4.85396e-06
5.04468e-06
-1.61112e-06
9.33073e-07
1.36971e-06
-5.28785e-06
-4.52845e-07
4.7476e-06
-4.47599e-06
-5.0038e-06
4.09625e-06
4.99691e-06
-3.2143e-06
3.66368e-06
-2.69325e-07
-1.38609e-06
1.48916e-06
-1.09678e-06
3.75295e-06
1.60608e-06
4.49941e-07
5.04513e-06
-4.8537e-06
5.14256e-06
-4.84898e-06
9.95999e-07
2.97267e-07
-4.24804e-06
2.94158e-07
1.12192e-09
-2.66135e-06
1.35366e-06
-9.50493e-08
1.09777e-06
2.48845e-06
-1.1045e-06
-1.34928e-06
-2.47145e-06
9.1031e-07
1.10583e-06
1.78254e-10
2.50986e-06
-1.09839e-06
-1.30176e-06
1.92896e-07
-2.66164e-06
1.35402e-06
-9.30818e-08
1.09803e-06
2.48987e-06
2.56464e-07
-2.90926e-07
-1.10689e-06
-1.34852e-06
-2.47328e-06
1.66003e-07
9.09367e-07
1.10638e-06
2.5102e-06
-3.02888e-07
-1.09858e-06
-1.30177e-06
1.93217e-07
1.11915e-09
2.95723e-07
-4.24834e-06
9.96135e-07
9.29367e-07
-4.52792e-07
-5.28984e-06
3.67101e-06
-3.21926e-06
-5.00254e-06
4.0955e-06
-4.4739e-06
4.74695e-06
-2.68051e-07
3.75183e-06
-1.09811e-06
1.48966e-06
-1.60066e-06
-1.76375e-09
1.59834e-06
4.4977e-07
5.04543e-06
-4.85479e-06
5.14254e-06
-4.84915e-06
-1.63432e-06
-3.58505e-06
1.09702e-06
-1.89091e-09
4.4974e-07
-4.84851e-06
5.14234e-06
5.04522e-06
-4.85403e-06
7.61134e-10
-2.92623e-07
-9.97066e-07
-1.90555e-07
3.98934e-06
2.97819e-07
-4.24867e-06
9.97057e-07
9.33451e-07
4.99701e-06
-4.51337e-07
-5.00475e-06
4.09635e-06
4.74765e-06
-4.47673e-06
-5.2883e-06
3.66377e-06
-3.21453e-06
-1.38604e-06
-2.69084e-07
3.75354e-06
-1.09722e-06
1.48868e-06
-1.60347e-06
1.60254e-06
4.51147e-07
5.04518e-06
-4.85559e-06
5.14314e-06
-4.85056e-06
1.38203e-06
-1.63605e-06
-3.58592e-06
1.09734e-06
4.52225e-07
-4.85045e-06
5.14266e-06
5.04501e-06
-4.85528e-06
-2.92289e-07
-9.976e-07
-1.89078e-07
3.98992e-06
-1.25397e-06
1.42813e-06
1.88307e-07
3.7218e-07
6.49654e-07
-1.25806e-06
1.4301e-06
1.88236e-07
3.71472e-07
-3.94579e-07
-1.13137e-07
-5.04203e-06
-5.0331e-06
-3.71892e-07
-3.88438e-07
-1.42809e-06
1.87329e-06
-1.07273e-06
-3.71044e-07
-3.88497e-07
-1.43022e-06
1.87616e-06
-1.64051e-07
6.40087e-07
1.73617e-07
-1.73395e-07
-2.59197e-07
-6.40135e-07
1.07007e-06
-6.41497e-07
-6.47538e-07
6.40873e-07
-5.00253e-06
1.13054e-07
4.75072e-06
4.74119e-06
-3.71284e-07
1.87341e-06
-1.42901e-06
-3.89088e-07
-1.07248e-06
1.38616e-06
-3.70608e-07
1.87674e-06
-1.43082e-06
-3.88986e-07
1.87796e-07
-1.25373e-06
1.42855e-06
6.49822e-07
-1.38174e-06
1.88053e-07
-1.2576e-06
1.43042e-06
-2.58941e-07
-1.72908e-07
-6.40637e-07
-1.63751e-07
6.40176e-07
-1.11481e-09
-2.95153e-07
-1.89656e-07
3.98855e-06
-9.92926e-07
-3.58611e-06
1.09386e-06
-1.63597e-06
2.71797e-07
1.61157e-06
1.19938e-09
4.52998e-07
-4.84848e-06
5.13888e-06
-4.85366e-06
5.04238e-06
-1.61291e-06
9.30707e-07
1.34544e-06
-4.5879e-07
5.00283e-06
-3.21331e-06
3.66471e-06
4.74779e-06
-4.47496e-06
4.09708e-06
-5.00276e-06
-2.70348e-07
1.49009e-06
-1.09478e-06
3.75275e-06
2.14416e-09
1.60821e-06
4.50256e-07
5.04355e-06
-4.85353e-06
5.14007e-06
-4.84842e-06
-1.47028e-09
9.91425e-07
2.97712e-07
-4.24692e-06
2.97555e-07
2.50953e-06
-3.05831e-07
-1.30263e-06
-1.09356e-06
1.92371e-07
-2.47467e-06
9.08354e-07
1.11136e-06
1.66863e-07
2.88093e-07
-2.66169e-06
1.0923e-06
1.35516e-06
-9.47865e-08
3.07742e-07
2.49056e-06
-2.91079e-07
-1.34961e-06
-1.10866e-06
2.58781e-07
-2.95092e-07
3.98769e-06
-9.92595e-07
-1.91585e-07
1.61324e-06
4.48861e-07
-4.84656e-06
5.13946e-06
-4.85243e-06
5.04249e-06
-1.61461e-06
-3.58603e-06
-1.63486e-06
1.09114e-06
2.73512e-07
1.38157e-06
9.25306e-07
1.37472e-06
-4.59233e-07
4.74663e-06
-4.4716e-06
-4.99994e-06
4.09637e-06
-5.28591e-06
4.99864e-06
-3.21202e-06
3.66397e-06
1.60967e-06
4.44482e-07
5.04405e-06
-4.85211e-06
5.14087e-06
-4.84628e-06
9.9095e-07
-4.24693e-06
2.9516e-07
2.97659e-07
-2.71061e-07
1.49125e-06
-1.09283e-06
3.75071e-06
-1.38751e-06
-2.66043e-06
-1.82424e-09
-9.27469e-08
1.35352e-06
1.09555e-06
2.48892e-06
-1.10266e-06
-1.3477e-06
-2.47263e-06
9.09921e-07
1.10557e-06
2.50918e-06
-3.58633e-10
-1.09818e-06
1.9303e-07
-1.30133e-06
-2.1567e-09
2.98308e-07
-4.2477e-06
9.95973e-07
9.30805e-07
-4.60035e-07
-5.29105e-06
3.66564e-06
-3.21349e-06
-5.00333e-06
4.09787e-06
-4.47526e-06
4.74914e-06
-2.66892e-07
3.75204e-06
-1.09917e-06
1.4886e-06
-1.60465e-06
2.43245e-09
1.60087e-06
4.47916e-07
5.04618e-06
-4.85519e-06
5.14313e-06
-4.84989e-06
-1.63607e-06
-3.58567e-06
1.09686e-06
2.5883e-09
4.48141e-07
-4.84901e-06
5.14181e-06
5.04494e-06
-4.8541e-06
-1.42248e-09
-2.90086e-07
-9.99798e-07
-1.88834e-07
3.98932e-06
-2.66055e-06
1.35311e-06
1.09569e-06
-9.59097e-08
2.48853e-06
-2.93023e-07
-1.35006e-06
-1.10386e-06
2.58417e-07
2.50878e-06
-3.02225e-07
-1.09829e-06
-1.30121e-06
1.92587e-07
-2.47305e-06
9.10304e-07
1.1054e-06
1.66267e-07
-4.24778e-06
9.95645e-07
2.94338e-07
9.24278e-07
-4.5953e-07
-5.00043e-06
4.09765e-06
4.74812e-06
-4.47193e-06
4.99965e-06
-5.2859e-06
3.66528e-06
-3.21228e-06
-1.60546e-06
1.60137e-06
4.42232e-07
5.04673e-06
-4.85364e-06
5.14391e-06
-4.84773e-06
-2.67932e-07
3.7502e-06
1.49036e-06
-1.09758e-06
-1.38653e-06
4.43022e-07
-4.84708e-06
5.14237e-06
5.04556e-06
-4.85281e-06
-2.90064e-07
-9.99373e-07
3.98824e-06
-1.91452e-07
-1.63362e-06
-3.5866e-06
1.09581e-06
1.38031e-06
3.58642e-11
-3.0436e-07
1.93195e-07
-1.30096e-06
-1.09689e-06
1.10518e-06
9.1001e-07
2.92918e-07
-2.92699e-07
-1.35007e-06
-1.10509e-06
-1.38501e-09
1.09671e-06
-9.3108e-08
1.35357e-06
3.04689e-07
-2.50852e-06
-2.93262e-07
3.98803e-06
-9.96237e-07
-1.9124e-07
1.60975e-06
4.51465e-07
-4.84722e-06
5.14033e-06
-4.85341e-06
5.0432e-06
-1.61081e-06
2.47252e-06
-3.58508e-06
-1.63428e-06
1.09417e-06
1.38078e-06
2.71886e-07
9.29108e-07
1.36845e-06
-4.5726e-07
4.74549e-06
-4.47312e-06
-5.00151e-06
4.09519e-06
-5.28455e-06
5.00014e-06
-3.21164e-06
3.66765e-06
1.60777e-06
4.50136e-07
5.04415e-06
-4.8532e-06
5.14107e-06
-4.84706e-06
2.66066e-06
9.95794e-07
-4.2471e-06
2.95204e-07
2.94122e-07
-2.49017e-06
-2.69428e-07
1.49043e-06
-1.0956e-06
3.75132e-06
-1.38655e-06
-3.04242e-07
-1.30083e-06
-1.09668e-06
1.93278e-07
9.09681e-07
1.10799e-06
2.90531e-07
1.64327e-07
1.09602e-06
1.35348e-06
-9.52989e-08
3.05077e-07
-2.92477e-07
-1.35175e-06
-1.10653e-06
2.60583e-07
2.66091e-06
-2.12562e-09
2.98496e-07
-4.24765e-06
9.96673e-07
9.36833e-07
-4.52084e-07
-5.2957e-06
3.67054e-06
-3.22101e-06
-5.00406e-06
4.09513e-06
4.74689e-06
-4.47587e-06
-2.48883e-06
3.75325e-06
-1.09765e-06
1.48893e-06
-1.6024e-06
3.04559e-09
4.55564e-07
5.0442e-06
-4.85561e-06
-4.85026e-06
5.14146e-06
2.47188e-06
-1.63589e-06
-3.58482e-06
1.09809e-06
3.90052e-09
4.56021e-07
-4.85016e-06
5.14069e-06
5.04349e-06
-4.85538e-06
-2.50958e-06
-1.56786e-09
-9.97377e-07
-1.88538e-07
3.98985e-06
-2.114e-09
-9.24907e-08
1.35376e-06
1.0974e-06
-2.9176e-07
-1.106e-06
-1.35001e-06
9.10149e-07
1.10528e-06
-4.21887e-10
-3.03451e-07
-1.09797e-06
1.93685e-07
-1.30142e-06
2.66121e-06
-4.24794e-06
9.97038e-07
2.94304e-07
9.23951e-07
-4.51604e-07
-5.00102e-06
4.097e-06
4.74763e-06
-4.47279e-06
4.99742e-06
-5.28895e-06
3.66432e-06
-3.21679e-06
-1.60221e-06
1.59976e-06
4.49811e-07
5.04492e-06
-4.85453e-06
5.14224e-06
-4.84847e-06
-2.48831e-06
-2.69298e-07
3.75115e-06
1.49079e-06
-1.09724e-06
-1.38709e-06
4.50547e-07
-4.84838e-06
5.14126e-06
5.04454e-06
-4.85456e-06
-2.50938e-06
-2.92488e-07
-9.97568e-07
3.98924e-06
-1.91373e-07
2.47434e-06
-1.63287e-06
-3.58746e-06
1.09719e-06
1.37937e-06
1.35356e-06
1.09733e-06
-9.60394e-08
-2.90514e-07
-1.3508e-06
-1.10722e-06
2.60217e-07
-3.03653e-07
-1.09753e-06
-1.30151e-06
1.92886e-07
9.10402e-07
1.10608e-06
1.65377e-07
-6.49076e-07
6.38381e-07
1.0705e-06
-1.7517e-07
-6.37042e-07
-6.4645e-07
6.37425e-07
1.06872e-06
-1.75194e-07
-6.36679e-07
-1.38122e-06
-1.25594e-06
1.86895e-07
1.43019e-06
-1.3816e-06
-1.25359e-06
1.87899e-07
1.42944e-06
-3.8647e-07
5.29136e-06
5.29326e-06
-1.18121e-07
-5.03457e-06
-5.04546e-06
-3.69509e-07
1.38585e-06
-3.8936e-07
-1.43122e-06
1.87473e-06
-3.69653e-07
1.38481e-06
-3.88528e-07
-1.43057e-06
1.87266e-06
1.06956e-06
-2.57971e-07
-6.37492e-07
-6.48719e-07
-1.63128e-07
6.36676e-07
1.06772e-06
-2.55882e-07
-6.37386e-07
-6.45939e-07
-1.6594e-07
6.36682e-07
-4.99899e-06
-5.00277e-06
1.17903e-07
4.74233e-06
4.75506e-06
1.38409e-06
1.87574e-06
-1.4326e-06
-3.88255e-07
1.38396e-06
1.87286e-06
-1.43173e-06
-3.87765e-07
-1.38185e-06
1.87222e-07
-1.25555e-06
1.43195e-06
-1.38132e-06
1.87915e-07
-1.25358e-06
1.43139e-06
2.5088e-06
-3.01019e-07
-1.10132e-06
-1.29979e-06
1.92422e-07
-2.47361e-06
9.09872e-07
1.10728e-06
-2.66e-06
1.09981e-06
1.35148e-06
-9.36239e-08
2.49025e-06
-2.91486e-07
-1.34907e-06
-1.10666e-06
-1.21304e-09
-2.89534e-07
-1.00161e-06
-1.88751e-07
3.98921e-06
-3.58416e-06
-1.63525e-06
1.09988e-06
1.59463e-06
-6.9333e-10
4.47941e-07
-4.84928e-06
5.14388e-06
5.04644e-06
-4.85467e-06
9.32474e-07
1.35436e-06
-4.51258e-07
4.99978e-06
-3.22065e-06
3.67204e-06
4.7481e-06
-4.47549e-06
4.09566e-06
-5.00414e-06
1.45161e-10
9.9937e-07
2.96961e-07
-4.24838e-06
-2.65587e-07
1.4883e-06
-1.10165e-06
3.75175e-06
8.04577e-10
1.59003e-06
4.50247e-07
5.04681e-06
-4.85541e-06
5.14441e-06
-4.84979e-06
-2.894e-07
-1.00181e-06
-1.90974e-07
3.98977e-06
1.38214e-06
-3.58623e-06
-1.6361e-06
1.09749e-06
1.59992e-06
4.49079e-07
-4.85027e-06
5.14426e-06