/*--------------------------------*- C++ -*----------------------------------*\
| =========                 |                                                 |
| \\      /  F ield         | OpenFOAM: The Open Source CFD Toolbox           |
|  \\    /   O peration     | Version:  2206                                  |
|   \\  /    A nd           | Website:  www.openfoam.com                      |
|    \\/     M anipulation  |                                                 |
\*---------------------------------------------------------------------------*/
FoamFile
{
    version     2.0;
    format      ascii;
    arch        "LSB;label=32;scalar=64";
    class       volScalarField;
    location    "22";
    object      k;
}
// * * * * * * * * * * * * * * * * * * * * * * * * * * * * * * * * * * * * * //

dimensions      [0 2 -2 0 0 0 0];

internalField   nonuniform List<scalar> 
28335
(
2.83155e-05
2.79642e-05
2.79641e-05
2.75353e-05
2.83156e-05
2.79641e-05
2.7964e-05
2.75355e-05
2.83156e-05
2.79643e-05
2.79641e-05
2.75357e-05
2.83153e-05
2.79641e-05
2.7964e-05
2.75357e-05
2.83116e-05
2.796e-05
2.79599e-05
2.75311e-05
2.83073e-05
2.79551e-05
2.79551e-05
2.75256e-05
2.83072e-05
2.79551e-05
2.7955e-05
2.75256e-05
2.83072e-05
2.79551e-05
2.7955e-05
2.75256e-05
2.83072e-05
2.79551e-05
2.7955e-05
2.75256e-05
2.83072e-05
2.79551e-05
2.7955e-05
2.75256e-05
2.83072e-05
2.79551e-05
2.7955e-05
2.75256e-05
2.83072e-05
2.79551e-05
2.7955e-05
2.75256e-05
2.83072e-05
2.79551e-05
2.7955e-05
2.75256e-05
2.83072e-05
2.79551e-05
2.7955e-05
2.75256e-05
2.83072e-05
2.79551e-05
2.7955e-05
2.75256e-05
2.83072e-05
2.79551e-05
2.7955e-05
2.75256e-05
2.83072e-05
2.79551e-05
2.7955e-05
2.75256e-05
2.75385e-05
2.7964e-05
2.7964e-05
2.75385e-05
2.79642e-05
2.79638e-05
2.79642e-05
2.7964e-05
2.75383e-05
2.79641e-05
2.79642e-05
2.75383e-05
2.75358e-05
2.75386e-05
2.79642e-05
2.79641e-05
2.79641e-05
2.7964e-05
2.75358e-05
2.75385e-05
2.79644e-05
2.79639e-05
2.79643e-05
2.79639e-05
2.79641e-05
2.79641e-05
2.79641e-05
2.75355e-05
2.75383e-05
2.79644e-05
2.79641e-05
2.79643e-05
2.75384e-05
2.75359e-05
2.75388e-05
2.79644e-05
2.79642e-05
2.79643e-05
2.79641e-05
2.75358e-05
2.75387e-05
2.79644e-05
2.79641e-05
2.79644e-05
2.79641e-05
2.79642e-05
2.79643e-05
2.79642e-05
2.75356e-05
2.75385e-05
2.79644e-05
2.79641e-05
2.79644e-05
2.75386e-05
2.75361e-05
2.75389e-05
2.79644e-05
2.79644e-05
2.79641e-05
2.79642e-05
2.7536e-05
2.75389e-05
2.79646e-05
2.79641e-05
2.79644e-05
2.79639e-05
2.79644e-05
2.79642e-05
2.79642e-05
2.75358e-05
2.75386e-05
2.79646e-05
2.79641e-05
2.79643e-05
2.75388e-05
2.75361e-05
2.75358e-05
2.7964e-05
2.79641e-05
2.79621e-05
2.7962e-05
2.75361e-05
2.75358e-05
2.79643e-05
2.79638e-05
2.79623e-05
2.79619e-05
2.7964e-05
2.79624e-05
2.79621e-05
2.75358e-05
2.75356e-05
2.79642e-05
2.79623e-05
2.79623e-05
2.75358e-05
2.75315e-05
2.75287e-05
2.79597e-05
2.79596e-05
2.79552e-05
2.79552e-05
2.75315e-05
2.75287e-05
2.79599e-05
2.79595e-05
2.79554e-05
2.7955e-05
2.79597e-05
2.79554e-05
2.79552e-05
2.75313e-05
2.75285e-05
2.79599e-05
2.79554e-05
2.79554e-05
2.75288e-05
2.75258e-05
2.75286e-05
2.79551e-05
2.7955e-05
2.79549e-05
2.79548e-05
2.75258e-05
2.75286e-05
2.79553e-05
2.79548e-05
2.79551e-05
2.79546e-05
2.7955e-05
2.79551e-05
2.79549e-05
2.75256e-05
2.75284e-05
2.79552e-05
2.7955e-05
2.79551e-05
2.75286e-05
2.75259e-05
2.75285e-05
2.7955e-05
2.7955e-05
2.79549e-05
2.79549e-05
2.75259e-05
2.75285e-05
2.79552e-05
2.79548e-05
2.79551e-05
2.79547e-05
2.7955e-05
2.79552e-05
2.79549e-05
2.75256e-05
2.75283e-05
2.79552e-05
2.79551e-05
2.79551e-05
2.75286e-05
2.75258e-05
2.75285e-05
2.7955e-05
2.7955e-05
2.79549e-05
2.79549e-05
2.75258e-05
2.75285e-05
2.79552e-05
2.79548e-05
2.79551e-05
2.79547e-05
2.7955e-05
2.79552e-05
2.79549e-05
2.75256e-05
2.75283e-05
2.79552e-05
2.79551e-05
2.79551e-05
2.75286e-05
2.75258e-05
2.75285e-05
2.7955e-05
2.7955e-05
2.79549e-05
2.79549e-05
2.75257e-05
2.75285e-05
2.79552e-05
2.79548e-05
2.79551e-05
2.79547e-05
2.7955e-05
2.79552e-05
2.79549e-05
2.75255e-05
2.75283e-05
2.79552e-05
2.79551e-05
2.79551e-05
2.75286e-05
2.75258e-05
2.75285e-05
2.7955e-05
2.7955e-05
2.79549e-05
2.79549e-05
2.75258e-05
2.75285e-05
2.79552e-05
2.79548e-05
2.79551e-05
2.79547e-05
2.7955e-05
2.79552e-05
2.79549e-05
2.75256e-05
2.75283e-05
2.79552e-05
2.79551e-05
2.79551e-05
2.75286e-05
2.75258e-05
2.75285e-05
2.7955e-05
2.7955e-05
2.79549e-05
2.79549e-05
2.75258e-05
2.75285e-05
2.79552e-05
2.79548e-05
2.79551e-05
2.79547e-05
2.7955e-05
2.79552e-05
2.79549e-05
2.75255e-05
2.75283e-05
2.79552e-05
2.79551e-05
2.79551e-05
2.75286e-05
2.75258e-05
2.75285e-05
2.7955e-05
2.7955e-05
2.79549e-05
2.79549e-05
2.75258e-05
2.75285e-05
2.79552e-05
2.79548e-05
2.79551e-05
2.79547e-05
2.7955e-05
2.79552e-05
2.79549e-05
2.75255e-05
2.75283e-05
2.79552e-05
2.79551e-05
2.79551e-05
2.75286e-05
2.75258e-05
2.75285e-05
2.7955e-05
2.7955e-05
2.79549e-05
2.79549e-05
2.75258e-05
2.75285e-05
2.79552e-05
2.79548e-05
2.79551e-05
2.79547e-05
2.7955e-05
2.79552e-05
2.79549e-05
2.75255e-05
2.75283e-05
2.79552e-05
2.79551e-05
2.79551e-05
2.75286e-05
2.75258e-05
2.75285e-05
2.7955e-05
2.7955e-05
2.79549e-05
2.79549e-05
2.75258e-05
2.75285e-05
2.79552e-05
2.79548e-05
2.79551e-05
2.79547e-05
2.7955e-05
2.79552e-05
2.79549e-05
2.75255e-05
2.75283e-05
2.79552e-05
2.79551e-05
2.79551e-05
2.75286e-05
2.75258e-05
2.75285e-05
2.7955e-05
2.7955e-05
2.79549e-05
2.79549e-05
2.75258e-05
2.75285e-05
2.79552e-05
2.79548e-05
2.79551e-05
2.79547e-05
2.7955e-05
2.79552e-05
2.79549e-05
2.75255e-05
2.75283e-05
2.79552e-05
2.79551e-05
2.79551e-05
2.75286e-05
2.75258e-05
2.75285e-05
2.7955e-05
2.7955e-05
2.79549e-05
2.79549e-05
2.75258e-05
2.75285e-05
2.79552e-05
2.79548e-05
2.79551e-05
2.79547e-05
2.7955e-05
2.79552e-05
2.79549e-05
2.75255e-05
2.75283e-05
2.79552e-05
2.79551e-05
2.79551e-05
2.75286e-05
2.75258e-05
2.7955e-05
2.7955e-05
2.75258e-05
2.79552e-05
2.79547e-05
2.7955e-05
2.75255e-05
2.79552e-05
2.95829e-05
6.89061e-05
8.24912e-05
2.95839e-05
6.89089e-05
2.83155e-05
2.83157e-05
2.83156e-05
2.83156e-05
2.67234e-05
2.79643e-05
2.91866e-05
2.81808e-05
8.24871e-05
2.67236e-05
2.79642e-05
2.81807e-05
2.91868e-05
2.75383e-05
3.33392e-05
3.334e-05
2.95854e-05
6.89064e-05
2.95867e-05
6.89035e-05
8.24849e-05
8.24815e-05
2.95857e-05
6.89092e-05
2.95872e-05
6.89062e-05
2.83157e-05
2.83156e-05
2.83156e-05
2.83156e-05
2.83155e-05
2.83155e-05
2.83155e-05
2.67238e-05
2.91912e-05
2.81807e-05
2.79643e-05
2.67236e-05
2.91886e-05
2.81807e-05
8.24819e-05
8.24778e-05
2.67239e-05
2.81806e-05
2.91913e-05
2.79641e-05
2.67237e-05
2.81806e-05
2.91889e-05
3.33435e-05
3.33443e-05
2.75384e-05
3.33436e-05
3.33445e-05
2.95863e-05
6.89045e-05
2.95877e-05
6.89021e-05
8.24801e-05
8.24786e-05
2.9587e-05
6.89074e-05
2.95879e-05
6.89049e-05
2.83155e-05
2.83155e-05
2.83155e-05
2.83156e-05
2.83154e-05
2.83154e-05
2.83155e-05
2.67242e-05
2.91927e-05
2.81805e-05
2.79643e-05
2.6724e-05
2.91898e-05
2.81807e-05
8.24765e-05
8.24747e-05
2.67245e-05
2.81805e-05
2.91926e-05
2.79642e-05
2.67241e-05
2.81806e-05
2.91898e-05
3.33486e-05
3.33495e-05
2.75386e-05
3.33488e-05
3.33497e-05
2.95877e-05
6.89039e-05
2.95892e-05
6.89018e-05
8.24793e-05
8.2479e-05
2.95886e-05
6.89067e-05
2.95899e-05
6.89045e-05
2.83156e-05
2.83155e-05
2.83156e-05
2.83153e-05
2.83154e-05
2.83153e-05
2.83153e-05
2.6725e-05
2.91933e-05
2.81806e-05
2.79644e-05
2.67247e-05
2.91904e-05
2.81806e-05
8.24758e-05
8.24752e-05
2.67252e-05
2.81806e-05
2.91932e-05
2.79642e-05
2.6725e-05
2.81806e-05
2.91904e-05
3.33525e-05
3.33534e-05
2.75388e-05
3.33518e-05
3.33527e-05
2.95867e-05
6.89046e-05
2.95894e-05
6.89049e-05
8.24821e-05
8.24831e-05
2.95876e-05
6.89074e-05
2.95901e-05
6.89076e-05
2.83153e-05
2.83152e-05
2.83153e-05
2.83137e-05
2.83138e-05
2.83137e-05
2.83137e-05
2.67243e-05
2.91938e-05
2.81804e-05
2.79639e-05
2.6725e-05
2.91902e-05
2.81803e-05
8.24786e-05
8.24795e-05
2.67243e-05
2.81804e-05
2.91937e-05
2.79638e-05
2.6725e-05
2.81803e-05
2.91904e-05
3.33532e-05
3.33541e-05
2.75383e-05
3.33511e-05
3.3352e-05
2.95808e-05
6.89137e-05
2.95861e-05
6.89135e-05
8.2484e-05
8.24826e-05
2.95815e-05
6.89165e-05
2.95866e-05
6.89162e-05
2.83117e-05
2.83117e-05
2.83117e-05
2.83076e-05
2.83076e-05
2.83076e-05
2.83076e-05
2.67146e-05
2.91908e-05
2.81766e-05
2.79579e-05
2.67202e-05
2.91843e-05
2.81747e-05
8.24806e-05
8.24789e-05
2.67146e-05
2.81765e-05
2.91907e-05
2.79578e-05
2.67202e-05
2.81747e-05
2.91844e-05
3.33505e-05
3.33514e-05
2.75312e-05
3.33454e-05
3.33463e-05
2.95763e-05
6.89155e-05
2.9579e-05
6.89132e-05
8.24828e-05
8.24819e-05
2.95772e-05
6.89179e-05
2.95796e-05
6.89153e-05
2.83074e-05
2.83074e-05
2.83074e-05
2.83072e-05
2.83073e-05
2.83072e-05
2.83072e-05
2.67129e-05
2.9184e-05
2.81721e-05
2.79552e-05
2.67128e-05
2.918e-05
2.81721e-05
8.24793e-05
8.2478e-05
2.67129e-05
2.8172e-05
2.9184e-05
2.79551e-05
2.67129e-05
2.81721e-05
2.91803e-05
3.33427e-05
3.33436e-05
2.75286e-05
3.33405e-05
3.33413e-05
2.95759e-05
6.89151e-05
2.95779e-05
6.89131e-05
8.24825e-05
8.24816e-05
2.9577e-05
6.89171e-05
2.95786e-05
6.89147e-05
2.83074e-05
2.83073e-05
2.83074e-05
2.83072e-05
2.83073e-05
2.83072e-05
2.83072e-05
2.67129e-05
2.91829e-05
2.8172e-05
2.79552e-05
2.67127e-05
2.91796e-05
2.81721e-05
8.24791e-05
8.2478e-05
2.67128e-05
2.81719e-05
2.9183e-05
2.79551e-05
2.67127e-05
2.8172e-05
2.91799e-05
3.33418e-05
3.33426e-05
2.75286e-05
3.33402e-05
3.33411e-05
2.95759e-05
6.89151e-05
2.95778e-05
6.8913e-05
8.24824e-05
8.24816e-05
2.9577e-05
6.89168e-05
2.95786e-05
6.89145e-05
2.83074e-05
2.83073e-05
2.83073e-05
2.83072e-05
2.83073e-05
2.83072e-05
2.83072e-05
2.67128e-05
2.91829e-05
2.8172e-05
2.79552e-05
2.67127e-05
2.91796e-05
2.81721e-05
8.24791e-05
8.2478e-05
2.67128e-05
2.81719e-05
2.9183e-05
2.79551e-05
2.67127e-05
2.81721e-05
2.91799e-05
3.33418e-05
3.33426e-05
2.75286e-05
3.33402e-05
3.33411e-05
2.95759e-05
6.89151e-05
2.95778e-05
6.8913e-05
8.24824e-05
8.24816e-05
2.9577e-05
6.89166e-05
2.95786e-05
6.89144e-05
2.83074e-05
2.83073e-05
2.83073e-05
2.83072e-05
2.83073e-05
2.83072e-05
2.83072e-05
2.67126e-05
2.91829e-05
2.8172e-05
2.79552e-05
2.67126e-05
2.91796e-05
2.81721e-05
8.24791e-05
8.2478e-05
2.67128e-05
2.81719e-05
2.9183e-05
2.79551e-05
2.67127e-05
2.81721e-05
2.91799e-05
3.33418e-05
3.33426e-05
2.75286e-05
3.33402e-05
3.33411e-05
2.95759e-05
6.89151e-05
2.95778e-05
6.8913e-05
8.24825e-05
8.24817e-05
2.95769e-05
6.89166e-05
2.95786e-05
6.89144e-05
2.83074e-05
2.83073e-05
2.83073e-05
2.83072e-05
2.83073e-05
2.83072e-05
2.83072e-05
2.67128e-05
2.91829e-05
2.8172e-05
2.79552e-05
2.67127e-05
2.91796e-05
2.81721e-05
8.24791e-05
8.2478e-05
2.67128e-05
2.81719e-05
2.9183e-05
2.79552e-05
2.67127e-05
2.81721e-05
2.91799e-05
3.33418e-05
3.33426e-05
2.75286e-05
3.33402e-05
3.33411e-05
2.95759e-05
6.89151e-05
2.95778e-05
6.8913e-05
8.24825e-05
8.24817e-05
2.95769e-05
6.89165e-05
2.95786e-05
6.89144e-05
2.83074e-05
2.83073e-05
2.83073e-05
2.83072e-05
2.83073e-05
2.83072e-05
2.83072e-05
2.67127e-05
2.91828e-05
2.8172e-05
2.79552e-05
2.67127e-05
2.91796e-05
2.81721e-05
8.24791e-05
8.2478e-05
2.67127e-05
2.81719e-05
2.9183e-05
2.79552e-05
2.67127e-05
2.81721e-05
2.91799e-05
3.33418e-05
3.33426e-05
2.75286e-05
3.33402e-05
3.33411e-05
2.95759e-05
6.89151e-05
2.95778e-05
6.8913e-05
8.24825e-05
8.24817e-05
2.95769e-05
6.89165e-05
2.95786e-05
6.89144e-05
2.83074e-05
2.83073e-05
2.83073e-05
2.83072e-05
2.83073e-05
2.83072e-05
2.83072e-05
2.67126e-05
2.91828e-05
2.8172e-05
2.79552e-05
2.67126e-05
2.91796e-05
2.81721e-05
8.24791e-05
8.2478e-05
2.67128e-05
2.81719e-05
2.9183e-05
2.79552e-05
2.67127e-05
2.8172e-05
2.91799e-05
3.33418e-05
3.33426e-05
2.75286e-05
3.33402e-05
3.33411e-05
2.95759e-05
6.89151e-05
2.95778e-05
6.8913e-05
8.24825e-05
8.24817e-05
2.95769e-05
6.89165e-05
2.95786e-05
6.89144e-05
2.83074e-05
2.83073e-05
2.83073e-05
2.83072e-05
2.83073e-05
2.83072e-05
2.83072e-05
2.67129e-05
2.91828e-05
2.8172e-05
2.79552e-05
2.67127e-05
2.91796e-05
2.81721e-05
8.24791e-05
8.2478e-05
2.67128e-05
2.81719e-05
2.9183e-05
2.79552e-05
2.67127e-05
2.81721e-05
2.91799e-05
3.33418e-05
3.33426e-05
2.75286e-05
3.33402e-05
3.33411e-05
2.95759e-05
6.89151e-05
2.95778e-05
6.8913e-05
8.24825e-05
8.24817e-05
2.95769e-05
6.89165e-05
2.95786e-05
6.89144e-05
2.83074e-05
2.83073e-05
2.83073e-05
2.83072e-05
2.83073e-05
2.83072e-05
2.83072e-05
2.67128e-05
2.91828e-05
2.8172e-05
2.79552e-05
2.67127e-05
2.91796e-05
2.81721e-05
8.24791e-05
8.2478e-05
2.67127e-05
2.81719e-05
2.9183e-05
2.79552e-05
2.67126e-05
2.8172e-05
2.91799e-05
3.33418e-05
3.33426e-05
2.75286e-05
3.33402e-05
3.33411e-05
2.95759e-05
6.89151e-05
2.95778e-05
6.8913e-05
8.24825e-05
8.24817e-05
2.95769e-05
6.89165e-05
2.95786e-05
6.89144e-05
2.83074e-05
2.83073e-05
2.83073e-05
2.83072e-05
2.83073e-05
2.83072e-05
2.83072e-05
2.67128e-05
2.91828e-05
2.8172e-05
2.79552e-05
2.67127e-05
2.91796e-05
2.81721e-05
8.24791e-05
8.2478e-05
2.67126e-05
2.81719e-05
2.9183e-05
2.79551e-05
2.67125e-05
2.8172e-05
2.91799e-05
3.33418e-05
3.33426e-05
2.75286e-05
3.33402e-05
3.33411e-05
2.95759e-05
6.89151e-05
2.95778e-05
6.8913e-05
8.24825e-05
8.24817e-05
2.95769e-05
6.89165e-05
2.95786e-05
6.89144e-05
2.83074e-05
2.83073e-05
2.83073e-05
2.83072e-05
2.83073e-05
2.83072e-05
2.83072e-05
2.67128e-05
2.91828e-05
2.8172e-05
2.79552e-05
2.67127e-05
2.91796e-05
2.81721e-05
8.24791e-05
8.2478e-05
2.67125e-05
2.81719e-05
2.91829e-05
2.79551e-05
2.67124e-05
2.8172e-05
2.91799e-05
3.33417e-05
3.33426e-05
2.75286e-05
3.33402e-05
3.33411e-05
2.95759e-05
6.89151e-05
2.95778e-05
6.8913e-05
8.24825e-05
8.24817e-05
2.95769e-05
6.89165e-05
2.95786e-05
6.89144e-05
2.83074e-05
2.83073e-05
2.83073e-05
2.6713e-05
2.91828e-05
2.8172e-05
2.79552e-05
2.67127e-05
2.91796e-05
2.81721e-05
8.24791e-05
8.24781e-05
2.67127e-05
2.81719e-05
2.91829e-05
2.79552e-05
2.67124e-05
2.81721e-05
2.91801e-05
3.33418e-05
3.33426e-05
2.75288e-05
3.33403e-05
3.33413e-05
8.24912e-05
8.24908e-05
2.75385e-05
3.33392e-05
3.33396e-05
8.24851e-05
8.24907e-05
8.24847e-05
8.24904e-05
2.75358e-05
3.33414e-05
3.33419e-05
3.33412e-05
3.33417e-05
2.95832e-05
6.89086e-05
2.67236e-05
2.79641e-05
2.9187e-05
2.81808e-05
2.67238e-05
2.79641e-05
2.91878e-05
2.81808e-05
2.95855e-05
6.89046e-05
6.89075e-05
2.95845e-05
2.95858e-05
6.89071e-05
6.891e-05
2.95848e-05
2.6724e-05
2.79641e-05
2.91882e-05
2.81807e-05
2.91906e-05
2.81807e-05
2.67239e-05
2.67241e-05
2.7964e-05
2.91891e-05
2.81807e-05
2.91915e-05
2.81807e-05
2.67241e-05
2.75385e-05
3.33404e-05
3.33352e-05
8.24871e-05
8.2485e-05
8.24907e-05
2.75358e-05
3.3343e-05
3.33376e-05
3.33428e-05
3.33378e-05
8.24814e-05
8.24874e-05
2.6724e-05
2.79643e-05
2.91878e-05
2.81808e-05
2.95835e-05
6.89057e-05
2.67238e-05
2.79639e-05
2.81807e-05
2.91867e-05
2.95863e-05
6.89074e-05
6.89104e-05
2.95854e-05
2.67244e-05
2.79643e-05
2.9189e-05
2.81807e-05
2.91914e-05
2.81808e-05
2.67243e-05
2.95859e-05
6.89043e-05
6.89073e-05
2.95849e-05
2.67242e-05
2.79638e-05
2.81806e-05
2.9188e-05
2.81807e-05
2.91907e-05
2.67241e-05
2.95831e-05
6.89058e-05
2.67236e-05
2.79641e-05
2.81808e-05
2.91868e-05
2.9583e-05
6.89077e-05
2.67238e-05
2.79643e-05
2.91878e-05
2.81807e-05
2.91904e-05
2.81807e-05
2.67236e-05
2.95857e-05
6.89044e-05
6.89074e-05
2.95847e-05
2.67239e-05
2.79641e-05
2.81807e-05
2.9188e-05
2.81807e-05
2.91905e-05
2.67239e-05
2.95856e-05
6.89062e-05
6.89091e-05
2.95845e-05
2.75383e-05
3.33363e-05
3.33391e-05
8.24911e-05
8.24815e-05
8.24875e-05
2.75356e-05
3.3339e-05
3.33413e-05
3.3339e-05
3.33411e-05
8.2485e-05
8.24907e-05
2.67239e-05
2.79643e-05
2.81808e-05
2.91876e-05
2.95836e-05
6.89081e-05
2.95838e-05
6.89099e-05
2.67239e-05
2.79642e-05
2.81807e-05
2.9188e-05
2.81807e-05
2.91905e-05
2.67237e-05
2.67243e-05
2.79643e-05
2.81808e-05
2.91888e-05
2.81808e-05
2.91913e-05
2.67242e-05
2.9586e-05
6.89066e-05
6.89095e-05
2.9585e-05
2.95861e-05
6.89086e-05
6.89114e-05
2.95852e-05
8.24912e-05
8.2491e-05
2.75356e-05
3.33414e-05
3.33423e-05
3.33413e-05
3.33422e-05
8.2485e-05
8.24907e-05
8.24849e-05
8.24905e-05
8.24853e-05
8.24816e-05
8.24849e-05
8.24813e-05
3.33434e-05
3.33439e-05
2.75385e-05
3.33438e-05
3.33443e-05
8.24796e-05
8.24823e-05
8.24793e-05
8.2482e-05
2.75358e-05
3.33467e-05
3.33472e-05
3.3346e-05
3.33465e-05
2.95855e-05
6.89085e-05
2.95872e-05
6.89059e-05
2.67243e-05
2.91918e-05
2.81808e-05
2.79642e-05
2.67245e-05
2.91891e-05
2.81808e-05
2.67245e-05
2.91927e-05
2.81808e-05
2.79641e-05
2.67246e-05
2.919e-05
2.81808e-05
2.95877e-05
6.89026e-05
6.89049e-05
2.95857e-05
2.95878e-05
6.8905e-05
6.89073e-05
2.95859e-05
2.67248e-05
2.79642e-05
2.91897e-05
2.81807e-05
2.91926e-05
2.81808e-05
2.67246e-05
2.67249e-05
2.79641e-05
2.91906e-05
2.81808e-05
2.91935e-05
2.81808e-05
2.67248e-05
3.33451e-05
3.33398e-05
2.75385e-05
3.33453e-05
3.33397e-05
8.2482e-05
8.24778e-05
8.24796e-05
8.24821e-05
2.75358e-05
3.3348e-05
3.33433e-05
3.33475e-05
3.33424e-05
8.24757e-05
8.24787e-05
2.67248e-05
2.91925e-05
2.81808e-05
2.79644e-05
2.67249e-05
2.919e-05
2.81808e-05
2.95853e-05
6.89059e-05
2.9587e-05
6.89032e-05
2.67245e-05
2.81807e-05
2.91918e-05
2.79639e-05
2.67247e-05
2.81807e-05
2.91889e-05
2.95877e-05
6.89054e-05
6.89078e-05
2.95861e-05
2.67253e-05
2.79643e-05
2.91906e-05
2.81808e-05
2.91934e-05
2.81808e-05
2.6725e-05
2.95873e-05
6.89023e-05
6.89048e-05
2.95857e-05
2.67249e-05
2.79639e-05
2.81807e-05
2.91896e-05
2.81807e-05
2.91926e-05
2.67248e-05
2.95855e-05
6.89059e-05
2.95871e-05
6.89032e-05
2.67244e-05
2.81808e-05
2.91916e-05
2.79641e-05
2.67244e-05
2.81808e-05
2.91889e-05
2.95854e-05
6.89076e-05
2.9587e-05
6.8905e-05
2.67242e-05
2.79643e-05
2.91893e-05
2.81805e-05
2.91924e-05
2.81806e-05
2.6724e-05
2.95878e-05
6.89023e-05
6.89048e-05
2.95859e-05
2.67249e-05
2.79641e-05
2.81806e-05
2.91895e-05
2.81807e-05
2.91924e-05
2.67246e-05
2.95877e-05
6.89041e-05
6.89065e-05
2.95858e-05
3.33411e-05
3.33433e-05
2.75383e-05
3.3341e-05
3.33437e-05
8.24852e-05
8.24816e-05
8.24757e-05
8.24787e-05
2.75356e-05
3.33441e-05
3.33465e-05
3.33434e-05
3.33459e-05
8.24795e-05
8.24822e-05
2.67245e-05
2.81807e-05
2.91924e-05
2.79644e-05
2.67248e-05
2.81807e-05
2.91897e-05
2.95855e-05
6.8908e-05
2.95872e-05
6.89054e-05
2.95857e-05
6.891e-05
2.95874e-05
6.89073e-05
2.67244e-05
2.79641e-05
2.81805e-05
2.91895e-05
2.81806e-05
2.91924e-05
2.67241e-05
2.67249e-05
2.79643e-05
2.81807e-05
2.91903e-05
2.81807e-05
2.91932e-05
2.67247e-05
2.95875e-05
6.89045e-05
6.89069e-05
2.95858e-05
2.95877e-05
6.89064e-05
6.89088e-05
2.95861e-05
8.24852e-05
8.24816e-05
8.24851e-05
8.24814e-05
2.75357e-05
3.33463e-05
3.33473e-05
3.33457e-05
3.33467e-05
8.24795e-05
8.24823e-05
8.24793e-05
8.24821e-05
8.24805e-05
8.24785e-05
8.24801e-05
8.24782e-05
3.33488e-05
3.33493e-05
2.75387e-05
3.33491e-05
3.33496e-05
8.24783e-05
8.24797e-05
8.2478e-05
8.24793e-05
2.7536e-05
3.33509e-05
3.33513e-05
3.33511e-05
3.33515e-05
2.95866e-05
6.89066e-05
2.95882e-05
6.89045e-05
2.6725e-05
2.91932e-05
2.81809e-05
2.79644e-05
2.67252e-05
2.91901e-05
2.81809e-05
2.67251e-05
2.91941e-05
2.81808e-05
2.79642e-05
2.67253e-05
2.9191e-05
2.81807e-05
2.95887e-05
6.89018e-05
6.89038e-05
2.95872e-05
2.9589e-05
6.89042e-05
6.89062e-05
2.95876e-05
2.67255e-05
2.79643e-05
2.91904e-05
2.81808e-05
2.91935e-05
2.81808e-05
2.67254e-05
2.67256e-05
2.79642e-05
2.91913e-05
2.81807e-05
2.91944e-05
2.81807e-05
2.67255e-05
3.33502e-05
3.33458e-05
2.75386e-05
3.33504e-05
3.33457e-05
8.24769e-05
8.24746e-05
8.24784e-05
8.24797e-05
2.75359e-05
3.33521e-05
3.33472e-05
3.33524e-05
3.33479e-05
8.24744e-05
8.24761e-05
2.67254e-05
2.91939e-05
2.81809e-05
2.79644e-05
2.67254e-05
2.91909e-05
2.81809e-05
2.95867e-05
6.89041e-05
2.95879e-05
6.89019e-05
2.67252e-05
2.81807e-05
2.91933e-05
2.79641e-05
2.67253e-05
2.81807e-05
2.91901e-05
2.95892e-05
6.89045e-05
6.89066e-05
2.9588e-05
2.67258e-05
2.79644e-05
2.91912e-05
2.81808e-05
2.91942e-05
2.81808e-05
2.67257e-05
2.95889e-05
6.89016e-05
6.89037e-05
2.95877e-05
2.67256e-05
2.79641e-05
2.81806e-05
2.91904e-05
2.81807e-05
2.91937e-05
2.67255e-05
2.95865e-05
6.89041e-05
2.95881e-05
6.89018e-05
2.67249e-05
2.81807e-05
2.91929e-05
2.79642e-05
2.67249e-05
2.81807e-05
2.91899e-05
2.95865e-05
6.89057e-05
2.95881e-05
6.89036e-05
2.67247e-05
2.79643e-05
2.919e-05
2.81806e-05
2.91934e-05
2.81807e-05
2.67247e-05
2.95889e-05
6.89015e-05
6.89036e-05
2.95874e-05
2.67253e-05
2.79642e-05
2.81807e-05
2.91902e-05
2.81807e-05
2.91933e-05
2.67252e-05
2.95888e-05
6.89033e-05
6.89053e-05
2.95874e-05
3.33466e-05
3.33487e-05
2.75384e-05
3.33466e-05
3.3349e-05
8.24804e-05
8.24784e-05
8.24745e-05
8.24762e-05
2.75357e-05
3.33483e-05
3.33507e-05
3.33488e-05
3.33509e-05
8.24783e-05
8.24796e-05
2.67251e-05
2.81807e-05
2.91937e-05
2.79644e-05
2.67252e-05
2.81806e-05
2.91906e-05
2.95867e-05
6.89061e-05
2.95879e-05
6.8904e-05
2.95869e-05
6.8908e-05
2.95882e-05
6.89059e-05
2.6725e-05
2.79642e-05
2.81806e-05
2.91901e-05
2.81806e-05
2.91932e-05
2.67249e-05
2.67256e-05
2.79644e-05
2.81805e-05
2.91908e-05
2.81805e-05
2.9194e-05
2.67255e-05
2.95888e-05
6.89037e-05
6.89057e-05
2.95877e-05
2.95891e-05
6.89056e-05
6.89075e-05
2.95879e-05
8.24804e-05
8.24785e-05
8.24802e-05
8.24783e-05
2.75359e-05
3.33506e-05
3.33515e-05
3.33508e-05
3.33517e-05
8.24783e-05
8.24796e-05
8.24781e-05
8.24794e-05
8.24797e-05
8.2479e-05
8.24794e-05
8.24787e-05
3.33527e-05
3.33531e-05
2.75389e-05
3.33521e-05
3.33526e-05
8.24805e-05
8.24805e-05
8.24802e-05
8.24801e-05
2.75362e-05
3.33522e-05
3.33526e-05
3.33537e-05
3.33542e-05
2.95882e-05
6.89059e-05
2.95899e-05
6.89042e-05
2.67258e-05
2.91938e-05
2.81808e-05
2.79643e-05
2.67259e-05
2.91908e-05
2.81808e-05
2.6726e-05
2.91947e-05
2.81807e-05
2.79643e-05
2.6726e-05
2.91917e-05
2.81806e-05
2.959e-05
6.89021e-05
6.89035e-05
2.95878e-05
2.95904e-05
6.89045e-05
6.89059e-05
2.95882e-05
2.67261e-05
2.79642e-05
2.91911e-05
2.81806e-05
2.91942e-05
2.81806e-05
2.67252e-05
2.67263e-05
2.79643e-05
2.91919e-05
2.81805e-05
2.91951e-05
2.81806e-05
2.67254e-05
3.3354e-05
3.33493e-05
2.75388e-05
3.33533e-05
3.33483e-05
8.24761e-05
8.24751e-05
8.24805e-05
8.24804e-05
2.75361e-05
3.33533e-05
3.33483e-05
3.3355e-05
3.33502e-05
8.24766e-05
8.24769e-05
2.67261e-05
2.91946e-05
2.81809e-05
2.79646e-05
2.67263e-05
2.91917e-05
2.81808e-05
2.95883e-05
6.89035e-05
2.95898e-05
6.89016e-05
2.6726e-05
2.81806e-05
2.91941e-05
2.79641e-05
2.67261e-05
2.81806e-05
2.91908e-05
2.95907e-05
6.89048e-05
6.89063e-05
2.95887e-05
2.67263e-05
2.79646e-05
2.91919e-05
2.81806e-05
2.91951e-05
2.81807e-05
2.67253e-05
2.95904e-05
6.89019e-05
6.89035e-05
2.95884e-05
2.67262e-05
2.7964e-05
2.81804e-05
2.91909e-05
2.81805e-05
2.91944e-05
2.67253e-05
2.95879e-05
6.89034e-05
2.95897e-05
6.89015e-05
2.67257e-05
2.81807e-05
2.91936e-05
2.79644e-05
2.67258e-05
2.81806e-05
2.91906e-05
2.95879e-05
6.8905e-05
2.95897e-05
6.89033e-05
2.67254e-05
2.79643e-05
2.91906e-05
2.81805e-05
2.9194e-05
2.81806e-05
2.67251e-05
2.95902e-05
6.89019e-05
6.89034e-05
2.95881e-05
2.67261e-05
2.79643e-05
2.81805e-05
2.91908e-05
2.81805e-05
2.9194e-05
2.67253e-05
2.95902e-05
6.89036e-05
6.8905e-05
2.9588e-05
3.33503e-05
3.33525e-05
2.75386e-05
3.33493e-05
3.33519e-05
8.24797e-05
8.24789e-05
8.24766e-05
8.2477e-05
2.75359e-05
3.33493e-05
3.3352e-05
3.33512e-05
3.33535e-05
8.24804e-05
8.24804e-05
2.67259e-05
2.81807e-05
2.91942e-05
2.79646e-05
2.6726e-05
2.81807e-05
2.91912e-05
2.95883e-05
6.89054e-05
2.95898e-05
6.89037e-05
2.95884e-05
6.89072e-05
2.959e-05
6.89055e-05
2.67256e-05
2.79641e-05
2.81805e-05
2.91907e-05
2.81805e-05
2.91939e-05
2.67252e-05
2.67261e-05
2.79645e-05
2.81806e-05
2.91914e-05
2.81807e-05
2.91946e-05
2.67252e-05
2.95903e-05
6.8904e-05
6.89054e-05
2.95884e-05
2.95904e-05
6.89057e-05
6.89072e-05
2.95884e-05
8.24797e-05
8.24789e-05
8.24795e-05
8.24787e-05
2.75362e-05
3.33519e-05
3.33528e-05
3.33534e-05
3.33543e-05
8.24804e-05
8.24804e-05
8.24802e-05
8.24802e-05
8.24825e-05
8.24833e-05
8.24822e-05
8.24829e-05
3.33535e-05
3.33539e-05
2.75383e-05
3.33514e-05
3.33518e-05
8.24835e-05
8.24847e-05
8.24831e-05
8.24843e-05
2.75351e-05
3.335e-05
3.33504e-05
3.33527e-05
3.33531e-05
2.95871e-05
6.89066e-05
2.95901e-05
6.89071e-05
2.6724e-05
2.91943e-05
2.81805e-05
2.79638e-05
2.67249e-05
2.91906e-05
2.81803e-05
2.67242e-05
2.91952e-05
2.81805e-05
2.79638e-05
2.67252e-05
2.91915e-05
2.81803e-05
2.95887e-05
6.89105e-05
6.89078e-05
2.9585e-05
2.95891e-05
6.89129e-05
6.89099e-05
2.95853e-05
2.67238e-05
2.79633e-05
2.91887e-05
2.81788e-05
2.91937e-05
2.81799e-05
2.67216e-05
2.6724e-05
2.79633e-05
2.91895e-05
2.81788e-05
2.91946e-05
2.81799e-05
2.67217e-05
3.33546e-05
3.33499e-05
2.75382e-05
3.33524e-05
3.33475e-05
8.24789e-05
8.24794e-05
8.24835e-05
8.24846e-05
2.7535e-05
3.3351e-05
3.33461e-05
3.33538e-05
3.33491e-05
8.24797e-05
8.24812e-05
2.67243e-05
2.91951e-05
2.81805e-05
2.79641e-05
2.67251e-05
2.91915e-05
2.81803e-05
2.95873e-05
6.89042e-05
2.959e-05
6.89046e-05
2.67242e-05
2.81804e-05
2.91944e-05
2.79636e-05
2.6725e-05
2.81802e-05
2.91905e-05
2.95894e-05
6.89131e-05
6.89105e-05
2.95857e-05
2.67242e-05
2.79635e-05
2.91895e-05
2.81787e-05
2.91945e-05
2.81799e-05
2.67219e-05
2.9589e-05
6.89101e-05
6.89075e-05
2.95853e-05
2.6724e-05
2.79631e-05
2.81787e-05
2.91885e-05
2.81798e-05
2.91938e-05
2.67217e-05
2.95871e-05
6.89041e-05
2.959e-05
6.89045e-05
2.67241e-05
2.81805e-05
2.91941e-05
2.79638e-05
2.67251e-05
2.81803e-05
2.91904e-05
2.95869e-05
6.89057e-05
2.95899e-05
6.89062e-05
2.67241e-05
2.79635e-05
2.91884e-05
2.81788e-05
2.91936e-05
2.81799e-05
2.67216e-05
2.9589e-05
6.89101e-05
6.89075e-05
2.95852e-05
2.67239e-05
2.79633e-05
2.81788e-05
2.91884e-05
2.81799e-05
2.91935e-05
2.67216e-05
2.95888e-05
6.8912e-05
6.8909e-05
2.9585e-05
3.33508e-05
3.33532e-05
2.7538e-05
3.33484e-05
3.33512e-05
8.24824e-05
8.24831e-05
8.24797e-05
8.24812e-05
2.75348e-05
3.33469e-05
3.33498e-05
3.33499e-05
3.33525e-05
8.24834e-05
8.24846e-05
2.67242e-05
2.81805e-05
2.91947e-05
2.7964e-05
2.6725e-05
2.81803e-05
2.9191e-05
2.95874e-05
6.89061e-05
2.95901e-05
6.89066e-05
2.95873e-05
6.89078e-05
2.95901e-05
6.89084e-05
2.67241e-05
2.79634e-05
2.81788e-05
2.91885e-05
2.81798e-05
2.91935e-05
2.67217e-05
2.67241e-05
2.79635e-05
2.81787e-05
2.9189e-05
2.81799e-05
2.91941e-05
2.67217e-05
2.95891e-05
6.89124e-05
6.89094e-05
2.95854e-05
2.9589e-05
6.89141e-05
6.89111e-05
2.95854e-05
8.24825e-05
8.24831e-05
8.24822e-05
8.24829e-05
2.75351e-05
3.33497e-05
3.33506e-05
3.33524e-05
3.33533e-05
8.24834e-05
8.24845e-05
8.24832e-05
8.24843e-05
8.24845e-05
8.24826e-05
8.24841e-05
8.24822e-05
3.33507e-05
3.33511e-05
2.75312e-05
3.33456e-05
3.3346e-05
8.2482e-05
8.24836e-05
8.24817e-05
8.24833e-05
2.75273e-05
3.33417e-05
3.33421e-05
3.33458e-05
3.33462e-05
2.95811e-05
6.8916e-05
2.95867e-05
6.89162e-05
2.67146e-05
2.91911e-05
2.81766e-05
2.79577e-05
2.67204e-05
2.91845e-05
2.81747e-05
2.67147e-05
2.9192e-05
2.81766e-05
2.79576e-05
2.67204e-05
2.91854e-05
2.81747e-05
2.9582e-05
6.89135e-05
6.89153e-05
2.95775e-05
2.95823e-05
6.89162e-05
6.8918e-05
2.95778e-05
2.67139e-05
2.79561e-05
2.91815e-05
2.81723e-05
2.91869e-05
2.81732e-05
2.67129e-05
2.6714e-05
2.7956e-05
2.91824e-05
2.81723e-05
2.91878e-05
2.81732e-05
2.67131e-05
3.33518e-05
3.33473e-05
2.75312e-05
3.33468e-05
3.33419e-05
8.2481e-05
8.24788e-05
8.24821e-05
8.24836e-05
2.75272e-05
3.33427e-05
3.33374e-05
3.33471e-05
3.33426e-05
8.24782e-05
8.24802e-05
2.67148e-05
2.91919e-05
2.81766e-05
2.79579e-05
2.67206e-05
2.91854e-05
2.81747e-05
2.95811e-05
6.89136e-05
2.95865e-05
6.89137e-05
2.67146e-05
2.81765e-05
2.91913e-05
2.79574e-05
2.67204e-05
2.81746e-05
2.91845e-05
2.95824e-05
6.89159e-05
6.89181e-05
2.95784e-05
2.67142e-05
2.79563e-05
2.91823e-05
2.81723e-05
2.91877e-05
2.81732e-05
2.67133e-05
2.95821e-05
6.89137e-05
6.89157e-05
2.9578e-05
2.67139e-05
2.79558e-05
2.81723e-05
2.91814e-05
2.81731e-05
2.9187e-05
2.67131e-05
2.9581e-05
6.89135e-05
2.95866e-05
6.89136e-05
2.67145e-05
2.81766e-05
2.91909e-05
2.79577e-05
2.67203e-05
2.81747e-05
2.91843e-05
2.95808e-05
6.89152e-05
2.95864e-05
6.89153e-05
2.6714e-05
2.79563e-05
2.91812e-05
2.81724e-05
2.91868e-05
2.81732e-05
2.67129e-05
2.95822e-05
6.89137e-05
6.89156e-05
2.95777e-05
2.67139e-05
2.79561e-05
2.81723e-05
2.91814e-05
2.81732e-05
2.91867e-05
2.67129e-05
2.9582e-05
6.89154e-05
6.89171e-05
2.95776e-05
3.3348e-05
3.33505e-05
2.7531e-05
3.33428e-05
3.33455e-05
8.24844e-05
8.24826e-05
8.24782e-05
8.24802e-05
2.7527e-05
3.33386e-05
3.33416e-05
3.33434e-05
3.33456e-05
8.2482e-05
8.24836e-05
2.67146e-05
2.81766e-05
2.91915e-05
2.79579e-05
2.67204e-05
2.81747e-05
2.91849e-05
2.95812e-05
6.89155e-05
2.95866e-05
6.89157e-05
2.95812e-05
6.89173e-05
2.95865e-05
6.89175e-05
2.6714e-05
2.79562e-05
2.81723e-05
2.91814e-05
2.81732e-05
2.91868e-05
2.6713e-05
2.67139e-05
2.79563e-05
2.81723e-05
2.91819e-05
2.81731e-05
2.91873e-05
2.67131e-05
2.95822e-05
6.89158e-05
6.89175e-05
2.95781e-05
2.95821e-05
6.89175e-05
6.89193e-05
2.9578e-05
8.24844e-05
8.24826e-05
8.24842e-05
8.24824e-05
2.75273e-05
3.33416e-05
3.33425e-05
3.33457e-05
3.33465e-05
8.2482e-05
8.24836e-05
8.24818e-05
8.24834e-05
8.24832e-05
8.24818e-05
8.24828e-05
8.24815e-05
3.33427e-05
3.33431e-05
2.75285e-05
3.33405e-05
3.33409e-05
8.24818e-05
8.2483e-05
8.24814e-05
8.24827e-05
2.75258e-05
3.33403e-05
3.33407e-05
3.33419e-05
3.33423e-05
2.95766e-05
6.89178e-05
2.95795e-05
6.89159e-05
2.67127e-05
2.91844e-05
2.81722e-05
2.7955e-05
2.67132e-05
2.91804e-05
2.81721e-05
2.67129e-05
2.91853e-05
2.81722e-05
2.79549e-05
2.67133e-05
2.91812e-05
2.81721e-05
2.95783e-05
6.89131e-05
6.89149e-05
2.9576e-05
2.95787e-05
6.89157e-05
6.89176e-05
2.95763e-05
2.6713e-05
2.79549e-05
2.91801e-05
2.8172e-05
2.91836e-05
2.8172e-05
2.67127e-05
2.67132e-05
2.79548e-05
2.91809e-05
2.8172e-05
2.91845e-05
2.8172e-05
2.67129e-05
3.33437e-05
3.33386e-05
2.75284e-05
3.33415e-05
3.33361e-05
8.24797e-05
8.2478e-05
8.24817e-05
8.24831e-05
2.75257e-05
3.33413e-05
3.33359e-05
3.33429e-05
3.33378e-05
8.2478e-05
8.24795e-05
2.67132e-05
2.91855e-05
2.81722e-05
2.79552e-05
2.67136e-05
2.91814e-05
2.81721e-05
2.95768e-05
6.89155e-05
2.95795e-05
6.89134e-05
2.6713e-05
2.81721e-05
2.91845e-05
2.79547e-05
2.67133e-05
2.8172e-05
2.91802e-05
2.95791e-05
6.89149e-05
6.8917e-05
2.9577e-05
2.67135e-05
2.79551e-05