/*--------------------------------*- C++ -*----------------------------------*\
| =========                 |                                                 |
| \\      /  F ield         | OpenFOAM: The Open Source CFD Toolbox           |
|  \\    /   O peration     | Version:  2206                                  |
|   \\  /    A nd           | Website:  www.openfoam.com                      |
|    \\/     M anipulation  |                                                 |
\*---------------------------------------------------------------------------*/
FoamFile
{
    version     2.0;
    format      ascii;
    arch        "LSB;label=32;scalar=64";
    class       volVectorField;
    location    "22";
    object      U;
}
// * * * * * * * * * * * * * * * * * * * * * * * * * * * * * * * * * * * * * //

dimensions      [0 1 -1 0 0 0 0];

internalField   nonuniform List<vector> 
28335
(
(-6.37773e-07 -6.34398e-07 0.102537)
(-4.10593e-07 6.42722e-07 0.1025)
(6.39708e-07 -4.11232e-07 0.1025)
(-4.18708e-05 -4.18862e-05 0.102444)
(-6.49715e-07 -6.47019e-07 0.102537)
(-3.9257e-07 6.34595e-07 0.1025)
(6.31902e-07 -3.922e-07 0.1025)
(-4.18552e-05 -4.187e-05 0.102444)
(-6.55429e-07 -6.52757e-07 0.102537)
(-3.9958e-07 6.46197e-07 0.1025)
(6.43942e-07 -4.00377e-07 0.1025)
(-4.18483e-05 -4.18617e-05 0.102444)
(-6.11608e-07 -6.09229e-07 0.102537)
(-4.75123e-07 7.04006e-07 0.102499)
(7.00575e-07 -4.74705e-07 0.102499)
(-4.18686e-05 -4.18821e-05 0.102444)
(-5.88772e-07 -5.86301e-07 0.102537)
(-4.72024e-07 6.54308e-07 0.1025)
(6.52497e-07 -4.72899e-07 0.1025)
(-4.19571e-05 -4.19755e-05 0.102444)
(-6.3389e-07 -6.34473e-07 0.102537)
(-4.16741e-07 6.34787e-07 0.1025)
(6.3604e-07 -4.18268e-07 0.1025)
(-4.18871e-05 -4.19035e-05 0.102445)
(-6.28305e-07 -6.30468e-07 0.102537)
(-4.20835e-07 6.35736e-07 0.1025)
(6.43451e-07 -4.22174e-07 0.1025)
(-4.18937e-05 -4.19112e-05 0.102445)
(-6.29845e-07 -6.28975e-07 0.102537)
(-4.21323e-07 6.4445e-07 0.1025)
(6.43302e-07 -4.21309e-07 0.1025)
(-4.18951e-05 -4.19102e-05 0.102445)
(-6.28859e-07 -6.29037e-07 0.102537)
(-4.23375e-07 6.44221e-07 0.1025)
(6.4423e-07 -4.19889e-07 0.1025)
(-4.18975e-05 -4.19083e-05 0.102445)
(-6.28067e-07 -6.28784e-07 0.102537)
(-4.2401e-07 6.44209e-07 0.1025)
(6.44894e-07 -4.19656e-07 0.1025)
(-4.1898e-05 -4.19079e-05 0.102445)
(-6.27472e-07 -6.28577e-07 0.102537)
(-4.24658e-07 6.44334e-07 0.1025)
(6.45501e-07 -4.20102e-07 0.1025)
(-4.18983e-05 -4.1908e-05 0.102445)
(-6.27632e-07 -6.28753e-07 0.102537)
(-4.24814e-07 6.44523e-07 0.1025)
(6.45621e-07 -4.20155e-07 0.1025)
(-4.18985e-05 -4.19081e-05 0.102445)
(-6.27631e-07 -6.28751e-07 0.102537)
(-4.2398e-07 6.44093e-07 0.1025)
(6.45252e-07 -4.1917e-07 0.1025)
(-4.18979e-05 -4.19076e-05 0.102445)
(-6.27886e-07 -6.28921e-07 0.102537)
(-4.23765e-07 6.43768e-07 0.1025)
(6.45081e-07 -4.1898e-07 0.1025)
(-4.18972e-05 -4.19069e-05 0.102445)
(-6.28533e-07 -6.2939e-07 0.102537)
(-4.23024e-07 6.43389e-07 0.1025)
(6.44656e-07 -4.18253e-07 0.1025)
(-4.18952e-05 -4.19047e-05 0.102445)
(-6.28565e-07 -6.29299e-07 0.102537)
(-4.22947e-07 6.43313e-07 0.1025)
(6.45195e-07 -4.18791e-07 0.1025)
(-4.18944e-05 -4.19039e-05 0.102445)
(-6.28014e-07 -6.28529e-07 0.102537)
(-4.22089e-07 6.43008e-07 0.1025)
(6.45225e-07 -4.18158e-07 0.1025)
(-4.18869e-05 -4.18962e-05 0.102445)
(-4.36826e-05 -4.36578e-05 0.102447)
(6.62114e-07 4.31075e-07 0.1025)
(-6.65951e-07 4.38898e-07 0.1025)
(4.36876e-05 -4.36596e-05 0.102447)
(4.18215e-07 6.45327e-07 0.1025)
(4.37179e-07 -6.62379e-07 0.1025)
(-4.16274e-07 6.44628e-07 0.1025)
(-4.35098e-07 -6.60084e-07 0.1025)
(-4.36567e-05 4.36905e-05 0.102447)
(6.41762e-07 -4.16568e-07 0.1025)
(-6.41553e-07 -4.18715e-07 0.1025)
(4.3659e-05 4.36777e-05 0.102447)
(4.18778e-05 4.18612e-05 0.102444)
(-4.36964e-05 -4.36718e-05 0.102447)
(6.59626e-07 4.30594e-07 0.1025)
(-6.63896e-07 4.33143e-07 0.1025)
(6.59102e-07 4.21265e-07 0.1025)
(-6.63045e-07 4.29042e-07 0.1025)
(-4.18726e-05 4.18481e-05 0.102445)
(4.37001e-05 -4.36738e-05 0.102447)
(4.15204e-07 6.44504e-07 0.1025)
(4.30539e-07 -6.61389e-07 0.1025)
(4.07926e-07 6.42305e-07 0.1025)
(4.27462e-07 -6.59877e-07 0.1025)
(-4.28025e-07 -6.57305e-07 0.1025)
(-4.07141e-07 6.42671e-07 0.1025)
(-4.2519e-07 -6.56691e-07 0.1025)
(4.18567e-05 -4.18902e-05 0.102444)
(-4.36693e-05 4.37044e-05 0.102447)
(-6.38921e-07 -4.10068e-07 0.1025)
(6.39166e-07 -4.06616e-07 0.1025)
(-6.39171e-07 -4.08155e-07 0.1025)
(4.36721e-05 4.36915e-05 0.102447)
(4.18619e-05 4.18446e-05 0.102444)
(-4.37299e-05 -4.37054e-05 0.102447)
(6.51384e-07 4.10892e-07 0.1025)
(-6.55796e-07 4.13765e-07 0.1025)
(6.60688e-07 4.17392e-07 0.1025)
(-6.64012e-07 4.25453e-07 0.1025)
(-4.18574e-05 4.18316e-05 0.102444)
(4.37358e-05 -4.37074e-05 0.102447)
(3.9603e-07 6.35406e-07 0.1025)
(4.12715e-07 -6.53006e-07 0.1025)
(4.04815e-07 6.43889e-07 0.1025)
(4.22866e-07 -6.60176e-07 0.1025)
(-4.08924e-07 -6.48945e-07 0.1025)
(-4.02468e-07 6.43438e-07 0.1025)
(-4.21758e-07 -6.57952e-07 0.1025)
(4.18418e-05 -4.18734e-05 0.102444)
(-4.37047e-05 4.37385e-05 0.102447)
(-6.31534e-07 -3.90975e-07 0.1025)
(6.40435e-07 -4.02382e-07 0.1025)
(-6.40178e-07 -4.03314e-07 0.1025)
(4.37057e-05 4.37266e-05 0.102447)
(4.18548e-05 4.18378e-05 0.102444)
(-4.37752e-05 -4.375e-05 0.102446)
(6.63689e-07 4.18871e-07 0.1025)
(-6.67443e-07 4.22179e-07 0.1025)
(6.38147e-07 3.83341e-07 0.102499)
(-6.42605e-07 3.91594e-07 0.102499)
(-4.18492e-05 4.18249e-05 0.102444)
(4.37798e-05 -4.37509e-05 0.102446)
(4.04222e-07 6.47768e-07 0.1025)
(4.19486e-07 -6.64141e-07 0.102499)
(3.70508e-07 6.21769e-07 0.102499)
(3.89163e-07 -6.37874e-07 0.102499)
(-4.17858e-07 -6.6144e-07 0.1025)
(-3.67672e-07 6.22083e-07 0.102499)
(-3.86707e-07 -6.35517e-07 0.102499)
(4.18338e-05 -4.18659e-05 0.102444)
(-4.37475e-05 4.37856e-05 0.102446)
(-6.43886e-07 -3.99241e-07 0.1025)
(6.17811e-07 -3.6588e-07 0.102499)
(-6.17777e-07 -3.6715e-07 0.102499)
(4.37511e-05 4.37716e-05 0.102446)
(4.18758e-05 4.18587e-05 0.102444)
(-4.3605e-05 -4.35798e-05 0.102447)
(7.20766e-07 4.94156e-07 0.102499)
(-7.24828e-07 4.97193e-07 0.102499)
(7.06558e-07 5.33256e-07 0.1025)
(-7.1054e-07 5.3906e-07 0.1025)
(-4.18714e-05 4.18469e-05 0.102444)
(4.3609e-05 -4.3584e-05 0.102447)
(4.79632e-07 7.05287e-07 0.102499)
(4.94551e-07 -7.21209e-07 0.102499)
(5.19075e-07 6.89416e-07 0.1025)
(5.39548e-07 -7.09109e-07 0.1025)
(-4.92639e-07 -7.1762e-07 0.102499)
(-5.18878e-07 6.8861e-07 0.1025)
(-5.34164e-07 -7.02808e-07 0.1025)
(4.18562e-05 -4.18856e-05 0.102444)
(-4.35774e-05 4.36112e-05 0.102447)
(-6.99758e-07 -4.72834e-07 0.102499)
(6.86553e-07 -5.18966e-07 0.1025)
(-6.833e-07 -5.21058e-07 0.1025)
(4.35851e-05 4.36012e-05 0.102447)
(4.19676e-05 4.19514e-05 0.102444)
(-4.37077e-05 -4.36864e-05 0.102447)
(6.71772e-07 4.9089e-07 0.1025)
(-6.76623e-07 4.92236e-07 0.1025)
(6.54178e-07 4.29514e-07 0.1025)
(-6.55578e-07 4.36915e-07 0.1025)
(-4.19645e-05 4.19364e-05 0.102444)
(4.37148e-05 -4.36888e-05 0.102447)
(4.74988e-07 6.55632e-07 0.1025)
(4.91861e-07 -6.75191e-07 0.1025)
(4.19116e-07 6.34559e-07 0.1025)
(4.36008e-07 -6.53912e-07 0.1025)
(-4.86166e-07 -6.69244e-07 0.1025)
(-4.16438e-07 6.32534e-07 0.1025)
(-4.34462e-07 -6.52357e-07 0.1025)
(4.19493e-05 -4.19812e-05 0.102444)
(-4.36848e-05 4.37163e-05 0.102447)
(-6.49541e-07 -4.72667e-07 0.1025)
(6.31835e-07 -4.17303e-07 0.1025)
(-6.32736e-07 -4.19193e-07 0.1025)
(4.36848e-05 4.37028e-05 0.102447)
(4.18959e-05 4.18754e-05 0.102445)
(-4.36985e-05 -4.36784e-05 0.102447)
(6.58373e-07 4.34301e-07 0.1025)
(-6.58486e-07 4.35434e-07 0.1025)
(6.66092e-07 4.31757e-07 0.1025)
(-6.56088e-07 4.2788e-07 0.1025)
(-4.1888e-05 4.18604e-05 0.102445)
(4.37095e-05 -4.36977e-05 0.102447)
(4.22609e-07 6.39182e-07 0.1025)
(4.36392e-07 -6.58604e-07 0.1025)
(4.23367e-07 6.43981e-07 0.1025)
(4.40321e-07 -6.6428e-07 0.1025)
(-4.32902e-07 -6.5563e-07 0.1025)
(-4.19152e-07 6.33831e-07 0.1025)
(-4.36923e-07 -6.62757e-07 0.1025)
(4.18725e-05 -4.19072e-05 0.102445)
(-4.36753e-05 4.37086e-05 0.102447)
(-6.35537e-07 -4.1767e-07 0.1025)
(6.42529e-07 -4.20117e-07 0.1025)
(-6.41565e-07 -4.22728e-07 0.1025)
(4.36781e-05 4.36946e-05 0.102447)
(4.1904e-05 4.18828e-05 0.102445)
(-4.37003e-05 -4.36769e-05 0.102447)
(6.66247e-07 4.3761e-07 0.1025)
(-6.56663e-07 4.30624e-07 0.1025)
(6.64295e-07 4.33922e-07 0.1025)
(-6.66777e-07 4.42159e-07 0.1025)
(-4.18925e-05 4.18507e-05 0.102445)
(4.37071e-05 -4.36795e-05 0.102447)
(4.26888e-07 6.4541e-07 0.1025)
(4.41066e-07 -6.65674e-07 0.1025)
(4.22818e-07 6.45625e-07 0.1025)
(4.4062e-07 -6.64888e-07 0.1025)
(-4.36384e-07 -6.628e-07 0.1025)
(-4.20965e-07 6.45166e-07 0.1025)
(-4.39018e-07 -6.6236e-07 0.1025)
(4.18812e-05 -4.19144e-05 0.102445)
(-4.36749e-05 4.37084e-05 0.102447)
(-6.41523e-07 -4.22336e-07 0.1025)
(6.43152e-07 -4.20164e-07 0.1025)
(-6.42555e-07 -4.23964e-07 0.1025)
(4.36766e-05 4.36949e-05 0.102447)
(4.19023e-05 4.18844e-05 0.102445)
(-4.37008e-05 -4.36759e-05 0.102447)
(6.63568e-07 4.39162e-07 0.1025)
(-6.65861e-07 4.4175e-07 0.1025)
(6.64224e-07 4.34304e-07 0.1025)
(-6.66971e-07 4.4526e-07 0.1025)
(-4.18955e-05 4.18701e-05 0.102445)
(4.37048e-05 -4.36789e-05 0.102447)
(4.25581e-07 6.46876e-07 0.1025)
(4.4043e-07 -6.6565e-07 0.1025)
(4.2213e-07 6.4691e-07 0.1025)
(4.39288e-07 -6.65139e-07 0.1025)
(-4.3941e-07 -6.61162e-07 0.1025)
(-4.22958e-07 6.44842e-07 0.1025)
(-4.4625e-07 -6.59685e-07 0.1025)
(4.18811e-05 -4.19143e-05 0.102445)
(-4.36757e-05 4.37083e-05 0.102447)
(-6.41613e-07 -4.2448e-07 0.1025)
(6.43436e-07 -4.18398e-07 0.1025)
(-6.41567e-07 -4.32046e-07 0.1025)
(4.36743e-05 4.36975e-05 0.102447)
(4.19023e-05 4.18857e-05 0.102445)
(-4.37005e-05 -4.36751e-05 0.102447)
(6.6416e-07 4.39605e-07 0.1025)
(-6.6671e-07 4.45486e-07 0.1025)
(6.64678e-07 4.34328e-07 0.1025)
(-6.67239e-07 4.4682e-07 0.1025)
(-4.18977e-05 4.18709e-05 0.102445)
(4.3704e-05 -4.36791e-05 0.102447)
(4.25291e-07 6.48158e-07 0.1025)
(4.39401e-07 -6.66353e-07 0.1025)
(4.22318e-07 6.47818e-07 0.1025)
(4.39417e-07 -6.66092e-07 0.1025)
(-4.4655e-07 -6.58911e-07 0.1025)
(-4.2343e-07 6.44378e-07 0.1025)
(-4.46629e-07 -6.58704e-07 0.1025)
(4.18808e-05 -4.1915e-05 0.102445)
(-4.36753e-05 4.37072e-05 0.102447)
(-6.40978e-07 -4.32949e-07 0.1025)
(6.44551e-07 -4.18108e-07 0.1025)
(-6.4198e-07 -4.33387e-07 0.1025)
(4.36735e-05 4.36977e-05 0.102447)
(4.19024e-05 4.18862e-05 0.102445)
(-4.37004e-05 -4.36745e-05 0.102447)
(6.64484e-07 4.39555e-07 0.1025)
(-6.67241e-07 4.46962e-07 0.1025)
(6.64925e-07 4.34585e-07 0.1025)
(-6.67351e-07 4.47384e-07 0.1025)
(-4.18986e-05 4.18711e-05 0.102445)
(4.37037e-05 -4.3679e-05 0.102447)
(4.25473e-07 6.488e-07 0.1025)
(4.39545e-07 -6.66901e-07 0.1025)
(4.22601e-07 6.48372e-07 0.1025)
(4.39696e-07 -6.66294e-07 0.1025)
(-4.4633e-07 -6.58156e-07 0.1025)
(-4.23872e-07 6.44353e-07 0.1025)
(-4.47026e-07 -6.58431e-07 0.1025)
(4.1881e-05 -4.19158e-05 0.102445)
(-4.36751e-05 4.37071e-05 0.102447)
(-6.41367e-07 -4.3343e-07 0.1025)
(6.44891e-07 -4.18227e-07 0.1025)
(-6.42569e-07 -4.34205e-07 0.1025)
(4.36733e-05 4.36978e-05 0.102447)
(4.19026e-05 4.18869e-05 0.102445)
(-4.37004e-05 -4.36746e-05 0.102447)
(6.6481e-07 4.39958e-07 0.1025)
(-6.67467e-07 4.47642e-07 0.1025)
(6.64787e-07 4.34533e-07 0.1025)
(-6.67806e-07 4.48122e-07 0.1025)
(-4.18989e-05 4.18712e-05 0.102445)
(4.37033e-05 -4.36785e-05 0.102447)
(4.25959e-07 6.49464e-07 0.1025)
(4.40127e-07 -6.67344e-07 0.1025)
(4.22671e-07 6.48433e-07 0.1025)
(4.39956e-07 -6.66605e-07 0.1025)
(-4.46933e-07 -6.58112e-07 0.1025)
(-4.2434e-07 6.44697e-07 0.1025)
(-4.47378e-07 -6.58455e-07 0.1025)
(4.18814e-05 -4.19161e-05 0.102445)
(-4.36747e-05 4.37067e-05 0.102447)
(-6.42196e-07 -4.34449e-07 0.1025)
(6.45257e-07 -4.18532e-07 0.1025)
(-6.43186e-07 -4.34769e-07 0.1025)
(4.36731e-05 4.36976e-05 0.102447)
(4.19025e-05 4.18867e-05 0.102445)
(-4.37007e-05 -4.36749e-05 0.102447)
(6.64543e-07 4.39659e-07 0.1025)
(-6.67918e-07 4.48233e-07 0.1025)
(6.64742e-07 4.3421e-07 0.1025)
(-6.67655e-07 4.48044e-07 0.1025)
(-4.18992e-05 4.18717e-05 0.102445)
(4.3704e-05 -4.36791e-05 0.102447)
(4.25761e-07 6.49337e-07 0.1025)
(4.40066e-07 -6.67476e-07 0.1025)
(4.22427e-07 6.48384e-07 0.1025)
(4.39715e-07 -6.66433e-07 0.1025)
(-4.47e-07 -6.57965e-07 0.1025)
(-4.23524e-07 6.44257e-07 0.1025)
(-4.46549e-07 -6.57877e-07 0.1025)
(4.18817e-05 -4.19164e-05 0.102445)
(-4.36752e-05 4.37072e-05 0.102447)
(-6.42536e-07 -4.34683e-07 0.1025)
(6.4505e-07 -4.17786e-07 0.1025)
(-6.42835e-07 -4.34061e-07 0.1025)
(4.36739e-05 4.36984e-05 0.102447)
(4.19025e-05 4.18869e-05 0.102445)
(-4.36998e-05 -4.3674e-05 0.102447)
(6.64626e-07 4.39528e-07 0.1025)
(-6.67676e-07 4.48143e-07 0.1025)
(6.64541e-07 4.3398e-07 0.1025)
(-6.67449e-07 4.47858e-07 0.1025)
(-4.18988e-05 4.18714e-05 0.102445)
(4.37035e-05 -4.36782e-05 0.102447)
(4.25582e-07 6.49401e-07 0.1025)
(4.39712e-07 -6.67046e-07 0.1025)
(4.22218e-07 6.48335e-07 0.1025)
(4.39387e-07 -6.66046e-07 0.1025)
(-4.46041e-07 -6.57262e-07 0.1025)
(-4.23166e-07 6.43986e-07 0.1025)
(-4.46281e-07 -6.57514e-07 0.1025)
(4.18815e-05 -4.19162e-05 0.102445)
(-4.36746e-05 4.37066e-05 0.102447)
(-6.42039e-07 -4.33826e-07 0.1025)
(6.44662e-07 -4.17245e-07 0.1025)
(-6.42648e-07 -4.33697e-07 0.1025)
(4.36731e-05 4.36976e-05 0.102447)
(4.19011e-05 4.18853e-05 0.102445)
(-4.3701e-05 -4.36751e-05 0.102447)
(6.64203e-07 4.39078e-07 0.1025)
(-6.67386e-07 4.47726e-07 0.1025)
(6.6422e-07 4.33772e-07 0.1025)
(-6.67334e-07 4.47761e-07 0.1025)
(-4.18974e-05 4.18698e-05 0.102445)
(4.37046e-05 -4.3679e-05 0.102447)
(4.25186e-07 6.49234e-07 0.1025)
(4.39644e-07 -6.66955e-07 0.1025)
(4.22071e-07 6.48154e-07 0.1025)
(4.38999e-07 -6.65676e-07 0.1025)
(-4.46077e-07 -6.57101e-07 0.1025)
(-4.23119e-07 6.4394e-07 0.1025)
(-4.45873e-07 -6.57043e-07 0.1025)
(4.18807e-05 -4.19154e-05 0.102445)
(-4.36737e-05 4.37058e-05 0.102447)
(-6.42072e-07 -4.33733e-07 0.1025)
(6.44422e-07 -4.16663e-07 0.1025)
(-6.42382e-07 -4.33084e-07 0.1025)
(4.36724e-05 4.36971e-05 0.102447)
(4.19e-05 4.18843e-05 0.102445)
(-4.37001e-05 -4.36739e-05 0.102447)
(6.63761e-07 4.38477e-07 0.1025)
(-6.67151e-07 4.47208e-07 0.1025)
(6.63929e-07 4.33229e-07 0.1025)
(-6.67077e-07 4.47265e-07 0.1025)
(-4.18969e-05 4.1869e-05 0.102445)
(4.37033e-05 -4.3678e-05 0.102447)
(4.24294e-07 6.48761e-07 0.1025)
(4.39167e-07 -6.66488e-07 0.1025)
(4.2156e-07 6.47777e-07 0.1025)
(4.38472e-07 -6.65341e-07 0.1025)
(-4.45677e-07 -6.56633e-07 0.1025)
(-4.22102e-07 6.43578e-07 0.1025)
(-4.45044e-07 -6.56395e-07 0.1025)
(4.18789e-05 -4.19134e-05 0.102445)
(-4.36738e-05 4.3706e-05 0.102447)
(-6.41724e-07 -4.33056e-07 0.1025)
(6.43935e-07 -4.15955e-07 0.1025)
(-6.41731e-07 -4.32202e-07 0.1025)
(4.36727e-05 4.36974e-05 0.102447)
(4.1899e-05 4.18835e-05 0.102445)
(-4.36959e-05 -4.36696e-05 0.102447)
(6.6323e-07 4.37997e-07 0.1025)
(-6.66538e-07 4.46753e-07 0.1025)
(6.64347e-07 4.33992e-07 0.1025)
(-6.66863e-07 4.47979e-07 0.1025)
(-4.18957e-05 4.18683e-05 0.102445)
(4.36999e-05 -4.3674e-05 0.102447)
(4.23763e-07 6.48693e-07 0.1025)
(4.39851e-07 -6.66665e-07 0.1025)
(4.22454e-07 6.48585e-07 0.1025)
(4.38069e-07 -6.64508e-07 0.1025)
(-4.46126e-07 -6.56697e-07 0.1025)
(-4.22234e-07 6.44207e-07 0.1025)
(-4.44688e-07 -6.56119e-07 0.1025)
(4.18784e-05 -4.19129e-05 0.102445)
(-4.36682e-05 4.37007e-05 0.102447)
(-6.42004e-07 -4.3334e-07 0.1025)
(6.43719e-07 -4.15247e-07 0.1025)
(-6.4184e-07 -4.31749e-07 0.1025)
(4.36668e-05 4.36917e-05 0.102447)
(4.18941e-05 4.18789e-05 0.102445)
(6.63265e-07 4.37797e-07 0.1025)
(-6.66044e-07 4.46373e-07 0.1025)
(-4.189e-05 4.18632e-05 0.102445)
(4.22425e-07 6.48974e-07 0.1025)
(4.39371e-07 -6.66514e-07 0.1025)
(-4.45583e-07 -6.56757e-07 0.1025)
(4.18707e-05 -4.19046e-05 0.102445)
(-6.42308e-07 -4.32926e-07 0.1025)
(5.21399e-08 -8.85578e-06 0.100685)
(-1.10269e-06 -6.42961e-06 0.0942912)
(1.73833e-06 -2.50747e-06 0.082721)
(-8.91604e-06 4.46815e-08 0.100685)
(-6.42087e-06 -1.08351e-06 0.0942909)
(-6.34433e-07 -6.30462e-07 0.102537)
(6.32818e-07 -6.31843e-07 0.102537)
(-6.29321e-07 6.32338e-07 0.102537)
(6.28509e-07 6.30411e-07 0.102537)
(1.43365e-05 5.20244e-08 0.102139)
(-4.21295e-07 6.48834e-07 0.1025)
(1.33175e-05 -4.30957e-06 0.10099)
(-5.29011e-07 -1.72241e-07 0.102527)
(-2.39669e-06 1.67792e-06 0.0827216)
(5.85278e-08 1.43421e-05 0.102139)
(6.45781e-07 -4.21186e-07 0.1025)
(-1.72398e-07 -5.31478e-07 0.102527)
(-4.34392e-06 1.337e-05 0.10099)
(4.36556e-05 4.36746e-05 0.102447)
(4.10407e-06 5.12698e-06 0.098846)
(5.12116e-06 4.09798e-06 0.0988452)
(5.23219e-08 -8.88772e-06 0.100685)
(7.18976e-07 6.48576e-06 0.0942782)
(-5.42901e-08 8.59146e-06 0.100676)
(-1.08764e-06 -6.47124e-06 0.0942916)
(-1.80283e-06 2.52702e-06 0.0827071)
(1.77015e-06 -2.57202e-06 0.0827212)
(-8.95133e-06 4.49185e-08 0.100685)
(6.47539e-06 7.01048e-07 0.0942779)
(8.65496e-06 -4.24283e-08 0.100677)
(-6.4646e-06 -1.06529e-06 0.0942913)
(6.36692e-07 -6.3558e-07 0.102537)
(-6.33225e-07 6.36353e-07 0.102537)
(6.31758e-07 6.34793e-07 0.102537)
(-6.43116e-07 -6.39243e-07 0.102537)
(6.41368e-07 -6.40058e-07 0.102537)
(-6.37753e-07 6.40815e-07 0.102537)
(6.37132e-07 6.40066e-07 0.102537)
(1.43864e-05 4.96953e-08 0.102139)
(-1.38697e-05 3.97056e-06 0.100977)
(-5.1443e-07 -1.75322e-07 0.102527)
(-4.01976e-07 6.38383e-07 0.1025)
(-1.44111e-05 -6.00683e-08 0.102135)
(1.33657e-05 -4.34291e-06 0.10099)
(-5.03877e-07 -1.77118e-07 0.102527)
(2.4185e-06 -1.73683e-06 0.0827046)
(-2.46568e-06 1.71274e-06 0.0827218)
(5.58577e-08 1.43928e-05 0.102139)
(-1.75498e-07 -5.0405e-07 0.102527)
(4.00524e-06 -1.39218e-05 0.100977)
(6.3464e-07 -4.01974e-07 0.1025)
(-6.17067e-08 -1.44185e-05 0.102135)
(-1.77433e-07 -5.06189e-07 0.102527)
(-4.3798e-06 1.34184e-05 0.10099)
(-4.3238e-06 -5.28481e-06 0.0988323)
(-5.27459e-06 -4.31821e-06 0.0988318)
(4.36656e-05 4.3685e-05 0.102447)
(4.08065e-06 5.13509e-06 0.0988461)
(5.12897e-06 4.07191e-06 0.0988453)
(4.86174e-08 -8.93805e-06 0.100685)
(7.35526e-07 6.45221e-06 0.0942787)
(-5.85507e-08 8.55237e-06 0.100676)
(-1.0776e-06 -6.503e-06 0.0942921)
(-1.76474e-06 2.47161e-06 0.0827078)
(1.75818e-06 -2.61757e-06 0.0827224)
(-8.99886e-06 4.1751e-08 0.100684)
(6.43983e-06 7.15638e-07 0.0942783)
(8.61437e-06 -4.49984e-08 0.100676)
(-6.49389e-06 -1.05711e-06 0.0942918)
(6.48492e-07 -6.47486e-07 0.102537)
(-6.44372e-07 6.48319e-07 0.102537)
(6.43856e-07 6.47602e-07 0.102537)
(-6.56578e-07 -6.5287e-07 0.102537)
(6.55634e-07 -6.54085e-07 0.102537)
(-6.51644e-07 6.5536e-07 0.102537)
(6.50933e-07 6.54265e-07 0.102537)
(1.44372e-05 4.7478e-08 0.102139)
(-1.38299e-05 3.94022e-06 0.100977)
(-4.90752e-07 -1.82563e-07 0.102526)
(-3.71939e-07 6.19827e-07 0.1025)
(-1.43763e-05 -6.20548e-08 0.102135)
(1.34137e-05 -4.38899e-06 0.10099)
(-4.6779e-07 -1.82275e-07 0.102526)
(2.35275e-06 -1.69794e-06 0.0827054)
(-2.50267e-06 1.69587e-06 0.082723)
(5.34148e-08 1.4441e-05 0.102139)
(-1.82634e-07 -4.805e-07 0.102526)
(3.97353e-06 -1.38808e-05 0.100977)
(6.17179e-07 -3.7134e-07 0.1025)
(-6.41813e-08 -1.43853e-05 0.102135)
(-1.82365e-07 -4.69552e-07 0.102526)
(-4.42453e-06 1.34678e-05 0.100989)
(-4.34519e-06 -5.27344e-06 0.0988323)
(-5.26401e-06 -4.33764e-06 0.0988317)
(4.36849e-05 4.37049e-05 0.102447)
(4.09585e-06 5.14228e-06 0.098846)
(5.13813e-06 4.08904e-06 0.0988453)
(4.10946e-08 -8.98635e-06 0.100685)
(7.22189e-07 6.41323e-06 0.0942792)
(-6.88245e-08 8.51111e-06 0.100676)
(-1.05844e-06 -6.52245e-06 0.0942928)
(-1.76271e-06 2.41302e-06 0.0827095)
(1.77268e-06 -2.57495e-06 0.0827239)
(-9.04644e-06 3.28099e-08 0.100684)
(6.39819e-06 7.05005e-07 0.0942789)
(8.57298e-06 -5.58344e-08 0.100676)
(-6.5099e-06 -1.04503e-06 0.0942926)
(6.54925e-07 -6.53562e-07 0.102537)
(-6.50936e-07 6.54989e-07 0.102537)
(6.4983e-07 6.53701e-07 0.102537)
(-6.62607e-07 -6.58899e-07 0.102537)
(6.61723e-07 -6.59974e-07 0.102537)
(-6.57867e-07 6.62268e-07 0.102537)
(6.57625e-07 6.61188e-07 0.102537)
(1.44602e-05 4.22016e-08 0.102139)
(-1.37882e-05 3.88636e-06 0.100977)
(-4.9416e-07 -1.84695e-07 0.102526)
(-3.41222e-07 5.97777e-07 0.1025)
(-1.43362e-05 -6.91163e-08 0.102135)
(1.34461e-05 -4.40898e-06 0.10099)
(-4.47727e-07 -1.84448e-07 0.102526)
(2.30145e-06 -1.69604e-06 0.0827071)
(-2.46429e-06 1.71736e-06 0.0827245)
(4.72417e-08 1.44652e-05 0.102138)
(-1.84877e-07 -4.84454e-07 0.102526)
(3.9192e-06 -1.38391e-05 0.100977)
(5.95269e-07 -3.4107e-07 0.1025)
(-7.0256e-08 -1.4343e-05 0.102135)
(-1.84586e-07 -4.48728e-07 0.102526)
(-4.44115e-06 1.34978e-05 0.100989)
(-4.28485e-06 -5.25144e-06 0.0988323)
(-5.24292e-06 -4.27763e-06 0.0988317)
(4.37115e-05 4.37322e-05 0.102446)
(4.09229e-06 5.17523e-06 0.0988461)
(5.16855e-06 4.08725e-06 0.0988453)
(9.15245e-08 -8.76032e-06 0.100685)
(7.19423e-07 6.40991e-06 0.09428)
(-5.60516e-08 8.4811e-06 0.100676)
(-1.01671e-06 -6.24821e-06 0.0942936)
(-1.84716e-06 2.42304e-06 0.0827118)
(1.51438e-06 -2.29363e-06 0.0827252)
(-8.82067e-06 8.63035e-08 0.100684)
(6.39408e-06 7.05412e-07 0.0942797)
(8.54215e-06 -4.09164e-08 0.100676)
(-6.22818e-06 -9.98251e-07 0.0942933)
(6.10694e-07 -6.1015e-07 0.102537)
(-6.07797e-07 6.11451e-07 0.102537)
(6.07359e-07 6.10735e-07 0.102537)
(-5.55441e-07 -5.51919e-07 0.102537)
(5.52702e-07 -5.53381e-07 0.102537)
(-5.49833e-07 5.51022e-07 0.102537)
(5.50581e-07 5.50921e-07 0.102537)
(1.41233e-05 7.24204e-08 0.102138)
(-1.38028e-05 3.89083e-06 0.100977)
(-5.64158e-07 -1.68641e-07 0.102526)
(-5.48648e-07 7.44197e-07 0.102499)
(-1.43306e-05 -6.32982e-08 0.102135)
(1.31476e-05 -4.21036e-06 0.10099)
(-6.6691e-07 -1.44983e-07 0.102526)
(2.32659e-06 -1.783e-06 0.0827093)
(-2.1859e-06 1.45929e-06 0.0827258)
(7.73295e-08 1.41281e-05 0.102138)
(-1.69245e-07 -5.53801e-07 0.102526)
(3.91695e-06 -1.38473e-05 0.100977)
(7.41554e-07 -5.48995e-07 0.102499)
(-6.59143e-08 -1.43346e-05 0.102135)
(-1.45183e-07 -6.6892e-07 0.102526)
(-4.24578e-06 1.32024e-05 0.100989)
(-4.26564e-06 -5.27452e-06 0.0988325)
(-5.26528e-06 -4.25752e-06 0.0988319)
(4.3528e-05 4.35478e-05 0.102446)
(3.94241e-06 5.00413e-06 0.0988461)
(4.99816e-06 3.9352e-06 0.0988453)
(2.98766e-08 -8.72682e-06 0.100685)
(8.0361e-07 7.06404e-06 0.0942791)
(-9.68466e-08 8.88919e-06 0.100676)
(-1.04162e-06 -6.16664e-06 0.0942916)
(-1.81386e-06 2.72934e-06 0.0827081)
(1.77184e-06 -2.44441e-06 0.0827213)
(-8.78836e-06 1.69256e-08 0.100685)
(7.03947e-06 7.86212e-07 0.0942787)
(8.94766e-06 -9.1552e-08 0.100676)
(-6.14132e-06 -1.01285e-06 0.0942914)
(5.86766e-07 -5.87462e-07 0.102537)
(-5.83258e-07 5.85153e-07 0.102537)
(5.84145e-07 5.8496e-07 0.102537)
(-6.35366e-07 -6.34006e-07 0.102537)
(6.35353e-07 -6.36313e-07 0.102537)
(-6.31676e-07 6.33065e-07 0.102537)
(6.30586e-07 6.31616e-07 0.102537)
(1.42146e-05 5.08806e-08 0.102139)
(-1.41718e-05 4.24289e-06 0.100977)
(-6.27121e-07 -1.55251e-07 0.102527)
(-4.37313e-07 6.36369e-07 0.1025)
(-1.47905e-05 -4.76919e-08 0.102135)
(1.3208e-05 -4.20456e-06 0.10099)
(-5.79233e-07 -1.67359e-07 0.102527)
(2.62368e-06 -1.75471e-06 0.0827057)
(-2.33282e-06 1.71086e-06 0.0827219)
(5.48624e-08 1.42188e-05 0.102139)
(-1.54772e-07 -6.19347e-07 0.102527)
(4.27648e-06 -1.42214e-05 0.100977)
(6.34395e-07 -4.38101e-07 0.1025)
(-5.0505e-08 -1.47989e-05 0.102135)
(-1.6636e-07 -5.82112e-07 0.102527)
(-4.23988e-06 1.3262e-05 0.10099)
(-4.38727e-06 -5.28075e-06 0.0988321)
(-5.26873e-06 -4.38606e-06 0.0988315)
(4.368e-05 4.36966e-05 0.102447)
(4.0748e-06 5.15609e-06 0.0988458)
(5.1527e-06 4.06442e-06 0.0988451)
(5.15764e-08 -8.85779e-06 0.100685)
(7.53437e-07 6.58123e-06 0.094278)
(-5.97014e-08 8.62825e-06 0.100676)
(-1.06351e-06 -6.37719e-06 0.0942912)
(-1.79066e-06 2.54437e-06 0.082707)
(1.75484e-06 -2.51739e-06 0.0827211)
(-8.91674e-06 3.77129e-08 0.100685)
(6.55137e-06 7.20377e-07 0.0942775)
(8.69128e-06 -4.81974e-08 0.100677)
(-6.34478e-06 -1.04054e-06 0.0942911)
(6.35533e-07 -6.37059e-07 0.102537)
(-6.30974e-07 6.32917e-07 0.102537)
(6.30666e-07 6.3116e-07 0.102537)
(-6.29499e-07 -6.30876e-07 0.102537)
(6.34086e-07 -6.37774e-07 0.102537)
(-6.26689e-07 6.28897e-07 0.102537)
(6.27403e-07 6.26388e-07 0.102537)
(1.43333e-05 4.67798e-08 0.102139)
(-1.39132e-05 3.99199e-06 0.100977)
(-5.32408e-07 -1.77182e-07 0.102527)
(-4.16966e-07 6.35839e-07 0.1025)
(-1.44682e-05 -6.41482e-08 0.102135)
(1.33227e-05 -4.3287e-06 0.10099)
(-5.28699e-07 -1.78072e-07 0.102527)
(2.44201e-06 -1.73107e-06 0.0827046)
(-2.41374e-06 1.69179e-06 0.0827216)
(5.496e-08 1.43387e-05 0.102139)
(-1.73592e-07 -5.25202e-07 0.102527)
(4.02968e-06 -1.39641e-05 0.100977)
(6.39229e-07 -4.17657e-07 0.1025)
(-6.27253e-08 -1.44754e-05 0.102135)
(-1.73172e-07 -5.30858e-07 0.102527)
(-4.35762e-06 1.33781e-05 0.10099)
(-4.33865e-06 -5.28123e-06 0.0988322)
(-5.27041e-06 -4.33248e-06 0.0988316)
(4.36809e-05 4.36981e-05 0.102447)
(4.08042e-06 5.13616e-06 0.098846)
(5.13265e-06 4.07169e-06 0.0988452)
(4.96658e-08 -8.85948e-06 0.100685)
(7.52338e-07 6.56708e-06 0.0942779)
(-5.14203e-08 8.61363e-06 0.100676)
(-1.06463e-06 -6.37695e-06 0.0942912)
(-1.69329e-06 2.43762e-06 0.0827069)
(1.75917e-06 -2.53206e-06 0.082721)
(-8.91813e-06 3.62248e-08 0.100685)
(6.53649e-06 7.19181e-07 0.0942775)
(8.67839e-06 -4.91458e-08 0.100677)
(-6.34455e-06 -1.03985e-06 0.0942911)
(6.33715e-07 -6.36907e-07 0.102537)
(-6.25775e-07 6.28071e-07 0.102537)
(6.26761e-07 6.25641e-07 0.102537)
(-6.30174e-07 -6.28835e-07 0.102537)
(6.3064e-07 -6.28846e-07 0.102537)
(-6.25762e-07 6.28363e-07 0.102537)
(6.26422e-07 6.25129e-07 0.102537)
(1.43306e-05 4.8049e-08 0.102139)
(-1.39082e-05 3.98643e-06 0.100977)
(-5.30746e-07 -1.79485e-07 0.102527)
(-4.20804e-07 6.4146e-07 0.1025)
(-1.44649e-05 -6.47658e-08 0.102135)
(1.33231e-05 -4.32354e-06 0.10099)
(-5.29729e-07 -1.78586e-07 0.102527)
(2.43389e-06 -1.74216e-06 0.0827046)
(-2.41508e-06 1.68834e-06 0.0827216)
(5.52819e-08 1.43353e-05 0.102139)
(-1.72011e-07 -5.25166e-07 0.102527)
(4.02915e-06 -1.39558e-05 0.100977)
(6.43446e-07 -4.20376e-07 0.1025)
(-6.16733e-08 -1.44711e-05 0.102135)
(-1.72058e-07 -5.30394e-07 0.102527)
(-4.35397e-06 1.3378e-05 0.10099)
(-4.3377e-06 -5.28506e-06 0.0988322)
(-5.27285e-06 -4.33299e-06 0.0988316)
(4.36783e-05 4.36952e-05 0.102447)
(4.08059e-06 5.13572e-06 0.098846)
(5.13252e-06 4.07145e-06 0.0988452)
(4.5504e-08 -8.85821e-06 0.100685)
(7.48448e-07 6.56871e-06 0.0942779)
(-6.1441e-08 8.616e-06 0.100676)
(-1.06706e-06 -6.37592e-06 0.0942912)
(-1.79929e-06 2.54502e-06 0.0827071)
(1.75596e-06 -2.53339e-06 0.0827211)
(-8.91866e-06 3.65422e-08 0.100685)
(6.53718e-06 7.20641e-07 0.0942775)
(8.67813e-06 -4.91963e-08 0.100677)
(-6.34372e-06 -1.0385e-06 0.0942911)
(6.30276e-07 -6.275e-07 0.102537)
(-6.25511e-07 6.2865e-07 0.102537)
(6.28052e-07 6.24362e-07 0.102537)
(-6.29927e-07 -6.28864e-07 0.102537)
(6.31373e-07 -6.25221e-07 0.102537)
(-6.2423e-07 6.3024e-07 0.102537)
(6.34101e-07 6.17991e-07 0.102537)
(1.43311e-05 5.10703e-08 0.102139)
(-1.39057e-05 3.99643e-06 0.100977)
(-5.32692e-07 -1.73451e-07 0.102527)
(-4.20597e-07 6.44201e-07 0.1025)
(-1.44645e-05 -6.06299e-08 0.102135)
(1.33243e-05 -4.31958e-06 0.10099)
(-5.31664e-07 -1.73469e-07 0.102527)
(2.43403e-06 -1.74188e-06 0.0827046)
(-2.4149e-06 1.68865e-06 0.0827216)
(5.43715e-08 1.43331e-05 0.102139)
(-1.72317e-07 -5.26476e-07 0.102527)
(4.02977e-06 -1.39554e-05 0.100977)
(6.43062e-07 -4.1887e-07 0.1025)
(-6.16058e-08 -1.44707e-05 0.102135)
(-1.72346e-07 -5.2915e-07 0.102527)
(-4.35418e-06 1.33786e-05 0.10099)
(-4.33803e-06 -5.28379e-06 0.0988322)
(-5.27306e-06 -4.33237e-06 0.0988316)
(4.36765e-05 4.36973e-05 0.102447)
(4.08e-06 5.13704e-06 0.098846)
(5.13242e-06 4.07205e-06 0.0988452)
(4.39864e-08 -8.85743e-06 0.100685)
(7.48095e-07 6.56933e-06 0.0942779)
(-6.14776e-08 8.61618e-06 0.100676)
(-1.06734e-06 -6.37543e-06 0.0942912)
(-1.80655e-06 2.54747e-06 0.0827072)
(1.75421e-06 -2.53325e-06 0.0827211)
(-8.91852e-06 3.61277e-08 0.100685)
(6.53797e-06 7.21001e-07 0.0942775)
(8.67807e-06 -4.90271e-08 0.100677)
(-6.344e-06 -1.03895e-06 0.0942911)
(6.31202e-07 -6.24316e-07 0.102537)
(-6.23308e-07 6.30188e-07 0.102537)
(6.35468e-07 6.17092e-07 0.102537)
(-6.2888e-07 -6.28527e-07 0.102537)
(6.31197e-07 -6.23838e-07 0.102537)
(-6.22754e-07 6.30534e-07 0.102537)
(6.34188e-07 6.17081e-07 0.102537)
(1.43298e-05 5.15858e-08 0.102139)
(-1.39063e-05 3.99663e-06 0.100977)
(-5.35593e-07 -1.73491e-07 0.102527)
(-4.23105e-07 6.44785e-07 0.1025)
(-1.44662e-05 -5.95827e-08 0.102135)
(1.33239e-05 -4.31824e-06 0.10099)
(-5.34067e-07 -1.73742e-07 0.102527)
(2.43393e-06 -1.74215e-06 0.0827046)
(-2.41493e-06 1.68832e-06 0.0827216)
(5.46133e-08 1.43296e-05 0.102139)
(-1.7296e-07 -5.29218e-07 0.102527)
(4.02987e-06 -1.39549e-05 0.100977)
(6.44432e-07 -4.17919e-07 0.1025)
(-6.24205e-08 -1.44692e-05 0.102135)
(-1.72937e-07 -5.32311e-07 0.102527)
(-4.35437e-06 1.33786e-05 0.10099)
(-4.3387e-06 -5.28342e-06 0.0988322)
(-5.27322e-06 -4.33268e-06 0.0988316)
(4.36744e-05 4.36985e-05 0.102447)
(4.07992e-06 5.13685e-06 0.098846)
(5.13153e-06 4.07213e-06 0.0988452)
(4.39652e-08 -8.85758e-06 0.100685)
(7.47861e-07 6.56929e-06 0.0942779)
(-6.2303e-08 8.61572e-06 0.100676)
(-1.06785e-06 -6.37565e-06 0.0942912)
(-1.80701e-06 2.54735e-06 0.0827072)
(1.75348e-06 -2.53267e-06 0.0827211)
(-8.91846e-06 3.62697e-08 0.100685)
(6.53822e-06 7.21232e-07 0.0942775)
(8.67815e-06 -4.91456e-08 0.100677)
(-6.34347e-06 -1.03817e-06 0.0942911)
(6.31114e-07 -6.23648e-07 0.102537)
(-6.22566e-07 6.30421e-07 0.102537)
(6.35176e-07 6.16769e-07 0.102537)
(-6.28333e-07 -6.28415e-07 0.102537)
(6.31071e-07 -6.23578e-07 0.102537)
(-6.22434e-07 6.30378e-07 0.102537)
(6.34067e-07 6.16581e-07 0.102537)
(1.43296e-05 5.17033e-08 0.102139)
(-1.39061e-05 3.99696e-06 0.100977)
(-5.35687e-07 -1.73661e-07 0.102527)
(-4.23161e-07 6.44313e-07 0.1025)
(-1.44662e-05 -5.96291e-08 0.102135)
(1.33239e-05 -4.31837e-06 0.10099)
(-5.34032e-07 -1.7396e-07 0.102527)
(2.4343e-06 -1.74161e-06 0.0827046)
(-2.41476e-06 1.68895e-06 0.0827216)
(5.52098e-08 1.43253e-05 0.102139)
(-1.73192e-07 -5.30285e-07 0.102527)
(4.03001e-06 -1.39549e-05 0.100977)
(6.44706e-07 -4.17638e-07 0.1025)
(-6.37366e-08 -1.44672e-05 0.102135)
(-1.73209e-07 -5.32769e-07 0.102527)
(-4.35479e-06 1.33787e-05 0.10099)
(-4.33888e-06 -5.28325e-06 0.0988322)
(-5.27383e-06 -4.33223e-06 0.0988316)
(4.36746e-05 4.36989e-05 0.102447)
(4.07965e-06 5.13733e-06 0.098846)