/*--------------------------------*- C++ -*----------------------------------*\
| =========                 |                                                 |
| \\      /  F ield         | OpenFOAM: The Open Source CFD Toolbox           |
|  \\    /   O peration     | Version:  2206                                  |
|   \\  /    A nd           | Website:  www.openfoam.com                      |
|    \\/     M anipulation  |                                                 |
\*---------------------------------------------------------------------------*/
FoamFile
{
    version     2.0;
    format      ascii;
    arch        "LSB;label=32;scalar=64";
    class       volScalarField;
    location    "21.5";
    object      p;
}
// * * * * * * * * * * * * * * * * * * * * * * * * * * * * * * * * * * * * * //

dimensions      [0 2 -2 0 0 0 0];

internalField   nonuniform List<scalar> 
28688
(
0.0041469
0.00414722
0.00414722
0.00415027
0.00409155
0.00409198
0.00409198
0.00409496
0.00404077
0.00404072
0.00404072
0.00404351
0.00398857
0.00398838
0.00398838
0.00399109
0.0039392
0.00393899
0.00393902
0.00394144
0.00389453
0.00389448
0.00389448
0.00389708
0.00385069
0.00385065
0.00385065
0.00385323
0.00380694
0.0038069
0.0038069
0.00380948
0.0037632
0.00376317
0.00376317
0.00376574
0.00371946
0.00371943
0.00371943
0.003722
0.00367572
0.00367569
0.00367569
0.00367826
0.00363198
0.00363195
0.00363195
0.00363452
0.0041603
0.00416052
0.00416052
0.0041603
0.00416052
0.00416052
0.00416128
0.00416128
0.00416128
0.00416128
0.00416052
0.00416052
0.0041603
0.00416053
0.00416053
0.0041603
0.00415027
0.00410153
0.00414722
0.00414722
0.00410378
0.00410378
0.00415027
0.00410153
0.00414722
0.00414722
0.00410377
0.00410378
0.00414722
0.00410377
0.00410377
0.00415027
0.00410153
0.00414722
0.00410377
0.00410377
0.00410153
0.00409496
0.00405046
0.00409198
0.00409198
0.00405388
0.00405388
0.00409496
0.00405046
0.00409198
0.00409198
0.00405388
0.00405388
0.00409198
0.00405388
0.00405388
0.00409496
0.00405046
0.00409198
0.00405388
0.00405388
0.00405046
0.00404351
0.00399804
0.00404072
0.00404072
0.00400138
0.00400138
0.00404351
0.00399804
0.00404072
0.00404072
0.00400138
0.00400138
0.00404072
0.00400138
0.00400138
0.00404351
0.00399804
0.00404072
0.00400138
0.00400138
0.00399804
0.00399109
0.00394761
0.00398838
0.00398838
0.00395077
0.00395078
0.00399109
0.00394761
0.00398838
0.00398838
0.00395078
0.00395078
0.00398838
0.00395078
0.00395077
0.00399109
0.00394761
0.00398838
0.00395078
0.00395077
0.0039476
0.00394145
0.00390288
0.003939
0.00393902
0.00390547
0.00390547
0.00394145
0.00390288
0.00393902
0.00393902
0.00390547
0.00390547
0.00393899
0.00390547
0.00390547
0.00394145
0.00390288
0.00393898
0.00390547
0.00390547
0.00390288
0.00389708
0.00385902
0.00389448
0.00389448
0.00386159
0.00386159
0.00389708
0.00385902
0.00389448
0.00389448
0.00386159
0.00386159
0.00389448
0.00386159
0.00386159
0.00389708
0.00385902
0.00389448
0.00386159
0.00386159
0.00385902
0.00385323
0.00381527
0.00385065
0.00385065
0.00381784
0.00381784
0.00385323
0.00381527
0.00385065
0.00385065
0.00381784
0.00381784
0.00385065
0.00381784
0.00381784
0.00385323
0.00381527
0.00385065
0.00381784
0.00381784
0.00381527
0.00380948
0.00377154
0.00380691
0.00380691
0.0037741
0.0037741
0.00380948
0.00377154
0.0038069
0.00380691
0.0037741
0.0037741
0.00380691
0.0037741
0.0037741
0.00380948
0.00377154
0.0038069
0.0037741
0.0037741
0.00377154
0.00376574
0.0037278
0.00376317
0.00376317
0.00373037
0.00373037
0.00376574
0.0037278
0.00376317
0.00376317
0.00373037
0.00373037
0.00376317
0.00373037
0.00373037
0.00376574
0.0037278
0.00376317
0.00373037
0.00373037
0.0037278
0.003722
0.00368406
0.00371943
0.00371943
0.00368663
0.00368663
0.003722
0.00368406
0.00371943
0.00371943
0.00368663
0.00368663
0.00371943
0.00368663
0.00368663
0.003722
0.00368406
0.00371943
0.00368663
0.00368663
0.00368406
0.00367826
0.00364032
0.00367569
0.00367569
0.00364289
0.00364289
0.00367826
0.00364032
0.00367569
0.00367569
0.00364288
0.00364289
0.00367569
0.00364289
0.00364289
0.00367826
0.00364032
0.00367569
0.00364289
0.00364289
0.00364032
0.00363452
0.00359658
0.00363195
0.00363195
0.00359915
0.00363452
0.00363195
0.00363195
0.00359915
0.00359915
0.00363195
0.00359915
0.00363452
0.00359658
0.00363195
0.00359915
0.00359915
0.00359658
0.00416867
0.00417843
0.00417322
0.00417323
0.0041956
0.00418239
0.00421099
0.00417644
0.0041956
0.00418239
0.00417644
0.00421099
0.00418696
0.00421472
0.00421473
0.00412403
0.00414316
0.00415237
0.00411607
0.00411687
0.00411963
0.00412401
0.00414314
0.00415236
0.00411606
0.0041469
0.0041469
0.0041469
0.00410348
0.00410348
0.00410348
0.00410348
0.00412153
0.00414736
0.00414729
0.00413035
0.00415038
0.00412044
0.00413123
0.00411698
0.00411962
0.00412154
0.00414729
0.00414737
0.00413035
0.00415037
0.00413123
0.00412044
0.00415323
0.00415322
0.00412475
0.00412006
0.00412006
0.00407725
0.00409672
0.00409807
0.0040757
0.00409561
0.00407526
0.00407724
0.00409671
0.00409807
0.0040757
0.00409155
0.00409154
0.00409154
0.00405395
0.00405395
0.00405395
0.00405395
0.0040759
0.00409677
0.00409154
0.00407967
0.00409556
0.00407637
0.00407941
0.00409561
0.00407525
0.0040759
0.00409154
0.00409677
0.00407967
0.00409556
0.00407941
0.00407637
0.00409783
0.00409782
0.00407618
0.00407665
0.00407665
0.00402486
0.0040442
0.00404521
0.00402374
0.00404385
0.00402346
0.00402485
0.0040442
0.00404521
0.00402374
0.00404077
0.00404077
0.00404077
0.00400144
0.00400144
0.00400144
0.00400144
0.00402404
0.00404453
0.00404064
0.00402762
0.0040439
0.0040243
0.0040275
0.00404385
0.00402346
0.00402404
0.00404064
0.00404453
0.00402762
0.0040439
0.0040275
0.0040243
0.00404488
0.00404488
0.00402417
0.00402426
0.00402426
0.00397251
0.00399114
0.00399201
0.00397137
0.003991
0.00397112
0.00397252
0.00399114
0.00399201
0.00397137
0.00398857
0.00398857
0.00398857
0.00395097
0.00395097
0.00395097
0.00395097
0.00397202
0.00399154
0.00398842
0.00397556
0.00399131
0.00397197
0.0039756
0.003991
0.00397111
0.00397202
0.00398842
0.00399153
0.00397556
0.00399131
0.0039756
0.00397197
0.00399165
0.00399165
0.00397221
0.00397169
0.00397169
0.00392419
0.00394067
0.00394095
0.0039241
0.00394036
0.00392399
0.00392412
0.00394066
0.00394094
0.00392409
0.0039392
0.00393921
0.00393919
0.00390554
0.00390554
0.00390554
0.00390554
0.00392458
0.0039412
0.0039391
0.00392765
0.00394123
0.00392448
0.00392771
0.00394035
0.00392399
0.00392461
0.0039391
0.00394118
0.00392764
0.00394123
0.0039277
0.00392448
0.0039407
0.0039407
0.00392491
0.00392426
0.00392426
0.00388074
0.003897
0.00389706
0.0038807
0.00389705
0.00388072
0.00388074
0.00389699
0.00389706
0.0038807
0.00389453
0.00389453
0.00389453
0.00386163
0.00386163
0.00386163
0.00386163
0.00388082
0.00389706
0.00389449
0.0038835
0.00389708
0.00388077
0.00388352
0.00389704
0.00388072
0.00388082
0.00389449
0.00389706
0.0038835
0.00389709
0.00388352
0.00388077
0.00389712
0.00389712
0.00388094
0.00388075
0.00388075
0.003837
0.00385337
0.00385338
0.003837
0.00385337
0.003837
0.003837
0.00385337
0.00385338
0.003837
0.00385069
0.00385069
0.00385069
0.00381787
0.00381787
0.00381787
0.00381787
0.00383706
0.00385334
0.00385066
0.00383971
0.00385333
0.00383703
0.00383972
0.00385337
0.003837
0.00383706
0.00385066
0.00385334
0.00383971
0.00385333
0.00383972
0.00383703
0.00385338
0.00385338
0.00383714
0.003837
0.003837
0.00379327
0.00380964
0.00380964
0.00379327
0.00380964
0.00379327
0.00379327
0.00380964
0.00380964
0.00379327
0.00380694
0.00380694
0.00380694
0.00377414
0.00377414
0.00377414
0.00377414
0.00379332
0.00380961
0.00380691
0.00379597
0.00380959
0.0037933
0.00379598
0.00380964
0.00379327
0.00379332
0.00380691
0.00380961
0.00379597
0.00380959
0.00379598
0.0037933
0.00380964
0.00380964
0.0037934
0.00379326
0.00379326
0.00374953
0.0037659
0.00376591
0.00374953
0.0037659
0.00374953
0.00374953
0.0037659
0.00376591
0.00374953
0.0037632
0.0037632
0.0037632
0.0037304
0.0037304
0.0037304
0.0037304
0.00374958
0.00376587
0.00376318
0.00375224
0.00376586
0.00374956
0.00375224
0.0037659
0.00374953
0.00374958
0.00376318
0.00376587
0.00375224
0.00376586
0.00375224
0.00374956
0.00376591
0.00376591
0.00374967
0.00374953
0.00374953
0.00370579
0.00372216
0.00372217
0.00370579
0.00372217
0.00370579
0.00370579
0.00372216
0.00372217
0.00370579
0.00371946
0.00371946
0.00371946
0.00368666
0.00368666
0.00368666
0.00368666
0.00370584
0.00372213
0.00371944
0.0037085
0.00372212
0.00370582
0.0037085
0.00372217
0.00370579
0.00370584
0.00371944
0.00372213
0.0037085
0.00372212
0.0037085
0.00370582
0.00372217
0.00372217
0.00370593
0.00370579
0.00370579
0.00366205
0.00367842
0.00367843
0.00366205
0.00367843
0.00366205
0.00366205
0.00367842
0.00367843
0.00366205
0.00367572
0.00367572
0.00367572
0.00364292
0.00364292
0.00364292
0.00364292
0.0036621
0.00367839
0.0036757
0.00366476
0.00367838
0.00366208
0.00366476
0.00367843
0.00366205
0.0036621
0.0036757
0.00367839
0.00366476
0.00367838
0.00366476
0.00366208
0.00367843
0.00367843
0.00366219
0.00366205
0.00366205
0.00361831
0.00363468
0.00363469
0.00361831
0.00363468
0.00361831
0.00361831
0.00363468
0.00363469
0.00361831
0.00363198
0.00363198
0.00363198
0.00359918
0.00359918
0.00359918
0.00359918
0.00361836
0.00363465
0.00363196
0.00362102
0.00363464
0.00361834
0.00362102
0.00363469
0.00361831
0.00361836
0.00363196
0.00363465
0.00362102
0.00363464
0.00362102
0.00361834
0.00363469
0.00363469
0.00361845
0.00361831
0.00361831
0.00418696
0.00421471
0.00421473
0.00417909
0.00421426
0.00417906
0.00421428
0.00418381
0.00417088
0.00417089
0.00420954
0.00420955
0.00419559
0.00418239
0.00421097
0.00417643
0.00419559
0.00418239
0.00421098
0.00417643
0.00420011
0.00417116
0.00421139
0.00416597
0.00420012
0.00417114
0.0042114
0.00416598
0.0041912
0.00417991
0.00416235
0.00416274
0.00420626
0.00417487
0.00416297
0.0041912
0.00417991
0.00416235
0.00416274
0.00420626
0.00417487
0.00416297
0.00418695
0.00421471
0.00421472
0.00417906
0.00421426
0.00418381
0.00417087
0.0041709
0.00420954
0.00420955
0.00417909
0.00421427
0.0041956
0.00418239
0.00421099
0.00417644
0.0041956
0.00418239
0.00417644
0.00421099
0.00420013
0.00417115
0.00421141
0.00416599
0.00419121
0.00417991
0.00416235
0.00416274
0.00420627
0.00417488
0.00416298
0.00420013
0.00417116
0.0042114
0.00416598
0.00419121
0.00417992
0.00416274
0.00416236
0.00417488
0.00420627
0.00416298
0.00416867
0.00417842
0.00417322
0.00417323
0.00416867
0.00417843
0.00417323
0.00417323
0.00416867
0.00417843
0.00417323
0.00417323
0.00416743
0.00417651
0.0041594
0.0041594
0.00417179
0.00417179
0.00415757
0.00416743
0.00417651
0.0041594
0.0041594
0.00417179
0.00417179
0.00415757
0.00416743
0.00417651
0.0041594
0.0041594
0.00417179
0.0041718
0.00415757
0.00416743
0.00417651
0.0041594
0.0041594
0.00417179
0.0041718
0.00415757
0.0041956
0.00418239
0.00417644
0.00421098
0.00419121
0.00417991
0.00416235
0.00416274
0.00420627
0.00417488
0.00416298
0.00420014
0.00417116
0.00421141
0.00416598
0.00419121
0.00417992
0.00416274
0.00416236
0.00417488
0.00420627
0.00416298
0.00420013
0.00417115
0.00421141
0.00416597
0.00418696
0.00421473
0.00421473
0.00417904
0.00421426
0.00418381
0.00417089
0.00417089
0.00420955
0.00420955
0.00417903
0.00421427
0.0041956
0.00418239
0.00417644
0.00421099
0.00419122
0.00417992
0.00416274
0.00416236
0.00417488
0.00420627
0.00416298
0.00419122
0.00417992
0.00416274
0.00416236
0.00417488
0.00420627
0.00416298
0.00420013
0.00417115
0.00421141
0.00416597
0.00420014
0.00417117
0.00421141
0.00416599
0.00418381
0.00417089
0.00417089
0.00420955
0.00420955
0.00417904
0.00421426
0.00417907
0.00421427
0.00411687
0.00411962
0.00411697
0.0041196
0.00415319
0.00415323
0.00412477
0.00412006
0.00412006
0.00410239
0.0041193
0.00410239
0.00411931
0.00411811
0.00410506
0.00410506
0.00411823
0.00411822
0.00412403
0.00414315
0.00415237
0.00411607
0.00412155
0.00414736
0.00414729
0.00413034
0.00415038
0.00412045
0.00413124
0.00412155
0.00414736
0.00414729
0.00413034
0.00415038
0.00412045
0.00413124
0.00411951
0.00410421
0.00411701
0.00410488
0.00411951
0.00410421
0.00411701
0.00410488
0.00411653
0.00411604
0.00410383
0.00410351
0.00411762
0.00411645
0.00410215
0.00411653
0.00411605
0.00410383
0.00410351
0.00411763
0.00411645
0.00410215
0.00415318
0.00415323
0.00412477
0.00412006
0.00412006
0.00411702
0.0041196
0.00410239
0.00411931
0.00411811
0.00410506
0.00410506
0.00411823
0.00411822
0.00410238
0.00411931
0.00412153
0.00414736
0.00414729
0.00413035
0.00415038
0.00412044
0.00413123
0.00412402
0.00414315
0.00415235
0.00411608
0.00412154
0.00414729
0.00414736
0.00413034
0.00415038
0.00413123
0.00412044
0.0041195
0.00410421
0.00411701
0.00410488
0.00411652
0.00411604
0.00410383
0.00410351
0.00411762
0.00411645
0.00410215
0.0041195
0.0041042
0.00411702
0.00410488
0.00411653
0.00411604
0.00410351
0.00410383
0.00411645
0.00411762
0.00410215
0.00412401
0.00414315
0.00415236
0.00411606
0.00412154
0.00414729
0.00414737
0.00413034
0.00415038
0.00413123
0.00412044
0.00412402
0.00414317
0.00415235
0.00411607
0.00411652
0.00411604
0.00410383
0.00410351
0.00411761
0.00411645
0.00410215
0.0041195
0.0041042
0.00411701
0.00410488
0.00411652
0.00411604
0.00410351
0.00410383
0.00411645
0.00411761
0.00410215
0.0041195
0.00410421
0.004117
0.00410488
0.00415322
0.00415323
0.00412475
0.00412006
0.00412006
0.00411698
0.0041196
0.00410239
0.00411932
0.00411811
0.00410506
0.00410506
0.00411823
0.00411822
0.00410239
0.00411928
0.00412153
0.00414729
0.00414736
0.00413035
0.00415038
0.00413123
0.00412044
0.00412402
0.00414316
0.00415235
0.00411606
0.00412401
0.00414316
0.00415236
0.00411607
0.00411652
0.00411604
0.00410351
0.00410383
0.00411644
0.00411761
0.00410215
0.00411652
0.00411604
0.00410351
0.00410383
0.00411644
0.00411761
0.00410215
0.0041195
0.0041042
0.00411701
0.00410487
0.0041195
0.0041042
0.00411701
0.00410487
0.004117
0.0041196
0.004117
0.0041196
0.00411811
0.00410507
0.00410506
0.00411822
0.00411822
0.0041024
0.00411928
0.00410238
0.0041193
0.00409561
0.00407526
0.0040956
0.00407525
0.00409782
0.00409782
0.00407618
0.00407665
0.00407665
0.00405043
0.0040688
0.00405043
0.0040688
0.00406935
0.00405142
0.00405143
0.00407024
0.00407023
0.00407725
0.00409672
0.00409807
0.0040757
0.0040759
0.00409677
0.00409154
0.00407967
0.00409556
0.00407637
0.00407941
0.0040759
0.00409677
0.00409154
0.00407968
0.00409556
0.00407638
0.00407941
0.00407071
0.00405081
0.00406938
0.00405178
0.00407071
0.00405081
0.00406938
0.00405178
0.00406935
0.0040669
0.00405116
0.00405379
0.00406994
0.00406678
0.00405054
0.00406935
0.0040669
0.00405116
0.00405379
0.00406994
0.00406678
0.00405054
0.00409782
0.00409783
0.00407619
0.00407665
0.00407665
0.00409562
0.00407526
0.00405043
0.0040688
0.00406935
0.00405142
0.00405142
0.00407024
0.00407024
0.00405043
0.0040688
0.0040759
0.00409677
0.00409154
0.00407967
0.00409556
0.00407637
0.00407941
0.00407724
0.00409671
0.00409807
0.0040757
0.0040759
0.00409154
0.00409677
0.00407967
0.00409556
0.00407941
0.00407637
0.00407071
0.00405081
0.00406938
0.00405178
0.00406935
0.0040669
0.00405116
0.00405379
0.00406994
0.00406678
0.00405054
0.00407071
0.00405081
0.00406938
0.00405177
0.00406935
0.0040669
0.00405379
0.00405116
0.00406678
0.00406994
0.00405054
0.00407725
0.00409672
0.00409807
0.00407571
0.0040759
0.00409154
0.00409677
0.00407967
0.00409556
0.00407941
0.00407637
0.00407725
0.00409672
0.00409807
0.0040757
0.00406935
0.0040669
0.00405116
0.00405379
0.00406994
0.00406678
0.00405054
0.00407071
0.00405081
0.00406938
0.00405178
0.00406935
0.0040669
0.00405379
0.00405116
0.00406678
0.00406994
0.00405054
0.00407071
0.00405081
0.00406938
0.00405178
0.00409782
0.00409783
0.00407618
0.00407665
0.00407665
0.00409561
0.00407526
0.00405043
0.0040688
0.00406935
0.00405142
0.00405143
0.00407023
0.00407023
0.00405043
0.0040688
0.0040759
0.00409154
0.00409677
0.00407967
0.00409556
0.00407941
0.00407637
0.00407725
0.00409671
0.00409807
0.0040757
0.00407725
0.00409671
0.00409807
0.0040757
0.00406935
0.0040669
0.00405379
0.00405116
0.00406678
0.00406994
0.00405054
0.00406935
0.0040669
0.00405379
0.00405116
0.00406678
0.00406994
0.00405054
0.00407072
0.00405081
0.00406938
0.00405177
0.00407072
0.00405081
0.00406938
0.00405177
0.00409561
0.00407525
0.0040956
0.00407526
0.00406935
0.00405143
0.00405143
0.00407023
0.00407024
0.00405043
0.0040688
0.00405043
0.0040688
0.00404385
0.00402346
0.00404385
0.00402346
0.00404488
0.00404488
0.00402418
0.00402426
0.00402426
0.00399764
0.00401703
0.00399764
0.00401703
0.00401719
0.00399832
0.00399832
0.00401779
0.00401779
0.00402486
0.0040442
0.00404521
0.00402374
0.00402404
0.00404452
0.00404064
0.00402762
0.0040439
0.0040243
0.0040275
0.00402404
0.00404453
0.00404064
0.00402762
0.0040439
0.0040243
0.0040275
0.00401829
0.00399783
0.00401732
0.00399867
0.00401829
0.00399783
0.00401732
0.00399867
0.00401735
0.00401448
0.00399829
0.00400138
0.00401774
0.00401439
0.00399805
0.00401735
0.00401448
0.00399829
0.00400138
0.00401774
0.00401439
0.00399805
0.00404488
0.00404488
0.00402417
0.00402426
0.00402426
0.00404385
0.00402346
0.00399764
0.00401703
0.00401719
0.00399833
0.00399833
0.00401779
0.00401779
0.00399764
0.00401703
0.00402404
0.00404453
0.00404064
0.00402762
0.0040439
0.0040243
0.0040275
0.00402486
0.0040442
0.00404521
0.00402374
0.00402404
0.00404064
0.00404452
0.00402762
0.0040439
0.0040275
0.0040243
0.00401829
0.00399783
0.00401732
0.00399867
0.00401735
0.00401448
0.00399829
0.00400138
0.00401774
0.00401439
0.00399805
0.00401829
0.00399783
0.00401732
0.00399867
0.00401735
0.00401448
0.00400138
0.00399829
0.00401439
0.00401774
0.00399805
0.00402486
0.0040442
0.00404521
0.00402374
0.00402404
0.00404064
0.00404453
0.00402762
0.0040439
0.0040275
0.0040243
0.00402486
0.0040442
0.00404521
0.00402374
0.00401735
0.00401448
0.00399829
0.00400138
0.00401774
0.00401439
0.00399805
0.00401829
0.00399783
0.00401732
0.00399867
0.00401735
0.00401448
0.00400138
0.00399829
0.00401439
0.00401774
0.00399805
0.00401829
0.00399783
0.00401732
0.00399867
0.00404488
0.00404488
0.00402417
0.00402426
0.00402426
0.00404385
0.00402346
0.00399764
0.00401703
0.00401719
0.00399833
0.00399833
0.00401779
0.00401779
0.00399764
0.00401703
0.00402404
0.00404064
0.00404453
0.00402762
0.0040439
0.0040275
0.0040243
0.00402485
0.0040442
0.00404521
0.00402374
0.00402485
0.0040442
0.00404521
0.00402374
0.00401735
0.00401448
0.00400138
0.00399829
0.00401439
0.00401774
0.00399805
0.00401735
0.00401448
0.00400138
0.00399829
0.00401439
0.00401774
0.00399805
0.00401829
0.00399783
0.00401732
0.00399867
0.00401829
0.00399783
0.00401732
0.00399867
0.00404385
0.00402346
0.00404385
0.00402346
0.00401719
0.00399833
0.00399833
0.00401779
0.00401779
0.00399764
0.00401703
0.00399764
0.00401703
0.003991
0.00397111
0.003991
0.00397111
0.00399165
0.00399165
0.00397221
0.00397169
0.00397169
0.00394606
0.00396449
0.00394605
0.00396449
0.0039655
0.00394647
0.00394646
0.00396504
0.00396504
0.00397251
0.00399115
0.00399201
0.00397138
0.00397202
0.00399153
0.00398842
0.00397556
0.00399131
0.00397197
0.0039756
0.00397202
0.00399154
0.00398842
0.00397556
0.00399131
0.00397198
0.0039756
0.00396589
0.00394647
0.00396483
0.0039469
0.00396589
0.00394647
0.00396484
0.0039469
0.00396548
0.00396299
0.00394707
0.00395086
0.00396541
0.00396305
0.00394716
0.00396548
0.003963
0.00394707
0.00395086
0.00396542
0.00396305
0.00394716
0.00399165
0.00399165
0.00397222
0.00397169
0.00397169
0.003991
0.00397111
0.00394606
0.0039645
0.0039655
0.00394647
0.00394647
0.00396504
0.00396504
0.00394606
0.00396449
0.00397202
0.00399153
0.00398842
0.00397556
0.00399131
0.00397197
0.0039756
0.00397252
0.00399114
0.00399201
0.00397137
0.00397202
0.00398842
0.00399153
0.00397556
0.00399131
0.0039756
0.00397197
0.00396589
0.00394646
0.00396483
0.00394689
0.00396548
0.003963
0.00394706
0.00395086
0.00396541
0.00396305
0.00394715
0.00396589
0.00394646
0.00396483
0.00394689
0.00396548
0.003963
0.00395086
0.00394706
0.00396305
0.00396541
0.00394715
0.00397252
0.00399114
0.00399201
0.00397138
0.00397202
0.00398842
0.00399153
0.00397556
0.00399131
0.0039756
0.00397197
0.00397252
0.00399114
0.00399201
0.00397138
0.00396548
0.003963
0.00394707
0.00395086
0.00396542
0.00396305
0.00394716
0.00396589
0.00394647
0.00396484
0.0039469
0.00396548
0.003963
0.00395086
0.00394707
0.00396305
0.00396542
0.00394716
0.00396589
0.00394647
0.00396484
0.0039469
0.00399165
0.00399165
0.00397222
0.00397169
0.00397169
0.003991
0.00397111
0.00394605
0.00396449
0.0039655
0.00394646
0.00394646
0.00396504
0.00396504
0.00394605
0.00396449
0.00397202
0.00398842
0.00399153
0.00397556
0.00399131
0.0039756
0.00397197
0.00397252
0.00399114
0.00399201
0.00397137
0.00397252
0.00399114
0.00399201
0.00397137
0.00396548
0.003963
0.00395086
0.00394707
0.00396306
0.00396541
0.00394716
0.00396548
0.003963
0.00395086
0.00394708
0.00396305
0.00396542
0.00394716
0.00396589
0.00394646
0.00396483
0.0039469
0.00396589
0.00394647
0.00396484
0.0039469
0.003991
0.00397111
0.003991
0.00397111
0.0039655
0.00394647
0.00394647
0.00396504
0.00396504
0.00394606
0.00396449
0.00394606
0.00396449
0.00394036
0.00392399
0.00394035
0.00392397
0.00394069
0.00394068
0.00392491
0.00392426
0.00392425
0.00390248
0.00391859
0.00390248
0.00391858
0.00391906
0.00390258
0.00390258
0.00391884
0.00391884
0.00392419
0.00394067
0.00394095
0.0039241
0.00392467
0.00394119
0.0039391
0.00392764
0.00394124
0.00392449
0.0039277
0.00392467
0.00394118
0.0039391
0.00392765
0.00394124
0.00392448
0.0039277
0.00391871
0.00390244
0.00391864
0.00390251
0.0039187
0.00390244
0.00391865
0.00390251
0.00391894
0.0039165
0.00390262
0.00390548
0.00391892
0.00391653
0.00390268
0.00391894
0.00391651
0.00390262
0.00390548
0.00391892
0.00391654
0.00390268
0.00394069
0.0039407
0.00392491
0.00392425
0.00392426
0.00394037
0.00392399
0.00390249
0.00391863
0.00391906
0.00390258
0.00390258
0.00391883
0.00391883
0.00390248
0.00391862
0.0039245
0.00394118
0.0039391
0.00392765
0.00394123
0.00392447
0.00392771
0.00392414
0.00394066
0.00394094
0.00392409
0.00392457
0.0039391
0.00394118
0.00392765
0.00394123
0.00392771
0.00392448
0.00391867
0.00390244
0.00391863
0.0039025
0.0039189
0.0039165
0.00390262
0.00390548
0.00391891
0.00391654
0.00390267
0.00391868
0.00390244
0.00391864
0.0039025
0.00391891
0.0039165
0.00390548
0.00390262
0.00391654
0.00391891
0.00390267
0.00392415
0.00394068
0.00394094
0.0039241
0.00392451
0.0039391
0.0039412
0.00392765
0.00394123
0.00392771
0.00392449
0.00392413
0.00394068
0.00394094
0.0039241
0.00391892
0.00391651
0.00390262
0.00390549
0.00391892
0.00391654
0.00390268
0.00391868
0.00390244
0.00391864
0.00390251
0.00391891
0.00391651
0.00390549
0.00390262
0.00391654
0.00391892
0.00390268
0.00391868
0.00390244
0.00391864
0.00390251
0.00394068
0.00394068
0.00392491
0.00392425
0.00392425
0.00394035
0.00392398
0.00390248
0.00391862
0.00391906
0.00390258
0.00390258
0.00391882
0.00391882
0.00390248
0.00391862
0.00392466
0.00393909
0.0039412
0.00392764
0.00394124
0.0039277
0.00392449
0.00392417
0.00394066
0.00394094
0.00392409
0.00392418
0.00394068
0.00394095
0.00392411
0.00391893
0.0039165
0.00390548
0.00390262
0.00391654
0.00391892
0.00390268
0.00391893
0.00391651
0.00390548
0.00390262
0.00391654
0.00391892
0.00390268
0.0039187
0.00390244
0.00391864
0.00390251
0.0039187
0.00390244
0.00391865
0.00390251
0.00394037
0.00392399
0.00394037
0.003924
0.00391906
0.00390258
0.00390259
0.00391883
0.00391883
0.00390248
0.00391863
0.00390248
0.00391863
0.00389704
0.00388073
0.00389704
0.00388073
0.00389712
0.00389712
0.00388093
0.00388075
0.00388075
0.00385887
0.00387524
0.00385887
0.00387524
0.00387513
0.00385887
0.00385887
0.00387526
0.00387526
0.00388074
0.003897
0.00389706
0.0038807
0.00388082
0.00389706
0.00389449
0.0038835
0.00389709
0.00388077
0.00388352
0.00388082
0.00389706
0.00389449
0.0038835
0.00389709
0.00388077
0.00388352
0.00387525
0.00385886
0.00387522
0.00385887
0.00387525
0.00385886
0.00387522
0.00385887
0.00387522
0.00387254
0.0038589
0.00386161
0.00387521
0.00387256
0.00385893
0.00387522
0.00387254
0.0038589
0.00386161
0.00387521
0.00387256
0.00385893
0.00389712
0.00389712
0.00388093
0.00388074
0.00388075
0.00389704
0.00388073
0.00385887
0.00387523
0.00387513
0.00385887
0.00385887
0.00387526
0.00387526
0.00385887
0.00387524
0.00388082
0.00389706
0.00389449
0.0038835
0.00389708
0.00388077
0.00388351
0.00388074
0.00389699
0.00389706
0.0038807
0.00388081
0.00389449
0.00389706
0.0038835
0.00389708
0.00388351
0.00388077
0.00387525
0.00385886
0.00387522
0.00385887
0.00387522
0.00387254
0.0038589
0.00386161
0.00387521
0.00387256
0.00385893
0.00387525
0.00385886
0.00387522
0.00385887
0.00387522
0.00387254
0.00386161
0.0038589
0.00387256
0.00387521
0.00385893
0.00388074
0.00389699
0.00389706
0.0038807
0.00388082
0.00389449
0.00389706
0.0038835
0.00389708
0.00388352
0.00388077
0.00388074
0.00389699
0.00389706
0.0038807
0.00387522
0.00387254
0.0038589
0.00386161
0.00387521
0.00387256
0.00385893
0.00387525
0.00385886
0.00387522
0.00385887
0.00387522
0.00387254
0.00386161
0.0038589
0.00387256
0.00387521
0.00385893
0.00387525
0.00385886
0.00387522
0.00385887
0.00389712
0.00389712
0.00388093
0.00388074
0.00388075
0.00389704
0.00388073
0.00385887
0.00387524
0.00387513
0.00385887
0.00385887
0.00387526
0.00387526
0.00385887
0.00387524
0.00388082
0.00389449
0.00389706
0.0038835
0.00389709
0.00388352
0.00388077
0.00388074
0.00389699
0.00389706
0.0038807
0.00388074
0.003897
0.00389706
0.0038807
0.00387522
0.00387254
0.00386161
0.0038589
0.00387256
0.00387521
0.00385893
0.00387522
0.00387254
0.00386161
0.0038589
0.00387256
0.00387521
0.00385893
0.00387525
0.00385886
0.00387522
0.00385887
0.00387525
0.00385886
0.00387522
0.00385887
0.00389704
0.00388073
0.00389704
0.00388073
0.00387513
0.00385887
0.00385887
0.00387526
0.00387526
0.00385887
0.00387524
0.00385887
0.00387524
0.00385338
0.003837
0.00385337
0.003837
0.00385338
0.00385338
0.00383714
0.003837
0.003837
0.00381513
0.00383151
0.00381513
0.00383151
0.00383135
0.00381513
0.00381513
0.00383151
0.00383151
0.003837
0.00385337
0.00385338
0.003837
0.00383706
0.00385334
0.00385066
0.00383971
0.00385333
0.00383703
0.00383972
0.00383706
0.00385334
0.00385066
0.00383971
0.00385333
0.00383703
0.00383972
0.00383151
0.00381513
0.0038315
0.00381513
0.00383151
0.00381513
0.0038315
0.00381513
0.00383146
0.00382877
0.00381516
0.00381785
0.00383147
0.00382878
0.00381519
0.00383146
0.00382877
0.00381516
0.00381785
0.00383147
0.00382878
0.00381519
0.00385338
0.00385338
0.00383714
0.003837
0.003837
0.00385337
0.003837
0.00381513
0.0038315
0.00383135
0.00381513
0.00381513
0.00383151
0.00383151
0.00381513
0.00383151
0.00383706
0.00385334
0.00385066
0.00383971
0.00385333
0.00383703
0.00383972
0.003837
0.00385337
0.00385338
0.003837
0.00383706
0.00385066
0.00385334
0.00383971
0.00385333
0.00383972
0.00383703
0.00383151
0.00381513
0.0038315
0.00381513
0.00383146
0.00382877
0.00381516
0.00381785
0.00383147
0.00382878
0.00381519
0.00383151
0.00381513
0.0038315
0.00381513
0.00383146
0.00382877
0.00381785
0.00381516
0.00382878
0.00383147
0.00381519
0.003837
0.00385337
0.00385338
0.003837
0.00383706
0.00385066
0.00385334
0.00383971
0.00385333
0.00383972
0.00383703
0.003837
0.00385337
0.00385338
0.003837
0.00383146
0.00382877
0.00381516
0.00381785
0.00383147
0.00382878
0.00381519
0.00383151
0.00381513
0.0038315
0.00381513
0.00383146
0.00382877
0.00381785
0.00381516
0.00382878
0.00383147
0.00381519
0.00383151
0.00381513
0.0038315
0.00381513
0.00385338
0.00385338
0.00383714
0.003837
0.003837
0.00385337
0.003837
0.00381513
0.00383151
0.00383135
0.00381513
0.00381513
0.00383151
0.00383151
0.00381513
0.00383151
0.00383706
0.00385066
0.00385334
0.00383971
0.00385333
0.00383972
0.00383703
0.003837
0.00385337
0.00385338
0.003837
0.003837
0.00385337
0.00385338
0.003837
0.00383146
0.00382877
0.00381785
0.00381516
0.00382878
0.00383147
0.00381519
0.00383146
0.00382877
0.00381785
0.00381516
0.00382878
0.00383147
0.00381519
0.00383151
0.00381513
0.0038315
0.00381513
0.00383151
0.00381513
0.0038315
0.00381513
0.00385337
0.003837
0.00385337
0.003837
0.00383135
0.00381513
0.00381513
0.00383151
0.00383151
0.00381513
0.00383151
0.00381513
0.00383151
0.00380964
0.00379327
0.00380964
0.00379327
0.00380964
0.00380964
0.0037934
0.00379326
0.00379326
0.0037714
0.00378777
0.0037714
0.00378777
0.00378761
0.0037714
0.0037714
0.00378778
0.00378778
0.00379327
0.00380964
0.00380964
0.00379327
0.00379332
0.00380961
0.00380691
0.00379597
0.00380959
0.0037933
0.00379598
0.00379332
0.00380961
0.00380691
0.00379597
0.00380959
0.0037933
0.00379598
0.00378777
0.0037714
0.00378777
0.0037714
0.00378777
0.0037714
0.00378777
0.0037714
0.00378772
0.00378504
0.00377143
0.00377411
0.00378774
0.00378505
0.00377145
0.00378772
0.00378504
0.00377143
0.00377411
0.00378774
0.00378505
0.00377145
0.00380964
0.00380964
0.00379341
0.00379326
0.00379326
0.00380964
0.00379327
0.0037714
0.00378777
0.00378761
0.0037714
0.0037714
0.00378778
0.00378778
0.0037714
0.00378777
0.00379332
0.00380961
0.00380691
0.00379597
0.00380959
0.0037933
0.00379598
0.00379327
0.00380964
0.00380964
0.00379327
0.00379332
0.00380691
0.00380961
0.00379597
0.00380959
0.00379598
0.0037933
0.00378777
0.0037714
0.00378777
0.0037714
0.00378772
0.00378504
0.00377143
0.00377411
0.00378774
0.00378505
0.00377145
0.00378777
0.0037714
0.00378777
0.0037714
0.00378772
0.00378504
0.00377411
0.00377143
0.00378505
0.00378774
0.00377145
0.00379327
0.00380964
0.00380964
0.00379327
0.00379332
0.00380691
0.00380961
0.00379597
0.00380959
0.00379598
0.0037933
0.00379327
0.00380964
0.00380964
0.00379327
0.00378772
0.00378504
0.00377143
0.00377411
0.00378774
0.00378505
0.00377145
0.00378777
0.0037714
0.00378777
0.0037714
0.00378772
0.00378504
0.00377411
0.00377143
0.00378505
0.00378774
0.00377145
0.00378777
0.0037714
0.00378777
0.0037714
0.00380964
0.00380964
0.00379341
0.00379326
0.00379326
0.00380964
0.00379327
0.0037714
0.00378777
0.00378761
0.0037714
0.0037714
0.00378778
0.00378778
0.0037714
0.00378777
0.00379332
0.00380691
0.00380961
0.00379597
0.00380959
0.00379598
0.0037933
0.00379327
0.00380964
0.00380964
0.00379327
0.00379327
0.00380964