/*--------------------------------*- C++ -*----------------------------------*\
| =========                 |                                                 |
| \\      /  F ield         | OpenFOAM: The Open Source CFD Toolbox           |
|  \\    /   O peration     | Version:  2206                                  |
|   \\  /    A nd           | Website:  www.openfoam.com                      |
|    \\/     M anipulation  |                                                 |
\*---------------------------------------------------------------------------*/
FoamFile
{
    version     2.0;
    format      ascii;
    arch        "LSB;label=32;scalar=64";
    class       volScalarField;
    location    "21";
    object      epsilon;
}
// * * * * * * * * * * * * * * * * * * * * * * * * * * * * * * * * * * * * * //

dimensions      [0 2 -3 0 0 0 0];

internalField   nonuniform List<scalar> 
28687
(
3.27504e-07
3.48823e-07
3.48831e-07
3.77911e-07
3.27502e-07
3.48826e-07
3.4883e-07
3.77928e-07
3.27504e-07
3.48829e-07
3.48834e-07
3.77936e-07
3.27501e-07
3.48831e-07
3.48835e-07
3.77942e-07
3.27493e-07
3.48822e-07
3.48831e-07
3.77945e-07
3.27379e-07
3.48706e-07
3.48725e-07
3.77864e-07
3.27336e-07
3.4868e-07
3.48688e-07
3.77801e-07
3.27336e-07
3.4868e-07
3.48688e-07
3.77816e-07
3.27335e-07
3.4868e-07
3.48688e-07
3.77808e-07
3.27335e-07
3.4868e-07
3.48688e-07
3.77811e-07
3.27335e-07
3.4868e-07
3.48688e-07
3.77813e-07
3.27335e-07
3.4868e-07
3.48688e-07
3.77813e-07
3.27335e-07
3.4868e-07
3.48688e-07
3.77813e-07
3.27335e-07
3.4868e-07
3.48688e-07
3.77813e-07
3.27335e-07
3.4868e-07
3.48688e-07
3.77813e-07
3.27335e-07
3.4868e-07
3.48688e-07
3.77813e-07
3.27335e-07
3.4868e-07
3.48688e-07
3.77813e-07
3.27335e-07
3.4868e-07
3.48688e-07
3.77812e-07
3.48845e-07
3.77678e-07
3.48823e-07
3.77904e-07
3.77692e-07
3.4884e-07
3.48845e-07
3.48839e-07
3.48844e-07
3.77916e-07
3.77691e-07
3.48828e-07
3.48851e-07
3.48827e-07
3.4885e-07
3.48842e-07
3.48826e-07
3.48841e-07
3.77913e-07
3.777e-07
3.48827e-07
3.4883e-07
3.48826e-07
3.77698e-07
3.77924e-07
3.77699e-07
3.48843e-07
3.48847e-07
3.48843e-07
3.48847e-07
3.77925e-07
3.77699e-07
3.48831e-07
3.48854e-07
3.48831e-07
3.48853e-07
3.48845e-07
3.48829e-07
3.48844e-07
3.77933e-07
3.77708e-07
3.4883e-07
3.48834e-07
3.48829e-07
3.77705e-07
3.77934e-07
3.77707e-07
3.48846e-07
3.48851e-07
3.48847e-07
3.4885e-07
3.77933e-07
3.77703e-07
3.48835e-07
3.48857e-07
3.48834e-07
3.48856e-07
3.48848e-07
3.48831e-07
3.48847e-07
3.77942e-07
3.77715e-07
3.48833e-07
3.48835e-07
3.48832e-07
3.77712e-07
3.7794e-07
3.7771e-07
3.4885e-07
3.48853e-07
3.48847e-07
3.48848e-07
3.77937e-07
3.77704e-07
3.48836e-07
3.48858e-07
3.48832e-07
3.48855e-07
3.48849e-07
3.48828e-07
3.48846e-07
3.77947e-07
3.77718e-07
3.48835e-07
3.48834e-07
3.48831e-07
3.77716e-07
3.77942e-07
3.77647e-07
3.48844e-07
3.48841e-07
3.48769e-07
3.48751e-07
3.77936e-07
3.77612e-07
3.4883e-07
3.48852e-07
3.48756e-07
3.48778e-07
3.48843e-07
3.48734e-07
3.48769e-07
3.7795e-07
3.77656e-07
3.48828e-07
3.48758e-07
3.48754e-07
3.77652e-07
3.77862e-07
3.77563e-07
3.48738e-07
3.48725e-07
3.48701e-07
3.48699e-07
3.77829e-07
3.7756e-07
3.48725e-07
3.48747e-07
3.48687e-07
3.48709e-07
3.48738e-07
3.4868e-07
3.487e-07
3.7787e-07
3.77572e-07
3.48723e-07
3.48689e-07
3.48686e-07
3.77569e-07
3.77798e-07
3.7758e-07
3.48702e-07
3.487e-07
3.48701e-07
3.487e-07
3.77795e-07
3.77573e-07
3.48688e-07
3.48711e-07
3.48687e-07
3.48709e-07
3.48702e-07
3.48681e-07
3.487e-07
3.77806e-07
3.77588e-07
3.48687e-07
3.48689e-07
3.48685e-07
3.77586e-07
3.77814e-07
3.77574e-07
3.48703e-07
3.48703e-07
3.48699e-07
3.48701e-07
3.77806e-07
3.77565e-07
3.48689e-07
3.48711e-07
3.48686e-07
3.48708e-07
3.48702e-07
3.4868e-07
3.48699e-07
3.77821e-07
3.77581e-07
3.48687e-07
3.48688e-07
3.48684e-07
3.77578e-07
3.77807e-07
3.77578e-07
3.487e-07
3.48703e-07
3.48698e-07
3.487e-07
3.77799e-07
3.77567e-07
3.48687e-07
3.4871e-07
3.48685e-07
3.48708e-07
3.48701e-07
3.4868e-07
3.48699e-07
3.77814e-07
3.77585e-07
3.48686e-07
3.48688e-07
3.48684e-07
3.77583e-07
3.7781e-07
3.77578e-07
3.487e-07
3.48702e-07
3.48697e-07
3.487e-07
3.77799e-07
3.77571e-07
3.48687e-07
3.4871e-07
3.48685e-07
3.48708e-07
3.48701e-07
3.4868e-07
3.48699e-07
3.77816e-07
3.77587e-07
3.48686e-07
3.48688e-07
3.48684e-07
3.77584e-07
3.77811e-07
3.77577e-07
3.48699e-07
3.48702e-07
3.48697e-07
3.487e-07
3.77803e-07
3.77571e-07
3.48687e-07
3.4871e-07
3.48684e-07
3.48708e-07
3.48701e-07
3.4868e-07
3.48699e-07
3.77818e-07
3.77586e-07
3.48686e-07
3.48688e-07
3.48685e-07
3.77583e-07
3.77811e-07
3.77577e-07
3.48699e-07
3.48702e-07
3.48697e-07
3.487e-07
3.77804e-07
3.77571e-07
3.48686e-07
3.4871e-07
3.48684e-07
3.48708e-07
3.48701e-07
3.4868e-07
3.48699e-07
3.77818e-07
3.77586e-07
3.48689e-07
3.48688e-07
3.48687e-07
3.77583e-07
3.7781e-07
3.77577e-07
3.48699e-07
3.48702e-07
3.48697e-07
3.487e-07
3.77804e-07
3.77571e-07
3.48686e-07
3.4871e-07
3.48684e-07
3.48708e-07
3.48701e-07
3.4868e-07
3.48699e-07
3.77818e-07
3.77587e-07
3.48689e-07
3.48688e-07
3.48687e-07
3.77583e-07
3.7781e-07
3.77577e-07
3.48699e-07
3.48702e-07
3.48697e-07
3.487e-07
3.77804e-07
3.7757e-07
3.48686e-07
3.4871e-07
3.48684e-07
3.48708e-07
3.48701e-07
3.4868e-07
3.48699e-07
3.77819e-07
3.77586e-07
3.48688e-07
3.48688e-07
3.48686e-07
3.77583e-07
3.7781e-07
3.77577e-07
3.48699e-07
3.48702e-07
3.48697e-07
3.487e-07
3.77804e-07
3.77571e-07
3.48686e-07
3.4871e-07
3.48684e-07
3.48708e-07
3.48701e-07
3.4868e-07
3.48699e-07
3.77819e-07
3.77586e-07
3.48688e-07
3.48688e-07
3.48686e-07
3.77583e-07
3.7781e-07
3.77577e-07
3.48699e-07
3.48702e-07
3.48697e-07
3.487e-07
3.77804e-07
3.77571e-07
3.48686e-07
3.4871e-07
3.48684e-07
3.48708e-07
3.48701e-07
3.4868e-07
3.48699e-07
3.77818e-07
3.77586e-07
3.48689e-07
3.48688e-07
3.48686e-07
3.77583e-07
3.7781e-07
3.77577e-07
3.48699e-07
3.48702e-07
3.48697e-07
3.487e-07
3.77804e-07
3.77571e-07
3.48686e-07
3.4871e-07
3.48684e-07
3.48708e-07
3.48701e-07
3.4868e-07
3.48699e-07
3.77818e-07
3.77586e-07
3.48688e-07
3.48688e-07
3.48686e-07
3.77583e-07
3.7781e-07
3.48698e-07
3.48701e-07
3.77804e-07
3.48685e-07
3.48709e-07
3.487e-07
3.77819e-07
3.48688e-07
1.67458e-06
8.62879e-06
1.67498e-06
8.62788e-06
2.4034e-05
2.40315e-05
1.67445e-06
8.62999e-06
1.67477e-06
8.62901e-06
3.27507e-07
3.27507e-07
3.27505e-07
3.27502e-07
3.27506e-07
3.27506e-07
3.27504e-07
5.82098e-07
1.3383e-06
3.34176e-07
3.48826e-07
5.82228e-07
1.33769e-06
3.34176e-07
2.40359e-05
2.40331e-05
5.82091e-07
3.34176e-07
1.33818e-06
3.48831e-07
5.8222e-07
3.34176e-07
1.33763e-06
2.79311e-06
2.79375e-06
3.77693e-07
2.79282e-06
2.79345e-06
1.67468e-06
8.62797e-06
1.67516e-06
8.62746e-06
2.40301e-05
2.4029e-05
1.67456e-06
8.62912e-06
1.67499e-06
8.62858e-06
3.27506e-07
3.27506e-07
3.27504e-07
3.27504e-07
3.27504e-07
3.27504e-07
3.27502e-07
5.82128e-07
1.33841e-06
3.34174e-07
3.48829e-07
5.82253e-07
1.33777e-06
3.34178e-07
2.40313e-05
2.40298e-05
5.82123e-07
3.34174e-07
1.33832e-06
3.48834e-07
5.8225e-07
3.34177e-07
1.33772e-06
2.79342e-06
2.79404e-06
3.777e-07
2.79301e-06
2.79364e-06
1.67468e-06
8.62772e-06
1.67517e-06
8.62728e-06
2.40289e-05
2.40286e-05
1.67454e-06
8.62887e-06
1.67499e-06
8.6284e-06
3.27506e-07
3.27504e-07
3.27505e-07
3.27502e-07
3.27504e-07
3.27502e-07
3.27503e-07
5.82147e-07
1.33844e-06
3.34177e-07
3.48833e-07
5.82277e-07
1.33778e-06
3.34179e-07
2.40296e-05
2.40289e-05
5.82139e-07
3.34176e-07
1.33837e-06
3.48838e-07
5.82271e-07
3.34178e-07
1.33774e-06
2.79357e-06
2.7942e-06
3.7771e-07
2.79314e-06
2.79377e-06
1.67467e-06
8.62764e-06
1.67516e-06
8.62729e-06
2.40294e-05
2.403e-05
1.67451e-06
8.6288e-06
1.67496e-06
8.62843e-06
3.27503e-07
3.27505e-07
3.27502e-07
3.27497e-07
3.27498e-07
3.27499e-07
3.27497e-07
5.82147e-07
1.33845e-06
3.34174e-07
3.48832e-07
5.82285e-07
1.33781e-06
3.34174e-07
2.40298e-05
2.40297e-05
5.82136e-07
3.34175e-07
1.33837e-06
3.48836e-07
5.82277e-07
3.34175e-07
1.33774e-06
2.79365e-06
2.79427e-06
3.77714e-07
2.79314e-06
2.79377e-06
1.67504e-06
8.6284e-06
1.67533e-06
8.629e-06
2.40314e-05
2.40312e-05
1.67489e-06
8.62956e-06
1.67513e-06
8.63004e-06
3.27493e-07
3.27495e-07
3.27494e-07
3.27415e-07
3.27405e-07
3.27416e-07
3.27414e-07
5.82166e-07
1.33868e-06
3.34166e-07
3.48805e-07
5.82299e-07
1.33806e-06
3.34156e-07
2.40318e-05
2.40316e-05
5.82157e-07
3.34168e-07
1.33851e-06
3.48822e-07
5.82289e-07
3.3416e-07
1.33797e-06
2.7938e-06
2.79443e-06
3.77705e-07
2.79345e-06
2.79408e-06
1.6749e-06
8.63014e-06
1.67551e-06
8.62975e-06
2.40312e-05
2.40297e-05
1.67475e-06
8.63128e-06
1.6753e-06
8.63087e-06
3.27374e-07
3.27382e-07
3.2738e-07
3.27337e-07
3.27337e-07
3.2734e-07
3.27339e-07
5.82064e-07
1.33861e-06
3.34054e-07
3.48692e-07
5.82234e-07
1.33787e-06
3.34035e-07
2.40317e-05
2.4031e-05
5.82056e-07
3.34059e-07
1.33855e-06
3.48707e-07
5.82227e-07
3.34039e-07
1.33785e-06
2.79372e-06
2.79434e-06
3.77586e-07
2.79307e-06
2.7937e-06
1.67482e-06
8.62999e-06
1.67533e-06
8.62962e-06
2.40301e-05
2.40303e-05
1.67468e-06
8.63124e-06
1.67513e-06
8.63081e-06
3.27339e-07
3.27341e-07
3.2734e-07
3.27336e-07
3.27337e-07
3.27339e-07
3.27338e-07
5.82043e-07
1.33849e-06
3.34017e-07
3.48682e-07
5.8218e-07
1.33782e-06
3.34019e-07
2.40315e-05
2.40309e-05
5.82036e-07
3.34018e-07
1.33842e-06
3.4869e-07
5.82174e-07
3.34021e-07
1.33778e-06
2.79345e-06
2.79407e-06
3.7758e-07
2.79297e-06
2.7936e-06
1.67482e-06
8.63003e-06
1.67532e-06
8.62969e-06
2.40309e-05
2.40305e-05
1.67467e-06
8.63123e-06
1.67512e-06
8.63081e-06
3.27339e-07
3.27341e-07
3.2734e-07
3.27336e-07
3.27337e-07
3.27339e-07
3.27338e-07
5.82044e-07
1.33849e-06
3.34017e-07
3.48681e-07
5.82181e-07
1.33782e-06
3.34019e-07
2.40315e-05
2.40309e-05
5.82036e-07
3.34019e-07
1.33841e-06
3.4869e-07
5.82173e-07
3.3402e-07
1.33778e-06
2.79344e-06
2.79406e-06
3.77585e-07
2.79297e-06
2.7936e-06
1.67482e-06
8.6301e-06
1.67532e-06
8.62971e-06
2.40306e-05
2.40299e-05
1.67467e-06
8.63119e-06
1.67512e-06
8.63089e-06
3.27339e-07
3.27341e-07
3.27339e-07
3.27336e-07
3.27337e-07
3.27339e-07
3.27338e-07
5.82044e-07
1.33849e-06
3.34016e-07
3.48682e-07
5.8218e-07
1.33782e-06
3.34019e-07
2.40315e-05
2.40309e-05
5.82036e-07
3.34018e-07
1.33841e-06
3.4869e-07
5.82173e-07
3.3402e-07
1.33778e-06
2.79344e-06
2.79406e-06
3.77583e-07
2.79297e-06
2.7936e-06
1.67482e-06
8.62999e-06
1.67532e-06
8.62952e-06
2.40303e-05
2.40299e-05
1.67467e-06
8.63137e-06
1.67512e-06
8.63103e-06
3.27339e-07
3.27341e-07
3.27339e-07
3.27335e-07
3.27337e-07
3.27339e-07
3.27338e-07
5.82044e-07
1.33849e-06
3.34016e-07
3.48682e-07
5.8218e-07
1.33782e-06
3.34019e-07
2.40315e-05
2.40309e-05
5.82036e-07
3.34018e-07
1.33841e-06
3.4869e-07
5.82173e-07
3.3402e-07
1.33778e-06
2.79344e-06
2.79406e-06
3.7758e-07
2.79297e-06
2.7936e-06
1.67482e-06
8.62987e-06
1.67532e-06
8.62942e-06
2.40304e-05
2.403e-05
1.67467e-06
8.63148e-06
1.67512e-06
8.63112e-06
3.27339e-07
3.27341e-07
3.27339e-07
3.27335e-07
3.27337e-07
3.27339e-07
3.27338e-07
5.82044e-07
1.33849e-06
3.34016e-07
3.48682e-07
5.82181e-07
1.33782e-06
3.34019e-07
2.40315e-05
2.40309e-05
5.82036e-07
3.34018e-07
1.33841e-06
3.48689e-07
5.82173e-07
3.3402e-07
1.33778e-06
2.79344e-06
2.79406e-06
3.77581e-07
2.79297e-06
2.7936e-06
1.67482e-06
8.6298e-06
1.67532e-06
8.62937e-06
2.40304e-05
2.40301e-05
1.67467e-06
8.63154e-06
1.67512e-06
8.63115e-06
3.27339e-07
3.27341e-07
3.2734e-07
3.27335e-07
3.27337e-07
3.27339e-07
3.27338e-07
5.82044e-07
1.33849e-06
3.34016e-07
3.48682e-07
5.8218e-07
1.33782e-06
3.34019e-07
2.40315e-05
2.40309e-05
5.82036e-07
3.34018e-07
1.33841e-06
3.48689e-07
5.82173e-07
3.3402e-07
1.33778e-06
2.79344e-06
2.79406e-06
3.77582e-07
2.79297e-06
2.7936e-06
1.67482e-06
8.62976e-06
1.67532e-06
8.62934e-06
2.40305e-05
2.40301e-05
1.67467e-06
8.63156e-06
1.67512e-06
8.63117e-06
3.27339e-07
3.27341e-07
3.2734e-07
3.27335e-07
3.27337e-07
3.27339e-07
3.27338e-07
5.82044e-07
1.33849e-06
3.34017e-07
3.48682e-07
5.82181e-07
1.33782e-06
3.34019e-07
2.40315e-05
2.40309e-05
5.82036e-07
3.34018e-07
1.33841e-06
3.4869e-07
5.82173e-07
3.3402e-07
1.33778e-06
2.79344e-06
2.79406e-06
3.77582e-07
2.79297e-06
2.7936e-06
1.67482e-06
8.62974e-06
1.67532e-06
8.62932e-06
2.40305e-05
2.40301e-05
1.67467e-06
8.63157e-06
1.67512e-06
8.63118e-06
3.27339e-07
3.27341e-07
3.2734e-07
3.27335e-07
3.27337e-07
3.27339e-07
3.27338e-07
5.82044e-07
1.33849e-06
3.34017e-07
3.48682e-07
5.82181e-07
1.33782e-06
3.34019e-07
2.40315e-05
2.40309e-05
5.82037e-07
3.34018e-07
1.33841e-06
3.4869e-07
5.82174e-07
3.3402e-07
1.33778e-06
2.79344e-06
2.79406e-06
3.77582e-07
2.79297e-06
2.7936e-06
1.67482e-06
8.62973e-06
1.67532e-06
8.62932e-06
2.40305e-05
2.40301e-05
1.67467e-06
8.63157e-06
1.67512e-06
8.63118e-06
3.27339e-07
3.27341e-07
3.2734e-07
3.27335e-07
3.27337e-07
3.27339e-07
3.27338e-07
5.82044e-07
1.33849e-06
3.34017e-07
3.48682e-07
5.8218e-07
1.33782e-06
3.34019e-07
2.40315e-05
2.40309e-05
5.82037e-07
3.34018e-07
1.33841e-06
3.48689e-07
5.82174e-07
3.3402e-07
1.33778e-06
2.79344e-06
2.79406e-06
3.77582e-07
2.79297e-06
2.7936e-06
1.67482e-06
8.62973e-06
1.67532e-06
8.62932e-06
2.40305e-05
2.40301e-05
1.67467e-06
8.63157e-06
1.67512e-06
8.63118e-06
3.27339e-07
3.27341e-07
3.2734e-07
3.27335e-07
3.27337e-07
3.27339e-07
3.27338e-07
5.82044e-07
1.33849e-06
3.34016e-07
3.48682e-07
5.8218e-07
1.33782e-06
3.34019e-07
2.40315e-05
2.40309e-05
5.82038e-07
3.34018e-07
1.33841e-06
3.48689e-07
5.82175e-07
3.3402e-07
1.33778e-06
2.79344e-06
2.79406e-06
3.77582e-07
2.79297e-06
2.7936e-06
1.67482e-06
8.62973e-06
1.67532e-06
8.62932e-06
2.40305e-05
2.40301e-05
1.67467e-06
8.63157e-06
1.67512e-06
8.63118e-06
3.27339e-07
3.27341e-07
3.2734e-07
3.27335e-07
3.27337e-07
3.27339e-07
3.27338e-07
5.82044e-07
1.33849e-06
3.34016e-07
3.48682e-07
5.8218e-07
1.33782e-06
3.34019e-07
2.40315e-05
2.40309e-05
5.82038e-07
3.34018e-07
1.33841e-06
3.48689e-07
5.82175e-07
3.3402e-07
1.33778e-06
2.79344e-06
2.79406e-06
3.77582e-07
2.79297e-06
2.7936e-06
1.67481e-06
8.62973e-06
1.67532e-06
8.62948e-06
2.40305e-05
2.40301e-05
1.67467e-06
8.63157e-06
1.67512e-06
8.63136e-06
3.27338e-07
3.2734e-07
3.27339e-07
5.82044e-07
1.33849e-06
3.34016e-07
3.48681e-07
5.8218e-07
1.33782e-06
3.34019e-07
2.40315e-05
2.4031e-05
5.82039e-07
3.34018e-07
1.33841e-06
3.4869e-07
5.82175e-07
3.34021e-07
1.33778e-06
2.79344e-06
2.79406e-06
3.77582e-07
2.79297e-06
2.79377e-06
8.62868e-06
1.33766e-06
2.40343e-05
2.79306e-06
2.79237e-06
2.40315e-05
1.33762e-06
8.62818e-06
2.40341e-05
2.40314e-05
2.40363e-05
2.40337e-05
2.79298e-06
2.79373e-06
3.77686e-07
2.79271e-06
2.79341e-06
2.40293e-05
2.40313e-05
2.40315e-05
2.40336e-05
3.77919e-07
2.79282e-06
2.79348e-06
2.79319e-06
2.79386e-06
1.67459e-06
8.62895e-06
1.67499e-06
8.62842e-06
5.82097e-07
1.33812e-06
3.34175e-07
3.4884e-07
5.82228e-07
1.33755e-06
3.34175e-07
5.82097e-07
1.33832e-06
3.34177e-07
3.48844e-07
5.82229e-07
1.33774e-06
3.34177e-07
1.67508e-06
8.62763e-06
8.62812e-06
1.67465e-06
1.67509e-06
8.62819e-06
8.62867e-06
1.67466e-06
5.8224e-07
3.48839e-07
1.33761e-06
3.34174e-07
1.3382e-06
3.34174e-07
5.82111e-07
5.8224e-07
3.48843e-07
1.33779e-06
3.34176e-07
1.33838e-06
3.34176e-07
5.82112e-07
2.79362e-06
2.793e-06
3.77687e-07
2.79336e-06
2.7927e-06
2.40316e-05
2.40289e-05
2.403e-05
2.40316e-05
3.77921e-07
2.7935e-06
2.7929e-06
2.79385e-06
2.79329e-06
2.40273e-05
2.40291e-05
5.821e-07
1.33848e-06
3.34175e-07
3.48828e-07
5.82228e-07
1.33789e-06
3.34175e-07
1.67444e-06
8.63005e-06
1.67477e-06
8.62907e-06
5.82101e-07
3.34178e-07
1.33852e-06
3.48851e-07
5.8223e-07
3.34178e-07
1.33792e-06
1.6749e-06
8.62876e-06
8.62928e-06
1.67454e-06
5.82241e-07
3.48827e-07
1.33794e-06
3.34174e-07
1.33856e-06
3.34174e-07
5.82118e-07
1.6749e-06
8.62883e-06
8.62934e-06
1.67453e-06
5.82243e-07
3.4885e-07
3.34177e-07
1.33798e-06
3.34177e-07
1.3386e-06
5.82118e-07
1.67461e-06
8.62848e-06
1.67501e-06
8.62793e-06
5.82102e-07
3.34175e-07
1.33819e-06
3.48842e-07
5.82231e-07
3.34175e-07
1.33763e-06
1.6746e-06
8.62984e-06
1.67501e-06
8.62892e-06
5.8224e-07
3.48826e-07
1.33774e-06
3.34174e-07
1.33836e-06
3.34174e-07
5.82113e-07
1.67511e-06
8.62771e-06
8.62821e-06
1.67468e-06
5.82243e-07
3.48841e-07
3.34174e-07
1.33769e-06
3.34174e-07
1.33827e-06
5.82118e-07
1.67511e-06
8.62866e-06
8.62915e-06
1.67468e-06
2.79384e-06
2.7931e-06
3.77694e-07
2.79343e-06
2.79281e-06
2.40355e-05
2.40329e-05
2.40311e-05
2.40333e-05
3.77928e-07
2.79369e-06
2.79291e-06
2.79404e-06
2.79328e-06
2.40307e-05
2.40328e-05
5.82088e-07
3.34175e-07
1.33833e-06
3.48827e-07
5.82218e-07
3.34175e-07
1.33776e-06
1.67443e-06
8.62999e-06
1.67476e-06
8.62907e-06
1.67444e-06
8.63043e-06
1.67477e-06
8.62951e-06
5.82234e-07
3.4883e-07
3.34174e-07
1.33769e-06
3.34174e-07
1.33827e-06
5.82109e-07
5.82231e-07
3.48826e-07
3.34174e-07
1.33782e-06
3.34174e-07
1.33841e-06
5.82106e-07
1.67489e-06
8.62881e-06
8.6293e-06
1.67453e-06
1.67489e-06
8.62926e-06
8.62975e-06
1.67453e-06
2.40357e-05
2.4033e-05
2.40366e-05
2.40339e-05
3.77927e-07
2.79293e-06
2.79356e-06
2.7933e-06
2.79392e-06
2.40309e-05
2.40329e-05
2.40318e-05
2.40338e-05
2.40295e-05
2.40282e-05
2.40317e-05
2.40304e-05
2.79328e-06
2.79392e-06
3.77694e-07
2.79291e-06
2.79355e-06
2.40275e-05
2.40285e-05
2.40297e-05
2.40307e-05
3.77928e-07
2.79298e-06
2.79362e-06
2.79336e-06
2.79399e-06
1.67469e-06
8.62846e-06
1.67515e-06
8.62804e-06
5.82127e-07
1.33825e-06
3.34177e-07
3.48843e-07
5.82255e-07
1.33764e-06
3.34177e-07
5.82128e-07
1.33842e-06
3.34179e-07
3.48847e-07
5.82255e-07
1.33781e-06
3.34179e-07
1.67516e-06
8.62735e-06
8.62773e-06
1.67468e-06
1.67517e-06
8.62795e-06
8.62832e-06
1.67469e-06
5.8227e-07
3.48842e-07
1.33765e-06
3.34176e-07
1.33827e-06
3.34176e-07
5.8214e-07
5.8227e-07
3.48847e-07
1.33783e-06
3.34178e-07
1.33845e-06
3.34178e-07
5.82139e-07
2.79397e-06
2.79347e-06
3.77693e-07
2.7936e-06
2.79303e-06
2.40277e-05
2.40263e-05
2.40286e-05
2.40294e-05
3.77927e-07
2.79368e-06
2.79311e-06
2.79406e-06
2.79358e-06
2.40258e-05
2.40269e-05
5.82134e-07
1.33861e-06
3.34178e-07
3.48831e-07
5.82259e-07
1.33798e-06
3.34178e-07
1.67456e-06
8.62912e-06
1.67497e-06
8.62865e-06
5.82133e-07
3.34181e-07
1.33865e-06
3.48854e-07
5.82261e-07
3.34181e-07
1.33801e-06
1.67499e-06
8.62846e-06
8.62888e-06
1.67455e-06
5.82274e-07
3.4883e-07
1.33799e-06
3.34176e-07
1.33864e-06
3.34176e-07
5.82144e-07
1.67498e-06
8.62854e-06
8.62895e-06
1.67455e-06
5.82274e-07
3.48853e-07
3.3418e-07
1.33803e-06
3.3418e-07
1.33868e-06
5.82144e-07
1.67471e-06
8.628e-06
1.67517e-06
8.62754e-06
5.82134e-07
3.34178e-07
1.33832e-06
3.48845e-07
5.82259e-07
3.34178e-07
1.33772e-06
1.67471e-06
8.62892e-06
1.67517e-06
8.62847e-06
5.82269e-07
3.48829e-07
1.33778e-06
3.34177e-07
1.33842e-06
3.34177e-07
5.82139e-07
1.67519e-06
8.62744e-06
8.62785e-06
1.67471e-06
5.82275e-07
3.48844e-07
3.34177e-07
1.33774e-06
3.34177e-07
1.33835e-06
5.82146e-07
1.67519e-06
8.62835e-06
8.62875e-06
1.67471e-06
2.79423e-06
2.79336e-06
3.77703e-07
2.7938e-06
2.79299e-06
2.4031e-05
2.40296e-05
2.40292e-05
2.40303e-05
3.77936e-07
2.79388e-06
2.79306e-06
2.79434e-06
2.79344e-06
2.40289e-05
2.403e-05
5.82121e-07
3.34177e-07
1.33846e-06
3.4883e-07
5.82249e-07
3.34177e-07
1.33785e-06
1.67455e-06
8.62907e-06
1.67497e-06
8.62862e-06
1.67455e-06
8.62951e-06
1.67497e-06
8.62907e-06
5.82264e-07
3.48834e-07
3.34176e-07
1.33774e-06
3.34177e-07
1.33834e-06
5.82132e-07
5.82263e-07
3.48829e-07
3.34176e-07
1.33787e-06
3.34176e-07
1.33848e-06
5.82131e-07
1.67498e-06
8.62851e-06
8.6289e-06
1.67454e-06
1.67498e-06
8.62894e-06
8.62934e-06
1.67454e-06
2.40312e-05
2.40298e-05
2.4032e-05
2.40306e-05
3.77934e-07
2.79309e-06
2.79372e-06
2.79347e-06
2.79409e-06
2.40291e-05
2.40301e-05
2.403e-05
2.4031e-05
2.4028e-05
2.40272e-05
2.40301e-05
2.40295e-05
2.79343e-06
2.79406e-06
3.77703e-07
2.79304e-06
2.79368e-06
2.40274e-05
2.40278e-05
2.40297e-05
2.403e-05
3.77937e-07
2.79307e-06
2.79371e-06
2.79347e-06
2.7941e-06
1.67469e-06
8.62824e-06
1.67516e-06
8.6279e-06
5.82149e-07
1.33829e-06
3.34179e-07
3.48847e-07
5.82281e-07
1.33766e-06
3.34179e-07
5.82148e-07
1.33846e-06
3.3418e-07
3.48851e-07
5.82281e-07
1.33782e-06
3.3418e-07
1.67516e-06
8.62726e-06
8.62758e-06
1.67467e-06
1.67516e-06
8.62791e-06
8.62821e-06
1.67468e-06
5.8229e-07
3.48846e-07
1.33766e-06
3.34175e-07
1.33829e-06
3.34178e-07
5.82152e-07
5.82289e-07
3.4885e-07
1.33783e-06
3.34175e-07
1.33846e-06
3.34178e-07
5.82153e-07
2.79413e-06
2.79365e-06
3.77701e-07
2.79371e-06
2.79315e-06
2.40265e-05
2.40258e-05
2.40288e-05
2.40292e-05
3.77935e-07
2.79376e-06
2.79316e-06
2.79419e-06
2.79367e-06
2.40261e-05
2.40266e-05
5.82152e-07
1.33865e-06
3.3418e-07
3.48835e-07
5.82283e-07
1.338e-06
3.3418e-07
1.67454e-06
8.62886e-06
1.67497e-06
8.62847e-06
5.82152e-07
3.34183e-07
1.33869e-06
3.48857e-07
5.82284e-07
3.34182e-07
1.33804e-06
1.67496e-06
8.62838e-06
8.62873e-06
1.67452e-06
5.82291e-07
3.48834e-07
1.338e-06
3.34178e-07
1.33866e-06
3.34178e-07
5.82154e-07
1.67496e-06
8.62844e-06
8.62879e-06
1.67452e-06
5.82291e-07
3.48856e-07
3.34178e-07
1.33804e-06
3.34181e-07
1.3387e-06
5.82155e-07
1.67471e-06
8.62776e-06
1.67518e-06
8.62739e-06
5.82154e-07
3.3418e-07
1.33836e-06
3.48848e-07
5.82285e-07
3.3418e-07
1.33774e-06
1.6747e-06
8.62864e-06
1.67518e-06
8.62827e-06
5.82286e-07
3.48832e-07
1.33779e-06
3.34176e-07
1.33844e-06
3.34178e-07
5.8215e-07
1.67518e-06
8.62739e-06
8.62773e-06
1.6747e-06
5.82293e-07
3.48847e-07
3.34175e-07
1.33775e-06
3.34178e-07
1.33837e-06
5.82157e-07
1.67518e-06
8.62824e-06
8.62857e-06
1.67469e-06
2.79442e-06
2.79351e-06
3.77711e-07
2.79394e-06
2.79312e-06
2.40294e-05
2.40287e-05
2.40291e-05
2.40297e-05
3.77944e-07
2.79398e-06
2.79315e-06
2.79446e-06
2.79355e-06
2.40289e-05
2.40293e-05
5.82139e-07
3.34178e-07
1.3385e-06
3.48833e-07
5.82272e-07
3.34178e-07
1.33787e-06
1.67453e-06
8.6288e-06
1.67496e-06
8.62843e-06
1.67453e-06
8.62923e-06
1.67496e-06
8.62887e-06
5.82279e-07
3.48837e-07
3.34177e-07
1.33774e-06
3.34177e-07
1.33836e-06
5.82141e-07
5.82279e-07
3.48832e-07
3.34175e-07
1.33788e-06
3.34177e-07
1.3385e-06
5.82141e-07
1.67495e-06
8.6284e-06
8.62872e-06
1.67451e-06
1.67495e-06
8.62884e-06
8.62916e-06
1.67452e-06
2.40296e-05
2.40288e-05
2.40304e-05
2.40297e-05
3.77943e-07
2.79318e-06
2.79381e-06
2.79358e-06
2.7942e-06
2.40291e-05
2.40295e-05
2.40299e-05
2.40303e-05
2.40281e-05
2.4028e-05
2.40302e-05
2.40302e-05
2.79351e-06
2.79414e-06
3.77707e-07
2.79304e-06
2.79367e-06
2.40293e-05
2.40289e-05
2.40315e-05
2.4031e-05
3.77941e-07
2.79314e-06
2.79378e-06
2.79346e-06
2.79409e-06
1.67469e-06
8.62823e-06
1.67516e-06
8.62811e-06
5.82149e-07
1.33829e-06
3.34175e-07
3.4885e-07
5.82291e-07
1.33766e-06
3.34173e-07
5.82152e-07
1.33845e-06
3.34175e-07
3.48853e-07
5.82293e-07
1.33785e-06
3.34174e-07
1.67513e-06
8.62778e-06
8.62766e-06
1.67474e-06
1.67515e-06
8.62894e-06
8.62857e-06
1.67474e-06
5.82287e-07
3.48848e-07
1.33775e-06
3.3417e-07
1.3383e-06
3.34171e-07
5.82157e-07
5.82291e-07
3.48851e-07
1.33799e-06
3.34171e-07
1.33851e-06
3.34172e-07
5.82159e-07
2.79417e-06
2.79366e-06
3.77705e-07
2.79372e-06
2.79313e-06
2.4027e-05
2.40271e-05
2.4031e-05
2.40308e-05
3.77939e-07
2.79389e-06
2.79337e-06
2.79418e-06
2.7937e-06
2.40281e-05
2.40281e-05
5.82147e-07
1.33866e-06
3.34176e-07
3.48836e-07
5.8229e-07
1.33801e-06
3.34175e-07
1.67452e-06
8.62878e-06
1.67495e-06
8.62849e-06
5.82149e-07
3.34177e-07
1.3387e-06
3.48858e-07
5.82292e-07
3.34176e-07
1.33805e-06
1.67493e-06
8.62892e-06
8.62884e-06
1.67459e-06
5.82283e-07
3.48833e-07
1.33809e-06
3.34171e-07
1.33867e-06
3.34172e-07
5.82156e-07
1.67493e-06
8.62896e-06
8.62889e-06
1.67458e-06
5.82286e-07
3.48856e-07
3.34173e-07
1.33814e-06
3.34173e-07
1.33872e-06
5.82157e-07
1.67469e-06
8.62775e-06
1.67518e-06
8.62768e-06
5.82151e-07
3.34174e-07
1.33837e-06
3.48849e-07
5.82293e-07
3.34173e-07
1.33775e-06
1.67469e-06
8.62855e-06
1.67517e-06
8.62827e-06
5.82284e-07
3.4883e-07
1.33796e-06
3.3417e-07
1.33849e-06
3.34171e-07
5.82156e-07
1.67516e-06
8.62849e-06
8.62818e-06
1.67475e-06
5.82287e-07
3.48847e-07
3.3417e-07
1.33783e-06
3.3417e-07
1.33838e-06
5.82159e-07
1.67515e-06
8.62873e-06
8.62864e-06
1.67475e-06
2.79449e-06
2.79359e-06
3.77716e-07
2.79394e-06
2.79312e-06
2.40295e-05
2.40294e-05
2.4031e-05
2.40307e-05
3.77948e-07
2.79405e-06
2.79322e-06
2.79445e-06
2.79354e-06
2.40307e-05
2.40303e-05
5.82134e-07
3.34174e-07
1.33851e-06
3.48834e-07
5.82278e-07
3.34172e-07
1.33788e-06
1.67451e-06
8.6287e-06
1.67494e-06
8.62843e-06
1.67451e-06
8.62915e-06
1.67494e-06
8.62888e-06
5.82274e-07
3.48836e-07
3.34171e-07
1.33783e-06
3.34172e-07
1.33837e-06
5.82145e-07
5.82272e-07
3.48832e-07
3.34169e-07
1.33796e-06
3.3417e-07
1.33851e-06
5.82143e-07
1.67492e-06
8.62889e-06
8.6288e-06
1.67457e-06
1.67492e-06
8.62934e-06
8.62925e-06
1.67457e-06
2.40297e-05
2.40296e-05
2.40305e-05
2.40304e-05
3.77947e-07
2.79325e-06
2.79388e-06
2.79357e-06
2.79419e-06
2.40309e-05
2.40305e-05
2.40318e-05
2.40313e-05
2.40301e-05
2.40298e-05
2.40322e-05
2.40321e-05
2.79365e-06
2.79429e-06
3.77699e-07
2.79335e-06
2.79399e-06
2.40296e-05
2.40303e-05
2.40318e-05
2.40325e-05
3.77925e-07
2.79319e-06
2.79385e-06
2.79379e-06
2.79443e-06
1.67503e-06
8.62959e-06
1.67531e-06
8.63022e-06
5.82165e-07
1.33843e-06
3.34167e-07
3.48834e-07
5.82303e-07
1.3379e-06
3.34158e-07
5.82163e-07
1.33867e-06
3.34167e-07
3.4882e-07
5.82304e-07
1.33807e-06
3.34156e-07
1.67558e-06
8.62973e-06
8.62964e-06
1.67504e-06
1.67558e-06
8.63048e-06
8.63064e-06
1.67504e-06
5.82297e-07
3.48806e-07
1.33787e-06
3.34092e-07
1.33855e-06
3.34131e-07
5.82111e-07
5.82294e-07
3.48784e-07
1.33798e-06
3.34087e-07
1.33869e-06
3.34126e-07
5.82107e-07
2.79438e-06
2.79397e-06
3.77682e-07
2.79393e-06
2.79348e-06
2.40289e-05
2.40284e-05
2.4031e-05
2.40316e-05
3.77902e-07
2.79366e-06
2.79323e-06
2.79433e-06
2.79398e-06
2.40281e-05
2.4029e-05
5.82167e-07
1.3388e-06
3.34168e-07
3.4882e-07
5.823e-07
1.33824e-06
3.3416e-07
1.67488e-06
8.62951e-06
1.6751e-06
8.63011e-06
5.82167e-07
3.3417e-07
1.33885e-06
3.48843e-07
5.82301e-07
3.34161e-07
1.33828e-06
1.67538e-06
8.63083e-06
8.63074e-06
1.67489e-06
5.82297e-07
3.48793e-07
1.33821e-06
3.34094e-07
1.33891e-06
3.34132e-07
5.82112e-07
1.67538e-06
8.63096e-06
8.63084e-06
1.6749e-06
5.82298e-07
3.48815e-07
3.34096e-07
1.33826e-06
3.34135e-07
1.33896e-06
5.82114e-07
1.67505e-06
8.62917e-06
1.67532e-06
8.62975e-06
5.8217e-07
3.34167e-07
1.3385e-06
3.48833e-07
5.82303e-07
3.34158e-07
1.33797e-06
1.67505e-06
8.62925e-06
1.67532e-06
8.62994e-06
5.82297e-07
3.48767e-07
1.33797e-06
3.34088e-07
1.33871e-06
3.34125e-07
5.82113e-07
1.6756e-06
8.63007e-06
8.63024e-06
1.67507e-06
5.823e-07
3.48806e-07
3.34092e-07
1.33795e-06
3.34131e-07
1.33862e-06
5.82117e-07
1.6756e-06
8.63075e-06
8.63065e-06
1.67507e-06
2.79465e-06
2.79374e-06
3.77708e-07
2.79425e-06
2.79342e-06
2.40315e-05
2.40312e-05
2.40313e-05
2.40322e-05
3.77933e-07
2.79412e-06
2.79329e-06
2.79478e-06
2.79387e-06
2.4031e-05
2.40317e-05
5.82154e-07
3.34167e-07
1.33864e-06
3.48818e-07
5.82288e-07
3.34158e-07
1.33811e-06
1.67487e-06
8.62941e-06
1.67508e-06
8.6301e-06
1.67487e-06
8.62985e-06
1.67509e-06
8.63054e-06
5.82289e-07
3.48794e-07
3.34094e-07
1.33795e-06
3.34131e-07
1.33861e-06
5.82104e-07
5.82286e-07
3.48791e-07
3.34092e-07
1.33808e-06
3.34131e-07
1.33876e-06
5.821e-07
1.67537e-06
8.6309e-06
8.63081e-06
1.67489e-06
1.67537e-06
8.63135e-06
8.63125e-06
1.67489e-06
2.40317e-05
2.40314e-05
2.40325e-05
2.40323e-05
3.7793e-07
2.79331e-06
2.79394e-06
2.7939e-06
2.79453e-06
2.40312e-05
2.40319e-05
2.4032e-05
2.40328e-05
2.403e-05
2.40293e-05
2.40322e-05
2.40316e-05
2.79355e-06
2.79421e-06
3.77581e-07
2.79294e-06
2.79362e-06
2.40293e-05
2.40298e-05
2.40315e-05
2.4032e-05
3.77805e-07
2.79284e-06
2.79353e-06
2.79333e-06
2.79401e-06
1.67491e-06
8.63077e-06
1.67549e-06
8.63026e-06
5.82062e-07
1.33847e-06
3.34059e-07
3.48719e-07
5.82235e-07
1.33776e-06
3.34038e-07
5.82062e-07
1.33858e-06
3.34056e-07
3.48711e-07
5.82232e-07
1.33792e-06
3.34036e-07
1.67536e-06
8.62964e-06
8.63004e-06
1.67484e-06
1.67537e-06
8.63013e-06
8.63056e-06
1.67484e-06
5.82195e-07
3.48705e-07
1.33771e-06
3.34019e-07
1.33838e-06
3.34023e-07
5.82045e-07
5.82195e-07
3.48701e-07
1.33795e-06
3.34019e-07
1.3386e-06
3.34022e-07
5.82046e-07
2.79403e-06
2.79368e-06
3.77562e-07
2.79358e-06
2.79302e-06
2.40287e-05
2.40279e-05
2.40294e-05
2.40304e-05
3.77791e-07
2.79367e-06
2.79297e-06
2.79411e-06
2.79352e-06
2.40278e-05
2.40285e-05
5.82065e-07
1.33884e-06
3.3406e-07
3.48705e-07
5.82235e-07
1.33811e-06
3.3404e-07
1.67476e-06
8.63133e-06
1.6753e-06
8.63098e-06
5.82067e-07
3.34063e-07
1.33889e-06
3.48728e-07
5.82237e-07
3.34042e-07
1.33815e-06
1.67516e-06
8.63083e-06
8.6312e-06
1.67469e-06
5.82195e-07
3.48691e-07
1.33806e-06
3.3402e-07
1.33875e-06
3.34024e-07
5.82048e-07
1.67517e-06
8.63092e-06
8.63129e-06
1.6747e-06
5.82199e-07
3.48714e-07
3.34022e-07
1.3381e-06
3.34026e-07
1.33879e-06
5.8205e-07
1.67493e-06
8.6304e-06
1.67552e-06
8.63001e-06
5.82068e-07
3.34059e-07
1.33855e-06
3.48718e-07
5.82239e-07
3.34038e-07
1.33785e-06
1.67493e-06
8.63109e-06
1.67552e-06
8.63077e-06
5.82195e-07
3.48683e-07
1.33783e-06
3.34017e-07
1.33851e-06
3.34022e-07
5.82046e-07
1.67539e-06
8.62996e-06
8.63033e-06
1.67486e-06
5.82199e-07
3.48704e-07
3.34019e-07
1.3378e-06
3.34023e-07
1.33846e-06
5.8205e-07
1.67539e-06
8.63072e-06
8.63106e-06
1.67486e-06
2.79457e-06
2.79366e-06
3.7759e-07
2.79386e-06
2.79305e-06
2.40315e-05
2.40307e-05
2.40309e-05
2.40317e-05
3.77812e-07
2.79376e-06
2.79297e-06
2.79434e-06
2.79346e-06
2.40307e-05
2.40313e-05
5.82053e-07
3.34059e-07
1.33869e-06
3.48704e-07
5.82225e-07
3.34038e-07
1.33798e-06
1.67475e-06
8.63124e-06
1.67529e-06
8.63092e-06
1.67475e-06
8.63168e-06
1.67529e-06
8.63136e-06
5.82188e-07
3.48694e-07
3.34019e-07
1.3378e-06
3.34025e-07
1.33845e-06
5.82039e-07
5.82185e-07
3.4869e-07
3.34019e-07
1.33793e-06
3.34023e-07
1.33859e-06
5.82036e-07
1.67516e-06
8.63087e-06
8.63121e-06
1.67469e-06
1.67516e-06
8.63131e-06
8.63165e-06
1.67469e-06
2.40316e-05
2.40309e-05
2.40325e-05
2.40318e-05
3.7781e-07
2.79299e-06
2.79362e-06
2.79348e-06
2.7941e-06
2.40308e-05
2.40315e-05
2.40317e-05
2.40323e-05
2.40298e-05
2.40297e-05
2.40319e-05
2.40314e-05
2.79328e-06
2.79395e-06
3.77574e-07
2.79286e-06
2.79351e-06
2.40297e-05
2.40302e-05
2.40315e-05
2.40319e-05
3.77809e-07
2.79287e-06
2.79351e-06
2.79332e-06
2.79394e-06