/*--------------------------------*- C++ -*----------------------------------*\
| =========                 |                                                 |
| \\      /  F ield         | OpenFOAM: The Open Source CFD Toolbox           |
|  \\    /   O peration     | Version:  2206                                  |
|   \\  /    A nd           | Website:  www.openfoam.com                      |
|    \\/     M anipulation  |                                                 |
\*---------------------------------------------------------------------------*/
FoamFile
{
    version     2.0;
    format      ascii;
    arch        "LSB;label=32;scalar=64";
    class       volScalarField;
    location    "21";
    object      k;
}
// * * * * * * * * * * * * * * * * * * * * * * * * * * * * * * * * * * * * * //

dimensions      [0 2 -2 0 0 0 0];

internalField   nonuniform List<scalar> 
28687
(
2.86506e-05
2.83309e-05
2.83309e-05
2.79308e-05
2.86505e-05
2.83311e-05
2.83308e-05
2.79323e-05
2.86504e-05
2.8331e-05
2.83307e-05
2.79323e-05
2.86504e-05
2.8331e-05
2.83307e-05
2.79326e-05
2.86498e-05
2.83298e-05
2.833e-05
2.79314e-05
2.86433e-05
2.83223e-05
2.83227e-05
2.79236e-05
2.8642e-05
2.83215e-05
2.83215e-05
2.79222e-05
2.8642e-05
2.83216e-05
2.83215e-05
2.79222e-05
2.8642e-05
2.83216e-05
2.83215e-05
2.79223e-05
2.8642e-05
2.83216e-05
2.83215e-05
2.79223e-05
2.8642e-05
2.83216e-05
2.83215e-05
2.79223e-05
2.8642e-05
2.83216e-05
2.83215e-05
2.79223e-05
2.8642e-05
2.83216e-05
2.83215e-05
2.79222e-05
2.8642e-05
2.83216e-05
2.83215e-05
2.79222e-05
2.8642e-05
2.83216e-05
2.83215e-05
2.79222e-05
2.8642e-05
2.83216e-05
2.83215e-05
2.79222e-05
2.8642e-05
2.83216e-05
2.83215e-05
2.79222e-05
2.8642e-05
2.83216e-05
2.83215e-05
2.79222e-05
2.83307e-05
2.79351e-05
2.83309e-05
2.79308e-05
2.79351e-05
2.83307e-05
2.83307e-05
2.83307e-05
2.83307e-05
2.79326e-05
2.79351e-05
2.83309e-05
2.83305e-05
2.83309e-05
2.83304e-05
2.83308e-05
2.83311e-05
2.83307e-05
2.79305e-05
2.79348e-05
2.8331e-05
2.83308e-05
2.83309e-05
2.79351e-05
2.79326e-05
2.79352e-05
2.83308e-05
2.83308e-05
2.83306e-05
2.83308e-05
2.79326e-05
2.79353e-05
2.8331e-05
2.83306e-05
2.83308e-05
2.83304e-05
2.83308e-05
2.8331e-05
2.83306e-05
2.79323e-05
2.79349e-05
2.83309e-05
2.83307e-05
2.83308e-05
2.79351e-05
2.79327e-05
2.79354e-05
2.83307e-05
2.8331e-05
2.83307e-05
2.8331e-05
2.79328e-05
2.79355e-05
2.83309e-05
2.83305e-05
2.83308e-05
2.83305e-05
2.83307e-05
2.83311e-05
2.83307e-05
2.79324e-05
2.79351e-05
2.8331e-05
2.83308e-05
2.83309e-05
2.79354e-05
2.79329e-05
2.79348e-05
2.83308e-05
2.8331e-05
2.83303e-05
2.83303e-05
2.7933e-05
2.79343e-05
2.83308e-05
2.83304e-05
2.83305e-05
2.83301e-05
2.83308e-05
2.83305e-05
2.83304e-05
2.79326e-05
2.79346e-05
2.83311e-05
2.83304e-05
2.83306e-05
2.79348e-05
2.79318e-05
2.79278e-05
2.83299e-05
2.83294e-05
2.83241e-05
2.83231e-05
2.79309e-05
2.79263e-05
2.83301e-05
2.83297e-05
2.83243e-05
2.8324e-05
2.83299e-05
2.83235e-05
2.83241e-05
2.79316e-05
2.79275e-05
2.83301e-05
2.83243e-05
2.83243e-05
2.79277e-05
2.7924e-05
2.79249e-05
2.83226e-05
2.83221e-05
2.83213e-05
2.83213e-05
2.79231e-05
2.79249e-05
2.83228e-05
2.83224e-05
2.83215e-05
2.83211e-05
2.83226e-05
2.83215e-05
2.83213e-05
2.79237e-05
2.79247e-05
2.83228e-05
2.83215e-05
2.83215e-05
2.7925e-05
2.79224e-05
2.7925e-05
2.83214e-05
2.83214e-05
2.83213e-05
2.83214e-05
2.79224e-05
2.79249e-05
2.83216e-05
2.83212e-05
2.83215e-05
2.83212e-05
2.83215e-05
2.83216e-05
2.83214e-05
2.79222e-05
2.79248e-05
2.83217e-05
2.83215e-05
2.83216e-05
2.7925e-05
2.79224e-05
2.79251e-05
2.83215e-05
2.83215e-05
2.83214e-05
2.83213e-05
2.79224e-05
2.7925e-05
2.83217e-05
2.83213e-05
2.83216e-05
2.83212e-05
2.83215e-05
2.83216e-05
2.83214e-05
2.79222e-05
2.79248e-05
2.83217e-05
2.83215e-05
2.83216e-05
2.79251e-05
2.79225e-05
2.7925e-05
2.83215e-05
2.83214e-05
2.83214e-05
2.83213e-05
2.79225e-05
2.7925e-05
2.83217e-05
2.83213e-05
2.83216e-05
2.83212e-05
2.83215e-05
2.83216e-05
2.83214e-05
2.79223e-05
2.79248e-05
2.83217e-05
2.83215e-05
2.83216e-05
2.79251e-05
2.79225e-05
2.7925e-05
2.83215e-05
2.83214e-05
2.83214e-05
2.83213e-05
2.79225e-05
2.7925e-05
2.83217e-05
2.83213e-05
2.83216e-05
2.83212e-05
2.83215e-05
2.83216e-05
2.83214e-05
2.79223e-05
2.79248e-05
2.83217e-05
2.83215e-05
2.83216e-05
2.79251e-05
2.79225e-05
2.7925e-05
2.83215e-05
2.83214e-05
2.83214e-05
2.83213e-05
2.79225e-05
2.7925e-05
2.83217e-05
2.83213e-05
2.83216e-05
2.83212e-05
2.83215e-05
2.83216e-05
2.83214e-05
2.79223e-05
2.79248e-05
2.83217e-05
2.83215e-05
2.83216e-05
2.79251e-05
2.79225e-05
2.7925e-05
2.83215e-05
2.83215e-05
2.83213e-05
2.83213e-05
2.79225e-05
2.7925e-05
2.83217e-05
2.83213e-05
2.83216e-05
2.83212e-05
2.83215e-05
2.83216e-05
2.83214e-05
2.79223e-05
2.79248e-05
2.83217e-05
2.83215e-05
2.83216e-05
2.79251e-05
2.79225e-05
2.7925e-05
2.83214e-05
2.83215e-05
2.83213e-05
2.83213e-05
2.79224e-05
2.7925e-05
2.83217e-05
2.83213e-05
2.83216e-05
2.83212e-05
2.83215e-05
2.83216e-05
2.83214e-05
2.79223e-05
2.79248e-05
2.83217e-05
2.83215e-05
2.83216e-05
2.79251e-05
2.79224e-05
2.7925e-05
2.83214e-05
2.83215e-05
2.83213e-05
2.83213e-05
2.79224e-05
2.7925e-05
2.83217e-05
2.83213e-05
2.83216e-05
2.83212e-05
2.83215e-05
2.83216e-05
2.83214e-05
2.79223e-05
2.79248e-05
2.83217e-05
2.83215e-05
2.83216e-05
2.79251e-05
2.79225e-05
2.7925e-05
2.83214e-05
2.83215e-05
2.83213e-05
2.83213e-05
2.79224e-05
2.7925e-05
2.83217e-05
2.83213e-05
2.83216e-05
2.83212e-05
2.83215e-05
2.83216e-05
2.83214e-05
2.79223e-05
2.79248e-05
2.83217e-05
2.83215e-05
2.83216e-05
2.79251e-05
2.79224e-05
2.7925e-05
2.83214e-05
2.83215e-05
2.83213e-05
2.83213e-05
2.79224e-05
2.7925e-05
2.83217e-05
2.83213e-05
2.83216e-05
2.83212e-05
2.83215e-05
2.83216e-05
2.83214e-05
2.79223e-05
2.79248e-05
2.83217e-05
2.83215e-05
2.83216e-05
2.79251e-05
2.79224e-05
2.7925e-05
2.83214e-05
2.83215e-05
2.83213e-05
2.83213e-05
2.79224e-05
2.7925e-05
2.83217e-05
2.83213e-05
2.83216e-05
2.83212e-05
2.83215e-05
2.83216e-05
2.83214e-05
2.79223e-05
2.79248e-05
2.83217e-05
2.83215e-05
2.83216e-05
2.79251e-05
2.79224e-05
2.83214e-05
2.83214e-05
2.79224e-05
2.83216e-05
2.83212e-05
2.83215e-05
2.79223e-05
2.83217e-05
2.98239e-05
6.85709e-05
2.98248e-05
6.85661e-05
8.29888e-05
8.29829e-05
2.98248e-05
6.8573e-05
2.98255e-05
6.85678e-05
2.86509e-05
2.86506e-05
2.86506e-05
2.86506e-05
2.86508e-05
2.86506e-05
2.86506e-05
2.71522e-05
2.94382e-05
2.85304e-05
2.83312e-05
2.71523e-05
2.9436e-05
2.85303e-05
8.29885e-05
8.29819e-05
2.71525e-05
2.85302e-05
2.94375e-05
2.83309e-05
2.71525e-05
2.85302e-05
2.94353e-05
3.3255e-05
3.32557e-05
2.79351e-05
3.32553e-05
3.3256e-05
2.98254e-05
6.85665e-05
2.98269e-05
6.85638e-05
8.29797e-05
8.29773e-05
2.98257e-05
6.85684e-05
2.98269e-05
6.85655e-05
2.86508e-05
2.86505e-05
2.86506e-05
2.86504e-05
2.86506e-05
2.86504e-05
2.86504e-05
2.71526e-05
2.94402e-05
2.85303e-05
2.83312e-05
2.71524e-05
2.94375e-05
2.85303e-05
8.29779e-05
8.29745e-05
2.71528e-05
2.85301e-05
2.94393e-05
2.83308e-05
2.71526e-05
2.85301e-05
2.94369e-05
3.32599e-05
3.32607e-05
2.79351e-05
3.32607e-05
3.32615e-05
2.98272e-05
6.85652e-05
2.98282e-05
6.85629e-05
8.2977e-05
8.29763e-05
2.9828e-05
6.8567e-05
2.98287e-05
6.85646e-05
2.86506e-05
2.86504e-05
2.86504e-05
2.86504e-05
2.86505e-05
2.86503e-05
2.86503e-05
2.71532e-05
2.94409e-05
2.85301e-05
2.83312e-05
2.71529e-05
2.94382e-05
2.85303e-05
8.29739e-05
8.29724e-05
2.71533e-05
2.853e-05
2.94402e-05
2.83308e-05
2.7153e-05
2.853e-05
2.94376e-05
3.32652e-05
3.32661e-05
2.79353e-05
3.32652e-05
3.3266e-05
2.9828e-05
6.85648e-05
2.98298e-05
6.85629e-05
8.29778e-05
8.2979e-05
2.98288e-05
6.85667e-05
2.98303e-05
6.85647e-05
2.86505e-05
2.86503e-05
2.86504e-05
2.86501e-05
2.86502e-05
2.865e-05
2.86501e-05
2.71534e-05
2.94419e-05
2.85302e-05
2.8331e-05
2.71535e-05
2.94389e-05
2.85302e-05
8.29743e-05
8.29741e-05
2.71535e-05
2.85299e-05
2.94412e-05
2.83307e-05
2.71536e-05
2.85299e-05
2.94386e-05
3.32682e-05
3.3269e-05
2.79354e-05
3.32668e-05
3.32677e-05
2.98252e-05
6.85688e-05
2.98286e-05
6.85719e-05
8.29824e-05
8.29818e-05
2.9826e-05
6.85706e-05
2.98292e-05
6.85732e-05
2.86497e-05
2.86497e-05
2.86497e-05
2.86448e-05
2.86443e-05
2.86447e-05
2.86448e-05
2.71503e-05
2.94411e-05
2.85293e-05
2.8328e-05
2.71522e-05
2.94357e-05
2.85281e-05
8.2979e-05
8.29784e-05
2.71505e-05
2.85293e-05
2.94409e-05
2.8329e-05
2.71523e-05
2.85283e-05
2.94364e-05
3.32673e-05
3.32681e-05
2.79325e-05
3.32646e-05
3.32654e-05
2.98176e-05
6.8578e-05
2.98217e-05
6.85759e-05
8.29819e-05
8.29792e-05
2.98184e-05
6.85798e-05
2.98221e-05
6.85776e-05
2.86431e-05
2.86433e-05
2.86434e-05
2.8642e-05
2.86421e-05
2.8642e-05
2.8642e-05
2.71413e-05
2.94332e-05
2.85223e-05
2.83219e-05
2.7142e-05
2.94284e-05
2.85217e-05
8.29788e-05
8.29772e-05
2.71416e-05
2.85225e-05
2.9434e-05
2.8322e-05
2.71422e-05
2.85218e-05
2.94291e-05
3.32602e-05
3.3261e-05
2.79253e-05
3.32559e-05
3.32567e-05
2.98162e-05
6.85775e-05
2.98181e-05
6.85755e-05
8.29797e-05
8.29795e-05
2.98171e-05
6.85796e-05
2.98188e-05
6.85773e-05
2.86422e-05
2.86421e-05
2.86421e-05
2.8642e-05
2.86421e-05
2.8642e-05
2.8642e-05
2.71411e-05
2.94306e-05
2.85212e-05
2.83217e-05
2.71409e-05
2.94274e-05
2.85214e-05
8.29782e-05
8.29769e-05
2.71414e-05
2.85212e-05
2.94307e-05
2.83216e-05
2.71414e-05
2.85213e-05
2.94277e-05
3.32562e-05
3.3257e-05
2.79251e-05
3.32546e-05
3.32554e-05
2.98161e-05
6.85774e-05
2.98179e-05
6.85754e-05
8.29811e-05
8.29806e-05
2.9817e-05
6.85795e-05
2.98186e-05
6.85773e-05
2.86422e-05
2.86421e-05
2.86421e-05
2.8642e-05
2.86421e-05
2.8642e-05
2.8642e-05
2.71412e-05
2.94305e-05
2.85213e-05
2.83217e-05
2.7141e-05
2.94274e-05
2.85214e-05
8.29782e-05
8.29769e-05
2.71413e-05
2.85212e-05
2.94305e-05
2.83216e-05
2.71412e-05
2.85213e-05
2.94276e-05
3.32561e-05
3.32569e-05
2.79251e-05
3.32546e-05
3.32554e-05
2.98161e-05
6.85775e-05
2.98179e-05
6.85752e-05
8.29811e-05
8.29798e-05
2.98171e-05
6.85795e-05
2.98186e-05
6.8578e-05
2.86422e-05
2.86421e-05
2.86421e-05
2.8642e-05
2.86421e-05
2.8642e-05
2.8642e-05
2.71411e-05
2.94304e-05
2.85213e-05
2.83217e-05
2.7141e-05
2.94274e-05
2.85214e-05
8.29782e-05
8.29769e-05
2.71414e-05
2.85212e-05
2.94305e-05
2.83216e-05
2.71413e-05
2.85213e-05
2.94276e-05
3.32561e-05
3.32569e-05
2.79251e-05
3.32546e-05
3.32554e-05
2.98161e-05
6.85767e-05
2.98179e-05
6.85742e-05
8.29808e-05
8.298e-05
2.98171e-05
6.85805e-05
2.98186e-05
6.85787e-05
2.86422e-05
2.86421e-05
2.86421e-05
2.8642e-05
2.86421e-05
2.8642e-05
2.8642e-05
2.71411e-05
2.94304e-05
2.85213e-05
2.83217e-05
2.71409e-05
2.94274e-05
2.85214e-05
8.29782e-05
8.29769e-05
2.71414e-05
2.85212e-05
2.94305e-05
2.83216e-05
2.71412e-05
2.85213e-05
2.94276e-05
3.32561e-05
3.32569e-05
2.79251e-05
3.32546e-05
3.32554e-05
2.98161e-05
6.8576e-05
2.98179e-05
6.85737e-05
8.2981e-05
8.29802e-05
2.98171e-05
6.85811e-05
2.98186e-05
6.85791e-05
2.86422e-05
2.86421e-05
2.86421e-05
2.8642e-05
2.86421e-05
2.8642e-05
2.8642e-05
2.71411e-05
2.94305e-05
2.85213e-05
2.83217e-05
2.7141e-05
2.94274e-05
2.85214e-05
8.29782e-05
8.29769e-05
2.71414e-05
2.85212e-05
2.94305e-05
2.83216e-05
2.71413e-05
2.85213e-05
2.94276e-05
3.32561e-05
3.32569e-05
2.79251e-05
3.32546e-05
3.32554e-05
2.98161e-05
6.85757e-05
2.98179e-05
6.85734e-05
8.29812e-05
8.29803e-05
2.98171e-05
6.85814e-05
2.98186e-05
6.85793e-05
2.86422e-05
2.86421e-05
2.86421e-05
2.8642e-05
2.86421e-05
2.8642e-05
2.8642e-05
2.71411e-05
2.94305e-05
2.85213e-05
2.83217e-05
2.71409e-05
2.94274e-05
2.85214e-05
8.29782e-05
8.29769e-05
2.71414e-05
2.85212e-05
2.94305e-05
2.83216e-05
2.71412e-05
2.85213e-05
2.94276e-05
3.32561e-05
3.32569e-05
2.79251e-05
3.32547e-05
3.32554e-05
2.98161e-05
6.85755e-05
2.98179e-05
6.85732e-05
8.29813e-05
8.29804e-05
2.98171e-05
6.85815e-05
2.98187e-05
6.85794e-05
2.86422e-05
2.86421e-05
2.86421e-05
2.8642e-05
2.86421e-05
2.8642e-05
2.8642e-05
2.71412e-05
2.94305e-05
2.85213e-05
2.83217e-05
2.7141e-05
2.94274e-05
2.85214e-05
8.29782e-05
8.29769e-05
2.71414e-05
2.85212e-05
2.94305e-05
2.83216e-05
2.71413e-05
2.85213e-05
2.94276e-05
3.32561e-05
3.32569e-05
2.79251e-05
3.32547e-05
3.32554e-05
2.98161e-05
6.85754e-05
2.98179e-05
6.85732e-05
8.29813e-05
8.29804e-05
2.98171e-05
6.85815e-05
2.98187e-05
6.85795e-05
2.86422e-05
2.86421e-05
2.86421e-05
2.8642e-05
2.86421e-05
2.8642e-05
2.8642e-05
2.71411e-05
2.94305e-05
2.85213e-05
2.83217e-05
2.7141e-05
2.94274e-05
2.85214e-05
8.29782e-05
8.29769e-05
2.71414e-05
2.85212e-05
2.94305e-05
2.83216e-05
2.71413e-05
2.85213e-05
2.94276e-05
3.32561e-05
3.32569e-05
2.79251e-05
3.32546e-05
3.32554e-05
2.98161e-05
6.85753e-05
2.98179e-05
6.85732e-05
8.29813e-05
8.29804e-05
2.98171e-05
6.85816e-05
2.98187e-05
6.85795e-05
2.86422e-05
2.86421e-05
2.86421e-05
2.8642e-05
2.86421e-05
2.8642e-05
2.8642e-05
2.71411e-05
2.94305e-05
2.85213e-05
2.83217e-05
2.71409e-05
2.94274e-05
2.85214e-05
8.29782e-05
8.29769e-05
2.71414e-05
2.85212e-05
2.94305e-05
2.83216e-05
2.71412e-05
2.85213e-05
2.94276e-05
3.32561e-05
3.32569e-05
2.79251e-05
3.32546e-05
3.32554e-05
2.98161e-05
6.85753e-05
2.98179e-05
6.85732e-05
8.29813e-05
8.29804e-05
2.98171e-05
6.85816e-05
2.98186e-05
6.85795e-05
2.86422e-05
2.86421e-05
2.86421e-05
2.8642e-05
2.86421e-05
2.8642e-05
2.8642e-05
2.7141e-05
2.94305e-05
2.85213e-05
2.83217e-05
2.7141e-05
2.94274e-05
2.85214e-05
8.29782e-05
8.29769e-05
2.71415e-05
2.85212e-05
2.94305e-05
2.83216e-05
2.71413e-05
2.85213e-05
2.94276e-05
3.32561e-05
3.32569e-05
2.79251e-05
3.32546e-05
3.32554e-05
2.98161e-05
6.85753e-05
2.98179e-05
6.85732e-05
8.29813e-05
8.29804e-05
2.98171e-05
6.85816e-05
2.98186e-05
6.85795e-05
2.86422e-05
2.86421e-05
2.86421e-05
2.8642e-05
2.86421e-05
2.8642e-05
2.8642e-05
2.71411e-05
2.94305e-05
2.85213e-05
2.83217e-05
2.71409e-05
2.94274e-05
2.85214e-05
8.29782e-05
8.29769e-05
2.71413e-05
2.85212e-05
2.94305e-05
2.83216e-05
2.71413e-05
2.85213e-05
2.94276e-05
3.32561e-05
3.32569e-05
2.79251e-05
3.32546e-05
3.32554e-05
2.98162e-05
6.85753e-05
2.98179e-05
6.8574e-05
8.29813e-05
8.29805e-05
2.98172e-05
6.85816e-05
2.98186e-05
6.85804e-05
2.86421e-05
2.86421e-05
2.86421e-05
2.7141e-05
2.94304e-05
2.85213e-05
2.83216e-05
2.7141e-05
2.94274e-05
2.85214e-05
8.29782e-05
8.29771e-05
2.71416e-05
2.85212e-05
2.94305e-05
2.83217e-05
2.71412e-05
2.85214e-05
2.94278e-05
3.32561e-05
3.32569e-05
2.79253e-05
3.32547e-05
3.32553e-05
6.85692e-05
2.9436e-05
8.29893e-05
3.32552e-05
3.32501e-05
8.29852e-05
2.94348e-05
6.85662e-05
8.29918e-05
8.29856e-05
8.29917e-05
8.29857e-05
3.3255e-05
3.32558e-05
2.79351e-05
3.32553e-05
3.32559e-05
8.29807e-05
8.29853e-05
8.29807e-05
8.29854e-05
2.79326e-05
3.32578e-05
3.32584e-05
3.32573e-05
3.32579e-05
2.98242e-05
6.85706e-05
2.98251e-05
6.85678e-05
2.71522e-05
2.94375e-05
2.85302e-05
2.83307e-05
2.71522e-05
2.94353e-05
2.85302e-05
2.71524e-05
2.94395e-05
2.85303e-05
2.83307e-05
2.71524e-05
2.94372e-05
2.85303e-05
2.98264e-05
6.85648e-05
6.85673e-05
2.9825e-05
2.98266e-05
6.85666e-05
6.85691e-05
2.98252e-05
2.71526e-05
2.83307e-05
2.94363e-05
2.85302e-05
2.94388e-05
2.85302e-05
2.71526e-05
2.71528e-05
2.83307e-05
2.9438e-05
2.85303e-05
2.94406e-05
2.85303e-05
2.71528e-05
3.32574e-05
3.3253e-05
2.79351e-05
3.32577e-05
3.32537e-05
8.29856e-05
8.29793e-05
8.29794e-05
8.29831e-05
2.79326e-05
3.32604e-05
3.32564e-05
3.32598e-05
3.32562e-05
8.29756e-05
8.29799e-05
2.71525e-05
2.94388e-05
2.85302e-05
2.83309e-05
2.71526e-05
2.94364e-05
2.85302e-05
2.98243e-05
6.85713e-05
2.9825e-05
6.85661e-05
2.71524e-05
2.85301e-05
2.94376e-05
2.83305e-05
2.71525e-05
2.85301e-05
2.94352e-05
2.98269e-05
6.85665e-05
6.85692e-05
2.98253e-05
2.7153e-05
2.83309e-05
2.94374e-05
2.85302e-05
2.94401e-05
2.85302e-05
2.71529e-05
2.98264e-05
6.85648e-05
6.85675e-05
2.98249e-05
2.71528e-05
2.83305e-05
2.85301e-05
2.94361e-05
2.85301e-05
2.94388e-05
2.71527e-05
2.98241e-05
6.85678e-05
2.9825e-05
6.85649e-05
2.71522e-05
2.85302e-05
2.94375e-05
2.83308e-05
2.71523e-05
2.85302e-05
2.94353e-05
2.9824e-05
6.85728e-05
2.98248e-05
6.85679e-05
2.71527e-05
2.83312e-05
2.9437e-05
2.85303e-05
2.94397e-05
2.85303e-05
2.71524e-05
2.98265e-05
6.85637e-05
6.85664e-05
2.98251e-05
2.71526e-05
2.83307e-05
2.85302e-05
2.94362e-05
2.85302e-05
2.94387e-05
2.71525e-05
2.98264e-05
6.85665e-05
6.85691e-05
2.98249e-05
3.32523e-05
3.32548e-05
2.79349e-05
3.32527e-05
3.32551e-05
8.29919e-05
8.29857e-05
8.29773e-05
8.29824e-05
2.79323e-05
3.32547e-05
3.32575e-05
3.32547e-05
3.3257e-05
8.29809e-05
8.29855e-05
2.71526e-05
2.85302e-05
2.94382e-05
2.8331e-05
2.71527e-05
2.85302e-05
2.9436e-05
2.98244e-05
6.85732e-05
2.98252e-05
6.85683e-05
2.98246e-05
6.85749e-05
2.98253e-05
6.857e-05
2.7153e-05
2.83309e-05
2.85301e-05
2.94363e-05
2.85302e-05
2.94388e-05
2.71526e-05
2.71531e-05
2.8331e-05
2.85302e-05
2.9437e-05
2.85302e-05
2.94395e-05
2.71529e-05
2.98265e-05
6.85669e-05
6.85695e-05
2.9825e-05
2.98267e-05
6.85686e-05
6.85712e-05
2.98251e-05
8.29919e-05
8.29857e-05
8.29918e-05
8.29856e-05
2.79326e-05
3.32577e-05
3.32585e-05
3.32572e-05
3.3258e-05
8.29809e-05
8.29855e-05
8.29808e-05
8.29854e-05
8.29812e-05
8.29781e-05
8.2981e-05
8.29781e-05
3.326e-05
3.32606e-05
2.79352e-05
3.32608e-05
3.32615e-05
8.29765e-05
8.29789e-05
8.29766e-05
8.29787e-05
2.79326e-05
3.32634e-05
3.32641e-05
3.3263e-05
3.32637e-05
2.98257e-05
6.8568e-05
2.98275e-05
6.85658e-05
2.7153e-05
2.94397e-05
2.85303e-05
2.83308e-05
2.71531e-05
2.9437e-05
2.85303e-05
2.71532e-05
2.94414e-05
2.85303e-05
2.83308e-05
2.71533e-05
2.94385e-05
2.85302e-05
2.98277e-05
6.85632e-05
6.85653e-05
2.98262e-05
2.98279e-05
6.85653e-05
6.85673e-05
2.98265e-05
2.71534e-05
2.83307e-05
2.94374e-05
2.85302e-05
2.94403e-05
2.85302e-05
2.71533e-05
2.71536e-05
2.83308e-05
2.94388e-05
2.85302e-05
2.94418e-05
2.85302e-05
2.71535e-05
3.32627e-05
3.32587e-05
2.79352e-05
3.32633e-05
3.32589e-05
8.29765e-05
8.29733e-05
8.29762e-05
8.29782e-05
2.79327e-05
3.32656e-05
3.32609e-05
3.32654e-05
3.32611e-05
8.29723e-05
8.29746e-05
2.71532e-05
2.94409e-05
2.85303e-05
2.83309e-05
2.71534e-05
2.94381e-05
2.85303e-05
2.98253e-05
6.85663e-05
2.98268e-05
6.85639e-05
2.7153e-05
2.85301e-05
2.94397e-05
2.83306e-05
2.71532e-05
2.85301e-05
2.94369e-05
2.98278e-05
6.85649e-05
6.85671e-05
2.98268e-05
2.71537e-05
2.83308e-05
2.94385e-05
2.85302e-05
2.94416e-05
2.85302e-05
2.71536e-05
2.98274e-05
6.85633e-05
6.85655e-05
2.98264e-05
2.71535e-05
2.83305e-05
2.853e-05
2.94374e-05
2.853e-05
2.94404e-05
2.71534e-05
2.98255e-05
6.85653e-05
2.98273e-05
6.85628e-05
2.71529e-05
2.85302e-05
2.94396e-05
2.83308e-05
2.71531e-05
2.85301e-05
2.94369e-05
2.98252e-05
6.85679e-05
2.9827e-05
6.85655e-05
2.7153e-05
2.83311e-05
2.94378e-05
2.85301e-05
2.9441e-05
2.85302e-05
2.71529e-05
2.98278e-05
6.85623e-05
6.85644e-05
2.98263e-05
2.71534e-05
2.83307e-05
2.853e-05
2.94373e-05
2.853e-05
2.94402e-05
2.71532e-05
2.98275e-05
6.85649e-05
6.8567e-05
2.98261e-05
3.32572e-05
3.32597e-05
2.79349e-05
3.32582e-05
3.32606e-05
8.29814e-05
8.29782e-05
8.29729e-05
8.29756e-05
2.79324e-05
3.32608e-05
3.32632e-05
3.32606e-05
3.32627e-05
8.29767e-05
8.29791e-05
2.71532e-05
2.85302e-05
2.94404e-05
2.83309e-05
2.71534e-05
2.85301e-05
2.94377e-05
2.98254e-05
6.85683e-05
2.98269e-05
6.85659e-05
2.98256e-05
6.857e-05
2.9827e-05
6.85676e-05
2.71532e-05
2.83308e-05
2.853e-05
2.94373e-05
2.85301e-05
2.94402e-05
2.7153e-05
2.71537e-05
2.83309e-05
2.853e-05
2.94381e-05
2.85301e-05
2.9441e-05
2.71535e-05
2.98275e-05
6.85653e-05
6.85674e-05
2.98265e-05
2.98276e-05
6.8567e-05
6.85691e-05
2.98267e-05
8.29814e-05
8.29783e-05
8.29813e-05
8.29782e-05
2.79326e-05
3.32632e-05
3.32641e-05
3.32628e-05
3.32636e-05
8.29767e-05
8.29791e-05
8.29766e-05
8.2979e-05
8.29776e-05
8.29759e-05
8.29775e-05
8.2976e-05
3.32654e-05
3.32661e-05
2.79353e-05
3.32653e-05
3.32661e-05
8.29764e-05
8.29773e-05
8.29765e-05
8.29772e-05
2.79328e-05
3.32667e-05
3.32674e-05
3.32671e-05
3.32679e-05
2.98276e-05
6.85669e-05
2.98288e-05
6.8565e-05
2.71538e-05
2.94407e-05
2.85302e-05
2.83307e-05
2.71539e-05
2.94378e-05
2.85302e-05
2.7154e-05
2.94421e-05
2.85304e-05
2.8331e-05
2.71541e-05
2.94392e-05
2.85304e-05
2.98295e-05
6.85628e-05
6.85645e-05
2.98279e-05
2.98299e-05
6.85651e-05
6.85667e-05
2.98283e-05
2.71542e-05
2.83307e-05
2.94384e-05
2.85301e-05
2.94411e-05
2.85302e-05
2.71541e-05
2.71545e-05
2.8331e-05
2.94397e-05
2.85302e-05
2.94426e-05
2.85303e-05
2.71543e-05
3.32675e-05
3.3263e-05
2.79354e-05
3.32672e-05
3.32624e-05
8.29738e-05
8.29723e-05
8.29764e-05
8.29777e-05
2.79329e-05
3.32683e-05
3.32633e-05
3.32691e-05
3.32644e-05
8.29729e-05
8.29741e-05
2.7154e-05
2.94419e-05
2.85302e-05
2.83309e-05
2.71542e-05
2.94389e-05
2.85301e-05
2.98275e-05
6.8565e-05
2.98285e-05
6.85629e-05
2.71538e-05
2.853e-05
2.94408e-05
2.83305e-05
2.71539e-05
2.85299e-05
2.94378e-05
2.983e-05
6.85645e-05
6.85663e-05
2.98287e-05
2.71545e-05
2.83309e-05
2.94394e-05
2.85299e-05
2.94424e-05
2.853e-05
2.71544e-05
2.98296e-05
6.85627e-05
6.85646e-05
2.98282e-05
2.71543e-05
2.83305e-05
2.85299e-05
2.94383e-05
2.85299e-05
2.94413e-05
2.71541e-05
2.98273e-05
6.8564e-05
2.98286e-05
6.8562e-05
2.71538e-05
2.85301e-05
2.94406e-05
2.83307e-05
2.71538e-05
2.85301e-05
2.94377e-05
2.98272e-05
6.85664e-05
2.98285e-05
6.85645e-05
2.71536e-05
2.83311e-05
2.94387e-05
2.85302e-05
2.94417e-05
2.85303e-05
2.71535e-05
2.98296e-05
6.8562e-05
6.85638e-05
2.98279e-05
2.71543e-05
2.83307e-05
2.85301e-05
2.94382e-05
2.85301e-05
2.9441e-05
2.71541e-05
2.98295e-05
6.85643e-05
6.8566e-05
2.98279e-05
3.3263e-05
3.32651e-05
2.7935e-05
3.32627e-05
3.32651e-05
8.29778e-05
8.29761e-05
8.29728e-05
8.29741e-05
2.79325e-05
3.32639e-05
3.32664e-05
3.32646e-05
3.32669e-05
8.29765e-05
8.29774e-05
2.7154e-05
2.853e-05
2.94414e-05
2.8331e-05
2.71541e-05
2.853e-05
2.94385e-05
2.98275e-05
6.85669e-05
2.98286e-05
6.85649e-05
2.98278e-05
6.85685e-05
2.98288e-05
6.85666e-05
2.71537e-05
2.83308e-05
2.85299e-05
2.94382e-05
2.853e-05
2.94409e-05
2.71536e-05
2.71544e-05
2.8331e-05
2.853e-05
2.9439e-05
2.853e-05
2.94418e-05
2.71542e-05
2.98296e-05
6.85647e-05
6.85665e-05
2.98283e-05
2.98298e-05
6.85664e-05
6.85681e-05
2.98285e-05
8.29778e-05
8.29761e-05
8.29777e-05
8.2976e-05
2.79328e-05
3.32665e-05
3.32674e-05
3.32669e-05
3.32678e-05
8.29766e-05
8.29775e-05
8.29765e-05
8.29774e-05
8.29779e-05
8.29776e-05
8.29777e-05
8.29776e-05
3.32683e-05
3.32691e-05
2.79354e-05
3.32669e-05
3.32678e-05
8.29807e-05
8.29797e-05
8.29807e-05
8.29795e-05
2.79328e-05
3.32661e-05
3.32669e-05
3.32682e-05
3.3269e-05
2.98285e-05
6.85668e-05
2.98305e-05
6.85662e-05
2.71537e-05
2.94417e-05
2.85301e-05
2.83307e-05
2.71545e-05
2.94387e-05
2.853e-05
2.7154e-05
2.9443e-05
2.85302e-05
2.83309e-05
2.71548e-05
2.94398e-05
2.85301e-05
2.98299e-05
6.85655e-05
6.85649e-05
2.98271e-05
2.98303e-05
6.85705e-05
6.85686e-05
2.98274e-05
2.71535e-05
2.83305e-05
2.94384e-05
2.85297e-05
2.94419e-05
2.85299e-05
2.71526e-05
2.71537e-05
2.83307e-05
2.9439e-05
2.85298e-05
2.94429e-05
2.853e-05
2.71528e-05
3.32697e-05
3.32651e-05
2.79354e-05
3.32677e-05
3.32631e-05
8.2975e-05
8.29751e-05
8.29814e-05
8.2981e-05
2.79327e-05
3.32666e-05
3.32625e-05
3.32689e-05
3.32647e-05
8.29776e-05
8.29775e-05
2.71538e-05
2.94429e-05
2.853e-05
2.83308e-05
2.71546e-05
2.94398e-05
2.853e-05
2.98284e-05
6.85645e-05
2.98302e-05
6.8563e-05
2.71536e-05
2.853e-05
2.94418e-05
2.83304e-05
2.71545e-05
2.853e-05
2.94387e-05
2.98305e-05
6.85672e-05
6.85669e-05
2.98279e-05
2.71536e-05
2.83307e-05
2.94394e-05
2.85298e-05
2.94431e-05
2.85299e-05
2.71528e-05
2.983e-05
6.85654e-05
6.85651e-05
2.98274e-05
2.71534e-05
2.83302e-05
2.85298e-05
2.94383e-05
2.85299e-05
2.94421e-05
2.71526e-05
2.98281e-05
6.85639e-05
2.98301e-05
6.85635e-05
2.71534e-05
2.85303e-05
2.94415e-05
2.83308e-05
2.7154e-05
2.85302e-05
2.94386e-05
2.9828e-05
6.85659e-05
2.98301e-05
6.85645e-05
2.71535e-05
2.83308e-05
2.94384e-05
2.85298e-05
2.94423e-05
2.853e-05
2.71525e-05
2.983e-05
6.85678e-05
6.85662e-05
2.98272e-05
2.71532e-05
2.83306e-05
2.85298e-05
2.94382e-05
2.853e-05
2.94417e-05
2.71525e-05
2.98299e-05
6.85669e-05
6.85664e-05
2.9827e-05
3.32658e-05
3.32681e-05
2.79351e-05
3.32642e-05
3.32668e-05
8.2978e-05
8.29777e-05
8.29772e-05
8.29765e-05
2.79325e-05
3.32633e-05
3.3266e-05
3.32656e-05
3.3268e-05
8.29808e-05
8.29798e-05
2.71537e-05
2.853e-05
2.94423e-05
2.8331e-05
2.71544e-05
2.853e-05
2.94393e-05
2.98284e-05
6.85664e-05
2.98302e-05
6.85649e-05
2.98286e-05
6.85681e-05
2.98304e-05
6.85666e-05
2.71535e-05
2.83306e-05
2.85297e-05
2.94383e-05
2.85299e-05
2.94417e-05
2.71526e-05
2.71536e-05
2.83308e-05
2.85298e-05
2.94389e-05
2.85299e-05
2.94425e-05
2.71528e-05
2.98301e-05
6.85673e-05
6.85669e-05
2.98275e-05
2.98303e-05
6.8569e-05
6.85686e-05
2.98276e-05
8.2978e-05
8.29777e-05
8.29779e-05
8.29776e-05
2.79328e-05
3.3266e-05
3.32668e-05
3.3268e-05
3.32689e-05
8.29808e-05
8.29798e-05
8.29807e-05
8.29797e-05
8.29824e-05
8.29818e-05
8.29823e-05
8.2982e-05
3.32673e-05
3.32682e-05
2.79325e-05
3.32648e-05
3.32655e-05
8.29813e-05
8.2983e-05
8.29814e-05
8.29829e-05
2.79285e-05
3.32602e-05
3.3261e-05
3.32654e-05
3.32662e-05
2.98254e-05
6.85739e-05
2.98292e-05
6.85773e-05
2.71502e-05
2.94414e-05
2.85294e-05
2.83288e-05
2.71524e-05
2.94365e-05
2.85283e-05
2.71501e-05
2.94418e-05
2.85293e-05
2.83273e-05
2.71525e-05
2.94359e-05
2.85279e-05
2.98266e-05
6.85758e-05
6.85753e-05
2.9821e-05
2.98267e-05
6.85787e-05
6.85795e-05
2.98212e-05
2.71485e-05
2.83264e-05
2.94323e-05
2.85239e-05
2.94389e-05
2.8526e-05
2.71429e-05
2.71482e-05
2.8325e-05
2.94315e-05
2.85236e-05
2.9438e-05
2.85256e-05
2.71427e-05
3.32677e-05
3.32639e-05
2.79307e-05
3.32638e-05
3.32599e-05
8.29794e-05
8.29782e-05
8.29813e-05
8.29829e-05
2.79264e-05
3.32579e-05
3.3254e-05
3.3264e-05
3.32607e-05
8.29775e-05
8.29797e-05
2.71507e-05
2.94425e-05
2.85294e-05
2.8329e-05
2.71526e-05
2.94375e-05
2.85284e-05
2.98255e-05
6.85684e-05
2.9829e-05
6.85715e-05
2.71504e-05
2.85294e-05
2.94415e-05
2.83287e-05
2.71524e-05
2.85283e-05
2.94365e-05
2.9827e-05
6.85774e-05
6.85769e-05
2.98216e-05
2.71488e-05
2.83266e-05
2.94333e-05
2.8524e-05
2.944e-05
2.85261e-05
2.71432e-05
2.98266e-05
6.85761e-05
6.85754e-05
2.98213e-05
2.71486e-05
2.83263e-05
2.85239e-05
2.94323e-05
2.8526e-05
2.94391e-05
2.7143e-05
2.98254e-05
6.85714e-05
2.9829e-05
6.85744e-05
2.71503e-05
2.85294e-05
2.94412e-05
2.83288e-05
2.71523e-05
2.85282e-05
2.94364e-05
2.98252e-05
6.85696e-05
2.98289e-05
6.85732e-05
2.71486e-05
2.83254e-05
2.9431e-05
2.85238e-05
2.94379e-05
2.85257e-05
2.71431e-05
2.98267e-05
6.85762e-05
6.85771e-05
2.98213e-05
2.71486e-05
2.83264e-05
2.85239e-05
2.94322e-05
2.8526e-05
2.94387e-05
2.7143e-05
2.98266e-05
6.85775e-05
6.8577e-05
2.98211e-05
3.32648e-05
3.32672e-05
2.79323e-05
3.32619e-05
3.32646e-05
8.29825e-05
8.29819e-05
8.29778e-05
8.29799e-05
2.79282e-05
3.32575e-05
3.326e-05
3.32628e-05
3.32653e-05
8.29814e-05
8.29831e-05
2.71507e-05
2.85294e-05
2.94419e-05
2.8329e-05
2.71526e-05
2.85283e-05
2.94371e-05
2.98256e-05
6.857e-05
2.98291e-05
6.85736e-05
2.98258e-05
6.85717e-05
2.98292e-05
6.85753e-05
2.71489e-05
2.83265e-05
2.8524e-05
2.94322e-05
2.8526e-05
2.94387e-05
2.71433e-05
2.71489e-05
2.83266e-05
2.8524e-05
2.94329e-05
2.85261e-05
2.94394e-05
2.71433e-05
2.98267e-05
6.8578e-05
6.85774e-05
2.98215e-05
2.98268e-05
6.85797e-05
6.85791e-05
2.98215e-05
8.29826e-05
8.2982e-05
8.29825e-05
8.29819e-05
2.79284e-05
3.32601e-05
3.3261e-05
3.32653e-05
3.32661e-05
8.29814e-05
8.29832e-05
8.29813e-05
8.29831e-05
8.29823e-05
8.29807e-05
8.29823e-05
8.29808e-05
3.32601e-05
3.32611e-05
2.79252e-05
3.32559e-05
3.3257e-05
8.29805e-05
8.29819e-05
8.29806e-05
8.29818e-05
2.79225e-05
3.32547e-05
3.32558e-05
3.32568e-05
3.32579e-05
2.98179e-05
6.85802e-05
2.98222e-05
6.85777e-05
2.71412e-05
2.94345e-05
2.85225e-05
2.83219e-05
2.71422e-05
2.94292e-05
2.85218e-05
2.71414e-05
2.9434e-05
2.85223e-05
2.83216e-05
2.71422e-05
2.94295e-05
2.85217e-05
2.98192e-05
6.85755e-05
6.85774e-05
2.98164e-05
2.98195e-05
6.8577e-05
6.85793e-05
2.98167e-05
2.71415e-05
2.83214e-05
2.9428e-05
2.85213e-05
2.9432e-05
2.85213e-05
2.71411e-05
2.71416e-05
2.83213e-05
2.94292e-05
2.85213e-05
2.94328e-05
2.85213e-05
2.71412e-05
3.32584e-05
3.32547e-05
2.79249e-05
3.32556e-05
3.32509e-05
8.29789e-05
8.29769e-05
8.29784e-05
8.29807e-05
2.79223e-05
3.3255e-05
3.32505e-05
3.3257e-05
3.32524e-05
8.29768e-05
8.29785e-05
2.71416e-05
2.94357e-05
2.85226e-05
2.83221e-05
2.71425e-05
2.94302e-05
2.85218e-05
2.98181e-05
6.8578e-05
2.98222e-05
6.85762e-05
2.71414e-05
2.85225e-05
2.94347e-05
2.83217e-05
2.71423e-05
2.85217e-05
2.94291e-05
2.98199e-05
6.85774e-05
6.85793e-05
2.98173e-05
2.71418e-05
2.83216e-05
2.9429e-05
2.85213e-05
2.94332e-05
2.85213e-05
2.71415e-05
2.98195e-05
6.85758e-05
6.85778e-05
2.98169e-05
2.71417e-05
2.83212e-05
2.85212e-05
2.94279e-05
2.85212e-05
2.94321e-05
2.71413e-05
2.98178e-05
6.85779e-05
2.98223e-05
6.85759e-05
2.71413e-05
2.85225e-05
2.94344e-05
2.83219e-05
2.71422e-05
2.85218e-05
2.94291e-05
2.98177e-05
6.85793e-05
2.98221e-05
6.85776e-05
2.71416e-05
2.83216e-05
2.94276e-05
2.85212e-05
2.94314e-05
2.85214e-05
2.7141e-05
2.98195e-05
6.85756e-05
6.85776e-05
2.98166e-05
2.71415e-05
2.83214e-05
2.85213e-05
2.9428e-05
2.85213e-05
2.94319e-05
2.71411e-05
2.98193e-05
6.85774e-05
6.85792e-05
2.98165e-05
3.32579e-05
3.326e-05
2.7925e-05
3.32529e-05
3.32559e-05
8.29825e-05
8.29808e-05
8.2977e-05
8.29787e-05
2.79222e-05
3.32516e-05
3.32548e-05
3.3254e-05
3.32568e-05
8.29806e-05
8.29821e-05
2.71417e-05
2.85225e-05
2.94351e-05
2.83221e-05
2.71426e-05
2.85218e-05
2.94298e-05
2.98182e-05
6.85797e-05
2.98223e-05
6.85781e-05
2.98183e-05
6.85814e-05
2.98224e-05
6.85798e-05
2.7142e-05
2.83216e-05
2.85212e-05
2.9428e-05
2.85214e-05
2.94318e-05
2.71415e-05
2.71419e-05
2.83216e-05
2.85213e-05
2.94287e-05
2.85213e-05
2.94326e-05
2.71415e-05
2.98196e-05
6.85778e-05
6.85796e-05
2.98171e-05
2.98198e-05
6.85795e-05
6.85813e-05
2.98172e-05
8.29825e-05
8.29809e-05
8.29824e-05
8.29808e-05
2.79226e-05
3.32548e-05
3.32556e-05
3.32569e-05
3.32577e-05
8.29807e-05
8.29821e-05
8.29806e-05
8.2982e-05
8.29818e-05
8.29808e-05
8.29817e-05
8.29805e-05
3.32561e-05
3.32572e-05
2.79251e-05
3.32544e-05
3.32556e-05
8.29808e-05
8.29821e-05
8.29805e-05
8.29816e-05
2.79225e-05
3.32545e-05
3.32556e-05
3.3256e-05
3.3257e-05
2.98165e-05
6.85788e-05