/*--------------------------------*- C++ -*----------------------------------*\
| =========                 |                                                 |
| \\      /  F ield         | OpenFOAM: The Open Source CFD Toolbox           |
|  \\    /   O peration     | Version:  2206                                  |
|   \\  /    A nd           | Website:  www.openfoam.com                      |
|    \\/     M anipulation  |                                                 |
\*---------------------------------------------------------------------------*/
FoamFile
{
    version     2.0;
    format      ascii;
    arch        "LSB;label=32;scalar=64";
    class       volVectorField;
    location    "21";
    object      U;
}
// * * * * * * * * * * * * * * * * * * * * * * * * * * * * * * * * * * * * * //

dimensions      [0 1 -1 0 0 0 0];

internalField   nonuniform List<vector> 
28687
(
(-6.09883e-07 -6.09754e-07 0.102434)
(-4.18365e-07 6.2904e-07 0.102401)
(6.29257e-07 -4.11563e-07 0.102401)
(-4.14325e-05 -4.14499e-05 0.102351)
(-6.19918e-07 -6.22471e-07 0.102434)
(-3.98922e-07 6.18348e-07 0.102401)
(6.18348e-07 -3.91477e-07 0.102401)
(-4.14205e-05 -4.14381e-05 0.102351)
(-6.37304e-07 -6.30922e-07 0.102434)
(-3.66887e-07 6.11064e-07 0.102401)
(5.94282e-07 -3.57518e-07 0.102401)
(-4.14041e-05 -4.14194e-05 0.102351)
(-6.66101e-07 -6.41038e-07 0.102434)
(-3.13812e-07 5.87358e-07 0.102401)
(5.479e-07 -2.97269e-07 0.102401)
(-4.13807e-05 -4.13893e-05 0.102351)
(-5.21765e-07 -5.15812e-07 0.102434)
(-5.25522e-07 6.77202e-07 0.102401)
(7.0951e-07 -5.44256e-07 0.102401)
(-4.1613e-05 -4.16208e-05 0.102351)
(-6.08373e-07 -6.05782e-07 0.102434)
(-4.12006e-07 6.22446e-07 0.102401)
(6.14971e-07 -4.14816e-07 0.102401)
(-4.14452e-05 -4.14667e-05 0.102351)
(-6.11588e-07 -5.98767e-07 0.102434)
(-4.09286e-07 6.4558e-07 0.102401)
(6.25085e-07 -4.07253e-07 0.102401)
(-4.14494e-05 -4.14636e-05 0.102351)
(-6.03328e-07 -5.99249e-07 0.102434)
(-4.07429e-07 6.20395e-07 0.102401)
(6.27866e-07 -4.0787e-07 0.102401)
(-4.14519e-05 -4.1465e-05 0.102351)
(-5.99825e-07 -6.02321e-07 0.102434)
(-4.13536e-07 6.33409e-07 0.102401)
(6.28212e-07 -4.10208e-07 0.102401)
(-4.14505e-05 -4.14665e-05 0.102351)
(-6.0923e-07 -6.08874e-07 0.102434)
(-4.1052e-07 6.28097e-07 0.102401)
(6.26655e-07 -4.09621e-07 0.102401)
(-4.14499e-05 -4.14658e-05 0.102351)
(-6.10927e-07 -6.08362e-07 0.102434)
(-4.08929e-07 6.27486e-07 0.102401)
(6.26396e-07 -4.10569e-07 0.102401)
(-4.14497e-05 -4.14664e-05 0.102351)
(-6.12096e-07 -6.08722e-07 0.102434)
(-4.08221e-07 6.27224e-07 0.102401)
(6.25932e-07 -4.10422e-07 0.102401)
(-4.14495e-05 -4.14661e-05 0.102351)
(-6.12415e-07 -6.08297e-07 0.102434)
(-4.09069e-07 6.27754e-07 0.102401)
(6.26496e-07 -4.11294e-07 0.102401)
(-4.14505e-05 -4.14668e-05 0.102351)
(-6.11933e-07 -6.07877e-07 0.102434)
(-4.09084e-07 6.27926e-07 0.102401)
(6.26904e-07 -4.11615e-07 0.102401)
(-4.14513e-05 -4.14675e-05 0.102351)
(-6.11562e-07 -6.07198e-07 0.102434)
(-4.09482e-07 6.28309e-07 0.102401)
(6.27254e-07 -4.11974e-07 0.102401)
(-4.1451e-05 -4.14662e-05 0.102351)
(-6.11289e-07 -6.06623e-07 0.102434)
(-4.09006e-07 6.27996e-07 0.102401)
(6.26887e-07 -4.11874e-07 0.102401)
(-4.14506e-05 -4.14655e-05 0.102351)
(-6.12022e-07 -6.07248e-07 0.102434)
(-4.09167e-07 6.27987e-07 0.102401)
(6.27341e-07 -4.12141e-07 0.102401)
(-4.14488e-05 -4.14646e-05 0.102351)
(-6.12318e-07 -6.07567e-07 0.102434)
(-4.07198e-07 6.27115e-07 0.102401)
(6.26625e-07 -4.10667e-07 0.102401)
(-4.14405e-05 -4.14558e-05 0.102351)
(-6.5208e-07 4.37776e-07 0.102401)
(4.31939e-05 -4.31668e-05 0.102353)
(-4.14346e-07 6.30251e-07 0.102401)
(4.14405e-05 4.14194e-05 0.102351)
(-4.31951e-05 -4.31757e-05 0.102353)
(6.50453e-07 4.25901e-07 0.102401)
(-6.50702e-07 4.42811e-07 0.102401)
(6.42747e-07 4.04996e-07 0.102401)
(-6.36044e-07 4.20856e-07 0.102401)
(-4.1445e-05 4.14163e-05 0.102351)
(4.32029e-05 -4.31821e-05 0.102353)
(4.13117e-07 6.34099e-07 0.102401)
(4.28841e-07 -6.4951e-07 0.102401)
(3.94613e-07 6.22798e-07 0.102401)
(4.12412e-07 -6.41866e-07 0.102401)
(-4.27289e-07 -6.45458e-07 0.102401)
(-3.98816e-07 6.14691e-07 0.102401)
(-4.12542e-07 -6.38357e-07 0.102401)
(4.14224e-05 -4.14542e-05 0.102351)
(-4.31708e-05 4.32031e-05 0.102353)
(-6.25545e-07 -4.10673e-07 0.102401)
(6.20525e-07 -3.92706e-07 0.102401)
(-6.17718e-07 -3.95953e-07 0.102401)
(4.31746e-05 4.31918e-05 0.102353)
(4.14287e-05 4.14094e-05 0.102351)
(-4.32174e-05 -4.31988e-05 0.102353)
(6.41627e-07 4.07265e-07 0.102401)
(-6.39645e-07 4.24001e-07 0.102401)
(6.23521e-07 3.77162e-07 0.102401)
(-6.17219e-07 3.84252e-07 0.102401)
(-4.143e-05 4.13977e-05 0.102351)
(4.32332e-05 -4.32016e-05 0.102353)
(3.94185e-07 6.2425e-07 0.102401)
(4.09085e-07 -6.38891e-07 0.102401)
(3.63484e-07 6.07782e-07 0.102401)
(3.8202e-07 -6.22341e-07 0.102401)
(-4.07511e-07 -6.34419e-07 0.102401)
(-3.5845e-07 5.9652e-07 0.102401)
(-3.8001e-07 -6.19359e-07 0.102401)
(4.14101e-05 -4.14434e-05 0.102351)
(-4.31959e-05 4.32293e-05 0.102353)
(-6.13573e-07 -3.91274e-07 0.102401)
(6.0177e-07 -3.60901e-07 0.102401)
(-6.00271e-07 -3.62347e-07 0.102401)
(4.31996e-05 4.32184e-05 0.102353)
(4.14119e-05 4.13964e-05 0.102351)
(-4.32378e-05 -4.32093e-05 0.102353)
(6.14536e-07 3.78055e-07 0.102401)
(-6.33115e-07 4.02901e-07 0.102401)
(6.04216e-07 3.6234e-07 0.102401)
(-5.85719e-07 3.40877e-07 0.102401)
(-4.13984e-05 4.13773e-05 0.102351)
(4.32922e-05 -4.32509e-05 0.102353)
(3.59978e-07 6.00899e-07 0.102401)
(3.75348e-07 -6.14226e-07 0.102401)
(3.41304e-07 5.97708e-07 0.102401)
(3.61217e-07 -6.07005e-07 0.102401)
(-3.74471e-07 -6.10867e-07 0.102401)
(-3.15549e-07 5.6489e-07 0.102401)
(-3.62905e-07 -6.01953e-07 0.102401)
(4.1392e-05 -4.14246e-05 0.102351)
(-4.32112e-05 4.32448e-05 0.102353)
(-5.92665e-07 -3.54442e-07 0.102401)
(5.86907e-07 -3.41479e-07 0.102401)
(-5.90508e-07 -3.3905e-07 0.102401)
(4.32108e-05 4.32364e-05 0.102353)
(4.13794e-05 4.13745e-05 0.102351)
(-4.30816e-05 -4.3051e-05 0.102353)
(5.58365e-07 3.27285e-07 0.102401)
(-6.07046e-07 3.63712e-07 0.102401)
(7.22792e-07 5.46039e-07 0.102401)
(-7.50717e-07 5.52537e-07 0.102401)
(-4.13444e-05 4.13279e-05 0.102351)
(4.30611e-05 -4.30278e-05 0.102353)
(2.94783e-07 5.61599e-07 0.102401)
(3.1502e-07 -5.67341e-07 0.102401)
(5.20406e-07 7.27191e-07 0.102401)
(5.42374e-07 -7.35721e-07 0.102401)
(-3.19411e-07 -5.58244e-07 0.102401)
(-5.31592e-07 7.33438e-07 0.102401)
(-5.47403e-07 -7.21199e-07 0.102401)
(4.13645e-05 -4.13973e-05 0.102351)
(-4.30536e-05 4.30864e-05 0.102353)
(-5.5263e-07 -2.90275e-07 0.102401)
(7.15383e-07 -5.21567e-07 0.102401)
(-7.19763e-07 -5.17431e-07 0.102401)
(4.30527e-05 4.30818e-05 0.102353)
(4.16123e-05 4.16045e-05 0.102351)
(-4.32006e-05 -4.31873e-05 0.102353)
(7.25769e-07 5.65091e-07 0.102401)
(-7.00718e-07 5.29594e-07 0.102401)
(6.45846e-07 4.41214e-07 0.102401)
(-6.34794e-07 4.42933e-07 0.102401)
(-4.16037e-05 4.15745e-05 0.102351)
(4.32193e-05 -4.31937e-05 0.102353)
(5.46619e-07 7.16993e-07 0.102401)
(5.62647e-07 -7.2908e-07 0.102401)
(4.34145e-07 6.23759e-07 0.102401)
(4.5015e-07 -6.39422e-07 0.102401)
(-5.61011e-07 -7.21164e-07 0.102401)
(-4.23643e-07 6.15733e-07 0.102401)
(-4.43914e-07 -6.41663e-07 0.102401)
(4.15987e-05 -4.16303e-05 0.102351)
(-4.31826e-05 4.32185e-05 0.102353)
(-7.0916e-07 -5.39598e-07 0.102401)
(6.1951e-07 -4.29188e-07 0.102401)
(-6.16184e-07 -4.29734e-07 0.102401)
(4.31904e-05 4.32026e-05 0.102353)
(4.14597e-05 4.14369e-05 0.102351)
(-4.32135e-05 -4.31781e-05 0.102353)
(6.35804e-07 4.31693e-07 0.102401)
(-6.37255e-07 4.34986e-07 0.102401)
(6.43415e-07 4.33013e-07 0.102401)
(-6.5211e-07 4.40958e-07 0.102401)
(-4.14516e-05 4.14334e-05 0.102351)
(4.32174e-05 -4.31726e-05 0.102354)
(4.19255e-07 6.20512e-07 0.102401)
(4.31646e-07 -6.33478e-07 0.102401)
(4.07892e-07 6.35695e-07 0.102401)
(4.26478e-07 -6.39671e-07 0.102401)
(-4.27186e-07 -6.34456e-07 0.102401)
(-4.07612e-07 6.40415e-07 0.102401)
(-4.24562e-07 -6.37198e-07 0.102401)
(4.14369e-05 -4.14682e-05 0.102351)
(-4.31884e-05 4.32254e-05 0.102353)
(-6.11154e-07 -4.11778e-07 0.102401)
(6.22021e-07 -4.04107e-07 0.102401)
(-6.20638e-07 -4.04016e-07 0.102401)
(4.31926e-05 4.32125e-05 0.102353)
(4.14574e-05 4.14572e-05 0.102351)
(-4.32126e-05 -4.31756e-05 0.102354)
(6.46374e-07 4.44431e-07 0.102401)
(-6.55038e-07 4.47657e-07 0.102401)
(6.49102e-07 4.30575e-07 0.102401)
(-6.45462e-07 4.37063e-07 0.102401)
(-4.146e-05 4.14546e-05 0.102351)
(4.32205e-05 -4.31837e-05 0.102354)
(4.11528e-07 6.41609e-07 0.102401)
(4.27079e-07 -6.40923e-07 0.102401)
(4.10187e-07 6.3949e-07 0.102401)
(4.28748e-07 -6.43038e-07 0.102401)
(-4.26093e-07 -6.37615e-07 0.102401)
(-4.08032e-07 6.31241e-07 0.102401)
(-4.32392e-07 -6.40054e-07 0.102401)
(4.1439e-05 -4.14678e-05 0.102351)
(-4.31856e-05 4.32228e-05 0.102353)
(-6.21992e-07 -4.05264e-07 0.102401)
(6.26436e-07 -4.04901e-07 0.102401)
(-6.2307e-07 -4.1309e-07 0.102401)
(4.31886e-05 4.32107e-05 0.102353)
(4.14621e-05 4.1451e-05 0.102351)
(-4.32168e-05 -4.3179e-05 0.102354)
(6.49993e-07 4.31226e-07 0.102401)
(-6.34378e-07 4.26191e-07 0.102401)
(6.52186e-07 4.40681e-07 0.102401)
(-6.49914e-07 4.38949e-07 0.102401)
(-4.14441e-05 4.14267e-05 0.102351)
(4.32088e-05 -4.3187e-05 0.102354)
(4.14581e-07 6.36763e-07 0.102401)
(4.2831e-07 -6.43654e-07 0.102401)
(4.16523e-07 6.30837e-07 0.102401)
(4.29617e-07 -6.45055e-07 0.102401)
(-4.31761e-07 -6.40487e-07 0.102401)
(-4.12807e-07 6.32022e-07 0.102401)
(-4.26355e-07 -6.42774e-07 0.102401)
(4.14411e-05 -4.14701e-05 0.102351)
(-4.31848e-05 4.32209e-05 0.102353)
(-6.2251e-07 -4.13756e-07 0.102401)
(6.27417e-07 -4.06937e-07 0.102401)
(-6.23596e-07 -4.08882e-07 0.102401)
(4.31897e-05 4.32085e-05 0.102353)
(4.14592e-05 4.14449e-05 0.102351)
(-4.3216e-05 -4.31823e-05 0.102354)
(6.53601e-07 4.38081e-07 0.102401)
(-6.46935e-07 4.29693e-07 0.102401)
(6.4599e-07 4.27864e-07 0.102401)
(-6.46963e-07 4.28778e-07 0.102401)
(-4.14607e-05 4.14346e-05 0.102351)
(4.32194e-05 -4.31892e-05 0.102354)
(4.1838e-07 6.31449e-07 0.102401)
(4.29167e-07 -6.45119e-07 0.102401)
(4.10866e-07 6.30553e-07 0.102401)
(4.28085e-07 -6.45459e-07 0.102401)
(-4.25229e-07 -6.41962e-07 0.102401)
(-4.09302e-07 6.2713e-07 0.102401)
(-4.25773e-07 -6.41695e-07 0.102401)
(4.14409e-05 -4.14711e-05 0.102351)
(-4.3186e-05 4.32209e-05 0.102353)
(-6.23456e-07 -4.07476e-07 0.102401)
(6.25708e-07 -4.06732e-07 0.102401)
(-6.23685e-07 -4.07468e-07 0.102401)
(4.31902e-05 4.32092e-05 0.102353)
(4.14614e-05 4.14377e-05 0.102351)
(-4.32153e-05 -4.31845e-05 0.102354)
(6.45086e-07 4.23006e-07 0.102401)
(-6.49143e-07 4.30059e-07 0.102401)
(6.46112e-07 4.25862e-07 0.102401)
(-6.50238e-07 4.30349e-07 0.102401)
(-4.14519e-05 4.14337e-05 0.102351)
(4.32157e-05 -4.31893e-05 0.102354)
(4.11841e-07 6.29563e-07 0.102401)
(4.27331e-07 -6.4572e-07 0.102401)
(4.0866e-07 6.28387e-07 0.102401)
(4.27935e-07 -6.46104e-07 0.102401)
(-4.24644e-07 -6.41588e-07 0.102401)
(-4.07606e-07 6.27417e-07 0.102401)
(-4.25619e-07 -6.42759e-07 0.102401)
(4.14397e-05 -4.14708e-05 0.102351)
(-4.31858e-05 4.32203e-05 0.102353)
(-6.23498e-07 -4.06346e-07 0.102401)
(6.25447e-07 -4.07551e-07 0.102401)
(-6.24341e-07 -4.07017e-07 0.102401)
(4.31904e-05 4.32084e-05 0.102353)
(4.14625e-05 4.1437e-05 0.102351)
(-4.32153e-05 -4.31845e-05 0.102354)
(6.46621e-07 4.24475e-07 0.102401)
(-6.50039e-07 4.28852e-07 0.102401)
(6.46743e-07 4.26791e-07 0.102401)
(-6.50843e-07 4.30039e-07 0.102401)
(-4.14547e-05 4.1433e-05 0.102351)
(4.32152e-05 -4.31889e-05 0.102354)
(4.12283e-07 6.29156e-07 0.102401)
(4.27499e-07 -6.45996e-07 0.102401)
(4.0824e-07 6.27865e-07 0.102401)
(4.27594e-07 -6.46011e-07 0.102401)
(-4.24973e-07 -6.42371e-07 0.102401)
(-4.07441e-07 6.27588e-07 0.102401)
(-4.25521e-07 -6.42555e-07 0.102401)
(4.14399e-05 -4.14713e-05 0.102351)
(-4.31861e-05 4.32204e-05 0.102353)
(-6.23993e-07 -4.06087e-07 0.102401)
(6.25076e-07 -4.07616e-07 0.102401)
(-6.23994e-07 -4.05433e-07 0.102401)
(4.31907e-05 4.32089e-05 0.102353)
(4.14624e-05 4.14368e-05 0.102351)
(-4.32156e-05 -4.31851e-05 0.102354)
(6.46358e-07 4.23634e-07 0.102401)
(-6.5042e-07 4.28964e-07 0.102401)
(6.4639e-07 4.2667e-07 0.102401)
(-6.51485e-07 4.30778e-07 0.102401)
(-4.14552e-05 4.14333e-05 0.102351)
(4.32144e-05 -4.31885e-05 0.102354)
(4.11563e-07 6.28013e-07 0.102401)
(4.27e-07 -6.45846e-07 0.102401)
(4.08291e-07 6.27012e-07 0.102401)
(4.27871e-07 -6.46435e-07 0.102401)
(-4.24682e-07 -6.42203e-07 0.102401)
(-4.08033e-07 6.27765e-07 0.102401)
(-4.25731e-07 -6.42892e-07 0.102401)
(4.14394e-05 -4.14713e-05 0.102351)
(-4.31858e-05 4.32198e-05 0.102353)
(-6.23883e-07 -4.06213e-07 0.102401)
(6.25249e-07 -4.08261e-07 0.102401)
(-6.24458e-07 -4.07881e-07 0.102401)
(4.31898e-05 4.32081e-05 0.102353)
(4.14625e-05 4.14365e-05 0.102351)
(-4.32151e-05 -4.31844e-05 0.102354)
(6.46697e-07 4.24203e-07 0.102401)
(-6.51314e-07 4.29987e-07 0.102401)
(6.47431e-07 4.27257e-07 0.102401)
(-6.51662e-07 4.31177e-07 0.102401)
(-4.14562e-05 4.14341e-05 0.102351)
(4.32142e-05 -4.3188e-05 0.102354)
(4.12088e-07 6.27714e-07 0.102401)
(4.27593e-07 -6.46544e-07 0.102401)
(4.09199e-07 6.27515e-07 0.102401)
(4.28455e-07 -6.46713e-07 0.102401)
(-4.25087e-07 -6.4266e-07 0.102401)
(-4.083e-07 6.28119e-07 0.102401)
(-4.26085e-07 -6.43334e-07 0.102401)
(4.144e-05 -4.1472e-05 0.102351)
(-4.31856e-05 4.32198e-05 0.102353)
(-6.24349e-07 -4.07834e-07 0.102401)
(6.25782e-07 -4.08803e-07 0.102401)
(-6.24916e-07 -4.08919e-07 0.102401)
(4.31891e-05 4.32078e-05 0.102353)
(4.14635e-05 4.14376e-05 0.102351)
(-4.32137e-05 -4.31816e-05 0.102354)
(6.4759e-07 4.24571e-07 0.102401)
(-6.51201e-07 4.30213e-07 0.102401)
(6.48613e-07 4.28475e-07 0.102401)
(-6.51374e-07 4.31632e-07 0.102401)
(-4.14564e-05 4.14347e-05 0.102351)
(4.32141e-05 -4.31873e-05 0.102354)
(4.1263e-07 6.28123e-07 0.102401)
(4.28096e-07 -6.46644e-07 0.102401)
(4.09222e-07 6.28221e-07 0.102401)
(4.28793e-07 -6.46559e-07 0.102401)
(-4.2516e-07 -6.42888e-07 0.102401)
(-4.08265e-07 6.28389e-07 0.102401)
(-4.25862e-07 -6.43311e-07 0.102401)
(4.14406e-05 -4.14724e-05 0.102351)
(-4.31842e-05 4.32187e-05 0.102353)
(-6.24519e-07 -4.08472e-07 0.102401)
(6.26104e-07 -4.09015e-07 0.102401)
(-6.24949e-07 -4.09248e-07 0.102401)
(4.31887e-05 4.32066e-05 0.102353)
(4.14624e-05 4.14381e-05 0.102351)
(-4.32137e-05 -4.31816e-05 0.102354)
(6.48692e-07 4.25988e-07 0.102401)
(-6.51475e-07 4.30905e-07 0.102401)
(6.48338e-07 4.28556e-07 0.102401)
(-6.51421e-07 4.31889e-07 0.102401)
(-4.14557e-05 4.14341e-05 0.102351)
(4.32152e-05 -4.3188e-05 0.102354)
(4.12813e-07 6.29006e-07 0.102401)
(4.28497e-07 -6.46632e-07 0.102401)
(4.08985e-07 6.28214e-07 0.102401)
(4.28532e-07 -6.46334e-07 0.102401)
(-4.25465e-07 -6.43076e-07 0.102401)
(-4.0893e-07 6.28859e-07 0.102401)
(-4.26245e-07 -6.43548e-07 0.102401)
(4.14397e-05 -4.14712e-05 0.102351)
(-4.31841e-05 4.32187e-05 0.102353)
(-6.2499e-07 -4.09029e-07 0.102401)
(6.25865e-07 -4.08817e-07 0.102401)
(-6.25093e-07 -4.09406e-07 0.102401)
(4.31881e-05 4.3206e-05 0.102353)
(4.14613e-05 4.14369e-05 0.102351)
(-4.32131e-05 -4.31809e-05 0.102354)
(6.48558e-07 4.26268e-07 0.102401)
(-6.512e-07 4.30832e-07 0.102401)
(6.47841e-07 4.28105e-07 0.102401)
(-6.50599e-07 4.31066e-07 0.102401)
(-4.14568e-05 4.1435e-05 0.102351)
(4.3214e-05 -4.31871e-05 0.102354)
(4.12862e-07 6.29033e-07 0.102401)
(4.2828e-07 -6.46246e-07 0.102401)
(4.08345e-07 6.27693e-07 0.102401)
(4.27965e-07 -6.4587e-07 0.102401)
(-4.25354e-07 -6.43075e-07 0.102401)
(-4.07673e-07 6.27994e-07 0.102401)
(-4.25288e-07 -6.42624e-07 0.102401)
(4.14384e-05 -4.14699e-05 0.102351)
(-4.31835e-05 4.3218e-05 0.102353)
(-6.24945e-07 -4.0938e-07 0.102401)
(6.25385e-07 -4.08285e-07 0.102401)
(-6.24639e-07 -4.08778e-07 0.102401)
(4.31874e-05 4.32059e-05 0.102353)
(4.14602e-05 4.14358e-05 0.102351)
(-4.32082e-05 -4.31759e-05 0.102354)
(6.48327e-07 4.26151e-07 0.102401)
(-6.5163e-07 4.30989e-07 0.102401)
(6.4725e-07 4.27181e-07 0.102401)
(-6.49957e-07 4.30798e-07 0.102401)
(-4.14544e-05 4.14328e-05 0.102351)
(4.32099e-05 -4.31829e-05 0.102354)
(4.12739e-07 6.28939e-07 0.102401)
(4.28596e-07 -6.46796e-07 0.102401)
(4.07419e-07 6.27386e-07 0.102401)
(4.27125e-07 -6.45453e-07 0.102401)
(-4.25283e-07 -6.429e-07 0.102401)
(-4.08178e-07 6.28005e-07 0.102401)
(-4.25257e-07 -6.42406e-07 0.102401)
(4.14377e-05 -4.14692e-05 0.102351)
(-4.31786e-05 4.32131e-05 0.102353)
(-6.25003e-07 -4.09284e-07 0.102401)
(6.24929e-07 -4.07259e-07 0.102401)
(-6.24351e-07 -4.07899e-07 0.102401)
(4.31818e-05 4.32006e-05 0.102353)
(4.14516e-05 4.14275e-05 0.102351)
(6.48023e-07 4.249e-07 0.102401)
(-6.51515e-07 4.29428e-07 0.102401)
(-4.14485e-05 4.14265e-05 0.102351)
(4.11381e-07 6.28693e-07 0.102401)
(4.26833e-07 -6.46048e-07 0.102401)
(-4.23642e-07 -6.42361e-07 0.102401)
(4.14288e-05 -4.14603e-05 0.102351)
(-6.24891e-07 -4.08199e-07 0.102401)
(5.77589e-08 -8.71993e-06 0.10071)
(7.26284e-07 6.44269e-06 0.0945484)
(-4.86241e-08 8.482e-06 0.100702)
(-1.07911e-06 -6.38097e-06 0.0945607)
(-1.79063e-06 2.49359e-06 0.0831637)
(1.71958e-06 -2.47745e-06 0.0831766)
(-8.77255e-06 4.37104e-08 0.100709)
(6.39064e-06 6.7957e-07 0.0945475)
(8.54642e-06 -3.81512e-08 0.100702)
(-6.32004e-06 -1.03993e-06 0.0945613)
(6.21104e-07 -5.98184e-07 0.102434)
(-6.05248e-07 6.1111e-07 0.102434)
(6.08185e-07 6.03638e-07 0.102434)
(-6.17465e-07 -6.19068e-07 0.102434)
(6.32e-07 -6.12779e-07 0.102434)
(-6.14317e-07 6.20269e-07 0.102434)
(6.17417e-07 6.11727e-07 0.102434)
(1.41178e-05 3.93461e-08 0.102068)
(-1.36342e-05 3.93275e-06 0.100986)
(-5.24156e-07 -1.69636e-07 0.102425)
(-4.14018e-07 6.23628e-07 0.102401)
(-1.42086e-05 -5.38134e-08 0.102065)
(1.30937e-05 -4.2583e-06 0.100998)
(-5.19914e-07 -1.73455e-07 0.102425)
(2.41976e-06 -1.73682e-06 0.0831611)
(-2.33995e-06 1.64719e-06 0.0831768)
(5.34103e-08 1.41276e-05 0.102068)
(-1.69754e-07 -5.15078e-07 0.102425)
(3.97289e-06 -1.36939e-05 0.100986)
(6.2811e-07 -4.08591e-07 0.102401)
(-5.50346e-08 -1.42214e-05 0.102065)
(-1.70661e-07 -5.0827e-07 0.102425)
(-4.27703e-06 1.31307e-05 0.100997)
(-4.25967e-06 -5.20521e-06 0.0989697)
(-5.1923e-06 -4.25445e-06 0.0989691)
(4.31684e-05 4.31858e-05 0.102353)
(4.0489e-06 5.04161e-06 0.0989822)
(5.03603e-06 4.04006e-06 0.0989815)
(5.41327e-08 -8.7592e-06 0.10071)
(7.30967e-07 6.38897e-06 0.0945488)
(-4.64708e-08 8.43895e-06 0.100702)
(-1.05925e-06 -6.42903e-06 0.0945612)
(-1.74995e-06 2.40506e-06 0.0831642)
(1.77052e-06 -2.54643e-06 0.0831775)
(-8.81258e-06 3.92181e-08 0.100709)
(6.33467e-06 6.85495e-07 0.0945479)
(8.50043e-06 -3.85987e-08 0.100702)
(-6.37233e-06 -1.01798e-06 0.0945618)
(6.33234e-07 -6.1489e-07 0.102434)
(-6.16632e-07 6.22585e-07 0.102434)
(6.20436e-07 6.14915e-07 0.102434)
(-6.35083e-07 -6.31501e-07 0.102434)
(6.35774e-07 -6.29094e-07 0.102434)
(-6.28667e-07 6.34452e-07 0.102434)
(6.29512e-07 6.29834e-07 0.102434)
(1.41662e-05 3.7235e-08 0.102068)
(-1.35907e-05 3.89193e-06 0.100986)
(-4.95663e-07 -1.78608e-07 0.102425)
(-3.94296e-07 6.17799e-07 0.102401)
(-1.4153e-05 -5.78847e-08 0.102065)
(1.31459e-05 -4.29698e-06 0.100998)
(-4.9041e-07 -1.81148e-07 0.102425)
(2.31485e-06 -1.68564e-06 0.0831613)
(-2.42483e-06 1.66198e-06 0.0831775)
(4.9971e-08 1.4175e-05 0.102068)
(-1.75246e-07 -4.88746e-07 0.102425)
(3.9383e-06 -1.36377e-05 0.100986)
(6.21365e-07 -3.94051e-07 0.102401)
(-5.7928e-08 -1.41626e-05 0.102065)
(-1.77499e-07 -4.85152e-07 0.102425)
(-4.31325e-06 1.31777e-05 0.100997)
(-4.27294e-06 -5.20121e-06 0.0989698)
(-5.18859e-06 -4.26865e-06 0.0989692)
(4.31835e-05 4.32007e-05 0.102353)
(4.02388e-06 5.04776e-06 0.0989822)
(5.04022e-06 4.01597e-06 0.0989815)
(2.7351e-08 -8.79085e-06 0.10071)
(7.44806e-07 6.35486e-06 0.0945493)
(-5.00127e-08 8.38212e-06 0.100702)
(-1.06993e-06 -6.45296e-06 0.0945617)
(-1.70791e-06 2.37571e-06 0.0831653)
(1.70735e-06 -2.56244e-06 0.0831793)
(-8.85462e-06 2.85159e-08 0.100709)
(6.30289e-06 7.0103e-07 0.0945484)
(8.44918e-06 -3.98654e-08 0.100702)
(-6.39973e-06 -1.02086e-06 0.0945623)
(6.36262e-07 -6.29879e-07 0.102434)
(-6.2977e-07 6.35065e-07 0.102434)
(6.2912e-07 6.3226e-07 0.102434)
(-6.45463e-07 -6.33164e-07 0.102434)
(6.46998e-07 -6.43037e-07 0.102434)
(-6.38352e-07 6.43499e-07 0.102434)
(6.33409e-07 6.41851e-07 0.102434)
(1.42024e-05 3.41336e-08 0.102068)
(-1.3531e-05 3.84877e-06 0.100986)
(-4.54316e-07 -1.82565e-07 0.102425)
(-3.87251e-07 6.35298e-07 0.102401)
(-1.41038e-05 -5.93239e-08 0.102065)
(1.31914e-05 -4.34634e-06 0.100998)
(-4.6828e-07 -1.82259e-07 0.102425)
(2.28065e-06 -1.70725e-06 0.0831626)
(-2.48002e-06 1.75375e-06 0.0831789)
(4.17698e-08 1.42137e-05 0.102068)
(-1.82719e-07 -4.47296e-07 0.102425)
(3.89334e-06 -1.35903e-05 0.100986)
(6.11851e-07 -3.78385e-07 0.102401)
(-6.3224e-08 -1.41151e-05 0.102065)
(-1.88537e-07 -4.6132e-07 0.102425)
(-4.37704e-06 1.32344e-05 0.100997)
(-4.26036e-06 -5.19146e-06 0.0989697)
(-5.18007e-06 -4.25193e-06 0.0989691)
(4.32246e-05 4.32462e-05 0.102353)
(4.05183e-06 5.10013e-06 0.0989822)
(5.08984e-06 4.04666e-06 0.0989815)
(-5.52449e-08 -8.8124e-06 0.10071)
(7.38071e-07 6.35217e-06 0.0945501)
(-7.5162e-08 8.36163e-06 0.100702)
(-1.11212e-06 -6.47071e-06 0.0945625)
(-1.62347e-06 2.33946e-06 0.0831674)
(1.58181e-06 -2.53199e-06 0.0831819)
(-8.90811e-06 6.71562e-09 0.100709)
(6.29663e-06 7.11201e-07 0.0945492)
(8.41808e-06 -4.99457e-08 0.100702)
(-6.43251e-06 -1.02782e-06 0.0945631)
(6.46926e-07 -6.34887e-07 0.102434)
(-6.52293e-07 6.57527e-07 0.102434)
(6.43038e-07 6.61064e-07 0.102434)
(-5.5701e-07 -5.38703e-07 0.102434)
(5.11716e-07 -5.11451e-07 0.102434)
(-5.47061e-07 5.52121e-07 0.102434)
(5.39454e-07 5.53062e-07 0.102434)
(1.42467e-05 6.42737e-08 0.102068)
(-1.34791e-05 3.76814e-06 0.100986)
(-4.14552e-07 -1.78661e-07 0.102425)
(-3.87372e-07 6.78878e-07 0.102401)
(-1.40931e-05 -5.36985e-08 0.102065)
(1.31957e-05 -4.25154e-06 0.100998)
(-4.50676e-07 -1.48545e-07 0.102425)
(2.30444e-06 -1.64003e-06 0.0831642)
(-2.55602e-06 1.79295e-06 0.0831811)
(3.51227e-08 1.42772e-05 0.102068)
(-1.93978e-07 -3.94408e-07 0.102425)
(3.87077e-06 -1.35582e-05 0.100986)
(5.82361e-07 -3.32722e-07 0.102401)
(-6.90684e-08 -1.41023e-05 0.102065)
(-1.97372e-07 -4.09528e-07 0.102425)
(-4.42625e-06 1.32905e-05 0.100997)
(-4.26423e-06 -5.13583e-06 0.0989697)
(-5.13362e-06 -4.25265e-06 0.0989692)
(4.32764e-05 4.331e-05 0.102353)
(4.15265e-06 5.14785e-06 0.0989823)
(5.12463e-06 4.15745e-06 0.0989816)
(6.77854e-08 -8.40951e-06 0.10071)
(8.05628e-07 6.77483e-06 0.0945507)
(-3.80606e-08 8.65311e-06 0.100701)
(-9.61857e-07 -5.70886e-06 0.0945622)
(-1.93721e-06 2.73496e-06 0.0831657)
(1.72002e-06 -2.22729e-06 0.0831778)
(-8.46064e-06 8.3527e-09 0.100709)
(6.71583e-06 7.53306e-07 0.0945498)
(8.71383e-06 1.27157e-09 0.100702)
(-5.66634e-06 -9.44216e-07 0.0945627)
(5.19655e-07 -5.26142e-07 0.102434)
(-5.17138e-07 5.22264e-07 0.102434)
(5.15021e-07 5.18642e-07 0.102434)
(-5.91984e-07 -5.92226e-07 0.102434)
(6.09973e-07 -6.06535e-07 0.102434)
(-5.88769e-07 5.9371e-07 0.102434)
(5.91514e-07 5.88633e-07 0.102434)
(1.36848e-05 3.46473e-08 0.102068)
(-1.3925e-05 4.15725e-06 0.100986)
(-6.78989e-07 -1.33333e-07 0.102425)
(-4.88556e-07 6.31039e-07 0.102401)
(-1.45236e-05 5.41361e-09 0.102065)
(1.28081e-05 -4.06204e-06 0.100998)
(-6.55091e-07 -1.62201e-07 0.102425)
(2.66379e-06 -1.93698e-06 0.083165)
(-2.08677e-06 1.5898e-06 0.0831787)
(7.04207e-08 1.36927e-05 0.102068)
(-1.36195e-07 -6.82953e-07 0.102425)
(4.13278e-06 -1.39237e-05 0.100986)
(6.7204e-07 -5.08326e-07 0.102401)
(-3.50539e-08 -1.45266e-05 0.102065)
(-1.39269e-07 -6.61576e-07 0.102425)
(-3.99783e-06 1.28113e-05 0.100997)
(-4.41779e-06 -5.33875e-06 0.0989697)
(-5.32901e-06 -4.40997e-06 0.0989691)
(4.30919e-05 4.31063e-05 0.102353)
(3.95271e-06 5.02385e-06 0.098982)
(5.01837e-06 3.94105e-06 0.0989813)
(4.21021e-08 -8.67774e-06 0.10071)
(7.61155e-07 6.62308e-06 0.0945487)
(-4.75682e-08 8.56705e-06 0.100702)
(-1.04009e-06 -6.26136e-06 0.0945608)
(-1.69367e-06 2.44493e-06 0.0831629)
(1.70309e-06 -2.40571e-06 0.0831771)
(-8.73716e-06 3.63968e-08 0.100709)
(6.59014e-06 7.24611e-07 0.0945478)
(8.63486e-06 -5.56229e-08 0.100702)
(-6.22341e-06 -1.0054e-06 0.0945612)
(6.16834e-07 -6.11087e-07 0.102434)
(-6.04844e-07 6.09368e-07 0.102434)
(6.06317e-07 6.05526e-07 0.102434)
(-6.13698e-07 -6.01708e-07 0.102434)
(6.1163e-07 -6.00578e-07 0.102434)
(-6.09077e-07 6.16817e-07 0.102434)
(6.08886e-07 6.13127e-07 0.102434)
(1.40813e-05 4.21584e-08 0.102069)
(-1.36986e-05 3.97511e-06 0.100986)
(-5.38801e-07 -1.74088e-07 0.102425)
(-4.07358e-07 6.28697e-07 0.102401)
(-1.42977e-05 -6.86098e-08 0.102065)
(1.30701e-05 -4.2286e-06 0.100998)
(-5.23246e-07 -1.70081e-07 0.102425)
(2.44024e-06 -1.68692e-06 0.0831613)
(-2.33909e-06 1.6757e-06 0.0831769)
(5.06798e-08 1.40881e-05 0.102068)
(-1.69148e-07 -5.41365e-07 0.102425)
(4.04874e-06 -1.37715e-05 0.100986)
(6.15378e-07 -4.05656e-07 0.102401)
(-5.6872e-08 -1.4318e-05 0.102065)
(-1.71682e-07 -5.18761e-07 0.102425)
(-4.26608e-06 1.3105e-05 0.100997)
(-4.27284e-06 -5.18594e-06 0.0989696)
(-5.17119e-06 -4.26921e-06 0.098969)
(4.31996e-05 4.32161e-05 0.102353)
(4.02687e-06 5.06264e-06 0.0989821)
(5.0561e-06 4.01914e-06 0.0989814)
(5.4205e-08 -8.6962e-06 0.10071)
(7.93076e-07 6.50234e-06 0.0945483)
(-5.11282e-08 8.48212e-06 0.100702)
(-9.20236e-07 -6.25396e-06 0.0945608)
(-1.85632e-06 2.53916e-06 0.0831635)
(1.66995e-06 -2.42536e-06 0.0831763)
(-8.76321e-06 4.09948e-08 0.100709)
(6.44697e-06 7.17647e-07 0.0945476)
(8.53451e-06 -3.72231e-08 0.100702)
(-6.2701e-06 -1.00195e-06 0.0945611)
(6.09304e-07 -5.96509e-07 0.102434)
(-6.07628e-07 6.16337e-07 0.102434)
(6.09109e-07 6.12003e-07 0.102434)
(-6.04717e-07 -5.9607e-07 0.102434)
(6.13844e-07 -5.99968e-07 0.102434)
(-6.03996e-07 6.15414e-07 0.102434)
(6.12959e-07 6.03353e-07 0.102434)
(1.40921e-05 5.09515e-08 0.102069)
(-1.36349e-05 3.94637e-06 0.100986)
(-5.17611e-07 -1.59914e-07 0.102425)
(-4.09322e-07 6.44495e-07 0.102401)
(-1.42189e-05 -4.43436e-08 0.102065)
(1.3085e-05 -4.22204e-06 0.100998)
(-5.16109e-07 -1.59865e-07 0.102425)
(2.37186e-06 -1.70845e-06 0.0831611)
(-2.35481e-06 1.6596e-06 0.0831769)
(5.18812e-08 1.41043e-05 0.102068)
(-1.70565e-07 -5.12982e-07 0.102425)
(3.96606e-06 -1.36865e-05 0.100986)
(6.25108e-07 -4.04774e-07 0.102401)
(-5.6682e-08 -1.423e-05 0.102065)
(-1.70661e-07 -5.07027e-07 0.102425)
(-4.27524e-06 1.31251e-05 0.100997)
(-4.27471e-06 -5.19757e-06 0.0989697)
(-5.18875e-06 -4.26702e-06 0.0989691)
(4.31909e-05 4.32127e-05 0.102353)
(4.02827e-06 5.05763e-06 0.0989821)
(5.04751e-06 4.02247e-06 0.0989814)
(5.91468e-08 -8.70435e-06 0.10071)
(7.47463e-07 6.46152e-06 0.0945484)
(-4.81434e-08 8.47861e-06 0.100702)
(-1.00801e-06 -6.27666e-06 0.0945609)
(-1.72458e-06 2.47167e-06 0.0831636)
(1.84318e-06 -2.52326e-06 0.0831762)
(-8.76301e-06 3.81806e-08 0.100709)
(6.45853e-06 7.21241e-07 0.0945477)
(8.53316e-06 -3.80036e-08 0.100702)
(-6.28616e-06 -1.01438e-06 0.0945609)
(6.16925e-07 -6.06654e-07 0.102435)
(-6.03354e-07 6.14668e-07 0.102434)
(6.14077e-07 6.01633e-07 0.102434)
(-5.99188e-07 -5.9995e-07 0.102435)
(6.1587e-07 -6.09517e-07 0.102434)
(-6.03067e-07 6.11614e-07 0.102434)
(6.07798e-07 6.04271e-07 0.102434)
(1.40895e-05 4.12603e-08 0.102069)
(-1.36399e-05 3.92709e-06 0.100986)
(-5.17006e-07 -1.69186e-07 0.102425)
(-4.0772e-07 6.16352e-07 0.102401)
(-1.42214e-05 -5.12089e-08 0.102065)
(1.30752e-05 -4.24995e-06 0.100998)
(-5.14757e-07 -1.73393e-07 0.102425)
(2.37199e-06 -1.71055e-06 0.0831612)
(-2.35459e-06 1.65863e-06 0.0831769)
(5.18767e-08 1.41022e-05 0.102068)
(-1.70226e-07 -5.157e-07 0.102425)
(3.96939e-06 -1.36862e-05 0.100986)
(6.27037e-07 -4.05528e-07 0.102401)
(-5.63919e-08 -1.42316e-05 0.102065)
(-1.70697e-07 -5.10703e-07 0.102425)
(-4.27377e-06 1.31246e-05 0.100997)
(-4.27362e-06 -5.19914e-06 0.0989697)
(-5.1889e-06 -4.26714e-06 0.0989691)
(4.31899e-05 4.32102e-05 0.102353)
(4.02952e-06 5.05574e-06 0.0989822)
(5.0484e-06 4.02216e-06 0.0989814)
(5.74966e-08 -8.70383e-06 0.10071)
(8.08571e-07 6.48953e-06 0.0945481)
(-4.25454e-08 8.48055e-06 0.100702)
(-1.00987e-06 -6.2343e-06 0.0945611)
(-1.72701e-06 2.30251e-06 0.0831637)
(1.70792e-06 -2.55146e-06 0.0831764)
(-8.76241e-06 3.44553e-08 0.100709)
(6.48735e-06 7.23683e-07 0.094548)
(8.53362e-06 -4.18225e-08 0.100702)
(-6.29971e-06 -1.02347e-06 0.0945607)
(6.11068e-07 -6.05943e-07 0.102434)
(-6.03875e-07 6.10724e-07 0.102434)
(6.07186e-07 6.05249e-07 0.102434)
(-6.08795e-07 -6.06417e-07 0.102434)
(6.11363e-07 -6.0557e-07 0.102434)
(-6.05886e-07 6.11208e-07 0.102434)
(6.06951e-07 6.0578e-07 0.102434)
(1.40899e-05 4.48003e-08 0.102069)
(-1.36392e-05 3.93961e-06 0.100986)
(-5.18727e-07 -1.68986e-07 0.102425)
(-4.11865e-07 6.2974e-07 0.102401)
(-1.42215e-05 -5.06809e-08 0.102065)
(1.30811e-05 -4.23489e-06 0.100998)
(-5.18038e-07 -1.68851e-07 0.102425)
(2.37162e-06 -1.71193e-06 0.0831612)
(-2.35527e-06 1.6573e-06 0.0831769)
(5.15145e-08 1.41011e-05 0.102068)
(-1.70323e-07 -5.16614e-07 0.102425)
(3.96905e-06 -1.36871e-05 0.100986)
(6.26677e-07 -4.07391e-07 0.102401)
(-5.64652e-08 -1.42334e-05 0.102065)
(-1.71188e-07 -5.09859e-07 0.102425)
(-4.27403e-06 1.3124e-05 0.100997)
(-4.27281e-06 -5.20024e-06 0.0989697)
(-5.18902e-06 -4.26693e-06 0.0989691)
(4.31911e-05 4.32101e-05 0.102353)
(4.02937e-06 5.05622e-06 0.0989822)
(5.04891e-06 4.02255e-06 0.0989814)
(4.32716e-08 -8.70555e-06 0.10071)
(7.42611e-07 6.44017e-06 0.094548)
(-5.53794e-08 8.47634e-06 0.100702)
(-1.03063e-06 -6.25289e-06 0.0945611)
(-1.78192e-06 2.46794e-06 0.0831638)
(1.71653e-06 -2.47444e-06 0.0831766)
(-8.76253e-06 3.20812e-08 0.100709)
(6.48881e-06 7.24157e-07 0.094548)
(8.53383e-06 -4.39944e-08 0.100702)
(-6.29383e-06 -1.02086e-06 0.0945609)
(6.11131e-07 -6.08005e-07 0.102434)
(-6.06161e-07 6.10895e-07 0.102434)
(6.06891e-07 6.07113e-07 0.102434)
(-6.11269e-07 -6.07106e-07 0.102434)
(6.10434e-07 -6.09362e-07 0.102434)
(-6.06405e-07 6.1017e-07 0.102434)
(6.05942e-07 6.07511e-07 0.102434)
(1.40905e-05 4.40195e-08 0.102069)
(-1.36411e-05 3.9341e-06 0.100986)
(-5.15764e-07 -1.70206e-07 0.102425)
(-4.08919e-07 6.27634e-07 0.102401)
(-1.42212e-05 -5.16029e-08 0.102065)
(1.30792e-05 -4.23678e-06 0.100998)
(-5.13784e-07 -1.69889e-07 0.102425)
(2.37115e-06 -1.71283e-06 0.0831612)
(-2.35562e-06 1.6565e-06 0.0831769)