/*--------------------------------*- C++ -*----------------------------------*\
| =========                 |                                                 |
| \\      /  F ield         | OpenFOAM: The Open Source CFD Toolbox           |
|  \\    /   O peration     | Version:  2206                                  |
|   \\  /    A nd           | Website:  www.openfoam.com                      |
|    \\/     M anipulation  |                                                 |
\*---------------------------------------------------------------------------*/
FoamFile
{
    version     2.0;
    format      ascii;
    arch        "LSB;label=32;scalar=64";
    class       volScalarField;
    location    "33";
    object      k;
}
// * * * * * * * * * * * * * * * * * * * * * * * * * * * * * * * * * * * * * //

dimensions      [0 2 -2 0 0 0 0];

internalField   nonuniform List<scalar> 
28688
(
3.58933e-05
3.58912e-05
3.58912e-05
3.59955e-05
3.39304e-05
3.38895e-05
3.38895e-05
3.39621e-05
3.21606e-05
3.20096e-05
3.20096e-05
3.19524e-05
3.05333e-05
3.02273e-05
3.02272e-05
2.99878e-05
2.90232e-05
2.85489e-05
2.85488e-05
2.81247e-05
2.76672e-05
2.70109e-05
2.70107e-05
2.63983e-05
2.62493e-05
2.54561e-05
2.54559e-05
2.47958e-05
2.52103e-05
2.43554e-05
2.43552e-05
2.3541e-05
2.49751e-05
2.42537e-05
2.42535e-05
2.35302e-05
2.49598e-05
2.42832e-05
2.42831e-05
2.36126e-05
2.49601e-05
2.42878e-05
2.42876e-05
2.36219e-05
2.49603e-05
2.42885e-05
2.42883e-05
2.36231e-05
3.6307e-05
3.62909e-05
3.6291e-05
3.6307e-05
3.6291e-05
3.6291e-05
3.64231e-05
3.64231e-05
3.64231e-05
3.64231e-05
3.6291e-05
3.62909e-05
3.6307e-05
3.6291e-05
3.6291e-05
3.6307e-05
3.59955e-05
3.4269e-05
3.58913e-05
3.58912e-05
3.4377e-05
3.43769e-05
3.59955e-05
3.4269e-05
3.58912e-05
3.58913e-05
3.4377e-05
3.43769e-05
3.58913e-05
3.4377e-05
3.4377e-05
3.59955e-05
3.4269e-05
3.58912e-05
3.4377e-05
3.4377e-05
3.4269e-05
3.39621e-05
3.22634e-05
3.38894e-05
3.38894e-05
3.24683e-05
3.24682e-05
3.39621e-05
3.22635e-05
3.38895e-05
3.38894e-05
3.24683e-05
3.24681e-05
3.38894e-05
3.24684e-05
3.24682e-05
3.39621e-05
3.22634e-05
3.38895e-05
3.24684e-05
3.24683e-05
3.22634e-05
3.19525e-05
3.02973e-05
3.20095e-05
3.20094e-05
3.06609e-05
3.06607e-05
3.19525e-05
3.02974e-05
3.20095e-05
3.20093e-05
3.0661e-05
3.06607e-05
3.20094e-05
3.06612e-05
3.06608e-05
3.19524e-05
3.02972e-05
3.20095e-05
3.06611e-05
3.0661e-05
3.02972e-05
2.99879e-05
2.8427e-05
3.0227e-05
3.02269e-05
2.89663e-05
2.89661e-05
2.99879e-05
2.84272e-05
3.02272e-05
3.02268e-05
2.89665e-05
2.8966e-05
3.0227e-05
2.89667e-05
2.89662e-05
2.99878e-05
2.84269e-05
3.02271e-05
2.89666e-05
2.89665e-05
2.84268e-05
2.81248e-05
2.66741e-05
2.85485e-05
2.85483e-05
2.73704e-05
2.73702e-05
2.81249e-05
2.66742e-05
2.85487e-05
2.85481e-05
2.73707e-05
2.737e-05
2.85484e-05
2.7371e-05
2.73703e-05
2.81247e-05
2.6674e-05
2.85487e-05
2.73709e-05
2.73707e-05
2.66739e-05
2.63985e-05
2.50646e-05
2.70103e-05
2.70101e-05
2.58691e-05
2.58689e-05
2.63986e-05
2.50649e-05
2.70106e-05
2.70099e-05
2.58695e-05
2.58687e-05
2.70102e-05
2.58698e-05
2.5869e-05
2.63983e-05
2.50645e-05
2.70106e-05
2.58697e-05
2.58695e-05
2.50644e-05
2.4796e-05
2.36384e-05
2.54554e-05
2.54551e-05
2.45044e-05
2.45041e-05
2.47961e-05
2.36386e-05
2.54558e-05
2.54549e-05
2.45048e-05
2.45039e-05
2.54553e-05
2.45051e-05
2.45043e-05
2.47958e-05
2.36382e-05
2.54557e-05
2.45049e-05
2.45048e-05
2.36381e-05
2.35413e-05
2.35216e-05
2.43548e-05
2.43545e-05
2.42505e-05
2.42503e-05
2.35414e-05
2.35217e-05
2.43551e-05
2.43542e-05
2.42509e-05
2.42501e-05
2.43547e-05
2.42511e-05
2.42504e-05
2.35411e-05
2.35214e-05
2.43552e-05
2.42509e-05
2.42509e-05
2.35213e-05
2.35305e-05
2.3615e-05
2.42532e-05
2.4253e-05
2.42791e-05
2.42789e-05
2.35306e-05
2.3615e-05
2.42536e-05
2.42528e-05
2.42795e-05
2.42787e-05
2.42531e-05
2.42796e-05
2.42791e-05
2.35303e-05
2.36147e-05
2.42536e-05
2.42795e-05
2.42796e-05
2.3615e-05
2.36127e-05
2.36259e-05
2.42829e-05
2.42827e-05
2.42869e-05
2.42868e-05
2.36127e-05
2.36258e-05
2.42833e-05
2.42824e-05
2.42873e-05
2.42865e-05
2.42829e-05
2.42874e-05
2.42869e-05
2.36124e-05
2.36255e-05
2.42834e-05
2.42873e-05
2.42874e-05
2.36259e-05
2.36221e-05
2.36273e-05
2.42873e-05
2.42872e-05
2.42878e-05
2.42877e-05
2.36221e-05
2.36272e-05
2.42878e-05
2.42869e-05
2.42883e-05
2.42874e-05
2.42874e-05
2.42883e-05
2.42879e-05
2.36218e-05
2.36269e-05
2.42879e-05
2.42882e-05
2.42884e-05
2.36272e-05
2.36233e-05
2.36277e-05
2.4288e-05
2.42879e-05
2.42882e-05
2.36232e-05
2.42885e-05
2.42876e-05
2.42887e-05
2.42878e-05
2.4288e-05
2.42883e-05
2.36229e-05
2.36272e-05
2.42885e-05
2.42886e-05
2.42888e-05
2.36277e-05
3.73773e-05
3.73765e-05
3.7377e-05
3.7377e-05
3.73702e-05
3.73777e-05
3.73043e-05
3.73768e-05
3.73702e-05
3.73777e-05
3.73768e-05
3.73043e-05
3.73742e-05
3.72959e-05
3.72959e-05
3.5883e-05
4.08817e-05
3.66019e-05
4.51362e-05
5.5115e-05
6.48782e-05
3.58832e-05
4.0881e-05
3.66022e-05
4.51359e-05
3.58934e-05
3.58934e-05
3.58934e-05
3.44013e-05
3.44013e-05
3.44013e-05
3.44013e-05
3.52767e-05
3.56348e-05
3.5893e-05
3.53769e-05
3.60471e-05
3.42434e-05
3.53819e-05
5.5117e-05
6.48819e-05
3.52768e-05
3.5893e-05
3.56344e-05
3.53769e-05
3.6047e-05
3.53819e-05
3.42445e-05
3.65911e-05
3.65916e-05
3.52792e-05
3.40752e-05
3.40744e-05
3.39733e-05
5.13628e-05
3.46731e-05
5.4613e-05
7.65629e-05
8.08468e-05
3.39757e-05
5.13638e-05
3.46728e-05
5.46133e-05
3.39304e-05
3.39304e-05
3.39304e-05
3.25859e-05
3.25859e-05
3.25859e-05
3.25859e-05
3.3056e-05
3.24676e-05
3.393e-05
3.34084e-05
3.38944e-05
3.15845e-05
3.34671e-05
7.65647e-05
8.08503e-05
3.3056e-05
3.393e-05
3.24663e-05
3.34084e-05
3.38941e-05
3.34671e-05
3.15866e-05
3.17064e-05
3.17057e-05
3.32639e-05
3.09361e-05
3.09346e-05
3.22634e-05
5.91815e-05
3.29108e-05
6.14269e-05
8.44026e-05
8.50627e-05
3.22675e-05
5.91833e-05
3.29077e-05
6.14289e-05
3.21606e-05
3.21606e-05
3.21606e-05
3.09232e-05
3.09232e-05
3.09232e-05
3.09232e-05
3.07938e-05
3.05108e-05
3.21396e-05
3.15556e-05
3.16332e-05
2.98928e-05
3.17115e-05
8.44049e-05
8.5065e-05
3.07939e-05
3.21396e-05
3.05102e-05
3.15556e-05
3.16326e-05
3.17115e-05
2.98943e-05
3.02183e-05
3.02173e-05
3.12736e-05
3.00128e-05
3.00115e-05
3.07448e-05
6.43682e-05
3.13494e-05
6.57083e-05
8.46324e-05
8.38891e-05
3.07491e-05
6.43701e-05
3.13457e-05
6.57116e-05
3.05334e-05
3.05333e-05
3.05334e-05
2.94005e-05
2.94005e-05
2.94004e-05
2.94005e-05
2.85998e-05
2.9142e-05
3.0468e-05
2.98034e-05
2.94115e-05
2.8676e-05
3.00727e-05
8.46332e-05
8.3891e-05
2.85998e-05
3.0468e-05
2.91431e-05
2.98033e-05
2.94108e-05
3.00726e-05
2.86758e-05
2.99408e-05
2.99398e-05
2.93476e-05
3.00373e-05
3.00362e-05
2.95203e-05
6.73317e-05
2.99994e-05
6.80272e-05
8.22461e-05
8.11845e-05
2.9526e-05
6.7334e-05
2.99951e-05
6.8031e-05
2.90232e-05
2.90232e-05
2.90232e-05
2.79852e-05
2.79851e-05
2.79851e-05
2.79851e-05
2.6572e-05
2.81291e-05
2.88961e-05
2.81389e-05
2.73122e-05
2.77789e-05
2.85119e-05
8.2246e-05
8.11857e-05
2.65723e-05
2.8896e-05
2.813e-05
2.81388e-05
2.73114e-05
2.85118e-05
2.77792e-05
3.04462e-05
3.04459e-05
2.75256e-05
3.07785e-05
3.07777e-05
2.85597e-05
6.87642e-05
2.89384e-05
6.90341e-05
7.94955e-05
7.84878e-05
2.85608e-05
6.87674e-05
2.89376e-05
6.90377e-05
2.76673e-05
2.76672e-05
2.76672e-05
2.66205e-05
2.66204e-05
2.66203e-05
2.66204e-05
2.47421e-05
2.74054e-05
2.7454e-05
2.66506e-05
2.54055e-05
2.71842e-05
2.71105e-05
7.9495e-05
7.84886e-05
2.47419e-05
2.74539e-05
2.74058e-05
2.66504e-05
2.54051e-05
2.71104e-05
2.71847e-05
3.15838e-05
3.15838e-05
2.58678e-05
3.212e-05
3.21202e-05
2.77106e-05
6.91884e-05
2.83042e-05
6.91673e-05
7.71924e-05
7.69434e-05
2.77115e-05
6.91919e-05
2.83031e-05
6.91706e-05
2.62494e-05
2.62493e-05
2.62493e-05
2.53764e-05
2.53764e-05
2.53763e-05
2.53764e-05
2.30516e-05
2.69481e-05
2.59709e-05
2.50679e-05
2.37493e-05
2.65479e-05
2.56004e-05
7.71923e-05
7.69433e-05
2.30514e-05
2.59708e-05
2.69452e-05
2.50677e-05
2.37487e-05
2.56003e-05
2.65478e-05
3.3106e-05
3.31069e-05
2.42235e-05
3.33981e-05
3.3399e-05
2.77253e-05
6.94394e-05
2.75751e-05
6.96892e-05
7.70251e-05
7.71327e-05
2.77284e-05
6.94426e-05
2.75733e-05
6.96917e-05
2.52103e-05
2.52102e-05
2.52103e-05
2.49955e-05
2.49955e-05
2.49953e-05
2.49954e-05
2.25005e-05
2.65486e-05
2.48691e-05
2.42798e-05
2.24999e-05
2.68657e-05
2.4763e-05
7.70233e-05
7.7129e-05
2.25005e-05
2.4869e-05
2.6549e-05
2.42797e-05
2.24996e-05
2.47628e-05
2.68687e-05
3.43836e-05
3.43848e-05
2.34769e-05
3.50476e-05
3.50498e-05
2.80564e-05
6.98907e-05
2.80088e-05
6.99138e-05
7.72108e-05
7.72209e-05
2.80572e-05
6.9894e-05
2.80081e-05
6.99167e-05
2.49752e-05
2.49751e-05
2.49751e-05
2.496e-05
2.49601e-05
2.49599e-05
2.496e-05
2.27203e-05
2.74617e-05
2.46598e-05
2.42637e-05
2.26669e-05
2.75648e-05
2.46557e-05
7.72077e-05
7.72168e-05
2.27207e-05
2.46598e-05
2.74606e-05
2.42635e-05
2.26669e-05
2.46556e-05
2.75646e-05
3.5677e-05
3.56799e-05
2.35902e-05
3.57734e-05
3.57763e-05
2.80754e-05
6.99214e-05
2.80762e-05
6.99194e-05
7.7223e-05
7.72234e-05
2.80768e-05
6.99247e-05
2.80775e-05
6.9923e-05
2.49599e-05
2.49597e-05
2.49598e-05
2.49601e-05
2.496e-05
2.49599e-05
2.496e-05
2.27514e-05
2.76133e-05
2.46555e-05
2.42856e-05
2.27483e-05
2.7612e-05
2.46563e-05
7.72195e-05
7.72191e-05
2.27518e-05
2.46555e-05
2.7614e-05
2.42854e-05
2.27486e-05
2.46562e-05
2.76128e-05
3.58181e-05
3.58212e-05
2.36233e-05
3.58166e-05
3.58196e-05
2.80776e-05
6.99215e-05
2.80798e-05
6.99198e-05
7.72234e-05
7.72236e-05
2.80791e-05
6.99248e-05
2.8081e-05
6.99228e-05
2.49602e-05
2.496e-05
2.49601e-05
2.49603e-05
2.49603e-05
2.49602e-05
2.49603e-05
2.27548e-05
2.76198e-05
2.4657e-05
2.42882e-05
2.27542e-05
2.76154e-05
2.46572e-05
7.72195e-05
7.72192e-05
2.27552e-05
2.46569e-05
2.76203e-05
2.4288e-05
2.27546e-05
2.46572e-05
2.76162e-05
3.58198e-05
3.58229e-05
2.36268e-05
3.58177e-05
3.58208e-05
2.80782e-05
6.99219e-05
2.80809e-05
6.99201e-05
7.72234e-05
7.72237e-05
2.80798e-05
6.99246e-05
2.80821e-05
6.99226e-05
2.49605e-05
2.49604e-05
2.49605e-05
2.49606e-05
2.49608e-05
2.49605e-05
2.49606e-05
2.27563e-05
2.7621e-05
2.46574e-05
2.42885e-05
2.27562e-05
2.7616e-05
2.46575e-05
7.72196e-05
7.72192e-05
2.27567e-05
2.46573e-05
2.76216e-05
2.42885e-05
2.27566e-05
2.46575e-05
2.76169e-05
3.58205e-05
3.58235e-05
2.36274e-05
3.58181e-05
3.58212e-05
3.73742e-05
3.72959e-05
3.72959e-05
5.31119e-05
3.71932e-05
5.31138e-05
3.71932e-05
3.70928e-05
3.72461e-05
3.72465e-05
3.71762e-05
3.71762e-05
3.73702e-05
3.73777e-05
3.73043e-05
3.73768e-05
3.73702e-05
3.73777e-05
3.73043e-05
3.73768e-05
3.71732e-05
3.94122e-05
3.7168e-05
3.67256e-05
3.71732e-05
3.94121e-05
3.7168e-05
3.67257e-05
3.70957e-05
3.71021e-05
3.6029e-05
3.64211e-05
3.71636e-05
3.71109e-05
3.63059e-05
3.70957e-05
3.71021e-05
3.60295e-05
3.64211e-05
3.71636e-05
3.71109e-05
3.63059e-05
3.73742e-05
3.72959e-05
3.72959e-05
5.31121e-05
3.71933e-05
3.70928e-05
3.72469e-05
3.72456e-05
3.71762e-05
3.71762e-05
5.31136e-05
3.71933e-05
3.73702e-05
3.73777e-05
3.73043e-05
3.73768e-05
3.73702e-05
3.73777e-05
3.73768e-05
3.73043e-05
3.71732e-05
3.94126e-05
3.7168e-05
3.67259e-05
3.70957e-05
3.71021e-05
3.60291e-05
3.64211e-05
3.71636e-05
3.71109e-05
3.63059e-05
3.71732e-05
3.94128e-05
3.7168e-05
3.67256e-05
3.70957e-05
3.71021e-05
3.64211e-05
3.60291e-05
3.71109e-05
3.71636e-05
3.63059e-05
3.73773e-05
3.73765e-05
3.7377e-05
3.7377e-05
3.73773e-05
3.73765e-05
3.7377e-05
3.7377e-05
3.73773e-05
3.73765e-05
3.7377e-05
3.7377e-05
3.71134e-05
3.71099e-05
3.64242e-05
3.64242e-05
3.71125e-05
3.71125e-05
3.64263e-05
3.71134e-05
3.71099e-05
3.64242e-05
3.64242e-05
3.71125e-05
3.71125e-05
3.64263e-05
3.71134e-05
3.71099e-05
3.64242e-05
3.64242e-05
3.71125e-05
3.71125e-05
3.64263e-05
3.71134e-05
3.71099e-05
3.64242e-05
3.64242e-05
3.71125e-05
3.71125e-05
3.64263e-05
3.73702e-05
3.73777e-05
3.73768e-05
3.73043e-05
3.70957e-05
3.71021e-05
3.60288e-05
3.64211e-05
3.71636e-05
3.71109e-05
3.63059e-05
3.71732e-05
3.94123e-05
3.7168e-05
3.67258e-05
3.70957e-05
3.71021e-05
3.64211e-05
3.60295e-05
3.71109e-05
3.71636e-05
3.63059e-05
3.71732e-05
3.94128e-05
3.7168e-05
3.67255e-05
3.73742e-05
3.72959e-05
3.72959e-05
5.31142e-05
3.71933e-05
3.70928e-05
3.72464e-05
3.72467e-05
3.71762e-05
3.71762e-05
5.31144e-05
3.71933e-05
3.73702e-05
3.73777e-05
3.73768e-05
3.73043e-05
3.70957e-05
3.71021e-05
3.64211e-05
3.60295e-05
3.71109e-05
3.71636e-05
3.63059e-05
3.70957e-05
3.71021e-05
3.64211e-05
3.60295e-05
3.71109e-05
3.71636e-05
3.63059e-05
3.71732e-05
3.94128e-05
3.7168e-05
3.67256e-05
3.71732e-05
3.94128e-05
3.7168e-05
3.67258e-05
3.70928e-05
3.72465e-05
3.72471e-05
3.71762e-05
3.71762e-05
5.31142e-05
3.71933e-05
5.31141e-05
3.71932e-05
5.51149e-05
6.4878e-05
5.51167e-05
6.48809e-05
3.65912e-05
3.65923e-05
3.52792e-05
3.40746e-05
3.40739e-05
7.47132e-05
6.7689e-05
7.47171e-05
6.7693e-05
3.49726e-05
3.20535e-05
3.20515e-05
3.34613e-05
3.34616e-05
3.58829e-05
4.0881e-05
3.66021e-05
4.51346e-05
3.52766e-05
3.56349e-05
3.5893e-05
3.53769e-05
3.6047e-05
3.4244e-05
3.53819e-05
3.52767e-05
3.56344e-05
3.5893e-05
3.53769e-05
3.6047e-05
3.4245e-05
3.53819e-05
3.56296e-05
5.02042e-05
4.64644e-05
3.48982e-05
3.56301e-05
5.02031e-05
4.6464e-05
3.48987e-05
3.49983e-05
3.48723e-05
3.27395e-05
3.44023e-05
3.38586e-05
3.48855e-05
3.41811e-05
3.49983e-05
3.48723e-05
3.27404e-05
3.44023e-05
3.38574e-05
3.48855e-05
3.41813e-05
3.65913e-05
3.65923e-05
3.52792e-05
3.40752e-05
3.40726e-05
5.51161e-05
6.48801e-05
7.4714e-05
6.76914e-05
3.49726e-05
3.20529e-05
3.20515e-05
3.34607e-05
3.34629e-05
7.47156e-05
6.7691e-05
3.52768e-05
3.56347e-05
3.5893e-05
3.53769e-05
3.60471e-05
3.42441e-05
3.53819e-05
3.58829e-05
4.08822e-05
3.66018e-05
4.51372e-05
3.52767e-05
3.5893e-05
3.56349e-05
3.53769e-05
3.60471e-05
3.53819e-05
3.42439e-05
3.56297e-05
5.02041e-05
4.64641e-05
3.48993e-05
3.49982e-05
3.48723e-05
3.27392e-05
3.44023e-05
3.38578e-05
3.48855e-05
3.41814e-05
3.56296e-05
5.02058e-05
4.6466e-05
3.48988e-05
3.49982e-05
3.48723e-05
3.44023e-05
3.27391e-05
3.48855e-05
3.38582e-05
3.41813e-05
3.58831e-05
4.08798e-05
3.6602e-05
4.51364e-05
3.52767e-05
3.5893e-05
3.56345e-05
3.53769e-05
3.6047e-05
3.53819e-05
3.42449e-05
3.58831e-05
4.08826e-05
3.66016e-05
4.51364e-05
3.49983e-05
3.48724e-05
3.27386e-05
3.44024e-05
3.38583e-05
3.48855e-05
3.41813e-05
3.56299e-05
5.02035e-05
4.6462e-05
3.48987e-05
3.49983e-05
3.48723e-05
3.44024e-05
3.27403e-05
3.48855e-05
3.38572e-05
3.41812e-05
3.56295e-05
5.02045e-05
4.64662e-05
3.48986e-05
3.65917e-05
3.65912e-05
3.52792e-05
3.40736e-05
3.40745e-05
5.51171e-05
6.48797e-05
7.47179e-05
6.76926e-05
3.49727e-05
3.20522e-05
3.20537e-05
3.34615e-05
3.3461e-05
7.47156e-05
6.76929e-05
3.52768e-05
3.5893e-05
3.56344e-05
3.53769e-05
3.60471e-05
3.53819e-05
3.42447e-05
3.58835e-05
4.08819e-05
3.66018e-05
4.51369e-05
3.58838e-05
4.0881e-05
3.66021e-05
4.51359e-05
3.49982e-05
3.48724e-05
3.44024e-05
3.27402e-05
3.48855e-05
3.38575e-05
3.41813e-05
3.49982e-05
3.48724e-05
3.44024e-05
3.27401e-05
3.48855e-05
3.3857e-05
3.41814e-05
3.5629e-05
5.02055e-05
4.64659e-05
3.48991e-05
3.56292e-05
5.0205e-05
4.64639e-05
3.48994e-05
5.51167e-05
6.48796e-05
5.51167e-05
6.48802e-05
3.49726e-05
3.20533e-05
3.2052e-05
3.34604e-05
3.34607e-05
7.47146e-05
6.76922e-05
7.47162e-05
6.76937e-05
7.65604e-05
8.08457e-05
7.65645e-05
8.08501e-05
3.17073e-05
3.17063e-05
3.32639e-05
3.09365e-05
3.09336e-05
8.39927e-05
8.18632e-05
8.39965e-05
8.18664e-05
3.29543e-05
3.032e-05
3.03184e-05
3.07356e-05
3.07351e-05
3.39739e-05
5.13624e-05
3.46733e-05
5.46128e-05
3.30557e-05
3.24677e-05
3.393e-05
3.34083e-05
3.38944e-05
3.15852e-05
3.34671e-05
3.30559e-05
3.24662e-05
3.393e-05
3.34082e-05
3.38944e-05
3.15866e-05
3.34671e-05
3.37701e-05
5.83571e-05
5.56073e-05
3.30925e-05
3.37701e-05
5.83572e-05
5.56064e-05
3.30932e-05
3.27665e-05
3.29341e-05
3.06597e-05
3.25728e-05
3.13857e-05
3.30145e-05
3.19209e-05
3.27666e-05
3.29341e-05
3.06605e-05
3.25728e-05
3.13837e-05
3.30145e-05
3.19211e-05
3.17058e-05
3.17081e-05
3.3264e-05
3.09349e-05
3.09337e-05
7.65623e-05
8.08475e-05
8.39937e-05
8.18649e-05
3.29543e-05
3.03193e-05
3.03177e-05
3.0735e-05
3.07362e-05
8.39944e-05
8.18648e-05
3.30561e-05
3.24668e-05
3.393e-05
3.34083e-05
3.38942e-05
3.15855e-05
3.34671e-05
3.39752e-05
5.13648e-05
3.46727e-05
5.46159e-05
3.30559e-05
3.393e-05
3.24675e-05
3.34082e-05
3.38941e-05
3.34671e-05
3.15847e-05
3.3768e-05
5.83579e-05
5.56087e-05
3.3096e-05
3.27663e-05
3.29342e-05
3.06594e-05
3.25728e-05
3.13841e-05
3.30145e-05
3.19214e-05
3.3768e-05
5.83604e-05
5.56092e-05
3.30954e-05
3.27662e-05
3.2934e-05
3.25728e-05
3.06591e-05
3.30145e-05
3.13855e-05
3.19211e-05
3.39743e-05
5.13617e-05
3.46732e-05
5.46128e-05
3.30558e-05
3.393e-05
3.24665e-05
3.34083e-05
3.38943e-05
3.34671e-05
3.1587e-05
3.39735e-05
5.13643e-05
3.46732e-05
5.4614e-05
3.27666e-05
3.29342e-05
3.0659e-05
3.25728e-05
3.13853e-05
3.30145e-05
3.19211e-05
3.37696e-05
5.83574e-05
5.5606e-05
3.30932e-05
3.27665e-05
3.29341e-05
3.25728e-05
3.06608e-05
3.30145e-05
3.1384e-05
3.19209e-05
3.37694e-05
5.8359e-05
5.56084e-05
3.30929e-05
3.17072e-05
3.17061e-05
3.32639e-05
3.09349e-05
3.09353e-05
7.65639e-05
8.08477e-05
8.39969e-05
8.18675e-05
3.29543e-05
3.03188e-05
3.032e-05
3.0735e-05
3.0736e-05
8.39944e-05
8.18659e-05
3.30562e-05
3.393e-05
3.24658e-05
3.34083e-05
3.38942e-05
3.34671e-05
3.15865e-05
3.39754e-05
5.13644e-05
3.46726e-05
5.4615e-05
3.39753e-05
5.1363e-05
3.46728e-05
5.46141e-05
3.27661e-05
3.29342e-05
3.25728e-05
3.06605e-05
3.30145e-05
3.13839e-05
3.19212e-05
3.27663e-05
3.29342e-05
3.25728e-05
3.06603e-05
3.30145e-05
3.13835e-05
3.19215e-05
3.37677e-05
5.83592e-05
5.56086e-05
3.30957e-05
3.37682e-05
5.83588e-05
5.56079e-05
3.30962e-05
7.65637e-05
8.08477e-05
7.65654e-05
8.08492e-05
3.29543e-05
3.03204e-05
3.03188e-05
3.07356e-05
3.07347e-05
8.39946e-05
8.18658e-05
8.39958e-05
8.18673e-05
8.4402e-05
8.50622e-05
8.44039e-05
8.50647e-05
3.02193e-05
3.02174e-05
3.12737e-05
3.00154e-05
3.0011e-05
8.48334e-05
8.5074e-05
8.48355e-05
8.50755e-05
3.09621e-05
2.99297e-05
2.99284e-05
2.99745e-05
2.99722e-05
3.22641e-05
5.91808e-05
3.29109e-05
6.14277e-05
3.07935e-05
3.05117e-05
3.21396e-05
3.15554e-05
3.16331e-05
2.98933e-05
3.17115e-05
3.07938e-05
3.05098e-05
3.21396e-05
3.15553e-05
3.16332e-05
2.9894e-05
3.17115e-05
3.21069e-05
6.3856e-05
6.20888e-05
3.14765e-05
3.2107e-05
6.38577e-05
6.2088e-05
3.14771e-05
3.05121e-05
3.11049e-05
2.92363e-05
3.08726e-05
2.97806e-05
3.1288e-05
2.96816e-05
3.05122e-05
3.11048e-05
2.92368e-05
3.08726e-05
2.97796e-05
3.1288e-05
2.96819e-05
3.02178e-05
3.02183e-05
3.12738e-05
3.0012e-05
3.00142e-05
8.44027e-05
8.50631e-05
8.48332e-05
8.50741e-05
3.09621e-05
2.99291e-05
2.99275e-05
2.99728e-05
2.99738e-05
8.48343e-05
8.50744e-05
3.07941e-05
3.05103e-05
3.21396e-05
3.15555e-05
3.16328e-05
2.98928e-05
3.17115e-05
3.22669e-05
5.91836e-05
3.29076e-05
6.14307e-05
3.07938e-05
3.21396e-05
3.0511e-05
3.15552e-05
3.16326e-05
3.17115e-05
2.98928e-05
3.21031e-05
6.38591e-05
6.20905e-05
3.14815e-05
3.05117e-05
3.1105e-05
2.92365e-05
3.08726e-05
2.97799e-05
3.12881e-05
2.96822e-05
3.2103e-05
6.38602e-05
6.20908e-05
3.14809e-05
3.05115e-05
3.11047e-05
3.08725e-05
2.92358e-05
3.1288e-05
2.97801e-05
2.96819e-05
3.22641e-05
5.91805e-05
3.29109e-05
6.1428e-05
3.07936e-05
3.21396e-05
3.05101e-05
3.15554e-05
3.1633e-05
3.17115e-05
2.98941e-05
3.22637e-05
5.91826e-05
3.29106e-05
6.14293e-05
3.05122e-05
3.11051e-05
2.92356e-05
3.08727e-05
2.978e-05
3.12881e-05
2.96819e-05
3.2107e-05
6.3858e-05
6.2088e-05
3.14771e-05
3.0512e-05
3.11049e-05
3.08726e-05
2.92368e-05
3.1288e-05
2.97798e-05
2.96817e-05
3.21066e-05
6.38589e-05
6.20896e-05
3.14767e-05
3.0218e-05
3.02186e-05
3.12736e-05
3.00144e-05
3.00134e-05
8.44034e-05
8.50633e-05
8.48355e-05
8.5076e-05
3.09621e-05
2.99285e-05
2.99299e-05
2.99737e-05
2.99738e-05
8.48336e-05
8.50747e-05
3.07942e-05
3.21396e-05
3.05096e-05
3.15555e-05
3.16328e-05
3.17115e-05
2.98937e-05
3.22672e-05
5.91826e-05
3.29074e-05
6.14294e-05
3.22676e-05
5.91824e-05
3.29078e-05
6.14294e-05
3.05115e-05
3.11051e-05
3.08726e-05
2.92369e-05
3.1288e-05
2.97799e-05
2.96821e-05
3.05117e-05
3.1105e-05
3.08726e-05
2.92365e-05
3.1288e-05
2.97793e-05
2.96823e-05
3.21027e-05
6.38592e-05
6.20898e-05
3.14812e-05
3.21031e-05
6.38595e-05
6.20898e-05
3.14816e-05
8.44035e-05
8.50636e-05
8.44047e-05
8.50644e-05
3.09621e-05
2.99297e-05
2.99285e-05
2.99733e-05
2.99722e-05
8.48338e-05
8.50749e-05
8.48342e-05
8.50756e-05
8.46326e-05
8.38901e-05
8.46325e-05
8.3891e-05
2.99423e-05
2.99395e-05
2.93477e-05
3.00369e-05
3.00363e-05
8.25997e-05
8.35735e-05
8.26003e-05
8.35732e-05
2.90428e-05
3.03203e-05
3.03188e-05
3.01076e-05
3.01078e-05
3.07452e-05
6.43677e-05
3.13495e-05
6.57099e-05
2.85996e-05
2.91427e-05
3.0468e-05
2.98031e-05
2.94113e-05
2.86766e-05
3.00726e-05
2.85998e-05
2.9143e-05
3.0468e-05
2.98029e-05
2.94115e-05
2.86758e-05
3.00726e-05
3.06198e-05
6.70653e-05
6.60878e-05
3.01303e-05
3.06202e-05
6.70668e-05
6.60881e-05
3.01305e-05
2.83348e-05
2.93846e-05
2.81981e-05
2.92883e-05
2.85925e-05
2.9681e-05
2.75732e-05
2.8335e-05
2.93844e-05
2.81987e-05
2.92883e-05
2.85918e-05
2.9681e-05
2.75734e-05
2.99403e-05
2.99412e-05
2.93479e-05
3.00367e-05
3.00353e-05
8.46321e-05
8.38903e-05
8.25988e-05
8.35736e-05
2.90428e-05
3.03193e-05
3.03185e-05
3.01082e-05
3.01068e-05
8.26e-05
8.35733e-05
2.86e-05
2.91426e-05
3.0468e-05
2.98032e-05
2.9411e-05
2.86758e-05
3.00726e-05
3.07486e-05
6.43699e-05
3.13456e-05
6.57121e-05
2.85997e-05
3.04679e-05
2.91422e-05
2.98028e-05
2.94108e-05
3.00725e-05
2.86762e-05
3.06187e-05
6.70687e-05
6.60903e-05
3.01298e-05
2.83347e-05
2.93848e-05
2.81983e-05
2.92883e-05
2.85917e-05
2.9681e-05
2.75733e-05
3.06183e-05
6.70688e-05
6.60897e-05
3.01296e-05
2.83345e-05
2.93843e-05
2.92882e-05
2.81971e-05
2.96809e-05
2.85925e-05
2.75731e-05
3.07451e-05
6.43677e-05
3.13495e-05
6.57103e-05
2.85995e-05
3.0468e-05
2.9143e-05
2.9803e-05
2.94113e-05
3.00726e-05
2.86757e-05
3.07447e-05
6.43689e-05
3.13491e-05
6.57108e-05
2.8335e-05
2.9385e-05
2.81969e-05
2.92884e-05
2.85923e-05
2.96811e-05
2.75733e-05
3.06201e-05
6.70674e-05
6.60881e-05
3.01304e-05
2.83348e-05
2.93845e-05
2.92883e-05
2.81985e-05
2.9681e-05
2.85917e-05
2.75731e-05
3.06197e-05
6.70673e-05
6.60889e-05
3.013e-05
2.99414e-05
2.99411e-05
2.93476e-05
3.00362e-05
3.00377e-05
8.46331e-05
8.38895e-05
8.26003e-05
8.35738e-05
2.90427e-05
3.03197e-05
3.032e-05
3.01076e-05
3.0109e-05
8.25993e-05
8.35742e-05
2.86001e-05
3.0468e-05
2.91427e-05
2.98032e-05
2.9411e-05
3.00726e-05
2.86754e-05
3.07488e-05
6.43691e-05
3.13454e-05
6.57111e-05
3.07492e-05
6.43695e-05
3.13457e-05
6.57118e-05
2.83345e-05
2.93849e-05
2.92883e-05
2.81986e-05
2.9681e-05
2.85918e-05
2.75732e-05
2.83347e-05
2.93847e-05
2.92883e-05
2.81983e-05
2.9681e-05
2.85914e-05
2.75734e-05
3.06184e-05
6.70677e-05
6.60892e-05
3.01295e-05
3.06187e-05
6.70686e-05
6.609e-05
3.01298e-05
8.46332e-05
8.38897e-05
8.46335e-05
8.38897e-05
2.90427e-05
3.03198e-05
3.0319e-05
3.01087e-05
3.01077e-05
8.25994e-05
8.35744e-05
8.2599e-05
8.35743e-05
8.22464e-05
8.11856e-05
8.22455e-05
8.11857e-05
3.04471e-05
3.04465e-05
2.75257e-05
3.07778e-05
3.07767e-05
7.98348e-05
8.08189e-05
7.98347e-05
8.08173e-05
2.72323e-05
3.13785e-05
3.13773e-05
3.09319e-05
3.09321e-05
2.95208e-05
6.73321e-05
2.99995e-05
6.80291e-05
2.65718e-05
2.81297e-05
2.8896e-05
2.81384e-05
2.7312e-05
2.77794e-05
2.85118e-05
2.6572e-05
2.81301e-05
2.8896e-05
2.81382e-05
2.73122e-05
2.77794e-05
2.85118e-05
2.94455e-05
6.86374e-05
6.81943e-05
2.90263e-05
2.94459e-05
6.86391e-05
6.81954e-05
2.90266e-05
2.63359e-05
2.77445e-05
2.74512e-05
2.77935e-05
2.77234e-05
2.81437e-05
2.5633e-05
2.63361e-05
2.77443e-05
2.74515e-05
2.77934e-05
2.77236e-05
2.81436e-05
2.56332e-05
3.04456e-05
3.04511e-05
2.75259e-05
3.07781e-05
3.07714e-05
8.22459e-05
8.11857e-05
7.98337e-05
8.08182e-05
2.72324e-05
3.13775e-05
3.13707e-05
3.09317e-05
3.09365e-05
7.9835e-05
8.0818e-05
2.65724e-05
2.81298e-05
2.8896e-05
2.81386e-05
2.73116e-05
2.77792e-05
2.85118e-05
2.95254e-05
6.73336e-05
2.99949e-05
6.80302e-05
2.65721e-05
2.88959e-05
2.81293e-05
2.8138e-05
2.73114e-05
2.85117e-05
2.77792e-05
2.94473e-05
6.8641e-05
6.81969e-05
2.90272e-05
2.6336e-05
2.77448e-05
2.74511e-05
2.77934e-05
2.77233e-05
2.81436e-05
2.56329e-05
2.9447e-05
6.86397e-05
6.81963e-05
2.90269e-05
2.63357e-05
2.77442e-05
2.77933e-05
2.74502e-05
2.81435e-05
2.77235e-05
2.56327e-05
2.95208e-05
6.73323e-05
2.99994e-05
6.80295e-05
2.65718e-05
2.8896e-05
2.81299e-05
2.81383e-05
2.7312e-05
2.85118e-05
2.77791e-05
2.95204e-05
6.73325e-05
2.9999e-05
6.80291e-05
2.63361e-05
2.7745e-05
2.74498e-05
2.77936e-05
2.77231e-05
2.81437e-05
2.56332e-05
2.94458e-05
6.86395e-05
6.81955e-05
2.90264e-05
2.63359e-05
2.77445e-05
2.77935e-05
2.7451e-05
2.81436e-05
2.77233e-05
2.56329e-05
2.94455e-05
6.86386e-05
6.81952e-05
2.90261e-05
3.04505e-05
3.04464e-05
2.75256e-05
3.07749e-05
3.07789e-05
8.22468e-05
8.11851e-05
7.98348e-05
8.08179e-05
2.72322e-05
3.13744e-05
3.13788e-05
3.09356e-05
3.09323e-05
7.98345e-05
8.08188e-05
2.65725e-05
2.8896e-05
2.81297e-05
2.81386e-05
2.73116e-05
2.85118e-05
2.7779e-05
2.95257e-05
6.73329e-05
2.99946e-05
6.80294e-05
2.95261e-05
6.73339e-05
2.9995e-05
6.80307e-05
2.63358e-05
2.77449e-05
2.77935e-05
2.74512e-05
2.81436e-05
2.77233e-05
2.56329e-05
2.6336e-05
2.77448e-05
2.77934e-05
2.7451e-05
2.81436e-05
2.77232e-05
2.5633e-05
2.9447e-05
6.86391e-05
6.81956e-05
2.90269e-05
2.94473e-05
6.86406e-05
6.81969e-05
2.90272e-05
8.22469e-05
8.11852e-05
8.22464e-05
8.11845e-05
2.72322e-05
3.13782e-05
3.1378e-05
3.09323e-05
3.0932e-05
7.98346e-05
8.08189e-05
7.98336e-05
8.08181e-05
7.94964e-05
7.8489e-05
7.94945e-05
7.84883e-05
3.15834e-05
3.15844e-05
2.5868e-05
3.21193e-05
3.21193e-05
7.73763e-05
7.81564e-05
7.73754e-05
7.81545e-05
2.56013e-05
3.28777e-05
3.2878e-05
3.23162e-05
3.23172e-05
2.856e-05
6.8766e-05
2.89387e-05
6.90363e-05
2.47419e-05
2.74059e-05
2.74539e-05
2.665e-05
2.54054e-05
2.71847e-05
2.71104e-05
2.47421e-05
2.74061e-05
2.74539e-05
2.66497e-05
2.54055e-05
2.71852e-05
2.71104e-05
2.84838e-05
6.91893e-05
6.90877e-05
2.83745e-05
2.8484e-05
6.91914e-05
6.90898e-05
2.83747e-05
2.45378e-05
2.62723e-05
2.70241e-05
2.63636e-05
2.71592e-05
2.67483e-05
2.39688e-05
2.45379e-05
2.6272e-05
2.70244e-05
2.63635e-05
2.71597e-05
2.67482e-05
2.3969e-05
3.15836e-05
3.15838e-05
2.58682e-05
3.212e-05
3.21159e-05
7.94953e-05
7.84889e-05
7.73752e-05
7.81551e-05
2.56014e-05
3.28784e-05
3.28757e-05
3.23167e-05
3.23178e-05
7.73761e-05
7.81553e-05
2.4742e-05
2.74059e-05
2.74539e-05
2.66503e-05
2.54052e-05
2.7185e-05
2.71104e-05
2.85605e-05
6.87664e-05
2.89372e-05
6.90362e-05
2.47418e-05
2.74538e-05
2.74058e-05
2.66495e-05
2.5405e-05
2.71102e-05
2.71847e-05
2.84832e-05
6.91927e-05
6.9091e-05
2.83758e-05
2.45377e-05
2.62726e-05
2.70235e-05
2.63635e-05
2.71595e-05
2.67483e-05
2.39688e-05
2.84829e-05
6.91909e-05
6.90894e-05
2.83756e-05
2.45375e-05
2.62718e-05
2.63634e-05
2.70231e-05
2.67481e-05
2.71596e-05
2.39686e-05
2.85599e-05
6.87661e-05
2.89386e-05
6.90365e-05
2.47418e-05
2.74539e-05
2.74057e-05
2.66499e-05
2.54053e-05
2.71104e-05
2.71846e-05
2.85595e-05
6.87654e-05
2.89382e-05
6.90353e-05
2.45379e-05
2.62729e-05
2.70225e-05
2.63637e-05
2.7159e-05
2.67484e-05
2.39689e-05
2.84839e-05
6.91916e-05
6.90898e-05
2.83746e-05
2.45377e-05
2.62722e-05
2.63635e-05
2.70237e-05
2.67483e-05
2.71591e-05
2.39687e-05
2.84836e-05
6.919e-05
6.90887e-05
2.83743e-05
3.15852e-05
3.15841e-05
2.58678e-05
3.21194e-05
3.21204e-05
7.94961e-05
7.84886e-05
7.73759e-05
7.81549e-05
2.56011e-05
3.2879e-05
3.28785e-05
3.23194e-05
3.2317e-05
7.7376e-05
7.81561e-05
2.47421e-05
2.74539e-05
2.74057e-05
2.66503e-05
2.54053e-05
2.71104e-05
2.71847e-05
2.85605e-05
6.87658e-05
2.89372e-05
6.90357e-05
2.85608e-05
6.87674e-05
2.89376e-05
6.90375e-05
2.45377e-05
2.62727e-05
2.63636e-05
2.70238e-05
2.67483e-05
2.71591e-05
2.39687e-05
2.45378e-05
2.62726e-05
2.63635e-05
2.70239e-05
2.67483e-05
2.71593e-05
2.39688e-05
2.84829e-05
6.91905e-05
6.90892e-05
2.83756e-05
2.84832e-05
6.91925e-05
6.9091e-05
2.83758e-05
7.94961e-05
7.84887e-05
7.94951e-05
7.84875e-05
2.56012e-05
3.28782e-05
3.2879e-05
3.2317e-05
3.23174e-05
7.7376e-05
7.81561e-05
7.73749e-05
7.81549e-05
7.71934e-05
7.69442e-05
7.71919e-05
7.69432e-05
3.31054e-05
3.31064e-05
2.42237e-05
3.33975e-05
3.33998e-05
7.69766e-05
7.69288e-05
7.69767e-05
7.69276e-05
2.39983e-05
3.41234e-05
3.41241e-05
3.35058e-05
3.35082e-05
2.77108e-05
6.91905e-05
2.83044e-05
6.91694e-05
2.30515e-05
2.69458e-05
2.59709e-05
2.50671e-05
2.37493e-05
2.65482e-05
2.56003e-05
2.30516e-05
2.6946e-05
2.59708e-05
2.50668e-05
2.37494e-05
2.65485e-05
2.56002e-05
2.76039e-05
6.9346e-05
6.9171e-05
2.75493e-05
2.7604e-05
6.93482e-05
6.91731e-05
2.75494e-05
2.28601e-05
2.47426e-05
2.65099e-05
2.50388e-05
2.65183e-05
2.52832e-05
2.253e-05
2.28601e-05
2.47422e-05
2.65103e-05
2.50387e-05
2.65187e-05
2.52831e-05
2.25301e-05
3.31063e-05
3.31059e-05
2.42239e-05
3.33984e-05
3.33988e-05
7.71926e-05
7.69435e-05
7.69757e-05
7.69279e-05
2.39984e-05
3.41247e-05
3.41196e-05
3.35074e-05
3.35062e-05
7.69728e-05
7.69278e-05
2.30514e-05
2.69471e-05
2.59708e-05
2.50675e-05
2.37488e-05
2.65484e-05
2.56002e-05
2.77113e-05
6.91901e-05
2.83029e-05
6.91686e-05
2.30513e-05
2.59706e-05
2.6949e-05
2.50666e-05
2.37486e-05
2.56e-05
2.65487e-05
2.76036e-05
6.93492e-05
6.91744e-05
2.75491e-05
2.28599e-05
2.4743e-05
2.65097e-05
2.50387e-05
2.65187e-05
2.52831e-05
2.25297e-05
2.76034e-05
6.93472e-05
6.91727e-05
2.75489e-05
2.28598e-05
2.4742e-05
2.50385e-05
2.65092e-05
2.52829e-05
2.65194e-05
2.25296e-05
2.77107e-05
6.91909e-05
2.83042e-05
6.91695e-05
2.30514e-05
2.59708e-05
2.69453e-05
2.5067e-05
2.37491e-05
2.56002e-05
2.65478e-05
2.77104e-05
6.91891e-05
2.83039e-05
6.91679e-05
2.28601e-05
2.47433e-05
2.65083e-05
2.50389e-05
2.65185e-05
2.52832e-05
2.25299e-05
2.76039e-05
6.9348e-05
6.91736e-05
2.75492e-05
2.28599e-05
2.47425e-05
2.50387e-05
2.65095e-05
2.52831e-05
2.6518e-05
2.25298e-05
2.76036e-05
6.93464e-05
6.91716e-05
2.7549e-05
3.31086e-05
3.31063e-05
2.42235e-05
3.34015e-05
3.33983e-05
7.71932e-05
7.6944e-05
7.69726e-05
7.69276e-05
2.39981e-05
3.4123e-05
3.41243e-05
3.3509e-05
3.3507e-05
7.69762e-05
7.69286e-05
2.30515e-05