/*--------------------------------*- C++ -*----------------------------------*\
| =========                 |                                                 |
| \\      /  F ield         | OpenFOAM: The Open Source CFD Toolbox           |
|  \\    /   O peration     | Version:  2206                                  |
|   \\  /    A nd           | Website:  www.openfoam.com                      |
|    \\/     M anipulation  |                                                 |
\*---------------------------------------------------------------------------*/
FoamFile
{
    version     2.0;
    format      ascii;
    arch        "LSB;label=32;scalar=64";
    class       volScalarField;
    location    "30";
    object      epsilon;
}
// * * * * * * * * * * * * * * * * * * * * * * * * * * * * * * * * * * * * * //

dimensions      [0 2 -3 0 0 0 0];

internalField   nonuniform List<scalar> 
28688
(
4.9556e-07
4.97327e-07
4.97327e-07
4.99572e-07
4.45536e-07
4.53712e-07
4.53714e-07
4.63705e-07
4.03653e-07
4.18458e-07
4.18462e-07
4.39407e-07
3.68467e-07
3.886e-07
3.88606e-07
4.17692e-07
3.38048e-07
3.62036e-07
3.62043e-07
3.96025e-07
3.11464e-07
3.3843e-07
3.38439e-07
3.74683e-07
2.86902e-07
3.13325e-07
3.13334e-07
3.49138e-07
2.77312e-07
3.04036e-07
3.04045e-07
3.36923e-07
2.75829e-07
3.03105e-07
3.03114e-07
3.36781e-07
2.75722e-07
3.03044e-07
3.03054e-07
3.36782e-07
2.75721e-07
3.03047e-07
3.03057e-07
3.36815e-07
2.75722e-07
3.03047e-07
3.03057e-07
3.36804e-07
5.06421e-07
5.05585e-07
5.05583e-07
5.0642e-07
5.05584e-07
5.05583e-07
5.09646e-07
5.09646e-07
5.09646e-07
5.09646e-07
5.05585e-07
5.05585e-07
5.06421e-07
5.05585e-07
5.05584e-07
5.06421e-07
4.99572e-07
4.67241e-07
4.97328e-07
4.97332e-07
4.637e-07
4.63708e-07
4.99573e-07
4.67238e-07
4.97332e-07
4.97333e-07
4.63705e-07
4.6371e-07
4.97329e-07
4.63696e-07
4.63701e-07
4.99572e-07
4.67244e-07
4.97331e-07
4.63697e-07
4.63705e-07
4.67243e-07
4.63705e-07
4.41432e-07
4.53717e-07
4.53725e-07
4.2674e-07
4.26748e-07
4.63703e-07
4.41425e-07
4.53722e-07
4.53729e-07
4.26741e-07
4.26753e-07
4.53719e-07
4.26731e-07
4.26742e-07
4.63707e-07
4.41436e-07
4.53722e-07
4.26736e-07
4.26742e-07
4.41434e-07
4.39403e-07
4.1931e-07
4.18468e-07
4.18475e-07
3.95761e-07
3.95767e-07
4.39401e-07
4.19302e-07
4.18467e-07
4.18481e-07
3.95756e-07
3.95773e-07
4.18471e-07
3.95748e-07
3.95764e-07
4.3941e-07
4.19315e-07
4.18469e-07
3.95754e-07
3.95758e-07
4.19314e-07
4.17688e-07
3.9759e-07
3.88615e-07
3.8862e-07
3.68328e-07
3.68332e-07
4.17681e-07
3.97581e-07
3.88609e-07
3.88627e-07
3.68318e-07
3.68339e-07
3.88618e-07
3.68311e-07
3.68331e-07
4.17694e-07
3.97596e-07
3.88611e-07
3.68319e-07
3.6832e-07
3.97594e-07
3.9602e-07
3.76231e-07
3.62054e-07
3.62058e-07
3.44496e-07
3.44499e-07
3.96013e-07
3.76221e-07
3.62043e-07
3.62065e-07
3.44483e-07
3.44507e-07
3.62057e-07
3.44477e-07
3.44499e-07
3.96026e-07
3.76236e-07
3.62045e-07
3.44486e-07
3.44485e-07
3.76235e-07
3.74677e-07
3.51089e-07
3.38452e-07
3.38454e-07
3.18753e-07
3.18757e-07
3.7467e-07
3.51083e-07
3.38437e-07
3.38462e-07
3.18739e-07
3.18765e-07
3.38455e-07
3.18734e-07
3.18756e-07
3.74684e-07
3.51096e-07
3.38439e-07
3.18743e-07
3.18738e-07
3.51094e-07
3.49132e-07
3.36784e-07
3.13344e-07
3.1335e-07
3.04954e-07
3.0496e-07
3.49129e-07
3.36777e-07
3.13331e-07
3.13357e-07
3.0494e-07
3.04968e-07
3.13348e-07
3.04935e-07
3.04958e-07
3.49139e-07
3.36793e-07
3.13331e-07
3.04945e-07
3.0494e-07
3.36792e-07
3.36917e-07
3.36495e-07
3.04056e-07
3.04063e-07
3.03198e-07
3.03203e-07
3.36911e-07
3.36487e-07
3.04043e-07
3.04071e-07
3.03183e-07
3.03211e-07
3.04061e-07
3.03178e-07
3.03202e-07
3.36925e-07
3.36503e-07
3.04042e-07
3.03187e-07
3.03182e-07
3.36501e-07
3.36776e-07
3.36508e-07
3.03127e-07
3.03133e-07
3.03066e-07
3.03071e-07
3.36769e-07
3.365e-07
3.03113e-07
3.03141e-07
3.0305e-07
3.03079e-07
3.03131e-07
3.03045e-07
3.03069e-07
3.36785e-07
3.36517e-07
3.03112e-07
3.03054e-07
3.03049e-07
3.36516e-07
3.36776e-07
3.36542e-07
3.03067e-07
3.03071e-07
3.03069e-07
3.03073e-07
3.36769e-07
3.36534e-07
3.03051e-07
3.0308e-07
3.03053e-07
3.03081e-07
3.0307e-07
3.03047e-07
3.03072e-07
3.36785e-07
3.36551e-07
3.0305e-07
3.03057e-07
3.03052e-07
3.3655e-07
3.36809e-07
3.36532e-07
3.03072e-07
3.03075e-07
3.0307e-07
3.03074e-07
3.36803e-07
3.36523e-07
3.03055e-07
3.03083e-07
3.03054e-07
3.03082e-07
3.03074e-07
3.03047e-07
3.03072e-07
3.36818e-07
3.3654e-07
3.03054e-07
3.03057e-07
3.03053e-07
3.3654e-07
3.36798e-07
3.3654e-07
3.03073e-07
3.03077e-07
3.03073e-07
3.36791e-07
3.03056e-07
3.03084e-07
3.03057e-07
3.03085e-07
3.03075e-07
3.03075e-07
3.36806e-07
3.36548e-07
3.03056e-07
3.0306e-07
3.03056e-07
3.36548e-07
5.35665e-07
5.35602e-07
5.35657e-07
5.35657e-07
5.34573e-07
5.35517e-07
5.33634e-07
5.35656e-07
5.34573e-07
5.35517e-07
5.35656e-07
5.33634e-07
5.3526e-07
5.35987e-07
5.35987e-07
1.10786e-06
3.88225e-06
9.33382e-07
4.60448e-06
1.26082e-05
1.65939e-05
1.108e-06
3.8825e-06
9.334e-07
4.60481e-06
4.95561e-07
4.95561e-07
4.95561e-07
4.57201e-07
4.57201e-07
4.57202e-07
4.57201e-07
5.4327e-07
1.22025e-06
4.95559e-07
4.85529e-07
5.25252e-07
1.20967e-06
4.82315e-07
1.26098e-05
1.65962e-05
5.43293e-07
4.9556e-07
1.22023e-06
4.8553e-07
5.25228e-07
4.82315e-07
1.20967e-06
2.52162e-06
2.52233e-06
4.84193e-07
2.37299e-06
2.37339e-06
1.43244e-06
5.59496e-06
1.3287e-06
6.13467e-06
2.12919e-05
2.31036e-05
1.43293e-06
5.59564e-06
1.32869e-06
6.13529e-06
4.45536e-07
4.45537e-07
4.45537e-07
4.13542e-07
4.13541e-07
4.13542e-07
4.13542e-07
5.87181e-07
1.19476e-06
4.46403e-07
4.44308e-07
5.73715e-07
1.20442e-06
4.35714e-07
2.12944e-05
2.31069e-05
5.87213e-07
4.46404e-07
1.19477e-06
4.44311e-07
5.73716e-07
4.35716e-07
1.20451e-06
2.3115e-06
2.312e-06
4.53495e-07
2.35346e-06
2.35392e-06
1.6626e-06
6.92081e-06
1.59622e-06
7.31729e-06
2.46433e-05
2.49351e-05
1.66292e-06
6.92164e-06
1.59591e-06
7.31823e-06
4.03653e-07
4.03654e-07
4.03654e-07
3.76859e-07
3.76858e-07
3.7686e-07
3.7686e-07
6.15534e-07
1.24281e-06
4.06466e-07
4.10573e-07
6.08407e-07
1.2656e-06
3.97662e-07
2.46467e-05
2.49385e-05
6.15547e-07
4.06467e-07
1.2429e-06
4.10577e-07
6.08429e-07
3.97664e-07
1.26576e-06
2.47352e-06
2.47399e-06
4.30164e-07
2.53363e-06
2.53411e-06
1.81484e-06
7.84928e-06
1.76979e-06
8.09571e-06
2.47487e-05
2.4418e-05
1.81523e-06
7.85034e-06
1.76949e-06
8.09693e-06
3.68467e-07
3.68469e-07
3.68469e-07
3.44953e-07
3.44951e-07
3.44954e-07
3.44953e-07
6.26385e-07
1.31274e-06
3.73559e-07
3.81617e-07
6.2474e-07
1.33408e-06
3.65944e-07
2.47515e-05
2.44211e-05
6.26403e-07
3.7356e-07
1.31283e-06
3.81624e-07
6.24746e-07
3.65947e-07
1.33425e-06
2.63524e-06
2.63573e-06
4.08468e-07
2.67941e-06
2.67992e-06
1.89466e-06
8.39866e-06
1.87341e-06
8.52492e-06
2.36976e-05
2.32654e-05
1.89484e-06
8.39985e-06
1.87352e-06
8.52635e-06
3.38048e-07
3.38051e-07
3.3805e-07
3.18358e-07
3.18356e-07
3.1836e-07
3.18359e-07
6.22187e-07
1.37231e-06
3.45259e-07
3.56027e-07
6.25374e-07
1.38619e-06
3.39054e-07
2.37e-05
2.3268e-05
6.22205e-07
3.45261e-07
1.37242e-06
3.56034e-07
6.25386e-07
3.39058e-07
1.38632e-06
2.76353e-06
2.76405e-06
3.86848e-07
2.80276e-06
2.8033e-06
1.92942e-06
8.66738e-06
1.91928e-06
8.70604e-06
2.24961e-05
2.21448e-05
1.92961e-06
8.66876e-06
1.9194e-06
8.70745e-06
3.11464e-07
3.11468e-07
3.11467e-07
2.91857e-07
2.91856e-07
2.91859e-07
2.91858e-07
6.08286e-07
1.41654e-06
3.20421e-07
3.31914e-07
6.14376e-07
1.41412e-06
3.13911e-07
2.24981e-05
2.21469e-05
6.08308e-07
3.20424e-07
1.4167e-06
3.31922e-07
6.1439e-07
3.13914e-07
1.41429e-06
2.89622e-06
2.89681e-06
3.64856e-07
2.92001e-06
2.92063e-06
1.76927e-06
8.73773e-06
1.82476e-06
8.79686e-06
2.19892e-05
2.20263e-05
1.7694e-06
8.7391e-06
1.82459e-06
8.7982e-06
2.86902e-07
2.86905e-07
2.86904e-07
2.78493e-07
2.78492e-07
2.78495e-07
2.78494e-07
5.60158e-07
1.37938e-06
2.96346e-07
3.09273e-07
5.77672e-07
1.37227e-06
2.92381e-07
2.1991e-05
2.20268e-05
5.60164e-07
2.96348e-07
1.37931e-06
3.09283e-07
5.77672e-07
2.92384e-07
1.37234e-06
2.91585e-06
2.91648e-06
3.40412e-07
2.95438e-06
2.95508e-06
1.76532e-06
8.87559e-06
1.76226e-06
8.88922e-06
2.20983e-05
2.21098e-05
1.76524e-06
8.87695e-06
1.76206e-06
8.89052e-06
2.77313e-07
2.77316e-07
2.77314e-07
2.75953e-07
2.75953e-07
2.75956e-07
2.75954e-07
5.55051e-07
1.39592e-06
2.86542e-07
3.03562e-07
5.54626e-07
1.40388e-06
2.85873e-07
2.2099e-05
2.21099e-05
5.55048e-07
2.86544e-07
1.39584e-06
3.03571e-07
5.54625e-07
2.85876e-07
1.40386e-06
3.03691e-06
3.03765e-06
3.36434e-07
3.0534e-06
3.0542e-06
1.76797e-06
8.89468e-06
1.7683e-06
8.89457e-06
2.21142e-05
2.21143e-05
1.76786e-06
8.89608e-06
1.76814e-06
8.89595e-06
2.7583e-07
2.75833e-07
2.75831e-07
2.75725e-07
2.75726e-07
2.75729e-07
2.75727e-07
5.55994e-07
1.409e-06
2.8518e-07
3.0307e-07
5.5606e-07
1.40856e-06
2.85127e-07
2.21145e-05
2.21145e-05
5.55992e-07
2.85182e-07
1.40892e-06
3.03079e-07
5.56058e-07
2.8513e-07
1.40853e-06
3.06223e-06
3.06303e-06
3.36529e-07
3.0621e-06
3.06291e-06
1.76811e-06
8.89488e-06
1.76866e-06
8.89438e-06
2.21145e-05
2.21144e-05
1.768e-06
8.89626e-06
1.7685e-06
8.89582e-06
2.75725e-07
2.75728e-07
2.75726e-07
2.75721e-07
2.75723e-07
2.75726e-07
2.75724e-07
5.56059e-07
1.40953e-06
2.85089e-07
3.03047e-07
5.56204e-07
1.40874e-06
2.85091e-07
2.21148e-05
2.21145e-05
5.56057e-07
2.85091e-07
1.40946e-06
3.03056e-07
5.56202e-07
2.85093e-07
1.40871e-06
3.06276e-06
3.06356e-06
3.36532e-07
3.06222e-06
3.06303e-06
1.76814e-06
8.89472e-06
1.76871e-06
8.89438e-06
2.21145e-05
2.21145e-05
1.76803e-06
8.89616e-06
1.76855e-06
8.89575e-06
2.75724e-07
2.75728e-07
2.75726e-07
2.75722e-07
2.75723e-07
2.75726e-07
2.75724e-07
5.56083e-07
1.40958e-06
2.8509e-07
3.03048e-07
5.56239e-07
1.40876e-06
2.85091e-07
2.21148e-05
2.21146e-05
5.56081e-07
2.85092e-07
1.40951e-06
3.03058e-07
5.56237e-07
2.85093e-07
1.40874e-06
3.0628e-06
3.0636e-06
3.36547e-07
3.06225e-06
3.06306e-06
1.76814e-06
8.89479e-06
1.76872e-06
8.89444e-06
2.21145e-05
2.21145e-05
1.76804e-06
8.89611e-06
1.76856e-06
8.8957e-06
2.75724e-07
2.75728e-07
2.75726e-07
2.75724e-07
2.75728e-07
2.75729e-07
2.75727e-07
5.56085e-07
1.40959e-06
2.85089e-07
3.03048e-07
5.56245e-07
1.40877e-06
2.85092e-07
2.21148e-05
2.21146e-05
5.56083e-07
2.85091e-07
1.40952e-06
3.03059e-07
5.56244e-07
2.85093e-07
1.40874e-06
3.06281e-06
3.06361e-06
3.36546e-07
3.06225e-06
3.06307e-06
5.3526e-07
5.3599e-07
5.35988e-07
1.0916e-05
5.81346e-07
1.09173e-05
5.81338e-07
5.28203e-07
2.43135e-06
2.43227e-06
5.40833e-07
5.4083e-07
5.34573e-07
5.35517e-07
5.33635e-07
5.35656e-07
5.34573e-07
5.35517e-07
5.33634e-07
5.35656e-07
5.30398e-07
3.47219e-06
5.68207e-07
8.2151e-07
5.30397e-07
3.47222e-06
5.68206e-07
8.21476e-07
5.29522e-07
5.2838e-07
1.16687e-06
5.09599e-07
5.32664e-07
5.2835e-07
5.19218e-07
5.29522e-07
5.2838e-07
1.16701e-06
5.09599e-07
5.32664e-07
5.2835e-07
5.1922e-07
5.35259e-07
5.35989e-07
5.35988e-07
1.09162e-05
5.81325e-07
5.28203e-07
2.43182e-06
2.43197e-06
5.40834e-07
5.4083e-07
1.09169e-05
5.81319e-07
5.34573e-07
5.35517e-07
5.33635e-07
5.35656e-07
5.34573e-07
5.35517e-07
5.35656e-07
5.33635e-07
5.30398e-07
3.47254e-06
5.68204e-07
8.21665e-07
5.29522e-07
5.28381e-07
1.16713e-06
5.09599e-07
5.32663e-07
5.2835e-07
5.19226e-07
5.30398e-07
3.47263e-06
5.68202e-07
8.21566e-07
5.29522e-07
5.2838e-07
5.09599e-07
1.16704e-06
5.2835e-07
5.32663e-07
5.1922e-07
5.35665e-07
5.35603e-07
5.35657e-07
5.35657e-07
5.35665e-07
5.35603e-07
5.35657e-07
5.35657e-07
5.35665e-07
5.35603e-07
5.35657e-07
5.35657e-07
5.2843e-07
5.28373e-07
5.09721e-07
5.09721e-07
5.28404e-07
5.28404e-07
5.09776e-07
5.2843e-07
5.28373e-07
5.0972e-07
5.0972e-07
5.28404e-07
5.28404e-07
5.09777e-07
5.2843e-07
5.28373e-07
5.09721e-07
5.09721e-07
5.28404e-07
5.28404e-07
5.09777e-07
5.2843e-07
5.28373e-07
5.09721e-07
5.09721e-07
5.28404e-07
5.28404e-07
5.09777e-07
5.34573e-07
5.35517e-07
5.35656e-07
5.33634e-07
5.29522e-07
5.2838e-07
1.16708e-06
5.09599e-07
5.32663e-07
5.2835e-07
5.19224e-07
5.30398e-07
3.47242e-06
5.68198e-07
8.21566e-07
5.29522e-07
5.2838e-07
5.09599e-07
1.16695e-06
5.2835e-07
5.32662e-07
5.1922e-07
5.30398e-07
3.47255e-06
5.68202e-07
8.21512e-07
5.35259e-07
5.35987e-07
5.35986e-07
1.09175e-05
5.81335e-07
5.28203e-07
2.4321e-06
2.43194e-06
5.4083e-07
5.40827e-07
1.09173e-05
5.81314e-07
5.34573e-07
5.35517e-07
5.35656e-07
5.33634e-07
5.29522e-07
5.2838e-07
5.096e-07
1.16701e-06
5.2835e-07
5.32662e-07
5.19223e-07
5.29522e-07
5.28381e-07
5.09599e-07
1.16713e-06
5.2835e-07
5.32663e-07
5.19226e-07
5.30397e-07
3.47258e-06
5.68196e-07
8.21645e-07
5.30397e-07
3.4726e-06
5.68207e-07
8.21732e-07
5.28203e-07
2.43174e-06
2.43241e-06
5.40828e-07
5.40829e-07
1.09172e-05
5.81318e-07
1.09174e-05
5.81332e-07
1.2608e-05
1.65929e-05
1.26096e-05
1.65956e-05
2.52157e-06
2.52232e-06
4.84192e-07
2.37267e-06
2.37338e-06
2.05225e-05
1.76924e-05
2.0526e-05
1.76954e-05
4.79299e-07
2.30615e-06
2.30681e-06
2.33879e-06
2.33954e-06
1.10772e-06
3.88221e-06
9.33492e-07
4.60436e-06
5.43254e-07
1.22013e-06
4.9556e-07
4.85531e-07
5.25265e-07
1.20961e-06
4.82315e-07
5.4325e-07
1.22031e-06
4.95559e-07
4.85538e-07
5.25273e-07
1.20985e-06
4.82315e-07
1.16017e-06
5.40645e-06
4.8118e-06
1.28167e-06
1.16028e-06
5.40641e-06
4.81183e-06
1.28168e-06
5.50881e-07
4.74308e-07
1.19329e-06
4.57741e-07
1.20452e-06
4.69723e-07
5.66544e-07
5.50882e-07
4.74316e-07
1.19347e-06
4.57741e-07
1.20468e-06
4.69723e-07
5.66541e-07
2.52206e-06
2.5218e-06
4.8419e-07
2.37326e-06
2.37278e-06
1.26087e-05
1.6594e-05
2.05237e-05
1.76941e-05
4.79299e-07
2.30668e-06
2.30637e-06
2.33932e-06
2.33913e-06
2.05236e-05
1.76934e-05
5.43291e-07
1.22039e-06
4.9556e-07
4.85535e-07
5.25263e-07
1.20988e-06
4.82315e-07
1.10795e-06
3.88277e-06
9.33248e-07
4.60515e-06
5.43285e-07
4.9556e-07
1.22035e-06
4.85539e-07
5.25253e-07
4.82315e-07
1.20988e-06
1.16016e-06
5.4069e-06
4.81216e-06
1.28188e-06
5.50876e-07
4.74314e-07
1.19349e-06
4.57741e-07
1.20469e-06
4.69723e-07
5.6657e-07
1.16015e-06
5.40738e-06
4.81262e-06
1.28187e-06
5.50878e-07
4.74318e-07
4.57742e-07
1.19354e-06
4.69724e-07
1.20474e-06
5.66573e-07
1.10787e-06
3.88224e-06
9.33347e-07
4.60464e-06
5.43267e-07
4.9556e-07
1.22022e-06
4.85531e-07
5.25241e-07
4.82315e-07
1.20973e-06
1.10789e-06
3.8827e-06
9.33185e-07
4.60485e-06
5.50875e-07
4.74305e-07
1.19329e-06
4.5774e-07
1.20452e-06
4.69722e-07
5.66551e-07
1.1602e-06
5.40648e-06
4.81159e-06
1.28177e-06
5.50874e-07
4.74309e-07
4.57741e-07
1.19335e-06
4.69723e-07
1.2045e-06
5.66548e-07
1.16011e-06
5.40686e-06
4.81241e-06
1.28174e-06
2.52224e-06
2.52173e-06
4.84194e-07
2.37339e-06
2.37262e-06
1.26095e-05
1.65946e-05
2.05269e-05
1.76959e-05
4.79299e-07
2.30687e-06
2.30632e-06
2.33947e-06
2.33899e-06
2.05246e-05
1.76949e-05
5.43301e-07
4.9556e-07
1.22039e-06
4.85536e-07
5.2524e-07
4.82315e-07
1.20987e-06
1.10816e-06
3.88266e-06
9.33112e-07
4.60494e-06
1.10822e-06
3.88255e-06
9.33228e-07
4.60484e-06
5.50869e-07
4.74306e-07
4.57741e-07
1.19335e-06
4.69722e-07
1.20457e-06
5.66572e-07
5.50868e-07
4.74313e-07
4.57741e-07
1.19347e-06
4.69723e-07
1.20467e-06
5.66579e-07
1.15993e-06
5.40711e-06
4.81239e-06
1.28191e-06
1.15995e-06
5.40709e-06
4.81214e-06
1.28193e-06
1.26091e-05
1.65945e-05
1.26096e-05
1.65952e-05
4.79299e-07
2.30628e-06
2.30679e-06
2.33869e-06
2.3395e-06
2.0524e-05
1.76944e-05
2.05256e-05
1.76956e-05
2.129e-05
2.31019e-05
2.12938e-05
2.31061e-05
2.31135e-06
2.31203e-06
4.53492e-07
2.3532e-06
2.35378e-06
2.44657e-05
2.35402e-05
2.44693e-05
2.35437e-05
4.5089e-07
2.44297e-06
2.44421e-06
2.381e-06
2.38138e-06
1.43244e-06
5.59501e-06
1.32867e-06
6.13481e-06
5.87172e-07
1.19475e-06
4.46404e-07
4.44314e-07
5.73719e-07
1.20444e-06
4.35715e-07
5.87171e-07
1.1949e-06
4.46405e-07
4.44323e-07
5.73714e-07
1.20462e-06
4.35715e-07
1.47437e-06
6.77622e-06
6.3031e-06
1.55872e-06
1.47432e-06
6.77632e-06
6.30312e-06
1.5587e-06
5.93356e-07
4.35356e-07
1.23133e-06
4.1579e-07
1.21235e-06
4.25547e-07
6.03575e-07
5.93346e-07
4.35364e-07
1.23145e-06
4.1579e-07
1.2125e-06
4.25547e-07
6.0357e-07
2.31182e-06
2.31153e-06
4.53487e-07
2.35363e-06
2.3533e-06
2.12909e-05
2.31028e-05
2.44668e-05
2.35419e-05
4.50889e-07
2.44401e-06
2.44283e-06
2.38127e-06
2.38137e-06
2.44662e-05
2.35412e-05
5.87208e-07
1.19496e-06
4.46405e-07
4.44317e-07
5.73725e-07
1.20462e-06
4.35716e-07
1.43292e-06
5.59602e-06
1.3287e-06
6.136e-06
5.87207e-07
4.46406e-07
1.19498e-06
4.44326e-07
5.73731e-07
4.35716e-07
1.20469e-06
1.47401e-06
6.77688e-06
6.30391e-06
1.55915e-06
5.93365e-07
4.35359e-07
1.23146e-06
4.15791e-07
1.21251e-06
4.25547e-07
6.03589e-07
1.47402e-06
6.77762e-06
6.30431e-06
1.55916e-06
5.93372e-07
4.35369e-07
4.15792e-07
1.23152e-06
4.25549e-07
1.21264e-06
6.03597e-07
1.43262e-06
5.59496e-06
1.32865e-06
6.13481e-06
5.87185e-07
4.46405e-07
1.19479e-06
4.44316e-07
5.73719e-07
4.35715e-07
1.20455e-06
1.43249e-06
5.59559e-06
1.32875e-06
6.13534e-06
5.93349e-07
4.35349e-07
1.23125e-06
4.15789e-07
1.21237e-06
4.25546e-07
6.03577e-07
1.47423e-06
6.77638e-06
6.30311e-06
1.55878e-06
5.93353e-07
4.35358e-07
4.1579e-07
1.23138e-06
4.25547e-07
1.21243e-06
6.0358e-07
1.47426e-06
6.77702e-06
6.30379e-06
1.55879e-06
2.31209e-06
2.31127e-06
4.53496e-07
2.35391e-06
2.35333e-06
2.12923e-05
2.31044e-05
2.44705e-05
2.35454e-05
4.50894e-07
2.44366e-06
2.44361e-06
2.38197e-06
2.38107e-06
2.44676e-05
2.35428e-05
5.87206e-07
4.46405e-07
1.19489e-06
4.44319e-07
5.73715e-07
4.35716e-07
1.20464e-06
1.43293e-06
5.59565e-06
1.32868e-06
6.13552e-06
1.4328e-06
5.59552e-06
1.32867e-06
6.13549e-06
5.93363e-07
4.35352e-07
4.15791e-07
1.23136e-06
4.25546e-07
1.2124e-06
6.03594e-07
5.9336e-07
4.35359e-07
4.15791e-07
1.23148e-06
4.25547e-07
1.21253e-06
6.03592e-07
1.47398e-06
6.77705e-06
6.30382e-06
1.55916e-06
1.47401e-06
6.77713e-06
6.30386e-06
1.55918e-06
2.12923e-05
2.31045e-05
2.1294e-05
2.31061e-05
4.50892e-07
2.44377e-06
2.44424e-06
2.38106e-06
2.38152e-06
2.44678e-05
2.35429e-05
2.44693e-05
2.35444e-05
2.46424e-05
2.49342e-05
2.46452e-05
2.49373e-05
2.47392e-06
2.47382e-06
4.30161e-07
2.5331e-06
2.53406e-06
2.48339e-05
2.49383e-05
2.48368e-05
2.4941e-05
4.28464e-07
2.61018e-06
2.61072e-06
2.56159e-06
2.56182e-06
1.66257e-06
6.92075e-06
1.59618e-06
7.31753e-06
6.15533e-07
1.24289e-06
4.06468e-07
4.10584e-07
6.08405e-07
1.26567e-06
3.97662e-07
6.15527e-07
1.24295e-06
4.06468e-07
4.1059e-07
6.08402e-07
1.26581e-06
3.97663e-07
1.69494e-06
7.75487e-06
7.43704e-06
1.74729e-06
1.69491e-06
7.75523e-06
7.43699e-06
1.74726e-06
6.18818e-07
4.03057e-07
1.30084e-06
3.81363e-07
1.2785e-06
3.89347e-07
6.23028e-07
6.18813e-07
4.03063e-07
1.301e-06
3.81364e-07
1.27859e-06
3.89348e-07
6.23025e-07
2.47379e-06
2.47392e-06
4.30153e-07
2.53393e-06
2.53291e-06
2.46426e-05
2.49345e-05
2.48345e-05
2.49391e-05
4.2846e-07
2.61063e-06
2.61003e-06
2.56177e-06
2.56154e-06
2.48342e-05
2.49384e-05
6.15554e-07
1.24297e-06
4.06468e-07
4.10582e-07
6.08431e-07
1.26583e-06
3.97664e-07
1.66292e-06
6.92205e-06
1.59592e-06
7.31885e-06
6.15554e-07
4.06471e-07
1.24309e-06
4.10596e-07
6.08431e-07
3.97665e-07
1.26588e-06
1.69474e-06
7.75604e-06
7.43796e-06
1.74729e-06
6.18834e-07
4.03054e-07
1.30105e-06
3.81365e-07
1.27867e-06
3.89348e-07
6.23054e-07
1.69475e-06
7.75657e-06
7.43831e-06
1.74728e-06
6.18836e-07
4.03069e-07
3.81367e-07
1.30107e-06
3.89351e-07
1.27873e-06
6.23056e-07
1.66264e-06
6.92078e-06
1.59625e-06
7.31761e-06
6.15537e-07
4.06468e-07
1.24288e-06
4.10586e-07
6.0841e-07
3.97663e-07
1.26574e-06
1.66265e-06
6.92146e-06
1.59626e-06
7.31822e-06
6.18818e-07
4.03044e-07
1.30078e-06
3.81362e-07
1.27844e-06
3.89346e-07
6.23033e-07
1.69498e-06
7.75533e-06
7.43703e-06
1.74733e-06
6.1882e-07
4.0306e-07
3.81364e-07
1.30093e-06
3.89348e-07
1.27851e-06
6.23036e-07
1.69498e-06
7.7559e-06
7.43768e-06
1.74732e-06
2.47459e-06
2.47353e-06
4.30167e-07
2.53378e-06
2.53362e-06
2.46441e-05
2.49358e-05
2.48379e-05
2.49423e-05
4.2847e-07
2.61084e-06
2.61027e-06
2.56229e-06
2.56144e-06
2.48352e-05
2.49398e-05
6.15546e-07
4.06469e-07
1.24298e-06
4.10583e-07
6.08429e-07
3.97664e-07
1.26584e-06
1.66291e-06
6.92149e-06
1.59589e-06
7.31831e-06
1.66292e-06
6.92159e-06
1.59591e-06
7.31842e-06
6.18828e-07
4.0305e-07
3.81365e-07
1.30094e-06
3.89348e-07
1.27852e-06
6.23049e-07
6.18829e-07
4.03055e-07
3.81365e-07
1.30103e-06
3.89349e-07
1.27862e-06
6.23049e-07
1.69473e-06
7.756e-06
7.43778e-06
1.74727e-06
1.69475e-06
7.75618e-06
7.4379e-06
1.74728e-06
2.46443e-05
2.49361e-05
2.46457e-05
2.49374e-05
4.28468e-07
2.61029e-06
2.61078e-06
2.56146e-06
2.56195e-06
2.48355e-05
2.494e-05
2.48365e-05
2.49413e-05
2.4748e-05
2.44176e-05
2.47501e-05
2.44201e-05
2.63511e-06
2.63564e-06
4.08464e-07
2.67936e-06
2.67983e-06
2.3853e-05
2.42852e-05
2.38555e-05
2.42875e-05
4.0686e-07
2.74294e-06
2.74356e-06
2.70027e-06
2.70079e-06
1.81483e-06
7.84932e-06
1.76976e-06
8.09603e-06
6.26379e-07
1.3128e-06
3.7356e-07
3.81632e-07
6.24737e-07
1.33415e-06
3.65945e-07
6.26376e-07
1.3129e-06
3.73561e-07
3.81637e-07
6.24734e-07
1.33432e-06
3.65946e-07
1.83168e-06
8.34982e-06
8.16516e-06
1.85725e-06
1.83167e-06
8.35025e-06
8.16528e-06
1.85723e-06
6.26779e-07
3.74857e-07
1.36252e-06
3.51745e-07
1.34469e-06
3.58636e-07
6.25537e-07
6.26777e-07
3.74862e-07
1.36271e-06
3.51746e-07
1.34486e-06
3.58638e-07
6.25535e-07
2.63558e-06
2.63496e-06
4.08455e-07
2.67978e-06
2.6792e-06
2.47479e-05
2.44177e-05
2.38536e-05
2.42862e-05
4.06854e-07
2.74349e-06
2.74247e-06
2.70077e-06
2.70055e-06
2.38533e-05
2.42856e-05
6.26413e-07
1.31294e-06
3.73561e-07
3.81625e-07
6.24751e-07
1.33435e-06
3.65947e-07
1.81522e-06
7.85059e-06
1.76949e-06
8.0974e-06
6.26412e-07
3.73564e-07
1.31304e-06
3.81644e-07
6.24753e-07
3.65949e-07
1.33437e-06
1.83159e-06
8.35123e-06
8.16629e-06
1.8573e-06
6.26805e-07
3.74849e-07
1.36275e-06
3.51747e-07
1.3449e-06
3.58637e-07
6.25561e-07
1.83158e-06
8.3515e-06
8.16658e-06
1.85729e-06
6.26806e-07
3.74869e-07
3.51749e-07
1.36275e-06
3.58641e-07
1.34502e-06
6.25561e-07
1.81489e-06
7.84937e-06
1.76983e-06
8.09618e-06
6.26386e-07
3.73561e-07
1.31282e-06
3.81634e-07
6.2474e-07
3.65946e-07
1.33423e-06
1.81488e-06
7.84998e-06
1.76982e-06
8.09665e-06
6.26784e-07
3.7484e-07
1.36246e-06
3.51744e-07
1.34472e-06
3.58635e-07
6.25544e-07
1.83173e-06
8.35039e-06
8.16537e-06
1.8573e-06
6.26783e-07
3.7486e-07
3.51746e-07
1.36263e-06
3.58637e-07
1.34478e-06
6.25543e-07
1.83172e-06
8.35081e-06
8.16589e-06
1.85728e-06
2.63578e-06
2.63521e-06
4.0847e-07
2.68005e-06
2.6794e-06
2.47494e-05
2.44186e-05
2.38564e-05
2.42889e-05
4.06867e-07
2.74338e-06
2.74309e-06
2.70134e-06
2.70038e-06
2.38543e-05
2.4287e-05
6.26405e-07
3.73562e-07
1.31293e-06
3.81626e-07
6.24748e-07
3.65947e-07
1.33434e-06
1.81521e-06
7.85009e-06
1.76947e-06
8.09678e-06
1.81523e-06
7.85028e-06
1.76948e-06
8.09701e-06
6.26798e-07
3.74847e-07
3.51748e-07
1.36264e-06
3.58636e-07
1.34478e-06
6.25554e-07
6.26801e-07
3.7485e-07
3.51747e-07
1.36274e-06
3.58638e-07
1.34489e-06
6.25556e-07
1.83157e-06
8.35094e-06
8.16602e-06
1.85728e-06
1.83158e-06
8.35125e-06
8.16627e-06
1.8573e-06
2.47497e-05
2.44189e-05
2.47507e-05
2.44198e-05
4.06865e-07
2.7431e-06
2.74361e-06
2.70041e-06
2.70092e-06
2.38545e-05
2.42872e-05
2.38552e-05
2.42881e-05
2.36968e-05
2.32647e-05
2.36987e-05
2.32669e-05
2.76337e-06
2.76395e-06
3.86843e-07
2.80266e-06
2.80324e-06
2.26485e-05
2.31137e-05
2.26505e-05
2.31154e-05
3.85325e-07
2.87694e-06
2.87755e-06
2.82411e-06
2.82474e-06
1.89465e-06
8.39887e-06
1.8734e-06
8.52539e-06
6.22178e-07
1.37231e-06
3.45261e-07
3.56044e-07
6.25369e-07
1.38623e-06
3.39055e-07
6.22177e-07
1.37251e-06
3.45262e-07
3.56048e-07
6.25368e-07
1.3864e-06
3.39057e-07
1.89926e-06
8.64589e-06
8.56078e-06
1.90546e-06
1.89925e-06
8.64636e-06
8.56111e-06
1.90545e-06
6.21303e-07
3.50254e-07
1.40838e-06
3.26775e-07
1.39331e-06
3.32947e-07
6.15025e-07
6.21303e-07
3.50258e-07
1.40856e-06
3.26776e-07
1.39349e-06
3.32949e-07
6.15025e-07
2.76391e-06
2.76346e-06
3.86834e-07
2.80318e-06
2.80254e-06
2.36969e-05
2.3265e-05
2.26491e-05
2.31145e-05
3.85318e-07
2.8774e-06
2.87627e-06
2.82472e-06
2.82436e-06
2.26487e-05
2.31137e-05
6.22215e-07
1.37257e-06
3.45262e-07
3.56033e-07
6.25395e-07
1.38644e-06
3.39058e-07
1.89482e-06
8.40012e-06
1.87351e-06
8.52656e-06
6.22212e-07
3.45265e-07
1.37261e-06
3.56056e-07
6.25395e-07
3.3906e-07
1.38648e-06
1.89919e-06
8.64732e-06
8.56207e-06
1.90563e-06
6.21336e-07
3.50242e-07
1.40855e-06
3.26777e-07
1.39357e-06
3.32948e-07
6.1505e-07
1.89917e-06
8.64739e-06
8.56226e-06
1.90562e-06
6.21334e-07
3.50266e-07
3.26779e-07
1.40842e-06
3.32952e-07
1.39368e-06
6.15048e-07
1.89471e-06
8.39898e-06
1.87346e-06
8.52552e-06
6.22186e-07
3.45262e-07
1.37242e-06
3.56047e-07
6.25372e-07
3.39056e-07
1.38631e-06
1.89469e-06
8.39941e-06
1.87345e-06
8.52587e-06
6.2131e-07
3.50235e-07
1.40814e-06
3.26774e-07
1.39337e-06
3.32945e-07
6.15032e-07
1.89932e-06
8.64645e-06
8.56122e-06
1.90551e-06
6.21308e-07
3.50257e-07
3.26775e-07
1.40846e-06
3.32948e-07
1.39339e-06
6.15029e-07
1.89929e-06
8.64675e-06
8.56156e-06
1.90549e-06
2.76431e-06
2.7635e-06
3.86849e-07
2.80344e-06
2.80275e-06
2.36983e-05
2.3266e-05
2.26515e-05
2.31165e-05
3.85332e-07
2.87733e-06
2.87703e-06
2.82521e-06
2.82426e-06
2.26497e-05
2.31151e-05
6.22207e-07
3.45262e-07
1.37254e-06
3.56034e-07
6.25391e-07
3.39057e-07
1.38643e-06
1.89481e-06
8.39955e-06
1.8735e-06
8.52602e-06
1.89483e-06
8.39986e-06
1.87352e-06
8.52638e-06
6.21325e-07
3.50243e-07
3.26777e-07
1.4085e-06
3.32947e-07
1.39339e-06
6.15041e-07
6.21331e-07
3.50244e-07
3.26776e-07
1.40858e-06
3.32948e-07
1.39352e-06
6.15044e-07
1.89916e-06
8.64691e-06
8.56171e-06
1.90561e-06
1.89918e-06
8.64732e-06
8.56209e-06
1.90563e-06
2.36986e-05
2.32662e-05
2.36992e-05
2.32667e-05
3.85331e-07
2.87704e-06
2.87761e-06
2.82428e-06
2.82483e-06
2.26499e-05
2.31153e-05
2.26504e-05
2.31158e-05
2.24953e-05
2.21438e-05
2.24969e-05
2.21458e-05
2.89612e-06
2.8967e-06
3.64851e-07
2.91991e-06
2.92056e-06
2.1989e-05
2.20698e-05
2.19909e-05
2.20715e-05
3.62946e-07
2.91385e-06
2.91457e-06
2.92194e-06
2.9226e-06
1.92942e-06
8.66786e-06
1.91928e-06
8.70653e-06
6.08278e-07
1.41661e-06
3.20424e-07
3.31935e-07
6.14371e-07
1.41422e-06
3.13911e-07
6.08276e-07
1.4168e-06
3.20425e-07
3.31936e-07
6.14371e-07
1.41439e-06
3.13913e-07
1.9236e-06
8.72436e-06
8.70949e-06
1.84554e-06
1.9236e-06
8.72488e-06
8.71e-06
1.84555e-06
6.05579e-07
3.25164e-07
1.3823e-06
3.01458e-07
1.41042e-06
3.07456e-07
5.83688e-07
6.05579e-07
3.25167e-07
1.38247e-06
3.0146e-07
1.4106e-06
3.07458e-07
5.83691e-07
2.89679e-06
2.89634e-06
3.64841e-07
2.92042e-06
2.91957e-06
2.24953e-05
2.21442e-05
2.19901e-05
2.20708e-05
3.62937e-07
2.91444e-06
2.91371e-06
2.92248e-06
2.92199e-06
2.19891e-05
2.207e-05
6.08318e-07
1.41681e-06
3.20424e-07
3.31919e-07
6.14399e-07
1.41442e-06
3.13914e-07
1.92959e-06
8.6689e-06
1.91939e-06
8.70746e-06
6.08316e-07
3.20428e-07
1.41683e-06
3.31944e-07
6.14398e-07
3.13916e-07
1.41442e-06
1.92366e-06
8.72577e-06
8.71087e-06
1.84584e-06
6.05615e-07
3.25149e-07
1.38252e-06
3.01461e-07
1.41064e-06
3.07457e-07
5.83714e-07
1.92364e-06
8.72577e-06
8.71098e-06
1.84581e-06
6.05614e-07
3.25175e-07
3.01463e-07
1.38255e-06
3.07461e-07
1.41073e-06
5.8371e-07
1.92947e-06
8.66797e-06
1.91933e-06
8.7066e-06
6.08287e-07
3.20425e-07
1.41669e-06
3.31937e-07
6.14373e-07
3.13912e-07
1.41427e-06
1.92945e-06
8.66823e-06
1.91932e-06
8.70682e-06
6.05586e-07
3.25142e-07
1.38227e-06
3.01458e-07
1.41042e-06
3.07454e-07
5.83699e-07
1.92365e-06
8.72494e-06
8.71013e-06
1.84561e-06
6.05585e-07
3.25167e-07
3.01459e-07
1.38236e-06
3.07457e-07
1.41048e-06
5.83695e-07
1.92362e-06
8.72513e-06
8.71028e-06
1.84558e-06
2.89725e-06
2.89619e-06
3.64856e-07
2.9206e-06
2.92e-06
2.24966e-05
2.21452e-05
2.19918e-05
2.20727e-05
3.62951e-07
2.91468e-06
2.91399e-06
2.92296e-06
2.92204e-06
2.19905e-05
2.20713e-05
6.0831e-07
3.20425e-07
1.41683e-06
3.3192e-07
6.14396e-07
3.13913e-07
1.4144e-06
1.92958e-06
8.66839e-06
1.91939e-06
8.70699e-06
1.9296e-06
8.66881e-06
1.9194e-06
8.70746e-06
6.05604e-07
3.25151e-07
3.01461e-07
1.38237e-06
3.07456e-07
1.41049e-06
5.83703e-07
6.05609e-07
3.2515e-07
3.0146e-07
1.38248e-06
3.07457e-07
1.41061e-06
5.83705e-07
1.92363e-06
8.72529e-06
8.71044e-06
1.8458e-06
1.92365e-06
8.72581e-06
8.71093e-06
1.84583e-06
2.24968e-05
2.21454e-05
2.24972e-05
2.21458e-05
3.62951e-07
2.91399e-06
2.91464e-06
2.92206e-06
2.92268e-06
2.19906e-05
2.20714e-05
2.19911e-05
2.20718e-05
2.19883e-05
2.20252e-05
2.19901e-05
2.20277e-05
2.91568e-06
2.91638e-06
3.40405e-07
2.95422e-06
2.95494e-06
2.20876e-05
2.20485e-05
2.20898e-05
2.20502e-05
3.3972e-07
3.02286e-06
3.02362e-06
2.97727e-06
2.97797e-06
1.76928e-06
8.73826e-06
1.82474e-06
8.79739e-06
5.60148e-07
1.37924e-06
2.96348e-07
3.09291e-07
5.77664e-07
1.37229e-06
2.9238e-07
5.60148e-07
1.37942e-06
2.9635e-07
3.09296e-07
5.77666e-07
1.37245e-06
2.92382e-07
1.7642e-06
8.86457e-06
8.81867e-06
1.76059e-06
1.76421e-06
8.86514e-06
8.81921e-06
1.76059e-06
5.57949e-07
3.06578e-07
1.38788e-06
2.87692e-07
1.37503e-06
2.89554e-07
5.54379e-07
5.57949e-07
3.06584e-07
1.38804e-06
2.87694e-07
1.3752e-06
2.89555e-07
5.54378e-07
2.91628e-06
2.91574e-06
3.40397e-07
2.95487e-06
2.95398e-06
2.19883e-05
2.2024e-05
2.20886e-05
2.20495e-05
3.39713e-07
3.0235e-06
3.02266e-06
2.97794e-06
2.97769e-06
2.20862e-05
2.20479e-05
5.60173e-07
1.37953e-06
2.96349e-07
3.09278e-07
5.77675e-07
1.37249e-06
2.92383e-07
1.76939e-06
8.73926e-06
1.82454e-06
8.79823e-06
5.60172e-07
2.96353e-07
1.37967e-06
3.09304e-07
5.77675e-07
2.92385e-07
1.37256e-06
1.764e-06
8.86579e-06
8.82005e-06
1.76051e-06
5.57958e-07
3.06565e-07
1.3881e-06
2.87694e-07
1.37526e-06
2.89555e-07
5.54389e-07
1.76399e-06
8.86541e-06
8.82014e-06
1.7605e-06
5.5796e-07
3.06592e-07
2.87697e-07
1.38815e-06
2.89558e-07
1.37536e-06
5.54389e-07
1.76932e-06
8.73843e-06
1.8248e-06
8.79738e-06
5.60159e-07
2.96349e-07
1.37931e-06
3.09295e-07
5.77657e-07
2.92381e-07
1.37234e-06
1.76929e-06
8.7385e-06
1.82477e-06
8.79758e-06
5.57953e-07
3.06558e-07
1.38786e-06
2.87692e-07
1.37506e-06
2.89552e-07
5.54383e-07
1.76424e-06
8.86462e-06
8.8193e-06
1.76062e-06
5.57951e-07
3.06583e-07
2.87693e-07
1.38793e-06
2.89555e-07
1.37509e-06
5.54385e-07
1.76423e-06
8.86527e-06
8.81938e-06
1.76061e-06
2.9167e-06
2.91582e-06
3.40413e-07
2.95501e-06
2.9544e-06
2.19897e-05
2.20266e-05
2.20889e-05
2.20506e-05
3.39728e-07
3.02374e-06
3.02298e-06