/*--------------------------------*- C++ -*----------------------------------*\
| =========                 |                                                 |
| \\      /  F ield         | OpenFOAM: The Open Source CFD Toolbox           |
|  \\    /   O peration     | Version:  2206                                  |
|   \\  /    A nd           | Website:  www.openfoam.com                      |
|    \\/     M anipulation  |                                                 |
\*---------------------------------------------------------------------------*/
FoamFile
{
    version     2.0;
    format      ascii;
    arch        "LSB;label=32;scalar=64";
    class       volScalarField;
    location    "30";
    object      k;
}
// * * * * * * * * * * * * * * * * * * * * * * * * * * * * * * * * * * * * * //

dimensions      [0 2 -2 0 0 0 0];

internalField   nonuniform List<scalar> 
28688
(
3.58929e-05
3.5891e-05
3.5891e-05
3.59956e-05
3.3928e-05
3.3888e-05
3.3888e-05
3.3962e-05
3.21538e-05
3.20061e-05
3.20061e-05
3.1953e-05
3.05418e-05
3.02357e-05
3.02356e-05
2.99921e-05
2.90331e-05
2.85491e-05
2.8549e-05
2.81198e-05
2.76212e-05
2.69871e-05
2.6987e-05
2.6414e-05
2.6282e-05
2.54971e-05
2.54969e-05
2.47725e-05
2.58565e-05
2.5188e-05
2.51878e-05
2.44662e-05
2.58164e-05
2.52128e-05
2.52127e-05
2.45814e-05
2.58161e-05
2.52199e-05
2.52198e-05
2.45972e-05
2.58163e-05
2.52208e-05
2.52207e-05
2.45989e-05
2.58164e-05
2.52211e-05
2.52209e-05
2.45992e-05
3.6307e-05
3.6291e-05
3.6291e-05
3.6307e-05
3.6291e-05
3.6291e-05
3.6423e-05
3.6423e-05
3.6423e-05
3.6423e-05
3.6291e-05
3.6291e-05
3.6307e-05
3.6291e-05
3.6291e-05
3.6307e-05
3.59956e-05
3.42689e-05
3.5891e-05
3.5891e-05
3.43763e-05
3.43762e-05
3.59956e-05
3.42689e-05
3.5891e-05
3.5891e-05
3.43763e-05
3.43762e-05
3.5891e-05
3.43763e-05
3.43763e-05
3.59956e-05
3.42689e-05
3.5891e-05
3.43763e-05
3.43763e-05
3.42689e-05
3.3962e-05
3.22638e-05
3.38879e-05
3.38879e-05
3.24694e-05
3.24693e-05
3.39621e-05
3.22638e-05
3.38879e-05
3.38878e-05
3.24695e-05
3.24693e-05
3.38879e-05
3.24696e-05
3.24694e-05
3.3962e-05
3.22637e-05
3.38879e-05
3.24696e-05
3.24695e-05
3.22637e-05
3.1953e-05
3.0299e-05
3.20059e-05
3.20058e-05
3.06693e-05
3.06691e-05
3.1953e-05
3.02991e-05
3.2006e-05
3.20058e-05
3.06694e-05
3.0669e-05
3.20059e-05
3.06695e-05
3.06692e-05
3.1953e-05
3.02989e-05
3.2006e-05
3.06695e-05
3.06694e-05
3.02989e-05
2.99922e-05
2.8415e-05
3.02354e-05
3.02352e-05
2.89483e-05
2.89481e-05
2.99922e-05
2.84152e-05
3.02355e-05
3.02351e-05
2.89485e-05
2.8948e-05
3.02353e-05
2.89488e-05
2.89483e-05
2.99921e-05
2.84149e-05
3.02355e-05
2.89487e-05
2.89485e-05
2.84149e-05
2.81199e-05
2.66875e-05
2.85487e-05
2.85485e-05
2.74023e-05
2.74021e-05
2.81199e-05
2.66877e-05
2.85489e-05
2.85483e-05
2.74026e-05
2.74019e-05
2.85486e-05
2.74029e-05
2.74023e-05
2.81198e-05
2.66873e-05
2.85489e-05
2.74028e-05
2.74026e-05
2.66873e-05
2.64141e-05
2.49649e-05
2.69866e-05
2.69863e-05
2.5769e-05
2.57687e-05
2.64142e-05
2.49651e-05
2.69869e-05
2.69862e-05
2.57694e-05
2.57685e-05
2.69865e-05
2.57696e-05
2.57689e-05
2.6414e-05
2.49647e-05
2.69869e-05
2.57695e-05
2.57693e-05
2.49647e-05
2.47727e-05
2.44623e-05
2.54965e-05
2.54961e-05
2.5193e-05
2.51928e-05
2.47728e-05
2.44624e-05
2.54968e-05
2.54959e-05
2.51933e-05
2.51926e-05
2.54963e-05
2.51935e-05
2.51929e-05
2.47725e-05
2.4462e-05
2.54968e-05
2.51933e-05
2.51933e-05
2.44621e-05
2.44665e-05
2.45827e-05
2.51875e-05
2.51873e-05
2.52067e-05
2.52065e-05
2.44666e-05
2.45828e-05
2.51878e-05
2.51871e-05
2.5207e-05
2.52063e-05
2.51874e-05
2.52072e-05
2.52066e-05
2.44663e-05
2.45825e-05
2.51878e-05
2.5207e-05
2.52071e-05
2.45827e-05
2.45816e-05
2.46009e-05
2.52125e-05
2.52124e-05
2.52189e-05
2.52188e-05
2.45816e-05
2.46009e-05
2.52129e-05
2.52122e-05
2.52193e-05
2.52185e-05
2.52125e-05
2.52194e-05
2.5219e-05
2.45813e-05
2.46006e-05
2.5213e-05
2.52192e-05
2.52194e-05
2.4601e-05
2.45974e-05
2.46029e-05
2.52196e-05
2.52195e-05
2.52202e-05
2.52202e-05
2.45973e-05
2.46029e-05
2.522e-05
2.52192e-05
2.52206e-05
2.52199e-05
2.52196e-05
2.52207e-05
2.52203e-05
2.45971e-05
2.46026e-05
2.522e-05
2.52206e-05
2.52207e-05
2.46029e-05
2.45991e-05
2.46033e-05
2.52204e-05
2.52203e-05
2.52206e-05
2.52205e-05
2.45991e-05
2.46032e-05
2.52208e-05
2.52201e-05
2.5221e-05
2.52203e-05
2.52205e-05
2.5221e-05
2.52207e-05
2.45988e-05
2.46029e-05
2.52209e-05
2.52209e-05
2.52211e-05
2.46033e-05
2.45994e-05
2.46034e-05
2.52208e-05
2.52207e-05
2.52209e-05
2.45993e-05
2.52212e-05
2.52204e-05
2.52213e-05
2.52206e-05
2.52208e-05
2.5221e-05
2.4599e-05
2.46031e-05
2.52213e-05
2.52212e-05
2.52214e-05
2.46035e-05
3.73774e-05
3.73765e-05
3.73771e-05
3.73771e-05
3.73702e-05
3.73777e-05
3.73043e-05
3.73768e-05
3.73702e-05
3.73777e-05
3.73768e-05
3.73043e-05
3.73742e-05
3.72959e-05
3.72959e-05
3.58826e-05
4.0882e-05
3.66023e-05
4.51357e-05
5.5115e-05
6.48764e-05
3.58827e-05
4.08813e-05
3.66026e-05
4.51353e-05
3.5893e-05
3.5893e-05
3.5893e-05
3.43994e-05
3.43994e-05
3.43994e-05
3.43994e-05
3.52766e-05
3.56343e-05
3.58927e-05
3.53772e-05
3.60472e-05
3.42449e-05
3.53826e-05
5.51171e-05
6.48799e-05
3.52766e-05
3.58927e-05
3.5634e-05
3.53773e-05
3.60472e-05
3.53826e-05
3.4246e-05
3.65928e-05
3.65932e-05
3.52793e-05
3.4076e-05
3.40752e-05
3.39748e-05
5.13637e-05
3.46723e-05
5.46148e-05
7.65626e-05
8.08455e-05
3.39771e-05
5.13648e-05
3.46724e-05
5.46151e-05
3.3928e-05
3.39281e-05
3.39281e-05
3.25861e-05
3.25861e-05
3.25861e-05
3.25861e-05
3.30562e-05
3.24674e-05
3.39282e-05
3.34089e-05
3.38942e-05
3.15884e-05
3.34684e-05
7.65645e-05
8.08487e-05
3.30563e-05
3.39282e-05
3.24658e-05
3.34088e-05
3.38939e-05
3.34684e-05
3.15904e-05
3.17088e-05
3.17081e-05
3.32638e-05
3.09403e-05
3.09389e-05
3.22634e-05
5.91855e-05
3.29123e-05
6.14246e-05
8.43985e-05
8.50636e-05
3.2267e-05
5.91874e-05
3.29098e-05
6.14266e-05
3.21538e-05
3.21538e-05
3.21538e-05
3.09364e-05
3.09364e-05
3.09364e-05
3.09364e-05
3.07929e-05
3.05135e-05
3.21347e-05
3.15507e-05
3.16343e-05
2.98891e-05
3.17066e-05
8.44009e-05
8.50659e-05
3.07929e-05
3.21347e-05
3.05124e-05
3.15506e-05
3.16337e-05
3.17066e-05
2.98906e-05
3.02221e-05
3.0221e-05
3.12709e-05
3.00059e-05
3.00045e-05
3.07714e-05
6.43668e-05
3.13327e-05
6.57075e-05
8.46391e-05
8.38831e-05
3.07739e-05
6.4369e-05
3.13309e-05
6.57104e-05
3.05418e-05
3.05417e-05
3.05418e-05
2.93821e-05
2.93821e-05
2.93821e-05
2.93821e-05
2.86073e-05
2.91353e-05
3.04755e-05
2.98005e-05
2.94075e-05
2.86874e-05
3.00671e-05
8.464e-05
8.38849e-05
2.86072e-05
3.04755e-05
2.91352e-05
2.98004e-05
2.94071e-05
3.0067e-05
2.86887e-05
2.99394e-05
2.99383e-05
2.93472e-05
3.00391e-05
3.00381e-05
2.95163e-05
6.7337e-05
3.00176e-05
6.80095e-05
8.22253e-05
8.12217e-05
2.95189e-05
6.73393e-05
3.0015e-05
6.80131e-05
2.90331e-05
2.90331e-05
2.90331e-05
2.80034e-05
2.80033e-05
2.80033e-05
2.80033e-05
2.65689e-05
2.81265e-05
2.89002e-05
2.81676e-05
2.73191e-05
2.77744e-05
2.85439e-05
8.22254e-05
8.12227e-05
2.65687e-05
2.89002e-05
2.81283e-05
2.81675e-05
2.73186e-05
2.85438e-05
2.77732e-05
3.04372e-05
3.04366e-05
2.75365e-05
3.07843e-05
3.07836e-05
2.86802e-05
6.87653e-05
2.89153e-05
6.89714e-05
7.94221e-05
7.85883e-05
2.86791e-05
6.87686e-05
2.89155e-05
6.89748e-05
2.76212e-05
2.76212e-05
2.76212e-05
2.65379e-05
2.65379e-05
2.65378e-05
2.65378e-05
2.47551e-05
2.74262e-05
2.74239e-05
2.65522e-05
2.54258e-05
2.71175e-05
2.7014e-05
7.94218e-05
7.85889e-05
2.47546e-05
2.74238e-05
2.74274e-05
2.6552e-05
2.54256e-05
2.70139e-05
2.71152e-05
3.1547e-05
3.1547e-05
2.58136e-05
3.20283e-05
3.20286e-05
2.78117e-05
6.91349e-05
2.78127e-05
6.94443e-05
7.82124e-05
7.82985e-05
2.78112e-05
6.9138e-05
2.78123e-05
6.94473e-05
2.6282e-05
2.62819e-05
2.6282e-05
2.58994e-05
2.58994e-05
2.58993e-05
2.58993e-05
2.34501e-05
2.66497e-05
2.59976e-05
2.5321e-05
2.36432e-05
2.66991e-05
2.58055e-05
7.82121e-05
7.8295e-05
2.34499e-05
2.59974e-05
2.66505e-05
2.53209e-05
2.36429e-05
2.58053e-05
2.66999e-05
3.25901e-05
3.25907e-05
2.45176e-05
3.33873e-05
3.33883e-05
2.8205e-05
6.98606e-05
2.81083e-05
6.99334e-05
7.84702e-05
7.84979e-05
2.82051e-05
6.98636e-05
2.81086e-05
6.99361e-05
2.58566e-05
2.58565e-05
2.58565e-05
2.58182e-05
2.58182e-05
2.58181e-05
2.58181e-05
2.36197e-05
2.74699e-05
2.55793e-05
2.51898e-05
2.35318e-05
2.76826e-05
2.55636e-05
7.84675e-05
7.84939e-05
2.36199e-05
2.55793e-05
2.74691e-05
2.51896e-05
2.35319e-05
2.55635e-05
2.76823e-05
3.45224e-05
3.45241e-05
2.45384e-05
3.47711e-05
3.47736e-05
2.82651e-05
6.99626e-05
2.82644e-05
6.99621e-05
7.85085e-05
7.85089e-05
2.82664e-05
6.99659e-05
2.82657e-05
6.99652e-05
2.58165e-05
2.58164e-05
2.58165e-05
2.5816e-05
2.5816e-05
2.58159e-05
2.5816e-05
2.36821e-05
2.78209e-05
2.55563e-05
2.52165e-05
2.36756e-05
2.78229e-05
2.55566e-05
7.85049e-05
7.85049e-05
2.36824e-05
2.55562e-05
2.78215e-05
2.52163e-05
2.36759e-05
2.55565e-05
2.78236e-05
3.48997e-05
3.4902e-05
2.45968e-05
3.49016e-05
3.4904e-05
2.82683e-05
6.99639e-05
2.82701e-05
6.99613e-05
7.85092e-05
7.85091e-05
2.82696e-05
6.99671e-05
2.82711e-05
6.99648e-05
2.58162e-05
2.58161e-05
2.58162e-05
2.58163e-05
2.58163e-05
2.58162e-05
2.58163e-05
2.36869e-05
2.78317e-05
2.55574e-05
2.52204e-05
2.36862e-05
2.78281e-05
2.55576e-05
7.85055e-05
7.8505e-05
2.36872e-05
2.55573e-05
2.7832e-05
2.52203e-05
2.36865e-05
2.55576e-05
2.78287e-05
3.49051e-05
3.49074e-05
2.46024e-05
3.49033e-05
3.49056e-05
2.82692e-05
6.99633e-05
2.82715e-05
6.99616e-05
7.85093e-05
7.85092e-05
2.82705e-05
6.99666e-05
2.82725e-05
6.99644e-05
2.58165e-05
2.58164e-05
2.58164e-05
2.58164e-05
2.58165e-05
2.58164e-05
2.58165e-05
2.36886e-05
2.78335e-05
2.55578e-05
2.5221e-05
2.36883e-05
2.78291e-05
2.55579e-05
7.85056e-05
7.8505e-05
2.36888e-05
2.55577e-05
2.78338e-05
2.52209e-05
2.36884e-05
2.55579e-05
2.78297e-05
3.49059e-05
3.49083e-05
2.46032e-05
3.49038e-05
3.49061e-05
2.82693e-05
6.99637e-05
2.82718e-05
6.99619e-05
7.85094e-05
7.85093e-05
2.82706e-05
6.99663e-05
2.82729e-05
6.99641e-05
2.58166e-05
2.58165e-05
2.58166e-05
2.58166e-05
2.58169e-05
2.58166e-05
2.58166e-05
2.36888e-05
2.78338e-05
2.5558e-05
2.52211e-05
2.3689e-05
2.78292e-05
2.55581e-05
7.85056e-05
7.8505e-05
2.36892e-05
2.5558e-05
2.78341e-05
2.52211e-05
2.36894e-05
2.55581e-05
2.78298e-05
3.49061e-05
3.49085e-05
2.46034e-05
3.49039e-05
3.49063e-05
3.73742e-05
3.72959e-05
3.72959e-05
5.3112e-05
3.71932e-05
5.31139e-05
3.71932e-05
3.70929e-05
3.72452e-05
3.72456e-05
3.71762e-05
3.71762e-05
3.73702e-05
3.73777e-05
3.73043e-05
3.73768e-05
3.73702e-05
3.73777e-05
3.73043e-05
3.73768e-05
3.71732e-05
3.94122e-05
3.7168e-05
3.67256e-05
3.71732e-05
3.94121e-05
3.7168e-05
3.67257e-05
3.70957e-05
3.71022e-05
3.60296e-05
3.6421e-05
3.71636e-05
3.71108e-05
3.63057e-05
3.70957e-05
3.71022e-05
3.603e-05
3.6421e-05
3.71636e-05
3.71108e-05
3.63057e-05
3.73742e-05
3.72959e-05
3.72959e-05
5.31121e-05
3.71933e-05
3.70929e-05
3.7246e-05
3.7245e-05
3.71762e-05
3.71762e-05
5.31137e-05
3.71933e-05
3.73702e-05
3.73777e-05
3.73043e-05
3.73768e-05
3.73702e-05
3.73777e-05
3.73768e-05
3.73043e-05
3.71732e-05
3.94126e-05
3.7168e-05
3.67259e-05
3.70958e-05
3.71022e-05
3.60296e-05
3.6421e-05
3.71636e-05
3.71108e-05
3.63057e-05
3.71732e-05
3.94129e-05
3.7168e-05
3.67256e-05
3.70958e-05
3.71022e-05
3.6421e-05
3.60297e-05
3.71108e-05
3.71636e-05
3.63057e-05
3.73774e-05
3.73765e-05
3.73771e-05
3.73771e-05
3.73774e-05
3.73765e-05
3.73771e-05
3.73771e-05
3.73774e-05
3.73765e-05
3.73771e-05
3.73771e-05
3.71132e-05
3.71098e-05
3.6424e-05
3.6424e-05
3.71123e-05
3.71123e-05
3.64259e-05
3.71132e-05
3.71098e-05
3.64239e-05
3.6424e-05
3.71123e-05
3.71123e-05
3.64259e-05
3.71132e-05
3.71098e-05
3.6424e-05
3.6424e-05
3.71123e-05
3.71123e-05
3.64259e-05
3.71132e-05
3.71098e-05
3.6424e-05
3.6424e-05
3.71123e-05
3.71123e-05
3.64259e-05
3.73702e-05
3.73777e-05
3.73768e-05
3.73043e-05
3.70957e-05
3.71022e-05
3.60295e-05
3.6421e-05
3.71636e-05
3.71108e-05
3.63057e-05
3.71732e-05
3.94123e-05
3.7168e-05
3.67258e-05
3.70957e-05
3.71022e-05
3.6421e-05
3.603e-05
3.71108e-05
3.71636e-05
3.63057e-05
3.71732e-05
3.94128e-05
3.7168e-05
3.67255e-05
3.73742e-05
3.72959e-05
3.72959e-05
5.31143e-05
3.71933e-05
3.70929e-05
3.72456e-05
3.72458e-05
3.71762e-05
3.71762e-05
5.31145e-05
3.71933e-05
3.73702e-05
3.73777e-05
3.73768e-05
3.73043e-05
3.70957e-05
3.71022e-05
3.6421e-05
3.603e-05
3.71108e-05
3.71636e-05
3.63057e-05
3.70957e-05
3.71022e-05
3.6421e-05
3.603e-05
3.71108e-05
3.71636e-05
3.63057e-05
3.71732e-05
3.94128e-05
3.7168e-05
3.67256e-05
3.71732e-05
3.94128e-05
3.7168e-05
3.67258e-05
3.70929e-05
3.72456e-05
3.72462e-05
3.71762e-05
3.71762e-05
5.31142e-05
3.71933e-05
5.31141e-05
3.71932e-05
5.5115e-05
6.48761e-05
5.51168e-05
6.4879e-05
3.65928e-05
3.65939e-05
3.52793e-05
3.40757e-05
3.40748e-05
7.47108e-05
6.76903e-05
7.47146e-05
6.76942e-05
3.49728e-05
3.20566e-05
3.20554e-05
3.34643e-05
3.34647e-05
3.58824e-05
4.08814e-05
3.66026e-05
4.5134e-05
3.52765e-05
3.56344e-05
3.58926e-05
3.53772e-05
3.60472e-05
3.42455e-05
3.53826e-05
3.52765e-05
3.56339e-05
3.58926e-05
3.53772e-05
3.60472e-05
3.42464e-05
3.53826e-05
3.56298e-05
5.02045e-05
4.64651e-05
3.48983e-05
3.56302e-05
5.02034e-05
4.64646e-05
3.48987e-05
3.49983e-05
3.4873e-05
3.27423e-05
3.44011e-05
3.3858e-05
3.48862e-05
3.4181e-05
3.49984e-05
3.48729e-05
3.27435e-05
3.44011e-05
3.38567e-05
3.48862e-05
3.41811e-05
3.6593e-05
3.65935e-05
3.52793e-05
3.4076e-05
3.40736e-05
5.51161e-05
6.48781e-05
7.47116e-05
6.76927e-05
3.49728e-05
3.20566e-05
3.20546e-05
3.34639e-05
3.34658e-05
7.47131e-05
6.76924e-05
3.52766e-05
3.56343e-05
3.58927e-05
3.53772e-05
3.60472e-05
3.42456e-05
3.53826e-05
3.58824e-05
4.08825e-05
3.66022e-05
4.51366e-05
3.52765e-05
3.58927e-05
3.56344e-05
3.53772e-05
3.60472e-05
3.53826e-05
3.42454e-05
3.563e-05
5.02044e-05
4.64648e-05
3.48989e-05
3.49983e-05
3.4873e-05
3.27423e-05
3.44011e-05
3.38571e-05
3.48862e-05
3.41812e-05
3.56299e-05
5.0206e-05
4.64667e-05
3.48986e-05
3.49983e-05
3.4873e-05
3.44011e-05
3.27419e-05
3.48862e-05
3.38576e-05
3.41811e-05
3.58826e-05
4.08802e-05
3.66025e-05
4.51357e-05
3.52765e-05
3.58927e-05
3.5634e-05
3.53772e-05
3.60472e-05
3.53826e-05
3.42464e-05
3.58826e-05
4.08829e-05
3.66021e-05
4.51358e-05
3.49984e-05
3.4873e-05
3.27414e-05
3.44011e-05
3.38577e-05
3.48862e-05
3.41812e-05
3.56301e-05
5.02038e-05
4.64627e-05
3.48987e-05
3.49983e-05
3.4873e-05
3.44011e-05
3.27435e-05
3.48862e-05
3.38566e-05
3.4181e-05
3.56297e-05
5.02048e-05
4.64669e-05
3.48986e-05
3.65931e-05
3.65928e-05
3.52793e-05
3.40745e-05
3.40753e-05
5.51172e-05
6.48778e-05
7.47154e-05
6.76939e-05
3.49728e-05
3.20553e-05
3.20573e-05
3.34645e-05
3.34642e-05
7.47131e-05
6.76941e-05
3.52766e-05
3.58927e-05
3.5634e-05
3.53772e-05
3.60472e-05
3.53826e-05
3.42462e-05
3.5883e-05
4.08822e-05
3.66022e-05
4.51363e-05
3.58832e-05
4.08813e-05
3.66025e-05
4.51353e-05
3.49983e-05
3.4873e-05
3.44011e-05
3.27434e-05
3.48862e-05
3.38569e-05
3.41811e-05
3.49983e-05
3.4873e-05
3.44011e-05
3.27433e-05
3.48862e-05
3.38564e-05
3.41812e-05
3.56292e-05
5.02058e-05
4.64665e-05
3.48988e-05
3.56295e-05
5.02053e-05
4.64645e-05
3.48991e-05
5.51167e-05
6.48777e-05
5.51168e-05
6.48784e-05
3.49728e-05
3.2057e-05
3.20558e-05
3.34637e-05
3.34639e-05
7.47122e-05
6.76934e-05
7.47138e-05
6.76949e-05
7.65601e-05
8.08442e-05
7.65644e-05
8.08487e-05
3.17099e-05
3.17086e-05
3.32638e-05
3.09408e-05
3.09378e-05
8.39941e-05
8.1863e-05
8.39981e-05
8.18662e-05
3.2955e-05
3.03204e-05
3.03172e-05
3.07425e-05
3.07409e-05
3.39753e-05
5.13633e-05
3.46724e-05
5.46146e-05
3.3056e-05
3.24674e-05
3.39282e-05
3.34088e-05
3.38941e-05
3.15891e-05
3.34683e-05
3.30562e-05
3.24657e-05
3.39282e-05
3.34087e-05
3.38941e-05
3.15905e-05
3.34683e-05
3.37688e-05
5.83581e-05
5.56099e-05
3.30961e-05
3.37689e-05
5.83583e-05
5.5609e-05
3.30966e-05
3.27661e-05
3.2937e-05
3.06618e-05
3.25733e-05
3.13866e-05
3.3018e-05
3.19222e-05
3.27662e-05
3.29369e-05
3.0663e-05
3.25733e-05
3.13846e-05
3.3018e-05
3.19224e-05
3.17083e-05
3.17109e-05
3.32639e-05
3.09392e-05
3.09383e-05
7.65621e-05
8.08459e-05
8.39953e-05
8.18647e-05
3.2955e-05
3.03181e-05
3.03189e-05
3.0741e-05
3.0743e-05
8.39957e-05
8.18648e-05
3.30564e-05
3.24663e-05
3.39283e-05
3.34088e-05
3.3894e-05
3.15894e-05
3.34683e-05
3.39765e-05
5.13659e-05
3.46722e-05
5.46177e-05
3.30562e-05
3.39282e-05
3.24673e-05
3.34087e-05
3.38939e-05
3.34683e-05
3.15886e-05
3.37666e-05
5.8359e-05
5.56113e-05
3.30991e-05
3.27659e-05
3.2937e-05
3.06617e-05
3.25733e-05
3.1385e-05
3.3018e-05
3.19226e-05
3.37666e-05
5.83613e-05
5.56119e-05
3.30986e-05
3.27657e-05
3.29369e-05
3.25733e-05
3.06612e-05
3.3018e-05
3.13864e-05
3.19224e-05
3.39757e-05
5.13627e-05
3.46724e-05
5.46145e-05
3.3056e-05
3.39282e-05
3.24659e-05
3.34087e-05
3.38941e-05
3.34683e-05
3.15909e-05
3.39749e-05
5.13653e-05
3.46724e-05
5.46159e-05
3.27662e-05
3.29371e-05
3.06611e-05
3.25733e-05
3.13862e-05
3.3018e-05
3.19224e-05
3.37683e-05
5.83584e-05
5.56087e-05
3.30967e-05
3.27661e-05
3.2937e-05
3.25733e-05
3.06633e-05
3.3018e-05
3.13849e-05
3.19222e-05
3.37682e-05
5.83601e-05
5.5611e-05
3.30964e-05
3.171e-05
3.17086e-05
3.32638e-05
3.09395e-05
3.09397e-05
7.65636e-05
8.08463e-05
8.39982e-05
8.18675e-05
3.29549e-05
3.03195e-05
3.0319e-05
3.07419e-05
3.07422e-05
8.3996e-05
8.18657e-05
3.30564e-05
3.39282e-05
3.24653e-05
3.34088e-05
3.3894e-05
3.34683e-05
3.15904e-05
3.39767e-05
5.13653e-05
3.46722e-05
5.46169e-05
3.39766e-05
5.1364e-05
3.46724e-05
5.46159e-05
3.27657e-05
3.29371e-05
3.25733e-05
3.0663e-05
3.3018e-05
3.13848e-05
3.19225e-05
3.27658e-05
3.2937e-05
3.25733e-05
3.06628e-05
3.3018e-05
3.13844e-05
3.19227e-05
3.37663e-05
5.83603e-05
5.56112e-05
3.30988e-05
3.37668e-05
5.83599e-05
5.56105e-05
3.30993e-05
7.65634e-05
8.08463e-05
7.65652e-05
8.08479e-05
3.29549e-05
3.0319e-05
3.03176e-05
3.07416e-05
3.07407e-05
8.39962e-05
8.18656e-05
8.39974e-05
8.18671e-05
8.43979e-05
8.50631e-05
8.43998e-05
8.50655e-05
3.02238e-05
3.02211e-05
3.1271e-05
3.00061e-05
3.00041e-05
8.48348e-05
8.50723e-05
8.48368e-05
8.50739e-05
3.09612e-05
2.99276e-05
2.99275e-05
2.9981e-05
2.99761e-05
3.2264e-05
5.91848e-05
3.29124e-05
6.14255e-05
3.07926e-05
3.05143e-05
3.21347e-05
3.15505e-05
3.16341e-05
2.98898e-05
3.17066e-05
3.07929e-05
3.05119e-05
3.21347e-05
3.15503e-05
3.16343e-05
2.98903e-05
3.17065e-05
3.21092e-05
6.38498e-05
6.20931e-05
3.14692e-05
3.21093e-05
6.38513e-05
6.20923e-05
3.14697e-05
3.05133e-05
3.11056e-05
2.9231e-05
3.08824e-05
2.97811e-05
3.12905e-05
2.9678e-05
3.05135e-05
3.11055e-05
2.92312e-05
3.08824e-05
2.97807e-05
3.12905e-05
2.96783e-05
3.02216e-05
3.02232e-05
3.12711e-05
3.00051e-05
3.00036e-05
8.43986e-05
8.50639e-05
8.48345e-05
8.50725e-05
3.09612e-05
2.99281e-05
2.99254e-05
2.99769e-05
2.99807e-05
8.48355e-05
8.50727e-05
3.07931e-05
3.05126e-05
3.21347e-05
3.15505e-05
3.16339e-05
2.98893e-05
3.17065e-05
3.22664e-05
5.91877e-05
3.29096e-05
6.14283e-05
3.07928e-05
3.21347e-05
3.05137e-05
3.15503e-05
3.16337e-05
3.17065e-05
2.98892e-05
3.21064e-05
6.38527e-05
6.20949e-05
3.14734e-05
3.05131e-05
3.11057e-05
2.92311e-05
3.08824e-05
2.97805e-05
3.12905e-05
2.96785e-05
3.21062e-05
6.38539e-05
6.2095e-05
3.14728e-05
3.0513e-05
3.11054e-05
3.08823e-05
2.92305e-05
3.12904e-05
2.97805e-05
2.96782e-05
3.2264e-05
5.91847e-05
3.29125e-05
6.14256e-05
3.07927e-05
3.21347e-05
3.05122e-05
3.15504e-05
3.16341e-05
3.17066e-05
2.98905e-05
3.22636e-05
5.91866e-05
3.29122e-05
6.14271e-05
3.05135e-05
3.11058e-05
2.92303e-05
3.08825e-05
2.97804e-05
3.12905e-05
2.96783e-05
3.21093e-05
6.38516e-05
6.20923e-05
3.14697e-05
3.05133e-05
3.11055e-05
3.08824e-05
2.92312e-05
3.12905e-05
2.97808e-05
2.9678e-05
3.21089e-05
6.38526e-05
6.20939e-05
3.14693e-05
3.02225e-05
3.02227e-05
3.12709e-05
3.00046e-05
3.00062e-05
8.43993e-05
8.50642e-05
8.48367e-05
8.50743e-05
3.09611e-05
2.99264e-05
2.99289e-05
2.99801e-05
2.99781e-05
8.4835e-05
8.50731e-05
3.07932e-05
3.21347e-05
3.05117e-05
3.15505e-05
3.16339e-05
3.17065e-05
2.989e-05
3.22667e-05
5.91867e-05
3.29094e-05
6.14273e-05
3.22671e-05
5.91865e-05
3.29098e-05
6.14273e-05
3.0513e-05
3.11058e-05
3.08824e-05
2.92313e-05
3.12905e-05
2.9781e-05
2.96783e-05
3.05132e-05
3.11057e-05
3.08824e-05
2.92309e-05
3.12904e-05
2.97804e-05
2.96785e-05
3.2106e-05
6.38529e-05
6.20941e-05
3.14731e-05
3.21064e-05
6.38532e-05
6.20941e-05
3.14735e-05
8.43994e-05
8.50644e-05
8.44005e-05
8.50653e-05
3.09611e-05
2.99287e-05
2.99275e-05
2.99775e-05
2.99764e-05
8.48352e-05
8.50733e-05
8.48355e-05
8.50739e-05
8.46392e-05
8.38841e-05
8.46392e-05
8.38849e-05
2.99398e-05
2.99382e-05
2.93473e-05
3.00398e-05
3.00379e-05
8.25871e-05
8.35811e-05
8.25875e-05
8.3581e-05
2.90414e-05
3.032e-05
3.03184e-05
3.01111e-05
3.01105e-05
3.07718e-05
6.43666e-05
3.1333e-05
6.57088e-05
2.86071e-05
2.91358e-05
3.04755e-05
2.98001e-05
2.94073e-05
2.86888e-05
3.0067e-05
2.86073e-05
2.91352e-05
3.04755e-05
2.97999e-05
2.94075e-05
2.86886e-05
3.0067e-05
3.06178e-05
6.70754e-05
6.60828e-05
3.01269e-05
3.0618e-05
6.70771e-05
6.60828e-05
3.01273e-05
2.83332e-05
2.93679e-05
2.81924e-05
2.92718e-05
2.85968e-05
2.96626e-05
2.75709e-05
2.83334e-05
2.93677e-05
2.8193e-05
2.92718e-05
2.8596e-05
2.96626e-05
2.75711e-05
2.99389e-05
2.99382e-05
2.93475e-05
3.00385e-05
3.00382e-05
8.4639e-05
8.38842e-05
8.25862e-05
8.35811e-05
2.90414e-05
3.032e-05
3.03158e-05
3.01108e-05
3.01103e-05
8.25871e-05
8.35813e-05
2.86073e-05
2.9135e-05
3.04755e-05
2.98003e-05
2.94072e-05
2.86884e-05
3.0067e-05
3.07734e-05
6.43687e-05
3.13306e-05
6.57112e-05
2.8607e-05
3.04754e-05
2.91355e-05
2.97998e-05
2.9407e-05
3.00669e-05
2.86875e-05
3.06152e-05
6.7079e-05
6.6085e-05
3.01308e-05
2.8333e-05
2.93681e-05
2.81925e-05
2.92718e-05
2.8596e-05
2.96626e-05
2.75713e-05
3.0615e-05
6.70787e-05
6.60848e-05
3.01304e-05
2.83328e-05
2.93676e-05
2.92717e-05
2.81909e-05
2.96625e-05
2.85981e-05
2.7571e-05
3.07717e-05
6.43665e-05
3.13329e-05
6.57093e-05
2.8607e-05
3.04755e-05
2.91352e-05
2.98001e-05
2.94073e-05
3.0067e-05
2.86886e-05
3.07713e-05
6.43678e-05
3.13325e-05
6.57097e-05
2.83334e-05
2.93682e-05
2.81908e-05
2.92719e-05
2.85978e-05
2.96626e-05
2.75711e-05
3.0618e-05
6.70775e-05
6.60829e-05
3.01273e-05
2.83332e-05
2.93678e-05
2.92718e-05
2.81929e-05
2.96626e-05
2.85959e-05
2.75708e-05
3.06176e-05
6.70775e-05
6.60836e-05
3.01269e-05
2.99388e-05
2.99396e-05
2.93472e-05
3.0039e-05
3.00395e-05
8.46397e-05
8.38835e-05
8.25874e-05
8.35817e-05
2.90413e-05
3.03171e-05
3.03206e-05
3.01109e-05
3.01117e-05
8.25867e-05
8.35818e-05
2.86074e-05
3.04755e-05
2.91348e-05
2.98002e-05
2.94073e-05
3.0067e-05
2.86883e-05
3.07735e-05
6.4368e-05
3.13305e-05
6.571e-05
3.07739e-05
6.43684e-05
3.13309e-05
6.57106e-05
2.83328e-05
2.93681e-05
2.92718e-05
2.81929e-05
2.96626e-05
2.85959e-05
2.75712e-05
2.8333e-05
2.9368e-05
2.92718e-05
2.81927e-05
2.96626e-05
2.85956e-05
2.75714e-05
3.06149e-05
6.70779e-05
6.60839e-05
3.01305e-05
3.06152e-05
6.70789e-05
6.60846e-05
3.01309e-05
8.46399e-05
8.38837e-05
8.46402e-05
8.38836e-05
2.90413e-05
3.03205e-05
3.03193e-05
3.01113e-05
3.01104e-05
8.25868e-05
8.35819e-05
8.25864e-05
8.35818e-05
8.22257e-05
8.12226e-05
8.22248e-05
8.12226e-05
3.04376e-05
3.04367e-05
2.75366e-05
3.07842e-05
3.07833e-05
7.97835e-05
8.08712e-05
7.9783e-05
8.087e-05
2.72552e-05
3.13785e-05
3.13777e-05
3.09465e-05
3.0947e-05
2.95168e-05
6.73374e-05
3.00177e-05
6.80113e-05
2.65687e-05
2.81279e-05
2.89002e-05
2.81672e-05
2.73189e-05
2.77735e-05
2.85438e-05
2.6569e-05
2.81284e-05
2.89002e-05
2.81669e-05
2.73191e-05
2.77735e-05
2.85437e-05
2.94141e-05
6.86516e-05
6.82002e-05
2.89875e-05
2.94144e-05
6.86534e-05
6.82013e-05
2.89878e-05
2.63279e-05
2.77913e-05
2.74618e-05
2.78186e-05
2.7714e-05
2.81889e-05
2.56367e-05
2.63281e-05
2.7791e-05
2.74621e-05
2.78186e-05
2.77141e-05
2.81889e-05
2.56368e-05
3.04365e-05
3.04412e-05
2.75368e-05
3.07837e-05
3.07778e-05
8.22253e-05
8.12227e-05
7.97823e-05
8.08706e-05
2.72553e-05
3.13782e-05
3.13746e-05
3.09468e-05
3.09476e-05
7.97833e-05
8.08705e-05
2.65689e-05
2.81278e-05
2.89002e-05
2.81674e-05
2.73187e-05
2.77738e-05
2.85437e-05
2.95184e-05
6.7339e-05
3.00148e-05
6.80124e-05
2.65686e-05
2.89001e-05
2.81267e-05
2.81668e-05
2.73185e-05
2.85436e-05
2.77747e-05
2.94142e-05
6.86551e-05
6.8203e-05
2.89881e-05
2.63279e-05
2.77915e-05
2.74616e-05
2.78186e-05
2.77141e-05
2.81889e-05
2.56368e-05
2.94138e-05
6.86537e-05
6.82023e-05
2.89878e-05
2.63277e-05
2.77909e-05
2.78185e-05
2.74611e-05
2.81887e-05
2.77151e-05
2.56365e-05
2.95167e-05
6.73377e-05
3.00176e-05
6.80117e-05
2.65687e-05
2.89002e-05
2.81282e-05
2.81671e-05
2.73189e-05
2.85438e-05
2.77731e-05
2.95163e-05
6.73378e-05
3.00172e-05
6.80113e-05
2.63281e-05
2.77918e-05
2.74606e-05
2.78187e-05
2.77148e-05
2.81889e-05
2.56368e-05
2.94143e-05
6.86535e-05
6.82016e-05
2.89877e-05
2.63278e-05
2.77912e-05
2.78186e-05
2.74617e-05
2.81889e-05
2.77137e-05
2.56366e-05
2.94139e-05
6.86529e-05
6.82012e-05
2.89874e-05
3.04409e-05
3.04372e-05
2.75365e-05
3.07811e-05
3.07849e-05
8.2226e-05
8.12223e-05
7.97831e-05
8.08704e-05
2.72551e-05
3.13775e-05
3.1379e-05
3.09483e-05
3.09475e-05
7.97831e-05
8.08712e-05
2.6569e-05
2.89002e-05
2.81281e-05
2.81674e-05
2.73188e-05
2.85438e-05
2.7773e-05
2.95186e-05
6.73381e-05
3.00146e-05
6.80118e-05
2.95189e-05
6.73392e-05
3.00149e-05
6.8013e-05
2.63278e-05
2.77916e-05
2.78186e-05
2.74618e-05
2.81889e-05
2.77139e-05
2.56367e-05
2.63279e-05
2.77915e-05
2.78186e-05
2.74617e-05
2.81889e-05
2.77137e-05
2.56369e-05
2.94139e-05
6.86534e-05
6.82015e-05
2.89879e-05
2.94142e-05
6.86549e-05
6.82029e-05
2.89882e-05
8.22261e-05
8.12224e-05
8.22256e-05
8.12216e-05
2.72551e-05
3.13787e-05
3.13784e-05
3.09472e-05
3.09468e-05
7.97832e-05
8.08713e-05
7.97822e-05
8.08705e-05
7.9423e-05
7.85893e-05
7.94214e-05
7.85885e-05
3.15469e-05
3.15469e-05
2.58137e-05
3.20281e-05
3.2028e-05
7.82155e-05
7.84119e-05
7.82147e-05
7.84107e-05
2.55353e-05
3.23989e-05
3.23999e-05
3.21806e-05
3.21811e-05
2.86804e-05
6.87672e-05
2.89155e-05
6.89733e-05
2.47549e-05
2.74275e-05
2.74238e-05
2.65515e-05
2.54257e-05
2.71158e-05
2.70139e-05
2.47551e-05
2.74278e-05
2.74238e-05
2.65512e-05
2.54258e-05
2.71158e-05
2.70138e-05
2.84644e-05
6.90657e-05
6.89898e-05
2.78704e-05
2.84646e-05
6.90678e-05
6.89919e-05
2.78706e-05
2.44928e-05
2.6131e-05
2.66545e-05
2.62705e-05
2.69669e-05
2.66176e-05
2.37975e-05
2.4493e-05
2.61307e-05
2.66548e-05
2.62704e-05
2.6967e-05
2.66175e-05
2.37976e-05
3.15467e-05
3.15484e-05
2.5814e-05
3.20282e-05
3.20258e-05
7.94221e-05
7.85892e-05
7.82148e-05
7.84111e-05
2.55354e-05
3.23994e-05
3.23981e-05
3.21808e-05
3.21808e-05
7.82147e-05
7.84114e-05
2.47546e-05
2.74271e-05
2.74238e-05
2.65518e-05
2.54257e-05
2.71164e-05
2.70138e-05
2.86788e-05
6.87675e-05
2.89152e-05
6.89731e-05
2.47544e-05
2.74237e-05
2.74266e-05
2.65511e-05
2.54255e-05
2.70137e-05
2.71182e-05
2.84614e-05
6.90691e-05
6.89931e-05
2.78713e-05
2.44925e-05
2.61314e-05
2.66543e-05
2.62704e-05
2.69681e-05
2.66176e-05
2.37974e-05
2.84611e-05
6.90673e-05
6.89919e-05
2.7871e-05
2.44923e-05
2.61306e-05
2.62702e-05
2.66539e-05
2.66174e-05
2.69702e-05
2.37973e-05
2.86802e-05
6.87675e-05
2.89154e-05
6.89733e-05
2.47548e-05
2.74238e-05
2.74274e-05
2.65514e-05
2.54256e-05
2.70139e-05
2.71152e-05
2.86798e-05
6.87666e-05
2.89151e-05
6.89723e-05
2.44929e-05
2.61316e-05
2.66533e-05
2.62706e-05
2.69694e-05
2.66177e-05
2.37975e-05
2.84645e-05
6.90678e-05
6.89922e-05
2.78705e-05
2.44927e-05
2.61309e-05
2.62704e-05
2.66542e-05
2.66176e-05
2.69663e-05
2.37973e-05
2.84641e-05
6.90665e-05
6.89907e-05
2.78702e-05
3.15493e-05
3.15472e-05
2.58136e-05
3.20287e-05
3.20287e-05
7.94226e-05
7.85891e-05
7.82145e-05
7.84112e-05
2.55352e-05
3.24004e-05
3.23998e-05
3.2183e-05
3.21813e-05
7.82154e-05
7.84118e-05
2.47547e-05
2.74238e-05
2.74274e-05
2.65518e-05
2.54258e-05
2.70138e-05
2.71153e-05
2.86787e-05
6.87671e-05
2.89153e-05
6.89728e-05
2.8679e-05
6.87686e-05
2.89156e-05
6.89746e-05
2.44922e-05
2.61314e-05
2.62704e-05
2.66543e-05
2.66175e-05
2.69663e-05
2.37974e-05
2.44925e-05
2.61313e-05
2.62704e-05
2.66543e-05
2.66176e-05
2.69665e-05
2.37975e-05
2.8461e-05
6.9067e-05
6.89912e-05
2.7871e-05
2.84613e-05
6.9069e-05
6.89931e-05
2.78712e-05
7.94227e-05
7.85891e-05
7.94217e-05
7.85881e-05
2.55351e-05
3.23994e-05
3.23998e-05
3.21809e-05
3.21813e-05
7.82154e-05
7.84118e-05
7.82145e-05
7.84109e-05
7.82133e-05
7.8299e-05
7.82123e-05
7.82996e-05
3.25893e-05
3.259e-05
2.45178e-05
3.33869e-05
3.33871e-05
7.84475e-05
7.83542e-05
7.84477e-05
7.83531e-05
2.44673e-05
3.43504e-05
3.43518e-05
3.36818e-05
3.3683e-05
2.78119e-05
6.9137e-05
2.78129e-05
6.94464e-05
2.34501e-05
2.66507e-05
2.59975e-05
2.53205e-05
2.36432e-05
2.67001e-05
2.58053e-05
2.34502e-05
2.66511e-05
2.59974e-05
2.53201e-05
2.36433e-05
2.67006e-05
2.58052e-05
2.78555e-05
6.98022e-05
6.95592e-05
2.80328e-05
2.78558e-05
6.98045e-05
6.95614e-05
2.8033e-05
2.34464e-05
2.52274e-05
2.73016e-05
2.56146e-05
2.68292e-05
2.56838e-05
2.34915e-05
2.34464e-05
2.52271e-05
2.73023e-05
2.56145e-05
2.68298e-05
2.56837e-05
2.34915e-05
3.25903e-05
3.25868e-05
2.4518e-05
3.33877e-05
3.33839e-05
7.82124e-05
7.82951e-05
7.84471e-05
7.83536e-05
2.44674e-05
3.43515e-05
3.43467e-05
3.36829e-05
3.36814e-05
7.84435e-05
7.8352e-05
2.34498e-05
2.66505e-05
2.59975e-05
2.53208e-05
2.3643e-05
2.67002e-05
2.58052e-05
2.7811e-05
6.9137e-05
2.7812e-05
6.94457e-05
2.34497e-05
2.59973e-05
2.66504e-05
2.532e-05
2.36429e-05
2.58051e-05
2.67e-05
2.78535e-05
6.98045e-05
6.95624e-05
2.8035e-05
2.34461e-05
2.52277e-05
2.73018e-05
2.56145e-05
2.68296e-05
2.56837e-05
2.34917e-05
2.78536e-05
6.98007e-05
6.9561e-05
2.80347e-05
2.3446e-05
2.5227e-05
2.56144e-05
2.73013e-05
2.56835e-05
2.68295e-05
2.34916e-05
2.78117e-05
6.91375e-05
2.78127e-05
6.94461e-05
2.345e-05
2.59975e-05
2.66504e-05
2.53204e-05
2.36431e-05
2.58053e-05
2.66999e-05
2.78115e-05
6.91357e-05
2.78124e-05
6.94449e-05
2.34464e-05
2.5228e-05
2.73006e-05
2.56146e-05
2.68284e-05
2.56838e-05
2.34914e-05
2.78556e-05
6.98014e-05
6.95615e-05
2.80328e-05
2.34462e-05
2.52273e-05
2.56145e-05
2.73013e-05
2.56837e-05
2.6829e-05
2.34913e-05
2.78554e-05
6.98026e-05
6.95597e-05
2.80327e-05
3.25895e-05
3.25904e-05
2.45176e-05
3.33868e-05
3.33876e-05
7.82132e-05
7.82988e-05
7.84432e-05
7.83518e-05
2.44671e-05
3.43498e-05
3.43509e-05
3.36841e-05
3.36824e-05
7.84474e-05