/*--------------------------------*- C++ -*----------------------------------*\
| =========                 |                                                 |
| \\      /  F ield         | OpenFOAM: The Open Source CFD Toolbox           |
|  \\    /   O peration     | Version:  2206                                  |
|   \\  /    A nd           | Website:  www.openfoam.com                      |
|    \\/     M anipulation  |                                                 |
\*---------------------------------------------------------------------------*/
FoamFile
{
    version     2.0;
    format      ascii;
    arch        "LSB;label=32;scalar=64";
    class       volScalarField;
    location    "30";
    object      nut;
}
// * * * * * * * * * * * * * * * * * * * * * * * * * * * * * * * * * * * * * //

dimensions      [0 2 -1 0 0 0 0];

internalField   nonuniform List<scalar> 
28688
(
0.000233972
0.000233115
0.000233116
0.000233422
0.000232529
0.0002278
0.000227799
0.000223866
0.000230515
0.000220321
0.000220319
0.000209121
0.000227841
0.000211728
0.000211724
0.000193821
0.000224414
0.000202617
0.000202611
0.000179698
0.000220455
0.000193681
0.000193674
0.00016759
0.000216683
0.000186736
0.000186728
0.000158192
0.000216977
0.000187804
0.000187795
0.000159899
0.000217467
0.000188752
0.000188744
0.000161477
0.000217547
0.000188896
0.000188889
0.000161684
0.000217551
0.000188908
0.0001889
0.000161689
0.000217552
0.000188912
0.000188904
0.000161699
0.000234267
0.000234448
0.000234449
0.000234267
0.000234449
0.000234449
0.000234274
0.000234274
0.000234274
0.000234274
0.000234448
0.000234448
0.000234267
0.000234448
0.000234449
0.000234267
0.000233422
0.000226205
0.000233115
0.000233113
0.000229363
0.000229359
0.000233422
0.000226206
0.000233113
0.000233113
0.000229361
0.000229357
0.000233115
0.000229366
0.000229363
0.000233422
0.000226203
0.000233114
0.000229365
0.00022936
0.000226203
0.000223866
0.000212231
0.000227797
0.000227792
0.000222346
0.00022234
0.000223867
0.000212235
0.000227794
0.00022779
0.000222346
0.000222337
0.000227796
0.000222352
0.000222344
0.000223865
0.000212228
0.000227794
0.000222349
0.000222345
0.000212229
0.000209124
0.000197044
0.000220314
0.000220308
0.000213903
0.000213897
0.000209125
0.000197049
0.000220315
0.000220305
0.000213907
0.000213893
0.000220312
0.000213914
0.000213901
0.00020912
0.00019704
0.000220314
0.00021391
0.000213906
0.000197041
0.000193824
0.000182769
0.000211716
0.000211711
0.000204765
0.00020476
0.000193827
0.000182776
0.000211721
0.000211706
0.000204773
0.000204754
0.000211714
0.00020478
0.000204762
0.00019382
0.000182765
0.00021172
0.000204774
0.000204771
0.000182766
0.000179702
0.000170374
0.000202601
0.000202595
0.00019617
0.000196165
0.000179706
0.000170381
0.00020261
0.00020259
0.000196182
0.000196159
0.000202598
0.000196189
0.000196168
0.000179697
0.000170369
0.000202608
0.000196182
0.000196181
0.00017037
0.000167594
0.000159766
0.000193661
0.000193656
0.000187493
0.000187485
0.000167598
0.000159771
0.000193674
0.000193649
0.000187506
0.000187478
0.000193658
0.000187513
0.000187489
0.000167589
0.00015976
0.000193672
0.000187505
0.000187506
0.000159761
0.000158197
0.000159913
0.000186716
0.000186708
0.000187313
0.000187306
0.0001582
0.000159918
0.000186728
0.0001867
0.000187326
0.000187298
0.000186711
0.000187332
0.000187309
0.000158192
0.000159906
0.000186728
0.000187324
0.000187326
0.000159907
0.000159905
0.000161631
0.000187784
0.000187777
0.000188603
0.000188597
0.000159909
0.000161635
0.000187797
0.000187769
0.000188617
0.000188589
0.00018778
0.000188622
0.0001886
0.000159898
0.000161623
0.000187798
0.000188614
0.000188618
0.000161627
0.000161481
0.000161864
0.000188734
0.000188729
0.000188868
0.000188863
0.000161485
0.000161868
0.000188749
0.00018872
0.000188883
0.000188854
0.000188732
0.000188888
0.000188866
0.000161474
0.000161856
0.00018875
0.00018888
0.000188885
0.000161861
0.000161689
0.000161874
0.000188877
0.000188873
0.000188886
0.000188882
0.000161691
0.000161877
0.000188893
0.000188864
0.000188902
0.000188873
0.000188876
0.000188906
0.000188885
0.00016168
0.000161865
0.000188894
0.000188899
0.000188903
0.00016187
0.000161696
0.000161883
0.000188887
0.000188883
0.000188891
0.000188887
0.000161698
0.000161886
0.000188903
0.000188874
0.000188907
0.000188878
0.000188886
0.000188911
0.00018889
0.000161687
0.000161875
0.000188905
0.000188903
0.000188909
0.00016188
0.000161705
0.000161882
0.000188892
0.000188888
0.000188894
0.000161706
0.000188908
0.000188879
0.00018891
0.000188881
0.000188891
0.000188893
0.000161696
0.000161873
0.000188909
0.000188905
0.000188912
0.000161878
0.00023473
0.000234746
0.000234729
0.000234729
0.000235118
0.000234798
0.000234701
0.000234726
0.000235118
0.000234798
0.000234726
0.000234701
0.000234867
0.000233566
0.000233566
0.000104598
3.87458e-05
0.000129182
3.98201e-05
2.16835e-05
2.2828e-05
0.000104586
3.87419e-05
0.000129181
3.98165e-05
0.000233972
0.000233972
0.000233972
0.000232936
0.000232936
0.000232936
0.000232936
0.000206158
9.36545e-05
0.000233969
0.000231993
0.000222648
8.72503e-05
0.00023361
2.16824e-05
2.28272e-05
0.000206149
0.000233969
9.36544e-05
0.000231993
0.000222658
0.00023361
8.72563e-05
4.77917e-05
4.77796e-05
0.000231346
4.40397e-05
4.40303e-05
7.25238e-05
4.24384e-05
8.14292e-05
4.37594e-05
2.47777e-05
2.54609e-05
7.25084e-05
4.24349e-05
8.14301e-05
4.37556e-05
0.000232529
0.000232529
0.000232529
0.000231094
0.000231094
0.000231094
0.000231094
0.000167485
7.94061e-05
0.00023208
0.00022609
0.000180217
7.45624e-05
0.000231371
2.4776e-05
2.54593e-05
0.000167477
0.00023208
7.93979e-05
0.000226089
0.000180214
0.000231371
7.45664e-05
3.9148e-05
3.91377e-05
0.000219591
3.66089e-05
3.65984e-05
5.63476e-05
4.5553e-05
6.10755e-05
4.64063e-05
2.60144e-05
2.61167e-05
5.63492e-05
4.55503e-05
6.10778e-05
4.64034e-05
0.000230515
0.000230514
0.000230514
0.000228562
0.000228562
0.000228561
0.000228561
0.000138641
6.74251e-05
0.000228648
0.000218207
0.000148035
6.35288e-05
0.000227525
2.60122e-05
2.61146e-05
0.000138639
0.000228647
6.74151e-05
0.000218204
0.000148024
0.000227522
6.3527e-05
3.32335e-05
3.32249e-05
0.000204592
3.19825e-05
3.19735e-05
4.69567e-05
4.75047e-05
4.99248e-05
4.79974e-05
2.60515e-05
2.59347e-05
4.69542e-05
4.75015e-05
4.99275e-05
4.79944e-05
0.000227841
0.00022784
0.00022784
0.000225242
0.000225243
0.00022524
0.000225241
0.000117586
5.81972e-05
0.000223761
0.000209441
0.000124584
5.55189e-05
0.000222336
2.60491e-05
2.59325e-05
0.000117581
0.00022376
5.81931e-05
0.000209436
0.000124578
0.000222333
5.55171e-05
3.06132e-05
3.06053e-05
0.000189766
3.03094e-05
3.03015e-05
4.13844e-05
4.85892e-05
4.32872e-05
4.88305e-05
2.56773e-05
2.55197e-05
4.13876e-05
4.85857e-05
4.32772e-05
4.88275e-05
0.000224415
0.000224412
0.000224413
0.000221691
0.000221691
0.000221688
0.000221689
0.00010211
5.18826e-05
0.000217721
0.000200568
0.000107408
5.00851e-05
0.000216271
2.56748e-05
2.55175e-05
0.000102106
0.000217719
5.1885e-05
0.000200562
0.000107402
0.000216268
5.00762e-05
3.01708e-05
3.0164e-05
0.000176408
3.0431e-05
3.04236e-05
3.83688e-05
4.91014e-05
3.92064e-05
4.91768e-05
2.52359e-05
2.51008e-05
3.83624e-05
4.90982e-05
3.92048e-05
4.91737e-05
0.000220455
0.000220452
0.000220453
0.000217173
0.000217173
0.000217169
0.000217171
9.067e-05
4.77909e-05
0.000211241
0.000191169
9.47016e-05
4.68013e-05
0.000209226
2.52335e-05
2.50988e-05
9.0663e-05
0.000211238
4.77894e-05
0.000191161
9.46983e-05
0.000209221
4.67874e-05
3.09262e-05
3.092e-05
0.000164368
3.16175e-05
3.16113e-05
3.93463e-05
4.92309e-05
3.81526e-05
4.93388e-05
2.50371e-05
2.50499e-05
3.9342e-05
4.92277e-05
3.81548e-05
4.93355e-05
0.000216684
0.00021668
0.000216682
0.000216774
0.000216774
0.00021677
0.000216772
8.83532e-05
4.63388e-05
0.000205262
0.000186579
8.70911e-05
4.67516e-05
0.000204983
2.50349e-05
2.50473e-05
8.83509e-05
0.000205259
4.6344e-05
0.000186571
8.70892e-05
0.000204978
4.6752e-05
3.2783e-05
3.27771e-05
0.000158925
3.39577e-05
3.39518e-05
4.05576e-05
4.94892e-05
4.03499e-05
4.95163e-05
2.5078e-05
2.50827e-05
4.05596e-05
4.94859e-05
4.03553e-05
4.95128e-05
0.000216977
0.000216973
0.000216975
0.000217399
0.0002174
0.000217395
0.000217398
9.04603e-05
4.86516e-05
0.00020551
0.000188124
8.98569e-05
4.91278e-05
0.000205738
2.50755e-05
2.50799e-05
9.0462e-05
0.000205507
4.86515e-05
0.000188116
8.98583e-05
0.000205735
4.91273e-05
3.53194e-05
3.53142e-05
0.000161078
3.56365e-05
3.56322e-05
4.06694e-05
4.95273e-05
4.06598e-05
4.95271e-05
2.50845e-05
2.50846e-05
4.06757e-05
4.95241e-05
4.06672e-05
4.95239e-05
0.000217468
0.000217464
0.000217467
0.000217543
0.000217542
0.000217537
0.00021754
9.07844e-05
4.94398e-05
0.000206119
0.000188829
9.07244e-05
4.94622e-05
0.000206163
2.50818e-05
2.50818e-05
9.07871e-05
0.000206117
4.94444e-05
0.000188821
9.07267e-05
0.00020616
4.94656e-05
3.57972e-05
3.57925e-05
0.000161799
3.58026e-05
3.5798e-05
4.06755e-05
4.9528e-05
4.0668e-05
4.95271e-05
2.50846e-05
2.50846e-05
4.06817e-05
4.95248e-05
4.06746e-05
4.9524e-05
0.000217546
0.000217541
0.000217544
0.00021755
0.000217549
0.000217545
0.000217548
9.08109e-05
4.94594e-05
0.000206203
0.000188902
9.0782e-05
4.94742e-05
0.000206205
2.50819e-05
2.50818e-05
9.08137e-05
0.0002062
4.94628e-05
0.000188895
9.07847e-05
0.000206203
4.94773e-05
3.5802e-05
3.57974e-05
0.000161872
3.58045e-05
3.57998e-05
4.06772e-05
4.95281e-05
4.06708e-05
4.95274e-05
2.50846e-05
2.50846e-05
4.06835e-05
4.95246e-05
4.06775e-05
4.95238e-05
0.000217551
0.000217547
0.00021755
0.000217552
0.000217552
0.000217548
0.000217551
9.08199e-05
4.94639e-05
0.000206209
0.00018891
9.07919e-05
4.94767e-05
0.00020621
2.50819e-05
2.50818e-05
9.08223e-05
0.000206207
4.94674e-05
0.000188902
9.07937e-05
0.000206208
4.94799e-05
3.58033e-05
3.57986e-05
0.000161875
3.58052e-05
3.58006e-05
4.06774e-05
4.95282e-05
4.06714e-05
4.95275e-05
2.50846e-05
2.50846e-05
4.06838e-05
4.95245e-05
4.06782e-05
4.95237e-05
0.000217553
0.000217548
0.000217552
0.000217553
0.000217555
0.000217549
0.000217552
9.08213e-05
4.94647e-05
0.000206212
0.000188912
9.0797e-05
4.94771e-05
0.000206213
2.50819e-05
2.50818e-05
9.08245e-05
0.00020621
4.94682e-05
0.000188905
9.07999e-05
0.000206211
4.94802e-05
3.58035e-05
3.5799e-05
0.000161878
3.58054e-05
3.58008e-05
0.000234867
0.000233564
0.000233566
2.32575e-05
0.000214159
2.32564e-05
0.000214162
0.000234435
5.13495e-05
5.1331e-05
0.00022999
0.000229991
0.000235118
0.000234798
0.000234701
0.000234726
0.000235118
0.000234798
0.000234701
0.000234726
0.000234477
4.02625e-05
0.000218814
0.000147764
0.000234477
4.0262e-05
0.000218814
0.000147771
0.000233888
0.000234474
0.000100124
0.000234271
0.000233358
0.000234597
0.000228477
0.000233887
0.000234474
0.000100114
0.000234271
0.000233359
0.000234597
0.000228476
0.000234867
0.000233565
0.000233566
2.32572e-05
0.000214167
0.000234435
5.13419e-05
5.13358e-05
0.000229989
0.000229991
2.32571e-05
0.000214169
0.000235118
0.000234798
0.000234701
0.000234726
0.000235118
0.000234798
0.000234726
0.000234701
0.000234477
4.02593e-05
0.000218815
0.000147738
0.000233888
0.000234474
0.000100102
0.000234271
0.000233359
0.000234597
0.000228474
0.000234477
4.02588e-05
0.000218816
0.000147753
0.000233888
0.000234474
0.000234271
0.00010011
0.000234597
0.000233359
0.000228476
0.00023473
0.000234746
0.000234729
0.000234729
0.00023473
0.000234746
0.000234729
0.000234729
0.00023473
0.000234746
0.000234729
0.000234729
0.000234591
0.000234574
0.000234253
0.000234253
0.000234592
0.000234592
0.000234252
0.000234591
0.000234574
0.000234253
0.000234253
0.000234592
0.000234592
0.000234252
0.000234591
0.000234574
0.000234253
0.000234253
0.000234592
0.000234592
0.000234252
0.000234591
0.000234574
0.000234253
0.000234253
0.000234592
0.000234592
0.000234252
0.000235118
0.000234798
0.000234726
0.000234701
0.000233887
0.000234474
0.000100106
0.000234271
0.000233359
0.000234597
0.000228475
0.000234477
4.026e-05
0.000218817
0.000147755
0.000233887
0.000234474
0.000234271
0.000100119
0.000234597
0.000233359
0.000228476
0.000234477
4.02596e-05
0.000218816
0.000147763
0.000234867
0.000233566
0.000233566
2.32564e-05
0.000214163
0.000234435
5.13348e-05
5.13387e-05
0.000229991
0.000229993
2.32568e-05
0.000214171
0.000235118
0.000234798
0.000234726
0.000234701
0.000233887
0.000234474
0.000234271
0.000100114
0.000234597
0.00023336
0.000228475
0.000233888
0.000234474
0.000234271
0.000100104
0.000234597
0.000233359
0.000228474
0.000234477
4.02591e-05
0.000218818
0.000147739
0.000234477
4.0259e-05
0.000218813
0.000147726
0.000234435
5.13422e-05
5.13298e-05
0.000229992
0.000229992
2.32569e-05
0.00021417
2.32564e-05
0.000214164
2.16838e-05
2.28291e-05
2.16825e-05
2.28275e-05
4.77928e-05
4.77815e-05
0.000231347
4.40449e-05
4.40293e-05
2.44781e-05
2.33082e-05
2.44765e-05
2.33069e-05
0.000229666
4.01042e-05
4.00898e-05
4.30938e-05
4.3081e-05
0.000104611
3.87449e-05
0.000129168
3.98181e-05
0.000206162
9.36651e-05
0.000233969
0.000231992
0.000222642
8.7258e-05
0.00023361
0.000206165
9.36483e-05
0.000233969
0.000231989
0.000222639
8.72455e-05
0.00023361
9.84796e-05
4.19581e-05
4.03821e-05
8.55214e-05
9.84733e-05
4.19566e-05
4.0381e-05
8.55228e-05
0.000200115
0.00023076
8.08561e-05
0.000232684
8.56548e-05
0.000233189
0.0001856
0.000200115
0.000230756
8.08501e-05
0.000232684
8.56372e-05
0.000233189
0.000185603
4.77841e-05
4.77903e-05
0.000231348
4.40347e-05
4.40373e-05
2.16835e-05
2.28291e-05
2.44772e-05
2.33075e-05
0.000229666
4.00951e-05
4.00953e-05
4.30829e-05
4.30915e-05
2.44783e-05
2.33084e-05
0.00020615
9.36436e-05
0.000233969
0.00023199
0.000222643
8.72387e-05
0.00023361
0.000104589
3.87415e-05
0.000129199
3.98158e-05
0.000206151
0.000233969
9.36472e-05
0.000231988
0.000222647
0.00023361
8.72381e-05
9.84814e-05
4.19544e-05
4.03786e-05
8.55104e-05
0.000200117
0.000230757
8.08432e-05
0.000232684
8.5638e-05
0.00023319
0.000185594
9.84818e-05
4.19535e-05
4.03779e-05
8.55094e-05
0.000200116
0.000230755
0.000232684
8.08376e-05
0.000233189
8.56367e-05
0.000185591
0.000104597
3.87424e-05
0.000129187
3.98187e-05
0.000206158
0.000233969
9.36559e-05
0.000231992
0.000222652
0.00023361
8.72536e-05
0.000104595
3.87429e-05
0.000129207
3.98171e-05
0.000200118
0.000230762
8.08519e-05
0.000232685
8.56531e-05
0.00023319
0.0001856
9.84791e-05
4.19566e-05
4.03797e-05
8.55167e-05
0.000200118
0.000230759
0.000232684
8.08581e-05
0.000233189
8.56489e-05
0.000185599
9.84843e-05
4.19555e-05
4.03801e-05
8.55179e-05
4.77809e-05
4.77897e-05
0.000231346
4.40285e-05
4.40448e-05
2.16829e-05
2.28281e-05
2.4476e-05
2.33061e-05
0.000229666
4.00884e-05
4.0103e-05
4.30819e-05
4.30897e-05
2.44772e-05
2.33075e-05
0.000206147
0.000233969
9.36424e-05
0.000231989
0.000222653
0.00023361
8.72424e-05
0.000104572
3.8742e-05
0.000129218
3.98173e-05
0.000104568
3.87414e-05
0.000129204
3.98162e-05
0.000200119
0.000230761
0.000232684
8.08579e-05
0.00023319
8.56452e-05
0.000185592
0.00020012
0.000230757
0.000232684
8.0849e-05
0.00023319
8.56363e-05
0.000185592
9.84975e-05
4.19551e-05
4.03796e-05
8.5508e-05
9.8497e-05
4.19544e-05
4.03783e-05
8.55076e-05
2.16833e-05
2.28281e-05
2.16824e-05
2.28275e-05
0.000229666
4.01029e-05
4.00911e-05
4.3094e-05
4.30795e-05
2.44774e-05
2.33078e-05
2.44764e-05
2.33071e-05
2.47784e-05
2.5462e-05
2.47767e-05
2.54602e-05
3.91533e-05
3.91384e-05
0.000219593
3.66141e-05
3.65979e-05
2.59527e-05
2.56217e-05
2.59513e-05
2.56199e-05
0.000216777
3.38683e-05
3.3844e-05
3.57242e-05
3.57147e-05
7.25261e-05
4.24373e-05
8.14319e-05
4.37581e-05
0.000167485
7.94074e-05
0.00023208
0.000226086
0.000180215
7.45642e-05
0.000231371
0.000167488
7.93891e-05
0.000232079
0.00022608
0.000180217
7.456e-05
0.00023137
6.96092e-05
4.52332e-05
4.41562e-05
6.32451e-05
6.96119e-05
4.52328e-05
4.41548e-05
6.32479e-05
0.000162846
0.000224267
6.87165e-05
0.000229663
7.31313e-05
0.000230567
0.000151948
0.00016285
0.000224262
6.87155e-05
0.000229663
7.31127e-05
0.000230567
0.000151952
3.91411e-05
3.91524e-05
0.000219595
3.66034e-05
3.66065e-05
2.47785e-05
2.54621e-05
2.59522e-05
2.56209e-05
0.000216778
3.38488e-05
3.3867e-05
3.57166e-05
3.57198e-05
2.59531e-05
2.56217e-05
0.000167479
7.93882e-05
0.00023208
0.000226084
0.000180212
7.45548e-05
0.00023137
7.25068e-05
4.24339e-05
8.1429e-05
4.37546e-05
0.000167477
0.000232079
7.93915e-05
0.000226078
0.00018021
0.00023137
7.45463e-05
6.96174e-05
4.52302e-05
4.41529e-05
6.32393e-05
0.000162841
0.000224266
6.87089e-05
0.000229663
7.3114e-05
0.000230567
0.000151949
6.96167e-05
4.52289e-05
4.4151e-05
6.3237e-05
0.000162838
0.000224259
0.000229662
6.87032e-05
0.000230566
7.31127e-05
0.000151945
7.25186e-05
4.24367e-05
8.14325e-05
4.3758e-05
0.000167483
0.000232079
7.93977e-05
0.000226084
0.000180215
0.000231371
7.45662e-05
7.25217e-05
4.24362e-05
8.14266e-05
4.37565e-05
0.000162849
0.000224272
6.87181e-05
0.000229664
7.31286e-05
0.000230568
0.000151951
6.96141e-05
4.52325e-05
4.41544e-05
6.32452e-05
0.000162846
0.000224266
0.000229663
6.87206e-05
0.000230567
7.31184e-05
0.000151948
6.9612e-05
4.5231e-05
4.41532e-05
6.32434e-05
3.9141e-05
3.91513e-05
0.00021959
3.65999e-05
3.66094e-05
2.47779e-05
2.54606e-05
2.59502e-05
2.56188e-05
0.000216775
3.38567e-05
3.38564e-05
3.57082e-05
3.57222e-05
2.59519e-05
2.56206e-05
0.00016748
0.000232079
7.93878e-05
0.000226083
0.000180215
0.00023137
7.45579e-05
7.2507e-05
4.24357e-05
8.14299e-05
4.37567e-05
7.2513e-05
4.24345e-05
8.14315e-05
4.37554e-05
0.00016284
0.00022427
0.000229663
6.87207e-05
0.000230567
7.31202e-05
0.000151947
0.000162842
0.000224266
0.000229663
6.8713e-05
0.000230567
7.31104e-05
0.000151949
6.96175e-05
4.52311e-05
4.41532e-05
6.32377e-05
6.96182e-05
4.52298e-05
4.41519e-05
6.32386e-05
2.47778e-05
2.54604e-05
2.4777e-05
2.54597e-05
0.000216776
3.38543e-05
3.38444e-05
3.57211e-05
3.5712e-05
2.59517e-05
2.56204e-05
2.59509e-05
2.56196e-05
2.60149e-05
2.61173e-05
2.60132e-05
2.61157e-05
3.32317e-05
3.32272e-05
0.000204594
3.19897e-05
3.19732e-05
2.60823e-05
2.61187e-05
2.60804e-05
2.61169e-05
0.000201355
3.08828e-05
3.08762e-05
3.15808e-05
3.15679e-05
5.63505e-05
4.55522e-05
6.10774e-05
4.64062e-05
0.000138639
6.74246e-05
0.000228647
0.000218199
0.000148034
6.3528e-05
0.000227523
0.000138643
6.74107e-05
0.000228646
0.000218193
0.000148036
6.35233e-05
0.000227523
5.47454e-05
4.73138e-05
4.66583e-05
5.10093e-05
5.47468e-05
4.73138e-05
4.66575e-05
5.10118e-05
0.000135412
0.000216049
5.91159e-05
0.000225074
6.24341e-05
0.000226323
0.000127235
0.000135415
0.000216044
5.91096e-05
0.000225074
6.24284e-05
0.000226323
0.000127237
3.32287e-05
3.32305e-05
0.0002046
3.19771e-05
3.19867e-05
2.60152e-05
2.61176e-05
2.60814e-05
2.61181e-05
0.000201357
3.08784e-05
3.08799e-05
3.15701e-05
3.15808e-05
2.60824e-05
2.61189e-05
0.000138638
6.74128e-05
0.000228647
0.000218201
0.000148026
6.35183e-05
0.000227522
5.63474e-05
4.55482e-05
6.1077e-05
4.6402e-05
0.000138636
0.000228645
6.74105e-05
0.00021819
0.000148024
0.000227521
6.35152e-05
5.4742e-05
4.73108e-05
4.66552e-05
5.1023e-05
0.000135407
0.000216052
5.91071e-05
0.000225073
6.24236e-05
0.000226323
0.000127233
5.47412e-05
4.73094e-05
4.66532e-05
5.10211e-05
0.000135405
0.00021604
0.000225071
5.91036e-05
0.000226321
6.24207e-05
0.00012723
5.63481e-05
4.55518e-05
6.10749e-05
4.64059e-05
0.000138638
0.000228646
6.74155e-05
0.000218197
0.000148033
0.000227523
6.35276e-05
5.63467e-05
4.55504e-05
6.10733e-05
4.64042e-05
0.000135414
0.000216059
5.9116e-05
0.000225076
6.24346e-05
0.000226324
0.000127236
5.47445e-05
4.73136e-05
4.66571e-05
5.10098e-05
0.000135412
0.000216047
0.000225074
5.91132e-05
0.000226323
6.24326e-05
0.000127233
5.47432e-05
4.73116e-05
4.66554e-05
5.10086e-05
3.32201e-05
3.32346e-05
0.000204591
3.19778e-05
3.19832e-05
2.6014e-05
2.61164e-05
2.60793e-05
2.61158e-05
0.000201351
3.08726e-05
3.08844e-05
3.15705e-05
3.15766e-05
2.6081e-05
2.61177e-05
0.000138641
0.000228646
6.74079e-05
0.0002182
0.000148026
0.000227522
6.35209e-05
5.63485e-05
4.55503e-05
6.10771e-05
4.64038e-05
5.63495e-05
4.55493e-05
6.1078e-05
4.64032e-05
0.000135407
0.000216056
0.000225073
5.91127e-05
0.000226323
6.24327e-05
0.000127233
0.000135409
0.000216051
0.000225073
5.91071e-05
0.000226322
6.24256e-05
0.000127235
5.47411e-05
4.73113e-05
4.66551e-05
5.10224e-05
5.47419e-05
4.73108e-05
4.66545e-05
5.10232e-05
2.60138e-05
2.61162e-05
2.6013e-05
2.61154e-05
0.000201352
3.08837e-05
3.08754e-05
3.15751e-05
3.15668e-05
2.60809e-05
2.61175e-05
2.608e-05
2.61166e-05
2.60523e-05
2.59357e-05
2.60501e-05
2.59336e-05
3.06156e-05
3.0606e-05
0.000189769
3.03113e-05
3.03023e-05
2.5735e-05
2.58891e-05
2.57325e-05
2.58866e-05
0.000186566
3.01637e-05
3.01537e-05
3.02196e-05
3.02125e-05
4.69584e-05
4.75041e-05
4.99265e-05
4.79973e-05
0.000117585
5.81965e-05
0.00022376
0.000209428
0.000124582
5.5522e-05
0.000222335
0.000117588
5.81896e-05
0.000223759
0.000209422
0.000124585
5.55142e-05
0.000222334
4.60616e-05
4.84944e-05
4.81342e-05
4.39827e-05
4.60629e-05
4.84943e-05
4.81335e-05
4.39843e-05
0.000115271
0.000207073
5.25005e-05
0.000219237
5.47338e-05
0.000220804
0.000109368
0.000115273
0.000207067
5.24954e-05
0.000219236
5.47238e-05
0.000220803
0.00010937
3.06081e-05
3.06141e-05
0.000189775
3.0304e-05
3.031e-05
2.60523e-05
2.59357e-05
2.57337e-05
2.5888e-05
0.000186569
3.01577e-05
3.01605e-05
3.02133e-05
3.02148e-05
2.57347e-05
2.58888e-05
0.000117581
5.81872e-05
0.00022376
0.000209434
0.000124579
5.55115e-05
0.000222333
4.6953e-05
4.74995e-05
4.99268e-05
4.79928e-05
0.000117579
0.000223757
5.81849e-05
0.000209417
0.000124577
0.000222331
5.55072e-05
4.60564e-05
4.84915e-05
4.81308e-05
4.39929e-05
0.000115264
0.00020708
5.24919e-05
0.000219235
5.47221e-05
0.000220803
0.000109367
4.60557e-05
4.84894e-05
4.81288e-05
4.39918e-05
0.000115262
0.000207062
0.000219233
5.24862e-05
0.0002208
5.47249e-05
0.000109365
4.69565e-05
4.75037e-05
4.99244e-05
4.79972e-05
0.000117583
0.000223759
5.81931e-05
0.000209425
0.000124582
0.000222334
5.55172e-05
4.69555e-05
4.75019e-05
4.99234e-05
4.7995e-05
0.000115272
0.000207087
5.24967e-05
0.000219239
5.47361e-05
0.000220805
0.000109369
4.6061e-05
4.84941e-05
4.81332e-05
4.39825e-05
0.00011527
0.00020707
0.000219236
5.24981e-05
0.000220803
5.47267e-05
0.000109367
4.60602e-05
4.84918e-05
4.81311e-05
4.39817e-05
3.06057e-05
3.06139e-05
0.000189765
3.0302e-05
3.03102e-05
2.60511e-05
2.59343e-05
2.57314e-05
2.58856e-05
0.000186561
3.01531e-05
3.01633e-05
3.02073e-05
3.02196e-05
2.57333e-05
2.58876e-05
0.000117583
0.000223759
5.81869e-05
0.000209432
0.00012458
0.000222333
5.55117e-05
4.69535e-05
4.75016e-05
4.9927e-05
4.79947e-05
4.69543e-05
4.7501e-05
4.99278e-05
4.79942e-05
0.000115264
0.000207082
0.000219235
5.24978e-05
0.000220803
5.47268e-05
0.000109368
0.000115265
0.000207078
0.000219236
5.2493e-05
0.000220802
5.4721e-05
0.000109369
4.60558e-05
4.84915e-05
4.81308e-05
4.39924e-05
4.60565e-05
4.84912e-05
4.81304e-05
4.3993e-05
2.60509e-05
2.59342e-05
2.605e-05
2.59332e-05
0.000186562
3.01629e-05
3.01549e-05
3.02185e-05
3.0211e-05
2.57332e-05
2.58875e-05
2.57321e-05
2.58865e-05
2.56784e-05
2.55211e-05
2.56758e-05
2.55186e-05
3.01733e-05
3.01653e-05
0.000176412
3.04319e-05
3.04237e-05
2.52947e-05
2.54661e-05
2.52922e-05
2.54634e-05
0.000173506
3.08017e-05
3.07937e-05
3.05199e-05
3.0514e-05
4.13858e-05
4.85886e-05
4.3288e-05
4.88305e-05
0.00010211
5.18874e-05
0.000217719
0.000200551
0.000107407
5.00806e-05
0.00021627
0.000102112
5.18823e-05
0.000217718
0.000200546
0.000107409
5.00741e-05
0.000216268
4.09986e-05
4.90607e-05
4.88991e-05
3.96886e-05
4.09995e-05
4.90607e-05
4.88987e-05
3.96895e-05
0.000100409
0.000198461
4.81927e-05
0.00021314
4.96127e-05
0.000214795
9.61774e-05
0.00010041
0.000198456
4.81875e-05
0.000213139
4.96067e-05
0.000214793
9.61788e-05
3.01653e-05
3.01795e-05
0.000176419
3.04251e-05
3.04205e-05
2.56781e-05
2.55208e-05
2.52933e-05
2.54647e-05
0.00017351
3.07963e-05
3.08013e-05
3.0514e-05
3.05194e-05
2.52943e-05
2.54656e-05
0.000102105
5.18777e-05
0.000217718
0.000200561
0.000107401
5.00738e-05
0.000216267
4.13868e-05
4.85837e-05
4.32768e-05
4.88254e-05
0.000102104
0.000217715
5.18719e-05
0.000200539
0.0001074
0.000216265
5.00757e-05
4.10005e-05
4.90576e-05
4.88958e-05
3.96866e-05
0.000100404
0.000198472
4.81862e-05
0.000213138
4.9604e-05
0.000214794
9.61742e-05
4.09996e-05
4.90552e-05
4.88936e-05
3.96861e-05
0.000100402
0.000198449
0.000213135
4.81885e-05
0.000214789
4.96038e-05
9.61728e-05
4.13842e-05
4.85884e-05
4.32863e-05
4.88302e-05
0.000102108
0.000217718
5.18849e-05
0.000200548
0.000107406
0.000216269
5.00763e-05
4.13836e-05
4.8586e-05
4.32855e-05
4.88277e-05
0.000100409
0.000198479
4.81966e-05
0.000213143
4.96133e-05
0.000214796
9.61774e-05
4.0998e-05
4.90603e-05
4.88985e-05
3.9688e-05
0.000100407
0.000198459
0.000213139
4.81895e-05
0.000214794
4.9609e-05
9.61761e-05
4.09974e-05
4.90577e-05
4.88959e-05
3.96875e-05
3.01696e-05
3.01713e-05
0.000176408
3.04171e-05
3.04323e-05
2.56769e-05
2.55195e-05
2.52911e-05
2.54624e-05
0.000173501
3.07957e-05
3.08018e-05
3.05117e-05
3.05203e-05
2.52931e-05
2.54645e-05
0.000102107
0.000217718
5.18796e-05
0.00020056
0.000107402
0.000216268
5.00716e-05
4.13873e-05
4.85858e-05
4.32766e-05
4.88275e-05
4.13878e-05
4.85854e-05
4.32771e-05
4.88272e-05
0.000100404
0.000198473
0.000213139
4.81885e-05
0.000214794
4.96094e-05
9.61749e-05
0.000100405
0.000198471
0.000213139
4.81854e-05
0.000214793
4.9604e-05
9.61758e-05
4.10001e-05
4.90575e-05
4.88957e-05
3.96864e-05
4.10005e-05
4.90573e-05
4.88954e-05
3.96867e-05
2.56767e-05
2.55193e-05
2.56757e-05
2.55182e-05
0.000173502
3.08011e-05
3.07943e-05
3.05194e-05
3.05128e-05
2.52929e-05
2.54643e-05
2.52918e-05
2.54632e-05
2.52374e-05
2.51025e-05
2.52345e-05
2.50998e-05
3.09272e-05
3.0921e-05
0.000164372
3.16182e-05
3.16108e-05
2.50393e-05
2.50731e-05
2.50366e-05
2.50703e-05
0.00016169
3.24217e-05
3.24157e-05
3.18976e-05
3.18916e-05
3.83694e-05
4.91013e-05
3.92072e-05
4.91768e-05
9.067e-05
4.77931e-05
0.000211239
0.000191147
9.47016e-05
4.67922e-05
0.000209223
9.06716e-05
4.77876e-05
0.000211237
0.000191142
9.47027e-05
4.67863e-05
0.000209221
3.79081e-05
4.92078e-05
4.91836e-05
3.78796e-05
3.79087e-05
4.92078e-05
4.91836e-05
3.78799e-05
8.91559e-05
0.000188996
4.62573e-05
0.000206039
4.64041e-05
0.000207394
8.73219e-05
8.9157e-05
0.00018899
4.62529e-05
0.000206037
4.63985e-05
0.000207392
8.73224e-05
3.09196e-05
3.09276e-05
0.00016438
3.16127e-05
3.16172e-05
2.52367e-05
2.5102e-05
2.50377e-05
2.50715e-05
0.000161695
3.24163e-05
3.24216e-05
3.18922e-05
3.18976e-05
2.50387e-05
2.50726e-05
9.0662e-05
4.77847e-05
0.000211238
0.000191161
9.46977e-05
4.67876e-05
0.000209221
3.83619e-05
4.90959e-05
3.92043e-05
4.91711e-05
9.06608e-05
0.000211233
4.77825e-05
0.000191136
9.46964e-05
0.000209217
4.67938e-05
3.78988e-05
4.92047e-05
4.91804e-05
3.78758e-05
8.91478e-05
0.00018901
4.62492e-05
0.000206037
4.64009e-05
0.000207393
8.73177e-05
3.78985e-05
4.92021e-05
4.9178e-05
3.78758e-05
8.91466e-05
0.000188983
0.000206033
4.62468e-05
0.000207388
4.6405e-05
8.7317e-05
3.83681e-05
4.91011e-05
3.92058e-05
4.91764e-05
9.06675e-05
0.000211238
4.77898e-05
0.000191145
9.47009e-05
0.000209222
4.67879e-05
3.83674e-05
4.90984e-05
3.92053e-05
4.91736e-05
8.91551e-05
0.000189018
4.62541e-05
0.000206041
4.64125e-05
0.000207397
8.73208e-05
3.79074e-05
4.92075e-05
4.91833e-05
3.78783e-05
8.9154e-05
0.000188993
0.000206038
4.62544e-05
0.000207393
4.64001e-05
8.73199e-05
3.79068e-05
4.92046e-05
4.91804e-05
3.78781e-05
3.09198e-05
3.09269e-05
0.000164368
3.16117e-05
3.16184e-05
2.52356e-05
2.51007e-05
2.50355e-05
2.50693e-05
0.000161686
3.24156e-05
3.24219e-05
3.18912e-05
3.18979e-05
2.50376e-05
2.50714e-05
9.06637e-05
0.000211237
4.77854e-05
0.000191159
9.46986e-05
0.000209222
4.67841e-05
3.83618e-05
4.90981e-05
3.92046e-05
4.91734e-05
3.83623e-05
4.90979e-05
3.92049e-05
4.91733e-05
8.91478e-05
0.00018901
0.000206037
4.62544e-05
0.000207394
4.63997e-05
8.73189e-05
8.91488e-05
0.000189009
0.000206038
4.62507e-05
0.000207393
4.63962e-05
8.73194e-05
3.78984e-05
4.92044e-05
4.91802e-05
3.78759e-05
3.78989e-05
4.92044e-05
4.91801e-05
3.78759e-05
2.52354e-05
2.51006e-05
2.52343e-05
2.50995e-05
0.000161685
3.2421e-05
3.24148e-05
3.1897e-05
3.18909e-05
2.50374e-05
2.50712e-05
2.50363e-05
2.50701e-05
2.50387e-05
2.50516e-05
2.5036e-05
2.50491e-05
3.27834e-05
3.27768e-05
0.000158931
3.39587e-05
3.3951e-05
2.50757e-05
2.50605e-05
2.50733e-05
2.50577e-05
0.000158596
3.51309e-05
3.51249e-05
3.42936e-05
3.42882e-05
3.93467e-05
4.9231e-05
3.81534e-05
4.93388e-05
8.83548e-05
4.63466e-05
0.00020526
0.00018656
8.70924e-05
4.67544e-05
0.000204981
8.83551e-05
4.6342e-05
0.000205257
0.000186552
8.70925e-05
4.67508e-05
0.000204978
3.95837e-05
4.94679e-05
4.93797e-05
4.01714e-05
3.95843e-05
4.9468e-05
4.93798e-05
4.01718e-05
8.86744e-05
0.00018683
4.83354e-05
0.000205252
4.71136e-05
0.000205036
8.95895e-05
8.86747e-05
0.000186823
4.83323e-05
0.00020525
4.71101e-05
0.000205034
8.95897e-05
3.27785e-05
3.27777e-05
0.000158937
3.3953e-05
3.39554e-05
2.50381e-05
2.50505e-05
2.50742e-05
2.50589e-05
0.000158601
3.51256e-05
3.51256e-05
3.42882e-05
3.42881e-05
2.50747e-05
2.50597e-05
8.83487e-05
4.63364e-05
0.000205258
0.000186573
8.70894e-05
4.67477e-05
0.000204978
3.93418e-05
4.92254e-05
3.81552e-05
4.9333e-05
8.83482e-05
0.000205253
4.63313e-05
0.000186545
8.70882e-05
0.000204973
4.67448e-05
3.95827e-05
4.94643e-05
4.93765e-05
4.01796e-05
8.8671e-05
0.000186843
4.83287e-05
0.00020525
4.7107e-05
0.000205034
8.95892e-05
3.95828e-05
4.9461e-05
4.93741e-05
4.01788e-05
8.86699e-05
0.000186815
0.000205246
4.8325e-05
0.000205029
4.71032e-05
8.95883e-05
3.93453e-05
4.92308e-05
3.81517e-05
4.93384e-05
8.83519e-05
0.000205258
4.63434e-05
0.000186556
8.70925e-05
0.000204979
4.6752e-05
3.93452e-05
4.92277e-05
3.81516e-05
4.93355e-05
8.86738e-05
0.00018685
4.83325e-05
0.000205254
4.71097e-05
0.000205038
8.95885e-05
3.95831e-05
4.94665e-05
4.93795e-05
4.01709e-05
8.86732e-05
0.000186826
0.000205251
4.83327e-05
0.000205035
4.7111e-05
8.95873e-05
3.95829e-05
4.94645e-05
4.93764e-05
4.01707e-05
3.27722e-05
3.27839e-05
0.000158925
3.39495e-05
3.39581e-05
2.5037e-05
2.50498e-05
2.50715e-05
2.50565e-05
0.00015859
3.51195e-05
3.51305e-05