/*--------------------------------*- C++ -*----------------------------------*\
| =========                 |                                                 |
| \\      /  F ield         | OpenFOAM: The Open Source CFD Toolbox           |
|  \\    /   O peration     | Version:  2206                                  |
|   \\  /    A nd           | Website:  www.openfoam.com                      |
|    \\/     M anipulation  |                                                 |
\*---------------------------------------------------------------------------*/
FoamFile
{
    version     2.0;
    format      ascii;
    arch        "LSB;label=32;scalar=64";
    class       volScalarField;
    location    "30";
    object      p;
}
// * * * * * * * * * * * * * * * * * * * * * * * * * * * * * * * * * * * * * //

dimensions      [0 2 -2 0 0 0 0];

internalField   nonuniform List<scalar> 
28688
(
0.00397059
0.00397092
0.00397092
0.00397397
0.00391522
0.00391565
0.00391564
0.00391864
0.00386447
0.00386444
0.00386444
0.0038672
0.00381206
0.0038121
0.0038121
0.00381487
0.00376077
0.00376078
0.00376078
0.00376353
0.00371127
0.00371111
0.00371111
0.00371368
0.00366582
0.00366567
0.00366567
0.00366811
0.0036236
0.00362354
0.00362354
0.00362604
0.00358185
0.00358181
0.00358181
0.00358428
0.0035402
0.00354016
0.00354016
0.00354262
0.00349856
0.00349852
0.00349852
0.00350098
0.00345692
0.00345688
0.00345688
0.00345935
0.003984
0.00398422
0.00398422
0.003984
0.00398422
0.00398422
0.00398499
0.00398499
0.00398499
0.00398499
0.00398422
0.00398422
0.003984
0.00398423
0.00398423
0.003984
0.00397397
0.00392522
0.00397091
0.00397092
0.00392749
0.0039275
0.00397397
0.00392521
0.00397092
0.00397092
0.00392749
0.00392749
0.00397092
0.00392749
0.00392749
0.00397397
0.00392522
0.00397092
0.00392749
0.00392749
0.00392521
0.00391864
0.00387413
0.00391565
0.00391565
0.00387758
0.00387758
0.00391864
0.00387413
0.00391565
0.00391565
0.00387758
0.00387758
0.00391565
0.00387758
0.00387758
0.00391864
0.00387413
0.00391564
0.00387758
0.00387758
0.00387413
0.0038672
0.00382176
0.00386444
0.00386445
0.00382511
0.00382511
0.0038672
0.00382176
0.00386444
0.00386444
0.00382511
0.00382511
0.00386444
0.00382511
0.00382511
0.0038672
0.00382176
0.00386444
0.00382511
0.00382511
0.00382176
0.00381487
0.00377026
0.0038121
0.0038121
0.0037735
0.0037735
0.00381487
0.00377026
0.0038121
0.0038121
0.0037735
0.0037735
0.0038121
0.0037735
0.0037735
0.00381487
0.00377026
0.0038121
0.0037735
0.0037735
0.00377026
0.00376353
0.0037201
0.00376078
0.00376079
0.0037232
0.0037232
0.00376353
0.0037201
0.00376078
0.00376079
0.0037232
0.0037232
0.00376078
0.0037232
0.0037232
0.00376353
0.0037201
0.00376078
0.0037232
0.0037232
0.00372009
0.00371368
0.00367378
0.00371111
0.00371111
0.00367655
0.00367655
0.00371368
0.00367378
0.00371111
0.00371111
0.00367654
0.00367654
0.00371111
0.00367654
0.00367654
0.00371368
0.00367378
0.00371111
0.00367654
0.00367654
0.00367378
0.00366811
0.00363155
0.00366567
0.00366567
0.00363401
0.00363401
0.00366811
0.00363155
0.00366567
0.00366567
0.00363401
0.00363401
0.00366567
0.00363401
0.00363401
0.00366811
0.00363155
0.00366567
0.00363401
0.00363401
0.00363155
0.00362604
0.00358977
0.00362354
0.00362354
0.00359223
0.00359223
0.00362604
0.00358977
0.00362354
0.00362354
0.00359223
0.00359223
0.00362354
0.00359223
0.00359223
0.00362604
0.00358977
0.00362355
0.00359223
0.00359223
0.00358977
0.00358428
0.00354812
0.00358181
0.00358181
0.00355057
0.00355057
0.00358428
0.00354812
0.00358181
0.00358181
0.00355057
0.00355057
0.00358181
0.00355057
0.00355057
0.00358428
0.00354812
0.00358181
0.00355057
0.00355057
0.00354812
0.00354262
0.00350648
0.00354016
0.00354016
0.00350893
0.00350893
0.00354262
0.00350648
0.00354016
0.00354016
0.00350893
0.00350893
0.00354016
0.00350893
0.00350893
0.00354262
0.00350648
0.00354016
0.00350893
0.00350893
0.00350648
0.00350098
0.00346484
0.00349852
0.00349852
0.00346729
0.00346729
0.00350098
0.00346484
0.00349852
0.00349852
0.00346729
0.00346729
0.00349852
0.00346729
0.00346729
0.00350098
0.00346484
0.00349852
0.00346729
0.00346729
0.00346484
0.00345935
0.0034232
0.00345688
0.00345688
0.00342566
0.00345934
0.00345688
0.00345688
0.00342566
0.00342566
0.00345688
0.00342566
0.00345935
0.0034232
0.00345688
0.00342566
0.00342566
0.0034232
0.00399237
0.00400213
0.00399693
0.00399694
0.00401931
0.00400609
0.00403469
0.00400014
0.00401931
0.0040061
0.00400014
0.00403469
0.00401067
0.00403843
0.00403843
0.00394773
0.00396687
0.00397607
0.0039398
0.00394057
0.00394332
0.00394771
0.00396685
0.00397606
0.00393978
0.00397059
0.00397059
0.00397059
0.00392718
0.00392718
0.00392718
0.00392718
0.00394523
0.00397106
0.00397099
0.00395405
0.00397408
0.00394413
0.00395494
0.00394068
0.00394331
0.00394524
0.00397099
0.00397107
0.00395406
0.00397408
0.00395494
0.00394413
0.00397693
0.00397692
0.00394846
0.00394377
0.00394376
0.00390107
0.00392039
0.00392174
0.00389958
0.00391929
0.00389915
0.00390107
0.00392039
0.00392174
0.00389957
0.00391522
0.00391522
0.00391522
0.00387765
0.00387765
0.00387765
0.00387765
0.00389966
0.00392045
0.00391523
0.00390336
0.00391924
0.00390019
0.00390309
0.00391929
0.00389915
0.00389966
0.00391522
0.00392045
0.00390336
0.00391924
0.00390309
0.00390019
0.00392149
0.00392148
0.00389991
0.00390051
0.00390051
0.00384885
0.00386772
0.00386875
0.00384778
0.00386737
0.00384749
0.00384885
0.00386772
0.00386875
0.00384778
0.00386447
0.00386447
0.00386447
0.00382508
0.00382508
0.00382508
0.00382508
0.00384795
0.00386808
0.00386435
0.00385131
0.0038675
0.00384829
0.00385121
0.00386737
0.00384749
0.00384795
0.00386435
0.00386808
0.00385131
0.0038675
0.00385121
0.00384829
0.00386834
0.00386834
0.00384794
0.00384835
0.00384835
0.00379625
0.00381503
0.00381588
0.00379548
0.00381483
0.00379529
0.00379625
0.00381503
0.00381588
0.00379548
0.00381206
0.00381206
0.00381206
0.0037735
0.0037735
0.0037735
0.0037735
0.00379577
0.00381541
0.00381204
0.00379916
0.00381511
0.00379594
0.00379913
0.00381483
0.00379529
0.00379577
0.00381204
0.00381541
0.00379916
0.00381511
0.00379913
0.00379594
0.00381548
0.00381548
0.00379584
0.00379586
0.00379586
0.00374504
0.00376344
0.00376414
0.00374458
0.00376328
0.00374444
0.00374504
0.00376343
0.00376414
0.00374458
0.00376077
0.00376077
0.00376077
0.00372337
0.00372337
0.00372337
0.00372337
0.00374482
0.00376381
0.00376075
0.00374815
0.00376366
0.00374494
0.00374814
0.00376328
0.00374444
0.00374482
0.00376075
0.00376381
0.00374815
0.00376366
0.00374814
0.00374494
0.00376376
0.00376376
0.00374491
0.00374488
0.00374488
0.00369573
0.0037132
0.00371396
0.00369535
0.00371307
0.00369507
0.00369573
0.0037132
0.00371396
0.00369535
0.00371127
0.00371127
0.00371127
0.00367671
0.00367671
0.00367671
0.00367671
0.00369585
0.00371363
0.00371116
0.00369928
0.0037137
0.00369577
0.00369933
0.00371306
0.00369508
0.00369585
0.00371116
0.00371363
0.00369928
0.0037137
0.00369933
0.00369577
0.00371344
0.00371344
0.00369622
0.00369544
0.00369544
0.00365194
0.00366767
0.00366754
0.00365197
0.00366757
0.00365198
0.00365194
0.00366767
0.00366755
0.00365197
0.00366582
0.00366582
0.00366582
0.00363407
0.00363407
0.00363407
0.00363407
0.00365223
0.0036679
0.00366573
0.00365502
0.00366793
0.00365217
0.00365506
0.00366757
0.00365198
0.00365223
0.00366573
0.0036679
0.00365502
0.00366793
0.00365506
0.00365218
0.00366778
0.00366778
0.00365251
0.00365212
0.00365213
0.00361048
0.00362599
0.00362606
0.00361044
0.00362603
0.00361045
0.00361048
0.00362599
0.00362606
0.00361044
0.0036236
0.0036236
0.0036236
0.00359228
0.00359228
0.00359228
0.00359228
0.00361054
0.00362602
0.00362356
0.00361309
0.00362606
0.00361049
0.00361311
0.00362603
0.00361045
0.00361054
0.00362356
0.00362602
0.00361309
0.00362606
0.00361311
0.00361049
0.00362608
0.00362608
0.00361064
0.00361046
0.00361046
0.00356882
0.0035844
0.00358441
0.00356882
0.0035844
0.00356881
0.00356882
0.0035844
0.00358441
0.00356882
0.00358185
0.00358185
0.00358185
0.00355061
0.00355061
0.00355061
0.00355061
0.00356887
0.00358437
0.00358182
0.00357139
0.00358437
0.00356885
0.0035714
0.0035844
0.00356881
0.00356887
0.00358182
0.00358437
0.00357139
0.00358437
0.00357141
0.00356885
0.00358441
0.00358441
0.00356894
0.00356881
0.00356881
0.00352718
0.00354276
0.00354277
0.00352718
0.00354276
0.00352718
0.00352718
0.00354276
0.00354277
0.00352718
0.0035402
0.0035402
0.0035402
0.00350897
0.00350897
0.00350897
0.00350897
0.00352723
0.00354273
0.00354017
0.00352975
0.00354272
0.00352721
0.00352976
0.00354276
0.00352718
0.00352723
0.00354017
0.00354273
0.00352975
0.00354272
0.00352976
0.00352721
0.00354277
0.00354277
0.0035273
0.00352717
0.00352717
0.00348554
0.00350112
0.00350113
0.00348554
0.00350113
0.00348554
0.00348554
0.00350113
0.00350113
0.00348554
0.00349856
0.00349856
0.00349856
0.00346733
0.00346733
0.00346733
0.00346733
0.00348559
0.00350109
0.00349853
0.00348811
0.00350108
0.00348557
0.00348812
0.00350113
0.00348554
0.00348559
0.00349853
0.00350109
0.00348811
0.00350108
0.00348812
0.00348557
0.00350113
0.00350113
0.00348566
0.00348554
0.00348554
0.0034439
0.00345949
0.00345949
0.0034439
0.00345949
0.0034439
0.0034439
0.00345949
0.00345949
0.0034439
0.00345692
0.00345692
0.00345692
0.00342569
0.00342569
0.00342569
0.00342569
0.00344395
0.00345946
0.00345689
0.00344647
0.00345944
0.00344393
0.00344648
0.00345949
0.0034439
0.00344395
0.00345689
0.00345946
0.00344647
0.00345944
0.00344648
0.00344393
0.00345949
0.00345949
0.00344402
0.0034439
0.0034439
0.00401066
0.00403842
0.00403844
0.0040028
0.00403796
0.00400277
0.00403798
0.00400752
0.00399459
0.00399459
0.00403325
0.00403326
0.00401929
0.00400609
0.00403468
0.00400014
0.00401929
0.00400609
0.00403468
0.00400014
0.00402382
0.00399487
0.0040351
0.00398968
0.00402382
0.00399485
0.0040351
0.00398968
0.0040149
0.00400362
0.00398605
0.00398645
0.00402996
0.00399858
0.00398667
0.0040149
0.00400362
0.00398605
0.00398644
0.00402997
0.00399858
0.00398667
0.00401066
0.00403842
0.00403843
0.00400276
0.00403796
0.00400752
0.00399457
0.0039946
0.00403325
0.00403325
0.00400279
0.00403797
0.00401931
0.0040061
0.0040347
0.00400014
0.00401931
0.0040061
0.00400014
0.0040347
0.00402384
0.00399486
0.00403512
0.00398969
0.00401492
0.00400362
0.00398605
0.00398645
0.00402998
0.00399858
0.00398668
0.00402384
0.00399487
0.00403511
0.00398968
0.00401492
0.00400362
0.00398645
0.00398606
0.00399858
0.00402997
0.00398668
0.00399237
0.00400213
0.00399693
0.00399693
0.00399237
0.00400214
0.00399694
0.00399694
0.00399237
0.00400214
0.00399693
0.00399694
0.00399114
0.00400022
0.0039831
0.00398311
0.0039955
0.0039955
0.00398128
0.00399114
0.00400021
0.0039831
0.0039831
0.0039955
0.0039955
0.00398128
0.00399114
0.00400022
0.00398311
0.00398311
0.0039955
0.0039955
0.00398128
0.00399114
0.00400022
0.00398311
0.00398311
0.0039955
0.0039955
0.00398128
0.00401931
0.0040061
0.00400014
0.00403469
0.00401492
0.00400362
0.00398605
0.00398645
0.00402997
0.00399858
0.00398668
0.00402384
0.00399486
0.00403511
0.00398969
0.00401492
0.00400362
0.00398645
0.00398606
0.00399858
0.00402997
0.00398668
0.00402384
0.00399486
0.00403511
0.00398968
0.00401067
0.00403844
0.00403843
0.00400274
0.00403797
0.00400752
0.00399459
0.00399459
0.00403325
0.00403326
0.00400274
0.00403798
0.00401931
0.0040061
0.00400014
0.0040347
0.00401492
0.00400362
0.00398645
0.00398606
0.00399858
0.00402998
0.00398668
0.00401492
0.00400362
0.00398645
0.00398606
0.00399858
0.00402998
0.00398668
0.00402384
0.00399486
0.00403511
0.00398968
0.00402384
0.00399488
0.00403511
0.00398969
0.00400752
0.00399459
0.00399459
0.00403325
0.00403326
0.00400274
0.00403797
0.00400277
0.00403798
0.00394057
0.00394331
0.00394067
0.00394329
0.00397689
0.00397693
0.00394847
0.00394376
0.00394376
0.00392606
0.00394297
0.00392606
0.00394298
0.00394181
0.00392868
0.00392868
0.00394192
0.00394192
0.00394772
0.00396686
0.00397607
0.0039398
0.00394525
0.00397106
0.00397099
0.00395405
0.00397408
0.00394414
0.00395494
0.00394525
0.00397106
0.00397099
0.00395405
0.00397408
0.00394414
0.00395494
0.00394318
0.00392781
0.0039407
0.00392854
0.00394318
0.00392781
0.00394071
0.00392854
0.00394022
0.00393975
0.00392748
0.00392722
0.0039413
0.00394016
0.00392582
0.00394022
0.00393975
0.00392749
0.00392722
0.0039413
0.00394016
0.00392582
0.00397688
0.00397693
0.00394848
0.00394376
0.00394376
0.00394072
0.00394329
0.00392606
0.00394297
0.00394181
0.00392868
0.00392868
0.00394192
0.00394191
0.00392605
0.00394298
0.00394523
0.00397106
0.00397099
0.00395406
0.00397408
0.00394413
0.00395494
0.00394771
0.00396686
0.00397605
0.0039398
0.00394524
0.00397099
0.00397106
0.00395405
0.00397408
0.00395494
0.00394414
0.00394317
0.00392781
0.00394071
0.00392854
0.00394021
0.00393975
0.00392748
0.00392722
0.00394129
0.00394016
0.00392582
0.00394318
0.0039278
0.00394072
0.00392854
0.00394022
0.00393975
0.00392722
0.00392748
0.00394016
0.0039413
0.00392582
0.00394771
0.00396686
0.00397606
0.00393979
0.00394524
0.00397099
0.00397107
0.00395405
0.00397408
0.00395494
0.00394413
0.00394771
0.00396688
0.00397605
0.00393979
0.00394021
0.00393974
0.00392748
0.00392722
0.00394129
0.00394016
0.00392582
0.00394317
0.00392781
0.0039407
0.00392854
0.00394021
0.00393975
0.00392722
0.00392748
0.00394016
0.00394129
0.00392582
0.00394318
0.00392781
0.0039407
0.00392854
0.00397692
0.00397693
0.00394846
0.00394377
0.00394376
0.00394068
0.00394329
0.00392605
0.00394299
0.00394181
0.00392868
0.00392868
0.00394192
0.00394191
0.00392606
0.00394295
0.00394523
0.00397099
0.00397106
0.00395406
0.00397408
0.00395494
0.00394413
0.00394771
0.00396687
0.00397605
0.00393978
0.00394771
0.00396687
0.00397605
0.00393979
0.00394021
0.00393975
0.00392722
0.00392748
0.00394016
0.00394129
0.00392582
0.00394021
0.00393975
0.00392722
0.00392748
0.00394016
0.00394129
0.00392582
0.00394318
0.00392781
0.00394071
0.00392854
0.00394317
0.0039278
0.0039407
0.00392854
0.0039407
0.00394329
0.0039407
0.00394329
0.0039418
0.00392868
0.00392868
0.00394191
0.00394191
0.00392607
0.00394295
0.00392605
0.00394297
0.0039193
0.00389915
0.00391929
0.00389915
0.00392149
0.00392149
0.00389991
0.00390051
0.00390051
0.00387385
0.0038927
0.00387385
0.0038927
0.00389311
0.0038749
0.0038749
0.00389404
0.00389404
0.00390107
0.00392039
0.00392174
0.00389957
0.00389966
0.00392046
0.00391523
0.00390336
0.00391924
0.00390019
0.00390309
0.00389966
0.00392046
0.00391523
0.00390336
0.00391924
0.00390019
0.00390309
0.00389453
0.00387425
0.0038932
0.00387534
0.00389453
0.00387425
0.0038932
0.00387534
0.00389313
0.0038906
0.0038747
0.00387749
0.00389374
0.00389047
0.00387416
0.00389313
0.0038906
0.0038747
0.00387749
0.00389374
0.00389047
0.00387416
0.00392149
0.00392149
0.00389991
0.00390051
0.00390051
0.0039193
0.00389916
0.00387385
0.0038927
0.00389311
0.0038749
0.0038749
0.00389404
0.00389404
0.00387385
0.0038927
0.00389966
0.00392045
0.00391522
0.00390336
0.00391924
0.00390019
0.00390309
0.00390107
0.00392038
0.00392174
0.00389957
0.00389966
0.00391522
0.00392045
0.00390336
0.00391924
0.00390309
0.00390019
0.00389453
0.00387425
0.0038932
0.00387534
0.00389313
0.0038906
0.0038747
0.00387749
0.00389374
0.00389047
0.00387415
0.00389453
0.00387425
0.0038932
0.00387533
0.00389313
0.0038906
0.00387749
0.0038747
0.00389047
0.00389374
0.00387415
0.00390107
0.00392039
0.00392174
0.00389958
0.00389966
0.00391522
0.00392045
0.00390336
0.00391924
0.00390309
0.00390019
0.00390107
0.00392039
0.00392174
0.00389957
0.00389313
0.0038906
0.0038747
0.00387749
0.00389374
0.00389047
0.00387416
0.00389453
0.00387425
0.0038932
0.00387534
0.00389313
0.0038906
0.00387749
0.0038747
0.00389047
0.00389374
0.00387416
0.00389453
0.00387425
0.0038932
0.00387534
0.00392148
0.00392149
0.0038999
0.00390051
0.00390051
0.00391929
0.00389915
0.00387385
0.0038927
0.00389311
0.0038749
0.0038749
0.00389404
0.00389404
0.00387385
0.0038927
0.00389966
0.00391522
0.00392045
0.00390336
0.00391924
0.00390309
0.00390019
0.00390107
0.00392039
0.00392174
0.00389957
0.00390107
0.00392038
0.00392174
0.00389957
0.00389313
0.0038906
0.00387749
0.0038747
0.00389047
0.00389374
0.00387416
0.00389313
0.0038906
0.00387749
0.0038747
0.00389047
0.00389374
0.00387416
0.00389453
0.00387425
0.0038932
0.00387533
0.00389453
0.00387425
0.0038932
0.00387533
0.00391929
0.00389915
0.00391928
0.00389915
0.00389311
0.0038749
0.0038749
0.00389404
0.00389404
0.00387385
0.0038927
0.00387385
0.0038927
0.00386737
0.00384749
0.00386737
0.00384749
0.00386834
0.00386834
0.00384794
0.00384835
0.00384835
0.00382132
0.00384081
0.00382132
0.00384081
0.00384097
0.00382199
0.00382199
0.00384161
0.00384161
0.00384885
0.00386772
0.00386875
0.00384778
0.00384795
0.00386808
0.00386435
0.00385131
0.0038675
0.00384829
0.00385121
0.00384795
0.00386808
0.00386435
0.00385131
0.0038675
0.00384829
0.00385121
0.00384212
0.00382154
0.00384107
0.00382239
0.00384212
0.00382154
0.00384107
0.00382239
0.00384119
0.0038382
0.003822
0.00382505
0.00384153
0.00383812
0.00382173
0.00384119
0.0038382
0.003822
0.00382505
0.00384153
0.00383812
0.00382173
0.00386834
0.00386834
0.00384794
0.00384835
0.00384836
0.00386738
0.00384749
0.00382132
0.00384081
0.00384097
0.00382199
0.00382199
0.00384161
0.00384161
0.00382132
0.00384081
0.00384795
0.00386808
0.00386435
0.00385131
0.0038675
0.00384829
0.00385121
0.00384885
0.00386772
0.00386875
0.00384778
0.00384795
0.00386435
0.00386808
0.00385131
0.0038675
0.00385121
0.00384829
0.00384212
0.00382154
0.00384107
0.00382239
0.00384119
0.0038382
0.003822
0.00382505
0.00384153
0.00383812
0.00382173
0.00384212
0.00382154
0.00384107
0.00382239
0.00384119
0.0038382
0.00382505
0.003822
0.00383812
0.00384153
0.00382173
0.00384885
0.00386772
0.00386875
0.00384778
0.00384795
0.00386435
0.00386808
0.00385131
0.0038675
0.00385121
0.00384829
0.00384885
0.00386772
0.00386875
0.00384778
0.00384119
0.0038382
0.003822
0.00382505
0.00384153
0.00383812
0.00382173
0.00384212
0.00382154
0.00384107
0.00382239
0.00384119
0.0038382
0.00382505
0.003822
0.00383812
0.00384153
0.00382173
0.00384212
0.00382154
0.00384107
0.00382239
0.00386834
0.00386834
0.00384794
0.00384835
0.00384835
0.00386737
0.00384749
0.00382132
0.00384081
0.00384097
0.00382199
0.00382199
0.00384161
0.00384161
0.00382132
0.00384081
0.00384795
0.00386435
0.00386808
0.00385131
0.0038675
0.00385121
0.00384829
0.00384885
0.00386772
0.00386875
0.00384778
0.00384885
0.00386772
0.00386875
0.00384778
0.00384119
0.0038382
0.00382505
0.003822
0.00383812
0.00384153
0.00382173
0.00384119
0.0038382
0.00382505
0.003822
0.00383812
0.00384153
0.00382173
0.00384212
0.00382154
0.00384107
0.00382239
0.00384212
0.00382154
0.00384107
0.00382239
0.00386737
0.00384749
0.00386737
0.00384749
0.00384097
0.00382199
0.00382199
0.00384161
0.00384161
0.00382132
0.00384081
0.00382132
0.00384081
0.00381483
0.00379529
0.00381483
0.00379529
0.00381548
0.00381548
0.00379584
0.00379586
0.00379586
0.0037697
0.00378883
0.0037697
0.00378883
0.00378902
0.00377019
0.00377019
0.00378938
0.00378938
0.00379625
0.00381503
0.00381588
0.00379548
0.00379577
0.00381541
0.00381204
0.00379916
0.00381511
0.00379594
0.00379913
0.00379577
0.00381541
0.00381204
0.00379916
0.00381511
0.00379594
0.00379913
0.00378969
0.00376986
0.003789
0.0037706
0.00378969
0.00376986
0.003789
0.0037706
0.00378917
0.00378629
0.0037703
0.00377347
0.00378937
0.00378627
0.00377019
0.00378917
0.00378629
0.0037703
0.00377347
0.00378937
0.00378627
0.00377019
0.00381548
0.00381548
0.00379584
0.00379586
0.00379586
0.00381483
0.00379529
0.0037697
0.00378884
0.00378902
0.0037702
0.0037702
0.00378938
0.00378938
0.0037697
0.00378884
0.00379577
0.00381541
0.00381204
0.00379916
0.00381511
0.00379594
0.00379913
0.00379625
0.00381503
0.00381588
0.00379548
0.00379577
0.00381204
0.00381541
0.00379916
0.00381511
0.00379913
0.00379594
0.00378969
0.00376986
0.003789
0.0037706
0.00378917
0.00378629
0.0037703
0.00377347
0.00378937
0.00378627
0.00377019
0.00378969
0.00376986
0.003789
0.0037706
0.00378917
0.00378629
0.00377347
0.0037703
0.00378627
0.00378937
0.00377019
0.00379625
0.00381503
0.00381588
0.00379548
0.00379577
0.00381204
0.00381541
0.00379916
0.00381511
0.00379913
0.00379594
0.00379625
0.00381503
0.00381588
0.00379548
0.00378917
0.00378629
0.0037703
0.00377347
0.00378937
0.00378627
0.00377019
0.00378969
0.00376986
0.003789
0.0037706
0.00378917
0.00378629
0.00377347
0.0037703
0.00378627
0.00378937
0.00377019
0.00378969
0.00376986
0.003789
0.0037706
0.00381548
0.00381548
0.00379584
0.00379586
0.00379586
0.00381483
0.00379529
0.0037697
0.00378884
0.00378902
0.00377019
0.00377019
0.00378938
0.00378938
0.0037697
0.00378884
0.00379577
0.00381204
0.00381541
0.00379916
0.00381511
0.00379913
0.00379594
0.00379625
0.00381503
0.00381588
0.00379548
0.00379625
0.00381503
0.00381588
0.00379548
0.00378917
0.00378629
0.00377347
0.0037703
0.00378627
0.00378937
0.00377019
0.00378917
0.00378629
0.00377347
0.0037703
0.00378627
0.00378937
0.00377019
0.00378969
0.00376986
0.003789
0.0037706
0.00378969
0.00376986
0.003789
0.0037706
0.00381483
0.00379529
0.00381483
0.00379529
0.00378902
0.00377019
0.00377019
0.00378938
0.00378938
0.0037697
0.00378884
0.0037697
0.00378884
0.00376328
0.00374444
0.00376328
0.00374444
0.00376376
0.00376376
0.00374491
0.00374488
0.00374488
0.00371927
0.0037381
0.00371927
0.0037381
0.00373828
0.00371967
0.00371967
0.00373853
0.00373853
0.00374504
0.00376344
0.00376414
0.00374458
0.00374482
0.00376381
0.00376075
0.00374815
0.00376366
0.00374494
0.00374814
0.00374482
0.00376381
0.00376075
0.00374815
0.00376366
0.00374494
0.00374814
0.00373868
0.00371939
0.00373821
0.00372012
0.00373868
0.0037194
0.00373821
0.00372012
0.00373841
0.00373559
0.00371985
0.00372325
0.00373852
0.00373562
0.00371993
0.00373841
0.00373559
0.00371986
0.00372325
0.00373852
0.00373562
0.00371993
0.00376376
0.00376376
0.00374491
0.00374488
0.00374488
0.00376328
0.00374444
0.00371928
0.0037381
0.00373828
0.00371967
0.00371967
0.00373854
0.00373854
0.00371927
0.0037381
0.00374482
0.00376381
0.00376075
0.00374815
0.00376366
0.00374494
0.00374814
0.00374504
0.00376344
0.00376414
0.00374458
0.00374482
0.00376075
0.00376381
0.00374815
0.00376366
0.00374814
0.00374494
0.00373868
0.00371939
0.00373821
0.00372012
0.00373841
0.00373559
0.00371985
0.00372325
0.00373852
0.00373562
0.00371993
0.00373868
0.00371939
0.00373821
0.00372012
0.00373841
0.00373559
0.00372325
0.00371985
0.00373562
0.00373852
0.00371993
0.00374504
0.00376344
0.00376414
0.00374458
0.00374482
0.00376075
0.00376381
0.00374815
0.00376366
0.00374814
0.00374494
0.00374504
0.00376344
0.00376414
0.00374458
0.00373841
0.00373559
0.00371985
0.00372326
0.00373852
0.00373562
0.00371993
0.00373868
0.00371939
0.00373821
0.00372012
0.00373841
0.00373559
0.00372326
0.00371985
0.00373562
0.00373852
0.00371993
0.00373868
0.00371939
0.00373821
0.00372012
0.00376376
0.00376376
0.00374491
0.00374488
0.00374488
0.00376328
0.00374444
0.00371928
0.0037381
0.00373828
0.00371967
0.00371967
0.00373853
0.00373853
0.00371928
0.0037381
0.00374482
0.00376075
0.00376381
0.00374815
0.00376366
0.00374814
0.00374494
0.00374504
0.00376344
0.00376414
0.00374458
0.00374504
0.00376343
0.00376414
0.00374458
0.00373841
0.00373559
0.00372326
0.00371985
0.00373562
0.00373852
0.00371993
0.00373841
0.00373559
0.00372326
0.00371985
0.00373562
0.00373852
0.00371993
0.00373868
0.00371939
0.00373821
0.00372012
0.00373868
0.00371939
0.00373821
0.00372012
0.00376328
0.00374444
0.00376328
0.00374444
0.00373828
0.00371967
0.00371967
0.00373853
0.00373853
0.00371927
0.0037381
0.00371927
0.0037381
0.00371305
0.00369508
0.00371305
0.00369508
0.00371344
0.00371344
0.00369622
0.00369544
0.00369544
0.00367289
0.00368931
0.0036729
0.00368931
0.00369013
0.0036731
0.0036731
0.00368964
0.00368964
0.00369573
0.00371321
0.00371396
0.00369535
0.00369585
0.00371363
0.00371115
0.00369928
0.0037137
0.00369577
0.00369933
0.00369585
0.00371363
0.00371115
0.00369928
0.0037137
0.00369577
0.00369933
0.00368977
0.00367303
0.00368958
0.00367291
0.00368977
0.00367303
0.00368957
0.00367291
0.00368994
0.00368773
0.00367335
0.00367661
0.0036899
0.0036878
0.00367339
0.00368994
0.00368772
0.00367335
0.00367661
0.0036899
0.0036878
0.00367339
0.00371345
0.00371344
0.00369622
0.00369544
0.00369544
0.00371306
0.00369508
0.00367289
0.0036893
0.00369013
0.0036731
0.0036731
0.00368964
0.00368964
0.00367289
0.00368931
0.00369585
0.00371363
0.00371116
0.00369928
0.0037137
0.00369577
0.00369933
0.00369573
0.0037132
0.00371396
0.00369535
0.00369585
0.00371115
0.00371363
0.00369928
0.0037137
0.00369933
0.00369577
0.00368978
0.00367304
0.00368958
0.00367292
0.00368995
0.00368772
0.00367336
0.00367661
0.00368991
0.0036878
0.0036734
0.00368978
0.00367304
0.00368958
0.00367292
0.00368995
0.00368772
0.00367661
0.00367336
0.0036878
0.00368991
0.0036734
0.00369573
0.0037132
0.00371396
0.00369535
0.00369585
0.00371116
0.00371363
0.00369928
0.0037137
0.00369933
0.00369577
0.00369573
0.0037132
0.00371396
0.00369535
0.00368995
0.00368773
0.00367335
0.00367661
0.00368991
0.0036878
0.0036734
0.00368978
0.00367303
0.00368958
0.00367292
0.00368995
0.00368773
0.00367661
0.00367335
0.0036878
0.00368991
0.0036734
0.00368978
0.00367304
0.00368958
0.00367292
0.00371344
0.00371344
0.00369622
0.00369545
0.00369544
0.00371306
0.00369508
0.0036729
0.00368931
0.00369013
0.0036731
0.0036731
0.00368964
0.00368964
0.0036729
0.00368931
0.00369585
0.00371116
0.00371363
0.00369928
0.0037137
0.00369933
0.00369577
0.00369573
0.0037132
0.00371396
0.00369535
0.00369573
0.0037132
0.00371396
0.00369535
0.00368995
0.00368772
0.00367661
0.00367336
0.0036878
0.00368991
0.0036734
0.00368995
0.00368773
0.00367661
0.00367335
0.0036878
0.00368991
0.00367339
0.00368978
0.00367304
0.00368958
0.00367292
0.00368978
0.00367303
0.00368958
0.00367292
0.00371305
0.00369508
0.00371305
0.00369508
0.00369013
0.0036731
0.0036731
0.00368964
0.00368964
0.0036729
0.00368931
0.00367289
0.00368931
0.00366757
0.00365199
0.00366757
0.00365199
0.00366778
0.00366778
0.00365251
0.00365212
0.00365213
0.00363124
0.00364677
0.00363124
0.00364677
0.00364697
0.0036313
0.0036313
0.00364689
0.0036469
0.00365194
0.00366767
0.00366754
0.00365197
0.00365223
0.0036679
0.00366573
0.00365502
0.00366793
0.00365217
0.00365506
0.00365223
0.0036679
0.00366573
0.00365502
0.00366793
0.00365218
0.00365506
0.00364676
0.0036312
0.00364674
0.00363128
0.00364676
0.0036312
0.00364674
0.00363128
0.00364689
0.00364448
0.00363133
0.00363402
0.00364686
0.00364451
0.00363139
0.00364689
0.00364448
0.00363133
0.00363402
0.00364686
0.00364451
0.00363139
0.00366778
0.00366778
0.0036525
0.00365212
0.00365213
0.00366756
0.00365198
0.00363124
0.00364677
0.00364697
0.0036313
0.0036313
0.0036469
0.0036469
0.00363124
0.00364677
0.00365224
0.0036679
0.00366573
0.00365502
0.00366793
0.00365218
0.00365506
0.00365194
0.00366767
0.00366755
0.00365197
0.00365223
0.00366573
0.0036679
0.00365502
0.00366793
0.00365506
0.00365218
0.00364676
0.0036312
0.00364674
0.00363128
0.00364689
0.00364448
0.00363133
0.00363402
0.00364686
0.00364451
0.0036314
0.00364676
0.0036312
0.00364674
0.00363128
0.00364689
0.00364448
0.00363402
0.00363133
0.00364451
0.00364686
0.0036314
0.00365194
0.00366767
0.00366755
0.00365197
0.00365223
0.00366573
0.0036679
0.00365502
0.00366794
0.00365506
0.00365218
0.00365194
0.00366767
0.00366755
0.00365197
0.00364689
0.00364448
0.00363133
0.00363402
0.00364686
0.00364451
0.00363139
0.00364676
0.0036312
0.00364674
0.00363128
0.00364689
0.00364448
0.00363402
0.00363133
0.00364451
0.00364686
0.00363139
0.00364676
0.0036312
0.00364674
0.00363128
0.00366778
0.00366778
0.00365251
0.00365212
0.00365213
0.00366757
0.00365199
0.00363124
0.00364677
0.00364697
0.0036313
0.0036313
0.0036469
0.0036469
0.00363125
0.00364677
0.00365223
0.00366573
0.0036679
0.00365502
0.00366793
0.00365506
0.00365218
0.00365194
0.00366767
0.00366755
0.00365197
0.00365194
0.00366767
0.00366755
0.00365197
0.00364689
0.00364448
0.00363402
0.00363133
0.00364451
0.00364686
0.0036314
0.00364689
0.00364448
0.00363402
0.00363133
0.00364451
0.00364686
0.0036314
0.00364676
0.0036312
0.00364674
0.00363128
0.00364676
0.0036312
0.00364674
0.00363128
0.00366757
0.00365198
0.00366757
0.00365199
0.00364697
0.0036313
0.0036313
0.0036469
0.0036469
0.00363124
0.00364677
0.00363125
0.00364677
0.00362602
0.00361045
0.00362603
0.00361045
0.00362607
0.00362608
0.00361064
0.00361046
0.00361046
0.00358963
0.00360522
0.00358963
0.00360522
0.00360514
0.00358963
0.00358963
0.00360524
0.00360524
0.00361048
0.00362599
0.00362606
0.00361044
0.00361054
0.00362602
0.00362356
0.00361309
0.00362606
0.00361049
0.00361311
0.00361054
0.00362602
0.00362356
0.00361309
0.00362606
0.00361049
0.00361311
0.00360524
0.00358963
0.00360521
0.00358964
0.00360524
0.00358963
0.00360521
0.00358964
0.00360521
0.00360266
0.00358967
0.00359224
0.00360519
0.00360267
0.0035897
0.00360521
0.00360266
0.00358967
0.00359224
0.0036052
0.00360267
0.0035897
0.00362608
0.00362608
0.00361064
0.00361046
0.00361046
0.00362603
0.00361045
0.00358963
0.00360522
0.00360514
0.00358963
0.00358963
0.00360524
0.00360524
0.00358963
0.00360522
0.00361054
0.00362602
0.00362356
0.00361309
0.00362606
0.00361049
0.00361311
0.00361048
0.00362599
0.00362606
0.00361044
0.00361054
0.00362356
0.00362602
0.00361309
0.00362606
0.00361311
0.00361049
0.00360524
0.00358963
0.00360521
0.00358964
0.00360521
0.00360266
0.00358967
0.00359224
0.0036052
0.00360267
0.0035897
0.00360524
0.00358963
0.00360521
0.00358964
0.00360521
0.00360266
0.00359224
0.00358967
0.00360267
0.0036052
0.0035897
0.00361048
0.00362599
0.00362606
0.00361044
0.00361054
0.00362356
0.00362602
0.00361309
0.00362606
0.00361311
0.00361049
0.00361048
0.00362599
0.00362606
0.00361044
0.00360521
0.00360266
0.00358967
0.00359224
0.00360519
0.00360267
0.0035897
0.00360524
0.00358963
0.00360521
0.00358964
0.00360521
0.00360266
0.00359224
0.00358967
0.00360267
0.0036052
0.0035897
0.00360524
0.00358963
0.00360521
0.00358964
0.00362608
0.00362608
0.00361064
0.00361046
0.00361046
0.00362603
0.00361045
0.00358963
0.00360522
0.00360514
0.00358963
0.00358963
0.00360524
0.00360524
0.00358963
0.00360522
0.00361054
0.00362356
0.00362602
0.00361309
0.00362606
0.00361311
0.00361049
0.00361048