/*--------------------------------*- C++ -*----------------------------------*\
| =========                 |                                                 |
| \\      /  F ield         | OpenFOAM: The Open Source CFD Toolbox           |
|  \\    /   O peration     | Version:  2206                                  |
|   \\  /    A nd           | Website:  www.openfoam.com                      |
|    \\/     M anipulation  |                                                 |
\*---------------------------------------------------------------------------*/
FoamFile
{
    version     2.0;
    format      ascii;
    arch        "LSB;label=32;scalar=64";
    class       volVectorField;
    location    "30";
    object      U;
}
// * * * * * * * * * * * * * * * * * * * * * * * * * * * * * * * * * * * * * //

dimensions      [0 1 -1 0 0 0 0];

internalField   nonuniform List<vector> 
28688
(
(0.00010801 0.000107943 0.100299)
(-0.000190302 0.00011936 0.100385)
(0.000119432 -0.000190294 0.100385)
(-0.000239428 -0.000239448 0.100397)
(9.46572e-05 9.46092e-05 0.10086)
(-0.000159343 9.6981e-05 0.100942)
(9.69896e-05 -0.000159341 0.100942)
(-0.000200769 -0.00020082 0.100968)
(9.5936e-05 9.59229e-05 0.10137)
(-0.000156247 9.36264e-05 0.101449)
(9.36157e-05 -0.000156257 0.101449)
(-0.000200828 -0.00020088 0.101472)
(9.32459e-05 9.32374e-05 0.101891)
(-0.000150956 8.897e-05 0.101959)
(8.89821e-05 -0.000150961 0.101959)
(-0.000196381 -0.000196424 0.101965)
(8.98396e-05 8.98342e-05 0.102399)
(-0.00014189 8.23951e-05 0.102447)
(8.24105e-05 -0.000141897 0.102447)
(-0.000189267 -0.000189313 0.102431)
(7.78703e-05 7.7888e-05 0.102873)
(-0.000127921 7.25211e-05 0.102908)
(7.25342e-05 -0.00012792 0.102908)
(-0.000173338 -0.000173377 0.102865)
(4.38615e-05 4.38488e-05 0.103189)
(-6.17518e-05 3.65706e-05 0.103186)
(3.65764e-05 -6.17561e-05 0.103186)
(-0.000102268 -0.000102266 0.10313)
(1.50973e-05 1.50801e-05 0.103307)
(-2.07072e-05 1.49025e-05 0.10325)
(1.49135e-05 -2.07055e-05 0.10325)
(-6.28846e-05 -6.29157e-05 0.103157)
(1.6223e-06 1.62162e-06 0.103331)
(-3.27398e-06 2.79662e-06 0.103256)
(2.79745e-06 -3.27956e-06 0.103256)
(-4.73304e-05 -4.73488e-05 0.103149)
(-5.99852e-07 -5.92709e-07 0.103333)
(-6.55e-07 9.12985e-07 0.103255)
(9.10861e-07 -6.58833e-07 0.103255)
(-4.53383e-05 -4.53529e-05 0.103146)
(-7.66096e-07 -7.5668e-07 0.103334)
(-5.19318e-07 7.98877e-07 0.103255)
(7.95672e-07 -5.23091e-07 0.103255)
(-4.52436e-05 -4.52604e-05 0.103146)
(-7.77876e-07 -7.71795e-07 0.103334)
(-5.20753e-07 7.94908e-07 0.103255)
(7.92646e-07 -5.22127e-07 0.103255)
(-4.52392e-05 -4.5256e-05 0.103146)
(0.000135063 0.000135053 0.100282)
(0.000124197 0.00015279 0.100229)
(-0.000124189 0.000152771 0.100229)
(-0.000135059 0.000135021 0.100282)
(0.000152818 0.000124148 0.100229)
(0.00015279 -0.000124166 0.100229)
(9.08172e-05 9.07655e-05 0.100151)
(-9.08073e-05 9.0763e-05 0.100151)
(9.07917e-05 -9.08114e-05 0.100151)
(-9.07893e-05 -9.08096e-05 0.100151)
(-0.000152814 0.000124145 0.100229)
(-0.0001528 -0.000124162 0.100229)
(0.000135052 -0.000135072 0.100282)
(0.000124149 -0.000152819 0.100229)
(-0.000124146 -0.000152802 0.100229)
(-0.000135061 -0.000135045 0.100282)
(0.000239471 0.00023945 0.100397)
(0.0001116 0.000111473 0.100892)
(0.000119482 0.000190194 0.100385)
(-0.000119434 0.000190235 0.100385)
(8.90978e-05 0.000147192 0.100823)
(-8.90596e-05 0.000147189 0.100823)
(-0.000239481 0.000239399 0.100397)
(-0.000111561 0.000111441 0.100892)
(0.000190338 0.00011938 0.100385)
(0.000190276 -0.00011944 0.100385)
(0.000147167 8.90678e-05 0.100823)
(0.0001472 -8.90884e-05 0.100823)
(-0.000190257 -0.000119443 0.100385)
(-0.000147137 8.90694e-05 0.100823)
(-0.000147157 -8.90826e-05 0.100823)
(0.000239402 -0.000239493 0.100397)
(0.000111552 -0.000111565 0.100892)
(-0.000119412 -0.000190324 0.100385)
(8.90735e-05 -0.000147131 0.100823)
(-8.90529e-05 -0.000147156 0.100823)
(-0.000111549 -0.000111568 0.100892)
(0.000200856 0.000200689 0.100968)
(0.000105929 0.000105851 0.101395)
(9.69961e-05 0.000159398 0.100942)
(-9.69689e-05 0.000159395 0.100942)
(9.36154e-05 0.000155944 0.10132)
(-9.36156e-05 0.000155944 0.10132)
(-0.000200819 0.000200656 0.100968)
(-0.000105921 0.000105841 0.101395)
(0.000159375 9.69747e-05 0.100942)
(0.000159393 -9.69865e-05 0.100942)
(0.000155898 9.36191e-05 0.10132)
(0.000155939 -9.36216e-05 0.10132)
(-0.000159372 -9.69814e-05 0.100942)
(-0.000155896 9.36271e-05 0.10132)
(-0.000155917 -9.36121e-05 0.10132)
(0.000200766 -0.000200828 0.100968)
(0.000105896 -0.000105907 0.101395)
(-9.69713e-05 -0.000159367 0.100942)
(9.36163e-05 -0.000155897 0.10132)
(-9.36223e-05 -0.000155917 0.10132)
(-0.000105909 -0.000105916 0.101395)
(0.000200896 0.000200767 0.101472)
(9.75954e-05 9.75349e-05 0.101893)
(9.36091e-05 0.000156307 0.101449)
(-9.36157e-05 0.000156303 0.101449)
(8.92582e-05 0.000150524 0.101832)
(-8.9245e-05 0.000150512 0.101832)
(-0.000200884 0.000200752 0.101472)
(-9.75763e-05 9.75296e-05 0.101893)
(0.000156256 9.36227e-05 0.101449)
(0.000156297 -9.36187e-05 0.101449)
(0.000150461 8.92607e-05 0.101833)
(0.000150497 -8.92444e-05 0.101833)
(-0.000156279 -9.3611e-05 0.101449)
(-0.000150458 8.92521e-05 0.101832)
(-0.000150498 -8.92484e-05 0.101833)
(0.000200809 -0.000200885 0.101472)
(9.75497e-05 -9.75843e-05 0.101893)
(-9.36239e-05 -0.000156279 0.101449)
(8.92628e-05 -0.000150463 0.101833)
(-8.92509e-05 -0.00015047 0.101833)
(-9.76091e-05 -9.76097e-05 0.101893)
(0.00019641 0.000196312 0.101965)
(8.99681e-05 8.9933e-05 0.102365)
(8.89788e-05 0.000151019 0.101959)
(-8.89681e-05 0.000151009 0.101959)
(8.64696e-05 0.000147353 0.102325)
(-8.64569e-05 0.000147341 0.102325)
(-0.000196401 0.000196291 0.101965)
(-8.99623e-05 8.99291e-05 0.102365)
(0.000150963 8.89814e-05 0.101959)
(0.000150993 -8.89658e-05 0.101959)
(0.000147292 8.64747e-05 0.102325)
(0.000147325 -8.64487e-05 0.102325)
(-0.000150995 -8.89687e-05 0.101959)
(-0.000147291 8.64681e-05 0.102325)
(-0.000147332 -8.6459e-05 0.102325)
(0.000196323 -0.000196416 0.101965)
(8.99381e-05 -8.9963e-05 0.102365)
(-8.89692e-05 -0.000150966 0.101959)
(8.64832e-05 -0.000147293 0.102325)
(-8.64611e-05 -0.000147293 0.102325)
(-8.99967e-05 -8.99993e-05 0.102365)
(0.000189286 0.000189204 0.102431)
(7.90319e-05 7.89915e-05 0.102811)
(8.24044e-05 0.000141951 0.102447)
(-8.23967e-05 0.000141943 0.102447)
(8.02752e-05 0.000138426 0.102795)
(-8.02602e-05 0.000138426 0.102795)
(-0.000189282 0.000189191 0.102431)
(-7.90294e-05 7.89932e-05 0.102811)
(0.000141896 8.24059e-05 0.102447)
(0.000141924 -8.23875e-05 0.102447)
(0.000138369 8.029e-05 0.102795)
(0.000138398 -8.02412e-05 0.102795)
(-0.000141936 -8.23923e-05 0.102447)
(-0.000138369 8.02917e-05 0.102795)
(-0.000138406 -8.02686e-05 0.102795)
(0.000189203 -0.000189298 0.102431)
(7.89742e-05 -7.90334e-05 0.102811)
(-8.23892e-05 -0.000141893 0.102447)
(8.03083e-05 -0.000138368 0.102795)
(-8.02839e-05 -0.000138364 0.102795)
(-7.90536e-05 -7.90605e-05 0.102811)
(0.000173341 0.000173272 0.102865)
(1.57059e-05 1.57389e-05 0.103118)
(7.25114e-05 0.000127996 0.102908)
(-7.25004e-05 0.000127981 0.102908)
(4.26989e-05 7.55244e-05 0.103146)
(-4.27098e-05 7.55353e-05 0.103146)
(-0.000173337 0.000173253 0.102865)
(-1.56941e-05 1.57025e-05 0.103118)
(0.000127911 7.25306e-05 0.102908)
(0.000127949 -7.24851e-05 0.102908)
(7.55126e-05 4.26722e-05 0.103146)
(7.55412e-05 -4.27062e-05 0.103146)
(-0.000127966 -7.24892e-05 0.102908)
(-7.55074e-05 4.26545e-05 0.103146)
(-7.5541e-05 -4.26948e-05 0.103146)
(0.00017325 -0.000173357 0.102865)
(1.57316e-05 -1.56964e-05 0.103118)
(-7.25057e-05 -0.00012791 0.102908)
(4.2665e-05 -7.55147e-05 0.103146)
(-4.26518e-05 -7.5494e-05 0.103146)
(-1.5711e-05 -1.56576e-05 0.103118)
(0.000102295 0.000102279 0.103129)
(-2.63032e-05 -2.6308e-05 0.103163)
(3.66238e-05 6.1758e-05 0.103186)
(-3.66257e-05 6.1765e-05 0.103186)
(2.03378e-05 2.92782e-05 0.103243)
(-2.03302e-05 2.92919e-05 0.103243)
(-0.000102289 0.000102226 0.103129)
(2.63177e-05 -2.63139e-05 0.103163)
(6.17612e-05 3.65758e-05 0.103186)
(6.17794e-05 -3.66259e-05 0.103186)
(2.92975e-05 2.02873e-05 0.103244)
(2.93015e-05 -2.03268e-05 0.103243)
(-6.17698e-05 -3.66163e-05 0.103186)
(-2.92839e-05 2.02823e-05 0.103243)
(-2.92891e-05 -2.03224e-05 0.103243)
(0.000102273 -0.000102314 0.10313)
(-2.62869e-05 2.63312e-05 0.103163)
(-3.65745e-05 -6.17407e-05 0.103186)
(2.02945e-05 -2.92799e-05 0.103243)
(-2.02929e-05 -2.92867e-05 0.103244)
(2.63096e-05 2.63121e-05 0.103163)
(6.29136e-05 6.28669e-05 0.103157)
(-4.45121e-05 -4.45002e-05 0.103155)
(1.49499e-05 2.07062e-05 0.10325)
(-1.49462e-05 2.07247e-05 0.10325)
(4.4106e-06 5.4619e-06 0.103256)
(-4.409e-06 5.47918e-06 0.103256)
(-6.29045e-05 6.28563e-05 0.103157)
(4.4523e-05 -4.44934e-05 0.103155)
(2.07224e-05 1.49067e-05 0.10325)
(2.07291e-05 -1.49431e-05 0.10325)
(5.45444e-06 4.37986e-06 0.103256)
(5.46916e-06 -4.40617e-06 0.103256)
(-2.07186e-05 -1.49426e-05 0.10325)
(-5.44576e-06 4.37454e-06 0.103256)
(-5.47484e-06 -4.40547e-06 0.103256)
(6.28809e-05 -6.29188e-05 0.103157)
(-4.44964e-05 4.45226e-05 0.103155)
(-1.49128e-05 -2.07109e-05 0.10325)
(4.3761e-06 -5.44952e-06 0.103256)
(-4.37917e-06 -5.44971e-06 0.103256)
(4.44933e-05 4.45096e-05 0.103155)
(4.7338e-05 4.73099e-05 0.103149)
(-4.72681e-05 -4.72421e-05 0.103152)
(2.82913e-06 3.2915e-06 0.103256)
(-2.82844e-06 3.30945e-06 0.103256)
(1.07769e-06 8.79376e-07 0.103255)
(-1.07684e-06 8.87033e-07 0.103255)
(-4.73301e-05 4.7308e-05 0.103149)
(4.72717e-05 -4.72406e-05 0.103152)
(3.28392e-06 2.80298e-06 0.103256)
(3.29668e-06 -2.82664e-06 0.103256)
(8.58766e-07 1.0546e-06 0.103256)
(8.80884e-07 -1.07364e-06 0.103255)
(-3.30231e-06 -2.82551e-06 0.103256)
(-8.55341e-07 1.05132e-06 0.103256)
(-8.82009e-07 -1.07109e-06 0.103255)
(4.73131e-05 -4.73536e-05 0.103149)
(-4.72394e-05 4.72757e-05 0.103152)
(-2.8002e-06 -3.27623e-06 0.103256)
(1.04739e-06 -8.56367e-07 0.103256)
(-1.04649e-06 -8.53942e-07 0.103256)
(4.72426e-05 4.72627e-05 0.103152)
(4.53415e-05 4.53263e-05 0.103146)
(-4.74018e-05 -4.73633e-05 0.103152)
(9.41094e-07 6.8258e-07 0.103255)
(-9.3657e-07 6.92127e-07 0.103255)
(8.39816e-07 5.63945e-07 0.103255)
(-8.27921e-07 5.57528e-07 0.103255)
(-4.53401e-05 4.53181e-05 0.103146)
(4.7414e-05 -4.73776e-05 0.103152)
(6.62026e-07 9.19925e-07 0.103255)
(6.81513e-07 -9.35848e-07 0.103255)
(5.28542e-07 8.16601e-07 0.103255)
(5.52218e-07 -8.23945e-07 0.103255)
(-6.81379e-07 -9.33144e-07 0.103255)
(-5.23235e-07 8.05192e-07 0.103255)
(-5.50677e-07 -8.22209e-07 0.103255)
(4.53271e-05 -4.53584e-05 0.103146)
(-4.73773e-05 4.74147e-05 0.103152)
(-9.08874e-07 -6.5346e-07 0.103255)
(8.00169e-07 -5.24823e-07 0.103255)
(-7.97609e-07 -5.22378e-07 0.103255)
(4.73822e-05 4.74009e-05 0.103152)
(4.52524e-05 4.52489e-05 0.103146)
(-4.74029e-05 -4.73805e-05 0.103152)
(8.33969e-07 5.57538e-07 0.103255)
(-8.21359e-07 5.5876e-07 0.103255)
(8.20593e-07 5.42365e-07 0.103255)
(-8.2201e-07 5.48095e-07 0.103255)
(-4.52455e-05 4.52249e-05 0.103146)
(4.74106e-05 -4.73773e-05 0.103152)
(5.27354e-07 8.11176e-07 0.103255)
(5.47928e-07 -8.19083e-07 0.103255)
(5.21334e-07 7.97355e-07 0.103255)
(5.45654e-07 -8.17106e-07 0.103255)
(-5.46291e-07 -8.1768e-07 0.103255)
(-5.17957e-07 7.95849e-07 0.103255)
(-5.44868e-07 -8.14816e-07 0.103255)
(4.52336e-05 -4.52648e-05 0.103146)
(-4.73764e-05 4.74127e-05 0.103152)
(-7.93199e-07 -5.18434e-07 0.103255)
(7.9168e-07 -5.18535e-07 0.103255)
(-7.89446e-07 -5.16811e-07 0.103255)
(4.73809e-05 4.73993e-05 0.103152)
(4.52444e-05 4.52239e-05 0.103146)
(-4.73937e-05 -4.73705e-05 0.103152)
(8.20702e-07 5.44735e-07 0.103255)
(-8.21869e-07 5.53904e-07 0.103255)
(8.18121e-07 5.39255e-07 0.103255)
(-4.52417e-05 4.52172e-05 0.103146)
(5.25259e-07 7.99236e-07 0.103255)
(5.4596e-07 -8.18452e-07 0.103255)
(5.20147e-07 7.96337e-07 0.103255)
(5.44781e-07 -8.18372e-07 0.103255)
(-5.45388e-07 -8.15425e-07 0.103255)
(-5.46294e-07 -8.14128e-07 0.103255)
(4.52286e-05 -4.52612e-05 0.103146)
(-4.73664e-05 4.74009e-05 0.103152)
(-7.90297e-07 -5.17764e-07 0.103255)
(7.91228e-07 -5.18763e-07 0.103255)
(-7.8897e-07 -5.19047e-07 0.103255)
(4.73695e-05 4.73886e-05 0.103152)
(-3.38974e-07 -3.41619e-07 0.0999988)
(1.68219e-05 1.68165e-05 0.100003)
(-4.52696e-07 1.39144e-05 0.1)
(1.39221e-05 -4.55248e-07 0.1)
(-4.66901e-05 5.72587e-06 0.100008)
(-1.52939e-05 1.55887e-05 0.0999999)
(-0.000127982 6.04337e-05 0.100057)
(-1.31027e-05 -8.64473e-07 0.0999958)
(5.71981e-06 -4.66748e-05 0.100008)
(1.5592e-05 -1.52943e-05 0.0999999)
(-8.62573e-07 -1.31011e-05 0.0999958)
(6.04458e-05 -0.000127912 0.100057)
(-1.87528e-05 -1.87562e-05 0.100003)
(-0.000135056 -8.10333e-05 0.100054)
(-8.10414e-05 -0.000135035 0.100054)
(-3.48879e-05 0.000136949 0.100719)
(0.000176966 0.000387445 0.0994238)
(2.44962e-06 0.000304703 0.10052)
(-8.38697e-05 0.000244814 0.0991347)
(-0.000303222 0.000837091 0.0977843)
(-0.000129777 0.00030534 0.0957069)
(0.000136683 -3.50353e-05 0.10072)
(0.00038806 0.000175927 0.0994246)
(0.000305452 2.3118e-06 0.10052)
(0.000244938 -8.37585e-05 0.0991351)
(-0.000107994 0.000107945 0.100299)
(0.000107979 -0.000107991 0.100299)
(-0.000107971 -0.000107999 0.100299)
(9.17723e-05 9.17022e-05 0.100739)
(-9.17276e-05 9.17198e-05 0.100739)
(9.17556e-05 -9.17707e-05 0.100739)
(-9.17347e-05 -9.17808e-05 0.100739)
(-0.000281153 6.39328e-06 0.100753)
(-0.000397896 0.000229108 0.100531)
(-0.00017543 3.73951e-05 0.100332)
(-0.000153189 9.45023e-05 0.100558)
(-0.000358625 1.56488e-05 0.10048)
(-0.000150219 0.000199026 0.100734)
(-0.000152716 3.32801e-05 0.100497)
(0.000836053 -0.000301345 0.0977827)
(0.000305338 -0.000129375 0.0957078)
(6.34442e-06 -0.000281067 0.100752)
(3.74311e-05 -0.000175414 0.100332)
(0.000229204 -0.000397875 0.100531)
(9.44607e-05 -0.000153178 0.100558)
(1.56463e-05 -0.000358502 0.10048)
(3.33295e-05 -0.000152692 0.100497)
(0.000199068 -0.000150217 0.100733)
(-0.000371819 -0.000141235 0.100372)
(-0.000141435 -0.000372065 0.100372)
(-0.0001122 -0.000112277 0.100655)
(9.84693e-06 -7.96196e-05 0.100578)
(-7.988e-05 9.8645e-06 0.100578)
(-1.67914e-05 0.000200343 0.10086)
(-5.52569e-05 0.000286328 0.0983292)
(-2.02352e-05 0.000207683 0.100783)
(-4.42267e-05 0.000273077 0.0979315)
(-0.000149831 0.000312242 0.092636)
(-0.000137723 0.000274228 0.0909847)
(0.000200266 -1.69525e-05 0.10086)
(0.000286572 -5.51505e-05 0.0983297)
(0.000207725 -2.03726e-05 0.100784)
(0.000273203 -4.41556e-05 0.0979316)
(-9.46108e-05 9.46268e-05 0.10086)
(9.46667e-05 -9.46611e-05 0.10086)
(-9.46442e-05 -9.46596e-05 0.10086)
(9.60631e-05 9.60476e-05 0.101238)
(-9.60356e-05 9.60627e-05 0.101238)
(9.60756e-05 -9.60724e-05 0.101238)
(-9.60688e-05 -9.60665e-05 0.101238)
(-0.000264901 1.32362e-05 0.101151)
(-0.000217058 0.000214046 0.100826)
(-0.000164928 3.11635e-05 0.100897)
(-0.000160764 9.78619e-05 0.101064)
(-0.000297285 1.41308e-05 0.100979)
(-0.000185947 0.000198497 0.100937)
(-0.000169244 3.25054e-05 0.101019)
(0.000312233 -0.000149563 0.0926345)
(0.00027433 -0.000137568 0.0909862)
(1.33069e-05 -0.000264876 0.101151)
(3.12401e-05 -0.000164929 0.100897)
(0.000214116 -0.000217126 0.100826)
(9.78604e-05 -0.000160764 0.101064)
(1.42222e-05 -0.000297248 0.100979)
(3.25744e-05 -0.000169243 0.101019)
(0.000198456 -0.000185889 0.100936)
(-8.22236e-05 -9.62896e-05 0.100452)
(-9.63908e-05 -8.22413e-05 0.100452)
(-0.000113072 -0.000113069 0.101144)
(-8.85611e-05 -8.35271e-05 0.100415)
(-8.36646e-05 -8.86153e-05 0.100415)
(-9.22804e-06 0.00021298 0.100945)
(-2.16642e-05 0.000279664 0.0971472)
(-1.17799e-05 0.000228887 0.100912)
(-1.20592e-05 0.000259805 0.0966977)
(-0.000115993 0.000224214 0.0884007)
(-9.80861e-05 0.000189094 0.087048)
(0.000212912 -9.34845e-06 0.100945)
(0.000279789 -2.16317e-05 0.0971473)
(0.000228938 -1.18933e-05 0.100913)
(0.000259908 -1.19468e-05 0.0966979)
(-9.59092e-05 9.5939e-05 0.10137)
(9.59468e-05 -9.59453e-05 0.10137)
(-9.59391e-05 -9.59408e-05 0.10137)
(9.32944e-05 9.32849e-05 0.101764)
(-9.32731e-05 9.33072e-05 0.101763)
(9.33202e-05 -9.32999e-05 0.101764)
(-9.3302e-05 -9.33022e-05 0.101764)
(-0.000253588 1.2194e-05 0.101576)
(-0.00021934 0.000189788 0.101038)
(-0.000167782 3.283e-05 0.101406)
(-0.000156621 9.38319e-05 0.101577)
(-0.000288662 1.21063e-05 0.101416)
(-0.000186583 0.000170591 0.101111)
(-0.000168546 3.28997e-05 0.101537)
(0.000224118 -0.000115772 0.0883982)
(0.000189145 -9.79918e-05 0.0870492)
(1.22427e-05 -0.000253575 0.101576)
(3.28707e-05 -0.000167794 0.101407)
(0.00018982 -0.000219382 0.101039)
(9.38273e-05 -0.000156627 0.101577)
(1.21602e-05 -0.000288662 0.101416)
(3.29365e-05 -0.000168544 0.101537)
(0.000170531 -0.000186529 0.10111)
(-0.000114715 -8.99951e-05 0.1002)
(-9.00899e-05 -0.000114784 0.100199)
(-0.00010317 -0.000103174 0.101646)
(-0.000114301 -7.352e-05 0.100068)
(-7.36104e-05 -0.000114379 0.100068)
(-7.49212e-06 0.000214444 0.100941)
(5.59644e-06 0.000256856 0.0958719)
(-7.43383e-06 0.000232344 0.100939)
(9.93537e-06 0.00023084 0.0954056)
(-7.83115e-05 0.000150342 0.0849944)
(-5.82074e-05 0.000118279 0.0839512)
(0.000214382 -7.57074e-06 0.10094)
(0.000256942 5.67702e-06 0.0958719)
(0.000232407 -7.52431e-06 0.10094)
(0.000230927 9.97893e-06 0.0954058)
(-9.32271e-05 9.32611e-05 0.101891)
(9.32733e-05 -9.32505e-05 0.101891)
(-9.32532e-05 -9.32539e-05 0.101891)
(9.23499e-05 9.23473e-05 0.102276)
(-9.2336e-05 9.23734e-05 0.102276)
(9.23876e-05 -9.23523e-05 0.102276)
(-9.23629e-05 -9.23619e-05 0.102276)
(-0.000242672 1.10872e-05 0.101975)
(-0.000214956 0.000161969 0.101156)
(-0.000163573 3.18482e-05 0.101924)
(-0.000153179 9.05101e-05 0.102081)
(-0.000278833 1.10946e-05 0.101826)
(-0.000180044 0.000141972 0.101198)
(-0.0001658 3.17896e-05 0.10205)
(0.000150162 -7.81145e-05 0.0849918)
(0.000118378 -5.81891e-05 0.0839521)
(1.11249e-05 -0.000242665 0.101975)
(3.18687e-05 -0.000163571 0.101924)
(0.000162005 -0.000215016 0.101156)
(9.05216e-05 -0.000153184 0.102082)
(1.11331e-05 -0.000278843 0.101826)
(3.18054e-05 -0.000165788 0.10205)
(0.000141932 -0.000179989 0.101198)
(-0.000131539 -7.75176e-05 0.0997384)
(-7.75809e-05 -0.000131608 0.0997381)
(-9.38296e-05 -9.3833e-05 0.102133)
(-0.000125232 -6.21247e-05 0.099552)
(-6.21831e-05 -0.0001253 0.0995513)
(-6.49064e-06 0.000206044 0.100838)
(1.89714e-05 0.000226744 0.0945778)
(-7.45065e-06 0.000227485 0.100866)
(1.66383e-05 0.000195004 0.0941256)
(-3.85059e-05 9.24977e-05 0.0823573)
(-3.6201e-05 7.21443e-05 0.0815953)
(0.000206012 -6.55225e-06 0.100837)
(0.000226765 1.89838e-05 0.0945772)
(0.000227535 -7.51252e-06 0.100867)
(0.000195078 1.67269e-05 0.094126)
(-8.98279e-05 8.98634e-05 0.102399)
(8.98754e-05 -8.98405e-05 0.102399)
(-8.9851e-05 -8.9849e-05 0.102399)
(8.26269e-05 8.26441e-05 0.102757)
(-8.26227e-05 8.26775e-05 0.102757)
(8.2682e-05 -8.26235e-05 0.102757)
(-8.26509e-05 -8.26379e-05 0.102757)
(-0.000224145 1.00974e-05 0.102331)
(-0.000204597 0.000135099 0.101179)
(-0.000154768 3.0248e-05 0.102424)
(-0.000140261 8.14482e-05 0.102565)
(-0.000267031 9.82478e-06 0.102193)
(-0.000167429 0.000117855 0.101194)
(-0.000150409 2.92206e-05 0.102545)
(9.23507e-05 -3.83564e-05 0.0823547)
(7.21128e-05 -3.61015e-05 0.0815964)
(1.01198e-05 -0.000224148 0.10233)
(3.02545e-05 -0.000154759 0.102424)
(0.000135134 -0.000204646 0.10118)
(8.14553e-05 -0.000140266 0.102565)
(9.86162e-06 -0.000267034 0.102193)
(2.92242e-05 -0.000150391 0.102545)
(0.000117815 -0.000167393 0.101193)
(-0.000135632 -6.5151e-05 0.0991379)
(-6.51997e-05 -0.000135687 0.0991374)
(-8.19269e-05 -8.19321e-05 0.102595)
(-0.000125542 -5.40816e-05 0.0989124)
(-5.41269e-05 -0.000125601 0.0989114)
(-1.64265e-05 0.000173912 0.100644)
(2.05596e-05 0.000196231 0.0933508)
(-1.06523e-05 0.000209483 0.100715)
(8.62683e-06 0.000136497 0.0929252)
(-5.12699e-06 5.74519e-05 0.0803385)
(3.10512e-05 1.96213e-05 0.0798933)
(0.00017383 -1.6493e-05 0.100644)
(0.000196207 2.05857e-05 0.0933498)
(0.000209573 -1.07152e-05 0.100716)
(0.000136514 8.71697e-06 0.0929258)
(-7.78669e-05 7.79181e-05 0.102873)
(7.79219e-05 -7.78695e-05 0.102873)
(-7.78961e-05 -7.78822e-05 0.102873)
(5.21235e-05 5.21197e-05 0.103135)
(-5.21273e-05 5.21149e-05 0.103135)
(5.21299e-05 -5.21321e-05 0.103135)
(-5.21331e-05 -5.21434e-05 0.103135)
(-0.000180029 3.92914e-06 0.102629)
(-0.000185584 0.000106531 0.10113)
(-0.000141791 2.61247e-05 0.102894)
(-0.000110896 6.14541e-05 0.103008)
(-0.000244357 6.89276e-06 0.102521)
(-0.000124553 7.70937e-05 0.101114)
(-0.000126267 2.29331e-05 0.102998)
(5.72462e-05 -4.93635e-06 0.0803362)
(1.96364e-05 3.11178e-05 0.0798946)
(3.95672e-06 -0.000180017 0.102629)
(2.61175e-05 -0.000141779 0.102895)
(0.000106568 -0.000185649 0.101131)
(6.1449e-05 -0.000110898 0.103008)
(6.92159e-06 -0.000244378 0.102521)
(2.2939e-05 -0.000126249 0.102998)
(7.70291e-05 -0.000124517 0.101113)
(-0.000132873 -4.4706e-05 0.09846)
(-4.4738e-05 -0.000132907 0.0984592)
(-5.23181e-05 -5.22996e-05 0.103006)
(-9.76278e-05 -2.08213e-05 0.098223)
(-2.08577e-05 -9.76661e-05 0.0982218)
(-7.94204e-07 1.05442e-05 0.100434)
(-2.15852e-05 6.54179e-05 0.0923952)
(-6.02244e-06 8.04743e-05 0.100478)
(-2.39113e-05 2.24086e-05 0.0923071)
(7.6501e-06 -3.77099e-06 0.0796837)
(-2.27801e-06 -1.00959e-05 0.0797468)
(1.04781e-05 -8.62491e-07 0.100434)
(6.53922e-05 -2.15918e-05 0.0923943)
(8.05806e-05 -6.06037e-06 0.100479)
(2.2432e-05 -2.39253e-05 0.0923077)
(-4.38569e-05 4.38422e-05 0.103189)
(4.38615e-05 -4.38653e-05 0.10319)
(-4.38622e-05 -4.38746e-05 0.10319)
(2.14484e-05 2.14296e-05 0.10329)
(-2.14369e-05 2.14265e-05 0.10329)
(2.14432e-05 -2.14475e-05 0.10329)
(-2.14461e-05 -2.14537e-05 0.10329)
(-2.52674e-05 3.27207e-06 0.102685)
(-7.62562e-05 3.10742e-05 0.100973)
(-6.83882e-05 1.43551e-05 0.103198)
(-4.99989e-05 3.12935e-05 0.103213)
(-0.000102119 2.84862e-06 0.102688)
(-1.70061e-05 4.43429e-06 0.10093)
(-5.36842e-05 1.23679e-05 0.103234)
(-3.90378e-06 7.74386e-06 0.0796809)
(-9.94115e-06 -2.33901e-06 0.0797481)
(3.31431e-06 -2.52555e-05 0.102685)
(1.43679e-05 -6.83824e-05 0.103198)
(3.11314e-05 -7.62669e-05 0.100973)
(3.13044e-05 -4.99937e-05 0.103213)
(2.86938e-06 -0.000102107 0.102688)
(1.23909e-05 -5.36771e-05 0.103234)
(4.40977e-06 -1.69065e-05 0.100929)
(-3.52312e-05 -1.52209e-06 0.0978906)
(-1.49212e-06 -3.52387e-05 0.0978897)
(9.20427e-06 9.23464e-06 0.103156)
(-7.43269e-06 1.41561e-05 0.0978034)
(1.41587e-05 -7.44538e-06 0.0978022)
(-4.90331e-07 -1.03565e-05 0.100374)
(-7.14814e-06 1.2387e-05 0.092255)
(-6.25436e-07 9.05075e-06 0.100369)
(-4.04502e-06 -5.56448e-06 0.0922794)
(-6.02691e-06 4.62551e-07 0.079773)
(3.44529e-07 -3.82536e-06 0.0798039)
(-1.04313e-05 -4.9896e-07 0.100374)
(1.23592e-05 -7.24066e-06 0.0922541)
(9.11585e-06 -6.18151e-07 0.100369)
(-5.50594e-06 -4.03368e-06 0.0922801)
(-1.50891e-05 1.50801e-05 0.103307)
(1.50934e-05 -1.50969e-05 0.103307)
(-1.50971e-05 -1.51035e-05 0.103307)
(3.37237e-06 3.36835e-06 0.103329)
(-3.37323e-06 3.36806e-06 0.103329)
(3.37384e-06 -3.37452e-06 0.103329)
(-3.37925e-06 -3.38146e-06 0.103329)
(1.09919e-05 7.61703e-07 0.102649)
(-2.41625e-05 6.45217e-06 0.100822)
(-2.1358e-05 5.66223e-06 0.103292)
(-1.38814e-05 1.03241e-05 0.103254)
(-2.71785e-05 1.50099e-06 0.102651)
(1.11154e-05 -3.9092e-06 0.100827)
(-1.43549e-05 3.72504e-06 0.1033)
(3.70763e-07 -5.94723e-06 0.07977)
(-3.69967e-06 2.88431e-07 0.0798048)
(7.80074e-07 1.10032e-05 0.102649)
(5.67721e-06 -2.13598e-05 0.103292)
(6.51279e-06 -2.42007e-05 0.100823)
(1.03315e-05 -1.38805e-05 0.103254)
(1.51513e-06 -2.71919e-05 0.102651)
(3.73478e-06 -1.43527e-05 0.1033)
(-3.93337e-06 1.11849e-05 0.100826)
(-7.43097e-06 -2.31188e-06 0.0976731)
(-2.27642e-06 -7.43646e-06 0.0976722)
(3.84013e-05 3.84141e-05 0.103159)
(3.129e-06 6.58963e-06 0.0976718)
(6.58553e-06 3.11863e-06 0.0976706)
(-1.09259e-08 -9.80071e-06 0.100366)
(2.62839e-07 7.07412e-06 0.0922581)
(-3.07472e-07 9.45871e-06 0.10035)
(-1.24633e-06 -6.75134e-06 0.0922811)
(-2.2557e-06 2.91459e-06 0.0797835)
(1.94203e-06 -2.94037e-06 0.0798064)
(-9.87574e-06 -1.77505e-08 0.100365)
(7.03985e-06 2.19695e-07 0.0922573)
(9.53106e-06 -2.82184e-07 0.100351)
(-6.71309e-06 -1.21508e-06 0.0922818)
(-1.62409e-06 1.62087e-06 0.103331)
(1.62536e-06 -1.62446e-06 0.103331)
(-1.63021e-06 -1.63083e-06 0.103332)
(-4.16266e-07 -4.0927e-07 0.103333)
(4.14591e-07 -4.11271e-07 0.103333)
(-4.09283e-07 4.15109e-07 0.103333)
(4.07883e-07 4.10669e-07 0.103333)
(1.56174e-05 1.00911e-07 0.10264)
(-1.63859e-05 4.51812e-06 0.100788)
(-3.52159e-06 6.07336e-07 0.103308)
(-1.97932e-06 1.85411e-06 0.103256)
(-1.72888e-05 -6.73801e-08 0.102634)
(1.45755e-05 -4.85097e-06 0.100813)
(-2.18594e-06 2.2596e-07 0.103309)
(2.79843e-06 -2.17831e-06 0.0797803)
(-2.82362e-06 1.8848e-06 0.0798072)
(1.11291e-07 1.56292e-05 0.10264)
(6.08879e-07 -3.52146e-06 0.103308)
(4.56779e-06 -1.64493e-05 0.100789)
(1.85156e-06 -1.9815e-06 0.103256)
(-6.91518e-08 -1.73013e-05 0.102634)
(2.25667e-07 -2.18168e-06 0.103309)
(-4.89768e-06 1.46274e-05 0.100812)
(-4.97808e-06 -5.74935e-06 0.097633)
(-5.73312e-06 -4.97304e-06 0.0976322)
(4.66712e-05 4.669e-05 0.103153)
(4.24079e-06 5.54773e-06 0.0976562)
(5.54349e-06 4.23318e-06 0.097655)
(7.82882e-08 -9.81504e-06 0.100365)
(6.61214e-07 6.99142e-06 0.0922581)
(-1.08121e-07 9.47073e-06 0.100348)
(-1.13454e-06 -6.76629e-06 0.0922811)
(-2.03183e-06 2.98058e-06 0.0797834)
(2.00676e-06 -2.93318e-06 0.0798064)
(-9.88912e-06 6.48178e-08 0.100364)
(6.9495e-06 6.25345e-07 0.0922572)
(9.54631e-06 -9.08351e-08 0.100349)
(-6.71748e-06 -1.10246e-06 0.092282)
(5.99907e-07 -5.97309e-07 0.103333)
(-5.93685e-07 6.00125e-07 0.103333)
(5.92972e-07 5.96008e-07 0.103333)
(-7.57352e-07 -7.46611e-07 0.103334)
(7.59942e-07 -7.52688e-07 0.103334)
(-7.53116e-07 7.60652e-07 0.103334)
(7.53648e-07 7.56754e-07 0.103334)
(1.60079e-05 1.05742e-07 0.102639)
(-1.56247e-05 4.37168e-06 0.100786)
(-8.33273e-07 -1.56625e-07 0.103309)
(-5.70636e-07 8.48462e-07 0.103255)
(-1.62147e-05 -1.26224e-07 0.102632)
(1.48769e-05 -4.87316e-06 0.100812)
(-7.31859e-07 -1.81114e-07 0.103309)
(2.86078e-06 -1.95632e-06 0.0797803)
(-2.81346e-06 1.94631e-06 0.0798073)
(1.14094e-07 1.60193e-05 0.102639)
(-1.59082e-07 -8.3164e-07 0.103309)
(4.41292e-06 -1.56818e-05 0.100787)
(8.43649e-07 -5.71796e-07 0.103255)
(-1.30459e-07 -1.62311e-05 0.102632)
(-1.84137e-07 -7.26325e-07 0.103309)
(-4.9203e-06 1.49317e-05 0.100811)
(-4.70107e-06 -5.73295e-06 0.0976308)
(-5.72029e-06 -4.69507e-06 0.09763)
(4.73603e-05 4.73791e-05 0.103152)
(4.32187e-06 5.57838e-06 0.0976557)
(5.57247e-06 4.31479e-06 0.0976545)
(7.91617e-08 -9.80245e-06 0.100365)
(7.65751e-07 7.04041e-06 0.0922584)
(-8.16148e-08 9.48209e-06 0.100348)
(-1.15716e-06 -6.76892e-06 0.0922811)
(-2.02044e-06 2.97969e-06 0.0797834)
(2.00881e-06 -2.93176e-06 0.0798065)
(-9.87836e-06 6.71977e-08 0.100364)
(6.96188e-06 6.45695e-07 0.0922573)
(9.55561e-06 -7.52102e-08 0.100349)
(-6.70829e-06 -1.09871e-06 0.092282)
(7.69977e-07 -7.63771e-07 0.103334)
(-7.63013e-07 7.70238e-07 0.103334)
(7.63227e-07 7.66255e-07 0.103334)
(-7.77032e-07 -7.70287e-07 0.103334)
(7.75465e-07 -7.69667e-07 0.103334)
(-7.69439e-07 7.76246e-07 0.103334)
(7.69458e-07 7.71761e-07 0.103334)
(1.60138e-05 1.0804e-07 0.102639)
(-1.5587e-05 4.39204e-06 0.100786)
(-6.65083e-07 -1.97409e-07 0.103309)
(-5.16634e-07 7.97275e-07 0.103255)
(-1.61706e-05 -1.19582e-07 0.102631)
(1.48801e-05 -4.85802e-06 0.100812)
(-6.59556e-07 -1.98383e-07 0.103309)
(2.86074e-06 -1.95091e-06 0.0797803)
(-2.81177e-06 1.94658e-06 0.0798073)
(1.16271e-07 1.6025e-05 0.102639)
(-2.00562e-07 -6.63292e-07 0.103309)
(4.43313e-06 -1.5645e-05 0.100787)
(7.92554e-07 -5.18016e-07 0.103255)
(-1.24054e-07 -1.6186e-05 0.102631)
(-2.01728e-07 -6.54267e-07 0.103309)
(-4.90459e-06 1.49348e-05 0.100811)
(-4.69462e-06 -5.73274e-06 0.0976308)
(-5.72006e-06 -4.68849e-06 0.09763)
(4.73824e-05 4.74009e-05 0.103152)
(4.32175e-06 5.57527e-06 0.0976557)
(5.56962e-06 4.31459e-06 0.0976545)
(7.43891e-08 -9.80347e-06 0.100365)
(6.81218e-07 7.02499e-06 0.0922584)
(-9.79636e-08 9.48326e-06 0.100348)
(-1.14395e-06 -6.76618e-06 0.0922811)
(-2.01913e-06 2.9777e-06 0.0797834)
(2.00637e-06 -2.92864e-06 0.0798065)
(-9.87621e-06 6.42626e-08 0.100364)
(6.96753e-06 6.38371e-07 0.0922573)
(9.56055e-06 -7.94661e-08 0.100349)
(-6.7068e-06 -1.10139e-06 0.092282)
(7.76583e-07 -7.70075e-07 0.103334)
(-7.70045e-07 7.76138e-07 0.103334)
(7.69808e-07 7.7147e-07 0.103334)
(-7.77005e-07 -7.71984e-07 0.103334)
(7.81308e-07 -7.61531e-07 0.103334)
(-7.69065e-07 7.76194e-07 0.103334)
(7.7054e-07 7.68822e-07 0.103334)
(1.6009e-05 1.07779e-07 0.102639)
(-1.55886e-05 4.39318e-06 0.100786)
(-6.64392e-07 -1.9872e-07 0.103309)
(-5.19764e-07 7.95177e-07 0.103255)
(-1.61715e-05 -1.19219e-07 0.102631)
(1.48789e-05 -4.85888e-06 0.100812)
(-6.62344e-07 -1.98948e-07 0.103309)
(2.86137e-06 -1.95187e-06 0.0797803)
(-2.81103e-06 1.94321e-06 0.0798074)
(1.16833e-07 1.60202e-05 0.102639)
(-2.01387e-07 -6.61192e-07 0.103309)
(4.43536e-06 -1.56471e-05 0.100787)
(7.91353e-07 -5.18298e-07 0.103255)
(-1.23894e-07 -1.6187e-05 0.102631)
(-2.01748e-07 -6.54094e-07 0.103309)
(-4.90321e-06 1.49314e-05 0.100811)
(-4.69761e-06 -5.7345e-06 0.0976308)
(-5.72137e-06 -4.69188e-06 0.09763)
(4.7377e-05 4.73957e-05 0.103152)
(4.32018e-06 5.57478e-06 0.0976557)
(5.56984e-06 4.31232e-06 0.0976545)
(1.87578e-05 1.87471e-05 0.100003)
(8.10197e-05 0.000135033 0.100054)
(0.000135093 8.10307e-05 0.100054)
(0.000413773 0.00104221 0.0978732)
(0.00011516 0.00020435 0.100125)
(0.0010413 0.000411149 0.0978731)
(0.000204499 0.000115188 0.100125)
(0.000102361 0.000102324 0.100042)
(0.000117502 0.000514032 0.10027)
(0.000512897 0.000117125 0.10027)
(0.00011731 0.000180261 0.100097)
(0.0001804 0.000117331 0.100097)
(5.72373e-06 4.66595e-05 0.100008)
(1.5596e-05 1.5292e-05 0.0999999)
(6.04344e-05 0.000127919 0.100057)
(-8.61343e-07 1.30955e-05 0.0999958)
(-5.7346e-06 4.66681e-05 0.100008)
(-1.55936e-05 1.52868e-05 0.0999999)
(-6.04072e-05 0.000127906 0.100057)
(8.61864e-07 1.30961e-05 0.0999958)
(4.58655e-06 0.000154577 0.100054)
(0.000326686 0.000315665 0.0993481)
(9.83678e-05 0.000167672 0.100056)
(7.32502e-06 0.000328005 0.100415)
(-4.62628e-06 0.000154592 0.100054)
(-0.000326152 0.000316375 0.0993479)