/*--------------------------------*- C++ -*----------------------------------*\
| =========                 |                                                 |
| \\      /  F ield         | OpenFOAM: The Open Source CFD Toolbox           |
|  \\    /   O peration     | Version:  2206                                  |
|   \\  /    A nd           | Website:  www.openfoam.com                      |
|    \\/     M anipulation  |                                                 |
\*---------------------------------------------------------------------------*/
FoamFile
{
    version     2.0;
    format      ascii;
    arch        "LSB;label=32;scalar=64";
    class       surfaceScalarField;
    location    "1.5";
    object      phi;
}
// * * * * * * * * * * * * * * * * * * * * * * * * * * * * * * * * * * * * * //

dimensions      [0 3 -1 0 0 0 0];

oriented        oriented;

internalField   nonuniform List<scalar> 
83348
(
1.57623e-10
1.63041e-10
-0.00105644
-1.89036e-10
-1.89313e-10
0.00105644
-0.00105713
-1.15217e-06
-1.53346e-10
4.86389e-10
0.00105713
-2.11561e-07
1.15283e-06
2.11144e-07
8.18262e-07
-1.85418e-07
-8.18405e-07
1.84852e-07
-0.0010568
-1.14689e-06
-1.67234e-10
4.76568e-10
0.0010568
-2.08852e-07
1.14756e-06
2.08462e-07
8.18096e-07
-1.87965e-07
-8.18267e-07
1.87469e-07
-0.000259989
1.17971e-06
1.147e-06
-2.00907e-07
-2.06048e-07
0.000258069
1.99278e-10
2.08129e-10
-0.00105644
-2.11023e-10
-2.08168e-10
0.00105644
-0.00105713
-1.15215e-06
-2.03061e-10
4.71756e-10
0.00105713
-2.11541e-07
1.15284e-06
2.11168e-07
8.18282e-07
-1.85377e-07
-8.18389e-07
1.84901e-07
-0.0010568
-1.14689e-06
-2.05563e-10
4.64049e-10
0.0010568
-2.0884e-07
1.14757e-06
2.08473e-07
8.18107e-07
-1.87939e-07
-8.18258e-07
1.87487e-07
-0.000259989
1.17971e-06
1.147e-06
-2.00896e-07
-2.06034e-07
0.000258069
2.10294e-10
2.14978e-10
-0.00105644
-2.13952e-10
-2.14492e-10
0.00105644
-0.00105713
-1.15215e-06
-2.24908e-10
4.55527e-10
0.00105713
-2.11535e-07
1.15285e-06
2.11176e-07
8.18289e-07
-1.85373e-07
-8.18386e-07
1.84908e-07
-0.0010568
-1.14688e-06
-2.19063e-10
4.5683e-10
0.0010568
-2.08838e-07
1.14758e-06
2.08479e-07
8.18112e-07
-1.87937e-07
-8.18256e-07
1.87492e-07
-0.000259989
1.1797e-06
1.14699e-06
-2.00895e-07
-2.06031e-07
0.000258069
2.18578e-10
2.25502e-10
-0.00105644
-2.18291e-10
-2.17142e-10
0.00105644
-0.00105713
-1.15215e-06
-2.23579e-10
4.54322e-10
0.00105713
-2.11534e-07
1.15285e-06
2.11174e-07
8.18287e-07
-1.8537e-07
-8.18384e-07
1.84906e-07
-0.0010568
-1.14688e-06
-2.19944e-10
4.51879e-10
0.0010568
-2.08836e-07
1.14758e-06
2.08478e-07
8.18112e-07
-1.87934e-07
-8.18254e-07
1.87492e-07
-0.000259989
1.1797e-06
1.14699e-06
-2.00893e-07
-2.0603e-07
0.000258069
2.12926e-10
2.20424e-10
-0.00105644
-2.16469e-10
-2.14753e-10
0.00105644
-0.00105713
-1.15215e-06
-2.25257e-10
4.54486e-10
0.00105713
-2.11534e-07
1.15285e-06
2.11176e-07
8.18288e-07
-1.85372e-07
-8.18386e-07
1.84908e-07
-0.0010568
-1.14688e-06
-2.23131e-10
4.53311e-10
0.0010568
-2.08836e-07
1.14758e-06
2.08479e-07
8.18114e-07
-1.87935e-07
-8.18255e-07
1.87494e-07
-0.000259989
1.1797e-06
1.14699e-06
-2.00895e-07
-2.06032e-07
0.000258069
2.1531e-10
2.20852e-10
-0.00105644
-2.15825e-10
-2.15811e-10
0.00105644
-0.00105713
-1.15214e-06
-2.24371e-10
4.57435e-10
0.00105713
-2.11531e-07
1.15284e-06
2.1117e-07
8.18283e-07
-1.85367e-07
-8.1838e-07
1.84902e-07
-0.0010568
-1.14688e-06
-2.22644e-10
4.56593e-10
0.0010568
-2.08832e-07
1.14757e-06
2.08473e-07
8.18107e-07
-1.8793e-07
-8.18248e-07
1.87487e-07
-0.000259989
1.1797e-06
1.14699e-06
-2.00889e-07
-2.06027e-07
0.000258069
2.05657e-10
2.10942e-10
-0.00105644
-2.11365e-10
-2.11604e-10
0.00105644
-0.00105713
-1.15215e-06
-2.11831e-10
4.6136e-10
0.00105713
-2.11537e-07
1.15284e-06
2.11169e-07
8.18281e-07
-1.85374e-07
-8.18387e-07
1.84901e-07
-0.0010568
-1.14688e-06
-2.08085e-10
4.61812e-10
0.0010568
-2.08839e-07
1.14757e-06
2.08472e-07
8.18106e-07
-1.87938e-07
-8.18256e-07
1.87486e-07
-0.000259989
1.17971e-06
1.14699e-06
-2.00896e-07
-2.06033e-07
0.000258069
2.05171e-10
2.11195e-10
-0.00105644
-2.11605e-10
-2.11007e-10
0.00105644
-0.00105713
-1.15215e-06
-2.18076e-10
4.60477e-10
0.00105713
-2.11533e-07
1.15284e-06
2.11169e-07
8.18281e-07
-1.8537e-07
-8.18383e-07
1.849e-07
-0.0010568
-1.14688e-06
-2.14325e-10
4.60307e-10
0.0010568
-2.08835e-07
1.14757e-06
2.08473e-07
8.18106e-07
-1.87934e-07
-8.18252e-07
1.87486e-07
-0.000259989
1.1797e-06
1.14699e-06
-2.00892e-07
-2.06029e-07
0.000258069
1.97115e-10
2.05221e-10
-0.00105644
-2.11045e-10
-2.0945e-10
0.00105644
-0.00105713
-1.15215e-06
-2.04301e-10
4.68158e-10
0.00105713
-2.11539e-07
1.15284e-06
2.11168e-07
8.18279e-07
-1.85376e-07
-8.18389e-07
1.84898e-07
-0.0010568
-1.14689e-06
-1.94712e-10
4.64535e-10
0.0010568
-2.0884e-07
1.14757e-06
2.08472e-07
8.18105e-07
-1.87941e-07
-8.18259e-07
1.87486e-07
-0.000259989
1.17971e-06
1.14699e-06
-2.00896e-07
-2.06035e-07
0.000258069
2.21239e-10
2.02375e-10
-0.00105644
-2.27468e-10
-2.33384e-10
0.00105644
-0.00105713
-1.15216e-06
-2.24982e-10
4.60601e-10
0.00105713
-2.11541e-07
1.15285e-06
2.11172e-07
8.18289e-07
-1.85369e-07
-8.18384e-07
1.84909e-07
-0.0010568
-1.14688e-06
-2.01578e-10
4.30445e-10
0.0010568
-2.08835e-07
1.14758e-06
2.0848e-07
8.18115e-07
-1.87943e-07
-8.18261e-07
1.87496e-07
-0.000259989
1.17972e-06
1.14697e-06
-2.00885e-07
-2.06035e-07
0.000258069
8.58805e-11
-9.72011e-09
-0.00105643
-2.12917e-10
-2.09434e-10
0.00105644
-0.00105713
-1.15215e-06
-2.32749e-10
4.62519e-10
0.00105713
-2.115e-07
1.15285e-06
2.11148e-07
8.18287e-07
-1.85371e-07
-8.18384e-07
1.84904e-07
-0.0010568
-1.14689e-06
-2.05556e-10
4.5369e-10
0.0010568
-2.08839e-07
1.14757e-06
2.08478e-07
8.18116e-07
-1.87945e-07
-8.18263e-07
1.87497e-07
-0.000259989
1.17971e-06
1.14699e-06
-2.00893e-07
-2.06034e-07
0.000258069
1.7992e-10
2.39212e-10
-0.00105644
-2.38682e-10
-1.99741e-10
0.00105644
-0.00105713
-1.1522e-06
-1.98254e-10
5.48831e-10
0.00105713
-2.08901e-07
1.15281e-06
2.08418e-07
8.18299e-07
-1.85346e-07
-8.18382e-07
1.84893e-07
-0.0010568
-1.14688e-06
-2.31218e-10
4.52373e-10
0.0010568
-2.08838e-07
1.14758e-06
2.08481e-07
8.18124e-07
-1.87942e-07
-8.18261e-07
1.87502e-07
-0.000259989
1.1797e-06
1.14699e-06
-2.00896e-07
-2.06029e-07
0.000258069
1.9348e-10
2.29571e-10
-0.00105644
-2.21571e-10
-2.0647e-10
0.00105644
-0.00105713
-1.15216e-06
-2.22545e-10
4.71485e-10
0.00105713
-2.08844e-07
1.15285e-06
2.08473e-07
8.18287e-07
-1.85344e-07
-8.18381e-07
1.84883e-07
-0.0010568
-1.14688e-06
-2.31466e-10
4.54148e-10
0.0010568
-2.08834e-07
1.14757e-06
2.08478e-07
8.1812e-07
-1.87938e-07
-8.18256e-07
1.87499e-07
-0.000259989
1.1797e-06
1.14699e-06
-2.00892e-07
-2.06027e-07
0.000258069
2.01532e-10
2.19494e-10
-0.00105644
-2.16069e-10
-2.12928e-10
0.00105644
-0.00105713
-1.15216e-06
-2.19416e-10
4.60547e-10
0.00105713
-2.08842e-07
1.15285e-06
2.08475e-07
8.18286e-07
-1.85347e-07
-8.18385e-07
1.84882e-07
-0.0010568
-1.14688e-06
-2.20474e-10
4.57515e-10
0.0010568
-2.08837e-07
1.14757e-06
2.08476e-07
8.18119e-07
-1.87941e-07
-8.18259e-07
1.87498e-07
-0.000259989
1.1797e-06
1.14699e-06
-2.00894e-07
-2.06031e-07
0.000258069
1.99292e-10
2.13693e-10
-0.00105644
-2.12698e-10
-2.11914e-10
0.00105644
-0.00105713
-1.15215e-06
-2.18218e-10
4.59282e-10
0.00105713
-2.0884e-07
1.15285e-06
2.08473e-07
8.18281e-07
-1.85345e-07
-8.18382e-07
1.84878e-07
-0.0010568
-1.14688e-06
-2.17515e-10
4.51509e-10
0.0010568
-2.08834e-07
1.14757e-06
2.08475e-07
8.18114e-07
-1.87939e-07
-8.18257e-07
1.87494e-07
-0.000259989
1.1797e-06
1.14699e-06
-2.00893e-07
-2.0603e-07
0.000258069
1.85585e-10
2.00911e-10
-0.00105644
-2.06747e-10
-2.06696e-10
0.00105644
-0.00105713
-1.15216e-06
-2.10263e-10
4.67505e-10
0.00105713
-2.08845e-07
1.15285e-06
2.08472e-07
8.18281e-07
-1.85351e-07
-8.18388e-07
1.84877e-07
-0.0010568
-1.14689e-06
-2.09525e-10
4.62659e-10
0.0010568
-2.08839e-07
1.14757e-06
2.08473e-07
8.18114e-07
-1.87945e-07
-8.18263e-07
1.87493e-07
-0.000259989
1.17971e-06
1.14699e-06
-2.00896e-07
-2.06033e-07
0.000258069
1.94895e-10
2.05709e-10
-0.00105644
-2.097e-10
-2.11512e-10
0.00105644
-0.00105713
-1.15216e-06
-2.18157e-10
4.62639e-10
0.00105713
-2.08843e-07
1.15285e-06
2.08474e-07
8.18283e-07
-1.85348e-07
-8.18385e-07
1.8488e-07
-0.0010568
-1.14688e-06
-2.16831e-10
4.60054e-10
0.0010568
-2.08838e-07
1.14757e-06
2.08475e-07
8.18111e-07
-1.87942e-07
-8.18258e-07
1.87494e-07
-0.000259989
1.1797e-06
1.14699e-06
-2.00893e-07
-2.06031e-07
0.000258069
2.58605e-10
2.67977e-10
-0.00105644
-2.32223e-10
-2.34574e-10
-0.00105713
-1.15215e-06
-2.73891e-10
4.38625e-10
-2.08824e-07
1.15286e-06
2.08496e-07
8.18314e-07
-1.85325e-07
-8.18361e-07
1.84919e-07
-0.0010568
-1.14687e-06
-2.74685e-10
4.37471e-10
-2.08819e-07
1.14758e-06
2.08497e-07
8.18143e-07
-1.87919e-07
-8.18233e-07
1.87536e-07
-0.000259989
1.17969e-06
1.14698e-06
-2.00879e-07
-2.06016e-07
0.000258069
-1.18817e-06
-1.15027e-06
0.000260005
-0.000258075
1.99131e-07
2.09165e-07
0.00105636
-1.47547e-10
-0.00105636
5.08108e-10
-1.18751e-06
2.16361e-07
-2.16788e-07
-8.20952e-07
1.82134e-07
-1.82699e-07
8.20799e-07
1.1909e-06
0.0010568
-1.83061e-10
-0.0010568
4.50162e-10
-1.19021e-06
2.16434e-07
-2.16793e-07
-8.26435e-07
1.87508e-07
-1.88004e-07
8.263e-07
-1.15283e-06
0.000260028
-0.000258092
2.01789e-07
2.06546e-07
0.0010574
-1.64192e-10
-0.0010574
4.76655e-10
-1.1496e-06
2.11174e-07
-2.11582e-07
-8.2105e-07
1.87503e-07
-1.88062e-07
8.20922e-07
1.18564e-06
0.00105648
-1.50362e-10
-0.00105648
4.88296e-10
-1.18497e-06
2.16402e-07
-2.16821e-07
-8.21001e-07
1.87462e-07
-1.88022e-07
8.20853e-07
-2.32777e-10
4.54354e-10
-1.15214e-06
2.11157e-07
-2.11508e-07
-8.18377e-07
1.84888e-07
8.18261e-07
-1.85312e-07
1.18037e-06
0.00105628
-1.77005e-10
-0.00105628
5.12444e-10
-1.17972e-06
2.11006e-07
-2.11428e-07
-8.18363e-07
1.84753e-07
-1.85278e-07
8.18217e-07
-1.14756e-06
0.000259984
-0.000258057
1.99275e-07
2.06494e-07
-1.70376e-10
-0.0010568
4.75405e-10
-1.14689e-06
2.08453e-07
-2.08858e-07
-8.18233e-07
1.87421e-07
8.18144e-07
-1.87994e-07
1.14767e-06
0.00105731
-1.46563e-10
-0.00105731
4.67598e-10
-1.147e-06
2.085e-07
-2.08902e-07
-8.18504e-07
1.87487e-07
-1.88051e-07
8.18364e-07
-0.000258069
2.0156e-07
2.06696e-07
1.18751e-06
1.1496e-06
-1.98474e-07
-2.08509e-07
0.000258075
-1.18819e-06
-1.15028e-06
0.000260005
-0.000258075
1.99149e-07
2.09185e-07
4.97057e-10
0.00105636
-2.16782e-07
1.18818e-06
2.16376e-07
8.20802e-07
-1.82697e-07
-8.20927e-07
1.82168e-07
-1.19023e-06
-1.62511e-10
5.04527e-10
0.0010568
-2.16845e-07
1.1935e-06
2.19086e-07
8.26292e-07
-1.88046e-07
-8.26429e-07
1.87499e-07
0.00105636
-1.89118e-10
-0.00105636
4.74317e-10
-1.1875e-06
2.16388e-07
-2.16769e-07
-8.20938e-07
1.82182e-07
-1.82662e-07
8.20818e-07
1.19091e-06
0.0010568
-1.86517e-10
-0.0010568
4.73782e-10
-1.19283e-06
2.16444e-07
-2.1949e-07
-8.26429e-07
1.87532e-07
-1.88022e-07
8.26309e-07
-2.01138e-07
-2.05877e-07
0.000258092
-1.15285e-06
0.000260028
-0.000258092
2.01802e-07
2.06548e-07
4.79124e-10
0.0010574
-2.11577e-07
1.15027e-06
2.11185e-07
8.20929e-07
-1.88053e-07
-8.21051e-07
1.8753e-07
-1.18497e-06
-1.54285e-10
4.91273e-10
0.00105648
-2.16815e-07
1.18564e-06
2.16413e-07
8.20861e-07
-1.88007e-07
-8.20993e-07
1.8749e-07
0.0010574
-2.18233e-10
-0.0010574
4.57553e-10
-1.1496e-06
2.11198e-07
-2.11565e-07
-8.21034e-07
1.87549e-07
-1.88025e-07
8.20941e-07
1.18565e-06
0.00105648
-1.93738e-10
-0.00105648
4.68801e-10
-1.18496e-06
2.16425e-07
-2.16804e-07
-8.20983e-07
1.87506e-07
-1.87985e-07
8.20872e-07
-1.52098e-10
4.92291e-10
0.00105628
-2.11421e-07
1.18038e-06
2.11022e-07
8.18231e-07
-1.85323e-07
1.84778e-07
-8.18372e-07
-2.05119e-10
-0.00105713
4.65666e-10
-1.15215e-06
2.11169e-07
-2.11542e-07
-8.18387e-07
1.84902e-07
8.18282e-07
-1.8538e-07
1.18039e-06
0.00105628
-1.90777e-10
-0.00105628
4.72704e-10
-1.17971e-06
2.11033e-07
-2.11409e-07
-8.18358e-07
1.84805e-07
-1.85285e-07
8.18244e-07
-1.98615e-07
-2.05838e-07
0.000258057
-1.14757e-06
0.000259984
-0.000258057
1.99292e-07
2.06512e-07
-1.63575e-10
4.78454e-10
0.00105731
-2.089e-07
1.14767e-06
2.08508e-07
8.18372e-07
-1.88038e-07
1.87517e-07
-8.18496e-07
-2.16421e-10
-0.0010568
4.54201e-10
-1.14688e-06
2.08474e-07
-2.0884e-07
-8.18215e-07
1.87467e-07
8.18162e-07
-1.87956e-07
1.14768e-06
0.00105731
-2.09656e-10
-0.00105731
4.58605e-10
-1.14699e-06
2.08519e-07
-2.08888e-07
-8.18483e-07
1.87537e-07
-1.88012e-07
8.18385e-07
-0.000258069
2.01578e-07
2.06716e-07
1.1875e-06
1.1496e-06
-1.98463e-07
-2.08496e-07
0.000258075
-1.18819e-06
-1.15029e-06
0.000260005
-0.000258075
1.99153e-07
2.09189e-07
4.7645e-10
0.00105636
-2.16767e-07
1.18819e-06
2.16389e-07
8.20814e-07
-1.8267e-07
-8.20918e-07
1.82187e-07
-1.19023e-06
-2.02829e-10
4.88022e-10
0.0010568
-2.16829e-07
1.19351e-06
2.1911e-07
8.2631e-07
-1.88015e-07
-8.26424e-07
1.87535e-07
0.00105636
-2.02012e-10
-0.00105636
4.71626e-10
-1.1875e-06
2.16392e-07
-2.16768e-07
-8.20936e-07
1.82188e-07
-1.82659e-07
8.20823e-07
1.19352e-06
0.0010568
-2.04915e-10
-0.0010568
4.73326e-10
-1.19283e-06
2.19118e-07
-2.19492e-07
-8.26424e-07
1.87541e-07
-1.88017e-07
8.26317e-07
-2.01112e-07
-2.05861e-07
0.000258092
-1.15285e-06
0.00026003
-0.000258092
2.01839e-07
2.06558e-07
4.64118e-10
0.0010574
-2.11564e-07
1.15028e-06
2.11196e-07
8.20942e-07
-1.88026e-07
-8.2104e-07
1.87549e-07
-1.18496e-06
-1.94978e-10
4.77354e-10
0.00105648
-2.16801e-07
1.18565e-06
2.16425e-07
8.2087e-07
-1.87982e-07
-8.20985e-07
1.87506e-07
0.0010574
-2.25231e-10
-0.0010574
4.52234e-10
-1.1496e-06
2.11202e-07
-2.11564e-07
-8.21033e-07
1.87554e-07
-1.88024e-07
8.20945e-07
1.18565e-06
0.00105648
-2.00881e-10
-0.00105648
4.66297e-10
-1.18497e-06
2.16428e-07
-2.16804e-07
-8.20983e-07
1.87511e-07
-1.87984e-07
8.20877e-07
-1.90672e-10
4.74874e-10
0.00105628
-2.11408e-07
1.18039e-06
2.11035e-07
8.18243e-07
-1.85282e-07
1.84806e-07
-8.18359e-07
-2.2418e-10
-0.00105713
4.58129e-10
-1.15215e-06
2.11174e-07
-2.1154e-07
-8.18385e-07
1.84908e-07
8.18288e-07
-1.85376e-07
1.18039e-06
0.00105628
-2.07964e-10
-0.00105628
4.67562e-10
-1.17971e-06
2.11039e-07
-2.11407e-07
-8.18355e-07
1.84811e-07
-1.85282e-07
8.18251e-07
-1.98604e-07
-2.05825e-07
0.000258057
-1.14758e-06
0.000259984
-0.000258057
1.99295e-07
2.06515e-07
-2.07765e-10
4.67558e-10
0.00105731
-2.08887e-07
1.14768e-06
2.08521e-07
8.18385e-07
-1.88009e-07
1.87537e-07
-8.18485e-07
-2.23894e-10
-0.0010568
4.5218e-10
-1.14688e-06
2.08478e-07
-2.0884e-07
-8.18215e-07
1.87471e-07
8.18166e-07
-1.87955e-07
1.14768e-06
0.00105731
-2.18732e-10
-0.00105731
4.50157e-10
-1.14699e-06
2.08524e-07
-2.08887e-07
-8.18482e-07
1.87543e-07
-1.8801e-07
8.18391e-07
-0.000258069
2.01581e-07
2.06721e-07
1.1875e-06
1.1496e-06
-1.98463e-07
-2.08496e-07
0.000258075
-1.18819e-06
-1.15029e-06
0.000260005
-0.000258075
1.99153e-07
2.09189e-07
4.72938e-10
0.00105636
-2.16766e-07
1.18819e-06
2.16394e-07
8.20819e-07
-1.82669e-07
-8.20918e-07
1.82192e-07
-1.19283e-06
-2.10643e-10
4.70906e-10
0.0010568
-2.1949e-07
1.19352e-06
2.19118e-07
8.26317e-07
-1.88012e-07
-8.26423e-07
1.87543e-07
0.00105636
-2.11678e-10
-0.00105636
4.64615e-10
-1.1875e-06
2.16394e-07
-2.16763e-07
-8.20931e-07
1.82189e-07
-1.82655e-07
8.20824e-07
1.19352e-06
0.0010568
-2.13166e-10
-0.0010568
4.68217e-10
-1.19283e-06
2.19119e-07
-2.19487e-07
-8.2642e-07
1.8754e-07
-1.88013e-07
8.26317e-07
-2.01143e-07
-2.05864e-07
0.000258092
-1.15285e-06
0.00026003
-0.000258092
2.01838e-07
2.06558e-07
4.58109e-10
0.0010574
-2.11563e-07
1.15028e-06
2.11201e-07
8.20947e-07
-1.88025e-07
-8.2104e-07
1.87554e-07
-1.18496e-06
-2.04835e-10
4.70879e-10
0.00105648
-2.16801e-07
1.18565e-06
2.16429e-07
8.20876e-07
-1.8798e-07
-8.20983e-07
1.87513e-07
0.0010574
-2.35478e-10
-0.0010574
4.45178e-10
-1.14959e-06
2.11204e-07
-2.1156e-07
-8.21028e-07
1.87556e-07
-1.88019e-07
8.20947e-07
1.18565e-06
0.00105648
-2.11091e-10
-0.00105648
4.60567e-10
-1.18496e-06
2.1643e-07
-2.168e-07
-8.20979e-07
1.87512e-07
-1.8798e-07
8.20878e-07
-2.15336e-10
4.62329e-10
0.00105628
-2.11403e-07
1.18039e-06
2.11042e-07
8.1825e-07
-1.85277e-07
1.84813e-07
-8.18354e-07
-2.28064e-10
-0.00105713
4.54807e-10
-1.15215e-06
2.11173e-07
-2.11537e-07
-8.1838e-07
1.84908e-07
8.18288e-07
-1.85372e-07
1.18039e-06
0.00105628
-2.09347e-10
-0.00105628
4.67392e-10
-1.1797e-06
2.11037e-07
-2.11404e-07
-8.18352e-07
1.8481e-07
-1.8528e-07
8.18249e-07
-1.98603e-07
-2.05826e-07
0.000258057
-1.14758e-06
0.000259984
-0.000258057
1.99294e-07
2.06516e-07
-2.24212e-10
4.5211e-10
0.00105731
-2.08884e-07
1.14768e-06
2.08526e-07
8.18391e-07
-1.88004e-07
1.87544e-07
-8.18481e-07
-2.28616e-10
-0.0010568
4.48113e-10
-1.14688e-06
2.08478e-07
-2.08838e-07
-8.18212e-07
1.87472e-07
8.18167e-07
-1.87952e-07
1.14768e-06
0.00105731
-2.20699e-10
-0.00105731
4.50239e-10
-1.14699e-06
2.08523e-07
-2.08885e-07
-8.1848e-07
1.87541e-07
-1.88007e-07
8.1839e-07
-0.000258069
2.01581e-07
2.0672e-07
1.1875e-06
1.14959e-06
-1.98459e-07
-2.08492e-07
0.000258075
-1.18819e-06
-1.15029e-06
0.000260005
-0.000258075
1.99153e-07
2.09188e-07
4.65816e-10
0.00105636
-2.16761e-07
1.18819e-06
2.16394e-07
8.2082e-07
-1.82664e-07
-8.20912e-07
1.82193e-07
-1.19283e-06
-2.16504e-10
4.70685e-10
0.0010568
-2.19485e-07
1.19352e-06
2.19118e-07
8.26316e-07
-1.88009e-07
-8.26419e-07
1.87541e-07
0.00105636
-2.03796e-10
-0.00105636
4.67114e-10
-1.1875e-06
2.16392e-07
-2.16766e-07
-8.20934e-07
1.82188e-07
-1.82657e-07
8.20823e-07
1.19352e-06
0.0010568
-2.05786e-10
-0.0010568
4.71518e-10
-1.19283e-06
2.19116e-07
-2.19491e-07
-8.26424e-07
1.8754e-07
-1.88016e-07
8.26316e-07
-2.01141e-07
-2.05861e-07
0.000258092
-1.15284e-06
0.00026003
-0.000258092
2.01838e-07
2.06556e-07
4.51581e-10
0.0010574
-2.11558e-07
1.15029e-06
2.11202e-07
8.20947e-07
-1.8802e-07
-8.21035e-07
1.87555e-07
-1.18496e-06
-2.14065e-10
4.67395e-10
0.00105648
-2.16797e-07
1.18565e-06
2.1643e-07
8.20877e-07
-1.87976e-07
-8.20979e-07
1.87513e-07
0.0010574
-2.29923e-10
-0.0010574
4.48693e-10
-1.14959e-06
2.11203e-07
-2.11562e-07
-8.21031e-07
1.87554e-07
-1.88022e-07
8.20946e-07
1.18565e-06
0.00105648
-2.06493e-10
-0.00105648
4.61508e-10
-1.18496e-06
2.16429e-07
-2.16802e-07
-8.20981e-07
1.87512e-07
-1.87981e-07
8.20877e-07
-2.10542e-10
4.65619e-10
0.00105628
-2.11403e-07
1.18039e-06
2.11039e-07
8.18248e-07
-1.85276e-07
1.8481e-07
-8.18353e-07
-2.23897e-10
-0.00105713
4.56876e-10
-1.15215e-06
2.11173e-07
-2.11539e-07
-8.18384e-07
1.84907e-07
8.18287e-07
-1.85376e-07
1.18039e-06
0.00105628
-2.03879e-10
-0.00105628
4.67325e-10
-1.17971e-06
2.11037e-07
-2.11408e-07
-8.18356e-07
1.8481e-07
-1.85283e-07
8.18249e-07
-1.98602e-07
-2.05823e-07
0.000258057
-1.14758e-06
0.000259984
-0.000258057
1.99295e-07
2.06515e-07
-2.23289e-10
4.54981e-10
0.00105731
-2.08882e-07
1.14768e-06
2.08525e-07
8.18389e-07
-1.88004e-07
1.87541e-07
-8.18481e-07
-2.26538e-10
-0.0010568
4.45516e-10
-1.14688e-06
2.08479e-07
-2.08837e-07
-8.18215e-07
1.87471e-07
8.18166e-07
-1.87954e-07
1.14768e-06
0.00105731
-2.18228e-10
-0.00105731
4.48584e-10
-1.14699e-06
2.08524e-07
-2.08886e-07
-8.18484e-07
1.87541e-07
-1.88011e-07
8.18389e-07
-0.000258069
2.01582e-07
2.06719e-07
1.1875e-06
1.14959e-06
-1.98461e-07
-2.08495e-07
0.000258075
-1.18819e-06
-1.15028e-06
0.000260005
-0.000258075
1.99151e-07
2.09187e-07
4.68646e-10
0.00105636
-2.16764e-07
1.18819e-06
2.16393e-07
8.2082e-07
-1.82667e-07
-8.20915e-07
1.82194e-07
-1.19283e-06
-2.12026e-10
4.7013e-10
0.0010568
-2.19488e-07
1.19352e-06
2.19118e-07
8.26317e-07
-1.88011e-07
-8.26422e-07
1.87543e-07
0.00105636
-2.13714e-10
-0.00105636
4.64309e-10
-1.18749e-06
2.16391e-07
-2.1676e-07
-8.20927e-07
1.82187e-07
-1.82651e-07
8.20822e-07
1.19352e-06
0.0010568
-2.14256e-10
-0.0010568
4.65903e-10
-1.19282e-06
2.19116e-07
-2.19484e-07
-8.26416e-07
1.87539e-07
-1.88009e-07
8.26315e-07
-2.01142e-07
-2.05864e-07
0.000258092
-1.15284e-06
0.00026003
-0.000258092
2.01836e-07
2.06556e-07
4.54671e-10
0.0010574
-2.11561e-07
1.15029e-06
2.11202e-07
8.20947e-07
-1.88023e-07
-8.21039e-07
1.87555e-07
-1.18496e-06
-2.08106e-10
4.66876e-10
0.00105648
-2.16799e-07
1.18565e-06
2.1643e-07
8.20877e-07
-1.87978e-07
-8.20982e-07
1.87514e-07
0.0010574
-2.37153e-10
-0.0010574
4.44679e-10
-1.14959e-06
2.11201e-07
-2.11556e-07
-8.21025e-07
1.87553e-07
-1.88015e-07
8.20945e-07
1.18565e-06
0.00105648
-2.12967e-10
-0.00105648
4.57482e-10
-1.18496e-06
2.16428e-07
-2.16796e-07
-8.20974e-07
1.8751e-07
-1.87975e-07
8.20876e-07
-2.11047e-10
4.61951e-10
0.00105628
-2.11404e-07
1.18039e-06
2.11041e-07
8.18251e-07
-1.85277e-07
1.84813e-07
-8.18355e-07
-2.35103e-10
-0.00105713
4.53889e-10
-1.15214e-06
2.11172e-07
-2.11532e-07
-8.18376e-07
1.84907e-07
8.18287e-07
-1.85368e-07
1.18039e-06
0.00105628
-2.20673e-10
-0.00105628
4.60323e-10
-1.1797e-06
2.11037e-07
-2.11399e-07
-8.18346e-07
1.84811e-07
-1.85273e-07
8.1825e-07
-1.98603e-07
-2.05825e-07
0.000258057
-1.14757e-06
0.000259984
-0.000258057
1.99293e-07
2.06513e-07
-2.27166e-10
4.52877e-10
0.00105731
-2.08883e-07
1.14768e-06
2.08528e-07
8.18392e-07
-1.88005e-07
1.87545e-07
-8.18482e-07
-2.36709e-10
-0.0010568
4.45291e-10
-1.14688e-06
2.08477e-07
-2.08831e-07
-8.18206e-07
1.8747e-07
8.18165e-07
-1.87946e-07
1.14768e-06
0.00105731
-2.30872e-10
-0.00105731
4.41842e-10
-1.14699e-06
2.08523e-07
-2.08878e-07
-8.18474e-07
1.87541e-07
-1.88001e-07
8.18389e-07
-0.000258069
2.01581e-07
2.06719e-07
1.18749e-06
1.14959e-06
-1.98457e-07
-2.0849e-07
0.000258075
-1.18819e-06
-1.15028e-06
0.000260005
-0.000258075
1.99148e-07
2.09184e-07
4.68858e-10
0.00105636
-2.16759e-07
1.18819e-06
2.1639e-07
8.20815e-07
-1.82662e-07
-8.2091e-07
1.82189e-07
-1.19282e-06
-2.11973e-10
4.70933e-10
0.0010568
-2.19483e-07
1.19352e-06
2.19114e-07
8.26312e-07
-1.88007e-07
-8.26417e-07
1.87537e-07
0.00105636
-1.97054e-10
-0.00105636
4.74749e-10
-1.1875e-06
2.16387e-07
-2.16766e-07
-8.20934e-07
1.82182e-07
-1.82658e-07
8.20817e-07
1.19352e-06
0.0010568
-1.97175e-10
-0.0010568
4.77979e-10
-1.19283e-06
2.19112e-07
-2.1949e-07
-8.26424e-07
1.87534e-07
-1.88016e-07
8.2631e-07
-2.01138e-07
-2.05858e-07
0.000258092
-1.15284e-06
0.00026003
-0.000258092
2.01834e-07
2.06553e-07
4.54265e-10
0.0010574
-2.11556e-07
1.15028e-06
2.11198e-07
8.20943e-07
-1.88017e-07
-8.21032e-07
1.8755e-07
-1.18496e-06
-2.07839e-10
4.68808e-10
0.00105648
-2.16794e-07
1.18565e-06
2.16425e-07
8.20871e-07
-1.87973e-07
-8.20976e-07
1.87507e-07
0.0010574
-2.19632e-10
-0.0010574
4.55002e-10
-1.14959e-06
2.11197e-07
-2.11563e-07
-8.21032e-07
1.87549e-07
-1.88022e-07
8.2094e-07
1.18565e-06
0.00105648
-1.9482e-10
-0.00105648
4.71142e-10
-1.18496e-06
2.16423e-07
-2.16803e-07
-8.20983e-07
1.87504e-07
-1.87983e-07
8.20871e-07
-2.13494e-10
4.63535e-10
0.00105628
-2.11398e-07
1.18039e-06
2.11036e-07
8.18245e-07
-1.85271e-07
1.84807e-07
-8.18348e-07
-2.15023e-10
-0.00105713
4.63804e-10
-1.15215e-06
2.11168e-07
-2.11539e-07
-8.18384e-07
1.84902e-07
8.18282e-07
-1.85376e-07
1.18038e-06
0.00105628
-1.96987e-10
-0.00105628
4.76662e-10
-1.17971e-06
2.11032e-07
-2.11406e-07
-8.18356e-07
1.84803e-07
-1.85283e-07
8.18243e-07
-1.98598e-07
-2.0582e-07
0.000258057
-1.14757e-06
0.000259984
-0.000258057
1.9929e-07
2.06511e-07
-2.26464e-10
4.53302e-10
0.00105731
-2.08878e-07
1.14768e-06
2.08522e-07
8.18386e-07
-1.87999e-07
1.87538e-07
-8.18475e-07
-2.1334e-10
-0.0010568
4.57439e-10
-1.14688e-06
2.08472e-07
-2.0884e-07
-8.18216e-07
1.87465e-07
8.1816e-07
-1.87955e-07
1.14768e-06
0.00105731
-2.05625e-10
-0.00105731
4.58544e-10
-1.14699e-06
2.08517e-07
-2.08887e-07
-8.18484e-07
1.87535e-07
-1.8801e-07
8.18383e-07
-0.000258069
2.01577e-07
2.06716e-07
1.1875e-06
1.14959e-06
-1.98461e-07
-2.08494e-07
0.000258075
-1.18819e-06
-1.15028e-06
0.000260005
-0.000258075
1.99148e-07
2.09184e-07
4.7346e-10
0.00105636
-2.16764e-07
1.18819e-06
2.16389e-07
8.20814e-07
-1.82667e-07
-8.20915e-07
1.82187e-07
-1.19283e-06
-2.02903e-10
4.77292e-10
0.0010568
-2.19489e-07
1.19352e-06
2.19113e-07
8.26311e-07
-1.88013e-07
-8.26423e-07
1.87536e-07
0.00105636
-1.99165e-10
-0.00105636
4.73592e-10
-1.1875e-06
2.16387e-07
-2.16765e-07
-8.20933e-07
1.82182e-07
-1.82656e-07
8.20818e-07
1.19352e-06
0.0010568
-2.0235e-10
-0.0010568
4.74221e-10
-1.19283e-06
2.19112e-07
-2.19489e-07
-8.26421e-07
1.87536e-07
-1.88013e-07
8.26312e-07
-2.01143e-07
-2.05863e-07
0.000258092
-1.15284e-06
0.00026003
-0.000258092
2.01835e-07
2.06553e-07
4.58511e-10
0.0010574
-2.11561e-07
1.15028e-06
2.11197e-07
8.20941e-07
-1.88022e-07
-8.21038e-07
1.87549e-07
-1.18496e-06
-1.98382e-10
4.75599e-10
0.00105648
-2.168e-07
1.18565e-06
2.16425e-07
8.2087e-07
-1.8798e-07
-8.20983e-07
1.87507e-07
0.0010574
-2.22826e-10
-0.0010574
4.54483e-10
-1.14959e-06
2.11197e-07
-2.11562e-07
-8.2103e-07
1.87549e-07
-1.88021e-07
8.2094e-07
1.18565e-06
0.00105648
-2.01742e-10
-0.00105648
4.66575e-10
-1.18496e-06
2.16424e-07
-2.16801e-07
-8.20979e-07
1.87507e-07
-1.87979e-07
8.20872e-07
-1.96879e-10
4.74353e-10
0.00105628
-2.11406e-07
1.18039e-06
2.11035e-07
8.18242e-07
-1.8528e-07
1.84805e-07
-8.18357e-07
-2.23137e-10
-0.00105713
4.59379e-10
-1.15215e-06
2.11169e-07
-2.11536e-07
-8.18381e-07
1.84903e-07
8.18283e-07
-1.85373e-07
1.18039e-06
0.00105628
-2.04706e-10
-0.00105628
4.7085e-10
-1.1797e-06
2.11033e-07
-2.11404e-07
-8.18352e-07
1.84805e-07
-1.85279e-07
8.18245e-07
-1.98604e-07
-2.05825e-07
0.000258057
-1.14757e-06
0.000259984
-0.000258057
1.99291e-07
2.06511e-07
-2.08403e-10
4.64501e-10
0.00105731
-2.08886e-07
1.14768e-06
2.0852e-07
8.18383e-07
-1.88007e-07
1.87536e-07
-8.18483e-07
-2.21939e-10
-0.0010568
4.51965e-10
-1.14688e-06
2.08474e-07
-2.08836e-07
-8.18212e-07
1.87466e-07
8.18161e-07
-1.87952e-07
1.14768e-06
0.00105731
-2.13994e-10
-0.00105731
4.53073e-10
-1.14699e-06
2.08518e-07
-2.08884e-07
-8.1848e-07
1.87536e-07
-1.88007e-07
8.18384e-07
-0.000258069
2.01577e-07
2.06716e-07
1.1875e-06
1.14959e-06
-1.9846e-07
-2.08493e-07
0.000258075
-1.18818e-06
-1.15028e-06
0.000260005
-0.000258075
1.99147e-07
2.09182e-07
4.74959e-10
0.00105636
-2.16763e-07
1.18819e-06
2.16388e-07
8.20813e-07
-1.82666e-07
-8.20914e-07
1.82186e-07
-1.19283e-06
-2.03599e-10
4.76244e-10
0.0010568
-2.19487e-07
1.19351e-06
2.19112e-07
8.2631e-07
-1.8801e-07
-8.2642e-07
1.87535e-07
0.00105636
-1.90955e-10
-0.00105636
4.76655e-10
-1.1875e-06
2.16385e-07
-2.16767e-07
-8.20935e-07
1.8218e-07
-1.82659e-07
8.20815e-07
1.19351e-06
0.0010568
-1.91155e-10
-0.0010568
4.82291e-10
-1.19283e-06
2.19109e-07
-2.19492e-07
-8.26424e-07
1.87532e-07
-1.88017e-07
8.26308e-07
-2.0114e-07
-2.05861e-07
0.000258092
-1.15284e-06
0.00026003
-0.000258092
2.01832e-07
2.06551e-07
4.60887e-10
0.0010574
-2.1156e-07
1.15028e-06
2.11196e-07
8.2094e-07
-1.88022e-07
-8.21036e-07
1.87548e-07
-1.18496e-06
-1.99951e-10
4.74527e-10
0.00105648
-2.16798e-07
1.18565e-06
2.16423e-07
8.2087e-07
-1.87977e-07
-8.2098e-07
1.87506e-07
0.0010574
-2.16496e-10
-0.0010574
4.57642e-10
-1.14959e-06
2.11195e-07
-2.11563e-07
-8.21033e-07
1.87546e-07
-1.88023e-07
8.20937e-07
1.18565e-06
0.00105648
-1.91976e-10
-0.00105648
4.72602e-10
-1.18497e-06
2.16422e-07
-2.16804e-07
-8.20983e-07
1.87504e-07
-1.87984e-07
8.20869e-07
-2.06197e-10
4.67956e-10
0.00105628
-2.11401e-07
1.18039e-06
2.11035e-07
8.18243e-07
-1.85274e-07
1.84806e-07
-8.18351e-07
-2.09537e-10
-0.00105713
4.68015e-10
-1.15215e-06
2.11166e-07
-2.11541e-07
-8.18385e-07
1.849e-07
8.18279e-07
-1.85377e-07
1.18038e-06
0.00105628
-1.91275e-10
-0.00105628
4.78336e-10
-1.17971e-06
2.1103e-07
-2.11409e-07
-8.18357e-07
1.84803e-07
-1.85285e-07
8.18242e-07
-1.986e-07
-2.05823e-07
0.000258057
-1.14757e-06
0.000259984
-0.000258057
1.9929e-07
2.06509e-07
-2.18489e-10
4.58294e-10
0.00105731
-2.08881e-07
1.14768e-06
2.08521e-07
8.18384e-07
-1.88002e-07
1.87537e-07
-8.18478e-07
-2.11184e-10
-0.0010568
4.58214e-10
-1.14688e-06
2.08471e-07
-2.0884e-07
-8.18216e-07
1.87464e-07
8.18158e-07
-1.87956e-07
1.14768e-06
0.00105731
-2.0232e-10
-0.00105731
4.60175e-10
-1.147e-06
2.08517e-07
-2.08888e-07
-8.18485e-07
1.87533e-07
-1.88013e-07
8.18381e-07
-0.000258069
2.01577e-07
2.06714e-07
1.1875e-06
1.1496e-06
-1.98463e-07
-2.08496e-07
0.000258075
-1.18819e-06
-1.15029e-06
0.000260005
-0.000258075
1.99156e-07
2.09186e-07
4.76272e-10
0.00105636
-2.16767e-07
1.18819e-06
2.16388e-07
8.20812e-07
-1.8267e-07
-8.20918e-07
1.82186e-07
-1.19283e-06
-1.92975e-10
4.84922e-10
0.0010568
-2.19491e-07
1.19351e-06
2.19111e-07
8.26308e-07
-1.88015e-07
-8.26425e-07
1.87534e-07
0.00105636
-1.96209e-10
-0.00105636
4.59459e-10
-1.1875e-06
2.16394e-07
-2.16764e-07
-8.20933e-07
1.82192e-07
-1.82656e-07
8.20825e-07
1.19352e-06
0.0010568
-1.8018e-10
-0.0010568
4.88719e-10
-1.19283e-06
2.19115e-07
-2.19493e-07
-8.26427e-07
1.87534e-07
-1.88021e-07
8.26312e-07
-2.01145e-07
-2.05864e-07
0.000258092
-1.15284e-06
0.00026003
-0.000258092
2.01833e-07
2.06557e-07
4.62484e-10
0.0010574
-2.11563e-07
1.15028e-06
2.11197e-07
8.20939e-07
-1.88026e-07
-8.21041e-07
1.87547e-07
-1.18497e-06
-1.91312e-10
4.80331e-10
0.00105648
-2.16803e-07
1.18565e-06
2.16423e-07
8.20869e-07
-1.87982e-07
-8.20985e-07
1.87506e-07
0.0010574
-2.10325e-10
-0.0010574
4.44007e-10
-1.14959e-06
2.11202e-07
-2.11563e-07
-8.21036e-07
1.87548e-07
-1.88027e-07
8.2094e-07
1.18565e-06
0.00105648
-1.86811e-10
-0.00105648
4.71619e-10
-1.18497e-06
2.16424e-07
-2.16807e-07
-8.20984e-07
1.87506e-07
-1.87985e-07
8.20873e-07
-1.90196e-10
4.7555e-10
0.00105628
-2.11408e-07
1.18039e-06
2.11034e-07
8.18242e-07
-1.85282e-07
1.84804e-07
-8.18359e-07
-2.16767e-10
-0.00105713
4.68413e-10
-1.15216e-06
2.11167e-07
-2.11545e-07
-8.18385e-07
1.84906e-07
8.18286e-07
-1.85377e-07
1.18038e-06
0.00105628
-1.69828e-10
-0.00105628
4.72483e-10
-1.17971e-06
2.1103e-07
-2.11414e-07
-8.1836e-07
1.84804e-07
-1.85288e-07
8.18245e-07
-1.98604e-07
-2.05826e-07
0.000258057
-1.14758e-06
0.000259984
-0.000258057
1.99294e-07
2.06511e-07
-2.03885e-10
4.65373e-10
0.00105731
-2.08887e-07
1.14768e-06
2.0852e-07
8.18382e-07
-1.88009e-07
1.87535e-07
-8.18485e-07
-2.06236e-10
-0.0010568
4.475e-10
-1.14688e-06
2.08478e-07
-2.08838e-07
-8.18225e-07
1.87474e-07
8.18168e-07
-1.87966e-07
1.14769e-06
0.00105731
-1.66286e-10
-0.00105731
4.52807e-10
-1.14698e-06
2.08528e-07
-2.08879e-07
-8.18478e-07
1.87541e-07
-1.88007e-07
8.18391e-07
-0.000258069
2.01584e-07
2.06715e-07
1.18749e-06
1.14959e-06