/*--------------------------------*- C++ -*----------------------------------*\
| =========                 |                                                 |
| \\      /  F ield         | OpenFOAM: The Open Source CFD Toolbox           |
|  \\    /   O peration     | Version:  2206                                  |
|   \\  /    A nd           | Website:  www.openfoam.com                      |
|    \\/     M anipulation  |                                                 |
\*---------------------------------------------------------------------------*/
FoamFile
{
    version     2.0;
    format      ascii;
    arch        "LSB;label=32;scalar=64";
    class       volVectorField;
    location    "1.5";
    object      U;
}
// * * * * * * * * * * * * * * * * * * * * * * * * * * * * * * * * * * * * * //

dimensions      [0 1 -1 0 0 0 0];

internalField   nonuniform List<vector> 
28897
(
(-9.18784e-08 -9.1952e-08 0.100363)
(-7.81835e-08 1.45044e-07 0.100363)
(1.43266e-07 -7.60595e-08 0.100363)
(-3.24201e-05 -3.24381e-05 0.100364)
(-9.46205e-08 -9.42319e-08 0.100363)
(-7.30229e-08 1.42451e-07 0.100363)
(1.41589e-07 -7.30737e-08 0.100363)
(-3.24171e-05 -3.24339e-05 0.100364)
(-9.47698e-08 -9.47099e-08 0.100363)
(-7.04018e-08 1.39321e-07 0.100363)
(1.39883e-07 -7.1218e-08 0.100363)
(-3.24167e-05 -3.2433e-05 0.100364)
(-9.50289e-08 -9.48184e-08 0.100363)
(-7.05783e-08 1.39313e-07 0.100363)
(1.39142e-07 -7.0946e-08 0.100363)
(-3.24159e-05 -3.24325e-05 0.100364)
(-9.48877e-08 -9.46001e-08 0.100363)
(-7.02501e-08 1.39071e-07 0.100363)
(1.39226e-07 -7.06331e-08 0.100363)
(-3.24166e-05 -3.24335e-05 0.100364)
(-9.49191e-08 -9.48044e-08 0.100363)
(-7.06515e-08 1.39682e-07 0.100363)
(1.39751e-07 -7.08545e-08 0.100363)
(-3.24134e-05 -3.24302e-05 0.100364)
(-9.45598e-08 -9.44808e-08 0.100363)
(-7.19826e-08 1.40655e-07 0.100363)
(1.40919e-07 -7.24149e-08 0.100363)
(-3.24169e-05 -3.24333e-05 0.100364)
(-9.47269e-08 -9.45609e-08 0.100363)
(-7.13151e-08 1.40391e-07 0.100363)
(1.40654e-07 -7.18169e-08 0.100363)
(-3.24148e-05 -3.24313e-05 0.100364)
(-9.46571e-08 -9.44147e-08 0.100363)
(-7.29473e-08 1.41982e-07 0.100363)
(1.41631e-07 -7.41378e-08 0.100363)
(-3.24172e-05 -3.24343e-05 0.100364)
(-9.44179e-08 -9.49808e-08 0.100363)
(-6.96725e-08 1.40154e-07 0.100363)
(1.38216e-07 -7.21895e-08 0.100363)
(-3.24106e-05 -3.24368e-05 0.100364)
(-8.44197e-08 -8.7756e-08 0.100363)
(-7.05557e-08 1.40969e-07 0.100363)
(1.40049e-07 -7.20635e-08 0.100363)
(-3.2416e-05 -3.24348e-05 0.100364)
(-9.66909e-08 -9.27522e-08 0.100363)
(-6.91755e-08 1.5093e-07 0.100363)
(1.39275e-07 -7.04345e-08 0.100363)
(-3.24177e-05 -3.24326e-05 0.100364)
(-9.53792e-08 -9.36498e-08 0.100363)
(-6.995e-08 1.4099e-07 0.100363)
(1.39407e-07 -7.02617e-08 0.100363)
(-3.24155e-05 -3.2431e-05 0.100364)
(-9.48679e-08 -9.4389e-08 0.100363)
(-7.09613e-08 1.4008e-07 0.100363)
(1.3998e-07 -7.11573e-08 0.100363)
(-3.24161e-05 -3.24326e-05 0.100364)
(-9.4688e-08 -9.44146e-08 0.100363)
(-7.11319e-08 1.40049e-07 0.100363)
(1.38936e-07 -7.12835e-08 0.100363)
(-3.24154e-05 -3.24319e-05 0.100364)
(-9.43081e-08 -9.41646e-08 0.100363)
(-7.23773e-08 1.41608e-07 0.100363)
(1.40948e-07 -7.24155e-08 0.100363)
(-3.2417e-05 -3.24338e-05 0.100364)
(-9.4539e-08 -9.46472e-08 0.100363)
(-7.15924e-08 1.40785e-07 0.100363)
(1.40337e-07 -7.16229e-08 0.100363)
(-3.2416e-05 -3.24327e-05 0.100364)
(-9.75459e-08 -9.77035e-08 0.100363)
(-6.5588e-08 1.37125e-07 0.100363)
(1.36919e-07 -6.54755e-08 0.100363)
(-3.24121e-05 -3.24284e-05 0.100364)
(-3.2936e-05 -3.29067e-05 0.100364)
(1.47848e-07 7.88859e-08 0.100363)
(-1.4002e-07 7.56004e-08 0.100363)
(3.29386e-05 -3.29124e-05 0.100364)
(7.63729e-08 1.43441e-07 0.100363)
(7.8232e-08 -1.45855e-07 0.100363)
(-7.18529e-08 1.41042e-07 0.100363)
(-7.64138e-08 -1.47779e-07 0.100363)
(-3.29096e-05 3.2941e-05 0.100364)
(1.42842e-07 -7.55574e-08 0.100363)
(-1.41718e-07 -7.72385e-08 0.100363)
(3.29167e-05 3.29311e-05 0.100364)
(3.24389e-05 3.24091e-05 0.100364)
(-3.29433e-05 -3.29128e-05 0.100364)
(1.46174e-07 7.76146e-08 0.100363)
(-1.51567e-07 7.96486e-08 0.100363)
(1.43346e-07 7.43297e-08 0.100363)
(-1.41674e-07 7.43574e-08 0.100363)
(-3.24347e-05 3.24134e-05 0.100364)
(3.29397e-05 -3.29167e-05 0.100364)
(7.69076e-08 1.4386e-07 0.100363)
(7.75424e-08 -1.45343e-07 0.100363)
(7.13143e-08 1.40353e-07 0.100363)
(7.39358e-08 -1.42573e-07 0.100363)
(-7.74847e-08 -1.45076e-07 0.100363)
(-7.23529e-08 1.41044e-07 0.100363)
(-7.36475e-08 -1.42267e-07 0.100363)
(3.24105e-05 -3.24433e-05 0.100364)
(-3.29149e-05 3.29473e-05 0.100364)
(-1.42467e-07 -7.58516e-08 0.100363)
(1.39664e-07 -7.07767e-08 0.100363)
(-1.40014e-07 -7.15341e-08 0.100363)
(3.29214e-05 3.29387e-05 0.100364)
(3.24348e-05 3.24057e-05 0.100364)
(-3.29448e-05 -3.29142e-05 0.100364)
(1.4339e-07 7.38082e-08 0.100363)
(-1.47205e-07 7.46224e-08 0.100363)
(1.42759e-07 7.33345e-08 0.100363)
(-1.43171e-07 7.35633e-08 0.100363)
(-3.24312e-05 3.24045e-05 0.100364)
(3.29431e-05 -3.29155e-05 0.100364)
(7.30229e-08 1.41672e-07 0.100363)
(7.4364e-08 -1.4334e-07 0.100363)
(7.07509e-08 1.39587e-07 0.100363)
(7.33927e-08 -1.42121e-07 0.100363)
(-7.43037e-08 -1.43153e-07 0.100363)
(-7.06265e-08 1.40148e-07 0.100363)
(-7.20017e-08 -1.41101e-07 0.100363)
(3.24075e-05 -3.24393e-05 0.100364)
(-3.29162e-05 3.29483e-05 0.100364)
(-1.4104e-07 -7.24305e-08 0.100363)
(1.39226e-07 -7.02629e-08 0.100363)
(-1.38657e-07 -7.06089e-08 0.100363)
(3.29228e-05 3.29405e-05 0.100364)
(3.24353e-05 3.24064e-05 0.100364)
(-3.29448e-05 -3.29143e-05 0.100364)
(1.42517e-07 7.26765e-08 0.100363)
(-1.42852e-07 7.2849e-08 0.100363)
(1.41132e-07 7.17979e-08 0.100363)
(-1.42127e-07 7.24148e-08 0.100363)
(-3.24318e-05 3.24039e-05 0.100364)
(3.2943e-05 -3.29148e-05 0.100364)
(7.2163e-08 1.40584e-07 0.100363)
(7.30235e-08 -1.41935e-07 0.100363)
(6.91949e-08 1.37997e-07 0.100363)
(7.19509e-08 -1.40908e-07 0.100363)
(-7.10932e-08 -1.40286e-07 0.100363)
(-7.00833e-08 1.39453e-07 0.100363)
(-7.193e-08 -1.41084e-07 0.100363)
(3.24075e-05 -3.24402e-05 0.100364)
(-3.29157e-05 3.29486e-05 0.100364)
(-1.38034e-07 -6.99583e-08 0.100363)
(1.3833e-07 -6.95023e-08 0.100363)
(-1.38676e-07 -7.05162e-08 0.100363)
(3.29224e-05 3.29397e-05 0.100364)
(3.24331e-05 3.24041e-05 0.100364)
(-3.29443e-05 -3.2914e-05 0.100364)
(1.41336e-07 7.15728e-08 0.100363)
(-1.42659e-07 7.21742e-08 0.100363)
(1.41857e-07 7.29146e-08 0.100363)
(-1.4267e-07 7.32975e-08 0.100363)
(-3.24299e-05 3.24029e-05 0.100364)
(3.29423e-05 -3.29148e-05 0.100364)
(7.08828e-08 1.39395e-07 0.100363)
(7.18405e-08 -1.41169e-07 0.100363)
(7.01831e-08 1.38795e-07 0.100363)
(7.26111e-08 -1.41156e-07 0.100363)
(-7.16573e-08 -1.40884e-07 0.100363)
(-7.06184e-08 1.39844e-07 0.100363)
(-7.25305e-08 -1.41186e-07 0.100363)
(3.24067e-05 -3.24385e-05 0.100364)
(-3.2916e-05 3.2948e-05 0.100364)
(-1.38481e-07 -7.01414e-08 0.100363)
(1.38107e-07 -6.98095e-08 0.100363)
(-1.38492e-07 -7.08188e-08 0.100363)
(3.29227e-05 3.29396e-05 0.100364)
(3.24346e-05 3.24053e-05 0.100364)
(-3.29434e-05 -3.29129e-05 0.100364)
(1.41755e-07 7.2172e-08 0.100363)
(-1.42517e-07 7.24692e-08 0.100363)
(1.40895e-07 7.14479e-08 0.100363)
(-1.41637e-07 7.21069e-08 0.100363)
(-3.24312e-05 3.24035e-05 0.100364)
(3.29417e-05 -3.29138e-05 0.100364)
(7.14832e-08 1.39836e-07 0.100363)
(7.24054e-08 -1.4119e-07 0.100363)
(6.88932e-08 1.37729e-07 0.100363)
(7.16148e-08 -1.40229e-07 0.100363)
(-7.13853e-08 -1.40348e-07 0.100363)
(-6.91837e-08 1.39006e-07 0.100363)
(-7.04349e-08 -1.39649e-07 0.100363)
(3.24072e-05 -3.24396e-05 0.100364)
(-3.29148e-05 3.2947e-05 0.100364)
(-1.38084e-07 -6.96375e-08 0.100363)
(1.37527e-07 -6.84253e-08 0.100363)
(-1.37057e-07 -6.90951e-08 0.100363)
(3.29217e-05 3.29389e-05 0.100364)
(3.24317e-05 3.24026e-05 0.100364)
(-3.29423e-05 -3.29117e-05 0.100364)
(1.41809e-07 7.20275e-08 0.100363)
(-1.42796e-07 7.26745e-08 0.100363)
(1.43278e-07 7.39176e-08 0.100363)
(-1.44209e-07 7.4737e-08 0.100363)
(-3.24283e-05 3.2401e-05 0.100364)
(3.29406e-05 -3.29129e-05 0.100364)
(7.14507e-08 1.39872e-07 0.100363)
(7.25526e-08 -1.41498e-07 0.100363)
(7.14361e-08 1.40122e-07 0.100363)
(7.44169e-08 -1.43133e-07 0.100363)
(-7.15234e-08 -1.40671e-07 0.100363)
(-7.20014e-08 1.4148e-07 0.100363)
(-7.38167e-08 -1.42977e-07 0.100363)
(3.24042e-05 -3.24365e-05 0.100364)
(-3.29137e-05 3.2946e-05 0.100364)
(-1.38309e-07 -6.99801e-08 0.100363)
(1.40455e-07 -7.17333e-08 0.100363)
(-1.4046e-07 -7.25892e-08 0.100363)
(3.29203e-05 3.29378e-05 0.100364)
(3.24337e-05 3.24047e-05 0.100364)
(-3.29424e-05 -3.29117e-05 0.100364)
(1.42678e-07 7.31085e-08 0.100363)
(-1.43925e-07 7.37736e-08 0.100363)
(1.42961e-07 7.34383e-08 0.100363)
(-1.43343e-07 7.3706e-08 0.100363)
(-3.24308e-05 3.24036e-05 0.100364)
(3.29405e-05 -3.2913e-05 0.100364)
(7.25319e-08 1.40702e-07 0.100363)
(7.3712e-08 -1.42728e-07 0.100363)
(7.08834e-08 1.3987e-07 0.100363)
(7.32094e-08 -1.42137e-07 0.100363)
(-7.33405e-08 -1.42549e-07 0.100363)
(-7.06425e-08 1.40383e-07 0.100363)
(-7.23918e-08 -1.41713e-07 0.100363)
(3.24072e-05 -3.24391e-05 0.100364)
(-3.2914e-05 3.2946e-05 0.100364)
(-1.40275e-07 -7.19454e-08 0.100363)
(1.39216e-07 -7.03418e-08 0.100363)
(-1.39215e-07 -7.11244e-08 0.100363)
(3.29203e-05 3.29377e-05 0.100364)
(3.24331e-05 3.24041e-05 0.100364)
(-3.29416e-05 -3.29113e-05 0.100364)
(1.4303e-07 7.32632e-08 0.100363)
(-1.43796e-07 7.3699e-08 0.100363)
(1.43753e-07 7.45049e-08 0.100363)
(-1.44894e-07 7.52507e-08 0.100363)
(-3.24297e-05 3.24018e-05 0.100364)
(3.29398e-05 -3.29125e-05 0.100364)
(7.26632e-08 1.41147e-07 0.100363)
(7.36068e-08 -1.42665e-07 0.100363)
(7.17922e-08 1.40623e-07 0.100363)
(7.44894e-08 -1.43345e-07 0.100363)
(-7.21605e-08 -1.41387e-07 0.100363)
(-7.25238e-08 1.42124e-07 0.100363)
(-7.43044e-08 -1.43397e-07 0.100363)
(3.24055e-05 -3.24382e-05 0.100364)
(-3.29135e-05 3.29455e-05 0.100364)
(-1.391e-07 -7.07116e-08 0.100363)
(1.4053e-07 -7.17475e-08 0.100363)
(-1.40798e-07 -7.29102e-08 0.100363)
(3.29203e-05 3.29373e-05 0.100364)
(3.24349e-05 3.24056e-05 0.100364)
(-3.29438e-05 -3.29144e-05 0.100364)
(1.43625e-07 7.42739e-08 0.100363)
(-1.45292e-07 7.49393e-08 0.100363)
(1.41264e-07 7.3754e-08 0.100363)
(-1.44984e-07 7.54188e-08 0.100363)
(-3.24315e-05 3.24044e-05 0.100364)
(3.29436e-05 -3.2914e-05 0.100364)
(7.34609e-08 1.41678e-07 0.100363)
(7.45173e-08 -1.43758e-07 0.100363)
(7.26012e-08 1.38891e-07 0.100363)
(7.40726e-08 -1.42953e-07 0.100363)
(-7.40587e-08 -1.43094e-07 0.100363)
(-7.08977e-08 1.41854e-07 0.100363)
(-7.57008e-08 -1.43141e-07 0.100363)
(3.24077e-05 -3.24402e-05 0.100364)
(-3.29161e-05 3.29463e-05 0.100364)
(-1.40607e-07 -7.25179e-08 0.100363)
(1.38544e-07 -7.1246e-08 0.100363)
(-1.38457e-07 -7.54956e-08 0.100363)
(3.29244e-05 3.29365e-05 0.100364)
(3.24314e-05 3.24032e-05 0.100364)
(-3.29299e-05 -3.29186e-05 0.100364)
(1.38999e-07 7.08425e-08 0.100363)
(-1.39786e-07 7.43836e-08 0.100363)
(1.42827e-07 7.75314e-08 0.100363)
(-1.40508e-07 7.34818e-08 0.100363)
(-3.24297e-05 3.2408e-05 0.100364)
(3.29396e-05 -3.2919e-05 0.100364)
(7.34244e-08 1.37919e-07 0.100363)
(7.33545e-08 -1.42268e-07 0.100363)
(7.65286e-08 1.42291e-07 0.100363)
(7.44758e-08 -1.41917e-07 0.100363)
(-8.09046e-08 -1.43681e-07 0.100363)
(-6.78077e-08 1.37117e-07 0.100363)
(-7.74425e-08 -1.43159e-07 0.100363)
(3.2406e-05 -3.24401e-05 0.100364)
(-3.29156e-05 3.29475e-05 0.100364)
(-1.33757e-07 -7.98983e-08 0.100363)
(1.3862e-07 -7.15167e-08 0.100363)
(-1.36375e-07 -7.61039e-08 0.100363)
(3.29251e-05 3.29376e-05 0.100364)
(3.24428e-05 3.24087e-05 0.100364)
(-3.29425e-05 -3.292e-05 0.100364)
(1.49851e-07 8.51586e-08 0.100363)
(-1.44504e-07 7.51047e-08 0.100363)
(1.38817e-07 7.15763e-08 0.100363)
(-1.4804e-07 8.42667e-08 0.100363)
(-3.24345e-05 3.24001e-05 0.100364)
(3.29375e-05 -3.29054e-05 0.100364)
(8.31591e-08 1.41281e-07 0.100363)
(7.38801e-08 -1.40359e-07 0.100363)
(7.01297e-08 1.39916e-07 0.100363)
(7.27571e-08 -1.40428e-07 0.100363)
(-7.40195e-08 -1.41985e-07 0.100363)
(-6.96433e-08 1.48699e-07 0.100363)
(-7.28703e-08 -1.39116e-07 0.100363)
(3.24081e-05 -3.24398e-05 0.100364)
(-3.29172e-05 3.29497e-05 0.100364)
(-1.38787e-07 -7.24441e-08 0.100363)
(1.38181e-07 -6.93101e-08 0.100363)
(-1.38828e-07 -6.9968e-08 0.100363)
(3.29238e-05 3.29426e-05 0.100364)
(3.24298e-05 3.24106e-05 0.100364)
(-3.29416e-05 -3.2918e-05 0.100364)
(1.37639e-07 7.50849e-08 0.100363)
(-1.54465e-07 8.74179e-08 0.100363)
(1.39862e-07 7.15113e-08 0.100363)
(-1.43186e-07 7.42715e-08 0.100363)
(-3.2439e-05 3.24263e-05 0.100364)
(3.29421e-05 -3.29147e-05 0.100364)
(7.05246e-08 1.40899e-07 0.100363)
(7.23984e-08 -1.40547e-07 0.100363)
(6.89536e-08 1.39516e-07 0.100363)
(7.20186e-08 -1.39839e-07 0.100363)
(-7.26618e-08 -1.38866e-07 0.100363)
(-6.88165e-08 1.41766e-07 0.100363)
(-7.11708e-08 -1.38291e-07 0.100363)
(3.24076e-05 -3.24393e-05 0.100364)
(-3.29163e-05 3.29486e-05 0.100364)
(-1.39361e-07 -6.94945e-08 0.100363)
(1.37481e-07 -6.83155e-08 0.100363)
(-1.3758e-07 -6.86109e-08 0.100363)
(3.2923e-05 3.29415e-05 0.100364)
(3.24288e-05 3.24095e-05 0.100364)
(-3.29404e-05 -3.2918e-05 0.100364)
(1.39974e-07 7.40525e-08 0.100363)
(-1.42715e-07 7.35173e-08 0.100363)
(1.41982e-07 7.13558e-08 0.100363)
(-1.42927e-07 7.36795e-08 0.100363)
(-3.243e-05 3.24053e-05 0.100364)
(3.29421e-05 -3.29161e-05 0.100364)
(7.06447e-08 1.40283e-07 0.100363)
(7.23764e-08 -1.4061e-07 0.100363)
(7.06167e-08 1.39783e-07 0.100363)
(7.31303e-08 -1.4169e-07 0.100363)
(-7.21818e-08 -1.39847e-07 0.100363)
(-7.05889e-08 1.40741e-07 0.100363)
(-7.25767e-08 -1.41126e-07 0.100363)
(3.24058e-05 -3.24376e-05 0.100364)
(-3.29155e-05 3.29478e-05 0.100364)
(-1.38925e-07 -6.96441e-08 0.100363)
(1.38867e-07 -6.994e-08 0.100363)
(-1.39039e-07 -7.07044e-08 0.100363)
(3.29224e-05 3.29399e-05 0.100364)
(3.24299e-05 3.24097e-05 0.100364)
(-3.29392e-05 -3.2917e-05 0.100364)
(1.41147e-07 7.36232e-08 0.100363)
(-1.42598e-07 7.30368e-08 0.100363)
(1.41832e-07 7.06809e-08 0.100363)
(-1.42365e-07 7.29869e-08 0.100363)
(-3.24305e-05 3.24046e-05 0.100364)
(3.29409e-05 -3.29151e-05 0.100364)
(7.15987e-08 1.4011e-07 0.100363)
(7.27026e-08 -1.41641e-07 0.100363)
(7.01543e-08 1.39211e-07 0.100363)
(7.27513e-08 -1.41595e-07 0.100363)
(-7.28528e-08 -1.41666e-07 0.100363)
(-7.04054e-08 1.40202e-07 0.100363)
(-7.23156e-08 -1.41414e-07 0.100363)
(3.24067e-05 -3.24387e-05 0.100364)
(-3.29144e-05 3.29464e-05 0.100364)
(-1.39679e-07 -7.09189e-08 0.100363)
(1.3886e-07 -6.98469e-08 0.100363)
(-1.38938e-07 -7.09216e-08 0.100363)
(3.29211e-05 3.29385e-05 0.100364)
(3.24287e-05 3.24084e-05 0.100364)
(-3.29384e-05 -3.29167e-05 0.100364)
(1.417e-07 7.39796e-08 0.100363)
(-1.42623e-07 7.32426e-08 0.100363)
(1.44007e-07 7.27646e-08 0.100363)
(-1.44116e-07 7.50193e-08 0.100363)
(-3.24292e-05 3.24034e-05 0.100364)
(3.29404e-05 -3.29148e-05 0.100364)
(7.22847e-08 1.40497e-07 0.100363)
(7.31729e-08 -1.42175e-07 0.100363)
(7.22211e-08 1.41063e-07 0.100363)
(7.45468e-08 -1.43116e-07 0.100363)
(-7.28419e-08 -1.41902e-07 0.100363)
(-7.21202e-08 1.4203e-07 0.100363)
(-7.3611e-08 -1.42652e-07 0.100363)
(3.24056e-05 -3.24379e-05 0.100364)
(-3.2914e-05 3.2946e-05 0.100364)
(-1.39384e-07 -7.11936e-08 0.100363)
(1.41074e-07 -7.17412e-08 0.100363)
(-1.40194e-07 -7.23159e-08 0.100363)
(3.29213e-05 3.29384e-05 0.100364)
(3.24311e-05 3.241e-05 0.100364)
(-3.2939e-05 -3.29175e-05 0.100364)
(1.43607e-07 7.56949e-08 0.100363)
(-1.44034e-07 7.48897e-08 0.100363)
(1.43453e-07 7.18628e-08 0.100363)
(-1.43343e-07 7.41725e-08 0.100363)
(-3.24313e-05 3.24054e-05 0.100364)
(3.29411e-05 -3.29155e-05 0.100364)
(7.37291e-08 1.42047e-07 0.100363)
(7.46582e-08 -1.43342e-07 0.100363)
(7.1995e-08 1.40336e-07 0.100363)
(7.38721e-08 -1.42427e-07 0.100363)
(-7.3778e-08 -1.42939e-07 0.100363)
(-7.10793e-08 1.40993e-07 0.100363)
(-7.22873e-08 -1.41459e-07 0.100363)
(3.24075e-05 -3.24397e-05 0.100364)
(-3.29146e-05 3.29466e-05 0.100364)
(-1.40388e-07 -7.21459e-08 0.100363)
(1.40091e-07 -7.07959e-08 0.100363)
(-1.38665e-07 -7.1239e-08 0.100363)
(3.29219e-05 3.29388e-05 0.100364)
(3.24309e-05 3.24098e-05 0.100364)
(-3.29434e-05 -3.29218e-05 0.100364)
(1.42986e-07 7.48258e-08 0.100363)
(-1.43222e-07 7.3965e-08 0.100363)
(1.40492e-07 6.86354e-08 0.100363)
(-1.41374e-07 7.05398e-08 0.100363)
(-3.24306e-05 3.24047e-05 0.100364)
(3.29455e-05 -3.29195e-05 0.100364)
(7.32386e-08 1.41305e-07 0.100363)
(7.39577e-08 -1.42694e-07 0.100363)
(6.86593e-08 1.3765e-07 0.100363)
(7.0592e-08 -1.40697e-07 0.100363)
(-7.32656e-08 -1.42473e-07 0.100363)
(-6.83808e-08 1.38775e-07 0.100363)
(-6.95927e-08 -1.3962e-07 0.100363)
(3.24069e-05 -3.24391e-05 0.100364)
(-3.29183e-05 3.29508e-05 0.100364)
(-1.39956e-07 -7.13034e-08 0.100363)
(1.37719e-07 -6.88359e-08 0.100363)
(-1.37145e-07 -6.88027e-08 0.100363)
(3.29254e-05 3.29433e-05 0.100364)
(3.24257e-05 3.24052e-05 0.100364)
(1.38873e-07 6.82077e-08 0.100363)
(-1.39681e-07 6.81407e-08 0.100363)
(-3.24259e-05 3.24001e-05 0.100364)
(6.67662e-08 1.37394e-07 0.100363)
(6.80271e-08 -1.39321e-07 0.100363)
(-6.7797e-08 -1.39206e-07 0.100363)
(3.24027e-05 -3.24342e-05 0.100364)
(-1.36933e-07 -6.5742e-08 0.100363)
(-9.15318e-08 -9.18294e-08 0.100363)
(9.68668e-08 -9.34801e-08 0.100363)
(-9.15044e-08 9.16112e-08 0.100363)
(9.34844e-08 9.00025e-08 0.100363)
(9.49462e-10 -2.65898e-06 0.10034)
(2.66922e-07 2.43679e-06 0.0998437)
(1.91293e-09 2.64482e-06 0.10034)
(-2.89265e-07 -2.39535e-06 0.0998438)
(-6.89388e-07 9.17939e-07 0.0985809)
(4.19723e-07 -4.86152e-07 0.0985803)
(-2.67143e-06 -1.41296e-09 0.10034)
(2.45233e-06 2.61728e-07 0.0998437)
(2.64979e-06 2.91131e-09 0.10034)
(-2.40759e-06 -2.84071e-07 0.0998437)
(9.18359e-08 -9.4547e-08 0.100363)
(-9.13914e-08 9.16527e-08 0.100363)
(9.11189e-08 9.09667e-08 0.100363)
(-9.44001e-08 -9.32977e-08 0.100363)
(9.35238e-08 -9.28498e-08 0.100363)
(-9.355e-08 9.36494e-08 0.100363)
(9.28707e-08 9.3414e-08 0.100363)
(5.60394e-06 -2.05229e-08 0.100362)
(-4.16242e-06 1.68781e-06 0.100346)
(-8.63489e-08 -3.75513e-08 0.100363)
(-7.56589e-08 1.43342e-07 0.100363)
(-5.66872e-06 2.12814e-08 0.100362)
(4.07433e-06 -1.66055e-06 0.100346)
(-8.44928e-08 -3.72692e-08 0.100363)
(5.12685e-07 -4.45403e-07 0.0985801)
(-4.70729e-07 4.14706e-07 0.0985801)
(-1.53261e-08 5.60853e-06 0.100362)
(-3.78359e-08 -8.61243e-08 0.100363)
(1.67225e-06 -4.16382e-06 0.100346)
(1.40952e-07 -7.30573e-08 0.100363)
(1.72023e-08 -5.65833e-06 0.100362)
(-3.85192e-08 -8.08895e-08 0.100363)
(-1.67241e-06 4.08254e-06 0.100346)
(-9.01547e-07 -1.61667e-06 0.100309)
(-1.61193e-06 -9.65118e-07 0.100309)
(3.29188e-05 3.29366e-05 0.100364)
(9.88027e-07 1.5834e-06 0.10031)
(1.57797e-06 9.8739e-07 0.10031)
(1.15258e-09 -2.6616e-06 0.10034)
(2.74052e-07 2.40109e-06 0.0998437)
(-3.36415e-09 2.64364e-06 0.10034)
(-2.89138e-07 -2.39376e-06 0.0998438)
(-4.25941e-07 4.60719e-07 0.0985802)
(4.22566e-07 -4.87395e-07 0.0985803)
(-2.67389e-06 -1.42422e-09 0.10034)
(2.41748e-06 2.69342e-07 0.0998437)
(2.64958e-06 -1.2009e-09 0.10034)
(-2.40594e-06 -2.83663e-07 0.0998437)
(9.38991e-08 -9.54193e-08 0.100363)
(-9.41574e-08 9.4327e-08 0.100363)
(9.35153e-08 9.40438e-08 0.100363)
(-9.48935e-08 -9.41873e-08 0.100363)
(9.46213e-08 -9.4771e-08 0.100363)
(-9.40635e-08 9.42567e-08 0.100363)
(9.37363e-08 9.38522e-08 0.100363)
(5.61037e-06 -2.1522e-08 0.100362)
(-4.14354e-06 1.64576e-06 0.100346)
(-8.13469e-08 -3.79582e-08 0.100363)
(-7.23403e-08 1.41455e-07 0.100363)
(-5.63794e-06 2.1838e-08 0.100362)
(4.08217e-06 -1.66688e-06 0.100346)
(-8.0696e-08 -3.81762e-08 0.100363)
(4.40006e-07 -4.13188e-07 0.09858)
(-4.66585e-07 4.10953e-07 0.0985801)
(-1.52047e-08 5.61236e-06 0.100362)
(-3.8625e-08 -8.17353e-08 0.100363)
(1.65386e-06 -4.15068e-06 0.100346)
(1.4021e-07 -7.13811e-08 0.100363)
(1.64539e-08 -5.64071e-06 0.100362)
(-3.87317e-08 -7.82861e-08 0.100363)
(-1.67344e-06 4.08575e-06 0.100346)
(-1.0037e-06 -1.60366e-06 0.10031)
(-1.59941e-06 -1.002e-06 0.100309)
(3.29222e-05 3.29396e-05 0.100364)
(9.93727e-07 1.58521e-06 0.10031)
(1.58004e-06 9.92026e-07 0.10031)
(1.23615e-09 -2.66047e-06 0.10034)
(2.74165e-07 2.40068e-06 0.0998437)
(-3.33071e-09 2.64332e-06 0.10034)
(-2.87938e-07 -2.39353e-06 0.0998438)
(-4.2592e-07 4.61464e-07 0.0985803)
(4.2329e-07 -4.85736e-07 0.0985803)
(-2.67312e-06 -1.31302e-09 0.10034)
(2.41722e-06 2.68945e-07 0.0998437)
(2.64889e-06 -1.10501e-09 0.10034)
(-2.40565e-06 -2.83012e-07 0.0998437)
(9.44892e-08 -9.48606e-08 0.100363)
(-9.42496e-08 9.44508e-08 0.100363)
(9.38932e-08 9.39942e-08 0.100363)
(-9.48385e-08 -9.40495e-08 0.100363)
(9.46601e-08 -9.481e-08 0.100363)
(-9.4101e-08 9.41972e-08 0.100363)
(9.38744e-08 9.40472e-08 0.100363)
(5.61105e-06 -2.1749e-08 0.100362)
(-4.14384e-06 1.64551e-06 0.100346)
(-7.82395e-08 -3.82008e-08 0.100363)
(-6.95961e-08 1.39202e-07 0.100363)
(-5.63783e-06 2.13857e-08 0.100362)
(4.08172e-06 -1.66606e-06 0.100346)
(-7.73375e-08 -3.82996e-08 0.100363)
(4.40952e-07 -4.12997e-07 0.09858)
(-4.65627e-07 4.11237e-07 0.0985801)
(-1.5501e-08 5.61316e-06 0.100362)
(-3.84138e-08 -7.95271e-08 0.100363)
(1.65352e-06 -4.15091e-06 0.100346)
(1.38196e-07 -6.92196e-08 0.100363)
(1.59449e-08 -5.64076e-06 0.100362)
(-3.85282e-08 -7.56861e-08 0.100363)
(-1.67283e-06 4.08573e-06 0.100346)
(-1.00468e-06 -1.6051e-06 0.10031)
(-1.60012e-06 -1.00246e-06 0.100309)
(3.29231e-05 3.29408e-05 0.100364)
(9.92436e-07 1.58398e-06 0.10031)
(1.57947e-06 9.91147e-07 0.10031)
(1.31496e-09 -2.66131e-06 0.10034)
(2.74789e-07 2.40072e-06 0.0998437)
(-2.85216e-09 2.64465e-06 0.10034)
(-2.8788e-07 -2.39443e-06 0.0998438)
(-4.25653e-07 4.61066e-07 0.0985802)
(4.2314e-07 -4.86692e-07 0.0985803)
(-2.67373e-06 -1.78587e-09 0.10034)
(2.41721e-06 2.69972e-07 0.0998437)
(2.65067e-06 -8.6322e-10 0.10034)
(-2.40663e-06 -2.82537e-07 0.0998437)
(9.44782e-08 -9.50426e-08 0.100363)
(-9.44089e-08 9.43127e-08 0.100363)
(9.37602e-08 9.40354e-08 0.100363)
(-9.50124e-08 -9.40305e-08 0.100363)
(9.4583e-08 -9.46295e-08 0.100363)
(-9.4102e-08 9.4196e-08 0.100363)
(9.36807e-08 9.39825e-08 0.100363)
(5.61124e-06 -2.17823e-08 0.100362)
(-4.14338e-06 1.64551e-06 0.100346)
(-7.79822e-08 -3.84269e-08 0.100363)
(-7.04456e-08 1.39895e-07 0.100363)
(-5.63754e-06 2.14933e-08 0.100362)
(4.08232e-06 -1.66677e-06 0.100346)
(-7.77799e-08 -3.85631e-08 0.100363)
(4.41095e-07 -4.12483e-07 0.09858)
(-4.65985e-07 4.11704e-07 0.0985801)
(-1.57101e-08 5.61115e-06 0.100362)
(-3.86796e-08 -7.88245e-08 0.100363)
(1.65401e-06 -4.1508e-06 0.100346)
(1.37999e-07 -6.94674e-08 0.100363)
(1.65652e-08 -5.64042e-06 0.100362)
(-3.89322e-08 -7.61896e-08 0.100363)
(-1.67341e-06 4.08573e-06 0.100346)
(-1.00451e-06 -1.60505e-06 0.10031)
(-1.60027e-06 -1.00284e-06 0.100309)
(3.29233e-05 3.29402e-05 0.100364)
(9.93393e-07 1.58452e-06 0.10031)
(1.57969e-06 9.9149e-07 0.10031)
(1.28079e-09 -2.66141e-06 0.10034)
(2.74651e-07 2.40064e-06 0.0998437)
(-3.10568e-09 2.64468e-06 0.10034)
(-2.88556e-07 -2.39375e-06 0.0998438)
(-4.25491e-07 4.61961e-07 0.0985802)
(4.23618e-07 -4.86081e-07 0.0985803)
(-2.67334e-06 -1.71099e-09 0.10034)
(2.41724e-06 2.69819e-07 0.0998437)
(2.65049e-06 -1.20888e-09 0.10034)
(-2.40586e-06 -2.82986e-07 0.0998437)
(9.44034e-08 -9.47003e-08 0.100363)
(-9.41168e-08 9.44652e-08 0.100363)
(9.35711e-08 9.41028e-08 0.100363)
(-9.47886e-08 -9.40092e-08 0.100363)
(9.48011e-08 -9.46758e-08 0.100363)
(-9.40463e-08 9.43139e-08 0.100363)
(9.40386e-08 9.41228e-08 0.100363)
(5.61176e-06 -2.20052e-08 0.100362)
(-4.14467e-06 1.64562e-06 0.100346)
(-7.7962e-08 -3.81687e-08 0.100363)
(-6.95264e-08 1.39239e-07 0.100363)
(-5.63866e-06 2.15732e-08 0.100362)
(4.08239e-06 -1.66625e-06 0.100346)
(-7.6965e-08 -3.82725e-08 0.100363)
(4.41426e-07 -4.12999e-07 0.09858)
(-4.65709e-07 4.11587e-07 0.0985801)
(-1.45572e-08 5.61483e-06 0.100362)
(-3.85015e-08 -7.68272e-08 0.100363)
(1.65415e-06 -4.15146e-06 0.100346)
(1.37952e-07 -6.9084e-08 0.100363)
(1.76112e-08 -5.63891e-06 0.100362)
(-3.86544e-08 -7.70709e-08 0.100363)
(-1.67281e-06 4.08644e-06 0.100346)
(-1.0046e-06 -1.60542e-06 0.10031)
(-1.60066e-06 -1.00281e-06 0.100309)
(3.2923e-05 3.29401e-05 0.100364)
(9.93204e-07 1.58415e-06 0.10031)
(1.57942e-06 9.91254e-07 0.10031)
(1.03033e-09 -2.66141e-06 0.10034)
(2.74187e-07 2.40071e-06 0.0998437)
(-3.02224e-09 2.64445e-06 0.10034)
(-2.88243e-07 -2.39465e-06 0.0998438)
(-4.25468e-07 4.60935e-07 0.0985802)
(4.22442e-07 -4.87557e-07 0.0985803)
(-2.6742e-06 -1.63173e-09 0.10034)
(2.41731e-06 2.68887e-07 0.0998437)
(2.65002e-06 -1.10059e-09 0.10034)
(-2.40678e-06 -2.83484e-07 0.0998437)
(9.4668e-08 -9.48904e-08 0.100363)
(-9.42128e-08 9.46059e-08 0.100363)
(9.40638e-08 9.43444e-08 0.100363)
(-9.47645e-08 -9.40668e-08 0.100363)
(9.46768e-08 -9.48318e-08 0.100363)
(-9.42194e-08 9.41921e-08 0.100363)
(9.398e-08 9.3931e-08 0.100363)
(5.611e-06 -2.17792e-08 0.100362)
(-4.1434e-06 1.64551e-06 0.100346)
(-7.81294e-08 -3.81401e-08 0.100363)
(-7.1156e-08 1.40818e-07 0.100363)
(-5.6373e-06 2.14289e-08 0.100362)
(4.0822e-06 -1.66704e-06 0.100346)
(-7.88682e-08 -3.84865e-08 0.100363)
(4.40884e-07 -4.12358e-07 0.09858)
(-4.67296e-07 4.10766e-07 0.0985801)
(-1.45571e-08 5.61389e-06 0.100362)
(-3.83146e-08 -7.69627e-08 0.100363)
(1.65413e-06 -4.15082e-06 0.100346)
(1.39548e-07 -7.06286e-08 0.100363)
(1.76236e-08 -5.63782e-06 0.100362)
(-3.87746e-08 -7.89899e-08 0.100363)
(-1.67392e-06 4.08607e-06 0.100346)
(-1.00461e-06 -1.60482e-06 0.10031)
(-1.60003e-06 -1.0029e-06 0.100309)
(3.29204e-05 3.29379e-05 0.100364)
(9.93528e-07 1.5847e-06 0.10031)
(1.58017e-06 9.92222e-07 0.10031)
(9.83327e-10 -2.66056e-06 0.10034)
(2.74335e-07 2.40086e-06 0.0998437)
(-3.09051e-09 2.64394e-06 0.10034)
(-2.88342e-07 -2.3939e-06 0.0998438)
(-4.26163e-07 4.61192e-07 0.0985802)
(4.23666e-07 -4.85908e-07 0.0985803)
(-2.67258e-06 -1.67522e-09 0.10034)
(2.41738e-06 2.69484e-07 0.0998437)
(2.65017e-06 -9.26097e-10 0.10034)
(-2.40599e-06 -2.82981e-07 0.0998437)
(9.41771e-08 -9.46807e-08 0.100363)
(-9.40159e-08 9.40559e-08 0.100363)
(9.34736e-08 9.36739e-08 0.100363)
(-9.46733e-08 -9.38825e-08 0.100363)
(9.45009e-08 -9.45424e-08 0.100363)
(-9.40131e-08 9.40572e-08 0.100363)
(9.36621e-08 9.3676e-08 0.100363)
(5.61016e-06 -2.15139e-08 0.100362)
(-4.14417e-06 1.646e-06 0.100346)
(-8.05189e-08 -3.83457e-08 0.100363)
(-7.10054e-08 1.40348e-07 0.100363)
(-5.63837e-06 2.17673e-08 0.100362)
(4.08115e-06 -1.66578e-06 0.100346)
(-7.93745e-08 -3.83951e-08 0.100363)
(4.40707e-07 -4.133e-07 0.09858)
(-4.65645e-07 4.11778e-07 0.0985801)
(-1.43901e-08 5.61302e-06 0.100362)
(-3.84548e-08 -7.96156e-08 0.100363)
(1.65453e-06 -4.15125e-06 0.100346)
(1.39072e-07 -7.04662e-08 0.100363)
(1.76127e-08 -5.63874e-06 0.100362)
(-3.86793e-08 -7.94939e-08 0.100363)
(-1.67238e-06 4.08497e-06 0.100346)
(-1.00471e-06 -1.60479e-06 0.10031)
(-1.59984e-06 -1.00275e-06 0.100309)
(3.29209e-05 3.29384e-05 0.100364)
(9.92084e-07 1.58356e-06 0.10031)
(1.57903e-06 9.90703e-07 0.10031)
(9.96626e-10 -2.66151e-06 0.10034)
(2.74355e-07 2.40038e-06 0.0998437)
(-3.33796e-09 2.64322e-06 0.10034)
(-2.88619e-07 -2.39419e-06 0.0998438)
(-4.25289e-07 4.60895e-07 0.0985802)
(4.23319e-07 -4.86651e-07 0.0985803)
(-2.67415e-06 -1.90036e-09 0.10034)
(2.41687e-06 2.69266e-07 0.0998437)
(2.64889e-06 -1.31602e-09 0.10034)
(-2.40642e-06 -2.8338e-07 0.0998437)
(9.44179e-08 -9.47014e-08 0.100363)
(-9.41347e-08 9.43643e-08 0.100363)
(9.36448e-08 9.39132e-08 0.100363)
(-9.46555e-08 -9.37716e-08 0.100363)
(9.43954e-08 -9.44736e-08 0.100363)
(-9.38799e-08 9.38975e-08 0.100363)
(9.36405e-08 9.37729e-08 0.100363)
(5.61038e-06 -2.16728e-08 0.100362)
(-4.14352e-06 1.6453e-06 0.100346)
(-7.9312e-08 -3.82408e-08 0.100363)
(-7.15521e-08 1.41253e-07 0.100363)
(-5.63755e-06 2.16776e-08 0.100362)
(4.08174e-06 -1.66667e-06 0.100346)
(-7.97791e-08 -3.83111e-08 0.100363)
(4.40522e-07 -4.12391e-07 0.09858)
(-4.66489e-07 4.11326e-07 0.0985801)
(-1.43471e-08 5.61327e-06 0.100362)
(-3.84738e-08 -7.84338e-08 0.100363)
(1.65387e-06 -4.15061e-06 0.100346)
(1.39846e-07 -7.09791e-08 0.100363)
(1.75125e-08 -5.63796e-06 0.100362)
(-3.86911e-08 -7.98587e-08 0.100363)
(-1.67325e-06 4.08549e-06 0.100346)
(-1.00446e-06 -1.60467e-06 0.10031)
(-1.59991e-06 -1.00255e-06 0.100309)
(3.29205e-05 3.29376e-05 0.100364)
(9.93393e-07 1.58486e-06 0.10031)
(1.57995e-06 9.91438e-07 0.10031)
(9.93614e-11 -2.6623e-06 0.10034)
(2.73966e-07 2.40049e-06 0.0998437)
(-3.41859e-09 2.64341e-06 0.10034)
(-2.89678e-07 -2.39448e-06 0.0998438)
(-4.26009e-07 4.60139e-07 0.0985802)
(4.22548e-07 -4.87082e-07 0.0985803)
(-2.67438e-06 -2.26108e-09 0.10034)
(2.41696e-06 2.69687e-07 0.0998437)
(2.6496e-06 -1.34062e-09 0.10034)
(-2.40666e-06 -2.83606e-07 0.0998437)
(9.40433e-08 -9.44158e-08 0.100363)
(-9.37992e-08 9.38651e-08 0.100363)
(9.32366e-08 9.36148e-08 0.100363)
(-9.46475e-08 -9.39685e-08 0.100363)
(9.37949e-08 -9.3071e-08 0.100363)
(-9.27006e-08 9.26945e-08 0.100363)
(9.22246e-08 9.18194e-08 0.100363)
(5.6098e-06 -2.21386e-08 0.100362)
(-4.14344e-06 1.64536e-06 0.100346)
(-8.14764e-08 -3.8257e-08 0.100363)
(-7.25389e-08 1.42194e-07 0.100363)
(-5.63816e-06 2.12429e-08 0.100362)
(4.08162e-06 -1.66699e-06 0.100346)
(-8.08049e-08 -3.83264e-08 0.100363)
(4.3999e-07 -4.13115e-07 0.09858)
(-4.66449e-07 4.11022e-07 0.0985801)
(-1.49406e-08 5.61247e-06 0.100362)
(-3.85857e-08 -8.05564e-08 0.100363)
(1.65376e-06 -4.15152e-06 0.100346)
(1.40053e-07 -6.99845e-08 0.100363)
(1.75588e-08 -5.63879e-06 0.100362)
(-3.8824e-08 -8.08883e-08 0.100363)
(-1.67299e-06 4.0878e-06 0.100346)
(-1.004e-06 -1.60441e-06 0.10031)
(-1.59947e-06 -1.00214e-06 0.100309)
(3.29215e-05 3.29383e-05 0.100364)
(9.92817e-07 1.58398e-06 0.10031)
(1.57963e-06 9.90854e-07 0.10031)
(-1.77017e-08 -2.66155e-06 0.10034)
(2.77547e-07 2.40632e-06 0.0998437)
(-9.38104e-09 2.64505e-06 0.10034)
(-4.28323e-07 -2.46167e-06 0.0998438)
(-4.29016e-07 4.72502e-07 0.0985803)
(4.52824e-07 -4.90712e-07 0.0985801)
(-2.67364e-06 -1.47554e-09 0.10034)
(2.41905e-06 2.68374e-07 0.0998437)
(2.65125e-06 -1.27837e-09 0.10034)
(-2.41397e-06 -2.89232e-07 0.0998437)
(9.3775e-08 -8.96647e-08 0.100363)
(-9.17434e-08 9.29485e-08 0.100363)
(8.92971e-08 8.60408e-08 0.100363)
(-9.28426e-08 -9.2709e-08 0.100363)
(9.66993e-08 -9.47402e-08 0.100363)
(-9.2191e-08 9.32645e-08 0.100363)