/*--------------------------------*- C++ -*----------------------------------*\
| =========                 |                                                 |
| \\      /  F ield         | OpenFOAM: The Open Source CFD Toolbox           |
|  \\    /   O peration     | Version:  2206                                  |
|   \\  /    A nd           | Website:  www.openfoam.com                      |
|    \\/     M anipulation  |                                                 |
\*---------------------------------------------------------------------------*/
FoamFile
{
    version     2.0;
    format      ascii;
    arch        "LSB;label=32;scalar=64";
    class       surfaceScalarField;
    location    "38";
    object      phi;
}
// * * * * * * * * * * * * * * * * * * * * * * * * * * * * * * * * * * * * * //

dimensions      [0 3 -1 0 0 0 0];

oriented        oriented;

internalField   nonuniform List<scalar> 
82026
(
1.8382e-09
1.98896e-09
-0.00109564
-1.94285e-09
-1.95227e-09
0.00109564
-0.00109497
-1.21989e-06
-2.02585e-09
3.62781e-09
0.00109497
-2.6394e-07
1.22305e-06
2.62485e-07
9.09981e-07
-2.69952e-07
-9.09359e-07
2.66038e-07
-0.00109462
-1.21445e-06
-2.07159e-09
3.62529e-09
0.00109462
-2.6393e-07
1.21757e-06
2.62499e-07
9.09821e-07
-2.72604e-07
-9.09222e-07
2.68758e-07
-0.000268843
1.24837e-06
1.21458e-06
-2.38213e-07
-2.43534e-07
0.000266861
1.90612e-09
2.07162e-09
-0.00109564
-1.98399e-09
-1.97077e-09
0.00109564
-0.00109496
-1.21987e-06
-2.09427e-09
3.61762e-09
0.00109496
-2.63923e-07
1.22305e-06
2.62491e-07
9.09988e-07
-2.69911e-07
-9.09338e-07
2.6607e-07
-0.00109462
-1.21443e-06
-2.15449e-09
3.59989e-09
0.00109462
-2.63911e-07
1.21758e-06
2.6251e-07
9.09831e-07
-2.72565e-07
-9.09202e-07
2.68787e-07
-0.000268842
1.24836e-06
1.21457e-06
-2.38196e-07
-2.43515e-07
0.000266861
1.91863e-09
2.0996e-09
-0.00109564
-1.98764e-09
-1.9693e-09
0.00109564
-0.00109496
-1.21985e-06
-2.13475e-09
3.59453e-09
0.00109496
-2.63912e-07
1.22306e-06
2.62501e-07
9.09998e-07
-2.6989e-07
-9.09331e-07
2.66092e-07
-0.00109462
-1.21443e-06
-2.19477e-09
3.58743e-09
0.00109462
-2.63905e-07
1.21759e-06
2.62516e-07
9.0984e-07
-2.72549e-07
-9.09196e-07
2.68804e-07
-0.000268842
1.24835e-06
1.21456e-06
-2.38187e-07
-2.43507e-07
0.000266861
1.90512e-09
2.1121e-09
-0.00109564
-1.9914e-09
-1.94804e-09
0.00109564
-0.00109496
-1.21985e-06
-2.16088e-09
3.61831e-09
0.00109496
-2.63916e-07
1.22305e-06
2.62498e-07
9.10017e-07
-2.69868e-07
-9.09317e-07
2.66118e-07
-0.00109462
-1.21442e-06
-2.2857e-09
3.58684e-09
0.00109462
-2.639e-07
1.21758e-06
2.62519e-07
9.09866e-07
-2.7251e-07
-9.09176e-07
2.68849e-07
-0.000268842
1.24833e-06
1.21455e-06
-2.38172e-07
-2.43485e-07
0.000266861
1.96308e-09
2.15518e-09
-0.00109564
-2.01607e-09
-1.95783e-09
0.00109564
-0.00109496
-1.21984e-06
-2.16952e-09
3.6211e-09
0.00109496
-2.6391e-07
1.22307e-06
2.62513e-07
9.10045e-07
-2.69852e-07
-9.09303e-07
2.66152e-07
-0.00109462
-1.21442e-06
-2.37425e-09
3.64125e-09
0.00109462
-2.6391e-07
1.21759e-06
2.62517e-07
9.0994e-07
-2.72467e-07
-9.09112e-07
2.68901e-07
-0.000268842
1.2483e-06
1.21456e-06
-2.38177e-07
-2.43454e-07
0.000266861
2.25883e-09
2.37059e-09
-0.00109564
-2.10126e-09
-2.14376e-09
0.00109564
-0.00109496
-1.21979e-06
-2.34811e-09
3.45737e-09
0.00109496
-2.63864e-07
1.22313e-06
2.62578e-07
9.10121e-07
-2.69812e-07
-9.09258e-07
2.66219e-07
-0.00109462
-1.21438e-06
-2.30535e-09
3.56157e-09
0.00109462
-2.6388e-07
1.21765e-06
2.62579e-07
9.09951e-07
-2.72482e-07
-9.0913e-07
2.68917e-07
-0.000268842
1.24829e-06
1.21452e-06
-2.38136e-07
-2.43441e-07
0.00026686
2.3432e-09
2.43376e-09
-0.00109564
-2.13191e-09
-2.20831e-09
0.00109564
-0.00109496
-1.21979e-06
-2.51043e-09
3.29568e-09
0.00109496
-2.63853e-07
1.22318e-06
2.62626e-07
9.10151e-07
-2.6982e-07
-9.09276e-07
2.66255e-07
-0.00109462
-1.21434e-06
-2.50437e-09
3.34519e-09
0.00109462
-2.63856e-07
1.21774e-06
2.62642e-07
9.09994e-07
-2.72497e-07
-9.09139e-07
2.68951e-07
-0.000268841
1.24829e-06
1.21448e-06
-2.38113e-07
-2.43454e-07
0.00026686
8.66702e-10
7.97412e-10
-0.00109564
-1.38636e-09
-1.54235e-09
0.00109564
-0.00109496
-1.22007e-06
-7.37234e-10
3.93185e-09
0.00109496
-2.64174e-07
1.22284e-06
2.62262e-07
9.09548e-07
-2.70418e-07
-9.09835e-07
2.656e-07
-0.00109462
-1.21479e-06
-5.24919e-10
4.21812e-09
0.00109462
-2.64317e-07
1.21726e-06
2.62171e-07
9.09315e-07
-2.73193e-07
-9.09796e-07
2.68227e-07
-0.000268841
1.24876e-06
1.21495e-06
-2.38641e-07
-2.43982e-07
0.00026686
1.27967e-09
1.73839e-09
-0.00109565
-1.77106e-09
-1.53958e-09
0.00109565
-0.00109496
-1.22007e-06
-1.9091e-09
3.98265e-09
0.00109497
-2.64152e-07
1.22297e-06
2.6241e-07
9.09975e-07
-2.70183e-07
-9.09527e-07
2.65994e-07
-0.00109462
-1.21448e-06
-2.27499e-09
3.56323e-09
0.00109462
-2.63965e-07
1.21764e-06
2.62583e-07
9.09867e-07
-2.72737e-07
-9.0933e-07
2.68789e-07
-0.000268842
1.24835e-06
1.2146e-06
-2.38267e-07
-2.43555e-07
0.000266861
2.17622e-09
2.32489e-09
-0.00109564
-2.12534e-09
-2.13506e-09
0.00109564
-0.00109497
-1.21981e-06
-2.33181e-09
3.4188e-09
0.00109497
-2.63878e-07
1.22316e-06
2.62617e-07
9.10087e-07
-2.69922e-07
-9.09347e-07
2.66175e-07
-0.00109462
-1.21441e-06
-2.31675e-09
3.49576e-09
0.00109462
-2.63897e-07
1.21767e-06
2.62602e-07
9.09913e-07
-2.72592e-07
-9.09221e-07
2.68867e-07
-0.000268843
1.24833e-06
1.21455e-06
-2.38172e-07
-2.43488e-07
0.000266861
1.97218e-09
2.08395e-09
-0.00109564
-1.99486e-09
-2.03642e-09
0.00109564
-0.00109496
-1.21987e-06
-2.09809e-09
3.54075e-09
0.00109496
-2.6395e-07
1.2231e-06
2.62545e-07
9.10034e-07
-2.69985e-07
-9.09405e-07
2.6611e-07
-0.00109462
-1.21446e-06
-2.10304e-09
3.59842e-09
0.00109462
-2.63954e-07
1.21762e-06
2.6255e-07
9.0986e-07
-2.72649e-07
-9.0928e-07
2.68813e-07
-0.000268843
1.24839e-06
1.2146e-06
-2.38228e-07
-2.43554e-07
0.000266861
1.89462e-09
2.03215e-09
-0.00109564
-1.96214e-09
-1.98131e-09
0.00109564
-0.00109496
-1.21989e-06
-2.05114e-09
3.59233e-09
0.00109496
-2.6397e-07
1.22309e-06
2.6253e-07
9.10023e-07
-2.69996e-07
-9.09418e-07
2.66104e-07
-0.00109462
-1.21447e-06
-2.08587e-09
3.6182e-09
0.00109462
-2.63963e-07
1.21761e-06
2.62544e-07
9.09855e-07
-2.72654e-07
-9.09287e-07
2.68812e-07
-0.000268843
1.2484e-06
1.21461e-06
-2.38238e-07
-2.4356e-07
0.000266861
1.88304e-09
2.02543e-09
-0.00109564
-1.95629e-09
-1.97116e-09
0.00109564
-0.00109496
-1.2199e-06
-2.0505e-09
3.60582e-09
0.00109496
-2.63974e-07
1.22308e-06
2.62526e-07
9.10024e-07
-2.69997e-07
-9.09417e-07
2.66101e-07
-0.00109462
-1.21447e-06
-2.08419e-09
3.62682e-09
0.00109462
-2.63965e-07
1.21761e-06
2.6254e-07
9.09853e-07
-2.72654e-07
-9.09287e-07
2.68807e-07
-0.000268843
1.2484e-06
1.21461e-06
-2.38238e-07
-2.4356e-07
0.000266861
1.87578e-09
2.01869e-09
-0.00109564
-1.95137e-09
-1.9658e-09
0.00109564
-0.00109496
-1.2199e-06
-2.04912e-09
3.60765e-09
0.00109496
-2.63974e-07
1.22308e-06
2.62525e-07
9.10022e-07
-2.69994e-07
-9.09416e-07
2.661e-07
-0.00109462
-1.21447e-06
-2.07873e-09
3.63214e-09
0.00109462
-2.63967e-07
1.21761e-06
2.62538e-07
9.09852e-07
-2.72654e-07
-9.09287e-07
2.68806e-07
-0.000268843
1.2484e-06
1.21461e-06
-2.38238e-07
-2.4356e-07
0.000266861
1.8719e-09
2.01912e-09
-0.00109564
-1.95117e-09
-1.96106e-09
0.00109564
-0.00109496
-1.2199e-06
-2.04733e-09
3.61226e-09
0.00109496
-2.63973e-07
1.22308e-06
2.62523e-07
9.10019e-07
-2.69991e-07
-9.09415e-07
2.66097e-07
-0.00109462
-1.21447e-06
-2.08676e-09
3.62959e-09
0.00109462
-2.63965e-07
1.21761e-06
2.62539e-07
9.09851e-07
-2.72651e-07
-9.09284e-07
2.68805e-07
-0.000268843
1.24839e-06
1.21461e-06
-2.38237e-07
-2.43558e-07
0.000266861
1.87487e-09
2.02316e-09
-0.00109564
-1.95476e-09
-1.96392e-09
0.00109564
-0.00109496
-1.2199e-06
-2.04566e-09
3.60917e-09
0.00109496
-2.63969e-07
1.22308e-06
2.6252e-07
9.10012e-07
-2.69984e-07
-9.0941e-07
2.66088e-07
-0.00109462
-1.21447e-06
-2.08678e-09
3.62635e-09
0.00109462
-2.63962e-07
1.21761e-06
2.62538e-07
9.09845e-07
-2.72645e-07
-9.09279e-07
2.68799e-07
-0.000268843
1.24839e-06
1.21461e-06
-2.38235e-07
-2.43555e-07
0.000266861
1.87324e-09
2.02541e-09
-0.00109564
-1.95568e-09
-1.96284e-09
0.00109564
-0.00109496
-1.21989e-06
-2.04922e-09
3.6064e-09
0.00109496
-2.63956e-07
1.22307e-06
2.62509e-07
9.09999e-07
-2.69965e-07
-9.09395e-07
2.66071e-07
-0.00109462
-1.21446e-06
-2.08374e-09
3.62237e-09
0.00109462
-2.63955e-07
1.2176e-06
2.62532e-07
9.0983e-07
-2.72633e-07
-9.09267e-07
2.68787e-07
-0.000268843
1.24839e-06
1.2146e-06
-2.38228e-07
-2.43548e-07
0.000266861
2.02449e-09
-0.00109564
-1.95583e-09
-0.00109462
-1.21446e-06
-2.07841e-09
-2.63933e-07
1.2176e-06
2.62511e-07
-2.72606e-07
2.68758e-07
-1.25686e-06
-1.22038e-06
0.000268859
-0.000266867
2.38752e-07
2.46632e-07
0.00109418
-1.87602e-09
3.81174e-09
-1.25376e-06
2.6785e-07
-2.6943e-07
-9.09346e-07
2.65927e-07
-2.69939e-07
9.09866e-07
1.26236e-06
0.00109462
-1.74033e-09
3.81126e-09
-1.25926e-06
2.7067e-07
-2.72224e-07
-9.15021e-07
2.68715e-07
-2.7283e-07
9.1548e-07
-1.22306e-06
0.000268888
-0.000266888
2.41584e-07
2.43872e-07
0.00109523
-2.00554e-09
3.61435e-09
-1.21727e-06
2.65301e-07
-2.66761e-07
-9.12114e-07
2.68812e-07
-2.72764e-07
9.12766e-07
1.25689e-06
0.00109429
-1.77908e-09
-0.00109429
3.84661e-09
-1.25383e-06
2.70635e-07
-2.72223e-07
-9.12113e-07
2.68713e-07
-2.72728e-07
9.12599e-07
-2.02495e-09
3.61342e-09
-1.21989e-06
2.62487e-07
-2.63944e-07
-9.09373e-07
2.66034e-07
9.0997e-07
-2.69959e-07
1.25146e-06
0.00109408
-1.81087e-09
-0.00109408
3.80894e-09
-1.24837e-06
2.65095e-07
-2.66611e-07
-9.09392e-07
2.65916e-07
-2.69952e-07
9.09877e-07
-1.21757e-06
0.000268837
-0.000266848
2.38958e-07
2.46394e-07
-2.06236e-09
-0.00109462
3.6289e-09
-1.21445e-06
2.62499e-07
-2.6393e-07
-9.09182e-07
2.6873e-07
9.09866e-07
-2.72635e-07
1.21767e-06
0.00109514
-1.86522e-09
-0.00109514
3.61704e-09
-1.21458e-06
2.62538e-07
-2.64007e-07
-9.09488e-07
2.68793e-07
-2.72765e-07
9.10098e-07
-0.000266861
2.41279e-07
2.46645e-07
1.25376e-06
1.21727e-06
-2.35683e-07
-2.43498e-07
0.000266867
-1.25685e-06
-1.22036e-06
0.000268858
-0.000266867
2.38753e-07
2.46635e-07
3.81415e-09
0.00109418
-2.69426e-07
1.25685e-06
2.67846e-07
9.09873e-07
-2.69936e-07
-9.09337e-07
2.65927e-07
-1.25926e-06
-1.72901e-09
3.81605e-09
0.00109462
-2.7222e-07
1.26235e-06
2.70668e-07
9.15492e-07
-2.72823e-07
-9.15006e-07
2.68718e-07
0.00109417
-1.92411e-09
-0.00109418
3.78894e-09
-1.25374e-06
2.67855e-07
-2.69409e-07
-9.09294e-07
2.65961e-07
-2.69895e-07
9.09899e-07
1.26234e-06
0.00109462
-1.77537e-09
-0.00109462
3.80152e-09
-1.25924e-06
2.70672e-07
-2.72206e-07
-9.14978e-07
2.68743e-07
-2.7279e-07
9.15508e-07
-2.38429e-07
-2.40755e-07
0.000266888
-1.22304e-06
0.000268888
-0.000266888
2.41583e-07
2.43877e-07
3.63078e-09
0.00109523
-2.66759e-07
1.22037e-06
2.65296e-07
9.1278e-07
-2.7276e-07
-9.12095e-07
2.68815e-07
-1.25383e-06
-1.79333e-09
3.84194e-09
0.00109429
-2.72223e-07
1.25689e-06
2.70635e-07
9.12604e-07
-2.72719e-07
-9.12101e-07
2.68719e-07
0.00109523
-2.07001e-09
-0.00109523
3.61635e-09
-1.21725e-06
2.65303e-07
-2.66744e-07
-9.12066e-07
2.68848e-07
-2.72716e-07
9.12799e-07
1.2569e-06
0.00109429
-1.85467e-09
-0.00109429
3.80547e-09
-1.25381e-06
2.70648e-07
-2.72205e-07
-9.12083e-07
2.68744e-07
-2.72686e-07
9.12613e-07
-1.82505e-09
3.80024e-09
0.00109408
-2.6661e-07
1.25146e-06
2.65096e-07
9.09883e-07
-2.69944e-07
2.65922e-07
-9.09381e-07
-2.08628e-09
-0.00109496
3.6235e-09
-1.21987e-06
2.62489e-07
-2.63927e-07
-9.09336e-07
2.66067e-07
9.09991e-07
-2.69918e-07
1.25146e-06
0.00109408
-1.87532e-09
-0.00109408
3.76619e-09
-1.24836e-06
2.65108e-07
-2.66592e-07
-9.09366e-07
2.65944e-07
-2.69914e-07
9.0989e-07
-2.35857e-07
-2.43299e-07
0.000266848
-1.21758e-06
0.000268837
-0.000266848
2.38972e-07
2.46407e-07
-1.87985e-09
3.60936e-09
0.00109514
-2.64006e-07
1.21767e-06
2.62539e-07
9.10111e-07
-2.72754e-07
2.68802e-07
-9.09474e-07
-2.14571e-09
-0.00109462
3.606e-09
-1.21444e-06
2.62508e-07
-2.63914e-07
-9.09151e-07
2.6876e-07
9.09884e-07
-2.72594e-07
1.21767e-06
0.00109514
-1.95186e-09
-0.00109514
3.59801e-09
-1.21457e-06
2.62549e-07
-2.6399e-07
-9.09461e-07
2.68827e-07
-2.7272e-07
9.1011e-07
-0.000266861
2.41291e-07
2.4666e-07
1.25374e-06
1.21725e-06
-2.35661e-07
-2.43475e-07
0.000266867
-1.25686e-06
-1.22037e-06
0.000268858
-0.000266866
2.38766e-07
2.46651e-07
3.78612e-09
0.00109417
-2.69405e-07
1.25685e-06
2.67857e-07
9.09884e-07
-2.69892e-07
-9.09307e-07
2.6596e-07
-1.25923e-06
-1.78714e-09
3.79815e-09
0.00109462
-2.72205e-07
1.26234e-06
2.70671e-07
9.15507e-07
-2.72784e-07
-9.14977e-07
2.68747e-07
0.00109417
-1.94838e-09
-0.00109417
3.77751e-09
-1.25373e-06
2.67869e-07
-2.69394e-07
-9.09303e-07
2.6598e-07
-2.69873e-07
9.09892e-07
1.26235e-06
0.00109462
-1.81333e-09
-0.00109462
3.7817e-09
-1.25922e-06
2.70681e-07
-2.72196e-07
-9.14971e-07
2.68767e-07
-2.72765e-07
9.15515e-07
-2.38409e-07
-2.40728e-07
0.000266888
-1.22306e-06
0.000268888
-0.000266888
2.41597e-07
2.43892e-07
3.6178e-09
0.00109523
-2.66742e-07
1.22036e-06
2.65303e-07
9.12797e-07
-2.72714e-07
-9.12062e-07
2.68849e-07
-1.25381e-06
-1.86986e-09
3.80729e-09
0.00109429
-2.72201e-07
1.2569e-06
2.7065e-07
9.12609e-07
-2.72678e-07
-9.12085e-07
2.68752e-07
0.00109523
-2.10597e-09
-0.00109523
3.593e-09
-1.21724e-06
2.65314e-07
-2.66731e-07
-9.12059e-07
2.68873e-07
-2.7269e-07
9.12805e-07
1.25691e-06
0.00109429
-1.86785e-09
-0.00109429
3.80199e-09
-1.2538e-06
2.70657e-07
-2.72192e-07
-9.1209e-07
2.68758e-07
-2.72668e-07
9.12607e-07
-1.89318e-09
3.75801e-09
0.00109408
-2.66587e-07
1.25146e-06
2.65111e-07
9.09891e-07
-2.69907e-07
2.6595e-07
-9.09364e-07
-2.11242e-09
-0.00109496
3.59904e-09
-1.21985e-06
2.625e-07
-2.63915e-07
-9.09334e-07
2.66087e-07
9.09995e-07
-2.69897e-07
1.25147e-06
0.00109408
-1.9011e-09
-0.00109408
3.76271e-09
-1.24835e-06
2.65115e-07
-2.66581e-07
-9.09359e-07
2.65961e-07
-2.69893e-07
9.09896e-07
-2.35839e-07
-2.43281e-07
0.000266848
-1.21758e-06
0.000268837
-0.000266848
2.38982e-07
2.4642e-07
-1.96516e-09
3.58934e-09
0.00109514
-2.63985e-07
1.21767e-06
2.62552e-07
9.10111e-07
-2.72713e-07
2.68833e-07
-9.09461e-07
-2.17222e-09
-0.00109462
3.59665e-09
-1.21443e-06
2.62515e-07
-2.63904e-07
-9.09145e-07
2.68778e-07
9.0989e-07
-2.72573e-07
1.21768e-06
0.00109514
-1.96913e-09
-0.00109514
3.59185e-09
-1.21456e-06
2.62556e-07
-2.63978e-07
-9.09456e-07
2.6884e-07
-2.72702e-07
9.10115e-07
-0.000266861
2.41303e-07
2.4667e-07
1.25372e-06
1.21724e-06
-2.35649e-07
-2.43459e-07
0.000266866
-1.25687e-06
-1.22037e-06
0.000268858
-0.000266866
2.38773e-07
2.46662e-07
3.7851e-09
0.00109417
-2.69393e-07
1.25686e-06
2.67866e-07
9.09883e-07
-2.69876e-07
-9.09311e-07
2.65974e-07
-1.25922e-06
-1.81705e-09
3.77315e-09
0.00109461
-2.72193e-07
1.26236e-06
2.70682e-07
9.15513e-07
-2.72762e-07
-9.1497e-07
2.68768e-07
0.00109417
-1.96407e-09
-0.00109417
3.76412e-09
-1.25372e-06
2.67875e-07
-2.69388e-07
-9.09299e-07
2.65999e-07
-2.6986e-07
9.099e-07
1.26237e-06
0.00109461
-1.83519e-09
-0.00109461
3.74675e-09
-1.2592e-06
2.70695e-07
-2.72181e-07
-9.14971e-07
2.68789e-07
-2.72748e-07
9.15518e-07
-2.38396e-07
-2.40711e-07
0.000266888
-1.22306e-06
0.000268887
-0.000266887
2.41605e-07
2.43912e-07
3.61004e-09
0.00109523
-2.66732e-07
1.22036e-06
2.6531e-07
9.12803e-07
-2.72691e-07
-9.12056e-07
2.6887e-07
-1.2538e-06
-1.8973e-09
3.79087e-09
0.00109429
-2.72191e-07
1.25691e-06
2.70658e-07
9.12614e-07
-2.72665e-07
-9.12086e-07
2.68766e-07
0.00109523
-2.13182e-09
-0.00109523
3.59378e-09
-1.21723e-06
2.65317e-07
-2.66728e-07
-9.12058e-07
2.68896e-07
-2.72672e-07
9.12811e-07
1.25692e-06
0.00109429
-1.86697e-09
-0.00109429
3.76397e-09
-1.25379e-06
2.70672e-07
-2.7218e-07
-9.12086e-07
2.68778e-07
-2.72652e-07
9.12613e-07
-1.92652e-09
3.75478e-09
0.00109408
-2.66582e-07
1.25147e-06
2.65114e-07
9.09897e-07
-2.69892e-07
2.65964e-07
-9.09359e-07
-2.15749e-09
-0.00109496
3.59025e-09
-1.21985e-06
2.62503e-07
-2.6391e-07
-9.09317e-07
2.6612e-07
9.10016e-07
-2.69869e-07
1.25148e-06
0.00109408
-1.92201e-09
-0.00109408
3.734e-09
-1.24833e-06
2.65128e-07
-2.66571e-07
-9.09355e-07
2.6599e-07
-2.69871e-07
9.09905e-07
-2.3583e-07
-2.4327e-07
0.000266848
-1.21759e-06
0.000268837
-0.000266848
2.3899e-07
2.46444e-07
-1.99523e-09
3.58342e-09
0.00109514
-2.63979e-07
1.21768e-06
2.62557e-07
9.10118e-07
-2.72702e-07
2.68844e-07
-9.09455e-07
-2.22172e-09
-0.00109462
3.59194e-09
-1.21442e-06
2.62521e-07
-2.63899e-07
-9.09135e-07
2.68813e-07
9.09907e-07
-2.72546e-07
1.21769e-06
0.00109514
-2.00436e-09
-0.00109514
3.58381e-09
-1.21455e-06
2.62564e-07
-2.63973e-07
-9.09448e-07
2.68869e-07
-2.7268e-07
9.10128e-07
-0.000266861
2.41318e-07
2.4669e-07
1.25372e-06
1.21723e-06
-2.35644e-07
-2.4345e-07
0.000266866
-1.25689e-06
-1.2204e-06
0.000268858
-0.000266866
2.38802e-07
2.46691e-07
3.77766e-09
0.00109417
-2.69391e-07
1.25686e-06
2.67871e-07
9.09888e-07
-2.69864e-07
-9.09311e-07
2.65994e-07
-1.25921e-06
-1.80494e-09
3.76539e-09
0.00109461
-2.72186e-07
1.26236e-06
2.7069e-07
9.15516e-07
-2.72748e-07
-9.14974e-07
2.68789e-07
0.00109417
-2.05531e-09
-0.00109417
3.70421e-09
-1.2537e-06
2.67897e-07
-2.69375e-07
-9.09273e-07
2.66042e-07
-2.69833e-07
9.09946e-07
1.26239e-06
0.00109461
-1.90791e-09
-0.00109461
3.71693e-09
-1.25919e-06
2.70716e-07
-2.72171e-07
-9.14955e-07
2.68824e-07
-2.72728e-07
9.15551e-07
-2.38391e-07
-2.40699e-07
0.000266887
-1.22308e-06
0.000268887
-0.000266887
2.41627e-07
2.43936e-07
3.62157e-09
0.00109523
-2.66732e-07
1.22037e-06
2.65313e-07
9.1281e-07
-2.72673e-07
-9.12056e-07
2.68897e-07
-1.25378e-06
-1.90167e-09
3.74533e-09
0.00109429
-2.72174e-07
1.25693e-06
2.70677e-07
9.12615e-07
-2.72652e-07
-9.12087e-07
2.68781e-07
0.00109523
-2.22453e-09
-0.00109523
3.57197e-09
-1.21721e-06
2.65337e-07
-2.66719e-07
-9.12036e-07
2.68936e-07
-2.72645e-07
9.12847e-07
1.25695e-06
0.00109429
-1.91518e-09
-0.00109429
3.69891e-09
-1.25375e-06
2.70697e-07
-2.72156e-07
-9.12053e-07
2.68819e-07
-2.72625e-07
9.1266e-07
-1.96177e-09
3.70604e-09
0.00109408
-2.66566e-07
1.25149e-06
2.65132e-07
9.09906e-07
-2.69865e-07
2.65996e-07
-9.09353e-07
-2.22601e-09
-0.00109496
3.57429e-09
-1.21984e-06
2.62517e-07
-2.63906e-07
-9.09296e-07
2.66154e-07
9.10049e-07
-2.69847e-07
1.25152e-06
0.00109408
-1.92274e-09
-0.00109408
3.67252e-09
-1.2483e-06
2.65158e-07
-2.66544e-07
-9.09343e-07
2.66013e-07
-2.69856e-07
9.09924e-07
-2.35825e-07
-2.43243e-07
0.000266848
-1.21759e-06
0.000268837
-0.000266848
2.3901e-07
2.46483e-07
-2.07778e-09
3.57452e-09
0.00109514
-2.63971e-07
1.21769e-06
2.62564e-07
9.1014e-07
-2.72669e-07
2.68882e-07
-9.09439e-07
-2.3521e-09
-0.00109462
3.61397e-09
-1.21441e-06
2.62524e-07
-2.63896e-07
-9.09066e-07
2.68877e-07
9.09983e-07
-2.72489e-07
1.21768e-06
0.00109514
-2.15357e-09
-0.00109514
3.60785e-09
-1.21455e-06
2.62563e-07
-2.63973e-07
-9.09374e-07
2.68938e-07
-2.72622e-07
9.10213e-07
-0.000266861
2.41326e-07
2.46735e-07
1.2537e-06
1.21722e-06
-2.3562e-07
-2.43428e-07
0.000266866
-1.25692e-06
-1.22043e-06
0.000268858
-0.000266866
2.38845e-07
2.46726e-07
3.74758e-09
0.00109417
-2.6938e-07
1.25688e-06
2.67887e-07
9.0994e-07
-2.69835e-07
-9.09274e-07
2.66038e-07
-1.25919e-06
-1.84013e-09
3.76787e-09
0.00109461
-2.72177e-07
1.26238e-06
2.70704e-07
9.15549e-07
-2.72728e-07
-9.14954e-07
2.68823e-07
0.00109417
-2.29069e-09
-0.00109417
3.65544e-09
-1.25368e-06
2.67932e-07
-2.69357e-07
-9.09215e-07
2.66107e-07
-2.69791e-07
9.10014e-07
1.26242e-06
0.00109461
-2.14863e-09
-0.00109461
3.6683e-09
-1.25918e-06
2.70748e-07
-2.72155e-07
-9.14895e-07
2.68897e-07
-2.72681e-07
9.15627e-07
-2.38373e-07
-2.4068e-07
0.000266887
-1.22312e-06
0.000268887
-0.000266887
2.41679e-07
2.43967e-07
3.6229e-09
0.00109523
-2.66723e-07
1.22039e-06
2.65329e-07
9.12844e-07
-2.72651e-07
-9.12034e-07
2.68932e-07
-1.25376e-06
-1.9241e-09
3.72164e-09
0.00109428
-2.72167e-07
1.25695e-06
2.70689e-07
9.1267e-07
-2.72626e-07
-9.12048e-07
2.68821e-07
0.00109523
-2.44087e-09
-0.00109523
3.47046e-09
-1.21719e-06
2.65384e-07
-2.66689e-07
-9.11988e-07
2.69001e-07
-2.72606e-07
9.12912e-07
1.25698e-06
0.00109428
-2.14365e-09
-0.00109428
3.66579e-09
-1.25374e-06
2.70731e-07
-2.72146e-07
-9.12011e-07
2.6888e-07
-2.7259e-07
9.12726e-07
-1.93168e-09
3.67773e-09
0.00109408
-2.6655e-07
1.25152e-06
2.65156e-07
9.09934e-07
-2.69861e-07
2.66013e-07
-9.09344e-07
-2.44975e-09
-0.00109496
3.47254e-09
-1.21981e-06
2.62573e-07
-2.63874e-07
-9.09256e-07
2.66218e-07
9.10114e-07
-2.69816e-07
1.25155e-06
0.00109408
-2.17552e-09
-0.00109408
3.6108e-09
-1.24828e-06
2.65197e-07
-2.66528e-07
-9.09294e-07
2.66084e-07
-2.69816e-07
9.10005e-07
-2.35816e-07
-2.43222e-07
0.000266848
-1.21765e-06
0.000268836
-0.000266847
2.39054e-07
2.46503e-07
-2.20489e-09
3.62816e-09
0.00109514
-2.63986e-07
1.21768e-06
2.62556e-07
9.10234e-07
-2.72614e-07
2.68949e-07
-9.09359e-07
-2.48681e-09
-0.00109462
3.52291e-09
-1.21439e-06
2.62573e-07
-2.63878e-07
-9.09061e-07
2.68915e-07
9.10013e-07
-2.72478e-07
1.21774e-06
0.00109513
-2.32352e-09
-0.00109514
3.49788e-09
-1.21452e-06
2.62613e-07
-2.63954e-07
-9.09343e-07
2.68988e-07
-2.72591e-07
9.10257e-07
-0.00026686
2.41372e-07
2.46762e-07
1.25367e-06
1.21718e-06
-2.35589e-07
-2.43405e-07
0.000266866
-1.25688e-06
-1.22042e-06
0.000268857
-0.000266865
2.38849e-07
2.46706e-07
3.64868e-09
0.00109417
-2.69351e-07
1.25693e-06
2.67941e-07
9.10014e-07
-2.69787e-07
-9.09225e-07
2.66112e-07
-1.25917e-06
-2.15436e-09
3.67239e-09
0.00109461
-2.72151e-07
1.26243e-06
2.70755e-07
9.15637e-07
-2.72671e-07
-9.14892e-07
2.68906e-07
0.00109417
-2.14275e-09
-0.00109417
3.77029e-09
-1.25373e-06
2.67906e-07
-2.69393e-07
-9.09255e-07
2.66099e-07
-2.69821e-07
9.09991e-07
1.26238e-06
0.00109461
-2.01363e-09
-0.00109461
3.76908e-09
-1.25922e-06
2.70722e-07
-2.72193e-07
-9.14926e-07
2.68894e-07
-2.72706e-07
9.15612e-07
-2.38333e-07
-2.4066e-07
0.000266887
-1.22313e-06
0.000268886
-0.000266886
2.4169e-07
2.43951e-07
3.44772e-09
0.00109523
-2.66682e-07
1.22045e-06
2.65393e-07
9.12916e-07
-2.72608e-07
-9.1199e-07
2.69001e-07
-1.25375e-06
-2.06144e-09
3.75802e-09
0.00109428
-2.72157e-07
1.25698e-06
2.70728e-07
9.12733e-07
-2.72604e-07
-9.12014e-07
2.68875e-07
0.00109523
-2.26241e-09
-0.00109523
3.48156e-09
-1.21721e-06
2.65387e-07
-2.66702e-07
-9.12047e-07
2.68982e-07
-2.7265e-07
9.12874e-07
1.25697e-06
0.00109428
-2.19578e-09
-0.00109428
3.72232e-09
-1.2538e-06
2.70712e-07
-2.72199e-07
-9.12035e-07
2.68892e-07
-2.72616e-07
9.12742e-07
-2.06937e-09
3.71345e-09
0.00109408
-2.66542e-07
1.25154e-06
2.65189e-07
9.10013e-07
-2.6983e-07
2.66076e-07
-9.09295e-07
-2.34199e-09
-0.00109496
3.44414e-09
-1.21982e-06
2.6259e-07
-2.63878e-07
-9.09312e-07
2.66214e-07
9.1009e-07
-2.69853e-07
1.25154e-06
0.00109408
-2.24869e-09
-0.00109408
3.66248e-09
-1.24834e-06
2.6518e-07
-2.66583e-07
-9.09318e-07
2.661e-07
-2.69841e-07
9.10026e-07
-2.35778e-07
-2.4321e-07
0.000266847
-1.21768e-06
0.000268836
-0.000266847
2.39079e-07
2.4649e-07
-2.14159e-09
3.54599e-09
0.00109513
-2.63957e-07
1.21774e-06
2.62618e-07
9.10237e-07
-2.72627e-07
2.68962e-07
-9.09375e-07
-2.45794e-09
-0.00109462
3.42501e-09
-1.21439e-06
2.626e-07
-2.63887e-07
-9.09123e-07
2.68902e-07
9.09995e-07
-2.72531e-07
1.21777e-06
0.00109513
-2.26539e-09
-0.00109513
3.42151e-09
-1.21453e-06
2.62637e-07
-2.63968e-07
-9.09424e-07
2.68972e-07
-2.72654e-07
9.10232e-07
-0.00026686
2.41397e-07
2.46747e-07
1.2537e-06
1.21718e-06
-2.35598e-07
-2.43439e-07
0.000266865
-1.25674e-06
-1.22032e-06
0.000268857
-0.000266865
2.38685e-07
2.46507e-07
3.61528e-09
0.00109417
-2.69383e-07
1.25694e-06
2.67945e-07
9.10033e-07
-2.6981e-07
-9.09252e-07
2.66131e-07
-1.25919e-06
-2.23293e-09
3.61985e-09
0.00109461
-2.72181e-07
1.26245e-06
2.70762e-07
9.15658e-07
-2.72692e-07
-9.14916e-07
2.68925e-07
0.00109417
-1.67349e-09
-0.00109417
4.11339e-09
-1.25383e-06
2.6773e-07
-2.69542e-07
-9.09399e-07
2.65881e-07
-2.69993e-07
9.09806e-07
1.2622e-06
0.00109461
-1.57269e-09
-0.00109461
4.20095e-09
-1.25936e-06
2.70518e-07
-2.72366e-07
-9.15072e-07
2.68679e-07
-2.72878e-07
9.15426e-07
-2.38336e-07
-2.40687e-07
0.000266886
-1.22301e-06
0.000268886
-0.000266886
2.41517e-07
2.43709e-07
3.31875e-09
0.00109523
-2.66683e-07
1.22049e-06
2.65429e-07
9.12925e-07
-2.72639e-07
-9.12028e-07
2.69011e-07
-1.25375e-06
-2.30997e-09
3.66919e-09
0.00109428
-2.72177e-07
1.25703e-06
2.7075e-07
9.12796e-07
-2.72602e-07
-9.12002e-07
2.68927e-07
0.00109523
-1.44368e-09
-0.00109523
3.61118e-09
-1.21728e-06
2.65241e-07
-2.66818e-07
-9.12265e-07
2.68684e-07
-2.72897e-07
9.1261e-07
1.2566e-06
0.00109428
-9.14009e-10
-0.00109428
4.65889e-09
-1.25411e-06
2.70326e-07
-2.72539e-07
-9.12393e-07
2.68437e-07
-2.73007e-07
9.12319e-07
-2.35705e-09
3.62824e-09
0.00109408
-2.66557e-07
1.2516e-06
2.65216e-07
9.10086e-07
-2.6982e-07
2.66137e-07
-9.09274e-07
-1.25935e-09
-0.00109496
3.59468e-09
-1.2199e-06
2.62431e-07
-2.64006e-07
-9.09612e-07
2.65829e-07
9.09731e-07
-2.70172e-07
1.25117e-06
0.00109408
-7.94456e-10
-0.00109408
4.57628e-09
-1.24865e-06
2.64794e-07
-2.66925e-07
-9.09724e-07
2.65591e-07
-2.70277e-07
9.09545e-07
-2.35756e-07
-2.43224e-07
0.000266847
-1.21735e-06
0.000268836
-0.000266847
2.38692e-07
2.46069e-07
-2.32825e-09
3.34452e-09
0.00109513
-2.63936e-07
1.21783e-06
2.62679e-07
9.10285e-07
-2.72639e-07
2.69e-07
-9.09379e-07
-8.22672e-10
-0.00109461
4.11609e-09
-1.21466e-06
2.62247e-07
-2.64192e-07
-9.09552e-07
2.68365e-07
9.09494e-07
-2.72996e-07
1.21742e-06
0.00109513
-6.58542e-10
-0.00109513
4.16152e-09
-1.21482e-06
2.62269e-07
-2.64288e-07
-9.09848e-07
2.68436e-07
-2.73119e-07
9.09733e-07
-0.00026686
2.40985e-07
2.46326e-07
1.25402e-06
1.21747e-06
-2.35906e-07
-2.43774e-07
0.000266865
-1.25672e-06
-1.22017e-06
0.000268858
-0.000266866
2.3847e-07
2.46416e-07
4.39447e-09
0.00109417
-2.69727e-07
1.25657e-06
2.67553e-07
9.09532e-07
-2.70268e-07
-9.09676e-07
2.65595e-07
-1.25954e-06
-7.91526e-10
4.43391e-09
0.00109461
-2.72548e-07
1.26205e-06
2.70353e-07
9.15162e-07
-2.7314e-07
-9.15336e-07
2.68404e-07
0.00109418
-7.67355e-10
-0.00109417
4.05829e-09
-1.254e-06
2.67716e-07
-2.69703e-07
-9.09831e-07
2.65561e-07
-2.70486e-07
9.09551e-07
1.26226e-06
0.00109462
-6.1964e-10
-0.00109461
3.9619e-09
-1.25946e-06
2.70565e-07
-2.72471e-07
-9.15507e-07
2.68346e-07
-2.73376e-07
9.15164e-07
-2.38646e-07
-2.41062e-07
0.000266886
-1.22284e-06
0.000268887
-0.000266887
2.41287e-07
2.437e-07
3.98582e-09
0.00109523
-2.67006e-07
1.22013e-06
2.65054e-07
9.12379e-07
-2.7316e-07
-9.12511e-07
2.68422e-07
-1.25423e-06
-4.53536e-10
4.65056e-09
0.00109428
-2.72662e-07
1.25654e-06
2.70258e-07
9.12153e-07
-2.73237e-07
-9.12607e-07
2.68251e-07
0.00109523
-1.23466e-09
-0.00109523
4.18436e-09
-1.21757e-06
2.65102e-07
-2.67088e-07
-9.12517e-07
2.68526e-07
-2.7324e-07
9.12541e-07
1.25694e-06
0.00109429
-1.28384e-09
-0.00109429
3.56847e-09
-1.25391e-06
2.70694e-07
-2.72312e-07
-9.12451e-07
2.68531e-07
-2.73093e-07
9.12435e-07
-4.03164e-10
4.55149e-09
0.00109408
-2.67035e-07
1.25111e-06
2.64737e-07
9.09401e-07
-2.70502e-07
2.65421e-07
-9.09928e-07
-1.44031e-09
-0.00109496
4.2179e-09
-1.2202e-06
2.62269e-07
-2.64286e-07
-9.09695e-07
2.65809e-07
9.09824e-07
-2.70379e-07
1.25149e-06
0.00109408
-1.43162e-09
-0.00109408
3.60688e-09
-1.24846e-06
2.6514e-07
-2.66711e-07
-9.09688e-07
2.65768e-07
-2.70284e-07
9.09755e-07
-2.3626e-07
-2.43755e-07
0.000266847
-1.21755e-06
0.000268837
-0.000266848
2.38871e-07
2.46373e-07
-3.55621e-10
4.22951e-09
0.00109513
-2.64408e-07
1.21734e-06
2.622e-07
9.09607e-07
-2.73334e-07
2.68278e-07
-9.10033e-07
-1.88363e-09
-0.00109462
3.7168e-09
-1.21459e-06
2.62485e-07
-2.64081e-07
-9.0944e-07
2.68617e-07
9.09784e-07
-2.72935e-07
1.21767e-06
0.00109514
-1.67573e-09
-0.00109514
3.64404e-09
-1.21471e-06
2.62546e-07
-2.64139e-07
-9.09743e-07
2.68675e-07
-2.73067e-07
9.10011e-07
-0.000266861
2.41217e-07
2.46614e-07
1.25385e-06
1.21744e-06
-2.3592e-07
-2.43665e-07
0.000266866
-1.25698e-06
-1.22048e-06
0.000268859
-0.000266867
2.38869e-07
2.46759e-07
3.82754e-09
0.00109418
-2.69545e-07
1.25686e-06
2.67866e-07
9.09727e-07
-2.70299e-07
-9.09659e-07
2.65755e-07
-1.25932e-06
-1.16291e-09
3.74509e-09
0.00109462
-2.72313e-07
1.26239e-06
2.70711e-07
9.15347e-07
-2.73191e-07
-9.15329e-07
2.68539e-07
0.00109418
-2.19163e-09
-0.00109418
3.59905e-09
-1.25368e-06
2.68001e-07
-2.69345e-07
-9.09307e-07
2.66068e-07
-2.69918e-07
9.10008e-07
1.26248e-06
0.00109462
-2.05179e-09
-0.00109462
3.59679e-09
-1.25916e-06
2.7082e-07
-2.72137e-07
-9.14987e-07
2.68851e-07
-2.72814e-07
9.15619e-07
-2.38682e-07
-2.4088e-07
0.000266888
-1.22317e-06
0.000268888
-0.000266888
2.41699e-07
2.44004e-07
3.95645e-09
0.00109523
-2.6695e-07
1.2203e-06
2.65242e-07
9.1272e-07
-2.7304e-07
-9.12328e-07
2.68724e-07
-1.25379e-06
-1.70254e-09
3.43596e-09
0.00109429
-2.72184e-07
1.25703e-06
2.70794e-07
9.12581e-07
-2.72924e-07
-9.12289e-07
2.68683e-07
0.00109523
-2.38308e-09
-0.00109523
3.44703e-09
-1.2172e-06
2.65438e-07
-2.66697e-07
-9.12061e-07
2.68973e-07
-2.72715e-07
9.12916e-07
1.25701e-06
0.00109429
-2.09401e-09
-0.00109429
3.62772e-09
-1.25376e-06
2.70775e-07
-2.72151e-07
-9.12093e-07
2.68843e-07
-2.72707e-07
9.12717e-07
-1.82613e-09
3.46199e-09
0.00109408
-2.66586e-07
1.25158e-06
2.65239e-07
9.0989e-07
-2.70119e-07
2.6591e-07
-9.09532e-07
-2.39676e-09
-0.00109497
3.44204e-09
-1.21982e-06
2.62626e-07
-2.6388e-07
-9.09335e-07
2.6619e-07
9.10105e-07
-2.69917e-07
1.25158e-06
0.00109408
-2.12212e-09
-0.00109408
3.59229e-09
-1.2483e-06
2.65235e-07
-2.6654e-07
-9.09372e-07
2.66044e-07
-2.69931e-07
9.09994e-07
-2.35934e-07
-2.43307e-07
0.000266848
-1.21768e-06
0.000268837
-0.000266848
2.39072e-07
2.46513e-07
-2.06875e-09
3.49548e-09
0.00109514
-2.64022e-07
1.21775e-06
2.6264e-07
9.1015e-07
-2.72891e-07
2.68825e-07
-9.09579e-07
-2.42354e-09
-0.00109462
3.46423e-09
-1.21439e-06
2.62625e-07
-2.63877e-07
-9.09148e-07
2.68868e-07
9.0999e-07
-2.72597e-07
1.21778e-06
0.00109514
-2.23946e-09
-0.00109514
3.45032e-09
-1.21453e-06
2.62662e-07
-2.63955e-07
-9.09441e-07
2.68934e-07
-2.72722e-07
9.10226e-07
-0.000266861
2.41388e-07
2.46765e-07
1.25369e-06
1.2172e-06
-2.35608e-07
-2.4342e-07
0.000266867
-1.2569e-06
-1.22042e-06
0.000268858
-0.000266867
2.38805e-07
2.46676e-07
3.6309e-09
0.00109418
-2.69362e-07
1.25696e-06
2.67977e-07
9.1e-07
-2.69901e-07
-9.09304e-07
2.66071e-07
-1.25918e-06
-2.06549e-09