/*--------------------------------*- C++ -*----------------------------------*\
| =========                 |                                                 |
| \\      /  F ield         | OpenFOAM: The Open Source CFD Toolbox           |
|  \\    /   O peration     | Version:  2206                                  |
|   \\  /    A nd           | Website:  www.openfoam.com                      |
|    \\/     M anipulation  |                                                 |
\*---------------------------------------------------------------------------*/
FoamFile
{
    version     2.0;
    format      ascii;
    arch        "LSB;label=32;scalar=64";
    class       volVectorField;
    location    "38";
    object      U;
}
// * * * * * * * * * * * * * * * * * * * * * * * * * * * * * * * * * * * * * //

dimensions      [0 1 -1 0 0 0 0];

internalField   nonuniform List<vector> 
28448
(
(-9.21155e-07 -9.19902e-07 0.104087)
(-6.22291e-07 9.58807e-07 0.103955)
(9.57162e-07 -6.15112e-07 0.103955)
(-4.84386e-05 -4.84459e-05 0.103777)
(-9.26561e-07 -9.23253e-07 0.104087)
(-6.1402e-07 9.55209e-07 0.103955)
(9.53822e-07 -6.06856e-07 0.103955)
(-4.84323e-05 -4.84391e-05 0.103777)
(-9.27139e-07 -9.22827e-07 0.104087)
(-6.08588e-07 9.52087e-07 0.103955)
(9.52162e-07 -6.01544e-07 0.103955)
(-4.84286e-05 -4.84358e-05 0.103777)
(-9.28089e-07 -9.21613e-07 0.104087)
(-6.06942e-07 9.5549e-07 0.103955)
(9.5248e-07 -5.93852e-07 0.103955)
(-4.84243e-05 -4.84284e-05 0.103777)
(-9.31462e-07 -9.24576e-07 0.104087)
(-6.0583e-07 9.55851e-07 0.103955)
(9.60255e-07 -5.84965e-07 0.103955)
(-4.84266e-05 -4.84169e-05 0.103777)
(-9.42249e-07 -9.43715e-07 0.104086)
(-5.84415e-07 9.35934e-07 0.103955)
(9.49209e-07 -5.87991e-07 0.103955)
(-4.84098e-05 -4.8411e-05 0.103777)
(-9.435e-07 -9.48451e-07 0.104086)
(-5.63029e-07 9.1389e-07 0.103955)
(9.129e-07 -5.56613e-07 0.103955)
(-4.84055e-05 -4.84208e-05 0.103777)
(-8.49055e-07 -8.63706e-07 0.104086)
(-7.52073e-07 1.01769e-06 0.103955)
(1.04374e-06 -7.61821e-07 0.103955)
(-4.8595e-05 -4.86104e-05 0.103777)
(-8.95857e-07 -8.69932e-07 0.104087)
(-6.26168e-07 9.85321e-07 0.103955)
(9.40224e-07 -5.9785e-07 0.103955)
(-4.84563e-05 -4.84504e-05 0.103777)
(-9.45186e-07 -9.43664e-07 0.104087)
(-5.91323e-07 9.28229e-07 0.103955)
(9.37336e-07 -5.91363e-07 0.103955)
(-4.84276e-05 -4.84328e-05 0.103777)
(-9.27412e-07 -9.2928e-07 0.104087)
(-6.13497e-07 9.47326e-07 0.103955)
(9.52312e-07 -6.10186e-07 0.103955)
(-4.84488e-05 -4.84575e-05 0.103777)
(-9.23126e-07 -9.22736e-07 0.104087)
(-6.17736e-07 9.53192e-07 0.103955)
(9.54914e-07 -6.12133e-07 0.103955)
(-4.84524e-05 -4.84597e-05 0.103777)
(-9.22488e-07 -9.21707e-07 0.104087)
(-6.17939e-07 9.54808e-07 0.103955)
(9.55842e-07 -6.12443e-07 0.103955)
(-4.84527e-05 -4.84596e-05 0.103777)
(-9.21835e-07 -9.21034e-07 0.104087)
(-6.18094e-07 9.55027e-07 0.103955)
(9.56509e-07 -6.12948e-07 0.103955)
(-4.84527e-05 -4.84597e-05 0.103777)
(-9.21739e-07 -9.2057e-07 0.104087)
(-6.18184e-07 9.55396e-07 0.103955)
(9.56062e-07 -6.12267e-07 0.103955)
(-4.84522e-05 -4.84588e-05 0.103777)
(-9.22094e-07 -9.20843e-07 0.104087)
(-6.1828e-07 9.55008e-07 0.103955)
(9.55655e-07 -6.12202e-07 0.103955)
(-4.84515e-05 -4.84579e-05 0.103777)
(-9.22187e-07 -9.206e-07 0.104087)
(-6.17848e-07 9.54505e-07 0.103955)
(9.55132e-07 -6.12441e-07 0.103955)
(-4.84479e-05 -4.84544e-05 0.103777)
(-9.21818e-07 -9.19832e-07 0.104087)
(9.54084e-07 -6.13485e-07 0.103955)
(-5.09621e-05 -5.09326e-05 0.103787)
(9.8683e-07 6.40629e-07 0.103955)
(-9.90749e-07 6.58931e-07 0.103955)
(5.09649e-05 -5.09404e-05 0.103787)
(6.21929e-07 9.618e-07 0.103955)
(6.50599e-07 -9.89243e-07 0.103955)
(-6.21981e-07 9.57357e-07 0.103955)
(-6.56082e-07 -9.77886e-07 0.103955)
(-5.09246e-05 5.09578e-05 0.103787)
(9.57991e-07 -6.15384e-07 0.103955)
(-9.54819e-07 -6.30751e-07 0.103955)
(5.09203e-05 5.09483e-05 0.103787)
(4.84421e-05 4.84297e-05 0.103777)
(-5.09542e-05 -5.09239e-05 0.103787)
(9.87322e-07 6.47654e-07 0.103955)
(-9.91733e-07 6.6087e-07 0.103955)
(9.83532e-07 6.34954e-07 0.103955)
(-9.88938e-07 6.54306e-07 0.103955)
(-4.8439e-05 4.84062e-05 0.103777)
(5.09574e-05 -5.09315e-05 0.103787)
(6.24752e-07 9.63978e-07 0.103955)
(6.49276e-07 -9.88412e-07 0.103955)
(6.15203e-07 9.60367e-07 0.103955)
(6.42249e-07 -9.84341e-07 0.103955)
(-6.56072e-07 -9.76994e-07 0.103955)
(-6.14343e-07 9.56094e-07 0.103955)
(-6.49114e-07 -9.73101e-07 0.103955)
(4.84189e-05 -4.84567e-05 0.103777)
(-5.09274e-05 5.09614e-05 0.103787)
(-9.54018e-07 -6.29611e-07 0.103955)
(9.54599e-07 -6.07208e-07 0.103955)
(-9.51721e-07 -6.21805e-07 0.103955)
(5.09231e-05 5.09519e-05 0.103787)
(4.84319e-05 4.84204e-05 0.103777)
(-5.09604e-05 -5.09286e-05 0.103787)
(9.83002e-07 6.39364e-07 0.103955)
(-9.88957e-07 6.53549e-07 0.103955)
(9.81444e-07 6.31348e-07 0.103955)
(-9.86671e-07 6.49209e-07 0.103955)
(-4.84282e-05 4.8397e-05 0.103777)
(5.09625e-05 -5.09368e-05 0.103787)
(6.16034e-07 9.61173e-07 0.103955)
(6.40305e-07 -9.83933e-07 0.103955)
(6.10731e-07 9.58036e-07 0.103955)
(6.39481e-07 -9.83291e-07 0.103955)
(-6.48446e-07 -9.72402e-07 0.103955)
(-6.10688e-07 9.53132e-07 0.103955)
(-6.45209e-07 -9.72683e-07 0.103955)
(4.84128e-05 -4.84496e-05 0.103777)
(-5.09308e-05 5.09663e-05 0.103787)
(-9.50881e-07 -6.20716e-07 0.103955)
(9.53703e-07 -6.03153e-07 0.103955)
(-9.51163e-07 -6.19209e-07 0.103955)
(5.09275e-05 5.09553e-05 0.103787)
(4.84254e-05 4.84153e-05 0.103777)
(-5.09639e-05 -5.0931e-05 0.103787)
(9.82476e-07 6.3684e-07 0.103955)
(-9.86014e-07 6.49113e-07 0.103955)
(9.78927e-07 6.28233e-07 0.103955)
(-9.81755e-07 6.45413e-07 0.103955)
(-4.84217e-05 4.83911e-05 0.103777)
(5.09697e-05 -5.09391e-05 0.103787)
(6.11922e-07 9.60412e-07 0.103955)
(6.36113e-07 -9.81603e-07 0.103955)
(6.06731e-07 9.56642e-07 0.103955)
(6.40167e-07 -9.79814e-07 0.103955)
(-6.43769e-07 -9.71707e-07 0.103955)
(-6.05631e-07 9.5147e-07 0.103955)
(-6.4318e-07 -9.69391e-07 0.103955)
(4.84096e-05 -4.8445e-05 0.103777)
(-5.09337e-05 5.09742e-05 0.103787)
(-9.49926e-07 -6.16718e-07 0.103955)
(9.53345e-07 -5.98794e-07 0.103955)
(-9.50274e-07 -6.17033e-07 0.103955)
(5.0932e-05 5.09623e-05 0.103787)
(4.84221e-05 4.8413e-05 0.103777)
(-5.09746e-05 -5.09416e-05 0.103787)
(9.82006e-07 6.37934e-07 0.103955)
(-9.85852e-07 6.49679e-07 0.103955)
(9.71197e-07 6.18065e-07 0.103955)
(-9.76221e-07 6.3716e-07 0.103955)
(-4.84168e-05 4.839e-05 0.103777)
(5.09791e-05 -5.09468e-05 0.103787)
(6.10829e-07 9.61204e-07 0.103955)
(6.37127e-07 -9.77585e-07 0.103955)
(5.97362e-07 9.51392e-07 0.103955)
(6.34587e-07 -9.72901e-07 0.103955)
(-6.40972e-07 -9.66738e-07 0.103955)
(-5.97633e-07 9.47775e-07 0.103955)
(-6.4273e-07 -9.62018e-07 0.103955)
(4.8408e-05 -4.84365e-05 0.103777)
(-5.09392e-05 5.09881e-05 0.103787)
(-9.49088e-07 -6.10828e-07 0.103955)
(9.55873e-07 -5.84814e-07 0.103955)
(-9.53817e-07 -6.01893e-07 0.103955)
(5.09338e-05 5.09785e-05 0.103787)
(4.84152e-05 4.84053e-05 0.103777)
(-5.09859e-05 -5.09567e-05 0.103787)
(9.80024e-07 6.31239e-07 0.103955)
(-9.85721e-07 6.45478e-07 0.103955)
(9.63746e-07 5.95249e-07 0.103955)
(-9.68474e-07 6.13341e-07 0.103955)
(-4.84105e-05 4.83841e-05 0.103777)
(5.09894e-05 -5.09657e-05 0.103787)
(6.06971e-07 9.60616e-07 0.103955)
(6.34344e-07 -9.76843e-07 0.103955)
(5.74193e-07 9.39175e-07 0.103955)
(6.08896e-07 -9.62418e-07 0.103955)
(-6.43892e-07 -9.6455e-07 0.103955)
(-5.7235e-07 9.33977e-07 0.103955)
(-6.13348e-07 -9.4908e-07 0.103955)
(4.84056e-05 -4.8429e-05 0.103777)
(-5.09596e-05 5.09994e-05 0.103787)
(-9.57604e-07 -5.97747e-07 0.103955)
(9.39585e-07 -5.67472e-07 0.103955)
(-9.36815e-07 -5.80708e-07 0.103955)
(5.09551e-05 5.09921e-05 0.103787)
(4.84086e-05 4.83951e-05 0.103777)
(-5.09776e-05 -5.09582e-05 0.103787)
(9.62336e-07 6.00439e-07 0.103955)
(-9.69262e-07 6.12889e-07 0.103955)
(9.8313e-07 6.16241e-07 0.103955)
(-9.86495e-07 6.33018e-07 0.103955)
(-4.84048e-05 4.83699e-05 0.103777)
(5.09824e-05 -5.0971e-05 0.103787)
(5.81214e-07 9.38664e-07 0.103955)
(6.19082e-07 -9.75883e-07 0.103955)
(5.9715e-07 9.47348e-07 0.103955)
(6.03061e-07 -9.65781e-07 0.103955)
(-6.28367e-07 -9.65315e-07 0.103955)
(-5.87048e-07 9.3705e-07 0.103955)
(-6.04124e-07 -9.51395e-07 0.103955)
(4.83901e-05 -4.84236e-05 0.103777)
(-5.09708e-05 5.0994e-05 0.103787)
(-9.47731e-07 -6.00841e-07 0.103955)
(9.25399e-07 -5.68293e-07 0.103955)
(-9.23486e-07 -5.83666e-07 0.103955)
(5.0966e-05 5.09869e-05 0.103787)
(4.84282e-05 4.84047e-05 0.103777)
(-5.09212e-05 -5.09151e-05 0.103787)
(9.55268e-07 5.91128e-07 0.103955)
(-9.59468e-07 6.03968e-07 0.103955)
(1.03487e-06 6.6963e-07 0.103955)
(-1.04824e-06 6.84091e-07 0.103955)
(-4.84222e-05 4.83763e-05 0.103777)
(5.09102e-05 -5.09237e-05 0.103787)
(5.71927e-07 9.20901e-07 0.103955)
(5.85367e-07 -9.5407e-07 0.103955)
(6.82895e-07 9.83586e-07 0.103955)
(7.36433e-07 -1.09225e-06 0.103954)
(-5.88936e-07 -9.42678e-07 0.103955)
(-7.01218e-07 9.75363e-07 0.103955)
(-7.59057e-07 -1.07765e-06 0.103954)
(4.83855e-05 -4.8434e-05 0.103777)
(-5.08406e-05 5.08509e-05 0.103787)
(-9.11918e-07 -5.69303e-07 0.103955)
(1.03403e-06 -7.33287e-07 0.103955)
(-1.03825e-06 -7.47364e-07 0.103955)
(5.08265e-05 5.0844e-05 0.103787)
(4.85411e-05 4.85078e-05 0.103777)
(-5.0897e-05 -5.08414e-05 0.103787)
(1.07517e-06 7.49875e-07 0.103955)
(-1.08364e-06 7.58889e-07 0.103955)
(1.01377e-06 7.34985e-07 0.103955)
(-1.00844e-06 7.54072e-07 0.103955)
(-4.855e-05 4.84816e-05 0.103777)
(5.09157e-05 -5.08428e-05 0.103787)
(7.47047e-07 1.0307e-06 0.103955)
(7.77018e-07 -1.09477e-06 0.103955)
(6.89168e-07 1.01535e-06 0.103955)
(6.94535e-07 -9.6282e-07 0.103955)
(-7.93649e-07 -1.07794e-06 0.103955)
(-6.70794e-07 1.01819e-06 0.103955)
(-6.90452e-07 -9.58073e-07 0.103955)
(4.85662e-05 -4.86247e-05 0.103777)
(-5.09106e-05 5.09714e-05 0.103787)
(-1.04459e-06 -7.75182e-07 0.103955)
(9.60983e-07 -6.34011e-07 0.103955)
(-9.52523e-07 -6.5227e-07 0.103955)
(5.09164e-05 5.09569e-05 0.103787)
(4.84967e-05 4.85118e-05 0.103777)
(-5.10098e-05 -5.09766e-05 0.103787)
(9.80367e-07 6.89967e-07 0.103955)
(-9.76897e-07 7.0451e-07 0.103955)
(9.54511e-07 6.0874e-07 0.103955)
(-9.58058e-07 6.27713e-07 0.103955)
(-4.84788e-05 4.84947e-05 0.103777)
(5.10143e-05 -5.0985e-05 0.103787)
(6.41178e-07 9.84861e-07 0.103955)
(6.55482e-07 -9.42399e-07 0.103955)
(5.84838e-07 9.34314e-07 0.103955)
(6.20066e-07 -9.57623e-07 0.103955)
(-6.54485e-07 -9.37426e-07 0.103955)
(-5.84005e-07 9.28128e-07 0.103955)
(-6.25694e-07 -9.4704e-07 0.103955)
(4.84453e-05 -4.84555e-05 0.103777)
(-5.09739e-05 5.10099e-05 0.103787)
(-9.32888e-07 -6.15229e-07 0.103955)
(9.31967e-07 -5.81172e-07 0.103955)
(-9.30353e-07 -5.96343e-07 0.103955)
(5.09684e-05 5.10002e-05 0.103787)
(4.84155e-05 4.84038e-05 0.103777)
(-5.09792e-05 -5.09532e-05 0.103787)
(9.60043e-07 6.14331e-07 0.103955)
(-9.65444e-07 6.27943e-07 0.103955)
(9.77592e-07 6.24716e-07 0.103955)
(-9.83141e-07 6.42807e-07 0.103955)
(-4.84116e-05 4.83796e-05 0.103777)
(5.09815e-05 -5.09614e-05 0.103787)
(5.91907e-07 9.3585e-07 0.103955)
(6.23885e-07 -9.68913e-07 0.103955)
(6.09139e-07 9.48579e-07 0.103955)
(6.37244e-07 -9.85381e-07 0.103955)
(-6.3224e-07 -9.57303e-07 0.103955)
(-6.09202e-07 9.43376e-07 0.103955)
(-6.4411e-07 -9.73302e-07 0.103955)
(4.84058e-05 -4.84435e-05 0.103777)
(-5.09507e-05 5.098e-05 0.103787)
(-9.36705e-07 -6.05961e-07 0.103955)
(9.50208e-07 -6.06058e-07 0.103955)
(-9.49458e-07 -6.21225e-07 0.103955)
(5.09443e-05 5.09709e-05 0.103787)
(4.84447e-05 4.8429e-05 0.103777)
(-5.09735e-05 -5.09449e-05 0.103787)
(9.80816e-07 6.34272e-07 0.103955)
(-9.86452e-07 6.4719e-07 0.103955)
(9.84023e-07 6.34666e-07 0.103955)
(-9.88815e-07 6.52954e-07 0.103955)
(-4.84417e-05 4.84052e-05 0.103777)
(5.09768e-05 -5.09526e-05 0.103787)
(6.14778e-07 9.5362e-07 0.103955)
(6.39878e-07 -9.87363e-07 0.103955)
(6.16954e-07 9.57332e-07 0.103955)
(6.4366e-07 -9.87281e-07 0.103955)
(-6.48115e-07 -9.75412e-07 0.103955)
(-6.16473e-07 9.52562e-07 0.103955)
(-6.49966e-07 -9.75694e-07 0.103955)
(4.84271e-05 -4.84686e-05 0.103777)
(-5.0946e-05 5.09778e-05 0.103787)
(-9.51512e-07 -6.252e-07 0.103955)
(9.54548e-07 -6.10234e-07 0.103955)
(-9.53394e-07 -6.26068e-07 0.103955)
(5.09404e-05 5.09683e-05 0.103787)
(4.84497e-05 4.84365e-05 0.103777)
(-5.09721e-05 -5.09426e-05 0.103787)
(9.84177e-07 6.4077e-07 0.103955)
(-9.89309e-07 6.5394e-07 0.103955)
(9.84715e-07 6.36026e-07 0.103955)
(-9.89173e-07 6.54469e-07 0.103955)
(-4.84456e-05 4.84128e-05 0.103777)
(5.0976e-05 -5.09504e-05 0.103787)
(6.19228e-07 9.59292e-07 0.103955)
(6.44038e-07 -9.8758e-07 0.103955)
(6.17581e-07 9.59214e-07 0.103955)
(6.44718e-07 -9.86835e-07 0.103955)
(-6.51919e-07 -9.75917e-07 0.103955)
(-6.16857e-07 9.54762e-07 0.103955)
(-6.50766e-07 -9.75543e-07 0.103955)
(4.84311e-05 -4.84701e-05 0.103777)
(-5.09445e-05 5.09775e-05 0.103787)
(-9.53794e-07 -6.2775e-07 0.103955)
(9.55576e-07 -6.10283e-07 0.103955)
(-9.54193e-07 -6.26356e-07 0.103955)
(5.09391e-05 5.09675e-05 0.103787)
(4.84498e-05 4.84374e-05 0.103777)
(-5.09718e-05 -5.09424e-05 0.103787)
(9.84862e-07 6.41706e-07 0.103955)
(-9.8953e-07 6.5494e-07 0.103955)
(9.84983e-07 6.36474e-07 0.103955)
(-9.89169e-07 6.55089e-07 0.103955)
(-4.84459e-05 4.84142e-05 0.103777)
(5.09759e-05 -5.09501e-05 0.103787)
(6.19736e-07 9.60625e-07 0.103955)
(6.44937e-07 -9.87494e-07 0.103955)
(6.18209e-07 9.59478e-07 0.103955)
(6.45842e-07 -9.87414e-07 0.103955)
(-6.52512e-07 -9.76073e-07 0.103955)
(-6.16967e-07 9.54911e-07 0.103955)
(-6.5108e-07 -9.75671e-07 0.103955)
(4.84313e-05 -4.84696e-05 0.103777)
(-5.09436e-05 5.09768e-05 0.103787)
(-9.54468e-07 -6.28126e-07 0.103955)
(9.56436e-07 -6.11018e-07 0.103955)
(-9.54349e-07 -6.2683e-07 0.103955)
(5.09388e-05 5.09672e-05 0.103787)
(4.845e-05 4.84375e-05 0.103777)
(-5.09714e-05 -5.09415e-05 0.103787)
(9.85069e-07 6.42246e-07 0.103955)
(-9.89541e-07 6.55582e-07 0.103955)
(9.85108e-07 6.36838e-07 0.103955)
(-9.89434e-07 6.55417e-07 0.103955)
(-4.84456e-05 4.84141e-05 0.103777)
(5.09749e-05 -5.09491e-05 0.103787)
(6.20211e-07 9.60914e-07 0.103955)
(6.45789e-07 -9.87906e-07 0.103955)
(6.18234e-07 9.5993e-07 0.103955)
(6.45651e-07 -9.86796e-07 0.103955)
(-6.52808e-07 -9.76153e-07 0.103955)
(-6.17095e-07 9.55421e-07 0.103955)
(-6.50983e-07 -9.75152e-07 0.103955)
(4.84323e-05 -4.84702e-05 0.103777)
(-5.09438e-05 5.09773e-05 0.103787)
(-9.54692e-07 -6.28457e-07 0.103955)
(9.56135e-07 -6.10441e-07 0.103955)
(-9.54314e-07 -6.26153e-07 0.103955)
(5.09386e-05 5.09674e-05 0.103787)
(4.84498e-05 4.84377e-05 0.103777)
(-5.09711e-05 -5.09412e-05 0.103787)
(9.85017e-07 6.42432e-07 0.103955)
(-9.89784e-07 6.55761e-07 0.103955)
(9.84764e-07 6.36599e-07 0.103955)
(-9.89574e-07 6.55314e-07 0.103955)
(-4.84454e-05 4.84139e-05 0.103777)
(5.0974e-05 -5.09483e-05 0.103787)
(6.20048e-07 9.61281e-07 0.103955)
(6.4548e-07 -9.87245e-07 0.103955)
(6.17986e-07 9.59857e-07 0.103955)
(6.45504e-07 -9.86466e-07 0.103955)
(-6.52703e-07 -9.75585e-07 0.103955)
(-6.17291e-07 9.55391e-07 0.103955)
(-6.51314e-07 -9.74989e-07 0.103955)
(4.84316e-05 -4.84693e-05 0.103777)
(-5.09435e-05 5.0977e-05 0.103787)
(-9.5466e-07 -6.27688e-07 0.103955)
(9.55828e-07 -6.1008e-07 0.103955)
(-9.54519e-07 -6.25971e-07 0.103955)
(5.09374e-05 5.09665e-05 0.103787)
(4.84486e-05 4.84366e-05 0.103777)
(-5.09706e-05 -5.09406e-05 0.103787)
(9.84687e-07 6.42206e-07 0.103955)
(-9.89516e-07 6.55563e-07 0.103955)
(9.84446e-07 6.36259e-07 0.103955)
(-9.89233e-07 6.54766e-07 0.103955)
(-4.8444e-05 4.84124e-05 0.103777)
(5.09719e-05 -5.09461e-05 0.103787)
(6.1972e-07 9.60812e-07 0.103955)
(6.45165e-07 -9.86919e-07 0.103955)
(6.17645e-07 9.5959e-07 0.103955)
(6.45252e-07 -9.86573e-07 0.103955)
(-6.53125e-07 -9.75692e-07 0.103955)
(-6.16663e-07 9.55055e-07 0.103955)
(-6.50937e-07 -9.74871e-07 0.103955)
(4.84305e-05 -4.84683e-05 0.103777)
(-5.09422e-05 5.09752e-05 0.103787)
(-9.54895e-07 -6.27987e-07 0.103955)
(9.55614e-07 -6.10288e-07 0.103955)
(-9.54036e-07 -6.26034e-07 0.103955)
(5.09354e-05 5.09642e-05 0.103787)
(4.84471e-05 4.84353e-05 0.103777)
(-5.09703e-05 -5.09389e-05 0.103787)
(9.84427e-07 6.4222e-07 0.103955)
(-9.8908e-07 6.55319e-07 0.103955)
(9.83737e-07 6.36706e-07 0.103955)
(-4.84404e-05 4.84089e-05 0.103777)
(6.19425e-07 9.60904e-07 0.103955)
(6.44882e-07 -9.86966e-07 0.103955)
(6.17283e-07 9.59513e-07 0.103955)
(6.44517e-07 -9.85923e-07 0.103955)
(-6.52616e-07 -9.75284e-07 0.103955)
(-6.50397e-07 -9.73854e-07 0.103955)
(4.8428e-05 -4.84662e-05 0.103777)
(-5.09399e-05 5.0973e-05 0.103787)
(-9.5436e-07 -6.27723e-07 0.103955)
(9.54804e-07 -6.09931e-07 0.103955)
(-9.53302e-07 -6.25732e-07 0.103955)
(5.09267e-05 5.09556e-05 0.103787)
(4.84459e-05 4.84343e-05 0.103777)
(6.19277e-07 9.61009e-07 0.103955)
(6.44489e-07 -9.86319e-07 0.103955)
(4.84253e-05 -4.84632e-05 0.103777)
(-9.21134e-07 -9.1929e-07 0.104087)
(9.24876e-07 -9.14645e-07 0.104087)
(-9.12745e-07 9.24563e-07 0.104087)
(9.24106e-07 9.0671e-07 0.104087)
(9.27194e-08 -1.0387e-05 0.0998696)
(6.00756e-07 7.41177e-06 0.0905226)
(-1.27029e-07 9.99358e-06 0.0998429)
(-1.23141e-06 -7.06088e-06 0.090555)
(-2.19822e-06 3.33489e-06 0.0777769)
(2.21687e-06 -3.2071e-06 0.0778086)
(-1.04689e-05 8.77097e-08 0.0998684)
(7.37572e-06 5.78554e-07 0.090522)
(1.00761e-05 -1.07637e-07 0.0998435)
(-7.0289e-06 -1.20283e-06 0.0905551)
(9.25424e-07 -9.14682e-07 0.104087)
(-9.13858e-07 9.259e-07 0.104087)
(9.26605e-07 9.08161e-07 0.104087)
(-9.25462e-07 -9.21899e-07 0.104087)
(9.27869e-07 -9.1604e-07 0.104087)
(-9.17245e-07 9.30629e-07 0.104087)
(9.28098e-07 9.12514e-07 0.104087)
(1.74052e-05 1.63073e-07 0.103032)
(-1.66812e-05 4.65764e-06 0.10042)
(-7.97842e-07 -2.32049e-07 0.104043)
(-6.18145e-07 9.58371e-07 0.103955)
(-1.75913e-05 -1.80695e-07 0.103018)
(1.58503e-05 -5.2427e-06 0.100461)
(-7.93616e-07 -2.30961e-07 0.104043)
(3.20262e-06 -2.11477e-06 0.0777734)
(-3.08963e-06 2.15891e-06 0.0778098)
(1.6571e-07 1.73949e-05 0.103032)
(-2.30951e-07 -7.90295e-07 0.104043)
(4.70213e-06 -1.67496e-05 0.10042)
(9.55811e-07 -6.10145e-07 0.103955)
(-1.87649e-07 -1.75929e-05 0.103018)
(-2.30977e-07 -7.89761e-07 0.104043)
(-5.296e-06 1.59218e-05 0.10046)
(-4.88612e-06 -5.91678e-06 0.0963461)
(-5.90703e-06 -4.88135e-06 0.096345)
(5.09209e-05 5.09504e-05 0.103787)
(4.39853e-06 5.74935e-06 0.0963824)
(5.74514e-06 4.39531e-06 0.0963808)
(9.48381e-08 -1.04068e-05 0.0998696)
(6.08317e-07 7.37749e-06 0.0905227)
(-1.2764e-07 9.9817e-06 0.099843)
(-1.22481e-06 -7.09377e-06 0.0905551)
(-2.18178e-06 3.29774e-06 0.0777768)
(2.22398e-06 -3.23639e-06 0.0778087)
(-1.04841e-05 8.93268e-08 0.0998684)
(7.34331e-06 5.82767e-07 0.0905221)
(1.00643e-05 -1.02558e-07 0.0998435)
(-7.05898e-06 -1.19826e-06 0.0905552)
(9.28858e-07 -9.1724e-07 0.104087)
(-9.17858e-07 9.31742e-07 0.104087)
(9.30515e-07 9.13725e-07 0.104087)
(-9.27132e-07 -9.22493e-07 0.104087)
(9.28615e-07 -9.17387e-07 0.104087)
(-9.167e-07 9.31034e-07 0.104087)
(9.28535e-07 9.1281e-07 0.104087)
(1.74218e-05 1.65832e-07 0.103032)
(-1.66724e-05 4.64439e-06 0.10042)
(-7.88778e-07 -2.30423e-07 0.104043)
(-6.12061e-07 9.5466e-07 0.103955)
(-1.75725e-05 -1.75907e-07 0.103018)
(1.58624e-05 -5.26323e-06 0.100461)
(-7.85159e-07 -2.31427e-07 0.104043)
(3.17444e-06 -2.1138e-06 0.0777734)
(-3.10987e-06 2.15924e-06 0.0778099)
(1.6409e-07 1.741e-05 0.103032)
(-2.32363e-07 -7.79713e-07 0.104043)
(4.68313e-06 -1.67318e-05 0.10042)
(9.52873e-07 -6.03746e-07 0.103955)
(-1.86314e-07 -1.75728e-05 0.103018)
(-2.32575e-07 -7.8072e-07 0.104043)
(-5.31324e-06 1.59399e-05 0.10046)
(-4.89353e-06 -5.90909e-06 0.0963461)
(-5.90096e-06 -4.88662e-06 0.0963451)
(5.09254e-05 5.09538e-05 0.103787)
(4.39662e-06 5.7546e-06 0.0963824)
(5.75156e-06 4.39211e-06 0.0963809)
(9.97279e-08 -1.04224e-05 0.0998696)
(6.12572e-07 7.36688e-06 0.0905229)
(-1.23483e-07 9.96509e-06 0.0998429)
(-1.21272e-06 -7.0945e-06 0.0905553)
(-2.18296e-06 3.28379e-06 0.0777771)
(2.21428e-06 -3.23831e-06 0.0778089)
(-1.05017e-05 9.37168e-08 0.0998684)
(7.32709e-06 5.9417e-07 0.0905222)
(1.00491e-05 -1.05589e-07 0.0998435)
(-7.06542e-06 -1.18213e-06 0.0905553)
(9.30197e-07 -9.17821e-07 0.104087)
(-9.18248e-07 9.332e-07 0.104087)
(9.31424e-07 9.14745e-07 0.104087)
(-9.27437e-07 -9.21935e-07 0.104087)
(9.31098e-07 -9.1719e-07 0.104087)
(-9.17219e-07 9.35027e-07 0.104087)
(9.30013e-07 9.16536e-07 0.104087)
(1.7436e-05 1.65033e-07 0.103032)
(-1.6664e-05 4.62953e-06 0.10042)
(-7.81717e-07 -2.3181e-07 0.104043)
(-6.03664e-07 9.50462e-07 0.103955)
(-1.75614e-05 -1.76444e-07 0.103018)
(1.58752e-05 -5.27874e-06 0.100461)
(-7.75434e-07 -2.32439e-07 0.104043)
(3.16892e-06 -2.11621e-06 0.0777736)
(-3.11641e-06 2.15875e-06 0.0778101)
(1.63817e-07 1.74243e-05 0.103032)
(-2.33178e-07 -7.71881e-07 0.104043)
(4.6742e-06 -1.67213e-05 0.10042)
(9.49837e-07 -5.96944e-07 0.103955)
(-1.86855e-07 -1.75601e-05 0.103018)
(-2.33337e-07 -7.71436e-07 0.104043)
(-5.32286e-06 1.59503e-05 0.10046)
(-4.88747e-06 -5.90324e-06 0.0963462)
(-5.89395e-06 -4.88232e-06 0.0963451)
(5.09295e-05 5.09576e-05 0.103787)
(4.40358e-06 5.75618e-06 0.0963824)
(5.75372e-06 4.3968e-06 0.0963809)
(1.02837e-07 -1.04343e-05 0.0998696)
(6.06002e-07 7.35981e-06 0.0905231)
(-1.16393e-07 9.95599e-06 0.0998429)
(-1.24616e-06 -7.10613e-06 0.0905555)
(-2.18881e-06 3.29087e-06 0.0777773)
(2.22723e-06 -3.23904e-06 0.0778092)
(-1.05149e-05 9.16458e-08 0.0998684)
(7.32034e-06 5.91601e-07 0.0905225)
(1.00347e-05 -9.67811e-08 0.0998435)
(-7.07947e-06 -1.20972e-06 0.0905556)
(9.32845e-07 -9.16326e-07 0.104087)
(-9.19867e-07 9.40749e-07 0.104087)
(9.34425e-07 9.22589e-07 0.104087)
(-9.33733e-07 -9.27112e-07 0.104087)
(9.34678e-07 -9.21131e-07 0.104087)
(-9.19665e-07 9.42977e-07 0.104087)
(9.29669e-07 9.2642e-07 0.104087)
(1.7448e-05 1.66853e-07 0.103032)
(-1.66478e-05 4.62199e-06 0.10042)
(-7.78123e-07 -2.30553e-07 0.104043)
(-5.99397e-07 9.5396e-07 0.103955)
(-1.75475e-05 -1.76062e-07 0.103018)
(1.58924e-05 -5.28647e-06 0.100461)
(-7.68915e-07 -2.30664e-07 0.104043)
(3.16604e-06 -2.10269e-06 0.0777739)
(-3.11161e-06 2.17106e-06 0.0778105)
(1.61016e-07 1.74515e-05 0.103032)
(-2.33678e-07 -7.63555e-07 0.104043)
(4.65746e-06 -1.67036e-05 0.10042)
(9.45366e-07 -5.80749e-07 0.103955)
(-1.88969e-07 -1.75429e-05 0.103018)
(-2.33439e-07 -7.53986e-07 0.104043)
(-5.33657e-06 1.59757e-05 0.10046)
(-4.87752e-06 -5.89814e-06 0.0963462)
(-5.8917e-06 -4.87102e-06 0.0963452)
(5.09333e-05 5.09693e-05 0.103787)
(4.41522e-06 5.76819e-06 0.0963826)
(5.75499e-06 4.41586e-06 0.096381)
(9.60413e-08 -1.04478e-05 0.0998696)
(5.97547e-07 7.33889e-06 0.0905234)
(-1.24535e-07 9.94231e-06 0.0998429)
(-1.22072e-06 -7.13032e-06 0.0905558)
(-2.1779e-06 3.2728e-06 0.0777777)
(2.22221e-06 -3.2487e-06 0.0778098)
(-1.05335e-05 1.02793e-07 0.0998684)
(7.3056e-06 5.74128e-07 0.0905228)
(1.00203e-05 -9.3592e-08 0.0998435)
(-7.09662e-06 -1.19388e-06 0.0905559)
(9.33212e-07 -9.17949e-07 0.104087)
(-9.20783e-07 9.46589e-07 0.104087)
(9.323e-07 9.30809e-07 0.104087)
(-9.46935e-07 -9.43782e-07 0.104087)
(9.47189e-07 -9.37573e-07 0.104087)
(-9.32404e-07 9.48565e-07 0.104086)
(9.42809e-07 9.3379e-07 0.104086)
(1.74741e-05 1.67811e-07 0.103032)
(-1.66334e-05 4.60625e-06 0.10042)
(-7.75122e-07 -2.30422e-07 0.104043)
(-6.00294e-07 9.58349e-07 0.103955)
(-1.75369e-05 -1.72784e-07 0.103018)
(1.59089e-05 -5.28758e-06 0.100461)
(-7.66485e-07 -2.29537e-07 0.104043)
(3.1619e-06 -2.09334e-06 0.0777745)
(-3.13004e-06 2.15745e-06 0.077811)
(1.79136e-07 1.74828e-05 0.103032)
(-2.31076e-07 -7.46134e-07 0.104043)
(4.67011e-06 -1.66712e-05 0.10042)
(9.53554e-07 -5.72622e-07 0.103955)
(-1.87884e-07 -1.74896e-05 0.103018)
(-2.31325e-07 -7.41083e-07 0.104043)
(-5.32689e-06 1.59949e-05 0.10046)
(-4.86862e-06 -5.89287e-06 0.0963464)
(-5.90767e-06 -4.84273e-06 0.0963454)
(5.0938e-05 5.09841e-05 0.103787)
(4.41964e-06 5.76358e-06 0.0963827)
(5.73842e-06 4.43291e-06 0.0963811)
(9.52641e-08 -1.04653e-05 0.0998696)
(5.7638e-07 7.33102e-06 0.0905238)
(-1.16733e-07 9.90284e-06 0.0998429)
(-1.2203e-06 -7.12451e-06 0.0905562)
(-2.15688e-06 3.27173e-06 0.0777784)
(2.19968e-06 -3.24576e-06 0.0778105)
(-1.05554e-05 1.03323e-07 0.0998685)
(7.29524e-06 5.5652e-07 0.0905232)
(9.99247e-06 -1.12816e-07 0.0998435)
(-7.08995e-06 -1.2058e-06 0.0905563)
(9.42199e-07 -9.38233e-07 0.104086)
(-9.28851e-07 9.38465e-07 0.104086)
(9.40152e-07 9.23506e-07 0.104086)
(-9.39329e-07 -9.39433e-07 0.104086)
(9.4323e-07 -9.34219e-07 0.104086)
(-9.3514e-07 9.44314e-07 0.104086)
(9.45797e-07 9.26941e-07 0.104086)
(1.75006e-05 1.60603e-07 0.103031)
(-1.6613e-05 4.6043e-06 0.10042)
(-7.4629e-07 -2.42086e-07 0.104043)
(-6.05537e-07 9.50131e-07 0.103955)
(-1.75191e-05 -1.78275e-07 0.103018)
(1.59125e-05 -5.29493e-06 0.100461)
(-7.72004e-07 -2.42011e-07 0.104043)
(3.16596e-06 -2.10801e-06 0.0777752)
(-3.13064e-06 2.14702e-06 0.0778117)
(1.58248e-07 1.74824e-05 0.103031)
(-2.35105e-07 -7.46767e-07 0.104043)
(4.65313e-06 -1.6682e-05 0.10042)
(9.62043e-07 -6.04046e-07 0.103955)
(-1.78131e-07 -1.75133e-05 0.103017)
(-2.35303e-07 -7.73591e-07 0.104043)
(-5.35387e-06 1.59936e-05 0.10046)
(-4.86796e-06 -5.89375e-06 0.0963465)
(-5.88859e-06 -4.86075e-06 0.0963454)
(5.09541e-05 5.09801e-05 0.103787)
(4.4418e-06 5.76911e-06 0.0963828)
(5.77237e-06 4.43021e-06 0.0963812)
(8.43583e-08 -1.04366e-05 0.0998696)
(5.53151e-07 7.33543e-06 0.0905242)
(-1.23105e-07 9.90904e-06 0.099843)
(-1.22924e-06 -7.10691e-06 0.0905567)
(-2.1187e-06 3.27325e-06 0.0777793)
(2.16392e-06 -3.23402e-06 0.0778115)
(-1.05245e-05 8.13396e-08 0.0998684)
(7.30614e-06 5.14236e-07 0.0905236)
(1.00138e-05 -1.48381e-07 0.0998435)
(-7.05576e-06 -1.25617e-06 0.0905569)
(9.48214e-07 -9.42349e-07 0.104086)
(-9.37222e-07 9.41102e-07 0.104086)
(9.49596e-07 9.23863e-07 0.104086)
(-8.89199e-07 -9.14955e-07 0.104086)
(8.77728e-07 -9.12323e-07 0.104086)
(-8.57306e-07 8.39529e-07 0.104086)
(8.61564e-07 8.27962e-07 0.104086)
(1.74907e-05 1.43048e-07 0.103031)
(-1.6605e-05 4.573e-06 0.10042)
(-7.20751e-07 -2.51455e-07 0.104043)
(-5.72384e-07 9.09471e-07 0.103955)
(-1.75469e-05 -2.05952e-07 0.103017)
(1.58946e-05 -5.31922e-06 0.100461)
(-7.28345e-07 -2.57977e-07 0.104043)
(3.16594e-06 -2.10822e-06 0.0777761)
(-3.0961e-06 2.01948e-06 0.0778124)
(1.65054e-07 1.74554e-05 0.103031)
(-2.41226e-07 -7.20554e-07 0.104043)
(4.63676e-06 -1.66904e-05 0.10042)
(9.40935e-07 -5.90088e-07 0.103955)
(-1.83409e-07 -1.75423e-05 0.103017)
(-2.37567e-07 -7.50194e-07 0.104043)
(-5.32395e-06 1.59461e-05 0.10046)
(-4.84321e-06 -5.90725e-06 0.0963466)
(-5.88285e-06 -4.84646e-06 0.0963456)
(5.09721e-05 5.09891e-05 0.103787)
(4.42658e-06 5.71452e-06 0.096383)
(5.72958e-06 4.40828e-06 0.0963815)
(7.38658e-08 -1.01557e-05 0.0998696)
(6.40801e-07 7.485e-06 0.0905246)
(-9.91992e-08 1.00122e-05 0.0998431)
(-1.18802e-06 -6.85546e-06 0.0905567)
(-2.25443e-06 3.36904e-06 0.0777792)
(2.26555e-06 -3.14403e-06 0.0778103)
(-1.02168e-05 4.69375e-08 0.0998684)
(7.46978e-06 6.23779e-07 0.090524)
(1.01591e-05 -2.01015e-07 0.0998436)
(-6.83211e-06 -1.11555e-06 0.0905568)
(8.44919e-07 -8.60625e-07 0.104086)
(-8.2671e-07 8.21831e-07 0.104086)
(8.36386e-07 8.10334e-07 0.104086)
(-8.60824e-07 -8.3273e-07 0.104087)
(8.76497e-07 -8.28609e-07 0.104087)
(-8.75081e-07 9.13385e-07 0.104087)
(8.95824e-07 8.96894e-07 0.104087)
(1.70761e-05 1.62809e-07 0.103031)
(-1.68124e-05 4.64058e-06 0.10042)
(-9.58539e-07 -2.3117e-07 0.104043)
(-7.5549e-07 1.04254e-06 0.103955)
(-1.78281e-05 -1.99741e-07 0.103017)
(1.56394e-05 -5.16253e-06 0.100461)
(-9.60358e-07 -2.01788e-07 0.104043)
(3.2571e-06 -2.11369e-06 0.0777751)
(-3.02075e-06 2.23934e-06 0.0778109)
(1.69721e-07 1.70522e-05 0.103032)
(-2.02763e-07 -9.63623e-07 0.104043)
(4.7463e-06 -1.6907e-05 0.10042)
(1.02431e-06 -7.38043e-07 0.103955)
(-1.69941e-07 -1.78314e-05 0.103017)
(-2.01673e-07 -9.49365e-07 0.104043)
(-5.20861e-06 1.57012e-05 0.100459)
(-5.02648e-06 -5.95701e-06 0.0963467)
(-5.95045e-06 -5.02278e-06 0.0963456)
(5.08059e-05 5.08348e-05 0.103787)
(4.22469e-06 5.73301e-06 0.0963826)
(5.72207e-06 4.22346e-06 0.096381)
(8.71186e-08 -1.028e-05 0.0998692)
(6.09026e-07 7.58084e-06 0.0905234)
(-1.47245e-07 1.02172e-05 0.0998426)
(-1.22544e-06 -6.96826e-06 0.0905553)
(-2.13379e-06 3.34149e-06 0.0777775)
(2.23903e-06 -3.20075e-06 0.077809)
(-1.03888e-05 1.33381e-07 0.0998681)
(7.51871e-06 6.17047e-07 0.0905228)
(1.02614e-05 -3.94696e-08 0.0998431)
(-6.94919e-06 -1.19009e-06 0.0905554)
(9.09785e-07 -8.65243e-07 0.104087)
(-9.05092e-07 9.42999e-07 0.104087)
(9.25313e-07 9.25538e-07 0.104087)
(-9.47947e-07 -9.40674e-07 0.104087)
(9.49933e-07 -9.35755e-07 0.104087)
(-9.35268e-07 9.51601e-07 0.104087)
(9.46188e-07 9.35432e-07 0.104087)
(1.7383e-05 1.94047e-07 0.103032)
(-1.68308e-05 4.81059e-06 0.100419)
(-8.10991e-07 -1.91069e-07 0.104043)
(-5.95942e-07 9.557e-07 0.103955)
(-1.77144e-05 -1.26667e-07 0.103018)
(1.57892e-05 -5.16109e-06 0.100461)
(-7.79248e-07 -2.10134e-07 0.104043)
(3.21671e-06 -2.06607e-06 0.0777738)
(-3.0844e-06 2.17151e-06 0.07781)
(1.58117e-07 1.73713e-05 0.103032)
(-2.26421e-07 -7.84186e-07 0.104043)
(4.78499e-06 -1.6867e-05 0.10042)
(9.30444e-07 -5.78444e-07 0.103955)
(-1.76154e-07 -1.76837e-05 0.103018)
(-2.32733e-07 -7.64425e-07 0.104043)
(-5.2575e-06 1.58825e-05 0.100459)
(-4.98128e-06 -5.90807e-06 0.0963458)
(-5.91291e-06 -4.96391e-06 0.0963448)
(5.0972e-05 5.10119e-05 0.103787)
(4.36286e-06 5.74943e-06 0.0963821)
(5.73996e-06 4.36445e-06 0.0963805)
(9.26882e-08 -1.03964e-05 0.0998695)
(6.17518e-07 7.41136e-06 0.0905227)
(-1.26208e-07 9.99916e-06 0.0998427)
(-1.2164e-06 -7.06418e-06 0.090555)
(-2.19006e-06 3.30763e-06 0.077777)
(2.2156e-06 -3.21967e-06 0.0778088)
(-1.04751e-05 7.55792e-08 0.0998683)
(7.37847e-06 5.87139e-07 0.0905221)
(1.00781e-05 -1.12597e-07 0.0998433)
(-7.02703e-06 -1.19699e-06 0.0905551)
(9.46271e-07 -9.38338e-07 0.104087)
(-9.32464e-07 9.43682e-07 0.104087)
(9.43795e-07 9.27559e-07 0.104087)
(-9.3108e-07 -9.3246e-07 0.104087)
(9.3186e-07 -9.27104e-07 0.104087)
(-9.20774e-07 9.28228e-07 0.104087)
(9.30727e-07 9.11795e-07 0.104087)
(1.74182e-05 1.53472e-07 0.103032)
(-1.66867e-05 4.64781e-06 0.10042)
(-7.70131e-07 -2.41894e-07 0.104043)
(-5.98121e-07 9.32797e-07 0.103955)
(-1.75776e-05 -1.84895e-07 0.103018)
(1.5854e-05 -5.26967e-06 0.100461)