/*--------------------------------*- C++ -*----------------------------------*\
| =========                 |                                                 |
| \\      /  F ield         | OpenFOAM: The Open Source CFD Toolbox           |
|  \\    /   O peration     | Version:  2206                                  |
|   \\  /    A nd           | Website:  www.openfoam.com                      |
|    \\/     M anipulation  |                                                 |
\*---------------------------------------------------------------------------*/
FoamFile
{
    version     2.0;
    format      ascii;
    arch        "LSB;label=32;scalar=64";
    class       volScalarField;
    location    "31";
    object      p;
}
// * * * * * * * * * * * * * * * * * * * * * * * * * * * * * * * * * * * * * //

dimensions      [0 2 -2 0 0 0 0];

internalField   nonuniform List<scalar> 
28688
(
0.00395381
0.00395414
0.00395414
0.0039572
0.00389844
0.00389887
0.00389887
0.00390186
0.00384769
0.00384767
0.00384766
0.00385042
0.00379527
0.0037953
0.0037953
0.0037981
0.00374396
0.00374397
0.00374397
0.00374673
0.00369426
0.00369409
0.00369409
0.00369672
0.00364809
0.00364793
0.00364793
0.00365035
0.00360574
0.00360568
0.00360568
0.00360816
0.00356416
0.00356412
0.00356412
0.00356658
0.00352271
0.00352267
0.00352267
0.00352512
0.00348128
0.00348124
0.00348124
0.00348369
0.00343985
0.00343981
0.00343981
0.00344226
0.00396722
0.00396745
0.00396745
0.00396722
0.00396745
0.00396745
0.00396821
0.00396821
0.00396821
0.00396821
0.00396745
0.00396745
0.00396723
0.00396745
0.00396745
0.00396723
0.0039572
0.00390844
0.00395414
0.00395414
0.00391071
0.00391071
0.0039572
0.00390843
0.00395414
0.00395414
0.00391071
0.00391071
0.00395414
0.00391071
0.00391071
0.0039572
0.00390844
0.00395415
0.00391071
0.00391071
0.00390843
0.00390186
0.00385735
0.00389887
0.00389887
0.00386079
0.00386079
0.00390186
0.00385735
0.00389887
0.00389887
0.00386079
0.00386079
0.00389887
0.00386079
0.00386079
0.00390186
0.00385735
0.00389887
0.00386079
0.00386079
0.00385735
0.00385042
0.00380498
0.00384767
0.00384767
0.00380832
0.00380832
0.00385042
0.00380498
0.00384767
0.00384767
0.00380832
0.00380832
0.00384767
0.00380832
0.00380832
0.00385042
0.00380497
0.00384767
0.00380832
0.00380832
0.00380497
0.0037981
0.00375345
0.0037953
0.0037953
0.00375668
0.00375668
0.0037981
0.00375345
0.0037953
0.0037953
0.00375668
0.00375668
0.0037953
0.00375668
0.00375668
0.0037981
0.00375345
0.0037953
0.00375668
0.00375668
0.00375345
0.00374673
0.0037032
0.00374397
0.00374397
0.00370635
0.00370635
0.00374673
0.0037032
0.00374397
0.00374397
0.00370635
0.00370635
0.00374397
0.00370635
0.00370635
0.00374673
0.0037032
0.00374397
0.00370635
0.00370635
0.0037032
0.00369672
0.00365609
0.00369409
0.00369409
0.003659
0.003659
0.00369672
0.00365609
0.00369409
0.00369409
0.003659
0.003659
0.00369409
0.003659
0.003659
0.00369672
0.00365609
0.00369409
0.003659
0.003659
0.00365609
0.00365035
0.00361365
0.00364793
0.00364793
0.0036161
0.0036161
0.00365034
0.00361364
0.00364793
0.00364793
0.0036161
0.0036161
0.00364793
0.0036161
0.0036161
0.00365034
0.00361364
0.00364793
0.0036161
0.0036161
0.00361365
0.00360816
0.00357205
0.00360568
0.00360568
0.00357449
0.00357449
0.00360816
0.00357205
0.00360568
0.00360568
0.00357449
0.00357449
0.00360568
0.00357449
0.00357449
0.00360816
0.00357204
0.00360568
0.00357449
0.00357449
0.00357205
0.00356658
0.00353058
0.00356412
0.00356412
0.00353303
0.00353303
0.00356658
0.00353058
0.00356412
0.00356412
0.00353303
0.00353303
0.00356412
0.00353303
0.00353303
0.00356658
0.00353058
0.00356412
0.00353303
0.00353303
0.00353058
0.00352512
0.00348915
0.00352267
0.00352267
0.0034916
0.0034916
0.00352512
0.00348915
0.00352267
0.00352267
0.0034916
0.0034916
0.00352267
0.0034916
0.0034916
0.00352512
0.00348915
0.00352267
0.0034916
0.0034916
0.00348915
0.00348369
0.00344772
0.00348124
0.00348124
0.00345017
0.00345017
0.00348369
0.00344773
0.00348124
0.00348124
0.00345017
0.00345017
0.00348124
0.00345017
0.00345017
0.00348369
0.00344773
0.00348124
0.00345017
0.00345017
0.00344772
0.00344226
0.0034063
0.00343981
0.00343981
0.00340874
0.00344226
0.00343981
0.00343981
0.00340874
0.00340874
0.00343981
0.00340874
0.00344226
0.0034063
0.00343981
0.00340874
0.00340874
0.0034063
0.0039756
0.00398536
0.00398016
0.00398016
0.00400254
0.00398932
0.00401792
0.00398337
0.00400254
0.00398933
0.00398337
0.00401792
0.00399389
0.00402166
0.00402166
0.00393095
0.0039501
0.00395929
0.00392302
0.0039238
0.00392654
0.00393093
0.00395008
0.00395929
0.003923
0.00395381
0.00395382
0.00395382
0.00391041
0.00391041
0.0039104
0.0039104
0.00392846
0.00395428
0.00395421
0.00393728
0.00395731
0.00392736
0.00393816
0.0039239
0.00392654
0.00392846
0.00395421
0.0039543
0.00393728
0.0039573
0.00393816
0.00392736
0.00396016
0.00396014
0.00393168
0.00392699
0.00392698
0.00388429
0.00390361
0.00390496
0.0038828
0.00390251
0.00388238
0.00388429
0.0039036
0.00390496
0.00388279
0.00389844
0.00389844
0.00389844
0.00386086
0.00386086
0.00386086
0.00386086
0.00388288
0.00390367
0.00389845
0.00388658
0.00390246
0.00388341
0.00388631
0.00390251
0.00388237
0.00388288
0.00389845
0.00390367
0.00388657
0.00390246
0.0038863
0.00388341
0.0039047
0.0039047
0.00388312
0.00388373
0.00388373
0.00383206
0.00385092
0.00385197
0.00383101
0.00385058
0.00383072
0.00383206
0.00385092
0.00385197
0.00383101
0.00384769
0.00384769
0.00384769
0.0038083
0.0038083
0.0038083
0.0038083
0.00383116
0.00385129
0.00384757
0.00383452
0.00385071
0.00383151
0.00383442
0.00385058
0.00383072
0.00383116
0.00384757
0.00385129
0.00383452
0.00385071
0.00383442
0.00383151
0.00385155
0.00385155
0.00383114
0.00383158
0.00383158
0.00377951
0.00379824
0.00379905
0.00377869
0.00379803
0.00377851
0.00377951
0.00379824
0.00379905
0.00377869
0.00379527
0.00379527
0.00379527
0.00375669
0.00375669
0.00375669
0.00375669
0.003779
0.00379861
0.00379525
0.00378237
0.00379831
0.00377917
0.00378233
0.00379803
0.00377851
0.003779
0.00379525
0.00379861
0.00378237
0.00379831
0.00378232
0.00377917
0.00379868
0.00379868
0.00377904
0.00377908
0.00377908
0.00372831
0.00374663
0.00374733
0.00372778
0.0037465
0.00372762
0.00372831
0.00374663
0.00374733
0.00372778
0.00374396
0.00374396
0.00374396
0.00370646
0.00370646
0.00370646
0.00370646
0.00372804
0.00374701
0.00374394
0.00373134
0.00374687
0.00372816
0.00373131
0.00374649
0.00372762
0.00372804
0.00374394
0.00374701
0.00373134
0.00374687
0.00373131
0.00372816
0.00374697
0.00374697
0.00372812
0.00372807
0.00372807
0.00367885
0.00369641
0.00369705
0.00367825
0.00369632
0.003678
0.00367885
0.00369641
0.00369705
0.00367825
0.00369426
0.00369426
0.00369426
0.00365916
0.00365916
0.00365916
0.00365916
0.0036788
0.00369678
0.00369414
0.00368213
0.00369681
0.0036787
0.00368217
0.00369631
0.00367801
0.0036788
0.00369414
0.00369678
0.00368213
0.00369681
0.00368217
0.0036787
0.0036967
0.0036967
0.00367909
0.00367839
0.00367839
0.00363385
0.00364984
0.00364973
0.00363396
0.00364968
0.0036339
0.00363385
0.00364984
0.00364973
0.00363395
0.00364809
0.00364809
0.00364809
0.00361618
0.00361618
0.00361618
0.00361618
0.00363428
0.0036501
0.003648
0.00363715
0.00365012
0.00363426
0.00363721
0.00364968
0.00363391
0.00363428
0.003648
0.0036501
0.00363715
0.00365012
0.00363721
0.00363421
0.00364991
0.00364991
0.00363458
0.00363411
0.00363412
0.00359263
0.00360803
0.00360811
0.00359258
0.00360808
0.0035926
0.00359263
0.00360804
0.00360811
0.00359258
0.00360574
0.00360574
0.00360574
0.00357454
0.00357454
0.00357454
0.00357454
0.00359271
0.0036081
0.00360569
0.00359527
0.00360815
0.00359265
0.00359528
0.00360808
0.0035926
0.00359271
0.00360569
0.0036081
0.00359527
0.00360815
0.00359528
0.00359265
0.00360815
0.00360815
0.00359283
0.00359263
0.00359262
0.00355118
0.00356668
0.0035667
0.00355118
0.00356668
0.00355118
0.00355118
0.00356668
0.0035667
0.00355118
0.00356416
0.00356416
0.00356416
0.00353307
0.00353307
0.00353307
0.00353307
0.00355123
0.00356666
0.00356413
0.00355375
0.00356666
0.00355121
0.00355376
0.00356668
0.00355118
0.00355123
0.00356413
0.00356666
0.00355375
0.00356666
0.00355376
0.00355121
0.00356669
0.00356669
0.0035513
0.00355118
0.00355117
0.00350975
0.00352526
0.00352526
0.00350975
0.00352526
0.00350975
0.00350975
0.00352526
0.00352526
0.00350975
0.00352271
0.00352271
0.00352271
0.00349163
0.00349163
0.00349163
0.00349163
0.0035098
0.00352522
0.00352268
0.00351231
0.00352522
0.00350978
0.00351232
0.00352526
0.00350975
0.0035098
0.00352268
0.00352522
0.00351231
0.00352522
0.00351232
0.00350978
0.00352526
0.00352526
0.00350987
0.00350975
0.00350975
0.00346832
0.00348383
0.00348383
0.00346832
0.00348383
0.00346832
0.00346832
0.00348383
0.00348383
0.00346832
0.00348128
0.00348128
0.00348128
0.0034502
0.0034502
0.00345021
0.0034502
0.00346837
0.0034838
0.00348125
0.00347088
0.00348379
0.00346835
0.00347089
0.00348383
0.00346832
0.00346837
0.00348125
0.0034838
0.00347088
0.00348379
0.00347089
0.00346835
0.00348383
0.00348383
0.00346844
0.00346832
0.00346832
0.0034269
0.0034424
0.0034424
0.0034269
0.0034424
0.00342689
0.0034269
0.0034424
0.0034424
0.0034269
0.00343985
0.00343985
0.00343985
0.00340878
0.00340878
0.00340878
0.00340878
0.00342694
0.00344237
0.00343982
0.00342945
0.00344236
0.00342693
0.00342946
0.0034424
0.0034269
0.00342694
0.00343982
0.00344237
0.00342945
0.00344236
0.00342946
0.00342693
0.00344241
0.00344241
0.00342701
0.00342689
0.00342689
0.00399389
0.00402165
0.00402166
0.00398602
0.00402119
0.00398599
0.00402121
0.00399074
0.00397781
0.00397782
0.00401647
0.00401649
0.00400252
0.00398932
0.00401791
0.00398336
0.00400252
0.00398932
0.00401791
0.00398336
0.00400704
0.0039781
0.00401832
0.0039729
0.00400704
0.00397808
0.00401833
0.00397291
0.00399813
0.00398685
0.00396928
0.00396967
0.00401319
0.0039818
0.0039699
0.00399813
0.00398685
0.00396928
0.00396967
0.00401319
0.0039818
0.0039699
0.00399389
0.00402165
0.00402166
0.00398599
0.00402119
0.00399074
0.0039778
0.00397783
0.00401648
0.00401648
0.00398602
0.0040212
0.00400254
0.00398932
0.00401793
0.00398337
0.00400253
0.00398933
0.00398337
0.00401792
0.00400706
0.00397808
0.00401834
0.00397292
0.00399814
0.00398685
0.00396928
0.00396967
0.0040132
0.00398181
0.00396991
0.00400706
0.0039781
0.00401833
0.00397291
0.00399814
0.00398685
0.00396967
0.00396928
0.00398181
0.0040132
0.00396991
0.0039756
0.00398536
0.00398016
0.00398016
0.0039756
0.00398536
0.00398016
0.00398016
0.0039756
0.00398536
0.00398016
0.00398016
0.00397436
0.00398344
0.00396633
0.00396633
0.00397872
0.00397873
0.0039645
0.00397436
0.00398344
0.00396633
0.00396633
0.00397872
0.00397873
0.0039645
0.00397436
0.00398345
0.00396633
0.00396633
0.00397873
0.00397873
0.0039645
0.00397436
0.00398345
0.00396633
0.00396633
0.00397873
0.00397873
0.0039645
0.00400254
0.00398933
0.00398337
0.00401792
0.00399814
0.00398685
0.00396928
0.00396967
0.0040132
0.00398181
0.00396991
0.00400707
0.00397809
0.00401834
0.00397291
0.00399814
0.00398685
0.00396967
0.00396928
0.00398181
0.0040132
0.0039699
0.00400706
0.00397809
0.00401834
0.0039729
0.00399389
0.00402166
0.00402166
0.00398597
0.0040212
0.00399075
0.00397781
0.00397781
0.00401648
0.00401648
0.00398597
0.0040212
0.00400254
0.00398933
0.00398337
0.00401792
0.00399814
0.00398685
0.00396968
0.00396929
0.00398181
0.0040132
0.00396991
0.00399815
0.00398685
0.00396968
0.00396928
0.00398181
0.0040132
0.00396991
0.00400706
0.00397809
0.00401834
0.00397291
0.00400706
0.0039781
0.00401834
0.00397292
0.00399075
0.00397781
0.00397782
0.00401648
0.00401648
0.00398597
0.00402119
0.003986
0.00402121
0.00392379
0.00392653
0.00392389
0.00392651
0.00396012
0.00396015
0.00393169
0.00392699
0.00392699
0.00390928
0.00392619
0.00390928
0.00392619
0.00392503
0.0039119
0.0039119
0.00392514
0.00392514
0.00393095
0.00395008
0.0039593
0.00392302
0.00392848
0.00395429
0.00395421
0.00393727
0.0039573
0.00392736
0.00393816
0.00392847
0.00395429
0.00395421
0.00393727
0.00395731
0.00392737
0.00393816
0.00392641
0.00391103
0.00392393
0.00391176
0.0039264
0.00391103
0.00392393
0.00391176
0.00392345
0.00392297
0.0039107
0.00391044
0.00392452
0.00392338
0.00390904
0.00392344
0.00392297
0.0039107
0.00391044
0.00392452
0.00392338
0.00390904
0.00396011
0.00396016
0.0039317
0.00392699
0.00392699
0.00392394
0.00392652
0.00390927
0.00392619
0.00392503
0.0039119
0.0039119
0.00392514
0.00392514
0.00390927
0.0039262
0.00392846
0.00395429
0.00395421
0.00393728
0.00395731
0.00392736
0.00393816
0.00393094
0.00395009
0.00395928
0.00392302
0.00392846
0.00395421
0.00395429
0.00393727
0.0039573
0.00393816
0.00392736
0.0039264
0.00391103
0.00392393
0.00391176
0.00392343
0.00392297
0.0039107
0.00391044
0.00392452
0.00392338
0.00390904
0.0039264
0.00391102
0.00392394
0.00391176
0.00392344
0.00392297
0.00391044
0.0039107
0.00392338
0.00392452
0.00390904
0.00393093
0.00395009
0.00395928
0.00392301
0.00392846
0.00395421
0.0039543
0.00393727
0.0039573
0.00393816
0.00392736
0.00393094
0.0039501
0.00395928
0.00392301
0.00392343
0.00392297
0.0039107
0.00391044
0.00392451
0.00392338
0.00390904
0.0039264
0.00391102
0.00392393
0.00391176
0.00392344
0.00392297
0.00391044
0.0039107
0.00392338
0.00392451
0.00390904
0.0039264
0.00391103
0.00392392
0.00391176
0.00396015
0.00396016
0.00393168
0.00392699
0.00392698
0.00392391
0.00392651
0.00390927
0.00392621
0.00392503
0.0039119
0.0039119
0.00392514
0.00392513
0.00390928
0.00392617
0.00392845
0.00395421
0.00395429
0.00393728
0.00395731
0.00393816
0.00392736
0.00393094
0.0039501
0.00395927
0.003923
0.00393093
0.0039501
0.00395928
0.00392301
0.00392344
0.00392297
0.00391044
0.0039107
0.00392338
0.00392451
0.00390904
0.00392343
0.00392297
0.00391044
0.0039107
0.00392338
0.00392451
0.00390904
0.0039264
0.00391102
0.00392393
0.00391176
0.0039264
0.00391102
0.00392392
0.00391176
0.00392393
0.00392651
0.00392392
0.00392652
0.00392503
0.0039119
0.00391189
0.00392514
0.00392514
0.00390928
0.00392617
0.00390927
0.00392619
0.00390251
0.00388238
0.0039025
0.00388237
0.0039047
0.0039047
0.00388312
0.00388374
0.00388373
0.00385706
0.00387592
0.00385706
0.00387592
0.00387632
0.00385812
0.00385812
0.00387726
0.00387726
0.00388429
0.0039036
0.00390496
0.0038828
0.00388288
0.00390367
0.00389845
0.00388658
0.00390246
0.00388341
0.00388631
0.00388288
0.00390367
0.00389845
0.00388658
0.00390246
0.00388342
0.00388631
0.00387776
0.00385746
0.00387642
0.00385854
0.00387776
0.00385746
0.00387642
0.00385854
0.00387634
0.00387382
0.00385791
0.0038607
0.00387696
0.00387368
0.00385737
0.00387634
0.00387382
0.00385791
0.0038607
0.00387696
0.00387368
0.00385737
0.0039047
0.0039047
0.00388312
0.00388374
0.00388374
0.00390251
0.00388238
0.00385706
0.00387592
0.00387632
0.00385812
0.00385812
0.00387726
0.00387726
0.00385706
0.00387592
0.00388288
0.00390367
0.00389845
0.00388657
0.00390246
0.00388341
0.0038863
0.00388429
0.0039036
0.00390496
0.00388279
0.00388288
0.00389845
0.00390367
0.00388657
0.00390246
0.0038863
0.00388341
0.00387776
0.00385746
0.00387642
0.00385854
0.00387634
0.00387382
0.00385791
0.0038607
0.00387696
0.00387368
0.00385737
0.00387776
0.00385746
0.00387642
0.00385854
0.00387634
0.00387382
0.0038607
0.00385791
0.00387368
0.00387696
0.00385737
0.00388429
0.0039036
0.00390496
0.0038828
0.00388288
0.00389845
0.00390367
0.00388658
0.00390246
0.00388631
0.00388341
0.00388429
0.00390361
0.00390496
0.00388279
0.00387634
0.00387382
0.00385791
0.0038607
0.00387696
0.00387368
0.00385737
0.00387776
0.00385746
0.00387642
0.00385854
0.00387634
0.00387382
0.0038607
0.00385791
0.00387368
0.00387696
0.00385737
0.00387776
0.00385746
0.00387642
0.00385854
0.0039047
0.0039047
0.00388312
0.00388373
0.00388373
0.00390251
0.00388238
0.00385706
0.00387592
0.00387632
0.00385812
0.00385812
0.00387726
0.00387726
0.00385706
0.00387592
0.00388288
0.00389844
0.00390367
0.00388657
0.00390246
0.0038863
0.00388341
0.00388429
0.0039036
0.00390496
0.0038828
0.00388429
0.0039036
0.00390496
0.0038828
0.00387634
0.00387382
0.0038607
0.00385791
0.00387368
0.00387696
0.00385737
0.00387634
0.00387382
0.0038607
0.00385791
0.00387368
0.00387696
0.00385737
0.00387776
0.00385746
0.00387642
0.00385854
0.00387776
0.00385746
0.00387642
0.00385854
0.00390251
0.00388237
0.0039025
0.00388238
0.00387632
0.00385812
0.00385812
0.00387726
0.00387726
0.00385706
0.00387592
0.00385706
0.00387592
0.00385058
0.00383072
0.00385058
0.00383072
0.00385155
0.00385155
0.00383115
0.00383158
0.00383158
0.00380451
0.00382404
0.00380451
0.00382404
0.00382417
0.00380518
0.00380518
0.00382485
0.00382485
0.00383206
0.00385092
0.00385197
0.00383101
0.00383116
0.00385129
0.00384757
0.00383452
0.00385071
0.00383151
0.00383442
0.00383116
0.00385129
0.00384757
0.00383452
0.00385071
0.00383151
0.00383442
0.00382534
0.00380474
0.0038243
0.0038056
0.00382534
0.00380474
0.0038243
0.0038056
0.00382441
0.00382141
0.0038052
0.00380826
0.00382476
0.00382133
0.00380493
0.00382441
0.00382141
0.0038052
0.00380826
0.00382476
0.00382133
0.00380493
0.00385155
0.00385155
0.00383114
0.00383158
0.00383158
0.00385058
0.00383072
0.00380452
0.00382404
0.00382417
0.00380518
0.00380518
0.00382485
0.00382485
0.00380452
0.00382404
0.00383116
0.00385129
0.00384757
0.00383452
0.00385071
0.00383151
0.00383442
0.00383206
0.00385092
0.00385197
0.00383101
0.00383116
0.00384757
0.00385129
0.00383452
0.00385071
0.00383442
0.00383151
0.00382534
0.00380474
0.0038243
0.0038056
0.00382441
0.00382141
0.0038052
0.00380826
0.00382476
0.00382133
0.00380493
0.00382534
0.00380474
0.0038243
0.0038056
0.00382441
0.00382141
0.00380826
0.0038052
0.00382133
0.00382476
0.00380493
0.00383206
0.00385092
0.00385197
0.00383101
0.00383116
0.00384757
0.00385129
0.00383452
0.00385071
0.00383442
0.00383151
0.00383206
0.00385092
0.00385197
0.00383101
0.00382441
0.00382141
0.0038052
0.00380827
0.00382476
0.00382133
0.00380493
0.00382534
0.00380474
0.0038243
0.0038056
0.00382441
0.00382141
0.00380827
0.0038052
0.00382133
0.00382476
0.00380493
0.00382534
0.00380474
0.0038243
0.0038056
0.00385155
0.00385155
0.00383114
0.00383158
0.00383158
0.00385058
0.00383072
0.00380451
0.00382404
0.00382417
0.00380518
0.00380518
0.00382485
0.00382485
0.00380451
0.00382404
0.00383116
0.00384757
0.00385129
0.00383452
0.00385071
0.00383442
0.00383151
0.00383206
0.00385092
0.00385197
0.00383101
0.00383206
0.00385092
0.00385197
0.00383101
0.00382441
0.00382141
0.00380826
0.0038052
0.00382133
0.00382476
0.00380493
0.00382441
0.00382141
0.00380827
0.0038052
0.00382133
0.00382476
0.00380493
0.00382534
0.00380474
0.0038243
0.0038056
0.00382534
0.00380474
0.0038243
0.0038056
0.00385058
0.00383072
0.00385058
0.00383072
0.00382417
0.00380518
0.00380518
0.00382485
0.00382485
0.00380452
0.00382404
0.00380452
0.00382404
0.00379803
0.00377851
0.00379803
0.00377851
0.00379868
0.00379868
0.00377904
0.00377908
0.00377908
0.00375294
0.00377202
0.00375294
0.00377202
0.00377222
0.00375343
0.00375343
0.00377256
0.00377256
0.00377951
0.00379824
0.00379905
0.0037787
0.003779
0.00379861
0.00379525
0.00378237
0.00379831
0.00377917
0.00378232
0.003779
0.00379861
0.00379525
0.00378237
0.00379831
0.00377917
0.00378232
0.00377293
0.00375309
0.00377219
0.00375375
0.00377293
0.00375309
0.0037722
0.00375375
0.00377238
0.00376949
0.00375351
0.00375666
0.00377258
0.00376947
0.00375338
0.00377238
0.00376949
0.00375351
0.00375666
0.00377258
0.00376947
0.00375338
0.00379868
0.00379868
0.00377904
0.00377908
0.00377908
0.00379803
0.00377851
0.00375294
0.00377202
0.00377222
0.00375343
0.00375343
0.00377257
0.00377256
0.00375294
0.00377202
0.003779
0.00379861
0.00379525
0.00378237
0.00379831
0.00377917
0.00378232
0.00377951
0.00379824
0.00379905
0.00377869
0.003779
0.00379525
0.00379861
0.00378237
0.00379831
0.00378232
0.00377917
0.00377293
0.00375308
0.00377219
0.00375375
0.00377238
0.00376949
0.00375351
0.00375666
0.00377258
0.00376947
0.00375338
0.00377293
0.00375308
0.00377219
0.00375375
0.00377238
0.00376949
0.00375666
0.00375351
0.00376947
0.00377258
0.00375338
0.00377951
0.00379824
0.00379905
0.00377869
0.003779
0.00379525
0.00379861
0.00378237
0.00379831
0.00378232
0.00377917
0.00377951
0.00379824
0.00379905
0.00377869
0.00377238
0.00376949
0.00375351
0.00375666
0.00377258
0.00376947
0.00375338
0.00377293
0.00375309
0.00377219
0.00375375
0.00377238
0.00376949
0.00375666
0.00375351
0.00376947
0.00377258
0.00375338
0.00377293
0.00375309
0.00377219
0.00375375
0.00379868
0.00379868
0.00377904
0.00377908
0.00377908
0.00379803
0.00377851
0.00375294
0.00377202
0.00377222
0.00375343
0.00375343
0.00377256
0.00377256
0.00375294
0.00377202
0.003779
0.00379525
0.00379861
0.00378237
0.00379831
0.00378233
0.00377917
0.00377951
0.00379824
0.00379905
0.00377869
0.00377951
0.00379824
0.00379905
0.00377869
0.00377238
0.00376949
0.00375666
0.00375351
0.00376947
0.00377258
0.00375338
0.00377238
0.00376949
0.00375666
0.00375351
0.00376947
0.00377258
0.00375338
0.00377293
0.00375308
0.00377219
0.00375375
0.00377293
0.00375309
0.00377219
0.00375375
0.00379803
0.00377851
0.00379803
0.00377851
0.00377222
0.00375343
0.00375343
0.00377256
0.00377256
0.00375294
0.00377202
0.00375294
0.00377202
0.00374649
0.00372763
0.00374649
0.00372763
0.00374697
0.00374697
0.00372812
0.00372807
0.00372807
0.00370256
0.00372134
0.00370256
0.00372134
0.00372151
0.00370296
0.00370296
0.00372177
0.00372177
0.00372831
0.00374664
0.00374733
0.00372778
0.00372804
0.00374701
0.00374394
0.00373134
0.00374687
0.00372816
0.00373131
0.00372804
0.00374701
0.00374394
0.00373134
0.00374687
0.00372816
0.00373131
0.00372194
0.00370265
0.00372148
0.0037032
0.00372194
0.00370265
0.00372148
0.0037032
0.00372163
0.00371881
0.00370306
0.00370639
0.00372178
0.00371881
0.00370307
0.00372163
0.00371881
0.00370306
0.00370639
0.00372178
0.00371881
0.00370307
0.00374697
0.00374697
0.00372812
0.00372807
0.00372807
0.00374649
0.00372763
0.00370257
0.00372134
0.00372151
0.00370296
0.00370296
0.00372177
0.00372177
0.00370256
0.00372134
0.00372804
0.00374701
0.00374394
0.00373134
0.00374687
0.00372816
0.00373131
0.00372831
0.00374663
0.00374733
0.00372778
0.00372804
0.00374394
0.00374701
0.00373134
0.00374687
0.00373131
0.00372816
0.00372194
0.00370265
0.00372148
0.0037032
0.00372163
0.00371881
0.00370306
0.00370639
0.00372178
0.00371881
0.00370307
0.00372194
0.00370265
0.00372148
0.0037032
0.00372163
0.00371881
0.00370639
0.00370306
0.00371881
0.00372178
0.00370307
0.00372831
0.00374663
0.00374733
0.00372778
0.00372804
0.00374394
0.00374701
0.00373134
0.00374687
0.00373131
0.00372816
0.00372831
0.00374663
0.00374733
0.00372778
0.00372163
0.00371881
0.00370306
0.00370639
0.00372178
0.00371881
0.00370307
0.00372194
0.00370265
0.00372148
0.0037032
0.00372163
0.00371881
0.00370639
0.00370306
0.00371881
0.00372178
0.00370307
0.00372194
0.00370265
0.00372148
0.0037032
0.00374697
0.00374697
0.00372812
0.00372807
0.00372807
0.00374649
0.00372763
0.00370256
0.00372134
0.0037215
0.00370296
0.00370296
0.00372177
0.00372177
0.00370256
0.00372134
0.00372804
0.00374394
0.00374701
0.00373134
0.00374687
0.00373131
0.00372816
0.00372831
0.00374663
0.00374733
0.00372778
0.00372831
0.00374663
0.00374733
0.00372778
0.00372163
0.00371881
0.00370639
0.00370306
0.00371881
0.00372178
0.00370307
0.00372163
0.00371881
0.00370639
0.00370306
0.00371881
0.00372178
0.00370307
0.00372194
0.00370265
0.00372148
0.0037032
0.00372194
0.00370265
0.00372148
0.0037032
0.00374649
0.00372763
0.00374649
0.00372763
0.00372151
0.00370296
0.00370296
0.00372177
0.00372177
0.00370256
0.00372134
0.00370256
0.00372134
0.00369631
0.00367801
0.00369631
0.00367802
0.0036967
0.0036967
0.00367909
0.00367839
0.0036784
0.00365513
0.00367208
0.00365513
0.00367208
0.00367288
0.00365538
0.00365538
0.00367245
0.00367245
0.00367885
0.00369641
0.00369705
0.00367825
0.0036788
0.00369679
0.00369414
0.00368213
0.00369681
0.0036787
0.00368217
0.0036788
0.00369679
0.00369414
0.00368213
0.00369681
0.0036787
0.00368217
0.00367279
0.00365534
0.00367234
0.0036553
0.00367279
0.00365534
0.00367234
0.0036553
0.00367276
0.00367042
0.00365567
0.00365907
0.0036727
0.00367047
0.00365571
0.00367276
0.00367042
0.00365567
0.00365907
0.0036727
0.00367047
0.00365571
0.0036967
0.0036967
0.00367909
0.00367839
0.00367839
0.00369631
0.00367801
0.00365513
0.00367207
0.00367288
0.00365538
0.00365538
0.00367245
0.00367245
0.00365513
0.00367208
0.0036788
0.00369678
0.00369414
0.00368213
0.00369681
0.0036787
0.00368217
0.00367885
0.00369641
0.00369705
0.00367825
0.0036788
0.00369414
0.00369678
0.00368213
0.00369681
0.00368217
0.0036787
0.00367278
0.00365534
0.00367234
0.0036553
0.00367276
0.00367042
0.00365567
0.00365907
0.0036727
0.00367047
0.00365571
0.00367278
0.00365534
0.00367234
0.0036553
0.00367276
0.00367042
0.00365907
0.00365567
0.00367047
0.0036727
0.00365571
0.00367885
0.00369641
0.00369705
0.00367825
0.0036788
0.00369414
0.00369679
0.00368213
0.00369681
0.00368217
0.0036787
0.00367885
0.00369641
0.00369705
0.00367825
0.00367276
0.00367042
0.00365567
0.00365907
0.0036727
0.00367047
0.00365572
0.00367279
0.00365534
0.00367234
0.0036553
0.00367276
0.00367042
0.00365907
0.00365567
0.00367047
0.0036727
0.00365571
0.00367279
0.00365534
0.00367234
0.0036553
0.0036967
0.0036967
0.00367909
0.00367839
0.00367839
0.00369631
0.00367801
0.00365513
0.00367208
0.00367288
0.00365538
0.00365538
0.00367245
0.00367245
0.00365513
0.00367208
0.0036788
0.00369414
0.00369679
0.00368213
0.00369681
0.00368217
0.0036787
0.00367885
0.00369641
0.00369705
0.00367825
0.00367885
0.00369641
0.00369705
0.00367825
0.00367276
0.00367042
0.00365907
0.00365567
0.00367047
0.0036727
0.00365571
0.00367276
0.00367042
0.00365907
0.00365567
0.00367047
0.0036727
0.00365571
0.00367278
0.00365534
0.00367234
0.0036553
0.00367278
0.00365534
0.00367234
0.0036553
0.00369631
0.00367801
0.00369631
0.00367801
0.00367288
0.00365538
0.00365538
0.00367245
0.00367245
0.00365513
0.00367208
0.00365513
0.00367208
0.00364968
0.0036339
0.00364968
0.00363388
0.00364991
0.00364991
0.00363458
0.00363411
0.00363411
0.00361326
0.00362873
0.00361326
0.00362872
0.00362904
0.00361335
0.00361335
0.00362888
0.00362888
0.00363385
0.00364984
0.00364973
0.00363396
0.00363427
0.0036501
0.003648
0.00363716
0.00365012
0.0036342
0.00363721
0.00363427
0.0036501
0.003648
0.00363715
0.00365012
0.00363421
0.00363721
0.00362866
0.00361322
0.00362873
0.00361328
0.00362866
0.00361322
0.00362873
0.00361328
0.0036289
0.00362657
0.00361338
0.00361612
0.00362887
0.00362661
0.00361345
0.0036289
0.00362657
0.00361338
0.00361612
0.00362887
0.00362661
0.00361345
0.00364991
0.00364991
0.00363458
0.00363411
0.00363411
0.00364968
0.00363393
0.00361327
0.00362873
0.00362903
0.00361335
0.00361335
0.00362888
0.00362889
0.00361327
0.00362874
0.00363428
0.0036501
0.003648
0.00363716
0.00365012
0.0036342
0.00363721
0.00363385
0.00364984
0.00364973
0.00363396
0.00363428
0.003648
0.0036501
0.00363715
0.00365012
0.00363721
0.0036342
0.00362866
0.00361322
0.00362873
0.00361328
0.0036289
0.00362657
0.00361338
0.00361612
0.00362887
0.00362661
0.00361345
0.00362866
0.00361322
0.00362873
0.00361328
0.00362889
0.00362657
0.00361612
0.00361338
0.00362661
0.00362887
0.00361345
0.00363386
0.00364984
0.00364973
0.00363398
0.00363428
0.003648
0.0036501
0.00363715
0.00365012
0.00363721
0.0036342
0.00363386
0.00364984
0.00364973
0.00363396
0.0036289
0.00362657
0.00361338
0.00361612
0.00362888
0.00362661
0.00361345
0.00362866
0.00361323
0.00362874
0.00361328
0.0036289
0.00362657
0.00361612
0.00361338
0.00362661
0.00362887
0.00361345
0.00362866
0.00361322
0.00362873
0.00361328
0.0036499
0.00364991
0.00363458
0.0036341
0.00363411
0.00364968
0.0036339
0.00361327
0.00362873
0.00362904
0.00361335
0.00361335
0.00362888
0.00362888
0.00361327
0.00362873
0.00363428
0.003648
0.0036501
0.00363715
0.00365012
0.00363721
0.00363426
0.00363386
0.00364984
0.00364973
0.00363396
0.00363386
0.00364984
0.00364973
0.00363398
0.0036289
0.00362657
0.00361612
0.00361338
0.00362661
0.00362887
0.00361345
0.0036289
0.00362657
0.00361612
0.00361338
0.00362661
0.00362888
0.00361345
0.00362866
0.00361322
0.00362873
0.00361328
0.00362866
0.00361322
0.00362874
0.00361328
0.00364968
0.0036339
0.00364968
0.00363391
0.00362904
0.00361335
0.00361335
0.00362888
0.00362889
0.00361327
0.00362873
0.00361327
0.00362873
0.00360807
0.0035926
0.00360807
0.0035926
0.00360815
0.00360815
0.00359283
0.00359262
0.00359262
0.00357189
0.0035874
0.00357189
0.0035874
0.00358735
0.00357189
0.00357189
0.00358742
0.00358742
0.00359263
0.00360804
0.00360811
0.00359258
0.00359271
0.0036081
0.00360569
0.00359527
0.00360815
0.00359265
0.00359528
0.00359271
0.0036081
0.00360569
0.00359527
0.00360815
0.00359265
0.00359528
0.00358743
0.00357189
0.00358738
0.00357191
0.00358743
0.00357189
0.00358738
0.00357191
0.0035874
0.00358487
0.00357193
0.00357451
0.00358738
0.00358489
0.00357197
0.0035874
0.00358487
0.00357193
0.00357451
0.00358738
0.00358489
0.00357197
0.00360815
0.00360815
0.00359283
0.00359262
0.00359262
0.00360808
0.0035926
0.00357189
0.0035874
0.00358735
0.00357189
0.00357189
0.00358743
0.00358742
0.00357189
0.0035874
0.00359271
0.0036081
0.00360569
0.00359527
0.00360815
0.00359265
0.00359528
0.00359263
0.00360804
0.00360811
0.00359258
0.00359271
0.00360569
0.0036081
0.00359527
0.00360815
0.00359528
0.00359265
0.00358743
0.00357189
0.00358738
0.00357191
0.0035874
0.00358487
0.00357193
0.00357451
0.00358738
0.00358489
0.00357197
0.00358743
0.00357188
0.00358738
0.00357191
0.0035874
0.00358487
0.00357451
0.00357193
0.00358489
0.00358738
0.00357197
0.00359263
0.00360804
0.00360811
0.00359258
0.00359271
0.00360569
0.0036081
0.00359527
0.00360815
0.00359528
0.00359265
0.00359263
0.00360804
0.00360811
0.00359258
0.0035874
0.00358487
0.00357193
0.00357451
0.00358738
0.00358489
0.00357197
0.00358743
0.00357189
0.00358738
0.00357191
0.0035874
0.00358487
0.00357451
0.00357193
0.00358489
0.00358738
0.00357197
0.00358743
0.00357189
0.00358738
0.00357191
0.00360815
0.00360815
0.00359282
0.00359262
0.00359262
0.00360808
0.0035926
0.00357189
0.0035874
0.00358735
0.00357189
0.00357189
0.00358742
0.00358742
0.00357189
0.0035874
0.00359271
0.00360569
0.0036081
0.00359527
0.00360815
0.00359528
0.00359265
0.00359263
0.00360804
0.00360811