/*--------------------------------*- C++ -*----------------------------------*\
| =========                 |                                                 |
| \\      /  F ield         | OpenFOAM: The Open Source CFD Toolbox           |
|  \\    /   O peration     | Version:  2206                                  |
|   \\  /    A nd           | Website:  www.openfoam.com                      |
|    \\/     M anipulation  |                                                 |
\*---------------------------------------------------------------------------*/
FoamFile
{
    version     2.0;
    format      ascii;
    arch        "LSB;label=32;scalar=64";
    class       volScalarField;
    location    "33";
    object      k;
}
// * * * * * * * * * * * * * * * * * * * * * * * * * * * * * * * * * * * * * //

dimensions      [0 2 -2 0 0 0 0];

internalField   nonuniform List<scalar> 
28448
(
2.49676e-05
2.42967e-05
2.42964e-05
2.36312e-05
2.49677e-05
2.42968e-05
2.42964e-05
2.36314e-05
2.49676e-05
2.42968e-05
2.42965e-05
2.36316e-05
2.49677e-05
2.42969e-05
2.42966e-05
2.36319e-05
2.49677e-05
2.42971e-05
2.42965e-05
2.36321e-05
2.49675e-05
2.4297e-05
2.42965e-05
2.36321e-05
2.49673e-05
2.42966e-05
2.42962e-05
2.36315e-05
2.49644e-05
2.42928e-05
2.42915e-05
2.36266e-05
2.49606e-05
2.4289e-05
2.42887e-05
2.36233e-05
2.49605e-05
2.42889e-05
2.42887e-05
2.36233e-05
2.49605e-05
2.42889e-05
2.42888e-05
2.36233e-05
2.49605e-05
2.4289e-05
2.42888e-05
2.36233e-05
2.49605e-05
2.4289e-05
2.42888e-05
2.36233e-05
2.49605e-05
2.4289e-05
2.42888e-05
2.36233e-05
2.49605e-05
2.4289e-05
2.42888e-05
2.36233e-05
2.49605e-05
2.4289e-05
2.42888e-05
2.36233e-05
2.49605e-05
2.4289e-05
2.42888e-05
2.36233e-05
2.49609e-05
2.4289e-05
2.36355e-05
2.42962e-05
2.42961e-05
2.36355e-05
2.42966e-05
2.42957e-05
2.42967e-05
2.42962e-05
2.36351e-05
2.42964e-05
2.42965e-05
2.36355e-05
2.36315e-05
2.36356e-05
2.42962e-05
2.42961e-05
2.42962e-05
2.4296e-05
2.36315e-05
2.36356e-05
2.42966e-05
2.42959e-05
2.42966e-05
2.42959e-05
2.42964e-05
2.42968e-05
2.42963e-05
2.36311e-05
2.36353e-05
2.42967e-05
2.42964e-05
2.42967e-05
2.36356e-05
2.36316e-05
2.36358e-05
2.42963e-05
2.42961e-05
2.42963e-05
2.42961e-05
2.36316e-05
2.36358e-05
2.42967e-05
2.4296e-05
2.42967e-05
2.42959e-05
2.42964e-05
2.42968e-05
2.42964e-05
2.36313e-05
2.36355e-05
2.42968e-05
2.42965e-05
2.42968e-05
2.36358e-05
2.36318e-05
2.3636e-05
2.42964e-05
2.42963e-05
2.42964e-05
2.42963e-05
2.36318e-05
2.36361e-05
2.42968e-05
2.42961e-05
2.42968e-05
2.42961e-05
2.42966e-05
2.42969e-05
2.42966e-05
2.36315e-05
2.36357e-05
2.4297e-05
2.42966e-05
2.42969e-05
2.36361e-05
2.3632e-05
2.36363e-05
2.42965e-05
2.42965e-05
2.42966e-05
2.42965e-05
2.36321e-05
2.36363e-05
2.4297e-05
2.42963e-05
2.4297e-05
2.42963e-05
2.42968e-05
2.4297e-05
2.42967e-05
2.36317e-05
2.36359e-05
2.4297e-05
2.42965e-05
2.4297e-05
2.36363e-05
2.36323e-05
2.36366e-05
2.42967e-05
2.42967e-05
2.42968e-05
2.42967e-05
2.36323e-05
2.36365e-05
2.42971e-05
2.42963e-05
2.42971e-05
2.42959e-05
2.42968e-05
2.42971e-05
2.42964e-05
2.36319e-05
2.3636e-05
2.42972e-05
2.42966e-05
2.42969e-05
2.36364e-05
2.36326e-05
2.36366e-05
2.42968e-05
2.42967e-05
2.42965e-05
2.42963e-05
2.36325e-05
2.36364e-05
2.42972e-05
2.42959e-05
2.4297e-05
2.42957e-05
2.42964e-05
2.42967e-05
2.42961e-05
2.3632e-05
2.36358e-05
2.42968e-05
2.42964e-05
2.42965e-05
2.36361e-05
2.36325e-05
2.36337e-05
2.42963e-05
2.42962e-05
2.42945e-05
2.42943e-05
2.36323e-05
2.36336e-05
2.42969e-05
2.42955e-05
2.42948e-05
2.42926e-05
2.4296e-05
2.42947e-05
2.42929e-05
2.36316e-05
2.36318e-05
2.42963e-05
2.42933e-05
2.42933e-05
2.36321e-05
2.36286e-05
2.36282e-05
2.42928e-05
2.42926e-05
2.4289e-05
2.42888e-05
2.36285e-05
2.36282e-05
2.42931e-05
2.42909e-05
2.42893e-05
2.42881e-05
2.42912e-05
2.42893e-05
2.42886e-05
2.36267e-05
2.36274e-05
2.42915e-05
2.42889e-05
2.4289e-05
2.36277e-05
2.36239e-05
2.36276e-05
2.42887e-05
2.42885e-05
2.42885e-05
2.42883e-05
2.36239e-05
2.36276e-05
2.42891e-05
2.42881e-05
2.42889e-05
2.4288e-05
2.42886e-05
2.42889e-05
2.42885e-05
2.36232e-05
2.36273e-05
2.4289e-05
2.42888e-05
2.42889e-05
2.36276e-05
2.36236e-05
2.36275e-05
2.42886e-05
2.42885e-05
2.42885e-05
2.42884e-05
2.36236e-05
2.36275e-05
2.4289e-05
2.42881e-05
2.42889e-05
2.42881e-05
2.42886e-05
2.4289e-05
2.42885e-05
2.36232e-05
2.36272e-05
2.4289e-05
2.42888e-05
2.42889e-05
2.36276e-05
2.36235e-05
2.36276e-05
2.42886e-05
2.42885e-05
2.42885e-05
2.42884e-05
2.36235e-05
2.36276e-05
2.4289e-05
2.42882e-05
2.42889e-05
2.42881e-05
2.42886e-05
2.4289e-05
2.42885e-05
2.36232e-05
2.36272e-05
2.4289e-05
2.42888e-05
2.42889e-05
2.36276e-05
2.36236e-05
2.36276e-05
2.42886e-05
2.42885e-05
2.42885e-05
2.42884e-05
2.36236e-05
2.36276e-05
2.4289e-05
2.42882e-05
2.42889e-05
2.42881e-05
2.42886e-05
2.4289e-05
2.42885e-05
2.36232e-05
2.36272e-05
2.4289e-05
2.42888e-05
2.42889e-05
2.36276e-05
2.36235e-05
2.36276e-05
2.42886e-05
2.42885e-05
2.42885e-05
2.42884e-05
2.36235e-05
2.36276e-05
2.4289e-05
2.42882e-05
2.42889e-05
2.42881e-05
2.42886e-05
2.4289e-05
2.42885e-05
2.36232e-05
2.36272e-05
2.4289e-05
2.42888e-05
2.42889e-05
2.36276e-05
2.36236e-05
2.36276e-05
2.42886e-05
2.42885e-05
2.42885e-05
2.42884e-05
2.36235e-05
2.36276e-05
2.4289e-05
2.42882e-05
2.42889e-05
2.42881e-05
2.42886e-05
2.4289e-05
2.42885e-05
2.36232e-05
2.36272e-05
2.4289e-05
2.42888e-05
2.42889e-05
2.36276e-05
2.36236e-05
2.36276e-05
2.42886e-05
2.42885e-05
2.42885e-05
2.42884e-05
2.36236e-05
2.36276e-05
2.4289e-05
2.42882e-05
2.42889e-05
2.42881e-05
2.42886e-05
2.4289e-05
2.42885e-05
2.36232e-05
2.36272e-05
2.4289e-05
2.42888e-05
2.42889e-05
2.36276e-05
2.36236e-05
2.36276e-05
2.42886e-05
2.42885e-05
2.42885e-05
2.42884e-05
2.36236e-05
2.36276e-05
2.4289e-05
2.42882e-05
2.42889e-05
2.42881e-05
2.42886e-05
2.4289e-05
2.42885e-05
2.36232e-05
2.36272e-05
2.4289e-05
2.42888e-05
2.42889e-05
2.36276e-05
2.36236e-05
2.36276e-05
2.42886e-05
2.42885e-05
2.42887e-05
2.36236e-05
2.4289e-05
2.42882e-05
2.42889e-05
2.42881e-05
2.42886e-05
2.42887e-05
2.36232e-05
2.36272e-05
2.4289e-05
2.42888e-05
2.4289e-05
2.36277e-05
2.36239e-05
2.4289e-05
2.42882e-05
2.36232e-05
2.49676e-05
2.49677e-05
2.49675e-05
2.49676e-05
2.8082e-05
6.99222e-05
2.80835e-05
6.99196e-05
7.72312e-05
7.72288e-05
2.80837e-05
6.99238e-05
2.80849e-05
6.99211e-05
2.49677e-05
2.49677e-05
2.49678e-05
2.49677e-05
2.49677e-05
2.49676e-05
2.49677e-05
2.27643e-05
2.7624e-05
2.46651e-05
2.42969e-05
2.27643e-05
2.76201e-05
2.46653e-05
7.72253e-05
7.7223e-05
2.27642e-05
2.4665e-05
2.76249e-05
2.42965e-05
2.27642e-05
2.46651e-05
2.7621e-05
3.58182e-05
3.5821e-05
2.36355e-05
3.58174e-05
3.58203e-05
2.80846e-05
6.99207e-05
2.80865e-05
6.99187e-05
7.72257e-05
7.72249e-05
2.80864e-05
6.99222e-05
2.8088e-05
6.99199e-05
2.49677e-05
2.49676e-05
2.49678e-05
2.49677e-05
2.49676e-05
2.49675e-05
2.49677e-05
2.2765e-05
2.76267e-05
2.46652e-05
2.42969e-05
2.2765e-05
2.76223e-05
2.46652e-05
7.72214e-05
7.72204e-05
2.27649e-05
2.4665e-05
2.76272e-05
2.42965e-05
2.27649e-05
2.46651e-05
2.76229e-05
3.58221e-05
3.58249e-05
2.36357e-05
3.58204e-05
3.58233e-05
2.80863e-05
6.99202e-05
2.80885e-05
6.99181e-05
7.72238e-05
7.72238e-05
2.80881e-05
6.99215e-05
2.809e-05
6.99193e-05
2.49677e-05
2.49675e-05
2.49678e-05
2.49677e-05
2.49677e-05
2.49674e-05
2.49678e-05
2.27656e-05
2.76282e-05
2.46652e-05
2.42969e-05
2.27656e-05
2.76235e-05
2.46653e-05
7.722e-05
7.72193e-05
2.27656e-05
2.4665e-05
2.76285e-05
2.42966e-05
2.27656e-05
2.46651e-05
2.7624e-05
3.58234e-05
3.58263e-05
2.3636e-05
3.58212e-05
3.58242e-05
2.80872e-05
6.99197e-05
2.80897e-05
6.99178e-05
7.72238e-05
7.72241e-05
2.80887e-05
6.99211e-05
2.80911e-05
6.99191e-05
2.49679e-05
2.49676e-05
2.49679e-05
2.49677e-05
2.49678e-05
2.49674e-05
2.49677e-05
2.27662e-05
2.76292e-05
2.46652e-05
2.42971e-05
2.27662e-05
2.76244e-05
2.46654e-05
7.72197e-05
7.72199e-05
2.2766e-05
2.4665e-05
2.76293e-05
2.42967e-05
2.27661e-05
2.4665e-05
2.76247e-05
3.58246e-05
3.58276e-05
2.36362e-05
3.58229e-05
3.5826e-05
2.80876e-05
6.99198e-05
2.80901e-05
6.99181e-05
7.72245e-05
7.72251e-05
2.80892e-05
6.99213e-05
2.80914e-05
6.99195e-05
2.49678e-05
2.49674e-05
2.49677e-05
2.49676e-05
2.49677e-05
2.49672e-05
2.49674e-05
2.27665e-05
2.76299e-05
2.46653e-05
2.42972e-05
2.27666e-05
2.7625e-05
2.46653e-05
7.72211e-05
7.72213e-05
2.27664e-05
2.46649e-05
2.76299e-05
2.42966e-05
2.27664e-05
2.4665e-05
2.76252e-05
3.58266e-05
3.58296e-05
2.36364e-05
3.58246e-05
3.58277e-05
2.80879e-05
6.99203e-05
2.80906e-05
6.99189e-05
7.72258e-05
7.7227e-05
2.80894e-05
6.99218e-05
2.80919e-05
6.99202e-05
2.49676e-05
2.49672e-05
2.49674e-05
2.49674e-05
2.49673e-05
2.4967e-05
2.49672e-05
2.27668e-05
2.76302e-05
2.46652e-05
2.42969e-05
2.2767e-05
2.7625e-05
2.46652e-05
7.72228e-05
7.72232e-05
2.27665e-05
2.46649e-05
2.76302e-05
2.42965e-05
2.27669e-05
2.46649e-05
2.76253e-05
3.58271e-05
3.58302e-05
2.36364e-05
3.58245e-05
3.58275e-05
2.80865e-05
6.99223e-05
2.80898e-05
6.99215e-05
7.72275e-05
7.7227e-05
2.80878e-05
6.99239e-05
2.80909e-05
6.99229e-05
2.49673e-05
2.4967e-05
2.49671e-05
2.4966e-05
2.49659e-05
2.49647e-05
2.49647e-05
2.27642e-05
2.76297e-05
2.46649e-05
2.42964e-05
2.27657e-05
2.7624e-05
2.46647e-05
7.72231e-05
7.72218e-05
2.27637e-05
2.46646e-05
2.76298e-05
2.42959e-05
2.27654e-05
2.46643e-05
2.76241e-05
3.58269e-05
3.58299e-05
2.36349e-05
3.5824e-05
3.58272e-05
2.80824e-05
6.99236e-05
2.80872e-05
6.99215e-05
7.72247e-05
7.72243e-05
2.80834e-05
6.99253e-05
2.80879e-05
6.9923e-05
2.49643e-05
2.49631e-05
2.49631e-05
2.4961e-05
2.4961e-05
2.49606e-05
2.49607e-05
2.27567e-05
2.76268e-05
2.4661e-05
2.42914e-05
2.27601e-05
2.76197e-05
2.46597e-05
7.72205e-05
7.72197e-05
2.27566e-05
2.46603e-05
2.76262e-05
2.42903e-05
2.27595e-05
2.46591e-05
2.76195e-05
3.58246e-05
3.58278e-05
2.36291e-05
3.58207e-05
3.58239e-05
2.8079e-05
6.99227e-05
2.80826e-05
6.99205e-05
7.72237e-05
7.72238e-05
2.80804e-05
6.99243e-05
2.80836e-05
6.9922e-05
2.49608e-05
2.49606e-05
2.49607e-05
2.49605e-05
2.49606e-05
2.49605e-05
2.49606e-05
2.27566e-05
2.76226e-05
2.46577e-05
2.4289e-05
2.27569e-05
2.76168e-05
2.46578e-05
7.72196e-05
7.72192e-05
2.27565e-05
2.46576e-05
2.76226e-05
2.42888e-05
2.27567e-05
2.46577e-05
2.76173e-05
3.58215e-05
3.58246e-05
2.36276e-05
3.58185e-05
3.58216e-05
2.80784e-05
6.99222e-05
2.80812e-05
6.99203e-05
7.72236e-05
7.72238e-05
2.80799e-05
6.99238e-05
2.80825e-05
6.99218e-05
2.49607e-05
2.49605e-05
2.49606e-05
2.49605e-05
2.49606e-05
2.49605e-05
2.49605e-05
2.27564e-05
2.76214e-05
2.46577e-05
2.4289e-05
2.27567e-05
2.76162e-05
2.46578e-05
7.72196e-05
7.72192e-05
2.27564e-05
2.46576e-05
2.76219e-05
2.42888e-05
2.27566e-05
2.46577e-05
2.7617e-05
3.58207e-05
3.58237e-05
2.36276e-05
3.58182e-05
3.58213e-05
2.80783e-05
6.99221e-05
2.80811e-05
6.99203e-05
7.72236e-05
7.72238e-05
2.80798e-05
6.99238e-05
2.80823e-05
6.99218e-05
2.49607e-05
2.49605e-05
2.49606e-05
2.49605e-05
2.49606e-05
2.49605e-05
2.49606e-05
2.27564e-05
2.76213e-05
2.46577e-05
2.4289e-05
2.27566e-05
2.76162e-05
2.46578e-05
7.72196e-05
7.72192e-05
2.27564e-05
2.46576e-05
2.76218e-05
2.42889e-05
2.27566e-05
2.46577e-05
2.7617e-05
3.58206e-05
3.58237e-05
2.36276e-05
3.58182e-05
3.58212e-05
2.80783e-05
6.99221e-05
2.80811e-05
6.99203e-05
7.72236e-05
7.72238e-05
2.80798e-05
6.99238e-05
2.80823e-05
6.99218e-05
2.49607e-05
2.49605e-05
2.49606e-05
2.49605e-05
2.49606e-05
2.49605e-05
2.49606e-05
2.27564e-05
2.76213e-05
2.46577e-05
2.4289e-05
2.27566e-05
2.76162e-05
2.46578e-05
7.72196e-05
7.72192e-05
2.27563e-05
2.46576e-05
2.76218e-05
2.42889e-05
2.27566e-05
2.46577e-05
2.7617e-05
3.58206e-05
3.58237e-05
2.36276e-05
3.58182e-05
3.58212e-05
2.80783e-05
6.99221e-05
2.80811e-05
6.99203e-05
7.72236e-05
7.72238e-05
2.80798e-05
6.99238e-05
2.80823e-05
6.99218e-05
2.49607e-05
2.49605e-05
2.49606e-05
2.49605e-05
2.49606e-05
2.49605e-05
2.49606e-05
2.27564e-05
2.76213e-05
2.46577e-05
2.42891e-05
2.27566e-05
2.76162e-05
2.46578e-05
7.72196e-05
7.72192e-05
2.27562e-05
2.46576e-05
2.76218e-05
2.42889e-05
2.27565e-05
2.46577e-05
2.7617e-05
3.58206e-05
3.58237e-05
2.36276e-05
3.58182e-05
3.58212e-05
2.80783e-05
6.99221e-05
2.80811e-05
6.99203e-05
7.72236e-05
7.72238e-05
2.80798e-05
6.99238e-05
2.80823e-05
6.99218e-05
2.49607e-05
2.49605e-05
2.49606e-05
2.49605e-05
2.49606e-05
2.49605e-05
2.49606e-05
2.27564e-05
2.76213e-05
2.46577e-05
2.42891e-05
2.27566e-05
2.76162e-05
2.46578e-05
7.72196e-05
7.72192e-05
2.27561e-05
2.46576e-05
2.76218e-05
2.42889e-05
2.27563e-05
2.46577e-05
2.7617e-05
3.58206e-05
3.58236e-05
2.36276e-05
3.58182e-05
3.58212e-05
2.80783e-05
6.99221e-05
2.80811e-05
6.99203e-05
7.72236e-05
7.72238e-05
2.80798e-05
6.99238e-05
2.80823e-05
6.99218e-05
2.49607e-05
2.49605e-05
2.49606e-05
2.49605e-05
2.49606e-05
2.49605e-05
2.49606e-05
2.27564e-05
2.76213e-05
2.46577e-05
2.42891e-05
2.27566e-05
2.76162e-05
2.46578e-05
7.72196e-05
7.72192e-05
2.27559e-05
2.46576e-05
2.76218e-05
2.42889e-05
2.27562e-05
2.46577e-05
2.7617e-05
3.58206e-05
3.58236e-05
2.36276e-05
3.58182e-05
3.58212e-05
2.80783e-05
6.99221e-05
2.80811e-05
6.99203e-05
7.72236e-05
7.72238e-05
2.80798e-05
6.99238e-05
2.80823e-05
6.99218e-05
2.49607e-05
2.49605e-05
2.49606e-05
2.49605e-05
2.49606e-05
2.49605e-05
2.49606e-05
2.27564e-05
2.76213e-05
2.46577e-05
2.42891e-05
2.27566e-05
2.76162e-05
2.46578e-05
7.72196e-05
7.72192e-05
2.27558e-05
2.46576e-05
2.76218e-05
2.42889e-05
2.27561e-05
2.46577e-05
2.7617e-05
3.58206e-05
3.58236e-05
2.36276e-05
3.58182e-05
3.58212e-05
2.80783e-05
6.99221e-05
2.80811e-05
6.99203e-05
7.72236e-05
7.72238e-05
2.80798e-05
6.99238e-05
2.80823e-05
6.99218e-05
2.49607e-05
2.49605e-05
2.49606e-05
2.49606e-05
2.49609e-05
2.49605e-05
2.49607e-05
2.27564e-05
2.76213e-05
2.46577e-05
2.4289e-05
2.27566e-05
2.76162e-05
2.46578e-05
7.72196e-05
7.72192e-05
2.27557e-05
2.46576e-05
2.76218e-05
2.42889e-05
2.27559e-05
2.46577e-05
2.7617e-05
3.58206e-05
3.58236e-05
2.36276e-05
3.58182e-05
3.58212e-05
6.99238e-05
2.80823e-05
2.49607e-05
7.72196e-05
2.76219e-05
7.72327e-05
7.72314e-05
3.58138e-05
3.58159e-05
6.99206e-05
2.80803e-05
6.99243e-05
2.80808e-05
2.76194e-05
2.46652e-05
2.27642e-05
2.76206e-05
2.46652e-05
2.27644e-05
7.72323e-05
3.58167e-05
3.58148e-05
7.72279e-05
6.99221e-05
2.80819e-05
2.76205e-05
2.46653e-05
2.2765e-05
2.80833e-05
6.99186e-05
6.99214e-05
2.80821e-05
2.27645e-05
2.42957e-05
2.4665e-05
2.76197e-05
2.4665e-05
2.76238e-05
2.27642e-05
2.27642e-05
2.76184e-05
2.46651e-05
2.46651e-05
2.2764e-05
2.80828e-05
6.99206e-05
2.80814e-05
2.27643e-05
2.42962e-05
2.46651e-05
2.76198e-05
2.46651e-05
2.76235e-05
2.2764e-05
2.80827e-05
6.99215e-05
6.99242e-05
2.80813e-05
7.72256e-05
7.72282e-05
2.36278e-05
3.58126e-05
3.5815e-05
3.58145e-05
3.58168e-05
7.72304e-05
7.72329e-05
2.27642e-05
2.42964e-05
2.4665e-05
2.76197e-05
2.4665e-05
2.76235e-05
2.27639e-05
2.27642e-05
2.42966e-05
2.46651e-05
2.76206e-05
2.46651e-05
2.76244e-05
2.2764e-05
2.80831e-05
6.99219e-05
6.99246e-05
2.80815e-05
2.80831e-05
6.99241e-05
6.99268e-05
2.80818e-05
2.36281e-05
3.58152e-05
3.5818e-05
3.58169e-05
3.58199e-05
7.72304e-05
7.72328e-05
7.72297e-05
7.72321e-05
7.72319e-05
7.72292e-05
7.72305e-05
7.72279e-05
3.58166e-05
3.58188e-05
2.36355e-05
3.58163e-05
3.58185e-05
7.72268e-05
7.72286e-05
7.72254e-05
7.72272e-05
2.36315e-05
3.58183e-05
3.58206e-05
3.58189e-05
3.58211e-05
2.80825e-05
6.99259e-05
2.8084e-05
6.99232e-05
2.27646e-05
2.76247e-05
2.46652e-05
2.42962e-05
2.27648e-05
2.76209e-05
2.46652e-05
2.27648e-05
2.7626e-05
2.46652e-05
2.42961e-05
2.2765e-05
2.76221e-05
2.46652e-05
2.80852e-05
6.99189e-05
6.99212e-05
2.80835e-05
2.80857e-05
6.99226e-05
6.99249e-05
2.80839e-05
2.27652e-05
2.42962e-05
2.76221e-05
2.46651e-05
2.76261e-05
2.46651e-05
2.27651e-05
2.27654e-05
2.4296e-05
2.76234e-05
2.46651e-05
2.76274e-05
2.46651e-05
2.27652e-05
3.58197e-05
3.58178e-05
2.36355e-05
3.58195e-05
3.58165e-05
7.72279e-05
7.72249e-05
7.72263e-05
7.7228e-05
2.36315e-05
3.58216e-05
3.58168e-05
3.58223e-05
3.58192e-05
7.72229e-05
7.7225e-05
2.27654e-05
2.7626e-05
2.46653e-05
2.42966e-05
2.27656e-05
2.7622e-05
2.46652e-05
2.80836e-05
6.99204e-05
2.8085e-05
6.99177e-05
2.27647e-05
2.46651e-05
2.76253e-05
2.42959e-05
2.27649e-05
2.46651e-05
2.7621e-05
2.80866e-05
6.99203e-05
6.99229e-05
2.80852e-05
2.2766e-05
2.42966e-05
2.76232e-05
2.46652e-05
2.76275e-05
2.46652e-05
2.27659e-05
2.80864e-05
6.99173e-05
6.99196e-05
2.80849e-05
2.27654e-05
2.42959e-05
2.46651e-05
2.76221e-05
2.46651e-05
2.76265e-05
2.27652e-05
2.80829e-05
6.99224e-05
2.80846e-05
6.99197e-05
2.27644e-05
2.46653e-05
2.7625e-05
2.42963e-05
2.27646e-05
2.46653e-05
2.76211e-05
2.80828e-05
6.99232e-05
2.80845e-05
6.99206e-05
2.27649e-05
2.42969e-05
2.76214e-05
2.46652e-05
2.76256e-05
2.46653e-05
2.27647e-05
2.8086e-05
6.99193e-05
6.99216e-05
2.80841e-05
2.2765e-05
2.42963e-05
2.46652e-05
2.76222e-05
2.46652e-05
2.76263e-05
2.27648e-05
2.80859e-05
6.99202e-05
6.99224e-05
2.8084e-05
3.58156e-05
3.58176e-05
2.36351e-05
3.58149e-05
3.58172e-05
7.72295e-05
7.72274e-05
7.72215e-05
7.72232e-05
2.36311e-05
3.58165e-05
3.5819e-05
3.58177e-05
3.58198e-05
7.72255e-05
7.72268e-05
2.27644e-05
2.46652e-05
2.76259e-05
2.42967e-05
2.27646e-05
2.46652e-05
2.76219e-05
2.80829e-05
6.99235e-05
2.80847e-05
6.9921e-05
2.80833e-05
6.99257e-05
2.80848e-05
6.99232e-05
2.27648e-05
2.42965e-05
2.4665e-05
2.76221e-05
2.46651e-05
2.76262e-05
2.27646e-05
2.2765e-05
2.42967e-05
2.46652e-05
2.7623e-05
2.46652e-05
2.76272e-05
2.27649e-05
2.80861e-05
6.99206e-05
6.99227e-05
2.80841e-05
2.80862e-05
6.99229e-05
6.9925e-05
2.80845e-05
7.72294e-05
7.72273e-05
7.72287e-05
7.72266e-05
2.36315e-05
3.58193e-05
3.58221e-05
3.582e-05
3.58229e-05
7.72255e-05
7.72268e-05
7.72248e-05
7.72261e-05
7.72262e-05
7.72253e-05
7.72248e-05
7.72239e-05
3.58208e-05
3.58231e-05
2.36357e-05
3.58198e-05
3.58221e-05
7.72245e-05
7.7225e-05
7.72231e-05
7.72236e-05
2.36317e-05
3.58207e-05
3.5823e-05
3.58222e-05
3.58245e-05
2.80851e-05
6.99244e-05
2.8087e-05
6.99222e-05
2.27655e-05
2.76273e-05
2.46652e-05
2.42963e-05
2.27657e-05
2.76231e-05
2.46652e-05
2.27657e-05
2.76286e-05
2.46652e-05
2.42961e-05
2.27659e-05
2.76244e-05
2.46652e-05
2.80877e-05
6.99184e-05
6.99205e-05
2.80856e-05
2.80881e-05
6.99219e-05
6.99241e-05
2.8086e-05
2.27661e-05
2.42963e-05
2.76239e-05
2.46651e-05
2.76282e-05
2.46652e-05
2.27658e-05
2.27663e-05
2.42961e-05
2.76251e-05
2.4665e-05
2.76295e-05
2.46651e-05
2.2766e-05
3.58242e-05
3.58191e-05
2.36357e-05
3.58231e-05
3.58161e-05
7.7223e-05
7.72214e-05
7.7224e-05
7.72244e-05
2.36317e-05
3.58239e-05
3.58159e-05
3.58255e-05
3.58184e-05
7.72205e-05
7.72216e-05
2.27663e-05
2.76286e-05
2.46653e-05
2.42967e-05
2.27665e-05
2.76242e-05
2.46653e-05
2.80859e-05
6.99193e-05
2.80877e-05
6.99171e-05
2.27657e-05
2.46651e-05
2.76276e-05
2.4296e-05
2.27659e-05
2.4665e-05
2.7623e-05
2.80892e-05
6.99196e-05
6.99219e-05
2.80874e-05
2.27669e-05
2.42967e-05
2.7625e-05
2.46652e-05
2.76296e-05
2.46652e-05
2.27667e-05
2.80887e-05
6.99168e-05
6.9919e-05
2.80868e-05
2.27663e-05
2.4296e-05
2.4665e-05
2.76236e-05
2.4665e-05
2.76284e-05
2.27661e-05
2.80851e-05
6.99212e-05
2.80872e-05
6.99191e-05
2.27652e-05
2.46652e-05
2.76273e-05
2.42964e-05
2.27655e-05
2.46652e-05
2.7623e-05
2.8085e-05
6.9922e-05
2.80871e-05
6.99199e-05
2.27656e-05
2.42969e-05
2.76229e-05
2.46652e-05
2.76276e-05
2.46652e-05
2.27654e-05
2.80881e-05
6.99189e-05
6.99211e-05
2.80859e-05
2.27658e-05
2.42964e-05
2.46651e-05
2.76236e-05
2.46651e-05
2.76281e-05
2.27656e-05
2.8088e-05
6.99195e-05
6.99217e-05
2.80859e-05
3.58191e-05
3.58215e-05
2.36354e-05
3.58174e-05
3.58202e-05
7.7225e-05
7.72246e-05
7.72197e-05
7.72206e-05
2.36314e-05
3.58181e-05
3.58207e-05
3.582e-05
3.58225e-05
7.72239e-05
7.72244e-05
2.27653e-05
2.46651e-05
2.76282e-05
2.42968e-05
2.27655e-05
2.46651e-05
2.76239e-05
2.80851e-05
6.99224e-05
2.80872e-05
6.99203e-05
2.80856e-05
6.99247e-05
2.80873e-05
6.99227e-05
2.27656e-05
2.42965e-05
2.4665e-05
2.76235e-05
2.46651e-05
2.7628e-05
2.27653e-05
2.27659e-05
2.42968e-05
2.4665e-05
2.76245e-05
2.4665e-05
2.7629e-05
2.27657e-05
2.80881e-05
6.99199e-05
6.99221e-05
2.80859e-05
2.80883e-05
6.99224e-05
6.99245e-05
2.80864e-05
7.7225e-05
7.72246e-05
7.72243e-05
7.72239e-05
2.36318e-05
3.58209e-05
3.58238e-05
3.58227e-05
3.58256e-05
7.72239e-05
7.72244e-05
7.72232e-05
7.72237e-05
7.72244e-05
7.72243e-05
7.72231e-05
7.72229e-05
3.58228e-05
3.58251e-05
2.36359e-05
3.58211e-05
3.58234e-05
7.72242e-05
7.72243e-05
7.72229e-05
7.72229e-05
2.36319e-05
3.58217e-05
3.5824e-05
3.58233e-05
3.58256e-05
2.80868e-05
6.99237e-05
2.8089e-05
6.99216e-05
2.2766e-05
2.76289e-05
2.46652e-05
2.42964e-05
2.27664e-05
2.76244e-05
2.46652e-05
2.27662e-05
2.76302e-05
2.46651e-05
2.42963e-05
2.27665e-05
2.76256e-05
2.46651e-05
2.80893e-05
6.99179e-05
6.99199e-05
2.80869e-05
2.80897e-05
6.99214e-05
6.99234e-05
2.80873e-05
2.27666e-05
2.42964e-05
2.76248e-05
2.46651e-05
2.76294e-05
2.46651e-05
2.27663e-05
2.27668e-05
2.42963e-05
2.7626e-05
2.46651e-05
2.76307e-05
2.46651e-05
2.27665e-05
3.58262e-05
3.58184e-05
2.36359e-05
3.58245e-05
3.58165e-05
7.72207e-05
7.72199e-05
7.72239e-05
7.72239e-05
2.36319e-05
3.58253e-05
3.58174e-05
3.58269e-05
3.58191e-05
7.72198e-05
7.72203e-05
2.2767e-05
2.76302e-05
2.46653e-05
2.42968e-05
2.27673e-05
2.76255e-05
2.46653e-05
2.80874e-05
6.99187e-05
2.80895e-05
6.99165e-05
2.27665e-05
2.46651e-05
2.7629e-05
2.42961e-05
2.27667e-05
2.46651e-05
2.76241e-05
2.80907e-05
6.99191e-05
6.99213e-05
2.80885e-05
2.27675e-05
2.42968e-05
2.76259e-05
2.46653e-05
2.76307e-05
2.46653e-05
2.27672e-05
2.80901e-05
6.99164e-05
6.99185e-05
2.80879e-05
2.2767e-05
2.42961e-05
2.46651e-05
2.76246e-05
2.46651e-05
2.76295e-05
2.27668e-05
2.80866e-05
6.99209e-05
2.80889e-05
6.99186e-05
2.27659e-05
2.46653e-05
2.76287e-05
2.42966e-05
2.27662e-05
2.46653e-05
2.76241e-05
2.80865e-05
6.99214e-05
2.80888e-05
6.99193e-05
2.27662e-05
2.42969e-05
2.7624e-05
2.46652e-05
2.76288e-05
2.46652e-05
2.2766e-05
2.80895e-05
6.99185e-05
6.99206e-05
2.8087e-05
2.27665e-05
2.42966e-05
2.46652e-05
2.76245e-05
2.46652e-05
2.76291e-05
2.27663e-05
2.80894e-05
6.99192e-05
6.99211e-05
2.8087e-05
3.58206e-05
3.58228e-05
2.36356e-05
3.58188e-05
3.58211e-05
7.72239e-05
7.72239e-05
7.72193e-05
7.72197e-05
2.36316e-05
3.58197e-05
3.58218e-05
3.58214e-05
3.58233e-05
7.7224e-05
7.72239e-05
2.2766e-05
2.46652e-05
2.76296e-05
2.4297e-05
2.27663e-05
2.46652e-05
2.7625e-05
2.80865e-05
6.99217e-05
2.80889e-05
6.99196e-05
2.8087e-05
6.99242e-05
2.80891e-05
6.99221e-05
2.27662e-05
2.42966e-05
2.4665e-05
2.76243e-05
2.46651e-05
2.7629e-05
2.27659e-05
2.27666e-05
2.42969e-05
2.46651e-05
2.76253e-05
2.46651e-05
2.763e-05
2.27663e-05
2.80894e-05
6.99195e-05
6.99215e-05
2.80869e-05
2.80897e-05
6.99219e-05
6.99239e-05
2.80874e-05
7.72239e-05
7.72239e-05
7.72232e-05
7.72232e-05
2.3632e-05
3.58219e-05
3.5825e-05
3.58235e-05
3.58264e-05
7.7224e-05
7.72239e-05
7.72233e-05
7.72232e-05
7.72244e-05
7.72246e-05
7.7223e-05
7.72232e-05
3.5824e-05
3.58263e-05
2.36362e-05
3.58227e-05
3.58249e-05
7.7225e-05
7.72248e-05
7.72236e-05
7.72234e-05
2.36322e-05
3.58238e-05
3.5826e-05
3.5825e-05
3.58272e-05
2.80876e-05
6.99233e-05
2.80902e-05
6.99214e-05
2.27666e-05
2.76298e-05
2.46653e-05
2.42966e-05
2.27669e-05
2.76251e-05
2.46653e-05
2.27668e-05
2.76311e-05
2.46653e-05
2.42965e-05
2.27671e-05
2.76264e-05
2.46653e-05
2.809e-05
6.99178e-05
6.99197e-05
2.80874e-05
2.80905e-05
6.99215e-05
6.99233e-05
2.80878e-05
2.27672e-05
2.42966e-05
2.76255e-05
2.46653e-05
2.76301e-05
2.46653e-05
2.27668e-05
2.27673e-05
2.42965e-05
2.76267e-05
2.46653e-05
2.76315e-05
2.46653e-05
2.27669e-05
3.58276e-05
3.582e-05
2.36362e-05
3.58262e-05
3.58184e-05
7.72202e-05
7.72201e-05
7.72245e-05
7.72242e-05
2.36322e-05
3.58271e-05
3.58194e-05
3.58285e-05
3.5821e-05
7.72207e-05
7.72206e-05
2.27673e-05
2.76311e-05
2.46654e-05
2.4297e-05
2.27677e-05
2.76263e-05
2.46654e-05
2.80881e-05
6.99184e-05
2.80904e-05
6.99164e-05
2.2767e-05
2.46652e-05
2.76299e-05
2.42963e-05
2.27673e-05
2.46652e-05
2.76249e-05
2.80913e-05
6.99193e-05
6.99212e-05
2.80889e-05
2.27679e-05
2.4297e-05
2.76266e-05
2.46653e-05
2.76315e-05
2.46653e-05
2.27675e-05
2.80906e-05
6.99166e-05
6.99185e-05
2.80883e-05
2.27675e-05
2.42963e-05
2.46651e-05
2.76253e-05
2.46652e-05
2.76302e-05
2.27671e-05
2.80872e-05
6.99205e-05
2.80898e-05
6.99185e-05
2.27665e-05
2.46653e-05
2.76295e-05
2.42968e-05
2.27668e-05
2.46653e-05
2.76248e-05
2.80872e-05
6.99211e-05
2.80898e-05
6.99193e-05
2.27667e-05
2.4297e-05
2.76248e-05
2.46653e-05
2.76297e-05
2.46654e-05
2.27664e-05
2.809e-05
6.99186e-05
6.99206e-05
2.80874e-05
2.27671e-05
2.42968e-05
2.46653e-05
2.76252e-05
2.46653e-05
2.76298e-05
2.27667e-05
2.80901e-05
6.99194e-05
6.99212e-05
2.80874e-05
3.58223e-05
3.58241e-05
2.36358e-05
3.58206e-05
3.58229e-05
7.72242e-05
7.72244e-05
7.72206e-05
7.72204e-05
2.36318e-05
3.58216e-05
3.58239e-05
3.58233e-05
3.58252e-05
7.72249e-05
7.72246e-05
2.27665e-05
2.46652e-05
2.76304e-05
2.4297e-05
2.27668e-05
2.46652e-05
2.76257e-05
2.80871e-05
6.99214e-05
2.80898e-05
6.99196e-05
2.80876e-05
6.99238e-05
2.809e-05
6.99219e-05
2.27666e-05
2.42966e-05
2.46649e-05
2.7625e-05
2.46649e-05
2.76297e-05
2.27662e-05
2.2767e-05
2.4297e-05
2.46651e-05
2.7626e-05
2.46651e-05
2.76308e-05
2.27666e-05
2.80899e-05
6.99198e-05
6.99216e-05
2.80872e-05
2.80901e-05
6.99221e-05
6.99239e-05
2.80877e-05
7.72241e-05
7.72244e-05
7.72234e-05
7.72237e-05
2.36322e-05
3.58239e-05
3.5827e-05
3.58253e-05
3.58283e-05
7.72249e-05
7.72246e-05
7.72242e-05
7.72239e-05
7.72251e-05
7.72256e-05
7.72237e-05
7.72242e-05
3.58261e-05
3.58283e-05
2.36364e-05
3.58246e-05
3.58268e-05
7.72264e-05
7.72259e-05
7.7225e-05
7.72245e-05
2.36324e-05
3.58251e-05
3.58272e-05
3.58268e-05
3.5829e-05
2.8088e-05
6.99235e-05
2.80906e-05
6.99218e-05
2.27671e-05
2.76304e-05
2.46654e-05
2.42967e-05
2.27674e-05
2.76257e-05
2.46654e-05
2.27671e-05
2.76318e-05
2.46654e-05
2.42967e-05
2.27674e-05
2.7627e-05
2.46654e-05
2.80905e-05
6.99184e-05
6.99201e-05
2.80878e-05
2.80908e-05
6.9922e-05
6.99237e-05
2.80882e-05
2.27677e-05
2.42967e-05
2.76259e-05
2.46654e-05
2.76307e-05
2.46654e-05
2.27673e-05
2.27677e-05
2.42967e-05
2.76271e-05
2.46654e-05
2.7632e-05
2.46654e-05
2.27674e-05
3.58295e-05
3.58221e-05
2.36364e-05
3.58279e-05
3.58203e-05
7.72212e-05
7.72215e-05
7.72257e-05
7.72253e-05
2.36324e-05
3.58283e-05
3.58206e-05
3.58302e-05
3.58228e-05
7.72222e-05
7.7222e-05
2.27678e-05
2.76318e-05
2.46654e-05
2.42971e-05
2.27681e-05
2.76269e-05
2.46654e-05
2.80886e-05
6.99187e-05
2.80909e-05
6.99169e-05
2.27674e-05
2.46651e-05
2.76306e-05
2.42962e-05
2.27676e-05
2.46651e-05
2.76256e-05
2.80918e-05
6.99197e-05
6.99216e-05
2.80894e-05
2.27683e-05
2.42971e-05
2.7627e-05
2.46654e-05
2.76321e-05
2.46654e-05
2.2768e-05
2.80911e-05
6.99172e-05
6.9919e-05
2.80888e-05
2.27679e-05
2.4296e-05
2.4665e-05
2.76257e-05
2.4665e-05
2.76308e-05
2.27677e-05
2.80876e-05
6.99207e-05
2.80902e-05
6.99188e-05
2.27669e-05
2.46654e-05
2.76301e-05
2.42967e-05
2.27673e-05
2.46654e-05
2.76254e-05
2.80877e-05
6.99214e-05
2.80903e-05
6.99197e-05
2.27671e-05
2.42972e-05
2.76251e-05
2.46652e-05
2.76302e-05
2.46653e-05
2.27668e-05
2.80904e-05
6.9919e-05
6.99209e-05
2.80878e-05
2.27675e-05
2.42966e-05
2.46652e-05
2.76255e-05
2.46652e-05
2.76303e-05
2.27671e-05
2.80905e-05
6.992e-05
6.99217e-05
2.80878e-05
3.58241e-05
3.58261e-05
2.3636e-05
3.58222e-05
3.58246e-05
7.7225e-05
7.72255e-05
7.72222e-05
7.72218e-05
2.3632e-05
3.58224e-05
3.58247e-05
3.58247e-05
3.58268e-05
7.72264e-05
7.72258e-05
2.27669e-05
2.46652e-05
2.76311e-05
2.42971e-05
2.27672e-05
2.46652e-05
2.76263e-05
2.80874e-05
6.99218e-05
2.809e-05
6.99201e-05
2.8088e-05
6.9924e-05
2.80903e-05
6.99224e-05
2.2767e-05
2.42966e-05
2.4665e-05
2.76253e-05
2.4665e-05
2.76302e-05
2.27666e-05
2.27675e-05
2.4297e-05
2.46651e-05
2.76264e-05
2.46652e-05
2.76313e-05
2.27671e-05
2.80903e-05
6.99203e-05
6.99221e-05
2.80877e-05
2.80905e-05
6.99227e-05
6.99244e-05
2.80882e-05
7.7225e-05
7.72255e-05
7.72243e-05
7.72248e-05
2.36324e-05
3.58248e-05
3.58279e-05
3.58268e-05
3.58299e-05
7.72264e-05
7.72258e-05
7.72257e-05
7.72251e-05
7.72266e-05
7.72275e-05
7.72252e-05
7.72262e-05
3.58272e-05
3.58293e-05
2.36367e-05
3.58249e-05
3.58269e-05
7.72283e-05
7.72277e-05
7.7227e-05
7.72264e-05
2.36327e-05
3.58247e-05
3.58267e-05
3.58268e-05
3.58289e-05
2.80883e-05
6.9924e-05
2.8091e-05
6.99225e-05
2.27672e-05
2.76308e-05
2.46654e-05
2.42968e-05
2.27679e-05
2.76259e-05
2.46654e-05
2.27674e-05
2.76321e-05
2.46653e-05
2.42966e-05
2.2768e-05
2.76271e-05
2.46653e-05
2.80906e-05
6.99202e-05
6.9921e-05
2.80873e-05
2.8091e-05
6.99237e-05
6.99247e-05
2.80877e-05
2.27676e-05
2.42966e-05
2.76257e-05
2.4665e-05
2.76308e-05
2.46652e-05
2.27661e-05
2.27677e-05
2.42964e-05
2.76269e-05
2.4665e-05
2.76321e-05
2.46651e-05
2.27662e-05
3.58305e-05
3.5823e-05
2.36366e-05
3.58281e-05
3.58202e-05
7.72229e-05
7.72235e-05
7.72278e-05
7.72271e-05
2.36325e-05
3.58278e-05
3.58198e-05
3.58302e-05
3.58225e-05
7.72244e-05
7.72242e-05
2.27675e-05
2.76321e-05
2.46655e-05
2.42972e-05
2.27685e-05
2.7627e-05
2.46654e-05
2.80887e-05
6.99194e-05
2.80914e-05
6.99181e-05
2.27671e-05
2.4665e-05
2.76309e-05
2.42958e-05
2.27681e-05
2.4665e-05
2.76256e-05
2.80917e-05
6.99215e-05
6.99225e-05
2.80886e-05
2.27677e-05
2.42971e-05
2.76268e-05
2.46652e-05
2.76321e-05
2.46654e-05
2.27665e-05
2.8091e-05
6.99193e-05
6.99204e-05
2.8088e-05
2.27674e-05
2.42957e-05
2.46648e-05
2.76252e-05
2.46649e-05
2.76307e-05
2.2766e-05
2.80877e-05
6.9921e-05
2.80907e-05
6.99193e-05
2.27666e-05
2.46651e-05
2.76304e-05
2.42963e-05
2.27676e-05
2.46651e-05
2.76254e-05
2.80876e-05
6.99221e-05
2.80906e-05
6.99209e-05
2.27672e-05
2.42968e-05
2.76247e-05
2.4665e-05
2.76302e-05
2.46651e-05
2.27658e-05
2.80903e-05
6.99205e-05
6.99215e-05
2.8087e-05
2.27669e-05
2.42962e-05
2.46649e-05
2.76251e-05
2.4665e-05
2.76303e-05
2.27656e-05
2.80902e-05
6.99222e-05
6.99231e-05
2.80869e-05
3.58247e-05
3.58267e-05
2.3636e-05
3.58221e-05
3.58244e-05
7.72266e-05
7.72275e-05
7.72232e-05
7.72237e-05
2.3632e-05
3.5822e-05
3.58244e-05
3.58244e-05
3.58265e-05
7.72276e-05
7.72276e-05
2.27665e-05
2.46651e-05
2.76313e-05
2.42967e-05
2.27675e-05
2.4665e-05
2.76263e-05