/*--------------------------------*- C++ -*----------------------------------*\
| =========                 |                                                 |
| \\      /  F ield         | OpenFOAM: The Open Source CFD Toolbox           |
|  \\    /   O peration     | Version:  2206                                  |
|   \\  /    A nd           | Website:  www.openfoam.com                      |
|    \\/     M anipulation  |                                                 |
\*---------------------------------------------------------------------------*/
FoamFile
{
    version     2.0;
    format      ascii;
    arch        "LSB;label=32;scalar=64";
    class       volScalarField;
    location    "33";
    object      nut;
}
// * * * * * * * * * * * * * * * * * * * * * * * * * * * * * * * * * * * * * //

dimensions      [0 2 -1 0 0 0 0];

internalField   nonuniform List<scalar> 
28448
(
0.000214562
0.000183279
0.000183268
0.000155022
0.000214562
0.000183279
0.000183267
0.000155021
0.000214561
0.000183276
0.000183265
0.000155021
0.000214561
0.000183275
0.000183264
0.00015502
0.000214561
0.000183276
0.000183262
0.000155019
0.000214561
0.000183274
0.000183262
0.000155016
0.000214559
0.000183267
0.000183256
0.000155006
0.000214533
0.000183238
0.000183223
0.000154964
0.000214532
0.000183229
0.00018322
0.00015497
0.000214535
0.000183231
0.000183221
0.000154964
0.000214536
0.000183232
0.000183222
0.000154966
0.000214536
0.000183232
0.000183222
0.000154966
0.000214536
0.000183232
0.000183222
0.000154965
0.000214536
0.000183232
0.000183222
0.000154965
0.000214536
0.000183232
0.000183222
0.000154966
0.000214536
0.000183232
0.000183222
0.000154966
0.000214536
0.000183232
0.000183222
0.000154966
0.000214538
0.000183223
0.000155213
0.000183257
0.000183252
0.000155218
0.000183273
0.000183242
0.00018328
0.000183255
0.000155204
0.000183268
0.000183272
0.000155208
0.000155028
0.000155209
0.000183257
0.000183252
0.000183257
0.000183252
0.000155033
0.000155214
0.000183273
0.000183244
0.000183273
0.000183243
0.000183256
0.000183279
0.000183255
0.00015502
0.000155202
0.000183273
0.000183267
0.000183272
0.000155206
0.000155026
0.000155209
0.000183257
0.000183251
0.000183256
0.000183251
0.00015503
0.000155214
0.000183273
0.000183242
0.000183272
0.000183242
0.000183255
0.000183277
0.000183255
0.000155019
0.0001552
0.000183272
0.000183266
0.000183271
0.000155205
0.000155026
0.000155208
0.000183256
0.000183252
0.000183256
0.000183251
0.00015503
0.000155213
0.000183272
0.000183243
0.000183271
0.000183242
0.000183256
0.000183275
0.000183255
0.000155018
0.000155199
0.000183272
0.000183264
0.000183271
0.000155205
0.000155025
0.000155208
0.000183256
0.000183251
0.000183255
0.000183251
0.000155029
0.000155212
0.000183272
0.000183243
0.000183271
0.000183242
0.000183256
0.000183276
0.000183255
0.000155017
0.000155198
0.000183271
0.000183262
0.00018327
0.000155204
0.000155025
0.000155207
0.000183256
0.000183251
0.000183256
0.000183252
0.000155029
0.000155212
0.000183271
0.00018324
0.000183271
0.000183236
0.000183254
0.000183275
0.00018325
0.000155015
0.000155196
0.000183271
0.000183262
0.000183268
0.000155201
0.000155024
0.000155205
0.000183256
0.000183251
0.000183252
0.000183246
0.000155028
0.000155208
0.00018327
0.000183235
0.000183269
0.000183232
0.000183248
0.000183269
0.000183245
0.000155013
0.000155191
0.000183266
0.000183258
0.000183261
0.000155195
0.000155021
0.000155174
0.000183249
0.000183243
0.00018323
0.000183224
0.000155023
0.000155178
0.000183266
0.00018323
0.000183245
0.000183205
0.000183242
0.00018325
0.000183217
0.000155006
0.000155156
0.000183259
0.000183232
0.000183233
0.000155158
0.000154981
0.000155155
0.000183218
0.000183212
0.000183205
0.000183199
0.000154985
0.000155159
0.000183233
0.000183196
0.000183221
0.000183192
0.000183208
0.000183227
0.000183204
0.000154964
0.000155149
0.000183225
0.000183219
0.000183221
0.000155154
0.000154973
0.000155157
0.000183207
0.000183202
0.000183209
0.000183203
0.000154978
0.000155162
0.000183224
0.000183194
0.000183225
0.000183194
0.000183207
0.000183231
0.000183207
0.000154968
0.000155146
0.000183224
0.000183221
0.000183224
0.00015515
0.000154973
0.000155153
0.00018321
0.000183204
0.00018321
0.000183204
0.000154977
0.000155158
0.000183226
0.000183194
0.000183226
0.000183195
0.000183207
0.000183232
0.000183208
0.000154962
0.000155146
0.000183224
0.000183222
0.000183225
0.00015515
0.000154971
0.000155155
0.000183211
0.000183205
0.000183211
0.000183205
0.000154975
0.00015516
0.000183227
0.000183196
0.000183227
0.000183196
0.000183209
0.000183232
0.000183208
0.000154964
0.000155146
0.000183226
0.000183223
0.000183225
0.000155151
0.000154972
0.000155154
0.000183211
0.000183205
0.00018321
0.000183205
0.000154976
0.000155158
0.000183227
0.000183196
0.000183226
0.000183196
0.000183208
0.000183232
0.000183208
0.000154964
0.000155146
0.000183226
0.000183223
0.000183225
0.00015515
0.000154971
0.000155156
0.000183211
0.000183206
0.00018321
0.000183205
0.000154975
0.000155161
0.000183227
0.000183196
0.000183226
0.000183196
0.000183209
0.000183232
0.000183208
0.000154963
0.000155146
0.000183226
0.000183223
0.000183225
0.00015515
0.000154972
0.000155155
0.00018321
0.000183205
0.000183211
0.000183205
0.000154977
0.00015516
0.000183226
0.000183196
0.000183227
0.000183196
0.000183209
0.000183232
0.000183208
0.000154963
0.000155147
0.000183226
0.000183223
0.000183225
0.000155151
0.000154973
0.000155154
0.000183211
0.000183206
0.000183211
0.000183205
0.000154977
0.000155159
0.000183227
0.000183196
0.000183227
0.000183196
0.000183209
0.000183232
0.000183208
0.000154964
0.000155146
0.000183225
0.000183223
0.000183225
0.000155151
0.000154972
0.000155154
0.000183211
0.000183206
0.000183211
0.000183205
0.000154976
0.000155159
0.000183227
0.000183196
0.000183226
0.000183196
0.000183209
0.000183232
0.000183208
0.000154964
0.000155146
0.000183226
0.000183223
0.000183225
0.000155151
0.000154971
0.000155154
0.000183211
0.000183206
0.000183212
0.000154975
0.000183227
0.000183196
0.000183227
0.000183196
0.000183209
0.00018321
0.000154963
0.000155146
0.000183226
0.000183222
0.000183226
0.000155153
0.000154974
0.000183227
0.000183196
0.000154963
0.000214562
0.000214563
0.000214557
0.00021456
3.96018e-05
4.95126e-05
3.95949e-05
4.95117e-05
2.488e-05
2.48796e-05
3.96085e-05
4.95083e-05
3.9602e-05
4.95073e-05
0.000214563
0.000214558
0.000214561
0.000214562
0.000214563
0.000214557
0.00021456
8.535e-05
4.79502e-05
0.000201794
0.000183281
8.53255e-05
4.79628e-05
0.000201795
2.4877e-05
2.48767e-05
8.53444e-05
0.000201789
4.79537e-05
0.000183268
8.53192e-05
0.000201789
4.79656e-05
3.65295e-05
3.6525e-05
0.000155206
3.65331e-05
3.65286e-05
3.96058e-05
4.95121e-05
3.95989e-05
4.95114e-05
2.48791e-05
2.4879e-05
3.96126e-05
4.95077e-05
3.96061e-05
4.95069e-05
0.000214561
0.000214557
0.000214561
0.000214561
0.000214561
0.000214556
0.000214561
8.53504e-05
4.79538e-05
0.000201794
0.000183278
8.53259e-05
4.79657e-05
0.000201792
2.48764e-05
2.48763e-05
8.5345e-05
0.000201789
4.79568e-05
0.000183266
8.53196e-05
0.000201788
4.79685e-05
3.65341e-05
3.65298e-05
0.000155206
3.65366e-05
3.65323e-05
3.96091e-05
4.95119e-05
3.96026e-05
4.95112e-05
2.48788e-05
2.48788e-05
3.9616e-05
4.95075e-05
3.96099e-05
4.95067e-05
0.000214561
0.000214554
0.000214561
0.000214561
0.000214561
0.000214553
0.00021456
8.53512e-05
4.79562e-05
0.000201791
0.000183276
8.53264e-05
4.7968e-05
0.000201791
2.48762e-05
2.48761e-05
8.53458e-05
0.000201787
4.79593e-05
0.000183265
8.53203e-05
0.000201787
4.79707e-05
3.65357e-05
3.65316e-05
0.000155205
3.65378e-05
3.65337e-05
3.96114e-05
4.95117e-05
3.96052e-05
4.9511e-05
2.48788e-05
2.48789e-05
3.96178e-05
4.95074e-05
3.96123e-05
4.95067e-05
0.000214563
0.000214556
0.000214561
0.000214561
0.000214563
0.000214555
0.00021456
8.53528e-05
4.79584e-05
0.000201791
0.000183276
8.53277e-05
4.79701e-05
0.000201792
2.48761e-05
2.48762e-05
8.5347e-05
0.000201786
4.79613e-05
0.000183264
8.53214e-05
0.000201784
4.79726e-05
3.65377e-05
3.65337e-05
0.000155205
3.65404e-05
3.65364e-05
3.9613e-05
4.95117e-05
3.9607e-05
4.95112e-05
2.48789e-05
2.4879e-05
3.96196e-05
4.95074e-05
3.96139e-05
4.95068e-05
0.000214564
0.000214554
0.00021456
0.00021456
0.000214563
0.000214552
0.000214558
8.5354e-05
4.79602e-05
0.000201792
0.000183277
8.53288e-05
4.79716e-05
0.000201792
2.48764e-05
2.48764e-05
8.53484e-05
0.000201785
4.7963e-05
0.000183263
8.53226e-05
0.000201786
4.7974e-05
3.65405e-05
3.65365e-05
0.000155203
3.65429e-05
3.65389e-05
3.96138e-05
4.95119e-05
3.96086e-05
4.95114e-05
2.48791e-05
2.48793e-05
3.962e-05
4.95076e-05
3.96154e-05
4.9507e-05
0.000214562
0.000214553
0.000214558
0.00021456
0.000214559
0.000214553
0.000214556
8.53544e-05
4.79611e-05
0.000201792
0.000183271
8.53304e-05
4.79718e-05
0.000201791
2.48766e-05
2.48767e-05
8.53482e-05
0.000201787
4.79638e-05
0.00018326
8.53242e-05
0.000201786
4.79739e-05
3.65417e-05
3.65377e-05
0.0001552
3.65428e-05
3.65388e-05
3.96067e-05
4.95126e-05
3.96054e-05
4.95123e-05
2.48794e-05
2.48793e-05
3.9612e-05
4.95083e-05
3.96111e-05
4.9508e-05
0.000214558
0.000214552
0.000214555
0.000214544
0.000214544
0.000214531
0.000214533
8.53345e-05
4.79576e-05
0.000201788
0.000183265
8.53187e-05
4.7965e-05
0.000201785
2.48767e-05
2.48765e-05
8.53271e-05
0.000201783
4.79592e-05
0.000183253
8.53119e-05
0.00020178
4.79662e-05
3.65396e-05
3.65356e-05
0.000155182
3.65402e-05
3.65362e-05
3.95971e-05
4.95131e-05
3.95948e-05
4.95124e-05
2.4879e-05
2.48789e-05
3.96026e-05
4.95088e-05
3.96006e-05
4.9508e-05
0.000214533
0.000214526
0.000214528
0.000214528
0.00021453
0.000214527
0.00021453
8.52988e-05
4.79469e-05
0.000201756
0.000183231
8.52884e-05
4.79539e-05
0.000201752
2.48763e-05
2.48761e-05
8.52947e-05
0.00020175
4.79484e-05
0.000183219
8.52812e-05
0.000201748
4.79557e-05
3.65359e-05
3.6532e-05
0.00015515
3.65358e-05
3.65319e-05
3.95927e-05
4.95128e-05
3.95882e-05
4.9512e-05
2.48788e-05
2.48788e-05
3.95988e-05
4.95085e-05
3.95947e-05
4.95077e-05
0.000214534
0.00021453
0.000214533
0.000214535
0.000214536
0.000214531
0.000214534
8.53082e-05
4.79392e-05
0.000201755
0.000183231
8.52817e-05
4.79491e-05
0.000201756
2.48761e-05
2.48761e-05
8.53036e-05
0.000201752
4.79423e-05
0.000183221
8.52776e-05
0.000201752
4.79523e-05
3.65323e-05
3.65283e-05
0.000155156
3.65334e-05
3.65294e-05
3.95918e-05
4.95126e-05
3.95865e-05
4.95119e-05
2.48788e-05
2.48788e-05
3.95981e-05
4.95083e-05
3.95932e-05
4.95076e-05
0.000214537
0.000214531
0.000214534
0.000214535
0.000214536
0.000214531
0.000214534
8.53077e-05
4.79374e-05
0.000201755
0.000183231
8.52834e-05
4.79483e-05
0.000201755
2.48761e-05
2.48761e-05
8.53023e-05
0.000201752
4.79412e-05
0.000183222
8.52784e-05
0.000201752
4.79518e-05
3.65315e-05
3.65274e-05
0.000155148
3.6533e-05
3.6529e-05
3.95917e-05
4.95126e-05
3.95863e-05
4.95119e-05
2.48788e-05
2.48788e-05
3.95981e-05
4.95083e-05
3.95931e-05
4.95076e-05
0.000214537
0.000214531
0.000214534
0.000214536
0.000214536
0.000214531
0.000214534
8.53082e-05
4.79373e-05
0.000201756
0.000183232
8.52832e-05
4.79482e-05
0.000201757
2.48761e-05
2.48761e-05
8.53018e-05
0.000201753
4.79411e-05
0.000183223
8.52774e-05
0.000201753
4.79518e-05
3.65314e-05
3.65274e-05
0.000155151
3.6533e-05
3.65289e-05
3.95917e-05
4.95126e-05
3.95863e-05
4.95119e-05
2.48788e-05
2.48788e-05
3.95981e-05
4.95083e-05
3.95931e-05
4.95076e-05
0.000214537
0.000214531
0.000214534
0.000214536
0.000214536
0.000214531
0.000214534
8.53078e-05
4.79372e-05
0.000201756
0.000183232
8.52831e-05
4.79482e-05
0.000201756
2.48761e-05
2.48761e-05
8.53006e-05
0.000201753
4.79411e-05
0.000183223
8.52764e-05
0.000201753
4.79518e-05
3.65314e-05
3.65273e-05
0.000155151
3.6533e-05
3.65289e-05
3.95917e-05
4.95126e-05
3.95863e-05
4.95119e-05
2.48788e-05
2.48788e-05
3.95981e-05
4.95083e-05
3.95931e-05
4.95076e-05
0.000214537
0.000214531
0.000214534
0.000214536
0.000214536
0.000214531
0.000214534
8.53079e-05
4.79372e-05
0.000201756
0.000183232
8.52831e-05
4.79482e-05
0.000201757
2.48761e-05
2.48761e-05
8.53002e-05
0.000201753
4.79411e-05
0.000183223
8.52754e-05
0.000201753
4.79518e-05
3.65314e-05
3.65273e-05
0.000155152
3.6533e-05
3.65289e-05
3.95917e-05
4.95126e-05
3.95863e-05
4.95119e-05
2.48788e-05
2.48788e-05
3.95981e-05
4.95083e-05
3.95931e-05
4.95076e-05
0.000214537
0.000214531
0.000214534
0.000214536
0.000214536
0.000214531
0.000214534
8.53079e-05
4.79372e-05
0.000201756
0.000183232
8.52829e-05
4.79482e-05
0.000201757
2.48761e-05
2.48761e-05
8.52999e-05
0.000201753
4.79411e-05
0.000183223
8.52751e-05
0.000201753
4.79517e-05
3.65314e-05
3.65273e-05
0.000155151
3.6533e-05
3.65289e-05
3.95917e-05
4.95126e-05
3.95863e-05
4.95119e-05
2.48788e-05
2.48788e-05
3.95981e-05
4.95083e-05
3.95931e-05
4.95076e-05
0.000214537
0.000214531
0.000214534
0.000214536
0.000214536
0.000214531
0.000214534
8.53077e-05
4.79372e-05
0.000201756
0.000183232
8.52832e-05
4.79482e-05
0.000201757
2.48761e-05
2.48761e-05
8.52994e-05
0.000201752
4.79411e-05
0.000183223
8.52748e-05
0.000201753
4.79517e-05
3.65314e-05
3.65273e-05
0.00015515
3.6533e-05
3.65289e-05
3.95917e-05
4.95126e-05
3.95863e-05
4.95119e-05
2.48788e-05
2.48788e-05
3.95981e-05
4.95083e-05
3.95931e-05
4.95076e-05
0.000214537
0.000214531
0.000214534
0.000214536
0.000214536
0.000214531
0.000214534
8.53078e-05
4.79373e-05
0.000201756
0.000183232
8.52829e-05
4.79482e-05
0.000201756
2.48761e-05
2.48761e-05
8.52991e-05
0.000201752
4.79411e-05
0.000183223
8.52745e-05
0.000201753
4.79517e-05
3.65314e-05
3.65273e-05
0.00015515
3.6533e-05
3.65289e-05
3.95917e-05
4.95126e-05
3.95863e-05
4.95119e-05
2.48788e-05
2.48788e-05
3.95981e-05
4.95083e-05
3.95931e-05
4.95076e-05
0.000214537
0.000214531
0.000214534
0.000214536
0.000214539
0.000214531
0.000214535
8.53078e-05
4.79373e-05
0.000201756
0.000183232
8.52832e-05
4.79482e-05
0.000201756
2.48761e-05
2.48761e-05
8.52988e-05
0.000201752
4.79411e-05
0.000183223
8.52742e-05
0.000201753
4.79517e-05
3.65314e-05
3.65273e-05
0.000155151
3.6533e-05
3.65289e-05
4.95083e-05
3.95931e-05
0.000214532
2.48761e-05
4.79415e-05
2.48813e-05
2.48792e-05
3.65296e-05
3.65243e-05
4.95121e-05
3.95998e-05
4.95121e-05
3.96006e-05
4.79661e-05
0.000201793
8.53533e-05
4.79642e-05
0.000201792
8.53538e-05
2.48802e-05
3.65273e-05
3.65335e-05
2.48806e-05
4.95077e-05
3.96065e-05
4.79582e-05
0.000201792
8.53547e-05
3.95997e-05
4.95043e-05
4.95053e-05
3.96057e-05
8.53278e-05
0.000183243
0.000201786
4.79536e-05
0.000201786
4.79417e-05
8.53512e-05
8.5327e-05
4.79606e-05
0.000201794
0.000201794
8.53504e-05
3.9594e-05
4.95102e-05
3.96005e-05
8.53267e-05
0.000183255
0.000201791
4.79636e-05
0.000201792
4.79521e-05
8.53496e-05
3.95938e-05
4.95081e-05
4.95091e-05
3.96002e-05
2.48771e-05
2.48775e-05
0.000154985
3.65173e-05
3.65302e-05
3.6515e-05
3.65289e-05
2.48798e-05
2.48802e-05
8.53206e-05
0.000183269
0.000201789
4.79639e-05
0.00020179
4.79525e-05
8.53446e-05
8.53262e-05
0.000183272
0.00020179
4.79611e-05
0.00020179
4.79495e-05
8.53493e-05
3.95937e-05
4.95079e-05
4.95088e-05
3.96001e-05
3.9599e-05
4.95079e-05
4.95089e-05
3.96049e-05
0.000154988
3.65305e-05
3.65259e-05
3.65287e-05
3.65242e-05
2.48796e-05
2.488e-05
2.48786e-05
2.4879e-05
2.48811e-05
2.48807e-05
2.48791e-05
2.48787e-05
3.65287e-05
3.65234e-05
0.000155209
3.65327e-05
3.65273e-05
2.48803e-05
2.48806e-05
2.48783e-05
2.48786e-05
0.000155026
3.65351e-05
3.65297e-05
3.65314e-05
3.6526e-05
3.96026e-05
4.95127e-05
3.9596e-05
4.95118e-05
8.53537e-05
4.79565e-05
0.000201793
0.000183257
8.53303e-05
4.7968e-05
0.000201794
8.53543e-05
4.79544e-05
0.000201792
0.000183252
8.53308e-05
4.79661e-05
0.000201792
3.95972e-05
4.95114e-05
4.95123e-05
3.96038e-05
3.9598e-05
4.95115e-05
4.95123e-05
3.96046e-05
8.53307e-05
0.000183257
4.79697e-05
0.000201793
4.79584e-05
0.000201794
8.53543e-05
8.53312e-05
0.000183252
4.79678e-05
0.000201793
4.79563e-05
0.000201793
8.53549e-05
3.65264e-05
3.6531e-05
0.000155214
3.653e-05
3.65322e-05
2.48806e-05
2.48802e-05
2.48792e-05
2.48795e-05
0.000155031
3.65321e-05
3.6531e-05
3.65287e-05
3.65298e-05
2.48798e-05
2.48802e-05
8.53549e-05
4.79481e-05
0.000201793
0.000183273
8.53321e-05
4.79601e-05
0.000201792
3.96076e-05
4.95049e-05
3.96015e-05
4.9504e-05
8.53521e-05
0.000201787
4.79435e-05
0.000183244
8.53284e-05
0.000201787
4.79553e-05
3.96044e-05
4.95071e-05
4.9508e-05
3.96106e-05
8.53323e-05
0.000183273
4.79618e-05
0.000201791
4.79499e-05
0.000201792
8.53555e-05
3.96034e-05
4.95038e-05
4.95046e-05
3.96095e-05
8.53293e-05
0.000183243
0.000201787
4.79569e-05
0.000201787
4.79452e-05
8.5353e-05
3.96023e-05
4.95109e-05
3.95958e-05
4.95099e-05
8.53501e-05
0.000201792
4.79539e-05
0.000183256
8.53269e-05
0.000201792
4.79654e-05
3.96021e-05
4.95087e-05
3.95956e-05
4.95078e-05
8.53272e-05
0.000183281
4.79645e-05
0.000201794
4.79528e-05
0.000201794
8.53507e-05
3.95977e-05
4.95098e-05
4.95106e-05
3.96042e-05
8.53274e-05
0.000183256
0.000201792
4.79669e-05
0.000201792
4.79556e-05
8.53508e-05
3.95975e-05
4.95077e-05
4.95084e-05
3.9604e-05
3.65155e-05
3.6529e-05
0.000155202
3.6519e-05
3.65329e-05
2.48797e-05
2.48793e-05
2.48764e-05
2.48767e-05
0.000155019
3.65205e-05
3.65351e-05
3.65172e-05
3.65316e-05
2.4879e-05
2.48792e-05
8.53499e-05
0.000201791
4.79513e-05
0.000183273
8.53266e-05
0.00020179
4.79629e-05
3.96019e-05
4.95084e-05
3.95954e-05
4.95075e-05
3.96068e-05
4.95085e-05
3.96007e-05
4.95076e-05
8.5321e-05
0.000183268
0.000201789
4.79672e-05
0.000201789
4.79559e-05
8.53449e-05
8.53273e-05
0.000183272
0.000201791
4.79645e-05
0.000201791
4.7953e-05
8.53508e-05
3.95971e-05
4.95074e-05
4.95082e-05
3.96037e-05
3.96026e-05
4.95075e-05
4.95082e-05
3.96086e-05
2.48795e-05
2.48791e-05
2.48784e-05
2.48781e-05
0.000155024
3.65353e-05
3.65309e-05
3.65318e-05
3.65274e-05
2.48788e-05
2.4879e-05
2.48778e-05
2.4878e-05
2.48802e-05
2.48801e-05
2.48782e-05
2.4878e-05
3.65338e-05
3.65284e-05
0.000155209
3.6537e-05
3.65316e-05
2.488e-05
2.488e-05
2.48779e-05
2.4878e-05
0.000155027
3.6538e-05
3.65326e-05
3.65355e-05
3.653e-05
3.96065e-05
4.95122e-05
3.96e-05
4.95114e-05
8.53548e-05
4.79601e-05
0.000201793
0.000183256
8.53314e-05
4.79712e-05
0.000201793
8.53554e-05
4.79579e-05
0.000201791
0.000183251
8.53319e-05
4.79693e-05
0.000201791
3.96011e-05
4.95113e-05
4.9512e-05
3.96076e-05
3.96019e-05
4.95113e-05
4.9512e-05
3.96083e-05
8.53317e-05
0.000183257
4.79725e-05
0.000201792
4.79615e-05
0.000201793
8.53549e-05
8.53322e-05
0.000183251
4.79705e-05
0.000201789
4.79594e-05
0.00020179
8.53553e-05
3.65307e-05
3.65285e-05
0.000155214
3.65336e-05
3.65295e-05
2.48798e-05
2.48796e-05
2.48788e-05
2.48789e-05
0.000155031
3.65346e-05
3.65291e-05
3.65321e-05
3.65271e-05
2.48794e-05
2.48796e-05
8.53561e-05
4.79516e-05
0.000201791
0.000183273
8.5333e-05
4.79633e-05
0.000201791
3.96114e-05
4.95045e-05
3.96053e-05
4.95037e-05
8.53538e-05
0.000201785
4.79467e-05
0.000183242
8.53302e-05
0.000201785
4.79583e-05
3.96084e-05
4.95068e-05
4.95076e-05
3.96145e-05
8.53335e-05
0.000183273
4.79646e-05
0.000201791
4.79531e-05
0.000201791
8.53565e-05
3.96072e-05
4.95036e-05
4.95044e-05
3.96132e-05
8.5331e-05
0.000183242
0.000201784
4.79596e-05
0.000201784
4.79481e-05
8.53545e-05
3.96059e-05
4.95105e-05
3.95995e-05
4.95097e-05
8.53513e-05
0.00020179
4.79571e-05
0.000183255
8.53282e-05
0.00020179
4.79683e-05
3.96058e-05
4.95083e-05
3.95993e-05
4.95076e-05
8.53276e-05
0.000183278
4.79669e-05
0.000201791
4.79556e-05
0.000201792
8.53511e-05
3.96013e-05
4.95096e-05
4.95104e-05
3.96076e-05
8.53286e-05
0.000183255
0.000201789
4.79695e-05
0.000201789
4.79585e-05
8.53515e-05
3.96012e-05
4.95074e-05
4.95082e-05
3.96075e-05
3.65186e-05
3.65337e-05
0.000155201
3.65215e-05
3.65366e-05
2.48789e-05
2.48789e-05
2.48761e-05
2.48763e-05
0.000155019
3.65224e-05
3.65372e-05
3.65195e-05
3.65349e-05
2.48788e-05
2.48788e-05
8.53515e-05
0.000201789
4.79546e-05
0.000183272
8.53282e-05
0.000201789
4.79659e-05
3.96054e-05
4.9508e-05
3.95989e-05
4.95073e-05
3.96105e-05
4.95081e-05
3.96045e-05
4.95074e-05
8.53217e-05
0.000183266
0.000201787
4.79697e-05
0.000201788
4.79587e-05
8.53456e-05
8.53288e-05
0.000183272
0.000201788
4.79671e-05
0.000201788
4.7956e-05
8.53521e-05
3.96006e-05
4.95072e-05
4.95079e-05
3.9607e-05
3.96063e-05
4.95073e-05
4.95081e-05
3.96122e-05
2.48788e-05
2.48787e-05
2.48777e-05
2.48776e-05
0.000155023
3.65372e-05
3.6533e-05
3.65349e-05
3.65307e-05
2.48786e-05
2.48787e-05
2.48775e-05
2.48776e-05
2.488e-05
2.48799e-05
2.48779e-05
2.48779e-05
3.65363e-05
3.65309e-05
0.000155209
3.65387e-05
3.65332e-05
2.48799e-05
2.48799e-05
2.48779e-05
2.48779e-05
0.000155026
3.65397e-05
3.65342e-05
3.6537e-05
3.65315e-05
3.96099e-05
4.95119e-05
3.96036e-05
4.95112e-05
8.53546e-05
4.79628e-05
0.000201791
0.000183256
8.53317e-05
4.79736e-05
0.000201791
8.53552e-05
4.79606e-05
0.000201789
0.000183252
8.53321e-05
4.79717e-05
0.000201789
3.96044e-05
4.95111e-05
4.95118e-05
3.96104e-05
3.96051e-05
4.95111e-05
4.95118e-05
3.96111e-05
8.53316e-05
0.000183256
4.79746e-05
0.000201791
4.79639e-05
0.000201791
8.53552e-05
8.53321e-05
0.000183251
4.79727e-05
0.000201789
4.79617e-05
0.000201789
8.53558e-05
3.6533e-05
3.65271e-05
0.000155214
3.65354e-05
3.65299e-05
2.48795e-05
2.48793e-05
2.48788e-05
2.48788e-05
0.000155031
3.65365e-05
3.65312e-05
3.65338e-05
3.65281e-05
2.48793e-05
2.48794e-05
8.53565e-05
4.79543e-05
0.000201791
0.000183272
8.53338e-05
4.79657e-05
0.00020179
3.96146e-05
4.95043e-05
3.96089e-05
4.95036e-05
8.53552e-05
0.000201784
4.79493e-05
0.000183243
8.53317e-05
0.000201784
4.79607e-05
3.96117e-05
4.95067e-05
4.95074e-05
3.96171e-05
8.53338e-05
0.000183272
4.79667e-05
0.00020179
4.79554e-05
0.000201791
8.53567e-05
3.96103e-05
4.95035e-05
4.95043e-05
3.96157e-05
8.53323e-05
0.000183242
0.000201784
4.79618e-05
0.000201784
4.79505e-05
8.5356e-05
3.9609e-05
4.95103e-05
3.96029e-05
4.95095e-05
8.5352e-05
0.000201789
4.79596e-05
0.000183256
8.53288e-05
0.000201789
4.79706e-05
3.9609e-05
4.95081e-05
3.96028e-05
4.95073e-05
8.53286e-05
0.000183275
4.79691e-05
0.000201791
4.79579e-05
0.00020179
8.53524e-05
3.96042e-05
4.95095e-05
4.95102e-05
3.96101e-05
8.53295e-05
0.000183255
0.000201789
4.79716e-05
0.000201789
4.79606e-05
8.53531e-05
3.96042e-05
4.95073e-05
4.9508e-05
3.96102e-05
3.65204e-05
3.65355e-05
0.0001552
3.65235e-05
3.65379e-05
2.48788e-05
2.48788e-05
2.48761e-05
2.48762e-05
0.000155018
3.65247e-05
3.65391e-05
3.65215e-05
3.65363e-05
2.48788e-05
2.48788e-05
8.53526e-05
0.000201788
4.79571e-05
0.000183272
8.53294e-05
0.000201788
4.79682e-05
3.96084e-05
4.95078e-05
3.96022e-05
4.95071e-05
3.96136e-05
4.95079e-05
3.96079e-05
4.95072e-05
8.53225e-05
0.000183265
0.000201786
4.79717e-05
0.000201786
4.79608e-05
8.53467e-05
8.533e-05
0.000183271
0.000201788
4.79692e-05
0.000201788
4.79582e-05
8.53533e-05
3.96035e-05
4.9507e-05
4.95077e-05
3.96095e-05
3.96092e-05
4.95072e-05
4.95078e-05
3.96146e-05
2.48786e-05
2.48786e-05
2.48775e-05
2.48775e-05
0.000155023
3.6539e-05
3.65349e-05
3.65362e-05
3.65321e-05
2.48786e-05
2.48786e-05
2.48775e-05
2.48775e-05
2.48799e-05
2.488e-05
2.48779e-05
2.48779e-05
3.65382e-05
3.65326e-05
0.000155208
3.65411e-05
3.65356e-05
2.488e-05
2.488e-05
2.4878e-05
2.4878e-05
0.000155026
3.65427e-05
3.65371e-05
3.65397e-05
3.65341e-05
3.96121e-05
4.95118e-05
3.96063e-05
4.95111e-05
8.5356e-05
4.79648e-05
0.000201791
0.000183256
8.53323e-05
4.79756e-05
0.000201791
8.53564e-05
4.79627e-05
0.00020179
0.000183251
8.53329e-05
4.79736e-05
0.00020179
3.96065e-05
4.95111e-05
4.95117e-05
3.96122e-05
3.96072e-05
4.95112e-05
4.95118e-05
3.96128e-05
8.5333e-05
0.000183255
4.79764e-05
0.000201791
4.79658e-05
0.000201791
8.53568e-05
8.53333e-05
0.000183251
4.79745e-05
0.00020179
4.79636e-05
0.00020179
8.53568e-05
3.6535e-05
3.65294e-05
0.000155213
3.65378e-05
3.65327e-05
2.48794e-05
2.48794e-05
2.48789e-05
2.48789e-05
0.00015503
3.65392e-05
3.65342e-05
3.65363e-05
3.65309e-05
2.48795e-05
2.48795e-05
8.53569e-05
4.79564e-05
0.00020179
0.000183272
8.53341e-05
4.79677e-05
0.00020179
3.96165e-05
4.95042e-05
3.96113e-05
4.95035e-05
8.53563e-05
0.000201784
4.79515e-05
0.000183243
8.53331e-05
0.000201784
4.79627e-05
3.96134e-05
4.95067e-05
4.95074e-05
3.96186e-05
8.53343e-05
0.000183271
4.79685e-05
0.00020179
4.79574e-05
0.00020179
8.53574e-05
3.96121e-05
4.95036e-05
4.95042e-05
3.96173e-05
8.53333e-05
0.000183243
0.000201785
4.79636e-05
0.000201785
4.79525e-05
8.53565e-05
3.96109e-05
4.95102e-05
3.96052e-05
4.95095e-05
8.53539e-05
0.000201789
4.79617e-05
0.000183256
8.53306e-05
0.000201789
4.79726e-05
3.96111e-05
4.9508e-05
3.96053e-05
4.95073e-05
8.533e-05
0.000183276
4.7971e-05
0.000201791
4.79599e-05
0.000201792
8.53536e-05
3.9606e-05
4.95095e-05
4.95102e-05
3.96117e-05
8.53312e-05
0.000183256
0.000201789
4.79734e-05
0.00020179
4.79626e-05
8.53545e-05
3.96062e-05
4.95074e-05
4.9508e-05
3.96119e-05
3.65229e-05
3.65376e-05
0.0001552
3.65261e-05
3.65406e-05
2.48788e-05
2.48788e-05
2.48763e-05
2.48763e-05
0.000155017
3.65275e-05
3.65421e-05
3.65243e-05
3.65391e-05
2.48789e-05
2.48789e-05
8.53537e-05
0.000201787
4.79592e-05
0.000183271
8.53307e-05
0.000201787
4.79702e-05
3.96103e-05
4.95077e-05
3.96045e-05
4.95071e-05
3.96154e-05
4.95078e-05
3.96102e-05
4.95072e-05
8.53237e-05
0.000183263
0.000201784
4.79734e-05
0.000201784
4.79627e-05
8.53478e-05
8.53311e-05
0.000183271
0.000201786
4.7971e-05
0.000201786
4.79601e-05
8.53544e-05
3.96053e-05
4.95071e-05
4.95077e-05
3.96113e-05
3.9611e-05
4.95072e-05
4.95078e-05
3.96163e-05
2.48786e-05
2.48787e-05
2.48776e-05
2.48776e-05
0.000155022
3.65418e-05
3.65378e-05
3.65389e-05
3.65349e-05
2.48787e-05
2.48787e-05
2.48777e-05
2.48776e-05
2.48801e-05
2.48801e-05
2.4878e-05
2.48781e-05
3.65412e-05
3.65356e-05
0.000155208
3.6544e-05
3.65383e-05
2.48803e-05
2.48802e-05
2.48782e-05
2.48781e-05
0.000155025
3.65448e-05
3.6539e-05
3.65424e-05
3.65367e-05
3.96136e-05
4.95118e-05
3.9608e-05
4.95112e-05
8.53577e-05
4.79666e-05
0.000201791
0.000183256
8.53339e-05
4.79772e-05
0.000201791
8.53574e-05
4.79644e-05
0.000201791
0.000183251
8.53337e-05
4.79752e-05
0.000201791
3.96082e-05
4.95113e-05
4.95119e-05
3.96139e-05
3.96088e-05
4.95113e-05
4.95119e-05
3.96145e-05
8.53348e-05
0.000183256
4.79777e-05
0.000201794
4.79673e-05
0.000201792
8.53588e-05
8.53345e-05
0.000183252
4.79757e-05
0.000201793
4.79651e-05
0.000201792
8.53587e-05
3.65377e-05
3.65324e-05
0.000155213
3.65404e-05
3.65354e-05
2.48796e-05
2.48796e-05
2.48791e-05
2.48791e-05
0.000155029
3.65412e-05
3.6536e-05
3.65388e-05
3.65335e-05
2.48797e-05
2.48797e-05
8.53584e-05
4.79582e-05
0.00020179
0.000183271
8.5335e-05
4.79692e-05
0.00020179
3.96183e-05
4.95043e-05
3.96129e-05
4.95037e-05
8.53576e-05
0.000201784
4.79533e-05
0.000183239
8.53337e-05
0.000201783
4.79643e-05
3.96152e-05
4.95069e-05
4.95075e-05
3.96203e-05
8.5336e-05
0.000183271
4.79698e-05
0.000201791
4.79588e-05
0.000201791
8.53592e-05
3.9614e-05
4.95038e-05
4.95044e-05
3.9619e-05
8.5335e-05
0.000183238
0.000201784
4.79647e-05
0.000201783
4.7954e-05
8.53588e-05
3.96125e-05
4.95103e-05
3.96068e-05
4.95096e-05
8.53554e-05
0.000201792
4.79634e-05
0.000183253
8.53319e-05
0.000201791
4.7974e-05
3.96127e-05
4.95081e-05
3.9607e-05
4.95075e-05
8.53313e-05
0.000183277
4.7972e-05
0.000201792
4.79613e-05
0.000201791
8.53552e-05
3.96077e-05
4.95097e-05
4.95103e-05
3.96131e-05
8.53329e-05
0.000183252
0.000201791
4.79744e-05
0.000201791
4.7964e-05
8.53559e-05
3.96079e-05
4.95076e-05
4.95082e-05
3.96132e-05
3.65255e-05
3.65405e-05
0.000155198
3.65285e-05
3.65432e-05
2.48789e-05
2.4879e-05
2.48765e-05
2.48765e-05
0.000155015
3.65289e-05
3.65435e-05
3.65264e-05
3.65415e-05
2.48792e-05
2.48791e-05
8.53555e-05
0.000201787
4.79609e-05
0.00018327
8.53318e-05
0.000201788
4.79716e-05
3.96123e-05
4.95078e-05
3.96064e-05
4.95072e-05
3.96173e-05
4.95079e-05
3.96119e-05
4.95073e-05
8.53253e-05
0.000183262
0.000201787
4.79745e-05
0.000201786
4.7964e-05
8.53496e-05
8.53331e-05
0.00018327
0.000201789
4.7972e-05
0.00020179
4.79615e-05
8.53562e-05
3.96074e-05
4.95073e-05
4.95079e-05
3.96129e-05
3.96131e-05
4.95074e-05
4.9508e-05
3.96181e-05
2.48788e-05
2.48788e-05
2.48777e-05
2.48778e-05
0.00015502
3.65433e-05
3.65393e-05
3.65412e-05
3.65372e-05
2.4879e-05
2.48789e-05
2.48779e-05
2.48778e-05
2.48803e-05
2.48804e-05
2.48782e-05
2.48784e-05
3.6543e-05
3.65372e-05
0.000155207
3.65447e-05
3.65388e-05
2.48806e-05
2.48805e-05
2.48785e-05
2.48784e-05
0.000155024
3.65437e-05
3.65379e-05
3.65427e-05
3.65368e-05
3.96145e-05
4.9512e-05
3.96095e-05
4.95115e-05
8.53576e-05
4.79678e-05
0.000201794
0.000183255
8.53358e-05
4.79777e-05
0.000201793
8.53581e-05
4.79656e-05
0.000201792
0.00018325
8.53358e-05
4.79757e-05
0.000201791
3.96086e-05
4.95119e-05
4.95122e-05
3.96119e-05
3.96092e-05
4.95119e-05
4.95123e-05
3.96126e-05
8.53333e-05
0.000183254
4.79758e-05
0.00020179
4.79675e-05
0.000201792
8.53495e-05
8.53338e-05
0.000183248
4.79738e-05
0.000201788
4.79652e-05
0.000201789
8.53499e-05
3.65394e-05
3.65339e-05
0.000155211
3.65411e-05
3.65356e-05
2.48798e-05
2.48799e-05
2.48795e-05
2.48793e-05
0.000155028
3.65401e-05
3.65343e-05
3.65391e-05
3.65332e-05
2.48801e-05
2.488e-05
8.53556e-05
4.79593e-05
0.000201794
0.00018327
8.53363e-05
4.79697e-05
0.000201793
3.96186e-05
4.95046e-05
3.96144e-05
4.95041e-05
8.53551e-05
0.000201784
4.79542e-05
0.000183234
8.53356e-05
0.000201784
4.7964e-05
3.9615e-05
4.95075e-05
4.95078e-05
3.96174e-05
8.53311e-05
0.000183271
4.79678e-05
0.000201791
4.79589e-05
0.000201793
8.53482e-05
3.96135e-05
4.95045e-05
4.95049e-05
3.96155e-05
8.53301e-05
0.000183233
0.000201783
4.79609e-05
0.000201784
4.79529e-05
8.53467e-05
3.96128e-05
4.95104e-05
3.9608e-05
4.95098e-05
8.53527e-05
0.000201789
4.79642e-05
0.000183247
8.53329e-05
0.000201789
4.79737e-05
3.96126e-05
4.95083e-05
3.9608e-05
4.95079e-05
8.53304e-05
0.00018327
4.79696e-05
0.000201789
4.79611e-05
0.00020179
8.53459e-05
3.96073e-05
4.95102e-05
4.95105e-05
3.96095e-05
8.53282e-05
0.000183246
0.000201787
4.79707e-05
0.000201788
4.7963e-05
8.53444e-05
3.9607e-05
4.95083e-05
4.95087e-05
3.96091e-05
3.65266e-05
3.65417e-05
0.000155196
3.65284e-05
3.65431e-05
2.48792e-05
2.48793e-05
2.48767e-05
2.48768e-05
0.000155013
3.65271e-05
3.65419e-05
3.65259e-05
3.65409e-05
2.48794e-05
2.48794e-05
8.53521e-05
0.000201788
4.79618e-05
0.000183264