/*--------------------------------*- C++ -*----------------------------------*\
| =========                 |                                                 |
| \\      /  F ield         | OpenFOAM: The Open Source CFD Toolbox           |
|  \\    /   O peration     | Version:  2206                                  |
|   \\  /    A nd           | Website:  www.openfoam.com                      |
|    \\/     M anipulation  |                                                 |
\*---------------------------------------------------------------------------*/
FoamFile
{
    version     2.0;
    format      ascii;
    arch        "LSB;label=32;scalar=64";
    class       volScalarField;
    location    "7.5";
    object      p;
}
// * * * * * * * * * * * * * * * * * * * * * * * * * * * * * * * * * * * * * //

dimensions      [0 2 -2 0 0 0 0];

internalField   nonuniform List<scalar> 
171728
(
0.00430128
0.0043016
0.00430161
0.00430456
0.00424734
0.00424753
0.00424753
0.00424967
0.00420078
0.00420072
0.00420072
0.00420338
0.00415506
0.00415503
0.00415503
0.00415769
0.00410941
0.00410939
0.00410939
0.00411204
0.00406377
0.00406375
0.00406375
0.0040664
0.00401813
0.0040181
0.0040181
0.00402075
0.00397248
0.00397246
0.00397246
0.00397511
0.00392684
0.00392682
0.00392682
0.00392947
0.0038812
0.00388118
0.00388118
0.00388383
0.00383556
0.00383554
0.00383554
0.00383819
0.00378992
0.0037899
0.0037899
0.00379255
0.00374429
0.00374426
0.00374426
0.00374691
0.00369867
0.00369865
0.00369864
0.00370129
0.00365303
0.00365301
0.00365301
0.00365566
0.00360739
0.00360737
0.00360737
0.00361002
0.00356175
0.00356172
0.00356172
0.00356438
0.00351611
0.00351608
0.00351608
0.00351873
0.00347046
0.00347044
0.00347044
0.00347309
0.00342482
0.0034248
0.0034248
0.00342745
0.00337918
0.00337916
0.00337916
0.00338181
0.00333355
0.00333352
0.00333352
0.00333617
0.00328791
0.00328789
0.00328789
0.00329054
0.00324228
0.00324226
0.00324226
0.00324491
0.00319665
0.00319663
0.00319663
0.00319928
0.00315102
0.003151
0.003151
0.00315365
0.00310539
0.00310537
0.00310537
0.00310802
0.00305977
0.00305974
0.00305974
0.00306239
0.00301414
0.00301412
0.00301412
0.00301677
0.00296852
0.00296849
0.00296849
0.00297114
0.0029229
0.00292288
0.00292288
0.00292553
0.00287729
0.00287727
0.00287727
0.00287992
0.00283166
0.00283164
0.00283164
0.00283429
0.00278604
0.00278601
0.00278601
0.00278867
0.00274041
0.00274039
0.00274039
0.00274304
0.00269478
0.00269476
0.00269476
0.00269741
0.00264915
0.00264913
0.00264913
0.00265178
0.00260353
0.0026035
0.0026035
0.00260615
0.0025579
0.00255787
0.00255787
0.00256053
0.00251227
0.00251225
0.00251225
0.0025149
0.00246664
0.00246662
0.00246662
0.00246927
0.00242101
0.00242099
0.00242099
0.00242364
0.00237539
0.00237536
0.00237536
0.00237801
0.00232976
0.00232974
0.00232974
0.00233239
0.00228413
0.00228411
0.00228411
0.00228676
0.0022385
0.00223848
0.00223848
0.00224113
0.00219287
0.00219285
0.00219285
0.0021955
0.00214724
0.00214722
0.00214722
0.00214987
0.00210163
0.00210161
0.00210161
0.00210426
0.00205601
0.00205599
0.00205599
0.00205864
0.00201038
0.00201035
0.00201035
0.002013
0.00196474
0.00196472
0.00196472
0.00196737
0.00191911
0.00191909
0.00191909
0.00192174
0.00187348
0.00187346
0.00187346
0.00187611
0.00182785
0.00182783
0.00182783
0.00183048
0.00178222
0.00178219
0.00178219
0.00178485
0.00173658
0.00173656
0.00173656
0.00173921
0.00169095
0.00169093
0.00169093
0.00169358
0.00164531
0.00164529
0.00164529
0.00164794
0.00159968
0.00159966
0.00159966
0.00160231
0.00155405
0.00155403
0.00155403
0.00155668
0.00150842
0.00150839
0.00150839
0.00151105
0.00146279
0.00146276
0.00146276
0.00146541
0.00141715
0.00141713
0.00141713
0.00141978
0.00137152
0.0013715
0.0013715
0.00137415
0.00132589
0.00132587
0.00132587
0.00132852
0.00128028
0.00128026
0.00128026
0.00128291
0.00123465
0.00123462
0.00123462
0.00123727
0.00118901
0.00118899
0.00118899
0.00119164
0.00114338
0.00114336
0.00114336
0.00114601
0.00109775
0.00109773
0.00109773
0.00110038
0.00105211
0.00105209
0.00105209
0.00105474
0.00100648
0.00100646
0.00100646
0.00100911
0.000960848
0.000960825
0.000960825
0.000963476
0.000915214
0.000915191
0.000915191
0.000917842
0.000869581
0.000869558
0.000869558
0.000872209
0.000823947
0.000823925
0.000823925
0.000826576
0.000778313
0.00077829
0.00077829
0.000780941
0.000732678
0.000732656
0.000732656
0.000735306
0.000687045
0.000687023
0.000687023
0.000689673
0.000641413
0.00064139
0.00064139
0.000644041
0.000595781
0.000595758
0.000595759
0.000598409
0.000550152
0.000550128
0.000550129
0.000552778
0.000504536
0.000504517
0.000504513
0.000507166
0.000458909
0.000458885
0.000458887
0.000461536
0.000413276
0.000413253
0.000413253
0.000415904
0.000367643
0.000367621
0.000367621
0.000370271
0.00032201
0.000321988
0.000321988
0.000324639
0.000276377
0.000276355
0.000276355
0.000279005
0.000230744
0.000230722
0.000230722
0.000233373
0.000185112
0.000185089
0.000185089
0.00018774
0.000139478
0.000139458
0.000139457
0.000142107
9.38543e-05
9.38329e-05
9.38315e-05
9.64518e-05
4.88491e-05
4.82048e-05
4.82019e-05
5.0679e-05
1.14212e-05
1.17967e-05
1.17957e-05
1.14539e-05
0.00431456
0.00431479
0.00431479
0.00431456
0.00431479
0.00431479
0.00431552
0.00431552
0.00431553
0.00431553
0.00431479
0.00431479
0.00431456
0.00431479
0.00431479
0.00431456
0.00430456
0.00425645
0.0043016
0.0043016
0.00425883
0.00425883
0.00430456
0.00425645
0.00430161
0.0043016
0.00425883
0.00425883
0.0043016
0.00425883
0.00425883
0.00430456
0.00425645
0.00430161
0.00425883
0.00425883
0.00425645
0.00424967
0.0042095
0.00424753
0.00424753
0.0042122
0.0042122
0.00424967
0.0042095
0.00424752
0.00424752
0.0042122
0.0042122
0.00424753
0.0042122
0.0042122
0.00424967
0.0042095
0.00424753
0.0042122
0.0042122
0.00420949
0.00420339
0.0041638
0.00420072
0.00420072
0.00416645
0.00416645
0.00420339
0.0041638
0.00420072
0.00420072
0.00416645
0.00416645
0.00420072
0.00416645
0.00416645
0.00420339
0.0041638
0.00420072
0.00416645
0.00416645
0.0041638
0.00415769
0.00411816
0.00415503
0.00415503
0.0041208
0.0041208
0.00415769
0.00411816
0.00415503
0.00415503
0.0041208
0.0041208
0.00415503
0.0041208
0.0041208
0.00415769
0.00411816
0.00415503
0.0041208
0.0041208
0.00411816
0.00411204
0.00407251
0.00410939
0.00410939
0.00407516
0.00407516
0.00411204
0.00407251
0.00410939
0.00410939
0.00407516
0.00407516
0.00410939
0.00407516
0.00407516
0.00411204
0.00407251
0.00410939
0.00407516
0.00407516
0.00407251
0.0040664
0.00402687
0.00406375
0.00406375
0.00402951
0.00402951
0.0040664
0.00402687
0.00406375
0.00406375
0.00402951
0.00402951
0.00406375
0.00402951
0.00402951
0.0040664
0.00402687
0.00406375
0.00402951
0.00402951
0.00402687
0.00402075
0.00398123
0.0040181
0.0040181
0.00398387
0.00398387
0.00402075
0.00398123
0.0040181
0.0040181
0.00398387
0.00398387
0.0040181
0.00398387
0.00398387
0.00402075
0.00398123
0.0040181
0.00398387
0.00398387
0.00398123
0.00397511
0.00393559
0.00397246
0.00397246
0.00393823
0.00393823
0.00397511
0.00393559
0.00397246
0.00397246
0.00393823
0.00393823
0.00397246
0.00393823
0.00393823
0.00397511
0.00393559
0.00397246
0.00393823
0.00393823
0.00393559
0.00392947
0.00388994
0.00392682
0.00392682
0.00389259
0.00389259
0.00392947
0.00388994
0.00392682
0.00392682
0.00389259
0.00389259
0.00392682
0.00389259
0.00389259
0.00392947
0.00388994
0.00392682
0.00389259
0.00389259
0.00388994
0.00388383
0.0038443
0.00388118
0.00388118
0.00384695
0.00384695
0.00388383
0.0038443
0.00388118
0.00388118
0.00384695
0.00384695
0.00388118
0.00384695
0.00384695
0.00388383
0.0038443
0.00388118
0.00384695
0.00384695
0.0038443
0.00383819
0.00379866
0.00383554
0.00383554
0.00380131
0.00380131
0.00383819
0.00379866
0.00383554
0.00383554
0.00380131
0.00380131
0.00383554
0.00380131
0.00380131
0.00383819
0.00379866
0.00383554
0.00380131
0.00380131
0.00379866
0.00379255
0.00375303
0.0037899
0.0037899
0.00375567
0.00375567
0.00379255
0.00375303
0.0037899
0.0037899
0.00375567
0.00375567
0.0037899
0.00375567
0.00375567
0.00379255
0.00375303
0.0037899
0.00375567
0.00375567
0.00375303
0.00374691
0.00370741
0.00374426
0.00374426
0.00371005
0.00371005
0.00374691
0.00370741
0.00374426
0.00374426
0.00371005
0.00371005
0.00374426
0.00371005
0.00371005
0.00374691
0.00370741
0.00374426
0.00371005
0.00371005
0.00370741
0.00370129
0.00366177
0.00369864
0.00369864
0.00366442
0.00366442
0.00370129
0.00366177
0.00369864
0.00369864
0.00366442
0.00366442
0.00369864
0.00366442
0.00366442
0.00370129
0.00366177
0.00369864
0.00366442
0.00366442
0.00366177
0.00365566
0.00361613
0.00365301
0.00365301
0.00361878
0.00361878
0.00365566
0.00361613
0.00365301
0.00365301
0.00361878
0.00361878
0.00365301
0.00361878
0.00361878
0.00365566
0.00361613
0.00365301
0.00361878
0.00361878
0.00361613
0.00361002
0.00357049
0.00360737
0.00360736
0.00357313
0.00357313
0.00361002
0.00357049
0.00360737
0.00360737
0.00357313
0.00357313
0.00360737
0.00357313
0.00357313
0.00361002
0.00357049
0.00360737
0.00357313
0.00357313
0.00357049
0.00356438
0.00352485
0.00356172
0.00356172
0.00352749
0.00352749
0.00356438
0.00352485
0.00356172
0.00356172
0.00352749
0.00352749
0.00356172
0.00352749
0.00352749
0.00356438
0.00352485
0.00356172
0.00352749
0.00352749
0.00352485
0.00351873
0.00347921
0.00351608
0.00351608
0.00348185
0.00348185
0.00351873
0.00347921
0.00351608
0.00351608
0.00348185
0.00348185
0.00351608
0.00348185
0.00348185
0.00351873
0.00347921
0.00351608
0.00348185
0.00348185
0.00347921
0.00347309
0.00343356
0.00347044
0.00347044
0.00343621
0.00343621
0.00347309
0.00343356
0.00347044
0.00347044
0.00343621
0.00343621
0.00347044
0.00343621
0.00343621
0.00347309
0.00343356
0.00347044
0.00343621
0.00343621
0.00343356
0.00342745
0.00338792
0.0034248
0.0034248
0.00339057
0.00339057
0.00342745
0.00338793
0.0034248
0.0034248
0.00339057
0.00339057
0.0034248
0.00339057
0.00339057
0.00342745
0.00338792
0.0034248
0.00339057
0.00339057
0.00338792
0.00338181
0.00334229
0.00337916
0.00337916
0.00334493
0.00334493
0.00338181
0.00334229
0.00337916
0.00337916
0.00334493
0.00334493
0.00337916
0.00334493
0.00334493
0.00338181
0.00334229
0.00337916
0.00334493
0.00334493
0.00334229
0.00333617
0.00329665
0.00333352
0.00333352
0.0032993
0.0032993
0.00333617
0.00329665
0.00333352
0.00333352
0.0032993
0.0032993
0.00333352
0.0032993
0.0032993
0.00333617
0.00329665
0.00333352
0.0032993
0.0032993
0.00329665
0.00329054
0.00325102
0.00328789
0.00328789
0.00325367
0.00325367
0.00329054
0.00325102
0.00328789
0.00328789
0.00325367
0.00325367
0.00328789
0.00325367
0.00325367
0.00329054
0.00325102
0.00328789
0.00325367
0.00325367
0.00325102
0.00324491
0.00320539
0.00324226
0.00324226
0.00320803
0.00320803
0.00324491
0.00320539
0.00324226
0.00324226
0.00320803
0.00320803
0.00324226
0.00320803
0.00320803
0.00324491
0.00320539
0.00324226
0.00320803
0.00320803
0.00320539
0.00319928
0.00315976
0.00319663
0.00319663
0.0031624
0.0031624
0.00319928
0.00315976
0.00319663
0.00319663
0.0031624
0.0031624
0.00319663
0.0031624
0.0031624
0.00319928
0.00315976
0.00319663
0.0031624
0.0031624
0.00315976
0.00315365
0.00311413
0.003151
0.003151
0.00311678
0.00311678
0.00315365
0.00311413
0.003151
0.003151
0.00311678
0.00311678
0.003151
0.00311678
0.00311678
0.00315365
0.00311413
0.003151
0.00311678
0.00311678
0.00311413
0.00310802
0.00306851
0.00310537
0.00310537
0.00307115
0.00307115
0.00310802
0.00306851
0.00310537
0.00310537
0.00307115
0.00307115
0.00310537
0.00307115
0.00307115
0.00310802
0.00306851
0.00310537
0.00307115
0.00307115
0.00306851
0.00306239
0.00302288
0.00305974
0.00305974
0.00302553
0.00302553
0.00306239
0.00302288
0.00305974
0.00305974
0.00302552
0.00302552
0.00305974
0.00302553
0.00302553
0.00306239
0.00302288
0.00305974
0.00302552
0.00302553
0.00302288
0.00301677
0.00297725
0.00301412
0.00301412
0.0029799
0.0029799
0.00301677
0.00297726
0.00301412
0.00301412
0.0029799
0.0029799
0.00301412
0.0029799
0.0029799
0.00301677
0.00297725
0.00301412
0.0029799
0.0029799
0.00297725
0.00297114
0.00293164
0.00296849
0.00296849
0.00293428
0.00293428
0.00297114
0.00293164
0.00296849
0.00296849
0.00293428
0.00293428
0.00296849
0.00293428
0.00293428
0.00297114
0.00293164
0.00296849
0.00293428
0.00293428
0.00293164
0.00292553
0.00288603
0.00292288
0.00292288
0.00288867
0.00288867
0.00292553
0.00288603
0.00292288
0.00292288
0.00288867
0.00288867
0.00292288
0.00288867
0.00288867
0.00292553
0.00288603
0.00292288
0.00288867
0.00288867
0.00288603
0.00287992
0.0028404
0.00287727
0.00287727
0.00284305
0.00284305
0.00287992
0.0028404
0.00287727
0.00287727
0.00284305
0.00284305
0.00287727
0.00284305
0.00284305
0.00287992
0.0028404
0.00287727
0.00284305
0.00284305
0.0028404
0.00283429
0.00279478
0.00283164
0.00283164
0.00279742
0.00279742
0.00283429
0.00279478
0.00283164
0.00283164
0.00279742
0.00279742
0.00283164
0.00279742
0.00279742
0.00283429
0.00279478
0.00283164
0.00279742
0.00279742
0.00279478
0.00278866
0.00274915
0.00278601
0.00278601
0.00275179
0.00275179
0.00278866
0.00274915
0.00278601
0.00278601
0.00275179
0.00275179
0.00278601
0.00275179
0.00275179
0.00278867
0.00274915
0.00278601
0.00275179
0.00275179
0.00274915
0.00274304
0.00270352
0.00274039
0.00274039
0.00270617
0.00270617
0.00274304
0.00270352
0.00274039
0.00274039
0.00270617
0.00270617
0.00274039
0.00270617
0.00270617
0.00274304
0.00270352
0.00274039
0.00270617
0.00270617
0.00270352
0.00269741
0.00265789
0.00269476
0.00269476
0.00266054
0.00266054
0.00269741
0.00265789
0.00269476
0.00269476
0.00266054
0.00266054
0.00269476
0.00266054
0.00266054
0.00269741
0.00265789
0.00269476
0.00266054
0.00266054
0.00265789
0.00265178
0.00261226
0.00264913
0.00264913
0.00261491
0.00261491
0.00265178
0.00261226
0.00264913
0.00264913
0.00261491
0.00261491
0.00264913
0.00261491
0.00261491
0.00265178
0.00261226
0.00264913
0.00261491
0.00261491
0.00261226
0.00260615
0.00256664
0.0026035
0.0026035
0.00256928
0.00256928
0.00260615
0.00256664
0.0026035
0.0026035
0.00256928
0.00256928
0.0026035
0.00256928
0.00256928
0.00260615
0.00256664
0.0026035
0.00256928
0.00256928
0.00256664
0.00256052
0.00252101
0.00255787
0.00255787
0.00252365
0.00252365
0.00256052
0.00252101
0.00255787
0.00255787
0.00252365
0.00252365
0.00255787
0.00252365
0.00252365
0.00256052
0.00252101
0.00255787
0.00252365
0.00252365
0.00252101
0.0025149
0.00247538
0.00251225
0.00251225
0.00247803
0.00247803
0.0025149
0.00247538
0.00251225
0.00251225
0.00247803
0.00247803
0.00251225
0.00247803
0.00247803
0.0025149
0.00247538
0.00251225
0.00247803
0.00247803
0.00247538
0.00246927
0.00242975
0.00246662
0.00246662
0.0024324
0.0024324
0.00246927
0.00242975
0.00246662
0.00246662
0.0024324
0.0024324
0.00246662
0.0024324
0.0024324
0.00246927
0.00242975
0.00246662
0.0024324
0.0024324
0.00242975
0.00242364
0.00238413
0.00242099
0.00242099
0.00238677
0.00238677
0.00242364
0.00238413
0.00242099
0.00242099
0.00238677
0.00238677
0.00242099
0.00238677
0.00238677
0.00242364
0.00238413
0.00242099
0.00238677
0.00238677
0.00238413
0.00237801
0.0023385
0.00237536
0.00237536
0.00234114
0.00234114
0.00237801
0.0023385
0.00237536
0.00237536
0.00234114
0.00234114
0.00237536
0.00234114
0.00234114
0.00237801
0.0023385
0.00237536
0.00234114
0.00234114
0.0023385
0.00233239
0.00229287
0.00232974
0.00232974
0.00229552
0.00229551
0.00233239
0.00229287
0.00232974
0.00232974
0.00229551
0.00229552
0.00232974
0.00229551
0.00229552
0.00233239
0.00229287
0.00232974
0.00229552
0.00229552
0.00229287
0.00228676
0.00224724
0.00228411
0.00228411
0.00224989
0.00224989
0.00228676
0.00224724
0.00228411
0.00228411
0.00224989
0.00224989
0.00228411
0.00224989
0.00224989
0.00228676
0.00224724
0.00228411
0.00224989
0.00224989
0.00224724
0.00224113
0.00220161
0.00223848
0.00223848
0.00220426
0.00220426
0.00224113
0.00220161
0.00223848
0.00223848
0.00220426
0.00220426
0.00223848
0.00220426
0.00220426
0.00224113
0.00220161
0.00223848
0.00220426
0.00220426
0.00220161
0.0021955
0.00215598
0.00219285
0.00219285
0.00215863
0.00215863
0.0021955
0.00215598
0.00219285
0.00219285
0.00215863
0.00215863
0.00219285
0.00215863
0.00215863
0.0021955
0.00215598
0.00219285
0.00215863
0.00215863
0.00215598
0.00214987
0.00211037
0.00214722
0.00214722
0.00211301
0.00211301
0.00214987
0.00211037
0.00214722
0.00214722
0.00211301
0.00211301
0.00214722
0.00211301
0.00211301
0.00214987
0.00211037
0.00214722
0.00211301
0.00211301
0.00211037
0.00210426
0.00206475
0.00210161
0.00210161
0.00206739
0.00206739
0.00210426
0.00206475
0.00210161
0.00210161
0.00206739
0.00206739
0.00210161
0.00206739
0.00206739
0.00210426
0.00206475
0.00210161
0.00206739
0.00206739
0.00206475
0.00205864
0.00201912
0.00205599
0.00205599
0.00202176
0.00202176
0.00205863
0.00201912
0.00205599
0.00205599
0.00202176
0.00202176
0.00205599
0.00202176
0.00202176
0.00205864
0.00201912
0.00205599
0.00202176
0.00202176
0.00201912
0.002013
0.00197349
0.00201035
0.00201035
0.00197613
0.00197613
0.002013
0.00197349
0.00201035
0.00201035
0.00197613
0.00197613
0.00201035
0.00197613
0.00197613
0.002013
0.00197349
0.00201035
0.00197613
0.00197613
0.00197348
0.00196737
0.00192785
0.00196472
0.00196472
0.0019305
0.0019305
0.00196737
0.00192785
0.00196472
0.00196472
0.0019305
0.0019305
0.00196472
0.0019305
0.0019305
0.00196737
0.00192785
0.00196472
0.0019305
0.0019305
0.00192785
0.00192174
0.00188222
0.00191909
0.00191909
0.00188487
0.00188487
0.00192174
0.00188222
0.00191909
0.00191909
0.00188487
0.00188487
0.00191909
0.00188487
0.00188487
0.00192174
0.00188222
0.00191909
0.00188487
0.00188487
0.00188222
0.00187611
0.00183659
0.00187346
0.00187346
0.00183924
0.00183924
0.00187611
0.00183659
0.00187346
0.00187346
0.00183924
0.00183924
0.00187346
0.00183924
0.00183924
0.00187611
0.00183659
0.00187346
0.00183924
0.00183924
0.00183659
0.00183048
0.00179096
0.00182783
0.00182783
0.0017936
0.0017936
0.00183048
0.00179096
0.00182783
0.00182783
0.0017936
0.0017936
0.00182783
0.0017936
0.0017936
0.00183048
0.00179096
0.00182783
0.0017936
0.0017936
0.00179096
0.00178485
0.00174532
0.00178219
0.00178219
0.00174797
0.00174797
0.00178485
0.00174532
0.00178219
0.00178219
0.00174797
0.00174797
0.00178219
0.00174797
0.00174797
0.00178485
0.00174532
0.00178219
0.00174797
0.00174797
0.00174532
0.00173921
0.00169969
0.00173656
0.00173656
0.00170233
0.00170233
0.00173921
0.00169969
0.00173656
0.00173656
0.00170233
0.00170233
0.00173656
0.00170233
0.00170233
0.00173921
0.00169969
0.00173656
0.00170233
0.00170233
0.00169969
0.00169358
0.00165405
0.00169093
0.00169093
0.0016567
0.0016567
0.00169358
0.00165405
0.00169093
0.00169093
0.0016567
0.0016567
0.00169093
0.0016567
0.0016567
0.00169358
0.00165405
0.00169093
0.0016567
0.0016567
0.00165405
0.00164794
0.00160842
0.00164529
0.00164529
0.00161107
0.00161107
0.00164794
0.00160842
0.00164529
0.00164529
0.00161107
0.00161107
0.00164529
0.00161107
0.00161107
0.00164794
0.00160842
0.00164529
0.00161107
0.00161107
0.00160842
0.00160231
0.00156279
0.00159966
0.00159966
0.00156543
0.00156543
0.00160231
0.00156279
0.00159966
0.00159966
0.00156543
0.00156543
0.00159966
0.00156543
0.00156543
0.00160231
0.00156279
0.00159966
0.00156543
0.00156543
0.00156279
0.00155668
0.00151716
0.00155403
0.00155403
0.0015198
0.0015198
0.00155668
0.00151716
0.00155403
0.00155403
0.0015198
0.0015198
0.00155403
0.0015198
0.0015198
0.00155668
0.00151716
0.00155403
0.0015198
0.0015198
0.00151716
0.00151105
0.00147153
0.00150839
0.00150839
0.00147417
0.00147417
0.00151105
0.00147153
0.00150839
0.00150839
0.00147417
0.00147417
0.0015084
0.00147417
0.00147417
0.00151105
0.00147153
0.00150839
0.00147417
0.00147417
0.00147153
0.00146541
0.00142589
0.00146276
0.00146276
0.00142854
0.00142854
0.00146541
0.00142589
0.00146276
0.00146276
0.00142854
0.00142854
0.00146276
0.00142854
0.00142854
0.00146541
0.00142589
0.00146276
0.00142854
0.00142854
0.00142589
0.00141978
0.00138026
0.00141713
0.00141713
0.00138291
0.00138291
0.00141978
0.00138026
0.00141713
0.00141713
0.00138291
0.0013829
0.00141713
0.0013829
0.0013829
0.00141978
0.00138026
0.00141713
0.0013829
0.0013829
0.00138026
0.00137415
0.00133463
0.0013715
0.0013715
0.00133728
0.00133728
0.00137415
0.00133463
0.0013715
0.0013715
0.00133728
0.00133728
0.0013715
0.00133728
0.00133728
0.00137415
0.00133463
0.0013715
0.00133728
0.00133728
0.00133463
0.00132852
0.00128902
0.00132587
0.00132587
0.00129166
0.00129166
0.00132852
0.00128902
0.00132587
0.00132587
0.00129166
0.00129166
0.00132587
0.00129166
0.00129166
0.00132852
0.00128902
0.00132587
0.00129166
0.00129166
0.00128902
0.00128291
0.00124339
0.00128026
0.00128026
0.00124603
0.00124603
0.00128291
0.00124339
0.00128026
0.00128026
0.00124603
0.00124603
0.00128026
0.00124603
0.00124603
0.00128291
0.00124339
0.00128026
0.00124603
0.00124603
0.00124339
0.00123727
0.00119775
0.00123462
0.00123462
0.0012004
0.0012004
0.00123727
0.00119775
0.00123462
0.00123462
0.0012004
0.0012004
0.00123462
0.0012004
0.0012004
0.00123727
0.00119775
0.00123462
0.0012004
0.0012004
0.00119775
0.00119164
0.00115212
0.00118899
0.00118899
0.00115477
0.00115477
0.00119164
0.00115212
0.00118899
0.00118899
0.00115477
0.00115477
0.00118899
0.00115477
0.00115477
0.00119164
0.00115212
0.00118899
0.00115477
0.00115477
0.00115212
0.00114601
0.00110649
0.00114336
0.00114336
0.00110913
0.00110913
0.00114601
0.00110649
0.00114336
0.00114336
0.00110913
0.00110913
0.00114336
0.00110913
0.00110913
0.00114601
0.00110649
0.00114336
0.00110913
0.00110913
0.00110649
0.00110038
0.00106086
0.00109773
0.00109773
0.0010635
0.0010635
0.00110038
0.00106086
0.00109773
0.00109773
0.0010635
0.0010635
0.00109773
0.0010635
0.0010635
0.00110038
0.00106086
0.00109773
0.0010635
0.0010635
0.00106086
0.00105474
0.00101522
0.00105209
0.00105209
0.00101787
0.00101787
0.00105474
0.00101522
0.00105209
0.00105209
0.00101787
0.00101787
0.00105209
0.00101787
0.00101787
0.00105474
0.00101522
0.00105209
0.00101787
0.00101787
0.00101522
0.00100911
0.000969589
0.00100646
0.00100646
0.000972233
0.000972233
0.00100911
0.000969589
0.00100646
0.00100646
0.000972233
0.000972233
0.00100646
0.000972233
0.000972234
0.00100911
0.000969588
0.00100646
0.000972233
0.000972233
0.000969589
0.000963476
0.000923955
0.000960825
0.000960825
0.0009266
0.0009266
0.000963475
0.000923955
0.000960825
0.000960825
0.0009266
0.0009266
0.000960825
0.0009266
0.0009266
0.000963476
0.000923955
0.000960825
0.0009266
0.0009266
0.000923955
0.000917842
0.000878322
0.000915191
0.000915191
0.000880967
0.000880966
0.000917842
0.000878322
0.000915191
0.000915191
0.000880966
0.000880966
0.000915191
0.000880967
0.000880967
0.000917842
0.000878321
0.000915191
0.000880966
0.000880966
0.000878322
0.000872209
0.000832688
0.000869558
0.000869558
0.000835333
0.000835333
0.000872209
0.000832689
0.000869558
0.000869558
0.000835333
0.000835333
0.000869558
0.000835333
0.000835334
0.000872209
0.000832688
0.000869558
0.000835333
0.000835333
0.000832689
0.000826575
0.000787054
0.000823925
0.000823925
0.000789699
0.000789699
0.000826575
0.000787054
0.000823925
0.000823925
0.000789699
0.000789699
0.000823925
0.000789699
0.000789699
0.000826575
0.000787054
0.000823925
0.000789699
0.000789699
0.000787054
0.00078094
0.000741419
0.00077829
0.00077829
0.000744064
0.000744064
0.00078094
0.000741419
0.00077829
0.00077829
0.000744064
0.000744064
0.00077829
0.000744064
0.000744064
0.00078094
0.000741419
0.00077829
0.000744064
0.000744064
0.000741419
0.000735306
0.000695786
0.000732656
0.000732656
0.000698431
0.000698431
0.000735306
0.000695786
0.000732656
0.000732656
0.000698431
0.000698431
0.000732656
0.000698431
0.000698431
0.000735306
0.000695786
0.000732656
0.000698431
0.000698431
0.000695786
0.000689673
0.000650153
0.000687023
0.000687022
0.000652798
0.000652798
0.000689673
0.000650154
0.000687022
0.000687022
0.000652798
0.000652798
0.000687023
0.000652798
0.000652798
0.000689673
0.000650153
0.000687022
0.000652798
0.000652798
0.000650154
0.000644041
0.000604522
0.00064139
0.00064139
0.000607166
0.000607166
0.00064404
0.000604521
0.00064139
0.00064139
0.000607166
0.000607167
0.00064139
0.000607166
0.000607166
0.000644041
0.000604522
0.00064139
0.000607167
0.000607166
0.000604521
0.000598409
0.00055889
0.000595758
0.000595758
0.000561535
0.000561534
0.000598408
0.00055889
0.000595758
0.000595759
0.000561535
0.000561535
0.000595758
0.000561534
0.000561535
0.000598409
0.00055889
0.000595758
0.000561535
0.000561535
0.00055889
0.000552778
0.000513275
0.000550128
0.000550128
0.000515918
0.000515919
0.000552778
0.000513277
0.000550128
0.000550128
0.000515917
0.000515916
0.000550129
0.000515919
0.000515919
0.000552778
0.000513273
0.000550128
0.000515916
0.000515918
0.000513276
0.000507165
0.000467649
0.000504514
0.000504516
0.000470295
0.000470293
0.000507166
0.000467648
0.000504514
0.000504513
0.000470296
0.000470297
0.000504515
0.000470293
0.000470295
0.000507164
0.00046765
0.000504514
0.000470296
0.000470295
0.000467649
0.000461536
0.000422017
0.000458886
0.000458885
0.000424661
0.000424661
0.000461535
0.000422017
0.000458886
0.000458887
0.000424661
0.000424661
0.000458886
0.000424661
0.000424661
0.000461536
0.000422017
0.000458886
0.000424661
0.000424661
0.000422016
0.000415904
0.000376384
0.000413253
0.000413253
0.000379029
0.000379029
0.000415904
0.000376384
0.000413253
0.000413253
0.000379029
0.000379029
0.000413253
0.000379029
0.000379029
0.000415904
0.000376384
0.000413253
0.000379029
0.000379029
0.000376384
0.000370271
0.000330751
0.000367621
0.000367621
0.000333396
0.000333396
0.000370271
0.000330752
0.000367621
0.000367621
0.000333396
0.000333396
0.000367621
0.000333396
0.000333396
0.000370272
0.000330751
0.000367621
0.000333396
0.000333396
0.000330751
0.000324638
0.000285118
0.000321988
0.000321988
0.000287763
0.000287763
0.000324638
0.000285118
0.000321988
0.000321988
0.000287763
0.000287763
0.000321988
0.000287763
0.000287763
0.000324639
0.000285118
0.000321988
0.000287763
0.000287763
0.000285118
0.000279005
0.000239485
0.000276355
0.000276355
0.00024213
0.00024213
0.000279005
0.000239485
0.000276355
0.000276355
0.00024213
0.00024213
0.000276355
0.00024213
0.00024213
0.000279006
0.000239485
0.000276355
0.00024213
0.00024213
0.000239485
0.000233372
0.000193852
0.000230722
0.000230722
0.000196497
0.000196497
0.000233372
0.000193853
0.000230722
0.000230722
0.000196497
0.000196497
0.000230722
0.000196497
0.000196498
0.000233372
0.000193852
0.000230722
0.000196497
0.000196497
0.000193853
0.00018774
0.00014822
0.000185089
0.000185089
0.000150865
0.000150865
0.00018774
0.00014822
0.000185089
0.000185089
0.000150865
0.000150865
0.000185089
0.000150865
0.000150865
0.00018774
0.00014822
0.000185089
0.000150865
0.000150865
0.00014822
0.000142107
0.000102588
0.000139457
0.000139458
0.000105244
0.000105245
0.000142107
0.000102588
0.000139457
0.000139457
0.000105244
0.000105243
0.000139458
0.000105245
0.000105244
0.000142107
0.000102587
0.000139458
0.000105243
0.000105243
0.000102587
9.64531e-05
5.69689e-05
9.38331e-05
9.38327e-05
5.95442e-05
5.95451e-05
9.64527e-05
5.69705e-05
9.38322e-05
9.38314e-05
5.95416e-05
5.95416e-05
9.3832e-05
5.95427e-05
5.95416e-05
9.64521e-05
5.69665e-05
9.38318e-05
5.95403e-05
5.9539e-05
5.69669e-05
5.06818e-05
1.53231e-05
4.82069e-05
4.82075e-05
1.75277e-05
1.7527e-05
5.0683e-05
1.53227e-05
4.82043e-05
4.82037e-05
1.75255e-05
1.75218e-05
4.82031e-05
1.75241e-05
1.75201e-05
5.0679e-05
1.53196e-05
4.82016e-05
1.75229e-05
1.75228e-05
1.53186e-05
1.14569e-05
1.17982e-05
1.17985e-05
1.14577e-05
1.17966e-05
1.17948e-05
1.1421e-05
1.14195e-05
1.14189e-05
1.17937e-05
1.14551e-05
1.17948e-05
0.00432293
0.00433266
0.00432748
0.00432749
0.00434982
0.00433663
0.00436521
0.00433069
0.00434982
0.00433664
0.0043307
0.00436522
0.0043412
0.00436895
0.00436896
0.00427824
0.00429683
0.00430643
0.00427031
0.00427056
0.0042745
0.00427822
0.00429681
0.00430642
0.0042703
0.00430128
0.00430128
0.00430128
0.00425858
0.00425857
0.00425857
0.00425857
0.00427575
0.00430127
0.00430168
0.00428422
0.0043045
0.00427454
0.00428521
0.00427066
0.00427449
0.00427576
0.00430169
0.00430128
0.00428424
0.0043045
0.00428522
0.00427454
0.00430711
0.0043071
0.00427885
0.00427378
0.00427378
0.00423243
0.00424737
0.00424974
0.00423186
0.00424701
0.00423169
0.00423243
0.00424736
0.00424973
0.00423186
0.00424734
0.00424734
0.00424734
0.00421228
0.00421228
0.00421228
0.00421228
0.00423233
0.00424894
0.00424729
0.00423564
0.00424907
0.00423267
0.00423555
0.00424699
0.00423168
0.00423234
0.00424729
0.00424895
0.00423564
0.00424907
0.00423555
0.00423268
0.0042483
0.00424832
0.00423259
0.00423229
0.0042323
0.00418643
0.00420342
0.0042035
0.00418641
0.00420345
0.00418641
0.00418643
0.00420343
0.0042035
0.00418641
0.00420078
0.00420078
0.00420078
0.00416648
0.00416648
0.00416648
0.00416648
0.0041865
0.00420349
0.00420072
0.00418929
0.00420347
0.00418646
0.0041893
0.00420343
0.00418641
0.0041865
0.00420073
0.00420349
0.00418929
0.00420347
0.0041893
0.00418646
0.0042035
0.00420351
0.00418663
0.00418642
0.00418642
0.0041408
0.00415788
0.00415788
0.00414079
0.00415788
0.00414079
0.0041408
0.00415788
0.00415788
0.00414079
0.00415506
0.00415506
0.00415506
0.00412082
0.00412083
0.00412082
0.00412082
0.00414086
0.00415785
0.00415504
0.00414362
0.00415782
0.00414083
0.00414363
0.00415788
0.00414079
0.00414086
0.00415504
0.00415785
0.00414362
0.00415782
0.00414363
0.00414083
0.00415788
0.00415788
0.00414098
0.00414079
0.00414079
0.00409515
0.00411224
0.00411224
0.00409515
0.00411225
0.00409515
0.00409515
0.00411224
0.00411224
0.00409515
0.00410941
0.00410941
0.00410941
0.00407518
0.00407518
0.00407518
0.00407518
0.00409522
0.00411221
0.0041094
0.00409798
0.00411218
0.00409518
0.00409799
0.00411224
0.00409515
0.00409522
0.0041094
0.00411221
0.00409798
0.00411218
0.00409798
0.00409518
0.00411224
0.00411224
0.00409533
0.00409515
0.00409515
0.00404951
0.0040666
0.00406659
0.00404951
0.00406661
0.00404949
0.00404951
0.0040666
0.00406659
0.00404951
0.00406377
0.00406377
0.00406377
0.00402954
0.00402954
0.00402954
0.00402954
0.00404957
0.00406656
0.00406375
0.00405233
0.00406653
0.00404954
0.00405234
0.0040666
0.0040495
0.00404957
0.00406375
0.00406656
0.00405233
0.00406653
0.00405234
0.00404954
0.0040666
0.0040666