/*--------------------------------*- C++ -*----------------------------------*\
| =========                 |                                                 |
| \\      /  F ield         | OpenFOAM: The Open Source CFD Toolbox           |
|  \\    /   O peration     | Version:  2206                                  |
|   \\  /    A nd           | Website:  www.openfoam.com                      |
|    \\/     M anipulation  |                                                 |
\*---------------------------------------------------------------------------*/
FoamFile
{
    version     2.0;
    format      ascii;
    arch        "LSB;label=32;scalar=64";
    class       volScalarField;
    location    "20";
    object      k;
}
// * * * * * * * * * * * * * * * * * * * * * * * * * * * * * * * * * * * * * //

dimensions      [0 2 -2 0 0 0 0];

internalField   nonuniform List<scalar> 
28673
(
2.8703e-05
2.83341e-05
2.89914e-05
2.87031e-05
2.87029e-05
2.83353e-05
2.89914e-05
2.87031e-05
2.87029e-05
2.83354e-05
2.89913e-05
2.8703e-05
2.87029e-05
2.83356e-05
2.89904e-05
2.87001e-05
2.8702e-05
2.83333e-05
2.89836e-05
2.86936e-05
2.86944e-05
2.83255e-05
2.89825e-05
2.86934e-05
2.86933e-05
2.83252e-05
2.89825e-05
2.86935e-05
2.86934e-05
2.83251e-05
2.89825e-05
2.86935e-05
2.86934e-05
2.83251e-05
2.89825e-05
2.86935e-05
2.86934e-05
2.83251e-05
2.89825e-05
2.86935e-05
2.86934e-05
2.83251e-05
2.89826e-05
2.86936e-05
2.86935e-05
2.83254e-05
2.8991e-05
2.87247e-05
2.87246e-05
2.8385e-05
2.87028e-05
2.83381e-05
2.8703e-05
2.83386e-05
2.87028e-05
2.87028e-05
2.87028e-05
2.87028e-05
2.83357e-05
2.83381e-05
2.87029e-05
2.87025e-05
2.87028e-05
2.87031e-05
2.87027e-05
2.83379e-05
2.87029e-05
2.8703e-05
2.87029e-05
2.8338e-05
2.83362e-05
2.83386e-05
2.8703e-05
2.8703e-05
2.8703e-05
2.87029e-05
2.83358e-05
2.83383e-05
2.87032e-05
2.87026e-05
2.87031e-05
2.87026e-05
2.87027e-05
2.87031e-05
2.87026e-05
2.83355e-05
2.83379e-05
2.8703e-05
2.87029e-05
2.87028e-05
2.8338e-05
2.83362e-05
2.83387e-05
2.87031e-05
2.87031e-05
2.8703e-05
2.8703e-05
2.83359e-05
2.83384e-05
2.87032e-05
2.87028e-05
2.87032e-05
2.87028e-05
2.87027e-05
2.8703e-05
2.87027e-05
2.83356e-05
2.83381e-05
2.87029e-05
2.87029e-05
2.87029e-05
2.83383e-05
2.83364e-05
2.83378e-05
2.8703e-05
2.87029e-05
2.87024e-05
2.87017e-05
2.8336e-05
2.8336e-05
2.87033e-05
2.87028e-05
2.8703e-05
2.87023e-05
2.87027e-05
2.8702e-05
2.8702e-05
2.83358e-05
2.83376e-05
2.87028e-05
2.87025e-05
2.87021e-05
2.83369e-05
2.83348e-05
2.83297e-05
2.87015e-05
2.86998e-05
2.8695e-05
2.8694e-05
2.83322e-05
2.83281e-05
2.87025e-05
2.87019e-05
2.86961e-05
2.8696e-05
2.8701e-05
2.86942e-05
2.86946e-05
2.83349e-05
2.83304e-05
2.87011e-05
2.86959e-05
2.86947e-05
2.83288e-05
2.83263e-05
2.83277e-05
2.8694e-05
2.86935e-05
2.86932e-05
2.86932e-05
2.83255e-05
2.83278e-05
2.86947e-05
2.86944e-05
2.86934e-05
2.8693e-05
2.86938e-05
2.86935e-05
2.86932e-05
2.83267e-05
2.83274e-05
2.86939e-05
2.86933e-05
2.86934e-05
2.83278e-05
2.83254e-05
2.83277e-05
2.86934e-05
2.86934e-05
2.86933e-05
2.86932e-05
2.83254e-05
2.83277e-05
2.86935e-05
2.86931e-05
2.86934e-05
2.86931e-05
2.86934e-05
2.86935e-05
2.86933e-05
2.83251e-05
2.83275e-05
2.86935e-05
2.86934e-05
2.86934e-05
2.83278e-05
2.83253e-05
2.83278e-05
2.86934e-05
2.86934e-05
2.86933e-05
2.86932e-05
2.83254e-05
2.83277e-05
2.86936e-05
2.86932e-05
2.86935e-05
2.86931e-05
2.86934e-05
2.86935e-05
2.86933e-05
2.83251e-05
2.83276e-05
2.86935e-05
2.86934e-05
2.86934e-05
2.83278e-05
2.83254e-05
2.83278e-05
2.86934e-05
2.86934e-05
2.86933e-05
2.86932e-05
2.83254e-05
2.83278e-05
2.86936e-05
2.86932e-05
2.86935e-05
2.86931e-05
2.86934e-05
2.86935e-05
2.86933e-05
2.83252e-05
2.83275e-05
2.86935e-05
2.86934e-05
2.86934e-05
2.83278e-05
2.83254e-05
2.83277e-05
2.86934e-05
2.86934e-05
2.86933e-05
2.86933e-05
2.83254e-05
2.83277e-05
2.86936e-05
2.86932e-05
2.86935e-05
2.86931e-05
2.86934e-05
2.86935e-05
2.86933e-05
2.83252e-05
2.83275e-05
2.86936e-05
2.86934e-05
2.86935e-05
2.83277e-05
2.83254e-05
2.83279e-05
2.86934e-05
2.86934e-05
2.86936e-05
2.86936e-05
2.83254e-05
2.83279e-05
2.86936e-05
2.86932e-05
2.86938e-05
2.86934e-05
2.86934e-05
2.86938e-05
2.86936e-05
2.83252e-05
2.83276e-05
2.86936e-05
2.86938e-05
2.86938e-05
2.83279e-05
2.83256e-05
2.83528e-05
2.86934e-05
2.86934e-05
2.87149e-05
2.87149e-05
2.83256e-05
2.83528e-05
2.86936e-05
2.86932e-05
2.87151e-05
2.87148e-05
2.86934e-05
2.8715e-05
2.87149e-05
2.83254e-05
2.83526e-05
2.86936e-05
2.8715e-05
2.8715e-05
2.83528e-05
2.83852e-05
2.87247e-05
2.87246e-05
2.83851e-05
2.87248e-05
2.87245e-05
2.8991e-05
2.8991e-05
2.8991e-05
2.87247e-05
2.8385e-05
2.87248e-05
3.00799e-05
6.81643e-05
3.00807e-05
6.81596e-05
8.34652e-05
8.34592e-05
3.00804e-05
6.81619e-05
2.89916e-05
2.89914e-05
2.89914e-05
2.89915e-05
2.89914e-05
2.89913e-05
2.75907e-05
2.97029e-05
2.8885e-05
2.87032e-05
2.75908e-05
2.97008e-05
2.8885e-05
8.3462e-05
2.75902e-05
2.88849e-05
2.8703e-05
2.75903e-05
2.88849e-05
2.97005e-05
3.31979e-05
3.31985e-05
2.8338e-05
3.31983e-05
3.31989e-05
3.00813e-05
6.816e-05
3.00825e-05
6.81574e-05
8.34557e-05
8.34532e-05
3.00815e-05
6.81628e-05
3.00827e-05
6.816e-05
2.89915e-05
2.89914e-05
2.89913e-05
2.89914e-05
2.89914e-05
2.89913e-05
2.89911e-05
2.7591e-05
2.97047e-05
2.88849e-05
2.87032e-05
2.75908e-05
2.97021e-05
2.88849e-05
8.34562e-05
8.34519e-05
2.75904e-05
2.88848e-05
2.97046e-05
2.87029e-05
2.75902e-05
2.88848e-05
2.97024e-05
3.32034e-05
3.32041e-05
2.8338e-05
3.32043e-05
3.3205e-05
3.00833e-05
6.81588e-05
3.00843e-05
6.81564e-05
8.34531e-05
8.34523e-05
3.00838e-05
6.81614e-05
3.00844e-05
6.81589e-05
2.89914e-05
2.89913e-05
2.89911e-05
2.89913e-05
2.89912e-05
2.89912e-05
2.8991e-05
2.75916e-05
2.97055e-05
2.88848e-05
2.87032e-05
2.75914e-05
2.9703e-05
2.8885e-05
8.34505e-05
8.34485e-05
2.7591e-05
2.88847e-05
2.97055e-05
2.8703e-05
2.75907e-05
2.88848e-05
2.9703e-05
3.32086e-05
3.32093e-05
2.83382e-05
3.32085e-05
3.32092e-05
3.00835e-05
6.81583e-05
3.00856e-05
6.8157e-05
8.34548e-05
8.34561e-05
3.00848e-05
6.81609e-05
3.00861e-05
6.8159e-05
2.89912e-05
2.89912e-05
2.8991e-05
2.89909e-05
2.89905e-05
2.89908e-05
2.89905e-05
2.75915e-05
2.97064e-05
2.88848e-05
2.87029e-05
2.75918e-05
2.97035e-05
2.88847e-05
8.34501e-05
8.34496e-05
2.7591e-05
2.88846e-05
2.97061e-05
2.87028e-05
2.75912e-05
2.88846e-05
2.97036e-05
3.32112e-05
3.32119e-05
2.83381e-05
3.32094e-05
3.32101e-05
3.00794e-05
6.81654e-05
3.00837e-05
6.81696e-05
8.34598e-05
8.3459e-05
3.00822e-05
6.81645e-05
3.00852e-05
6.81676e-05
2.89892e-05
2.89904e-05
2.89896e-05
2.89849e-05
2.89837e-05
2.89851e-05
2.8984e-05
2.75852e-05
2.97044e-05
2.88828e-05
2.86977e-05
2.75898e-05
2.9698e-05
2.88806e-05
8.34552e-05
8.34555e-05
2.75852e-05
2.88833e-05
2.97053e-05
2.87006e-05
2.75894e-05
2.88814e-05
2.97005e-05
3.32096e-05
3.32102e-05
2.83332e-05
3.32059e-05
3.32066e-05
3.00724e-05
6.81733e-05
3.00756e-05
6.8171e-05
8.34591e-05
8.3458e-05
3.0074e-05
6.81759e-05
3.00779e-05
6.81739e-05
2.89831e-05
2.89838e-05
2.89831e-05
2.89825e-05
2.89826e-05
2.89826e-05
2.89826e-05
2.75794e-05
2.96961e-05
2.88762e-05
2.86936e-05
2.75795e-05
2.96922e-05
2.8876e-05
8.34564e-05
8.34547e-05
2.75788e-05
2.88764e-05
2.96981e-05
2.86938e-05
2.75789e-05
2.8876e-05
2.96935e-05
3.32003e-05
3.32009e-05
2.83278e-05
3.31975e-05
3.31981e-05
3.00718e-05
6.81728e-05
3.00736e-05
6.81708e-05
8.34589e-05
8.3458e-05
3.00727e-05
6.81757e-05
3.00744e-05
6.81735e-05
2.89828e-05
2.89827e-05
2.89827e-05
2.89825e-05
2.89826e-05
2.89826e-05
2.89826e-05
2.75793e-05
2.96948e-05
2.88758e-05
2.86936e-05
2.75791e-05
2.96918e-05
2.88759e-05
8.34557e-05
8.34544e-05
2.75787e-05
2.88757e-05
2.9695e-05
2.86935e-05
2.75785e-05
2.88758e-05
2.96922e-05
3.31985e-05
3.31991e-05
2.83278e-05
3.31971e-05
3.31977e-05
3.00718e-05
6.81727e-05
3.00736e-05
6.8172e-05
8.34588e-05
8.34591e-05
3.00728e-05
6.81755e-05
3.00743e-05
6.81747e-05
2.89827e-05
2.89827e-05
2.89827e-05
2.89825e-05
2.89826e-05
2.89826e-05
2.89826e-05
2.75792e-05
2.96946e-05
2.88758e-05
2.86936e-05
2.75791e-05
2.96913e-05
2.88759e-05
8.34556e-05
8.34554e-05
2.75786e-05
2.88757e-05
2.96946e-05
2.86935e-05
2.75785e-05
2.88758e-05
2.96916e-05
3.31984e-05
3.31991e-05
2.83278e-05
3.31969e-05
3.31976e-05
3.00723e-05
6.81742e-05
3.00744e-05
6.81804e-05
8.34564e-05
8.34631e-05
3.00732e-05
6.8177e-05
3.0075e-05
6.81832e-05
2.89827e-05
2.89827e-05
2.89827e-05
2.89825e-05
2.89826e-05
2.89826e-05
2.89826e-05
2.75792e-05
2.96921e-05
2.88758e-05
2.86936e-05
2.75792e-05
2.96859e-05
2.88759e-05
8.34543e-05
8.34615e-05
2.75788e-05
2.88757e-05
2.96921e-05
2.86935e-05
2.75787e-05
2.88758e-05
2.96864e-05
3.31989e-05
3.31995e-05
2.83278e-05
3.31977e-05
3.31984e-05
3.00747e-05
6.81737e-05
3.00776e-05
6.81881e-05
8.34406e-05
8.34605e-05
3.00756e-05
6.8177e-05
3.00783e-05
6.81913e-05
2.89827e-05
2.89827e-05
2.89827e-05
2.89825e-05
2.89826e-05
2.89826e-05
2.89826e-05
2.75793e-05
2.96918e-05
2.88758e-05
2.86936e-05
2.75795e-05
2.96813e-05
2.88759e-05
8.34409e-05
8.34609e-05
2.75789e-05
2.88758e-05
2.96924e-05
2.86935e-05
2.7579e-05
2.88759e-05
2.96821e-05
3.32015e-05
3.32021e-05
2.83278e-05
3.31971e-05
3.31975e-05
3.00768e-05
6.81595e-05
3.00799e-05
6.81906e-05
8.34079e-05
8.34298e-05
3.00777e-05
6.81632e-05
3.00806e-05
6.81943e-05
2.89827e-05
2.89827e-05
2.89827e-05
2.89827e-05
2.89828e-05
2.89827e-05
2.89827e-05
2.75799e-05
2.96972e-05
2.88758e-05
2.86936e-05
2.75803e-05
2.96827e-05
2.88759e-05
8.34096e-05
8.34306e-05
2.75796e-05
2.88758e-05
2.96984e-05
2.86936e-05
2.75799e-05
2.88759e-05
2.9684e-05
3.32008e-05
3.32012e-05
2.83277e-05
3.3205e-05
3.32053e-05
3.008e-05
6.8125e-05
3.00766e-05
6.81811e-05
8.33116e-05
8.33298e-05
3.00814e-05
6.81287e-05
3.00772e-05
6.81844e-05
2.89828e-05
2.89827e-05
2.89827e-05
2.8985e-05
2.89849e-05
2.89849e-05
2.89849e-05
2.75794e-05
2.97195e-05
2.88763e-05
2.86959e-05
2.75807e-05
2.96735e-05
2.88758e-05
8.33121e-05
8.33298e-05
2.75791e-05
2.88762e-05
2.97205e-05
2.86958e-05
2.75804e-05
2.88757e-05
2.9674e-05
3.31962e-05
3.31965e-05
2.83313e-05
3.32127e-05
3.32126e-05
2.83369e-05
6.62419e-05
3.00573e-05
5.31584e-05
7.78443e-05
4.59476e-05
2.83376e-05
6.62502e-05
3.00586e-05
5.31668e-05
2.90602e-05
2.90399e-05
2.90399e-05
2.89608e-05
2.90593e-05
2.9033e-05
2.9033e-05
2.76087e-05
2.96216e-05
2.88936e-05
2.87506e-05
2.75994e-05
3.14436e-05
2.89262e-05
7.78436e-05
4.59448e-05
2.76085e-05
2.88935e-05
2.96215e-05
2.87506e-05
2.75991e-05
2.89262e-05
3.14421e-05
3.34829e-05
3.34834e-05
2.84574e-05
3.28866e-05
3.28857e-05
6.81624e-05
2.97008e-05
8.34658e-05
3.31981e-05
3.31932e-05
8.34618e-05
2.96997e-05
6.81599e-05
8.34684e-05
8.34619e-05
8.34656e-05
3.31978e-05
2.83386e-05
3.31982e-05
3.31969e-05
8.34569e-05
8.34617e-05
8.3459e-05
8.34651e-05
2.83363e-05
3.32013e-05
3.31993e-05
3.32002e-05
3.31988e-05
3.00802e-05
6.81638e-05
3.0081e-05
6.81611e-05
2.75906e-05
2.97022e-05
2.88849e-05
2.87028e-05
2.75907e-05
2.97002e-05
2.88849e-05
2.75908e-05
2.97041e-05
2.8885e-05
2.87028e-05
2.75908e-05
2.97019e-05
2.8885e-05
3.00822e-05
6.81583e-05
6.81608e-05
3.00807e-05
3.00824e-05
6.81599e-05
6.81623e-05
3.00807e-05
2.75911e-05
2.87028e-05
2.97011e-05
2.88848e-05
2.97034e-05
2.88849e-05
2.7591e-05
2.75912e-05
2.87028e-05
2.97027e-05
2.88849e-05
2.97051e-05
2.8885e-05
2.75911e-05
3.32002e-05
3.31954e-05
2.8338e-05
3.32007e-05
3.31956e-05
8.34621e-05
8.34556e-05
8.34555e-05
8.34595e-05
2.83357e-05
3.3204e-05
3.31999e-05
3.32029e-05
3.31986e-05
8.34516e-05
8.34562e-05
2.7591e-05
2.87029e-05
2.97008e-05
2.88849e-05
3.00799e-05
6.81603e-05
2.75909e-05
2.87026e-05
2.88848e-05
2.96997e-05
3.00825e-05
6.81609e-05
6.81634e-05
3.00811e-05
2.75913e-05
2.87029e-05
2.97017e-05
2.88848e-05
2.9704e-05
2.88848e-05
2.75912e-05
3.00821e-05
6.81591e-05
6.81618e-05
3.00807e-05
2.75912e-05
2.87025e-05
2.88847e-05
2.97009e-05
2.88848e-05
2.97033e-05
2.7591e-05
3.00801e-05
6.81614e-05
3.00809e-05
6.81586e-05
2.75906e-05
2.88849e-05
2.97021e-05
2.87028e-05
2.75907e-05
2.88849e-05
2.97001e-05
3.00799e-05
6.81663e-05
3.00808e-05
6.81616e-05
2.75912e-05
2.87032e-05
2.97017e-05
2.8885e-05
2.97043e-05
2.8885e-05
2.75908e-05
3.00824e-05
6.81574e-05
6.816e-05
3.00809e-05
2.75911e-05
2.87028e-05
2.88849e-05
2.9701e-05
2.88849e-05
2.97034e-05
2.75909e-05
3.00822e-05
6.81603e-05
6.81628e-05
3.00805e-05
2.83379e-05
3.31948e-05
3.31971e-05
8.34658e-05
8.34558e-05
8.34623e-05
2.83355e-05
3.31981e-05
3.31997e-05
3.31974e-05
3.3199e-05
8.34592e-05
8.34653e-05
2.759e-05
2.88848e-05
2.97026e-05
2.87029e-05
2.759e-05
2.88848e-05
2.97005e-05
3.00792e-05
3.00802e-05
6.81623e-05
3.0079e-05
6.81682e-05
3.00801e-05
6.81635e-05
2.75907e-05
2.8703e-05
2.88848e-05
2.97017e-05
2.88848e-05
2.97038e-05
2.75902e-05
2.75904e-05
2.87029e-05
2.88848e-05
2.97014e-05
2.88848e-05
2.97038e-05
2.75903e-05
3.00816e-05
6.81611e-05
6.81637e-05
3.00797e-05
3.00815e-05
6.81622e-05
6.81647e-05
3.00796e-05
8.34686e-05
8.34621e-05
8.34685e-05
8.34621e-05
2.83357e-05
3.32013e-05
3.3202e-05
3.32003e-05
3.32009e-05
8.34571e-05
8.34619e-05
8.34571e-05
8.34618e-05
8.34575e-05
8.34541e-05
8.34593e-05
8.34553e-05
3.32035e-05
3.32014e-05
2.83385e-05
3.32045e-05
3.32025e-05
8.34525e-05
8.34549e-05
8.34529e-05
8.34559e-05
2.83362e-05
3.32069e-05
3.32053e-05
3.32065e-05
3.32046e-05
3.00814e-05
6.81612e-05
3.00828e-05
6.8159e-05
2.75914e-05
2.97043e-05
2.88849e-05
2.8703e-05
2.75915e-05
2.97017e-05
2.88849e-05
2.75915e-05
2.97058e-05
2.88849e-05
2.8703e-05
2.75916e-05
2.97031e-05
2.88849e-05
3.00836e-05
6.81568e-05
6.81588e-05
3.00823e-05
3.00836e-05
6.81585e-05
6.81604e-05
3.00825e-05
2.75919e-05
2.8703e-05
2.9702e-05
2.88849e-05
2.97048e-05
2.88849e-05
2.75917e-05
2.7592e-05
2.8703e-05
2.97034e-05
2.88848e-05
2.97062e-05
2.88848e-05
2.75918e-05
3.32062e-05
3.32025e-05
2.83382e-05
3.32068e-05
3.32027e-05
8.34526e-05
8.34493e-05
8.34522e-05
8.34542e-05
2.83358e-05
3.32089e-05
3.32046e-05
3.32088e-05
3.32049e-05
8.34482e-05
8.34506e-05
2.75916e-05
2.97049e-05
2.88849e-05
2.87032e-05
2.75917e-05
2.97024e-05
2.88849e-05
3.00812e-05
6.81605e-05
3.00826e-05
6.81579e-05
2.75914e-05
2.88848e-05
2.97044e-05
2.87026e-05
2.75916e-05
2.88848e-05
2.97018e-05
3.00835e-05
6.81593e-05
6.81614e-05
3.00826e-05
2.75921e-05
2.87031e-05
2.97028e-05
2.88849e-05
2.97055e-05
2.88849e-05
2.75919e-05
3.00832e-05
6.81572e-05
6.81594e-05
3.00824e-05
2.75919e-05
2.87026e-05
2.88848e-05
2.97023e-05
2.88848e-05
2.97052e-05
2.75917e-05
3.00814e-05
6.81589e-05
3.0083e-05
6.81565e-05
2.75913e-05
2.88848e-05
2.97042e-05
2.87027e-05
2.75915e-05
2.88848e-05
2.97016e-05
3.00811e-05
6.81616e-05
3.00826e-05
6.81593e-05
2.75915e-05
2.87032e-05
2.97025e-05
2.88848e-05
2.97054e-05
2.88849e-05
2.75914e-05
3.00837e-05
6.8156e-05
6.81581e-05
3.00825e-05
2.75918e-05
2.87027e-05
2.88847e-05
2.97019e-05
2.88847e-05
2.97047e-05
2.75917e-05
3.00834e-05
6.81587e-05
6.81607e-05
3.00823e-05
3.32004e-05
3.32019e-05
2.83379e-05
3.32009e-05
3.32031e-05
8.34594e-05
8.34554e-05
8.34495e-05
8.34529e-05
2.83355e-05
3.32035e-05
3.32059e-05
3.32032e-05
3.32052e-05
8.3453e-05
8.34561e-05
2.75906e-05
2.88848e-05
2.97047e-05
2.87029e-05
2.75908e-05
2.88847e-05
2.9702e-05
3.00803e-05
6.81623e-05
3.0082e-05
6.816e-05
3.00803e-05
6.81635e-05
3.00819e-05
6.81613e-05
2.75908e-05
2.87029e-05
2.88847e-05
2.97028e-05
2.88847e-05
2.97056e-05
2.75907e-05
2.75911e-05
2.87028e-05
2.88846e-05
2.97024e-05
2.88846e-05
2.97052e-05
2.7591e-05
3.00829e-05
6.81592e-05
6.81613e-05
3.00816e-05
3.00828e-05
6.81607e-05
6.81626e-05
3.00816e-05
8.34577e-05
8.34543e-05
8.34577e-05
8.34543e-05
2.83357e-05
3.32067e-05
3.32074e-05
3.32063e-05
3.3207e-05
8.34527e-05
8.34551e-05
8.34526e-05
8.34551e-05
8.34536e-05
8.3452e-05
8.34539e-05
8.34518e-05
3.32087e-05
3.32072e-05
2.83387e-05
3.32087e-05
3.32075e-05
8.34525e-05
8.34535e-05
8.3452e-05
8.34531e-05
2.83364e-05
3.32099e-05
3.32091e-05
3.32104e-05
3.32092e-05
3.00835e-05
6.81599e-05
3.00848e-05
6.81582e-05
2.75922e-05
2.97051e-05
2.8885e-05
2.87031e-05
2.75923e-05
2.97026e-05
2.8885e-05
2.75923e-05
2.97065e-05
2.88849e-05
2.87031e-05
2.75924e-05
2.97039e-05
2.88849e-05
3.00855e-05
6.81563e-05
6.8158e-05
3.00838e-05
3.00857e-05
6.81583e-05
6.81597e-05
3.00841e-05
2.75927e-05
2.87031e-05
2.97032e-05
2.88848e-05
2.97057e-05
2.88849e-05
2.75923e-05
2.75928e-05
2.8703e-05
2.97044e-05
2.88848e-05
2.97071e-05
2.88848e-05
2.75925e-05
3.32107e-05
3.32067e-05
2.83384e-05
3.32104e-05
3.32061e-05
8.34499e-05
8.34484e-05
8.34532e-05
8.34538e-05
2.83361e-05
3.32111e-05
3.32067e-05
3.32122e-05
3.3208e-05
8.34493e-05
8.34502e-05
2.75924e-05
2.97058e-05
2.8885e-05
2.87032e-05
2.75925e-05
2.97031e-05
2.8885e-05
3.00835e-05
6.81587e-05
3.00844e-05
6.81567e-05
2.75922e-05
2.88848e-05
2.97056e-05
2.87028e-05
2.75923e-05
2.88848e-05
2.97027e-05
3.00858e-05
6.81587e-05
6.81605e-05
3.00846e-05
2.75929e-05
2.87032e-05
2.97037e-05
2.88849e-05
2.97062e-05
2.8885e-05
2.75927e-05
3.00855e-05
6.81564e-05
6.81583e-05
3.00843e-05
2.75927e-05
2.87028e-05
2.88848e-05
2.97031e-05
2.88848e-05
2.9706e-05
2.75925e-05
3.00834e-05
6.81576e-05
3.00847e-05
6.81558e-05
2.75922e-05
2.88848e-05
2.9705e-05
2.87027e-05
2.75922e-05
2.88848e-05
2.97024e-05
3.00833e-05
6.81602e-05
3.00846e-05
6.81583e-05
2.7592e-05
2.87031e-05
2.97035e-05
2.88849e-05
2.97064e-05
2.88849e-05
2.75918e-05
3.00855e-05
6.81559e-05
6.81575e-05
3.00839e-05
2.75927e-05
2.87027e-05
2.88848e-05
2.9703e-05
2.88848e-05
2.97056e-05
2.75923e-05
3.00855e-05
6.81581e-05
6.81598e-05
3.00838e-05
3.32057e-05
3.32078e-05
2.8338e-05
3.32056e-05
3.32081e-05
8.34541e-05
8.3452e-05
8.34487e-05
8.34502e-05
2.83357e-05
3.32069e-05
3.32096e-05
3.32075e-05
3.32098e-05
8.34523e-05
8.34534e-05
2.75916e-05
2.88847e-05
2.97055e-05
2.87029e-05
2.75916e-05
2.88847e-05
2.97029e-05
3.00826e-05
6.81607e-05
3.00841e-05
6.81587e-05
3.00826e-05
6.81621e-05
3.00841e-05
6.81602e-05
2.75914e-05
2.8703e-05
2.88847e-05
2.97034e-05
2.88848e-05
2.9706e-05
2.75912e-05
2.75921e-05
2.87029e-05
2.88846e-05
2.97035e-05
2.88846e-05
2.97061e-05
2.75916e-05
3.0085e-05
6.81584e-05
6.81601e-05
3.00831e-05
3.0085e-05
6.81601e-05
6.81618e-05
3.00831e-05
8.34538e-05
8.34522e-05
8.34538e-05
8.34522e-05
2.83359e-05
3.32097e-05
3.32104e-05
3.32102e-05
3.32109e-05
8.34526e-05
8.34537e-05
8.34526e-05
8.34537e-05
8.34542e-05
8.34547e-05
8.34534e-05
8.34525e-05
3.32113e-05
3.32108e-05
2.83387e-05
3.32096e-05
3.321e-05
8.34579e-05
8.34569e-05
8.34563e-05
8.34547e-05
2.83363e-05
3.32086e-05
3.32096e-05
3.32107e-05
3.32113e-05
3.00838e-05
6.81603e-05
3.00862e-05
6.8161e-05
2.75914e-05
2.97063e-05
2.88848e-05
2.87029e-05
2.75922e-05
2.97034e-05
2.88847e-05
2.75916e-05
2.97075e-05
2.88849e-05
2.87028e-05
2.75923e-05
2.97044e-05
2.88848e-05
3.00852e-05
6.81612e-05
6.81592e-05
3.00823e-05
3.00855e-05
6.81675e-05
6.81637e-05
3.00825e-05
2.75912e-05
2.87027e-05
2.97025e-05
2.88841e-05
2.97063e-05
2.88845e-05
2.75904e-05
2.75914e-05
2.87024e-05
2.97032e-05
2.88841e-05
2.97074e-05
2.88846e-05
2.75905e-05
3.32124e-05
3.32082e-05
2.8338e-05
3.32104e-05
3.32062e-05
8.34517e-05
8.34522e-05
8.34586e-05
8.3458e-05
2.83353e-05
3.32091e-05
3.32049e-05
3.32117e-05
3.32077e-05
8.34548e-05
8.34547e-05
2.75923e-05
2.97068e-05
2.8885e-05
2.87033e-05
2.75931e-05
2.97042e-05
2.88849e-05
3.00845e-05
6.81582e-05
3.00862e-05
6.81565e-05
2.75923e-05
2.88847e-05
2.97065e-05
2.87027e-05
2.7593e-05
2.88847e-05
2.97035e-05
3.00864e-05
6.81613e-05
6.8161e-05
3.00839e-05
2.75921e-05
2.87032e-05
2.9704e-05
2.88845e-05
2.97072e-05
2.88847e-05
2.75913e-05
3.00862e-05
6.81586e-05
6.81584e-05
3.00836e-05
2.7592e-05
2.87025e-05
2.88844e-05
2.97032e-05
2.88845e-05
2.97067e-05
2.75912e-05
3.00836e-05
6.8158e-05
3.0086e-05
6.81587e-05
2.75913e-05
2.88847e-05
2.97061e-05
2.87026e-05
2.75921e-05
2.88846e-05
2.97031e-05
3.00835e-05
6.81597e-05
3.00859e-05
6.81588e-05
2.75913e-05
2.87026e-05
2.97022e-05
2.88841e-05
2.97066e-05
2.88845e-05
2.75903e-05
3.00854e-05
6.8165e-05
6.81616e-05
3.00824e-05
2.75912e-05
2.87024e-05
2.88841e-05
2.97023e-05
2.88844e-05
2.97061e-05
2.75903e-05
3.00852e-05
6.81628e-05
6.81609e-05
3.00822e-05
3.32088e-05
3.32112e-05
2.83381e-05
3.32074e-05
3.32101e-05
8.34537e-05
8.34533e-05
8.3453e-05
8.3452e-05
2.83357e-05
3.32066e-05
3.3209e-05
3.32089e-05
3.32112e-05
8.3457e-05
8.34555e-05
2.75908e-05
2.88847e-05
2.97066e-05
2.87028e-05
2.75915e-05
2.88846e-05
2.97036e-05
3.00829e-05
6.81599e-05
3.00854e-05
6.8158e-05
3.00828e-05
6.81617e-05
3.00853e-05
6.81609e-05
2.75908e-05
2.87027e-05
2.88841e-05
2.97029e-05
2.88844e-05
2.97066e-05
2.75898e-05
2.75906e-05
2.87025e-05
2.88841e-05
2.97027e-05
2.88844e-05
2.97065e-05
2.75899e-05
3.00848e-05
6.81599e-05
6.81595e-05
3.00817e-05
3.00847e-05
6.81648e-05
6.8163e-05
3.00816e-05
8.34543e-05
8.34547e-05
8.34542e-05
8.34546e-05
2.83357e-05
3.32085e-05
3.32092e-05
3.32106e-05
3.32113e-05
8.3458e-05
8.3457e-05
8.3458e-05
8.34569e-05
8.34596e-05
8.34588e-05
8.34584e-05
8.3459e-05
3.32097e-05
3.32108e-05
2.83346e-05
3.32061e-05
3.32084e-05
8.34583e-05
8.346e-05
8.34587e-05
8.34603e-05
2.83304e-05
3.32e-05
3.32034e-05
3.32063e-05
3.3209e-05
3.00796e-05
6.8172e-05
3.00842e-05
6.81736e-05
2.75853e-05
2.97052e-05
2.88832e-05
2.86993e-05
2.75899e-05
2.96994e-05
2.8881e-05
2.75852e-05
2.97055e-05
2.88829e-05
2.86973e-05
2.759e-05
2.96989e-05
2.88806e-05
3.00803e-05
6.81713e-05
6.8172e-05
3.00747e-05
3.00805e-05
6.81739e-05
6.81753e-05
3.0075e-05
2.75831e-05
2.86969e-05
2.9695e-05
2.88772e-05
2.97013e-05
2.88788e-05
2.75797e-05
2.75831e-05
2.86953e-05
2.96949e-05
2.88769e-05
2.97008e-05
2.88785e-05
2.75798e-05
3.32099e-05
3.3206e-05
2.83312e-05
3.32042e-05
3.31999e-05
8.34568e-05
8.34552e-05
8.34583e-05
8.34601e-05
2.83274e-05
3.31989e-05
3.31943e-05
3.32042e-05
3.32005e-05
8.34545e-05
8.34567e-05
2.75896e-05
2.97067e-05
2.88841e-05
2.8701e-05
2.75911e-05
2.97022e-05
2.8883e-05
3.00818e-05
6.81614e-05
3.00852e-05
6.81651e-05
2.75895e-05
2.8884e-05
2.97062e-05
2.87008e-05
2.75911e-05
2.8883e-05
2.97014e-05
3.00832e-05
6.81735e-05
6.81722e-05
3.00776e-05
2.75878e-05
2.86984e-05
2.96978e-05
2.88786e-05
2.97043e-05
2.88808e-05
2.75817e-05
3.00828e-05
6.81717e-05
6.817e-05
3.00773e-05
2.75876e-05
2.86984e-05
2.88786e-05
2.96971e-05
2.88808e-05
2.97039e-05
2.75815e-05
3.00795e-05
6.81694e-05
3.00841e-05
6.81712e-05
2.75852e-05
2.88831e-05
2.97049e-05
2.86986e-05
2.75899e-05
2.88808e-05
2.96992e-05
3.00794e-05
6.81664e-05
3.00839e-05
6.81716e-05
2.75831e-05
2.86956e-05
2.96939e-05
2.8877e-05
2.97e-05
2.88785e-05
2.75798e-05
3.00804e-05
6.81715e-05
6.81732e-05
3.00749e-05
2.75831e-05
2.86963e-05
2.88771e-05
2.96948e-05
2.88787e-05
2.97011e-05
2.75797e-05
3.00803e-05
6.81733e-05
6.8174e-05
3.00748e-05
3.32079e-05
3.32101e-05
2.83353e-05
3.32051e-05
3.32077e-05
8.3459e-05
8.34587e-05
8.34553e-05
8.34572e-05
2.83314e-05
3.32005e-05
3.32031e-05
3.32061e-05
3.32083e-05
8.34585e-05
8.346e-05
2.7585e-05
2.88831e-05
2.97054e-05
2.86988e-05
2.75894e-05
2.88809e-05
2.96997e-05
3.00791e-05
6.81626e-05
3.00837e-05
6.81673e-05
3.0079e-05
6.81684e-05
3.00836e-05
6.81736e-05
2.75832e-05
2.8698e-05
2.88775e-05
2.96963e-05
2.88791e-05
2.97027e-05
2.75793e-05
2.75829e-05
2.86964e-05
2.88771e-05
2.96953e-05
2.88788e-05
2.97016e-05
2.75792e-05
3.00803e-05
6.81732e-05
6.81719e-05
3.00741e-05
3.00802e-05
6.81752e-05
6.8176e-05
3.0074e-05
8.34598e-05
8.3459e-05
8.34597e-05
8.3459e-05
2.83291e-05
3.31998e-05
3.32004e-05
3.32061e-05
3.32067e-05
8.34584e-05
8.34602e-05
8.34584e-05
8.34602e-05
8.34595e-05
8.34579e-05
8.34598e-05
8.34581e-05
3.32004e-05
3.32031e-05
2.83278e-05
3.31977e-05
3.31985e-05
8.34578e-05
8.34592e-05
8.34578e-05
8.34593e-05
2.83253e-05
3.31972e-05
3.31975e-05
3.31988e-05
3.31994e-05
3.00728e-05
6.81753e-05
3.00762e-05
6.81735e-05
2.75793e-05
2.96973e-05
2.88764e-05
2.86935e-05
2.75799e-05
2.96929e-05
2.8876e-05
2.75795e-05
2.96974e-05
2.88762e-05
2.86934e-05
2.758e-05
2.96934e-05
2.8876e-05
3.00743e-05
6.81708e-05
6.81724e-05
3.00719e-05
3.00746e-05
6.81734e-05
6.8175e-05
3.00722e-05
2.75796e-05
2.86932e-05
2.96923e-05
2.88758e-05
2.96957e-05
2.88758e-05
2.75793e-05
2.75798e-05
2.86932e-05
2.9693e-05
2.88758e-05
2.96963e-05
2.88758e-05
2.75795e-05
3.31999e-05
3.31954e-05
2.83276e-05
3.31978e-05
3.3193e-05
8.3456e-05
8.34541e-05
8.34579e-05
8.34593e-05
2.83253e-05
3.31977e-05
3.31929e-05
3.31992e-05
3.31946e-05
8.34541e-05
8.34558e-05
2.75798e-05
2.96997e-05
2.88771e-05
2.86939e-05
2.75808e-05
2.96945e-05
2.88764e-05
3.00737e-05
6.81737e-05
3.00779e-05
6.81719e-05
2.75796e-05
2.88771e-05
2.96993e-05
2.86936e-05
2.75806e-05
2.88763e-05
2.96936e-05
3.00754e-05
6.81736e-05
6.81754e-05
3.0073e-05
2.75801e-05
2.86935e-05
2.96933e-05
2.88758e-05
2.9697e-05
2.88759e-05
2.75797e-05
3.00751e-05
6.81716e-05
6.81735e-05
3.00726e-05
2.75799e-05
2.86931e-05
2.88757e-05
2.96923e-05
2.88758e-05
2.96964e-05
2.75795e-05
3.00727e-05
6.81731e-05
3.00761e-05
6.81711e-05
2.75793e-05
2.88763e-05
2.96971e-05
2.86935e-05
2.75799e-05
2.8876e-05
2.96928e-05
3.00725e-05
6.81748e-05
3.0076e-05
6.8173e-05
2.75796e-05
2.86935e-05
2.96919e-05
2.88758e-05
2.96953e-05
2.88759e-05
2.75792e-05
3.00745e-05
6.8171e-05
6.81728e-05
3.00721e-05
2.75796e-05
2.86932e-05
2.88758e-05
2.96922e-05
2.88758e-05
2.96956e-05
2.75793e-05
3.00743e-05
6.81728e-05
6.81745e-05
3.00719e-05
3.32009e-05
3.32028e-05
2.83277e-05
3.31954e-05
3.31984e-05
8.34597e-05
8.34581e-05
8.34544e-05
8.34563e-05
2.83252e-05
3.31941e-05
3.31972e-05
3.31964e-05
3.31993e-05
8.3458e-05
8.34594e-05
2.75787e-05
2.88763e-05
2.96976e-05
2.86936e-05
2.75793e-05
2.8876e-05
2.96932e-05
3.00717e-05
6.8175e-05
3.00754e-05
6.81735e-05
3.00716e-05
6.81767e-05
3.00753e-05
6.8175e-05
2.7579e-05
2.86935e-05
2.88757e-05
2.96924e-05
2.88758e-05
2.96961e-05
2.75785e-05
2.7579e-05
2.86934e-05
2.88757e-05
2.96926e-05
2.88757e-05
2.96961e-05
2.75786e-05
3.00738e-05
6.81733e-05
6.8175e-05
3.00712e-05
3.00736e-05
6.81747e-05
6.81764e-05
3.0071e-05
8.34596e-05
8.34581e-05
8.34596e-05
8.34581e-05
2.83255e-05
3.31971e-05
3.31977e-05
3.31987e-05
3.31993e-05
8.34579e-05
8.34594e-05
8.34579e-05
8.34594e-05
8.34591e-05
8.34578e-05
8.34591e-05
8.34578e-05
3.31985e-05
3.31988e-05
2.83278e-05
3.31971e-05
3.31973e-05
8.34579e-05
8.34591e-05
8.34579e-05
8.34591e-05
2.83255e-05
3.31971e-05
3.31973e-05
3.31984e-05
3.31987e-05
3.00721e-05
6.81749e-05
3.00742e-05
6.81733e-05
2.75793e-05
2.96953e-05
2.88759e-05
2.86934e-05
2.75796e-05
2.96922e-05
2.88759e-05
2.75795e-05
2.9696e-05
2.8876e-05
2.86933e-05
2.75798e-05
2.9693e-05
2.88759e-05
3.00738e-05
6.81709e-05
6.81723e-05
3.00718e-05
3.00741e-05
6.81735e-05
6.81749e-05
3.00721e-05
2.75796e-05
2.86933e-05
2.96921e-05
2.88758e-05
2.96952e-05
2.88758e-05
2.75792e-05
2.75798e-05
2.86933e-05
2.96929e-05
2.88758e-05
2.9696e-05
2.88758e-05
2.75794e-05
3.31991e-05
3.31946e-05
2.83277e-05
3.31977e-05
3.3193e-05
8.34557e-05
8.34541e-05
8.34581e-05
8.34593e-05
2.83253e-05
3.31977e-05
3.3193e-05
3.31991e-05
3.31946e-05
8.34542e-05
8.34557e-05
2.75797e-05
2.96961e-05
2.88759e-05
2.86935e-05
2.758e-05
2.9693e-05
2.88759e-05
3.00723e-05
6.81732e-05
3.00743e-05
6.81714e-05
2.75795e-05
2.88759e-05
2.96955e-05
2.86931e-05
2.75798e-05
2.88759e-05
2.9692e-05
3.00745e-05
6.81736e-05
6.81751e-05
3.00727e-05
2.758e-05
2.86935e-05
2.96929e-05
2.88758e-05
2.96959e-05
2.88759e-05
2.75796e-05
3.00741e-05
6.81715e-05
6.8173e-05
3.00723e-05
2.75798e-05
2.86931e-05
2.88757e-05
2.96919e-05
2.88758e-05
2.96952e-05
2.75795e-05
3.0072e-05
6.81727e-05
3.00741e-05
6.8171e-05
2.75793e-05
2.88759e-05
2.96952e-05
2.86934e-05
2.75796e-05
2.88759e-05
2.96921e-05
3.00719e-05
6.81743e-05
3.00739e-05
6.81728e-05
2.75797e-05
2.86936e-05
2.96918e-05
2.88758e-05
2.96951e-05
2.88759e-05
2.75792e-05
3.0074e-05
6.81711e-05
6.81726e-05
3.0072e-05
2.75796e-05
2.86933e-05
2.88758e-05
2.9692e-05
2.88758e-05
2.96951e-05
2.75792e-05
3.00739e-05
6.81729e-05
6.81743e-05
3.00718e-05
3.31956e-05
3.31985e-05
2.83276e-05
3.31939e-05
3.3197e-05
8.34593e-05
8.34579e-05
8.34545e-05
8.34561e-05
2.83253e-05
3.31939e-05
3.3197e-05
3.31955e-05
3.31983e-05
8.34581e-05
8.34592e-05
2.75786e-05
2.88759e-05
2.96956e-05
2.86935e-05
2.75789e-05
2.88759e-05
2.96925e-05
3.00709e-05
6.81748e-05
3.0073e-05
6.81732e-05
3.0071e-05
6.81762e-05
3.00733e-05
6.81747e-05
2.75792e-05
2.86935e-05
2.88757e-05
2.9692e-05
2.88758e-05
2.96952e-05
2.75786e-05
2.75789e-05
2.86935e-05
2.88757e-05
2.96924e-05
2.88758e-05
2.96955e-05
2.75786e-05
3.00728e-05
6.81733e-05
6.81747e-05
3.00706e-05
3.00732e-05
6.81748e-05
6.81762e-05
3.00709e-05
8.34593e-05
8.3458e-05
8.34593e-05
8.34579e-05
2.83255e-05
3.31971e-05
3.31977e-05
3.31984e-05
3.3199e-05
8.34581e-05
8.34593e-05
8.34581e-05
8.34593e-05
8.34591e-05
8.34589e-05
8.34591e-05
8.34589e-05
3.31984e-05
3.31987e-05
2.83277e-05
3.3197e-05
3.31972e-05
8.34623e-05
8.34589e-05
8.34623e-05
8.34589e-05
2.83254e-05
3.31967e-05
3.31969e-05
3.31983e-05
3.31986e-05
3.00722e-05
6.81748e-05
3.00742e-05
6.81746e-05
2.75793e-05
2.9695e-05
2.88759e-05
2.86934e-05
2.75796e-05
2.96916e-05
2.88759e-05
2.75795e-05
2.96958e-05
2.88759e-05
2.86934e-05
2.75798e-05
2.96924e-05
2.88759e-05
3.00741e-05
6.81757e-05
6.81722e-05
3.00721e-05
3.00744e-05
6.81783e-05
6.81748e-05
3.00724e-05
2.75796e-05
2.86933e-05
2.96898e-05
2.88758e-05
2.96943e-05
2.88759e-05
2.75792e-05
2.75798e-05
2.86933e-05
2.96906e-05
2.88758e-05
2.96951e-05
2.88758e-05
2.75794e-05
3.31991e-05
3.31946e-05
2.83278e-05
3.31976e-05
3.31928e-05
8.34557e-05
8.3455e-05
8.34625e-05
8.3459e-05
2.83254e-05
3.31973e-05
3.31924e-05
3.31991e-05
3.31945e-05
8.34592e-05
8.34556e-05
2.75797e-05
2.96957e-05
2.88759e-05
2.86936e-05
2.75799e-05
2.96924e-05
2.88759e-05
3.00723e-05
6.8173e-05
3.00741e-05
6.81726e-05
2.75795e-05
2.88758e-05
2.9695e-05
2.86932e-05
2.75798e-05
2.88758e-05
2.96914e-05
3.00748e-05
6.81784e-05
6.8175e-05
3.0073e-05
2.758e-05
2.86935e-05
2.96906e-05
2.88758e-05
2.9695e-05
2.88759e-05
2.75796e-05
3.00744e-05
6.81763e-05
6.81731e-05
3.00725e-05
2.75798e-05
2.86931e-05
2.88758e-05
2.96896e-05
2.88758e-05
2.96943e-05
2.75794e-05
3.0072e-05
6.81726e-05
3.0074e-05
6.81722e-05
2.75793e-05
2.88759e-05
2.96949e-05
2.86934e-05
2.75795e-05
2.88759e-05
2.96915e-05
3.00719e-05
6.81742e-05
3.00739e-05
6.8174e-05
2.75796e-05
2.86936e-05