/*--------------------------------*- C++ -*----------------------------------*\
| =========                 |                                                 |
| \\      /  F ield         | OpenFOAM: The Open Source CFD Toolbox           |
|  \\    /   O peration     | Version:  2206                                  |
|   \\  /    A nd           | Website:  www.openfoam.com                      |
|    \\/     M anipulation  |                                                 |
\*---------------------------------------------------------------------------*/
FoamFile
{
    version     2.0;
    format      ascii;
    arch        "LSB;label=32;scalar=64";
    class       volScalarField;
    location    "20";
    object      nut;
}
// * * * * * * * * * * * * * * * * * * * * * * * * * * * * * * * * * * * * * //

dimensions      [0 2 -1 0 0 0 0];

internalField   nonuniform List<scalar> 
28673
(
0.000209141
0.000188836
0.00022633
0.000209141
0.000209135
0.000188844
0.00022633
0.000209139
0.000209131
0.000188841
0.00022633
0.000209137
0.000209131
0.000188841
0.000226323
0.00020911
0.000209122
0.000188811
0.000226301
0.000209085
0.000209078
0.000188761
0.00022631
0.000209088
0.000209082
0.000188769
0.00022631
0.000209089
0.000209083
0.000188764
0.000226311
0.00020909
0.000209084
0.000188766
0.00022631
0.000209091
0.000209085
0.000188768
0.000226311
0.000209094
0.000209088
0.00018877
0.000226309
0.000209087
0.000209081
0.000188788
0.000226764
0.000211632
0.00021163
0.000192112
0.000209126
0.000189001
0.000209141
0.000188995
0.000209129
0.000209126
0.000209129
0.000209127
0.000188856
0.000188995
0.000209137
0.000209118
0.000209128
0.000209142
0.000209127
0.000188986
0.000209137
0.000209135
0.000209136
0.000188989
0.000188852
0.000188994
0.00020913
0.000209128
0.000209129
0.000209127
0.000188852
0.000188994
0.000209138
0.000209118
0.000209138
0.000209118
0.000209125
0.000209139
0.000209124
0.000188843
0.000188984
0.000209135
0.000209131
0.000209133
0.000188986
0.000188851
0.000188993
0.000209129
0.000209126
0.000209129
0.000209126
0.000188851
0.000188994
0.000209138
0.000209119
0.000209139
0.000209119
0.000209123
0.000209137
0.000209124
0.000188841
0.000188984
0.000209132
0.000209132
0.000209133
0.000188987
0.00018885
0.000188981
0.000209127
0.000209124
0.00020912
0.000209112
0.00018885
0.000188964
0.00020914
0.000209119
0.000209137
0.000209114
0.000209123
0.000209127
0.000209115
0.000188842
0.000188975
0.000209132
0.000209127
0.000209125
0.000188969
0.00018883
0.00018891
0.000209112
0.000209094
0.000209071
0.000209068
0.000188804
0.000188915
0.000209131
0.00020911
0.000209082
0.000209066
0.000209106
0.000209083
0.00020907
0.000188828
0.000188909
0.000209115
0.000209081
0.000209079
0.000188908
0.000188763
0.000188918
0.000209072
0.000209071
0.000209076
0.000209073
0.000188774
0.000188919
0.00020908
0.000209062
0.000209085
0.000209066
0.000209071
0.000209089
0.000209074
0.000188759
0.000188911
0.00020908
0.000209082
0.000209083
0.000188915
0.000188775
0.000188911
0.000209077
0.000209074
0.000209076
0.000209074
0.000188775
0.000188914
0.000209086
0.000209067
0.000209085
0.000209067
0.000209075
0.000209089
0.000209075
0.000188769
0.000188904
0.000209084
0.000209083
0.000209084
0.000188908
0.000188767
0.000188916
0.000209077
0.000209075
0.000209077
0.000209075
0.000188772
0.000188917
0.000209086
0.000209067
0.000209087
0.000209068
0.000209076
0.00020909
0.000209076
0.000188761
0.000188909
0.000209085
0.000209084
0.000209085
0.000188912
0.000188773
0.000188914
0.000209078
0.000209076
0.000209079
0.000209076
0.000188772
0.000188919
0.000209087
0.000209068
0.000209088
0.000209069
0.000209077
0.000209092
0.000209077
0.000188766
0.000188908
0.000209086
0.000209085
0.000209086
0.000188913
0.000188772
0.000188916
0.00020908
0.000209077
0.000209081
0.000209079
0.000188775
0.00018892
0.000209089
0.00020907
0.000209091
0.000209072
0.000209078
0.000209094
0.00020908
0.000188766
0.000188909
0.000209087
0.000209088
0.00020909
0.000188914
0.000188774
0.000188932
0.000209082
0.00020908
0.000209106
0.000209105
0.000188778
0.000188935
0.000209091
0.000209073
0.000209116
0.000209098
0.000209081
0.000209119
0.000209105
0.000188767
0.000188925
0.00020909
0.000209114
0.000209116
0.00018893
0.000188792
0.000190305
0.000209074
0.000209073
0.000210658
0.000210657
0.000188795
0.000190306
0.000209084
0.000209065
0.000210665
0.000210654
0.000209072
0.000210666
0.000210657
0.000188786
0.0001903
0.000209084
0.000210664
0.000210665
0.000190304
0.000192114
0.000211627
0.000211626
0.000192114
0.000211632
0.000211623
0.000226764
0.000226763
0.000226763
0.000211626
0.00019211
0.000211632
4.91102e-05
4.8899e-05
4.91004e-05
4.88974e-05
2.58644e-05
2.58635e-05
4.91178e-05
4.88931e-05
0.000226332
0.000226329
0.00022633
0.000226331
0.000226328
0.000226329
0.000117386
5.98206e-05
0.000220548
0.000209143
0.000117362
5.98392e-05
0.000220548
2.58618e-05
0.000117375
0.000220545
0.000209136
0.00011735
0.000220545
5.98432e-05
3.5912e-05
3.59054e-05
0.000188992
3.59172e-05
3.59105e-05
4.91116e-05
4.88975e-05
4.91018e-05
4.88965e-05
2.58629e-05
2.58625e-05
4.91155e-05
4.88935e-05
4.91072e-05
4.88924e-05
0.000226331
0.000226327
0.000226329
0.00022633
0.00022633
0.000226327
0.000226328
0.000117383
5.98237e-05
0.000220548
0.000209141
0.000117356
5.98416e-05
0.000220545
2.58609e-05
2.58602e-05
0.00011737
0.000220545
5.98277e-05
0.000209132
0.000117344
0.000220542
5.98452e-05
3.59212e-05
3.59148e-05
0.000188988
3.59283e-05
3.59218e-05
4.91186e-05
4.88971e-05
4.91075e-05
4.88962e-05
2.58625e-05
2.58624e-05
4.91241e-05
4.88929e-05
4.91131e-05
4.88921e-05
0.000226328
0.000226327
0.000226325
0.000226331
0.000226329
0.000226327
0.000226326
0.000117385
5.98254e-05
0.000220544
0.000209138
0.000117357
5.98444e-05
0.000220546
2.586e-05
2.58597e-05
0.000117373
0.000220542
5.98285e-05
0.000209132
0.000117344
0.000220543
5.98457e-05
3.59306e-05
3.59241e-05
0.000188986
3.5936e-05
3.59295e-05
4.912e-05
4.88969e-05
4.91121e-05
4.88964e-05
2.58628e-05
2.5863e-05
4.91283e-05
4.88928e-05
4.91199e-05
4.88921e-05
0.000226329
0.000226327
0.000226326
0.000226327
0.000226324
0.000226325
0.000226323
0.000117385
5.98291e-05
0.000220547
0.000209136
0.00011736
5.98432e-05
0.000220546
2.586e-05
2.58599e-05
0.000117373
0.000220543
5.9831e-05
0.00020913
0.000117348
0.000220543
5.98485e-05
3.59358e-05
3.59294e-05
0.000188983
3.59382e-05
3.59318e-05
4.9093e-05
4.88993e-05
4.90965e-05
4.89008e-05
2.58635e-05
2.58634e-05
4.91088e-05
4.8894e-05
4.9113e-05
4.88951e-05
0.000226312
0.000226321
0.000226316
0.000226299
0.000226301
0.000226298
0.0002263
0.000117329
5.98077e-05
0.000220527
0.000209095
0.000117338
5.98119e-05
0.000220512
2.58607e-05
2.58608e-05
0.000117321
0.000220531
5.98226e-05
0.000209109
0.000117327
0.000220516
5.98268e-05
3.59284e-05
3.5922e-05
0.00018893
3.59262e-05
3.59196e-05
4.90762e-05
4.89022e-05
4.90699e-05
4.89014e-05
2.58634e-05
2.58633e-05
4.90847e-05
4.88981e-05
4.90814e-05
4.88974e-05
0.000226305
0.0002263
0.000226304
0.00022631
0.000226311
0.000226308
0.000226309
0.000117298
5.97812e-05
0.000220508
0.000209088
0.000117268
5.97967e-05
0.000220512
2.58609e-05
2.58606e-05
0.000117285
0.000220506
5.97903e-05
0.000209079
0.000117256
0.000220509
5.98022e-05
3.59121e-05
3.59054e-05
0.000188917
3.59134e-05
3.59068e-05
4.90752e-05
4.8902e-05
4.90665e-05
4.89013e-05
2.58634e-05
2.58632e-05
4.90827e-05
4.8898e-05
4.90749e-05
4.88972e-05
0.000226312
0.000226309
0.00022631
0.00022631
0.000226311
0.000226309
0.000226309
0.000117298
5.97786e-05
0.000220513
0.000209089
0.00011727
5.9796e-05
0.000220513
2.58608e-05
2.58606e-05
0.000117286
0.000220511
5.97827e-05
0.000209083
0.000117258
0.000220511
5.97992e-05
3.59099e-05
3.59034e-05
0.000188911
3.59129e-05
3.59063e-05
4.9075e-05
4.8902e-05
4.90663e-05
4.89018e-05
2.58634e-05
2.58634e-05
4.90824e-05
4.8898e-05
4.90746e-05
4.88977e-05
0.000226311
0.000226309
0.00022631
0.000226311
0.000226311
0.000226309
0.00022631
0.000117298
5.97794e-05
0.000220514
0.00020909
0.00011727
5.97963e-05
0.000220514
2.58608e-05
2.58608e-05
0.000117288
0.000220512
5.97831e-05
0.000209084
0.000117259
0.000220512
5.97994e-05
3.59102e-05
3.59037e-05
0.000188912
3.59133e-05
3.59068e-05
4.90713e-05
4.89026e-05
4.90637e-05
4.89048e-05
2.5863e-05
2.5864e-05
4.90788e-05
4.88985e-05
4.9072e-05
4.89008e-05
0.000226311
0.000226309
0.00022631
0.000226311
0.000226311
0.000226309
0.00022631
0.000117298
5.97937e-05
0.000220514
0.000209091
0.000117272
5.98047e-05
0.000220514
2.58606e-05
2.58617e-05
0.000117291
0.000220512
5.97975e-05
0.000209085
0.000117264
0.000220512
5.98068e-05
3.59158e-05
3.59093e-05
0.00018891
3.59061e-05
3.58995e-05
4.90562e-05
4.89023e-05
4.90512e-05
4.89075e-05
2.58606e-05
2.58637e-05
4.90638e-05
4.88987e-05
4.90597e-05
4.89039e-05
0.000226311
0.000226309
0.00022631
0.000226311
0.000226311
0.000226309
0.00022631
0.000117294
5.98114e-05
0.000220514
0.000209093
0.00011727
5.98086e-05
0.000220515
2.58585e-05
2.58616e-05
0.000117287
0.000220513
5.98128e-05
0.000209087
0.000117263
0.000220513
5.9809e-05
3.59035e-05
3.5897e-05
0.000188912
3.58857e-05
3.58791e-05
4.90397e-05
4.88972e-05
4.90317e-05
4.89084e-05
2.58555e-05
2.58589e-05
4.90473e-05
4.8894e-05
4.90404e-05
4.89052e-05
0.000226312
0.000226309
0.00022631
0.000226317
0.000226317
0.000226315
0.000226316
0.000117289
5.9824e-05
0.000220516
0.000209099
0.000117267
5.97787e-05
0.000220516
2.58536e-05
2.58569e-05
0.000117283
0.000220514
5.98226e-05
0.000209093
0.000117261
0.000220514
5.97759e-05
3.58663e-05
3.586e-05
0.000188915
3.58046e-05
3.5798e-05
4.91309e-05
4.88885e-05
4.90136e-05
4.89284e-05
2.58424e-05
2.58546e-05
4.91348e-05
4.88849e-05
4.90205e-05
4.89253e-05
0.000226311
0.000226308
0.000226309
0.000226429
0.000226429
0.000226428
0.000226429
0.000117481
5.98156e-05
0.000220546
0.000209264
0.000117281
5.98116e-05
0.000220506
2.58403e-05
2.58525e-05
0.000117476
0.000220544
5.98127e-05
0.00020926
0.000117274
0.000220504
5.98102e-05
3.57521e-05
3.57456e-05
0.000189138
3.56214e-05
3.56167e-05
5.8703e-05
5.22081e-05
4.96796e-05
7.4166e-05
2.81502e-05
2.52309e-05
5.87052e-05
5.22067e-05
4.96807e-05
7.41824e-05
0.000230021
0.000229152
0.000229152
0.000225323
0.000229985
0.000228844
0.000228844
0.000123857
6.23149e-05
0.000221529
0.000213515
0.000119707
7.0481e-05
0.000223312
2.81485e-05
2.52279e-05
0.000123852
0.000221528
6.23153e-05
0.000213514
0.000119704
0.000223311
7.04763e-05
3.66016e-05
3.65931e-05
0.000196345
4.06748e-05
4.06711e-05
4.88972e-05
5.98405e-05
2.58645e-05
3.59134e-05
3.59105e-05
2.5865e-05
5.98377e-05
4.88957e-05
2.58659e-05
2.58649e-05
2.58636e-05
3.59125e-05
0.000188998
3.5918e-05
3.59088e-05
2.58642e-05
2.58649e-05
2.58626e-05
2.58635e-05
0.000188854
3.5924e-05
3.59123e-05
3.59167e-05
3.59067e-05
4.91107e-05
4.88976e-05
4.91011e-05
4.88967e-05
0.000117386
5.98265e-05
0.000220547
0.000209129
0.000117361
5.98423e-05
0.000220547
0.000117387
5.98256e-05
0.000220547
0.000209126
0.000117362
5.98417e-05
0.000220547
4.91033e-05
4.88969e-05
4.88978e-05
4.91105e-05
4.91036e-05
4.88963e-05
4.88971e-05
4.911e-05
0.000117362
0.00020913
5.98437e-05
0.000220547
5.98279e-05
0.000220547
0.000117386
0.000117363
0.000209127
5.98429e-05
0.000220547
5.98269e-05
0.000220547
0.000117386
3.5911e-05
3.59063e-05
0.000188996
3.59158e-05
3.59108e-05
2.58651e-05
2.58641e-05
2.58629e-05
2.58635e-05
0.000188852
3.59214e-05
3.5919e-05
3.59145e-05
3.59104e-05
2.58635e-05
2.58642e-05
0.000117389
0.000209137
5.98328e-05
0.000220546
4.91161e-05
4.88906e-05
0.000117388
0.000209119
0.000220543
5.98267e-05
4.91112e-05
4.88928e-05
4.88937e-05
4.91157e-05
0.000117364
0.000209137
5.98346e-05
0.000220545
5.98186e-05
0.000220546
0.000117387
4.91097e-05
4.88902e-05
4.88912e-05
4.91145e-05
0.000117363
0.000209118
0.000220543
5.98282e-05
0.000220543
5.98115e-05
0.000117386
4.911e-05
4.88962e-05
4.91002e-05
4.88952e-05
0.000117385
0.000220546
5.98229e-05
0.000209128
0.00011736
0.000220546
5.98389e-05
4.91094e-05
4.88956e-05
4.90998e-05
4.88939e-05
0.000117363
0.000209143
5.98409e-05
0.000220548
5.98241e-05
0.000220548
0.000117384
4.9103e-05
4.88948e-05
4.88957e-05
4.91102e-05
0.000117361
0.000209128
0.000220546
5.98403e-05
0.000220547
5.98243e-05
0.000117384
4.91023e-05
4.88934e-05
4.88943e-05
4.91088e-05
0.000188991
3.59054e-05
3.59162e-05
2.58644e-05
2.58608e-05
2.58618e-05
0.000188846
3.5908e-05
3.59201e-05
3.59029e-05
3.59141e-05
2.58634e-05
2.58643e-05
0.000117372
0.000220545
5.98188e-05
0.000209137
0.000117348
0.000220545
5.98349e-05
4.91003e-05
4.90887e-05
4.88937e-05
4.90999e-05
4.88951e-05
4.90882e-05
4.88934e-05
0.000117352
0.000209136
0.000220545
5.98442e-05
0.000220545
5.98285e-05
0.000117372
0.000117349
0.000209136
0.000220545
5.98363e-05
0.000220545
5.98201e-05
0.000117371
4.90924e-05
4.88933e-05
4.88942e-05
4.90996e-05
4.9092e-05
4.8893e-05
4.88939e-05
4.90992e-05
2.58646e-05
2.58636e-05
2.58637e-05
2.58627e-05
0.000188849
3.59226e-05
3.59162e-05
3.59156e-05
3.59091e-05
2.58629e-05
2.58636e-05
2.58619e-05
2.58626e-05
2.58643e-05
2.58637e-05
2.58626e-05
2.5862e-05
3.59231e-05
3.59113e-05
0.000188994
3.59298e-05
3.59185e-05
2.58635e-05
2.58639e-05
2.58617e-05
2.58621e-05
0.000188851
3.59342e-05
3.59236e-05
3.59286e-05
3.59174e-05
4.91113e-05
4.88967e-05
4.91027e-05
4.88959e-05
0.000117386
5.98293e-05
0.000220546
0.00020913
0.000117362
5.98447e-05
0.000220546
0.000117387
5.9828e-05
0.000220545
0.000209128
0.000117363
5.98435e-05
0.000220544
4.91053e-05
4.88964e-05
4.8897e-05
4.91153e-05
4.91052e-05
4.88957e-05
4.88964e-05
4.91157e-05
0.000117362
0.00020913
5.98452e-05
0.000220546
5.98301e-05
0.000220546
0.000117387
0.000117363
0.000209127
5.98442e-05
0.000220544
5.98285e-05
0.000220544
0.000117388
3.59202e-05
3.59177e-05
0.000188994
3.59263e-05
3.59239e-05
2.58636e-05
2.58631e-05
2.58624e-05
2.58627e-05
0.000188851
3.59301e-05
3.59272e-05
3.59248e-05
3.59218e-05
2.5863e-05
2.58633e-05
0.000117386
5.98203e-05
0.000220545
0.000209138
0.000117364
5.98362e-05
0.000220545
4.91146e-05
4.88907e-05
4.91077e-05
4.88898e-05
0.000117386
0.000220543
5.98128e-05
0.000209118
0.000117363
0.000220543
5.98296e-05
4.911e-05
4.88922e-05
4.8893e-05
4.91198e-05
0.000117363
0.000209138
5.98369e-05
0.000220545
5.98218e-05
0.000220545
0.000117387
4.91091e-05
4.88895e-05
4.88903e-05
4.91189e-05
0.000117362
0.000209118
0.000220543
5.98305e-05
0.000220543
5.98142e-05
0.000117387
4.91112e-05
4.88953e-05
4.91029e-05
4.88945e-05
0.000117384
0.000220544
5.98257e-05
0.000209125
0.000117361
0.000220543
5.98412e-05
4.91101e-05
4.88939e-05
4.91015e-05
4.88931e-05
0.00011736
0.00020914
5.98423e-05
0.000220544
5.98262e-05
0.000220545
0.000117384
4.91048e-05
4.88943e-05
4.8895e-05
4.91149e-05
0.000117361
0.000209124
0.000220542
5.98417e-05
0.000220542
5.98264e-05
0.000117385
4.91039e-05
4.88929e-05
4.88936e-05
4.91145e-05
3.59056e-05
3.59191e-05
0.000188984
3.59115e-05
3.59264e-05
2.58634e-05
2.58628e-05
2.58599e-05
2.58604e-05
0.000188841
3.59157e-05
3.59315e-05
3.59095e-05
3.59253e-05
2.58624e-05
2.58629e-05
0.000117372
0.000220542
5.98215e-05
0.000209135
0.000117348
0.000220542
5.98374e-05
4.91007e-05
4.88937e-05
4.90914e-05
4.88929e-05
4.91005e-05
4.88934e-05
4.90911e-05
4.88926e-05
0.000117347
0.000209132
0.000220542
5.98453e-05
0.000220542
5.98304e-05
0.000117372
0.000117348
0.000209133
0.000220541
5.9838e-05
0.000220541
5.98224e-05
0.000117373
4.90938e-05
4.88926e-05
4.88934e-05
4.91054e-05
4.90936e-05
4.88924e-05
4.88931e-05
4.91052e-05
2.5863e-05
2.58624e-05
2.5862e-05
2.58615e-05
0.000188845
3.59326e-05
3.59261e-05
3.59269e-05
3.59205e-05
2.58622e-05
2.58626e-05
2.58612e-05
2.58616e-05
2.58637e-05
2.58634e-05
2.58618e-05
2.58615e-05
3.59326e-05
3.59222e-05
0.000188993
3.59376e-05
3.59276e-05
2.58635e-05
2.58636e-05
2.58615e-05
2.58617e-05
0.000188851
3.59398e-05
3.59305e-05
3.59358e-05
3.5926e-05
4.91192e-05
4.88963e-05
4.91095e-05
4.88957e-05
0.000117389
5.98307e-05
0.000220546
0.000209129
0.000117364
5.98471e-05
0.000220546
0.00011739
5.98296e-05
0.000220545
0.000209126
0.000117365
5.98464e-05
0.000220545
4.91122e-05
4.88962e-05
4.88968e-05
4.91207e-05
4.91128e-05
4.88957e-05
4.88962e-05
4.91213e-05
0.000117366
0.000209129
5.98495e-05
0.000220546
5.9833e-05
0.000220546
0.000117391
0.000117367
0.000209127
5.98485e-05
0.000220546
5.9832e-05
0.000220545
0.000117392
3.59284e-05
3.5925e-05
0.000188994
3.5933e-05
3.59299e-05
2.58632e-05
2.5863e-05
2.58625e-05
2.58626e-05
0.000188851
3.59348e-05
3.59315e-05
3.59311e-05
3.59274e-05
2.58631e-05
2.58633e-05
0.000117389
5.98223e-05
0.000220545
0.000209138
0.000117365
5.98379e-05
0.000220545
4.91232e-05
4.88901e-05
4.91138e-05
4.88893e-05
0.000117389
0.000220541
5.98151e-05
0.000209119
0.000117364
0.000220541
5.98315e-05
4.91187e-05
4.8892e-05
4.88926e-05
4.91274e-05
0.000117366
0.000209138
5.98404e-05
0.000220548
5.98238e-05
0.000220547
0.000117392
4.91178e-05
4.88893e-05
4.88899e-05
4.91262e-05
0.000117366
0.000209119
0.000220543
5.98332e-05
0.000220542
5.98162e-05
0.000117391
4.91181e-05
4.88949e-05
4.91086e-05
4.88942e-05
0.000117388
0.000220542
5.98271e-05
0.000209123
0.000117363
0.000220543
5.98436e-05
4.9118e-05
4.88934e-05
4.91083e-05
4.88927e-05
0.000117362
0.000209138
5.98464e-05
0.000220547
5.98295e-05
0.000220546
0.000117387
4.91117e-05
4.88942e-05
4.88948e-05
4.91201e-05
0.000117366
0.000209124
0.000220546
5.98459e-05
0.000220545
5.98293e-05
0.00011739
4.91116e-05
4.88926e-05
4.88932e-05
4.91199e-05
3.59136e-05
3.59301e-05
0.000188983
3.59192e-05
3.59354e-05
2.58626e-05
2.58623e-05
2.58597e-05
2.586e-05
0.00018884
3.59218e-05
3.59382e-05
3.5917e-05
3.59337e-05
2.58623e-05
2.58625e-05
0.000117376
0.000220541
5.98232e-05
0.000209132
0.00011735
0.000220541
5.98398e-05
4.91088e-05
4.88932e-05
4.90984e-05
4.88925e-05
4.91088e-05
4.88929e-05
4.90983e-05
4.88923e-05
0.000117349
0.000209132
0.000220543
5.98473e-05
0.000220543
5.98311e-05
0.000117375
0.000117354
0.000209133
0.000220542
5.98421e-05
0.000220541
5.98254e-05
0.000117377
4.91015e-05
4.88923e-05
4.8893e-05
4.91107e-05
4.91015e-05
4.88922e-05
4.88928e-05
4.91105e-05
2.58624e-05
2.58621e-05
2.58614e-05
2.58611e-05
0.000188844
3.59383e-05
3.59319e-05
3.59341e-05
3.59277e-05
2.58622e-05
2.58623e-05
2.58612e-05
2.58614e-05
2.58637e-05
2.58638e-05
2.58617e-05
2.58616e-05
3.59377e-05
3.59286e-05
0.000188992
3.59397e-05
3.59328e-05
2.58643e-05
2.58642e-05
2.58622e-05
2.58619e-05
0.000188848
3.59346e-05
3.59299e-05
3.59362e-05
3.59304e-05
4.91207e-05
4.88964e-05
4.91143e-05
4.88966e-05
0.000117384
5.98353e-05
0.000220546
0.000209125
0.000117363
5.98495e-05
0.000220545
0.000117386
5.98335e-05
0.000220548
0.000209122
0.000117364
5.98454e-05
0.000220547
4.91116e-05
4.88979e-05
4.88972e-05
4.91099e-05
4.91123e-05
4.88988e-05
4.88975e-05
4.91107e-05
0.000117355
0.000209124
5.98396e-05
0.00022054
5.98333e-05
0.000220544
0.000117371
0.000117356
0.000209119
5.9832e-05
0.00022054
5.98277e-05
0.000220545
0.000117372
3.59323e-05
3.59286e-05
0.000188987
3.59326e-05
3.59296e-05
2.58635e-05
2.58636e-05
2.58633e-05
2.58633e-05
0.00018884
3.59264e-05
3.59233e-05
3.59287e-05
3.59252e-05
2.5864e-05
2.58639e-05
0.00011739
5.98263e-05
0.000220549
0.000209139
0.000117369
5.98423e-05
0.000220548
4.91272e-05
4.88899e-05
4.91204e-05
4.88893e-05
0.00011739
0.000220544
5.9818e-05
0.000209118
0.000117368
0.000220544
5.98346e-05
4.91219e-05
4.88929e-05
4.88928e-05
4.91242e-05
0.000117362
0.000209139
5.98379e-05
0.000220545
5.98274e-05
0.000220548
0.00011738
4.91208e-05
4.889e-05
4.889e-05
4.91232e-05
0.000117361
0.000209117
0.000220541
5.98301e-05
0.000220543
5.98187e-05
0.00011738
4.91197e-05
4.8895e-05
4.91132e-05
4.88952e-05
0.000117382
0.000220545
5.98314e-05
0.000209121
0.000117362
0.000220545
5.98458e-05
4.91193e-05
4.88932e-05
4.91128e-05
4.88929e-05
0.000117356
0.000209133
5.98297e-05
0.00022054
5.9825e-05
0.000220544
0.00011737
4.91113e-05
4.88974e-05
4.88962e-05
4.91098e-05
0.000117354
0.00020912
0.000220539
5.98362e-05
0.000220543
5.98295e-05
0.00011737
4.91109e-05
4.88942e-05
4.88936e-05
4.91094e-05
3.59192e-05
3.59362e-05
0.000188982
3.59233e-05
3.59396e-05
2.58625e-05
2.58625e-05
2.58604e-05
2.58602e-05
0.000188839
3.59204e-05
3.59362e-05
3.59201e-05
3.59368e-05
2.5863e-05
2.58628e-05
0.000117371
0.000220543
5.98275e-05
0.000209131
0.000117349
0.000220544
5.98419e-05
4.91104e-05
4.88929e-05
4.9103e-05
4.88922e-05
4.911e-05
4.88928e-05
4.91027e-05
4.88925e-05
0.000117345
0.000209129
0.000220539
5.98428e-05
0.000220542
5.98331e-05
0.000117359
0.000117342
0.000209129
0.000220539
5.9832e-05
0.000220542
5.98253e-05
0.000117359
4.91012e-05
4.88928e-05
4.88927e-05
4.91006e-05
4.91008e-05
4.88939e-05
4.88932e-05
4.91002e-05
2.58624e-05
2.58625e-05
2.58614e-05
2.58615e-05
0.000188839
3.59331e-05
3.59266e-05
3.59346e-05
3.59283e-05
2.5863e-05
2.58628e-05
2.5862e-05
2.58619e-05
2.58646e-05
2.58645e-05
2.58625e-05
2.58626e-05
3.59304e-05
3.59256e-05
0.000188943
3.59278e-05
3.59234e-05
2.58644e-05
2.58646e-05
2.58625e-05
2.58628e-05
0.000188781
3.59176e-05
3.59145e-05
3.59231e-05
3.5919e-05
4.90936e-05
4.89004e-05
4.90989e-05
4.89011e-05
0.00011733
5.98206e-05
0.000220531
0.000209093
0.000117339
5.98224e-05
0.000220514
0.00011733
5.98123e-05
0.000220527
0.000209079
0.00011734
5.98142e-05
0.00022051
4.90817e-05
4.89015e-05
4.89017e-05
4.90804e-05
4.90823e-05
4.89012e-05
4.89017e-05
4.90812e-05
0.000117287
0.000209079
5.98083e-05
0.000220505
5.98032e-05
0.000220507
0.000117295
0.000117287
0.000209071
5.98027e-05
0.000220504
5.97951e-05
0.000220504
0.000117296
3.59218e-05
3.59185e-05
0.000188921
3.59166e-05
3.59133e-05
2.58643e-05
2.5864e-05
2.58633e-05
2.58636e-05
0.000188768
3.59087e-05
3.5905e-05
3.59119e-05
3.59087e-05
2.58639e-05
2.58643e-05
0.000117361
5.98201e-05
0.00022054
0.000209114
0.000117351
5.98233e-05
0.000220528
4.91076e-05
4.8891e-05
4.91135e-05
4.88922e-05
0.000117361
0.000220537
5.98114e-05
0.000209098
0.00011735
0.000220527
5.98156e-05
4.90975e-05
4.88972e-05
4.88967e-05
4.90923e-05
0.00011732
0.000209093
5.98057e-05
0.000220504
5.98037e-05
0.000220511
0.000117304
4.90961e-05
4.88947e-05
4.8894e-05
4.90909e-05
0.00011732
0.000209078
0.000220502
5.97977e-05
0.000220509
5.97951e-05
0.000117303
4.90927e-05
4.8899e-05
4.9098e-05
4.88997e-05
0.000117329
0.00022053
5.9817e-05
0.000209087
0.000117338
0.000220512
5.98188e-05
4.90923e-05
4.88955e-05
4.90975e-05
4.88974e-05
0.000117288
0.000209086
5.98001e-05
0.000220505
5.97924e-05
0.000220506
0.000117295
4.90814e-05
4.88998e-05
4.89004e-05
4.90804e-05
0.000117287
0.000209075
0.000220504
5.98048e-05
0.000220505
5.97993e-05
0.000117294
4.9081e-05
4.8898e-05
4.88983e-05
4.90799e-05
3.59156e-05
3.5932e-05
0.000188948
3.5914e-05
3.59303e-05
2.58633e-05
2.58633e-05
2.58607e-05
2.5861e-05
0.000188788
3.59051e-05
3.59217e-05
3.59089e-05
3.5926e-05
2.58633e-05
2.58635e-05
0.000117319
0.000220529
5.98127e-05
0.000209096
0.000117327
0.000220512
5.98149e-05
4.9084e-05
4.88938e-05
4.90881e-05
4.88954e-05
4.90837e-05
4.88951e-05
4.90877e-05
4.88969e-05
0.00011728
0.000209091
0.000220504
5.981e-05
0.000220508
5.9807e-05
0.000117283
0.000117277
0.000209085
0.000220503
5.98008e-05
0.000220505
5.97953e-05
0.000117281
4.9072e-05
4.88976e-05
4.88971e-05
4.90705e-05
4.90717e-05
4.88976e-05
4.88978e-05
4.90701e-05
2.58633e-05
2.58631e-05
2.58623e-05
2.58622e-05
0.000188771
3.59163e-05
3.59096e-05
3.59214e-05
3.59149e-05
2.58631e-05
2.58633e-05
2.58621e-05
2.58624e-05
2.58646e-05
2.58643e-05
2.58627e-05
2.58624e-05
3.59139e-05
3.59095e-05
0.000188913
3.59148e-05
3.59076e-05
2.58643e-05
2.58645e-05
2.58624e-05
2.58626e-05
0.000188773
3.59142e-05
3.59065e-05
3.5912e-05
3.59045e-05
4.9077e-05
4.89017e-05
4.90723e-05
4.89011e-05
0.000117297
5.97916e-05
0.000220508
0.000209074
0.000117271
5.98033e-05
0.000220511
0.000117299
5.97863e-05
0.000220508
0.000209073
0.000117272
5.97995e-05
0.000220511
4.90686e-05
4.89013e-05
4.89019e-05
4.90754e-05
4.90694e-05
4.8901e-05
4.89016e-05
4.90761e-05
0.000117273
0.000209075
5.98021e-05
0.000220513
5.97881e-05
0.000220512
0.000117298
0.000117275
0.000209073
5.97988e-05
0.000220513
5.97841e-05
0.000220512
0.0001173
3.59057e-05
3.59013e-05
0.000188921
3.59077e-05
3.59037e-05
2.58641e-05
2.58639e-05
2.58632e-05
2.58635e-05
0.000188778
3.59076e-05
3.59038e-05
3.59051e-05
3.59007e-05
2.58638e-05
2.58641e-05
0.000117298
5.97876e-05
0.000220504
0.000209081
0.000117273
5.97967e-05
0.000220507
4.90831e-05
4.88954e-05
4.90816e-05
4.88948e-05
0.000117297
0.000220502
5.97786e-05
0.000209063
0.000117272
0.000220504
5.97882e-05
4.90776e-05
4.88973e-05
4.88979e-05
4.9083e-05
0.000117275
0.000209083
5.97941e-05
0.000220512
5.97809e-05
0.00022051
0.0001173
4.9076e-05
4.88946e-05
4.88953e-05
4.90813e-05
0.000117273
0.000209064
0.000220509
5.97854e-05
0.000220507
5.97715e-05
0.000117299
4.90761e-05
4.89004e-05
4.90715e-05
4.88997e-05
0.000117296
0.000220507
5.97879e-05
0.000209073
0.00011727
0.00022051
5.98e-05
4.90757e-05
4.88986e-05
4.9071e-05
4.88979e-05
0.000117274
0.000209089
5.97961e-05
0.000220513
5.97809e-05
0.000220514
0.000117297
4.90684e-05
4.88996e-05
4.89002e-05
4.90752e-05
0.000117273
0.000209074
0.000220513
5.97987e-05
0.000220512
5.97845e-05
0.000117297
4.90681e-05
4.88979e-05
4.88985e-05
4.90748e-05
3.59001e-05
3.59167e-05
0.000188906
3.58975e-05
3.59147e-05
2.58635e-05
2.58632e-05
2.58606e-05
2.58609e-05
0.000188766
3.58961e-05
3.59132e-05
3.58937e-05
3.59115e-05
2.58632e-05
2.58634e-05
0.000117284
0.000220506
5.97838e-05
0.000209082
0.000117257
0.000220509
5.97959e-05
4.90661e-05
4.88982e-05
4.90605e-05
4.88977e-05
4.90657e-05
4.88981e-05
4.90601e-05
4.88975e-05
0.000117261
0.000209081
0.000220511
5.97998e-05
0.000220511
5.97864e-05
0.000117285
0.00011726
0.000209083
0.000220511
5.97947e-05
0.00022051
5.97803e-05
0.000117284
4.90576e-05
4.88976e-05
4.88982e-05
4.9065e-05
4.90573e-05
4.88974e-05
4.8898e-05
4.9065e-05
2.58632e-05
2.5863e-05
2.58623e-05
2.5862e-05
0.000188775
3.59129e-05
3.59063e-05
3.59106e-05
3.5904e-05
2.5863e-05
2.58632e-05
2.5862e-05
2.58622e-05
2.58645e-05
2.58643e-05
2.58626e-05
2.58624e-05
3.59117e-05
3.59039e-05
0.000188916
3.59142e-05
3.59064e-05
2.58643e-05
2.58645e-05
2.58624e-05
2.58626e-05
0.000188772
3.59142e-05
3.59064e-05
3.59117e-05
3.59039e-05
4.9076e-05
4.89016e-05
4.90689e-05
4.8901e-05
0.000117298
5.97872e-05
0.000220514
0.000209077
0.000117274
5.98018e-05
0.000220513
0.0001173
5.97837e-05
0.000220513
0.000209074
0.000117275
5.97988e-05
0.000220513
4.9068e-05
4.89014e-05
4.89018e-05
4.90752e-05
4.90688e-05
4.89011e-05
4.89016e-05
4.9076e-05
0.000117274
0.000209077
5.98018e-05
0.000220513
5.97871e-05
0.000220513
0.000117298
0.000117275
0.000209074
5.97987e-05
0.000220512
5.97837e-05
0.000220512
0.000117299
3.59051e-05
3.59008e-05
0.000188915
3.59077e-05
3.59039e-05
2.58641e-05
2.58638e-05
2.58633e-05
2.58634e-05
0.000188771
3.59077e-05
3.59039e-05
3.59051e-05
3.59009e-05
2.58639e-05
2.58641e-05
0.000117301
5.97791e-05
0.000220513
0.000209086
0.000117276
5.97935e-05
0.000220513
4.9081e-05
4.88952e-05
4.90748e-05
4.88946e-05
0.0001173
0.00022051
5.97695e-05
0.000209067
0.000117275
0.00022051
5.97848e-05
4.90763e-05
4.88973e-05
4.88978e-05
4.90827e-05
0.000117276
0.000209086
5.97934e-05
0.000220513
5.97789e-05
0.000220513
0.0001173
4.90746e-05
4.88946e-05
4.88952e-05
4.9081e-05
0.000117275
0.000209067
0.00022051
5.97847e-05
0.00022051
5.97692e-05
0.000117299
4.9075e-05
4.89002e-05
4.90679e-05
4.88996e-05
0.000117298
0.000220513
5.97836e-05
0.000209075
0.000117273
0.000220513
5.97985e-05
4.90746e-05
4.88984e-05
4.90675e-05
4.88978e-05
0.000117275
0.000209089
5.9796e-05
0.000220514
5.97806e-05
0.000220513
0.000117297
4.90678e-05
4.88996e-05
4.89002e-05
4.9075e-05
0.000117273
0.000209075
0.000220512
5.97984e-05
0.000220512
5.97836e-05
0.000117297
4.90674e-05
4.88979e-05
4.88984e-05
4.90746e-05
3.58929e-05
3.59106e-05
0.000188909
3.5896e-05
3.5913e-05
2.58634e-05
2.58632e-05
2.58606e-05
2.58609e-05
0.000188765
3.5896e-05
3.5913e-05
3.58928e-05
3.59105e-05
2.58632e-05
2.58634e-05
0.000117284
0.000220511
5.97794e-05
0.000209084
0.00011726
0.000220511
5.97945e-05
4.90658e-05
4.88982e-05
4.90583e-05
4.88976e-05
4.90649e-05
4.8898e-05
4.90569e-05
4.88974e-05
0.000117264
0.000209083
0.000220511
5.97991e-05
0.000220511
5.97843e-05
0.000117287
0.00011726
0.000209084
0.000220511
5.97944e-05
0.00022051
5.97794e-05
0.000117284
4.90591e-05
4.88976e-05
4.88981e-05
4.90677e-05
4.90568e-05
4.88975e-05
4.88979e-05
4.90649e-05
2.58632e-05
2.5863e-05
2.58622e-05
2.5862e-05
0.000188767
3.5913e-05
3.59064e-05
3.59103e-05
3.59038e-05
2.5863e-05
2.58632e-05
2.5862e-05
2.58622e-05
2.58645e-05
2.58645e-05
2.58626e-05
2.58626e-05
3.59119e-05
3.59042e-05
0.000188912
3.59146e-05
3.59068e-05
2.5865e-05
2.58645e-05
2.58631e-05
2.58626e-05
0.000188771
3.59151e-05
3.59073e-05
3.59138e-05
3.5906e-05
4.90757e-05
4.89016e-05
4.90686e-05
4.89015e-05
0.000117298
5.97878e-05
0.000220514
0.000209077
0.000117273
5.98021e-05
0.000220513
0.0001173
5.97844e-05
0.000220513
0.000209075
0.000117275
5.97991e-05
0.000220513
4.9067e-05
4.89031e-05
4.89018e-05
4.90736e-05
4.90678e-05
4.89029e-05
4.89015e-05
4.90744e-05
0.000117274
0.000209078
5.98042e-05
0.000220514
5.97916e-05
0.000220514
0.000117298
0.000117276
0.000209075
5.98012e-05
0.000220513
5.97882e-05
0.000220514
0.000117299
3.59054e-05
3.59012e-05
0.000188919
3.59081e-05
3.59043e-05
2.58641e-05
2.5864e-05
2.5864e-05
2.58634e-05
0.000188776
3.59086e-05
3.5906e-05
3.59073e-05
3.5903e-05
2.58647e-05
2.58641e-05
0.0001173
5.97795e-05
0.000220513
0.000209086
0.000117276
5.97937e-05
0.000220513
4.90808e-05
4.88951e-05
4.90745e-05
4.8895e-05
0.000117299
0.00022051
5.97698e-05
0.000209067
0.000117275
0.00022051
5.9785e-05
4.90753e-05
4.88991e-05
4.88978e-05
4.90811e-05
0.000117276
0.000209087
5.97959e-05
0.000220514
5.97833e-05
0.000220514
0.0001173
4.90736e-05
4.88964e-05
4.88952e-05
4.90794e-05
0.000117275
0.000209068
0.00022051
5.97871e-05
0.000220511
5.97736e-05
0.000117299
4.90747e-05
4.89002e-05
4.90677e-05
4.89e-05
0.000117297
0.000220513
5.97842e-05
0.000209076
0.000117273
0.000220513
5.97988e-05
4.90743e-05
4.88984e-05
4.90673e-05
4.88983e-05
0.000117274
0.00020909
5.97985e-05
0.000220514