/*--------------------------------*- C++ -*----------------------------------*\
| =========                 |                                                 |
| \\      /  F ield         | OpenFOAM: The Open Source CFD Toolbox           |
|  \\    /   O peration     | Version:  2206                                  |
|   \\  /    A nd           | Website:  www.openfoam.com                      |
|    \\/     M anipulation  |                                                 |
\*---------------------------------------------------------------------------*/
FoamFile
{
    version     2.0;
    format      ascii;
    arch        "LSB;label=32;scalar=64";
    class       surfaceScalarField;
    location    "20";
    object      phi;
}
// * * * * * * * * * * * * * * * * * * * * * * * * * * * * * * * * * * * * * //

dimensions      [0 3 -1 0 0 0 0];

oriented        oriented;

internalField   nonuniform List<scalar> 
83378
(
-0.00107755
-1.18992e-06
-1.33977e-09
2.18073e-09
0.00107755
-2.40988e-07
1.19213e-06
2.4011e-07
8.71871e-07
-2.35941e-07
-8.71727e-07
2.33667e-07
1.21797e-06
1.18467e-06
-2.22539e-07
-2.27781e-07
0.000262942
1.4529e-09
1.406e-09
-0.00107716
-1.27022e-09
-1.40774e-09
0.00107716
-0.00107755
-1.18987e-06
-1.55155e-09
2.07906e-09
0.00107755
-2.40923e-07
1.19216e-06
2.40168e-07
8.7193e-07
-2.35848e-07
-8.71662e-07
2.33756e-07
-0.00107721
-1.18454e-06
-1.51428e-09
2.19384e-09
0.00107721
-2.40953e-07
1.18675e-06
2.4014e-07
8.71755e-07
-2.38497e-07
-8.71537e-07
2.36418e-07
-0.000264894
1.21794e-06
1.18463e-06
-2.22483e-07
-2.27732e-07
0.000262942
1.59387e-09
1.72127e-09
-0.00107716
-1.43276e-09
-1.46136e-09
0.00107716
-0.00107754
-1.18981e-06
-1.65323e-09
2.05539e-09
0.00107754
-2.40854e-07
1.19221e-06
2.40232e-07
8.72004e-07
-2.35759e-07
-8.71613e-07
2.33859e-07
-0.00107721
-1.18447e-06
-1.7566e-09
2.01114e-09
0.00107721
-2.40871e-07
1.18683e-06
2.40227e-07
8.71843e-07
-2.38409e-07
-8.71491e-07
2.36534e-07
-0.000264894
1.21788e-06
1.18458e-06
-2.22429e-07
-2.27668e-07
0.000262941
1.86859e-09
2.34941e-09
-0.00107716
-1.80408e-09
-1.47152e-09
0.00107716
-0.00107754
-1.18977e-06
-1.57181e-09
2.28974e-09
0.00107754
-2.40858e-07
1.1922e-06
2.40164e-07
8.72104e-07
-2.357e-07
-8.71509e-07
2.33889e-07
-0.0010772
-1.18439e-06
-2.20077e-09
1.63538e-09
0.0010772
-2.40785e-07
1.18699e-06
2.40401e-07
8.72027e-07
-2.38323e-07
-8.71364e-07
2.36698e-07
-0.000264893
1.21771e-06
1.18447e-06
-2.22277e-07
-2.27473e-07
0.000262941
-1.34437e-11
-7.09878e-12
-0.00107716
-6.92101e-10
-6.80497e-10
0.00107716
-0.00107754
-1.19011e-06
-4.12724e-10
2.32357e-09
0.00107754
-2.41211e-07
1.19208e-06
2.40074e-07
8.71576e-07
-2.36647e-07
-8.72261e-07
2.33206e-07
-0.0010772
-1.18492e-06
-4.38543e-12
2.78364e-09
0.0010772
-2.41391e-07
1.18642e-06
2.39726e-07
8.71357e-07
-2.39287e-07
-8.7212e-07
2.35707e-07
-0.000264893
1.2183e-06
1.18503e-06
-2.23034e-07
-2.28246e-07
0.000262941
1.33242e-09
1.17485e-09
-0.00107716
-1.16641e-09
-1.37378e-09
0.00107716
-0.00107755
-1.18993e-06
-1.4232e-09
2.10902e-09
0.00107755
-2.41006e-07
1.19218e-06
2.40184e-07
8.71951e-07
-2.36036e-07
-8.71767e-07
2.3371e-07
-0.00107721
-1.1846e-06
-1.31495e-09
2.27302e-09
0.00107721
-2.40991e-07
1.18679e-06
2.40187e-07
8.71736e-07
-2.38758e-07
-8.71704e-07
2.36338e-07
-0.000264894
1.218e-06
1.18467e-06
-2.22533e-07
-2.27802e-07
0.000262942
1.32992e-09
1.38162e-09
-0.00107716
-1.29557e-09
-1.34274e-09
0.00107716
-0.00107755
-1.18993e-06
-1.42555e-09
2.11591e-09
0.00107755
-2.41008e-07
1.19217e-06
2.40167e-07
8.71918e-07
-2.36015e-07
-8.71778e-07
2.33686e-07
-0.00107721
-1.18458e-06
-1.43252e-09
2.14234e-09
0.00107721
-2.40972e-07
1.18679e-06
2.40172e-07
8.71747e-07
-2.38652e-07
-8.71656e-07
2.36366e-07
-0.000264894
1.21799e-06
1.18469e-06
-2.22554e-07
-2.27796e-07
0.000262942
1.20862e-09
1.29115e-09
-0.00107716
-1.24027e-09
-1.25578e-09
0.00107716
-0.00107755
-1.18982e-06
-1.31718e-09
1.98704e-09
0.00107755
-2.40873e-07
1.19208e-06
2.40047e-07
8.715e-07
-2.35426e-07
-8.71443e-07
2.32862e-07
-0.00107721
-1.18447e-06
-1.33157e-09
1.99934e-09
0.00107721
-2.4084e-07
1.18671e-06
2.40023e-07
8.71327e-07
-2.38061e-07
-8.71319e-07
2.35538e-07
-0.000264894
1.21788e-06
1.18459e-06
-2.22388e-07
-2.27626e-07
0.000262942
-2.30629e-10
-1.64574e-10
-0.00107716
-9.72598e-10
-9.62806e-10
0.00107716
-0.00107755
-1.18898e-06
1.45568e-10
1.96426e-09
0.00107755
-2.39799e-07
1.1909e-06
2.38317e-07
8.68042e-07
-2.30228e-07
-8.68649e-07
2.26932e-07
-0.00107721
-1.18363e-06
1.30988e-10
1.97433e-09
0.00107721
-2.39769e-07
1.18552e-06
2.38293e-07
8.67874e-07
-2.32861e-07
-8.68526e-07
2.29609e-07
-0.000264895
1.21704e-06
1.18374e-06
-2.20784e-07
-2.26024e-07
0.000262941
-4.53909e-09
-4.43102e-09
-0.00107716
-2.92189e-10
-2.57119e-10
0.00107717
-0.00107755
-1.18891e-06
4.43093e-09
4.91255e-09
0.00107754
-2.38317e-07
1.19001e-06
2.36929e-07
8.71011e-07
-2.3285e-07
-8.72985e-07
2.28417e-07
-0.00107721
-1.18355e-06
4.41249e-09
4.90341e-09
0.0010772
-2.38321e-07
1.18464e-06
2.36944e-07
8.70818e-07
-2.35497e-07
-8.72792e-07
2.3109e-07
-0.000264896
1.21697e-06
1.18367e-06
-2.1948e-07
-2.24719e-07
0.00026294
-6.27402e-11
6.04445e-11
-0.00107716
-3.34103e-09
-8.34342e-09
0.00107717
-0.00107755
-1.1844e-06
4.89353e-09
4.28003e-10
0.00107756
-2.32327e-07
1.1862e-06
2.3351e-07
8.6235e-07
-2.20606e-07
-8.65409e-07
2.12797e-07
-0.00107722
-1.17637e-06
-1.24425e-10
5.29843e-09
0.00107723
-2.32256e-07
1.17818e-06
2.30819e-07
8.59523e-07
-2.20553e-07
-8.62557e-07
2.15494e-07
-0.000264907
1.21507e-06
1.17913e-06
-2.07987e-07
-2.13181e-07
0.000262934
8.17157e-07
8.24013e-07
-0.00107702
-7.00825e-07
-6.90788e-07
0.00107677
-0.00107782
-1.09082e-06
-8.18293e-07
-3.61067e-07
0.00107812
-1.52273e-07
1.34479e-06
3.25957e-07
1.00713e-06
-1.17086e-07
-7.57565e-07
3.1277e-07
-0.00107749
-1.08268e-06
-8.28921e-07
-3.71882e-07
0.00107782
-1.52119e-07
1.33956e-06
3.28803e-07
1.0042e-06
-1.22479e-07
-7.54692e-07
3.15477e-07
-0.000264984
1.12415e-06
1.08284e-06
-1.20812e-07
-1.23322e-07
0.000263021
4.93198e-06
4.92538e-06
-0.00106314
-1.05137e-05
-1.04173e-05
0.000258063
0.000261435
0.000260519
0.000260519
3.99874e-06
6.27188e-06
6.56519e-06
4.00244e-06
6.27263e-06
6.56851e-06
-0.000266569
5.09732e-06
-4.92277e-06
5.69169e-06
-3.23593e-06
0.000263939
-0.000266546
-4.92496e-06
5.10252e-06
-3.24379e-06
5.68875e-06
0.000263923
-0.000265415
-5.09436e-06
-5.10532e-06
5.71149e-06
5.69969e-06
0.000264204
1.23086e-06
0.0010772
-1.22869e-06
2.48211e-07
-2.49155e-07
2.36318e-07
-2.38764e-07
-1.19212e-06
0.000264939
-0.000262968
2.2495e-07
2.27233e-07
-1.18991e-06
2.40104e-07
-2.40985e-07
2.33637e-07
-2.3597e-07
-1.22544e-06
-1.18952e-06
0.00026491
-0.000262947
2.22242e-07
2.29947e-07
2.35088e-09
0.00107677
-2.46393e-07
2.45417e-07
8.71778e-07
-2.35927e-07
-8.717e-07
2.33555e-07
-1.22869e-06
-1.15302e-09
2.28468e-09
0.0010772
-2.49156e-07
1.23086e-06
2.48219e-07
8.77331e-07
-2.38736e-07
-8.7727e-07
2.36351e-07
0.00107677
-1.45938e-09
-0.00107677
2.31952e-09
-1.22327e-06
2.45454e-07
-2.46363e-07
-8.71618e-07
2.33656e-07
-2.35818e-07
8.71854e-07
1.23088e-06
0.0010772
-1.34208e-09
-0.0010772
2.16643e-09
-1.22865e-06
2.48271e-07
-2.49089e-07
-8.77209e-07
2.36417e-07
-2.38649e-07
8.7738e-07
-2.22754e-07
-2.25047e-07
0.000262968
-1.19215e-06
0.000264938
-0.000262968
2.25005e-07
2.27284e-07
0.00107781
-1.37803e-09
-0.00107781
2.0984e-09
-1.18728e-06
2.42931e-07
-2.43718e-07
-8.74402e-07
2.36451e-07
-2.38655e-07
8.74644e-07
1.2255e-06
0.00107688
-1.25271e-09
-0.00107688
2.29378e-09
-1.22333e-06
2.48204e-07
-2.49125e-07
-8.74375e-07
2.36361e-07
-2.38617e-07
8.74518e-07
-1.24055e-09
2.32898e-09
0.00107668
-2.43614e-07
1.22013e-06
2.42696e-07
8.71798e-07
-2.35932e-07
2.3355e-07
-8.71739e-07
-1.54221e-09
-0.00107755
2.07302e-09
-1.18988e-06
2.40161e-07
-2.40922e-07
-8.71664e-07
2.33737e-07
8.71922e-07
-2.35855e-07
1.22015e-06
0.00107668
-1.42556e-09
-0.00107668
2.2753e-09
-1.21796e-06
2.42739e-07
-2.4358e-07
-8.71673e-07
2.33646e-07
-2.35832e-07
8.71859e-07
-1.18674e-06
0.000264889
-0.000262929
2.22395e-07
2.29755e-07
-1.15287e-09
2.16713e-09
0.00107772
-2.41045e-07
1.18684e-06
2.40157e-07
8.71957e-07
-2.38735e-07
2.36348e-07
-8.71857e-07
-1.50235e-09
-0.00107721
2.22349e-09
-1.18455e-06
2.4012e-07
-2.40967e-07
-8.71497e-07
2.36377e-07
8.71807e-07
-2.38537e-07
1.18687e-06
0.00107772
-1.32734e-09
-0.00107772
2.06857e-09
-1.18465e-06
2.40207e-07
-2.41004e-07
-8.71789e-07
2.36441e-07
-2.38638e-07
8.72022e-07
-0.000262942
2.24742e-07
2.29991e-07
1.22326e-06
1.18727e-06
-2.19979e-07
-2.27714e-07
0.000262947
-1.22551e-06
-1.18957e-06
0.000264909
-0.000262946
2.22309e-07
2.30032e-07
2.30388e-09
0.00107677
-2.46346e-07
1.22544e-06
2.4546e-07
8.71841e-07
-2.35808e-07
-8.71621e-07
2.33658e-07
-1.22864e-06
-1.35869e-09
2.17064e-09
0.0010772
-2.49089e-07
1.23089e-06
2.4828e-07
8.77388e-07
-2.38643e-07
-8.77207e-07
2.36438e-07
0.00107677
-1.73058e-09
-0.00107677
2.13755e-09
-1.22321e-06
2.45531e-07
-2.46294e-07
-8.7156e-07
2.3377e-07
-2.35719e-07
8.71923e-07
1.23097e-06
0.0010772
-1.56917e-09
-0.0010772
2.07074e-09
-1.22859e-06
2.4836e-07
-2.49038e-07
-8.77148e-07
2.36547e-07
-2.38557e-07
8.77466e-07
-2.227e-07
-2.24996e-07
0.000262968
-1.19224e-06
0.000264938
-0.000262967
2.25095e-07
2.2738e-07
2.08063e-09
0.00107781
-2.43697e-07
1.18952e-06
2.42943e-07
8.74647e-07
-2.38644e-07
-8.74389e-07
2.36459e-07
-1.22331e-06
-1.31047e-09
2.27479e-09
0.00107688
-2.49108e-07
1.22551e-06
2.48227e-07
8.74526e-07
-2.38593e-07
-8.74361e-07
2.3639e-07
0.00107781
-1.66583e-09
-0.00107781
1.97212e-09
-1.18723e-06
2.42997e-07
-2.43651e-07
-8.74348e-07
2.36566e-07
-2.38569e-07
8.74721e-07
1.22556e-06
0.00107688
-1.5036e-09
-0.00107688
2.16519e-09
-1.22327e-06
2.48289e-07
-2.49051e-07
-8.74331e-07
2.36474e-07
-2.3853e-07
8.7458e-07
-1.44468e-09
2.25876e-09
0.00107668
-2.43561e-07
1.22016e-06
2.42744e-07
8.71852e-07
-2.35815e-07
2.33651e-07
-8.71667e-07
-1.75785e-09
-0.00107754
1.961e-09
-1.18982e-06
2.40252e-07
-2.4087e-07
-8.71606e-07
2.33868e-07
8.72007e-07
-2.35764e-07
1.22022e-06
0.00107668
-1.68428e-09
-0.00107668
2.10617e-09
-1.2179e-06
2.42816e-07
-2.4351e-07
-8.71619e-07
2.33755e-07
-2.35739e-07
8.71926e-07
-2.20189e-07
-2.2752e-07
0.000262929
-1.1868e-06
0.000264888
-0.000262928
2.2248e-07
2.29837e-07
-1.33164e-09
2.04576e-09
0.00107772
-2.40983e-07
1.18687e-06
2.40214e-07
8.72009e-07
-2.38622e-07
2.36445e-07
-8.71789e-07
-1.77075e-09
-0.00107721
2.07786e-09
-1.1845e-06
2.40211e-07
-2.40895e-07
-8.7145e-07
2.36493e-07
8.71868e-07
-2.38446e-07
1.18693e-06
0.00107772
-1.62862e-09
-0.00107772
1.93442e-09
-1.18459e-06
2.40278e-07
-2.40938e-07
-8.71734e-07
2.36555e-07
-2.38543e-07
8.72095e-07
-0.000262941
2.24809e-07
2.30065e-07
1.22318e-06
1.18722e-06
-2.19934e-07
-2.27631e-07
0.000262946
-1.22567e-06
-1.18965e-06
0.000264909
-0.000262946
2.22402e-07
2.30166e-07
2.13394e-09
0.00107677
-2.46275e-07
1.22554e-06
2.45565e-07
8.71931e-07
-2.35734e-07
-8.7158e-07
2.33777e-07
-1.22858e-06
-1.47779e-09
2.16943e-09
0.0010772
-2.49023e-07
1.23095e-06
2.4834e-07
8.77464e-07
-2.38554e-07
-8.77155e-07
2.36541e-07
0.00107677
-2.06988e-09
-0.00107677
1.79373e-09
-1.22312e-06
2.45718e-07
-2.46198e-07
-8.71531e-07
2.33907e-07
-2.35688e-07
8.72069e-07
1.23114e-06
0.0010772
-1.99917e-09
-0.0010772
1.88662e-09
-1.22845e-06
2.48536e-07
-2.48898e-07
-8.77046e-07
2.3676e-07
-2.38428e-07
8.77669e-07
-2.22604e-07
-2.24895e-07
0.000262967
-1.19242e-06
0.000264937
-0.000262967
2.25313e-07
2.27584e-07
1.97732e-09
0.00107781
-2.43652e-07
1.18959e-06
2.43023e-07
8.74744e-07
-2.3853e-07
-8.74317e-07
2.36607e-07
-1.22325e-06
-1.64704e-09
2.10668e-09
0.00107688
-2.49035e-07
1.22558e-06
2.48307e-07
8.74607e-07
-2.38491e-07
-8.74302e-07
2.36511e-07
0.00107781
-2.00891e-09
-0.00107781
1.88755e-09
-1.18722e-06
2.4308e-07
-2.43657e-07
-8.74292e-07
2.36701e-07
-2.38481e-07
8.7481e-07
1.22558e-06
0.00107688
-1.69221e-09
-0.00107688
2.08903e-09
-1.22327e-06
2.48312e-07
-2.49053e-07
-8.74313e-07
2.36533e-07
-2.38492e-07
8.74614e-07
-1.58386e-09
2.12443e-09
0.00107668
-2.43498e-07
1.22025e-06
2.42846e-07
8.71946e-07
-2.3574e-07
2.33775e-07
-8.71624e-07
-2.14083e-09
-0.00107754
1.74693e-09
-1.18967e-06
2.40436e-07
-2.40722e-07
-8.71514e-07
2.34066e-07
8.72199e-07
-2.35647e-07
1.22039e-06
0.00107667
-2.01174e-09
-0.00107667
1.77595e-09
-1.21782e-06
2.43e-07
-2.43429e-07
-8.71581e-07
2.33907e-07
-2.35696e-07
8.72083e-07
-2.20109e-07
-2.27451e-07
0.000262928
-1.18686e-06
0.000264888
-0.000262928
2.22541e-07
2.29865e-07
-1.56155e-09
1.98821e-09
0.00107771
-2.4093e-07
1.18695e-06
2.40304e-07
8.72126e-07
-2.38535e-07
2.36585e-07
-8.7173e-07
-2.04324e-09
-0.0010772
1.92299e-09
-1.18445e-06
2.40278e-07
-2.40849e-07
-8.71427e-07
2.3658e-07
8.71972e-07
-2.38405e-07
1.18706e-06
0.00107771
-2.12744e-09
-0.00107771
1.78011e-09
-1.18455e-06
2.40421e-07
-2.40895e-07
-8.7166e-07
2.36742e-07
-2.38467e-07
8.7229e-07
-0.000262941
2.24936e-07
2.30231e-07
1.22303e-06
1.18712e-06
-2.19792e-07
-2.27497e-07
0.000262946
-1.22523e-06
-1.18909e-06
0.000264909
-0.000262945
2.21688e-07
2.29591e-07
1.59807e-09
0.00107676
-2.46095e-07
1.22574e-06
2.45776e-07
8.72104e-07
-2.35612e-07
-8.7144e-07
2.33956e-07
-1.22855e-06
-1.45157e-09
2.46068e-09
0.0010772
-2.49036e-07
1.23092e-06
2.48261e-07
8.77575e-07
-2.38477e-07
-8.77038e-07
2.36587e-07
0.00107677
2.38029e-10
-0.00107676
2.70911e-09
-1.22349e-06
2.45169e-07
-2.46704e-07
-8.72322e-07
2.32863e-07
-2.36644e-07
8.71264e-07
1.23065e-06
0.0010772
1.67872e-10
-0.0010772
2.8982e-09
-1.22903e-06
2.47968e-07
-2.4959e-07
-8.77911e-07
2.35693e-07
-2.39531e-07
8.76838e-07
-2.22505e-07
-2.2481e-07
0.000262966
-1.19192e-06
0.000264938
-0.000262967
2.2462e-07
2.26893e-07
1.87823e-09
0.00107781
-2.43545e-07
1.18974e-06
2.43181e-07
8.74948e-07
-2.38412e-07
-8.74209e-07
2.36787e-07
-1.22318e-06
-2.18135e-09
1.82938e-09
0.00107688
-2.48971e-07
1.22574e-06
2.48474e-07
8.74804e-07
-2.38413e-07
-8.74226e-07
2.367e-07
0.00107781
-4.26334e-10
-0.00107781
3.06149e-09
-1.18777e-06
2.42398e-07
-2.4432e-07
-8.74739e-07
2.36078e-07
-2.38989e-07
8.7428e-07
1.22521e-06
0.00107688
-4.72978e-10
-0.00107687
2.80808e-09
-1.22358e-06
2.47869e-07
-2.49425e-07
-8.74692e-07
2.36003e-07
-2.38895e-07
8.74156e-07
-1.84628e-09
1.69443e-09
0.00107667
-2.4333e-07
1.22044e-06
2.43035e-07
8.72117e-07
-2.35615e-07
2.33941e-07
-8.7148e-07
8.02616e-11
-0.00107754
2.72542e-09
-1.19026e-06
2.39865e-07
-2.41417e-07
-8.72381e-07
2.33001e-07
8.71365e-07
-2.36748e-07
1.21986e-06
0.00107667
2.25871e-10
-0.00107667
2.85917e-09
-1.21832e-06
2.42361e-07
-2.44043e-07
-8.72352e-07
2.32897e-07
-2.36622e-07
8.71297e-07
-2.20052e-07
-2.27407e-07
0.000262928
-1.18657e-06
0.00026489
-0.000262927
2.22132e-07
2.26821e-07
-2.1225e-09
1.91663e-09
0.00107771
-2.40818e-07
1.18708e-06
2.40431e-07
8.72348e-07
-2.38368e-07
2.36796e-07
-8.71538e-07
-2.08054e-10
-0.0010772
2.36635e-09
-1.18467e-06
2.39867e-07
-2.41146e-07
-8.7203e-07
2.35856e-07
8.71347e-07
-2.39024e-07
1.18649e-06
0.00107771
1.16255e-10
-0.00107771
3.0291e-09
-1.1851e-06
2.39749e-07
-2.41555e-07
-8.72411e-07
2.35744e-07
-2.39369e-07
8.71506e-07
-0.00026294
2.24218e-07
2.29526e-07
1.2236e-06
1.18771e-06
-2.20555e-07
-2.28226e-07
0.000262946
-1.22546e-06
-1.18959e-06
0.00026491
-0.000262947
2.22272e-07
2.29941e-07
2.829e-09
0.00107677
-2.46754e-07
1.2252e-06
2.45196e-07
8.71437e-07
-2.36731e-07
-8.72261e-07
2.32949e-07
-1.22888e-06
-2.40086e-10
2.43579e-09
0.0010772
-2.49383e-07
1.23081e-06
2.48177e-07
8.77045e-07
-2.3943e-07
-8.77794e-07
2.35898e-07
0.00107677
-1.28774e-09
-0.00107677
2.44358e-09
-1.22337e-06
2.45461e-07
-2.46478e-07
-8.71745e-07
2.33582e-07
-2.36075e-07
8.71869e-07
1.23092e-06
0.0010772
-1.16658e-09
-0.0010772
2.15785e-09
-1.2287e-06
2.48308e-07
-2.49163e-07
-8.77321e-07
2.36357e-07
-2.38881e-07
8.77409e-07
-2.23061e-07
-2.25366e-07
0.000262967
-1.19218e-06
0.000264938
-0.000262968
2.24997e-07
2.27291e-07
2.73606e-09
0.00107781
-2.44261e-07
1.18926e-06
2.42597e-07
8.74146e-07
-2.3933e-07
-8.74993e-07
2.35816e-07
-1.22374e-06
1.38523e-10
2.99348e-09
0.00107688
-2.49632e-07
1.22518e-06
2.47799e-07
8.74005e-07
-2.39317e-07
-8.74985e-07
2.35688e-07
0.00107781
-9.77456e-10
-0.00107781
2.01863e-09
-1.18729e-06
2.43021e-07
-2.43735e-07
-8.7463e-07
2.36255e-07
-2.3908e-07
8.74595e-07
1.22554e-06
0.00107688
-7.60935e-10
-0.00107688
2.36999e-09
-1.22339e-06
2.48257e-07
-2.49215e-07
-8.7462e-07
2.36149e-07
-2.39069e-07
8.74454e-07
-2.09769e-11
2.78179e-09
0.00107668
-2.44006e-07
1.21995e-06
2.42484e-07
8.71463e-07
-2.36701e-07
2.32965e-07
-8.72286e-07
-1.38861e-09
-0.00107755
2.08631e-09
-1.18994e-06
2.40192e-07
-2.41002e-07
-8.71772e-07
2.33688e-07
8.71957e-07
-2.3608e-07
1.22018e-06
0.00107668
-1.26053e-09
-0.00107668
2.34311e-09
-1.21802e-06
2.4278e-07
-2.43647e-07
-8.71804e-07
2.33561e-07
-2.36097e-07
8.71867e-07
-2.20669e-07
-2.25553e-07
0.000262928
-1.18676e-06
0.000264891
-0.000262929
2.22362e-07
2.27232e-07
2.84227e-11
2.65167e-09
0.00107772
-2.41472e-07
1.18664e-06
2.39925e-07
8.71629e-07
-2.39478e-07
2.35781e-07
-8.72388e-07
-1.15246e-09
-0.00107721
2.41766e-09
-1.18467e-06
2.40107e-07
-2.41107e-07
-8.71698e-07
2.36216e-07
8.71759e-07
-2.3892e-07
1.18693e-06
0.00107772
-1.06579e-09
-0.00107772
1.98793e-09
-1.18468e-06
2.40276e-07
-2.41042e-07
-8.71949e-07
2.36338e-07
-2.38924e-07
8.7201e-07
-0.000262942
2.24767e-07
2.29992e-07
1.22332e-06
1.1873e-06
-2.20035e-07
-2.27775e-07
0.000262947
-1.22548e-06
-1.18953e-06
0.00026491
-0.000262947
2.22235e-07
2.29965e-07
2.35906e-09
0.00107677
-2.46441e-07
1.22548e-06
2.45485e-07
8.71865e-07
-2.36005e-07
-8.71733e-07
2.3362e-07
-1.2287e-06
-1.21108e-09
2.18657e-09
0.0010772
-2.49166e-07
1.23092e-06
2.483e-07
8.77404e-07
-2.38837e-07
-8.77315e-07
2.36383e-07
0.00107677
-1.24988e-09
-0.00107677
2.34655e-09
-1.22331e-06
2.45485e-07
-2.46421e-07
-8.71745e-07
2.3361e-07
-2.35982e-07
8.7184e-07
1.2309e-06
0.0010772
-1.12331e-09
-0.0010772
2.30683e-09
-1.22871e-06
2.48273e-07
-2.49185e-07
-8.77336e-07
2.36369e-07
-2.38826e-07
8.77375e-07
-2.22774e-07
-2.25058e-07
0.000262968
-1.19217e-06
0.000264939
-0.000262968
2.24992e-07
2.27272e-07
2.04222e-09
0.00107781
-2.43747e-07
1.18958e-06
2.42999e-07
8.74652e-07
-2.38919e-07
-8.74532e-07
2.36376e-07
-1.22336e-06
-1.03872e-09
2.30365e-09
0.00107688
-2.49161e-07
1.22556e-06
2.4828e-07
8.74519e-07
-2.38884e-07
-8.74518e-07
2.36288e-07
0.00107781
-1.26375e-09
-0.00107781
2.18804e-09
-1.18734e-06
2.42948e-07
-2.43791e-07
-8.74505e-07
2.36435e-07
-2.38793e-07
8.74653e-07
1.22553e-06
0.00107688
-1.1407e-09
-0.00107688
2.32868e-09
-1.22336e-06
2.48248e-07
-2.49172e-07
-8.74482e-07
2.36352e-07
-2.38751e-07
8.74524e-07
-1.32969e-09
2.30001e-09
0.00107668
-2.43633e-07
1.22019e-06
2.42781e-07
8.71873e-07
-2.36017e-07
2.33609e-07
-8.71783e-07
-1.31633e-09
-0.00107755
2.19839e-09
-1.18994e-06
2.40165e-07
-2.41017e-07
-8.71793e-07
2.33691e-07
8.71917e-07
-2.36033e-07
1.22018e-06
0.00107668
-1.21929e-09
-0.00107668
2.3367e-09
-1.218e-06
2.42759e-07
-2.43647e-07
-8.71799e-07
2.33598e-07
-2.35996e-07
8.71847e-07
-2.20252e-07
-2.25037e-07
0.000262929
-1.18679e-06
0.000264891
-0.000262929
2.22419e-07
2.2723e-07
-1.16296e-09
2.00494e-09
0.00107772
-2.41034e-07
1.18692e-06
2.40268e-07
8.72024e-07
-2.38839e-07
2.36391e-07
-8.71917e-07
-1.32878e-09
-0.00107721
2.22632e-09
-1.18457e-06
2.40142e-07
-2.41008e-07
-8.71622e-07
2.36349e-07
8.718e-07
-2.38691e-07
1.18688e-06
0.00107772
-1.13874e-09
-0.00107772
2.16845e-09
-1.1847e-06
2.40221e-07
-2.41074e-07
-8.71916e-07
2.36396e-07
-2.38802e-07
8.72013e-07
-0.000262942
2.24734e-07
2.29989e-07
1.22329e-06
1.18733e-06
-2.20055e-07
-2.27758e-07
0.000262947
-1.22543e-06
-1.18948e-06
0.00026491
-0.000262947
2.22134e-07
2.29868e-07
2.25066e-09
0.00107677
-2.46409e-07
1.22549e-06
2.45491e-07
8.71832e-07
-2.35973e-07
-8.71742e-07
2.33599e-07
-1.2287e-06
-1.23884e-09
2.22013e-09
0.0010772
-2.49176e-07
1.2309e-06
2.48275e-07
8.77377e-07
-2.38807e-07
-8.7732e-07
2.36367e-07
0.00107677
-1.04245e-09
-0.00107677
2.50619e-09
-1.22324e-06
2.45414e-07
-2.46335e-07
-8.71577e-07
2.33243e-07
-2.35716e-07
8.71641e-07
1.23085e-06
0.0010772
-9.34302e-10
-0.0010772
2.49896e-09
-1.22865e-06
2.48195e-07
-2.49105e-07
-8.77161e-07
2.36005e-07
-2.38551e-07
8.77178e-07
-2.22768e-07
-2.25063e-07
0.000262968
-1.19211e-06
0.000264939
-0.000262968
2.24892e-07
2.27176e-07
2.11847e-09
0.00107781
-2.43787e-07
1.18954e-06
2.42946e-07
8.74657e-07
-2.38779e-07
-8.74486e-07
2.36431e-07
-1.22336e-06
-1.27378e-09
2.26611e-09
0.00107688
-2.49169e-07
1.22553e-06
2.48246e-07
8.74527e-07
-2.38733e-07
-8.74467e-07
2.3635e-07
0.00107781
-1.10062e-09
-0.00107781
2.38978e-09
-1.18728e-06
2.42867e-07
-2.43717e-07
-8.7433e-07
2.36074e-07
-2.38518e-07
8.74459e-07
1.22548e-06
0.00107688
-9.71235e-10
-0.00107688
2.51885e-09
-1.2233e-06
2.48168e-07
-2.49097e-07
-8.74311e-07
2.35992e-07
-2.38481e-07
8.7433e-07
-1.33264e-09
2.23899e-09
0.00107668
-2.43634e-07
1.22018e-06
2.42764e-07
8.71847e-07
-2.35978e-07
2.33594e-07
-8.71783e-07
-1.11783e-09
-0.00107755
2.38175e-09
-1.18987e-06
2.40088e-07
-2.40934e-07
-8.7162e-07
2.33329e-07
8.71719e-07
-2.35764e-07
1.22013e-06
0.00107668
-1.00876e-09
-0.00107668
2.50403e-09
-1.21794e-06
2.42687e-07
-2.43563e-07
-8.7163e-07
2.33231e-07
-2.3573e-07
8.71646e-07
-2.20222e-07
-2.25042e-07
0.000262929
-1.18674e-06
0.000264892
-0.000262929
2.22319e-07
2.27128e-07
-1.25876e-09
2.08963e-09
0.00107772
-2.41066e-07
1.18689e-06
2.40222e-07
8.72016e-07
-2.3878e-07
2.36395e-07
-8.71898e-07
-1.14243e-09
-0.00107721
2.39334e-09
-1.18451e-06
2.40065e-07
-2.40931e-07
-8.71446e-07
2.35983e-07
8.71604e-07
-2.3842e-07
1.18683e-06
0.00107772
-9.72901e-10
-0.00107772
2.37286e-09
-1.18464e-06
2.4014e-07
-2.41e-07
-8.71738e-07
2.36039e-07
-2.38526e-07
8.71822e-07
-0.000262942
2.24633e-07
2.29895e-07
1.22319e-06
1.18723e-06
-2.19889e-07
-2.27589e-07
0.000262947
-1.22502e-06
-1.18906e-06
0.000264911
-0.000262947
2.21138e-07
2.28875e-07
2.10686e-09
0.00107677
-2.46273e-07
1.2254e-06
2.45373e-07
8.71411e-07
-2.35386e-07
-8.7141e-07
2.3277e-07
-1.22859e-06
-1.14014e-09
2.09536e-09
0.0010772
-2.49042e-07
1.23081e-06
2.48155e-07
8.76959e-07
-2.38212e-07
-8.76982e-07
2.35543e-07
0.00107677
-1.59127e-09
-0.00107677
2.69962e-09
-1.22264e-06
2.44863e-07
-2.45664e-07
-8.69378e-07
2.28859e-07
-2.31599e-07
8.69481e-07
1.23043e-06
0.0010772
-1.48354e-09
-0.0010772
2.71191e-09
-1.22805e-06
2.47641e-07
-2.48434e-07
-8.74962e-07
2.31628e-07
-2.34437e-07
8.75025e-07
-2.22597e-07
-2.24896e-07
0.000262968
-1.1917e-06
0.00026494
-0.000262967
2.23898e-07
2.26178e-07
1.99756e-09
0.00107781
-2.43657e-07
1.18944e-06
2.42825e-07
8.7424e-07
-2.38187e-07
-8.74149e-07
2.35606e-07
-1.22325e-06
-1.18303e-09
2.12243e-09
0.00107688
-2.49034e-07
1.22544e-06
2.48128e-07
8.74111e-07
-2.38145e-07
-8.74133e-07
2.35529e-07
0.00107781
-1.65366e-09
-0.00107781
2.59543e-09
-1.18668e-06
2.42315e-07
-2.43047e-07
-8.72132e-07
2.31689e-07
-2.34406e-07
8.7231e-07
1.22506e-06
0.00107688
-1.51522e-09
-0.00107688
2.72203e-09
-1.2227e-06
2.47617e-07
-2.48426e-07
-8.72105e-07
2.31612e-07
-2.34377e-07
8.72173e-07
-1.21079e-09
2.09979e-09
0.00107668
-2.43498e-07
1.2201e-06
2.42648e-07
8.71422e-07
-2.3539e-07
2.32767e-07
-8.71453e-07
-1.64803e-09
-0.00107755
2.58993e-09
-1.18927e-06
2.39535e-07
-2.40264e-07
-8.6943e-07
2.28947e-07
8.69561e-07
-2.31648e-07
1.21971e-06
0.00107668
-1.53327e-09
-0.00107668
2.70518e-09
-1.21734e-06
2.42135e-07
-2.42896e-07
-8.69433e-07
2.28847e-07
-2.31618e-07
8.6949e-07
-2.20056e-07
-2.24875e-07
0.000262929
-1.18632e-06
0.000264892
-0.000262929
2.21332e-07
2.26135e-07
-1.17236e-09
1.97614e-09
0.00107772
-2.40935e-07
1.18679e-06
2.401e-07
8.71603e-07
-2.38186e-07
2.35573e-07
-8.7156e-07
-1.68292e-09
-0.00107721
2.59371e-09
-1.18392e-06
2.3951e-07
-2.40233e-07
-8.69246e-07
2.31595e-07
8.69438e-07
-2.343e-07
1.18641e-06
0.00107772
-1.54106e-09
-0.00107772
2.5867e-09
-1.18404e-06
2.3959e-07
-2.4033e-07
-8.69545e-07
2.3166e-07
-2.34403e-07
8.69673e-07
-0.000262941
2.23637e-07
2.289e-07
1.22234e-06
1.18638e-06
-2.18287e-07
-2.25986e-07
0.000262946
-1.22405e-06
-1.18809e-06
0.000264912
-0.000262945
2.18843e-07
2.26569e-07
2.08067e-09
0.00107677
-2.45198e-07
1.22422e-06
2.4365e-07
8.67965e-07
-2.3019e-07
-8.68623e-07
2.26844e-07
-1.22775e-06
2.65394e-10
2.07671e-09
0.0010772
-2.47964e-07
1.22963e-06
2.4643e-07
8.7351e-07
-2.33018e-07
-8.7418e-07
2.29619e-07
0.00107677
-4.7528e-09
-0.00107677
1.14989e-09
-1.22105e-06
2.41966e-07
-2.41757e-07
-8.70256e-07
2.3007e-07
-2.30569e-07
8.72505e-07
1.22946e-06
0.0010772
-4.67541e-09
-0.0010772
1.17629e-09
-1.22647e-06
2.44744e-07
-2.44532e-07
-8.75817e-07
2.32831e-07
-2.33381e-07
8.7803e-07
-2.20996e-07
-2.23292e-07
0.000262967
-1.19073e-06
0.000264941
-0.000262966
2.21587e-07
2.23878e-07
1.96782e-09
0.00107781
-2.42583e-07
1.18826e-06
2.41098e-07
8.70794e-07
-2.3299e-07
-8.71361e-07
2.29683e-07
-1.2224e-06
2.32243e-10
2.09825e-09
0.00107688
-2.47958e-07
1.22427e-06
2.46408e-07
8.70671e-07
-2.32924e-07
-8.71348e-07
2.29586e-07
0.00107781
-4.85274e-09
-0.00107781
1.0605e-09
-1.1851e-06
2.39412e-07
-2.39144e-07
-8.72992e-07
2.3291e-07
-2.33387e-07
8.75319e-07
1.2241e-06
0.00107688
-4.68421e-09
-0.00107688
1.18077e-09
-1.22111e-06
2.44717e-07
-2.44511e-07
-8.72988e-07
2.32813e-07
-2.33345e-07
8.75193e-07
2.21424e-10
2.06578e-09
0.00107668
-2.42426e-07
1.21892e-06
2.40924e-07
8.67976e-07
-2.30196e-07
2.2684e-07
-8.6865e-07
-4.83604e-09
-0.00107755
1.06121e-09
-1.18769e-06
2.36633e-07
-2.36361e-07
-8.7029e-07
2.3015e-07
8.72581e-07
-2.30624e-07
1.21874e-06
0.00107668
-4.71687e-09
-0.00107668
1.16636e-09
-1.21576e-06
2.39227e-07
-2.38989e-07
-8.70289e-07
2.30054e-07
-2.30566e-07
8.72499e-07
-2.18456e-07
-2.23269e-07
0.000262928
-1.18535e-06
0.000264891
-0.000262927
2.19029e-07
2.26363e-07
2.30829e-10
1.96173e-09
0.00107772
-2.39858e-07
1.18561e-06
2.38376e-07
8.68158e-07
-2.32983e-07
2.29649e-07
-8.68767e-07
-4.85542e-09
-0.00107721
1.05109e-09
-1.18233e-06
2.36637e-07
-2.36351e-07
-8.70104e-07
2.32814e-07
8.72393e-07
-2.33257e-07
1.18544e-06
0.00107772
-4.8216e-09
-0.00107772
1.06963e-09
-1.18245e-06
2.36682e-07
-2.36411e-07
-8.70403e-07
2.3288e-07
-2.33343e-07
8.72712e-07
-0.00026294
2.2133e-07
2.26596e-07
1.22226e-06
1.18632e-06
-2.16993e-07
-2.24675e-07
0.000262945
-1.2242e-06
-1.18827e-06
0.00026492
-0.000262944
2.1527e-07
2.20553e-07
4.9827e-09
0.00107677
-2.4371e-07
1.22333e-06
2.42273e-07
8.70922e-07
-2.32824e-07
-8.72958e-07
2.28335e-07
-1.22768e-06
4.56504e-09
4.98694e-09
0.0010772
-2.46479e-07
1.22875e-06
2.45043e-07
8.7646e-07
-2.35633e-07
-8.78504e-07
2.31107e-07
0.00107677
-1.46727e-08
-0.00107676
-1.0281e-08
-1.21928e-06
2.41357e-07
-2.37015e-07
-8.63026e-07
2.20638e-07
-2.19956e-07
8.67376e-07
1.2296e-06
0.00107722
-2.50159e-08
-0.00107721
-5.03163e-09
-1.22205e-06
2.41402e-07
-2.39798e-07
-8.63261e-07
2.17997e-07
-2.17385e-07
8.67579e-07
-2.19697e-07
-2.21993e-07
0.000262966
-1.19085e-06
0.000264944
-0.000262962
2.15512e-07
2.22847e-07
4.8945e-09
0.0010778
-2.41109e-07
1.19003e-06
2.42435e-07
8.73744e-07
-2.35614e-07
-8.75692e-07
2.31169e-07
-1.22232e-06
4.52822e-09
5.00648e-09
0.00107688
-2.46471e-07
1.22339e-06
2.45029e-07
8.7362e-07
-2.35569e-07
-8.75669e-07
2.31091e-07
0.00107782
-1.49066e-08
-0.00107781
-5.16305e-09
-1.18337e-06
2.38792e-07
-2.37124e-07
-8.65739e-07
2.20768e-07
-2.20027e-07
8.70187e-07
1.21896e-06
0.00107689
-1.47202e-08
-0.00107688
-1.02986e-08
-1.21406e-06
2.41407e-07
-2.39765e-07
-8.63135e-07
2.20698e-07
-2.20005e-07
8.67428e-07
4.50002e-09
4.97219e-09
0.00107668
-2.4094e-07
1.21804e-06
2.39537e-07
8.70918e-07
-2.3281e-07
2.28327e-07
-8.72966e-07
-2.00235e-08
-0.00107755
-5.12239e-09
-1.18332e-06
2.33297e-07
-2.3164e-07
-8.63065e-07
2.20698e-07
8.7009e-07
-2.17293e-07
1.21893e-06
0.00107668
-1.99449e-08
-0.00107668
-5.05576e-09
-1.21138e-06
2.38651e-07
-2.34255e-07
-8.6305e-07
2.20626e-07
-2.17265e-07
8.67377e-07
-2.1716e-07
-2.2449e-07
0.000262927
-1.18286e-06
0.000264894
-0.000262928
2.1547e-07
2.20327e-07
4.44342e-09
4.90155e-09
0.00107771
-2.3837e-07
1.18473e-06
2.36991e-07
8.71141e-07
-2.35589e-07
2.31148e-07
-8.73096e-07
-1.48757e-08
-0.00107721
-1.03639e-08
-1.17795e-06
2.33316e-07
-2.3161e-07
-8.60203e-07
2.20684e-07
8.64602e-07
-2.19931e-07
1.18294e-06
0.00107772
-1.48321e-08
-0.00107772
-1.03124e-08
-1.17278e-06
2.3334e-07
-2.28952e-07
-8.57831e-07
2.18045e-07
-2.17328e-07
8.64878e-07
-0.000262944
2.15332e-07
2.23037e-07
1.21774e-06
1.17916e-06
-2.10501e-07
-2.13169e-07
0.000262947
-1.27488e-06
-1.23889e-06
0.000264997
-0.000262972
2.4154e-07
2.46905e-07
1.0466e-08
0.00107677
-2.37662e-07
1.22222e-06
2.36177e-07
8.62262e-07
-2.20595e-07
-8.65367e-07
2.12776e-07
-1.22311e-06
1.01493e-08
5.50196e-09
0.00107721
-2.4044e-07
1.22495e-06
2.38923e-07
8.65242e-07
-2.18004e-07
-8.65691e-07
2.155e-07
0.00107704
-3.37497e-07
-0.00107686
-1.61553e-07
-1.18121e-06
2.67916e-07
-2.061e-07
-8.13236e-07
2.42945e-07
-1.72582e-07
9.05725e-07
1.28021e-06
0.00107747
-3.37503e-07
-0.0010773
-1.56077e-07
-1.18667e-06
2.67869e-07
-2.06221e-07
-8.21529e-07
2.45683e-07
-1.72671e-07
9.13982e-07
-2.10718e-07
-2.15519e-07
0.000262963
-1.23888e-06
0.00026502
-0.000262992
2.44332e-07
2.4657e-07
5.34927e-09
0.00107783
-2.35035e-07
1.18094e-06
2.30832e-07
8.62486e-07
-2.20643e-07
-8.65496e-07
2.15581e-07
-1.2125e-06
2.5203e-11
5.38576e-09
0.00107689
-2.3765e-07
1.21694e-06
2.36168e-07
8.62395e-07
-2.17924e-07
-8.65503e-07
2.12806e-07
0.00107807
-3.43616e-07
-0.0010779
-1.56009e-07
-1.14265e-06
2.65256e-07
-2.00807e-07
-8.18546e-07
2.45914e-07
-1.72574e-07
9.11334e-07
1.27221e-06
0.00107716
-3.42944e-07
-0.00107698
-1.61484e-07
-1.17866e-06
2.67937e-07
-2.03438e-07
-8.15944e-07
2.4579e-07
-1.75227e-07
9.0852e-07
4.98938e-09
5.35133e-09
0.00107668
-2.37599e-07
1.21693e-06
2.3618e-07
8.62338e-07
-2.17873e-07
2.12759e-07
-8.62764e-07
-3.38068e-07
-0.00107764
-1.61147e-07
-1.14524e-06
2.62472e-07
-1.98115e-07
-8.15977e-07
2.42997e-07
9.08524e-07
-1.7259e-07
1.27219e-06
0.00107694
-3.37595e-07
-0.00107677
-1.61571e-07
-1.17595e-06
2.67897e-07
-2.00662e-07
-8.15899e-07
2.45703e-07
-1.75249e-07
9.08435e-07
-2.08144e-07
-2.12972e-07