/*--------------------------------*- C++ -*----------------------------------*\
| =========                 |                                                 |
| \\      /  F ield         | OpenFOAM: The Open Source CFD Toolbox           |
|  \\    /   O peration     | Version:  2206                                  |
|   \\  /    A nd           | Website:  www.openfoam.com                      |
|    \\/     M anipulation  |                                                 |
\*---------------------------------------------------------------------------*/
FoamFile
{
    version     2.0;
    format      ascii;
    arch        "LSB;label=32;scalar=64";
    class       volScalarField;
    location    "19";
    object      epsilon;
}
// * * * * * * * * * * * * * * * * * * * * * * * * * * * * * * * * * * * * * //

dimensions      [0 2 -3 0 0 0 0];

internalField   nonuniform List<scalar> 
28448
(
3.4118e-07
3.60406e-07
3.60411e-07
3.87388e-07
3.41182e-07
3.60409e-07
3.60415e-07
3.87397e-07
3.41181e-07
3.6041e-07
3.60415e-07
3.87403e-07
3.41176e-07
3.60409e-07
3.60411e-07
3.87405e-07
3.41089e-07
3.60324e-07
3.60304e-07
3.87332e-07
3.41002e-07
3.60254e-07
3.60261e-07
3.87263e-07
3.41e-07
3.60253e-07
3.60261e-07
3.87279e-07
3.40999e-07
3.60253e-07
3.6026e-07
3.87272e-07
3.41e-07
3.60253e-07
3.6026e-07
3.87273e-07
3.41e-07
3.60253e-07
3.6026e-07
3.87274e-07
3.41e-07
3.60253e-07
3.6026e-07
3.87274e-07
3.41e-07
3.60253e-07
3.6026e-07
3.87274e-07
3.41e-07
3.60253e-07
3.6026e-07
3.87274e-07
3.41e-07
3.60253e-07
3.6026e-07
3.87274e-07
3.41e-07
3.60253e-07
3.6026e-07
3.87274e-07
3.41e-07
3.60253e-07
3.6026e-07
3.87274e-07
3.41e-07
3.60253e-07
3.6026e-07
3.87274e-07
3.41007e-07
3.60266e-07
3.87162e-07
3.6042e-07
3.60424e-07
3.87154e-07
3.6041e-07
3.6043e-07
3.60406e-07
3.60422e-07
3.87173e-07
3.60411e-07
3.60411e-07
3.87171e-07
3.87385e-07
3.87175e-07
3.6042e-07
3.60424e-07
3.60419e-07
3.60422e-07
3.87378e-07
3.87168e-07
3.6041e-07
3.60434e-07
3.60409e-07
3.60433e-07
3.60426e-07
3.60409e-07
3.60425e-07
3.87393e-07
3.87182e-07
3.60415e-07
3.60415e-07
3.60414e-07
3.8718e-07
3.87394e-07
3.87183e-07
3.60423e-07
3.60426e-07
3.60423e-07
3.60426e-07
3.87388e-07
3.87176e-07
3.60413e-07
3.60437e-07
3.60413e-07
3.60436e-07
3.60429e-07
3.60411e-07
3.60427e-07
3.87402e-07
3.8719e-07
3.60418e-07
3.60417e-07
3.60416e-07
3.87187e-07
3.87401e-07
3.87186e-07
3.60426e-07
3.60429e-07
3.60424e-07
3.60427e-07
3.87395e-07
3.87179e-07
3.60417e-07
3.60437e-07
3.60414e-07
3.60433e-07
3.60429e-07
3.6041e-07
3.60425e-07
3.87409e-07
3.8719e-07
3.60418e-07
3.60413e-07
3.60414e-07
3.8719e-07
3.87404e-07
3.87165e-07
3.60423e-07
3.60426e-07
3.60388e-07
3.6039e-07
3.87397e-07
3.87156e-07
3.60414e-07
3.60431e-07
3.60377e-07
3.60361e-07
3.60423e-07
3.60365e-07
3.60351e-07
3.87408e-07
3.87137e-07
3.60412e-07
3.60341e-07
3.6034e-07
3.87136e-07
3.87369e-07
3.87045e-07
3.60348e-07
3.6035e-07
3.60274e-07
3.60277e-07
3.87361e-07
3.87037e-07
3.60336e-07
3.60326e-07
3.60264e-07
3.60281e-07
3.60316e-07
3.60258e-07
3.60272e-07
3.87336e-07
3.87049e-07
3.60305e-07
3.60262e-07
3.60261e-07
3.87046e-07
3.8726e-07
3.87054e-07
3.60272e-07
3.60275e-07
3.60269e-07
3.60272e-07
3.87253e-07
3.87047e-07
3.60262e-07
3.60282e-07
3.60259e-07
3.6028e-07
3.60273e-07
3.60254e-07
3.60272e-07
3.87268e-07
3.87065e-07
3.60262e-07
3.60262e-07
3.60261e-07
3.87063e-07
3.87274e-07
3.87053e-07
3.60272e-07
3.60275e-07
3.60268e-07
3.60272e-07
3.87267e-07
3.87045e-07
3.60262e-07
3.60282e-07
3.60258e-07
3.60279e-07
3.60274e-07
3.60253e-07
3.60271e-07
3.87283e-07
3.87058e-07
3.60263e-07
3.6026e-07
3.6026e-07
3.87055e-07
3.87269e-07
3.87056e-07
3.6027e-07
3.60273e-07
3.60268e-07
3.60271e-07
3.87262e-07
3.87049e-07
3.6026e-07
3.60281e-07
3.60258e-07
3.60279e-07
3.60273e-07
3.60253e-07
3.60271e-07
3.87276e-07
3.87062e-07
3.60262e-07
3.6026e-07
3.6026e-07
3.87058e-07
3.87274e-07
3.87054e-07
3.6027e-07
3.60273e-07
3.60268e-07
3.60271e-07
3.87267e-07
3.87047e-07
3.6026e-07
3.60281e-07
3.60258e-07
3.60279e-07
3.60273e-07
3.60253e-07
3.60271e-07
3.87279e-07
3.87062e-07
3.60262e-07
3.60261e-07
3.6026e-07
3.87059e-07
3.87273e-07
3.87053e-07
3.6027e-07
3.60274e-07
3.60268e-07
3.60271e-07
3.87266e-07
3.87046e-07
3.6026e-07
3.60281e-07
3.60258e-07
3.60279e-07
3.60273e-07
3.60253e-07
3.60271e-07
3.8728e-07
3.87061e-07
3.60262e-07
3.6026e-07
3.60259e-07
3.87059e-07
3.87272e-07
3.87053e-07
3.6027e-07
3.60273e-07
3.60268e-07
3.60271e-07
3.87266e-07
3.87046e-07
3.6026e-07
3.60281e-07
3.60258e-07
3.60279e-07
3.60273e-07
3.60253e-07
3.60271e-07
3.87279e-07
3.8706e-07
3.60262e-07
3.6026e-07
3.60259e-07
3.87058e-07
3.87272e-07
3.87053e-07
3.6027e-07
3.60273e-07
3.60268e-07
3.60271e-07
3.87265e-07
3.87046e-07
3.6026e-07
3.60281e-07
3.60258e-07
3.60279e-07
3.60273e-07
3.60253e-07
3.60271e-07
3.87279e-07
3.8706e-07
3.60261e-07
3.6026e-07
3.60259e-07
3.87058e-07
3.87271e-07
3.87053e-07
3.6027e-07
3.60274e-07
3.60268e-07
3.60271e-07
3.87265e-07
3.87046e-07
3.6026e-07
3.60281e-07
3.60258e-07
3.60279e-07
3.60273e-07
3.60253e-07
3.60271e-07
3.87279e-07
3.8706e-07
3.60262e-07
3.60261e-07
3.60259e-07
3.87058e-07
3.87271e-07
3.87053e-07
3.6027e-07
3.60273e-07
3.60268e-07
3.60271e-07
3.87265e-07
3.87046e-07
3.6026e-07
3.60281e-07
3.60258e-07
3.60279e-07
3.60273e-07
3.60253e-07
3.60271e-07
3.87279e-07
3.8706e-07
3.60262e-07
3.6026e-07
3.60259e-07
3.87058e-07
3.87271e-07
3.87053e-07
3.6027e-07
3.60273e-07
3.60268e-07
3.60271e-07
3.87265e-07
3.87046e-07
3.6026e-07
3.60281e-07
3.60258e-07
3.60279e-07
3.60273e-07
3.60253e-07
3.60271e-07
3.87279e-07
3.8706e-07
3.60262e-07
3.6026e-07
3.6026e-07
3.87059e-07
3.87271e-07
3.87053e-07
3.6027e-07
3.60273e-07
3.60268e-07
3.60271e-07
3.87265e-07
3.87046e-07
3.6026e-07
3.60281e-07
3.60258e-07
3.60279e-07
3.60273e-07
3.60253e-07
3.60271e-07
3.87279e-07
3.8706e-07
3.60262e-07
3.6026e-07
3.6026e-07
3.87058e-07
3.87271e-07
3.87053e-07
3.6027e-07
3.60273e-07
3.60271e-07
3.87265e-07
3.6026e-07
3.60281e-07
3.60258e-07
3.60279e-07
3.60273e-07
3.60273e-07
3.87279e-07
3.8706e-07
3.60262e-07
3.60262e-07
3.60262e-07
3.87059e-07
3.87276e-07
3.60261e-07
3.60282e-07
3.87279e-07
3.4118e-07
3.41182e-07
3.41183e-07
3.41182e-07
1.63974e-06
8.46056e-06
1.64011e-06
8.45997e-06
2.44336e-05
2.44309e-05
1.63966e-06
8.46165e-06
1.63996e-06
8.46105e-06
3.41182e-07
3.41187e-07
3.41186e-07
3.41182e-07
3.4118e-07
3.41185e-07
3.41184e-07
5.84753e-07
1.31517e-06
3.46985e-07
3.6041e-07
5.84868e-07
1.3146e-06
3.46989e-07
2.44328e-05
2.44305e-05
5.8478e-07
3.46988e-07
1.31514e-06
3.60415e-07
5.84898e-07
3.46992e-07
1.31458e-06
2.72938e-06
2.72997e-06
3.87176e-07
2.72895e-06
2.72955e-06
1.63976e-06
8.46009e-06
1.64025e-06
8.45962e-06
2.44292e-05
2.44281e-05
1.63962e-06
8.46119e-06
1.64006e-06
8.46069e-06
3.41183e-07
3.41185e-07
3.41184e-07
3.41181e-07
3.41179e-07
3.41183e-07
3.41182e-07
5.84773e-07
1.31527e-06
3.46989e-07
3.60413e-07
5.84896e-07
1.31467e-06
3.46993e-07
2.44294e-05
2.44283e-05
5.84801e-07
3.4699e-07
1.31521e-06
3.60418e-07
5.84926e-07
3.46993e-07
1.31463e-06
2.72948e-06
2.73008e-06
3.87185e-07
2.72909e-06
2.72969e-06
1.63973e-06
8.45989e-06
1.6402e-06
8.45948e-06
2.44281e-05
2.44278e-05
1.63959e-06
8.46098e-06
1.64001e-06
8.46054e-06
3.41179e-07
3.41182e-07
3.41182e-07
3.41178e-07
3.41176e-07
3.41177e-07
3.41177e-07
5.84771e-07
1.3153e-06
3.46987e-07
3.60412e-07
5.84904e-07
1.31468e-06
3.46987e-07
2.44288e-05
2.44284e-05
5.84795e-07
3.46988e-07
1.31522e-06
3.60415e-07
5.84934e-07
3.46987e-07
1.31462e-06
2.72957e-06
2.73017e-06
3.8719e-07
2.72911e-06
2.72971e-06
1.63991e-06
8.46007e-06
1.64019e-06
8.46037e-06
2.44293e-05
2.44303e-05
1.6398e-06
8.46114e-06
1.64002e-06
8.46142e-06
3.41175e-07
3.41175e-07
3.41174e-07
3.41134e-07
3.41132e-07
3.41094e-07
3.41093e-07
5.84802e-07
1.31534e-06
3.46982e-07
3.60406e-07
5.84915e-07
1.31482e-06
3.46976e-07
2.4431e-05
2.44316e-05
5.84828e-07
3.46981e-07
1.31532e-06
3.60404e-07
5.84942e-07
3.46974e-07
1.31486e-06
2.72969e-06
2.73029e-06
3.87185e-07
2.72945e-06
2.73006e-06
1.64016e-06
8.46303e-06
1.64073e-06
8.46282e-06
2.44318e-05
2.44312e-05
1.63998e-06
8.46414e-06
1.6405e-06
8.46389e-06
3.41087e-07
3.41055e-07
3.41054e-07
3.41008e-07
3.41008e-07
3.41005e-07
3.41004e-07
5.84718e-07
1.31558e-06
3.46878e-07
3.60294e-07
5.84883e-07
1.31489e-06
3.46851e-07
2.44324e-05
2.44316e-05
5.84739e-07
3.46868e-07
1.31547e-06
3.60283e-07
5.84911e-07
3.46845e-07
1.31481e-06
2.72978e-06
2.73037e-06
3.87067e-07
2.72916e-06
2.72974e-06
1.64002e-06
8.46311e-06
1.64051e-06
8.4627e-06
2.44314e-05
2.4431e-05
1.63987e-06
8.46422e-06
1.64031e-06
8.46379e-06
3.41005e-07
3.41006e-07
3.41005e-07
3.41e-07
3.41001e-07
3.41004e-07
3.41003e-07
5.847e-07
1.31544e-06
3.46819e-07
3.60255e-07
5.8483e-07
1.3148e-06
3.46821e-07
2.44321e-05
2.44315e-05
5.84723e-07
3.46821e-07
1.31535e-06
3.60263e-07
5.84856e-07
3.46823e-07
1.31475e-06
2.72952e-06
2.7301e-06
3.87056e-07
2.72906e-06
2.72965e-06
1.64001e-06
8.46305e-06
1.64049e-06
8.46268e-06
2.44314e-05
2.4431e-05
1.63986e-06
8.46417e-06
1.64029e-06
8.46376e-06
3.41004e-07
3.41005e-07
3.41004e-07
3.41e-07
3.41001e-07
3.41003e-07
3.41002e-07
5.84701e-07
1.31542e-06
3.46819e-07
3.60255e-07
5.84831e-07
1.31479e-06
3.46821e-07
2.4432e-05
2.44314e-05
5.84727e-07
3.46821e-07
1.31534e-06
3.60263e-07
5.84858e-07
3.46822e-07
1.31475e-06
2.7295e-06
2.73009e-06
3.8706e-07
2.72905e-06
2.72965e-06
1.64001e-06
8.46305e-06
1.64049e-06
8.46267e-06
2.44314e-05
2.4431e-05
1.63986e-06
8.46416e-06
1.64028e-06
8.46376e-06
3.41003e-07
3.41005e-07
3.41004e-07
3.41e-07
3.41001e-07
3.41003e-07
3.41002e-07
5.84701e-07
1.31542e-06
3.46819e-07
3.60255e-07
5.8483e-07
1.31479e-06
3.46821e-07
2.4432e-05
2.44314e-05
5.84722e-07
3.4682e-07
1.31534e-06
3.60263e-07
5.84852e-07
3.46822e-07
1.31475e-06
2.7295e-06
2.73009e-06
3.87061e-07
2.72905e-06
2.72965e-06
1.64001e-06
8.46305e-06
1.64049e-06
8.46267e-06
2.44314e-05
2.4431e-05
1.63986e-06
8.46416e-06
1.64028e-06
8.46376e-06
3.41003e-07
3.41005e-07
3.41004e-07
3.41e-07
3.41001e-07
3.41003e-07
3.41002e-07
5.847e-07
1.31542e-06
3.46818e-07
3.60255e-07
5.8483e-07
1.31479e-06
3.46821e-07
2.4432e-05
2.44314e-05
5.84722e-07
3.4682e-07
1.31534e-06
3.60262e-07
5.8485e-07
3.46822e-07
1.31475e-06
2.7295e-06
2.73009e-06
3.87059e-07
2.72905e-06
2.72965e-06
1.64001e-06
8.46305e-06
1.64049e-06
8.46267e-06
2.44314e-05
2.4431e-05
1.63986e-06
8.46416e-06
1.64028e-06
8.46376e-06
3.41003e-07
3.41005e-07
3.41004e-07
3.41e-07
3.41001e-07
3.41003e-07
3.41002e-07
5.847e-07
1.31542e-06
3.46819e-07
3.60255e-07
5.8483e-07
1.31479e-06
3.46821e-07
2.4432e-05
2.44314e-05
5.84733e-07
3.4682e-07
1.31534e-06
3.60262e-07
5.84858e-07
3.46822e-07
1.31475e-06
2.7295e-06
2.73009e-06
3.87059e-07
2.72905e-06
2.72965e-06
1.64001e-06
8.46305e-06
1.64049e-06
8.46267e-06
2.44314e-05
2.4431e-05
1.63986e-06
8.46416e-06
1.64028e-06
8.46376e-06
3.41003e-07
3.41005e-07
3.41004e-07
3.41e-07
3.41001e-07
3.41003e-07
3.41002e-07
5.847e-07
1.31542e-06
3.46818e-07
3.60255e-07
5.8483e-07
1.31479e-06
3.4682e-07
2.4432e-05
2.44314e-05
5.8474e-07
3.4682e-07
1.31534e-06
3.60262e-07
5.84868e-07
3.46822e-07
1.31475e-06
2.7295e-06
2.73009e-06
3.87059e-07
2.72905e-06
2.72965e-06
1.64001e-06
8.46305e-06
1.64049e-06
8.46267e-06
2.44314e-05
2.4431e-05
1.63986e-06
8.46416e-06
1.64028e-06
8.46376e-06
3.41003e-07
3.41005e-07
3.41004e-07
3.41e-07
3.41001e-07
3.41003e-07
3.41002e-07
5.847e-07
1.31542e-06
3.46818e-07
3.60255e-07
5.8483e-07
1.31479e-06
3.46821e-07
2.4432e-05
2.44314e-05
5.84742e-07
3.4682e-07
1.31534e-06
3.60262e-07
5.84871e-07
3.46822e-07
1.31475e-06
2.7295e-06
2.73009e-06
3.87059e-07
2.72905e-06
2.72965e-06
1.64001e-06
8.46305e-06
1.64049e-06
8.46267e-06
2.44314e-05
2.4431e-05
1.63986e-06
8.46416e-06
1.64028e-06
8.46376e-06
3.41003e-07
3.41005e-07
3.41004e-07
3.41e-07
3.41001e-07
3.41003e-07
3.41002e-07
5.847e-07
1.31542e-06
3.46818e-07
3.60255e-07
5.8483e-07
1.31479e-06
3.4682e-07
2.4432e-05
2.44314e-05
5.84741e-07
3.4682e-07
1.31534e-06
3.60262e-07
5.84873e-07
3.46822e-07
1.31475e-06
2.7295e-06
2.73009e-06
3.87059e-07
2.72905e-06
2.72965e-06
1.64001e-06
8.46305e-06
1.64049e-06
8.46267e-06
2.44314e-05
2.4431e-05
1.63986e-06
8.46416e-06
1.64028e-06
8.46376e-06
3.41003e-07
3.41005e-07
3.41004e-07
3.41e-07
3.41001e-07
3.41003e-07
3.41002e-07
5.847e-07
1.31542e-06
3.46818e-07
3.60255e-07
5.8483e-07
1.31479e-06
3.4682e-07
2.4432e-05
2.44314e-05
5.84739e-07
3.4682e-07
1.31534e-06
3.60262e-07
5.8487e-07
3.46822e-07
1.31475e-06
2.7295e-06
2.73009e-06
3.87059e-07
2.72905e-06
2.72965e-06
1.64001e-06
8.46305e-06
1.64049e-06
8.46267e-06
2.44314e-05
2.4431e-05
1.63986e-06
8.46416e-06
1.64029e-06
8.46376e-06
3.41003e-07
3.41005e-07
3.41004e-07
3.41e-07
3.41001e-07
3.41003e-07
3.41002e-07
5.847e-07
1.31542e-06
3.46818e-07
3.60255e-07
5.8483e-07
1.31479e-06
3.46821e-07
2.4432e-05
2.44314e-05
5.84737e-07
3.4682e-07
1.31534e-06
3.60262e-07
5.84868e-07
3.46822e-07
1.31475e-06
2.7295e-06
2.73009e-06
3.87059e-07
2.72905e-06
2.72965e-06
1.64001e-06
8.46305e-06
1.64049e-06
8.46267e-06
2.44314e-05
2.4431e-05
1.63986e-06
8.46416e-06
1.64029e-06
8.46376e-06
3.41003e-07
3.41005e-07
3.41004e-07
3.41e-07
3.41001e-07
3.41003e-07
3.41002e-07
5.847e-07
1.31542e-06
3.46819e-07
3.60255e-07
5.8483e-07
1.31479e-06
3.46821e-07
2.4432e-05
2.44314e-05
5.84737e-07
3.4682e-07
1.31534e-06
3.60262e-07
5.84868e-07
3.46822e-07
1.31475e-06
2.7295e-06
2.73009e-06
3.87059e-07
2.72905e-06
2.72965e-06
1.64001e-06
8.46305e-06
1.64049e-06
8.46267e-06
2.44314e-05
2.4431e-05
1.63986e-06
8.46416e-06
1.64028e-06
8.46376e-06
3.41003e-07
3.41005e-07
3.41004e-07
3.41002e-07
3.41008e-07
3.41003e-07
3.41005e-07
5.847e-07
1.31542e-06
3.46818e-07
3.60254e-07
5.8483e-07
1.31479e-06
3.4682e-07
2.4432e-05
2.44314e-05
5.84736e-07
3.4682e-07
1.31534e-06
3.60262e-07
5.84866e-07
3.46822e-07
1.31475e-06
2.7295e-06
2.73009e-06
3.87059e-07
2.72905e-06
2.72964e-06
8.46416e-06
1.64028e-06
3.41008e-07
2.4432e-05
1.31534e-06
2.44328e-05
2.44346e-05
2.7288e-06
2.72939e-06
8.46026e-06
1.6396e-06
8.46094e-06
1.63961e-06
1.31443e-06
3.46989e-07
5.84727e-07
1.31456e-06
3.46989e-07
5.84727e-07
2.44339e-05
2.72926e-06
2.72892e-06
2.44309e-05
8.46133e-06
1.63949e-06
1.31473e-06
3.46991e-07
5.84739e-07
1.63989e-06
8.46156e-06
8.46244e-06
1.63961e-06
5.84858e-07
3.60431e-07
3.46991e-07
1.31484e-06
3.46991e-07
1.31539e-06
5.84742e-07
5.84854e-07
1.31453e-06
3.46985e-07
3.46985e-07
5.84734e-07
1.64013e-06
8.46058e-06
1.63971e-06
5.84858e-07
3.60422e-07
3.46988e-07
1.31454e-06
3.46988e-07
1.31506e-06
5.84739e-07
1.64013e-06
8.46134e-06
8.46218e-06
1.6397e-06
2.44326e-05
2.44358e-05
3.87375e-07
2.72972e-06
2.72892e-06
2.73e-06
2.72926e-06
2.44322e-05
2.44352e-05
5.84884e-07
3.60411e-07
3.46988e-07
1.31454e-06
3.46988e-07
1.31505e-06
5.84759e-07
5.84856e-07
3.60411e-07
3.46989e-07
1.31467e-06
3.46989e-07
1.31519e-06
5.84741e-07
1.64017e-06
8.46149e-06
8.46232e-06
1.63974e-06
1.6399e-06
8.46188e-06
8.46271e-06
1.63962e-06
3.87373e-07
2.72893e-06
2.72953e-06
2.72929e-06
2.72985e-06
2.44324e-05
2.44354e-05
2.44334e-05
2.44363e-05
2.44325e-05
2.44298e-05
2.44343e-05
2.44316e-05
2.72923e-06
2.72984e-06
3.87173e-07
2.72884e-06
2.72946e-06
2.4428e-05
2.44299e-05
2.44298e-05
2.44317e-05
3.87391e-07
2.7289e-06
2.72953e-06
2.72925e-06
2.72988e-06
1.63975e-06
8.46119e-06
1.6401e-06
8.46071e-06
5.84744e-07
1.31502e-06
3.46989e-07
3.6042e-07
5.84862e-07
1.3145e-06
3.46988e-07
5.84744e-07
1.31517e-06
3.46989e-07
3.60423e-07
5.84862e-07
1.31464e-06
3.46988e-07
1.64021e-06
8.45975e-06
8.46018e-06
1.63979e-06
1.64023e-06
8.46049e-06
8.46092e-06
1.6398e-06
5.84881e-07
3.60419e-07
1.31454e-06
3.46986e-07
1.31508e-06
3.46986e-07
5.84761e-07
5.84881e-07
3.60422e-07
1.31468e-06
3.46986e-07
1.31523e-06
3.46986e-07
5.84761e-07
2.72978e-06
2.72946e-06
3.87166e-07
2.72941e-06
2.72892e-06
2.44311e-05
2.44281e-05
2.44291e-05
2.4431e-05
3.87384e-07
2.72949e-06
2.72901e-06
2.72984e-06
2.72942e-06
2.44263e-05
2.44284e-05
5.84762e-07
1.31536e-06
3.4699e-07
3.60409e-07
5.84873e-07
1.3148e-06
3.46991e-07
1.63969e-06
8.46179e-06
1.64005e-06
8.46131e-06
5.84761e-07
3.46995e-07
1.31547e-06
3.60434e-07
5.84878e-07
3.46995e-07
1.31488e-06
1.64007e-06
8.46083e-06
8.46128e-06
1.63966e-06
5.84895e-07
3.60409e-07
1.31484e-06
3.4699e-07
1.31542e-06
3.4699e-07
5.84776e-07
1.64008e-06
8.46114e-06
8.46157e-06
1.63965e-06
5.84894e-07
3.60433e-07
3.46994e-07
1.31491e-06
3.46993e-07
1.3155e-06
5.84772e-07
1.63982e-06
8.46086e-06
1.64019e-06
8.46036e-06
5.84757e-07
3.46992e-07
1.31514e-06
3.60426e-07
5.84873e-07
3.46992e-07
1.31459e-06
1.63979e-06
8.46154e-06
1.64018e-06
8.46109e-06
5.84887e-07
3.60409e-07
1.31464e-06
3.46989e-07
1.31522e-06
3.46989e-07
5.84764e-07
1.64027e-06
8.46017e-06
8.46061e-06
1.63981e-06
5.8489e-07
3.60424e-07
3.46991e-07
1.31462e-06
3.46991e-07
1.31518e-06
5.84771e-07
1.64025e-06
8.46092e-06
8.46132e-06
1.6398e-06
2.73021e-06
2.72932e-06
3.8718e-07
2.72973e-06
2.72893e-06
2.44322e-05
2.443e-05
2.4429e-05
2.44308e-05
3.87397e-07
2.72982e-06
2.72901e-06
2.73024e-06
2.72936e-06
2.44286e-05
2.44302e-05
5.84759e-07
3.46993e-07
1.31527e-06
3.60415e-07
5.84875e-07
3.46993e-07
1.31472e-06
1.63985e-06
8.46169e-06
1.64023e-06
8.46124e-06
1.63969e-06
8.46208e-06
1.64005e-06
8.46163e-06
5.84919e-07
3.60415e-07
3.4699e-07
1.31461e-06
3.46991e-07
1.31517e-06
5.84792e-07
5.84891e-07
3.60414e-07
3.46992e-07
1.31475e-06
3.46992e-07
1.31531e-06
5.8477e-07
1.6403e-06
8.46107e-06
8.46146e-06
1.63983e-06
1.64008e-06
8.46146e-06
8.46186e-06
1.63965e-06
2.44324e-05
2.44302e-05
2.44333e-05
2.44312e-05
3.87395e-07
2.72903e-06
2.72963e-06
2.72938e-06
2.72997e-06
2.44288e-05
2.44304e-05
2.44298e-05
2.44314e-05
2.44283e-05
2.44269e-05
2.443e-05
2.44287e-05
2.72932e-06
2.72995e-06
3.8718e-07
2.72897e-06
2.7296e-06
2.44265e-05
2.44274e-05
2.44283e-05
2.44292e-05
3.87399e-07
2.72902e-06
2.72964e-06
2.72939e-06
2.73002e-06
1.63977e-06
8.46072e-06
1.64024e-06
8.46035e-06
5.84771e-07
1.31512e-06
3.4699e-07
3.60423e-07
5.84895e-07
1.31456e-06
3.4699e-07
5.84771e-07
1.31527e-06
3.4699e-07
3.60426e-07
5.84896e-07
1.3147e-06
3.4699e-07
1.6402e-06
8.45952e-06
8.45986e-06
1.63974e-06
1.64021e-06
8.46025e-06
8.4606e-06
1.63976e-06
5.84905e-07
3.60422e-07
1.31457e-06
3.46989e-07
1.31514e-06
3.46989e-07
5.84778e-07
5.84905e-07
3.60426e-07
1.31471e-06
3.46989e-07
1.31529e-06
3.46989e-07
5.84779e-07
2.72993e-06
2.72952e-06
3.87173e-07
2.72957e-06
2.7291e-06
2.44267e-05
2.44252e-05
2.44276e-05
2.44285e-05
3.87392e-07
2.72962e-06
2.72916e-06
2.73e-06
2.72961e-06
2.44247e-05
2.44258e-05
5.84782e-07
1.31545e-06
3.46994e-07
3.60413e-07
5.84906e-07
1.31486e-06
3.46994e-07
1.63962e-06
8.46141e-06
1.64004e-06
8.46103e-06
5.8478e-07
3.46997e-07
1.31553e-06
3.60437e-07
5.84904e-07
3.46997e-07
1.31493e-06
1.64e-06
8.46059e-06
8.46097e-06
1.6396e-06
5.84911e-07
3.60413e-07
1.31486e-06
3.4699e-07
1.31547e-06
3.46992e-07
5.84785e-07
1.64001e-06
8.46096e-06
8.46131e-06
1.6396e-06
5.84911e-07
3.60436e-07
3.46993e-07
1.31493e-06
3.46996e-07
1.31554e-06
5.84782e-07
1.63979e-06
8.46043e-06
1.64025e-06
8.46003e-06
5.84781e-07
3.46994e-07
1.31521e-06
3.60429e-07
5.84904e-07
3.46994e-07
1.31464e-06
1.63978e-06
8.46116e-06
1.64024e-06
8.4608e-06
5.84904e-07
3.60412e-07
1.31468e-06
3.4699e-07
1.31528e-06
3.46992e-07
5.84775e-07
1.64023e-06
8.45993e-06
8.46031e-06
1.63976e-06
5.84912e-07
3.60427e-07
3.46991e-07
1.31464e-06
3.46993e-07
1.31522e-06
5.84782e-07
1.64023e-06
8.46072e-06
8.46105e-06
1.63976e-06
2.73033e-06
2.72942e-06
3.87188e-07
2.7299e-06
2.72907e-06
2.4429e-05
2.4428e-05
2.44282e-05
2.4429e-05
3.87406e-07
2.72993e-06
2.7291e-06
2.73039e-06
2.72948e-06
2.44278e-05
2.44285e-05
5.84779e-07
3.46995e-07
1.31534e-06
3.60418e-07
5.84902e-07
3.46995e-07
1.31476e-06
1.63981e-06
8.46131e-06
1.64028e-06
8.46095e-06
1.63963e-06
8.4617e-06
1.64004e-06
8.46135e-06
5.84937e-07
3.60418e-07
3.4699e-07
1.31463e-06
3.46992e-07
1.3152e-06
5.84803e-07
5.8491e-07
3.60416e-07
3.46992e-07
1.31476e-06
3.46994e-07
1.31535e-06
5.84781e-07
1.64026e-06
8.46086e-06
8.4612e-06
1.63979e-06
1.64002e-06
8.46127e-06
8.4616e-06
1.63961e-06
2.44292e-05
2.44282e-05
2.44302e-05
2.44291e-05
3.87404e-07
2.72912e-06
2.72972e-06
2.7295e-06
2.7301e-06
2.4428e-05
2.44287e-05
2.4429e-05
2.44296e-05
2.44271e-05
2.44266e-05
2.44289e-05
2.44284e-05
2.72941e-06
2.73005e-06
3.87186e-07
2.72904e-06
2.72967e-06
2.44273e-05
2.44273e-05
2.44292e-05
2.44291e-05
3.87404e-07
2.72899e-06
2.72962e-06
2.72943e-06
2.73006e-06
1.63975e-06
8.4605e-06
1.64019e-06
8.46019e-06
5.84776e-07
1.31514e-06
3.46989e-07
3.60426e-07
5.84909e-07
1.31457e-06
3.46988e-07
5.84777e-07
1.31529e-06
3.46989e-07
3.60429e-07
5.8491e-07
1.31471e-06
3.46987e-07
1.64017e-06
8.45958e-06
8.45975e-06
1.63971e-06
1.64019e-06
8.46026e-06
8.46046e-06
1.63973e-06
5.84906e-07
3.60425e-07
1.31457e-06
3.46984e-07
1.31514e-06
3.46985e-07
5.84772e-07
5.84907e-07
3.60427e-07
1.31471e-06
3.46983e-07
1.31529e-06
3.46984e-07
5.84773e-07
2.73003e-06
2.72965e-06
3.87178e-07
2.72964e-06
2.72919e-06
2.44255e-05
2.44249e-05
2.44285e-05
2.44284e-05
3.87396e-07
2.72959e-06
2.72916e-06
2.73005e-06
2.72967e-06
2.44257e-05
2.44257e-05
5.84781e-07
1.31547e-06
3.46989e-07
3.60417e-07
5.84912e-07
1.31486e-06
3.46988e-07
1.6396e-06
8.46126e-06
1.63999e-06
8.46095e-06
5.84779e-07
3.46992e-07
1.31554e-06
3.60436e-07
5.84912e-07
3.4699e-07
1.31493e-06
1.63998e-06
8.46062e-06
8.46083e-06
1.63958e-06
5.84908e-07
3.60415e-07
1.31487e-06
3.46986e-07
1.31547e-06
3.46986e-07
5.84781e-07
1.63998e-06
8.4613e-06
8.46129e-06
1.63961e-06
5.84907e-07
3.60434e-07
3.46988e-07
1.31499e-06
3.46988e-07
1.31554e-06
5.84782e-07
1.63976e-06
8.46021e-06
1.64021e-06
8.45988e-06
5.84776e-07
3.4699e-07
1.31521e-06
3.60428e-07
5.84911e-07
3.46988e-07
1.31463e-06
1.63976e-06
8.46099e-06
1.6402e-06
8.4607e-06
5.849e-07
3.60411e-07
1.31469e-06
3.46983e-07
1.31529e-06
3.46984e-07
5.84778e-07
1.64019e-06
8.45988e-06
8.46017e-06
1.63977e-06
5.84903e-07
3.60426e-07
3.46985e-07
1.31469e-06
3.46985e-07
1.31521e-06
5.84781e-07
1.64019e-06
8.46102e-06
8.461e-06
1.63977e-06
2.73042e-06
2.72951e-06
3.87193e-07
2.72992e-06
2.72909e-06
2.44285e-05
2.4428e-05
2.44299e-05
2.44295e-05
3.8741e-07
2.72996e-06
2.72913e-06
2.73037e-06
2.72946e-06
2.44295e-05
2.44289e-05
5.84773e-07
3.4699e-07
1.31535e-06
3.60417e-07
5.84908e-07
3.46988e-07
1.31476e-06
1.63979e-06
8.46113e-06
1.64024e-06
8.46084e-06
1.6396e-06
8.46153e-06
1.63999e-06
8.46124e-06
5.84927e-07
3.60413e-07
3.46984e-07
1.31468e-06
3.46984e-07
1.3152e-06
5.848e-07
5.849e-07
3.60415e-07
3.46985e-07
1.31482e-06
3.46986e-07
1.31534e-06
5.84778e-07
1.64023e-06
8.46115e-06
8.46113e-06
1.6398e-06
1.63998e-06
8.46157e-06
8.46154e-06
1.63962e-06
2.44287e-05
2.44282e-05
2.44296e-05
2.44292e-05
3.87408e-07
2.72915e-06
2.72976e-06
2.72948e-06
2.73008e-06
2.44297e-05
2.44291e-05
2.44306e-05
2.44301e-05
2.44284e-05
2.44292e-05
2.44302e-05
2.4431e-05
2.72941e-06
2.73005e-06
3.87184e-07
2.72922e-06
2.72985e-06
2.44303e-05
2.44302e-05
2.4432e-05
2.4432e-05
3.874e-07
2.72942e-06
2.73004e-06
2.72973e-06
2.73036e-06
1.6399e-06
8.46063e-06
1.64018e-06
8.46097e-06
5.84795e-07
1.31517e-06
3.46983e-07
3.60421e-07
5.84906e-07
1.31472e-06
3.4698e-07
5.84793e-07
1.31531e-06
3.46982e-07
3.60423e-07
5.84907e-07
1.31485e-06
3.4698e-07
1.64049e-06
8.46239e-06
8.46108e-06
1.64023e-06
1.64048e-06
8.46297e-06
8.46163e-06
1.64022e-06
5.84934e-07
3.60412e-07
1.31487e-06
3.46948e-07
1.31536e-06
3.46972e-07
5.84794e-07
5.84932e-07
3.60415e-07
1.31499e-06
3.46948e-07
1.3155e-06
3.46972e-07
5.84792e-07
2.73003e-06
2.72969e-06
3.87178e-07
2.72981e-06
2.72939e-06
2.4427e-05
2.44277e-05
2.44314e-05
2.44313e-05
3.87394e-07
2.73001e-06
2.72955e-06
2.73034e-06
2.72997e-06
2.44284e-05
2.44287e-05
5.84804e-07
1.31551e-06
3.46985e-07
3.60411e-07
5.84914e-07
1.31502e-06
3.46983e-07
1.63992e-06
8.46181e-06
1.64006e-06
8.46256e-06
5.84807e-07
3.46986e-07
1.31565e-06
3.60424e-07
5.84918e-07
3.4698e-07
1.31517e-06
1.64032e-06
8.46345e-06
8.46221e-06
1.64007e-06
5.84937e-07
3.60402e-07
1.31517e-06
3.46942e-07
1.3157e-06
3.46972e-07
5.84789e-07
1.64043e-06
8.4641e-06
8.46359e-06
1.64008e-06
5.84938e-07
3.604e-07
3.46918e-07
1.31521e-06
3.46959e-07
1.31583e-06
5.84778e-07
1.64011e-06
8.46027e-06
1.64029e-06
8.46061e-06
5.84804e-07
3.46983e-07
1.31532e-06
3.60415e-07
5.84918e-07
3.46975e-07
1.31487e-06
1.6401e-06
8.46148e-06
1.64029e-06
8.4623e-06
5.84931e-07
3.60395e-07
1.31495e-06
3.46919e-07
1.31549e-06
3.46958e-07
5.84767e-07
1.64066e-06
8.46262e-06
8.46141e-06
1.64024e-06
5.84931e-07
3.60391e-07
3.46909e-07
1.31491e-06
3.46951e-07
1.31549e-06
5.84767e-07
1.64066e-06
8.46384e-06
8.46333e-06
1.64023e-06
2.73055e-06
2.72963e-06
3.87188e-07
2.73026e-06
2.72943e-06
2.44305e-05
2.44311e-05
2.44318e-05
2.44325e-05
3.874e-07
2.73023e-06
2.72937e-06
2.73082e-06
2.72989e-06
2.44314e-05
2.44319e-05
5.84801e-07
3.46983e-07
1.31545e-06
3.60404e-07
5.84915e-07
3.46975e-07
1.315e-06
1.64013e-06
8.46161e-06
1.64033e-06
8.46245e-06
1.63994e-06
8.46202e-06
1.64008e-06
8.46287e-06
5.84961e-07
3.60379e-07
3.46907e-07
1.3149e-06
3.46948e-07
1.31548e-06
5.84788e-07
5.84927e-07
3.6038e-07
3.46907e-07
1.31504e-06
3.4695e-07
1.31563e-06
5.84763e-07
1.64069e-06
8.464e-06
8.46349e-06
1.64024e-06
1.64045e-06
8.46442e-06
8.46391e-06
1.64006e-06
2.44307e-05
2.44313e-05
2.44316e-05
2.44323e-05
3.87397e-07
2.7294e-06
2.73e-06
2.72992e-06
2.73052e-06
2.44316e-05
2.44321e-05
2.44325e-05
2.4433e-05
2.44309e-05
2.44301e-05
2.44326e-05
2.44319e-05
2.7298e-06
2.73042e-06
3.87091e-07
2.72917e-06
2.72979e-06
2.44299e-05
2.44306e-05
2.44317e-05
2.44324e-05
3.87294e-07
2.72901e-06
2.72963e-06
2.72952e-06
2.73014e-06
1.64016e-06
8.46357e-06
1.6407e-06
8.46346e-06
5.84736e-07
1.31545e-06
3.46905e-07
3.60315e-07
5.84915e-07
1.31481e-06
3.4687e-07
5.84735e-07
1.31559e-06
3.46905e-07
3.60317e-07
5.84913e-07
1.31494e-06
3.4687e-07
1.64057e-06
8.46275e-06
8.46307e-06
1.64005e-06
1.64058e-06
8.46341e-06
8.46372e-06
1.64006e-06
5.84857e-07
3.60289e-07
1.31473e-06
3.46826e-07
1.31536e-06
3.46841e-07
5.84707e-07
5.84857e-07
3.60292e-07
1.31486e-06
3.46826e-07
1.3155e-06
3.46841e-07
5.84707e-07
2.73041e-06
2.73003e-06
3.87083e-07
2.72976e-06
2.72933e-06
2.44292e-05
2.44283e-05
2.4431e-05
2.44317e-05
3.87286e-07
2.72959e-06
2.72912e-06
2.73012e-06
2.72976e-06
2.44282e-05
2.4429e-05
5.84733e-07
1.31578e-06
3.46898e-07
3.60304e-07
5.84908e-07
1.3151e-06
3.46865e-07
1.63997e-06
8.46444e-06
1.64047e-06
8.46414e-06
5.84727e-07
3.46879e-07
1.31581e-06
3.60303e-07
5.84896e-07
3.46853e-07
1.31512e-06
1.64035e-06
8.46383e-06
8.46418e-06
1.6399e-06
5.84855e-07
3.60278e-07
1.31502e-06
3.46826e-07
1.31569e-06
3.46839e-07
5.84711e-07
1.64034e-06
8.46408e-06
8.46442e-06
1.6399e-06
5.8485e-07
3.60286e-07
3.46825e-07
1.31507e-06
3.46832e-07
1.31572e-06
5.84708e-07
1.64012e-06
8.46326e-06
1.64067e-06
8.46314e-06
5.84722e-07
3.46871e-07
1.31547e-06
3.60294e-07
5.84884e-07
3.46846e-07
1.31482e-06
1.64011e-06
8.46415e-06
1.64066e-06
8.46388e-06
5.84842e-07
3.6027e-07
1.31482e-06
3.46821e-07
1.31548e-06
3.46831e-07
5.84701e-07
1.64054e-06
8.46309e-06
8.46344e-06
1.64005e-06
5.84845e-07
3.60277e-07
3.46822e-07
1.31477e-06
3.46828e-07
1.31539e-06
5.84706e-07
1.64054e-06
8.46382e-06
8.46413e-06
1.64005e-06
2.73066e-06
2.72971e-06
3.8707e-07
2.72996e-06
2.72913e-06
2.44319e-05
2.44311e-05
2.44315e-05
2.44323e-05
3.87277e-07
2.72986e-06
2.72905e-06
2.73041e-06
2.7295e-06
2.4431e-05
2.44317e-05
5.84718e-07
3.4687e-07
1.3156e-06
3.60283e-07
5.84879e-07
3.46846e-07
1.31495e-06
1.64011e-06
8.46432e-06
1.64067e-06
8.46404e-06
1.63993e-06
8.46473e-06
1.64044e-06
8.46445e-06
5.84868e-07
3.60268e-07
3.46821e-07
1.31476e-06
3.46828e-07
1.31537e-06
5.84724e-07
5.8484e-07
3.60266e-07
3.46822e-07
1.3149e-06
3.46828e-07
1.31551e-06
5.84701e-07
1.64055e-06
8.46398e-06
8.46429e-06
1.64006e-06
1.6403e-06
8.46439e-06
8.4647e-06
1.63987e-06
2.44321e-05
2.44314e-05
2.44331e-05
2.44323e-05
3.87275e-07
2.72908e-06
2.72967e-06
2.72954e-06
2.73012e-06
2.44313e-05
2.44319e-05
2.44322e-05
2.44328e-05
2.44305e-05
2.44299e-05
2.44323e-05
2.44317e-05
2.72939e-06
2.73002e-06
3.87045e-07
2.72897e-06
2.7296e-06
2.44298e-05
2.44304e-05
2.44316e-05
2.44323e-05
3.87266e-07
2.72896e-06
2.72959e-06
2.72937e-06
2.73e-06
1.64003e-06
8.46367e-06
1.6405e-06
8.46337e-06
5.847e-07
1.31529e-06
3.46823e-07
3.60271e-07
5.84836e-07
1.3147e-06
3.46822e-07
5.847e-07
1.31544e-06
3.46823e-07
3.60274e-07
5.84836e-07
1.31484e-06
3.46823e-07
1.64047e-06
8.46268e-06
8.46296e-06
1.64002e-06
1.64048e-06
8.46336e-06
8.46364e-06
1.64002e-06
5.84832e-07
3.60269e-07
1.31469e-06
3.4682e-07
1.31527e-06
3.4682e-07
5.84701e-07
5.84832e-07
3.60272e-07
1.31483e-06
3.46821e-07
1.31542e-06
3.46821e-07
5.84701e-07
2.73e-06
2.7296e-06
3.87039e-07
2.72956e-06
2.72908e-06
2.44289e-05
2.44281e-05
2.44309e-05
2.44316e-05
3.87259e-07
2.72955e-06
2.72908e-06
2.72998e-06
2.72957e-06
2.44281e-05
2.44289e-05
5.84706e-07
1.31563e-06
3.46823e-07
3.60261e-07
5.84837e-07
1.315e-06
3.46823e-07
1.63988e-06
8.46437e-06
1.64029e-06
8.46405e-06
5.84704e-07
3.46826e-07
1.31568e-06
3.60282e-07
5.84837e-07
3.46825e-07
1.31506e-06
1.64027e-06
8.46377e-06
8.46407e-06
1.63986e-06
5.84834e-07
3.60259e-07
1.31499e-06
3.46821e-07
1.31561e-06
3.46821e-07
5.84707e-07
1.64028e-06
8.46404e-06
8.46434e-06
1.63987e-06
5.84835e-07
3.6028e-07
3.46824e-07
1.31505e-06
3.46824e-07
1.31567e-06
5.84705e-07
1.64004e-06
8.46338e-06
1.6405e-06
8.46305e-06
5.84704e-07
3.46823e-07
1.31535e-06
3.60273e-07
5.84834e-07
3.46823e-07
1.31476e-06
1.64004e-06
8.46408e-06
1.6405e-06
8.4638e-06
5.84831e-07
3.60255e-07
1.3148e-06
3.4682e-07
1.31541e-06
3.46821e-07
5.84701e-07
1.64049e-06
8.46304e-06
8.46335e-06
1.64004e-06
5.84834e-07
3.60272e-07
3.46821e-07
1.31476e-06
3.46821e-07
1.31534e-06
5.84706e-07
1.64049e-06
8.46379e-06
8.46407e-06
1.64004e-06
2.73035e-06
2.72945e-06
3.87058e-07
2.72984e-06
2.72904e-06
2.44316e-05
2.4431e-05
2.44314e-05
2.44322e-05
3.87278e-07
2.72984e-06
2.72903e-06
2.73034e-06
2.72944e-06
2.4431e-05
2.44316e-05
5.847e-07
3.46824e-07
1.31548e-06
3.60262e-07
5.84829e-07
3.46824e-07
1.31489e-06
1.64005e-06
8.46424e-06
1.64051e-06
8.46395e-06
1.63986e-06
8.46464e-06
1.64027e-06
8.46435e-06
5.84857e-07
3.60263e-07
3.46821e-07