/*--------------------------------*- C++ -*----------------------------------*\
| =========                 |                                                 |
| \\      /  F ield         | OpenFOAM: The Open Source CFD Toolbox           |
|  \\    /   O peration     | Version:  2206                                  |
|   \\  /    A nd           | Website:  www.openfoam.com                      |
|    \\/     M anipulation  |                                                 |
\*---------------------------------------------------------------------------*/
FoamFile
{
    version     2.0;
    format      ascii;
    arch        "LSB;label=32;scalar=64";
    class       volScalarField;
    location    "19";
    object      nut;
}
// * * * * * * * * * * * * * * * * * * * * * * * * * * * * * * * * * * * * * //

dimensions      [0 2 -1 0 0 0 0];

internalField   nonuniform List<scalar> 
28448
(
0.000227049
0.000211181
0.000211174
0.000191957
0.000227049
0.000211181
0.00021117
0.000191955
0.000227049
0.000211178
0.00021117
0.000191954
0.000227047
0.000211174
0.000211165
0.000191942
0.00022702
0.000211127
0.000211118
0.000191868
0.00022703
0.000211127
0.000211122
0.000191881
0.000227031
0.000211128
0.000211123
0.000191872
0.000227031
0.000211129
0.000211123
0.000191876
0.000227031
0.000211129
0.000211123
0.000191876
0.000227031
0.000211129
0.000211123
0.000191876
0.000227031
0.000211129
0.000211123
0.000191875
0.000227031
0.000211129
0.000211123
0.000191875
0.000227031
0.000211129
0.000211123
0.000191875
0.000227031
0.000211129
0.000211123
0.000191875
0.000227031
0.000211129
0.000211123
0.000191875
0.000227031
0.000211129
0.000211123
0.000191875
0.000227031
0.000211129
0.000211123
0.000191875
0.000227033
0.000211125
0.000192103
0.000211169
0.000211167
0.000192106
0.000211177
0.000211159
0.000211181
0.000211167
0.000192093
0.000211174
0.000211175
0.000192097
0.000191964
0.000192097
0.000211169
0.000211166
0.000211168
0.000211166
0.000191967
0.0001921
0.000211177
0.00021116
0.000211177
0.00021116
0.000211168
0.000211181
0.000211167
0.000191956
0.00019209
0.000211176
0.00021117
0.000211175
0.000192094
0.000191959
0.000192095
0.000211168
0.000211165
0.000211168
0.000211166
0.000191963
0.000192099
0.000211176
0.000211159
0.000211176
0.000211157
0.000211167
0.000211179
0.000211165
0.000191952
0.000192088
0.000211175
0.00021117
0.000211174
0.000192093
0.000191958
0.000192093
0.000211169
0.000211166
0.000211166
0.000211163
0.000191962
0.000192095
0.000211177
0.000211156
0.000211175
0.000211154
0.000211164
0.000211176
0.000211162
0.000191951
0.000192083
0.000211173
0.000211168
0.00021117
0.000192087
0.000191955
0.000192038
0.000211164
0.000211161
0.00021113
0.000211127
0.000191956
0.000192041
0.000211173
0.000211151
0.000211137
0.000211109
0.000211159
0.000211138
0.000211116
0.000191943
0.000192015
0.000211167
0.000211124
0.000211124
0.000192018
0.000191883
0.00019202
0.000211117
0.000211115
0.000211114
0.000211112
0.000191886
0.000192023
0.000211125
0.000211104
0.000211123
0.000211107
0.000211111
0.000211126
0.000211114
0.000191868
0.000192015
0.000211119
0.000211122
0.000211123
0.00019202
0.000191884
0.000192017
0.000211117
0.000211114
0.000211117
0.000211114
0.000191887
0.00019202
0.000211125
0.000211108
0.000211125
0.000211108
0.000211116
0.000211128
0.000211115
0.000191879
0.000192008
0.000211124
0.000211123
0.000211124
0.000192012
0.000191879
0.000192017
0.000211117
0.000211114
0.000211117
0.000211115
0.000191881
0.000192021
0.000211125
0.000211108
0.000211125
0.000211108
0.000211116
0.000211129
0.000211116
0.000191871
0.000192012
0.000211124
0.000211124
0.000211124
0.000192017
0.000191881
0.000192015
0.000211118
0.000211116
0.000211117
0.000211115
0.000191884
0.000192018
0.000211126
0.000211109
0.000211125
0.000211108
0.000211117
0.000211129
0.000211116
0.000191875
0.00019201
0.000211125
0.000211124
0.000211125
0.000192015
0.000191878
0.000192016
0.000211118
0.000211116
0.000211117
0.000211115
0.000191881
0.000192019
0.000211126
0.000211109
0.000211125
0.000211108
0.000211117
0.000211129
0.000211116
0.000191873
0.00019201
0.000211125
0.000211124
0.000211125
0.000192015
0.000191879
0.000192017
0.000211118
0.000211116
0.000211117
0.000211115
0.000191882
0.00019202
0.000211126
0.000211109
0.000211126
0.000211108
0.000211117
0.000211129
0.000211116
0.000191873
0.00019201
0.000211125
0.000211124
0.000211125
0.000192015
0.000191879
0.000192017
0.000211118
0.000211116
0.000211117
0.000211115
0.000191882
0.00019202
0.000211126
0.000211109
0.000211126
0.000211108
0.000211117
0.000211129
0.000211116
0.000191873
0.00019201
0.000211125
0.000211124
0.000211125
0.000192015
0.000191879
0.000192017
0.000211118
0.000211116
0.000211117
0.000211115
0.000191882
0.00019202
0.000211126
0.000211109
0.000211126
0.000211108
0.000211117
0.000211129
0.000211116
0.000191873
0.000192011
0.000211125
0.000211124
0.000211125
0.000192015
0.000191879
0.000192017
0.000211118
0.000211116
0.000211117
0.000211115
0.000191882
0.00019202
0.000211126
0.000211109
0.000211126
0.000211108
0.000211117
0.000211129
0.000211116
0.000191873
0.000192011
0.000211125
0.000211124
0.000211125
0.000192015
0.00019188
0.000192017
0.000211118
0.000211116
0.000211117
0.000211115
0.000191882
0.00019202
0.000211126
0.000211109
0.000211125
0.000211108
0.000211117
0.000211129
0.000211116
0.000191873
0.000192011
0.000211125
0.000211124
0.000211125
0.000192015
0.000191879
0.000192017
0.000211118
0.000211116
0.000211117
0.000211115
0.000191882
0.00019202
0.000211126
0.000211109
0.000211126
0.000211108
0.000211117
0.000211129
0.000211116
0.000191873
0.00019201
0.000211125
0.000211124
0.000211124
0.000192015
0.000191879
0.000192017
0.000211118
0.000211116
0.000211117
0.000211115
0.000191882
0.00019202
0.000211126
0.000211109
0.000211126
0.000211108
0.000211117
0.000211129
0.000211116
0.000191873
0.000192011
0.000211125
0.000211124
0.000211124
0.000192015
0.00019188
0.000192017
0.000211118
0.000211116
0.000211119
0.000191882
0.000211126
0.000211109
0.000211125
0.000211108
0.000211117
0.000211118
0.000191873
0.000192011
0.000211125
0.000211123
0.000211126
0.000192019
0.000191885
0.000211126
0.000211109
0.000191873
0.000227049
0.00022705
0.000227047
0.000227048
5.05612e-05
4.87275e-05
5.05537e-05
4.87264e-05
2.59334e-05
2.59324e-05
5.05666e-05
4.87232e-05
5.05608e-05
4.8722e-05
0.00022705
0.000227048
0.000227049
0.000227049
0.00022705
0.000227047
0.000227048
0.000120996
6.15232e-05
0.000221836
0.000211182
0.00012097
6.15424e-05
0.000221836
2.59303e-05
2.59295e-05
0.000120989
0.000221833
6.15242e-05
0.000211173
0.000120963
0.000221832
6.15424e-05
3.62855e-05
3.62789e-05
0.000192096
3.62939e-05
3.62873e-05
5.05673e-05
4.87266e-05
5.05542e-05
4.87257e-05
2.59318e-05
2.59314e-05
5.05758e-05
4.87223e-05
5.05633e-05
4.87214e-05
0.000227048
0.000227047
0.000227049
0.000227049
0.000227049
0.000227046
0.000227048
0.000120997
6.15258e-05
0.000221835
0.000211179
0.000120968
6.15437e-05
0.000221833
2.59291e-05
2.59287e-05
0.000120991
0.00022183
6.15256e-05
0.00021117
0.000120961
0.00022183
6.15436e-05
3.62975e-05
3.62909e-05
0.000192094
3.63036e-05
3.62969e-05
5.05738e-05
4.87262e-05
5.05631e-05
4.87254e-05
2.59314e-05
2.59313e-05
5.05819e-05
4.87219e-05
5.05724e-05
4.87211e-05
0.00022705
0.000227046
0.000227048
0.000227048
0.000227048
0.000227045
0.000227046
0.000121004
6.15276e-05
0.000221834
0.000211177
0.000120975
6.15473e-05
0.000221834
2.59289e-05
2.59287e-05
0.000120996
0.000221831
6.15297e-05
0.00021117
0.000120967
0.000221831
6.15488e-05
3.63045e-05
3.62979e-05
0.000192093
3.63091e-05
3.63025e-05
5.0564e-05
4.87265e-05
5.05638e-05
4.8727e-05
2.59318e-05
2.59322e-05
5.05692e-05
4.87222e-05
5.0571e-05
4.87227e-05
0.000227047
0.000227043
0.000227044
0.000227023
0.000227022
0.000227019
0.000227019
0.000120978
6.15277e-05
0.000221831
0.00021117
0.000120968
6.15364e-05
0.000221825
2.59296e-05
2.59298e-05
0.000120969
0.000221827
6.15253e-05
0.000211157
0.000120958
0.00022182
6.15304e-05
3.63021e-05
3.62954e-05
0.000192062
3.63e-05
3.62933e-05
5.05289e-05
4.87321e-05
5.05312e-05
4.87317e-05
2.59327e-05
2.59325e-05
5.05352e-05
4.87278e-05
5.05359e-05
4.87274e-05
0.00022702
0.00022702
0.000227021
0.000227027
0.000227028
0.000227028
0.000227029
0.000120906
6.14932e-05
0.000221795
0.000211124
0.000120882
6.15009e-05
0.000221797
2.59301e-05
2.59298e-05
0.000120901
0.000221792
6.14895e-05
0.000211119
0.000120873
0.000221795
6.15002e-05
3.62839e-05
3.62774e-05
0.000192015
3.6282e-05
3.62753e-05
5.05236e-05
4.87323e-05
5.05149e-05
4.87315e-05
2.59326e-05
2.59324e-05
5.05312e-05
4.87281e-05
5.05232e-05
4.87272e-05
0.000227031
0.000227029
0.00022703
0.000227031
0.000227031
0.000227029
0.00022703
0.000120909
6.14767e-05
0.000221802
0.000211128
0.00012088
6.14939e-05
0.000221803
2.593e-05
2.59298e-05
0.000120902
0.000221801
6.14799e-05
0.000211123
0.000120873
0.000221801
6.14969e-05
3.62776e-05
3.62711e-05
0.000192017
3.62807e-05
3.6274e-05
5.05235e-05
4.87322e-05
5.05143e-05
4.87315e-05
2.59326e-05
2.59324e-05
5.05311e-05
4.8728e-05
5.05228e-05
4.87272e-05
0.000227031
0.000227029
0.00022703
0.000227031
0.000227031
0.000227029
0.00022703
0.000120908
6.14757e-05
0.000221802
0.000211129
0.00012088
6.14937e-05
0.000221803
2.593e-05
2.59298e-05
0.000120901
0.000221801
6.14795e-05
0.000211124
0.000120873
0.000221801
6.14968e-05
3.62776e-05
3.6271e-05
0.000192014
3.62807e-05
3.6274e-05
5.05235e-05
4.87322e-05
5.05143e-05
4.87315e-05
2.59326e-05
2.59324e-05
5.05311e-05
4.87279e-05
5.05228e-05
4.87272e-05
0.000227032
0.00022703
0.00022703
0.000227031
0.000227031
0.000227029
0.00022703
0.000120908
6.14757e-05
0.000221803
0.000211129
0.00012088
6.14937e-05
0.000221803
2.593e-05
2.59298e-05
0.000120902
0.000221801
6.14795e-05
0.000211124
0.000120874
0.000221802
6.14968e-05
3.62776e-05
3.62709e-05
0.000192014
3.62807e-05
3.6274e-05
5.05235e-05
4.87322e-05
5.05143e-05
4.87315e-05
2.59326e-05
2.59324e-05
5.05311e-05
4.87279e-05
5.05228e-05
4.87272e-05
0.000227032
0.00022703
0.00022703
0.000227031
0.000227031
0.000227029
0.00022703
0.000120908
6.14757e-05
0.000221803
0.000211129
0.00012088
6.14937e-05
0.000221803
2.593e-05
2.59298e-05
0.000120902
0.000221801
6.14795e-05
0.000211124
0.000120875
0.000221802
6.14968e-05
3.62776e-05
3.62709e-05
0.000192015
3.62807e-05
3.6274e-05
5.05235e-05
4.87322e-05
5.05143e-05
4.87315e-05
2.59326e-05
2.59324e-05
5.05311e-05
4.87279e-05
5.05228e-05
4.87272e-05
0.000227031
0.00022703
0.00022703
0.000227031
0.000227031
0.000227029
0.00022703
0.000120908
6.14757e-05
0.000221803
0.000211129
0.00012088
6.14937e-05
0.000221803
2.593e-05
2.59298e-05
0.0001209
0.000221801
6.14794e-05
0.000211124
0.000120873
0.000221802
6.14968e-05
3.62776e-05
3.62709e-05
0.000192015
3.62807e-05
3.6274e-05
5.05235e-05
4.87322e-05
5.05143e-05
4.87315e-05
2.59326e-05
2.59324e-05
5.05311e-05
4.87279e-05
5.05228e-05
4.87272e-05
0.000227031
0.00022703
0.00022703
0.000227031
0.000227031
0.000227029
0.00022703
0.000120909
6.14756e-05
0.000221803
0.000211129
0.00012088
6.14937e-05
0.000221803
2.593e-05
2.59298e-05
0.000120898
0.000221801
6.14794e-05
0.000211124
0.000120871
0.000221802
6.14968e-05
3.62776e-05
3.62709e-05
0.000192015
3.62807e-05
3.6274e-05
5.05235e-05
4.87322e-05
5.05143e-05
4.87315e-05
2.59326e-05
2.59324e-05
5.05311e-05
4.87279e-05
5.05228e-05
4.87272e-05
0.000227031
0.00022703
0.00022703
0.000227031
0.000227031
0.000227029
0.00022703
0.000120908
6.14757e-05
0.000221803
0.000211129
0.00012088
6.14937e-05
0.000221803
2.593e-05
2.59298e-05
0.000120896
0.000221801
6.14794e-05
0.000211124
0.000120869
0.000221802
6.14968e-05
3.62776e-05
3.62709e-05
0.000192015
3.62807e-05
3.6274e-05
5.05235e-05
4.87322e-05
5.05143e-05
4.87315e-05
2.59326e-05
2.59324e-05
5.05311e-05
4.87279e-05
5.05228e-05
4.87272e-05
0.000227031
0.00022703
0.00022703
0.000227031
0.000227031
0.000227029
0.00022703
0.000120908
6.14757e-05
0.000221803
0.000211129
0.00012088
6.14937e-05
0.000221803
2.593e-05
2.59298e-05
0.000120896
0.000221801
6.14794e-05
0.000211124
0.000120868
0.000221801
6.14968e-05
3.62776e-05
3.62709e-05
0.000192015
3.62807e-05
3.6274e-05
5.05235e-05
4.87322e-05
5.05143e-05
4.87315e-05
2.59326e-05
2.59324e-05
5.05311e-05
4.87279e-05
5.05228e-05
4.87272e-05
0.000227032
0.00022703
0.00022703
0.000227031
0.000227031
0.000227029
0.00022703
0.000120908
6.14756e-05
0.000221803
0.000211129
0.00012088
6.14937e-05
0.000221803
2.593e-05
2.59298e-05
0.000120895
0.000221801
6.14794e-05
0.000211124
0.000120867
0.000221801
6.14967e-05
3.62776e-05
3.62709e-05
0.000192015
3.62807e-05
3.6274e-05
5.05235e-05
4.87322e-05
5.05143e-05
4.87315e-05
2.59326e-05
2.59324e-05
5.05311e-05
4.87279e-05
5.05228e-05
4.87272e-05
0.000227031
0.00022703
0.00022703
0.000227031
0.000227031
0.000227029
0.00022703
0.000120908
6.14757e-05
0.000221803
0.000211129
0.00012088
6.14937e-05
0.000221803
2.593e-05
2.59298e-05
0.000120896
0.000221801
6.14794e-05
0.000211124
0.000120867
0.000221801
6.14967e-05
3.62776e-05
3.62709e-05
0.000192015
3.62807e-05
3.6274e-05
5.05235e-05
4.87322e-05
5.05143e-05
4.87315e-05
2.59325e-05
2.59324e-05
5.05311e-05
4.87279e-05
5.05228e-05
4.87272e-05
0.000227031
0.00022703
0.00022703
0.000227031
0.000227031
0.000227029
0.00022703
0.000120908
6.14757e-05
0.000221803
0.000211129
0.00012088
6.14937e-05
0.000221803
2.593e-05
2.59298e-05
0.000120896
0.000221801
6.14794e-05
0.000211124
0.000120868
0.000221801
6.14967e-05
3.62776e-05
3.62709e-05
0.000192015
3.62807e-05
3.62739e-05
5.05235e-05
4.87322e-05
5.05144e-05
4.87315e-05
2.59326e-05
2.59324e-05
5.05311e-05
4.87279e-05
5.05228e-05
4.87272e-05
0.000227031
0.00022703
0.00022703
0.000227031
0.000227034
0.000227029
0.000227031
0.000120908
6.14757e-05
0.000221803
0.000211129
0.00012088
6.14937e-05
0.000221803
2.593e-05
2.59298e-05
0.000120896
0.000221801
6.14794e-05
0.000211124
0.000120867
0.000221801
6.14967e-05
3.62776e-05
3.62709e-05
0.000192015
3.62808e-05
3.6274e-05
4.87279e-05
5.05228e-05
0.000227031
2.593e-05
6.14809e-05
2.59345e-05
2.59326e-05
3.62857e-05
3.62781e-05
4.87269e-05
5.05627e-05
4.87266e-05
5.05635e-05
6.15454e-05
0.000221835
0.000121003
6.15422e-05
0.000221834
0.000121004
2.59334e-05
3.6281e-05
3.62749e-05
2.5934e-05
4.87226e-05
5.05701e-05
6.15346e-05
0.000221836
0.000121012
5.05585e-05
4.87202e-05
4.87219e-05
5.05635e-05
0.000120978
0.00021116
0.000221832
6.15263e-05
0.000221832
6.15094e-05
0.000121001
0.000120976
6.15409e-05
0.000221836
0.000221836
0.000120998
5.05508e-05
4.87252e-05
5.05605e-05
0.000120976
0.000211167
0.000221834
6.15405e-05
0.000221834
6.15243e-05
0.000121
5.05504e-05
4.87234e-05
4.8725e-05
5.05609e-05
2.59302e-05
2.59313e-05
0.000191945
3.62696e-05
3.62868e-05
3.6265e-05
3.62807e-05
2.59328e-05
2.59338e-05
0.000120969
0.000211175
0.000221833
6.15412e-05
0.000221833
6.15251e-05
0.000120991
0.000120977
0.000211176
0.000221833
6.15365e-05
0.000221833
6.15201e-05
0.000120999
5.05495e-05
4.87232e-05
4.87248e-05
5.05594e-05
5.05575e-05
4.8723e-05
4.87246e-05
5.05625e-05
0.000191949
3.62869e-05
3.62802e-05
3.62806e-05
3.62742e-05
2.59326e-05
2.59336e-05
2.59316e-05
2.59327e-05
2.59344e-05
2.59334e-05
2.59325e-05
2.59316e-05
3.62844e-05
3.62766e-05
0.000192098
3.62923e-05
3.62843e-05
2.59328e-05
2.59335e-05
2.59309e-05
2.59316e-05
0.000191961
3.62988e-05
3.62907e-05
3.62916e-05
3.62835e-05
5.05616e-05
4.87271e-05
5.0556e-05
4.87262e-05
0.000121001
6.15306e-05
0.000221835
0.000211169
0.000120978
6.15465e-05
0.000221835
0.000121002
6.1527e-05
0.000221834
0.000211167
0.000120979
6.15434e-05
0.000221834
5.05534e-05
4.87259e-05
4.87268e-05
5.0562e-05
5.05538e-05
4.87258e-05
4.87266e-05
5.05624e-05
0.000120977
0.000211169
6.15472e-05
0.000221835
6.15318e-05
0.000221835
0.000121
0.000120978
0.000211167
6.15441e-05
0.000221834
6.15283e-05
0.000221835
0.000121001
3.62785e-05
3.6273e-05
0.000192101
3.6286e-05
3.62833e-05
2.59341e-05
2.5933e-05
2.59318e-05
2.59324e-05
0.000191964
3.62925e-05
3.62906e-05
3.62853e-05
3.62833e-05
2.59324e-05
2.59331e-05
0.000121009
6.15188e-05
0.000221836
0.000211177
0.000120989
6.15358e-05
0.000221835
5.05631e-05
4.87206e-05
5.05562e-05
4.87197e-05
0.000121001
0.000221832
6.15107e-05
0.00021116
0.000120978
0.000221832
6.15282e-05
5.05604e-05
4.87216e-05
4.87225e-05
5.05701e-05
0.000120981
0.000211177
6.15366e-05
0.000221834
6.15201e-05
0.000221834
0.000121004
5.05578e-05
4.87194e-05
4.87202e-05
5.05685e-05
0.000120978
0.00021116
0.000221832
6.15295e-05
0.000221832
6.15126e-05
0.000121002
5.05586e-05
4.87257e-05
5.05525e-05
4.87247e-05
0.000120999
0.000221835
6.15256e-05
0.000211168
0.000120977
0.000221835
6.15418e-05
5.05601e-05
4.87238e-05
5.05534e-05
4.8723e-05
0.000120973
0.000211182
6.15437e-05
0.000221836
6.1527e-05
0.000221836
0.000120996
5.05518e-05
4.87244e-05
4.87252e-05
5.05626e-05
0.000120976
0.000211168
0.000221834
6.15422e-05
0.000221835
6.15268e-05
0.000120999
5.05531e-05
4.87226e-05
4.87234e-05
5.05629e-05
3.62687e-05
3.62861e-05
0.000192091
3.62784e-05
3.6294e-05
2.59328e-05
2.5932e-05
2.59289e-05
2.59296e-05
0.000191954
3.62838e-05
3.62995e-05
3.62769e-05
3.6293e-05
2.59315e-05
2.59321e-05
0.000120998
0.000221834
6.15214e-05
0.000211176
0.000120976
0.000221834
6.15379e-05
5.05575e-05
4.87236e-05
5.05512e-05
4.87227e-05
5.05621e-05
4.87234e-05
5.05552e-05
4.87225e-05
0.000120965
0.000211172
0.000221831
6.15428e-05
0.000221832
6.15274e-05
0.000120989
0.000120975
0.000211176
0.000221833
6.15382e-05
0.000221834
6.15226e-05
0.000120999
5.05505e-05
4.87224e-05
4.87231e-05
5.05615e-05
5.05568e-05
4.87222e-05
4.87229e-05
5.05675e-05
2.59326e-05
2.59318e-05
2.59316e-05
2.59309e-05
0.000191959
3.62995e-05
3.62928e-05
3.62928e-05
3.62863e-05
2.59313e-05
2.59319e-05
2.59304e-05
2.59309e-05
2.59329e-05
2.59324e-05
2.5931e-05
2.59306e-05
3.62976e-05
3.62895e-05
0.000192095
3.63037e-05
3.62955e-05
2.59323e-05
2.59326e-05
2.59304e-05
2.59307e-05
0.000191958
3.63076e-05
3.62994e-05
3.63022e-05
3.6294e-05
5.05675e-05
4.87262e-05
5.05562e-05
4.87255e-05
0.000121002
6.15321e-05
0.000221832
0.000211168
0.000120978
6.15473e-05
0.000221832
0.000121003
6.15286e-05
0.000221832
0.000211165
0.000120978
6.15441e-05
0.000221831
5.05612e-05
4.87255e-05
4.87262e-05
5.05713e-05
5.05614e-05
4.87253e-05
4.8726e-05
5.05715e-05
0.000120979
0.000211168
6.15491e-05
0.000221832
6.15326e-05
0.000221832
0.000121004
0.00012098
0.000211166
6.15457e-05
0.000221831
6.15288e-05
0.000221831
0.000121005
3.62913e-05
3.6289e-05
0.000192099
3.62973e-05
3.62948e-05
2.59325e-05
2.5932e-05
2.59313e-05
2.59316e-05
0.000191962
3.63011e-05
3.62984e-05
3.62957e-05
3.62928e-05
2.59318e-05
2.59322e-05
0.000121007
6.15206e-05
0.000221834
0.000211176
0.000120982
6.15366e-05
0.000221834
5.05736e-05
4.87199e-05
5.05635e-05
4.87191e-05
0.000121004
0.000221829
6.15137e-05
0.000211159
0.000120979
0.000221829
6.15306e-05
5.05706e-05
4.87212e-05
4.87219e-05
5.05799e-05
0.000120984
0.000211176
6.15383e-05
0.000221835
6.15208e-05
0.000221835
0.000121009
5.05682e-05
4.8719e-05
4.87197e-05
5.05772e-05
0.000120981
0.000211158
0.00022183
6.15326e-05
0.000221829
6.1515e-05
0.000121007
5.05673e-05
4.87249e-05
5.05566e-05
4.87241e-05
0.000121
0.000221832
6.15269e-05
0.000211166
0.000120976
0.000221831
6.1543e-05
5.05673e-05
4.87231e-05
5.05567e-05
4.87224e-05
0.000120974
0.000211178
6.1545e-05
0.000221833
6.15279e-05
0.000221833
0.000121001
5.05609e-05
4.87239e-05
4.87246e-05
5.05708e-05
0.000120978
0.000211167
0.000221832
6.15457e-05
0.000221831
6.15283e-05
0.000121003
5.05608e-05
4.87222e-05
4.87229e-05
5.05706e-05
3.62817e-05
3.62982e-05
0.000192088
3.62877e-05
3.63037e-05
2.59316e-05
2.59313e-05
2.59286e-05
2.59289e-05
0.000191952
3.62908e-05
3.63071e-05
3.62855e-05
3.63021e-05
2.59312e-05
2.59315e-05
0.000121001
0.00022183
6.15229e-05
0.000211175
0.000120976
0.00022183
6.15391e-05
5.05663e-05
4.87228e-05
5.05554e-05
4.87221e-05
5.05725e-05
4.87226e-05
5.05625e-05
4.8722e-05
0.000120967
0.00021117
0.000221831
6.15463e-05
0.00022183
6.1529e-05
0.000120994
0.000120978
0.000211175
0.000221831
6.15418e-05
0.00022183
6.15242e-05
0.000121003
5.05598e-05
4.8722e-05
4.87226e-05
5.05697e-05
5.0567e-05
4.87218e-05
4.87224e-05
5.0576e-05
2.59315e-05
2.59311e-05
2.59305e-05
2.59301e-05
0.000191957
3.6307e-05
3.63003e-05
3.6302e-05
3.62953e-05
2.5931e-05
2.59313e-05
2.59301e-05
2.59303e-05
2.59325e-05
2.59323e-05
2.59306e-05
2.59304e-05
3.6306e-05
3.62977e-05
0.000192095
3.63104e-05
3.63022e-05
2.59326e-05
2.59326e-05
2.59307e-05
2.59307e-05
0.000191959
3.63111e-05
3.63028e-05
3.63085e-05
3.63002e-05
5.0574e-05
4.87258e-05
5.05651e-05
4.87252e-05
0.000121008
6.15348e-05
0.000221833
0.000211168
0.000120982
6.15519e-05
0.000221834
0.000121009
6.1531e-05
0.000221834
0.000211166
0.000120982
6.15485e-05
0.000221834
5.05668e-05
4.87256e-05
4.87259e-05
5.05739e-05
5.05669e-05
4.87253e-05
4.87257e-05
5.05741e-05
0.000120983
0.000211167
6.15525e-05
0.000221834
6.15375e-05
0.000221834
0.000121003
0.000120985
0.000211165
6.15492e-05
0.000221834
6.15337e-05
0.000221835
0.000121005
3.62994e-05
3.62961e-05
0.000192099
3.63038e-05
3.63009e-05
2.59321e-05
2.59319e-05
2.59315e-05
2.59315e-05
0.000191961
3.63045e-05
3.63012e-05
3.63019e-05
3.62983e-05
2.59322e-05
2.59322e-05
0.00012101
6.15231e-05
0.000221836
0.000211177
0.000120987
6.15413e-05
0.000221836
5.0579e-05
4.87196e-05
5.05715e-05
4.8719e-05
0.000121009
0.000221831
6.15172e-05
0.000211156
0.000120985
0.000221831
6.15348e-05
5.05755e-05
4.87212e-05
4.87216e-05
5.05808e-05
0.000120982
0.000211177
6.15419e-05
0.000221834
6.15259e-05
0.000221836
0.000121002
5.05727e-05
4.87196e-05
4.87196e-05
5.05767e-05
0.000120981
0.000211156
0.00022183
6.15312e-05
0.000221831
6.15188e-05
0.000120999
5.05723e-05
4.87244e-05
5.0564e-05
4.87238e-05
0.000121003
0.000221833
6.15312e-05
0.000211164
0.000120981
0.000221834
6.15484e-05
5.05719e-05
4.87228e-05
5.05638e-05
4.87222e-05
0.00012098
0.000211177
6.15472e-05
0.000221833
6.15319e-05
0.000221835
0.000120998
5.05652e-05
4.87238e-05
4.87244e-05
5.05697e-05
0.000120976
0.000211164
0.000221832
6.15449e-05
0.000221833
6.15332e-05
0.000120995
5.05646e-05
4.87228e-05
4.87228e-05
5.05689e-05
3.62883e-05
3.63051e-05
0.000192086
3.62928e-05
3.63092e-05
2.59315e-05
2.59313e-05
2.59292e-05
2.59291e-05
0.00019195
3.62905e-05
3.63071e-05
3.62898e-05
3.63069e-05
2.59318e-05
2.59316e-05
0.000121004
0.000221832
6.15271e-05
0.000211172
0.000120981
0.000221832
6.15444e-05
5.05711e-05
4.87225e-05
5.05628e-05
4.87219e-05
5.05774e-05
4.87223e-05
5.05701e-05
4.87218e-05
0.000120971
0.00021117
0.00022183
6.15456e-05
0.000221832
6.15338e-05
0.00012099
0.000120976
0.000211172
0.00022183
6.15409e-05
0.000221832
6.15291e-05
0.000120995
5.05638e-05
4.87225e-05
4.87225e-05
5.05682e-05
5.0571e-05
4.87223e-05
4.87223e-05
5.05742e-05
2.59313e-05
2.59311e-05
2.59303e-05
2.59302e-05
0.000191956
3.63069e-05
3.63002e-05
3.63068e-05
3.63001e-05
2.59316e-05
2.59314e-05
2.59306e-05
2.59305e-05
2.59329e-05
2.59332e-05
2.59311e-05
2.59313e-05
3.63078e-05
3.62994e-05
0.00019208
3.63057e-05
3.62975e-05
2.59336e-05
2.59335e-05
2.59317e-05
2.59317e-05
0.000191933
3.62978e-05
3.62897e-05
3.63012e-05
3.62929e-05
5.05647e-05
4.8726e-05
5.05658e-05
4.87266e-05
0.000120991
6.15363e-05
0.000221832
0.00021116
0.000120974
6.1543e-05
0.000221829
0.000120991
6.15326e-05
0.000221832
0.000211157
0.000120975
6.15398e-05
0.000221829
5.05517e-05
4.87308e-05
4.87283e-05
5.05447e-05
5.05523e-05
4.87303e-05
4.87278e-05
5.05454e-05
0.000120958
0.00021115
6.15234e-05
0.000221803
6.15233e-05
0.000221821
0.000120947
0.000120959
0.000211147
6.15203e-05
0.000221802
6.15198e-05
0.00022182
0.000120948
3.63011e-05
3.62971e-05
0.000192082
3.6299e-05
3.62957e-05
2.59326e-05
2.59328e-05
2.59325e-05
2.59325e-05
0.000191935
3.62909e-05
3.62876e-05
3.62944e-05
3.62907e-05
2.59331e-05
2.59332e-05
0.000120989
6.15246e-05
0.000221832
0.000211168
0.000120974
6.15321e-05
0.000221827
5.05622e-05
4.87206e-05
5.05676e-05
4.87219e-05
0.000120982
0.000221827
6.15122e-05
0.000211142
0.000120969
0.00022182
6.15161e-05
5.05573e-05
4.87264e-05
4.87241e-05
5.05487e-05
0.000120955
0.000211157
6.15127e-05
0.000221798
6.15115e-05
0.000221815
0.000120937
5.05503e-05
4.87249e-05
4.87238e-05
5.05428e-05
0.000120945
0.000211123
0.000221794
6.14963e-05
0.000221804
6.14947e-05
0.000120925
5.05541e-05
4.87245e-05
5.05593e-05
4.87251e-05
0.000120976
0.000221828
6.15267e-05
0.000211149
0.000120965
0.00022182
6.15296e-05
5.05531e-05
4.87236e-05
5.05584e-05
4.87251e-05
0.000120938
0.000211157
6.15162e-05
0.000221799
6.15156e-05
0.000221809
0.00012092
5.05413e-05
4.87289e-05
4.87266e-05
5.05357e-05
0.000120935
0.000211129
0.000221795
6.15098e-05
0.000221803
6.15089e-05
0.000120916
5.05403e-05
4.87281e-05
4.8727e-05
5.05348e-05
3.62856e-05
3.63028e-05
0.000192057
3.62834e-05
3.63002e-05
2.59321e-05
2.59324e-05
2.59299e-05
2.59301e-05
0.000191903
3.62733e-05
3.62901e-05
3.6278e-05
3.62955e-05
2.59325e-05
2.59326e-05
0.000120976
0.000221827
6.15225e-05
0.000211158
0.000120965
0.000221819
6.15256e-05
5.05525e-05
4.87233e-05
5.05576e-05
4.87248e-05
5.05583e-05
4.87232e-05
5.05646e-05
4.87247e-05
0.000120928
0.000211137
0.000221794
6.15106e-05
0.000221802
6.15098e-05
0.000120911
0.000120935
0.000211137
0.000221793
6.15058e-05
0.000221801
6.15047e-05
0.000120915
5.05396e-05
4.87279e-05
4.87268e-05
5.05346e-05
5.05462e-05
4.87277e-05
4.87266e-05
5.05398e-05
2.5932e-05
2.59322e-05
2.5931e-05
2.59312e-05
0.000191907
3.62899e-05
3.62832e-05
3.62952e-05
3.62886e-05
2.59323e-05
2.59324e-05
2.59313e-05
2.59315e-05
2.59338e-05
2.59335e-05
2.59319e-05
2.59316e-05
3.62928e-05
3.62848e-05
0.000192014
3.62853e-05
3.62773e-05
2.59335e-05
2.59337e-05
2.59316e-05
2.59318e-05
0.000191876
3.62824e-05
3.62744e-05
3.62815e-05
3.62735e-05
5.05298e-05
4.87316e-05
5.05331e-05
4.87314e-05
0.000120905
6.15031e-05
0.000221795
0.000211113
0.000120905
6.15069e-05
0.000221794
0.000120906
6.14997e-05
0.000221795
0.000211111
0.000120905
6.15039e-05
0.000221794
5.05195e-05
4.87316e-05
4.87322e-05
5.05244e-05
5.05205e-05
4.87313e-05
4.87319e-05
5.05252e-05
0.000120881
0.000211112
6.1501e-05
0.0002218
6.14896e-05
0.000221796
0.000120907
0.000120882
0.000211109
6.14979e-05
0.000221799
6.14861e-05
0.000221795
0.000120909
3.62863e-05
3.62828e-05
0.000192017
3.6279e-05
3.62766e-05
2.59334e-05
2.59331e-05
2.59324e-05
2.59327e-05
0.000191879
3.62757e-05
3.62718e-05
3.62749e-05
3.62724e-05
2.5933e-05
2.59333e-05
0.000120907
6.14914e-05
0.000221794
0.000211121
0.000120897
6.14963e-05
0.000221793
5.05322e-05
4.87256e-05
5.05322e-05
4.8725e-05
0.000120906
0.000221792
6.14763e-05
0.000211104
0.000120888
0.000221793
6.14856e-05
5.05272e-05
4.87273e-05
4.8728e-05
5.05318e-05
0.000120883
0.00021112
6.14904e-05
0.000221799
6.1478e-05
0.000221796
0.000120909
5.05247e-05
4.87249e-05
4.87256e-05
5.05298e-05
0.000120882
0.000211105
0.000221798
6.14826e-05
0.000221796
6.14683e-05
0.000120909
5.05258e-05
4.87302e-05
5.05245e-05
4.873e-05
0.000120905
0.000221794
6.14907e-05
0.000211112
0.000120882
0.000221796
6.14995e-05
5.05253e-05
4.87287e-05
5.05237e-05
4.87282e-05
0.000120883
0.000211124
6.14952e-05
0.000221801
6.14829e-05
0.0002218
0.000120907
5.05174e-05
4.87299e-05
4.87306e-05
5.05236e-05
0.000120881
0.000211113
0.000221801
6.14967e-05
0.000221799
6.14831e-05
0.000120907
5.05169e-05
4.87281e-05
4.87287e-05
5.05232e-05
3.62681e-05
3.62846e-05
0.000192009
3.62647e-05
3.62822e-05
2.59326e-05
2.59324e-05
2.59298e-05
2.59301e-05
0.000191875
3.62635e-05
3.62811e-05
3.62609e-05
3.62791e-05
2.59323e-05
2.59326e-05
0.000120906
0.000221792
6.14866e-05
0.00021112
0.000120882
0.000221795
6.14956e-05
5.05253e-05
4.87285e-05
5.05235e-05
4.8728e-05
5.05312e-05
4.87284e-05
5.05299e-05
4.87278e-05
0.000120876
0.000211121
0.0002218
6.14975e-05
0.000221799
6.14839e-05
0.000120901
0.000120883
0.000211121
0.0002218
6.14928e-05
0.000221798
6.1479e-05
0.000120908
5.05168e-05
4.87279e-05
4.87285e-05
5.05233e-05
5.0524e-05
4.87277e-05
4.87283e-05
5.05295e-05
2.59325e-05
2.59322e-05
2.59315e-05
2.59312e-05
0.000191881
3.62809e-05
3.62742e-05
3.62789e-05
3.62723e-05
2.59322e-05
2.59324e-05
2.59312e-05
2.59314e-05
2.59337e-05
2.59334e-05
2.59318e-05
2.59316e-05
3.62797e-05
3.62716e-05
0.000192021
3.6282e-05
3.6274e-05
2.59334e-05
2.59337e-05
2.59315e-05
2.59318e-05
0.000191884
3.6282e-05
3.6274e-05
3.62794e-05
3.62714e-05
5.05243e-05
4.87318e-05
5.05174e-05
4.87312e-05
0.000120909
6.14853e-05
0.000221802
0.000211117
0.000120883
6.14997e-05
0.000221802
0.00012091
6.14819e-05
0.000221802
0.000211115
0.000120885
6.14966e-05
0.000221802
5.05162e-05
4.87315e-05
4.8732e-05
5.05235e-05
5.05169e-05
4.87312e-05
4.87317e-05
5.05242e-05
0.000120884
0.000211117
6.14994e-05
0.000221802
6.14845e-05
0.000221803
0.000120908
0.000120885
0.000211115
6.14962e-05
0.000221802
6.1481e-05
0.000221803
0.00012091
3.62729e-05
3.62685e-05
0.000192024
3.62753e-05
3.62715e-05
2.59333e-05
2.5933e-05
2.59324e-05
2.59326e-05
0.000191887
3.62753e-05
3.62716e-05
3.62727e-05
3.62684e-05
2.5933e-05
2.59333e-05
0.00012091
6.14738e-05
0.000221802
0.000211125
0.000120886
6.14891e-05
0.000221802
5.05294e-05
4.87255e-05
5.0523e-05
4.87249e-05
0.00012091
0.000221799
6.14662e-05
0.000211108
0.000120885
0.000221799
6.1482e-05
5.05246e-05
4.87272e-05
4.87278e-05
5.05311e-05
0.000120886
0.000211125
6.14888e-05
0.000221802
6.14729e-05
0.000221802
0.00012091
5.05228e-05
4.87248e-05
4.87254e-05
5.05293e-05
0.000120885
0.000211108
0.000221799
6.14818e-05
0.0002218
6.14659e-05
0.000120909
5.05232e-05
4.87305e-05
5.0516e-05
4.87298e-05
0.000120908
0.000221802
6.14811e-05
0.000211116
0.000120883
0.000221802
6.14962e-05
5.05229e-05
4.87286e-05
5.05156e-05
4.87281e-05
0.000120886
0.000211129
6.14937e-05
0.000221802
6.14779e-05
0.000221802
0.000120907
5.05158e-05
4.87298e-05
4.87304e-05
5.05232e-05
0.000120883
0.000211116
0.000221802
6.1496e-05
0.000221802
6.14808e-05
0.000120907
5.05154e-05
4.87281e-05
4.87286e-05
5.05228e-05
3.62602e-05
3.62784e-05
0.000192013
3.62634e-05
3.62809e-05
2.59325e-05
2.59323e-05
2.59298e-05
2.593e-05
0.000191875
3.62634e-05
3.62809e-05
3.62602e-05
3.62783e-05
2.59323e-05
2.59325e-05
0.000120909
0.000221801
6.1477e-05
0.000211124
0.000120884
0.000221801