/*--------------------------------*- C++ -*----------------------------------*\
| =========                 |                                                 |
| \\      /  F ield         | OpenFOAM: The Open Source CFD Toolbox           |
|  \\    /   O peration     | Version:  2206                                  |
|   \\  /    A nd           | Website:  www.openfoam.com                      |
|    \\/     M anipulation  |                                                 |
\*---------------------------------------------------------------------------*/
FoamFile
{
    version     2.0;
    format      ascii;
    arch        "LSB;label=32;scalar=64";
    class       volVectorField;
    location    "19";
    object      U;
}
// * * * * * * * * * * * * * * * * * * * * * * * * * * * * * * * * * * * * * //

dimensions      [0 1 -1 0 0 0 0];

internalField   nonuniform List<vector> 
28448
(
(-5.76964e-07 -5.73055e-07 0.102227)
(-3.74552e-07 5.95674e-07 0.102201)
(5.87942e-07 -3.65202e-07 0.102201)
(-4.05216e-05 -4.0529e-05 0.102161)
(-5.93967e-07 -5.90464e-07 0.102226)
(-3.48754e-07 5.82923e-07 0.102201)
(5.64852e-07 -3.30468e-07 0.102201)
(-4.04996e-05 -4.05078e-05 0.102161)
(-6.02336e-07 -6.03288e-07 0.102226)
(-3.28601e-07 5.67378e-07 0.1022)
(5.27845e-07 -2.85739e-07 0.1022)
(-4.04945e-05 -4.05086e-05 0.102161)
(-5.29316e-07 -5.53982e-07 0.102226)
(-5.10385e-07 6.35882e-07 0.1022)
(6.76707e-07 -5.19871e-07 0.1022)
(-4.06792e-05 -4.0701e-05 0.102161)
(-5.47326e-07 -5.30741e-07 0.102227)
(-3.99502e-07 6.096e-07 0.102201)
(5.95401e-07 -3.7127e-07 0.102201)
(-4.05563e-05 -4.05417e-05 0.102161)
(-5.72844e-07 -5.69878e-07 0.102227)
(-3.81708e-07 5.92167e-07 0.102201)
(5.95096e-07 -3.74454e-07 0.102201)
(-4.05451e-05 -4.05436e-05 0.102161)
(-5.71644e-07 -5.71967e-07 0.102227)
(-3.84565e-07 5.91548e-07 0.102201)
(5.91891e-07 -3.78734e-07 0.102201)
(-4.05421e-05 -4.05505e-05 0.102161)
(-5.71303e-07 -5.72455e-07 0.102227)
(-3.85656e-07 5.91301e-07 0.102201)
(5.92114e-07 -3.80378e-07 0.102201)
(-4.0543e-05 -4.05526e-05 0.102161)
(-5.70836e-07 -5.72518e-07 0.102227)
(-3.85924e-07 5.91387e-07 0.102201)
(5.92625e-07 -3.81343e-07 0.102201)
(-4.05432e-05 -4.05528e-05 0.102161)
(-5.70321e-07 -5.72123e-07 0.102227)
(-3.86237e-07 5.91507e-07 0.102201)
(5.93206e-07 -3.81768e-07 0.102201)
(-4.05438e-05 -4.05532e-05 0.102161)
(-5.7077e-07 -5.72232e-07 0.102227)
(-3.86216e-07 5.91666e-07 0.102201)
(5.92596e-07 -3.80907e-07 0.102201)
(-4.05435e-05 -4.05526e-05 0.102161)
(-5.71162e-07 -5.72609e-07 0.102227)
(-3.85915e-07 5.91224e-07 0.102201)
(5.92541e-07 -3.80785e-07 0.102201)
(-4.05438e-05 -4.05528e-05 0.102161)
(-5.71206e-07 -5.728e-07 0.102227)
(-3.85064e-07 5.90725e-07 0.102201)
(5.92515e-07 -3.80709e-07 0.102201)
(-4.0543e-05 -4.05521e-05 0.102161)
(-5.71647e-07 -5.72931e-07 0.102227)
(-3.85018e-07 5.90966e-07 0.102201)
(5.91786e-07 -3.7995e-07 0.102201)
(-4.05427e-05 -4.0552e-05 0.102161)
(-5.71611e-07 -5.73093e-07 0.102227)
(-3.85047e-07 5.90655e-07 0.102201)
(5.91996e-07 -3.80391e-07 0.102201)
(-4.05421e-05 -4.05514e-05 0.102161)
(-5.71155e-07 -5.72679e-07 0.102227)
(-3.85149e-07 5.90594e-07 0.102201)
(5.92181e-07 -3.80484e-07 0.102201)
(-4.05402e-05 -4.05496e-05 0.102161)
(-5.6949e-07 -5.7276e-07 0.102227)
(-3.84854e-07 5.90355e-07 0.102201)
(5.93092e-07 -3.81365e-07 0.102201)
(-4.05378e-05 -4.05482e-05 0.102161)
(-5.68809e-07 -5.75244e-07 0.102226)
(5.93281e-07 -3.79475e-07 0.102201)
(-4.21927e-05 -4.21632e-05 0.102163)
(6.11922e-07 3.9635e-07 0.102201)
(-6.13073e-07 4.09518e-07 0.102201)
(4.21968e-05 -4.21667e-05 0.102163)
(3.82999e-07 6.00748e-07 0.102201)
(3.95953e-07 -6.0857e-07 0.102201)
(-3.81702e-07 5.97222e-07 0.102201)
(-4.01069e-07 -6.00364e-07 0.102201)
(-4.2164e-05 4.22003e-05 0.102163)
(5.93976e-07 -3.73043e-07 0.102201)
(-5.8996e-07 -3.88427e-07 0.102201)
(4.21668e-05 4.21934e-05 0.102163)
(4.05296e-05 4.05176e-05 0.102161)
(-4.22074e-05 -4.21773e-05 0.102163)
(6.09155e-07 3.96711e-07 0.102201)
(-6.10807e-07 4.05918e-07 0.102201)
(6.00637e-07 3.78929e-07 0.102201)
(-6.02037e-07 3.91164e-07 0.102201)
(-4.05254e-05 4.05034e-05 0.102161)
(4.22108e-05 -4.21833e-05 0.102163)
(3.79339e-07 6.00593e-07 0.102201)
(3.8747e-07 -6.01497e-07 0.102201)
(3.63182e-07 5.90652e-07 0.102201)
(3.75637e-07 -5.96455e-07 0.102201)
(-3.93719e-07 -5.93956e-07 0.102201)
(-3.61497e-07 5.87326e-07 0.102201)
(-3.79446e-07 -5.88746e-07 0.102201)
(4.05081e-05 -4.05386e-05 0.102161)
(-4.2189e-05 4.22249e-05 0.102163)
(-5.84242e-07 -3.80357e-07 0.102201)
(5.8345e-07 -3.51067e-07 0.102201)
(-5.80283e-07 -3.66354e-07 0.102201)
(4.21908e-05 4.22172e-05 0.102163)
(4.05089e-05 4.04973e-05 0.102161)
(-4.22422e-05 -4.222e-05 0.102163)
(5.99297e-07 3.7542e-07 0.102201)
(-6.01119e-07 3.83476e-07 0.102201)
(6.0572e-07 3.7195e-07 0.1022)
(-6.08956e-07 3.84064e-07 0.1022)
(-4.05049e-05 4.0482e-05 0.102161)
(4.22446e-05 -4.22206e-05 0.102163)
(3.5648e-07 5.88658e-07 0.102201)
(3.52336e-07 -5.80446e-07 0.102201)
(3.62775e-07 5.87912e-07 0.1022)
(3.60071e-07 -5.98944e-07 0.1022)
(-3.57367e-07 -5.72815e-07 0.102201)
(-3.61317e-07 5.84128e-07 0.1022)
(-3.66158e-07 -5.91137e-07 0.1022)
(4.04853e-05 -4.05168e-05 0.102161)
(-4.2199e-05 4.22285e-05 0.102163)
(-5.62358e-07 -3.45021e-07 0.102201)
(5.77695e-07 -3.42109e-07 0.1022)
(-5.76115e-07 -3.56736e-07 0.1022)
(4.21993e-05 4.22196e-05 0.102163)
(4.05016e-05 4.04798e-05 0.102161)
(-4.22456e-05 -4.22477e-05 0.102162)
(5.95714e-07 3.58169e-07 0.1022)
(-5.97567e-07 3.65833e-07 0.1022)
(6.15337e-07 3.60118e-07 0.1022)
(-6.28888e-07 3.67762e-07 0.1022)
(-4.04994e-05 4.04637e-05 0.102161)
(4.22294e-05 -4.22537e-05 0.102162)
(3.44027e-07 5.76403e-07 0.1022)
(3.04194e-07 -5.52183e-07 0.1022)
(3.86585e-07 5.67331e-07 0.1022)
(4.61298e-07 -7.13802e-07 0.1022)
(-3.07202e-07 -5.42171e-07 0.1022)
(-4.18789e-07 5.61716e-07 0.1022)
(-4.8429e-07 -7.01997e-07 0.1022)
(4.04791e-05 -4.05183e-05 0.102161)
(-4.2102e-05 4.21107e-05 0.102162)
(-5.26042e-07 -2.99044e-07 0.1022)
(6.61137e-07 -4.76742e-07 0.1022)
(-6.65118e-07 -4.90051e-07 0.1022)
(4.20936e-05 4.21053e-05 0.102162)
(4.05792e-05 4.05357e-05 0.102161)
(-4.21615e-05 -4.21154e-05 0.102163)
(6.87661e-07 4.74663e-07 0.1022)
(-6.99033e-07 4.76074e-07 0.1022)
(6.31143e-07 4.73098e-07 0.102201)
(-6.28867e-07 4.85939e-07 0.102201)
(-4.0596e-05 4.05172e-05 0.102161)
(4.21732e-05 -4.21161e-05 0.102163)
(4.90425e-07 6.45873e-07 0.1022)
(5.1313e-07 -7.23715e-07 0.1022)
(4.44125e-07 6.36984e-07 0.102201)
(4.42595e-07 -5.88353e-07 0.102201)
(-5.3593e-07 -7.09962e-07 0.1022)
(-4.33192e-07 6.3794e-07 0.102201)
(-4.43493e-07 -5.85631e-07 0.102201)
(4.06558e-05 -4.07139e-05 0.102161)
(-4.21605e-05 4.2227e-05 0.102163)
(-6.79142e-07 -5.35128e-07 0.1022)
(6.01283e-07 -3.91311e-07 0.102201)
(-5.96951e-07 -4.12537e-07 0.102201)
(4.21671e-05 4.22144e-05 0.102163)
(4.05787e-05 4.05833e-05 0.102161)
(-4.22184e-05 -4.21865e-05 0.102163)
(6.08158e-07 4.41527e-07 0.102201)
(-6.07067e-07 4.50589e-07 0.102201)
(6.03086e-07 3.9664e-07 0.102201)
(-6.04079e-07 4.11188e-07 0.102201)
(-4.05682e-05 4.05693e-05 0.102161)
(4.2223e-05 -4.21905e-05 0.102163)
(4.09042e-07 6.1457e-07 0.102201)
(4.22374e-07 -5.81295e-07 0.102201)
(3.8021e-07 5.95717e-07 0.102201)
(4.02128e-07 -5.97918e-07 0.102201)
(-4.25263e-07 -5.77177e-07 0.102201)
(-3.78988e-07 5.91686e-07 0.102201)
(-4.06996e-07 -5.88747e-07 0.102201)
(4.0545e-05 -4.05467e-05 0.102161)
(-4.21841e-05 4.22299e-05 0.102163)
(-5.91457e-07 -3.87947e-07 0.102201)
(5.96084e-07 -3.69484e-07 0.102201)
(-5.92045e-07 -3.84945e-07 0.102201)
(4.21862e-05 4.22247e-05 0.102163)
(4.05444e-05 4.05335e-05 0.102161)
(-4.22153e-05 -4.21884e-05 0.102163)
(6.0526e-07 4.00116e-07 0.102201)
(-6.07708e-07 4.09696e-07 0.102201)
(6.08304e-07 3.93113e-07 0.102201)
(-6.10269e-07 4.06224e-07 0.102201)
(-4.05407e-05 4.05189e-05 0.102161)
(4.22183e-05 -4.21928e-05 0.102163)
(3.83069e-07 5.97008e-07 0.102201)
(3.99969e-07 -6.02958e-07 0.102201)
(3.82226e-07 5.95129e-07 0.102201)
(3.97408e-07 -6.07986e-07 0.102201)
(-4.07058e-07 -5.94383e-07 0.102201)
(-3.82869e-07 5.91712e-07 0.102201)
(-4.03402e-07 -5.9945e-07 0.102201)
(4.05306e-05 -4.05538e-05 0.102161)
(-4.21885e-05 4.22226e-05 0.102163)
(-5.92641e-07 -3.89074e-07 0.102201)
(5.9194e-07 -3.75608e-07 0.102201)
(-5.89134e-07 -3.92674e-07 0.102201)
(4.21902e-05 4.22159e-05 0.102163)
(4.05479e-05 4.05332e-05 0.102161)
(-4.22145e-05 -4.21882e-05 0.102163)
(6.08544e-07 3.98641e-07 0.102201)
(-6.11399e-07 4.07173e-07 0.102201)
(6.09019e-07 3.93071e-07 0.102201)
(-6.11454e-07 4.06198e-07 0.102201)
(-4.05451e-05 4.05182e-05 0.102161)
(4.22169e-05 -4.2192e-05 0.102163)
(3.84967e-07 5.96367e-07 0.102201)
(3.97815e-07 -6.08904e-07 0.102201)
(3.832e-07 5.94763e-07 0.102201)
(3.97855e-07 -6.0983e-07 0.102201)
(-4.05584e-07 -6.00803e-07 0.102201)
(-3.84514e-07 5.91722e-07 0.102201)
(-4.04424e-07 -6.01522e-07 0.102201)
(4.05274e-05 -4.05598e-05 0.102161)
(-4.21877e-05 4.22208e-05 0.102163)
(-5.89868e-07 -3.92102e-07 0.102201)
(5.92032e-07 -3.78153e-07 0.102201)
(-5.89647e-07 -3.94983e-07 0.102201)
(4.2189e-05 4.22136e-05 0.102163)
(4.05483e-05 4.05331e-05 0.102161)
(-4.22144e-05 -4.21883e-05 0.102163)
(6.08991e-07 3.98664e-07 0.102201)
(-6.12002e-07 4.07007e-07 0.102201)
(6.09334e-07 3.93221e-07 0.102201)
(-6.11401e-07 4.06051e-07 0.102201)
(-4.0546e-05 4.05185e-05 0.102161)
(4.22171e-05 -4.21923e-05 0.102163)
(3.85739e-07 5.96103e-07 0.102201)
(3.9813e-07 -6.10585e-07 0.102201)
(3.83795e-07 5.94787e-07 0.102201)
(3.98091e-07 -6.10433e-07 0.102201)
(-4.06294e-07 -6.02656e-07 0.102201)
(-3.84582e-07 5.91451e-07 0.102201)
(-4.04537e-07 -6.0218e-07 0.102201)
(4.05278e-05 -4.05615e-05 0.102161)
(-4.21875e-05 4.22202e-05 0.102163)
(-5.90381e-07 -3.95013e-07 0.102201)
(5.92256e-07 -3.78795e-07 0.102201)
(-5.8984e-07 -3.94652e-07 0.102201)
(4.21888e-05 4.22131e-05 0.102163)
(4.05487e-05 4.05333e-05 0.102161)
(-4.22139e-05 -4.2188e-05 0.102163)
(6.09342e-07 3.98875e-07 0.102201)
(-6.12149e-07 4.07284e-07 0.102201)
(6.0966e-07 3.93664e-07 0.102201)
(-6.11449e-07 4.06535e-07 0.102201)
(-4.05461e-05 4.05186e-05 0.102161)
(4.2217e-05 -4.21922e-05 0.102163)
(3.86448e-07 5.96217e-07 0.102201)
(3.98601e-07 -6.11147e-07 0.102201)
(3.84476e-07 5.94936e-07 0.102201)
(3.98797e-07 -6.11161e-07 0.102201)
(-4.06244e-07 -6.03192e-07 0.102201)
(-3.84872e-07 5.91528e-07 0.102201)
(-4.04584e-07 -6.0254e-07 0.102201)
(4.05281e-05 -4.0562e-05 0.102161)
(-4.21865e-05 4.22195e-05 0.102163)
(-5.90616e-07 -3.96798e-07 0.102201)
(5.93123e-07 -3.79554e-07 0.102201)
(-5.90367e-07 -3.95418e-07 0.102201)
(4.21882e-05 4.22127e-05 0.102163)
(4.05492e-05 4.05337e-05 0.102161)
(-4.2214e-05 -4.21878e-05 0.102163)
(6.09729e-07 3.9943e-07 0.102201)
(-6.12274e-07 4.07678e-07 0.102201)
(6.09652e-07 3.93746e-07 0.102201)
(-6.11753e-07 4.06648e-07 0.102201)
(-4.05462e-05 4.05187e-05 0.102161)
(4.22167e-05 -4.21919e-05 0.102163)
(3.87002e-07 5.96482e-07 0.102201)
(3.99062e-07 -6.11648e-07 0.102201)
(3.84213e-07 5.95153e-07 0.102201)
(3.98218e-07 -6.10463e-07 0.102201)
(-4.06357e-07 -6.0343e-07 0.102201)
(-3.84976e-07 5.91789e-07 0.102201)
(-4.04366e-07 -6.01999e-07 0.102201)
(4.0529e-05 -4.05627e-05 0.102161)
(-4.21874e-05 4.22203e-05 0.102163)
(-5.91147e-07 -3.97252e-07 0.102201)
(5.92516e-07 -3.78742e-07 0.102201)
(-5.90254e-07 -3.94773e-07 0.102201)
(4.21884e-05 4.22132e-05 0.102163)
(4.05489e-05 4.05336e-05 0.102161)
(-4.22144e-05 -4.21883e-05 0.102163)
(6.09389e-07 3.99098e-07 0.102201)
(-6.12407e-07 4.07526e-07 0.102201)
(6.0931e-07 3.93381e-07 0.102201)
(-6.11558e-07 4.0628e-07 0.102201)
(-4.05464e-05 4.05189e-05 0.102161)
(4.22171e-05 -4.21922e-05 0.102163)
(3.86477e-07 5.96395e-07 0.102201)
(3.98368e-07 -6.10878e-07 0.102201)
(3.8387e-07 5.9479e-07 0.102201)
(3.98134e-07 -6.10372e-07 0.102201)
(-4.06168e-07 -6.02918e-07 0.102201)
(-3.8497e-07 5.91575e-07 0.102201)
(-4.0476e-07 -6.0225e-07 0.102201)
(4.05281e-05 -4.05617e-05 0.102161)
(-4.21873e-05 4.22205e-05 0.102163)
(-5.91057e-07 -3.96608e-07 0.102201)
(5.92608e-07 -3.78668e-07 0.102201)
(-5.90749e-07 -3.95065e-07 0.102201)
(4.21882e-05 4.22131e-05 0.102163)
(4.05486e-05 4.05332e-05 0.102161)
(-4.22148e-05 -4.21887e-05 0.102163)
(6.09038e-07 3.98768e-07 0.102201)
(-6.1204e-07 4.07166e-07 0.102201)
(6.09023e-07 3.92946e-07 0.102201)
(-6.10834e-07 4.05613e-07 0.102201)
(-4.05461e-05 4.05185e-05 0.102161)
(4.22178e-05 -4.2193e-05 0.102163)
(3.86116e-07 5.95995e-07 0.102201)
(3.98238e-07 -6.10754e-07 0.102201)
(3.83533e-07 5.94485e-07 0.102201)
(3.97781e-07 -6.1018e-07 0.102201)
(-4.06177e-07 -6.02949e-07 0.102201)
(-3.83988e-07 5.90891e-07 0.102201)
(-4.03734e-07 -6.01629e-07 0.102201)
(4.05283e-05 -4.05616e-05 0.102161)
(-4.21876e-05 4.22206e-05 0.102163)
(-5.91255e-07 -3.96653e-07 0.102201)
(5.92356e-07 -3.78471e-07 0.102201)
(-5.90052e-07 -3.94416e-07 0.102201)
(4.21889e-05 4.22138e-05 0.102163)
(4.05482e-05 4.05329e-05 0.102161)
(-4.22149e-05 -4.2189e-05 0.102163)
(6.09067e-07 3.98509e-07 0.102201)
(-6.11486e-07 4.06541e-07 0.102201)
(6.08928e-07 3.92633e-07 0.102201)
(-6.10902e-07 4.05441e-07 0.102201)
(-4.05453e-05 4.05178e-05 0.102161)
(4.22178e-05 -4.2193e-05 0.102163)
(3.85942e-07 5.95951e-07 0.102201)
(3.98004e-07 -6.10692e-07 0.102201)
(3.83198e-07 5.943e-07 0.102201)
(3.97192e-07 -6.09672e-07 0.102201)
(-4.05316e-07 -6.02441e-07 0.102201)
(-3.83631e-07 5.90968e-07 0.102201)
(-4.02999e-07 -6.01111e-07 0.102201)
(4.05279e-05 -4.05616e-05 0.102161)
(-4.21881e-05 4.22212e-05 0.102163)
(-5.90711e-07 -3.96106e-07 0.102201)
(5.91776e-07 -3.77606e-07 0.102201)
(-5.89465e-07 -3.93622e-07 0.102201)
(4.21897e-05 4.22144e-05 0.102163)
(4.05483e-05 4.05328e-05 0.102161)
(-4.22139e-05 -4.21878e-05 0.102163)
(6.08825e-07 3.98191e-07 0.102201)
(-6.11708e-07 4.06486e-07 0.102201)
(6.08752e-07 3.92729e-07 0.102201)
(-6.11109e-07 4.05764e-07 0.102201)
(-4.05456e-05 4.05181e-05 0.102161)
(4.22172e-05 -4.21923e-05 0.102163)
(3.85531e-07 5.95719e-07 0.102201)
(3.9743e-07 -6.1015e-07 0.102201)
(3.83181e-07 5.94268e-07 0.102201)
(3.97274e-07 -6.09755e-07 0.102201)
(-4.05047e-07 -6.02238e-07 0.102201)
(-3.84154e-07 5.91154e-07 0.102201)
(-4.03948e-07 -6.01705e-07 0.102201)
(4.05275e-05 -4.0561e-05 0.102161)
(-4.21872e-05 4.22204e-05 0.102163)
(-5.90345e-07 -3.95678e-07 0.102201)
(5.91682e-07 -3.77827e-07 0.102201)
(-5.89989e-07 -3.94257e-07 0.102201)
(4.21877e-05 4.22124e-05 0.102163)
(4.05468e-05 4.05316e-05 0.102161)
(-4.22127e-05 -4.21862e-05 0.102163)
(6.08994e-07 3.98479e-07 0.102201)
(-6.11385e-07 4.0648e-07 0.102201)
(6.0884e-07 3.92206e-07 0.102201)
(-6.11033e-07 4.05815e-07 0.102201)
(-4.05461e-05 4.05187e-05 0.102161)
(4.22155e-05 -4.21904e-05 0.102163)
(3.85602e-07 5.95496e-07 0.102201)
(3.97549e-07 -6.10314e-07 0.102201)
(3.8378e-07 5.94331e-07 0.102201)
(3.9826e-07 -6.10411e-07 0.102201)
(-4.05613e-07 -6.02706e-07 0.102201)
(-3.84245e-07 5.91355e-07 0.102201)
(-4.03322e-07 -6.01551e-07 0.102201)
(4.05262e-05 -4.05599e-05 0.102161)
(-4.21872e-05 4.22203e-05 0.102163)
(-5.9076e-07 -3.96253e-07 0.102201)
(5.92489e-07 -3.78413e-07 0.102201)
(-5.89616e-07 -3.9411e-07 0.102201)
(4.21863e-05 4.22108e-05 0.102163)
(4.05456e-05 4.05303e-05 0.102161)
(-4.221e-05 -4.21857e-05 0.102163)
(6.09079e-07 3.98528e-07 0.102201)
(-6.11211e-07 4.06516e-07 0.102201)
(6.09807e-07 3.92377e-07 0.102201)
(-6.11066e-07 4.0598e-07 0.102201)
(-4.05446e-05 4.05174e-05 0.102161)
(4.22122e-05 -4.21872e-05 0.102163)
(3.85894e-07 5.95857e-07 0.102201)
(3.97669e-07 -6.10467e-07 0.102201)
(3.84708e-07 5.94313e-07 0.102201)
(3.98478e-07 -6.10522e-07 0.102201)
(-4.05834e-07 -6.03074e-07 0.102201)
(-3.83937e-07 5.91313e-07 0.102201)
(-4.0278e-07 -6.0188e-07 0.102201)
(4.0526e-05 -4.05598e-05 0.102161)
(-4.21838e-05 4.22174e-05 0.102163)
(-5.90812e-07 -3.97052e-07 0.102201)
(5.92916e-07 -3.78004e-07 0.102201)
(-5.88905e-07 -3.94529e-07 0.102201)
(4.21858e-05 4.22096e-05 0.102163)
(4.05456e-05 4.05285e-05 0.102161)
(-4.21994e-05 -4.21775e-05 0.102163)
(6.11323e-07 3.99318e-07 0.102201)
(-6.1083e-07 4.06553e-07 0.102201)
(6.11089e-07 3.87921e-07 0.102201)
(-4.05383e-05 4.0511e-05 0.102161)
(3.87004e-07 5.95653e-07 0.102201)
(3.98385e-07 -6.10786e-07 0.102201)
(3.84122e-07 5.92349e-07 0.102201)
(3.97803e-07 -6.10196e-07 0.102201)
(-4.06081e-07 -6.04145e-07 0.102201)
(-3.98703e-07 -6.02356e-07 0.102201)
(4.05247e-05 -4.05576e-05 0.102161)
(-4.21749e-05 4.22102e-05 0.102163)
(-5.90575e-07 -3.98255e-07 0.102201)
(5.93737e-07 -3.76574e-07 0.102201)
(-5.87075e-07 -3.92257e-07 0.102201)
(4.21733e-05 4.21949e-05 0.102163)
(4.05353e-05 4.05159e-05 0.102161)
(3.84464e-07 5.94449e-07 0.102201)
(3.9556e-07 -6.10368e-07 0.102201)
(4.05132e-05 -4.05446e-05 0.102161)
(-5.73647e-07 -5.70296e-07 0.102227)
(5.77973e-07 -5.64624e-07 0.102227)
(-5.69075e-07 5.80975e-07 0.102227)
(5.82311e-07 5.68676e-07 0.102227)
(3.92696e-08 -8.40151e-06 0.100748)
(7.10042e-07 6.24648e-06 0.0950997)
(-3.37199e-08 8.15959e-06 0.100742)
(-1.05033e-06 -6.28528e-06 0.0951099)
(-1.68675e-06 2.32144e-06 0.0841529)
(1.63554e-06 -2.3534e-06 0.0841638)
(-8.46038e-06 4.55671e-08 0.100748)
(6.21017e-06 6.92822e-07 0.0950992)
(8.20569e-06 -4.6815e-11 0.100742)
(-6.25476e-06 -1.01905e-06 0.0951097)
(5.81059e-07 -5.66663e-07 0.102227)
(-5.71656e-07 5.85068e-07 0.102227)
(5.85795e-07 5.72271e-07 0.102227)
(-5.88959e-07 -5.8198e-07 0.102226)
(5.92546e-07 -5.76551e-07 0.102226)
(-5.85231e-07 6.00032e-07 0.102226)
(5.98396e-07 5.88279e-07 0.102226)
(1.36574e-05 3.6732e-08 0.101922)
(-1.30377e-05 3.78848e-06 0.100993)
(-4.649e-07 -1.5882e-07 0.10222)
(-3.67444e-07 5.90872e-07 0.102201)
(-1.36502e-05 -2.71898e-08 0.101919)
(1.25808e-05 -4.08089e-06 0.101003)
(-4.56913e-07 -1.60445e-07 0.10222)
(2.20529e-06 -1.64138e-06 0.0841506)
(-2.30043e-06 1.61249e-06 0.0841643)
(3.02589e-08 1.36524e-05 0.101922)
(-1.64653e-07 -4.56677e-07 0.10222)
(3.81232e-06 -1.30736e-05 0.100993)
(5.86014e-07 -3.60551e-07 0.102201)
(-3.91472e-08 -1.36448e-05 0.101919)
(-1.6737e-07 -4.54977e-07 0.10222)
(-4.13823e-06 1.26408e-05 0.101002)
(-4.13274e-06 -5.01993e-06 0.0992325)
(-5.01361e-06 -4.12395e-06 0.099232)
(4.21763e-05 4.22037e-05 0.102163)
(3.91432e-06 4.86857e-06 0.0992425)
(4.8571e-06 3.90998e-06 0.0992419)
(3.30728e-08 -8.45653e-06 0.100748)
(7.49093e-07 6.20983e-06 0.0951002)
(-3.89333e-08 8.11136e-06 0.100742)
(-1.04037e-06 -6.3317e-06 0.0951104)
(-1.65045e-06 2.24758e-06 0.0841536)
(1.6562e-06 -2.43947e-06 0.084165)
(-8.51477e-06 2.03004e-08 0.100748)
(6.17452e-06 7.29653e-07 0.0950997)
(8.16156e-06 -6.63889e-09 0.100742)
(-6.3008e-06 -1.00953e-06 0.0951103)
(5.97049e-07 -5.84771e-07 0.102226)
(-5.86821e-07 5.9848e-07 0.102226)
(5.99763e-07 5.86686e-07 0.102226)
(-6.02754e-07 -6.02247e-07 0.102226)
(6.04159e-07 -5.97909e-07 0.102226)
(-5.96174e-07 6.03275e-07 0.102226)
(6.06751e-07 5.92121e-07 0.102226)
(1.36951e-05 2.58258e-08 0.101922)
(-1.29847e-05 3.74705e-06 0.100993)
(-4.30074e-07 -1.70803e-07 0.102219)
(-3.32591e-07 5.66012e-07 0.102201)
(-1.36063e-05 -3.21078e-08 0.101919)
(1.26399e-05 -4.15491e-06 0.101002)
(-4.17358e-07 -1.72969e-07 0.102219)
(2.10232e-06 -1.5778e-06 0.0841517)
(-2.32487e-06 1.6323e-06 0.0841656)
(2.34044e-08 1.36922e-05 0.101922)
(-1.73224e-07 -4.1741e-07 0.102219)
(3.74446e-06 -1.30117e-05 0.100993)
(5.65301e-07 -3.34688e-07 0.102201)
(-4.69833e-08 -1.36003e-05 0.101919)
(-1.76994e-07 -4.21176e-07 0.102219)
(-4.18696e-06 1.26903e-05 0.101002)
(-4.12399e-06 -4.98717e-06 0.0992324)
(-4.97874e-06 -4.11588e-06 0.0992319)
(4.22152e-05 4.22392e-05 0.102163)
(3.90376e-06 4.90062e-06 0.0992425)
(4.89505e-06 3.89814e-06 0.0992418)
(2.13932e-08 -8.48914e-06 0.100748)
(7.43853e-07 6.13915e-06 0.0951008)
(-5.41465e-08 8.04007e-06 0.100742)
(-1.01459e-06 -6.32546e-06 0.0951113)
(-1.64543e-06 2.15592e-06 0.0841555)
(1.68615e-06 -2.40867e-06 0.0841668)
(-8.54492e-06 1.48943e-08 0.100748)
(6.10461e-06 7.14027e-07 0.0951004)
(8.0976e-06 -5.93221e-08 0.100742)
(-6.28766e-06 -1.00347e-06 0.0951111)
(6.06177e-07 -5.97341e-07 0.102226)
(-6.02035e-07 6.08867e-07 0.102226)
(6.1368e-07 5.97235e-07 0.102226)
(-5.86749e-07 -6.22151e-07 0.102226)
(5.72266e-07 -6.20345e-07 0.102226)
(-5.39516e-07 5.11787e-07 0.102226)
(5.44345e-07 5.04221e-07 0.102226)
(1.3747e-05 6.60258e-09 0.101921)
(-1.29314e-05 3.6457e-06 0.100993)
(-4.01242e-07 -1.79733e-07 0.102219)
(-2.82721e-07 5.21924e-07 0.1022)
(-1.35753e-05 -5.25304e-08 0.101919)
(1.26741e-05 -4.15061e-06 0.101002)
(-3.59169e-07 -1.91066e-07 0.102219)
(2.14619e-06 -1.6591e-06 0.0841536)
(-2.43228e-06 1.77741e-06 0.0841677)
(1.42371e-08 1.37424e-05 0.101921)
(-1.79175e-07 -3.79967e-07 0.102219)
(3.72424e-06 -1.29907e-05 0.100993)
(5.21711e-07 -2.8016e-07 0.1022)
(-5.08099e-08 -1.35682e-05 0.101919)
(-1.91184e-07 -3.70275e-07 0.102219)
(-4.257e-06 1.27713e-05 0.101002)
(-4.12947e-06 -4.99178e-06 0.0992324)
(-4.97604e-06 -4.12621e-06 0.0992319)
(4.23002e-05 4.23147e-05 0.102163)
(4.02783e-06 4.97435e-06 0.0992425)
(4.98067e-06 4.01612e-06 0.0992419)
(7.37445e-08 -8.17441e-06 0.100748)
(7.54745e-07 6.12949e-06 0.0951017)
(-3.03709e-08 8.03746e-06 0.100741)
(-9.82429e-07 -5.80172e-06 0.0951119)
(-1.78189e-06 2.22348e-06 0.0841585)
(1.34879e-06 -1.93221e-06 0.0841679)
(-8.19587e-06 -7.34451e-08 0.100747)
(6.13104e-06 6.73275e-07 0.0951013)
(8.17326e-06 -2.3906e-07 0.100742)
(-5.74396e-06 -9.5879e-07 0.0951118)
(5.22243e-07 -5.52246e-07 0.102226)
(-4.92065e-07 4.74876e-07 0.102226)
(4.989e-07 4.66749e-07 0.102226)
(-5.18157e-07 -4.99709e-07 0.102226)
(5.27713e-07 -4.95513e-07 0.102226)
(-5.34442e-07 5.68175e-07 0.102226)
(5.51179e-07 5.55203e-07 0.102226)
(1.31548e-05 3.71013e-08 0.101921)
(-1.30769e-05 3.62102e-06 0.100993)
(-6.26781e-07 -1.9161e-07 0.102219)
(-5.27365e-07 6.76485e-07 0.1022)
(-1.38618e-05 -9.89035e-08 0.101919)
(1.22222e-05 -3.82242e-06 0.101002)
(-6.55031e-07 -1.40556e-07 0.102219)
(2.48199e-06 -1.93735e-06 0.0841553)
(-1.83872e-06 1.41478e-06 0.0841662)
(5.12737e-08 1.31644e-05 0.101921)
(-1.3388e-07 -6.38246e-07 0.102219)
(3.92565e-06 -1.32848e-05 0.100993)
(6.51313e-07 -4.89222e-07 0.1022)
(-2.53977e-08 -1.38925e-05 0.101919)
(-1.29599e-07 -6.39275e-07 0.102219)
(-3.78578e-06 1.22637e-05 0.101002)
(-4.24809e-06 -5.16574e-06 0.0992323)
(-5.14984e-06 -4.24947e-06 0.0992318)
(4.20664e-05 4.20926e-05 0.102163)
(3.85174e-06 4.80263e-06 0.0992422)
(4.79299e-06 3.84824e-06 0.0992416)
(2.37358e-08 -8.28785e-06 0.100748)
(8.0344e-07 6.76775e-06 0.0951003)
(-6.65564e-08 8.37829e-06 0.100742)
(-1.02144e-06 -6.04746e-06 0.0951098)
(-1.70612e-06 2.52833e-06 0.0841537)
(1.65829e-06 -2.26394e-06 0.0841638)
(-8.36734e-06 6.52185e-08 0.100748)
(6.71152e-06 8.22285e-07 0.0950999)
(8.39418e-06 8.28043e-08 0.100742)
(-6.02831e-06 -9.78962e-07 0.0951096)
(5.54063e-07 -5.2581e-07 0.102227)
(-5.52229e-07 5.87867e-07 0.102227)
(5.68372e-07 5.74926e-07 0.102227)
(-5.73386e-07 -5.67363e-07 0.102227)
(5.78009e-07 -5.61226e-07 0.102227)
(-5.65325e-07 5.8755e-07 0.102227)
(5.79274e-07 5.75852e-07 0.102227)
(1.3554e-05 5.10359e-08 0.101922)
(-1.3231e-05 4.03353e-06 0.100993)
(-5.30313e-07 -1.27105e-07 0.10222)
(-3.83056e-07 5.95614e-07 0.102201)
(-1.38446e-05 1.61417e-08 0.101919)
(1.24955e-05 -4.00594e-06 0.101003)
(-5.03497e-07 -1.42123e-07 0.10222)
(2.3365e-06 -1.59208e-06 0.0841507)
(-2.19583e-06 1.61328e-06 0.0841639)
(4.73293e-08 1.35797e-05 0.101922)
(-1.53495e-07 -4.93179e-07 0.10222)
(3.95427e-06 -1.31909e-05 0.100993)
(5.95579e-07 -3.65747e-07 0.102201)
(-4.46377e-08 -1.37783e-05 0.101919)
(-1.56262e-07 -4.82622e-07 0.10222)
(-4.06933e-06 1.25806e-05 0.101002)
(-4.13949e-06 -4.97516e-06 0.0992323)
(-4.99809e-06 -4.10684e-06 0.0992318)
(4.21815e-05 4.22311e-05 0.102163)
(3.90129e-06 4.89043e-06 0.0992424)
(4.85257e-06 3.92109e-06 0.0992418)
(3.03579e-08 -8.37185e-06 0.100748)
(7.60092e-07 6.34064e-06 0.0950995)
(-4.56373e-08 8.17205e-06 0.100742)
(-1.02897e-06 -6.17126e-06 0.0951095)
(-1.69129e-06 2.33438e-06 0.0841529)
(1.63288e-06 -2.32703e-06 0.0841637)
(-8.42876e-06 2.33683e-08 0.100748)
(6.30608e-06 7.37546e-07 0.0950991)
(8.22471e-06 -2.774e-08 0.100742)
(-6.13851e-06 -1.00259e-06 0.0951094)
(5.77787e-07 -5.63589e-07 0.102227)
(-5.66552e-07 5.83526e-07 0.102227)
(5.80562e-07 5.71595e-07 0.102227)
(-5.72198e-07 -5.71159e-07 0.102227)
(5.75904e-07 -5.65789e-07 0.102227)
(-5.6669e-07 5.77031e-07 0.102227)
(5.79279e-07 5.64111e-07 0.102227)
(1.35875e-05 3.08308e-08 0.101922)
(-1.30652e-05 3.7943e-06 0.100993)
(-4.85826e-07 -1.59241e-07 0.10222)
(-3.82225e-07 5.92537e-07 0.102201)
(-1.37163e-05 -3.07556e-08 0.101919)
(1.25415e-05 -4.06635e-06 0.101003)
(-4.82676e-07 -1.61546e-07 0.10222)
(2.23016e-06 -1.63111e-06 0.0841505)
(-2.22212e-06 1.58036e-06 0.0841639)
(3.12395e-08 1.3582e-05 0.101922)
(-1.5958e-07 -4.75786e-07 0.10222)
(3.82887e-06 -1.31029e-05 0.100993)
(5.93333e-07 -3.74166e-07 0.102201)
(-3.78998e-08 -1.37024e-05 0.101919)
(-1.61566e-07 -4.79333e-07 0.10222)
(-4.10159e-06 1.25942e-05 0.101002)
(-4.13495e-06 -5.0016e-06 0.0992324)
(-5.00333e-06 -4.12259e-06 0.0992319)
(4.21871e-05 4.22158e-05 0.102163)
(3.91207e-06 4.87221e-06 0.0992424)
(4.86315e-06 3.90571e-06 0.0992418)
(3.10788e-08 -8.37355e-06 0.100748)
(7.61631e-07 6.33735e-06 0.0950995)
(-4.55422e-08 8.16435e-06 0.100742)
(-1.02836e-06 -6.1698e-06 0.0951095)
(-1.69849e-06 2.33034e-06 0.0841529)
(1.63087e-06 -2.32802e-06 0.0841637)
(-8.42967e-06 2.20969e-08 0.100748)
(6.30432e-06 7.38763e-07 0.0950991)
(8.22032e-06 -3.13749e-08 0.100742)
(-6.1365e-06 -1.00213e-06 0.0951094)
(5.7525e-07 -5.6625e-07 0.102227)
(-5.66609e-07 5.7636e-07 0.102227)
(5.79522e-07 5.63556e-07 0.102227)
(-5.71817e-07 -5.71847e-07 0.102227)
(5.74389e-07 -5.66348e-07 0.102227)
(-5.66116e-07 5.74601e-07 0.102227)
(5.78242e-07 5.61896e-07 0.102227)
(1.35885e-05 2.88892e-08 0.101922)
(-1.3065e-05 3.79604e-06 0.100993)
(-4.84693e-07 -1.63673e-07 0.10222)
(-3.84329e-07 5.9199e-07 0.102201)
(-1.37149e-05 -3.42799e-08 0.101919)
(1.25414e-05 -4.06638e-06 0.101003)
(-4.82942e-07 -1.64239e-07 0.10222)
(2.22807e-06 -1.63786e-06 0.0841505)
(-2.22269e-06 1.57786e-06 0.0841639)
(3.06201e-08 1.35812e-05 0.101922)
(-1.63059e-07 -4.78666e-07 0.10222)
(3.82536e-06 -1.31054e-05 0.100993)
(5.92466e-07 -3.78581e-07 0.102201)
(-4.07347e-08 -1.37048e-05 0.101919)
(-1.63512e-07 -4.81321e-07 0.10222)
(-4.10108e-06 1.25913e-05 0.101002)
(-4.13091e-06 -5.00708e-06 0.0992324)
(-5.00004e-06 -4.12313e-06 0.0992319)
(4.21874e-05 4.22122e-05 0.102163)
(3.91434e-06 4.86993e-06 0.0992424)
(4.86412e-06 3.90648e-06 0.0992418)
(3.12314e-08 -8.37333e-06 0.100748)
(7.61624e-07 6.33806e-06 0.0950995)
(-4.51831e-08 8.16456e-06 0.100742)
(-1.02805e-06 -6.16992e-06 0.0951095)
(-1.69812e-06 2.33069e-06 0.0841529)
(1.6317e-06 -2.32765e-06 0.0841637)
(-8.42961e-06 2.15093e-08 0.100748)
(6.30537e-06 7.3848e-07 0.0950991)
(8.22032e-06 -3.22269e-08 0.100742)
(-6.13643e-06 -1.00228e-06 0.0951094)
(5.74201e-07 -5.6673e-07 0.102227)
(-5.66255e-07 5.74346e-07 0.102227)
(5.78965e-07 5.61384e-07 0.102227)
(-5.71506e-07 -5.72109e-07 0.102227)
(5.74333e-07 -5.66667e-07 0.102227)
(-5.65728e-07 5.73727e-07 0.102227)
(5.78306e-07 5.61004e-07 0.102227)
(1.35875e-05 2.86837e-08 0.101922)
(-1.3066e-05 3.79558e-06 0.100993)
(-4.85677e-07 -1.6449e-07 0.10222)
(-3.84898e-07 5.9153e-07 0.102201)
(-1.37157e-05 -3.48205e-08 0.101919)
(1.25407e-05 -4.06652e-06 0.101003)
(-4.83484e-07 -1.65006e-07 0.10222)
(2.22829e-06 -1.63782e-06 0.0841505)
(-2.22254e-06 1.57804e-06 0.0841639)
(2.86026e-08 1.35756e-05 0.101922)
(-1.63477e-07 -4.79503e-07 0.10222)
(3.82451e-06 -1.31089e-05 0.100993)
(5.92233e-07 -3.78669e-07 0.102201)
(-3.94168e-08 -1.3703e-05 0.101919)
(-1.63723e-07 -4.81731e-07 0.10222)
(-4.10141e-06 1.25916e-05 0.101002)
(-4.1314e-06 -5.0076e-06 0.0992324)
(-4.99799e-06 -4.12586e-06 0.0992319)
(4.21872e-05 4.22118e-05 0.102163)
(3.91387e-06 4.86994e-06 0.0992424)
(4.86512e-06 3.9063e-06 0.0992418)
(3.11422e-08 -8.37299e-06 0.100748)
(7.62004e-07 6.33821e-06 0.0950995)
(-4.5049e-08 8.16415e-06 0.100742)
(-1.02801e-06 -6.16949e-06 0.0951095)
(-1.69857e-06 2.33046e-06 0.0841529)
(1.63061e-06 -2.32822e-06 0.0841637)
(-8.42915e-06 2.17106e-08 0.100748)
(6.3051e-06 7.3866e-07 0.0950991)
(8.22008e-06 -3.21916e-08 0.100742)
(-6.13616e-06 -1.00201e-06 0.0951094)
(5.74072e-07 -5.66749e-07 0.102227)
(-5.65792e-07 5.73551e-07 0.102227)
(5.7914e-07 5.60639e-07 0.102227)
(-5.70879e-07 -5.71792e-07 0.102227)
(5.74234e-07 -5.66372e-07 0.102227)
(-5.65212e-07 5.73241e-07 0.102227)
(5.78426e-07 5.6089e-07 0.102227)
(1.35875e-05 2.85646e-08 0.101922)
(-1.30655e-05 3.79562e-06 0.100993)
(-4.85872e-07 -1.64741e-07 0.10222)
(-3.85322e-07 5.91848e-07 0.102201)
(-1.37151e-05 -3.48243e-08 0.101919)
(1.25407e-05 -4.06667e-06 0.101003)
(-4.83767e-07 -1.65086e-07 0.10222)
(2.22873e-06 -1.63756e-06 0.0841505)
(-2.22231e-06 1.57807e-06 0.0841639)
(2.74891e-08 1.35738e-05 0.101922)
(-1.63396e-07 -4.80984e-07 0.10222)
(3.82392e-06 -1.3109e-05 0.100993)
(5.93118e-07 -3.79827e-07 0.102201)
(-3.88179e-08 -1.37007e-05 0.101919)
(-1.63441e-07 -4.83305e-07 0.10222)
(-4.10153e-06 1.25906e-05 0.101002)
(-4.13081e-06 -5.00692e-06 0.0992324)
(-4.99786e-06 -4.12535e-06 0.0992319)
(4.21866e-05 4.22112e-05 0.102163)
(3.91414e-06 4.86999e-06 0.0992424)
(4.86456e-06 3.90676e-06 0.0992418)
(3.09967e-08 -8.37313e-06 0.100748)
(7.61424e-07 6.33775e-06 0.0950995)
(-4.54013e-08 8.16417e-06 0.100742)
(-1.02849e-06 -6.1697e-06 0.0951095)
(-1.69835e-06 2.33085e-06 0.0841529)
(1.63122e-06 -2.32772e-06 0.0841637)
(-8.42948e-06 2.12455e-08 0.100748)
(6.30519e-06 7.38937e-07 0.0950991)
(8.22049e-06 -3.26569e-08 0.100742)
(-6.13603e-06 -1.00239e-06 0.0951094)
(5.74054e-07 -5.66477e-07 0.102227)
(-5.65432e-07 5.73371e-07 0.102227)
(5.79187e-07 5.60761e-07 0.102227)
(-5.7101e-07 -5.71577e-07 0.102227)
(5.74064e-07 -5.6615e-07 0.102227)
(-5.65598e-07 5.73903e-07 0.102227)
(5.78349e-07 5.61481e-07 0.102227)
(1.35872e-05 2.83139e-08 0.101922)
(-1.3066e-05 3.79517e-06 0.100993)
(-4.8605e-07 -1.64684e-07 0.10222)
(-3.85573e-07 5.91922e-07 0.102201)
(-1.37153e-05 -3.52915e-08 0.101919)
(1.25401e-05 -4.06682e-06 0.101003)
(-4.83877e-07 -1.64926e-07 0.10222)
(2.22829e-06 -1.63858e-06 0.0841505)