/*--------------------------------*- C++ -*----------------------------------*\
| =========                 |                                                 |
| \\      /  F ield         | OpenFOAM: The Open Source CFD Toolbox           |
|  \\    /   O peration     | Version:  2206                                  |
|   \\  /    A nd           | Website:  www.openfoam.com                      |
|    \\/     M anipulation  |                                                 |
\*---------------------------------------------------------------------------*/
FoamFile
{
    version     2.0;
    format      ascii;
    arch        "LSB;label=32;scalar=64";
    class       volScalarField;
    location    "35";
    object      k;
}
// * * * * * * * * * * * * * * * * * * * * * * * * * * * * * * * * * * * * * //

dimensions      [0 2 -2 0 0 0 0];

internalField   nonuniform List<scalar> 
28688
(
3.58934e-05
3.58912e-05
3.58912e-05
3.59955e-05
3.39302e-05
3.38891e-05
3.38891e-05
3.3962e-05
3.2157e-05
3.20073e-05
3.20073e-05
3.19516e-05
3.05304e-05
3.02269e-05
3.02268e-05
2.99886e-05
2.90404e-05
2.85605e-05
2.85604e-05
2.81254e-05
2.76287e-05
2.69781e-05
2.69779e-05
2.6383e-05
2.63417e-05
2.55528e-05
2.55526e-05
2.48293e-05
2.50148e-05
2.40951e-05
2.40949e-05
2.33079e-05
2.4479e-05
2.36572e-05
2.3657e-05
2.28546e-05
2.4412e-05
2.36795e-05
2.36793e-05
2.29785e-05
2.4411e-05
2.36934e-05
2.36933e-05
2.30075e-05
2.44113e-05
2.36952e-05
2.3695e-05
2.30108e-05
3.6307e-05
3.62909e-05
3.62909e-05
3.6307e-05
3.62909e-05
3.62909e-05
3.6423e-05
3.64229e-05
3.6423e-05
3.6423e-05
3.62909e-05
3.62909e-05
3.6307e-05
3.62909e-05
3.62909e-05
3.6307e-05
3.59955e-05
3.42687e-05
3.58912e-05
3.58912e-05
3.43763e-05
3.43763e-05
3.59955e-05
3.42687e-05
3.58911e-05
3.58912e-05
3.43763e-05
3.43763e-05
3.58912e-05
3.43764e-05
3.43763e-05
3.59955e-05
3.42687e-05
3.58912e-05
3.43764e-05
3.43763e-05
3.42687e-05
3.3962e-05
3.22632e-05
3.38891e-05
3.3889e-05
3.24674e-05
3.24673e-05
3.3962e-05
3.22633e-05
3.38891e-05
3.3889e-05
3.24675e-05
3.24673e-05
3.3889e-05
3.24676e-05
3.24674e-05
3.3962e-05
3.22632e-05
3.38891e-05
3.24676e-05
3.24675e-05
3.22632e-05
3.19516e-05
3.02999e-05
3.20071e-05
3.2007e-05
3.06649e-05
3.06647e-05
3.19516e-05
3.03e-05
3.20072e-05
3.2007e-05
3.0665e-05
3.06646e-05
3.20071e-05
3.06651e-05
3.06648e-05
3.19516e-05
3.02998e-05
3.20072e-05
3.06651e-05
3.06649e-05
3.02998e-05
2.99887e-05
2.84261e-05
3.02266e-05
3.02264e-05
2.89672e-05
2.8967e-05
2.99887e-05
2.84263e-05
3.02267e-05
3.02264e-05
2.89674e-05
2.89668e-05
3.02266e-05
2.89676e-05
2.89671e-05
2.99886e-05
2.8426e-05
3.02267e-05
2.89675e-05
2.89673e-05
2.8426e-05
2.81256e-05
2.66669e-05
2.85601e-05
2.85599e-05
2.73541e-05
2.73538e-05
2.81256e-05
2.66671e-05
2.85603e-05
2.85598e-05
2.73544e-05
2.73537e-05
2.856e-05
2.73546e-05
2.7354e-05
2.81254e-05
2.66668e-05
2.85603e-05
2.73545e-05
2.73543e-05
2.66668e-05
2.63832e-05
2.50854e-05
2.69775e-05
2.69773e-05
2.59221e-05
2.59219e-05
2.63833e-05
2.50856e-05
2.69778e-05
2.69771e-05
2.59225e-05
2.59217e-05
2.69774e-05
2.59228e-05
2.59221e-05
2.6383e-05
2.50853e-05
2.69778e-05
2.59227e-05
2.59225e-05
2.50853e-05
2.48295e-05
2.35174e-05
2.55521e-05
2.55518e-05
2.43953e-05
2.43949e-05
2.48297e-05
2.35176e-05
2.55525e-05
2.55517e-05
2.43957e-05
2.43947e-05
2.5552e-05
2.4396e-05
2.43951e-05
2.48293e-05
2.35172e-05
2.55525e-05
2.43958e-05
2.43957e-05
2.35171e-05
2.33081e-05
2.28598e-05
2.40944e-05
2.4094e-05
2.36775e-05
2.36772e-05
2.33082e-05
2.28599e-05
2.40948e-05
2.40938e-05
2.36779e-05
2.3677e-05
2.40943e-05
2.36782e-05
2.36774e-05
2.33079e-05
2.28596e-05
2.40948e-05
2.3678e-05
2.3678e-05
2.28596e-05
2.28549e-05
2.29779e-05
2.36566e-05
2.36564e-05
2.3669e-05
2.36688e-05
2.2855e-05
2.2978e-05
2.3657e-05
2.36561e-05
2.36694e-05
2.36686e-05
2.36565e-05
2.36696e-05
2.36689e-05
2.28547e-05
2.29776e-05
2.36571e-05
2.36694e-05
2.36695e-05
2.29778e-05
2.29786e-05
2.3011e-05
2.36791e-05
2.36789e-05
2.36916e-05
2.36915e-05
2.29787e-05
2.3011e-05
2.36795e-05
2.36787e-05
2.36921e-05
2.36912e-05
2.36791e-05
2.36922e-05
2.36916e-05
2.29784e-05
2.30107e-05
2.36796e-05
2.3692e-05
2.36922e-05
2.3011e-05
2.30076e-05
2.30148e-05
2.3693e-05
2.36929e-05
2.36944e-05
2.36943e-05
2.30076e-05
2.30148e-05
2.36935e-05
2.36925e-05
2.36949e-05
2.3694e-05
2.3693e-05
2.3695e-05
2.36945e-05
2.30073e-05
2.30145e-05
2.36936e-05
2.36949e-05
2.3695e-05
2.30148e-05
2.3011e-05
2.30156e-05
2.36946e-05
2.36946e-05
2.3695e-05
2.30109e-05
2.36951e-05
2.36942e-05
2.36954e-05
2.36945e-05
2.36947e-05
2.3695e-05
2.30106e-05
2.30152e-05
2.36952e-05
2.36954e-05
2.36955e-05
2.30156e-05
3.73773e-05
3.73765e-05
3.7377e-05
3.7377e-05
3.73702e-05
3.73777e-05
3.73043e-05
3.73768e-05
3.73702e-05
3.73777e-05
3.73768e-05
3.73043e-05
3.73742e-05
3.72959e-05
3.72959e-05
3.5883e-05
4.08811e-05
3.66018e-05
4.51358e-05
5.5115e-05
6.48795e-05
3.58834e-05
4.08803e-05
3.6602e-05
4.51354e-05
3.58934e-05
3.58934e-05
3.58934e-05
3.43999e-05
3.43999e-05
3.43999e-05
3.43999e-05
3.52768e-05
3.56348e-05
3.5893e-05
3.53772e-05
3.60469e-05
3.42409e-05
3.53824e-05
5.5117e-05
6.48832e-05
3.52768e-05
3.5893e-05
3.56344e-05
3.53772e-05
3.60469e-05
3.53824e-05
3.42418e-05
3.65901e-05
3.65906e-05
3.52792e-05
3.40687e-05
3.40679e-05
3.39739e-05
5.13647e-05
3.46734e-05
5.46107e-05
7.65608e-05
8.08492e-05
3.39767e-05
5.13658e-05
3.46732e-05
5.46111e-05
3.39302e-05
3.39302e-05
3.39302e-05
3.25837e-05
3.25837e-05
3.25837e-05
3.25837e-05
3.30563e-05
3.24699e-05
3.39298e-05
3.34093e-05
3.38943e-05
3.15797e-05
3.34686e-05
7.65625e-05
8.08528e-05
3.30565e-05
3.39298e-05
3.24687e-05
3.34093e-05
3.3894e-05
3.34686e-05
3.15818e-05
3.17093e-05
3.17086e-05
3.32639e-05
3.09295e-05
3.09279e-05
3.22564e-05
5.91816e-05
3.29153e-05
6.1425e-05
8.44022e-05
8.50652e-05
3.22608e-05
5.91835e-05
3.29121e-05
6.1427e-05
3.2157e-05
3.2157e-05
3.2157e-05
3.0928e-05
3.09279e-05
3.09279e-05
3.09279e-05
3.07912e-05
3.05085e-05
3.21369e-05
3.15548e-05
3.16345e-05
2.98874e-05
3.17114e-05
8.44043e-05
8.50677e-05
3.07914e-05
3.21368e-05
3.0508e-05
3.15548e-05
3.16339e-05
3.17114e-05
2.98891e-05
3.02073e-05
3.02064e-05
3.12732e-05
3.00079e-05
3.00064e-05
3.07669e-05
6.43663e-05
3.13429e-05
6.57102e-05
8.46353e-05
8.38851e-05
3.07682e-05
6.4368e-05
3.13398e-05
6.57135e-05
3.05304e-05
3.05304e-05
3.05304e-05
2.94056e-05
2.94056e-05
2.94056e-05
2.94056e-05
2.86066e-05
2.91444e-05
3.04665e-05
2.97972e-05
2.94092e-05
2.86756e-05
3.00655e-05
8.46361e-05
8.38871e-05
2.86065e-05
3.04664e-05
2.91447e-05
2.97971e-05
2.94085e-05
3.00654e-05
2.8677e-05
2.99425e-05
2.99414e-05
2.93467e-05
3.00357e-05
3.00346e-05
2.95309e-05
6.73341e-05
2.99906e-05
6.80168e-05
8.22339e-05
8.12032e-05
2.95276e-05
6.73363e-05
2.9993e-05
6.80206e-05
2.90404e-05
2.90404e-05
2.90404e-05
2.79588e-05
2.79587e-05
2.79587e-05
2.79587e-05
2.65751e-05
2.81222e-05
2.89091e-05
2.81534e-05
2.73118e-05
2.77867e-05
2.85259e-05
8.22337e-05
8.12045e-05
2.65747e-05
2.8909e-05
2.81221e-05
2.81533e-05
2.73116e-05
2.85258e-05
2.77881e-05
3.0449e-05
3.04485e-05
2.75346e-05
3.07736e-05
3.07729e-05
2.8613e-05
6.87317e-05
2.89658e-05
6.90412e-05
7.9461e-05
7.85358e-05
2.86149e-05
6.87347e-05
2.89654e-05
6.90449e-05
2.76288e-05
2.76287e-05
2.76287e-05
2.66854e-05
2.66854e-05
2.66853e-05
2.66853e-05
2.47529e-05
2.74024e-05
2.7421e-05
2.66202e-05
2.54098e-05
2.71913e-05
2.7084e-05
7.94604e-05
7.85367e-05
2.47527e-05
2.74209e-05
2.74026e-05
2.66201e-05
2.54092e-05
2.70839e-05
2.71926e-05
3.15642e-05
3.15642e-05
2.58534e-05
3.21154e-05
3.21157e-05
2.81363e-05
6.92454e-05
2.81979e-05
6.92434e-05
7.70092e-05
7.64208e-05
2.81369e-05
6.92488e-05
2.81981e-05
6.92467e-05
2.63417e-05
2.63416e-05
2.63416e-05
2.5294e-05
2.52939e-05
2.52938e-05
2.52939e-05
2.32039e-05
2.69925e-05
2.60616e-05
2.51596e-05
2.37418e-05
2.68875e-05
2.56849e-05
7.70089e-05
7.64214e-05
2.32035e-05
2.60615e-05
2.69927e-05
2.51594e-05
2.37418e-05
2.56848e-05
2.68877e-05
3.31422e-05
3.3143e-05
2.43128e-05
3.37974e-05
3.37991e-05
2.74892e-05
6.9184e-05
2.74835e-05
6.9349e-05
7.61595e-05
7.62386e-05
2.74885e-05
6.91874e-05
2.74829e-05
6.93523e-05
2.50148e-05
2.50147e-05
2.50148e-05
2.45414e-05
2.45414e-05
2.45413e-05
2.45413e-05
2.19389e-05
2.64894e-05
2.46544e-05
2.3878e-05
2.21928e-05
2.65036e-05
2.44276e-05
7.61591e-05
7.62353e-05
2.19387e-05
2.46543e-05
2.64893e-05
2.38778e-05
2.21925e-05
2.44274e-05
2.65048e-05
3.44253e-05
3.44274e-05
2.29921e-05
3.50273e-05
3.50295e-05
2.79353e-05
6.97036e-05
2.78054e-05
6.97897e-05
7.63958e-05
7.64328e-05
2.7936e-05
6.97067e-05
2.78067e-05
6.97925e-05
2.44791e-05
2.44789e-05
2.4479e-05
2.44157e-05
2.44157e-05
2.44156e-05
2.44157e-05
2.208e-05
2.70754e-05
2.41195e-05
2.36555e-05
2.19717e-05
2.73307e-05
2.40925e-05
7.6393e-05
7.64288e-05
2.20803e-05
2.41194e-05
2.70759e-05
2.36553e-05
2.19721e-05
2.40924e-05
2.73307e-05
3.60269e-05
3.60294e-05
2.29105e-05
3.63109e-05
3.63146e-05
2.8038e-05
6.98349e-05
2.80358e-05
6.98347e-05
7.64469e-05
7.64483e-05
2.80398e-05
6.98383e-05
2.80375e-05
6.98385e-05
2.44122e-05
2.4412e-05
2.44121e-05
2.44109e-05
2.44108e-05
2.44107e-05
2.44108e-05
2.21865e-05
2.75428e-05
2.40777e-05
2.36861e-05
2.21739e-05
2.75507e-05
2.4078e-05
7.64433e-05
7.64443e-05
2.2187e-05
2.40776e-05
2.75434e-05
2.3686e-05
2.21743e-05
2.4078e-05
2.75519e-05
3.64913e-05
3.64947e-05
2.30026e-05
3.65005e-05
3.65041e-05
2.80421e-05
6.98373e-05
2.80441e-05
6.98358e-05
7.64481e-05
7.64486e-05
2.80437e-05
6.98409e-05
2.80454e-05
6.98389e-05
2.4411e-05
2.44109e-05
2.4411e-05
2.44113e-05
2.44113e-05
2.44111e-05
2.44112e-05
2.21956e-05
2.75627e-05
2.40797e-05
2.36943e-05
2.21945e-05
2.75588e-05
2.40802e-05
7.6444e-05
7.64444e-05
2.2196e-05
2.40797e-05
2.75634e-05
2.36942e-05
2.2195e-05
2.40801e-05
2.75598e-05
3.65044e-05
3.6508e-05
2.30138e-05
3.65023e-05
3.65059e-05
2.80434e-05
6.98379e-05
2.8046e-05
6.98362e-05
7.64482e-05
7.64488e-05
2.8045e-05
6.98407e-05
2.80473e-05
6.98388e-05
2.44114e-05
2.44113e-05
2.44114e-05
2.44116e-05
2.44118e-05
2.44115e-05
2.44116e-05
2.21979e-05
2.75655e-05
2.40806e-05
2.36953e-05
2.21976e-05
2.75604e-05
2.40807e-05
7.64441e-05
7.64445e-05
2.21983e-05
2.40805e-05
2.75661e-05
2.36952e-05
2.2198e-05
2.40807e-05
2.75613e-05
3.65054e-05
3.65089e-05
2.30152e-05
3.6503e-05
3.65066e-05
3.73742e-05
3.72959e-05
3.72959e-05
5.31119e-05
3.71932e-05
5.31139e-05
3.71932e-05
3.70928e-05
3.72454e-05
3.72458e-05
3.71762e-05
3.71762e-05
3.73702e-05
3.73777e-05
3.73043e-05
3.73768e-05
3.73702e-05
3.73777e-05
3.73043e-05
3.73768e-05
3.71732e-05
3.94121e-05
3.7168e-05
3.67256e-05
3.71732e-05
3.94121e-05
3.7168e-05
3.67257e-05
3.70956e-05
3.71022e-05
3.60281e-05
3.6421e-05
3.71636e-05
3.71109e-05
3.63059e-05
3.70956e-05
3.71022e-05
3.60286e-05
3.6421e-05
3.71636e-05
3.71109e-05
3.6306e-05
3.73742e-05
3.72959e-05
3.72959e-05
5.31121e-05
3.71933e-05
3.70928e-05
3.72463e-05
3.7245e-05
3.71762e-05
3.71762e-05
5.31136e-05
3.71933e-05
3.73702e-05
3.73777e-05
3.73043e-05
3.73768e-05
3.73702e-05
3.73777e-05
3.73768e-05
3.73043e-05
3.71732e-05
3.94126e-05
3.7168e-05
3.67259e-05
3.70956e-05
3.71022e-05
3.60282e-05
3.6421e-05
3.71636e-05
3.71109e-05
3.6306e-05
3.71732e-05
3.94128e-05
3.7168e-05
3.67256e-05
3.70956e-05
3.71022e-05
3.6421e-05
3.60282e-05
3.71109e-05
3.71636e-05
3.6306e-05
3.73773e-05
3.73765e-05
3.7377e-05
3.7377e-05
3.73773e-05
3.73765e-05
3.7377e-05
3.7377e-05
3.73773e-05
3.73765e-05
3.7377e-05
3.7377e-05
3.71134e-05
3.71099e-05
3.6424e-05
3.6424e-05
3.71125e-05
3.71125e-05
3.6426e-05
3.71134e-05
3.71099e-05
3.6424e-05
3.6424e-05
3.71125e-05
3.71125e-05
3.6426e-05
3.71134e-05
3.71099e-05
3.6424e-05
3.6424e-05
3.71125e-05
3.71125e-05
3.6426e-05
3.71134e-05
3.71099e-05
3.6424e-05
3.6424e-05
3.71125e-05
3.71125e-05
3.6426e-05
3.73702e-05
3.73777e-05
3.73768e-05
3.73043e-05
3.70956e-05
3.71022e-05
3.6028e-05
3.6421e-05
3.71636e-05
3.71109e-05
3.6306e-05
3.71732e-05
3.94122e-05
3.7168e-05
3.67258e-05
3.70956e-05
3.71022e-05
3.6421e-05
3.60286e-05
3.71109e-05
3.71636e-05
3.6306e-05
3.71732e-05
3.94128e-05
3.7168e-05
3.67255e-05
3.73742e-05
3.72959e-05
3.72959e-05
5.31142e-05
3.71933e-05
3.70928e-05
3.72457e-05
3.72461e-05
3.71762e-05
3.71762e-05
5.31144e-05
3.71933e-05
3.73702e-05
3.73777e-05
3.73768e-05
3.73043e-05
3.70956e-05
3.71022e-05
3.6421e-05
3.60286e-05
3.71109e-05
3.71636e-05
3.6306e-05
3.70956e-05
3.71022e-05
3.6421e-05
3.60286e-05
3.71109e-05
3.71636e-05
3.6306e-05
3.71732e-05
3.94127e-05
3.7168e-05
3.67256e-05
3.71732e-05
3.94127e-05
3.7168e-05
3.67258e-05
3.70928e-05
3.72459e-05
3.72465e-05
3.71762e-05
3.71762e-05
5.31142e-05
3.71933e-05
5.31141e-05
3.71932e-05
5.51149e-05
6.48792e-05
5.51167e-05
6.48822e-05
3.65904e-05
3.65913e-05
3.52792e-05
3.40687e-05
3.40674e-05
7.47154e-05
6.76878e-05
7.47192e-05
6.76917e-05
3.49727e-05
3.20458e-05
3.20442e-05
3.3461e-05
3.34615e-05
3.58829e-05
4.08804e-05
3.6602e-05
4.51341e-05
3.52766e-05
3.56349e-05
3.5893e-05
3.53772e-05
3.60469e-05
3.42414e-05
3.53823e-05
3.52767e-05
3.56343e-05
3.5893e-05
3.53771e-05
3.60469e-05
3.42422e-05
3.53823e-05
3.56295e-05
5.02024e-05
4.6464e-05
3.48986e-05
3.56299e-05
5.02013e-05
4.64635e-05
3.48991e-05
3.49981e-05
3.48724e-05
3.27355e-05
3.44014e-05
3.38591e-05
3.48855e-05
3.41813e-05
3.49982e-05
3.48724e-05
3.27365e-05
3.44014e-05
3.3858e-05
3.48855e-05
3.41814e-05
3.65904e-05
3.65914e-05
3.52792e-05
3.40687e-05
3.40667e-05
5.51161e-05
6.48814e-05
7.47161e-05
6.76903e-05
3.49727e-05
3.20454e-05
3.20433e-05
3.34606e-05
3.34623e-05
7.47178e-05
6.76897e-05
3.52768e-05
3.56347e-05
3.5893e-05
3.53772e-05
3.60469e-05
3.42413e-05
3.53823e-05
3.58831e-05
4.08815e-05
3.66016e-05
4.51368e-05
3.52767e-05
3.5893e-05
3.56349e-05
3.53772e-05
3.60469e-05
3.53824e-05
3.42413e-05
3.56293e-05
5.02023e-05
4.64637e-05
3.48997e-05
3.4998e-05
3.48724e-05
3.27353e-05
3.44014e-05
3.38584e-05
3.48855e-05
3.41816e-05
3.56293e-05
5.02041e-05
4.64655e-05
3.48993e-05
3.4998e-05
3.48724e-05
3.44014e-05
3.27351e-05
3.48855e-05
3.38587e-05
3.41814e-05
3.58831e-05
4.08792e-05
3.66019e-05
4.51359e-05
3.52767e-05
3.5893e-05
3.56344e-05
3.53772e-05
3.60469e-05
3.53824e-05
3.42421e-05
3.58831e-05
4.0882e-05
3.66015e-05
4.51359e-05
3.49982e-05
3.48725e-05
3.27346e-05
3.44014e-05
3.38587e-05
3.48855e-05
3.41815e-05
3.56297e-05
5.02018e-05
4.64616e-05
3.48992e-05
3.49981e-05
3.48724e-05
3.44014e-05
3.27365e-05
3.48855e-05
3.38579e-05
3.41813e-05
3.56293e-05
5.02027e-05
4.64658e-05
3.4899e-05
3.65908e-05
3.65902e-05
3.52792e-05
3.40677e-05
3.40681e-05
5.51171e-05
6.48809e-05
7.47202e-05
6.76913e-05
3.49727e-05
3.20441e-05
3.20461e-05
3.3461e-05
3.34608e-05
7.47177e-05
6.76917e-05
3.52769e-05
3.5893e-05
3.56344e-05
3.53771e-05
3.60469e-05
3.53824e-05
3.42419e-05
3.58836e-05
4.08813e-05
3.66015e-05
4.51364e-05
3.58839e-05
4.08804e-05
3.66019e-05
4.51353e-05
3.4998e-05
3.48725e-05
3.44014e-05
3.27363e-05
3.48855e-05
3.38581e-05
3.41815e-05
3.4998e-05
3.48724e-05
3.44014e-05
3.27363e-05
3.48855e-05
3.38577e-05
3.41816e-05
3.56286e-05
5.02036e-05
4.64655e-05
3.48995e-05
3.56288e-05
5.02031e-05
4.64634e-05
3.48998e-05
5.51167e-05
6.48808e-05
5.51167e-05
6.48815e-05
3.49727e-05
3.20459e-05
3.20446e-05
3.34603e-05
3.34605e-05
7.47167e-05
6.7691e-05
7.47183e-05
6.76925e-05
7.65583e-05
8.08481e-05
7.65625e-05
8.08525e-05
3.17092e-05
3.17093e-05
3.3264e-05
3.09272e-05
3.0927e-05
8.39974e-05
8.18624e-05
8.40011e-05
8.18659e-05
3.29545e-05
3.0312e-05
3.03122e-05
3.07427e-05
3.07398e-05
3.39746e-05
5.13644e-05
3.46735e-05
5.46106e-05
3.3056e-05
3.247e-05
3.39298e-05
3.34093e-05
3.38943e-05
3.15804e-05
3.34686e-05
3.30563e-05
3.24686e-05
3.39298e-05
3.34092e-05
3.38943e-05
3.15819e-05
3.34686e-05
3.37727e-05
5.83544e-05
5.56099e-05
3.30904e-05
3.37727e-05
5.83546e-05
5.56092e-05
3.30911e-05
3.27674e-05
3.29353e-05
3.06533e-05
3.25713e-05
3.13889e-05
3.30157e-05
3.19201e-05
3.27674e-05
3.29352e-05
3.06548e-05
3.25713e-05
3.1387e-05
3.30157e-05
3.19204e-05
3.17087e-05
3.171e-05
3.3264e-05
3.09283e-05
3.09234e-05
7.65601e-05
8.085e-05
8.39983e-05
8.18644e-05
3.29546e-05
3.03132e-05
3.03092e-05
3.074e-05
3.07436e-05
8.39991e-05
8.1864e-05
3.30566e-05
3.24692e-05
3.39298e-05
3.34093e-05
3.38941e-05
3.15809e-05
3.34686e-05
3.39761e-05
5.13667e-05
3.46731e-05
5.46137e-05
3.30563e-05
3.39298e-05
3.24698e-05
3.34092e-05
3.38941e-05
3.34686e-05
3.15799e-05
3.37702e-05
5.83554e-05
5.56114e-05
3.30939e-05
3.2767e-05
3.29353e-05
3.06535e-05
3.25713e-05
3.13873e-05
3.30157e-05
3.19207e-05
3.37702e-05
5.83577e-05
5.56118e-05
3.30933e-05
3.2767e-05
3.29352e-05
3.25713e-05
3.06527e-05
3.30156e-05
3.13887e-05
3.19204e-05
3.3975e-05
5.13636e-05
3.46734e-05
5.46105e-05
3.30562e-05
3.39298e-05
3.24689e-05
3.34092e-05
3.38943e-05
3.34686e-05
3.15822e-05
3.39742e-05
5.13664e-05
3.46735e-05
5.46118e-05
3.27675e-05
3.29354e-05
3.06526e-05
3.25714e-05
3.13885e-05
3.30157e-05
3.19204e-05
3.37722e-05
5.83547e-05
5.56086e-05
3.30911e-05
3.27673e-05
3.29353e-05
3.25713e-05
3.0655e-05
3.30157e-05
3.13873e-05
3.19202e-05
3.3772e-05
5.83564e-05
5.56112e-05
3.30908e-05
3.17092e-05
3.17088e-05
3.32639e-05
3.09252e-05
3.09283e-05
7.65618e-05
8.085e-05
8.40016e-05
8.18667e-05
3.29545e-05
3.03107e-05
3.03136e-05
3.07423e-05
3.07415e-05
8.3999e-05
8.18653e-05
3.30566e-05
3.39298e-05
3.24682e-05
3.34093e-05
3.38941e-05
3.34686e-05
3.15818e-05
3.39764e-05
5.13664e-05
3.46729e-05
5.46128e-05
3.39763e-05
5.1365e-05
3.46731e-05
5.46119e-05
3.27669e-05
3.29354e-05
3.25713e-05
3.06546e-05
3.30157e-05
3.13873e-05
3.19206e-05
3.2767e-05
3.29353e-05
3.25713e-05
3.06545e-05
3.30157e-05
3.13868e-05
3.19208e-05
3.37699e-05
5.83566e-05
5.56113e-05
3.30936e-05
3.37704e-05
5.83562e-05
5.56106e-05
3.30941e-05
7.65616e-05
8.085e-05
7.65634e-05
8.08516e-05
3.29545e-05
3.03142e-05
3.03127e-05
3.07405e-05
3.07397e-05
8.39992e-05
8.18653e-05
8.40004e-05
8.18668e-05
8.44014e-05
8.50649e-05
8.44035e-05
8.50671e-05
3.02084e-05
3.02066e-05
3.12732e-05
3.00041e-05
3.00065e-05
8.48344e-05
8.5074e-05
8.48365e-05
8.50755e-05
3.09613e-05
2.99324e-05
2.99309e-05
2.99636e-05
2.99626e-05
3.22571e-05
5.9181e-05
3.29154e-05
6.14257e-05
3.07909e-05
3.05094e-05
3.21368e-05
3.15546e-05
3.16344e-05
2.98881e-05
3.17114e-05
3.07912e-05
3.05076e-05
3.21368e-05
3.15545e-05
3.16345e-05
2.98888e-05
3.17114e-05
3.21031e-05
6.38563e-05
6.20865e-05
3.14825e-05
3.21032e-05
6.38577e-05
6.20858e-05
3.14828e-05
3.05099e-05
3.11079e-05
2.92413e-05
3.08765e-05
2.97729e-05
3.1292e-05
2.96844e-05
3.05101e-05
3.11078e-05
2.92418e-05
3.08764e-05
2.97717e-05
3.12919e-05
2.96846e-05
3.0207e-05
3.02075e-05
3.12733e-05
3.0007e-05
3.00011e-05
8.4402e-05
8.50658e-05
8.48341e-05
8.50741e-05
3.09613e-05
2.99315e-05
2.99307e-05
2.99631e-05
2.99617e-05
8.48354e-05
8.50744e-05
3.07915e-05
3.05082e-05
3.21368e-05
3.15547e-05
3.1634e-05
2.9888e-05
3.17114e-05
3.22602e-05
5.91836e-05
3.29121e-05
6.14288e-05
3.07912e-05
3.21368e-05
3.05087e-05
3.15544e-05
3.16339e-05
3.17113e-05
2.98875e-05
3.20997e-05
6.38592e-05
6.20882e-05
3.14858e-05
3.05096e-05
3.1108e-05
2.92415e-05
3.08764e-05
2.97722e-05
3.1292e-05
2.96848e-05
3.20996e-05
6.38606e-05
6.20883e-05
3.14854e-05
3.05094e-05
3.11077e-05
3.08764e-05
2.92409e-05
3.12919e-05
2.97723e-05
2.96845e-05
3.22571e-05
5.91806e-05
3.29154e-05
6.14261e-05
3.0791e-05
3.21368e-05
3.05078e-05
3.15546e-05
3.16343e-05
3.17114e-05
2.9889e-05
3.22567e-05
5.91828e-05
3.29151e-05
6.14273e-05
3.05101e-05
3.11081e-05
2.92408e-05
3.08765e-05
2.9772e-05
3.1292e-05
2.96846e-05
3.21032e-05
6.38583e-05
6.20854e-05
3.14828e-05
3.05099e-05
3.11079e-05
3.08764e-05
2.92418e-05
3.12919e-05
2.97718e-05
2.96843e-05
3.21028e-05
6.3859e-05
6.20874e-05
3.14824e-05
3.0207e-05
3.02081e-05
3.12732e-05
3.00028e-05
3.00079e-05
8.4403e-05
8.50658e-05
8.48366e-05
8.5076e-05
3.09613e-05
2.99314e-05
2.99326e-05
2.99622e-05
2.99637e-05
8.48345e-05
8.50747e-05
3.07916e-05
3.21368e-05
3.05073e-05
3.15547e-05
3.1634e-05
3.17114e-05
2.98885e-05
3.22605e-05
5.91829e-05
3.29117e-05
6.14275e-05
3.22609e-05
5.91827e-05
3.29121e-05
6.14275e-05
3.05094e-05
3.11081e-05
3.08764e-05
2.9242e-05
3.1292e-05
2.97719e-05
2.96846e-05
3.05096e-05
3.1108e-05
3.08764e-05
2.92415e-05
3.12919e-05
2.97713e-05
2.96848e-05
3.20993e-05
6.38593e-05
6.20875e-05
3.14854e-05
3.20997e-05
6.38596e-05
6.20876e-05
3.14858e-05
8.44031e-05
8.5066e-05
8.44043e-05
8.50669e-05
3.09613e-05
2.99321e-05
2.9931e-05
2.99636e-05
2.99625e-05
8.48348e-05
8.50749e-05
8.48351e-05
8.50756e-05
8.46355e-05
8.3886e-05
8.46353e-05
8.38871e-05
2.99425e-05
2.99414e-05
2.93468e-05
3.00358e-05
3.00345e-05
8.25972e-05
8.35725e-05
8.25978e-05
8.35722e-05
2.90401e-05
3.03208e-05
3.03204e-05
3.01084e-05
3.01066e-05
3.07673e-05
6.43657e-05
3.13433e-05
6.57117e-05
2.86064e-05
2.9145e-05
3.04664e-05
2.97969e-05
2.9409e-05
2.86764e-05
3.00654e-05
2.86066e-05
2.91446e-05
3.04664e-05
2.97967e-05
2.94092e-05
2.86769e-05
3.00654e-05
3.06548e-05
6.70702e-05
6.60864e-05
3.00841e-05
3.0655e-05
6.70721e-05
6.6086e-05
3.00845e-05
2.83443e-05
2.93776e-05
2.81919e-05
2.9291e-05
2.85957e-05
2.96746e-05
2.75594e-05
2.83444e-05
2.93774e-05
2.81916e-05
2.9291e-05
2.85962e-05
2.96745e-05
2.75596e-05
2.9942e-05
2.99411e-05
2.9347e-05
3.00351e-05
3.00339e-05
8.4635e-05
8.38863e-05
8.25962e-05
8.35726e-05
2.90401e-05
3.03207e-05
3.03189e-05
3.01072e-05
3.01079e-05
8.25976e-05
8.35723e-05
2.86067e-05
2.91446e-05
3.04664e-05
2.9797e-05
2.94087e-05
2.86766e-05
3.00654e-05
3.07679e-05
6.4368e-05
3.13395e-05
6.57141e-05
2.86064e-05
3.04663e-05
2.91446e-05
2.97966e-05
2.94085e-05
3.00653e-05
2.86758e-05
3.06527e-05
6.70742e-05
6.60881e-05
3.00865e-05
2.8344e-05
2.93778e-05
2.81914e-05
2.92909e-05
2.85958e-05
2.96746e-05
2.75598e-05
3.06524e-05
6.70737e-05
6.60881e-05
3.0086e-05
2.83438e-05
2.93773e-05
2.92909e-05
2.81913e-05
2.96745e-05
2.85955e-05
2.75595e-05
3.07672e-05
6.43655e-05
3.13433e-05
6.57123e-05
2.86063e-05
3.04664e-05
2.91446e-05
2.97968e-05
2.9409e-05
3.00654e-05
2.86769e-05
3.07668e-05
6.43669e-05
3.13428e-05
6.57126e-05
2.83444e-05
2.9378e-05
2.81911e-05
2.92911e-05
2.85953e-05
2.96746e-05
2.75596e-05
3.0655e-05
6.70727e-05
6.6086e-05
3.00845e-05
2.83442e-05
2.93776e-05
2.9291e-05
2.81914e-05
2.96746e-05
2.85961e-05
2.75594e-05
3.06545e-05
6.70726e-05
6.60868e-05
3.00841e-05
2.99416e-05
2.99429e-05
2.93467e-05
3.00349e-05
3.00359e-05
8.4636e-05
8.38855e-05
8.25978e-05
8.35728e-05
2.904e-05
3.03202e-05
3.03216e-05
3.01084e-05
3.0108e-05
8.25967e-05
8.35733e-05
2.86067e-05
3.04664e-05
2.91443e-05
2.9797e-05
2.94087e-05
3.00654e-05
2.86766e-05
3.07679e-05
6.43671e-05
3.13394e-05
6.57129e-05
3.07683e-05
6.43675e-05
3.13398e-05
6.57136e-05
2.83438e-05
2.93779e-05
2.9291e-05
2.81915e-05
2.96746e-05
2.85962e-05
2.75597e-05
2.8344e-05
2.93778e-05
2.9291e-05
2.81912e-05
2.96745e-05
2.85959e-05
2.75599e-05
3.06523e-05
6.7073e-05
6.60871e-05
3.00862e-05
3.06527e-05
6.7074e-05
6.60878e-05
3.00865e-05
8.46362e-05
8.38857e-05
8.46365e-05
8.38856e-05
2.904e-05
3.03212e-05
3.03204e-05
3.01077e-05
3.01068e-05
8.25969e-05
8.35734e-05
8.25964e-05
8.35733e-05
8.22342e-05
8.12042e-05
8.22331e-05
8.12045e-05
3.04479e-05
3.0449e-05
2.75347e-05
3.07744e-05
3.07719e-05
7.97989e-05
8.08354e-05
7.97988e-05
8.08338e-05
2.7238e-05
3.13697e-05
3.13684e-05
3.0948e-05
3.09488e-05
2.95309e-05
6.73345e-05
2.99911e-05
6.80186e-05
2.6575e-05
2.81225e-05
2.89091e-05
2.81529e-05
2.73116e-05
2.77878e-05
2.85258e-05
2.65752e-05
2.81223e-05
2.8909e-05
2.81527e-05
2.73118e-05
2.77883e-05
2.85258e-05
2.94137e-05
6.86383e-05
6.82012e-05
2.90298e-05
2.94139e-05
6.86401e-05
6.82025e-05
2.90303e-05
2.63268e-05
2.77483e-05
2.74458e-05
2.77745e-05
2.77318e-05
2.8145e-05
2.56352e-05
2.63269e-05
2.77481e-05
2.74459e-05
2.77745e-05
2.77322e-05
2.81449e-05
2.56354e-05
3.04483e-05
3.04482e-05
2.75349e-05
3.07729e-05
3.07674e-05
8.22336e-05
8.12046e-05
7.97977e-05
8.08347e-05
2.72381e-05
3.13697e-05
3.13657e-05
3.09479e-05
3.09494e-05
7.97992e-05
8.08344e-05
2.65748e-05
2.81221e-05
2.8909e-05
2.81532e-05
2.73118e-05
2.77879e-05
2.85258e-05
2.95275e-05
6.73359e-05
2.99925e-05
6.80198e-05
2.65746e-05
2.89089e-05
2.81225e-05
2.81526e-05
2.73115e-05
2.85257e-05
2.77869e-05
2.94092e-05
6.86419e-05
6.8204e-05
2.90356e-05
2.63263e-05
2.77486e-05
2.74456e-05
2.77744e-05
2.77319e-05
2.8145e-05
2.56357e-05
2.9409e-05
6.86408e-05
6.82031e-05
2.90351e-05
2.6326e-05
2.7748e-05
2.77743e-05
2.74455e-05
2.81448e-05
2.77316e-05
2.56355e-05
2.95308e-05
6.73346e-05
2.99911e-05
6.80192e-05
2.65749e-05
2.8909e-05
2.8122e-05
2.81528e-05
2.73116e-05
2.85258e-05
2.7788e-05
2.95304e-05
6.73349e-05
2.99907e-05
6.80186e-05
2.63269e-05
2.77488e-05
2.74451e-05
2.77746e-05
2.77313e-05
2.8145e-05
2.56354e-05
2.94138e-05
6.86406e-05
6.82025e-05
2.90302e-05
2.63267e-05
2.77483e-05
2.77745e-05
2.74455e-05
2.8145e-05
2.77319e-05
2.56351e-05
2.94134e-05
6.86396e-05
6.82024e-05
2.90298e-05
3.04493e-05
3.04492e-05
2.75346e-05
3.07706e-05
3.07741e-05
8.22346e-05
8.12038e-05
7.97989e-05
8.08343e-05
2.72379e-05
3.13689e-05
3.13705e-05
3.09499e-05
3.09485e-05
7.97985e-05
8.08354e-05
2.65748e-05
2.8909e-05
2.81219e-05
2.81531e-05
2.73118e-05
2.85258e-05
2.77879e-05
2.95272e-05
6.73353e-05
2.99927e-05
6.8019e-05
2.95275e-05
6.73363e-05
2.99931e-05
6.80203e-05
2.63261e-05
2.77487e-05
2.77745e-05
2.74456e-05
2.8145e-05
2.77319e-05
2.56356e-05
2.63263e-05
2.77486e-05
2.77745e-05
2.74455e-05
2.8145e-05
2.77318e-05
2.56358e-05
2.94089e-05
6.864e-05
6.82028e-05
2.90353e-05
2.94092e-05
6.86416e-05
6.82041e-05
2.90356e-05
8.22346e-05
8.12039e-05
8.22342e-05
8.12032e-05
2.72379e-05
3.13701e-05
3.13698e-05
3.09482e-05
3.09479e-05
7.97986e-05
8.08354e-05
7.97976e-05
8.08347e-05
7.9462e-05
7.8537e-05
7.94599e-05
7.85365e-05
3.15641e-05
3.15645e-05
2.58536e-05
3.21152e-05
3.21147e-05
7.72895e-05
7.82072e-05
7.72885e-05
7.82051e-05
2.55896e-05
3.29315e-05
3.29318e-05
3.23553e-05
3.2357e-05
2.86133e-05
6.87332e-05
2.89661e-05
6.90433e-05
2.47528e-05
2.74028e-05
2.74209e-05
2.66196e-05
2.54097e-05
2.71926e-05
2.70839e-05
2.4753e-05
2.7403e-05
2.74209e-05
2.66193e-05
2.54098e-05
2.7193e-05
2.70839e-05
2.85355e-05
6.9226e-05
6.91127e-05
2.82268e-05
2.85357e-05
6.92282e-05
6.91148e-05
2.8227e-05
2.45388e-05
2.62727e-05
2.7006e-05
2.64179e-05
2.71612e-05
2.67544e-05
2.39218e-05
2.45389e-05
2.62724e-05
2.70065e-05
2.64178e-05
2.71617e-05
2.67544e-05
2.39219e-05
3.15639e-05
3.15675e-05
2.58537e-05
3.21153e-05
3.21093e-05
7.94607e-05
7.8537e-05
7.72882e-05
7.8206e-05
2.55897e-05
3.29324e-05
3.29286e-05
3.23562e-05
3.23578e-05
7.72894e-05
7.82058e-05
2.47529e-05
2.74027e-05
2.74209e-05
2.662e-05
2.54093e-05
2.71926e-05
2.70839e-05
2.86145e-05
6.87336e-05
2.89653e-05
6.90434e-05
2.47526e-05
2.74207e-05
2.74028e-05
2.66192e-05
2.54092e-05
2.70837e-05
2.71918e-05
2.85347e-05
6.92295e-05
6.91159e-05
2.8228e-05
2.45386e-05
2.62731e-05
2.70062e-05
2.64178e-05
2.71614e-05
2.67544e-05
2.39219e-05
2.85344e-05
6.92277e-05
6.91145e-05
2.82277e-05
2.45384e-05
2.62722e-05
2.64177e-05
2.70059e-05
2.67542e-05
2.71613e-05
2.39217e-05
2.86132e-05
6.87334e-05
2.8966e-05
6.90436e-05
2.47527e-05
2.74209e-05
2.74026e-05
2.66195e-05
2.54096e-05
2.70839e-05
2.71924e-05
2.86129e-05
6.87326e-05
2.89656e-05
6.90423e-05
2.45389e-05
2.62733e-05
2.70053e-05
2.6418e-05
2.71608e-05
2.67545e-05
2.39219e-05
2.85356e-05
6.92284e-05
6.91147e-05
2.82269e-05
2.45387e-05
2.62726e-05
2.64179e-05
2.70058e-05
2.67544e-05
2.71611e-05
2.39217e-05
2.85353e-05
6.9227e-05
6.91137e-05
2.82266e-05
3.15675e-05
3.15642e-05
2.58534e-05
3.21133e-05
3.2116e-05
7.94617e-05
7.85366e-05
7.7289e-05
7.82054e-05
2.55895e-05
3.2932e-05
3.29326e-05
3.23595e-05
3.23563e-05
7.72891e-05
7.82069e-05
2.47529e-05
2.74209e-05
2.74026e-05
2.66199e-05
2.54094e-05
2.70839e-05
2.71925e-05
2.86146e-05
6.87331e-05
2.89651e-05
6.90428e-05
2.86149e-05
6.87347e-05
2.89654e-05
6.90446e-05
2.45385e-05
2.62732e-05
2.64179e-05
2.70059e-05
2.67544e-05
2.71612e-05
2.39219e-05
2.45386e-05
2.6273e-05
2.64179e-05
2.70061e-05
2.67544e-05
2.71612e-05
2.3922e-05
2.85344e-05
6.92274e-05
6.91141e-05
2.82278e-05
2.85347e-05
6.92294e-05
6.91159e-05
2.8228e-05
7.94617e-05
7.85366e-05
7.94607e-05
7.85355e-05
2.55894e-05
3.29322e-05
3.29331e-05
3.23562e-05
3.23566e-05
7.72891e-05
7.82069e-05
7.72878e-05
7.82057e-05
7.70104e-05
7.64218e-05
7.70084e-05
7.64209e-05
3.31411e-05
3.31433e-05
2.43131e-05
3.37972e-05
3.37973e-05
7.61632e-05
7.62978e-05
7.6162e-05
7.62962e-05
2.40526e-05
3.42558e-05
3.42592e-05
3.39992e-05
3.40011e-05
2.81365e-05
6.92476e-05
2.81981e-05
6.92456e-05
2.32038e-05
2.69928e-05
2.60616e-05
2.51588e-05
2.37418e-05
2.6888e-05
2.56848e-05
2.32039e-05
2.69933e-05
2.60615e-05
2.51585e-05
2.37419e-05
2.68884e-05
2.56847e-05
2.80428e-05
6.91817e-05
6.92262e-05
2.75317e-05
2.80429e-05
6.91838e-05
6.92283e-05
2.75318e-05
2.29889e-05
2.47613e-05
2.64962e-05
2.49521e-05
2.68034e-05
2.5305e-05
2.23537e-05
2.2989e-05
2.4761e-05
2.64967e-05
2.49521e-05
2.68037e-05
2.53049e-05
2.23537e-05
3.31425e-05
3.31442e-05
2.43133e-05
3.37981e-05
3.37939e-05
7.70093e-05
7.64216e-05
7.61622e-05
7.62967e-05
2.40527e-05
3.42578e-05
3.42569e-05
3.40008e-05
3.40004e-05
7.61621e-05
7.62969e-05
2.32035e-05
2.69931e-05
2.60615e-05
2.51592e-05
2.37418e-05
2.68881e-05
2.56847e-05
2.81367e-05
6.92469e-05
2.81979e-05
6.92446e-05
2.32034e-05
2.60614e-05
2.69932e-05
2.51583e-05
2.37417e-05
2.56846e-05
2.68884e-05
2.80401e-05
6.9185e-05
6.92294e-05
2.75324e-05
2.29883e-05
2.47618e-05
2.64965e-05
2.4952e-05
2.68054e-05
2.5305e-05
2.23536e-05
2.80399e-05
6.91828e-05
6.92274e-05
2.75322e-05
2.29882e-05
2.47608e-05
2.49519e-05
2.64968e-05
2.53048e-05
2.68082e-05
2.23535e-05
2.81363e-05
6.92477e-05
2.81979e-05
6.92456e-05
2.32036e-05
2.60615e-05
2.69926e-05
2.51587e-05
2.37417e-05
2.56847e-05
2.68876e-05
2.81361e-05
6.92462e-05
2.81977e-05
6.9244e-05
2.29889e-05
2.47621e-05
2.64958e-05
2.49522e-05
2.68069e-05
2.53051e-05
2.23537e-05
2.80428e-05
6.9184e-05
6.92285e-05
2.75316e-05
2.29887e-05
2.47612e-05
2.49521e-05
2.64959e-05
2.5305e-05
2.68029e-05
2.23535e-05
2.80425e-05
6.91821e-05
6.92267e-05
2.75314e-05
3.3146e-05
3.31422e-05
2.43129e-05
3.37976e-05
3.37979e-05
7.70101e-05
7.64216e-05
7.61619e-05
7.62967e-05
2.40525e-05
3.42601e-05
3.42572e-05
3.40033e-05
3.40004e-05
7.61629e-05
7.62976e-05