/*--------------------------------*- C++ -*----------------------------------*\
| =========                 |                                                 |
| \\      /  F ield         | OpenFOAM: The Open Source CFD Toolbox           |
|  \\    /   O peration     | Version:  2206                                  |
|   \\  /    A nd           | Website:  www.openfoam.com                      |
|    \\/     M anipulation  |                                                 |
\*---------------------------------------------------------------------------*/
FoamFile
{
    version     2.0;
    format      ascii;
    arch        "LSB;label=32;scalar=64";
    class       volScalarField;
    location    "35";
    object      nut;
}
// * * * * * * * * * * * * * * * * * * * * * * * * * * * * * * * * * * * * * //

dimensions      [0 2 -1 0 0 0 0];

internalField   nonuniform List<scalar> 
28688
(
0.000233973
0.000233116
0.000233116
0.00023342
0.00023253
0.0002278
0.000227799
0.000223864
0.000230509
0.000220312
0.00022031
0.000209106
0.000227791
0.000211657
0.000211653
0.000193789
0.000224481
0.000202713
0.000202708
0.000179737
0.000220512
0.000193721
0.000193715
0.000167272
0.000216329
0.000185382
0.000185374
0.000156833
0.0002119
0.000178182
0.000178173
0.000148244
0.000211677
0.000178265
0.000178256
0.00014887
0.000212293
0.000179285
0.000179276
0.000150442
0.00021245
0.000179535
0.000179527
0.000150746
0.00021246
0.000179559
0.00017955
0.00015078
0.000234267
0.000234448
0.000234448
0.000234268
0.000234448
0.000234449
0.000234274
0.000234274
0.000234274
0.000234274
0.000234448
0.000234448
0.000234267
0.000234448
0.000234448
0.000234267
0.00023342
0.000226204
0.000233116
0.000233114
0.000229361
0.000229356
0.00023342
0.000226206
0.000233114
0.000233114
0.000229358
0.000229355
0.000233116
0.000229363
0.00022936
0.000233421
0.000226203
0.000233114
0.000229363
0.000229358
0.000226203
0.000223864
0.000212228
0.000227796
0.000227791
0.000222332
0.000222326
0.000223865
0.000212232
0.000227794
0.00022779
0.000222332
0.000222323
0.000227795
0.000222338
0.00022233
0.000223863
0.000212225
0.000227794
0.000222335
0.000222331
0.000212226
0.000209108
0.000197068
0.000220305
0.000220299
0.000213894
0.000213889
0.000209109
0.000197073
0.000220306
0.000220296
0.000213898
0.000213884
0.000220303
0.000213905
0.000213892
0.000209104
0.000197064
0.000220305
0.000213901
0.000213897
0.000197065
0.000193792
0.000182878
0.000211645
0.00021164
0.000204924
0.000204919
0.000193796
0.000182885
0.00021165
0.000211635
0.000204932
0.000204913
0.000211643
0.000204939
0.000204922
0.000193788
0.000182874
0.000211649
0.000204934
0.000204931
0.000182875
0.000179741
0.000170201
0.000202697
0.000202692
0.000195822
0.000195817
0.000179744
0.000170208
0.000202706
0.000202686
0.000195833
0.00019581
0.000202695
0.000195841
0.000195819
0.000179736
0.000170197
0.000202705
0.000195834
0.000195832
0.000170197
0.000167276
0.000159441
0.000193701
0.000193696
0.000187619
0.000187614
0.000167281
0.000159448
0.000193714
0.00019369
0.000187634
0.000187607
0.000193699
0.000187641
0.000187616
0.000167272
0.000159436
0.000193713
0.000187634
0.000187633
0.000159436
0.000156838
0.000150061
0.000185358
0.000185354
0.000179247
0.00017924
0.000156843
0.000150068
0.000185375
0.000185347
0.000179263
0.000179232
0.000185356
0.000179271
0.000179244
0.000156833
0.000150055
0.000185373
0.000179262
0.000179263
0.000150055
0.000148249
0.000148984
0.000178158
0.00017815
0.000177848
0.000177841
0.000148253
0.000148988
0.000178174
0.000178142
0.000177864
0.000177832
0.000178154
0.00017787
0.000177844
0.000148243
0.000148976
0.000178174
0.000177861
0.000177865
0.000148977
0.000148878
0.00015061
0.000178242
0.000178235
0.000179067
0.000179061
0.000148881
0.000150615
0.000178258
0.000178226
0.000179084
0.000179052
0.000178238
0.00017909
0.000179064
0.00014887
0.000150602
0.000178259
0.000179081
0.000179085
0.000150605
0.000150447
0.000150928
0.000179263
0.000179258
0.000179493
0.000179487
0.00015045
0.000150932
0.00017928
0.000179248
0.000179511
0.000179478
0.000179261
0.000179516
0.000179491
0.000150439
0.000150919
0.000179282
0.000179507
0.000179512
0.000150923
0.000150752
0.000150971
0.000179513
0.000179508
0.000179534
0.000179528
0.000150754
0.000150974
0.000179531
0.000179498
0.000179552
0.000179519
0.000179512
0.000179557
0.000179532
0.000150743
0.000150962
0.000179533
0.000179548
0.000179554
0.000150966
0.000150786
0.000150979
0.000179535
0.00017953
0.000179539
0.000150788
0.000179553
0.00017952
0.000179557
0.000179524
0.000179534
0.000179538
0.000150777
0.00015097
0.000179555
0.000179553
0.000179559
0.000150975
0.00023473
0.000234746
0.000234729
0.000234729
0.000235119
0.000234798
0.000234701
0.000234727
0.000235119
0.000234798
0.000234727
0.000234701
0.000234868
0.000233566
0.000233566
0.000104632
3.87454e-05
0.000129146
3.98201e-05
2.16834e-05
2.28285e-05
0.000104621
3.87414e-05
0.000129146
3.98166e-05
0.000233973
0.000233973
0.000233973
0.000232934
0.000232934
0.000232934
0.000232934
0.000206183
9.3656e-05
0.000233969
0.000231994
0.00022263
8.72353e-05
0.000233611
2.16824e-05
2.28278e-05
0.000206174
0.000233969
9.36554e-05
0.000231993
0.00022264
0.000233611
8.72406e-05
4.77845e-05
4.77725e-05
0.000231346
4.40257e-05
4.40163e-05
7.25857e-05
4.24386e-05
8.1401e-05
4.37577e-05
2.47775e-05
2.54615e-05
7.25726e-05
4.24351e-05
8.14e-05
4.37539e-05
0.00023253
0.00023253
0.00023253
0.000231083
0.000231083
0.000231083
0.000231083
0.000167521
7.94143e-05
0.000232079
0.000226098
0.000180195
7.45273e-05
0.000231376
2.47758e-05
2.54599e-05
0.000167518
0.000232079
7.94078e-05
0.000226097
0.000180192
0.000231375
7.45316e-05
3.9148e-05
3.91377e-05
0.000219593
3.6586e-05
3.65752e-05
5.62956e-05
4.55513e-05
6.11299e-05
4.64067e-05
2.6015e-05
2.61169e-05
5.63053e-05
4.55486e-05
6.11291e-05
4.64038e-05
0.000230509
0.000230508
0.000230508
0.000228554
0.000228554
0.000228553
0.000228553
0.000138615
6.74068e-05
0.000228638
0.000218226
0.000148052
6.35199e-05
0.000227532
2.60128e-05
2.61148e-05
0.000138612
0.000228637
6.73995e-05
0.000218223
0.000148043
0.00022753
6.35188e-05
3.32036e-05
3.31953e-05
0.000204611
3.19985e-05
3.19894e-05
4.70143e-05
4.75047e-05
4.98821e-05
4.79981e-05
2.60508e-05
2.59351e-05
4.7015e-05
4.75014e-05
4.98755e-05
4.79953e-05
0.000227792
0.00022779
0.000227791
0.000225356
0.000225356
0.000225354
0.000225355
0.000117599
5.8218e-05
0.00022372
0.000209388
0.00012457
5.54857e-05
0.00022229
2.60484e-05
2.59329e-05
0.000117597
0.000223718
5.82158e-05
0.000209383
0.000124561
0.000222287
5.54837e-05
3.06207e-05
3.06128e-05
0.000189763
3.03021e-05
3.02943e-05
4.1426e-05
4.85878e-05
4.32479e-05
4.88333e-05
2.56786e-05
2.55171e-05
4.14122e-05
4.85844e-05
4.32564e-05
4.88303e-05
0.000224481
0.000224479
0.00022448
0.000221467
0.000221468
0.000221465
0.000221466
0.000102143
5.18832e-05
0.000217819
0.000200424
0.000107351
5.00891e-05
0.000216209
2.56761e-05
2.55149e-05
0.000102137
0.000217817
5.18804e-05
0.000200418
0.000107348
0.000216205
5.00876e-05
3.01947e-05
3.01881e-05
0.000176382
3.03835e-05
3.03762e-05
3.81694e-05
4.90897e-05
3.92761e-05
4.91993e-05
2.52416e-05
2.50944e-05
3.81712e-05
4.90864e-05
3.92751e-05
4.91962e-05
0.000220513
0.000220509
0.00022051
0.000217581
0.000217582
0.000217578
0.000217579
9.05561e-05
4.77383e-05
0.000211205
0.000191725
9.44407e-05
4.66374e-05
0.00020967
2.52392e-05
2.50924e-05
9.05527e-05
0.000211202
4.77368e-05
0.000191718
9.44346e-05
0.000209665
4.66361e-05
3.09873e-05
3.0981e-05
0.000164611
3.15526e-05
3.15464e-05
3.66432e-05
4.92729e-05
3.69659e-05
4.92726e-05
2.48489e-05
2.47521e-05
3.6641e-05
4.92698e-05
3.6966e-05
4.92695e-05
0.00021633
0.000216325
0.000216327
0.000212637
0.000212638
0.000212633
0.000212635
8.20325e-05
4.52383e-05
0.00020469
0.000183066
8.48654e-05
4.48731e-05
0.00020272
2.48467e-05
2.47501e-05
8.20265e-05
0.000204687
4.52349e-05
0.000183058
8.48636e-05
0.000202715
4.48663e-05
3.24884e-05
3.24828e-05
0.000154403
3.33509e-05
3.3346e-05
3.7658e-05
4.92501e-05
3.65986e-05
4.93048e-05
2.47072e-05
2.47193e-05
3.76534e-05
4.92469e-05
3.6601e-05
4.93016e-05
0.000211901
0.000211896
0.000211898
0.000211498
0.000211499
0.000211494
0.000211496
7.95506e-05
4.44298e-05
0.000198244
0.000177663
7.87697e-05
4.47619e-05
0.000197703
2.4705e-05
2.47166e-05
7.95484e-05
0.000198241
4.44292e-05
0.000177654
7.87685e-05
0.000197698
4.47638e-05
3.44565e-05
3.44523e-05
0.000148532
3.53542e-05
3.53489e-05
3.89261e-05
4.94319e-05
3.86677e-05
4.94636e-05
2.47451e-05
2.47514e-05
3.89296e-05
4.94286e-05
3.86745e-05
4.94602e-05
0.000211677
0.000211671
0.000211674
0.000212187
0.000212188
0.000212182
0.000212185
8.15124e-05
4.61616e-05
0.000197869
0.000178606
8.08117e-05
4.66913e-05
0.000198107
2.47426e-05
2.47486e-05
8.15146e-05
0.000197866
4.61635e-05
0.000178597
8.08138e-05
0.000198103
4.66918e-05
3.65305e-05
3.65259e-05
0.000149873
3.68901e-05
3.68869e-05
3.9108e-05
4.94807e-05
3.90985e-05
4.94807e-05
2.47538e-05
2.4754e-05
3.91147e-05
4.94775e-05
3.91062e-05
4.94777e-05
0.000212295
0.000212289
0.000212293
0.000212438
0.000212437
0.000212432
0.000212436
8.20071e-05
4.71446e-05
0.000198622
0.000179407
8.19261e-05
4.71767e-05
0.000198694
2.47511e-05
2.47513e-05
8.201e-05
0.000198619
4.71487e-05
0.000179398
8.19285e-05
0.00019869
4.71808e-05
3.71125e-05
3.71085e-05
0.000150838
3.71294e-05
3.71258e-05
3.91148e-05
4.94819e-05
3.91079e-05
4.94813e-05
2.4754e-05
2.47541e-05
3.9121e-05
4.94785e-05
3.91145e-05
4.94778e-05
0.00021245
0.000212444
0.000212448
0.000212459
0.000212459
0.000212453
0.000212457
8.20513e-05
4.71796e-05
0.000198781
0.000179548
8.2021e-05
4.71933e-05
0.000198789
2.47512e-05
2.47513e-05
8.2054e-05
0.000198779
4.71835e-05
0.00017954
8.20237e-05
0.000198786
4.71968e-05
3.71292e-05
3.71256e-05
0.000150965
3.71314e-05
3.71278e-05
3.91172e-05
4.94821e-05
3.91116e-05
4.94815e-05
2.4754e-05
2.47541e-05
3.91234e-05
4.94785e-05
3.91181e-05
4.94778e-05
0.000212459
0.000212454
0.000212457
0.000212463
0.000212465
0.000212458
0.000212461
8.20622e-05
4.71861e-05
0.000198795
0.00017956
8.20353e-05
4.71969e-05
0.000198796
2.47512e-05
2.47513e-05
8.20648e-05
0.000198792
4.71899e-05
0.000179552
8.20378e-05
0.000198793
4.72004e-05
3.71307e-05
3.7127e-05
0.000150969
3.71324e-05
3.71288e-05
0.000234867
0.000233564
0.000233566
2.32575e-05
0.000214159
2.32564e-05
0.000214162
0.000234434
5.13502e-05
5.1332e-05
0.00022999
0.000229991
0.000235119
0.000234798
0.000234701
0.000234727
0.000235119
0.000234798
0.000234701
0.000234727
0.000234477
4.02625e-05
0.000218814
0.00014779
0.000234477
4.0262e-05
0.000218814
0.000147797
0.000233886
0.000234474
0.000100115
0.00023427
0.000233358
0.000234596
0.000228481
0.000233886
0.000234474
0.000100106
0.00023427
0.000233359
0.000234596
0.00022848
0.000234868
0.000233565
0.000233566
2.32572e-05
0.000214167
0.000234434
5.1343e-05
5.13361e-05
0.000229989
0.000229991
2.32571e-05
0.000214169
0.000235119
0.000234798
0.000234701
0.000234727
0.000235119
0.000234798
0.000234727
0.000234701
0.000234477
4.02593e-05
0.000218815
0.000147764
0.000233886
0.000234474
0.000100093
0.00023427
0.000233359
0.000234596
0.000228478
0.000234477
4.02588e-05
0.000218816
0.00014778
0.000233886
0.000234474
0.00023427
0.000100101
0.000234596
0.000233359
0.00022848
0.00023473
0.000234746
0.000234729
0.000234729
0.00023473
0.000234746
0.000234729
0.000234729
0.00023473
0.000234746
0.000234729
0.000234729
0.000234591
0.000234573
0.000234252
0.000234252
0.000234592
0.000234592
0.000234252
0.000234591
0.000234573
0.000234252
0.000234252
0.000234592
0.000234592
0.000234252
0.000234591
0.000234573
0.000234252
0.000234252
0.000234592
0.000234592
0.000234252
0.000234591
0.000234573
0.000234252
0.000234252
0.000234592
0.000234592
0.000234252
0.000235119
0.000234798
0.000234727
0.000234701
0.000233886
0.000234474
0.000100096
0.00023427
0.000233359
0.000234596
0.000228479
0.000234477
4.026e-05
0.000218817
0.000147782
0.000233886
0.000234474
0.00023427
0.000100111
0.000234596
0.000233359
0.00022848
0.000234477
4.02595e-05
0.000218816
0.000147789
0.000234867
0.000233566
0.000233566
2.32564e-05
0.000214163
0.000234434
5.13354e-05
5.13398e-05
0.000229991
0.000229993
2.32568e-05
0.000214171
0.000235119
0.000234798
0.000234727
0.000234701
0.000233886
0.000234474
0.00023427
0.000100105
0.000234596
0.00023336
0.000228479
0.000233886
0.000234474
0.00023427
0.000100096
0.000234596
0.000233359
0.000228478
0.000234477
4.02591e-05
0.000218818
0.000147765
0.000234477
4.02589e-05
0.000218813
0.000147752
0.000234434
5.13434e-05
5.13309e-05
0.000229992
0.000229992
2.32569e-05
0.00021417
2.32564e-05
0.000214164
2.16838e-05
2.28296e-05
2.16825e-05
2.28281e-05
4.77863e-05
4.77746e-05
0.000231347
4.40314e-05
4.4015e-05
2.44789e-05
2.33078e-05
2.44772e-05
2.33065e-05
0.000229664
4.00792e-05
4.00639e-05
4.30821e-05
4.30693e-05
0.000104645
3.87445e-05
0.000129132
3.98182e-05
0.000206187
9.36664e-05
0.000233969
0.000231993
0.000222625
8.72428e-05
0.000233611
0.00020619
9.36493e-05
0.000233969
0.000231989
0.000222621
8.72297e-05
0.000233611
9.84368e-05
4.19572e-05
4.03815e-05
8.5571e-05
9.84303e-05
4.19556e-05
4.03804e-05
8.55727e-05
0.000200086
0.000230759
8.08247e-05
0.000232682
8.56512e-05
0.000233189
0.000185644
0.000200086
0.000230755
8.08177e-05
0.000232682
8.5634e-05
0.000233189
0.000185647
4.7777e-05
4.77846e-05
0.000231348
4.40207e-05
4.40242e-05
2.16835e-05
2.28297e-05
2.44779e-05
2.33072e-05
0.000229664
4.00693e-05
4.00691e-05
4.3071e-05
4.30795e-05
2.44791e-05
2.33079e-05
0.000206175
9.36447e-05
0.000233969
0.00023199
0.000222626
8.72229e-05
0.000233611
0.000104624
3.8741e-05
0.000129164
3.98159e-05
0.000206177
0.000233969
9.36487e-05
0.000231989
0.00022263
0.000233611
8.7223e-05
9.84368e-05
4.19534e-05
4.0378e-05
8.55623e-05
0.000200087
0.000230756
8.08108e-05
0.000232682
8.56348e-05
0.000233189
0.00018564
9.84374e-05
4.19525e-05
4.03773e-05
8.5561e-05
0.000200086
0.000230754
0.000232682
8.0806e-05
0.000233189
8.56329e-05
0.000185637
0.000104632
3.87419e-05
0.000129152
3.98189e-05
0.000206183
0.000233969
9.36569e-05
0.000231992
0.000222635
0.000233611
8.72378e-05
0.00010463
3.87425e-05
0.000129171
3.98171e-05
0.000200089
0.000230761
8.08203e-05
0.000232683
8.56493e-05
0.00023319
0.000185645
9.8436e-05
4.19557e-05
4.03791e-05
8.55666e-05
0.000200089
0.000230758
0.000232682
8.08256e-05
0.000233189
8.56457e-05
0.000185644
9.84412e-05
4.19545e-05
4.03795e-05
8.55678e-05
4.77746e-05
4.77827e-05
0.000231346
4.40154e-05
4.4031e-05
2.16829e-05
2.28286e-05
2.44767e-05
2.33057e-05
0.000229664
4.00625e-05
4.00772e-05
4.30697e-05
4.30777e-05
2.44779e-05
2.33071e-05
0.000206172
0.000233969
9.36434e-05
0.00023199
0.000222635
0.000233611
8.72266e-05
0.000104607
3.87415e-05
0.000129182
3.98173e-05
0.000104603
3.8741e-05
0.000129169
3.98163e-05
0.000200089
0.00023076
0.000232682
8.08255e-05
0.00023319
8.56419e-05
0.000185638
0.00020009
0.000230757
0.000232682
8.08166e-05
0.000233189
8.56331e-05
0.000185637
9.84529e-05
4.19541e-05
4.03791e-05
8.55599e-05
9.84523e-05
4.19534e-05
4.03777e-05
8.55595e-05
2.16833e-05
2.28286e-05
2.16824e-05
2.28281e-05
0.000229664
4.00772e-05
4.00653e-05
4.30819e-05
4.30676e-05
2.44781e-05
2.33074e-05
2.44772e-05
2.33067e-05
2.47782e-05
2.54626e-05
2.47764e-05
2.54608e-05
3.91505e-05
3.91389e-05
0.000219595
3.65848e-05
3.6575e-05
2.59531e-05
2.56217e-05
2.59517e-05
2.56199e-05
0.000216775
3.38569e-05
3.38455e-05
3.57242e-05
3.57091e-05
7.25884e-05
4.24375e-05
8.14033e-05
4.37564e-05
0.000167517
7.94158e-05
0.000232079
0.000226094
0.000180192
7.45295e-05
0.000231376
0.000167521
7.9399e-05
0.000232078
0.000226088
0.000180195
7.45255e-05
0.000231376
6.96231e-05
4.52319e-05
4.41559e-05
6.32684e-05
6.96254e-05
4.52315e-05
4.41546e-05
6.32715e-05
0.000162871
0.000224268
6.86794e-05
0.000229655
7.31426e-05
0.00023057
0.000151915
0.000162874
0.000224263
6.86795e-05
0.000229655
7.31244e-05
0.000230569
0.000151919
3.91411e-05
3.91494e-05
0.000219598
3.65804e-05
3.65743e-05
2.47783e-05
2.54627e-05
2.59526e-05
2.56209e-05
0.000216776
3.38506e-05
3.38517e-05
3.57116e-05
3.57209e-05
2.59535e-05
2.56216e-05
0.000167519
7.93981e-05
0.000232079
0.000226093
0.00018019
7.45207e-05
0.000231375
7.25707e-05
4.2434e-05
8.13991e-05
4.37529e-05
0.000167516
0.000232078
7.93998e-05
0.000226087
0.000180187
0.000231375
7.45114e-05
6.96296e-05
4.52289e-05
4.41526e-05
6.32631e-05
0.000162864
0.000224267
6.86731e-05
0.000229654
7.31253e-05
0.00023057
0.000151917
6.96291e-05
4.52276e-05
4.41506e-05
6.32605e-05
0.000162862
0.00022426
0.000229654
6.86659e-05
0.000230568
7.31239e-05
0.000151913
7.25809e-05
4.24368e-05
8.1404e-05
4.37563e-05
0.000167517
0.000232078
7.94077e-05
0.000226093
0.000180192
0.000231376
7.45316e-05
7.25841e-05
4.24364e-05
8.1398e-05
4.37548e-05
0.000162873
0.000224273
6.86806e-05
0.000229656
7.31397e-05
0.00023057
0.000151918
6.96276e-05
4.52312e-05
4.4154e-05
6.32688e-05
0.000162871
0.000224267
0.000229655
6.86845e-05
0.000230569
7.313e-05
0.000151915
6.96255e-05
4.52296e-05
4.4153e-05
6.3267e-05
3.91379e-05
3.91507e-05
0.000219593
3.65691e-05
3.65851e-05
2.47776e-05
2.54612e-05
2.59506e-05
2.56188e-05
0.000216773
3.38451e-05
3.3857e-05
3.57088e-05
3.57188e-05
2.59523e-05
2.56206e-05
0.00016752
0.000232078
7.93976e-05
0.000226091
0.000180193
0.000231376
7.45234e-05
7.25712e-05
4.24359e-05
8.13996e-05
4.37549e-05
7.25772e-05
4.24347e-05
8.14011e-05
4.37537e-05
0.000162863
0.000224271
0.000229655
6.86843e-05
0.00023057
7.3132e-05
0.000151915
0.000162865
0.000224267
0.000229655
6.86769e-05
0.000230569
7.3122e-05
0.000151917
6.96296e-05
4.52298e-05
4.4153e-05
6.32616e-05
6.96302e-05
4.52285e-05
4.41516e-05
6.32625e-05
2.47776e-05
2.5461e-05
2.47768e-05
2.54603e-05
0.000216774
3.38561e-05
3.38461e-05
3.57156e-05
3.57071e-05
2.59521e-05
2.56204e-05
2.59513e-05
2.56196e-05
2.60155e-05
2.61176e-05
2.60138e-05
2.61158e-05
3.32019e-05
3.31977e-05
0.000204613
3.19924e-05
3.19899e-05
2.60823e-05
2.61189e-05
2.60804e-05
2.61171e-05
0.000201348
3.08823e-05
3.0873e-05
3.15576e-05
3.15524e-05
5.62988e-05
4.55506e-05
6.11314e-05
4.64065e-05
0.000138613
6.74067e-05
0.000228637
0.000218217
0.00014805
6.35191e-05
0.000227531
0.000138616
6.7395e-05
0.000228637
0.000218212
0.000148053
6.35152e-05
0.00022753
5.47569e-05
4.73162e-05
4.66558e-05
5.10229e-05
5.47583e-05
4.73162e-05
4.66551e-05
5.10246e-05
0.000135383
0.000216086
5.91468e-05
0.000225079
6.24134e-05
0.000226348
0.000127287
0.000135385
0.00021608
5.91412e-05
0.000225078
6.24039e-05
0.000226347
0.000127289
3.31992e-05
3.31999e-05
0.000204618
3.1993e-05
3.19872e-05
2.60158e-05
2.61178e-05
2.60814e-05
2.61183e-05
0.00020135
3.0875e-05
3.08808e-05
3.15538e-05
3.15545e-05
2.60824e-05
2.61191e-05
0.000138613
6.73968e-05
0.000228637
0.000218219
0.000148043
6.3511e-05
0.00022753
5.63031e-05
4.55464e-05
6.11289e-05
4.64024e-05
0.00013861
0.000228635
6.73923e-05
0.000218208
0.000148042
0.000227529
6.35062e-05
5.4754e-05
4.73133e-05
4.66528e-05
5.10245e-05
0.000135376
0.000216089
5.91382e-05
0.000225077
6.24022e-05
0.000226348
0.000127284
5.47535e-05
4.73119e-05
4.66508e-05
5.10233e-05
0.000135374
0.000216076
0.000225076
5.91346e-05
0.000226345
6.23998e-05
0.000127282
5.62964e-05
4.55501e-05
6.11289e-05
4.64063e-05
0.000138612
0.000228637
6.73998e-05
0.000218215
0.00014805
0.000227531
6.35194e-05
5.62949e-05
4.55487e-05
6.11272e-05
4.64045e-05
0.000135384
0.000216095
5.91473e-05
0.00022508
6.24131e-05
0.000226349
0.000127288
5.4756e-05
4.73161e-05
4.66546e-05
5.10225e-05
0.000135382
0.000216084
0.000225078
5.91448e-05
0.000226347
6.2408e-05
0.000127285
5.47547e-05
4.7314e-05
4.66531e-05
5.10213e-05
3.31901e-05
3.32055e-05
0.00020461
3.19812e-05
3.19987e-05
2.60146e-05
2.61165e-05
2.60793e-05
2.61161e-05
0.000201344
3.08722e-05
3.08813e-05
3.15464e-05
3.15595e-05
2.6081e-05
2.61179e-05
0.000138614
0.000228636
6.73922e-05
0.000218218
0.000148045
0.00022753
6.35127e-05
5.63045e-05
4.55486e-05
6.11284e-05
4.64042e-05
5.63055e-05
4.55476e-05
6.11293e-05
4.64035e-05
0.000135376
0.000216092
0.000225077
5.91445e-05
0.000226348
6.24079e-05
0.000127284
0.000135377
0.000216087
0.000225077
5.91387e-05
0.000226347
6.2401e-05
0.000127286
5.47532e-05
4.73137e-05
4.66527e-05
5.10238e-05
5.47541e-05
4.73132e-05
4.66521e-05
5.10246e-05
2.60145e-05
2.61164e-05
2.60137e-05
2.61155e-05
0.000201345
3.08803e-05
3.0872e-05
3.15587e-05
3.15504e-05
2.60808e-05
2.61178e-05
2.60799e-05
2.61169e-05
2.60517e-05
2.59361e-05
2.60494e-05
2.5934e-05
3.06194e-05
3.06143e-05
0.000189767
3.03045e-05
3.02947e-05
2.57365e-05
2.58879e-05
2.5734e-05
2.58853e-05
0.000186545
3.01724e-05
3.01652e-05
3.02086e-05
3.01983e-05
4.7016e-05
4.7504e-05
4.98838e-05
4.79982e-05
0.000117599
5.82175e-05
0.000223718
0.000209375
0.000124568
5.54861e-05
0.000222288
0.000117601
5.82121e-05
0.000223717
0.00020937
0.000124571
5.54809e-05
0.000222287
4.61694e-05
4.84925e-05
4.81355e-05
4.38219e-05
4.61706e-05
4.84925e-05
4.81346e-05
4.38235e-05
0.000115364
0.000207132
5.25013e-05
0.000219343
5.47255e-05
0.000220824
0.000109269
0.000115366
0.000207127
5.24935e-05
0.000219342
5.47197e-05
0.000220823
0.000109272
3.06157e-05
3.06176e-05
0.000189773
3.02968e-05
3.03031e-05
2.60516e-05
2.59361e-05
2.57352e-05
2.58867e-05
0.000186548
3.01666e-05
3.01712e-05
3.01998e-05
3.02057e-05
2.57362e-05
2.58875e-05
0.000117597
5.821e-05
0.000223718
0.000209381
0.000124561
5.5478e-05
0.000222286
4.7014e-05
4.74995e-05
4.98746e-05
4.79936e-05
0.000117594
0.000223715
5.82053e-05
0.000209365
0.000124559
0.000222284
5.54742e-05
4.61581e-05
4.84897e-05
4.81319e-05
4.3827e-05
0.000115357
0.000207139
5.24914e-05
0.000219341
5.47169e-05
0.000220823
0.000109268
4.61576e-05
4.84876e-05
4.813e-05
4.38259e-05
0.000115355
0.000207121
0.000219338
5.24901e-05
0.00022082
5.47115e-05
0.000109266
4.70141e-05
4.75036e-05
4.98818e-05
4.7998e-05
0.000117597
0.000223718
5.82156e-05
0.000209373
0.000124568
0.000222287
5.5484e-05
4.70131e-05
4.75018e-05
4.98807e-05
4.79958e-05
0.000115365
0.000207146
5.25005e-05
0.000219345
5.47231e-05
0.000220825
0.00010927
4.61687e-05
4.84924e-05
4.81343e-05
4.38218e-05
0.000115363
0.000207129
0.000219342
5.24961e-05
0.000220823
5.47227e-05
0.000109268
4.61678e-05
4.849e-05
4.81322e-05
4.3821e-05
3.06094e-05
3.06218e-05
0.000189763
3.02954e-05
3.03028e-05
2.60505e-05
2.59347e-05
2.57329e-05
2.58843e-05
0.00018654
3.01639e-05
3.01727e-05
3.01976e-05
3.02058e-05
2.57348e-05
2.58864e-05
0.000117598
0.000223717
5.82094e-05
0.00020938
0.000124562
0.000222287
5.54785e-05
4.70144e-05
4.75015e-05
4.98747e-05
4.79955e-05
4.70151e-05
4.75009e-05
4.98755e-05
4.79951e-05
0.000115357
0.000207141
0.000219341
5.24959e-05
0.000220824
5.47229e-05
0.000109269
0.000115357
0.000207138
0.000219341
5.2491e-05
0.000220822
5.4717e-05
0.00010927
4.61575e-05
4.84897e-05
4.81319e-05
4.38266e-05
4.61581e-05
4.84893e-05
4.81315e-05
4.38272e-05
2.60503e-05
2.59346e-05
2.60494e-05
2.59336e-05
0.000186541
3.01718e-05
3.01644e-05
3.0205e-05
3.01975e-05
2.57346e-05
2.58862e-05
2.57336e-05
2.58852e-05
2.56798e-05
2.55185e-05
2.56771e-05
2.5516e-05
3.01946e-05
3.01899e-05
0.000176386
3.03859e-05
3.03747e-05
2.52966e-05
2.54605e-05
2.52941e-05
2.54578e-05
0.000173302
3.08431e-05
3.08337e-05
3.04864e-05
3.04815e-05
4.14263e-05
4.85873e-05
4.32496e-05
4.88332e-05
0.000102143
5.18851e-05
0.000217817
0.000200407
0.00010735
5.00905e-05
0.000216207
0.000102144
5.18776e-05
0.000217816
0.000200402
0.000107352
5.00855e-05
0.000216206
4.09294e-05
4.90568e-05
4.88993e-05
3.96381e-05
4.09301e-05
4.90567e-05
4.8899e-05
3.96393e-05
0.000100358
0.000198084
4.81344e-05
0.000212828
4.95902e-05
0.000214522
9.59905e-05
0.00010036
0.000198079
4.81289e-05
0.000212826
4.9585e-05
0.000214521
9.59921e-05
3.01892e-05
3.01941e-05
0.000176393
3.03775e-05
3.03745e-05
2.56793e-05
2.55182e-05
2.52952e-05
2.54592e-05
0.000173306
3.08368e-05
3.08383e-05
3.04802e-05
3.04886e-05
2.52963e-05
2.54601e-05
0.000102136
5.18744e-05
0.000217816
0.000200417
0.000107347
5.0083e-05
0.000216205
4.14123e-05
4.85823e-05
4.32553e-05
4.88281e-05
0.000102135
0.000217812
5.18727e-05
0.000200395
0.000107345
0.000216202
5.00793e-05
4.09191e-05
4.90537e-05
4.8896e-05
3.965e-05
0.00010035
0.000198095
4.81267e-05
0.000212825
4.95816e-05
0.000214522
9.59897e-05
4.09188e-05
4.90514e-05
4.88937e-05
3.96491e-05
0.000100349
0.000198072
0.000212822
4.81253e-05
0.000214517
4.95783e-05
9.59883e-05
4.14246e-05
4.8587e-05
4.3248e-05
4.88331e-05
0.000102141
0.000217816
5.18802e-05
0.000200404
0.000107349
0.000216206
5.00878e-05
4.1424e-05
4.85847e-05
4.32472e-05
4.88305e-05
0.000100358
0.000198102
4.8134e-05
0.00021283
4.9588e-05
0.000214524
9.59905e-05
4.09285e-05
4.90565e-05
4.88987e-05
3.96378e-05
0.000100357
0.000198081
0.000212827
4.8131e-05
0.000214521
4.95873e-05
9.5989e-05
4.09279e-05
4.90537e-05
4.88962e-05
3.96372e-05
3.01869e-05
3.01954e-05
0.000176382
3.0371e-05
3.03846e-05
2.56782e-05
2.55168e-05
2.52931e-05
2.54568e-05
0.000173297
3.08338e-05
3.08433e-05
3.04799e-05
3.04862e-05
2.5295e-05
2.5459e-05
0.000102138
0.000217816
5.1875e-05
0.000200415
0.000107348
0.000216206
5.00831e-05
4.14117e-05
4.85844e-05
4.32561e-05
4.88302e-05
4.14121e-05
4.85841e-05
4.32567e-05
4.883e-05
0.000100351
0.000198095
0.000212826
4.81307e-05
0.000214522
4.95875e-05
9.59904e-05
0.000100351
0.000198093
0.000212826
4.81266e-05
0.000214521
4.95824e-05
9.59913e-05
4.09187e-05
4.90535e-05
4.8896e-05
3.96498e-05
4.09192e-05
4.90533e-05
4.88957e-05
3.96502e-05
2.56781e-05
2.55166e-05
2.5677e-05
2.55156e-05
0.000173298
3.08425e-05
3.08356e-05
3.04854e-05
3.04789e-05
2.52948e-05
2.54588e-05
2.52937e-05
2.54577e-05
2.52431e-05
2.50961e-05
2.52402e-05
2.50934e-05
3.09883e-05
3.09827e-05
0.000164615
3.15532e-05
3.15451e-05
2.4896e-05
2.50435e-05
2.48933e-05
2.50406e-05
0.000161911
3.22971e-05
3.229e-05
3.17395e-05
3.17353e-05
3.81702e-05
4.90895e-05
3.9277e-05
4.91993e-05
9.05568e-05
4.77402e-05
0.000211202
0.000191705
9.44407e-05
4.66392e-05
0.000209667
9.0558e-05
4.77346e-05
0.000211201
0.0001917
9.44416e-05
4.66343e-05
0.000209666
3.79582e-05
4.92659e-05
4.92253e-05
3.71579e-05
3.79588e-05
4.9266e-05
4.92253e-05
3.71584e-05
8.92036e-05
0.00018972
4.54725e-05
0.000206518
4.63276e-05
0.000208149
8.5996e-05
8.92044e-05
0.000189714
4.54682e-05
0.000206517
4.63225e-05
0.000208148
8.5997e-05
3.0981e-05
3.09941e-05
0.000164622
3.15477e-05
3.1545e-05
2.52425e-05
2.50956e-05
2.48943e-05
2.50418e-05
0.000161915
3.22922e-05
3.22984e-05
3.17349e-05
3.17448e-05
2.48955e-05
2.50428e-05
9.05522e-05
4.77314e-05
0.000211202
0.000191718
9.4434e-05
4.66322e-05
0.000209665
3.81707e-05
4.90841e-05
3.92749e-05
4.91938e-05
9.05511e-05
0.000211197
4.77295e-05
0.000191693
9.44329e-05
0.000209661
4.66295e-05
3.79553e-05
4.92629e-05
4.92221e-05
3.71581e-05
8.91977e-05
0.000189734
4.54663e-05
0.000206516
4.63194e-05
0.000208148
8.59938e-05
3.79548e-05
4.92603e-05
4.92196e-05
3.71579e-05
8.91966e-05
0.000189707
0.000206512
4.54649e-05
0.000208143
4.6317e-05
8.59927e-05
3.81688e-05
4.90892e-05
3.92755e-05
4.9199e-05
9.0555e-05
0.000211201
4.77367e-05
0.000191702
9.44397e-05
0.000209666
4.66362e-05
3.81684e-05
4.90866e-05
3.9275e-05
4.91962e-05
8.92035e-05
0.000189741
4.54721e-05
0.000206521
4.6325e-05
0.000208152
8.59957e-05
3.79575e-05
4.92657e-05
4.92249e-05
3.71571e-05
8.92024e-05
0.000189717
0.000206517
4.54697e-05
0.000208148
4.63243e-05
8.59948e-05
3.79571e-05
4.92628e-05
4.92221e-05
3.71568e-05
3.09843e-05
3.09876e-05
0.000164611
3.15417e-05
3.15537e-05
2.52414e-05
2.50943e-05
2.48923e-05
2.50396e-05
0.000161906
3.22926e-05
3.22977e-05
3.17372e-05
3.17401e-05
2.48942e-05
2.50418e-05
9.05537e-05
0.000211201
4.77321e-05
0.000191717
9.44346e-05
0.000209666
4.6632e-05
3.81711e-05
4.90863e-05
3.92748e-05
4.91959e-05
3.81714e-05
4.90862e-05
3.92751e-05
4.91958e-05
8.91985e-05
0.000189733
0.000206516
4.54694e-05
0.000208149
4.63245e-05
8.59946e-05
8.91984e-05
0.000189732
0.000206517
4.54659e-05
0.000208148
4.632e-05
8.5995e-05
3.7955e-05
4.92626e-05
4.92219e-05
3.71581e-05
3.79553e-05
4.92625e-05
4.92218e-05
3.71583e-05
2.52412e-05
2.50941e-05
2.52401e-05
2.5093e-05
0.000161906
3.2297e-05
3.22914e-05
3.17396e-05
3.17335e-05
2.4894e-05
2.50416e-05
2.48929e-05
2.50405e-05
2.48506e-05
2.47538e-05
2.48477e-05
2.47511e-05
3.24882e-05
3.24843e-05
0.000154408
3.33518e-05
3.33439e-05
2.47094e-05
2.47329e-05
2.47068e-05
2.47302e-05
0.000151876
3.41505e-05
3.41473e-05
3.36571e-05
3.3652e-05
3.66436e-05
4.9273e-05
3.69664e-05
4.92727e-05
8.20328e-05
4.52379e-05
0.000204688
0.000183042
8.48656e-05
4.48697e-05
0.000202717
8.20338e-05
4.52337e-05
0.000204686
0.000183037
8.48662e-05
4.48656e-05
0.000202716
3.64683e-05
4.92498e-05
4.92669e-05
3.63817e-05
3.64685e-05
4.92498e-05
4.92669e-05
3.63819e-05
8.08441e-05
0.000180919
4.43637e-05
0.000199284
4.46481e-05
0.000200827
7.91234e-05
8.08448e-05
0.000180912
4.43601e-05
0.000199282
4.46437e-05
0.000200825
7.91237e-05
3.24836e-05
3.24901e-05
0.000154416
3.33464e-05
3.33501e-05
2.485e-05
2.47533e-05
2.47078e-05
2.47313e-05
0.000151881
3.41465e-05
3.41526e-05
3.36525e-05
3.36584e-05
2.47089e-05
2.47324e-05
8.20253e-05
4.5232e-05
0.000204687
0.000183059
8.48629e-05
4.48646e-05
0.000202715
3.66408e-05
4.92672e-05
3.69658e-05
4.92668e-05
8.20244e-05
0.000204681
4.52313e-05
0.00018303
8.48619e-05
0.00020271
4.48666e-05
3.64598e-05
4.92466e-05
4.92637e-05
3.63785e-05
8.0835e-05
0.000180935
4.43578e-05
0.000199281
4.46481e-05
0.000200826
7.912e-05
3.64595e-05
4.92439e-05
4.9261e-05
3.63786e-05
8.08342e-05
0.000180905
0.000199277
4.43575e-05
0.00020082
4.46547e-05
7.91195e-05
3.66424e-05
4.92726e-05
3.69651e-05
4.92723e-05
8.20305e-05
0.000204686
4.52352e-05
0.000183039
8.48652e-05
0.000202716
4.48667e-05
3.66421e-05
4.92697e-05
3.69648e-05
4.92693e-05
8.0843e-05
0.000180943
4.43634e-05
0.000199286
4.46606e-05
0.00020083
7.91222e-05
3.64673e-05
4.92495e-05
4.92666e-05
3.63805e-05
8.08421e-05
0.000180915
0.000199283
4.4361e-05
0.000200826
4.46448e-05
7.91215e-05
3.64669e-05
4.92465e-05
4.92636e-05
3.63804e-05
3.2483e-05
3.24889e-05
0.000154403
3.33448e-05
3.3352e-05
2.48489e-05
2.47521e-05
2.47057e-05
2.47292e-05
0.000151872
3.41472e-05
3.41516e-05
3.36523e-05