/*--------------------------------*- C++ -*----------------------------------*\
| =========                 |                                                 |
| \\      /  F ield         | OpenFOAM: The Open Source CFD Toolbox           |
|  \\    /   O peration     | Version:  2206                                  |
|   \\  /    A nd           | Website:  www.openfoam.com                      |
|    \\/     M anipulation  |                                                 |
\*---------------------------------------------------------------------------*/
FoamFile
{
    version     2.0;
    format      ascii;
    arch        "LSB;label=32;scalar=64";
    class       surfaceScalarField;
    location    "35";
    object      phi;
}
// * * * * * * * * * * * * * * * * * * * * * * * * * * * * * * * * * * * * * //

dimensions      [0 3 -1 0 0 0 0];

oriented        oriented;

internalField   nonuniform List<scalar> 
83438
(
-0.00104221
-1.45817e-05
-1.4478e-05
9.34783e-06
9.17774e-06
0.00105274
-0.00026146
-5.64169e-06
1.44586e-05
6.83981e-06
0.00105941
-4.53262e-06
-1.62505e-06
-2.2183e-06
-2.57608e-06
-6.59092e-06
-7.04382e-06
-3.16451e-06
-0.000263303
-0.000259727
-0.000262829
-0.000261437
-5.64668e-06
1.44876e-05
6.92936e-06
0.0010592
-4.53774e-06
-1.63523e-06
-2.2259e-06
-2.58039e-06
-6.58501e-06
-7.03988e-06
-3.16669e-06
-0.000259699
-0.000263274
-0.000262793
-0.000260564
5.61717e-06
5.65727e-06
-4.87789e-06
-4.87195e-06
0.00025904
-1.63263e-06
-1.63452e-06
-0.00106073
8.9836e-07
8.99126e-07
0.0010622
-0.00106267
-1.60655e-06
1.62858e-06
8.29164e-07
0.00106395
-6.53651e-07
7.83831e-07
-1.48873e-07
3.76624e-07
-7.99704e-07
-1.39424e-06
-2.92343e-07
-0.00106235
-1.60146e-06
1.6391e-06
8.24373e-07
0.00106363
-6.53631e-07
7.78336e-07
-1.48924e-07
3.74009e-07
-8.0223e-07
-1.39393e-06
-2.89794e-07
-0.000261534
1.63917e-06
1.6016e-06
-7.12865e-07
-7.16014e-07
0.000259722
-1.36425e-06
-1.36568e-06
-0.00106639
6.84181e-07
6.8499e-07
0.00106776
-0.0010679
-1.5566e-06
1.37042e-06
6.92058e-07
0.00106925
-6.20962e-07
8.37377e-07
-1.07884e-07
4.21507e-07
-7.7782e-07
-1.35815e-06
-2.48703e-07
-0.00106758
-1.55135e-06
1.36523e-06
6.9738e-07
0.00106892
-6.20966e-07
8.31957e-07
-1.07863e-07
4.21454e-07
-7.77734e-07
-1.3526e-06
-2.46144e-07
-0.000262766
1.58677e-06
1.55149e-06
-6.73569e-07
-6.81742e-07
0.000260983
-1.34783e-06
-1.34915e-06
-0.00107186
6.6988e-07
6.70736e-07
0.00107322
-0.00107326
-1.55383e-06
1.34882e-06
6.69716e-07
0.00107457
-6.1763e-07
8.61407e-07
-8.40303e-08
4.32642e-07
-7.73521e-07
-1.36471e-06
-2.266e-07
-0.00107293
-1.54849e-06
1.34872e-06
6.69788e-07
0.00107423
-6.14919e-07
8.55982e-07
-8.64863e-08
4.32582e-07
-7.75994e-07
-1.36449e-06
-2.24043e-07
-0.000264047
1.58153e-06
1.54871e-06
-6.61514e-07
-6.67166e-07
0.000262245
-1.28953e-06
-1.29074e-06
-0.00107721
6.38002e-07
6.38887e-07
0.00107851
-0.00107845
-1.54167e-06
1.29047e-06
6.29382e-07
0.0010797
-6.00681e-07
8.89986e-07
-5.90892e-08
4.52438e-07
-7.55559e-07
-1.36148e-06
-1.98108e-07
-0.00107811
-1.53629e-06
1.29031e-06
6.29389e-07
0.00107936
-5.97946e-07
8.84561e-07
-6.15148e-08
4.5238e-07
-7.5802e-07
-1.36126e-06
-1.95523e-07
-0.000265266
1.56951e-06
1.53651e-06
-6.40828e-07
-6.46489e-07
0.000263448
-1.22484e-06
-1.22592e-06
-0.00108238
6.10735e-07
6.11605e-07
0.00108361
-0.00108337
-1.52885e-06
1.22568e-06
5.89615e-07
0.00108457
-5.82158e-07
9.14686e-07
-3.86662e-08
4.73358e-07
-7.31645e-07
-1.35041e-06
-1.71042e-07
-0.00108303
-1.52342e-06
1.22549e-06
5.89583e-07
0.00108423
-5.79394e-07
9.09272e-07
-4.104e-08
4.73287e-07
-7.34125e-07
-1.35019e-06
-1.6848e-07
-0.000266407
1.55682e-06
1.52364e-06
-6.19915e-07
-6.25578e-07
0.000264572
-1.06923e-06
-1.07034e-06
-0.00108717
5.18864e-07
5.19662e-07
0.00108827
-0.00108797
-1.49282e-06
1.07021e-06
5.10364e-07
0.00108903
-5.3591e-07
9.56951e-07
1.32508e-09
5.27042e-07
-6.72862e-07
-1.30422e-06
-1.15904e-07
-0.00108763
-1.4874e-06
1.07007e-06
5.10419e-07
0.00108869
-5.3312e-07
9.51475e-07
-1.52283e-09
5.26992e-07
-6.75341e-07
-1.304e-06
-1.13338e-07
-0.00026746
1.52105e-06
1.48767e-06
-5.73966e-07
-5.79552e-07
0.000265605
-5.66781e-07
-5.6744e-07
-0.00109068
3.08349e-07
3.08696e-07
0.0010912
-0.00109118
-1.35222e-06
5.67258e-07
2.70372e-07
0.00109155
-3.90836e-07
1.09532e-06
1.47964e-07
7.35649e-07
-4.48835e-07
-1.09011e-06
9.56427e-08
-0.00109084
-1.34681e-06
5.67249e-07
2.70442e-07
0.00109121
-3.88057e-07
1.0898e-06
1.45107e-07
7.355e-07
-4.51367e-07
-1.08996e-06
9.84876e-08
-0.000268168
1.38049e-06
1.34693e-06
-3.90523e-07
-3.95942e-07
0.000266227
-2.34085e-07
-2.34588e-07
-0.00109221
1.40282e-07
1.40264e-07
0.00109239
-0.00109212
-1.27108e-06
2.34425e-07
1.32415e-07
0.0010922
-3.1212e-07
1.1694e-06
2.18873e-07
8.43508e-07
-3.27172e-07
-9.73717e-07
2.07158e-07
-0.00109177
-1.26569e-06
2.34414e-07
1.32554e-07
0.00109185
-3.09424e-07
1.16389e-06
2.1605e-07
8.43377e-07
-3.29759e-07
-9.73544e-07
2.09896e-07
-0.000268279
1.29951e-06
1.26579e-06
-2.92246e-07
-2.97679e-07
0.000266303
-4.16368e-08
-4.16396e-08
-0.00109266
2.70002e-08
2.69939e-08
0.00109269
-0.00109227
-1.22478e-06
4.1556e-08
2.72445e-08
0.00109227
-2.71372e-07
1.21057e-06
2.55255e-07
8.95552e-07
-2.74706e-07
-9.14385e-07
2.53571e-07
-0.00109193
-1.21933e-06
4.15946e-08
2.72587e-08
0.00109193
-2.68605e-07
1.20512e-06
2.52492e-07
8.95377e-07
-2.7735e-07
-9.14258e-07
2.56232e-07
-0.000268259
1.25321e-06
1.21947e-06
-2.444e-07
-2.4974e-07
0.00026628
-1.98267e-09
-1.78011e-09
-0.00109272
9.22613e-10
9.83256e-10
0.00109272
-0.00109227
-1.21584e-06
1.71902e-09
5.14352e-09
0.00109227
-2.60978e-07
1.21776e-06
2.58763e-07
9.03728e-07
-2.6575e-07
-9.0438e-07
2.61047e-07
-0.00109192
-1.2104e-06
1.73727e-09
5.11401e-09
0.00109192
-2.60959e-07
1.2123e-06
2.58747e-07
9.03559e-07
-2.68401e-07
-9.04249e-07
2.63751e-07
-0.000268248
1.24425e-06
1.21052e-06
-2.36263e-07
-2.41582e-07
0.000266271
1.57545e-09
1.76429e-09
-0.00109272
-1.67903e-09
-1.64698e-09
0.00109272
-0.00109226
-1.21524e-06
-1.78938e-09
3.42826e-09
0.00109226
-2.60486e-07
1.21821e-06
2.59138e-07
9.0423e-07
-2.65148e-07
-9.03718e-07
2.61503e-07
-0.00109192
-1.2098e-06
-1.77672e-09
3.40096e-09
0.00109192
-2.60467e-07
1.21275e-06
2.59128e-07
9.0406e-07
-2.67806e-07
-9.03588e-07
2.64208e-07
-0.000268247
1.24366e-06
1.20992e-06
-2.35803e-07
-2.41125e-07
0.00026627
5.22155e-06
5.23239e-06
0.000260567
-0.00025917
-5.93219e-06
-5.91807e-06
5.08159e-06
0.000261409
-0.000258686
-5.96212e-06
3.37917e-06
-5.22162e-06
5.07657e-06
0.000261442
-0.000258701
-5.97013e-06
3.37433e-06
5.22222e-06
0.000260579
-0.000259173
-5.90357e-06
-5.9468e-06
5.07468e-06
0.000261473
-0.000258717
-5.96764e-06
3.36901e-06
5.08141e-06
-5.22387e-06
0.000261417
-0.000258686
3.38422e-06
-5.97233e-06
1.07111e-05
1.06174e-05
-0.000252649
-0.000256079
-0.000255118
-0.000255118
-6.41724e-06
-4.12515e-06
-6.66227e-06
-6.41761e-06
-4.12608e-06
-6.66781e-06
-5.06964e-06
0.00104223
1.06707e-05
1.06227e-05
-0.000252651
-0.000256076
-0.000255121
-0.000255121
-6.41986e-06
-4.12544e-06
-6.665e-06
-6.41507e-06
-4.12087e-06
-6.66021e-06
-5.06929e-06
0.00104211
1.0731e-05
1.06833e-05
-0.000252643
-0.000256071
-0.000255118
-0.000255113
-6.41971e-06
-4.13281e-06
-6.66494e-06
-6.41991e-06
-4.12309e-06
-6.66254e-06
-5.08397e-06
-5.0721e-06
0.00104217
1.07263e-05
1.06276e-05
-0.000252646
-0.000256074
-0.000255118
-0.000255118
-6.4146e-06
-4.12777e-06
-6.65994e-06
-6.42005e-06
-4.12593e-06
-6.66527e-06
-0.000258712
-5.96e-06
3.36395e-06
-5.22147e-06
0.000261404
-0.000258684
3.3792e-06
-5.96207e-06
5.22461e-06
0.000260559
-0.000259158
-5.90589e-06
-5.94402e-06
-0.000258696
3.37149e-06
-5.95712e-06
-5.23237e-06
0.000261471
-0.000258712
3.3665e-06
-5.96511e-06
-0.000259168
-5.93206e-06
-5.91809e-06
5.61743e-06
5.65465e-06
-4.87812e-06
-4.87197e-06
0.000259045
-7.79927e-07
-7.44051e-07
0.000261544
-0.000259461
-2.83067e-07
-2.75679e-07
7.09227e-06
0.00105882
-4.52996e-06
-1.57852e-06
-2.21297e-06
-2.5772e-06
-6.60536e-06
-7.04964e-06
-3.17149e-06
-0.000263264
-0.000259684
-0.000262793
-5.62788e-06
1.45552e-05
7.03167e-06
0.00105919
-4.54909e-06
-1.5709e-06
-2.21612e-06
-2.58811e-06
-6.63688e-06
-7.06655e-06
-3.18717e-06
-0.000263338
-0.000259714
-0.000262834
0.00106192
2.02591e-06
-0.00106086
9.74332e-07
-1.7179e-06
-1.69744e-07
-6.91982e-07
-1.46467e-06
-3.09132e-07
-8.27039e-07
3.41881e-07
7.88012e-07
0.00106234
2.02627e-06
-0.00106128
9.69269e-07
-1.72831e-06
-1.62245e-07
-6.97482e-07
-1.47039e-06
-3.09285e-07
-8.27404e-07
3.47295e-07
-4.8762e-06
-4.86886e-06
0.000259055
-7.46723e-07
0.00026157
-0.000259482
-2.80424e-07
-2.72804e-07
6.81351e-06
0.00105966
-4.55425e-06
-1.63785e-06
-2.22918e-06
-2.58641e-06
-6.61939e-06
-7.06192e-06
-3.18239e-06
-0.000263359
-0.000259742
-0.000262847
-5.62758e-06
1.45897e-05
7.12571e-06
0.00105896
-4.54891e-06
-1.58098e-06
-2.22115e-06
-2.59007e-06
-6.63618e-06
-7.06542e-06
-3.18678e-06
-0.000259684
-0.000263315
-0.000262806
0.00106294
2.03349e-06
-0.00106187
9.62829e-07
-1.68797e-06
-1.72251e-07
-6.92257e-07
-1.46771e-06
-3.09245e-07
-8.24803e-07
3.44256e-07
7.77388e-07
0.00106203
2.0365e-06
-0.00106099
9.84634e-07
-1.71796e-06
-1.67291e-07
-6.92179e-07
-1.46749e-06
-3.06665e-07
-8.29795e-07
3.41826e-07
1.45866e-05
7.11303e-06
0.00105877
-4.5299e-06
-1.57841e-06
-2.21035e-06
-2.57723e-06
-6.60537e-06
-3.17154e-06
-7.04732e-06
-0.000259679
-0.000263259
-0.000262788
2.03282e-06
-0.00106161
9.68061e-07
-1.68787e-06
-1.69577e-07
-6.8934e-07
-1.465e-06
-3.11615e-07
3.39066e-07
-8.24531e-07
7.77363e-07
0.00106182
2.03612e-06
-0.00106078
9.84669e-07
-1.71787e-06
-1.67175e-07
-6.91937e-07
-1.46735e-06
-3.09106e-07
-8.26993e-07
3.44414e-07
-4.88103e-06
-4.86864e-06
0.000259035
-7.38581e-07
0.000261521
-0.000259444
-2.83467e-07
-2.78038e-07
1.44877e-05
6.832e-06
0.00105961
-4.55439e-06
-1.63786e-06
-2.22923e-06
-2.58623e-06
-6.61926e-06
-3.18229e-06
-7.0592e-06
-0.000259732
-0.000263356
-0.000262842
2.03786e-06
-0.00106131
9.83603e-07
-1.68539e-06
-1.72125e-07
-6.92012e-07
-1.46187e-06
-3.06602e-07
3.39104e-07
-8.27057e-07
7.38672e-07
0.00106284
2.03851e-06
-0.00106179
9.7316e-07
-1.68294e-06
-1.72281e-07
-6.8968e-07
-1.46494e-06
-3.0909e-07
-8.27223e-07
3.39262e-07
-0.000259459
-2.80604e-07
-2.78254e-07
1.63924e-06
1.60404e-06
-7.10152e-07
-7.18622e-07
0.00025973
-8.65709e-07
-8.27017e-07
0.000262779
-0.000260667
-2.13664e-07
-2.06095e-07
8.30388e-07
0.00106319
-6.56206e-07
8.17084e-07
-1.44023e-07
3.76777e-07
-7.9959e-07
-1.39654e-06
-2.9226e-07
-1.64452e-06
1.63302e-06
8.25168e-07
0.00106362
-6.59059e-07
8.25154e-07
-1.44032e-07
3.82206e-07
-8.02565e-07
-1.40223e-06
-2.8995e-07
0.00106713
1.38441e-06
-0.0010658
7.02487e-07
-1.59096e-06
-1.04215e-07
-6.27573e-07
-1.35247e-06
-2.51288e-07
-7.73889e-07
4.20406e-07
8.71075e-07
0.00106757
1.38468e-06
-0.00106623
6.97412e-07
-1.59628e-06
-1.04333e-07
-6.27801e-07
-1.35546e-06
-2.51404e-07
-7.74245e-07
4.23216e-07
-7.10645e-07
-7.17954e-07
0.000259747
-8.32271e-07
0.000262805
-0.000260679
-2.1371e-07
-2.08591e-07
8.23891e-07
0.00106421
-6.5384e-07
7.81181e-07
-1.46479e-07
3.79226e-07
-8.02634e-07
-1.39967e-06
-2.899e-07
-1.63924e-06
1.63824e-06
8.30447e-07
0.0010633
-6.59045e-07
8.17186e-07
-1.44066e-07
3.76793e-07
-8.023e-07
-1.39673e-06
-2.89777e-07
0.00106816
1.38576e-06
-0.00106684
7.01447e-07
-1.55304e-06
-1.09148e-07
-6.22567e-07
-1.35017e-06
-2.48865e-07
-7.74233e-07
4.23066e-07
8.60489e-07
0.00106725
1.38442e-06
-0.00106592
7.02567e-07
-1.58836e-06
-1.06799e-07
-6.27714e-07
-1.35259e-06
-2.51251e-07
-7.73942e-07
4.23184e-07
1.63281e-06
8.30479e-07
0.0010631
-6.58832e-07
8.14512e-07
-1.4646e-07
3.76718e-07
-8.02216e-07
-2.89812e-07
-1.39663e-06
1.38536e-06
-0.00106658
7.06804e-07
-1.56083e-06
-1.1157e-07
-6.22414e-07
-1.35008e-06
-2.48875e-07
4.22937e-07
-7.74036e-07
8.63091e-07
0.00106704
1.37913e-06
-0.00106571
7.02585e-07
-1.58828e-06
-1.06669e-07
-6.27549e-07
-1.35254e-06
-2.5132e-07
-7.73888e-07
4.20428e-07
-7.13418e-07
-7.15398e-07
0.000259709
-8.24206e-07
0.000262754
-0.000260646
-2.13894e-07
-2.08554e-07
1.6343e-06
8.18802e-07
0.00106414
-6.53904e-07
7.7576e-07
-1.51595e-07
3.74089e-07
-7.99847e-07
-2.94738e-07
-1.39416e-06
1.38538e-06
-0.00106625
7.01726e-07
-1.55031e-06
-1.11571e-07
-6.22372e-07
-1.34452e-06
-2.51298e-07
4.14871e-07
-7.73964e-07
8.26881e-07
0.00106807
1.38577e-06
-0.00106674
7.0153e-07
-1.55051e-06
-1.11722e-07
-6.22648e-07
-1.35274e-06
-2.51319e-07
-7.76815e-07
4.204e-07
-0.000260654
-2.13768e-07
-2.08684e-07
1.58941e-06
1.55667e-06
-6.70873e-07
-6.79195e-07
0.000260983
-8.89856e-07
-8.53647e-07
0.000264062
-0.000261937
-1.93245e-07
-1.88201e-07
6.9292e-07
0.00106848
-6.28836e-07
8.70825e-07
-1.0056e-07
4.21653e-07
-7.75064e-07
-1.35264e-06
-2.51101e-07
-1.59478e-06
1.36458e-06
7.03547e-07
0.0010689
-6.29049e-07
8.76227e-07
-1.00626e-07
4.27183e-07
-7.7802e-07
-1.35825e-06
-2.46238e-07
0.0010725
1.34941e-06
-0.00107118
6.74727e-07
-1.58788e-06
-8.65801e-08
-6.22442e-07
-1.36263e-06
-2.33791e-07
-7.72606e-07
4.30836e-07
8.9531e-07
0.00107292
1.3497e-06
-0.0010716
6.74947e-07
-1.59324e-06
-8.41551e-08
-6.25307e-07
-1.37092e-06
-2.28885e-07
-7.78162e-07
4.39095e-07
-6.73905e-07
-6.76131e-07
0.000261004
-8.56317e-07
0.000264091
-0.000261963
-1.9065e-07
-1.85429e-07
6.91928e-07
0.00106951
-6.26493e-07
8.34736e-07
-1.05494e-07
4.24267e-07
-7.77987e-07
-1.35822e-06
-2.46191e-07
-1.5868e-06
1.3644e-06
6.98271e-07
0.00106859
-6.28997e-07
8.68251e-07
-1.00596e-07
4.24409e-07
-7.77711e-07
-1.3554e-06
-2.46073e-07
0.00107353
1.35072e-06
-0.0010722
6.73736e-07
-1.55236e-06
-8.90206e-08
-6.20043e-07
-1.36555e-06
-2.28857e-07
-7.7816e-07
4.33507e-07
8.89941e-07
0.0010726
1.34949e-06
-0.00107128
6.74889e-07
-1.5879e-06
-8.41127e-08
-6.25241e-07
-1.36531e-06
-2.28721e-07
-7.77864e-07
4.33604e-07
1.36935e-06
6.93026e-07
0.00106839
-6.26143e-07
8.65553e-07
-1.05476e-07
4.24298e-07
-7.77653e-07
-2.48629e-07
-1.35534e-06
1.35039e-06
-0.00107194
6.73853e-07
-1.55493e-06
-8.89031e-08
-6.19878e-07
-1.36286e-06
-2.31361e-07
4.30727e-07
-7.75416e-07
8.84542e-07
0.0010724
1.34931e-06
-0.00107108
6.74836e-07
-1.5826e-06
-8.89945e-08
-6.19713e-07
-1.36269e-06
-2.31312e-07
-7.75194e-07
4.30837e-07
-6.7401e-07
-6.78637e-07
0.000260968
-8.50895e-07
0.000264042
-0.000261922
-1.93327e-07
-1.85457e-07
1.36564e-06
6.97229e-07
0.00106942
-6.21237e-07
8.26698e-07
-1.10493e-07
4.21682e-07
-7.75313e-07
-2.48648e-07
-1.35294e-06
1.3503e-06
-0.0010716
6.73937e-07
-1.54962e-06
-9.13622e-08
-6.17182e-07
-1.36256e-06
-2.28826e-07
4.30721e-07
-7.77892e-07
8.50876e-07
0.00107344
1.35074e-06
-0.00107212
6.73789e-07
-1.54983e-06
-9.15126e-08
-6.17455e-07
-1.3603e-06
-2.31329e-07
-7.75475e-07
4.28209e-07
-0.000261935
-1.90778e-07
-1.85582e-07
1.58681e-06
1.55124e-06
-6.58792e-07
-6.64534e-07
0.000262248
-9.1807e-07
-8.81694e-07
0.000265282
-0.000263154
-1.6656e-07
-1.61414e-07
6.70591e-07
0.0010738
-6.202e-07
8.94983e-07
-8.17103e-08
4.32762e-07
-7.70719e-07
-1.36448e-06
-2.29033e-07
-1.59217e-06
1.34814e-06
6.70804e-07
0.00107423
-6.23057e-07
9.00439e-07
-7.92823e-08
4.41014e-07
-7.76285e-07
-1.3728e-06
-2.24111e-07
0.00107768
1.29183e-06
-0.0010764
6.34179e-07
-1.57846e-06
-6.12783e-08
-6.07686e-07
-1.36189e-06
-2.04778e-07
-7.56858e-07
4.49983e-07
9.23534e-07
0.0010781
1.29211e-06
-0.00107683
6.34402e-07
-1.58384e-06
-5.88676e-08
-6.10543e-07
-1.37021e-06
-1.99823e-07
-7.62414e-07
4.58344e-07
-6.61927e-07
-6.66606e-07
0.000262273
-8.84373e-07
0.000265311
-0.00026318
-1.63931e-07
-1.58671e-07
6.69599e-07
0.00107484
-6.17788e-07
8.58731e-07
-8.41452e-08
4.35426e-07
-7.76287e-07
-1.36742e-06
-2.24086e-07
-1.58684e-06
1.34792e-06
6.70744e-07
0.00107391
-6.22995e-07
8.95066e-07
-7.9244e-08
4.35534e-07
-7.75974e-07
-1.36715e-06
-2.23956e-07
0.00107871
1.29299e-06
-0.00107744
6.33197e-07
-1.54276e-06
-6.37002e-08
-6.05253e-07
-1.3648e-06
-1.99794e-07
-7.62417e-07
4.52768e-07
9.18151e-07
0.00107778
1.2919e-06
-0.00107651
6.3432e-07
-1.57848e-06
-5.88204e-08
-6.10481e-07
-1.36455e-06
-1.99688e-07
-7.62124e-07
4.52782e-07
1.34775e-06
6.70683e-07
0.00107371
-6.1746e-07
8.89663e-07
-8.41212e-08
4.32753e-07
-7.73316e-07
-2.26542e-07
-1.36455e-06
1.29273e-06
-0.00107717
6.33326e-07
-1.54536e-06
-6.35925e-08
-6.0511e-07
-1.36209e-06
-2.02325e-07
4.49968e-07
-7.59659e-07
9.1271e-07
0.00107758
1.29173e-06
-0.0010763
6.3425e-07
-1.57316e-06
-6.368e-08
-6.04935e-07
-1.36193e-06
-2.0227e-07
-7.59448e-07
4.50064e-07
-6.59334e-07
-6.66567e-07
0.000262232
-8.78949e-07
0.000265261
-0.000263139
-1.66601e-07
-1.58682e-07
1.34916e-06
6.69637e-07
0.00107475
-6.15191e-07
8.55971e-07
-8.66303e-08
4.30122e-07
-7.73598e-07
-2.26558e-07
-1.36216e-06
1.29257e-06
-0.00107683
6.33349e-07
-1.53998e-06
-6.60193e-08
-6.02376e-07
-1.36181e-06
-1.99778e-07
4.4995e-07
-7.62158e-07
8.78937e-07
0.00107862
1.29298e-06
-0.00107735
6.33221e-07
-1.5402e-06
-6.61546e-08
-6.02631e-07
-1.35953e-06
-2.02272e-07
-7.59723e-07
4.47438e-07
-0.000263152
-1.64049e-07
-1.58808e-07
1.57479e-06
1.53907e-06
-6.38131e-07
-6.43813e-07
0.00026345
-9.37634e-07
-9.01106e-07
0.000266423
-0.000264298
-1.45458e-07
-1.40229e-07
6.30203e-07
0.00107893
-6.03242e-07
9.2373e-07
-5.67606e-08
4.52573e-07
-7.52747e-07
-1.36132e-06
-2.00528e-07
-1.58021e-06
1.28989e-06
6.30475e-07
0.00107936
-6.06129e-07
9.29174e-07
-5.43798e-08
4.60823e-07
-7.5831e-07
-1.36963e-06
-1.95593e-07
0.0010826
1.26002e-06
-0.00108139
6.11622e-07
-1.56971e-06
-4.39563e-08
-5.92872e-07
-1.35735e-06
-1.8426e-07
-7.38858e-07
4.63567e-07
9.43097e-07
0.00108303
1.26036e-06
-0.00108181
6.11921e-07
-1.57515e-06
-4.15862e-08
-5.9576e-07
-1.36571e-06
-1.79293e-07
-7.4443e-07
4.71886e-07
-6.41256e-07
-6.45958e-07
0.000263476
-9.0378e-07
0.000266451
-0.000264324
-1.42819e-07
-1.37532e-07
6.29253e-07
0.00107997
-6.0083e-07
8.8731e-07
-5.91885e-08
4.55244e-07
-7.58301e-07
-1.36419e-06
-1.95561e-07
-1.57482e-06
1.2896e-06
6.30376e-07
0.00107904
-6.06048e-07
9.238e-07
-5.4326e-08
4.55383e-07
-7.58013e-07
-1.36397e-06
-1.95433e-07
0.00108364
1.2611e-06
-0.00108242
6.10719e-07
-1.53388e-06
-4.63673e-08
-5.90443e-07
-1.36024e-06
-1.79256e-07
-7.44419e-07
4.6631e-07
9.37706e-07
0.0010827
1.26008e-06
-0.00108149
6.11784e-07
-1.56975e-06
-4.15332e-08
-5.95679e-07
-1.36e-06
-1.79143e-07
-7.44135e-07
4.66399e-07
1.28946e-06
6.30284e-07
0.00107883
-6.00508e-07
9.1835e-07
-5.91716e-08
4.52539e-07
-7.55334e-07
-1.98036e-07
-1.36133e-06
1.26089e-06
-0.00108216
6.10887e-07
-1.53651e-06
-4.62925e-08
-5.9033e-07
-1.35753e-06
-1.81811e-07
4.63494e-07
-7.41684e-07
9.32235e-07
0.0010825
1.25993e-06
-0.00108129
6.11693e-07
-1.56442e-06
-4.63509e-08
-5.90125e-07
-1.35738e-06
-1.81749e-07
-7.41458e-07
4.63579e-07
-6.3865e-07
-6.45881e-07
0.000263435
-8.98353e-07
0.000266402
-0.000264283
-1.45478e-07
-1.37525e-07
1.2907e-06
6.2927e-07
0.00107988
-5.98197e-07
8.84548e-07
-6.16394e-08
4.49905e-07
-7.55609e-07
-1.98043e-07
-1.35892e-06
1.26068e-06
-0.00108182
6.10855e-07
-1.53109e-06
-4.86923e-08
-5.87566e-07
-1.35725e-06
-1.79245e-07
4.63476e-07
-7.44176e-07
8.98343e-07
0.00108355
1.26106e-06
-0.00108233
6.10716e-07
-1.5313e-06
-4.87965e-08
-5.87794e-07
-1.35497e-06
-1.81747e-07
-7.41727e-07
4.60951e-07
-0.000264296
-1.42931e-07
-1.37631e-07
1.56212e-06
1.52623e-06
-6.17204e-07
-6.22889e-07
0.000264574
-9.68958e-07
-9.32394e-07
0.000267476
-0.000265365
-1.07373e-07
-1.02092e-07
5.9042e-07
0.0010838
-5.84729e-07
9.48548e-07
-3.6371e-08
4.73423e-07
-7.28842e-07
-1.35022e-06
-1.73503e-07
-1.56756e-06
1.22521e-06
5.90726e-07
0.00108422
-5.87617e-07
9.54029e-07
-3.40106e-08
4.81748e-07
-7.34422e-07
-1.35861e-06
-1.68555e-07
0.0010872
1.14263e-06
-0.00108609
5.5568e-07
-1.54246e-06
-1.42919e-08
-5.57383e-07
-1.32359e-06
-1.44619e-07
-6.93306e-07
4.98327e-07
9.74488e-07
0.00108762
1.1429e-06
-0.00108651
5.5582e-07
-1.54789e-06
-1.20067e-08
-5.60221e-07
-1.33192e-06
-1.39564e-07
-6.98814e-07
5.06777e-07
-6.20355e-07
-6.2504e-07
0.0002646
-9.3513e-07
0.000267505
-0.000265391
-1.04625e-07
-9.93537e-08
5.89487e-07
0.00108484
-5.82284e-07
9.12008e-07
-3.87558e-08
4.76171e-07
-7.34401e-07
-1.35313e-06
-1.68507e-07
-1.56216e-06
1.22492e-06
5.90632e-07
0.0010839
-5.87544e-07
9.48615e-07
-3.39618e-08
4.7626e-07
-7.34113e-07
-1.35287e-06
-1.68384e-07
0.00108824
1.14364e-06
-0.00108713
5.54889e-07
-1.50639e-06
-1.65384e-08
-5.54869e-07
-1.32643e-06
-1.39583e-07
-6.98824e-07
5.01146e-07
9.69057e-07
0.0010873
1.14272e-06
-0.00108619
5.55738e-07
-1.54249e-06
-1.19743e-08
-5.60172e-07
-1.32624e-06
-1.39478e-07
-6.98587e-07
5.01198e-07
1.22478e-06
5.90484e-07
0.0010837
-5.81975e-07
9.43141e-07
-3.8747e-08
4.73438e-07
-7.31437e-07
-1.71e-07
-1.35027e-06
1.14344e-06
-0.00108686
5.54996e-07
-1.50901e-06
-1.64432e-08
-5.54739e-07
-1.32371e-06
-1.42141e-07
4.98316e-07
-6.96079e-07
9.63566e-07
0.0010871
1.14256e-06
-0.00108599
5.55754e-07
-1.53712e-06
-1.65321e-08
-5.54581e-07
-1.32358e-06
-1.42085e-07
-6.95873e-07
4.98398e-07
-6.1768e-07
-6.24995e-07
0.000264559
-9.29665e-07
0.000267455
-0.000265349
-1.07335e-07
-9.93673e-08
1.22585e-06
5.89477e-07
0.00108475
-5.79625e-07
9.09236e-07
-4.11665e-08
4.70809e-07
-7.31698e-07
-1.7099e-07
-1.34785e-06
1.14321e-06
-0.00108652
5.55038e-07
-1.50357e-06
-1.87582e-08
-5.51972e-07
-1.32343e-06
-1.39586e-07
4.98296e-07
-6.9858e-07
9.29607e-07
0.00108815
1.14356e-06
-0.00108704
5.54886e-07
-1.50382e-06
-1.88589e-08
-5.52201e-07
-1.32113e-06
-1.42075e-07
-6.96104e-07
4.95771e-07
-0.000265362
-1.04835e-07
-9.94754e-08
1.52648e-06
1.49026e-06
-5.71338e-07
-5.76875e-07
0.000265607
-1.10462e-06
-1.06534e-06
0.000268187
-0.00026615
6.43229e-08
6.94321e-08
5.10853e-07
0.00108825
-5.38737e-07
9.93523e-07
8.43763e-09
5.26955e-07
-6.70149e-07
-1.30418e-06
-1.1847e-07
-1.53191e-06
1.0693e-06
5.10895e-07
0.00108868
-5.41597e-07
9.96309e-07
8.40851e-09
5.35378e-07
-6.75627e-07
-1.31245e-06
-1.13454e-07
0.0010904
6.75731e-07
-0.00108987
3.12668e-07
-1.42034e-06
1.26004e-07
-4.27118e-07
-1.13635e-06
4.60543e-08
-4.98359e-07
6.95636e-07
1.10743e-06
0.00109083
6.75763e-07
-0.00109031
3.12593e-07
-1.42312e-06
1.25975e-07
-4.27265e-07
-1.142e-06
5.18094e-08
-5.03872e-07
7.01308e-07
-5.74417e-07
-5.79059e-07
0.000265633
-1.06811e-06
0.000268213
-0.000266177
6.70576e-08
7.19366e-08
5.10383e-07
0.0010893
-5.36062e-07
9.54232e-07
1.07908e-09
5.29891e-07
-6.75572e-07
-1.30691e-06
-1.13345e-07
-1.52654e-06
1.0691e-06
5.1084e-07
0.00108836
-5.41554e-07
9.9093e-07
8.4626e-09
5.29807e-07
-6.75401e-07
-1.30679e-06
-1.13367e-07
0.00109145
6.76321e-07
-0.00109093
3.11943e-07
-1.38147e-06
1.20482e-07
-4.21874e-07
-1.13917e-06
5.19112e-08
-5.03809e-07
6.985e-07
1.10199e-06
0.00109051
6.75681e-07
-0.00108998
3.12608e-07
-1.4177e-06
1.26008e-07
-4.27228e-07
-1.13911e-06
5.18788e-08
-5.03697e-07
6.98391e-07
1.06936e-06
5.10981e-07
0.00108815
-5.35736e-07
9.85638e-07
1.24588e-09
5.27115e-07
-6.72643e-07
-1.15855e-07
-1.30409e-06
6.76162e-07
-0.00109066
3.11959e-07
-1.38403e-06
1.20587e-07
-4.21711e-07
-1.13651e-06
4.89704e-08
6.95669e-07
-5.01097e-07
1.09664e-06
0.0010903
6.75755e-07
-0.00108978
3.12647e-07
-1.41221e-06
1.20419e-07
-4.2161e-07
-1.13643e-06
4.89042e-08
-5.00988e-07
6.95643e-07
-5.71811e-07
-5.7897e-07
0.000265591
-1.06262e-06
0.000268163
-0.000266135
6.45036e-08
7.18603e-08
1.07027e-06
5.10187e-07
0.00108921
-5.33314e-07
9.51625e-07
-1.55541e-09
5.24542e-07
-6.72876e-07
-1.15813e-07
-1.30163e-06
6.76139e-07
-0.00109032
3.11955e-07
-1.3786e-06
1.17811e-07
-4.18943e-07
-1.13623e-06
5.18326e-08
6.956e-07
-5.03661e-07
1.06274e-06
0.00109136
6.76277e-07
-0.00109084
3.11945e-07
-1.37872e-06
1.17711e-07
-4.19133e-07
-1.13389e-06
4.90722e-08
-5.01088e-07
6.93159e-07
-0.000266148
6.69088e-08
7.20806e-08
1.38861e-06
1.34965e-06
-3.88067e-07
-3.93405e-07
0.00026623
-1.18879e-06
-1.14973e-06
0.000268297
-0.000266305
1.70349e-07
1.75448e-07
2.71047e-07
0.00109076
-3.96233e-07
1.13181e-06
1.53324e-07
7.35564e-07
-4.46046e-07
-1.09005e-06
9.56433e-08
-1.39139e-06
5.6685e-07
2.71013e-07
0.0010912
-3.96387e-07
1.13458e-06
1.53338e-07
7.41238e-07
-4.51572e-07
-1.09572e-06
9.84808e-08
0.00109133
3.11254e-07
-0.00109121
1.71209e-07
-1.32536e-06
2.08964e-07
-3.33653e-07
-9.99466e-07
1.84756e-07
-3.50892e-07
8.19136e-07
1.19161e-06
0.00109177
3.11385e-07
-0.00109164
1.71188e-07
-1.32813e-06
2.09017e-07
-3.33682e-07
-1.00519e-06
1.87515e-07
-3.5376e-07
8.24758e-07
-3.90848e-07
-3.95661e-07
0.000266256
-1.15241e-06
0.000268324
-0.000266331
1.7308e-07
1.77922e-07
2.7036e-07
0.00109182
-3.90937e-07
1.09257e-06
1.47844e-07
7.38436e-07
-4.51538e-07
-1.09284e-06
9.852e-08
-1.386e-06
5.66872e-07
2.71088e-07
0.00109087
-3.9637e-07
1.12917e-06
1.53294e-07
7.38322e-07
-4.51421e-07
-1.09278e-06
9.84896e-08
0.00109239
3.11865e-07
-0.00109226
1.70533e-07
-1.28622e-06
2.03665e-07
-3.28189e-07
-1.00236e-06
1.87502e-07
-3.53802e-07
8.21913e-07
1.1862e-06
0.00109144
3.11488e-07
-0.00109132
1.71163e-07
-1.32269e-06
2.0902e-07
-3.33671e-07
-1.00226e-06
1.87511e-07
-3.53682e-07
8.2184e-07
5.66873e-07
2.71104e-07
0.00109067
-3.90763e-07
1.12378e-06
1.47763e-07
7.35602e-07
-4.48708e-07
9.56047e-08
-1.09008e-06
3.11688e-07
-0.00109199
1.7057e-07
-1.28887e-06
2.0367e-07
-3.2813e-07
-9.99613e-07
1.84778e-07
8.19141e-07
-3.5102e-07
1.18075e-06
0.00109124
3.11449e-07
-0.00109111
1.71254e-07
-1.31728e-06
2.03443e-07
-3.28116e-07
-9.99553e-07
1.84677e-07
-3.50923e-07
8.19127e-07
-3.88304e-07
-3.95658e-07
0.000266214
-1.14688e-06
0.000268274
-0.000266289
1.70426e-07
1.77924e-07
5.67386e-07
2.7043e-07
0.00109173
-3.88258e-07
1.08993e-06
1.45103e-07
7.33142e-07
-4.48837e-07
9.57388e-08
-1.0875e-06
3.11682e-07
-0.00109165
1.70722e-07
-1.28349e-06
2.00831e-07
-3.25455e-07
-9.9938e-07
1.8748e-07
8.19072e-07
-3.5361e-07
1.14702e-06
0.0010923
3.11852e-07
-0.00109217
1.70738e-07
-1.28358e-06
2.00893e-07
-3.25512e-07
-9.97028e-07
1.84797e-07
-3.51065e-07
8.16579e-07
-0.000266302
1.7286e-07
1.78072e-07
1.30759e-06
1.26843e-06
-2.89675e-07
-2.95114e-07
0.000266306
-1.24121e-06
-1.20215e-06
0.000268277
-0.000266288
2.24585e-07
2.29822e-07
1.3297e-07
0.00109141
-3.17627e-07
1.20577e-06
2.24173e-07
8.43491e-07
-3.2706e-07
-9.73591e-07
2.07154e-07
-1.31035e-06
2.34236e-07
1.32944e-07
0.00109185
-3.17657e-07
1.2086e-06
2.24232e-07
8.49113e-07
-3.29947e-07
-9.79315e-07
2.09901e-07
0.00109148
7.01913e-08
-0.00109147
4.36755e-08
-1.2681e-06
2.55455e-07
-2.82831e-07
-9.22306e-07
2.4743e-07
-2.81711e-07
8.88728e-07
1.24404e-06
0.00109192
7.02958e-08
-0.00109191
4.36239e-08
-1.27087e-06
2.55528e-07
-2.82854e-07
-9.28022e-07
2.5021e-07
-2.84554e-07
8.94341e-07
-2.92511e-07
-2.97399e-07
0.000266332
-1.20482e-06
0.000268304
-0.000266315
2.27361e-07
2.32243e-07
1.32398e-07
0.00109247
-3.12151e-07
1.16672e-06
2.18881e-07
8.46289e-07
-3.29974e-07
-9.76465e-07
2.09895e-07
-1.30493e-06
2.3432e-07
1.3295e-07
0.00109152
-3.17657e-07
1.20317e-06
2.24219e-07
8.46197e-07
-3.2984e-07
-9.76385e-07
2.09897e-07
0.00109254
7.02659e-08
-0.00109253
4.3334e-08
-1.22896e-06
2.50141e-07
-2.77375e-07
-9.25133e-07
2.50268e-07
-2.84523e-07
8.91564e-07
1.23859e-06
0.00109159
7.02603e-08
-0.00109159
4.36305e-08
-1.26547e-06
2.55507e-07
-2.82861e-07
-9.25063e-07
2.50196e-07
-2.84463e-07
8.91465e-07
2.34278e-07
1.33033e-07
0.00109132
-3.12095e-07
1.19773e-06
2.18655e-07
8.43484e-07
-3.271e-07
2.07068e-07
-9.73671e-07
7.01858e-08
-0.00109226
4.33109e-08
-1.23162e-06
2.50148e-07
-2.77345e-07
-9.2238e-07
2.47519e-07
8.888e-07
-2.81756e-07
1.23315e-06
0.00109139
7.03236e-08
-0.00109138
4.37082e-08
-1.26005e-06
2.49946e-07
-2.77289e-07
-9.22391e-07
2.47382e-07
-2.81709e-07
8.88702e-07
-2.89973e-07
-2.97366e-07
0.00026629
-1.19936e-06
0.000268254
-0.000266273
2.24782e-07
2.32181e-07
2.3457e-07
1.32589e-07
0.00109237
-3.09472e-07
1.16401e-06
2.16119e-07
8.40947e-07
-3.27241e-07
2.07191e-07
-9.71151e-07
7.02114e-08
-0.00109192
4.33393e-08
-1.22617e-06
2.47383e-07
-2.74584e-07
-9.22201e-07
2.50173e-07
8.88665e-07
-2.84403e-07
1.19945e-06
0.00109245
7.02889e-08
-0.00109244
4.34219e-08
-1.22631e-06
2.4742e-07
-2.74658e-07
-9.19822e-07
2.4755e-07
-2.81806e-07
8.86216e-07
-0.000266286
2.27095e-07
2.32412e-07
1.26126e-06
1.22213e-06
-2.41844e-07
-2.47144e-07
0.000266283
-1.25363e-06
-1.21452e-06
0.000268267
-0.000266275
2.35442e-07
2.40782e-07
2.75701e-08
0.00109148
-2.76853e-07
1.24697e-06
2.60571e-07
8.95447e-07
-2.74682e-07
-9.14337e-07
2.53467e-07
-1.26402e-06
4.17124e-08
2.22633e-08
0.00109193
-2.76873e-07
1.24979e-06
2.6064e-07
9.01068e-07
-2.77534e-07
-9.2002e-07
2.56236e-07
0.00109148
5.50068e-09
-0.00109148
7.32962e-09
-1.25301e-06
2.66358e-07
-2.69788e-07
-9.05184e-07
2.60328e-07
-2.66525e-07
9.0295e-07
1.25644e-06
0.00109192
5.45062e-09
-0.00109192
1.23687e-08
-1.25579e-06
2.6645e-07
-2.69795e-07
-9.10783e-07
2.63165e-07
-2.69313e-07
9.08648e-07
-2.44642e-07
-2.49478e-07
0.000266309
-1.21723e-06
0.000268293
-0.000266301
2.38296e-07
2.43169e-07
2.72911e-08
0.00109254
-2.71413e-07
1.2079e-06
2.55241e-07
8.9834e-07
-2.77493e-07
-9.17121e-07
2.56303e-07
-1.25863e-06
4.16626e-08
2.75295e-08
0.0010916
-2.76885e-07
1.24434e-06
2.60618e-07
8.98191e-07
-2.77418e-07
-9.17084e-07
2.56243e-07
0.00109254
5.28335e-09
-0.00109254
7.09495e-09
-1.21391e-06
2.61006e-07
-2.64374e-07
-9.07887e-07
2.63245e-07
-2.69254e-07
9.05905e-07
1.25101e-06
0.00109159
5.41645e-09
-0.00109159
7.21265e-09
-1.25038e-06
2.66431e-07
-2.698e-07
-9.07897e-07
2.63149e-07
-2.69214e-07
9.05729e-07
4.17301e-08
2.75918e-08
0.00109139
-2.71312e-07
1.2389e-06
2.55057e-07
8.95462e-07
-2.74683e-07
2.53417e-07
-9.14393e-07
5.23282e-09
-0.00109227
7.03915e-09
-1.21654e-06
2.58307e-07
-2.61554e-07
-9.05161e-07
2.60463e-07
9.03107e-07
-2.66464e-07
1.24556e-06
0.00109139
5.43728e-09
-0.00109139
7.25249e-09
-1.24495e-06
2.60873e-07
-2.64224e-07
-9.05184e-07
2.60348e-07
-2.66452e-07
9.0301e-07
-2.42036e-07
-2.49491e-07
0.000266267
-1.21176e-06
0.000268243
-0.000266259
2.35703e-07
2.43125e-07
4.16419e-08
2.73461e-08
0.00109245
-2.68682e-07
1.2052e-06
2.52531e-07
8.92988e-07
-2.74773e-07
2.5359e-07
-9.11817e-07
5.24119e-09
-0.00109192
7.00202e-09
-1.21109e-06
2.58293e-07
-2.61533e-07
-9.04978e-07
2.63145e-07
9.0299e-07
-2.69135e-07
1.21187e-06
0.00109244
5.26618e-09
-0.00109245
7.05208e-09
-1.21122e-06
2.58344e-07