/*--------------------------------*- C++ -*----------------------------------*\
| =========                 |                                                 |
| \\      /  F ield         | OpenFOAM: The Open Source CFD Toolbox           |
|  \\    /   O peration     | Version:  2206                                  |
|   \\  /    A nd           | Website:  www.openfoam.com                      |
|    \\/     M anipulation  |                                                 |
\*---------------------------------------------------------------------------*/
FoamFile
{
    version     2.0;
    format      ascii;
    arch        "LSB;label=32;scalar=64";
    class       volVectorField;
    location    "35";
    object      U;
}
// * * * * * * * * * * * * * * * * * * * * * * * * * * * * * * * * * * * * * //

dimensions      [0 1 -1 0 0 0 0];

internalField   nonuniform List<vector> 
28688
(
(0.000107993 0.000107926 0.100299)
(-0.000190226 0.000119285 0.100385)
(0.000119357 -0.000190218 0.100385)
(-0.000239513 -0.000239532 0.100397)
(9.42432e-05 9.41952e-05 0.10086)
(-0.000159095 9.69465e-05 0.100941)
(9.6953e-05 -0.000159092 0.100941)
(-0.000200926 -0.000200978 0.100968)
(9.57016e-05 9.5689e-05 0.10137)
(-0.00015626 9.3751e-05 0.101448)
(9.37405e-05 -0.000156268 0.101448)
(-0.000201563 -0.000201614 0.101471)
(9.45419e-05 9.45318e-05 0.101892)
(-0.000152781 9.04697e-05 0.101957)
(9.04809e-05 -0.000152786 0.101957)
(-0.00019782 -0.000197865 0.101965)
(9.05452e-05 9.05424e-05 0.102396)
(-0.000145786 8.49934e-05 0.102447)
(8.50055e-05 -0.00014579 0.102447)
(-0.000190777 -0.000190824 0.102433)
(8.70922e-05 8.70937e-05 0.102885)
(-0.000137251 7.91521e-05 0.102912)
(7.91656e-05 -0.000137259 0.102912)
(-0.000183818 -0.000183865 0.10287)
(7.41136e-05 7.40999e-05 0.103337)
(-0.000121792 6.88565e-05 0.103344)
(6.88652e-05 -0.000121784 0.103344)
(-0.000166937 -0.000166984 0.103271)
(4.31439e-05 4.31343e-05 0.103643)
(-6.19107e-05 3.64799e-05 0.103617)
(3.64811e-05 -6.19175e-05 0.103617)
(-0.000104395 -0.000104393 0.103527)
(1.84173e-05 1.83962e-05 0.103771)
(-2.56314e-05 1.81106e-05 0.10369)
(1.81245e-05 -2.5624e-05 0.10369)
(-6.90146e-05 -6.9051e-05 0.103561)
(2.91816e-06 2.91695e-06 0.103805)
(-5.07743e-06 4.13751e-06 0.1037)
(4.13866e-06 -5.08474e-06 0.103699)
(-5.07896e-05 -5.081e-05 0.103553)
(-5.14557e-07 -5.04168e-07 0.103809)
(-8.99616e-07 1.14206e-06 0.103699)
(1.13945e-06 -9.03572e-07 0.103699)
(-4.74518e-05 -4.74672e-05 0.103549)
(-8.51813e-07 -8.44586e-07 0.103809)
(-5.86068e-07 9.02675e-07 0.103699)
(9.00413e-07 -5.88116e-07 0.103699)
(-4.72503e-05 -4.72672e-05 0.103548)
(0.000135038 0.000135028 0.100282)
(0.000124253 0.000152877 0.100229)
(-0.000124244 0.000152857 0.100229)
(-0.000135034 0.000134996 0.100282)
(0.000152905 0.000124204 0.100229)
(0.000152877 -0.000124221 0.100229)
(9.0803e-05 9.07513e-05 0.100151)
(-9.07931e-05 9.07487e-05 0.100151)
(9.07771e-05 -9.07973e-05 0.100151)
(-9.07747e-05 -9.07953e-05 0.100151)
(-0.000152901 0.0001242 0.100229)
(-0.000152887 -0.000124216 0.100229)
(0.000135028 -0.000135047 0.100282)
(0.000124205 -0.000152907 0.100229)
(-0.000124201 -0.000152889 0.100229)
(-0.000135036 -0.00013502 0.100282)
(0.000239555 0.000239535 0.100397)
(0.000111556 0.000111428 0.100892)
(0.000119407 0.000190119 0.100385)
(-0.000119358 0.00019016 0.100385)
(8.91894e-05 0.000147401 0.100823)
(-8.91509e-05 0.000147398 0.100823)
(-0.000239565 0.000239483 0.100397)
(-0.000111516 0.000111397 0.100892)
(0.000190262 0.000119305 0.100385)
(0.000190201 -0.000119365 0.100385)
(0.000147376 8.91601e-05 0.100823)
(0.000147411 -8.9181e-05 0.100823)
(-0.000190183 -0.000119369 0.100385)
(-0.000147347 8.91616e-05 0.100823)
(-0.000147368 -8.91749e-05 0.100823)
(0.000239486 -0.000239577 0.100397)
(0.000111507 -0.000111522 0.100892)
(-0.000119337 -0.000190248 0.100385)
(8.91638e-05 -0.000147339 0.100823)
(-8.91433e-05 -0.000147364 0.100823)
(-0.000111506 -0.000111524 0.100892)
(0.000201014 0.000200847 0.100968)
(0.000106051 0.000105969 0.101395)
(9.69597e-05 0.000159149 0.100941)
(-9.69329e-05 0.000159146 0.100941)
(9.41993e-05 0.000156746 0.10132)
(-9.41996e-05 0.000156746 0.10132)
(-0.000200976 0.000200814 0.100968)
(-0.000106039 0.000105964 0.101395)
(0.000159128 9.69398e-05 0.100941)
(0.000159146 -9.69523e-05 0.100941)
(0.0001567 9.42033e-05 0.10132)
(0.000156741 -9.42063e-05 0.10132)
(-0.000159124 -9.6947e-05 0.100941)
(-0.000156697 9.42119e-05 0.10132)
(-0.000156719 -9.41961e-05 0.10132)
(0.000200924 -0.000200987 0.100968)
(0.000106014 -0.000106028 0.101395)
(-9.6935e-05 -0.000159118 0.100941)
(9.42009e-05 -0.000156699 0.10132)
(-9.42068e-05 -0.000156719 0.10132)
(-0.000106029 -0.000106035 0.101395)
(0.000201631 0.000201505 0.101471)
(9.70931e-05 9.70308e-05 0.101893)
(9.37329e-05 0.000156318 0.101448)
(-9.37383e-05 0.000156315 0.101448)
(9.09108e-05 0.000153182 0.101832)
(-9.09003e-05 0.000153171 0.101832)
(-0.000201622 0.000201487 0.101471)
(-9.70728e-05 9.70279e-05 0.101893)
(0.000156268 9.37466e-05 0.101448)
(0.000156308 -9.37416e-05 0.101449)
(0.000153122 9.09132e-05 0.101832)
(0.000153155 -9.08989e-05 0.101832)
(-0.00015629 -9.37351e-05 0.101448)
(-0.000153117 9.09046e-05 0.101832)
(-0.000153156 -9.0902e-05 0.101832)
(0.000201547 -0.000201621 0.101471)
(9.70455e-05 -9.70815e-05 0.101893)
(-9.37486e-05 -0.000156291 0.101448)
(9.09131e-05 -0.000153121 0.101832)
(-9.09036e-05 -0.00015313 0.101832)
(-9.71076e-05 -9.71086e-05 0.101893)
(0.000197853 0.000197746 0.101965)
(8.70814e-05 8.70418e-05 0.102366)
(9.0478e-05 0.000152844 0.101957)
(-9.0466e-05 0.000152835 0.101957)
(8.51941e-05 0.000145746 0.102327)
(-8.51833e-05 0.000145736 0.102327)
(-0.000197835 0.000197733 0.101965)
(-8.7069e-05 8.70386e-05 0.102366)
(0.000152788 9.04787e-05 0.101957)
(0.000152819 -9.04636e-05 0.101957)
(0.000145686 8.51937e-05 0.102327)
(0.00014572 -8.51746e-05 0.102327)
(-0.00015282 -9.0467e-05 0.101957)
(-0.000145683 8.51859e-05 0.102327)
(-0.000145726 -8.51827e-05 0.102327)
(0.000197756 -0.000197857 0.101965)
(8.70423e-05 -8.70753e-05 0.102366)
(-9.04668e-05 -0.000152791 0.101957)
(8.51989e-05 -0.000145685 0.102327)
(-8.51796e-05 -0.000145685 0.102327)
(-8.71071e-05 -8.71105e-05 0.102366)
(0.000190793 0.000190716 0.102433)
(8.00545e-05 8.00277e-05 0.10281)
(8.50015e-05 0.000145844 0.102447)
(-8.49951e-05 0.000145843 0.102447)
(8.23384e-05 0.000141873 0.102797)
(-8.23305e-05 0.000141871 0.102797)
(-0.000190794 0.000190699 0.102433)
(-8.00533e-05 8.00319e-05 0.10281)
(0.000145792 8.50015e-05 0.102447)
(0.000145818 -8.49843e-05 0.102447)
(0.000141811 8.23439e-05 0.102797)
(0.000141843 -8.23152e-05 0.102797)
(-0.000145829 -8.49906e-05 0.102447)
(-0.00014181 8.23387e-05 0.102797)
(-0.000141857 -8.23259e-05 0.102797)
(0.000190714 -0.000190805 0.102433)
(8.00246e-05 -8.00555e-05 0.10281)
(-8.49871e-05 -0.000145788 0.102447)
(8.23524e-05 -0.000141813 0.102797)
(-8.23278e-05 -0.000141807 0.102797)
(-8.00913e-05 -8.00946e-05 0.10281)
(0.000183831 0.000183756 0.10287)
(6.80236e-05 6.79822e-05 0.103224)
(7.9163e-05 0.000137311 0.102912)
(-7.91582e-05 0.000137316 0.102912)
(7.55884e-05 0.000131077 0.10324)
(-7.55625e-05 0.000131063 0.10324)
(-0.000183828 0.000183746 0.10287)
(-6.80046e-05 6.79568e-05 0.103224)
(0.000137257 7.91618e-05 0.102912)
(0.000137283 -7.91439e-05 0.102912)
(0.000131022 7.55985e-05 0.10324)
(0.000131049 -7.5549e-05 0.10324)
(-0.0001373 -7.91492e-05 0.102912)
(-0.000131021 7.55898e-05 0.10324)
(-0.000131058 -7.55731e-05 0.10324)
(0.000183744 -0.000183849 0.10287)
(6.79557e-05 -6.80164e-05 0.103224)
(-7.91432e-05 -0.00013725 0.102912)
(7.56203e-05 -0.000131021 0.10324)
(-7.55879e-05 -0.000131012 0.10324)
(-6.80524e-05 -6.80616e-05 0.103224)
(0.000166963 0.000166876 0.103271)
(1.25738e-05 1.26228e-05 0.103517)
(6.8916e-05 0.000121876 0.103344)
(-6.8897e-05 0.000121848 0.103344)
(4.17655e-05 7.40831e-05 0.103576)
(-4.17644e-05 7.40896e-05 0.103576)
(-0.00016695 0.00016684 0.103271)
(-1.25545e-05 1.25731e-05 0.103517)
(0.000121781 6.88788e-05 0.103344)
(0.000121829 -6.88904e-05 0.103344)
(7.4056e-05 4.17315e-05 0.103576)
(7.40862e-05 -4.17591e-05 0.103576)
(-0.000121832 -6.88348e-05 0.103344)
(-7.40465e-05 4.17093e-05 0.103576)
(-7.40901e-05 -4.17504e-05 0.103576)
(0.000166858 -0.000166982 0.103271)
(1.2592e-05 -1.25636e-05 0.103517)
(-6.88271e-05 -0.000121767 0.103344)
(4.17159e-05 -7.40571e-05 0.103576)
(-4.17036e-05 -7.40329e-05 0.103576)
(-1.25768e-05 -1.2524e-05 0.103517)
(0.000104419 0.000104418 0.103527)
(-2.46508e-05 -2.46635e-05 0.103569)
(3.65308e-05 6.19314e-05 0.103617)
(-3.65333e-05 6.19374e-05 0.103617)
(2.32275e-05 3.39945e-05 0.10368)
(-2.32242e-05 3.40101e-05 0.10368)
(-0.000104411 0.000104359 0.103527)
(2.46711e-05 -2.46679e-05 0.103569)
(6.19207e-05 3.64837e-05 0.103617)
(6.19437e-05 -3.65337e-05 0.103617)
(3.4017e-05 2.31698e-05 0.10368)
(3.40225e-05 -2.32186e-05 0.10368)
(-6.19368e-05 -3.65246e-05 0.103617)
(-3.40008e-05 2.31694e-05 0.10368)
(-3.40076e-05 -2.32144e-05 0.10368)
(0.000104394 -0.000104442 0.103527)
(-2.46361e-05 2.46862e-05 0.103569)
(-3.64787e-05 -6.18991e-05 0.103617)
(2.31803e-05 -3.39983e-05 0.10368)
(-2.31801e-05 -3.40071e-05 0.10368)
(2.4663e-05 2.46621e-05 0.103569)
(6.90518e-05 6.89938e-05 0.103561)
(-4.49417e-05 -4.49324e-05 0.103562)
(1.81656e-05 2.56263e-05 0.10369)
(-1.81611e-05 2.56496e-05 0.10369)
(6.33372e-06 8.11748e-06 0.103699)
(-6.3296e-06 8.13669e-06 0.103699)
(-6.90337e-05 6.89817e-05 0.103561)
(4.49561e-05 -4.49254e-05 0.103562)
(2.56488e-05 1.81148e-05 0.10369)
(2.56575e-05 -1.81583e-05 0.10369)
(8.11049e-06 6.29795e-06 0.103699)
(8.12609e-06 -6.32693e-06 0.103699)
(-2.56409e-05 -1.81568e-05 0.10369)
(-8.09808e-06 6.29054e-06 0.103699)
(-8.13064e-06 -6.32715e-06 0.103699)
(6.9016e-05 -6.90509e-05 0.103561)
(-4.49282e-05 4.49536e-05 0.103562)
(-1.81227e-05 -2.56358e-05 0.10369)
(6.29228e-06 -8.10262e-06 0.103699)
(-6.29627e-06 -8.10453e-06 0.103699)
(4.49242e-05 4.4939e-05 0.103562)
(5.07992e-05 5.07689e-05 0.103553)
(-4.9334e-05 -4.92966e-05 0.103557)
(4.17824e-06 5.10097e-06 0.103699)
(-4.17232e-06 5.11725e-06 0.103699)
(1.4396e-06 1.31264e-06 0.103699)
(-1.42709e-06 1.31095e-06 0.103699)
(-5.07875e-05 5.07653e-05 0.103553)
(4.93419e-05 -4.93082e-05 0.103557)
(5.09148e-06 4.14816e-06 0.103699)
(5.10428e-06 -4.17178e-06 0.103699)
(1.2799e-06 1.41303e-06 0.103699)
(1.30178e-06 -1.4256e-06 0.103699)
(-5.11029e-06 -4.17175e-06 0.103699)
(-1.27194e-06 1.40104e-06 0.103699)
(-1.30408e-06 -1.42444e-06 0.103699)
(5.07697e-05 -5.08145e-05 0.103553)
(-4.93087e-05 4.93445e-05 0.103557)
(-4.14228e-06 -5.08248e-06 0.103699)
(1.39674e-06 -1.27419e-06 0.103699)
(-1.39637e-06 -1.27199e-06 0.103699)
(4.93101e-05 4.93299e-05 0.103557)
(4.74557e-05 4.74522e-05 0.103549)
(-4.96266e-05 -4.96022e-05 0.103556)
(1.1805e-06 9.39613e-07 0.103699)
(-1.16575e-06 9.42994e-07 0.103699)
(9.45917e-07 6.26071e-07 0.103699)
(-9.45585e-07 6.33224e-07 0.103699)
(-4.74542e-05 4.7429e-05 0.103549)
(4.96335e-05 -4.96004e-05 0.103557)
(9.09276e-07 1.15497e-06 0.103699)
(9.29952e-07 -1.16715e-06 0.103699)
(6.01371e-07 9.20261e-07 0.103699)
(6.28598e-07 -9.41439e-07 0.103699)
(-9.30257e-07 -1.16487e-06 0.103699)
(-5.97152e-07 9.17089e-07 0.103699)
(-6.28581e-07 -9.3876e-07 0.103699)
(4.74388e-05 -4.74724e-05 0.103549)
(-4.95999e-05 4.96354e-05 0.103556)
(-1.1372e-06 -8.97953e-07 0.103699)
(9.12845e-07 -5.98818e-07 0.103699)
(-9.10457e-07 -5.95576e-07 0.103699)
(4.9603e-05 4.96218e-05 0.103556)
(4.72539e-05 4.72351e-05 0.103548)
(-4.96258e-05 -4.96021e-05 0.103556)
(9.32858e-07 6.14716e-07 0.103699)
(-9.31335e-07 6.25036e-07 0.103699)
(9.21053e-07 6.03086e-07 0.103699)
(-4.72518e-05 4.72258e-05 0.103549)
(5.91618e-07 9.08713e-07 0.103699)
(6.15498e-07 -9.29115e-07 0.103699)
(5.80774e-07 8.96495e-07 0.103699)
(6.08502e-07 -9.20262e-07 0.103699)
(-6.15007e-07 -9.2602e-07 0.103699)
(-6.1072e-07 -9.16797e-07 0.103699)
(4.72381e-05 -4.72728e-05 0.103548)
(-4.95982e-05 4.96331e-05 0.103556)
(-8.97658e-07 -5.82557e-07 0.103699)
(8.90146e-07 -5.78291e-07 0.103699)
(-8.88237e-07 -5.78592e-07 0.103699)
(4.96e-05 4.96195e-05 0.103556)
(-3.30764e-07 -3.33443e-07 0.0999987)
(1.68318e-05 1.68263e-05 0.100003)
(-4.48791e-07 1.39392e-05 0.1)
(1.39469e-05 -4.51334e-07 0.1)
(-4.66557e-05 5.72732e-06 0.100008)
(-1.52777e-05 1.55874e-05 0.0999999)
(-0.000127962 6.04332e-05 0.100058)
(-1.31152e-05 -8.63305e-07 0.0999958)
(5.72133e-06 -4.66402e-05 0.100008)
(1.55908e-05 -1.52779e-05 0.0999999)
(-8.61418e-07 -1.31138e-05 0.0999958)
(6.04449e-05 -0.000127892 0.100057)
(-1.87361e-05 -1.87394e-05 0.100003)
(-0.000135039 -8.10297e-05 0.100054)
(-8.10378e-05 -0.000135018 0.100054)
(-3.47954e-05 0.000136674 0.10072)
(0.000177081 0.00038781 0.0994229)
(2.38413e-06 0.000304996 0.10052)
(-8.39778e-05 0.000244614 0.0991365)
(-0.000303286 0.000837245 0.0977827)
(-0.000129736 0.000305282 0.0957085)
(0.000136405 -3.49437e-05 0.10072)
(0.000388426 0.00017604 0.0994237)
(0.000305746 2.24662e-06 0.10052)
(0.000244734 -8.38724e-05 0.0991368)
(-0.000107977 0.000107928 0.100299)
(0.000107964 -0.000107974 0.100299)
(-0.000107955 -0.000107982 0.100299)
(9.19361e-05 9.18664e-05 0.100739)
(-9.18915e-05 9.18838e-05 0.100739)
(9.19201e-05 -9.19347e-05 0.100739)
(-9.18995e-05 -9.19448e-05 0.100739)
(-0.000280986 6.40367e-06 0.100753)
(-0.000398311 0.000229186 0.10053)
(-0.000175293 3.74028e-05 0.100332)
(-0.000153217 9.45191e-05 0.100558)
(-0.00035882 1.5637e-05 0.10048)
(-0.000149799 0.000198974 0.100734)
(-0.000152662 3.32671e-05 0.100497)
(0.000836206 -0.000301413 0.097781)
(0.000305293 -0.000129341 0.0957095)
(6.35519e-06 -0.000280899 0.100752)
(3.74379e-05 -0.000175269 0.100332)
(0.000229283 -0.000398292 0.10053)
(9.44779e-05 -0.000153207 0.100558)
(1.56341e-05 -0.000358696 0.10048)
(3.33167e-05 -0.000152643 0.100497)
(0.000199011 -0.000149795 0.100734)
(-0.000372105 -0.000141431 0.100371)
(-0.000141632 -0.000372352 0.100371)
(-0.000112109 -0.000112185 0.100655)
(1.03329e-05 -7.94926e-05 0.10058)
(-7.97533e-05 1.03522e-05 0.10058)
(-1.6502e-05 0.000199366 0.100861)
(-5.51863e-05 0.000287452 0.0983284)
(-2.03218e-05 0.000208034 0.100783)
(-4.4848e-05 0.00027255 0.0979333)
(-0.000149915 0.000312607 0.0926341)
(-0.000138066 0.000274092 0.0909877)
(0.000199288 -1.66597e-05 0.10086)
(0.000287709 -5.50671e-05 0.0983288)
(0.000208078 -2.04576e-05 0.100783)
(0.000272689 -4.47672e-05 0.0979335)
(-9.4197e-05 9.4213e-05 0.10086)
(9.42532e-05 -9.42468e-05 0.10086)
(-9.42308e-05 -9.42451e-05 0.10086)
(9.64831e-05 9.64668e-05 0.101238)
(-9.64549e-05 9.64829e-05 0.101238)
(9.64959e-05 -9.64925e-05 0.101238)
(-9.64896e-05 -9.64866e-05 0.101238)
(-0.000264189 1.32793e-05 0.101151)
(-0.000217843 0.000213924 0.100825)
(-0.000164675 3.10351e-05 0.100897)
(-0.000160036 9.73466e-05 0.101064)
(-0.000297689 1.41358e-05 0.100978)
(-0.000184939 0.000198223 0.100938)
(-0.000168517 3.24537e-05 0.101019)
(0.00031257 -0.000149626 0.0926325)
(0.000274167 -0.000137888 0.0909891)
(1.33518e-05 -0.000264167 0.101151)
(3.11103e-05 -0.000164672 0.100897)
(0.000213997 -0.000217915 0.100825)
(9.73447e-05 -0.000160035 0.101064)
(1.42282e-05 -0.000297655 0.100979)
(3.25224e-05 -0.000168514 0.101019)
(0.000198189 -0.000184885 0.100937)
(-8.31798e-05 -9.62984e-05 0.100451)
(-9.6403e-05 -8.31977e-05 0.100451)
(-0.000112792 -0.00011279 0.101144)
(-8.77302e-05 -8.34419e-05 0.100417)
(-8.35789e-05 -8.77846e-05 0.100417)
(-9.36765e-06 0.000212808 0.100947)
(-2.20845e-05 0.0002805 0.0971468)
(-1.15223e-05 0.000228594 0.100911)
(-1.23706e-05 0.000258183 0.0966984)
(-0.000116934 0.000225026 0.0883993)
(-9.80056e-05 0.000188442 0.087051)
(0.000212744 -9.48445e-06 0.100947)
(0.000280639 -2.19936e-05 0.097147)
(0.000228652 -1.16416e-05 0.100911)
(0.000258283 -1.22709e-05 0.0966986)
(-9.5674e-05 9.57053e-05 0.10137)
(9.5714e-05 -9.57107e-05 0.10137)
(-9.57059e-05 -9.5706e-05 0.10137)
(9.4436e-05 9.44264e-05 0.101762)
(-9.44148e-05 9.44488e-05 0.101762)
(9.44611e-05 -9.44418e-05 0.101762)
(-9.44433e-05 -9.44438e-05 0.101762)
(-0.000252224 1.21706e-05 0.101577)
(-0.000220219 0.000189976 0.101037)
(-0.00016781 3.28399e-05 0.101406)
(-0.000155097 9.29339e-05 0.101577)
(-0.000289171 1.21355e-05 0.101416)
(-0.000184917 0.00016999 0.101113)
(-0.00016705 3.26363e-05 0.101537)
(0.000224852 -0.000116678 0.0883968)
(0.000188507 -9.79126e-05 0.087052)
(1.222e-05 -0.000252211 0.101577)
(3.28811e-05 -0.000167821 0.101406)
(0.000189997 -0.000220261 0.101037)
(9.29309e-05 -0.000155104 0.101577)
(1.21888e-05 -0.000289174 0.101416)
(3.26727e-05 -0.000167048 0.101537)
(0.000169959 -0.000184874 0.101112)
(-0.000114897 -9.04044e-05 0.100198)
(-9.0505e-05 -0.000114971 0.100198)
(-0.000102213 -0.000102218 0.101646)
(-0.000113112 -7.35529e-05 0.10007)
(-7.36367e-05 -0.000113187 0.10007)
(-7.03831e-06 0.00021283 0.100939)
(5.6934e-06 0.000256139 0.0958694)
(-7.85171e-06 0.000234146 0.100939)
(9.93371e-06 0.000231892 0.0954075)
(-7.80213e-05 0.000149357 0.0849946)
(-5.82363e-05 0.000119395 0.0839481)
(0.000212747 -7.14515e-06 0.100939)
(0.000256243 5.74606e-06 0.0958694)
(0.000234234 -7.92862e-06 0.10094)
(0.00023194 1.004e-05 0.0954077)
(-9.45222e-05 9.45573e-05 0.101892)
(9.45697e-05 -9.45461e-05 0.101892)
(-9.45496e-05 -9.45509e-05 0.101892)
(9.08608e-05 9.08585e-05 0.102273)
(-9.08473e-05 9.08843e-05 0.102273)
(9.08973e-05 -9.08629e-05 0.102273)
(-9.08729e-05 -9.08716e-05 0.102273)
(-0.000241602 1.11179e-05 0.101974)
(-0.000216497 0.000162157 0.101155)
(-0.000165893 3.2219e-05 0.101923)
(-0.000151967 8.9937e-05 0.102081)
(-0.000280406 1.10433e-05 0.101826)
(-0.000178856 0.000141906 0.101199)
(-0.000165084 3.18908e-05 0.10205)
(0.000149172 -7.78217e-05 0.0849918)
(0.000119497 -5.82214e-05 0.0839493)
(1.11622e-05 -0.000241588 0.101974)
(3.22396e-05 -0.000165891 0.101923)
(0.000162218 -0.000216563 0.101155)
(8.99498e-05 -0.00015197 0.102081)
(1.10787e-05 -0.000280423 0.101826)
(3.19073e-05 -0.000165071 0.10205)
(0.000141845 -0.0001788 0.101198)
(-0.000131603 -7.85451e-05 0.0997367)
(-7.86014e-05 -0.000131667 0.0997364)
(-9.31594e-05 -9.31619e-05 0.102132)
(-0.000125246 -6.11446e-05 0.0995527)
(-6.12039e-05 -0.000125317 0.099552)
(-6.56404e-06 0.000205621 0.100839)
(1.82145e-05 0.000225925 0.0945749)
(-6.63389e-06 0.000228205 0.100865)
(1.96323e-05 0.000198712 0.0941273)
(-4.3173e-05 9.42165e-05 0.0823589)
(-3.42157e-05 7.32437e-05 0.081577)
(0.000205555 -6.61447e-06 0.100838)
(0.000225922 1.82822e-05 0.0945743)
(0.000228287 -6.70996e-06 0.100866)
(0.000198795 1.97166e-05 0.0941278)
(-9.05338e-05 9.05728e-05 0.102396)
(9.05809e-05 -9.05465e-05 0.102396)
(-9.05577e-05 -9.05556e-05 0.102396)
(8.91729e-05 8.91784e-05 0.102767)
(-8.91663e-05 8.92093e-05 0.102767)
(8.92189e-05 -8.91722e-05 0.102767)
(-8.91913e-05 -8.91843e-05 0.102767)
(-0.000226691 1.03055e-05 0.102331)
(-0.000206217 0.000136348 0.101177)
(-0.000157897 3.04085e-05 0.102424)
(-0.000146225 8.54345e-05 0.102565)
(-0.000267955 9.95561e-06 0.102194)
(-0.000169038 0.000118265 0.101196)
(-0.000158346 3.03783e-05 0.102546)
(9.40517e-05 -4.2995e-05 0.0823561)
(7.32584e-05 -3.41416e-05 0.0815782)
(1.03383e-05 -0.000226678 0.102331)
(3.04143e-05 -0.000157887 0.102424)
(0.000136388 -0.000206285 0.101178)
(8.54445e-05 -0.00014623 0.102565)
(9.98675e-06 -0.000267967 0.102194)
(3.03803e-05 -0.000158328 0.102546)
(0.000118228 -0.000168984 0.101195)
(-0.00013635 -6.66821e-05 0.0991333)
(-6.67243e-05 -0.000136405 0.0991327)
(-8.35998e-05 -8.36028e-05 0.102593)
(-0.000127418 -5.27494e-05 0.0989146)
(-5.27893e-05 -0.000127472 0.0989136)
(-5.90338e-06 0.00019262 0.10065)
(1.77742e-05 0.000193666 0.0933286)
(-7.12884e-06 0.000218392 0.100703)
(1.98903e-05 0.000164141 0.0929135)
(-1.79197e-05 5.73495e-05 0.0803639)
(-2.19684e-05 4.42139e-05 0.0797805)
(0.000192578 -5.95722e-06 0.100649)
(0.000193656 1.7777e-05 0.0933276)
(0.000218438 -7.16729e-06 0.100704)
(0.000164196 1.9982e-05 0.0929141)
(-8.7085e-05 8.71251e-05 0.102885)
(8.71351e-05 -8.70898e-05 0.102885)
(-8.71079e-05 -8.71011e-05 0.102885)
(7.89454e-05 7.89603e-05 0.103227)
(-7.89384e-05 7.89867e-05 0.103227)
(7.90025e-05 -7.89353e-05 0.103227)
(-7.8968e-05 -7.89533e-05 0.103227)
(-0.0002073 9.48728e-06 0.102644)
(-0.00019357 0.000113924 0.101116)
(-0.000148793 2.89508e-05 0.102904)
(-0.000134524 7.77514e-05 0.103024)
(-0.000253867 9.23009e-06 0.102519)
(-0.000155144 9.92294e-05 0.101113)
(-0.000143674 2.80395e-05 0.10302)
(5.71715e-05 -1.7756e-05 0.0803612)
(4.41784e-05 -2.18624e-05 0.0797819)
(9.5092e-06 -0.000207302 0.102644)
(2.8949e-05 -0.000148781 0.102904)
(0.000113969 -0.000193633 0.101116)
(7.77629e-05 -0.000134531 0.103024)
(9.2696e-06 -0.000253863 0.102519)
(2.80373e-05 -0.000143656 0.10302)
(9.91881e-05 -0.0001551 0.101112)
(-0.000132628 -5.85372e-05 0.0984385)
(-5.85708e-05 -0.00013267 0.0984377)
(-7.27288e-05 -7.27309e-05 0.103026)
(-0.000122384 -4.68404e-05 0.0981981)
(-4.6877e-05 -0.000122434 0.0981968)
(-1.48069e-05 0.000160935 0.10038)
(1.10274e-05 0.00016219 0.0921836)
(-9.98356e-06 0.000193682 0.100475)
(5.3121e-07 0.000111066 0.0918157)
(1.24997e-05 3.33667e-05 0.0788296)
(3.52117e-05 8.14161e-06 0.0785406)
(0.000160837 -1.48803e-05 0.100379)
(0.000162147 1.10514e-05 0.0921825)
(0.000193779 -1.00572e-05 0.100476)
(0.000111061 5.42704e-07 0.0918164)
(-7.4106e-05 7.41169e-05 0.103337)
(7.41302e-05 -7.41174e-05 0.103337)
(-7.41308e-05 -7.41269e-05 0.103337)
(5.02513e-05 5.02509e-05 0.103589)
(-5.02526e-05 5.0242e-05 0.103589)
(5.02561e-05 -5.02572e-05 0.103589)
(-5.02604e-05 -5.0269e-05 0.103589)
(-0.00016623 4.19353e-06 0.102896)
(-0.00017077 8.69959e-05 0.10099)
(-0.00013368 2.47123e-05 0.103349)
(-0.000106412 5.89443e-05 0.10344)
(-0.000227261 6.20578e-06 0.102801)
(-0.000114525 6.32863e-05 0.10096)
(-0.000119429 2.18503e-05 0.103447)
(3.32258e-05 1.26062e-05 0.078827)
(8.24237e-06 3.5158e-05 0.0785423)
(4.22285e-06 -0.00016621 0.102896)
(2.47168e-05 -0.000133666 0.103349)
(8.70521e-05 -0.00017084 0.100991)
(5.8949e-05 -0.000106412 0.10344)
(6.23723e-06 -0.000227287 0.102801)
(2.18607e-05 -0.000119409 0.103447)
(6.32264e-05 -0.000114469 0.100959)
(-0.000122029 -3.74441e-05 0.0977035)
(-3.74675e-05 -0.000122058 0.0977026)
(-4.58522e-05 -4.58461e-05 0.103405)
(-9.15078e-05 -1.88959e-05 0.0974629)
(-1.89314e-05 -9.1539e-05 0.0974614)
(2.05431e-06 1.42435e-05 0.100152)
(-1.98482e-05 5.54499e-05 0.0913123)
(-3.26876e-06 8.35222e-05 0.100189)
(-2.40054e-05 2.05729e-05 0.0912158)
(7.44196e-06 -2.21574e-06 0.078368)
(-1.10844e-06 -8.65917e-06 0.0784207)
(1.41628e-05 1.98972e-06 0.100151)
(5.54221e-05 -1.98416e-05 0.0913114)
(8.36353e-05 -3.31162e-06 0.10019)
(2.05846e-05 -2.39832e-05 0.0912166)
(-4.31383e-05 4.31275e-05 0.103643)
(4.31444e-05 -4.31468e-05 0.103643)
(-4.31456e-05 -4.31562e-05 0.103643)
(2.44168e-05 2.43931e-05 0.10375)
(-2.44068e-05 2.43949e-05 0.10375)
(2.44117e-05 -2.44175e-05 0.10375)
(-2.44156e-05 -2.44243e-05 0.10375)
(-2.82179e-05 3.65364e-06 0.102952)
(-7.95048e-05 3.19857e-05 0.100794)
(-6.77708e-05 1.39606e-05 0.103644)
(-5.1952e-05 3.22648e-05 0.103646)
(-0.000103093 3.16968e-06 0.102948)
(-1.98611e-05 5.1678e-06 0.100756)
(-5.54049e-05 1.23725e-05 0.103681)
(-2.34639e-06 7.52364e-06 0.0783651)
(-8.49844e-06 -1.18606e-06 0.0784222)
(3.69847e-06 -2.82015e-05 0.102951)
(1.39715e-05 -6.77647e-05 0.103644)
(3.20477e-05 -7.95284e-05 0.100794)
(3.22722e-05 -5.19493e-05 0.103646)
(3.18851e-06 -0.000103088 0.102948)
(1.23936e-05 -5.53985e-05 0.103681)
(5.13827e-06 -1.97599e-05 0.100755)
(-3.85986e-05 -6.01711e-06 0.097108)
(-5.97331e-06 -3.86036e-05 0.097107)
(9.48457e-06 9.51657e-06 0.103559)
(-1.02611e-05 1.19427e-05 0.0970264)
(1.19477e-05 -1.02714e-05 0.097025)
(-2.80552e-07 -1.09508e-05 0.100088)
(-9.34901e-06 1.38828e-05 0.0911391)
(3.22021e-07 9.87175e-06 0.100079)
(-5.38649e-06 -4.97064e-06 0.0911676)
(-5.96331e-06 9.03755e-07 0.0784348)
(4.95683e-07 -4.0175e-06 0.0784726)
(-1.10397e-05 -2.91991e-07 0.100086)
(1.3852e-05 -9.43449e-06 0.0911382)
(9.94514e-06 3.36238e-07 0.10008)
(-4.90932e-06 -5.38738e-06 0.0911685)
(-1.84098e-05 1.83984e-05 0.103771)
(1.84134e-05 -1.84181e-05 0.103771)
(-1.84179e-05 -1.84256e-05 0.103771)
(5.28274e-06 5.27697e-06 0.103801)
(-5.28152e-06 5.27651e-06 0.103801)
(5.28203e-06 -5.28369e-06 0.103801)
(-5.28866e-06 -5.29206e-06 0.103801)
(9.6065e-06 1.22331e-06 0.102912)
(-2.79545e-05 6.19239e-06 0.100627)
(-2.63642e-05 6.84167e-06 0.103748)
(-1.83321e-05 1.33499e-05 0.103695)
(-3.16557e-05 2.15143e-06 0.102913)
(1.00679e-05 -4.46418e-06 0.100633)
(-1.89081e-05 4.86041e-06 0.103758)
(8.1337e-07 -5.87878e-06 0.0784316)
(-3.89684e-06 4.41401e-07 0.0784737)
(1.24555e-06 9.62543e-06 0.102912)
(6.85847e-06 -2.63668e-05 0.103748)
(6.26769e-06 -2.79912e-05 0.100628)
(1.33597e-05 -1.83272e-05 0.103695)
(2.16766e-06 -3.1676e-05 0.102913)
(4.87256e-06 -1.89055e-05 0.103758)
(-4.49364e-06 1.01447e-05 0.100632)
(-8.69585e-06 -1.50188e-06 0.0968839)
(-1.45981e-06 -8.70305e-06 0.0968829)
(3.72105e-05 3.7219e-05 0.103567)
(2.62709e-06 7.54802e-06 0.0968848)
(7.54753e-06 2.61216e-06 0.0968833)
(-5.43364e-08 -1.02139e-05 0.100074)
(-1.45003e-07 7.40097e-06 0.0911402)
(-4.24268e-07 9.71998e-06 0.100054)
(-1.39282e-06 -6.88898e-06 0.0911692)
(-2.33021e-06 3.11272e-06 0.0784481)
(2.08974e-06 -3.09974e-06 0.0784767)
(-1.02944e-05 -6.43675e-08 0.100073)
(7.37229e-06 -1.91623e-07 0.0911393)
(9.80256e-06 -3.92697e-07 0.100054)
(-6.83828e-06 -1.37092e-06 0.0911702)
(-2.91699e-06 2.91411e-06 0.103805)
(2.91889e-06 -2.91836e-06 0.103805)
(-2.9251e-06 -2.92671e-06 0.103805)
(-1.90513e-07 -1.8009e-07 0.103808)
(1.92453e-07 -1.87645e-07 0.103808)
(-1.85484e-07 1.92934e-07 0.103808)
(1.83989e-07 1.86386e-07 0.103808)
(1.61839e-05 1.46621e-07 0.102899)
(-1.7645e-05 4.56417e-06 0.100579)
(-5.40659e-06 1.07456e-06 0.103771)
(-3.12932e-06 2.73523e-06 0.103699)
(-1.89466e-05 -7.24434e-09 0.10289)
(1.50042e-05 -5.17522e-06 0.100612)
(-3.40255e-06 5.10221e-07 0.103772)
(3.00536e-06 -2.25533e-06 0.0784448)
(-2.98053e-06 2.02993e-06 0.0784777)
(1.58765e-07 1.61983e-05 0.102898)
(1.07697e-06 -5.40764e-06 0.103771)
(4.62236e-06 -1.77199e-05 0.100579)
(2.73252e-06 -3.13305e-06 0.103699)
(-6.45609e-09 -1.89596e-05 0.10289)
(5.1026e-07 -3.39873e-06 0.103772)
(-5.22376e-06 1.50591e-05 0.10061)
(-5.30619e-06 -5.67578e-06 0.0968339)
(-5.65695e-06 -5.30158e-06 0.0968329)
(4.82614e-05 4.82795e-05 0.103558)
(4.22892e-06 5.72435e-06 0.0968633)
(5.72234e-06 4.22179e-06 0.0968619)
(8.19915e-08 -1.02229e-05 0.100073)
(6.79378e-07 7.26196e-06 0.0911403)
(-1.32593e-07 9.81697e-06 0.10005)
(-1.2177e-06 -6.97263e-06 0.0911692)
(-2.13072e-06 3.1957e-06 0.078448)
(2.14526e-06 -3.12023e-06 0.0784766)
(-1.0302e-05 7.05233e-08 0.100072)
(7.18492e-06 5.64065e-07 0.0911391)
(9.89574e-06 -1.26895e-07 0.100051)
(-6.91247e-06 -1.16253e-06 0.0911702)
(5.17379e-07 -5.14e-07 0.103809)
(-5.09571e-07 5.1761e-07 0.103809)
(5.08959e-07 5.11826e-07 0.103809)
(-8.30412e-07 -8.22147e-07 0.103809)
(8.28447e-07 -8.23156e-07 0.103809)
(-8.22162e-07 8.29764e-07 0.103809)
(8.22214e-07 8.24761e-07 0.103809)
(1.68921e-05 1.3498e-07 0.102897)
(-1.64112e-05 4.51789e-06 0.100575)
(-1.1089e-06 -1.24195e-07 0.103773)
(-7.07025e-07 1.0114e-06 0.103699)
(-1.71805e-05 -1.69622e-07 0.102886)
(1.55264e-05 -5.14864e-06 0.10061)
(-9.0954e-07 -1.77579e-07 0.103773)
(3.07398e-06 -2.05685e-06 0.0784447)
(-2.99977e-06 2.08278e-06 0.0784777)
(1.44593e-07 1.6904e-05 0.102897)
(-1.26887e-07 -1.10659e-06 0.103773)
(4.56279e-06 -1.64732e-05 0.100575)
(1.00721e-06 -7.09086e-07 0.103699)
(-1.72317e-07 -1.71979e-05 0.102886)
(-1.80467e-07 -9.03647e-07 0.103773)
(-5.19749e-06 1.55857e-05 0.100609)
(-4.84686e-06 -5.85726e-06 0.0968303)
(-5.84478e-06 -4.84171e-06 0.0968294)
(4.95516e-05 4.95715e-05 0.103557)
(4.37947e-06 5.71375e-06 0.0968624)
(5.70888e-06 4.37221e-06 0.0968609)
(8.83735e-08 -1.02107e-05 0.100073)
(6.32611e-07 7.25399e-06 0.0911404)
(-1.1736e-07 9.82445e-06 0.10005)
(-1.19203e-06 -6.96001e-06 0.0911693)
(-2.12624e-06 3.18951e-06 0.0784481)
(2.14183e-06 -3.12097e-06 0.0784767)
(-1.02882e-05 7.89205e-08 0.100072)
(7.198e-06 5.92105e-07 0.0911393)
(9.90777e-06 -9.82386e-08 0.100051)
(-6.89987e-06 -1.15149e-06 0.0911703)
(8.51163e-07 -8.44951e-07 0.103809)
(-8.43777e-07 8.50785e-07 0.103809)
(8.43788e-07 8.45465e-07 0.103809)
(-8.67012e-07 -8.61267e-07 0.103809)
(8.7112e-07 -8.50995e-07 0.103809)
(-8.58665e-07 8.66755e-07 0.103809)
(8.60156e-07 8.58432e-07 0.103809)
(1.69102e-05 1.40457e-07 0.102897)
(-1.63266e-05 4.55224e-06 0.100575)
(-7.53722e-07 -2.15546e-07 0.103773)
(-5.80516e-07 8.97511e-07 0.103699)
(-1.70827e-05 -1.57634e-07 0.102885)
(1.55452e-05 -5.12572e-06 0.10061)
(-7.45179e-07 -2.17035e-07 0.103773)
(3.07259e-06 -2.05694e-06 0.0784448)
(-2.99866e-06 2.07975e-06 0.0784778)
(1.50415e-07 1.69221e-05 0.102897)
(-2.18286e-07 -7.50141e-07 0.103773)
(4.59787e-06 -1.63882e-05 0.100575)
(8.93372e-07 -5.80016e-07 0.103699)
(-1.6024e-07 -1.71001e-05 0.102885)
(-2.20325e-07 -7.37069e-07 0.103773)
(-5.17298e-06 1.56035e-05 0.100609)
(-4.83159e-06 -5.86325e-06 0.0968303)
(-5.85033e-06 -4.82644e-06 0.0968294)
(4.96072e-05 4.9626e-05 0.103556)
(4.38097e-06 5.70666e-06 0.0968624)
(5.70246e-06 4.37358e-06 0.096861)
(1.8741e-05 1.87303e-05 0.100003)
(8.1016e-05 0.000135016 0.100054)
(0.000135076 8.1027e-05 0.100054)
(0.000413752 0.00104215 0.0978745)
(0.000115157 0.000204341 0.100125)
(0.00104124 0.000411128 0.0978743)
(0.000204489 0.000115185 0.100125)
(0.000102403 0.000102366 0.100042)
(0.000117342 0.000513763 0.100271)
(0.000512629 0.000116964 0.100271)
(0.00011733 0.000180285 0.100097)
(0.000180424 0.000117351 0.100097)
(5.72531e-06 4.66251e-05 0.100008)
(1.55946e-05 1.52757e-05 0.0999999)
(6.04333e-05 0.0001279 0.100057)
(-8.60223e-07 1.31077e-05 0.0999958)
(-5.7359e-06 4.66336e-05 0.100008)
(-1.55924e-05 1.52705e-05 0.0999999)
(-6.04063e-05 0.000127887 0.100057)
(8.60719e-07 1.31084e-05 0.0999958)
(4.58583e-06 0.000154584 0.100054)
(0.000326676 0.00031533 0.0993496)
(9.8376e-05 0.000167694 0.100056)
(7.35656e-06 0.0003278 0.100416)
(-4.62572e-06 0.0001546 0.100054)
(-0.000326143 0.000316037 0.0993493)
(-9.83118e-05 0.000167655 0.100056)
(-7.34592e-06 0.000327907 0.100416)