/*--------------------------------*- C++ -*----------------------------------*\
| =========                 |                                                 |
| \\      /  F ield         | OpenFOAM: The Open Source CFD Toolbox           |
|  \\    /   O peration     | Version:  2206                                  |
|   \\  /    A nd           | Website:  www.openfoam.com                      |
|    \\/     M anipulation  |                                                 |
\*---------------------------------------------------------------------------*/
FoamFile
{
    version     2.0;
    format      ascii;
    arch        "LSB;label=32;scalar=64";
    class       volScalarField;
    location    "29.5";
    object      k;
}
// * * * * * * * * * * * * * * * * * * * * * * * * * * * * * * * * * * * * * //

dimensions      [0 2 -2 0 0 0 0];

internalField   nonuniform List<scalar> 
28335
(
2.59704e-05
2.53898e-05
2.53896e-05
2.4777e-05
2.59704e-05
2.53898e-05
2.53897e-05
2.47772e-05
2.59705e-05
2.53898e-05
2.53897e-05
2.47775e-05
2.59705e-05
2.53899e-05
2.53898e-05
2.47777e-05
2.59703e-05
2.539e-05
2.53898e-05
2.47779e-05
2.59699e-05
2.53895e-05
2.53893e-05
2.47772e-05
2.59653e-05
2.53841e-05
2.53839e-05
2.47715e-05
2.5963e-05
2.53817e-05
2.53815e-05
2.47686e-05
2.5963e-05
2.53817e-05
2.53815e-05
2.47686e-05
2.5963e-05
2.53817e-05
2.53816e-05
2.47686e-05
2.5963e-05
2.53817e-05
2.53816e-05
2.47686e-05
2.5963e-05
2.53817e-05
2.53816e-05
2.47686e-05
2.5963e-05
2.53817e-05
2.53816e-05
2.47686e-05
2.5963e-05
2.53817e-05
2.53816e-05
2.47686e-05
2.5963e-05
2.53817e-05
2.53816e-05
2.47686e-05
2.5963e-05
2.53817e-05
2.53816e-05
2.47686e-05
2.5963e-05
2.53817e-05
2.53816e-05
2.47686e-05
2.47813e-05
2.53894e-05
2.53893e-05
2.47813e-05
2.53898e-05
2.5389e-05
2.53898e-05
2.53894e-05
2.4781e-05
2.53896e-05
2.53898e-05
2.47811e-05
2.47775e-05
2.47815e-05
2.53895e-05
2.53894e-05
2.53895e-05
2.53894e-05
2.47775e-05
2.47814e-05
2.53899e-05
2.53892e-05
2.53898e-05
2.53891e-05
2.53895e-05
2.53898e-05
2.53895e-05
2.47772e-05
2.47811e-05
2.53899e-05
2.53897e-05
2.53898e-05
2.47813e-05
2.47777e-05
2.47817e-05
2.53897e-05
2.53895e-05
2.53897e-05
2.53895e-05
2.47776e-05
2.47816e-05
2.539e-05
2.53893e-05
2.539e-05
2.53893e-05
2.53896e-05
2.53899e-05
2.53896e-05
2.47773e-05
2.47813e-05
2.53899e-05
2.53897e-05
2.53899e-05
2.47815e-05
2.47779e-05
2.47819e-05
2.53898e-05
2.53897e-05
2.53898e-05
2.53897e-05
2.47778e-05
2.47818e-05
2.53901e-05
2.53894e-05
2.53901e-05
2.53894e-05
2.53898e-05
2.53899e-05
2.53898e-05
2.47775e-05
2.47815e-05
2.53901e-05
2.53898e-05
2.53901e-05
2.47818e-05
2.47781e-05
2.47821e-05
2.539e-05
2.53899e-05
2.53899e-05
2.53899e-05
2.4778e-05
2.47821e-05
2.53903e-05
2.53896e-05
2.53903e-05
2.53895e-05
2.539e-05
2.53901e-05
2.53899e-05
2.47777e-05
2.47817e-05
2.53902e-05
2.53899e-05
2.53902e-05
2.4782e-05
2.47783e-05
2.47818e-05
2.53899e-05
2.53898e-05
2.53894e-05
2.53894e-05
2.47782e-05
2.47818e-05
2.53903e-05
2.53895e-05
2.53899e-05
2.5389e-05
2.53899e-05
2.53897e-05
2.53894e-05
2.47779e-05
2.47814e-05
2.53902e-05
2.53895e-05
2.53898e-05
2.47817e-05
2.47777e-05
2.4777e-05
2.53892e-05
2.53892e-05
2.53854e-05
2.53853e-05
2.47776e-05
2.4777e-05
2.53896e-05
2.53888e-05
2.53858e-05
2.53851e-05
2.53892e-05
2.53859e-05
2.53854e-05
2.47773e-05
2.47767e-05
2.53895e-05
2.53858e-05
2.53857e-05
2.4777e-05
2.47719e-05
2.47727e-05
2.53837e-05
2.53836e-05
2.53813e-05
2.53812e-05
2.47719e-05
2.47727e-05
2.5384e-05
2.53833e-05
2.53817e-05
2.5381e-05
2.53837e-05
2.53817e-05
2.53813e-05
2.47716e-05
2.47724e-05
2.5384e-05
2.53816e-05
2.53817e-05
2.47728e-05
2.47688e-05
2.47728e-05
2.53814e-05
2.53813e-05
2.53813e-05
2.53812e-05
2.47688e-05
2.47728e-05
2.53817e-05
2.5381e-05
2.53817e-05
2.53809e-05
2.53814e-05
2.53817e-05
2.53813e-05
2.47685e-05
2.47724e-05
2.53817e-05
2.53816e-05
2.53816e-05
2.47727e-05
2.47689e-05
2.47727e-05
2.53814e-05
2.53813e-05
2.53813e-05
2.53812e-05
2.47689e-05
2.47727e-05
2.53818e-05
2.5381e-05
2.53817e-05
2.5381e-05
2.53814e-05
2.53817e-05
2.53813e-05
2.47686e-05
2.47724e-05
2.53817e-05
2.53816e-05
2.53817e-05
2.47727e-05
2.47689e-05
2.47727e-05
2.53814e-05
2.53813e-05
2.53813e-05
2.53812e-05
2.47689e-05
2.47727e-05
2.53818e-05
2.53811e-05
2.53817e-05
2.5381e-05
2.53814e-05
2.53817e-05
2.53813e-05
2.47685e-05
2.47724e-05
2.53818e-05
2.53816e-05
2.53817e-05
2.47727e-05
2.47689e-05
2.47728e-05
2.53814e-05
2.53813e-05
2.53813e-05
2.53812e-05
2.47688e-05
2.47728e-05
2.53818e-05
2.5381e-05
2.53817e-05
2.5381e-05
2.53814e-05
2.53817e-05
2.53814e-05
2.47685e-05
2.47724e-05
2.53818e-05
2.53816e-05
2.53817e-05
2.47727e-05
2.47689e-05
2.47727e-05
2.53814e-05
2.53813e-05
2.53813e-05
2.53812e-05
2.47689e-05
2.47727e-05
2.53818e-05
2.53811e-05
2.53817e-05
2.5381e-05
2.53814e-05
2.53817e-05
2.53813e-05
2.47686e-05
2.47724e-05
2.53818e-05
2.53816e-05
2.53817e-05
2.47727e-05
2.47689e-05
2.47727e-05
2.53814e-05
2.53813e-05
2.53813e-05
2.53812e-05
2.47689e-05
2.47727e-05
2.53818e-05
2.53811e-05
2.53817e-05
2.5381e-05
2.53814e-05
2.53817e-05
2.53813e-05
2.47686e-05
2.47724e-05
2.53818e-05
2.53816e-05
2.53817e-05
2.47727e-05
2.47689e-05
2.47727e-05
2.53814e-05
2.53813e-05
2.53813e-05
2.53812e-05
2.47689e-05
2.47727e-05
2.53818e-05
2.53811e-05
2.53817e-05
2.5381e-05
2.53814e-05
2.53818e-05
2.53813e-05
2.47686e-05
2.47724e-05
2.53818e-05
2.53816e-05
2.53817e-05
2.47727e-05
2.47689e-05
2.47727e-05
2.53814e-05
2.53813e-05
2.53813e-05
2.53812e-05
2.47689e-05
2.47727e-05
2.53818e-05
2.53811e-05
2.53817e-05
2.5381e-05
2.53814e-05
2.53818e-05
2.53814e-05
2.47686e-05
2.47724e-05
2.53818e-05
2.53816e-05
2.53817e-05
2.47727e-05
2.47689e-05
2.47727e-05
2.53814e-05
2.53813e-05
2.53813e-05
2.53812e-05
2.47689e-05
2.47727e-05
2.53818e-05
2.53811e-05
2.53817e-05
2.5381e-05
2.53814e-05
2.53818e-05
2.53813e-05
2.47686e-05
2.47724e-05
2.53818e-05
2.53816e-05
2.53817e-05
2.47727e-05
2.47689e-05
2.53814e-05
2.53813e-05
2.47689e-05
2.53818e-05
2.5381e-05
2.53814e-05
2.47686e-05
2.53817e-05
2.83209e-05
6.99536e-05
7.8747e-05
2.83222e-05
6.99566e-05
2.59704e-05
2.59706e-05
2.59704e-05
2.59705e-05
2.38638e-05
2.53898e-05
2.78838e-05
2.57201e-05
7.87424e-05
2.38641e-05
2.53897e-05
2.57201e-05
2.78844e-05
2.4781e-05
3.47645e-05
3.47667e-05
2.8324e-05
6.9955e-05
2.83255e-05
6.99528e-05
7.87423e-05
7.87398e-05
2.83254e-05
6.99579e-05
2.83266e-05
6.99556e-05
2.59706e-05
2.59704e-05
2.59705e-05
2.59704e-05
2.59705e-05
2.59703e-05
2.59704e-05
2.38645e-05
2.78901e-05
2.57201e-05
2.53899e-05
2.38645e-05
2.78864e-05
2.57201e-05
7.87389e-05
7.87361e-05
2.38647e-05
2.572e-05
2.78905e-05
2.53897e-05
2.38648e-05
2.572e-05
2.78871e-05
3.477e-05
3.47721e-05
2.47812e-05
3.47685e-05
3.47707e-05
2.8326e-05
6.99537e-05
2.83279e-05
6.99513e-05
7.87383e-05
7.87377e-05
2.83272e-05
6.99566e-05
2.83289e-05
6.9954e-05
2.59704e-05
2.59703e-05
2.59704e-05
2.59705e-05
2.59703e-05
2.59702e-05
2.59703e-05
2.38651e-05
2.78919e-05
2.572e-05
2.53899e-05
2.38651e-05
2.78879e-05
2.57201e-05
7.87348e-05
7.87334e-05
2.38653e-05
2.572e-05
2.78923e-05
2.53898e-05
2.38653e-05
2.572e-05
2.78884e-05
3.4771e-05
3.47732e-05
2.47814e-05
3.47692e-05
3.47714e-05
2.83268e-05
6.99528e-05
2.83291e-05
6.99507e-05
7.87375e-05
7.87375e-05
2.83277e-05
6.99557e-05
2.83298e-05
6.99535e-05
2.59705e-05
2.59703e-05
2.59705e-05
2.59706e-05
2.59704e-05
2.59703e-05
2.59705e-05
2.38656e-05
2.7893e-05
2.572e-05
2.539e-05
2.38657e-05
2.78888e-05
2.57201e-05
7.87336e-05
7.87331e-05
2.38657e-05
2.57199e-05
2.78932e-05
2.53898e-05
2.38658e-05
2.572e-05
2.78893e-05
3.47728e-05
3.4775e-05
2.47817e-05
3.47716e-05
3.47739e-05
2.83274e-05
6.99526e-05
2.83296e-05
6.99508e-05
7.87382e-05
7.87386e-05
2.83284e-05
6.99556e-05
2.83303e-05
6.99537e-05
2.59706e-05
2.59705e-05
2.59706e-05
2.59703e-05
2.59705e-05
2.59703e-05
2.59704e-05
2.38659e-05
2.78938e-05
2.57201e-05
2.53901e-05
2.3866e-05
2.78895e-05
2.57201e-05
7.87344e-05
7.87345e-05
2.38662e-05
2.572e-05
2.78939e-05
2.53899e-05
2.38662e-05
2.57201e-05
2.78898e-05
3.47755e-05
3.47778e-05
2.47819e-05
3.4774e-05
3.47763e-05
2.83275e-05
6.99531e-05
2.83302e-05
6.99517e-05
7.87399e-05
7.87407e-05
2.83287e-05
6.99561e-05
2.83311e-05
6.99547e-05
2.59704e-05
2.59702e-05
2.59704e-05
2.59701e-05
2.59701e-05
2.59699e-05
2.59701e-05
2.38663e-05
2.78941e-05
2.572e-05
2.539e-05
2.38665e-05
2.78896e-05
2.572e-05
7.87361e-05
7.87366e-05
2.38665e-05
2.572e-05
2.78942e-05
2.53898e-05
2.38668e-05
2.57199e-05
2.789e-05
3.47767e-05
3.4779e-05
2.47821e-05
3.47742e-05
3.47765e-05
2.83255e-05
6.99559e-05
2.8329e-05
6.99551e-05
7.87413e-05
7.87397e-05
2.83267e-05
6.99585e-05
2.83299e-05
6.99574e-05
2.597e-05
2.59698e-05
2.59699e-05
2.59669e-05
2.59669e-05
2.59668e-05
2.59668e-05
2.38638e-05
2.78937e-05
2.57196e-05
2.53891e-05
2.38653e-05
2.78882e-05
2.57193e-05
7.87378e-05
7.87358e-05
2.3864e-05
2.57196e-05
2.78939e-05
2.53889e-05
2.38653e-05
2.57192e-05
2.78887e-05
3.47762e-05
3.47784e-05
2.47802e-05
3.47735e-05
3.47757e-05
2.832e-05
6.99576e-05
2.83247e-05
6.99554e-05
7.87384e-05
7.87378e-05
2.83212e-05
6.99596e-05
2.83256e-05
6.99572e-05
2.59654e-05
2.59652e-05
2.59653e-05
2.59631e-05
2.59632e-05
2.59631e-05
2.59631e-05
2.38556e-05
2.78893e-05
2.57147e-05
2.53829e-05
2.38583e-05
2.78827e-05
2.57136e-05
7.87347e-05
7.87336e-05
2.38557e-05
2.57146e-05
2.78896e-05
2.53828e-05
2.38584e-05
2.57135e-05
2.78832e-05
3.47732e-05
3.47754e-05
2.47739e-05
3.47691e-05
3.47713e-05
2.83176e-05
6.99568e-05
2.83206e-05
6.99547e-05
7.87377e-05
7.87375e-05
2.83189e-05
6.99587e-05
2.83216e-05
6.99564e-05
2.59632e-05
2.59631e-05
2.59632e-05
2.5963e-05
2.59631e-05
2.5963e-05
2.59631e-05
2.38554e-05
2.78854e-05
2.57123e-05
2.53818e-05
2.38556e-05
2.78805e-05
2.57124e-05
7.8734e-05
7.87333e-05
2.38555e-05
2.57122e-05
2.78858e-05
2.53816e-05
2.38557e-05
2.57123e-05
2.78811e-05
3.47694e-05
3.47716e-05
2.47727e-05
3.47667e-05
3.47689e-05
2.83173e-05
6.99566e-05
2.83198e-05
6.99546e-05
7.87376e-05
7.87375e-05
2.83186e-05
6.99583e-05
2.83209e-05
6.99561e-05
2.59632e-05
2.59631e-05
2.59632e-05
2.5963e-05
2.59631e-05
2.5963e-05
2.59631e-05
2.38553e-05
2.78848e-05
2.57123e-05
2.53818e-05
2.38555e-05
2.78802e-05
2.57124e-05
7.87339e-05
7.87333e-05
2.38554e-05
2.57122e-05
2.78851e-05
2.53816e-05
2.38555e-05
2.57123e-05
2.78808e-05
3.47687e-05
3.47709e-05
2.47727e-05
3.47665e-05
3.47687e-05
2.83173e-05
6.99565e-05
2.83198e-05
6.99546e-05
7.87376e-05
7.87375e-05
2.83186e-05
6.99582e-05
2.83209e-05
6.99561e-05
2.59632e-05
2.59631e-05
2.59632e-05
2.5963e-05
2.59631e-05
2.5963e-05
2.59631e-05
2.38553e-05
2.78847e-05
2.57123e-05
2.53818e-05
2.38554e-05
2.78802e-05
2.57124e-05
7.87339e-05
7.87333e-05
2.38554e-05
2.57122e-05
2.78851e-05
2.53817e-05
2.38556e-05
2.57123e-05
2.78808e-05
3.47687e-05
3.47709e-05
2.47728e-05
3.47664e-05
3.47687e-05
2.83173e-05
6.99565e-05
2.83198e-05
6.99546e-05
7.87377e-05
7.87376e-05
2.83186e-05
6.99581e-05
2.83209e-05
6.9956e-05
2.59632e-05
2.59631e-05
2.59632e-05
2.5963e-05
2.59631e-05
2.5963e-05
2.59631e-05
2.38552e-05
2.78847e-05
2.57123e-05
2.53818e-05
2.38554e-05
2.78802e-05
2.57124e-05
7.87339e-05
7.87333e-05
2.38554e-05
2.57122e-05
2.78851e-05
2.53817e-05
2.38556e-05
2.57123e-05
2.78808e-05
3.47687e-05
3.47709e-05
2.47727e-05
3.47664e-05
3.47687e-05
2.83173e-05
6.99565e-05
2.83198e-05
6.99546e-05
7.87377e-05
7.87376e-05
2.83186e-05
6.99581e-05
2.83209e-05
6.9956e-05
2.59632e-05
2.59631e-05
2.59632e-05
2.5963e-05
2.59631e-05
2.5963e-05
2.59631e-05
2.38553e-05
2.78847e-05
2.57123e-05
2.53818e-05
2.38555e-05
2.78802e-05
2.57124e-05
7.87339e-05
7.87333e-05
2.38555e-05
2.57122e-05
2.78851e-05
2.53817e-05
2.38557e-05
2.57123e-05
2.78808e-05
3.47687e-05
3.47709e-05
2.47728e-05
3.47664e-05
3.47687e-05
2.83173e-05
6.99565e-05
2.83198e-05
6.99546e-05
7.87377e-05
7.87376e-05
2.83186e-05
6.99581e-05
2.83209e-05
6.9956e-05
2.59632e-05
2.59631e-05
2.59632e-05
2.5963e-05
2.59631e-05
2.5963e-05
2.59631e-05
2.38551e-05
2.78847e-05
2.57123e-05
2.53818e-05
2.38554e-05
2.78802e-05
2.57124e-05
7.87339e-05
7.87333e-05
2.38555e-05
2.57122e-05
2.78851e-05
2.53817e-05
2.38557e-05
2.57123e-05
2.78808e-05
3.47687e-05
3.47709e-05
2.47728e-05
3.47664e-05
3.47687e-05
2.83173e-05
6.99565e-05
2.83198e-05
6.99546e-05
7.87378e-05
7.87376e-05
2.83186e-05
6.99581e-05
2.83209e-05
6.9956e-05
2.59632e-05
2.59631e-05
2.59632e-05
2.5963e-05
2.59631e-05
2.5963e-05
2.59631e-05
2.38552e-05
2.78847e-05
2.57123e-05
2.53818e-05
2.38553e-05
2.78802e-05
2.57124e-05
7.87339e-05
7.87333e-05
2.38554e-05
2.57122e-05
2.78851e-05
2.53817e-05
2.38556e-05
2.57123e-05
2.78808e-05
3.47687e-05
3.47709e-05
2.47728e-05
3.47664e-05
3.47687e-05
2.83173e-05
6.99565e-05
2.83198e-05
6.99546e-05
7.87378e-05
7.87376e-05
2.83186e-05
6.99581e-05
2.83209e-05
6.9956e-05
2.59632e-05
2.59631e-05
2.59632e-05
2.5963e-05
2.59631e-05
2.5963e-05
2.59631e-05
2.38553e-05
2.78847e-05
2.57123e-05
2.53818e-05
2.38555e-05
2.78802e-05
2.57124e-05
7.87339e-05
7.87333e-05
2.38554e-05
2.57122e-05
2.78851e-05
2.53817e-05
2.38555e-05
2.57123e-05
2.78808e-05
3.47687e-05
3.47709e-05
2.47728e-05
3.47664e-05
3.47687e-05
2.83173e-05
6.99565e-05
2.83198e-05
6.99546e-05
7.87378e-05
7.87376e-05
2.83186e-05
6.99581e-05
2.83209e-05
6.9956e-05
2.59632e-05
2.59631e-05
2.59632e-05
2.5963e-05
2.59631e-05
2.5963e-05
2.59631e-05
2.38553e-05
2.78847e-05
2.57123e-05
2.53818e-05
2.38555e-05
2.78802e-05
2.57124e-05
7.8734e-05
7.87333e-05
2.38552e-05
2.57122e-05
2.78851e-05
2.53817e-05
2.38554e-05
2.57123e-05
2.78808e-05
3.47687e-05
3.47709e-05
2.47728e-05
3.47664e-05
3.47687e-05
2.83173e-05
6.99565e-05
2.83198e-05
6.99546e-05
7.87378e-05
7.87376e-05
2.83186e-05
6.99581e-05
2.83209e-05
6.9956e-05
2.59632e-05
2.5963e-05
2.59631e-05
2.38555e-05
2.78847e-05
2.57123e-05
2.53818e-05
2.38555e-05
2.78802e-05
2.57124e-05
7.87339e-05
7.87333e-05
2.38554e-05
2.57122e-05
2.78851e-05
2.53817e-05
2.38553e-05
2.57124e-05
2.78809e-05
3.47687e-05
3.47709e-05
2.47728e-05
3.4768e-05
3.47702e-05
7.87474e-05
7.87464e-05
2.47814e-05
3.47637e-05
3.47654e-05
7.87431e-05
7.87468e-05
7.87421e-05
7.87458e-05
2.47775e-05
3.47671e-05
3.47682e-05
3.47665e-05
3.47682e-05
2.83213e-05
6.99569e-05
2.38641e-05
2.53895e-05
2.78846e-05
2.57202e-05
2.38642e-05
2.53894e-05
2.78859e-05
2.57202e-05
2.8324e-05
6.9953e-05
6.99552e-05
2.83227e-05
2.83244e-05
6.99564e-05
6.99586e-05
2.83231e-05
2.38647e-05
2.53894e-05
2.78862e-05
2.57201e-05
2.78895e-05
2.57201e-05
2.38645e-05
2.38648e-05
2.53893e-05
2.78874e-05
2.57201e-05
2.78908e-05
2.57201e-05
2.38647e-05
2.47814e-05
3.47705e-05
3.47586e-05
7.87429e-05
7.87427e-05
7.87464e-05
2.47775e-05
3.47718e-05
3.47612e-05
3.47731e-05
3.47618e-05
7.87391e-05
7.87431e-05
2.38645e-05
2.53898e-05
2.78857e-05
2.57202e-05
2.83218e-05
6.99524e-05
2.38643e-05
2.53891e-05
2.572e-05
2.78844e-05
2.83251e-05
6.99559e-05
6.99584e-05
2.8324e-05
2.38651e-05
2.53898e-05
2.78872e-05
2.57201e-05
2.78904e-05
2.57201e-05
2.3865e-05
2.83246e-05
6.99519e-05
6.99543e-05
2.83235e-05
2.38648e-05
2.53891e-05
2.572e-05
2.7886e-05
2.572e-05
2.78896e-05
2.38647e-05
2.83212e-05
6.99539e-05
2.38641e-05
2.53895e-05
2.57201e-05
2.78845e-05
2.8321e-05
6.99551e-05
2.38644e-05
2.53898e-05
2.78853e-05
2.57201e-05
2.78889e-05
2.57201e-05
2.38643e-05
2.83242e-05
6.99532e-05
6.99557e-05
2.83229e-05
2.38646e-05
2.53894e-05
2.57201e-05
2.7886e-05
2.57201e-05
2.78893e-05
2.38645e-05
2.83241e-05
6.99545e-05
6.99568e-05
2.83228e-05
2.4781e-05
3.47647e-05
3.47639e-05
7.87471e-05
7.87387e-05
7.87426e-05
2.47772e-05
3.47656e-05
3.47666e-05
3.47674e-05
3.47666e-05
7.87428e-05
7.87465e-05
2.38645e-05
2.53899e-05
2.57202e-05
2.78855e-05
2.83219e-05
6.99555e-05
2.83221e-05
6.99579e-05
2.38647e-05
2.53897e-05
2.572e-05
2.78859e-05
2.57201e-05
2.78892e-05
2.38646e-05
2.3865e-05
2.53898e-05
2.57201e-05
2.78871e-05
2.57201e-05
2.78904e-05
2.38649e-05
2.83248e-05
6.99549e-05
6.99572e-05
2.83237e-05
2.8325e-05
6.99574e-05
6.99596e-05
2.83239e-05
7.87471e-05
7.87465e-05
2.47771e-05
3.47673e-05
3.47694e-05
3.47674e-05
3.47695e-05
7.87428e-05
7.87465e-05
7.87422e-05
7.87459e-05
7.87428e-05
7.87403e-05
7.87417e-05
7.87392e-05
3.47696e-05
3.47706e-05
2.47814e-05
3.47687e-05
3.47697e-05
7.87389e-05
7.87404e-05
7.87378e-05
7.87393e-05
2.47776e-05
3.47688e-05
3.47702e-05
3.47707e-05
3.47718e-05
2.83245e-05
6.99582e-05
2.83261e-05
6.99559e-05
2.38648e-05
2.7891e-05
2.57202e-05
2.53895e-05
2.38651e-05
2.78874e-05
2.57202e-05
2.38649e-05
2.78922e-05
2.57202e-05
2.53894e-05
2.38652e-05
2.78886e-05
2.57202e-05
2.8327e-05
6.9952e-05
6.99545e-05
2.83251e-05
2.83274e-05
6.9955e-05
6.99576e-05
2.83255e-05
2.38653e-05
2.53895e-05
2.78882e-05
2.57201e-05
2.78921e-05
2.57201e-05
2.38652e-05
2.38654e-05
2.53894e-05
2.78893e-05
2.57201e-05
2.78932e-05
2.57202e-05
2.38653e-05
3.47738e-05
3.47639e-05
2.47814e-05
3.47716e-05
3.47625e-05
7.87394e-05
7.87365e-05
7.87383e-05
7.87398e-05
2.47776e-05
3.47715e-05
3.47637e-05
3.47735e-05
3.4765e-05
7.87348e-05
7.87369e-05
2.38653e-05
2.78919e-05
2.57202e-05
2.53899e-05
2.38655e-05
2.78884e-05
2.57202e-05
2.83249e-05
6.99539e-05
2.83263e-05
6.99515e-05
2.38649e-05
2.572e-05
2.7891e-05
2.53892e-05
2.38652e-05
2.572e-05
2.78871e-05
2.8328e-05
6.99547e-05
6.99574e-05
2.83265e-05
2.38658e-05
2.53898e-05
2.78892e-05
2.57201e-05
2.7893e-05
2.57202e-05
2.38657e-05
2.83276e-05
6.99506e-05
6.99533e-05
2.8326e-05
2.38655e-05
2.53892e-05
2.572e-05
2.78879e-05
2.572e-05
2.7892e-05
2.38654e-05
2.83243e-05
6.99551e-05
2.83259e-05
6.99527e-05
2.38647e-05
2.57202e-05
2.78908e-05
2.53895e-05
2.3865e-05
2.57202e-05
2.78872e-05
2.83242e-05
6.99564e-05
2.83258e-05
6.99541e-05
2.3865e-05
2.53899e-05
2.78873e-05
2.572e-05
2.78913e-05
2.57201e-05
2.38649e-05
2.83272e-05
6.99519e-05
6.99546e-05
2.83253e-05
2.38652e-05
2.53895e-05
2.57201e-05
2.78879e-05
2.57201e-05
2.78918e-05
2.38651e-05
2.83271e-05
6.99532e-05
6.99558e-05
2.83252e-05
3.47677e-05
3.4769e-05
2.47811e-05
3.47652e-05
3.47681e-05
7.87425e-05
7.87399e-05
7.87344e-05
7.87365e-05
2.47772e-05
3.47657e-05
3.47686e-05
3.47674e-05
3.47702e-05
7.87385e-05
7.874e-05
2.38652e-05
2.57202e-05
2.78919e-05
2.53899e-05
2.38655e-05
2.57202e-05
2.78883e-05
2.83251e-05
6.99568e-05
2.83265e-05
6.99545e-05
2.83252e-05
6.99593e-05
2.83266e-05
6.9957e-05
2.38653e-05
2.53897e-05
2.572e-05
2.78879e-05
2.572e-05
2.78917e-05
2.38651e-05
2.38657e-05
2.53899e-05
2.57201e-05
2.7889e-05
2.57201e-05
2.78929e-05
2.38656e-05
2.83277e-05
6.99535e-05
6.99562e-05
2.83261e-05
2.83279e-05
6.99561e-05
6.99587e-05
2.83263e-05
7.87425e-05
7.87399e-05
7.87419e-05
7.87393e-05
2.47774e-05
3.47687e-05
3.4771e-05
3.47705e-05
3.47727e-05
7.87385e-05
7.874e-05
7.87379e-05
7.87394e-05
7.87392e-05
7.87381e-05
7.87381e-05
7.87371e-05
3.47707e-05
3.47722e-05
2.47816e-05
3.47692e-05
3.47708e-05
7.87378e-05
7.87386e-05
7.87368e-05
7.87375e-05
2.47778e-05
3.47704e-05
3.47719e-05
3.47713e-05
3.47729e-05
2.83263e-05
6.99567e-05
2.83284e-05
6.99543e-05
2.38656e-05
2.78928e-05
2.57202e-05
2.53897e-05
2.38657e-05
2.78888e-05
2.57202e-05
2.38656e-05
2.78939e-05
2.57201e-05
2.53895e-05
2.38658e-05
2.78899e-05
2.57201e-05
2.83288e-05
6.99509e-05
6.99531e-05
2.83265e-05
2.83291e-05
6.99539e-05
6.99561e-05
2.83269e-05
2.38662e-05
2.53897e-05
2.78893e-05
2.57202e-05
2.78933e-05
2.57202e-05
2.3866e-05
2.38661e-05
2.53895e-05
2.78904e-05
2.57201e-05
2.78945e-05
2.57201e-05
2.3866e-05
3.47737e-05
3.47663e-05
2.47815e-05
3.47723e-05
3.4765e-05
7.87353e-05
7.87338e-05
7.87374e-05
7.87381e-05
2.47777e-05
3.47735e-05
3.47661e-05
3.47746e-05
3.47675e-05
7.87335e-05
7.87344e-05
2.38661e-05
2.78937e-05
2.57202e-05
2.539e-05
2.38662e-05
2.78898e-05
2.57202e-05
2.83267e-05
6.99524e-05
2.83286e-05
6.99499e-05
2.38657e-05
2.572e-05
2.78928e-05
2.53893e-05
2.38659e-05
2.572e-05
2.78885e-05
2.83297e-05
6.99537e-05
6.99559e-05
2.83276e-05
2.38667e-05
2.539e-05
2.78903e-05
2.57202e-05
2.78942e-05
2.57202e-05
2.38664e-05
2.83292e-05
6.99495e-05
6.99518e-05
2.83271e-05
2.38662e-05
2.53893e-05
2.57199e-05
2.78891e-05
2.57199e-05
2.78934e-05
2.38661e-05
2.83261e-05
6.99537e-05
2.83282e-05
6.99512e-05
2.38656e-05
2.57202e-05
2.78925e-05
2.53896e-05
2.38657e-05
2.57202e-05
2.78885e-05
2.83261e-05
6.99549e-05
2.83281e-05
6.99524e-05
2.38657e-05
2.53899e-05
2.78884e-05
2.572e-05
2.78927e-05
2.57201e-05
2.38656e-05
2.83289e-05
6.99508e-05
6.99531e-05
2.83267e-05
2.38661e-05
2.53896e-05
2.57201e-05
2.7889e-05
2.57201e-05
2.7893e-05
2.38659e-05
2.83289e-05
6.99521e-05
6.99542e-05
2.83266e-05
3.47682e-05
3.47706e-05
2.47812e-05
3.47668e-05
3.47691e-05
7.87388e-05
7.87378e-05
7.87331e-05
7.8734e-05
2.47774e-05
3.47679e-05
3.47702e-05
3.47693e-05
3.47712e-05
7.87374e-05
7.87382e-05
2.38659e-05
2.57202e-05
2.78936e-05
2.53899e-05
2.38662e-05
2.57202e-05
2.78896e-05
2.83268e-05
6.99552e-05
2.83287e-05
6.99528e-05
2.8327e-05
6.99579e-05
2.83289e-05
6.99555e-05
2.38659e-05
2.53898e-05
2.57199e-05
2.78889e-05
2.572e-05
2.78929e-05
2.38657e-05
2.38664e-05
2.53899e-05
2.57201e-05
2.78901e-05
2.57201e-05
2.78942e-05
2.3866e-05
2.83293e-05
6.99524e-05
6.99546e-05
2.83272e-05
2.83295e-05
6.99551e-05
6.99573e-05
2.83274e-05
7.87388e-05
7.87378e-05
7.87382e-05
7.87372e-05
2.47776e-05
3.47703e-05
3.47725e-05
3.47714e-05
3.47736e-05
7.87374e-05
7.87382e-05
7.87369e-05
7.87376e-05
7.87383e-05
7.87379e-05
7.87373e-05
7.87368e-05
3.47726e-05
3.47742e-05
2.47818e-05
3.47719e-05
3.47734e-05
7.87383e-05
7.87385e-05
7.87372e-05
7.87375e-05
2.4778e-05
3.47734e-05
3.47749e-05
3.47742e-05
3.47757e-05
2.83271e-05
6.99558e-05
2.83295e-05
6.99537e-05
2.38663e-05
2.78938e-05
2.57203e-05
2.53898e-05
2.38666e-05
2.78897e-05
2.57203e-05
2.38663e-05
2.7895e-05
2.57202e-05
2.53897e-05
2.38666e-05
2.78909e-05
2.57202e-05
2.83295e-05
6.99507e-05
6.99526e-05
2.8327e-05
2.83298e-05
6.99538e-05
6.99557e-05
2.83273e-05
2.38667e-05
2.53898e-05
2.78901e-05
2.57202e-05
2.78942e-05
2.57202e-05
2.38664e-05
2.38668e-05
2.53897e-05
2.78912e-05
2.57202e-05
2.78954e-05
2.57202e-05
2.38665e-05
3.47758e-05
3.47687e-05
2.47817e-05
3.47748e-05
3.47677e-05
7.87342e-05
7.87336e-05
7.87379e-05
7.87381e-05
2.47779e-05
3.47762e-05
3.47692e-05
3.47772e-05
3.47703e-05
7.87341e-05
7.87345e-05
2.38665e-05
2.78947e-05
2.57203e-05
2.53901e-05
2.38669e-05
2.78907e-05
2.57203e-05
2.83273e-05
6.99515e-05
2.83295e-05
6.99493e-05
2.38663e-05
2.57201e-05
2.78939e-05
2.53894e-05
2.38666e-05
2.57201e-05
2.78895e-05
2.83301e-05
6.99535e-05
6.99555e-05
2.83279e-05
2.3867e-05
2.53901e-05
2.78911e-05
2.57202e-05
2.78951e-05
2.57202e-05
2.38668e-05
2.83297e-05
6.99493e-05
6.99513e-05
2.83276e-05
2.38668e-05
2.53894e-05
2.57201e-05
2.78899e-05
2.57201e-05
2.78943e-05
2.38665e-05
2.83269e-05
6.99528e-05
2.83293e-05
6.99506e-05
2.3866e-05
2.57202e-05
2.78935e-05
2.53898e-05
2.38664e-05
2.57202e-05
2.78894e-05
2.83269e-05
6.99539e-05
2.83293e-05
6.99519e-05
2.38661e-05
2.53899e-05
2.78892e-05
2.57201e-05
2.78936e-05
2.57201e-05
2.38659e-05
2.83296e-05
6.99507e-05
6.99527e-05
2.83271e-05
2.38665e-05
2.53898e-05
2.57201e-05
2.78897e-05
2.57201e-05
2.78939e-05
2.38662e-05
2.83296e-05
6.99519e-05
6.99538e-05
2.83271e-05
3.47705e-05
3.47725e-05
2.47814e-05
3.47693e-05
3.47717e-05
7.8738e-05
7.87375e-05
7.87337e-05
7.87341e-05
2.47776e-05
3.47707e-05
3.47731e-05
3.47719e-05
3.4774e-05
7.87379e-05
7.87382e-05
2.38661e-05
2.57202e-05
2.78946e-05
2.53901e-05
2.38664e-05
2.57201e-05
2.78904e-05
2.83273e-05
6.99543e-05
2.83296e-05
6.99523e-05
2.83275e-05
6.9957e-05
2.83298e-05
6.99548e-05
2.38662e-05
2.53898e-05
2.572e-05
2.78896e-05
2.572e-05
2.78938e-05
2.3866e-05
2.38666e-05
2.53901e-05
2.57201e-05
2.78907e-05
2.57201e-05
2.7895e-05
2.38665e-05
2.83297e-05
6.99523e-05
6.99542e-05
2.83276e-05
2.833e-05
6.99547e-05
6.99567e-05
2.83278e-05
7.87379e-05
7.87375e-05
7.87374e-05
7.87369e-05
2.47779e-05
3.4773e-05
3.47754e-05
3.47739e-05
3.47762e-05
7.87379e-05
7.87381e-05
7.87373e-05
7.87375e-05
7.8739e-05
7.8739e-05
7.8738e-05
7.8738e-05
3.47756e-05
3.47771e-05
2.4782e-05
3.47744e-05
3.47759e-05
7.87399e-05
7.87398e-05
7.87389e-05
7.87387e-05
2.47782e-05
3.47749e-05
3.47764e-05
3.47764e-05
3.4778e-05
2.83278e-05
6.99557e-05
2.833e-05
6.9954e-05
2.38667e-05
2.78945e-05
2.57203e-05
2.539e-05
2.38669e-05
2.78903e-05
2.57203e-05
2.38669e-05
2.78957e-05
2.57203e-05
2.53899e-05
2.38671e-05
2.78915e-05
2.57203e-05
2.833e-05
6.9951e-05
6.99528e-05
2.83276e-05
2.83304e-05
6.99542e-05
6.9956e-05
2.83281e-05
2.38673e-05
2.539e-05
2.78904e-05
2.57202e-05
2.78947e-05
2.57203e-05
2.3867e-05
2.38675e-05
2.53899e-05
2.78916e-05
2.572e-05
2.78959e-05
2.57201e-05
2.38672e-05
3.47784e-05
3.47717e-05
2.47819e-05
3.47771e-05
3.47701e-05
7.87351e-05
7.87349e-05
7.87395e-05
7.87393e-05
2.47781e-05
3.47776e-05
3.47705e-05
3.47793e-05
3.47725e-05
7.87357e-05
7.87359e-05
2.38672e-05
2.78955e-05
2.57203e-05
2.53903e-05
2.38673e-05
2.78913e-05
2.57203e-05
2.83281e-05
6.99514e-05
2.833e-05
6.99495e-05
2.3867e-05
2.57202e-05
2.78947e-05
2.53896e-05
2.38671e-05
2.57202e-05
2.78902e-05
2.83309e-05
6.9954e-05
6.99558e-05
2.83288e-05
2.38677e-05
2.53903e-05
2.78915e-05
2.57203e-05
2.78957e-05
2.57203e-05
2.38675e-05
2.83305e-05
6.99498e-05
6.99517e-05
2.83285e-05
2.38675e-05
2.53896e-05
2.572e-05
2.78903e-05
2.57201e-05
2.7895e-05
2.38672e-05
2.83275e-05
6.99528e-05
2.83298e-05
6.99509e-05
2.38666e-05
2.57202e-05
2.78942e-05
2.539e-05
2.38668e-05
2.57202e-05
2.789e-05
2.83275e-05
6.99539e-05
2.83298e-05
6.99521e-05
2.38665e-05
2.53901e-05
2.78896e-05
2.572e-05
2.78942e-05
2.57201e-05
2.38664e-05
2.83301e-05
6.99511e-05
6.99531e-05
2.83278e-05
2.38671e-05
2.53899e-05
2.572e-05
2.78901e-05
2.57201e-05
2.78944e-05
2.38669e-05
2.83302e-05
6.99523e-05
6.99541e-05
2.83278e-05
3.47732e-05
3.47753e-05
2.47816e-05
3.47717e-05
3.47741e-05
7.87386e-05
7.87387e-05
7.87352e-05
7.87355e-05
2.47778e-05
3.47721e-05
3.47746e-05
3.47741e-05
3.47762e-05
7.87395e-05
7.87394e-05
2.38668e-05
2.57202e-05
2.78952e-05
2.53902e-05
2.3867e-05
2.57202e-05
2.78909e-05
2.8328e-05
6.99542e-05
2.833e-05
6.99525e-05
2.83282e-05
6.99566e-05
2.83303e-05
6.99548e-05
2.38668e-05
2.53899e-05
2.572e-05
2.789e-05
2.57201e-05
2.78943e-05
2.38667e-05
2.38674e-05
2.53902e-05
2.57202e-05
2.7891e-05
2.57202e-05
2.78954e-05
2.3867e-05
2.83305e-05
6.99527e-05
6.99545e-05
2.83284e-05
2.83307e-05
6.99549e-05
6.99568e-05
2.83285e-05
7.87386e-05
7.87386e-05
7.8738e-05
7.8738e-05
2.47781e-05
3.47745e-05
3.47768e-05
3.47762e-05
3.47784e-05
7.87395e-05
7.87394e-05
7.87389e-05
7.87388e-05
7.87408e-05
7.87414e-05
7.87398e-05
7.87403e-05
3.47767e-05
3.47783e-05
2.47822e-05
3.47745e-05
3.4776e-05
7.87418e-05
7.87422e-05
7.87408e-05
7.87411e-05
2.47783e-05
3.47743e-05
3.47758e-05
3.47763e-05
3.47779e-05
2.8328e-05
6.99562e-05
2.83307e-05
6.99549e-05
2.38663e-05
2.78948e-05
2.57202e-05
2.53897e-05
2.38674e-05
2.78904e-05
2.572e-05
2.38665e-05
2.78961e-05
2.572e-05
2.53898e-05
2.38676e-05
2.78916e-05
2.572e-05
2.83299e-05
6.99535e-05
6.9954e-05
2.83266e-05
2.83303e-05
6.99566e-05
6.99572e-05
2.83271e-05
2.38662e-05
2.53895e-05
2.789e-05
2.57198e-05
2.78948e-05
2.57199e-05
2.38651e-05
2.38664e-05
2.53896e-05
2.78912e-05
2.57198e-05
2.7896e-05
2.57199e-05
2.38653e-05
3.47795e-05
3.47727e-05
2.47821e-05
3.47772e-05
3.47701e-05
7.87369e-05
7.87371e-05
7.87413e-05
7.87414e-05
2.47783e-05
3.47769e-05
3.47698e-05
3.47791e-05
3.47722e-05
7.87378e-05
7.87382e-05
2.38666e-05
2.78958e-05
2.57203e-05
2.53902e-05
2.38678e-05
2.78915e-05
2.57202e-05
2.83283e-05
6.99519e-05
2.83309e-05
6.99505e-05
2.38665e-05
2.57199e-05
2.7895e-05
2.53894e-05
2.38676e-05
2.57198e-05
2.78903e-05
2.83308e-05
6.99561e-05
6.99571e-05
2.83278e-05
2.38665e-05
2.539e-05
2.7891e-05
2.57199e-05
2.78958e-05
2.572e-05
2.38655e-05
2.83305e-05
6.99522e-05
6.99529e-05
2.83275e-05
2.38664e-05
2.53892e-05
2.57196e-05
2.78899e-05
2.57197e-05
2.78949e-05
2.38653e-05
2.83277e-05
6.99533e-05
2.83304e-05
6.99518e-05
2.38664e-05
2.572e-05
2.78945e-05
2.53898e-05
2.38673e-05
2.572e-05
2.78901e-05
2.83277e-05
6.99543e-05
2.83305e-05
6.99531e-05
2.38667e-05
2.53898e-05
2.78893e-05
2.57198e-05
2.78942e-05
2.57199e-05
2.38655e-05
2.83302e-05
6.99536e-05
6.99543e-05
2.8327e-05
2.38664e-05
2.53896e-05
2.57198e-05
2.78897e-05
2.57198e-05
2.78945e-05
2.38653e-05
2.83301e-05
6.99548e-05
6.99553e-05
2.83268e-05
3.47743e-05
3.47765e-05
2.47818e-05
3.47717e-05
3.47743e-05
7.87404e-05
7.8741e-05
7.87374e-05
7.87378e-05
2.47779e-05
3.47713e-05
3.4774e-05
3.47738e-05
3.47761e-05
7.87415e-05
7.87418e-05
2.38664e-05
2.57202e-05
2.78954e-05
2.53901e-05
2.38674e-05
2.57201e-05
2.78909e-05
2.83284e-05
6.99547e-05
2.83308e-05
6.99534e-05
2.83283e-05
6.99569e-05
2.83309e-05
6.99556e-05
2.38668e-05
2.53896e-05
2.57197e-05
2.78897e-05
2.57198e-05
2.78944e-05
2.38654e-05
2.38664e-05
2.539e-05
2.57199e-05
2.78905e-05
2.572e-05
2.78953e-05
2.38653e-05
2.83305e-05
6.99551e-05
6.99557e-05
2.83276e-05
2.83305e-05
6.99573e-05
6.99579e-05
2.83274e-05
7.87404e-05
7.8741e-05
7.87398e-05
7.87403e-05
2.47782e-05
3.4774e-05
3.47762e-05
3.47761e-05
3.47783e-05
7.87414e-05
7.87418e-05
7.87408e-05
7.87411e-05
7.87421e-05
7.87403e-05
7.8741e-05
7.87392e-05
3.47761e-05
3.47776e-05
2.47803e-05
3.47737e-05
3.47752e-05
7.87391e-05
7.87404e-05
7.8738e-05
7.87392e-05
2.47755e-05
3.47718e-05
3.47733e-05
3.47753e-05
3.47768e-05
2.83259e-05
6.9959e-05
2.83295e-05
6.99583e-05
2.38636e-05
2.78943e-05
2.57196e-05
2.53887e-05
2.3865e-05
2.78889e-05
2.57192e-05
2.38638e-05
2.78955e-05
2.57197e-05
2.53886e-05
2.38652e-05
2.789e-05
2.57192e-05
2.83277e-05
6.99557e-05
6.99572e-05
2.83229e-05
2.83281e-05
6.99588e-05
6.99604e-05
2.83233e-05
2.38633e-05
2.53874e-05
2.78863e-05
2.57163e-05
2.78928e-05
2.57181e-05
2.38592e-05
2.38635e-05
2.53872e-05
2.78874e-05
2.57163e-05
2.7894e-05
2.57181e-05
2.38593e-05
3.47788e-05
3.4772e-05
2.47803e-05
3.47763e-05
3.47693e-05
7.87384e-05
7.87363e-05
7.87385e-05
7.87398e-05
2.47755e-05
3.47744e-05
3.47674e-05
3.4778e-05
3.47713e-05
7.87348e-05
7.87367e-05
2.38641e-05
2.78956e-05
2.57197e-05
2.53891e-05
2.38654e-05
2.78901e-05
2.57192e-05
2.83263e-05
6.99547e-05
2.83297e-05
6.99539e-05
2.38639e-05
2.57195e-05
2.78944e-05
2.53883e-05
2.38652e-05
2.57191e-05
2.78887e-05
2.83286e-05
6.99576e-05
6.99595e-05
2.83241e-05
2.38638e-05
2.53877e-05
2.78875e-05
2.57163e-05
2.78943e-05