/*--------------------------------*- C++ -*----------------------------------*\
| =========                 |                                                 |
| \\      /  F ield         | OpenFOAM: The Open Source CFD Toolbox           |
|  \\    /   O peration     | Version:  2206                                  |
|   \\  /    A nd           | Website:  www.openfoam.com                      |
|    \\/     M anipulation  |                                                 |
\*---------------------------------------------------------------------------*/
FoamFile
{
    version     2.0;
    format      ascii;
    arch        "LSB;label=32;scalar=64";
    class       volScalarField;
    location    "27.5";
    object      epsilon;
}
// * * * * * * * * * * * * * * * * * * * * * * * * * * * * * * * * * * * * * //

dimensions      [0 2 -3 0 0 0 0];

internalField   nonuniform List<scalar> 
28687
(
2.88797e-07
3.14929e-07
3.14939e-07
3.47948e-07
2.88796e-07
3.14932e-07
3.14938e-07
3.47964e-07
2.88798e-07
3.14936e-07
3.14942e-07
3.47971e-07
2.88799e-07
3.14939e-07
3.14946e-07
3.47979e-07
2.88796e-07
3.14941e-07
3.14947e-07
3.47988e-07
2.88793e-07
3.14942e-07
3.14948e-07
3.47991e-07
2.88757e-07
3.14885e-07
3.14909e-07
3.47971e-07
2.88668e-07
3.14809e-07
3.14821e-07
3.47853e-07
2.88661e-07
3.14807e-07
3.14816e-07
3.47854e-07
2.8866e-07
3.14806e-07
3.14816e-07
3.47855e-07
2.8866e-07
3.14807e-07
3.14816e-07
3.47852e-07
2.8866e-07
3.14807e-07
3.14816e-07
3.47853e-07
2.8866e-07
3.14807e-07
3.14816e-07
3.47856e-07
2.8866e-07
3.14807e-07
3.14816e-07
3.47856e-07
2.8866e-07
3.14807e-07
3.14816e-07
3.47855e-07
2.8866e-07
3.14807e-07
3.14816e-07
3.47855e-07
2.8866e-07
3.14807e-07
3.14816e-07
3.47855e-07
2.8866e-07
3.14806e-07
3.14816e-07
3.47855e-07
3.14956e-07
3.47683e-07
3.14929e-07
3.47939e-07
3.47699e-07
3.1495e-07
3.14956e-07
3.14949e-07
3.14955e-07
3.47949e-07
3.47696e-07
3.14935e-07
3.14962e-07
3.14934e-07
3.14961e-07
3.14953e-07
3.14932e-07
3.14952e-07
3.47948e-07
3.47707e-07
3.14934e-07
3.14938e-07
3.14933e-07
3.47706e-07
3.47959e-07
3.47705e-07
3.14953e-07
3.14959e-07
3.14953e-07
3.14959e-07
3.47958e-07
3.47702e-07
3.14938e-07
3.14965e-07
3.14937e-07
3.14964e-07
3.14955e-07
3.14936e-07
3.14955e-07
3.47968e-07
3.47714e-07
3.14936e-07
3.14942e-07
3.14936e-07
3.47713e-07
3.47967e-07
3.47713e-07
3.14956e-07
3.14962e-07
3.14958e-07
3.14963e-07
3.47964e-07
3.47709e-07
3.14941e-07
3.14968e-07
3.14942e-07
3.14968e-07
3.14958e-07
3.14939e-07
3.14959e-07
3.47975e-07
3.47722e-07
3.1494e-07
3.14946e-07
3.1494e-07
3.4772e-07
3.47975e-07
3.47722e-07
3.14961e-07
3.14966e-07
3.14962e-07
3.14965e-07
3.47972e-07
3.47718e-07
3.14946e-07
3.14971e-07
3.14946e-07
3.14971e-07
3.14962e-07
3.14941e-07
3.14962e-07
3.47983e-07
3.4773e-07
3.14943e-07
3.14947e-07
3.14943e-07
3.47729e-07
3.47985e-07
3.47726e-07
3.14965e-07
3.14967e-07
3.14964e-07
3.14965e-07
3.47981e-07
3.47721e-07
3.14948e-07
3.14974e-07
3.14946e-07
3.14972e-07
3.14964e-07
3.14942e-07
3.14962e-07
3.47992e-07
3.47734e-07
3.14946e-07
3.14948e-07
3.14944e-07
3.47733e-07
3.47988e-07
3.47715e-07
3.14965e-07
3.14966e-07
3.1495e-07
3.14936e-07
3.47982e-07
3.47693e-07
3.14947e-07
3.14973e-07
3.14933e-07
3.14959e-07
3.14963e-07
3.14916e-07
3.14949e-07
3.47995e-07
3.47724e-07
3.14945e-07
3.14935e-07
3.1493e-07
3.47722e-07
3.47967e-07
3.476e-07
3.14925e-07
3.14907e-07
3.14848e-07
3.1484e-07
3.4794e-07
3.47577e-07
3.14908e-07
3.14935e-07
3.14831e-07
3.14857e-07
3.14924e-07
3.14817e-07
3.14847e-07
3.47975e-07
3.47608e-07
3.14905e-07
3.14833e-07
3.14828e-07
3.47606e-07
3.4785e-07
3.47587e-07
3.14838e-07
3.14835e-07
3.1483e-07
3.14832e-07
3.47831e-07
3.4758e-07
3.14821e-07
3.14847e-07
3.14814e-07
3.14841e-07
3.14837e-07
3.14807e-07
3.14831e-07
3.47857e-07
3.47594e-07
3.14819e-07
3.14816e-07
3.14813e-07
3.47593e-07
3.4785e-07
3.47591e-07
3.14832e-07
3.14835e-07
3.14829e-07
3.14832e-07
3.47843e-07
3.4758e-07
3.14816e-07
3.14843e-07
3.14814e-07
3.14841e-07
3.14834e-07
3.14806e-07
3.14831e-07
3.47857e-07
3.47598e-07
3.14815e-07
3.14816e-07
3.14812e-07
3.47598e-07
3.47851e-07
3.47587e-07
3.1483e-07
3.14834e-07
3.14828e-07
3.14832e-07
3.47842e-07
3.47577e-07
3.14815e-07
3.14842e-07
3.14812e-07
3.1484e-07
3.14832e-07
3.14807e-07
3.1483e-07
3.47858e-07
3.47595e-07
3.14814e-07
3.14816e-07
3.14811e-07
3.47594e-07
3.47848e-07
3.4759e-07
3.14829e-07
3.14833e-07
3.14827e-07
3.14831e-07
3.4784e-07
3.47578e-07
3.14814e-07
3.14841e-07
3.14812e-07
3.1484e-07
3.14832e-07
3.14807e-07
3.1483e-07
3.47855e-07
3.47598e-07
3.14813e-07
3.14816e-07
3.14812e-07
3.47597e-07
3.47849e-07
3.47591e-07
3.14829e-07
3.14833e-07
3.14827e-07
3.14831e-07
3.47838e-07
3.47583e-07
3.14813e-07
3.14841e-07
3.14811e-07
3.1484e-07
3.14832e-07
3.14807e-07
3.1483e-07
3.47856e-07
3.47599e-07
3.14816e-07
3.14816e-07
3.14814e-07
3.47599e-07
3.47851e-07
3.47589e-07
3.14829e-07
3.14833e-07
3.14827e-07
3.14831e-07
3.47843e-07
3.47582e-07
3.14813e-07
3.14841e-07
3.14811e-07
3.1484e-07
3.14832e-07
3.14807e-07
3.1483e-07
3.47859e-07
3.47598e-07
3.14817e-07
3.14816e-07
3.14815e-07
3.47598e-07
3.4785e-07
3.47587e-07
3.14828e-07
3.14834e-07
3.14826e-07
3.14832e-07
3.47844e-07
3.47581e-07
3.14813e-07
3.14842e-07
3.14811e-07
3.1484e-07
3.14832e-07
3.14807e-07
3.1483e-07
3.47859e-07
3.47597e-07
3.14816e-07
3.14816e-07
3.14814e-07
3.47597e-07
3.47849e-07
3.47587e-07
3.14828e-07
3.14833e-07
3.14826e-07
3.14831e-07
3.47843e-07
3.4758e-07
3.14813e-07
3.14841e-07
3.14811e-07
3.1484e-07
3.14832e-07
3.14807e-07
3.1483e-07
3.47858e-07
3.47597e-07
3.14816e-07
3.14816e-07
3.14814e-07
3.47597e-07
3.47849e-07
3.47587e-07
3.14828e-07
3.14834e-07
3.14826e-07
3.14832e-07
3.47843e-07
3.4758e-07
3.14813e-07
3.14841e-07
3.14811e-07
3.1484e-07
3.14832e-07
3.14807e-07
3.1483e-07
3.47858e-07
3.47597e-07
3.14816e-07
3.14816e-07
3.14814e-07
3.47597e-07
3.47849e-07
3.47588e-07
3.14829e-07
3.14833e-07
3.14826e-07
3.14831e-07
3.47842e-07
3.4758e-07
3.14813e-07
3.14842e-07
3.14811e-07
3.14839e-07
3.14832e-07
3.14807e-07
3.1483e-07
3.47858e-07
3.47596e-07
3.14816e-07
3.14816e-07
3.14814e-07
3.47597e-07
3.47849e-07
3.14828e-07
3.14833e-07
3.47842e-07
3.14812e-07
3.14841e-07
3.14831e-07
3.47858e-07
3.14815e-07
1.74777e-06
8.87639e-06
1.74821e-06
8.87603e-06
2.26181e-05
2.26164e-05
1.74765e-06
8.87766e-06
1.74804e-06
8.87716e-06
2.88801e-07
2.88801e-07
2.88799e-07
2.88796e-07
2.88799e-07
2.888e-07
2.88798e-07
5.64522e-07
1.39173e-06
2.97612e-07
3.14932e-07
5.64668e-07
1.39102e-06
2.97612e-07
2.26193e-05
2.26174e-05
5.64518e-07
2.97613e-07
1.3916e-06
3.14939e-07
5.64666e-07
2.97613e-07
1.39095e-06
2.98505e-06
2.98579e-06
3.47703e-07
2.98473e-06
2.9855e-06
1.74791e-06
8.87618e-06
1.74843e-06
8.87563e-06
2.26151e-05
2.26145e-05
1.7478e-06
8.87734e-06
1.74827e-06
8.87675e-06
2.88799e-07
2.888e-07
2.88798e-07
2.88798e-07
2.88798e-07
2.88799e-07
2.88797e-07
5.64551e-07
1.39187e-06
2.97611e-07
3.14935e-07
5.64695e-07
1.39112e-06
2.97614e-07
2.26161e-05
2.2615e-05
5.64547e-07
2.9761e-07
1.39178e-06
3.14942e-07
5.64692e-07
2.97613e-07
1.39107e-06
2.98547e-06
2.98622e-06
3.47709e-07
2.98497e-06
2.98573e-06
1.74795e-06
8.87587e-06
1.74851e-06
8.87542e-06
2.26142e-05
2.2614e-05
1.74782e-06
8.87698e-06
1.74833e-06
8.87651e-06
2.888e-07
2.88802e-07
2.88799e-07
2.88799e-07
2.88798e-07
2.888e-07
2.88798e-07
5.64574e-07
1.39193e-06
2.97613e-07
3.14939e-07
5.64722e-07
1.39117e-06
2.97616e-07
2.26146e-05
2.26142e-05
5.64569e-07
2.97612e-07
1.39184e-06
3.14945e-07
5.64718e-07
2.97615e-07
1.39111e-06
2.98557e-06
2.98631e-06
3.47716e-07
2.98509e-06
2.98584e-06
1.74793e-06
8.87574e-06
1.7485e-06
8.87535e-06
2.26143e-05
2.26144e-05
1.74781e-06
8.87688e-06
1.74831e-06
8.87647e-06
2.888e-07
2.88801e-07
2.88798e-07
2.88797e-07
2.88798e-07
2.88799e-07
2.88797e-07
5.64589e-07
1.39195e-06
2.97615e-07
3.14942e-07
5.64738e-07
1.39118e-06
2.97617e-07
2.26145e-05
2.26144e-05
5.64582e-07
2.97613e-07
1.39187e-06
3.14949e-07
5.64732e-07
2.97615e-07
1.39113e-06
2.98572e-06
2.98647e-06
3.47724e-07
2.98525e-06
2.986e-06
1.74794e-06
8.87577e-06
1.74848e-06
8.87541e-06
2.26151e-05
2.26154e-05
1.74781e-06
8.87693e-06
1.74831e-06
8.87655e-06
2.88798e-07
2.888e-07
2.88797e-07
2.88793e-07
2.88794e-07
2.88797e-07
2.88793e-07
5.64601e-07
1.39196e-06
2.97613e-07
3.14942e-07
5.64751e-07
1.39119e-06
2.97613e-07
2.2615e-05
2.26151e-05
5.64595e-07
2.97614e-07
1.39188e-06
3.14949e-07
5.64746e-07
2.97616e-07
1.39114e-06
2.98583e-06
2.98657e-06
3.47733e-07
2.98529e-06
2.98604e-06
1.74807e-06
8.87609e-06
1.7485e-06
8.87607e-06
2.2616e-05
2.26146e-05
1.74795e-06
8.87726e-06
1.74832e-06
8.87719e-06
2.88793e-07
2.88797e-07
2.88793e-07
2.88781e-07
2.88776e-07
2.88783e-07
2.88781e-07
5.64611e-07
1.39205e-06
2.9761e-07
3.1494e-07
5.64758e-07
1.39134e-06
2.97609e-07
2.26162e-05
2.26159e-05
5.64605e-07
2.97612e-07
1.39192e-06
3.14948e-07
5.64752e-07
2.97611e-07
1.39125e-06
2.98584e-06
2.98659e-06
3.47734e-07
2.98541e-06
2.98616e-06
1.74809e-06
8.87678e-06
1.74876e-06
8.87648e-06
2.26141e-05
2.26143e-05
1.74796e-06
8.87799e-06
1.74859e-06
8.87765e-06
2.88749e-07
2.8876e-07
2.88759e-07
2.8868e-07
2.88675e-07
2.88682e-07
2.8868e-07
5.64521e-07
1.3921e-06
2.97571e-07
3.14858e-07
5.64735e-07
1.39121e-06
2.97543e-07
2.26154e-05
2.26147e-05
5.64518e-07
2.97577e-07
1.39203e-06
3.14881e-07
5.64732e-07
2.97549e-07
1.3912e-06
2.98596e-06
2.9867e-06
3.47667e-07
2.98529e-06
2.98604e-06
1.74785e-06
8.87681e-06
1.74847e-06
8.87644e-06
2.26144e-05
2.26142e-05
1.74773e-06
8.878e-06
1.74829e-06
8.87755e-06
2.88667e-07
2.88672e-07
2.8867e-07
2.88661e-07
2.88662e-07
2.88665e-07
2.88663e-07
5.64433e-07
1.39187e-06
2.97485e-07
3.14809e-07
5.64606e-07
1.39106e-06
2.97483e-07
2.26148e-05
2.26144e-05
5.64432e-07
2.97488e-07
1.39182e-06
3.14819e-07
5.64605e-07
2.97486e-07
1.39103e-06
2.98561e-06
2.98635e-06
3.47582e-07
2.98501e-06
2.98576e-06
1.74782e-06
8.87682e-06
1.74839e-06
8.87643e-06
2.26141e-05
2.26136e-05
1.74769e-06
8.8779e-06
1.74821e-06
8.87761e-06
2.88664e-07
2.88667e-07
2.88666e-07
2.88661e-07
2.88662e-07
2.88665e-07
2.88663e-07
5.64429e-07
1.39182e-06
2.97481e-07
3.14808e-07
5.64582e-07
1.39104e-06
2.97483e-07
2.26147e-05
2.26144e-05
5.64424e-07
2.97483e-07
1.39175e-06
3.14818e-07
5.6458e-07
2.97485e-07
1.39101e-06
2.98551e-06
2.98625e-06
3.47601e-07
2.98497e-06
2.98572e-06
1.74782e-06
8.87669e-06
1.74838e-06
8.87621e-06
2.26138e-05
2.26137e-05
1.74769e-06
8.8781e-06
1.7482e-06
8.87778e-06
2.88663e-07
2.88666e-07
2.88664e-07
2.8866e-07
2.88662e-07
2.88665e-07
2.88663e-07
5.64427e-07
1.39182e-06
2.9748e-07
3.14808e-07
5.64583e-07
1.39104e-06
2.97482e-07
2.26147e-05
2.26144e-05
5.64423e-07
2.97482e-07
1.39175e-06
3.14817e-07
5.64579e-07
2.97484e-07
1.391e-06
2.9855e-06
2.98625e-06
3.47596e-07
2.98497e-06
2.98572e-06
1.74782e-06
8.87653e-06
1.74838e-06
8.87608e-06
2.26139e-05
2.26138e-05
1.74769e-06
8.87823e-06
1.7482e-06
8.87788e-06
2.88663e-07
2.88666e-07
2.88664e-07
2.8866e-07
2.88662e-07
2.88665e-07
2.88663e-07
5.64426e-07
1.39182e-06
2.9748e-07
3.14808e-07
5.6458e-07
1.39104e-06
2.97482e-07
2.26147e-05
2.26144e-05
5.64422e-07
2.97482e-07
1.39175e-06
3.14817e-07
5.64577e-07
2.97484e-07
1.391e-06
2.9855e-06
2.98625e-06
3.47598e-07
2.98497e-06
2.98572e-06
1.74782e-06
8.87644e-06
1.74838e-06
8.87601e-06
2.26139e-05
2.26138e-05
1.74769e-06
8.8783e-06
1.7482e-06
8.87794e-06
2.88663e-07
2.88666e-07
2.88664e-07
2.8866e-07
2.88662e-07
2.88665e-07
2.88663e-07
5.64427e-07
1.39182e-06
2.9748e-07
3.14808e-07
5.64581e-07
1.39104e-06
2.97482e-07
2.26147e-05
2.26144e-05
5.64424e-07
2.97482e-07
1.39175e-06
3.14817e-07
5.64578e-07
2.97484e-07
1.391e-06
2.9855e-06
2.98625e-06
3.47594e-07
2.98497e-06
2.98572e-06
1.74782e-06
8.87639e-06
1.74838e-06
8.87596e-06
2.2614e-05
2.26139e-05
1.74769e-06
8.87834e-06
1.7482e-06
8.87796e-06
2.88663e-07
2.88666e-07
2.88665e-07
2.8866e-07
2.88662e-07
2.88665e-07
2.88663e-07
5.64427e-07
1.39182e-06
2.9748e-07
3.14808e-07
5.64582e-07
1.39104e-06
2.97482e-07
2.26147e-05
2.26144e-05
5.64423e-07
2.97482e-07
1.39175e-06
3.14817e-07
5.64579e-07
2.97484e-07
1.39101e-06
2.9855e-06
2.98625e-06
3.47595e-07
2.98497e-06
2.98572e-06
1.74782e-06
8.87635e-06
1.74838e-06
8.87594e-06
2.26141e-05
2.26139e-05
1.74769e-06
8.87836e-06
1.7482e-06
8.87798e-06
2.88663e-07
2.88666e-07
2.88665e-07
2.8866e-07
2.88662e-07
2.88665e-07
2.88663e-07
5.64428e-07
1.39182e-06
2.9748e-07
3.14808e-07
5.64582e-07
1.39104e-06
2.97482e-07
2.26147e-05
2.26144e-05
5.64425e-07
2.97482e-07
1.39175e-06
3.14817e-07
5.64579e-07
2.97484e-07
1.39101e-06
2.9855e-06
2.98625e-06
3.47596e-07
2.98497e-06
2.98572e-06
1.74782e-06
8.87633e-06
1.74838e-06
8.87592e-06
2.26141e-05
2.26139e-05
1.74769e-06
8.87836e-06
1.7482e-06
8.87798e-06
2.88663e-07
2.88666e-07
2.88665e-07
2.8866e-07
2.88662e-07
2.88665e-07
2.88663e-07
5.64428e-07
1.39182e-06
2.9748e-07
3.14808e-07
5.64583e-07
1.39104e-06
2.97482e-07
2.26147e-05
2.26144e-05
5.64426e-07
2.97482e-07
1.39175e-06
3.14817e-07
5.64581e-07
2.97484e-07
1.39101e-06
2.9855e-06
2.98625e-06
3.47596e-07
2.98497e-06
2.98572e-06
1.74782e-06
8.87632e-06
1.74838e-06
8.87591e-06
2.26141e-05
2.26139e-05
1.74769e-06
8.87837e-06
1.7482e-06
8.87799e-06
2.88663e-07
2.88666e-07
2.88665e-07
2.8866e-07
2.88662e-07
2.88665e-07
2.88663e-07
5.64425e-07
1.39182e-06
2.9748e-07
3.14808e-07
5.64581e-07
1.39104e-06
2.97482e-07
2.26147e-05
2.26144e-05
5.64424e-07
2.97482e-07
1.39175e-06
3.14817e-07
5.6458e-07
2.97484e-07
1.391e-06
2.9855e-06
2.98625e-06
3.47597e-07
2.98497e-06
2.98572e-06
1.74782e-06
8.87632e-06
1.74838e-06
8.87591e-06
2.26141e-05
2.26139e-05
1.74769e-06
8.87837e-06
1.7482e-06
8.87799e-06
2.88663e-07
2.88666e-07
2.88665e-07
2.8866e-07
2.88662e-07
2.88665e-07
2.88663e-07
5.64427e-07
1.39182e-06
2.9748e-07
3.14808e-07
5.64582e-07
1.39104e-06
2.97482e-07
2.26147e-05
2.26144e-05
5.64426e-07
2.97482e-07
1.39175e-06
3.14817e-07
5.6458e-07
2.97484e-07
1.391e-06
2.9855e-06
2.98625e-06
3.47597e-07
2.98497e-06
2.98572e-06
1.74781e-06
8.87632e-06
1.74838e-06
8.87592e-06
2.26141e-05
2.2614e-05
1.74769e-06
8.87837e-06
1.7482e-06
8.87799e-06
2.88663e-07
2.88666e-07
2.88664e-07
5.64425e-07
1.39182e-06
2.9748e-07
3.14808e-07
5.6458e-07
1.39104e-06
2.97482e-07
2.26147e-05
2.26145e-05
5.64428e-07
2.97482e-07
1.39175e-06
3.14818e-07
5.64582e-07
2.97485e-07
1.391e-06
2.9855e-06
2.98625e-06
3.47596e-07
2.98497e-06
2.9858e-06
8.87684e-06
1.391e-06
2.26184e-05
2.98509e-06
2.98433e-06
2.26158e-05
1.39092e-06
8.87627e-06
2.26181e-05
2.26163e-05
2.26198e-05
2.26181e-05
2.98493e-06
2.98573e-06
3.47694e-07
2.98467e-06
2.98546e-06
2.26146e-05
2.26161e-05
2.26165e-05
2.26179e-05
3.47956e-07
2.98482e-06
2.9856e-06
2.98522e-06
2.98601e-06
1.74778e-06
8.87722e-06
1.74823e-06
8.87682e-06
5.64518e-07
1.39154e-06
2.97611e-07
3.1495e-07
5.64667e-07
1.39088e-06
2.97611e-07
5.6452e-07
1.39178e-06
2.97613e-07
3.14956e-07
5.64669e-07
1.3911e-06
2.97613e-07
1.74835e-06
8.87586e-06
8.87638e-06
1.74786e-06
1.74836e-06
8.87655e-06
8.87712e-06
1.74787e-06
5.64681e-07
3.14949e-07
1.39095e-06
2.9761e-07
1.39165e-06
2.9761e-07
5.64532e-07
5.64683e-07
3.14955e-07
1.39116e-06
2.97612e-07
1.39187e-06
2.97612e-07
5.64535e-07
2.98571e-06
2.985e-06
3.47694e-07
2.98542e-06
2.98458e-06
2.26159e-05
2.26139e-05
2.26151e-05
2.26163e-05
3.47956e-07
2.98556e-06
2.98475e-06
2.98597e-06
2.98521e-06
2.26127e-05
2.26141e-05
5.64528e-07
1.39194e-06
2.97613e-07
3.14935e-07
5.64674e-07
1.39125e-06
2.97613e-07
1.74764e-06
8.8775e-06
1.74803e-06
8.87708e-06
5.64525e-07
2.97616e-07
1.39195e-06
3.14962e-07
5.64672e-07
2.97616e-07
1.39125e-06
1.74818e-06
8.87699e-06
8.87753e-06
1.74775e-06
5.64688e-07
3.14934e-07
1.39132e-06
2.97611e-07
1.39205e-06
2.97611e-07
5.64542e-07
1.74817e-06
8.87688e-06
8.87745e-06
1.74773e-06
5.64686e-07
3.14961e-07
2.97615e-07
1.39132e-06
2.97615e-07
1.39205e-06
5.64539e-07
1.7478e-06
8.87668e-06
1.74824e-06
8.87625e-06
5.64526e-07
2.97612e-07
1.39161e-06
3.14953e-07
5.64672e-07
2.97612e-07
1.39095e-06
1.74779e-06
8.87741e-06
1.74824e-06
8.87705e-06
5.64684e-07
3.14932e-07
1.39108e-06
2.97611e-07
1.39181e-06
2.97611e-07
5.64538e-07
1.74838e-06
8.87596e-06
8.87657e-06
1.74789e-06
5.64687e-07
3.14952e-07
2.97611e-07
1.39103e-06
2.97611e-07
1.39172e-06
5.6454e-07
1.74838e-06
8.87686e-06
8.8774e-06
1.74789e-06
2.98587e-06
2.98502e-06
3.47703e-07
2.98542e-06
2.98473e-06
2.26192e-05
2.26174e-05
2.26159e-05
2.26175e-05
3.47964e-07
2.98561e-06
2.9849e-06
2.98606e-06
2.98528e-06
2.26158e-05
2.26173e-05
5.64516e-07
2.97612e-07
1.39177e-06
3.14934e-07
5.64664e-07
2.97612e-07
1.39111e-06
1.74763e-06
8.87756e-06
1.74802e-06
8.87719e-06
1.74764e-06
8.87812e-06
1.74803e-06
8.87776e-06
5.6468e-07
3.14938e-07
2.97611e-07
1.39103e-06
2.97611e-07
1.39171e-06
5.64534e-07
5.64678e-07
3.14933e-07
2.97611e-07
1.39119e-06
2.9761e-07
1.39188e-06
5.6453e-07
1.74816e-06
8.87701e-06
8.87754e-06
1.74773e-06
1.74817e-06
8.87757e-06
8.87811e-06
1.74773e-06
2.26194e-05
2.26176e-05
2.262e-05
2.26182e-05
3.47964e-07
2.98492e-06
2.98567e-06
2.9853e-06
2.98605e-06
2.2616e-05
2.26174e-05
2.26166e-05
2.26181e-05
2.26147e-05
2.26137e-05
2.26163e-05
2.26154e-05
2.98533e-06
2.98611e-06
3.47701e-07
2.98487e-06
2.98564e-06
2.26133e-05
2.26139e-05
2.26149e-05
2.26155e-05
3.47962e-07
2.98491e-06
2.98567e-06
2.98537e-06
2.98613e-06
1.74793e-06
8.87685e-06
1.74844e-06
8.87634e-06
5.64547e-07
1.39171e-06
2.97613e-07
3.14953e-07
5.64695e-07
1.391e-06
2.97613e-07
5.6455e-07
1.39192e-06
2.97615e-07
3.14959e-07
5.64698e-07
1.3912e-06
2.97615e-07
1.74847e-06
8.87551e-06
8.87596e-06
1.74794e-06
1.74849e-06
8.87622e-06
8.87667e-06
1.74796e-06
5.6471e-07
3.14952e-07
1.39102e-06
2.97612e-07
1.39175e-06
2.97612e-07
5.64561e-07
5.64713e-07
3.14958e-07
1.39123e-06
2.97614e-07
1.39195e-06
2.97614e-07
5.64564e-07
2.9861e-06
2.98537e-06
3.47698e-07
2.98566e-06
2.98488e-06
2.26129e-05
2.26119e-05
2.26141e-05
2.26147e-05
3.4796e-07
2.98574e-06
2.98499e-06
2.98619e-06
2.9855e-06
2.26116e-05
2.26122e-05
5.64557e-07
1.39211e-06
2.97614e-07
3.14938e-07
5.64702e-07
1.39136e-06
2.97614e-07
1.74778e-06
8.8772e-06
1.74824e-06
8.87663e-06
5.64554e-07
2.97618e-07
1.39212e-06
3.14965e-07
5.64701e-07
2.97618e-07
1.39137e-06
1.7483e-06
8.8766e-06
8.87709e-06
1.74782e-06
5.64717e-07
3.14937e-07
1.39139e-06
2.97613e-07
1.39215e-06
2.97613e-07
5.64572e-07
1.74829e-06
8.87648e-06
8.87697e-06
1.74781e-06
5.64716e-07
3.14964e-07
2.97617e-07
1.3914e-06
2.97617e-07
1.39216e-06
5.64569e-07
1.74795e-06
8.87629e-06
1.74846e-06
8.87574e-06
5.64554e-07
2.97614e-07
1.39178e-06
3.14955e-07
5.64701e-07
2.97614e-07
1.39107e-06
1.74794e-06
8.87715e-06
1.74846e-06
8.87659e-06
5.64713e-07
3.14935e-07
1.39115e-06
2.97613e-07
1.3919e-06
2.97613e-07
5.64565e-07
1.74851e-06
8.87563e-06
8.8761e-06
1.74797e-06
5.64715e-07
3.14955e-07
2.97613e-07
1.3911e-06
2.97613e-07
1.39182e-06
5.64569e-07
1.7485e-06
8.87644e-06
8.87691e-06
1.74797e-06
2.98622e-06
2.98541e-06
3.4771e-07
2.98573e-06
2.98495e-06
2.26159e-05
2.26149e-05
2.26144e-05
2.26152e-05
3.4797e-07
2.98581e-06
2.98499e-06
2.98633e-06
2.98545e-06
2.26144e-05
2.26151e-05
5.64546e-07
2.97614e-07
1.39194e-06
3.14936e-07
5.64693e-07
2.97614e-07
1.39123e-06
1.74778e-06
8.8773e-06
1.74824e-06
8.87674e-06
1.74778e-06
8.87786e-06
1.74825e-06
8.8773e-06
5.64709e-07
3.14942e-07
2.97612e-07
1.3911e-06
2.97612e-07
1.39181e-06
5.6456e-07
5.64708e-07
3.14936e-07
2.97612e-07
1.39125e-06
2.97612e-07
1.39198e-06
5.6456e-07
1.74829e-06
8.87659e-06
8.87706e-06
1.7478e-06
1.74829e-06
8.87715e-06
8.87762e-06
1.74781e-06
2.2616e-05
2.2615e-05
2.26166e-05
2.26157e-05
3.4797e-07
2.98502e-06
2.98577e-06
2.98549e-06
2.98623e-06
2.26146e-05
2.26152e-05
2.26152e-05
2.26159e-05
2.26135e-05
2.2613e-05
2.26151e-05
2.26148e-05
2.98542e-06
2.98618e-06
3.47708e-07
2.98498e-06
2.98574e-06
2.2613e-05
2.26133e-05
2.26148e-05
2.2615e-05
3.47969e-07
2.98507e-06
2.98583e-06
2.9855e-06
2.98626e-06
1.74796e-06
8.87656e-06
1.74851e-06
8.87615e-06
5.64573e-07
1.39177e-06
2.97616e-07
3.14956e-07
5.64724e-07
1.39103e-06
2.97616e-07
5.64576e-07
1.39198e-06
2.97618e-07
3.14962e-07
5.64727e-07
1.39124e-06
2.97618e-07
1.7485e-06
8.87536e-06
8.87577e-06
1.74794e-06
1.74851e-06
8.87615e-06
8.87651e-06
1.74796e-06
5.64735e-07
3.14957e-07
1.39104e-06
2.97615e-07
1.39178e-06
2.97615e-07
5.64583e-07
5.64738e-07
3.14962e-07
1.39125e-06
2.97616e-07
1.39199e-06
2.97616e-07
5.64586e-07
2.98626e-06
2.9856e-06
3.47705e-07
2.98582e-06
2.98507e-06
2.26119e-05
2.26114e-05
2.26141e-05
2.26143e-05
3.47967e-07
2.98593e-06
2.98513e-06
2.98637e-06
2.98567e-06
2.26115e-05
2.26119e-05
5.64582e-07
1.39217e-06
2.97616e-07
3.14941e-07
5.64732e-07
1.39141e-06
2.97616e-07
1.74781e-06
8.87685e-06
1.74831e-06
8.87639e-06
5.6458e-07
2.9762e-07
1.39218e-06
3.14968e-07
5.6473e-07
2.9762e-07
1.39142e-06
1.74831e-06
8.87647e-06
8.87689e-06
1.74781e-06
5.64741e-07
3.14942e-07
1.39142e-06
2.97615e-07
1.39218e-06
2.97615e-07
5.64591e-07
1.7483e-06
8.87634e-06
8.87676e-06
1.7478e-06
5.64739e-07
3.14968e-07
2.97619e-07
1.39143e-06
2.97619e-07
1.3922e-06
5.64588e-07
1.74798e-06
8.876e-06
1.74853e-06
8.87556e-06
5.6458e-07
2.97616e-07
1.39184e-06
3.14958e-07
5.6473e-07
2.97616e-07
1.39112e-06
1.74797e-06
8.87678e-06
1.74852e-06
8.87635e-06
5.64734e-07
3.14939e-07
1.39118e-06
2.97615e-07
1.39194e-06
2.97616e-07
5.64583e-07
1.74853e-06
8.87553e-06
8.87594e-06
1.74797e-06
5.6474e-07
3.14958e-07
2.97615e-07
1.39113e-06
2.97615e-07
1.39186e-06
5.64589e-07
1.74852e-06
8.8763e-06
8.8767e-06
1.74796e-06
2.9864e-06
2.9855e-06
3.47717e-07
2.98588e-06
2.98506e-06
2.26147e-05
2.26142e-05
2.26142e-05
2.26146e-05
3.47978e-07
2.98597e-06
2.98515e-06
2.98648e-06
2.98557e-06
2.26142e-05
2.26145e-05
5.6457e-07
2.97615e-07
1.392e-06
3.1494e-07
5.64721e-07
2.97615e-07
1.39127e-06
1.7478e-06
8.87693e-06
1.7483e-06
8.8765e-06
1.74781e-06
8.87748e-06
1.74831e-06
8.87706e-06
5.64729e-07
3.14945e-07
2.97613e-07
1.39113e-06
2.97614e-07
1.39185e-06
5.64576e-07
5.6473e-07
3.14939e-07
2.97613e-07
1.39128e-06
2.97613e-07
1.39202e-06
5.64577e-07
1.7483e-06
8.87645e-06
8.87685e-06
1.74779e-06
1.7483e-06
8.87701e-06
8.87741e-06
1.7478e-06
2.26148e-05
2.26144e-05
2.26155e-05
2.2615e-05
3.47977e-07
2.98517e-06
2.98593e-06
2.98561e-06
2.98636e-06
2.26143e-05
2.26147e-05
2.2615e-05
2.26153e-05
2.26134e-05
2.26131e-05
2.26151e-05
2.26149e-05
2.98559e-06
2.98635e-06
3.47718e-07
2.98515e-06
2.98591e-06
2.26135e-05
2.26135e-05
2.26153e-05
2.26152e-05
3.47979e-07
2.98519e-06
2.98595e-06
2.98565e-06
2.98642e-06
1.74795e-06
8.87652e-06
1.7485e-06
8.87616e-06
5.6459e-07
1.39179e-06
2.97618e-07
3.14961e-07
5.64743e-07
1.39105e-06
2.97618e-07
5.64594e-07
1.392e-06
2.97619e-07
3.14967e-07
5.64747e-07
1.39125e-06
2.97619e-07
1.74849e-06
8.87537e-06
8.87571e-06
1.74793e-06
1.7485e-06
8.8762e-06
8.87654e-06
1.74795e-06
5.64751e-07
3.14962e-07
1.39106e-06
2.97615e-07
1.3918e-06
2.97617e-07
5.64599e-07
5.64755e-07
3.14965e-07
1.39125e-06
2.97615e-07
1.392e-06
2.97617e-07
5.64603e-07
2.98645e-06
2.98573e-06
3.47714e-07
2.98597e-06
2.98517e-06
2.2612e-05
2.26118e-05
2.26148e-05
2.26148e-05
3.47975e-07
2.98596e-06
2.98521e-06
2.98646e-06
2.98576e-06
2.26121e-05
2.26123e-05
5.64598e-07
1.3922e-06
2.97618e-07
3.14946e-07
5.64749e-07
1.39143e-06
2.97618e-07
1.74779e-06
8.87674e-06
1.74829e-06
8.87634e-06
5.64595e-07
2.97621e-07
1.39221e-06
3.14972e-07
5.64747e-07
2.97621e-07
1.39144e-06
1.74831e-06
8.8765e-06
8.87686e-06
1.74781e-06
5.64757e-07
3.14945e-07
1.39143e-06
2.97617e-07
1.39221e-06
2.97617e-07
5.64608e-07
1.74829e-06
8.87638e-06
8.87674e-06
1.74779e-06
5.64756e-07
3.14971e-07
2.97619e-07
1.39145e-06
2.9762e-07
1.39222e-06
5.64605e-07
1.74796e-06
8.87593e-06
1.74852e-06
8.87554e-06
5.64596e-07
2.97618e-07
1.39187e-06
3.14962e-07
5.64747e-07
2.97618e-07
1.39114e-06
1.74795e-06
8.87667e-06
1.74851e-06
8.87629e-06
5.64749e-07
3.14942e-07
1.39118e-06
2.97615e-07
1.39195e-06
2.97616e-07
5.64596e-07
1.74851e-06
8.87559e-06
8.87595e-06
1.74796e-06
5.64755e-07
3.14962e-07
2.97616e-07
1.39114e-06
2.97617e-07
1.39188e-06
5.64605e-07
1.74851e-06
8.87632e-06
8.87666e-06
1.74796e-06
2.98656e-06
2.98566e-06
3.47726e-07
2.98604e-06
2.98522e-06
2.26145e-05
2.26143e-05
2.26147e-05
2.26149e-05
3.47987e-07
2.98608e-06
2.98526e-06
2.98663e-06
2.98573e-06
2.26146e-05
2.26147e-05
5.64585e-07
2.97616e-07
1.39203e-06
3.14943e-07
5.64737e-07
2.97616e-07
1.39129e-06
1.74778e-06
8.87682e-06
1.74828e-06
8.87645e-06
1.74779e-06
8.87738e-06
1.74829e-06
8.87701e-06
5.64743e-07
3.14949e-07
2.97615e-07
1.39114e-06
2.97615e-07
1.39187e-06
5.6459e-07
5.64745e-07
3.14943e-07
2.97615e-07
1.3913e-06
2.97615e-07
1.39204e-06
5.64593e-07
1.74828e-06
8.87648e-06
8.87681e-06
1.74779e-06
1.74829e-06
8.87704e-06
8.87738e-06
1.7478e-06
2.26147e-05
2.26145e-05
2.26153e-05
2.26151e-05
3.47985e-07
2.98529e-06
2.98604e-06
2.98576e-06
2.98651e-06
2.26148e-05
2.26149e-05
2.26154e-05
2.26155e-05
2.26139e-05
2.26139e-05
2.26156e-05
2.26157e-05
2.98568e-06
2.98646e-06
3.47726e-07
2.98519e-06
2.98596e-06
2.26146e-05
2.26144e-05
2.26164e-05
2.26161e-05
3.47987e-07
2.98515e-06
2.98595e-06
2.98566e-06
2.98643e-06
1.74796e-06
8.87657e-06
1.74849e-06
8.87629e-06
5.64604e-07
1.3918e-06
2.97615e-07
3.14965e-07
5.6476e-07
1.39106e-06
2.97613e-07
5.64609e-07
1.39199e-06
2.97615e-07
3.14967e-07
5.64764e-07
1.39125e-06
2.97614e-07
1.7485e-06
8.87562e-06
8.8758e-06
1.74793e-06
1.74852e-06
8.87666e-06
8.87673e-06
1.74796e-06
5.64763e-07
3.14964e-07
1.39108e-06
2.9761e-07
1.39181e-06
2.97611e-07
5.64602e-07
5.64769e-07
3.14965e-07
1.3913e-06
2.97611e-07
1.392e-06
2.97611e-07
5.64607e-07
2.98644e-06
2.98578e-06
3.4772e-07
2.98589e-06
2.98518e-06
2.26127e-05
2.26127e-05
2.26159e-05
2.26158e-05
3.47981e-07
2.98594e-06
2.98526e-06
2.98638e-06
2.98576e-06
2.26131e-05
2.26133e-05
5.64611e-07
1.39221e-06
2.97617e-07
3.14948e-07
5.64766e-07
1.39143e-06
2.97616e-07
1.7478e-06
8.87678e-06
1.74828e-06
8.87642e-06
5.64608e-07
2.97618e-07
1.39222e-06
3.14974e-07
5.64764e-07
2.97617e-07
1.39145e-06
1.74831e-06
8.87676e-06
8.87697e-06
1.7478e-06
5.64767e-07
3.14946e-07
1.39146e-06
2.97612e-07
1.39221e-06
2.97612e-07
5.64607e-07
1.7483e-06
8.87663e-06
8.87684e-06
1.74779e-06
5.64765e-07
3.14972e-07
2.97614e-07
1.39147e-06
2.97614e-07
1.39223e-06
5.64604e-07
1.74797e-06
8.87601e-06
1.7485e-06
8.87573e-06
5.64608e-07
2.97615e-07
1.39188e-06
3.14964e-07
5.64763e-07
2.97614e-07
1.39114e-06
1.74796e-06
8.8767e-06
1.7485e-06
8.87636e-06
5.6476e-07
3.14942e-07
1.39124e-06
2.9761e-07
1.39197e-06
2.97611e-07
5.64603e-07
1.74852e-06
8.87611e-06
8.87621e-06
1.74796e-06
5.64764e-07
3.14962e-07
2.9761e-07
1.39117e-06
2.97611e-07
1.39188e-06
5.64605e-07
1.74852e-06
8.87656e-06
8.87675e-06
1.74795e-06
2.98666e-06
2.98576e-06
3.47734e-07
2.98608e-06
2.98526e-06
2.26151e-05
2.26151e-05
2.26157e-05
2.26157e-05
3.47994e-07
2.98607e-06
2.98525e-06
2.98664e-06
2.98574e-06
2.26158e-05
2.26156e-05
5.64597e-07
2.97614e-07
1.39204e-06
3.14946e-07
5.64753e-07
2.97613e-07
1.3913e-06
1.74779e-06
8.87686e-06
1.74828e-06
8.87652e-06
1.7478e-06
8.87742e-06
1.74828e-06
8.87708e-06
5.64754e-07
3.14948e-07
2.97613e-07
1.39116e-06
2.97614e-07
1.39187e-06
5.64596e-07
5.64754e-07
3.14944e-07
2.9761e-07
1.39132e-06
2.9761e-07
1.39204e-06
5.64593e-07
1.74829e-06
8.87672e-06
8.87691e-06
1.74778e-06
1.7483e-06
8.87729e-06
8.87748e-06
1.74779e-06
2.26152e-05
2.26152e-05
2.26158e-05
2.26158e-05
3.47993e-07
2.98528e-06
2.98603e-06
2.98577e-06
2.98652e-06
2.26159e-05
2.26157e-05
2.26166e-05
2.26164e-05
2.2615e-05
2.26147e-05
2.26167e-05
2.26164e-05
2.98567e-06
2.98647e-06
3.47727e-07
2.98527e-06
2.98608e-06
2.26141e-05
2.26148e-05
2.26158e-05
2.26164e-05
3.47986e-07
2.98529e-06
2.98611e-06
2.9858e-06
2.98661e-06
1.74808e-06
8.87713e-06
1.74852e-06
8.87689e-06
5.64608e-07
1.39185e-06
2.9761e-07
3.14963e-07
5.64761e-07
1.39118e-06
2.97609e-07
5.64612e-07
1.39208e-06
2.97611e-07
3.14963e-07
5.64767e-07
1.39143e-06
2.9761e-07
1.7487e-06
8.87639e-06
8.87652e-06
1.7482e-06
1.74871e-06
8.87701e-06
8.87732e-06
1.74821e-06
5.64769e-07
3.14959e-07
1.39121e-06
2.97598e-07
1.39195e-06
2.97606e-07
5.64591e-07
5.64772e-07
3.14956e-07
1.39147e-06
2.97597e-07
1.39225e-06
2.97606e-07
5.64591e-07
2.98648e-06
2.98589e-06
3.4772e-07
2.98614e-06
2.98539e-06
2.26135e-05
2.26129e-05
2.26138e-05
2.26148e-05
3.47977e-07
2.98619e-06
2.98535e-06
2.98675e-06
2.98599e-06
2.26123e-05
2.26131e-05
5.64615e-07
1.39226e-06
2.97611e-07
3.14946e-07
5.64764e-07
1.39155e-06
2.9761e-07
1.74793e-06
8.87711e-06
1.7483e-06
8.87705e-06
5.64612e-07
2.97614e-07
1.39227e-06
3.14972e-07
5.64762e-07
2.97613e-07
1.39156e-06
1.74853e-06
8.87754e-06
8.87767e-06
1.74808e-06
5.64774e-07
3.14942e-07
1.39159e-06
2.976e-07
1.39236e-06
2.97607e-07
5.64601e-07
1.74851e-06
8.87742e-06
8.87753e-06
1.74807e-06
5.64772e-07
3.14968e-07
2.97603e-07
1.3916e-06
2.9761e-07
1.39237e-06
5.64598e-07
1.74809e-06
8.87661e-06
1.74852e-06
8.87652e-06
5.64613e-07
2.9761e-07
1.39193e-06
3.14963e-07
5.64763e-07
2.97609e-07
1.39125e-06
1.74808e-06
8.87702e-06
1.74851e-06
8.87699e-06
5.64771e-07
3.14933e-07
1.39134e-06
2.97596e-07
1.39214e-06
2.97605e-07
5.64595e-07
1.74872e-06
8.87678e-06
8.87697e-06
1.74823e-06
5.64773e-07
3.14959e-07
2.97599e-07
1.39129e-06
2.97606e-07
1.39203e-06
5.64599e-07
1.74872e-06
8.87738e-06
8.87746e-06
1.74822e-06
2.98667e-06
2.98578e-06
3.47736e-07
2.98619e-06
2.98538e-06
2.26162e-05
2.26158e-05
2.26152e-05
2.26162e-05
3.47994e-07
2.98623e-06
2.98542e-06
2.98681e-06
2.98592e-06
2.26152e-05
2.2616e-05
5.64602e-07
2.97609e-07
1.39209e-06
3.14943e-07
5.64753e-07
2.97608e-07
1.39141e-06
1.74792e-06
8.87718e-06
1.74829e-06
8.87715e-06
1.74792e-06
8.87774e-06
1.7483e-06
8.87771e-06
5.64766e-07
3.14945e-07
2.976e-07
1.39129e-06
2.97607e-07
1.39202e-06
5.64591e-07
5.64763e-07
3.1494e-07
2.97598e-07
1.39145e-06
2.97605e-07
1.39219e-06
5.64588e-07
1.7485e-06
8.87753e-06
8.87761e-06
1.74806e-06
1.7485e-06
8.87809e-06
8.87817e-06
1.74806e-06
2.26163e-05
2.2616e-05
2.2617e-05
2.26166e-05
3.47993e-07
2.98544e-06
2.9862e-06
2.98595e-06
2.9867e-06
2.26154e-05
2.26162e-05
2.2616e-05
2.26168e-05
2.26142e-05
2.2614e-05
2.26158e-05
2.26153e-05
2.98578e-06
2.98659e-06
3.47661e-07
2.98518e-06
2.98596e-06
2.26138e-05
2.26142e-05
2.26152e-05
2.26155e-05
3.47905e-07
2.985e-06
2.98578e-06
2.98566e-06