/*--------------------------------*- C++ -*----------------------------------*\
| =========                 |                                                 |
| \\      /  F ield         | OpenFOAM: The Open Source CFD Toolbox           |
|  \\    /   O peration     | Version:  2206                                  |
|   \\  /    A nd           | Website:  www.openfoam.com                      |
|    \\/     M anipulation  |                                                 |
\*---------------------------------------------------------------------------*/
FoamFile
{
    version     2.0;
    format      ascii;
    arch        "LSB;label=32;scalar=64";
    class       surfaceScalarField;
    location    "27.5";
    object      phi;
}
// * * * * * * * * * * * * * * * * * * * * * * * * * * * * * * * * * * * * * //

dimensions      [0 3 -1 0 0 0 0];

oriented        oriented;

internalField   nonuniform List<scalar> 
82717
(
1.46887e-09
1.58837e-09
-1.57246e-09
-1.53568e-09
0.00108515
-0.00108517
-1.20306e-06
-1.59858e-09
2.77912e-09
0.00108517
-2.51319e-07
1.20566e-06
2.50234e-07
8.88989e-07
-2.51817e-07
-8.88694e-07
2.48819e-07
-1.19765e-06
-1.59655e-09
2.75731e-09
0.00108483
-2.51296e-07
1.20022e-06
2.50212e-07
8.8882e-07
-2.54465e-07
-8.88566e-07
2.51505e-07
1.2313e-06
1.19777e-06
-2.29487e-07
-2.34773e-07
0.000264688
1.55586e-09
1.66142e-09
-0.00108515
-1.59078e-09
-1.57037e-09
0.00108515
-0.00108517
-1.20304e-06
-1.71275e-09
2.70866e-09
0.00108517
-2.51284e-07
1.20567e-06
2.50262e-07
8.89023e-07
-2.51749e-07
-8.88649e-07
2.4888e-07
-0.00108483
-1.19764e-06
-1.68336e-09
2.727e-09
0.00108483
-2.51276e-07
1.20022e-06
2.50226e-07
8.88852e-07
-2.544e-07
-8.88521e-07
2.51563e-07
-0.000266653
1.23129e-06
1.19775e-06
-2.29464e-07
-2.34751e-07
0.000264688
1.64489e-09
1.81262e-09
-0.00108515
-1.64096e-09
-1.59524e-09
0.00108515
-0.00108517
-1.20302e-06
-1.79651e-09
2.70145e-09
0.00108517
-2.51272e-07
1.20569e-06
2.50281e-07
8.89061e-07
-2.51708e-07
-8.88622e-07
2.48933e-07
-0.00108483
-1.1976e-06
-1.81405e-09
2.64803e-09
0.00108483
-2.51238e-07
1.20026e-06
2.50268e-07
8.88893e-07
-2.54347e-07
-8.88494e-07
2.51624e-07
-0.000266653
1.23126e-06
1.19772e-06
-2.29434e-07
-2.34718e-07
0.000264688
1.87664e-09
2.07589e-09
-0.00108515
-1.76931e-09
-1.69337e-09
0.00108515
-0.00108517
-1.20301e-06
-2.05451e-09
2.61457e-09
0.00108517
-2.51254e-07
1.20573e-06
2.50334e-07
8.89157e-07
-2.51625e-07
-8.8855e-07
2.49047e-07
-0.00108483
-1.19758e-06
-2.06842e-09
2.54781e-09
0.00108483
-2.51207e-07
1.2003e-06
2.50318e-07
8.88963e-07
-2.54297e-07
-8.88438e-07
2.51701e-07
-0.000266652
1.23122e-06
1.19769e-06
-2.29397e-07
-2.34679e-07
0.000264688
1.91474e-09
2.12463e-09
-0.00108515
-1.78925e-09
-1.72237e-09
0.00108515
-0.00108517
-1.20293e-06
-2.30377e-09
2.42161e-09
0.00108517
-2.51178e-07
1.20583e-06
2.50406e-07
8.89228e-07
-2.516e-07
-8.88531e-07
2.4912e-07
-0.00108483
-1.19759e-06
-2.12528e-09
2.52271e-09
0.00108483
-2.5122e-07
1.20032e-06
2.50352e-07
8.88994e-07
-2.543e-07
-8.88453e-07
2.51747e-07
-0.000266652
1.23124e-06
1.19772e-06
-2.29416e-07
-2.34687e-07
0.000264687
3.6279e-10
7.31346e-10
-0.00108514
-1.18262e-09
-9.87349e-10
0.00108515
-0.00108517
-1.20345e-06
-2.92918e-10
3.71277e-09
0.00108517
-2.51788e-07
1.20526e-06
2.49771e-07
8.88589e-07
-2.52273e-07
-8.89079e-07
2.48363e-07
-0.00108483
-1.19785e-06
-6.93832e-10
3.2697e-09
0.00108483
-2.51548e-07
1.19999e-06
2.49949e-07
8.88513e-07
-2.54722e-07
-8.88837e-07
2.51207e-07
-0.000266651
1.23147e-06
1.19798e-06
-2.29686e-07
-2.34937e-07
0.000264687
9.97574e-10
1.18985e-09
-0.00108515
-1.28223e-09
-1.30054e-09
0.00108515
-0.00108517
-1.20309e-06
-1.46145e-09
2.67269e-09
0.00108517
-2.51346e-07
1.2057e-06
2.50277e-07
8.88993e-07
-2.52089e-07
-8.88889e-07
2.48764e-07
-0.00108483
-1.19776e-06
-1.27422e-09
2.79632e-09
0.00108483
-2.51417e-07
1.20024e-06
2.5025e-07
8.88773e-07
-2.54819e-07
-8.88801e-07
2.51372e-07
-0.000266653
1.23141e-06
1.19786e-06
-2.29643e-07
-2.34942e-07
0.000264688
1.54276e-09
1.68391e-09
-0.00108515
-1.58078e-09
-1.5508e-09
0.00108515
-0.00108517
-1.20304e-06
-1.79096e-09
2.68349e-09
0.00108517
-2.5128e-07
1.20572e-06
2.50325e-07
8.89092e-07
-2.51814e-07
-8.88686e-07
2.48936e-07
-0.00108483
-1.19764e-06
-1.78654e-09
2.66638e-09
0.00108483
-2.51281e-07
1.2003e-06
2.50308e-07
8.88917e-07
-2.54476e-07
-8.8857e-07
2.51613e-07
-0.000266653
1.23128e-06
1.19775e-06
-2.29463e-07
-2.34748e-07
0.000264688
1.37823e-09
1.52301e-09
-0.00108514
-1.52734e-09
-1.53996e-09
0.00108514
-0.00108517
-1.20308e-06
-1.60917e-09
2.79472e-09
0.00108517
-2.54095e-07
1.20568e-06
2.52967e-07
8.89047e-07
-2.51905e-07
-8.88749e-07
2.48904e-07
-0.00108483
-1.19768e-06
-1.63739e-09
2.74393e-09
0.00108483
-2.51329e-07
1.20026e-06
2.50266e-07
8.88882e-07
-2.54509e-07
-8.8861e-07
2.51579e-07
-0.000266653
1.23132e-06
1.19779e-06
-2.29506e-07
-2.34789e-07
0.000264688
1.48657e-09
1.59062e-09
-0.00108514
-1.53702e-09
-1.53389e-09
0.00108514
-0.00108517
-1.20307e-06
-1.61421e-09
2.76333e-09
0.00108517
-2.54101e-07
1.20567e-06
2.53018e-07
8.89047e-07
-2.51898e-07
-8.88744e-07
2.48906e-07
-0.00108483
-1.19768e-06
-1.61014e-09
2.74506e-09
0.00108483
-2.51331e-07
1.20026e-06
2.50265e-07
8.88876e-07
-2.54514e-07
-8.88615e-07
2.51575e-07
-0.000266653
1.23133e-06
1.19779e-06
-2.29509e-07
-2.34792e-07
0.000264688
1.48841e-09
1.60214e-09
-0.00108514
-1.55038e-09
-1.53548e-09
0.00108514
-0.00108517
-1.20307e-06
-1.62002e-09
2.76351e-09
0.00108517
-2.54095e-07
1.20568e-06
2.53026e-07
8.8905e-07
-2.51897e-07
-8.88742e-07
2.48907e-07
-0.00108483
-1.19768e-06
-1.60859e-09
2.74028e-09
0.00108483
-2.5133e-07
1.20026e-06
2.50266e-07
8.88876e-07
-2.54515e-07
-8.88616e-07
2.51574e-07
-0.000266653
1.23133e-06
1.19779e-06
-2.29508e-07
-2.34792e-07
0.000264688
1.48667e-09
1.61168e-09
-0.00108514
-1.55836e-09
-1.53914e-09
0.00108514
-0.00108517
-1.20307e-06
-1.62233e-09
2.76075e-09
0.00108517
-2.54092e-07
1.20568e-06
2.53029e-07
8.8905e-07
-2.51898e-07
-8.88742e-07
2.48908e-07
-0.00108483
-1.19768e-06
-1.6083e-09
2.73806e-09
0.00108483
-2.51329e-07
1.20026e-06
2.50267e-07
8.88876e-07
-2.54515e-07
-8.88616e-07
2.51574e-07
-0.000266653
1.23133e-06
1.19779e-06
-2.29507e-07
-2.34792e-07
0.000264688
1.48762e-09
1.62e-09
-0.00108514
-1.56359e-09
-1.54083e-09
0.00108514
-0.00108517
-1.20307e-06
-1.62346e-09
2.76402e-09
0.00108517
-2.54094e-07
1.20567e-06
2.53028e-07
8.89051e-07
-2.51898e-07
-8.88741e-07
2.4891e-07
-0.00108483
-1.19768e-06
-1.60792e-09
2.7375e-09
0.00108483
-2.51329e-07
1.20026e-06
2.50268e-07
8.88876e-07
-2.54516e-07
-8.88616e-07
2.51575e-07
-0.000266653
1.23133e-06
1.19779e-06
-2.29508e-07
-2.34793e-07
0.000264688
1.49042e-09
1.62409e-09
-0.00108514
-1.56787e-09
-1.54307e-09
0.00108514
-0.00108517
-1.20307e-06
-1.62142e-09
2.76164e-09
0.00108517
-2.5409e-07
1.20567e-06
2.53027e-07
8.8905e-07
-2.51895e-07
-8.88741e-07
2.48905e-07
-0.00108483
-1.19768e-06
-1.6058e-09
2.73848e-09
0.00108483
-2.51328e-07
1.20026e-06
2.50267e-07
8.88875e-07
-2.54514e-07
-8.88616e-07
2.51573e-07
-0.000266653
1.23133e-06
1.19779e-06
-2.29508e-07
-2.34792e-07
0.000264688
1.4838e-09
1.61713e-09
-0.00108514
-1.56347e-09
-1.53853e-09
0.00108514
-0.00108517
-1.20307e-06
-1.61439e-09
2.7661e-09
0.00108517
-2.54094e-07
1.20567e-06
2.53024e-07
8.89048e-07
-2.51897e-07
-8.88742e-07
2.48904e-07
-0.00108483
-1.19768e-06
-1.5999e-09
2.74368e-09
0.00108483
-2.51328e-07
1.20026e-06
2.50263e-07
8.88871e-07
-2.54512e-07
-8.88614e-07
2.51567e-07
-0.000266653
1.23133e-06
1.19779e-06
-2.29509e-07
-2.34791e-07
0.000264688
1.47008e-09
1.60911e-09
-0.00108514
-1.55593e-09
-1.53125e-09
0.00108514
-0.00108517
-1.20307e-06
-1.6172e-09
2.76731e-09
0.00108517
-2.54093e-07
1.20567e-06
2.53024e-07
8.89047e-07
-2.51894e-07
-8.88739e-07
2.48902e-07
-0.00108483
-1.19768e-06
-1.59607e-09
2.74735e-09
0.00108483
-2.51329e-07
1.20026e-06
2.50262e-07
8.88869e-07
-2.54511e-07
-8.88613e-07
2.51565e-07
-0.000266653
1.23133e-06
1.19779e-06
-2.29508e-07
-2.34791e-07
0.000264688
1.46001e-09
1.60557e-09
-0.00108514
-1.55325e-09
-1.52554e-09
0.00108514
-0.00108517
-1.20307e-06
-1.6112e-09
2.76931e-09
0.00108517
-2.54091e-07
1.20567e-06
2.53021e-07
8.89036e-07
-2.51887e-07
-8.88733e-07
2.48892e-07
-0.00108483
-1.19767e-06
-1.59159e-09
2.74879e-09
0.00108483
-2.51325e-07
1.20025e-06
2.50257e-07
8.88859e-07
-2.54503e-07
-8.88607e-07
2.51553e-07
-0.000266653
1.23132e-06
1.19779e-06
-2.29505e-07
-2.3479e-07
0.000264688
1.46738e-09
1.61566e-09
-0.00108514
-1.55737e-09
-1.52723e-09
0.00108514
-0.00108517
-1.20306e-06
-1.61841e-09
2.76745e-09
0.00108517
-2.54076e-07
1.20566e-06
2.53008e-07
8.89017e-07
-2.51861e-07
-8.88707e-07
2.48874e-07
-0.00108483
-1.19766e-06
-1.60182e-09
2.74336e-09
0.00108483
-2.51304e-07
1.20024e-06
2.50241e-07
8.88838e-07
-2.54474e-07
-8.8858e-07
2.51531e-07
-0.000266653
1.23131e-06
1.19778e-06
-2.2949e-07
-2.34775e-07
0.000264688
1.24462e-06
0.00108483
-1.24208e-06
2.58341e-07
-2.59514e-07
-8.94278e-07
2.5151e-07
-2.54643e-07
8.94507e-07
-1.20566e-06
0.000266698
-0.000264717
2.32287e-07
2.37127e-07
-1.20306e-06
2.50235e-07
-2.51319e-07
2.48813e-07
-2.51824e-07
1.23663e-06
1.20043e-06
-2.26955e-07
-2.32185e-07
0.000264693
-1.23918e-06
-1.20301e-06
0.000266671
-0.000264693
2.29533e-07
2.3477e-07
2.94077e-09
0.00108439
-2.59465e-07
1.23917e-06
2.58286e-07
8.8888e-07
-2.51818e-07
-8.88674e-07
2.48743e-07
-1.24209e-06
-1.26995e-09
-2.33812e-09
0.00108483
-2.5952e-07
1.24462e-06
2.58333e-07
8.94471e-07
-2.54642e-07
-8.94319e-07
2.51508e-07
0.00108439
-1.57132e-09
-0.00108439
2.91634e-09
-1.23662e-06
2.583e-07
-2.59451e-07
-8.88629e-07
2.48799e-07
-2.51761e-07
8.8892e-07
1.24463e-06
0.00108483
-1.40121e-09
-0.00108483
2.84544e-09
-1.24207e-06
2.58355e-07
-2.59498e-07
-8.94243e-07
2.51559e-07
-2.54588e-07
8.94496e-07
-2.29716e-07
-2.34564e-07
0.000264717
-1.20567e-06
0.000266698
-0.000264717
2.32314e-07
2.37146e-07
2.76281e-09
0.00108544
-2.54077e-07
1.203e-06
2.52961e-07
8.91763e-07
-2.54591e-07
-8.91408e-07
2.51585e-07
-1.2367e-06
-1.42282e-09
2.93886e-09
0.0010845
-2.59515e-07
1.23922e-06
2.5832e-07
8.91601e-07
-2.54559e-07
-8.91411e-07
2.51489e-07
0.00108544
-1.66021e-09
-0.00108544
2.71639e-09
-1.20042e-06
2.52978e-07
-2.54064e-07
-8.91366e-07
2.51629e-07
-2.54542e-07
8.91794e-07
1.23923e-06
0.0010845
-1.48733e-09
-0.0010845
2.91284e-09
-1.23669e-06
2.58331e-07
-2.59501e-07
-8.91374e-07
2.51536e-07
-2.54508e-07
8.9163e-07
-1.43174e-09
2.92482e-09
0.0010843
-2.53961e-07
1.23382e-06
2.52795e-07
8.88907e-07
-2.51798e-07
2.48711e-07
-8.88711e-07
-1.69983e-09
-0.00108517
2.70722e-09
-1.20304e-06
2.50258e-07
-2.51291e-07
-8.8865e-07
2.48869e-07
8.89018e-07
-2.5176e-07
1.23383e-06
0.0010843
-1.49902e-09
-0.0010843
2.90926e-09
-1.23129e-06
2.52805e-07
-2.53947e-07
-8.88669e-07
2.48756e-07
-2.51748e-07
8.88935e-07
-2.2715e-07
-2.3454e-07
0.000264675
-1.20023e-06
0.000266648
-0.000264675
2.29717e-07
2.37102e-07
-1.55776e-09
2.76253e-09
0.00108535
-2.51355e-07
1.20032e-06
2.50267e-07
8.8644e-07
-2.51887e-07
2.48867e-07
-8.86131e-07
-1.68076e-09
-0.00108483
2.72613e-09
-1.19764e-06
2.50224e-07
-2.51281e-07
-8.88473e-07
2.51533e-07
8.88906e-07
-2.54433e-07
1.20033e-06
0.00108535
-1.61271e-09
-0.00108535
2.7344e-09
-1.19776e-06
2.50277e-07
-2.51341e-07
-8.86092e-07
2.48909e-07
-2.5184e-07
8.86468e-07
-0.000264688
2.32037e-07
2.37334e-07
1.23662e-06
1.20042e-06
-2.26934e-07
-2.32166e-07
0.000264693
-1.23919e-06
-1.20569e-06
0.000266669
-0.000264693
2.32106e-07
2.37412e-07
2.91329e-09
0.00108439
-2.59448e-07
1.23917e-06
2.58303e-07
8.88915e-07
-2.51752e-07
-8.88628e-07
2.48803e-07
-1.24206e-06
-1.41532e-09
2.84998e-09
0.00108483
-2.59491e-07
1.24463e-06
2.5836e-07
8.94495e-07
-2.54579e-07
-8.9424e-07
2.51566e-07
0.00108439
-1.62128e-09
-0.00108439
2.85315e-09
-1.2366e-06
2.58335e-07
-2.59422e-07
-8.91311e-07
2.48844e-07
-2.54426e-07
8.88929e-07
1.24466e-06
0.00108483
-1.59012e-09
-0.00108483
2.82298e-09
-1.24204e-06
2.58388e-07
-2.59467e-07
-8.9421e-07
2.51621e-07
-2.54535e-07
8.94536e-07
-2.29686e-07
-2.34541e-07
0.000264717
-1.20569e-06
0.000266698
-0.000264717
2.32342e-07
2.37182e-07
2.73188e-09
0.00108544
-2.54064e-07
1.203e-06
2.53012e-07
8.91792e-07
-2.54532e-07
-8.91368e-07
2.51636e-07
-1.23668e-06
-1.49906e-09
2.91422e-09
0.0010845
-2.59496e-07
1.23923e-06
2.58333e-07
8.91631e-07
-2.54495e-07
-8.9137e-07
2.51542e-07
0.00108543
-1.77333e-09
-0.00108544
2.6927e-09
-1.20308e-06
2.55771e-07
-2.5681e-07
-8.91357e-07
2.5168e-07
-2.54501e-07
8.91814e-07
1.23925e-06
0.0010845
-1.59353e-09
-0.0010845
2.85419e-09
-1.23666e-06
2.58364e-07
-2.59471e-07
-8.91358e-07
2.5159e-07
-2.54465e-07
8.9166e-07
-1.52451e-09
2.89437e-09
0.0010843
-2.53939e-07
1.23383e-06
2.52811e-07
8.88939e-07
-2.51732e-07
2.48769e-07
-8.88666e-07
-1.79938e-09
-0.00108517
2.68141e-09
-1.20303e-06
2.50281e-07
-2.5127e-07
-8.88633e-07
2.48923e-07
8.89048e-07
-2.51715e-07
1.23385e-06
0.0010843
-1.5908e-09
-0.0010843
2.85091e-09
-1.23127e-06
2.52839e-07
-2.53918e-07
-8.8866e-07
2.48809e-07
-2.51703e-07
8.88954e-07
-2.27129e-07
-2.34518e-07
0.000264675
-1.20025e-06
0.000266648
-0.000264675
2.29752e-07
2.37135e-07
-1.64278e-09
2.72977e-09
0.00108535
-2.51334e-07
1.20034e-06
2.50282e-07
8.86473e-07
-2.51825e-07
2.48922e-07
-8.86088e-07
-1.78e-09
-0.00108483
2.67363e-09
-1.19762e-06
2.50257e-07
-2.51253e-07
-8.88462e-07
2.51587e-07
8.88927e-07
-2.54388e-07
1.20035e-06
0.00108535
-1.75139e-09
-0.00108535
2.70343e-09
-1.19774e-06
2.50309e-07
-2.51314e-07
-8.86076e-07
2.48967e-07
-2.51791e-07
8.86494e-07
-0.000264688
2.32069e-07
2.3737e-07
1.23658e-06
1.20306e-06
-2.29469e-07
-2.34751e-07
0.000264693
-1.23923e-06
-1.20572e-06
0.000266668
-0.000264693
2.32152e-07
2.37459e-07
2.80954e-09
0.00108439
-2.59408e-07
1.23921e-06
2.58344e-07
8.91627e-07
-2.51714e-07
-8.88616e-07
2.51554e-07
-1.24204e-06
-1.54939e-09
2.84993e-09
0.00108483
-2.5947e-07
1.24466e-06
2.58389e-07
8.94536e-07
-2.5454e-07
-8.94206e-07
2.51615e-07
0.00108438
-1.77117e-09
-0.00108439
2.78329e-09
-1.23656e-06
2.58377e-07
-2.59383e-07
-8.91257e-07
2.51597e-07
-2.54381e-07
8.91673e-07
1.24469e-06
0.00108483
-1.74355e-09
-0.00108483
2.79322e-09
-1.24202e-06
2.58414e-07
-2.59461e-07
-8.94194e-07
2.51658e-07
-2.54534e-07
8.94573e-07
-2.29666e-07
-2.3451e-07
0.000264717
-1.2057e-06
0.000266697
-0.000264716
2.32342e-07
2.37237e-07
2.67414e-09
0.00108543
-2.56794e-07
1.2057e-06
2.55783e-07
8.91837e-07
-2.54479e-07
-8.91338e-07
2.51699e-07
-1.23665e-06
-1.65612e-09
2.82881e-09
0.0010845
-2.5946e-07
1.23926e-06
2.58372e-07
8.9169e-07
-2.54435e-07
-8.91326e-07
2.51613e-07
0.00108543
-1.93097e-09
-0.00108543
2.65331e-09
-1.20305e-06
2.55813e-07
-2.56768e-07
-8.91306e-07
2.51739e-07
-2.54451e-07
8.91877e-07
1.23928e-06
0.0010845
-1.741e-09
-0.0010845
2.81252e-09
-1.23664e-06
2.58398e-07
-2.59441e-07
-8.91313e-07
2.51643e-07
-2.54417e-07
8.91709e-07
-1.6444e-09
2.81337e-09
0.0010843
-2.53903e-07
1.23387e-06
2.52851e-07
8.88976e-07
-2.51681e-07
2.48829e-07
-8.88641e-07
-2.006e-09
-0.00108517
2.64293e-09
-1.20303e-06
2.50294e-07
-2.51278e-07
-8.88575e-07
2.49004e-07
8.89124e-07
-2.51664e-07
1.23388e-06
0.0010843
-1.74819e-09
-0.0010843
2.80723e-09
-1.23124e-06
2.52875e-07
-2.53886e-07
-8.88614e-07
2.48866e-07
-2.51655e-07
8.89012e-07
-2.27092e-07
-2.34487e-07
0.000264675
-1.20027e-06
0.000266647
-0.000264675
2.2979e-07
2.37178e-07
-1.816e-09
2.68046e-09
0.00108535
-2.513e-07
1.20037e-06
2.50321e-07
8.86518e-07
-2.51767e-07
2.48989e-07
-8.86055e-07
-1.93405e-09
-0.00108483
2.63347e-09
-1.19759e-06
2.50289e-07
-2.51223e-07
-8.88414e-07
2.51643e-07
8.88986e-07
-2.5434e-07
1.20038e-06
0.00108535
-1.91336e-09
-0.00108535
2.66427e-09
-1.19771e-06
2.50345e-07
-2.51281e-07
-8.86029e-07
2.49025e-07
-2.51742e-07
8.86552e-07
-0.000264688
2.32112e-07
2.37414e-07
1.23654e-06
1.20303e-06
-2.29426e-07
-2.34709e-07
0.000264693
-1.23921e-06
-1.2057e-06
0.000266668
-0.000264692
2.32162e-07
2.37479e-07
2.69345e-09
0.00108438
-2.59366e-07
1.23925e-06
2.58402e-07
8.91701e-07
-2.5436e-07
-8.91234e-07
2.5163e-07
-1.24199e-06
-1.75378e-09
2.76534e-09
0.00108483
-2.59429e-07
1.24473e-06
2.58457e-07
8.94611e-07
-2.5448e-07
-8.94167e-07
2.51719e-07
0.00108438
-1.69228e-09
-0.00108438
2.87321e-09
-1.23656e-06
2.58365e-07
-2.59396e-07
-8.9125e-07
2.51611e-07
-2.54376e-07
8.91679e-07
1.2447e-06
0.00108483
-1.91731e-09
-0.00108483
2.73774e-09
-1.24202e-06
2.58493e-07
-2.59437e-07
-8.91468e-07
2.49047e-07
-2.51762e-07
8.91963e-07
-2.29655e-07
-2.34454e-07
0.000264716
-1.20571e-06
0.000266694
-0.000264713
2.34961e-07
2.34714e-07
2.57468e-09
0.00108543
-2.56752e-07
1.20575e-06
2.55838e-07
8.91907e-07
-2.54429e-07
-8.91282e-07
2.51777e-07
-1.23662e-06
-1.88991e-09
2.72623e-09
0.0010845
-2.59424e-07
1.23931e-06
2.58428e-07
8.91741e-07
-2.54393e-07
-8.91288e-07
2.51682e-07
0.00108543
-1.83515e-09
-0.00108543
2.74274e-09
-1.20305e-06
2.55794e-07
-2.56788e-07
-8.91301e-07
2.51757e-07
-2.54453e-07
8.91885e-07
1.23927e-06
0.0010845
-1.66976e-09
-0.0010845
2.86949e-09
-1.23664e-06
2.58394e-07
-2.59452e-07
-8.91308e-07
2.51661e-07
-2.54419e-07
8.91721e-07
-1.8916e-09
2.70784e-09
0.0010843
-2.53868e-07
1.23391e-06
2.52904e-07
8.89046e-07
-2.51633e-07
2.48905e-07
-8.88587e-07
-2.01816e-09
-0.00108517
2.6105e-09
-1.203e-06
2.50307e-07
-2.51233e-07
-8.88575e-07
2.49041e-07
8.89143e-07
-2.51653e-07
1.23387e-06
0.0010843
-1.65122e-09
-0.0010843
2.87907e-09
-1.23124e-06
2.52872e-07
-2.53896e-07
-8.88615e-07
2.48881e-07
-2.5166e-07
8.89015e-07
-2.27062e-07
-2.34448e-07
0.000264675
-1.20026e-06
0.000266647
-0.000264674
2.29812e-07
2.37199e-07
-2.07695e-09
2.58243e-09
0.00108535
-2.51264e-07
1.20041e-06
2.50374e-07
8.86587e-07
-2.51718e-07
2.49066e-07
-8.86001e-07
-1.8545e-09
-0.00108483
2.69748e-09
-1.1976e-06
2.50282e-07
-2.51235e-07
-8.88411e-07
2.51659e-07
8.88993e-07
-2.54343e-07
1.20036e-06
0.00108535
-1.8396e-09
-0.00108535
2.74814e-09
-1.19772e-06
2.50332e-07
-2.51299e-07
-8.8602e-07
2.49048e-07
-2.51739e-07
8.86566e-07
-0.000264687
2.32126e-07
2.37438e-07
1.23656e-06
1.20305e-06
-2.29445e-07
-2.3472e-07
0.000264692
-1.23921e-06
-1.20565e-06
0.000266667
-0.000264692
2.3207e-07
2.37423e-07
2.68661e-09
0.00108438
-2.59378e-07
1.23927e-06
2.58435e-07
8.9172e-07
-2.54358e-07
-8.91256e-07
2.51671e-07
-1.24194e-06
-2.15031e-09
2.538e-09
0.00108483
-2.59399e-07
1.24481e-06
2.58592e-07
8.92049e-07
-2.51709e-07
-8.91417e-07
2.49132e-07
0.00108438
-1.22458e-09
-0.00108438
2.77952e-09
-1.23654e-06
2.58315e-07
-2.5942e-07
-8.91341e-07
2.51473e-07
-2.54465e-07
8.91547e-07
1.2444e-06
0.00108483
-5.87554e-10
-0.00108483
3.62376e-09
-1.24221e-06
2.55359e-07
-2.57017e-07
-8.91767e-07
2.48579e-07
-2.52098e-07
8.91597e-07
-2.32129e-07
-2.31877e-07
0.000264713
-1.20539e-06
0.000266694
-0.00026471
2.32028e-07
2.34374e-07
2.58541e-09
0.00108543
-2.56775e-07
1.20575e-06
2.5586e-07
8.91942e-07
-2.54432e-07
-8.91294e-07
2.51826e-07
-1.23663e-06
-1.96042e-09
2.69393e-09
0.0010845
-2.59436e-07
1.23933e-06
2.58462e-07
8.9178e-07
-2.54393e-07
-8.91296e-07
2.51733e-07
0.00108543
-1.65219e-09
-0.00108543
2.96274e-09
-1.20307e-06
2.557e-07
-2.56853e-07
-8.91335e-07
2.51669e-07
-2.54503e-07
8.91811e-07
1.23924e-06
0.0010845
-1.37605e-09
-0.0010845
2.99919e-09
-1.23664e-06
2.58317e-07
-2.59499e-07
-8.91351e-07
2.51557e-07
-2.54484e-07
8.91636e-07
-1.92675e-09
2.69226e-09
0.0010843
-2.53878e-07
1.23393e-06
2.5294e-07
8.8907e-07
-2.51639e-07
2.48946e-07
-8.88605e-07
-9.7454e-10
-0.00108517
3.53248e-09
-1.20324e-06
2.49909e-07
-2.51563e-07
-8.88753e-07
2.48682e-07
8.88893e-07
-2.51928e-07
1.23386e-06
0.00108429
-1.2478e-09
-0.00108429
2.8262e-09
-1.23122e-06
2.52811e-07
-2.53926e-07
-8.88681e-07
2.48756e-07
-2.51743e-07
8.88907e-07
-2.27071e-07
-2.3446e-07
0.000264674
-1.20023e-06
0.000266646
-0.000264674
2.29737e-07
2.37129e-07
-2.14028e-09
2.58795e-09
0.00108535
-2.51287e-07
1.20042e-06
2.50397e-07
8.86625e-07
-2.51714e-07
2.49118e-07
-8.86009e-07
-1.57812e-09
-0.00108483
2.84416e-09
-1.1976e-06
2.50202e-07
-2.51286e-07
-8.8845e-07
2.51561e-07
8.88912e-07
-2.54401e-07
1.20032e-06
0.00108535
-1.64937e-09
-0.00108535
2.94735e-09
-1.19773e-06
2.50239e-07
-2.51363e-07
-8.86051e-07
2.4896e-07
-2.5179e-07
8.86494e-07
-0.000264687
2.32041e-07
2.37378e-07
1.23679e-06
1.20332e-06
-2.29715e-07
-2.34967e-07
0.000264692
-1.23905e-06
-1.20554e-06
0.000266669
-0.000264693
2.31825e-07
2.37157e-07
3.25254e-09
0.00108438
-2.59685e-07
1.23896e-06
2.58056e-07
8.91213e-07
-2.54808e-07
-8.91678e-07
2.51098e-07
-1.24241e-06
-6.14031e-12
3.78578e-09
0.00108483
-2.57228e-07
1.24426e-06
2.55224e-07
8.91364e-07
-2.52438e-07
-8.92052e-07
2.48297e-07
0.00108439
-5.57473e-10
-0.00108439
3.30632e-09
-1.2369e-06
2.58162e-07
-2.59767e-07
-8.9181e-07
2.51046e-07
-2.55105e-07
8.91306e-07
1.24461e-06
0.00108483
-8.82211e-10
-0.00108483
2.84864e-09
-1.24219e-06
2.55628e-07
-2.56935e-07
-8.91955e-07
2.4858e-07
-2.52364e-07
8.91644e-07
-2.30157e-07
-2.32404e-07
0.00026471
-1.20566e-06
0.000266695
-0.000264712
2.32217e-07
2.34506e-07
3.36254e-09
0.00108543
-2.57114e-07
1.20541e-06
2.55451e-07
8.91463e-07
-2.54854e-07
-8.91678e-07
2.5129e-07
-1.23689e-06
-5.01317e-10
3.41973e-09
0.0010845
-2.59762e-07
1.23899e-06
2.58061e-07
8.91294e-07
-2.54824e-07
-8.91687e-07
2.51188e-07
0.00108544
-7.04387e-10
-0.00108543
3.05149e-09
-1.20337e-06
2.55608e-07
-2.57141e-07
-8.91851e-07
2.51232e-07
-2.5518e-07
8.91536e-07
1.23913e-06
0.0010845
-5.38516e-10
-0.0010845
3.15698e-09
-1.23694e-06
2.58219e-07
-2.59796e-07
-8.91863e-07
2.51118e-07
-2.55152e-07
8.91356e-07
-4.09786e-10
3.28367e-09
0.00108429
-2.54189e-07
1.23361e-06
2.52554e-07
8.88574e-07
-2.52083e-07
2.48389e-07
-8.89012e-07
-1.04578e-09
-0.00108517
2.74392e-09
-1.20317e-06
2.50236e-07
-2.5143e-07
-8.891e-07
2.48573e-07
8.88804e-07
-2.52298e-07
1.23372e-06
0.0010843
-6.21715e-10
-0.0010843
3.23345e-09
-1.23156e-06
2.52685e-07
-2.54246e-07
-8.89143e-07
2.4836e-07
-2.52374e-07
8.8868e-07
-2.27334e-07
-2.3472e-07
0.000264674
-1.20011e-06
0.000266648
-0.000264675
2.29493e-07
2.36895e-07
-7.60969e-10
3.34401e-09
0.00108535
-2.51623e-07
1.20008e-06
2.49989e-07
8.8615e-07
-2.5213e-07
2.48588e-07
-8.86388e-07
-7.81615e-10
-0.00108483
3.01497e-09
-1.19791e-06
2.50101e-07
-2.51584e-07
-8.88951e-07
2.51133e-07
8.88644e-07
-2.5506e-07
1.20023e-06
0.00108535
-7.26046e-10
-0.00108535
2.99192e-09
-1.19801e-06
2.50169e-07
-2.51631e-07
-8.8657e-07
2.48512e-07
-2.52464e-07
8.86206e-07
-0.000264688
2.31832e-07
2.37119e-07
1.23675e-06
1.20323e-06
-2.29717e-07
-2.3498e-07
0.000264693
-1.23926e-06
-1.20306e-06
0.000266666
-0.000264694
2.32114e-07
2.37416e-07
3.08488e-09
0.00108439
-2.59607e-07
1.23918e-06
2.58307e-07
8.91469e-07
-2.54908e-07
-8.91636e-07
2.51234e-07
-1.24209e-06
-1.1986e-09
2.75012e-09
0.00108483
-2.56838e-07
1.24468e-06
2.55691e-07
8.91766e-07
-2.52198e-07
-8.91807e-07
2.48717e-07
0.00108439
-1.54949e-09
-0.00108439
2.84923e-09
-1.23661e-06
2.58399e-07
-2.5944e-07
-8.91365e-07
2.48817e-07
-2.54527e-07
8.88971e-07
1.24472e-06
0.00108483
-1.48893e-09
-0.00108483
2.77592e-09
-1.24205e-06
2.58463e-07
-2.59501e-07
-8.94327e-07
2.51627e-07
-2.54676e-07
8.94551e-07
-2.29798e-07
-2.32086e-07
0.000264712
-1.2057e-06
0.000266698
-0.000264715
2.32348e-07
2.34671e-07
2.85108e-09
0.00108544
-2.56979e-07
1.20566e-06
2.55746e-07
8.91716e-07
-2.54964e-07
-8.91654e-07
2.51447e-07
-1.23679e-06
-1.06103e-09
2.92926e-09
0.0010845
-2.59624e-07
1.23926e-06
2.58372e-07
8.91544e-07
-2.5493e-07
-8.91662e-07
2.51341e-07
0.00108544
-1.73539e-09
-0.00108544
2.72958e-09
-1.2031e-06
2.53086e-07
-2.5683e-07
-8.91413e-07
2.517e-07
-2.54626e-07
8.91879e-07
1.23933e-06
0.0010845
-1.60091e-09
-0.0010845
2.74824e-09
-1.23666e-06
2.58447e-07
-2.59472e-07
-8.91413e-07
2.51599e-07
-2.5458e-07
8.91709e-07
-1.14096e-09
2.99968e-09
0.0010843
-2.5408e-07
1.23385e-06
2.52833e-07
8.88868e-07
-2.52148e-07
2.48582e-07
-8.88937e-07
-1.80936e-09
-0.00108517
2.71796e-09
-1.20306e-06
2.50293e-07
-2.51317e-07
-8.88671e-07
2.48947e-07
8.89112e-07
-2.51816e-07
1.23392e-06
0.0010843
-1.62581e-09
-0.0010843
2.79262e-09
-1.23127e-06
2.52915e-07
-2.53926e-07
-8.88713e-07
2.48818e-07
-2.51819e-07
8.89009e-07
-2.27326e-07
-2.34698e-07
0.000264675
-1.20032e-06
0.000266648
-0.000264675
2.29799e-07
2.37185e-07
-1.22913e-09
2.76157e-09
0.00108535
-2.5146e-07
1.20037e-06
2.5032e-07
8.86391e-07
-2.52245e-07
2.48729e-07
-8.8637e-07
-1.83369e-09
-0.00108483
2.62558e-09
-1.19762e-06
2.50334e-07
-2.51259e-07
-8.88513e-07
2.51599e-07
8.88984e-07
-2.54502e-07
1.20042e-06
0.00108535
-1.70107e-09
-0.00108535
2.61155e-09
-1.19774e-06
2.50385e-07
-2.51319e-07
-8.86141e-07
2.48967e-07
-2.51915e-07
8.86537e-07
-0.000264688
2.32116e-07
2.37414e-07
1.23662e-06
1.20043e-06
-2.29508e-07
-2.34754e-07
0.000264694
-1.24188e-06
-1.20304e-06
0.000266672
-0.000264694
2.29523e-07
2.37368e-07
2.87541e-09
0.00108439
-2.56729e-07
1.23924e-06
2.55633e-07
8.88953e-07
-2.51798e-07
-8.88692e-07
2.48775e-07
-1.24204e-06
-1.5499e-09
2.73901e-09
0.00108483
-2.5947e-07
1.24472e-06
2.58486e-07
8.94569e-07
-2.54618e-07
-8.94298e-07
2.51666e-07
0.00108439
-1.35071e-09
-0.00108439
2.93361e-09
-1.23666e-06
2.58343e-07
-2.59497e-07
-8.88738e-07
2.46048e-07
-2.51874e-07
8.88915e-07
1.24466e-06
0.00108483
-1.42373e-09
-0.00108483
2.85892e-09
-1.2421e-06
2.58386e-07
-2.59551e-07
-8.97065e-07
2.51595e-07
-2.54691e-07
8.9724e-07
-2.29691e-07
-2.31973e-07
0.000264715
-1.20568e-06
0.000266695
-0.000264714
2.3236e-07
2.37154e-07
2.7426e-09
0.00108544
-2.54111e-07
1.20304e-06
2.53057e-07
8.91864e-07
-2.54621e-07
-8.91422e-07
2.51693e-07
-1.23668e-06
-1.56931e-09
2.79555e-09
0.0010845
-2.59496e-07
1.23931e-06
2.58421e-07
8.91697e-07
-2.54572e-07
-8.91419e-07
2.51593e-07
0.00108545
-1.27038e-08
-0.00108544
2.78802e-09
-1.20045e-06
2.53072e-07
-2.54123e-07
-8.91446e-07
2.51681e-07
-2.54636e-07
8.91849e-07
1.23928e-06
0.0010845
-1.45491e-09
-0.0010845
2.86924e-09
-1.23671e-06
2.58387e-07
-2.59535e-07
-8.91454e-07
2.51562e-07
-2.54603e-07
8.91666e-07
-1.60053e-09
2.8235e-09
0.0010843
-2.53944e-07
1.23391e-06
2.52894e-07
8.88997e-07
-2.51814e-07
2.48812e-07
-8.88721e-07
-1.66193e-09
-0.00108517
2.76327e-09
-1.20307e-06
2.52977e-07
-2.54073e-07
-8.88742e-07
2.4891e-07
8.8905e-07
-2.51897e-07
1.23388e-06
0.0010843
-1.48974e-09
-0.0010843
2.89749e-09
-1.23132e-06
2.52859e-07
-2.53984e-07
-8.88752e-07
2.48787e-07
-2.51838e-07
8.88969e-07
-2.27125e-07
-2.34512e-07
0.000264675
-1.20027e-06
0.000266648
-0.000264675
2.29746e-07
2.37136e-07
-1.66812e-09
2.65063e-09
0.00108535
-2.51341e-07
1.2004e-06
2.50361e-07
8.86527e-07
-2.51909e-07
2.48963e-07
-8.86146e-07
-1.68158e-09
-0.00108483
2.72716e-09
-1.19767e-06
2.50272e-07
-2.51322e-07
-8.8855e-07
2.51567e-07
8.88945e-07
-2.5452e-07
1.20038e-06
0.00108535
-1.62228e-09
-0.00108535
2.73494e-09
-1.19779e-06
2.50327e-07
-2.51382e-07
-8.86172e-07
2.48943e-07
-2.51929e-07
8.86506e-07
-0.000264688
2.32066e-07
2.37367e-07
1.23931e-06
1.20047e-06
-2.26997e-07
-2.34739e-07
0.000264694
-1.24187e-06
-1.20304e-06
0.000266669
-0.000264694
2.29565e-07
2.39897e-07
2.94131e-09
0.00108439
-2.59468e-07
1.24187e-06
2.5834e-07
8.88899e-07
-2.49149e-07
-8.88771e-07
2.46059e-07
-1.24211e-06
-1.43349e-09
2.88911e-09
0.00108483
-2.59568e-07
1.24467e-06
2.58385e-07
8.97259e-07
-2.54681e-07
-8.97055e-07
2.51612e-07
0.00108438
-1.45703e-09
-0.00108438
2.90198e-09
-1.23931e-06
2.58334e-07
-2.59474e-07
-8.91372e-07
2.46083e-07
-2.49148e-07
8.91603e-07
1.24468e-06
0.00108483
-1.42303e-09
-0.00108483
2.89492e-09
-1.24209e-06
2.58404e-07
-2.59544e-07
-8.97047e-07
2.51586e-07
-2.54698e-07
8.97249e-07
-2.2973e-07
-2.32051e-07
0.000264712
-1.20568e-06
0.000266693
-0.000264712
2.3233e-07
2.37177e-07
2.78992e-09
0.00108545
-2.54119e-07
1.20303e-06
2.53061e-07
8.91833e-07
-2.5464e-07
-8.91455e-07
2.51666e-07
-1.23672e-06
-1.44174e-09
2.89026e-09
0.0010845
-2.59543e-07
1.23927e-06
2.5838e-07
8.91662e-07
-2.54608e-07
-8.91459e-07
2.51558e-07
0.00108545
-1.60234e-09
-0.00108545
2.75276e-09
-1.20047e-06
2.53054e-07
-2.54135e-07
-8.91468e-07
2.51654e-07
-2.54653e-07
8.9182e-07
1.23927e-06
0.0010845
-1.44086e-09
-0.0010845
2.90623e-09
-1.23672e-06
2.5838e-07
-2.59544e-07
-8.91461e-07
2.51558e-07
-2.5461e-07
8.91661e-07
-1.47283e-09
2.89749e-09
0.0010843
-2.53988e-07
1.23387e-06
2.52855e-07
8.88966e-07
-2.51843e-07
2.48783e-07
-8.88758e-07
-1.62377e-09
-0.00108517
2.75543e-09
-1.20306e-06
2.53024e-07
-2.54094e-07
-8.88741e-07
2.48911e-07
8.89049e-07
-2.51894e-07
1.23387e-06
0.0010843
-1.44798e-09
-0.0010843
2.90524e-09
-1.23132e-06
2.52853e-07
-2.53991e-07
-8.88762e-07
2.48779e-07
-2.51847e-07
8.88961e-07
-2.2717e-07
-2.34555e-07
0.000264675
-1.20026e-06
0.000266648
-0.000264675
2.29741e-07
2.37129e-07
-1.61631e-09
2.75083e-09
0.00108535
-2.51386e-07
1.20037e-06
2.50324e-07
8.86504e-07
-2.51932e-07
2.4894e-07
-8.86175e-07
-1.63527e-09
-0.00108483
2.73462e-09
-1.19768e-06
2.50268e-07
-2.51329e-07
-8.88562e-07
2.51559e-07
8.88935e-07
-2.54531e-07
1.20037e-06
0.00108535
-1.59624e-09
-0.00108535
2.75631e-09
-1.19779e-06
2.50321e-07
-2.51389e-07
-8.86178e-07
2.48938e-07
-2.51935e-07
8.86501e-07
-0.000264688
2.32061e-07
2.37362e-07
1.23931e-06
1.20046e-06
-2.27009e-07
-2.3731e-07
0.000264694
-1.24187e-06
-1.20304e-06
0.000266669
-0.000264694
2.29566e-07
2.39897e-07
2.90449e-09
0.00108438
-2.59476e-07
1.24187e-06
2.5833e-07
8.91605e-07
-2.49147e-07
-8.91369e-07
2.46084e-07
-1.24209e-06
-1.4345e-09
2.91186e-09
0.00108483
-2.59549e-07
1.24467e-06
2.58396e-07
8.97248e-07
-2.54695e-07
-8.97051e-07
2.51588e-07
0.00108438
-1.45544e-09
-0.00108438
2.91069e-09
-1.23931e-06
2.58325e-07
-2.59485e-07
-8.91372e-07
2.46079e-07
-2.49158e-07
8.91604e-07
1.24467e-06
0.00108483
-1.44996e-09
-0.00108483
2.9151e-09
-1.2421e-06
2.58399e-07
-2.59548e-07
-8.97043e-07
2.51594e-07
-2.54688e-07
8.97253e-07
-2.29737e-07
-2.34573e-07
0.000264712
-1.20568e-06
0.000266693
-0.000264712
2.32327e-07
2.37169e-07
2.74945e-09
0.00108545
-2.54129e-07
1.20304e-06
2.53057e-07
8.91818e-07
-2.54656e-07
-8.91469e-07
2.51652e-07
-1.23672e-06
-1.44149e-09
2.92008e-09
0.0010845
-2.59548e-07
1.23927e-06
2.58376e-07
8.9166e-07
-2.54609e-07
-8.91461e-07
2.51557e-07
0.00108545
-1.62263e-09
-0.00108545
2.74044e-09
-1.20046e-06
2.53061e-07