/*--------------------------------*- C++ -*----------------------------------*\
| =========                 |                                                 |
| \\      /  F ield         | OpenFOAM: The Open Source CFD Toolbox           |
|  \\    /   O peration     | Version:  2206                                  |
|   \\  /    A nd           | Website:  www.openfoam.com                      |
|    \\/     M anipulation  |                                                 |
\*---------------------------------------------------------------------------*/
FoamFile
{
    version     2.0;
    format      ascii;
    arch        "LSB;label=32;scalar=64";
    class       volScalarField;
    location    "36.5";
    object      epsilon;
}
// * * * * * * * * * * * * * * * * * * * * * * * * * * * * * * * * * * * * * //

dimensions      [0 2 -3 0 0 0 0];

internalField   nonuniform List<scalar> 
28448
(
2.46148e-07
2.75514e-07
2.75525e-07
3.10348e-07
2.46149e-07
2.75517e-07
2.75528e-07
3.10356e-07
2.4615e-07
2.75521e-07
2.75532e-07
3.10365e-07
2.46151e-07
2.75526e-07
2.75536e-07
3.10373e-07
2.46152e-07
2.7553e-07
2.7554e-07
3.10381e-07
2.4615e-07
2.75532e-07
2.75541e-07
3.10389e-07
2.46148e-07
2.75534e-07
2.75544e-07
3.10394e-07
2.46146e-07
2.75535e-07
2.75542e-07
3.10395e-07
2.46103e-07
2.75473e-07
2.75468e-07
3.10329e-07
2.46045e-07
2.75415e-07
2.75426e-07
3.10248e-07
2.46042e-07
2.75414e-07
2.75426e-07
3.10263e-07
2.46042e-07
2.75413e-07
2.75425e-07
3.10257e-07
2.46042e-07
2.75413e-07
2.75425e-07
3.10258e-07
2.46042e-07
2.75413e-07
2.75425e-07
3.10259e-07
2.46042e-07
2.75413e-07
2.75425e-07
3.1026e-07
2.46042e-07
2.75413e-07
2.75425e-07
3.10257e-07
2.46042e-07
2.75413e-07
2.75425e-07
3.10256e-07
2.46046e-07
2.75428e-07
3.10058e-07
2.75538e-07
2.75545e-07
3.10047e-07
2.75522e-07
2.7555e-07
2.75514e-07
2.75541e-07
3.1007e-07
2.75524e-07
2.75523e-07
3.10071e-07
3.10339e-07
3.10073e-07
2.75538e-07
2.75545e-07
2.75538e-07
2.75544e-07
3.10329e-07
3.10063e-07
2.75522e-07
2.75552e-07
2.75522e-07
2.75553e-07
2.75543e-07
2.75516e-07
2.75544e-07
3.10349e-07
3.10078e-07
2.75525e-07
2.75528e-07
2.75526e-07
3.1008e-07
3.10352e-07
3.10079e-07
2.75541e-07
2.75547e-07
2.75542e-07
2.75548e-07
3.10342e-07
3.10069e-07
2.75525e-07
2.75556e-07
2.75526e-07
2.75556e-07
2.75547e-07
2.75521e-07
2.75547e-07
3.10357e-07
3.10086e-07
2.75529e-07
2.75532e-07
2.75529e-07
3.10088e-07
3.10358e-07
3.10087e-07
2.75545e-07
2.75551e-07
2.75546e-07
2.75552e-07
3.10349e-07
3.10076e-07
2.75529e-07
2.75559e-07
2.7553e-07
2.75561e-07
2.7555e-07
2.75525e-07
2.75552e-07
3.10365e-07
3.10094e-07
2.75532e-07
2.75536e-07
2.75534e-07
3.10096e-07
3.10366e-07
3.10095e-07
2.75549e-07
2.75555e-07
2.75551e-07
2.75557e-07
3.10356e-07
3.10085e-07
2.75533e-07
2.75564e-07
2.75535e-07
2.75565e-07
2.75555e-07
2.75529e-07
2.75556e-07
3.10373e-07
3.10103e-07
2.75537e-07
2.75539e-07
2.75538e-07
3.10105e-07
3.10374e-07
3.10102e-07
2.75554e-07
2.7556e-07
2.75554e-07
2.75561e-07
3.10365e-07
3.10093e-07
2.75538e-07
2.75568e-07
2.75538e-07
2.75568e-07
2.75559e-07
2.75532e-07
2.75558e-07
3.10382e-07
3.10111e-07
2.7554e-07
2.75541e-07
2.7554e-07
3.10113e-07
3.10382e-07
3.1011e-07
2.75557e-07
2.75563e-07
2.75557e-07
2.75562e-07
3.10372e-07
3.101e-07
2.75541e-07
2.7557e-07
2.75541e-07
2.75568e-07
2.7556e-07
2.75534e-07
2.75558e-07
3.1039e-07
3.10116e-07
2.75543e-07
2.75543e-07
2.75541e-07
3.10118e-07
3.10389e-07
3.10115e-07
2.75559e-07
2.75564e-07
2.75558e-07
2.75563e-07
3.1038e-07
3.10104e-07
2.75544e-07
2.7557e-07
2.75543e-07
2.7557e-07
2.75561e-07
2.75536e-07
2.7556e-07
3.10395e-07
3.10119e-07
2.75543e-07
2.75545e-07
2.75542e-07
3.10121e-07
3.10393e-07
3.10084e-07
2.75558e-07
2.75564e-07
2.75529e-07
2.75534e-07
3.10383e-07
3.10072e-07
2.75543e-07
2.75568e-07
2.75511e-07
2.7552e-07
2.75558e-07
2.75499e-07
2.75509e-07
3.10396e-07
3.10066e-07
2.7554e-07
2.75493e-07
2.75491e-07
3.10068e-07
3.1035e-07
3.09978e-07
2.75505e-07
2.7551e-07
2.75448e-07
2.75453e-07
3.10339e-07
3.09967e-07
2.75487e-07
2.75496e-07
2.75431e-07
2.75454e-07
2.75485e-07
2.75421e-07
2.75444e-07
3.10329e-07
3.09973e-07
2.75467e-07
2.75428e-07
2.75426e-07
3.09974e-07
3.10249e-07
3.09973e-07
2.75442e-07
2.75448e-07
2.75438e-07
2.75445e-07
3.10238e-07
3.09963e-07
2.75425e-07
2.75453e-07
2.75422e-07
2.75451e-07
2.75444e-07
2.75414e-07
2.75442e-07
3.10248e-07
3.09984e-07
2.75426e-07
2.75426e-07
2.75424e-07
3.09986e-07
3.10254e-07
3.09975e-07
2.75441e-07
2.75447e-07
2.75438e-07
2.75444e-07
3.10244e-07
3.09965e-07
2.75424e-07
2.75453e-07
2.75421e-07
2.7545e-07
2.75444e-07
2.75413e-07
2.75441e-07
3.10263e-07
3.09979e-07
2.75426e-07
2.75425e-07
2.75423e-07
3.09982e-07
3.10252e-07
3.09975e-07
2.75439e-07
2.75445e-07
2.75437e-07
2.75444e-07
3.10242e-07
3.09965e-07
2.75423e-07
2.75451e-07
2.75421e-07
2.7545e-07
2.75442e-07
2.75413e-07
2.75441e-07
3.10256e-07
3.09981e-07
2.75424e-07
2.75425e-07
2.75423e-07
3.09983e-07
3.10253e-07
3.09975e-07
2.75439e-07
2.75446e-07
2.75437e-07
2.75444e-07
3.10243e-07
3.09965e-07
2.75423e-07
2.75452e-07
2.75421e-07
2.7545e-07
2.75443e-07
2.75413e-07
2.75441e-07
3.10258e-07
3.09982e-07
2.75425e-07
2.75425e-07
2.75423e-07
3.09984e-07
3.10254e-07
3.09973e-07
2.75439e-07
2.75445e-07
2.75437e-07
2.75444e-07
3.10244e-07
3.09962e-07
2.75422e-07
2.75452e-07
2.75421e-07
2.7545e-07
2.75443e-07
2.75413e-07
2.75441e-07
3.1026e-07
3.0998e-07
2.75424e-07
2.75425e-07
2.75423e-07
3.09983e-07
3.10251e-07
3.09975e-07
2.75439e-07
2.75445e-07
2.75437e-07
2.75444e-07
3.10241e-07
3.09964e-07
2.75423e-07
2.75451e-07
2.75421e-07
2.7545e-07
2.75442e-07
2.75413e-07
2.75441e-07
3.10259e-07
3.0998e-07
2.75424e-07
2.75425e-07
2.75423e-07
3.09981e-07
3.10251e-07
3.09977e-07
2.75439e-07
2.75445e-07
2.75437e-07
2.75444e-07
3.10241e-07
3.09966e-07
2.75423e-07
2.75452e-07
2.75421e-07
2.7545e-07
2.75443e-07
2.75413e-07
2.75441e-07
3.10257e-07
3.09981e-07
2.75425e-07
2.75425e-07
2.75423e-07
3.09981e-07
3.10254e-07
3.09976e-07
2.75439e-07
2.75445e-07
2.75439e-07
3.10244e-07
2.75422e-07
2.75451e-07
2.75421e-07
2.7545e-07
2.75442e-07
2.75443e-07
3.10258e-07
3.09982e-07
2.75424e-07
2.75425e-07
2.75425e-07
3.09983e-07
3.10257e-07
2.75423e-07
2.75452e-07
3.10259e-07
2.46148e-07
2.4615e-07
2.46153e-07
2.46151e-07
1.82349e-06
8.85615e-06
1.82401e-06
8.85567e-06
2.10271e-05
2.10265e-05
1.82342e-06
8.85736e-06
1.82388e-06
8.85686e-06
2.4615e-07
2.46155e-07
2.46153e-07
2.46149e-07
2.46148e-07
2.46155e-07
2.46153e-07
5.36532e-07
1.46311e-06
2.56376e-07
2.75516e-07
5.36697e-07
1.46229e-06
2.56379e-07
2.10264e-05
2.10259e-05
5.36568e-07
2.56379e-07
1.46312e-06
2.75527e-07
5.36738e-07
2.56381e-07
1.46232e-06
3.28339e-06
3.28439e-06
3.10077e-07
3.28289e-06
3.28389e-06
1.82365e-06
8.85582e-06
1.82422e-06
8.85543e-06
2.10253e-05
2.10252e-05
1.82359e-06
8.85703e-06
1.82409e-06
8.8566e-06
2.4615e-07
2.46155e-07
2.46153e-07
2.4615e-07
2.46149e-07
2.46153e-07
2.46152e-07
5.36566e-07
1.46329e-06
2.56379e-07
2.7552e-07
5.36732e-07
1.46244e-06
2.56381e-07
2.10251e-05
2.10251e-05
5.366e-07
2.56381e-07
1.46325e-06
2.75531e-07
5.36771e-07
2.56383e-07
1.46243e-06
3.28364e-06
3.28461e-06
3.10084e-07
3.28313e-06
3.28411e-06
1.82374e-06
8.85575e-06
1.82433e-06
8.85542e-06
2.10246e-05
2.10248e-05
1.82368e-06
8.85691e-06
1.82421e-06
8.85654e-06
2.46151e-07
2.46155e-07
2.46154e-07
2.46151e-07
2.46151e-07
2.46155e-07
2.46154e-07
5.36595e-07
1.46339e-06
2.56381e-07
2.75524e-07
5.36763e-07
1.46251e-06
2.56383e-07
2.10246e-05
2.10248e-05
5.36628e-07
2.56383e-07
1.46334e-06
2.75535e-07
5.36801e-07
2.56385e-07
1.4625e-06
3.28382e-06
3.2848e-06
3.10093e-07
3.28326e-06
3.28425e-06
1.82378e-06
8.85574e-06
1.82438e-06
8.85541e-06
2.10246e-05
2.10249e-05
1.82371e-06
8.85689e-06
1.82426e-06
8.85654e-06
2.46153e-07
2.46157e-07
2.46156e-07
2.46152e-07
2.46152e-07
2.46154e-07
2.46155e-07
5.36616e-07
1.46343e-06
2.56383e-07
2.75529e-07
5.36787e-07
1.46255e-06
2.56386e-07
2.10245e-05
2.10248e-05
5.36648e-07
2.56385e-07
1.46338e-06
2.75539e-07
5.36824e-07
2.56387e-07
1.46252e-06
3.28386e-06
3.28484e-06
3.10101e-07
3.28328e-06
3.28427e-06
1.82377e-06
8.85575e-06
1.82439e-06
8.85544e-06
2.10248e-05
2.10252e-05
1.8237e-06
8.85694e-06
1.82426e-06
8.85661e-06
2.46152e-07
2.46155e-07
2.46154e-07
2.4615e-07
2.4615e-07
2.46154e-07
2.46151e-07
5.36627e-07
1.46346e-06
2.56384e-07
2.75532e-07
5.36803e-07
1.46257e-06
2.56385e-07
2.10248e-05
2.10252e-05
5.36655e-07
2.56385e-07
1.46339e-06
2.75542e-07
5.36836e-07
2.56386e-07
1.46254e-06
3.2839e-06
3.28488e-06
3.10109e-07
3.28334e-06
3.28433e-06
1.82375e-06
8.85583e-06
1.82437e-06
8.85554e-06
2.10252e-05
2.10256e-05
1.82367e-06
8.85703e-06
1.82424e-06
8.85671e-06
2.4615e-07
2.46153e-07
2.46151e-07
2.46149e-07
2.46147e-07
2.46151e-07
2.46148e-07
5.36635e-07
1.46347e-06
2.56383e-07
2.75534e-07
5.3681e-07
1.46258e-06
2.56384e-07
2.10253e-05
2.10258e-05
5.36662e-07
2.56384e-07
1.4634e-06
2.75543e-07
5.36842e-07
2.56385e-07
1.46254e-06
3.28395e-06
3.28494e-06
3.10116e-07
3.28336e-06
3.28435e-06
1.82374e-06
8.85597e-06
1.82436e-06
8.85578e-06
2.10259e-05
2.10263e-05
1.82367e-06
8.85716e-06
1.82424e-06
8.85694e-06
2.46147e-07
2.4615e-07
2.46148e-07
2.46147e-07
2.46146e-07
2.46148e-07
2.46146e-07
5.3664e-07
1.46347e-06
2.56382e-07
2.75536e-07
5.36817e-07
1.46259e-06
2.56383e-07
2.1026e-05
2.10262e-05
5.3667e-07
2.56383e-07
1.46341e-06
2.75546e-07
5.3685e-07
2.56384e-07
1.46258e-06
3.28392e-06
3.28491e-06
3.1012e-07
3.28339e-06
3.28439e-06
1.82392e-06
8.85634e-06
1.82448e-06
8.85606e-06
2.10257e-05
2.10256e-05
1.82384e-06
8.85755e-06
1.82437e-06
8.85726e-06
2.46145e-07
2.46147e-07
2.46145e-07
2.46126e-07
2.46124e-07
2.46111e-07
2.46109e-07
5.36621e-07
1.46355e-06
2.5638e-07
2.75531e-07
5.36823e-07
1.46266e-06
2.56377e-07
2.10255e-05
2.10253e-05
5.36641e-07
2.56381e-07
1.46351e-06
2.75535e-07
5.36845e-07
2.56376e-07
1.46263e-06
3.28408e-06
3.28507e-06
3.10108e-07
3.28348e-06
3.28448e-06
1.82372e-06
8.85629e-06
1.82444e-06
8.85587e-06
2.10248e-05
2.10249e-05
1.82361e-06
8.85751e-06
1.82428e-06
8.85705e-06
2.46101e-07
2.46088e-07
2.46086e-07
2.46051e-07
2.4605e-07
2.4605e-07
2.46048e-07
5.3649e-07
1.46348e-06
2.56323e-07
2.75452e-07
5.36712e-07
1.4625e-06
2.56305e-07
2.10246e-05
2.10247e-05
5.3651e-07
2.56317e-07
1.46338e-06
2.7545e-07
5.3673e-07
2.563e-07
1.46245e-06
3.28395e-06
3.28494e-06
3.10007e-07
3.28328e-06
3.28427e-06
1.82355e-06
8.85608e-06
1.8242e-06
8.85571e-06
2.10245e-05
2.10248e-05
1.82347e-06
8.8573e-06
1.82406e-06
8.8569e-06
2.46046e-07
2.46049e-07
2.46047e-07
2.46042e-07
2.46043e-07
2.46047e-07
2.46045e-07
5.36442e-07
1.4633e-06
2.56274e-07
2.75416e-07
5.36629e-07
1.46238e-06
2.56275e-07
2.10244e-05
2.10246e-05
5.36472e-07
2.56276e-07
1.46324e-06
2.75427e-07
5.36656e-07
2.56277e-07
1.46236e-06
3.28377e-06
3.28476e-06
3.09976e-07
3.28316e-06
3.28415e-06
1.82352e-06
8.85602e-06
1.82413e-06
8.85568e-06
2.10245e-05
2.10247e-05
1.82344e-06
8.85724e-06
1.824e-06
8.85687e-06
2.46045e-07
2.46048e-07
2.46047e-07
2.46042e-07
2.46043e-07
2.46047e-07
2.46045e-07
5.36438e-07
1.46326e-06
2.56274e-07
2.75415e-07
5.36617e-07
1.46236e-06
2.56275e-07
2.10244e-05
2.10246e-05
5.36476e-07
2.56276e-07
1.46321e-06
2.75427e-07
5.36653e-07
2.56277e-07
1.46235e-06
3.28373e-06
3.28472e-06
3.09986e-07
3.28314e-06
3.28413e-06
1.82351e-06
8.85601e-06
1.82412e-06
8.85568e-06
2.10245e-05
2.10247e-05
1.82344e-06
8.85723e-06
1.824e-06
8.85687e-06
2.46044e-07
2.46048e-07
2.46046e-07
2.46042e-07
2.46043e-07
2.46047e-07
2.46045e-07
5.36436e-07
1.46325e-06
2.56273e-07
2.75415e-07
5.36615e-07
1.46236e-06
2.56274e-07
2.10244e-05
2.10246e-05
5.36477e-07
2.56275e-07
1.46321e-06
2.75426e-07
5.36655e-07
2.56277e-07
1.46235e-06
3.28373e-06
3.28471e-06
3.09982e-07
3.28314e-06
3.28413e-06
1.82351e-06
8.85601e-06
1.82412e-06
8.85568e-06
2.10245e-05
2.10247e-05
1.82344e-06
8.85723e-06
1.824e-06
8.85687e-06
2.46044e-07
2.46048e-07
2.46046e-07
2.46042e-07
2.46043e-07
2.46047e-07
2.46045e-07
5.36436e-07
1.46325e-06
2.56273e-07
2.75415e-07
5.36615e-07
1.46236e-06
2.56274e-07
2.10244e-05
2.10246e-05
5.36475e-07
2.56275e-07
1.46321e-06
2.75426e-07
5.36657e-07
2.56277e-07
1.46235e-06
3.28373e-06
3.28471e-06
3.09982e-07
3.28314e-06
3.28413e-06
1.82351e-06
8.85601e-06
1.82412e-06
8.85568e-06
2.10245e-05
2.10247e-05
1.82344e-06
8.85723e-06
1.824e-06
8.85687e-06
2.46044e-07
2.46048e-07
2.46046e-07
2.46042e-07
2.46043e-07
2.46047e-07
2.46045e-07
5.36436e-07
1.46325e-06
2.56273e-07
2.75415e-07
5.36614e-07
1.46236e-06
2.56275e-07
2.10244e-05
2.10246e-05
5.36469e-07
2.56275e-07
1.46321e-06
2.75426e-07
5.36651e-07
2.56277e-07
1.46235e-06
3.28373e-06
3.28471e-06
3.09981e-07
3.28314e-06
3.28413e-06
1.82351e-06
8.85601e-06
1.82412e-06
8.85568e-06
2.10245e-05
2.10247e-05
1.82344e-06
8.85723e-06
1.824e-06
8.85687e-06
2.46044e-07
2.46048e-07
2.46046e-07
2.46042e-07
2.46043e-07
2.46047e-07
2.46045e-07
5.36436e-07
1.46325e-06
2.56273e-07
2.75415e-07
5.36614e-07
1.46235e-06
2.56274e-07
2.10244e-05
2.10246e-05
5.36465e-07
2.56275e-07
1.46321e-06
2.75426e-07
5.36646e-07
2.56277e-07
1.46234e-06
3.28373e-06
3.28471e-06
3.09984e-07
3.28314e-06
3.28413e-06
1.82351e-06
8.85601e-06
1.82412e-06
8.85568e-06
2.10245e-05
2.10247e-05
1.82344e-06
8.85723e-06
1.82399e-06
8.85687e-06
2.46044e-07
2.46048e-07
2.46046e-07
2.46042e-07
2.46043e-07
2.46047e-07
2.46045e-07
5.36436e-07
1.46325e-06
2.56273e-07
2.75415e-07
5.36614e-07
1.46235e-06
2.56274e-07
2.10244e-05
2.10246e-05
5.36461e-07
2.56275e-07
1.46321e-06
2.75426e-07
5.36641e-07
2.56277e-07
1.46234e-06
3.28372e-06
3.28471e-06
3.09985e-07
3.28314e-06
3.28413e-06
1.82351e-06
8.85601e-06
1.82412e-06
8.85568e-06
2.10245e-05
2.10247e-05
1.82344e-06
8.85723e-06
1.82399e-06
8.85687e-06
2.46044e-07
2.46048e-07
2.46046e-07
2.46043e-07
2.46047e-07
2.46047e-07
2.46047e-07
5.36436e-07
1.46325e-06
2.56273e-07
2.75414e-07
5.36614e-07
1.46235e-06
2.56275e-07
2.10244e-05
2.10246e-05
5.36458e-07
2.56275e-07
1.46321e-06
2.75426e-07
5.36638e-07
2.56277e-07
1.46234e-06
3.28372e-06
3.28471e-06
3.09983e-07
3.28313e-06
3.28413e-06
8.85723e-06
1.82399e-06
2.4605e-07
2.10244e-05
1.4632e-06
2.10269e-05
2.10279e-05
3.28266e-06
3.2836e-06
8.85586e-06
1.82336e-06
8.85684e-06
1.82339e-06
1.46213e-06
2.56378e-07
5.36504e-07
1.46233e-06
2.5638e-07
5.36509e-07
2.10276e-05
3.28348e-06
3.28244e-06
2.10248e-05
8.85705e-06
1.82328e-06
1.46249e-06
2.56382e-07
5.36539e-07
1.82378e-06
8.85669e-06
8.8572e-06
1.82335e-06
5.36694e-07
2.7555e-07
2.56383e-07
1.46254e-06
2.56383e-07
1.46335e-06
5.36526e-07
5.36684e-07
1.46218e-06
2.56376e-07
2.56376e-07
5.36515e-07
1.82397e-06
8.85621e-06
1.82348e-06
5.36688e-07
2.75541e-07
2.56379e-07
1.46225e-06
2.56379e-07
1.46302e-06
5.3652e-07
1.82396e-06
8.85678e-06
8.85727e-06
1.82347e-06
2.10267e-05
2.10275e-05
3.10334e-07
3.28347e-06
3.28277e-06
3.28406e-06
3.28334e-06
2.1027e-05
2.10277e-05
5.36725e-07
2.75524e-07
2.56379e-07
1.46223e-06
2.56379e-07
1.463e-06
5.36552e-07
5.36692e-07
2.75523e-07
2.5638e-07
1.46242e-06
2.5638e-07
1.4632e-06
5.36524e-07
1.82401e-06
8.85692e-06
8.85741e-06
1.82351e-06
1.82378e-06
8.85749e-06
8.85798e-06
1.82335e-06
3.10337e-07
3.28278e-06
3.28379e-06
3.28333e-06
3.28437e-06
2.10272e-05
2.10279e-05
2.10277e-05
2.10284e-05
2.10265e-05
2.10258e-05
2.10274e-05
2.10267e-05
3.28322e-06
3.28416e-06
3.10068e-07
3.28275e-06
3.2837e-06
2.1025e-05
2.10254e-05
2.10259e-05
2.10263e-05
3.10347e-07
3.28287e-06
3.28383e-06
3.28331e-06
3.28427e-06
1.82352e-06
8.85713e-06
1.82403e-06
8.85665e-06
5.36522e-07
1.463e-06
2.56378e-07
2.75538e-07
5.36691e-07
1.46223e-06
2.56378e-07
5.36528e-07
1.46321e-06
2.5638e-07
2.75544e-07
5.36696e-07
1.46243e-06
2.5638e-07
1.82412e-06
8.85551e-06
8.85596e-06
1.82359e-06
1.82415e-06
8.85649e-06
8.85695e-06
1.82362e-06
5.36709e-07
2.75538e-07
1.46231e-06
2.56377e-07
1.4631e-06
2.56377e-07
5.36541e-07
5.36715e-07
2.75544e-07
1.46251e-06
2.56379e-07
1.46331e-06
2.56378e-07
5.36547e-07
3.28409e-06
3.28321e-06
3.10057e-07
3.28366e-06
3.28288e-06
2.10246e-05
2.1024e-05
2.10257e-05
2.10261e-05
3.10337e-07
3.28383e-06
3.28309e-06
3.28426e-06
3.28357e-06
2.10233e-05
2.10237e-05
5.36558e-07
1.46341e-06
2.56382e-07
2.75522e-07
5.36722e-07
1.46259e-06
2.56382e-07
1.82345e-06
8.857e-06
1.82392e-06
8.85651e-06
5.36544e-07
2.56386e-07
1.46346e-06
2.75552e-07
5.36711e-07
2.56386e-07
1.46263e-06
1.824e-06
8.8567e-06
8.85719e-06
1.82352e-06
5.36741e-07
2.75522e-07
1.46267e-06
2.56381e-07
1.4635e-06
2.56381e-07
5.36577e-07
1.82402e-06
8.85639e-06
8.85684e-06
1.82353e-06
5.36729e-07
2.75552e-07
2.56385e-07
1.46269e-06
2.56385e-07
1.46354e-06
5.36562e-07
1.82359e-06
8.85654e-06
1.82411e-06
8.85606e-06
5.36538e-07
2.56382e-07
1.46312e-06
2.75543e-07
5.36705e-07
2.56382e-07
1.46233e-06
1.82358e-06
8.85708e-06
1.8241e-06
8.85661e-06
5.36718e-07
2.75516e-07
1.46238e-06
2.56379e-07
1.4632e-06
2.56379e-07
5.3655e-07
1.82421e-06
8.85595e-06
8.85639e-06
1.82366e-06
5.36722e-07
2.75544e-07
2.56381e-07
1.4624e-06
2.56381e-07
1.4632e-06
5.36555e-07
1.8242e-06
8.85648e-06
8.85692e-06
1.82366e-06
3.28417e-06
3.28334e-06
3.10076e-07
3.2837e-06
3.28287e-06
2.10266e-05
2.10261e-05
2.10254e-05
2.10257e-05
3.10353e-07
3.28387e-06
3.28299e-06
3.28438e-06
3.28344e-06
2.10254e-05
2.10257e-05
5.36541e-07
2.56381e-07
1.4633e-06
2.75525e-07
5.36708e-07
2.56381e-07
1.4625e-06
1.82362e-06
8.85722e-06
1.82415e-06
8.85675e-06
1.82345e-06
8.85778e-06
1.82392e-06
8.85732e-06
5.36758e-07
2.75527e-07
2.56381e-07
1.46238e-06
2.56381e-07
1.46319e-06
5.36585e-07
5.36724e-07
2.75525e-07
2.56381e-07
1.46257e-06
2.56381e-07
1.46338e-06
5.36558e-07
1.82425e-06
8.85662e-06
8.85706e-06
1.82369e-06
1.82402e-06
8.85721e-06
8.85763e-06
1.82353e-06
2.10267e-05
2.10262e-05
2.10272e-05
2.10267e-05
3.10356e-07
3.28302e-06
3.284e-06
3.28348e-06
3.28446e-06
2.10256e-05
2.10259e-05
2.10261e-05
2.10264e-05
2.10247e-05
2.10245e-05
2.10257e-05
2.10254e-05
3.28343e-06
3.2844e-06
3.10076e-07
3.28298e-06
3.28395e-06
2.10242e-05
2.10243e-05
2.10252e-05
2.10252e-05
3.10355e-07
3.28308e-06
3.28405e-06
3.28354e-06
3.28452e-06
1.82368e-06
8.85681e-06
1.82423e-06
8.85639e-06
5.36559e-07
1.46317e-06
2.5638e-07
2.75541e-07
5.36728e-07
1.46236e-06
2.5638e-07
5.36565e-07
1.46338e-06
2.56381e-07
2.75547e-07
5.36734e-07
1.46257e-06
2.56381e-07
1.82427e-06
8.85541e-06
8.85576e-06
1.82371e-06
1.8243e-06
8.85635e-06
8.85672e-06
1.82373e-06
5.36746e-07
2.75541e-07
1.46241e-06
2.56379e-07
1.46322e-06
2.56379e-07
5.36577e-07
5.36752e-07
2.75548e-07
1.46262e-06
2.5638e-07
1.46344e-06
2.5638e-07
5.36582e-07
3.28441e-06
3.28374e-06
3.10066e-07
3.28396e-06
3.28316e-06
2.10231e-05
2.10229e-05
2.10249e-05
2.1025e-05
3.10344e-07
3.28406e-06
3.28315e-06
3.28454e-06
3.28379e-06
2.10225e-05
2.10227e-05
5.36595e-07
1.46357e-06
2.56383e-07
2.75525e-07
5.36759e-07
1.46273e-06
2.56384e-07
1.82359e-06
8.85674e-06
1.82409e-06
8.85635e-06
5.36579e-07
2.56387e-07
1.4636e-06
2.75556e-07
5.36747e-07
2.56387e-07
1.46275e-06
1.82415e-06
8.85655e-06
8.85695e-06
1.82364e-06
5.36778e-07
2.75525e-07
1.46278e-06
2.56382e-07
1.46363e-06
2.56382e-07
5.36613e-07
1.82415e-06
8.85634e-06
8.85671e-06
1.82363e-06
5.36764e-07
2.75556e-07
2.56386e-07
1.46279e-06
2.56386e-07
1.46365e-06
5.36596e-07
1.82372e-06
8.8563e-06
1.82428e-06
8.85589e-06
5.36572e-07
2.56383e-07
1.46326e-06
2.75547e-07
5.3674e-07
2.56383e-07
1.46245e-06
1.82371e-06
8.8568e-06
1.82427e-06
8.85642e-06
5.36751e-07
2.7552e-07
1.46249e-06
2.56381e-07
1.46334e-06
2.56381e-07
5.36582e-07
1.82433e-06
8.85588e-06
8.85625e-06
1.82376e-06
5.36756e-07
2.75547e-07
2.56383e-07
1.46249e-06
2.56382e-07
1.46331e-06
5.36588e-07
1.82432e-06
8.8564e-06
8.85675e-06
1.82375e-06
3.28453e-06
3.28356e-06
3.10083e-07
3.28398e-06
3.28309e-06
2.10252e-05
2.10251e-05
2.10249e-05
2.1025e-05
3.10361e-07
3.28406e-06
3.28318e-06
3.28463e-06
3.28366e-06
2.10249e-05
2.10249e-05
5.36574e-07
2.56384e-07
1.46344e-06
2.75529e-07
5.36741e-07
2.56384e-07
1.46262e-06
1.82374e-06
8.85695e-06
1.82431e-06
8.85655e-06
1.82358e-06
8.85753e-06
1.82409e-06
8.85716e-06
5.36789e-07
2.75531e-07
2.56383e-07
1.46247e-06
2.56383e-07
1.46329e-06
5.36615e-07
5.36758e-07
2.75529e-07
2.56383e-07
1.46266e-06
2.56383e-07
1.46349e-06
5.36591e-07
1.82436e-06
8.85653e-06
8.85689e-06
1.82378e-06
1.82414e-06
8.85716e-06
8.8575e-06
1.82362e-06
2.10253e-05
2.10252e-05
2.10258e-05
2.10257e-05
3.10363e-07
3.28322e-06
3.2842e-06
3.2837e-06
3.28468e-06
2.10251e-05
2.10251e-05
2.10256e-05
2.10256e-05
2.10241e-05
2.10241e-05
2.1025e-05
2.1025e-05
3.28363e-06
3.28461e-06
3.10083e-07
3.28315e-06
3.28412e-06
2.10241e-05
2.1024e-05
2.1025e-05
2.10249e-05
3.10362e-07
3.28318e-06
3.28415e-06
3.28369e-06
3.28467e-06
1.82377e-06
8.85669e-06
1.82434e-06
8.85634e-06
5.36592e-07
1.46327e-06
2.56382e-07
2.75545e-07
5.36763e-07
1.46245e-06
2.56382e-07
5.36597e-07
1.46349e-06
2.56383e-07
2.75551e-07
5.36769e-07
1.46265e-06
2.56383e-07
1.82435e-06
8.85541e-06
8.85576e-06
1.82377e-06
1.82437e-06
8.85634e-06
8.85668e-06
1.82379e-06
5.36778e-07
2.75546e-07
1.46247e-06
2.56381e-07
1.4633e-06
2.56381e-07
5.36605e-07
5.36783e-07
2.75552e-07
1.46267e-06
2.56383e-07
1.46352e-06
2.56382e-07
5.3661e-07
3.28463e-06
3.28376e-06
3.10074e-07
3.28413e-06
3.28311e-06
2.10224e-05
2.10223e-05
2.10248e-05
2.10247e-05
3.10352e-07
3.28417e-06
3.2831e-06
3.28469e-06
3.28372e-06
2.10222e-05
2.10222e-05
5.36629e-07
1.46367e-06
2.56385e-07
2.75529e-07
5.36795e-07
1.46281e-06
2.56385e-07
1.82366e-06
8.85671e-06
1.82418e-06
8.85634e-06
5.36611e-07
2.56389e-07
1.46369e-06
2.75559e-07
5.36781e-07
2.56389e-07
1.46281e-06
1.82423e-06
8.85653e-06
8.8569e-06
1.8237e-06
5.3681e-07
2.7553e-07
1.46283e-06
2.56384e-07
1.4637e-06
2.56384e-07
5.36642e-07
1.82421e-06
8.85634e-06
8.85671e-06
1.82368e-06
5.36796e-07
2.7556e-07
2.56388e-07
1.46283e-06
2.56388e-07
1.46371e-06
5.36625e-07
1.82379e-06
8.85625e-06
1.82436e-06
8.85588e-06
5.36602e-07
2.56385e-07
1.46335e-06
2.7555e-07
5.36772e-07
2.56385e-07
1.46252e-06
1.82378e-06
8.85674e-06
1.82436e-06
8.85639e-06
5.36779e-07
2.75524e-07
1.46253e-06
2.56383e-07
1.46341e-06
2.56383e-07
5.36607e-07
1.82439e-06
8.85588e-06
8.85625e-06
1.8238e-06
5.36785e-07
2.75551e-07
2.56385e-07
1.46253e-06
2.56384e-07
1.46337e-06
5.36614e-07
1.82438e-06
8.85638e-06
8.85673e-06
1.8238e-06
3.2847e-06
3.28374e-06
3.10091e-07
3.2841e-06
3.28322e-06
2.10248e-05
2.10248e-05
2.10247e-05
2.10247e-05
3.10369e-07
3.28413e-06
3.28324e-06
3.28474e-06
3.28377e-06
2.10248e-05
2.10247e-05
5.36605e-07
2.56384e-07
1.46353e-06
2.75533e-07
5.36774e-07
2.56384e-07
1.46269e-06
1.8238e-06
8.85688e-06
1.82439e-06
8.85652e-06
1.82365e-06
8.8575e-06
1.82417e-06
8.85716e-06
5.36816e-07
2.75535e-07
2.56385e-07
1.46251e-06
2.56385e-07
1.46335e-06
5.36639e-07
5.36787e-07
2.75533e-07
2.56384e-07
1.46271e-06
2.56384e-07
1.46356e-06
5.36617e-07
1.82442e-06
8.85651e-06
8.85686e-06
1.82382e-06
1.8242e-06
8.85716e-06
8.8575e-06
1.82367e-06
2.10249e-05
2.1025e-05
2.10254e-05
2.10255e-05
3.10371e-07
3.28327e-06
3.28426e-06
3.28382e-06
3.28479e-06
2.1025e-05
2.10249e-05
2.10255e-05
2.10254e-05
2.1024e-05
2.10241e-05
2.10249e-05
2.10251e-05
3.28372e-06
3.28469e-06
3.10092e-07
3.28319e-06
3.28416e-06
2.10242e-05
2.1024e-05
2.10252e-05
2.1025e-05
3.1037e-07
3.28321e-06
3.28418e-06
3.28373e-06
3.2847e-06
1.82381e-06
8.85668e-06
1.82439e-06
8.85634e-06
5.36615e-07
1.46332e-06
2.56384e-07
2.75549e-07
5.3679e-07
1.46249e-06
2.56384e-07
5.3662e-07
1.46354e-06
2.56385e-07
2.75556e-07
5.36795e-07
1.46269e-06
2.56385e-07
1.82438e-06
8.85541e-06
8.85575e-06
1.82378e-06
1.82441e-06
8.85637e-06
8.85669e-06
1.82381e-06
5.368e-07
2.7555e-07
1.46249e-06
2.56383e-07
1.46333e-06
2.56383e-07
5.36623e-07
5.36805e-07
2.75556e-07
1.4627e-06
2.56385e-07
1.46355e-06
2.56384e-07
5.36628e-07
3.28472e-06
3.28372e-06
3.10082e-07
3.28419e-06
3.28312e-06
2.10221e-05
2.10222e-05
2.1025e-05
2.10248e-05
3.10361e-07
3.28421e-06
3.28314e-06
3.28475e-06
3.28374e-06
2.10223e-05
2.10222e-05
5.36652e-07
1.46372e-06
2.56387e-07
2.75533e-07
5.36823e-07
1.46284e-06
2.56387e-07
1.82369e-06
8.85671e-06
1.82423e-06
8.85634e-06
5.36635e-07
2.56391e-07
1.46373e-06
2.75564e-07
5.36808e-07
2.56391e-07
1.46285e-06
1.82426e-06
8.85657e-06
8.85692e-06
1.82371e-06
5.36832e-07
2.75534e-07
1.46285e-06
2.56386e-07
1.46373e-06
2.56386e-07
5.36659e-07
1.82423e-06
8.85636e-06
8.85671e-06
1.82369e-06
5.36817e-07
2.75565e-07
2.5639e-07
1.46285e-06
2.5639e-07
1.46374e-06
5.36642e-07
1.82381e-06
8.85625e-06
1.8244e-06
8.85588e-06
5.36624e-07
2.56387e-07
1.46339e-06
2.75555e-07
5.36797e-07
2.56387e-07
1.46254e-06
1.82381e-06
8.85673e-06
1.8244e-06
8.8564e-06
5.36799e-07
2.75529e-07
1.46256e-06
2.56384e-07
1.46344e-06
2.56385e-07
5.36624e-07
1.82441e-06
8.8559e-06
8.85626e-06
1.82381e-06
5.36806e-07
2.75556e-07
2.56387e-07
1.46255e-06
2.56386e-07
1.4634e-06
5.36632e-07
1.82441e-06
8.85643e-06
8.85675e-06
1.82381e-06
3.28476e-06
3.28378e-06
3.101e-07
3.28415e-06
3.28325e-06
2.10247e-05
2.10249e-05
2.10249e-05
2.10247e-05
3.10378e-07
3.28418e-06
3.28327e-06
3.28478e-06
3.28379e-06
2.10251e-05
2.10248e-05
5.36626e-07
2.56387e-07
1.46357e-06
2.75537e-07
5.36799e-07
2.56387e-07
1.46272e-06
1.82383e-06
8.85686e-06
1.82443e-06
8.85653e-06
1.82367e-06
8.8575e-06
1.82421e-06
8.85716e-06
5.36835e-07
2.75539e-07
2.56385e-07
1.46253e-06
2.56386e-07
1.46337e-06
5.36653e-07
5.36807e-07
2.75537e-07
2.56387e-07
1.46272e-06
2.56386e-07
1.46358e-06
5.36632e-07
1.82443e-06
8.85657e-06
8.85688e-06
1.8238e-06
1.82422e-06
8.85717e-06
8.8575e-06
1.82366e-06
2.10249e-05
2.10251e-05
2.10254e-05
2.10256e-05
3.1038e-07
3.28331e-06
3.2843e-06
3.28384e-06
3.28482e-06
2.10252e-05
2.1025e-05
2.10257e-05
2.10255e-05
2.10242e-05
2.10244e-05
2.10251e-05
2.10254e-05
3.28375e-06
3.28473e-06
3.101e-07
3.28324e-06
3.28421e-06
2.10247e-05
2.10244e-05
2.10256e-05
2.10253e-05
3.10378e-07
3.28327e-06
3.28424e-06
3.28378e-06
3.28476e-06
1.8238e-06
8.85672e-06
1.82441e-06
8.8564e-06
5.36628e-07
1.46334e-06
2.56386e-07
2.75554e-07
5.36807e-07
1.4625e-06
2.56386e-07
5.36633e-07
1.46356e-06
2.56387e-07
2.7556e-07
5.36812e-07
1.4627e-06
2.56387e-07
1.82436e-06
8.85548e-06
8.85579e-06
1.82376e-06
1.82439e-06
8.85645e-06
8.85676e-06
1.82379e-06
5.36811e-07
2.75554e-07
1.4625e-06
2.56385e-07
1.46335e-06
2.56385e-07
5.36632e-07
5.36816e-07
2.7556e-07
1.46271e-06
2.56386e-07
1.46356e-06
2.56386e-07
5.36637e-07
3.28477e-06
3.28377e-06
3.1009e-07
3.28424e-06
3.28318e-06
2.10223e-05
2.10226e-05
2.10254e-05
2.10251e-05
3.10369e-07
3.28426e-06
3.28321e-06
3.2848e-06
3.28381e-06
2.10229e-05
2.10225e-05
5.36662e-07
1.46374e-06
2.56389e-07
2.75538e-07
5.36838e-07
1.46286e-06
2.56389e-07
1.82367e-06
8.85674e-06
1.82423e-06
8.85639e-06
5.36646e-07
2.56392e-07
1.46375e-06
2.75568e-07
5.36824e-07
2.56392e-07
1.46286e-06
1.82424e-06
8.85665e-06
8.85699e-06
1.82369e-06
5.36841e-07
2.75538e-07
1.46287e-06
2.56388e-07
1.46375e-06
2.56388e-07
5.36667e-07
1.82421e-06
8.85646e-06
8.85677e-06
1.82367e-06
5.36827e-07
2.75567e-07
2.56391e-07
1.46287e-06
2.56391e-07
1.46376e-06
5.3665e-07
1.8238e-06
8.85628e-06
1.82441e-06
8.85594e-06
5.36636e-07
2.56389e-07
1.4634e-06
2.75559e-07
5.36813e-07
2.56389e-07
1.46256e-06
1.82379e-06
8.85679e-06
1.8244e-06
8.85647e-06
5.36809e-07
2.75532e-07
1.46258e-06
2.56384e-07
1.46346e-06
2.56385e-07
5.36631e-07
1.82439e-06
8.85598e-06
8.85632e-06
1.82379e-06
5.36817e-07
2.75558e-07
2.56386e-07
1.46256e-06
2.56388e-07
1.46341e-06
5.3664e-07
1.82439e-06
8.85653e-06
8.85683e-06
1.82379e-06
3.28481e-06
3.28382e-06
3.10108e-07
3.28421e-06
3.28331e-06
2.1025e-05
2.10253e-05
2.10255e-05
2.10252e-05
3.10386e-07
3.28423e-06
3.28333e-06
3.28484e-06
3.28385e-06
2.10255e-05
2.10252e-05
5.36634e-07
2.56389e-07
1.46358e-06
2.75541e-07
5.36812e-07
2.56389e-07
1.46273e-06
1.82378e-06
8.85693e-06
1.8244e-06
8.85661e-06
1.82363e-06
8.85753e-06
1.8242e-06
8.8572e-06
5.36841e-07
2.75542e-07
2.56385e-07
1.46254e-06
2.56386e-07
1.46339e-06
5.36659e-07
5.36814e-07
2.7554e-07
2.56387e-07
1.46274e-06
2.56388e-07
1.46359e-06
5.36638e-07
1.82438e-06
8.85667e-06
8.85697e-06
1.82378e-06
1.82416e-06
8.85726e-06
8.85756e-06
1.82362e-06
2.10252e-05
2.10254e-05
2.10257e-05
2.10259e-05
3.10388e-07
3.28336e-06
3.28436e-06
3.28389e-06
3.28488e-06
2.10257e-05
2.10254e-05
2.10262e-05
2.10259e-05
2.10246e-05
2.10249e-05
2.10256e-05
2.10259e-05
3.28381e-06
3.28478e-06
3.10108e-07
3.28329e-06
3.28425e-06
2.10253e-05
2.10249e-05
2.10263e-05
2.10258e-05
3.10386e-07
3.28326e-06
3.28422e-06
3.28382e-06
3.28479e-06
1.82377e-06
8.85681e-06
1.82438e-06
8.85651e-06
5.36636e-07
1.46335e-06
2.56386e-07
2.75557e-07
5.36816e-07
1.46251e-06
2.56386e-07
5.3664e-07
1.46357e-06
2.56387e-07
2.75563e-07
5.3682e-07
1.46271e-06
2.56387e-07
1.82434e-06
8.8556e-06
8.85589e-06
1.82375e-06
1.82436e-06
8.85657e-06
8.85686e-06
1.82378e-06
5.3682e-07
2.75557e-07
1.4625e-06
2.56384e-07
1.46335e-06
2.56385e-07
5.36641e-07
5.36824e-07
2.75562e-07
1.46271e-06
2.56384e-07
1.46357e-06
2.56386e-07
5.36645e-07
3.28482e-06
3.28384e-06
3.10097e-07
3.28427e-06
3.28323e-06
2.10229e-05
2.10231e-05
2.1026e-05
2.10256e-05
3.10376e-07
3.28424e-06
3.28319e-06
3.28482e-06
3.28384e-06
2.10236e-05
2.10231e-05
5.3667e-07
1.46375e-06
2.56389e-07
2.75541e-07
5.36846e-07
1.46287e-06
2.56389e-07
1.82365e-06
8.85684e-06
1.8242e-06
8.85651e-06
5.36654e-07
2.56391e-07
1.46376e-06
2.7557e-07
5.36832e-07
2.5639e-07
1.46287e-06
1.82422e-06
8.85677e-06
8.85709e-06
1.82369e-06
5.3685e-07
2.75541e-07
1.46286e-06
2.56385e-07
1.46375e-06
2.56386e-07
5.36674e-07
1.8242e-06
8.85663e-06
8.8569e-06
1.82366e-06
5.36836e-07
2.75568e-07
2.56387e-07
1.46287e-06
2.56388e-07
1.46376e-06
5.36658e-07
1.82377e-06
8.85636e-06
1.82438e-06
8.85602e-06
5.36644e-07
2.56387e-07
1.46342e-06
2.7556e-07
5.36821e-07
2.56386e-07
1.46256e-06
1.82377e-06
8.85689e-06
1.82438e-06
8.85658e-06
5.36817e-07
2.75534e-07
1.46257e-06
2.56382e-07
1.46346e-06
2.56383e-07
5.36639e-07
1.82438e-06
8.85606e-06
8.85639e-06
1.82378e-06
5.36825e-07
2.75558e-07
2.56384e-07
1.46257e-06
2.56384e-07
1.46341e-06
5.36646e-07
1.82438e-06
8.8567e-06
8.85694e-06
1.82378e-06
3.28486e-06
3.28388e-06
3.10115e-07
3.28423e-06
3.28333e-06
2.10255e-05
2.10258e-05
2.10261e-05
2.10258e-05
3.10393e-07
3.2842e-06
3.2833e-06
3.28485e-06
3.28386e-06
2.10262e-05
2.10258e-05
5.36642e-07
2.56387e-07
1.46359e-06