/*--------------------------------*- C++ -*----------------------------------*\
| =========                 |                                                 |
| \\      /  F ield         | OpenFOAM: The Open Source CFD Toolbox           |
|  \\    /   O peration     | Version:  2206                                  |
|   \\  /    A nd           | Website:  www.openfoam.com                      |
|    \\/     M anipulation  |                                                 |
\*---------------------------------------------------------------------------*/
FoamFile
{
    version     2.0;
    format      ascii;
    arch        "LSB;label=32;scalar=64";
    class       surfaceScalarField;
    location    "36.5";
    object      phi;
}
// * * * * * * * * * * * * * * * * * * * * * * * * * * * * * * * * * * * * * //

dimensions      [0 3 -1 0 0 0 0];

oriented        oriented;

internalField   nonuniform List<scalar> 
82026
(
1.78506e-09
1.93102e-09
-0.00109419
-1.88481e-09
-1.89385e-09
0.00109419
-0.00109362
-1.21755e-06
-1.96356e-09
3.49914e-09
0.00109362
-2.62195e-07
1.22062e-06
2.60796e-07
9.07112e-07
-2.67565e-07
-9.06529e-07
2.63786e-07
-0.00109328
-1.21211e-06
-2.00892e-09
3.49599e-09
0.00109328
-2.62186e-07
1.21516e-06
2.60811e-07
9.0695e-07
-2.70215e-07
-9.06395e-07
2.66504e-07
-0.000268548
1.246e-06
1.21225e-06
-2.37005e-07
-2.42319e-07
0.000266569
1.85927e-09
2.01831e-09
-0.00109419
-1.92646e-09
-1.91769e-09
0.00109419
-0.00109362
-1.21753e-06
-2.03637e-09
3.48546e-09
0.00109362
-2.62179e-07
1.22063e-06
2.60803e-07
9.07117e-07
-2.67522e-07
-9.06512e-07
2.63819e-07
-0.00109328
-1.2121e-06
-2.09025e-09
3.47104e-09
0.00109328
-2.62167e-07
1.21516e-06
2.60821e-07
9.0696e-07
-2.70175e-07
-9.06376e-07
2.66534e-07
-0.000268548
1.24598e-06
1.21223e-06
-2.36987e-07
-2.423e-07
0.000266569
1.88743e-09
2.06016e-09
-0.00109419
-1.93511e-09
-1.92168e-09
0.00109419
-0.00109362
-1.21751e-06
-2.1034e-09
3.45443e-09
0.00109362
-2.62166e-07
1.22064e-06
2.60814e-07
9.07136e-07
-2.67496e-07
-9.06499e-07
2.6385e-07
-0.00109328
-1.21208e-06
-2.1457e-09
3.44508e-09
0.00109328
-2.62155e-07
1.21518e-06
2.60835e-07
9.06973e-07
-2.70154e-07
-9.06367e-07
2.66561e-07
-0.000268547
1.24597e-06
1.21222e-06
-2.36974e-07
-2.42289e-07
0.000266568
1.90073e-09
2.11445e-09
-0.00109419
-1.96653e-09
-1.91879e-09
0.00109419
-0.00109362
-1.21751e-06
-2.1651e-09
3.47247e-09
0.00109362
-2.62166e-07
1.22064e-06
2.60818e-07
9.07154e-07
-2.67474e-07
-9.06486e-07
2.63879e-07
-0.00109328
-1.21208e-06
-2.28608e-09
3.41339e-09
0.00109328
-2.62148e-07
1.21519e-06
2.60845e-07
9.0701e-07
-2.7011e-07
-9.06343e-07
2.66611e-07
-0.000268547
1.24595e-06
1.21221e-06
-2.36961e-07
-2.42265e-07
0.000266568
1.93861e-09
2.15227e-09
-0.00109419
-1.99001e-09
-1.91446e-09
0.00109419
-0.00109362
-1.2175e-06
-2.18708e-09
3.50512e-09
0.00109362
-2.62166e-07
1.22065e-06
2.60826e-07
9.07196e-07
-2.67456e-07
-9.06465e-07
2.63912e-07
-0.00109328
-1.21208e-06
-2.47387e-09
3.45516e-09
0.00109328
-2.62152e-07
1.21519e-06
2.60853e-07
9.07107e-07
-2.70059e-07
-9.06256e-07
2.66679e-07
-0.000268547
1.24592e-06
1.21221e-06
-2.36959e-07
-2.4223e-07
0.000266568
2.04455e-09
2.13362e-09
-0.00109419
-1.97384e-09
-2.01497e-09
0.00109419
-0.00109362
-1.21747e-06
-2.10232e-09
3.42515e-09
0.00109362
-2.62142e-07
1.22069e-06
2.60868e-07
9.0722e-07
-2.67456e-07
-9.06448e-07
2.63929e-07
-0.00109328
-1.21207e-06
-2.15187e-09
3.51553e-09
0.00109328
-2.62151e-07
1.2152e-06
2.60867e-07
9.0705e-07
-2.70116e-07
-9.06322e-07
2.66647e-07
-0.000268547
1.24595e-06
1.21221e-06
-2.36931e-07
-2.42236e-07
0.000266568
2.46778e-09
2.36119e-09
-0.00109418
-2.04395e-09
-2.2745e-09
0.00109418
-0.00109362
-1.2174e-06
-2.28001e-09
3.09493e-09
0.00109362
-2.62094e-07
1.22081e-06
2.60951e-07
9.07251e-07
-2.67453e-07
-9.06444e-07
2.63962e-07
-0.00109327
-1.21203e-06
-1.97145e-09
3.44569e-09
0.00109327
-2.62156e-07
1.21524e-06
2.60865e-07
9.07014e-07
-2.70171e-07
-9.06362e-07
2.66592e-07
-0.000268546
1.24596e-06
1.21218e-06
-2.3691e-07
-2.4225e-07
0.000266567
2.14944e-10
4.72358e-10
-0.00109419
-1.16843e-09
-1.09864e-09
0.00109419
-0.00109362
-1.21791e-06
-6.12725e-10
4.14399e-09
0.00109362
-2.62599e-07
1.2203e-06
2.60456e-07
9.06673e-07
-2.682e-07
-9.07104e-07
2.6327e-07
-0.00109328
-1.21246e-06
-8.35646e-10
3.94556e-09
0.00109328
-2.62557e-07
1.21492e-06
2.60566e-07
9.0654e-07
-2.70842e-07
-9.06968e-07
2.6604e-07
-0.000268546
1.24634e-06
1.21259e-06
-2.37458e-07
-2.42776e-07
0.000266568
1.7929e-09
2.13612e-09
-0.00109419
-1.96873e-09
-1.82142e-09
0.00109419
-0.00109362
-1.21757e-06
-2.22591e-09
3.52791e-09
0.00109362
-2.62234e-07
1.22069e-06
2.60875e-07
9.0721e-07
-2.67615e-07
-9.0656e-07
2.63887e-07
-0.00109328
-1.21207e-06
-2.40339e-09
3.34078e-09
0.00109328
-2.6214e-07
1.21528e-06
2.60947e-07
9.07071e-07
-2.70225e-07
-9.06392e-07
2.66625e-07
-0.000268548
1.24591e-06
1.2122e-06
-2.36958e-07
-2.42243e-07
0.000266569
2.03712e-09
2.1499e-09
-0.00109419
-2.00752e-09
-2.04367e-09
0.00109419
-0.00109362
-1.2175e-06
-2.15485e-09
3.33154e-09
0.00109362
-2.62165e-07
1.22072e-06
2.60898e-07
9.07189e-07
-2.67566e-07
-9.0655e-07
2.63891e-07
-0.00109328
-1.2121e-06
-2.13415e-09
3.41898e-09
0.00109328
-2.62185e-07
1.21523e-06
2.60885e-07
9.07013e-07
-2.70236e-07
-9.06427e-07
2.66583e-07
-0.000268548
1.24599e-06
1.21224e-06
-2.36995e-07
-2.42312e-07
0.000266569
1.8668e-09
1.98753e-09
-0.00109419
-1.9138e-09
-1.94458e-09
0.00109419
-0.00109362
-1.21755e-06
-2.00397e-09
3.4432e-09
0.00109362
-2.62218e-07
1.22067e-06
2.60848e-07
9.07155e-07
-2.67608e-07
-9.06589e-07
2.63851e-07
-0.00109328
-1.21213e-06
-2.02405e-09
3.4818e-09
0.00109328
-2.62216e-07
1.2152e-06
2.60858e-07
9.06984e-07
-2.70268e-07
-9.06462e-07
2.66556e-07
-0.000268548
1.24602e-06
1.21227e-06
-2.37026e-07
-2.42343e-07
0.000266569
1.82902e-09
1.96696e-09
-0.00109419
-1.89942e-09
-1.91474e-09
0.00109419
-0.00109362
-1.21756e-06
-1.98729e-09
3.47071e-09
0.00109362
-2.62229e-07
1.22066e-06
2.60842e-07
9.07152e-07
-2.67613e-07
-9.06593e-07
2.63852e-07
-0.00109328
-1.21214e-06
-2.02348e-09
3.4921e-09
0.00109328
-2.62219e-07
1.2152e-06
2.60854e-07
9.06984e-07
-2.70268e-07
-9.06462e-07
2.66555e-07
-0.000268548
1.24602e-06
1.21227e-06
-2.3703e-07
-2.42346e-07
0.000266569
1.82261e-09
1.95972e-09
-0.00109419
-1.8938e-09
-1.90972e-09
0.00109419
-0.00109362
-1.21756e-06
-1.98624e-09
3.47655e-09
0.00109362
-2.62229e-07
1.22066e-06
2.6084e-07
9.0715e-07
-2.67611e-07
-9.06593e-07
2.63849e-07
-0.00109328
-1.21214e-06
-2.01636e-09
3.50021e-09
0.00109328
-2.62221e-07
1.21519e-06
2.60851e-07
9.0698e-07
-2.70269e-07
-9.06463e-07
2.66551e-07
-0.000268548
1.24602e-06
1.21227e-06
-2.3703e-07
-2.42345e-07
0.000266569
1.81381e-09
1.95459e-09
-0.00109419
-1.88978e-09
-1.90281e-09
0.00109419
-0.00109362
-1.21756e-06
-1.98451e-09
3.48071e-09
0.00109362
-2.6223e-07
1.22066e-06
2.60837e-07
9.07149e-07
-2.6761e-07
-9.06592e-07
2.63846e-07
-0.00109328
-1.21214e-06
-2.0168e-09
3.50273e-09
0.00109328
-2.62223e-07
1.21519e-06
2.6085e-07
9.06979e-07
-2.70269e-07
-9.06462e-07
2.66551e-07
-0.000268548
1.24602e-06
1.21227e-06
-2.3703e-07
-2.42345e-07
0.000266569
1.81309e-09
1.95726e-09
-0.00109419
-1.8918e-09
-1.90107e-09
0.00109419
-0.00109362
-1.21756e-06
-1.98202e-09
3.48283e-09
0.00109362
-2.6223e-07
1.22066e-06
2.60835e-07
9.07147e-07
-2.67607e-07
-9.06589e-07
2.63843e-07
-0.00109328
-1.21214e-06
-2.0235e-09
3.49961e-09
0.00109328
-2.6222e-07
1.21519e-06
2.60852e-07
9.06979e-07
-2.70265e-07
-9.06459e-07
2.6655e-07
-0.000268548
1.24602e-06
1.21227e-06
-2.3703e-07
-2.42343e-07
0.000266569
1.8176e-09
1.9617e-09
-0.00109419
-1.89492e-09
-1.90544e-09
0.00109419
-0.00109362
-1.21756e-06
-1.98417e-09
3.47987e-09
0.00109362
-2.62225e-07
1.22066e-06
2.60833e-07
9.07141e-07
-2.676e-07
-9.06584e-07
2.63834e-07
-0.00109328
-1.21213e-06
-2.02046e-09
3.49803e-09
0.00109328
-2.62218e-07
1.21519e-06
2.6085e-07
9.06973e-07
-2.70261e-07
-9.06455e-07
2.66543e-07
-0.000268548
1.24602e-06
1.21227e-06
-2.37028e-07
-2.42341e-07
0.000266569
1.81533e-09
1.96278e-09
-0.00109419
-1.8953e-09
-1.90333e-09
0.00109419
-0.00109362
-1.21755e-06
-1.98819e-09
3.47786e-09
0.00109362
-2.62212e-07
1.22065e-06
2.60821e-07
9.07129e-07
-2.6758e-07
-9.06568e-07
2.63817e-07
-0.00109328
-1.21213e-06
-2.02265e-09
3.49497e-09
0.00109328
-2.62211e-07
1.21519e-06
2.60844e-07
9.0696e-07
-2.70247e-07
-9.06441e-07
2.66531e-07
-0.000268548
1.24601e-06
1.21227e-06
-2.3702e-07
-2.42333e-07
0.000266569
1.96117e-09
-0.00109419
-1.89634e-09
-0.00109328
-1.21212e-06
-2.01502e-09
-2.62187e-07
1.21518e-06
2.60822e-07
-2.70219e-07
2.66502e-07
-1.2544e-06
-1.21795e-06
0.000268564
-0.000266574
2.37466e-07
2.45334e-07
0.00109283
-1.81985e-09
3.67893e-09
-1.25138e-06
2.66156e-07
-2.67678e-07
-9.06516e-07
2.63677e-07
-2.67549e-07
9.06997e-07
1.25989e-06
0.00109327
-1.68413e-09
3.67857e-09
-1.25687e-06
2.68974e-07
-2.70471e-07
-9.12187e-07
2.66463e-07
-2.70437e-07
9.12604e-07
-1.22064e-06
0.000268593
-0.000266595
2.40292e-07
2.4258e-07
0.00109389
-1.94373e-09
3.48814e-09
-1.21493e-06
2.63608e-07
-2.65013e-07
-9.09285e-07
2.66557e-07
-2.70373e-07
9.0989e-07
1.25443e-06
0.00109295
-1.7276e-09
-0.00109295
3.70973e-09
-1.25145e-06
2.6894e-07
-2.70471e-07
-9.0928e-07
2.66462e-07
-2.70334e-07
9.09727e-07
-1.96616e-09
3.48647e-09
-1.21754e-06
2.60797e-07
-2.62199e-07
-9.06545e-07
2.63782e-07
9.07102e-07
-2.67572e-07
1.24901e-06
0.00109274
-1.7561e-09
-0.00109274
3.67357e-09
-1.246e-06
2.63406e-07
-2.64863e-07
-9.06563e-07
2.63667e-07
-2.67561e-07
9.07008e-07
-1.21516e-06
0.000268542
-0.000266556
2.37674e-07
2.45101e-07
-2.0015e-09
-0.00109328
3.50016e-09
-1.21212e-06
2.60809e-07
-2.62187e-07
-9.06355e-07
2.66476e-07
9.06996e-07
-2.70245e-07
1.21525e-06
0.0010938
-1.80848e-09
-0.0010938
3.48673e-09
-1.21225e-06
2.6085e-07
-2.62262e-07
-9.06659e-07
2.66542e-07
-2.70372e-07
9.07231e-07
-0.000266569
2.39994e-07
2.45353e-07
1.25138e-06
1.21493e-06
-2.34476e-07
-2.42283e-07
0.000266574
-1.25439e-06
-1.21794e-06
0.000268563
-0.000266574
2.37469e-07
2.45341e-07
3.67887e-09
0.00109283
-2.67676e-07
1.25439e-06
2.66155e-07
9.07004e-07
-2.67546e-07
-9.06509e-07
2.63677e-07
-1.25687e-06
-1.6767e-09
3.68241e-09
0.00109327
-2.70468e-07
1.25988e-06
2.68972e-07
9.12618e-07
-2.7043e-07
-9.12172e-07
2.66467e-07
0.00109283
-1.86991e-09
-0.00109283
3.6554e-09
-1.25136e-06
2.66165e-07
-2.67658e-07
-9.06472e-07
2.6371e-07
-2.67505e-07
9.07022e-07
1.25988e-06
0.00109327
-1.72576e-09
-0.00109327
3.66161e-09
-1.25685e-06
2.68978e-07
-2.70454e-07
-9.12144e-07
2.66492e-07
-2.70396e-07
9.12632e-07
-2.3722e-07
-2.39541e-07
0.000266595
-1.22062e-06
0.000268593
-0.000266595
2.40294e-07
2.42588e-07
3.5046e-09
0.00109389
-2.65013e-07
1.21794e-06
2.63604e-07
9.09907e-07
-2.70368e-07
-9.09265e-07
2.66562e-07
-1.25145e-06
-1.74202e-09
3.7041e-09
0.00109295
-2.7047e-07
1.25444e-06
2.68943e-07
9.09736e-07
-2.70326e-07
-9.0927e-07
2.66469e-07
0.00109389
-2.01411e-09
-0.00109389
3.48726e-09
-1.21491e-06
2.63611e-07
-2.64998e-07
-9.09237e-07
2.66594e-07
-2.70325e-07
9.09922e-07
1.25444e-06
0.00109295
-1.80676e-09
-0.00109295
3.66529e-09
-1.25143e-06
2.68956e-07
-2.70449e-07
-9.09256e-07
2.66496e-07
-2.70292e-07
9.09737e-07
-1.76939e-09
3.66414e-09
0.00109274
-2.64862e-07
1.24901e-06
2.63408e-07
9.07014e-07
-2.67554e-07
2.63672e-07
-9.06554e-07
-2.03263e-09
-0.00109362
3.49274e-09
-1.21753e-06
2.60801e-07
-2.62182e-07
-9.06511e-07
2.63816e-07
9.07119e-07
-2.67528e-07
1.24901e-06
0.00109274
-1.833e-09
-0.00109274
3.62589e-09
-1.24598e-06
2.63421e-07
-2.64842e-07
-9.06535e-07
2.63699e-07
-2.6752e-07
9.07024e-07
-2.3465e-07
-2.42086e-07
0.000266556
-1.21516e-06
0.000268542
-0.000266556
2.37689e-07
2.45118e-07
-1.81788e-09
3.48237e-09
0.0010938
-2.62262e-07
1.21525e-06
2.6085e-07
9.07238e-07
-2.70362e-07
2.66549e-07
-9.06643e-07
-2.09464e-09
-0.00109328
3.47444e-09
-1.2121e-06
2.6082e-07
-2.6217e-07
-9.06323e-07
2.6651e-07
9.07015e-07
-2.70202e-07
1.21526e-06
0.0010938
-1.90219e-09
-0.0010938
3.46307e-09
-1.21223e-06
2.60863e-07
-2.62242e-07
-9.06633e-07
2.66577e-07
-2.70326e-07
9.07241e-07
-0.000266569
2.40008e-07
2.45369e-07
1.25136e-06
1.21491e-06
-2.34456e-07
-2.4226e-07
0.000266574
-1.2544e-06
-1.21795e-06
0.000268563
-0.000266574
2.3748e-07
2.45355e-07
3.64823e-09
0.00109283
-2.67653e-07
1.25439e-06
2.66168e-07
9.07011e-07
-2.67502e-07
-9.06485e-07
2.63712e-07
-1.25685e-06
-1.74418e-09
3.6573e-09
0.00109327
-2.70451e-07
1.25988e-06
2.68979e-07
9.12632e-07
-2.70389e-07
-9.12143e-07
2.66498e-07
0.00109283
-1.88542e-09
-0.00109283
3.65514e-09
-1.25135e-06
2.66173e-07
-2.67645e-07
-9.06475e-07
2.63725e-07
-2.67487e-07
9.07022e-07
1.25989e-06
0.00109327
-1.75668e-09
-0.00109327
3.63997e-09
-1.25683e-06
2.68989e-07
-2.70441e-07
-9.12138e-07
2.66514e-07
-2.70373e-07
9.12636e-07
-2.37201e-07
-2.39517e-07
0.000266595
-1.22064e-06
0.000268593
-0.000266595
2.40308e-07
2.4261e-07
3.48382e-09
0.00109389
-2.64995e-07
1.21794e-06
2.63613e-07
9.09922e-07
-2.70323e-07
-9.09234e-07
2.66597e-07
-1.25143e-06
-1.80738e-09
3.67117e-09
0.00109295
-2.70447e-07
1.25445e-06
2.68957e-07
9.09733e-07
-2.70286e-07
-9.0926e-07
2.66498e-07
0.00109389
-2.04319e-09
-0.00109389
3.47871e-09
-1.2149e-06
2.6362e-07
-2.64986e-07
-9.09233e-07
2.66615e-07
-2.70302e-07
9.09926e-07
1.25445e-06
0.00109295
-1.8415e-09
-0.00109295
3.64879e-09
-1.25142e-06
2.68966e-07
-2.70438e-07
-9.09255e-07
2.66514e-07
-2.70274e-07
9.09744e-07
-1.84005e-09
3.62152e-09
0.00109274
-2.64839e-07
1.24902e-06
2.63422e-07
9.07022e-07
-2.67515e-07
2.63701e-07
-9.06536e-07
-2.0728e-09
-0.00109362
3.46691e-09
-1.21751e-06
2.60812e-07
-2.62169e-07
-9.06504e-07
2.6384e-07
9.07127e-07
-2.67505e-07
1.24902e-06
0.00109274
-1.86944e-09
-0.00109274
3.62117e-09
-1.24598e-06
2.63426e-07
-2.64834e-07
-9.06531e-07
2.63716e-07
-2.67503e-07
9.0703e-07
-2.34632e-07
-2.42066e-07
0.000266556
-1.21517e-06
0.000268542
-0.000266555
2.37702e-07
2.4513e-07
-1.89771e-09
3.45835e-09
0.0010938
-2.6224e-07
1.21526e-06
2.60863e-07
9.07239e-07
-2.70322e-07
2.66578e-07
-9.06633e-07
-2.13783e-09
-0.00109328
3.4581e-09
-1.21209e-06
2.60828e-07
-2.6216e-07
-9.06317e-07
2.6653e-07
9.07023e-07
-2.70183e-07
1.21527e-06
0.0010938
-1.9351e-09
-0.0010938
3.45427e-09
-1.21222e-06
2.6087e-07
-2.62234e-07
-9.06629e-07
2.66591e-07
-2.70312e-07
9.07247e-07
-0.000266568
2.40019e-07
2.45378e-07
1.25135e-06
1.2149e-06
-2.34447e-07
-2.42249e-07
0.000266574
-1.25441e-06
-1.21795e-06
0.000268563
-0.000266574
2.37493e-07
2.45372e-07
3.64405e-09
0.00109283
-2.67645e-07
1.2544e-06
2.66175e-07
9.07017e-07
-2.67489e-07
-9.06483e-07
2.63726e-07
-1.25683e-06
-1.78865e-09
3.62063e-09
0.00109327
-2.70437e-07
1.2599e-06
2.68994e-07
9.12639e-07
-2.70368e-07
-9.12139e-07
2.66521e-07
0.00109283
-1.88379e-09
-0.00109283
3.63883e-09
-1.25134e-06
2.66182e-07
-2.67639e-07
-9.06474e-07
2.6375e-07
-2.67468e-07
9.07027e-07
1.2599e-06
0.00109327
-1.75687e-09
-0.00109327
3.62759e-09
-1.25682e-06
2.68999e-07
-2.70432e-07
-9.12139e-07
2.66539e-07
-2.70353e-07
9.12641e-07
-2.37188e-07
-2.39494e-07
0.000266595
-1.22064e-06
0.000268592
-0.000266595
2.40318e-07
2.42619e-07
3.47975e-09
0.00109389
-2.64987e-07
1.21795e-06
2.63619e-07
9.09929e-07
-2.70302e-07
-9.09229e-07
2.66619e-07
-1.25142e-06
-1.85627e-09
3.63508e-09
0.00109295
-2.70434e-07
1.25446e-06
2.68971e-07
9.09749e-07
-2.70264e-07
-9.09249e-07
2.66526e-07
0.00109389
-2.07282e-09
-0.00109389
3.48074e-09
-1.21489e-06
2.63626e-07
-2.64982e-07
-9.0923e-07
2.66648e-07
-2.70276e-07
9.09936e-07
1.25447e-06
0.00109295
-1.86108e-09
-0.00109295
3.6043e-09
-1.2514e-06
2.68984e-07
-2.70421e-07
-9.09254e-07
2.66533e-07
-2.70258e-07
9.09746e-07
-1.88838e-09
3.60526e-09
0.00109274
-2.6483e-07
1.24903e-06
2.63431e-07
9.07032e-07
-2.67495e-07
2.63727e-07
-9.06529e-07
-2.11133e-09
-0.00109362
3.48476e-09
-1.21751e-06
2.60813e-07
-2.62169e-07
-9.06489e-07
2.63868e-07
9.07146e-07
-2.6748e-07
1.24904e-06
0.00109274
-1.91925e-09
-0.00109274
3.5707e-09
-1.24596e-06
2.63444e-07
-2.64817e-07
-9.06523e-07
2.6375e-07
-2.67472e-07
9.07039e-07
-2.34616e-07
-2.42052e-07
0.000266555
-1.21517e-06
0.000268542
-0.000266555
2.37708e-07
2.45159e-07
-1.94456e-09
3.43963e-09
0.0010938
-2.6223e-07
1.21527e-06
2.60875e-07
9.0725e-07
-2.70304e-07
2.66601e-07
-9.06626e-07
-2.22301e-09
-0.00109328
3.44801e-09
-1.21209e-06
2.60835e-07
-2.62152e-07
-9.06303e-07
2.66571e-07
9.07042e-07
-2.70146e-07
1.21528e-06
0.0010938
-2.01539e-09
-0.0010938
3.43372e-09
-1.21221e-06
2.60881e-07
-2.62223e-07
-9.06616e-07
2.66627e-07
-2.70281e-07
9.07264e-07
-0.000266568
2.40037e-07
2.45403e-07
1.25134e-06
1.21489e-06
-2.34436e-07
-2.42232e-07
0.000266574
-1.25442e-06
-1.21797e-06
0.000268563
-0.000266573
2.3752e-07
2.45394e-07
3.62193e-09
0.00109283
-2.67637e-07
1.25441e-06
2.66184e-07
9.07022e-07
-2.6747e-07
-9.06482e-07
2.63751e-07
-1.25682e-06
-1.79998e-09
3.61449e-09
0.00109327
-2.70431e-07
1.2599e-06
2.69001e-07
9.12644e-07
-2.70349e-07
-9.12138e-07
2.66545e-07
0.00109283
-1.93576e-09
-0.00109283
3.61627e-09
-1.25132e-06
2.66196e-07
-2.67628e-07
-9.06433e-07
2.63794e-07
-2.67438e-07
9.07081e-07
1.25991e-06
0.00109327
-1.78728e-09
-0.00109327
3.63526e-09
-1.25681e-06
2.69012e-07
-2.70423e-07
-9.12116e-07
2.66574e-07
-2.70331e-07
9.12676e-07
-2.3718e-07
-2.3949e-07
0.000266595
-1.22065e-06
0.000268592
-0.000266595
2.40342e-07
2.42642e-07
3.48161e-09
0.00109389
-2.64982e-07
1.21795e-06
2.63626e-07
9.09941e-07
-2.70274e-07
-9.09223e-07
2.66654e-07
-1.25139e-06
-1.92283e-09
3.55668e-09
0.00109295
-2.70413e-07
1.25449e-06
2.68996e-07
9.09767e-07
-2.70247e-07
-9.09244e-07
2.66551e-07
0.00109389
-2.10919e-09
-0.00109389
3.49021e-09
-1.21488e-06
2.6364e-07
-2.64973e-07
-9.09206e-07
2.66683e-07
-2.70253e-07
9.0997e-07
1.25449e-06
0.00109294
-1.885e-09
-0.00109294
3.5797e-09
-1.25139e-06
2.68998e-07
-2.70413e-07
-9.09213e-07
2.66571e-07
-2.70231e-07
9.09801e-07
-1.96595e-09
3.51878e-09
0.00109274
-2.64809e-07
1.24906e-06
2.63458e-07
9.07051e-07
-2.67466e-07
2.63761e-07
-9.0652e-07
-2.11563e-09
-0.00109362
3.49435e-09
-1.2175e-06
2.60827e-07
-2.62163e-07
-9.06474e-07
2.63902e-07
9.07174e-07
-2.67463e-07
1.24906e-06
0.00109274
-1.89581e-09
-0.00109274
3.54562e-09
-1.24593e-06
2.63467e-07
-2.64802e-07
-9.06511e-07
2.63769e-07
-2.67466e-07
9.07069e-07
-2.34614e-07
-2.42025e-07
0.000266555
-1.21517e-06
0.000268542
-0.000266555
2.37724e-07
2.45187e-07
-2.09448e-09
3.40008e-09
0.0010938
-2.62219e-07
1.21529e-06
2.60888e-07
9.07292e-07
-2.70264e-07
2.66649e-07
-9.06599e-07
-2.33217e-09
-0.00109328
3.49944e-09
-1.21209e-06
2.60833e-07
-2.6216e-07
-9.06236e-07
2.66629e-07
9.07127e-07
-2.70099e-07
1.21527e-06
0.00109379
-2.13849e-09
-0.00109379
3.49276e-09
-1.21222e-06
2.60872e-07
-2.62237e-07
-9.0654e-07
2.6669e-07
-2.70229e-07
9.07355e-07
-0.000266568
2.40038e-07
2.45441e-07
1.25133e-06
1.21488e-06
-2.3442e-07
-2.42224e-07
0.000266573
-1.25448e-06
-1.21804e-06
0.000268563
-0.000266573
2.37575e-07
2.45443e-07
3.6218e-09
0.00109283
-2.67637e-07
1.25442e-06
2.66195e-07
9.07085e-07
-2.67443e-07
-9.06439e-07
2.63793e-07
-1.25682e-06
-1.82504e-09
3.63766e-09
0.00109327
-2.70432e-07
1.25991e-06
2.6901e-07
9.12691e-07
-2.7033e-07
-9.12112e-07
2.6658e-07
0.00109283
-2.21317e-09
-0.00109283
3.51642e-09
-1.25129e-06
2.66255e-07
-2.67594e-07
-9.0639e-07
2.63868e-07
-2.67391e-07
9.07152e-07
1.25997e-06
0.00109327
-2.0851e-09
-0.00109327
3.53943e-09
-1.25678e-06
2.69066e-07
-2.70393e-07
-9.12058e-07
2.66656e-07
-2.70275e-07
9.12763e-07
-2.37167e-07
-2.39481e-07
0.000266594
-1.22071e-06
0.000268592
-0.000266594
2.40401e-07
2.42688e-07
3.50473e-09
0.00109389
-2.64979e-07
1.21797e-06
2.63641e-07
9.09988e-07
-2.70255e-07
-9.09197e-07
2.66689e-07
-1.25137e-06
-2.00062e-09
3.52386e-09
0.00109294
-2.70402e-07
1.25451e-06
2.69022e-07
9.09826e-07
-2.70221e-07
-9.09195e-07
2.66594e-07
0.00109389
-2.30336e-09
-0.00109389
3.31916e-09
-1.21483e-06
2.63706e-07
-2.6493e-07
-9.09164e-07
2.66751e-07
-2.70211e-07
9.10041e-07
1.25452e-06
0.00109294
-1.97388e-09
-0.00109294
3.62245e-09
-1.25137e-06
2.69036e-07
-2.70399e-07
-9.09187e-07
2.6662e-07
-2.70215e-07
9.09856e-07
-2.02975e-09
3.47837e-09
0.00109274
-2.64788e-07
1.24908e-06
2.63491e-07
9.07102e-07
-2.67453e-07
2.63796e-07
-9.06486e-07
-2.26609e-09
-0.00109362
3.33825e-09
-1.21745e-06
2.6089e-07
-2.62116e-07
-9.0643e-07
2.63968e-07
9.0725e-07
-2.67423e-07
1.24909e-06
0.00109274
-1.97598e-09
-0.00109274
3.58829e-09
-1.24591e-06
2.635e-07
-2.64789e-07
-9.06469e-07
2.63823e-07
-2.67442e-07
9.07138e-07
-2.34601e-07
-2.42001e-07
0.000266555
-1.21523e-06
0.000268541
-0.000266555
2.37783e-07
2.45222e-07
-2.30409e-09
3.44338e-09
0.00109379
-2.62226e-07
1.21529e-06
2.60895e-07
9.07394e-07
-2.70206e-07
2.66725e-07
-9.06507e-07
-2.24425e-09
-0.00109328
3.46626e-09
-1.21205e-06
2.60883e-07
-2.62138e-07
-9.06246e-07
2.66643e-07
9.07136e-07
-2.70113e-07
1.21532e-06
0.00109379
-2.08083e-09
-0.00109379
3.44889e-09
-1.21219e-06
2.60922e-07
-2.62214e-07
-9.0653e-07
2.66715e-07
-2.70226e-07
9.07377e-07
-0.000266568
2.401e-07
2.45477e-07
1.2513e-06
1.21484e-06
-2.34376e-07
-2.42187e-07
0.000266573
-1.25451e-06
-1.2181e-06
0.000268562
-0.000266573
2.37628e-07
2.45467e-07
3.60504e-09
0.00109283
-2.6761e-07
1.25446e-06
2.66242e-07
9.0714e-07
-2.67419e-07
-9.06409e-07
2.63845e-07
-1.25679e-06
-1.95809e-09
3.63394e-09
0.00109327
-2.7041e-07
1.25994e-06
2.69051e-07
9.1276e-07
-2.703e-07
-9.12067e-07
2.66638e-07
0.00109283
-2.41134e-09
-0.00109283
3.42678e-09
-1.2513e-06
2.6628e-07
-2.67613e-07
-9.06395e-07
2.63913e-07
-2.67396e-07
9.07201e-07
1.26001e-06
0.00109327
-2.27547e-09
-0.00109327
3.43736e-09
-1.25679e-06
2.69094e-07
-2.70409e-07
-9.12062e-07
2.667e-07
-2.70279e-07
9.12811e-07
-2.37125e-07
-2.39449e-07
0.000266594
-1.22079e-06
0.000268591
-0.000266594
2.40458e-07
2.42719e-07
3.4022e-09
0.00109389
-2.64946e-07
1.21802e-06
2.63694e-07
9.10026e-07
-2.70245e-07
-9.09176e-07
2.66722e-07
-1.2514e-06
-1.93001e-09
3.71335e-09
0.00109294
-2.7042e-07
1.25448e-06
2.6901e-07
9.09844e-07
-2.70226e-07
-9.09195e-07
2.66617e-07
0.00109389
-2.45279e-09
-0.00109389
3.12324e-09
-1.21482e-06
2.63764e-07
-2.64915e-07
-9.09184e-07
2.66782e-07
-2.70227e-07
9.10074e-07
1.25458e-06
0.00109294
-2.27881e-09
-0.00109294
3.53258e-09
-1.25135e-06
2.69067e-07
-2.70408e-07
-9.09153e-07
2.6669e-07
-2.70195e-07
9.0994e-07
-1.92194e-09
3.68388e-09
0.00109274
-2.64816e-07
1.24904e-06
2.63468e-07
9.07115e-07
-2.67461e-07
2.63811e-07
-9.06482e-07
-2.49839e-09
-0.00109362
3.11741e-09
-1.21743e-06
2.60958e-07
-2.62091e-07
-9.06429e-07
2.64022e-07
9.07301e-07
-2.67415e-07
1.24916e-06
0.00109274
-2.31358e-09
-0.00109274
3.50841e-09
-1.2459e-06
2.63535e-07
-2.64796e-07
-9.06427e-07
2.63901e-07
-2.67415e-07
9.07231e-07
-2.34572e-07
-2.42003e-07
0.000266554
-1.21533e-06
0.000268541
-0.000266554
2.37855e-07
2.45255e-07
-1.99293e-09
3.50774e-09
0.00109379
-2.6223e-07
1.21529e-06
2.60903e-07
9.07336e-07
-2.70258e-07
2.66692e-07
-9.06567e-07
-2.44282e-09
-0.00109327
3.21387e-09
-1.21199e-06
2.60961e-07
-2.62098e-07
-9.06245e-07
2.66687e-07
9.07187e-07
-2.70117e-07
1.21543e-06
0.00109379
-2.25156e-09
-0.00109379
3.22014e-09
-1.21213e-06
2.60998e-07
-2.62178e-07
-9.06544e-07
2.66756e-07
-2.70238e-07
9.07422e-07
-0.000266567
2.40173e-07
2.45509e-07
1.25126e-06
1.21477e-06
-2.34328e-07
-2.42168e-07
0.000266573
-1.25408e-06
-1.21768e-06
0.000268562
-0.000266573
2.37123e-07
2.44957e-07
3.42711e-09
0.00109283
-2.67597e-07
1.25454e-06
2.66293e-07
9.07235e-07
-2.67386e-07
-9.06363e-07
2.63927e-07
-1.25676e-06
-2.3725e-09
3.48498e-09
0.00109327
-2.704e-07
1.26002e-06
2.69097e-07
9.1285e-07
-2.70271e-07
-9.12026e-07
2.66715e-07
0.00109283
-6.57102e-10
-0.00109283
4.30827e-09
-1.25168e-06
2.65825e-07
-2.68025e-07
-9.06909e-07
2.63277e-07
-2.67952e-07
9.06609e-07
1.25956e-06
0.00109327
-5.47962e-10
-0.00109327
4.33036e-09
-1.25719e-06
2.68627e-07
-2.7084e-07
-9.12572e-07
2.66081e-07
-2.70823e-07
9.12225e-07
-2.37076e-07
-2.39429e-07
0.000266594
-1.22037e-06
0.000268592
-0.000266594
2.3996e-07
2.42187e-07
3.06484e-09
0.00109389
-2.64899e-07
1.21814e-06
2.63777e-07
9.10077e-07
-2.70244e-07
-9.09165e-07
2.66763e-07
-1.25141e-06
-1.98415e-09
3.86178e-09
0.00109294
-2.70471e-07
1.25448e-06
2.68965e-07
9.09857e-07
-2.70245e-07
-9.09193e-07
2.66605e-07
0.00109389
-6.20851e-10
-0.00109389
3.94477e-09
-1.21518e-06
2.63322e-07
-2.65309e-07
-9.09746e-07
2.66109e-07
-2.70836e-07
9.09454e-07
1.25409e-06
0.00109294
-3.39577e-10
-0.00109294
4.44866e-09
-1.25186e-06
2.68572e-07
-2.70923e-07
-9.09817e-07
2.65967e-07
-2.70898e-07
9.09259e-07
-1.93817e-09
3.84793e-09
0.00109274
-2.64867e-07
1.24904e-06
2.63423e-07
9.0712e-07
-2.67481e-07
2.63792e-07
-9.06483e-07
-5.91439e-10
-0.00109362
3.89641e-09
-1.21778e-06
2.60533e-07
-2.62477e-07
-9.07056e-07
2.63301e-07
9.06647e-07
-2.68093e-07
1.24867e-06
0.00109274
-3.13645e-10
-0.00109274
4.36425e-09
-1.2464e-06
2.63055e-07
-2.653e-07
-9.07135e-07
2.63147e-07
-2.6816e-07
9.06519e-07
-2.34548e-07
-2.42016e-07
0.000266554
-1.21485e-06
0.000268541
-0.000266554
2.37268e-07
2.44662e-07
-1.81058e-09
3.4765e-09
0.00109379
-2.6224e-07
1.21532e-06
2.60894e-07
9.07303e-07
-2.70313e-07
2.66637e-07
-9.06603e-07
-4.81295e-10
-0.00109327
4.08353e-09
-1.21248e-06
2.60482e-07
-2.62592e-07
-9.06948e-07
2.65933e-07
9.0649e-07
-2.7087e-07
1.21493e-06
0.00109379
-2.92726e-10
-0.00109379
4.08609e-09
-1.21263e-06
2.60515e-07
-2.6268e-07
-9.07245e-07
2.66002e-07
-2.70989e-07
9.06725e-07
-0.000266567
2.39575e-07
2.44923e-07
1.25177e-06
1.2153e-06
-2.34935e-07
-2.42758e-07
0.000266573
-1.25444e-06
-1.21793e-06
0.000268564
-0.000266574
2.37407e-07
2.45342e-07
4.30041e-09
0.00109283
-2.68112e-07
1.25406e-06
2.65798e-07
9.06488e-07
-2.6817e-07
-9.07101e-07
2.63127e-07
-1.25725e-06
-9.96577e-11
4.25466e-09
0.00109327
-2.70906e-07
1.25956e-06
2.68622e-07
9.12108e-07
-2.71037e-07
-9.12758e-07
2.65929e-07
0.00109284
-1.41765e-09
-0.00109283
3.63513e-09
-1.25144e-06
2.66215e-07
-2.6775e-07
-9.06764e-07
2.63566e-07
-2.6785e-07
9.06923e-07
1.25996e-06
0.00109328
-1.27221e-09
-0.00109327
3.56042e-09
-1.25689e-06
2.69054e-07
-2.70518e-07
-9.12436e-07
2.66344e-07
-2.70743e-07
9.12527e-07
-2.3767e-07
-2.40015e-07
0.000266594
-1.22059e-06
0.000268593
-0.000266595
2.4022e-07
2.42618e-07
4.1732e-09
0.00109389
-2.6543e-07
1.21761e-06
2.63255e-07
9.09412e-07
-2.71005e-07
-9.09863e-07
2.66018e-07
-1.2518e-06
-4.54747e-10
4.06601e-09
0.00109294
-2.70854e-07
1.25421e-06
2.68701e-07
9.09298e-07
-2.70943e-07
-9.0985e-07
2.65996e-07
0.00109389
-1.82822e-09
-0.00109389
3.73715e-09
-1.21505e-06
2.63596e-07
-2.65157e-07
-9.09448e-07
2.66525e-07
-2.70591e-07
9.09894e-07
1.25459e-06
0.00109295
-1.7445e-09
-0.00109295
3.28892e-09
-1.25138e-06
2.69118e-07
-2.70404e-07
-9.09414e-07
2.66467e-07
-2.70493e-07
9.09746e-07
-5.37275e-10
4.02861e-09
0.00109274
-2.65233e-07
1.24879e-06
2.63175e-07
9.06596e-07
-2.68175e-07
2.63207e-07
-9.0713e-07
-1.96864e-09
-0.00109362
3.76427e-09
-1.21769e-06
2.60768e-07
-2.62361e-07
-9.06655e-07
2.63787e-07
9.07141e-07
-2.67748e-07
1.24915e-06
0.00109274
-1.85307e-09
-0.00109274
3.31565e-09
-1.24595e-06
2.63569e-07
-2.64811e-07
-9.06664e-07
2.63694e-07
-2.67692e-07
9.07053e-07
-2.35102e-07
-2.42551e-07
0.000266555
-1.21525e-06
0.000268542
-0.000266556
2.3774e-07
2.45227e-07
-6.45411e-10
3.90605e-09
0.00109379
-2.62632e-07
1.21503e-06
2.60613e-07
9.06823e-07
-2.70986e-07
2.66082e-07
-9.07211e-07
-2.29393e-09
-0.00109328
3.40088e-09
-1.21212e-06
2.60916e-07
-2.62193e-07
-9.06413e-07
2.66545e-07
9.0708e-07
-2.70333e-07
1.21536e-06
0.0010938
-2.08842e-09
-0.0010938
3.3416e-09
-1.21224e-06
2.60972e-07
-2.62251e-07
-9.06714e-07
2.66603e-07
-2.70463e-07
9.07308e-07
-0.000266569
2.40074e-07
2.45467e-07
1.25134e-06
1.21494e-06
-2.34515e-07
-2.42267e-07
0.000266574
-1.25449e-06
-1.21805e-06
0.000268564
-0.000266574
2.37567e-07
2.45432e-07
3.51235e-09
0.00109284
-2.67645e-07
1.25451e-06
2.66292e-07
9.07044e-07
-2.67685e-07
-9.06617e-07
2.63703e-07
-1.25681e-06
-1.6791e-09
3.46776e-09
0.00109328
-2.70422e-07
1.26001e-06
2.69122e-07
9.12656e-07
-2.70574e-07
-9.12282e-07
2.66486e-07
0.00109283
-2.11799e-09
-0.00109283
3.51921e-09
-1.25132e-06
2.66273e-07
-2.67624e-07
-9.06475e-07
2.63818e-07
-2.67514e-07
9.0713e-07
1.25998e-06
0.00109327
-1.98003e-09
-0.00109327
3.5326e-09
-1.25681e-06
2.69085e-07
-2.70421e-07
-9.12149e-07
2.666e-07
-2.70405e-07
9.12734e-07
-2.37269e-07
-2.39501e-07
0.000266595
-1.22073e-06
0.000268593
-0.000266595
2.40393e-07
2.42677e-07
3.52453e-09
0.00109389
-2.6504e-07
1.21801e-06
2.63691e-07
9.09997e-07
-2.70442e-07
-9.09312e-07
2.66644e-07
-1.25135e-06
-1.94944e-09
3.34124e-09
0.00109295
-2.70369e-07
1.2546e-06
2.69128e-07
9.09815e-07
-2.70388e-07
-9.09318e-07
2.66547e-07
0.00109389
-2.23648e-09
-0.00109389
3.31173e-09
-1.21487e-06
2.63728e-07
-2.6496e-07
-9.09251e-07
2.66699e-07
-2.70332e-07
9.10014e-07
1.25451e-06
0.00109295
-1.96413e-09
-0.00109295
3.61023e-09
-1.25142e-06
2.69033e-07
-2.70448e-07
-9.09275e-07
2.66575e-07
-2.70324e-07
9.09826e-07
-2.02095e-09
3.33404e-09
0.00109274
-2.64771e-07
1.24916e-06
2.63584e-07
9.07107e-07
-2.67601e-07
2.6376e-07
-9.06584e-07
-2.23422e-09
-0.00109362
3.30473e-09
-1.21748e-06
2.60919e-07
-2.62144e-07
-9.0653e-07
2.63914e-07
9.07207e-07
-2.67545e-07
1.24909e-06
0.00109274
-1.97692e-09
-0.00109274
3.56777e-09
-1.24597e-06
2.63499e-07
-2.64839e-07
-9.06563e-07
2.63774e-07
-2.67556e-07
9.07102e-07
-2.34613e-07
-2.42001e-07
0.000266556
-1.21524e-06
0.000268542
-0.000266556
2.37758e-07
2.45178e-07
-2.20568e-09
3.2992e-09
0.0010938
-2.62206e-07
1.21538e-06
2.60994e-07
9.07355e-07
-2.70374e-07
2.66664e-07
-9.06637e-07
-2.22052e-09
-0.00109328
3.38651e-09
-1.21208e-06
2.60903e-07
-2.62165e-07
-9.06353e-07
2.66583e-07
9.07085e-07
-2.70235e-07
1.21533e-06
0.0010938
-2.03907e-09
-0.0010938
3.38095e-09
-1.21222e-06
2.60938e-07
-2.62245e-07
-9.06644e-07
2.66649e-07
-2.70358e-07
9.07321e-07
-0.000266569
2.40071e-07
2.45431e-07
1.25135e-06
1.21488e-06
-2.3443e-07
-2.42245e-07
0.000266574
-1.25443e-06
-1.21799e-06
0.000268564
-0.000266574
2.37507e-07
2.45371e-07
3.56172e-09
0.00109283
-2.67652e-07
1.25447e-06
2.66247e-07
9.07103e-07
-2.6753e-07
-9.065e-07
2.63796e-07
-1.25684e-06
-1.92976e-09
3.58082e-09