/*--------------------------------*- C++ -*----------------------------------*\
| =========                 |                                                 |
| \\      /  F ield         | OpenFOAM: The Open Source CFD Toolbox           |
|  \\    /   O peration     | Version:  2206                                  |
|   \\  /    A nd           | Website:  www.openfoam.com                      |
|    \\/     M anipulation  |                                                 |
\*---------------------------------------------------------------------------*/
FoamFile
{
    version     2.0;
    format      ascii;
    arch        "LSB;label=32;scalar=64";
    class       volScalarField;
    location    "39.5";
    object      nut;
}
// * * * * * * * * * * * * * * * * * * * * * * * * * * * * * * * * * * * * * //

dimensions      [0 2 -1 0 0 0 0];

internalField   nonuniform List<scalar> 
171728
(
0.000233973
0.000233116
0.000233116
0.000233421
0.000232533
0.000227803
0.000227802
0.000223864
0.000230516
0.000220321
0.000220318
0.000209106
0.000227792
0.000211657
0.000211653
0.000193779
0.000224412
0.000202624
0.000202619
0.000179698
0.000220597
0.000193828
0.000193821
0.000167368
0.000216282
0.000185255
0.000185247
0.000156526
0.000211873
0.000177415
0.000177406
0.000147498
0.000207316
0.000170773
0.000170763
0.000140151
0.000206832
0.00017044
0.000170431
0.000140392
0.000207465
0.000171354
0.000171345
0.00014177
0.000207671
0.000171658
0.000171648
0.000142114
0.00020769
0.000171693
0.000171683
0.00014217
0.000207694
0.000171698
0.000171689
0.00014217
0.000207697
0.000171701
0.000171691
0.00014217
0.000207698
0.000171703
0.000171694
0.000142172
0.000207698
0.000171705
0.000171696
0.00014217
0.000207698
0.000171705
0.000171696
0.000142171
0.000207698
0.000171706
0.000171696
0.000142171
0.000207697
0.000171706
0.000171696
0.000142171
0.000207698
0.000171705
0.000171696
0.000142171
0.000207698
0.000171705
0.000171696
0.000142171
0.000207698
0.000171705
0.000171696
0.000142171
0.000207698
0.000171705
0.000171696
0.000142171
0.000207698
0.000171705
0.000171696
0.000142171
0.000207699
0.000171705
0.000171696
0.000142171
0.000207699
0.000171705
0.000171696
0.00014217
0.000207699
0.000171705
0.000171696
0.00014217
0.000207699
0.000171705
0.000171696
0.00014217
0.000207699
0.000171705
0.000171696
0.00014217
0.000207699
0.000171705
0.000171696
0.00014217
0.000207699
0.000171705
0.000171696
0.00014217
0.000207699
0.000171705
0.000171696
0.00014217
0.000207699
0.000171705
0.000171696
0.00014217
0.000207699
0.000171705
0.000171696
0.00014217
0.000207699
0.000171705
0.000171696
0.00014217
0.000207699
0.000171705
0.000171696
0.00014217
0.000207699
0.000171705
0.000171696
0.00014217
0.000207699
0.000171705
0.000171696
0.00014217
0.000207699
0.000171705
0.000171696
0.00014217
0.000207698
0.000171705
0.000171695
0.00014217
0.000207698
0.000171706
0.000171696
0.00014217
0.000207698
0.000171706
0.000171695
0.00014217
0.000207698
0.000171706
0.000171695
0.00014217
0.000207699
0.000171706
0.000171695
0.00014217
0.000207699
0.000171706
0.000171695
0.00014217
0.000207699
0.000171706
0.000171695
0.00014217
0.000207699
0.000171706
0.000171695
0.00014217
0.000207699
0.000171706
0.000171696
0.00014217
0.000207699
0.000171706
0.000171696
0.00014217
0.000207699
0.000171706
0.000171696
0.00014217
0.000207699
0.000171706
0.000171696
0.00014217
0.000207699
0.000171706
0.000171696
0.00014217
0.000207699
0.000171706
0.000171696
0.00014217
0.000207699
0.000171706
0.000171696
0.00014217
0.000207699
0.000171706
0.000171696
0.00014217
0.000207699
0.000171706
0.000171696
0.00014217
0.000207699
0.000171706
0.000171696
0.00014217
0.000207699
0.000171706
0.000171696
0.00014217
0.000207699
0.000171706
0.000171696
0.00014217
0.000207699
0.000171706
0.000171696
0.00014217
0.000207699
0.000171706
0.000171696
0.00014217
0.000207699
0.000171706
0.000171696
0.00014217
0.000207699
0.000171706
0.000171696
0.00014217
0.000207699
0.000171706
0.000171696
0.00014217
0.000207699
0.000171706
0.000171696
0.00014217
0.000207699
0.000171706
0.000171696
0.00014217
0.000207699
0.000171706
0.000171696
0.00014217
0.000207699
0.000171706
0.000171695
0.00014217
0.000207699
0.000171706
0.000171696
0.00014217
0.000207699
0.000171706
0.000171695
0.00014217
0.000207699
0.000171706
0.000171695
0.00014217
0.000207699
0.000171706
0.000171696
0.00014217
0.000207699
0.000171706
0.000171696
0.00014217
0.000207699
0.000171706
0.000171696
0.00014217
0.000207699
0.000171706
0.000171696
0.00014217
0.000207699
0.000171706
0.000171696
0.00014217
0.000207699
0.000171706
0.000171695
0.00014217
0.000207699
0.000171706
0.000171695
0.00014217
0.000207699
0.000171706
0.000171695
0.00014217
0.000207699
0.000171706
0.000171695
0.00014217
0.000207699
0.000171706
0.000171695
0.00014217
0.000207699
0.000171706
0.000171695
0.00014217
0.000207699
0.000171706
0.000171695
0.00014217
0.000207699
0.000171706
0.000171695
0.00014217
0.000207699
0.000171706
0.000171695
0.00014217
0.000207699
0.000171706
0.000171696
0.00014217
0.000207699
0.000171707
0.000171696
0.00014217
0.000207699
0.000171707
0.000171696
0.000142171
0.000207699
0.000171708
0.000171698
0.000142172
0.000207699
0.000171712
0.000171701
0.000142174
0.000207699
0.000171718
0.000171707
0.000142178
0.0002077
0.00017173
0.000171719
0.000142186
0.000207715
0.000171737
0.000171727
0.000142213
0.000209109
0.000174959
0.000174956
0.000146309
0.000234268
0.000234448
0.000234449
0.000234268
0.000234449
0.000234449
0.000234274
0.000234274
0.000234274
0.000234274
0.000234448
0.000234448
0.000234268
0.000234448
0.000234448
0.000234268
0.000233421
0.000226206
0.000233116
0.000233114
0.000229361
0.000229356
0.000233421
0.000226207
0.000233114
0.000233113
0.000229359
0.000229355
0.000233116
0.000229364
0.00022936
0.000233421
0.000226204
0.000233114
0.000229363
0.000229358
0.000226204
0.000223864
0.000212232
0.000227799
0.000227794
0.000222329
0.000222323
0.000223865
0.000212235
0.000227797
0.000227793
0.000222329
0.00022232
0.000227798
0.000222335
0.000222327
0.000223863
0.000212229
0.000227797
0.000222333
0.000222328
0.00021223
0.000209109
0.00019706
0.000220313
0.000220308
0.000213871
0.000213866
0.00020911
0.000197066
0.000220314
0.000220305
0.000213875
0.000213861
0.000220311
0.000213882
0.000213869
0.000209105
0.000197057
0.000220313
0.000213878
0.000213874
0.000197058
0.000193782
0.000182879
0.000211645
0.000211639
0.000204893
0.000204887
0.000193785
0.000182885
0.00021165
0.000211635
0.0002049
0.000204881
0.000211643
0.000204908
0.00020489
0.000193778
0.000182875
0.000211648
0.000204902
0.000204899
0.000182875
0.000179702
0.000170281
0.000202608
0.000202603
0.000195995
0.00019599
0.000179706
0.000170287
0.000202617
0.000202597
0.000196007
0.000195984
0.000202606
0.000196014
0.000195993
0.000179698
0.000170276
0.000202616
0.000196007
0.000196006
0.000170277
0.000167372
0.000159184
0.000193809
0.000193803
0.000187226
0.000187222
0.000167377
0.000159191
0.000193821
0.000193797
0.000187242
0.000187214
0.000193806
0.000187249
0.000187224
0.000167367
0.000159179
0.00019382
0.000187241
0.00018724
0.000159179
0.000156531
0.000149848
0.000185232
0.000185227
0.000179463
0.000179459
0.000156536
0.000149855
0.000185248
0.00018522
0.000179482
0.000179451
0.000185229
0.000179489
0.000179461
0.000156526
0.000149843
0.000185247
0.000179481
0.000179481
0.000149843
0.000147503
0.000141852
0.000177388
0.000177384
0.000171819
0.000171812
0.000147508
0.000141858
0.000177408
0.000177376
0.000171838
0.000171804
0.000177385
0.000171845
0.000171816
0.000147498
0.000141845
0.000177406
0.000171836
0.000171838
0.000141844
0.000140157
0.000140551
0.000170746
0.000170738
0.000170116
0.000170109
0.000140161
0.000140555
0.000170764
0.00017073
0.000170135
0.0001701
0.000170743
0.000170142
0.000170114
0.00014015
0.000140542
0.000170765
0.000170132
0.000170136
0.000140543
0.0001404
0.000141946
0.000170414
0.000170408
0.000171114
0.000171108
0.000140403
0.000141951
0.000170433
0.000170399
0.000171133
0.000171099
0.000170412
0.00017114
0.000171112
0.000140392
0.000141938
0.000170434
0.000171131
0.000171135
0.000141939
0.000141775
0.0001423
0.00017133
0.000171324
0.000171605
0.000171598
0.000141779
0.000142304
0.000171349
0.000171315
0.000171624
0.000171589
0.000171328
0.000171631
0.000171603
0.000141767
0.000142291
0.000171351
0.000171621
0.000171626
0.000142295
0.000142121
0.000142359
0.000171633
0.000171627
0.000171664
0.000171658
0.000142123
0.000142363
0.000171653
0.000171617
0.000171684
0.000171649
0.000171631
0.00017169
0.000171663
0.000142111
0.00014235
0.000171655
0.000171681
0.000171686
0.000142355
0.000142176
0.000142358
0.000171667
0.000171661
0.000171671
0.000171665
0.000142179
0.000142361
0.000171687
0.000171652
0.000171691
0.000171655
0.000171666
0.000171697
0.00017167
0.000142167
0.000142349
0.000171689
0.000171688
0.000171693
0.000142353
0.000142176
0.000142361
0.000171672
0.000171666
0.000171674
0.000171668
0.000142178
0.000142364
0.000171692
0.000171657
0.000171694
0.000171659
0.000171671
0.0001717
0.000171674
0.000142166
0.000142351
0.000171694
0.000171691
0.000171697
0.000142356
0.000142176
0.000142362
0.000171675
0.000171669
0.000171677
0.000171672
0.000142178
0.000142365
0.000171695
0.000171661
0.000171697
0.000171663
0.000171675
0.000171703
0.000171677
0.000142167
0.000142352
0.000171698
0.000171693
0.000171701
0.000142357
0.000142177
0.000142361
0.000171677
0.000171673
0.000171677
0.000171674
0.00014218
0.000142364
0.000171698
0.000171664
0.000171699
0.000171665
0.000171678
0.000171705
0.000171679
0.000142168
0.000142352
0.000171702
0.000171695
0.000171702
0.000142356
0.000142176
0.000142362
0.000171678
0.000171676
0.000171676
0.000171676
0.000142178
0.000142366
0.000171699
0.000171666
0.000171698
0.000171665
0.00017168
0.000171706
0.000171679
0.000142167
0.000142353
0.000171703
0.000171696
0.000171702
0.000142357
0.000142176
0.000142362
0.000171677
0.000171676
0.000171677
0.000171677
0.00014218
0.000142366
0.000171698
0.000171665
0.000171698
0.000171665
0.000171679
0.000171706
0.000171679
0.000142168
0.000142353
0.000171703
0.000171696
0.000171703
0.000142358
0.000142176
0.000142361
0.000171677
0.000171677
0.000171677
0.000171676
0.000142181
0.000142366
0.000171698
0.000171665
0.000171698
0.000171665
0.000171679
0.000171706
0.000171679
0.000142168
0.000142353
0.000171703
0.000171696
0.000171703
0.000142357
0.000142175
0.000142361
0.000171677
0.000171676
0.000171677
0.000171675
0.000142181
0.000142367
0.000171698
0.000171665
0.000171698
0.000171665
0.000171679
0.000171706
0.000171679
0.000142168
0.000142353
0.000171703
0.000171696
0.000171702
0.000142357
0.000142175
0.000142362
0.000171678
0.000171674
0.000171678
0.000171674
0.000142181
0.000142367
0.000171699
0.000171665
0.000171699
0.000171665
0.00017168
0.000171705
0.000171679
0.000142168
0.000142353
0.000171703
0.000171696
0.000171702
0.000142357
0.000142176
0.000142362
0.000171679
0.000171674
0.000171679
0.000171674
0.000142181
0.000142367
0.000171699
0.000171665
0.000171699
0.000171665
0.000171679
0.000171705
0.000171679
0.000142168
0.000142353
0.000171703
0.000171696
0.000171702
0.000142357
0.000142176
0.000142362
0.00017168
0.000171674
0.00017168
0.000171674
0.00014218
0.000142367
0.0001717
0.000171665
0.0001717
0.000171665
0.000171679
0.000171706
0.000171679
0.000142168
0.000142353
0.000171702
0.000171696
0.000171702
0.000142357
0.000142176
0.000142363
0.00017168
0.000171674
0.00017168
0.000171674
0.00014218
0.000142367
0.0001717
0.000171665
0.0001717
0.000171665
0.000171679
0.000171706
0.000171679
0.000142168
0.000142353
0.000171701
0.000171696
0.0001717
0.000142357
0.000142177
0.000142362
0.000171681
0.000171674
0.000171681
0.000171674
0.000142181
0.000142367
0.000171701
0.000171665
0.000171701
0.000171665
0.000171679
0.000171706
0.000171679
0.000142168
0.000142353
0.0001717
0.000171696
0.000171699
0.000142357
0.000142177
0.000142363
0.000171681
0.000171674
0.000171681
0.000171674
0.00014218
0.000142367
0.000171701
0.000171665
0.000171701
0.000171665
0.000171679
0.000171706
0.000171679
0.000142168
0.000142354
0.0001717
0.000171696
0.000171699
0.000142356
0.000142177
0.000142363
0.000171681
0.000171674
0.000171681
0.000171674
0.000142181
0.000142367
0.000171701
0.000171665
0.000171701
0.000171665
0.000171679
0.000171706
0.000171679
0.000142168
0.000142353
0.0001717
0.000171696
0.000171699
0.000142356
0.000142177
0.000142363
0.000171681
0.000171675
0.00017168
0.000171674
0.000142181
0.000142366
0.000171701
0.000171665
0.000171701
0.000171665
0.000171679
0.000171706
0.000171679
0.000142168
0.000142353
0.000171699
0.000171696
0.000171699
0.000142356
0.000142177
0.000142363
0.000171681
0.000171675
0.00017168
0.000171674
0.00014218
0.000142366
0.000171701
0.000171665
0.000171701
0.000171665
0.000171679
0.000171706
0.000171679
0.000142168
0.000142353
0.0001717
0.000171696
0.000171699
0.000142356
0.000142177
0.000142363
0.000171681
0.000171674
0.00017168
0.000171674
0.00014218
0.000142366
0.000171702
0.000171665
0.000171701
0.000171665
0.000171679
0.000171706
0.000171679
0.000142168
0.000142353
0.0001717
0.000171696
0.000171699
0.000142356
0.000142177
0.000142363
0.000171681
0.000171675
0.00017168
0.000171674
0.00014218
0.000142367
0.000171701
0.000171665
0.000171701
0.000171665
0.000171679
0.000171706
0.000171679
0.000142168
0.000142353
0.0001717
0.000171696
0.000171699
0.000142356
0.000142177
0.000142363
0.00017168
0.000171674
0.00017168
0.000171673
0.00014218
0.000142367
0.000171701
0.000171665
0.000171701
0.000171665
0.000171679
0.000171706
0.000171679
0.000142168
0.000142353
0.000171699
0.000171696
0.000171699
0.000142356
0.000142177
0.000142363
0.000171681
0.000171674
0.00017168
0.000171673
0.000142181
0.000142367
0.000171701
0.000171665
0.000171701
0.000171665
0.000171679
0.000171706
0.000171679
0.000142168
0.000142353
0.000171699
0.000171696
0.000171699
0.000142356
0.000142177
0.000142362
0.00017168
0.000171673
0.00017168
0.000171673
0.000142181
0.000142368
0.000171701
0.000171665
0.000171701
0.000171665
0.000171679
0.000171706
0.000171679
0.000142168
0.000142354
0.000171699
0.000171696
0.000171699
0.000142356
0.000142177
0.000142362
0.000171681
0.000171674
0.00017168
0.000171673
0.000142181
0.000142367
0.000171702
0.000171665
0.000171701
0.000171665
0.000171679
0.000171706
0.000171679
0.000142168
0.000142354
0.000171699
0.000171696
0.000171699
0.000142356
0.000142177
0.000142363
0.000171681
0.000171673
0.00017168
0.000171673
0.000142181
0.000142367
0.000171701
0.000171665
0.000171701
0.000171665
0.000171679
0.000171706
0.000171679
0.000142168
0.000142353
0.0001717
0.000171696
0.000171699
0.000142356
0.000142177
0.000142363
0.00017168
0.000171673
0.00017168
0.000171673
0.000142181
0.000142368
0.000171701
0.000171665
0.000171701
0.000171665
0.000171679
0.000171706
0.000171679
0.000142168
0.000142353
0.000171699
0.000171696
0.000171699
0.000142356
0.000142177
0.000142362
0.000171681
0.000171673
0.00017168
0.000171673
0.000142181
0.000142368
0.000171701
0.000171665
0.000171701
0.000171665
0.000171679
0.000171706
0.000171679
0.000142168
0.000142354
0.0001717
0.000171696
0.000171699
0.000142356
0.000142177
0.000142363
0.00017168
0.000171673
0.00017168
0.000171673
0.000142181
0.000142368
0.000171701
0.000171665
0.000171701
0.000171665
0.000171679
0.000171706
0.000171679
0.000142168
0.000142353
0.000171699
0.000171696
0.000171699
0.000142356
0.000142177
0.000142362
0.000171681
0.000171673
0.000171681
0.000171673
0.000142181
0.000142367
0.000171702
0.000171665
0.000171701
0.000171665
0.000171679
0.000171706
0.000171679
0.000142168
0.000142353
0.0001717
0.000171696
0.000171699
0.000142356
0.000142177
0.000142362
0.000171681
0.000171674
0.00017168
0.000171674
0.000142181
0.000142366
0.000171701
0.000171665
0.000171701
0.000171665
0.000171679
0.000171706
0.000171679
0.000142168
0.000142353
0.000171699
0.000171696
0.000171699
0.000142356
0.000142176
0.000142362
0.00017168
0.000171675
0.00017168
0.000171674
0.00014218
0.000142366
0.000171701
0.000171665
0.0001717
0.000171665
0.000171679
0.000171706
0.000171679
0.000142168
0.000142353
0.000171699
0.000171696
0.000171699
0.000142356
0.000142176
0.000142361
0.000171681
0.000171674
0.00017168
0.000171674
0.000142181
0.000142367
0.000171701
0.000171665
0.0001717
0.000171665
0.000171679
0.000171706
0.000171679
0.000142168
0.000142353
0.000171699
0.000171696
0.000171699
0.000142356
0.000142176
0.000142361
0.000171681
0.000171675
0.000171681
0.000171674
0.000142181
0.000142367
0.0001717
0.000171665
0.0001717
0.000171665
0.000171679
0.000171706
0.000171679
0.000142168
0.000142353
0.000171699
0.000171696
0.000171699
0.000142356
0.000142176
0.000142362
0.000171681
0.000171675
0.000171681
0.000171674
0.000142181
0.000142367
0.0001717
0.000171665
0.0001717
0.000171665
0.000171679
0.000171706
0.000171679
0.000142168
0.000142353
0.000171699
0.000171696
0.000171699
0.000142356
0.000142176
0.000142362
0.000171681
0.000171675
0.000171681
0.000171674
0.000142181
0.000142367
0.0001717
0.000171665
0.0001717
0.000171665
0.000171679
0.000171706
0.000171679
0.000142168
0.000142353
0.000171699
0.000171696
0.000171699
0.000142356
0.000142176
0.000142362
0.000171681
0.000171674
0.000171681
0.000171674
0.000142181
0.000142367
0.0001717
0.000171665
0.0001717
0.000171665
0.000171679
0.000171706
0.000171679
0.000142168
0.000142353
0.000171699
0.000171696
0.000171699
0.000142356
0.000142176
0.000142362
0.000171681
0.000171674
0.000171681
0.000171674
0.000142181
0.000142367
0.0001717
0.000171665
0.0001717
0.000171665
0.000171679
0.000171706
0.000171679
0.000142168
0.000142353
0.000171699
0.000171696
0.000171699
0.000142356
0.000142176
0.000142362
0.000171681
0.000171675
0.000171681
0.000171674
0.000142181
0.000142367
0.0001717
0.000171665
0.0001717
0.000171665
0.000171679
0.000171706
0.000171679
0.000142168
0.000142353
0.000171699
0.000171696
0.000171699
0.000142356
0.000142176
0.000142362
0.000171682
0.000171675
0.000171681
0.000171674
0.000142181
0.000142367
0.0001717
0.000171665
0.0001717
0.000171665
0.000171679
0.000171706
0.000171679
0.000142168
0.000142353
0.000171699
0.000171696
0.000171699
0.000142356
0.000142176
0.000142362
0.000171681
0.000171675
0.000171681
0.000171674
0.000142181
0.000142367
0.000171701
0.000171665
0.0001717
0.000171665
0.000171679
0.000171706
0.000171679
0.000142168
0.000142353
0.000171699
0.000171696
0.000171699
0.000142356
0.000142176
0.000142362
0.000171682
0.000171675
0.000171681
0.000171674
0.000142181
0.000142367
0.0001717
0.000171665
0.0001717
0.000171665
0.000171679
0.000171707
0.000171679
0.000142168
0.000142353
0.000171699
0.000171696
0.000171699
0.000142356
0.000142177
0.000142362
0.000171681
0.000171674
0.000171681
0.000171674
0.000142181
0.000142367
0.000171701
0.000171665
0.0001717
0.000171665
0.000171679
0.000171706
0.000171679
0.000142168
0.000142353
0.000171699
0.000171696
0.000171699
0.000142356
0.000142176
0.000142362
0.000171682
0.000171675
0.000171681
0.000171674
0.000142181
0.000142367
0.0001717
0.000171665
0.0001717
0.000171665
0.000171679
0.000171706
0.000171679
0.000142168
0.000142354
0.000171699
0.000171696
0.000171698
0.000142356
0.000142176
0.000142362
0.000171682
0.000171675
0.000171681
0.000171674
0.000142181
0.000142367
0.0001717
0.000171665
0.0001717
0.000171665
0.000171679
0.000171706
0.000171679
0.000142168
0.000142353
0.000171699
0.000171696
0.000171698
0.000142356
0.000142176
0.000142362
0.000171681
0.000171674
0.000171681
0.000171674
0.000142181
0.000142367
0.0001717
0.000171665
0.0001717
0.000171665
0.000171679
0.000171707
0.000171679
0.000142168
0.000142353
0.000171699
0.000171696
0.000171698
0.000142356
0.000142176
0.000142362
0.000171682
0.000171675
0.000171681
0.000171674
0.000142181
0.000142367
0.0001717
0.000171665
0.0001717
0.000171665
0.000171679
0.000171707
0.000171679
0.000142168
0.000142353
0.000171698
0.000171696
0.000171698
0.000142356
0.000142176
0.000142362
0.000171681
0.000171675
0.000171681
0.000171674
0.000142181
0.000142367
0.0001717
0.000171665
0.0001717
0.000171665
0.000171679
0.000171707
0.000171679
0.000142168
0.000142353
0.000171699
0.000171696
0.000171698
0.000142356
0.000142177
0.000142362
0.000171682
0.000171675
0.000171681
0.000171674
0.000142181
0.000142367
0.0001717
0.000171665
0.0001717
0.000171665
0.000171679
0.000171706
0.000171679
0.000142168
0.000142353
0.000171698
0.000171696
0.000171698
0.000142356
0.000142177
0.000142362
0.000171682
0.000171675
0.000171681
0.000171674
0.000142181
0.000142367
0.0001717
0.000171665
0.0001717
0.000171665
0.000171679
0.000171706
0.000171679
0.000142168
0.000142353
0.000171699
0.000171696
0.000171698
0.000142356
0.000142176
0.000142362
0.000171681
0.000171674
0.000171681
0.000171674
0.000142181
0.000142367
0.0001717
0.000171665
0.0001717
0.000171665
0.000171679
0.000171706
0.000171679
0.000142168
0.000142353
0.000171698
0.000171696
0.000171698
0.000142356
0.000142176
0.000142362
0.000171682
0.000171675
0.000171681
0.000171674
0.000142181
0.000142367
0.0001717
0.000171665
0.0001717
0.000171665
0.000171679
0.000171706
0.000171679
0.000142168
0.000142353
0.000171699
0.000171696
0.000171698
0.000142356
0.000142176
0.000142362
0.000171681
0.000171675
0.000171681
0.000171674
0.000142181
0.000142367
0.0001717
0.000171665
0.0001717
0.000171665
0.000171679
0.000171706
0.000171679
0.000142168
0.000142353
0.000171698
0.000171696
0.000171698
0.000142356
0.000142176
0.000142362
0.000171682
0.000171675
0.000171681
0.000171674
0.000142181
0.000142367
0.0001717
0.000171665
0.0001717
0.000171665
0.000171679
0.000171707
0.000171679
0.000142168
0.000142353
0.000171698
0.000171696
0.000171698
0.000142356
0.000142176
0.000142362
0.000171681
0.000171675
0.000171681
0.000171674
0.000142181
0.000142367
0.0001717
0.000171665
0.0001717
0.000171665
0.000171679
0.000171707
0.000171679
0.000142168
0.000142353
0.000171699
0.000171696
0.000171698
0.000142356
0.000142176
0.000142362
0.000171682
0.000171675
0.000171681
0.000171674
0.000142181
0.000142367
0.0001717
0.000171665
0.0001717
0.000171665
0.000171679
0.000171706
0.000171679
0.000142168
0.000142353
0.000171698
0.000171696
0.000171698
0.000142356
0.000142176
0.000142362
0.000171681
0.000171674
0.000171681
0.000171674
0.000142181
0.000142367
0.0001717
0.000171665
0.0001717
0.000171665
0.000171679
0.000171706
0.000171679
0.000142168
0.000142353
0.000171698
0.000171696
0.000171698
0.000142356
0.000142177
0.000142362
0.000171682
0.000171675
0.000171681
0.000171674
0.000142181
0.000142367
0.0001717
0.000171665
0.0001717
0.000171665
0.000171679
0.000171706
0.000171679
0.000142168
0.000142353
0.000171698
0.000171696
0.000171698
0.000142356
0.000142177
0.000142362
0.000171681
0.000171674
0.000171681
0.000171674
0.000142181
0.000142367
0.0001717
0.000171665
0.0001717
0.000171665
0.000171679
0.000171706
0.000171679
0.000142168
0.000142353
0.000171698
0.000171696
0.000171698
0.000142356
0.000142176
0.000142362
0.000171681
0.000171675
0.000171681
0.000171674
0.000142181
0.000142367
0.0001717
0.000171665
0.0001717
0.000171665
0.000171679
0.000171706
0.000171679
0.000142168
0.000142353
0.000171699
0.000171696
0.000171698
0.000142356
0.000142176
0.000142362
0.000171682
0.000171674
0.000171681
0.000171674
0.000142181
0.000142367
0.0001717
0.000171665
0.0001717
0.000171665
0.000171679
0.000171706
0.000171679
0.000142168
0.000142353
0.000171698
0.000171696
0.000171698
0.000142356
0.000142176
0.000142362
0.000171681
0.000171675
0.000171681
0.000171674
0.000142181
0.000142367
0.0001717
0.000171665
0.0001717
0.000171665
0.000171679
0.000171706
0.000171679
0.000142168
0.000142353
0.000171699
0.000171696
0.000171698
0.000142356
0.000142177
0.000142362
0.000171682
0.000171675
0.000171681
0.000171674
0.000142181
0.000142367
0.0001717
0.000171665
0.0001717
0.000171665
0.000171679
0.000171706
0.000171679
0.000142168
0.000142353
0.000171699
0.000171696
0.000171698
0.000142356
0.000142176
0.000142362
0.000171681
0.000171674
0.000171681
0.000171674
0.000142181
0.000142367
0.0001717
0.000171665
0.0001717
0.000171665
0.000171679
0.000171706
0.000171679
0.000142168
0.000142353
0.000171699
0.000171696
0.000171698
0.000142356
0.000142176
0.000142362
0.000171682
0.000171675
0.000171681
0.000171674
0.000142181
0.000142367
0.0001717
0.000171665
0.0001717
0.000171665
0.000171679
0.000171706
0.000171679
0.000142168
0.000142353
0.000171699
0.000171696
0.000171699
0.000142356
0.000142176
0.000142362
0.000171681
0.000171674
0.000171681
0.000171674
0.000142181
0.000142367
0.0001717
0.000171665
0.0001717
0.000171665
0.000171679
0.000171706
0.000171679
0.000142168
0.000142353
0.000171699
0.000171696
0.000171699
0.000142356
0.000142176
0.000142362
0.000171682
0.000171675
0.000171681
0.000171674
0.000142181
0.000142367
0.0001717
0.000171665
0.0001717
0.000171665
0.000171679
0.000171706
0.000171679
0.000142168
0.000142353
0.000171699
0.000171696
0.000171699
0.000142356
0.000142176
0.000142362
0.000171681
0.000171674
0.000171681
0.000171674
0.000142181
0.000142367
0.0001717
0.000171665
0.0001717
0.000171665
0.000171679
0.000171706
0.000171679
0.000142168
0.000142353
0.000171699
0.000171696
0.000171699
0.000142356
0.000142176
0.000142362
0.000171682
0.000171675
0.000171681
0.000171674
0.000142181
0.000142367
0.0001717
0.000171665
0.0001717
0.000171665
0.000171679
0.000171706
0.000171679
0.000142168
0.000142353
0.000171699
0.000171696
0.000171699
0.000142356
0.000142176
0.000142362
0.000171681
0.000171674
0.000171681
0.000171674
0.000142181
0.000142367
0.0001717
0.000171665
0.0001717
0.000171665
0.000171679
0.000171706
0.000171679
0.000142168
0.000142353
0.000171699
0.000171696
0.000171698
0.000142356
0.000142176
0.000142362
0.000171682
0.000171675
0.000171681
0.000171674
0.000142181
0.000142367
0.0001717
0.000171665
0.0001717
0.000171665
0.000171679
0.000171706
0.000171679
0.000142168
0.000142353
0.000171699
0.000171696
0.000171698
0.000142356
0.000142176
0.000142362
0.000171681
0.000171674
0.000171681
0.000171674
0.000142181
0.000142367
0.0001717
0.000171665
0.0001717
0.000171665
0.000171679
0.000171707
0.000171679
0.000142168
0.000142353
0.000171699
0.000171696
0.000171698
0.000142356
0.000142176
0.000142362
0.000171682
0.000171675
0.000171681
0.000171674
0.000142181
0.000142367
0.0001717
0.000171665
0.0001717
0.000171665
0.000171679
0.000171707
0.000171679
0.000142168
0.000142353
0.000171698
0.000171696
0.000171698
0.000142356
0.000142177
0.000142362
0.000171681
0.000171674
0.000171681
0.000171674
0.000142181
0.000142367
0.0001717
0.000171665
0.0001717
0.000171665
0.000171679
0.000171706
0.000171679
0.000142168
0.000142353
0.000171699
0.000171696
0.000171698
0.000142356
0.000142176
0.000142362
0.000171682
0.000171675
0.000171681
0.000171674
0.000142181
0.000142367
0.0001717
0.000171665
0.0001717
0.000171665
0.000171679
0.000171706
0.000171679
0.000142168
0.000142353
0.000171698
0.000171696
0.000171698
0.000142356
0.000142176
0.000142362
0.000171682
0.000171675
0.000171681
0.000171675
0.000142181
0.000142367
0.0001717
0.000171665
0.0001717
0.000171665
0.000171679
0.000171707
0.000171679
0.000142168
0.000142353
0.000171699
0.000171696
0.000171698
0.000142356
0.000142176
0.000142362
0.000171682
0.000171675
0.000171682
0.000171675
0.000142181
0.000142367
0.000171701
0.000171666
0.000171701
0.000171665
0.00017168
0.000171707
0.00017168
0.000142168
0.000142353
0.000171699
0.000171696
0.000171699
0.000142356
0.000142177
0.000142362
0.000171682
0.000171675
0.000171682
0.000171675
0.000142181
0.000142367
0.000171701
0.000171666
0.000171701
0.000171666
0.00017168
0.000171707
0.00017168
0.000142168
0.000142354
0.000171699
0.000171696
0.000171699
0.000142357
0.000142177
0.000142363
0.000171683
0.000171676
0.000171683
0.000171676
0.000142182
0.000142368
0.000171702
0.000171666
0.000171702
0.000171667
0.00017168
0.000171708
0.000171681
0.000142169
0.000142354
0.0001717
0.000171697
0.0001717
0.000142357
0.000142178
0.000142365
0.000171684
0.000171677
0.000171686
0.000171679
0.000142183
0.00014237
0.000171703
0.000171668
0.000171705
0.000171669
0.000171682
0.000171712
0.000171683
0.00014217
0.000142357
0.000171701
0.000171701
0.000171703
0.000142359
0.000142181
0.000142369
0.000171687
0.00017168
0.000171691
0.000171684
0.000142185
0.000142374
0.000171706
0.000171671
0.00017171
0.000171675
0.000171685
0.000171718
0.000171688
0.000142173
0.000142361
0.000171704
0.000171707
0.000171708
0.000142363
0.000142185
0.000142375
0.000171693
0.000171685
0.000171702
0.000171696
0.00014219
0.00014238
0.000171712
0.000171676
0.000171721
0.000171686
0.00017169
0.00017173
0.0001717
0.000142177
0.000142366
0.000171709
0.000171719
0.00017172
0.000142369
0.000142192
0.0001424
0.000171704
0.000171699
0.00017175
0.000171745
0.000142196
0.000142406
0.000171724
0.000171689
0.00017177
0.000171736
0.000171703
0.000171777
0.000171748
0.000142183
0.000142392
0.000171722
0.000171767
0.00017177
0.000142395
0.000142219
0.000144086
0.00017171
0.000171705
0.000173872
0.000173868
0.000142223
0.000144089
0.000171731
0.000171695
0.000173887
0.000173864
0.000171707
0.000173889
0.000173871
0.000142211
0.00014408
0.00017173
0.000173885
0.000173888
0.000144085
0.000146312
0.000174946
0.000174942
0.000146312
0.000174958
0.000174939
0.000209108
0.000209107
0.000209108
0.000174945
0.000146306
0.000174959
0.00023473
0.000234746
0.000234729
0.000234729
0.000235119
0.000234798
0.000234701
0.000234727
0.000235119
0.000234798
0.000234727
0.000234701
0.000234868
0.000233566
0.000233566
0.00010464
3.87451e-05
0.000129141
3.98211e-05
2.16834e-05
2.28288e-05
0.000104629
3.87412e-05
0.000129139
3.98176e-05
0.000233973
0.000233973
0.000233973
0.000232935
0.000232935
0.000232935
0.000232935
0.000206187
9.36617e-05
0.000233969
0.000231994
0.000222626
8.72382e-05
0.000233611
2.16824e-05
2.28281e-05
0.000206179
0.000233969
9.36611e-05
0.000231994
0.000222635
0.000233611
8.7244e-05
4.77867e-05
4.77748e-05
0.000231347
4.40354e-05
4.40259e-05
7.25696e-05
4.24376e-05
8.14127e-05
4.37589e-05
2.47773e-05
2.54616e-05
7.2559e-05
4.24341e-05
8.141e-05
4.3755e-05
0.000232533
0.000232532
0.000232533
0.000231081
0.000231082
0.000231081
0.000231081
0.000167506
7.94167e-05
0.000232081