/*--------------------------------*- C++ -*----------------------------------*\
| =========                 |                                                 |
| \\      /  F ield         | OpenFOAM: The Open Source CFD Toolbox           |
|  \\    /   O peration     | Version:  2206                                  |
|   \\  /    A nd           | Website:  www.openfoam.com                      |
|    \\/     M anipulation  |                                                 |
\*---------------------------------------------------------------------------*/
FoamFile
{
    version     2.0;
    format      ascii;
    arch        "LSB;label=32;scalar=64";
    class       volScalarField;
    location    "39.5";
    object      p;
}
// * * * * * * * * * * * * * * * * * * * * * * * * * * * * * * * * * * * * * //

dimensions      [0 2 -2 0 0 0 0];

internalField   nonuniform List<scalar> 
171728
(
0.00382837
0.0038287
0.0038287
0.00383175
0.00377301
0.00377342
0.00377342
0.00377642
0.00372225
0.00372222
0.00372222
0.00372498
0.00366985
0.00366986
0.00366986
0.00367263
0.0036185
0.0036185
0.0036185
0.00362124
0.00356851
0.00356851
0.00356851
0.00357122
0.00352003
0.00352003
0.00352004
0.00352269
0.00347352
0.0034734
0.0034734
0.00347592
0.00343021
0.00343007
0.00343007
0.00343247
0.00338963
0.00338956
0.00338956
0.00339196
0.00334959
0.00334954
0.00334954
0.00335191
0.00330968
0.00330963
0.00330963
0.003312
0.0032698
0.00326975
0.00326975
0.00327212
0.00322992
0.00322988
0.00322988
0.00323225
0.00319005
0.00319001
0.00319001
0.00319238
0.00315018
0.00315014
0.00315014
0.00315251
0.00311031
0.00311027
0.00311027
0.00311264
0.00307044
0.0030704
0.0030704
0.00307277
0.00303057
0.00303053
0.00303053
0.00303289
0.00299069
0.00299065
0.00299065
0.00299302
0.00295081
0.00295077
0.00295077
0.00295313
0.00291092
0.00291088
0.00291088
0.00291325
0.00287105
0.002871
0.002871
0.00287337
0.00283117
0.00283113
0.00283113
0.00283349
0.00279129
0.00279125
0.00279125
0.00279361
0.00275141
0.00275137
0.00275137
0.00275373
0.00271153
0.00271149
0.00271149
0.00271385
0.00267165
0.00267161
0.00267161
0.00267398
0.00263177
0.00263173
0.00263173
0.0026341
0.0025919
0.00259185
0.00259185
0.00259422
0.00255202
0.00255198
0.00255198
0.00255434
0.00251214
0.0025121
0.0025121
0.00251447
0.00247227
0.00247223
0.00247223
0.0024746
0.0024324
0.00243236
0.00243236
0.00243472
0.00239253
0.00239248
0.00239248
0.00239485
0.00235265
0.00235261
0.00235261
0.00235498
0.00231278
0.00231274
0.00231274
0.0023151
0.0022729
0.00227286
0.00227286
0.00227523
0.00223302
0.00223298
0.00223298
0.00223535
0.00219314
0.0021931
0.0021931
0.00219547
0.00215327
0.00215323
0.00215323
0.00215559
0.00211339
0.00211335
0.00211335
0.00211572
0.00207352
0.00207348
0.00207348
0.00207584
0.00203364
0.0020336
0.0020336
0.00203597
0.00199377
0.00199373
0.00199373
0.00199609
0.00195389
0.00195385
0.00195385
0.00195622
0.00191402
0.00191397
0.00191397
0.00191634
0.00187414
0.0018741
0.0018741
0.00187646
0.00183426
0.00183422
0.00183422
0.00183659
0.00179439
0.00179435
0.00179435
0.00179671
0.00175451
0.00175447
0.00175447
0.00175684
0.00171464
0.0017146
0.0017146
0.00171696
0.00167477
0.00167472
0.00167472
0.00167709
0.00163489
0.00163485
0.00163485
0.00163721
0.00159501
0.00159497
0.00159497
0.00159734
0.00155513
0.00155508
0.00155508
0.00155745
0.00151524
0.00151519
0.00151519
0.00151756
0.00147535
0.00147531
0.00147531
0.00147768
0.00143547
0.00143543
0.00143543
0.00143779
0.00139558
0.00139554
0.00139554
0.00139791
0.0013557
0.00135566
0.00135566
0.00135803
0.00131582
0.00131578
0.00131578
0.00131814
0.00127594
0.00127589
0.00127589
0.00127826
0.00123605
0.00123601
0.00123601
0.00123838
0.00119617
0.00119613
0.00119613
0.0011985
0.00115629
0.00115625
0.00115625
0.00115861
0.00111641
0.00111636
0.00111636
0.00111873
0.00107652
0.00107648
0.00107648
0.00107885
0.00103664
0.0010366
0.0010366
0.00103897
0.000996764
0.000996722
0.000996722
0.000999089
0.000956884
0.000956842
0.000956843
0.00095921
0.000917005
0.000916963
0.000916964
0.000919331
0.000877122
0.000877081
0.00087708
0.000879448
0.000837234
0.000837192
0.000837191
0.000839558
0.00079735
0.000797307
0.000797308
0.000799675
0.00075747
0.000757428
0.000757428
0.000759795
0.000717589
0.000717547
0.000717547
0.000719914
0.000677706
0.000677665
0.000677664
0.000680032
0.000637823
0.000637781
0.000637781
0.000640149
0.00059794
0.000597898
0.000597898
0.000600265
0.000558058
0.000558016
0.000558016
0.000560383
0.000518177
0.000518135
0.000518135
0.000520502
0.000478299
0.000478256
0.000478257
0.000480624
0.00043842
0.000438378
0.000438378
0.000440745
0.000398543
0.000398502
0.000398501
0.000400868
0.000358667
0.000358627
0.000358626
0.000360993
0.000318789
0.000318746
0.000318745
0.000321111
0.000278916
0.000278878
0.000278877
0.000281243
0.000239035
0.000238991
0.00023899
0.000241354
0.000199153
0.000199116
0.000199116
0.000201475
0.000159257
0.000159218
0.000159219
0.00016157
0.000119349
0.000119314
0.000119314
0.000121652
7.94443e-05
7.93984e-05
7.93966e-05
8.17089e-05
4.02358e-05
3.9685e-05
3.96819e-05
4.18579e-05
8.12338e-06
8.22494e-06
8.22248e-06
7.76806e-06
0.00384178
0.003842
0.003842
0.00384178
0.003842
0.003842
0.00384277
0.00384276
0.00384277
0.00384277
0.003842
0.003842
0.00384178
0.00384201
0.00384201
0.00384178
0.00383175
0.00378299
0.0038287
0.0038287
0.00378527
0.00378527
0.00383175
0.00378299
0.0038287
0.0038287
0.00378527
0.00378527
0.0038287
0.00378526
0.00378527
0.00383175
0.00378299
0.0038287
0.00378526
0.00378526
0.00378299
0.00377642
0.0037319
0.00377343
0.00377343
0.00373535
0.00373535
0.00377642
0.0037319
0.00377342
0.00377343
0.00373534
0.00373534
0.00377343
0.00373534
0.00373535
0.00377642
0.0037319
0.00377342
0.00373534
0.00373534
0.0037319
0.00372498
0.00367952
0.00372222
0.00372222
0.00368288
0.00368288
0.00372498
0.00367952
0.00372222
0.00372222
0.00368288
0.00368288
0.00372222
0.00368288
0.00368288
0.00372498
0.00367952
0.00372222
0.00368288
0.00368288
0.00367952
0.00367263
0.00362796
0.00366986
0.00366987
0.00363122
0.00363122
0.00367263
0.00362796
0.00366986
0.00366986
0.00363122
0.00363122
0.00366986
0.00363122
0.00363122
0.00367263
0.00362796
0.00366986
0.00363122
0.00363122
0.00362795
0.00362125
0.00357773
0.0036185
0.0036185
0.00358087
0.00358087
0.00362125
0.00357773
0.0036185
0.0036185
0.00358087
0.00358087
0.0036185
0.00358087
0.00358087
0.00362125
0.00357773
0.0036185
0.00358087
0.00358087
0.00357773
0.00357123
0.003529
0.00356851
0.00356851
0.003532
0.003532
0.00357123
0.003529
0.00356851
0.00356851
0.003532
0.003532
0.00356851
0.003532
0.003532
0.00357123
0.003529
0.00356851
0.003532
0.003532
0.003529
0.00352269
0.00348192
0.00352004
0.00352004
0.00348476
0.00348476
0.00352269
0.00348192
0.00352004
0.00352004
0.00348476
0.00348476
0.00352004
0.00348476
0.00348476
0.00352269
0.00348192
0.00352004
0.00348477
0.00348477
0.00348191
0.00347592
0.00343792
0.0034734
0.0034734
0.00344052
0.00344052
0.00347592
0.00343792
0.0034734
0.0034734
0.00344052
0.00344052
0.0034734
0.00344052
0.00344052
0.00347592
0.00343792
0.0034734
0.00344052
0.00344053
0.00343792
0.00343246
0.00339723
0.00343007
0.00343007
0.0033996
0.0033996
0.00343246
0.00339723
0.00343007
0.00343007
0.0033996
0.0033996
0.00343007
0.0033996
0.0033996
0.00343246
0.00339723
0.00343007
0.0033996
0.0033996
0.00339723
0.00339196
0.00335716
0.00338956
0.00338956
0.00335953
0.00335953
0.00339196
0.00335716
0.00338956
0.00338956
0.00335953
0.00335953
0.00338956
0.00335953
0.00335953
0.00339196
0.00335716
0.00338956
0.00335953
0.00335953
0.00335716
0.00335191
0.00331724
0.00334954
0.00334954
0.0033196
0.0033196
0.00335191
0.00331724
0.00334954
0.00334954
0.0033196
0.0033196
0.00334954
0.0033196
0.0033196
0.00335191
0.00331724
0.00334954
0.0033196
0.0033196
0.00331724
0.003312
0.00327737
0.00330963
0.00330963
0.00327972
0.00327972
0.003312
0.00327737
0.00330963
0.00330963
0.00327972
0.00327972
0.00330963
0.00327972
0.00327972
0.003312
0.00327737
0.00330963
0.00327972
0.00327972
0.00327736
0.00327212
0.00323749
0.00326976
0.00326975
0.00323985
0.00323985
0.00327212
0.00323749
0.00326975
0.00326976
0.00323985
0.00323985
0.00326975
0.00323985
0.00323985
0.00327212
0.00323749
0.00326975
0.00323985
0.00323985
0.00323749
0.00323225
0.00319762
0.00322988
0.00322988
0.00319998
0.00319998
0.00323225
0.00319762
0.00322988
0.00322988
0.00319998
0.00319998
0.00322988
0.00319998
0.00319998
0.00323225
0.00319762
0.00322988
0.00319998
0.00319998
0.00319762
0.00319238
0.00315775
0.00319001
0.00319001
0.00316011
0.00316011
0.00319238
0.00315775
0.00319001
0.00319001
0.00316011
0.00316011
0.00319001
0.00316011
0.00316011
0.00319238
0.00315775
0.00319001
0.00316011
0.00316011
0.00315775
0.00315251
0.00311788
0.00315014
0.00315014
0.00312024
0.00312024
0.00315251
0.00311788
0.00315014
0.00315014
0.00312024
0.00312024
0.00315014
0.00312024
0.00312024
0.00315251
0.00311788
0.00315014
0.00312024
0.00312024
0.00311788
0.00311264
0.00307801
0.00311027
0.00311027
0.00308037
0.00308037
0.00311264
0.00307801
0.00311027
0.00311027
0.00308037
0.00308037
0.00311027
0.00308037
0.00308037
0.00311264
0.00307801
0.00311027
0.00308037
0.00308037
0.00307801
0.00307277
0.00303814
0.0030704
0.0030704
0.0030405
0.0030405
0.00307277
0.00303814
0.0030704
0.0030704
0.0030405
0.0030405
0.0030704
0.0030405
0.0030405
0.00307277
0.00303814
0.0030704
0.0030405
0.0030405
0.00303814
0.00303289
0.00299826
0.00303053
0.00303053
0.00300062
0.00300062
0.00303289
0.00299826
0.00303053
0.00303053
0.00300062
0.00300062
0.00303053
0.00300062
0.00300062
0.00303289
0.00299826
0.00303053
0.00300062
0.00300062
0.00299826
0.00299302
0.00295838
0.00299065
0.00299065
0.00296074
0.00296074
0.00299302
0.00295838
0.00299065
0.00299065
0.00296074
0.00296074
0.00299065
0.00296074
0.00296074
0.00299302
0.00295838
0.00299065
0.00296074
0.00296074
0.00295838
0.00295313
0.00291849
0.00295077
0.00295077
0.00292085
0.00292085
0.00295313
0.00291849
0.00295077
0.00295077
0.00292085
0.00292085
0.00295077
0.00292085
0.00292085
0.00295313
0.00291849
0.00295077
0.00292085
0.00292085
0.00291849
0.00291325
0.00287861
0.00291088
0.00291088
0.00288097
0.00288097
0.00291325
0.00287861
0.00291088
0.00291088
0.00288097
0.00288097
0.00291088
0.00288097
0.00288097
0.00291325
0.00287861
0.00291088
0.00288097
0.00288097
0.00287861
0.00287337
0.00283874
0.002871
0.002871
0.0028411
0.0028411
0.00287337
0.00283874
0.002871
0.002871
0.0028411
0.0028411
0.002871
0.0028411
0.0028411
0.00287337
0.00283874
0.002871
0.0028411
0.0028411
0.00283874
0.00283349
0.00279886
0.00283113
0.00283113
0.00280122
0.00280122
0.00283349
0.00279886
0.00283113
0.00283113
0.00280122
0.00280122
0.00283113
0.00280122
0.00280122
0.00283349
0.00279886
0.00283113
0.00280122
0.00280122
0.00279886
0.00279361
0.00275898
0.00279125
0.00279125
0.00276134
0.00276134
0.00279361
0.00275898
0.00279125
0.00279125
0.00276134
0.00276134
0.00279125
0.00276134
0.00276134
0.00279361
0.00275898
0.00279125
0.00276134
0.00276134
0.00275898
0.00275373
0.0027191
0.00275137
0.00275137
0.00272146
0.00272146
0.00275373
0.0027191
0.00275137
0.00275137
0.00272146
0.00272146
0.00275137
0.00272146
0.00272146
0.00275373
0.0027191
0.00275137
0.00272146
0.00272146
0.0027191
0.00271385
0.00267922
0.00271149
0.00271149
0.00268158
0.00268158
0.00271385
0.00267922
0.00271149
0.00271149
0.00268158
0.00268158
0.00271149
0.00268158
0.00268158
0.00271385
0.00267922
0.00271149
0.00268158
0.00268158
0.00267922
0.00267398
0.00263934
0.00267161
0.00267161
0.0026417
0.0026417
0.00267398
0.00263934
0.00267161
0.00267161
0.0026417
0.0026417
0.00267161
0.0026417
0.0026417
0.00267398
0.00263934
0.00267161
0.0026417
0.0026417
0.00263934
0.0026341
0.00259946
0.00263173
0.00263173
0.00260182
0.00260182
0.0026341
0.00259947
0.00263173
0.00263173
0.00260182
0.00260182
0.00263173
0.00260182
0.00260182
0.0026341
0.00259946
0.00263173
0.00260182
0.00260182
0.00259946
0.00259422
0.00255959
0.00259185
0.00259185
0.00256195
0.00256195
0.00259422
0.00255959
0.00259185
0.00259185
0.00256195
0.00256195
0.00259185
0.00256195
0.00256195
0.00259422
0.00255959
0.00259185
0.00256195
0.00256195
0.00255959
0.00255434
0.00251971
0.00255198
0.00255198
0.00252207
0.00252207
0.00255434
0.00251971
0.00255198
0.00255198
0.00252207
0.00252207
0.00255198
0.00252207
0.00252207
0.00255434
0.00251971
0.00255198
0.00252207
0.00252207
0.00251971
0.00251447
0.00247984
0.0025121
0.0025121
0.0024822
0.0024822
0.00251447
0.00247984
0.0025121
0.0025121
0.0024822
0.0024822
0.0025121
0.0024822
0.0024822
0.00251447
0.00247984
0.0025121
0.0024822
0.0024822
0.00247984
0.0024746
0.00243997
0.00247223
0.00247223
0.00244233
0.00244233
0.0024746
0.00243997
0.00247223
0.00247223
0.00244233
0.00244233
0.00247223
0.00244233
0.00244233
0.0024746
0.00243997
0.00247223
0.00244233
0.00244233
0.00243997
0.00243472
0.00240009
0.00243236
0.00243236
0.00240245
0.00240245
0.00243472
0.00240009
0.00243236
0.00243236
0.00240245
0.00240245
0.00243236
0.00240245
0.00240245
0.00243472
0.00240009
0.00243236
0.00240245
0.00240245
0.00240009
0.00239485
0.00236022
0.00239248
0.00239248
0.00236258
0.00236258
0.00239485
0.00236022
0.00239248
0.00239248
0.00236258
0.00236258
0.00239248
0.00236258
0.00236258
0.00239485
0.00236022
0.00239248
0.00236258
0.00236258
0.00236022
0.00235498
0.00232035
0.00235261
0.00235261
0.00232271
0.00232271
0.00235498
0.00232035
0.00235261
0.00235261
0.00232271
0.00232271
0.00235261
0.00232271
0.00232271
0.00235498
0.00232035
0.00235261
0.00232271
0.00232271
0.00232035
0.0023151
0.00228047
0.00231274
0.00231274
0.00228283
0.00228283
0.0023151
0.00228047
0.00231274
0.00231274
0.00228283
0.00228283
0.00231274
0.00228283
0.00228283
0.0023151
0.00228047
0.00231274
0.00228283
0.00228283
0.00228047
0.00227523
0.00224059
0.00227286
0.00227286
0.00224295
0.00224295
0.00227523
0.00224059
0.00227286
0.00227286
0.00224295
0.00224295
0.00227286
0.00224295
0.00224295
0.00227523
0.00224059
0.00227286
0.00224295
0.00224295
0.00224059
0.00223534
0.00220071
0.00223298
0.00223298
0.00220307
0.00220307
0.00223535
0.00220071
0.00223298
0.00223298
0.00220307
0.00220307
0.00223298
0.00220307
0.00220307
0.00223535
0.00220071
0.00223298
0.00220307
0.00220307
0.00220071
0.00219547
0.00216084
0.0021931
0.0021931
0.0021632
0.0021632
0.00219547
0.00216084
0.0021931
0.0021931
0.0021632
0.0021632
0.0021931
0.0021632
0.0021632
0.00219547
0.00216084
0.0021931
0.0021632
0.0021632
0.00216084
0.00215559
0.00212096
0.00215323
0.00215323
0.00212332
0.00212332
0.00215559
0.00212096
0.00215323
0.00215323
0.00212332
0.00212332
0.00215323
0.00212332
0.00212332
0.00215559
0.00212096
0.00215323
0.00212332
0.00212332
0.00212096
0.00211572
0.00208109
0.00211335
0.00211335
0.00208345
0.00208345
0.00211572
0.00208109
0.00211335
0.00211335
0.00208345
0.00208345
0.00211335
0.00208345
0.00208345
0.00211572
0.00208109
0.00211335
0.00208345
0.00208345
0.00208109
0.00207584
0.00204121
0.00207348
0.00207348
0.00204357
0.00204357
0.00207584
0.00204121
0.00207348
0.00207348
0.00204357
0.00204357
0.00207348
0.00204357
0.00204357
0.00207584
0.00204121
0.00207348
0.00204357
0.00204357
0.00204121
0.00203597
0.00200134
0.0020336
0.0020336
0.0020037
0.0020037
0.00203597
0.00200134
0.0020336
0.0020336
0.0020037
0.0020037
0.0020336
0.0020037
0.0020037
0.00203597
0.00200134
0.0020336
0.0020037
0.0020037
0.00200134
0.00199609
0.00196146
0.00199373
0.00199373
0.00196382
0.00196382
0.00199609
0.00196146
0.00199373
0.00199373
0.00196382
0.00196382
0.00199373
0.00196382
0.00196382
0.00199609
0.00196146
0.00199373
0.00196382
0.00196382
0.00196146
0.00195622
0.00192159
0.00195385
0.00195385
0.00192394
0.00192394
0.00195622
0.00192159
0.00195385
0.00195385
0.00192394
0.00192394
0.00195385
0.00192394
0.00192394
0.00195622
0.00192159
0.00195385
0.00192394
0.00192394
0.00192159
0.00191634
0.00188171
0.00191397
0.00191397
0.00188407
0.00188407
0.00191634
0.00188171
0.00191397
0.00191397
0.00188407
0.00188407
0.00191397
0.00188407
0.00188407
0.00191634
0.00188171
0.00191397
0.00188407
0.00188407
0.00188171
0.00187646
0.00184183
0.0018741
0.0018741
0.00184419
0.00184419
0.00187646
0.00184183
0.0018741
0.0018741
0.00184419
0.00184419
0.0018741
0.00184419
0.00184419
0.00187646
0.00184183
0.0018741
0.00184419
0.00184419
0.00184183
0.00183659
0.00180196
0.00183422
0.00183422
0.00180431
0.00180431
0.00183659
0.00180196
0.00183422
0.00183422
0.00180431
0.00180431
0.00183422
0.00180431
0.00180431
0.00183659
0.00180196
0.00183422
0.00180431
0.00180431
0.00180196
0.00179671
0.00176208
0.00179435
0.00179435
0.00176444
0.00176444
0.00179671
0.00176208
0.00179435
0.00179435
0.00176444
0.00176444
0.00179435
0.00176444
0.00176444
0.00179671
0.00176208
0.00179435
0.00176444
0.00176444
0.00176208
0.00175684
0.00172221
0.00175447
0.00175447
0.00172457
0.00172457
0.00175684
0.00172221
0.00175447
0.00175447
0.00172457
0.00172457
0.00175447
0.00172457
0.00172457
0.00175684
0.00172221
0.00175447
0.00172457
0.00172457
0.00172221
0.00171697
0.00168233
0.0017146
0.0017146
0.00168469
0.00168469
0.00171696
0.00168233
0.0017146
0.0017146
0.00168469
0.00168469
0.0017146
0.00168469
0.00168469
0.00171696
0.00168233
0.0017146
0.00168469
0.00168469
0.00168233
0.00167709
0.00164246
0.00167472
0.00167472
0.00164482
0.00164482
0.00167709
0.00164246
0.00167472
0.00167472
0.00164482
0.00164482
0.00167472
0.00164482
0.00164482
0.00167709
0.00164246
0.00167472
0.00164482
0.00164482
0.00164246
0.00163721
0.00160258
0.00163485
0.00163485
0.00160494
0.00160494
0.00163721
0.00160258
0.00163485
0.00163485
0.00160494
0.00160494
0.00163485
0.00160494
0.00160494
0.00163721
0.00160258
0.00163485
0.00160494
0.00160494
0.00160258
0.00159734
0.0015627
0.00159497
0.00159497
0.00156506
0.00156506
0.00159734
0.0015627
0.00159497
0.00159497
0.00156506
0.00156506
0.00159497
0.00156506
0.00156506
0.00159734
0.0015627
0.00159497
0.00156506
0.00156506
0.0015627
0.00155745
0.00152281
0.00155508
0.00155508
0.00152517
0.00152517
0.00155745
0.00152281
0.00155508
0.00155508
0.00152517
0.00152517
0.00155508
0.00152517
0.00152517
0.00155745
0.00152281
0.00155508
0.00152517
0.00152517
0.00152281
0.00151756
0.00148292
0.00151519
0.00151519
0.00148528
0.00148528
0.00151756
0.00148292
0.00151519
0.00151519
0.00148528
0.00148528
0.00151519
0.00148528
0.00148528
0.00151756
0.00148292
0.00151519
0.00148528
0.00148528
0.00148292
0.00147768
0.00144304
0.00147531
0.00147531
0.0014454
0.0014454
0.00147768
0.00144304
0.00147531
0.00147531
0.0014454
0.0014454
0.00147531
0.0014454
0.0014454
0.00147768
0.00144304
0.00147531
0.0014454
0.0014454
0.00144304
0.00143779
0.00140315
0.00143543
0.00143543
0.00140551
0.00140551
0.00143779
0.00140315
0.00143543
0.00143543
0.00140551
0.00140551
0.00143543
0.00140551
0.00140551
0.00143779
0.00140315
0.00143543
0.00140551
0.00140551
0.00140315
0.00139791
0.00136327
0.00139554
0.00139554
0.00136563
0.00136563
0.00139791
0.00136327
0.00139554
0.00139554
0.00136563
0.00136563
0.00139554
0.00136563
0.00136563
0.00139791
0.00136327
0.00139554
0.00136563
0.00136563
0.00136327
0.00135803
0.00132339
0.00135566
0.00135566
0.00132575
0.00132575
0.00135803
0.00132339
0.00135566
0.00135566
0.00132575
0.00132575
0.00135566
0.00132575
0.00132575
0.00135803
0.00132339
0.00135566
0.00132575
0.00132575
0.00132339
0.00131814
0.00128351
0.00131578
0.00131578
0.00128586
0.00128586
0.00131814
0.00128351
0.00131578
0.00131578
0.00128586
0.00128586
0.00131578
0.00128586
0.00128586
0.00131814
0.00128351
0.00131578
0.00128586
0.00128586
0.00128351
0.00127826
0.00124362
0.00127589
0.00127589
0.00124598
0.00124598
0.00127826
0.00124362
0.00127589
0.00127589
0.00124598
0.00124598
0.00127589
0.00124598
0.00124598
0.00127826
0.00124362
0.00127589
0.00124598
0.00124598
0.00124362
0.00123838
0.00120374
0.00123601
0.00123601
0.0012061
0.0012061
0.00123838
0.00120374
0.00123601
0.00123601
0.0012061
0.0012061
0.00123601
0.0012061
0.0012061
0.00123838
0.00120374
0.00123601
0.0012061
0.0012061
0.00120374
0.0011985
0.00116386
0.00119613
0.00119613
0.00116622
0.00116622
0.0011985
0.00116386
0.00119613
0.00119613
0.00116622
0.00116622
0.00119613
0.00116622
0.00116622
0.0011985
0.00116386
0.00119613
0.00116622
0.00116622
0.00116386
0.00115862
0.00112398
0.00115625
0.00115625
0.00112633
0.00112633
0.00115862
0.00112398
0.00115625
0.00115625
0.00112633
0.00112633
0.00115625
0.00112633
0.00112634
0.00115861
0.00112398
0.00115625
0.00112633
0.00112633
0.00112398
0.00111873
0.00108409
0.00111636
0.00111636
0.00108645
0.00108645
0.00111873
0.00108409
0.00111636
0.00111636
0.00108645
0.00108645
0.00111636
0.00108645
0.00108645
0.00111873
0.00108409
0.00111636
0.00108645
0.00108645
0.00108409
0.00107885
0.00104421
0.00107648
0.00107648
0.00104657
0.00104657
0.00107885
0.00104421
0.00107648
0.00107648
0.00104657
0.00104657
0.00107648
0.00104657
0.00104657
0.00107885
0.00104421
0.00107648
0.00104657
0.00104657
0.00104421
0.00103897
0.00100433
0.0010366
0.0010366
0.00100669
0.00100669
0.00103897
0.00100433
0.0010366
0.0010366
0.00100669
0.00100669
0.0010366
0.00100669
0.00100669
0.00103897
0.00100433
0.0010366
0.00100669
0.00100669
0.00100433
0.000999088
0.000964454
0.000996722
0.000996722
0.000966812
0.000966812
0.000999089
0.000964454
0.000996721
0.000996722
0.000966812
0.000966812
0.000996722
0.000966812
0.000966813
0.000999088
0.000964454
0.000996722
0.000966813
0.000966813
0.000964454
0.000959209
0.000924574
0.000956842
0.000956842
0.000926933
0.000926933
0.000959209
0.000924575
0.000956842
0.000956843
0.000926933
0.000926933
0.000956843
0.000926933
0.000926933
0.00095921
0.000924575
0.000956843
0.000926933
0.000926933
0.000924575
0.00091933
0.000884693
0.000916963
0.000916963
0.000887052
0.000887052
0.00091933
0.000884693
0.000916963
0.000916963
0.000887052
0.000887052
0.000916964
0.000887052
0.000887052
0.000919331
0.000884693
0.000916964
0.000887052
0.000887052
0.000884693
0.000879448
0.000844805
0.000877081
0.000877081
0.000847165
0.000847164
0.000879448
0.000844805
0.00087708
0.00087708
0.000847164
0.000847164
0.000877081
0.000847164
0.000847164
0.000879448
0.000844804
0.00087708
0.000847164
0.000847164
0.000844804
0.000839559
0.000804919
0.000837192
0.000837192
0.000807278
0.000807278
0.000839559
0.000804919
0.000837192
0.000837192
0.000807278
0.000807278
0.000837192
0.000807278
0.000807278
0.000839558
0.000804919
0.000837191
0.000807278
0.000807278
0.000804919
0.000799674
0.000765039
0.000797308
0.000797307
0.000767398
0.000767398
0.000799674
0.000765039
0.000797307
0.000797308
0.000767398
0.000767398
0.000797308
0.000767398
0.000767398
0.000799675
0.00076504
0.000797308
0.000767398
0.000767398
0.000765039
0.000759795
0.000725159
0.000757428
0.000757428
0.000727517
0.000727517
0.000759795
0.000725159
0.000757428
0.000757428
0.000727517
0.000727517
0.000757428
0.000727517
0.000727518
0.000759795
0.000725159
0.000757428
0.000727517
0.000727517
0.000725159
0.000719914
0.000685276
0.000717547
0.000717547
0.000687635
0.000687635
0.000719914
0.000685277
0.000717547
0.000717547
0.000687635
0.000687635
0.000717547
0.000687635
0.000687635
0.000719914
0.000685276
0.000717547
0.000687635
0.000687635
0.000685277
0.000680031
0.000645393
0.000677664
0.000677664
0.000647752
0.000647752
0.000680032
0.000645394
0.000677664
0.000677664
0.000647752
0.000647752
0.000677665
0.000647752
0.000647752
0.000680031
0.000645393
0.000677665
0.000647752
0.000647752
0.000645394
0.000640148
0.00060551
0.000637781
0.000637781
0.000607869
0.000607869
0.000640148
0.00060551
0.000637781
0.000637781
0.000607869
0.000607869
0.000637782
0.000607869
0.000607869
0.000640148
0.00060551
0.000637781
0.000607869
0.000607869
0.00060551
0.000600265
0.000565628
0.000597898
0.000597898
0.000567986
0.000567986
0.000600265
0.000565628
0.000597898
0.000597898
0.000567986
0.000567986
0.000597898
0.000567986
0.000567987
0.000600265
0.000565627
0.000597898
0.000567986
0.000567986
0.000565628
0.000560383
0.000525747
0.000558016
0.000558016
0.000528105
0.000528105
0.000560383
0.000525747
0.000558016
0.000558016
0.000528105
0.000528105
0.000558016
0.000528105
0.000528105
0.000560383
0.000525747
0.000558016
0.000528105
0.000528105
0.000525747
0.000520502
0.000485868
0.000518135
0.000518135
0.000488226
0.000488226
0.000520502
0.000485868
0.000518135
0.000518135
0.000488226
0.000488226
0.000518136
0.000488226
0.000488226
0.000520502
0.000485868
0.000518135
0.000488226
0.000488226
0.000485868
0.000480623
0.000445989
0.000478257
0.000478256
0.000448347
0.000448347
0.000480623
0.000445989
0.000478256
0.000478257
0.000448347
0.000448347
0.000478257
0.000448347
0.000448347
0.000480623
0.000445989
0.000478257
0.000448347
0.000448347
0.000445989
0.000440745
0.000406112
0.000438378
0.000438378
0.00040847
0.00040847
0.000440744
0.000406112
0.000438378
0.000438378
0.00040847
0.00040847
0.000438378
0.00040847
0.000408471
0.000440745
0.000406112
0.000438378
0.00040847
0.00040847
0.000406112
0.000400868
0.000366236
0.000398502
0.000398502
0.000368595
0.000368595
0.000400868
0.000366237
0.000398501
0.000398502
0.000368595
0.000368595
0.000398502
0.000368595
0.000368595
0.000400868
0.000366236
0.000398502
0.000368595
0.000368595
0.000366237
0.000360993
0.000326359
0.000358626
0.000358626
0.000328716
0.000328716
0.000360993
0.000326359
0.000358626
0.000358626
0.000328716
0.000328716
0.000358627
0.000328716
0.000328716
0.000360992
0.000326358
0.000358627
0.000328716
0.000328716
0.000326359
0.000321111
0.000286484
0.000318745
0.000318745
0.000288843
0.000288843
0.000321111
0.000286485
0.000318745
0.000318745
0.000288842
0.000288843
0.000318746
0.000288843
0.000288843
0.000321111
0.000286484
0.000318745
0.000288843
0.000288843
0.000286484
0.000281243
0.000246609
0.000278878
0.000278878
0.000248965
0.000248965
0.000281243
0.00024661
0.000278877
0.000278877
0.000248964
0.000248964
0.000278878
0.000248965
0.000248965
0.000281243
0.000246609
0.000278878
0.000248965
0.000248965
0.000246609
0.000241353
0.000206731
0.000238991
0.000238991
0.000209086
0.000209086
0.000241354
0.00020673
0.00023899
0.00023899
0.000209085
0.000209085
0.000238991
0.000209086
0.000209086
0.000241353
0.00020673
0.000238991
0.000209085
0.000209086
0.00020673
0.000201475
0.000166843
0.000199116
0.000199116
0.000169194
0.000169193
0.000201474
0.000166842
0.000199116
0.000199117
0.000169194
0.000169194
0.000199116
0.000169193
0.000169194
0.000201475
0.000166843
0.000199116
0.000169194
0.000169194
0.000166843
0.000161571
0.000126945
0.000159219
0.000159218
0.000129295
0.000129294
0.00016157
0.000126945
0.000159219
0.000159219
0.000129295
0.000129295
0.000159218
0.000129294
0.000129294
0.000161571
0.000126945
0.000159219
0.000129295
0.000129294
0.000126945
0.000121653
8.70383e-05
0.000119314
0.000119314
8.93865e-05
8.93872e-05
0.000121652
8.70395e-05
0.000119314
0.000119314
8.9386e-05
8.93855e-05
0.000119314
8.93869e-05
8.93863e-05
0.000121652
8.70375e-05
0.000119314
8.93856e-05
8.93858e-05
8.70381e-05
8.17095e-05
4.71679e-05
7.93979e-05
7.93985e-05
4.95227e-05
4.95233e-05
8.171e-05
4.71693e-05
7.9397e-05
7.93965e-05
4.95205e-05
4.95201e-05
7.93975e-05
4.95219e-05
4.95198e-05
8.17089e-05
4.71653e-05
7.93969e-05
4.95193e-05
4.95185e-05
4.71649e-05
4.18616e-05
1.11851e-05
3.96868e-05
3.9687e-05
1.33232e-05
1.33228e-05
4.18623e-05
1.11851e-05
3.96845e-05
3.96832e-05
1.33213e-05
1.33176e-05
3.96825e-05
1.33202e-05
1.33167e-05
4.18583e-05
1.11803e-05
3.96813e-05
1.33175e-05
1.33181e-05
1.11806e-05
7.77089e-06
8.2265e-06
8.22665e-06
7.77163e-06
8.22473e-06
8.22208e-06
8.12324e-06
8.12087e-06
8.12111e-06
8.22214e-06
7.7676e-06
8.22281e-06
0.00385015
0.00385992
0.00385471
0.00385472
0.00387709
0.00386388
0.00389248
0.00385792
0.00387709
0.00386388
0.00385793
0.00389248
0.00386845
0.00389622
0.00389622
0.00380551
0.00382466
0.00383385
0.00379758
0.00379835
0.00380109
0.00380549
0.00382464
0.00383384
0.00379756
0.00382837
0.00382837
0.00382837
0.00378496
0.00378496
0.00378496
0.00378496
0.00380301
0.00382884
0.00382877
0.00381184
0.00383186
0.00380191
0.00381272
0.00379845
0.00380109
0.00380302
0.00382877
0.00382885
0.00381184
0.00383186
0.00381272
0.00380191
0.00383471
0.0038347
0.00380624
0.00380155
0.00380154
0.00375886
0.00377816
0.00377951
0.00375739
0.00377706
0.00375696
0.00375886
0.00377815
0.00377951
0.00375739
0.00377301
0.003773
0.003773
0.00373541
0.00373541
0.00373541
0.00373541
0.00375745
0.00377823
0.003773
0.00376114
0.00377702
0.00375799
0.00376087
0.00377706
0.00375695
0.00375745
0.003773
0.00377823
0.00376113
0.00377701
0.00376086
0.00375799
0.00377925
0.00377925
0.00375768
0.00375832
0.00375832
0.00370662
0.00372542
0.00372648
0.0037056
0.00372506
0.00370531
0.00370661
0.00372542
0.00372648
0.00370559
0.00372225
0.00372225
0.00372225
0.00368286
0.00368286
0.00368286
0.00368286
0.00370571
0.00372581
0.00372212
0.00370908
0.00372525
0.00370608
0.00370899
0.00372506
0.00370531
0.00370571
0.00372212
0.00372581
0.00370908
0.00372525
0.00370899
0.00370608
0.00372606
0.00372606
0.0037057
0.00370615
0.00370615
0.0036541
0.00367272
0.00367357
0.00365332
0.00367251
0.00365314
0.0036541
0.00367272
0.00367357
0.00365332
0.00366985
0.00366985
0.00366985
0.00363122
0.00363122
0.00363122
0.00363122
0.00365357
0.00367312
0.00366982
0.00365691
0.00367284
0.00365377
0.00365687
0.00367251
0.00365314
0.00365357
0.00366982
0.00367312
0.00365691
0.00367284
0.00365687
0.00365376
0.00367316
0.00367316
0.00365361
0.00365371
0.00365371
0.00360285
0.00362121
0.00362185
0.00360231
0.00362107
0.00360216
0.00360285
0.00362121
0.00362185
0.00360231
0.0036185
0.0036185
0.0036185
0.00358085
0.00358085
0.00358085
0.00358085
0.00360259
0.00362156
0.00361847
0.00360587
0.00362139
0.0036027
0.00360585
0.00362107
0.00360216
0.00360259
0.00361847
0.00362156
0.00360587
0.00362139
0.00360585
0.0036027
0.00362155
0.00362155
0.00360268
0.0036026
0.0036026
0.00355317
0.00357117
0.00357163
0.00355277
0.00357106
0.00355265
0.00355317
0.00357117
0.00357163
0.00355277
0.00356851
0.00356851
0.00356851
0.00353201
0.00353201
0.00353201
0.00353201
0.00355307
0.00357146
0.00356849
0.00355626
0.00357135
0.00355313
0.00355624
0.00357105
0.00355266
0.00355307
0.00356849