/*--------------------------------*- C++ -*----------------------------------*\
| =========                 |                                                 |
| \\      /  F ield         | OpenFOAM: The Open Source CFD Toolbox           |
|  \\    /   O peration     | Version:  2206                                  |
|   \\  /    A nd           | Website:  www.openfoam.com                      |
|    \\/     M anipulation  |                                                 |
\*---------------------------------------------------------------------------*/
FoamFile
{
    version     2.0;
    format      ascii;
    arch        "LSB;label=32;scalar=64";
    class       volScalarField;
    location    "39.5";
    object      Uy;
}
// * * * * * * * * * * * * * * * * * * * * * * * * * * * * * * * * * * * * * //

dimensions      [0 1 -1 0 0 0 0];

internalField   nonuniform List<scalar> 
171728
(
0.00010787
0.000119284
-0.000190194
-0.000239553
9.4196e-05
9.67965e-05
-0.000158911
-0.000201006
9.51824e-05
9.336e-05
-0.000155562
-0.00020177
9.38132e-05
9.02774e-05
-0.000152202
-0.000198563
9.18027e-05
8.62747e-05
-0.000147255
-0.000192733
8.81018e-05
8.15337e-05
-0.000140656
-0.000185431
8.37711e-05
7.55389e-05
-0.000131217
-0.000178172
6.93203e-05
6.37879e-05
-0.000113114
-0.000160087
3.99526e-05
3.46822e-05
-5.78268e-05
-0.000101631
1.87743e-05
1.8638e-05
-2.65195e-05
-7.13135e-05
3.50719e-06
4.80638e-06
-5.99731e-06
-5.32877e-05
-4.71407e-07
1.32782e-06
-1.09366e-06
-4.93452e-05
-9.19774e-07
1.00068e-06
-6.46133e-07
-4.90693e-05
-9.46715e-07
9.86117e-07
-6.33677e-07
-4.90603e-05
-9.44929e-07
9.93156e-07
-6.35068e-07
-4.90614e-05
-9.42826e-07
9.9654e-07
-6.35152e-07
-4.90611e-05
-9.44089e-07
9.92323e-07
-6.35308e-07
-4.90617e-05
-9.421e-07
9.95291e-07
-6.34602e-07
-4.90615e-05
-9.35118e-07
1.0071e-06
-6.3266e-07
-4.90599e-05
-9.38368e-07
9.81904e-07
-6.31338e-07
-4.90592e-05
-9.41912e-07
9.9407e-07
-6.3398e-07
-4.90612e-05
-9.47252e-07
9.8903e-07
-6.34672e-07
-4.90615e-05
-9.46304e-07
9.88839e-07
-6.36074e-07
-4.90623e-05
-9.45805e-07
9.89026e-07
-6.36465e-07
-4.90629e-05
-9.46032e-07
9.88578e-07
-6.36667e-07
-4.9063e-05
-9.46193e-07
9.88122e-07
-6.36223e-07
-4.90627e-05
-9.46446e-07
9.87801e-07
-6.35654e-07
-4.90622e-05
-9.47043e-07
9.87635e-07
-6.35583e-07
-4.90623e-05
-9.46893e-07
9.87584e-07
-6.359e-07
-4.90624e-05
-9.46456e-07
9.88586e-07
-6.36007e-07
-4.90629e-05
-9.45112e-07
9.89394e-07
-6.36451e-07
-4.90631e-05
-9.44612e-07
9.89061e-07
-6.36356e-07
-4.90634e-05
-9.45192e-07
9.88489e-07
-6.36362e-07
-4.90631e-05
-9.44982e-07
9.88126e-07
-6.35725e-07
-4.90627e-05
-9.45916e-07
9.87439e-07
-6.35043e-07
-4.90623e-05
-9.45519e-07
9.8757e-07
-6.35171e-07
-4.90622e-05
-9.45383e-07
9.87359e-07
-6.35126e-07
-4.90622e-05
-9.45185e-07
9.87323e-07
-6.36064e-07
-4.90631e-05
-9.45073e-07
9.88091e-07
-6.3653e-07
-4.90634e-05
-9.4432e-07
9.87845e-07
-6.36775e-07
-4.90651e-05
-9.39519e-07
9.86907e-07
-6.35552e-07
-4.90642e-05
-9.42884e-07
9.97438e-07
-6.33303e-07
-4.90611e-05
-9.43954e-07
9.88988e-07
-6.33554e-07
-4.90614e-05
-9.45602e-07
9.88762e-07
-6.32576e-07
-4.90615e-05
-9.45864e-07
9.89625e-07
-6.33048e-07
-4.90621e-05
-9.45919e-07
9.89865e-07
-6.33412e-07
-4.90626e-05
-9.45262e-07
9.90383e-07
-6.3388e-07
-4.9063e-05
-9.45141e-07
9.90611e-07
-6.33964e-07
-4.90629e-05
-9.45976e-07
9.90013e-07
-6.33759e-07
-4.90626e-05
-9.46654e-07
9.90291e-07
-6.33355e-07
-4.90624e-05
-9.4733e-07
9.89207e-07
-6.3266e-07
-4.90615e-05
-9.47501e-07
9.89745e-07
-6.32856e-07
-4.90616e-05
-9.47921e-07
9.88986e-07
-6.33234e-07
-4.90621e-05
-9.4801e-07
9.86391e-07
-6.34068e-07
-4.90629e-05
-9.4831e-07
9.80598e-07
-6.34291e-07
-4.90632e-05
-9.47346e-07
9.89492e-07
-6.33469e-07
-4.90624e-05
-9.48416e-07
9.88822e-07
-6.32234e-07
-4.90615e-05
-9.49166e-07
9.87092e-07
-6.30991e-07
-4.906e-05
-9.49469e-07
9.8679e-07
-6.30579e-07
-4.90596e-05
-9.49803e-07
9.86081e-07
-6.30284e-07
-4.90593e-05
-9.49349e-07
9.86778e-07
-6.30556e-07
-4.90593e-05
-9.48772e-07
9.86759e-07
-6.3058e-07
-4.90596e-05
-9.48431e-07
9.87354e-07
-6.30757e-07
-4.90597e-05
-9.48388e-07
9.87632e-07
-6.31078e-07
-4.90598e-05
-9.4846e-07
9.86833e-07
-6.30317e-07
-4.90593e-05
-9.48588e-07
9.86805e-07
-6.30093e-07
-4.90591e-05
-9.4958e-07
9.86266e-07
-6.29287e-07
-4.90582e-05
-9.48814e-07
9.87053e-07
-6.29343e-07
-4.90576e-05
-9.47373e-07
9.87883e-07
-6.25456e-07
-4.90552e-05
-9.45452e-07
9.89457e-07
-6.17109e-07
-4.90494e-05
-9.46429e-07
9.89145e-07
-6.27768e-07
-4.90547e-05
-9.48034e-07
9.87242e-07
-6.30204e-07
-4.90585e-05
-9.48373e-07
9.87253e-07
-6.30691e-07
-4.90592e-05
-9.49394e-07
9.86286e-07
-6.29854e-07
-4.90587e-05
-9.49583e-07
9.86989e-07
-6.29898e-07
-4.90586e-05
-9.49697e-07
9.85695e-07
-6.29351e-07
-4.90585e-05
-9.49281e-07
9.86705e-07
-6.29896e-07
-4.90589e-05
-9.48882e-07
9.86598e-07
-6.30022e-07
-4.90592e-05
-9.48638e-07
9.86926e-07
-6.30612e-07
-4.90597e-05
-9.48215e-07
9.87528e-07
-6.30804e-07
-4.90596e-05
-9.48723e-07
9.87125e-07
-6.29738e-07
-4.90591e-05
-9.49094e-07
9.86421e-07
-6.29672e-07
-4.90588e-05
-9.49461e-07
9.86385e-07
-6.28944e-07
-4.90585e-05
-9.50582e-07
9.84765e-07
-6.27671e-07
-4.90584e-05
-9.54195e-07
9.79213e-07
-6.21944e-07
-4.90565e-05
-9.62439e-07
9.67861e-07
-6.11819e-07
-4.90438e-05
-9.71205e-07
9.66145e-07
-6.1644e-07
-4.89315e-05
-9.35065e-07
1.0268e-06
-6.83983e-07
-4.90099e-05
-8.65604e-07
1.05903e-06
-7.91249e-07
-4.85717e-05
-8.00931e-07
1.195e-06
-9.92119e-07
-4.83835e-05
-7.11063e-07
1.50651e-06
-1.43676e-06
-4.75902e-05
-5.54011e-07
2.16432e-06
-2.30961e-06
-4.61174e-05
-5.12491e-07
3.53704e-06
-3.96889e-06
-4.21205e-05
-5.91855e-06
3.78637e-06
-2.61363e-06
-2.70224e-05
-4.02517e-05
-3.3774e-05
4.27971e-05
4.51583e-05
0.000134997
0.00015287
0.000152851
0.000134965
0.000124197
-0.000124215
9.07543e-05
9.07517e-05
-9.08002e-05
-9.07982e-05
0.000124194
-0.00012421
-0.000135016
-0.0001529
-0.000152883
-0.00013499
0.000239557
0.000111322
0.000190095
0.000190136
0.000147216
0.000147213
0.000239505
0.00011129
0.000119303
-0.000119364
8.90837e-05
-8.91049e-05
-0.000119367
8.9085e-05
-8.9099e-05
-0.000239598
-0.000111414
-0.000190223
-0.000147152
-0.000147178
-0.000111417
0.000200874
0.000105893
0.000158968
0.000158965
0.000156789
0.00015679
0.000200842
0.000105887
9.679e-05
-9.68027e-05
9.42909e-05
-9.42939e-05
-9.67976e-05
9.42998e-05
-9.42839e-05
-0.000201014
-0.000105951
-0.000158937
-0.000156742
-0.000156762
-0.000105959
0.000201657
9.71712e-05
0.000155613
0.000155609
0.00015387
0.00015386
0.000201644
9.71627e-05
9.33555e-05
-9.33509e-05
9.14706e-05
-9.14557e-05
-9.33445e-05
9.14627e-05
-9.14593e-05
-0.000201777
-9.72178e-05
-0.000155584
-0.00015381
-0.000153819
-9.72446e-05
0.000198446
8.70073e-05
0.00015226
0.00015225
0.000148528
0.000148522
0.00019843
8.70105e-05
9.02863e-05
-9.02694e-05
8.70592e-05
-8.70428e-05
-9.02747e-05
8.70524e-05
-8.70496e-05
-0.000198553
-8.70517e-05
-0.000152207
-0.000148469
-0.000148468
-8.70807e-05
0.000192622
7.73988e-05
0.000147311
0.000147311
0.000140865
0.00014087
0.000192611
7.74035e-05
8.62797e-05
-8.62571e-05
8.15929e-05
-8.15723e-05
-8.62683e-05
8.15899e-05
-8.15836e-05
-0.000192717
-7.7425e-05
-0.000147253
-0.000140808
-0.000140803
-7.74702e-05
0.000185319
7.11215e-05
0.00014071
0.000140719
0.00013568
0.000135671
0.00018531
7.11146e-05
8.15397e-05
-8.15142e-05
7.82803e-05
-7.82569e-05
-8.1529e-05
7.82618e-05
-7.82649e-05
-0.00018541
-7.11609e-05
-0.000140649
-0.000135623
-0.000135615
-7.12046e-05
0.000178053
5.79381e-05
0.000131263
0.000131261
0.000123731
0.000123705
0.000178025
5.79488e-05
7.55566e-05
-7.55351e-05
7.10457e-05
-7.1047e-05
-7.55527e-05
7.10233e-05
-7.10087e-05
-0.000178142
-5.78339e-05
-0.000131204
-0.000123639
-0.000123628
-5.78429e-05
0.000160093
5.02136e-06
0.000113201
0.000113184
6.8185e-05
6.81941e-05
0.000160088
4.98511e-06
6.38129e-05
-6.38199e-05
3.90337e-05
-3.90706e-05
-6.37852e-05
3.90186e-05
-3.90621e-05
-0.00016011
-4.98739e-06
-0.000113096
-6.81577e-05
-6.81316e-05
-4.93947e-06
0.00010164
-2.65851e-05
5.7844e-05
5.78505e-05
3.41146e-05
3.4134e-05
0.000101594
-2.65897e-05
3.46869e-05
-3.4737e-05
2.32505e-05
-2.32973e-05
-3.47258e-05
2.32461e-05
-2.32946e-05
-0.000101669
2.66094e-05
-5.7815e-05
-3.41174e-05
-3.41261e-05
2.65829e-05
7.12556e-05
-4.61484e-05
2.65281e-05
2.65477e-05
9.29855e-06
9.30757e-06
7.1243e-05
-4.61555e-05
1.8644e-05
-1.86866e-05
7.11852e-06
-7.14195e-06
-1.86858e-05
7.10316e-06
-7.14267e-06
-7.13126e-05
4.6184e-05
-2.65303e-05
-9.26838e-06
-9.27026e-06
4.61684e-05
5.32582e-05
-5.12043e-05
6.0244e-06
6.03471e-06
1.58962e-06
1.60212e-06
5.32409e-05
-5.12005e-05
4.82315e-06
-4.84325e-06
1.66068e-06
-1.68774e-06
-4.8438e-06
1.6568e-06
-1.6853e-06
-5.32922e-05
5.12335e-05
-5.99494e-06
-1.56542e-06
-1.56238e-06
5.12192e-05
4.9309e-05
-5.16033e-05
1.11891e-06
1.13338e-06
6.93093e-07
7.12774e-07
4.93031e-05
-5.16038e-05
1.33376e-06
-1.35895e-06
1.02637e-06
-1.05183e-06
-1.35511e-06
1.021e-06
-1.04752e-06
-4.93513e-05
5.16353e-05
-1.08742e-06
-6.65541e-07
-6.63708e-07
5.16218e-05
4.90366e-05
-5.16178e-05
6.7352e-07
6.94716e-07
6.57138e-07
6.79338e-07
4.90259e-05
-5.16185e-05
1.0091e-06
-1.03235e-06
9.91884e-07
-1.0182e-06
-1.02753e-06
9.86238e-07
-1.01236e-06
-4.9076e-05
5.16485e-05
-6.42795e-07
-6.30845e-07
-6.3215e-07
5.16357e-05
4.90292e-05
-5.16131e-05
6.61587e-07
6.78376e-07
6.61128e-07
6.74664e-07
4.90171e-05
-5.16127e-05
9.95723e-07
-1.01858e-06
9.95208e-07
-1.01951e-06
-1.01182e-06
9.9149e-07
-1.01257e-06
-4.90678e-05
5.16461e-05
-6.31549e-07
-6.32145e-07
-6.30241e-07
5.16345e-05
4.90352e-05
-5.16124e-05
6.65079e-07
6.75267e-07
6.63253e-07
6.84358e-07
4.90251e-05
-5.15967e-05
9.95231e-07
-1.01944e-06
9.94475e-07
-1.01803e-06
-1.01218e-06
1.00006e-06
-1.01155e-06
-4.90697e-05
5.16469e-05
-6.29535e-07
-6.32357e-07
-6.28665e-07
5.16346e-05
4.90348e-05
-5.16119e-05
6.66585e-07
6.78174e-07
6.61463e-07
6.71065e-07
4.90368e-05
-5.16169e-05
9.95329e-07
-1.01845e-06
9.94165e-07
-1.0182e-06
-1.01172e-06
9.91949e-07
-1.01296e-06
-4.90688e-05
5.1647e-05
-6.28417e-07
-6.32642e-07
-6.28741e-07
5.16339e-05
4.9034e-05
-5.16103e-05
6.66363e-07
6.70742e-07
6.62715e-07
6.69629e-07
4.90193e-05
-5.16163e-05
9.94536e-07
-1.01828e-06
9.95169e-07
-1.01755e-06
-1.01281e-06
9.93741e-07
-1.01262e-06
-4.90686e-05
5.16478e-05
-6.28577e-07
-6.32224e-07
-6.28109e-07
5.16346e-05
4.90348e-05
-5.15995e-05
6.67432e-07
6.70803e-07
6.72421e-07
6.80603e-07
4.90215e-05
-5.16e-05
9.96552e-07
-1.01737e-06
1.00163e-06
-1.01504e-06
-1.01195e-06
1.00344e-06
-1.00999e-06
-4.90682e-05
5.16498e-05
-6.27817e-07
-6.30399e-07
-6.2697e-07
5.16364e-05
4.90501e-05
-5.16004e-05
6.80528e-07
6.84913e-07
6.67204e-07
6.74958e-07
4.90394e-05
-5.16128e-05
1.00543e-06
-1.01502e-06
1.00119e-06
-1.01429e-06
-1.0096e-06
9.92171e-07
-1.00962e-06
-4.90668e-05
5.16501e-05
-6.28111e-07
-6.28642e-07
-6.33472e-07
5.16367e-05
4.90415e-05
-5.16049e-05
6.64907e-07
6.64849e-07
6.75757e-07
6.77517e-07
4.90111e-05
-5.1615e-05
9.98189e-07
-1.01514e-06
9.92915e-07
-1.01656e-06
-1.0102e-06
9.91997e-07
-1.01239e-06
-4.90662e-05
5.16482e-05
-6.34358e-07
-6.30494e-07
-6.30312e-07
5.16345e-05
4.90353e-05
-5.16061e-05
6.73787e-07
6.72032e-07
6.6327e-07
6.71173e-07
4.90198e-05
-5.16162e-05
9.936e-07
-1.01719e-06
9.92422e-07
-1.01765e-06
-1.01245e-06
9.88849e-07
-1.01251e-06
-4.90675e-05
5.1647e-05
-6.29527e-07
-6.31892e-07
-6.3014e-07
5.1634e-05
4.90307e-05
-5.16085e-05
6.6028e-07
6.71388e-07
6.6355e-07
6.72401e-07
4.902e-05
-5.16149e-05
9.91853e-07
-1.01827e-06
9.90233e-07
-1.01837e-06
-1.01266e-06
9.89087e-07
-1.01387e-06
-4.90685e-05
5.16465e-05
-6.29308e-07
-6.3292e-07
-6.29705e-07
5.16332e-05
4.90294e-05
-5.16083e-05
6.60635e-07
6.72238e-07
6.64114e-07
6.74012e-07
4.90206e-05
-5.16132e-05
9.90459e-07
-1.01875e-06
9.89727e-07
-1.01848e-06
-1.01397e-06
9.89563e-07
-1.01441e-06
-4.90691e-05
5.1646e-05
-6.29263e-07
-6.3377e-07
-6.29128e-07
5.16326e-05
4.90296e-05
-5.16084e-05
6.61367e-07
6.7319e-07
6.63922e-07
6.74779e-07
4.90221e-05
-5.16126e-05
9.9025e-07
-1.01869e-06
9.89113e-07
-1.01829e-06
-1.01428e-06
9.89138e-07
-1.01436e-06
-4.90693e-05
5.16462e-05
-6.30071e-07
-6.33965e-07
-6.3137e-07
5.16325e-05
4.90293e-05
-5.16086e-05
6.6131e-07
6.7383e-07
6.63698e-07
6.74103e-07
4.90226e-05
-5.16131e-05
9.89347e-07
-1.01853e-06
9.88337e-07
-1.018e-06
-1.01417e-06
9.88631e-07
-1.01406e-06
-4.90691e-05
5.16466e-05
-6.313e-07
-6.33636e-07
-6.31753e-07
5.16327e-05
4.90292e-05
-5.16088e-05
6.60988e-07
6.73243e-07
6.63366e-07
6.74467e-07
4.9022e-05
-5.16129e-05
9.88816e-07
-1.01817e-06
9.87781e-07
-1.01746e-06
-1.01377e-06
9.88231e-07
-1.01346e-06
-4.90687e-05
5.16472e-05
-6.31553e-07
-6.32983e-07
-6.31596e-07
5.16332e-05
4.90288e-05
-5.16092e-05
6.60693e-07
6.73532e-07
6.63068e-07
6.74337e-07
4.90224e-05
-5.16125e-05
9.88123e-07
-1.01773e-06
9.87109e-07
-1.01756e-06
-1.01324e-06
9.88181e-07
-1.0135e-06
-4.90681e-05
5.16471e-05
-6.31378e-07
-6.32951e-07
-6.31841e-07
5.16332e-05
4.90283e-05
-5.16099e-05
6.60211e-07
6.73387e-07
6.62787e-07
6.74283e-07
4.90227e-05
-5.16129e-05
9.87347e-07
-1.01783e-06
9.86498e-07
-1.01771e-06
-1.01325e-06
9.87717e-07
-1.01341e-06
-4.90681e-05
5.1647e-05
-6.31566e-07
-6.33032e-07
-6.31955e-07
5.16331e-05
4.90278e-05
-5.16092e-05
6.60435e-07
6.73514e-07
6.63237e-07
6.7465e-07
4.90225e-05
-5.16122e-05
9.8719e-07
-1.01814e-06
9.86919e-07
-1.01812e-06
-1.0134e-06
9.88177e-07
-1.0138e-06
-4.90683e-05
5.16465e-05
-6.31914e-07
-6.33535e-07
-6.32626e-07
5.16326e-05
4.90285e-05
-5.16074e-05
6.60744e-07
6.73948e-07
6.6467e-07
6.75131e-07
4.9023e-05
-5.16113e-05
9.87603e-07
-1.01831e-06
9.88029e-07
-1.01791e-06
-1.01357e-06
9.87882e-07
-1.01395e-06
-4.90687e-05
5.16466e-05
-6.32194e-07
-6.33697e-07
-6.32956e-07
5.16324e-05
4.90305e-05
-5.16065e-05
6.62492e-07
6.75076e-07
6.65792e-07
6.76069e-07
4.90231e-05
-5.16115e-05
9.88871e-07
-1.0183e-06
9.88694e-07
-1.0178e-06
-1.01392e-06
9.88644e-07
-1.01425e-06
-4.90687e-05
5.16465e-05
-6.32766e-07
-6.34074e-07
-6.33641e-07
5.16319e-05
4.90312e-05
-5.16071e-05
6.63141e-07
6.75178e-07
6.65211e-07
6.76266e-07
4.90218e-05
-5.16113e-05
9.89187e-07
-1.01794e-06
9.88308e-07
-1.01805e-06
-1.01404e-06
9.88958e-07
-1.01408e-06
-4.90686e-05
5.16463e-05
-6.33029e-07
-6.34258e-07
-6.33474e-07
5.16322e-05
4.90305e-05
-5.16072e-05
6.62381e-07
6.75326e-07
6.65166e-07
6.76067e-07
4.90208e-05
-5.16122e-05
9.88619e-07
-1.01838e-06
9.88178e-07
-1.01773e-06
-1.0137e-06
9.88507e-07
-1.01375e-06
-4.90689e-05
5.16467e-05
-6.3248e-07
-6.33745e-07
-6.33019e-07
5.16327e-05
4.90308e-05
-5.16079e-05
6.62765e-07
6.75212e-07
6.64359e-07
6.75847e-07
4.90197e-05
-5.16126e-05
9.88912e-07
-1.01791e-06
9.87777e-07
-1.01728e-06
-1.01369e-06
9.87999e-07
-1.0135e-06
-4.90683e-05
5.16472e-05
-6.3216e-07
-6.33125e-07
-6.32633e-07
5.16329e-05
4.90301e-05
-5.16083e-05
6.61472e-07
6.74748e-07
6.64123e-07
6.75649e-07
4.90192e-05
-5.16127e-05
9.87983e-07
-1.01737e-06
9.87806e-07
-1.01715e-06
-1.01319e-06
9.8792e-07
-1.01339e-06
-4.90678e-05
5.16474e-05
-6.31583e-07
-6.3305e-07
-6.3244e-07
5.16331e-05
4.90308e-05
-5.16082e-05
6.61984e-07
6.75006e-07
6.64559e-07
6.76023e-07
4.90191e-05
-5.16126e-05
9.88592e-07
-1.01749e-06
9.88202e-07
-1.01706e-06
-1.01315e-06
9.8785e-07
-1.01321e-06
-4.90677e-05
5.16473e-05
-6.31527e-07
-6.33025e-07
-6.32454e-07
5.16331e-05
4.90315e-05
-5.16089e-05
6.6226e-07
6.75086e-07
6.64383e-07
6.76321e-07
4.9019e-05
-5.16126e-05
9.88567e-07
-1.01728e-06
9.88112e-07
-1.01765e-06
-1.01313e-06
9.87652e-07
-1.01389e-06
-4.90678e-05
5.16468e-05
-6.31612e-07
-6.33749e-07
-6.33216e-07
5.16324e-05
4.90319e-05
-5.16091e-05
6.62719e-07
6.75724e-07
6.64439e-07
6.76829e-07
4.90192e-05
-5.16119e-05
9.8866e-07
-1.01805e-06
9.88253e-07
-1.01797e-06
-1.01388e-06
9.88346e-07
-1.01417e-06
-4.90685e-05
5.16464e-05
-6.32441e-07
-6.34292e-07
-6.33812e-07
5.16321e-05
4.90324e-05
-5.16107e-05
6.63437e-07
6.76107e-07
6.63775e-07
6.78444e-07
4.90198e-05
-5.16109e-05
9.88522e-07
-1.01826e-06
9.87679e-07
-1.01848e-06
-1.01406e-06
9.8884e-07
-1.01488e-06
-4.90688e-05
5.16457e-05
-6.32971e-07
-6.34439e-07
-6.36618e-07
5.16305e-05
4.90308e-05
-5.16161e-05
6.63808e-07
6.78965e-07
6.65171e-07
6.81837e-07
4.90213e-05
-5.16069e-05
9.87582e-07
-1.01882e-06
9.8998e-07
-1.01796e-06
-1.01526e-06
9.85862e-07
-1.01508e-06
-4.90697e-05
5.16465e-05
-6.37292e-07
-6.34446e-07
-6.38362e-07
5.16309e-05
4.90333e-05
-5.16163e-05
6.72872e-07
6.75023e-07
6.58758e-07
6.85207e-07
4.90219e-05
-5.16028e-05
9.91623e-07
-1.01755e-06
9.87123e-07
-1.01654e-06
-1.01372e-06
9.95443e-07
-1.01156e-06
-4.90689e-05
5.16483e-05
-6.34286e-07
-6.31995e-07
-6.32035e-07
5.16348e-05
4.90342e-05
-5.16096e-05
6.66051e-07
6.86519e-07
6.61445e-07
6.72269e-07
4.90332e-05
-5.16146e-05
9.89913e-07
-1.01711e-06
9.91212e-07
-1.01771e-06
-1.01122e-06
9.89744e-07
-1.01205e-06
-4.90674e-05
5.16474e-05
-6.3081e-07
-6.32263e-07
-6.32448e-07
5.16342e-05
4.90382e-05
-5.16103e-05
6.65637e-07
6.72368e-07
6.59806e-07
6.7135e-07
4.90164e-05
-5.16163e-05
9.91288e-07
-1.01812e-06
9.90359e-07
-1.01779e-06
-1.01228e-06
9.89352e-07
-1.01278e-06
-4.90682e-05
5.16476e-05
-6.31112e-07
-6.31772e-07
-6.32369e-07
5.16339e-05
4.90375e-05
-5.16104e-05
6.64404e-07
6.70721e-07
6.59328e-07
6.70656e-07
4.90156e-05
-5.16164e-05
9.91027e-07
-1.01804e-06
9.90567e-07
-1.01769e-06
-1.01254e-06
9.8986e-07
-1.01315e-06
-4.90677e-05
5.16476e-05
-6.30522e-07
-6.32066e-07
-6.32834e-07
5.16335e-05
4.90375e-05
-5.16103e-05
6.64394e-07
6.706e-07
6.59505e-07
6.70585e-07
4.90156e-05
-5.16163e-05
9.91288e-07
-1.01822e-06
9.90752e-07
-1.01823e-06
-1.01331e-06
9.90271e-07
-1.01369e-06
-4.90679e-05
5.1647e-05
-6.31211e-07
-6.32768e-07
-6.33708e-07
5.16327e-05
4.90376e-05
-5.16097e-05
6.64528e-07
6.70292e-07
6.60065e-07
6.70532e-07
4.90158e-05
-5.16161e-05
9.915e-07
-1.01852e-06
9.91428e-07
-1.01827e-06
-1.01346e-06
9.90648e-07
-1.0139e-06
-4.90685e-05
5.16469e-05
-6.31337e-07
-6.32871e-07
-6.33978e-07
5.16326e-05
4.90383e-05
-5.16089e-05
6.65339e-07
6.70634e-07
6.60749e-07
6.70895e-07
4.90159e-05
-5.16157e-05
9.92375e-07
-1.01878e-06
9.92084e-07
-1.01857e-06
-1.01391e-06
9.91048e-07
-1.01392e-06
-4.90687e-05
5.16464e-05
-6.3201e-07
-6.33235e-07
-6.34146e-07
5.16324e-05
4.90387e-05
-5.16096e-05
6.65558e-07
6.70575e-07
6.59856e-07
6.7006e-07
4.90161e-05
-5.16165e-05
9.92688e-07
-1.01881e-06
9.91704e-07
-1.01836e-06
-1.01367e-06
9.90447e-07
-1.01373e-06
-4.90689e-05
5.16468e-05
-6.3196e-07
-6.32864e-07
-6.33671e-07
5.16327e-05
4.90379e-05
-5.16109e-05
6.64541e-07
6.69967e-07
6.58705e-07
6.69831e-07
4.90152e-05
-5.16163e-05
9.92257e-07
-1.01873e-06
9.91239e-07
-1.01812e-06
-1.01362e-06
9.90716e-07
-1.01357e-06
-4.90685e-05
5.16471e-05
-6.31892e-07
-6.32519e-07
-6.33389e-07
5.16329e-05
4.90365e-05
-5.16119e-05
6.63374e-07
6.69554e-07
6.57628e-07
6.68992e-07
4.90152e-05
-5.16174e-05
9.9179e-07
-1.01835e-06
9.90652e-07
-1.0177e-06
-1.01324e-06
9.89752e-07
-1.01282e-06
-4.90681e-05
5.16475e-05
-6.31709e-07
-6.31708e-07
-6.32177e-07
5.16338e-05
4.90355e-05
-5.16125e-05
6.62418e-07
6.68822e-07
6.57286e-07
6.688e-07
4.90142e-05
-5.16171e-05
9.91183e-07
-1.01811e-06
9.90279e-07
-1.01806e-06
-1.0126e-06
9.90103e-07
-1.01281e-06
-4.90677e-05
5.16472e-05
-6.3093e-07
-6.31612e-07
-6.3192e-07
5.16338e-05
4.9035e-05
-5.16125e-05
6.62279e-07
6.68725e-07
6.57095e-07
6.68593e-07
4.90145e-05
-5.16174e-05
9.90924e-07
-1.01851e-06
9.8999e-07
-1.01817e-06
-1.01271e-06
9.89581e-07
-1.01322e-06
-4.9068e-05
5.1647e-05
-6.3111e-07
-6.31923e-07
-6.32561e-07
5.16332e-05
4.90348e-05
-5.16125e-05
6.61952e-07
6.68486e-07
6.56769e-07
6.67629e-07
4.90141e-05
-5.16187e-05
9.90604e-07
-1.01857e-06
9.89845e-07
-1.01862e-06
-1.01325e-06
9.88006e-07
-1.01432e-06
-4.90681e-05
5.16465e-05
-6.31881e-07
-6.32334e-07
-6.33236e-07
5.16321e-05
4.90344e-05
-5.16127e-05
6.6166e-07
6.66228e-07
6.56087e-07
6.56264e-07
4.9011e-05
-5.16338e-05
9.9045e-07
-1.01915e-06
9.89525e-07
-1.01897e-06
-1.01457e-06
9.79812e-07
-1.01548e-06
-4.90684e-05
5.16462e-05
-6.32995e-07
-6.32838e-07
-6.33662e-07
5.16316e-05
4.90344e-05
-5.16115e-05
6.61143e-07
6.58414e-07
6.57577e-07
6.69842e-07
4.89957e-05
-5.16172e-05
9.90196e-07
-1.01926e-06
9.90593e-07
-1.0187e-06
-1.01517e-06
9.90293e-07
-1.01406e-06
-4.90686e-05
5.16465e-05
-6.33323e-07
-6.32008e-07
-6.34034e-07
5.16327e-05
4.90363e-05
-5.16109e-05
6.627e-07
6.69209e-07
6.57142e-07
6.7284e-07
4.90142e-05
-5.16167e-05
9.91714e-07
-1.01914e-06
9.91455e-07
-1.01937e-06
-1.0135e-06
9.89553e-07
-1.01235e-06
-4.90687e-05
5.16459e-05
-6.35919e-07
-6.31099e-07
-6.42733e-07
5.16336e-05
4.90367e-05
-5.16113e-05
6.61843e-07
6.73254e-07
6.55858e-07
6.73055e-07
4.90148e-05
-5.16183e-05
9.92073e-07
-1.01985e-06
9.91333e-07
-1.01962e-06
-1.0116e-06
9.87711e-07
-1.01035e-06
-4.90695e-05
5.16459e-05
-6.44622e-07
-6.29611e-07
-6.43078e-07
5.16352e-05
4.90363e-05
-5.16114e-05
6.60541e-07
6.73019e-07
6.5535e-07
6.73196e-07
4.90131e-05
-5.1619e-05
9.92003e-07
-1.01998e-06
9.91358e-07
-1.01954e-06
-1.00989e-06
9.87192e-07
-1.00958e-06
-4.90693e-05
5.16461e-05
-6.43986e-07
-6.29017e-07
-6.43151e-07
5.16358e-05
4.90363e-05
-5.16116e-05
6.60292e-07
6.73035e-07
6.54903e-07
6.72987e-07
4.90127e-05
-5.16194e-05
9.92007e-07
-1.01986e-06
9.91251e-07
-1.0194e-06
-1.00934e-06
9.86522e-07
-1.00927e-06
-4.90692e-05
5.16463e-05
-6.44268e-07
-6.28764e-07
-6.43248e-07
5.1636e-05
4.90361e-05
-5.16112e-05
6.59821e-07
6.72977e-07
6.55184e-07
6.73333e-07
4.90122e-05
-5.16191e-05
9.91901e-07
-1.01975e-06
9.91505e-07
-1.01961e-06
-1.00897e-06
9.86982e-07
-1.00909e-06
-4.9069e-05
5.16461e-05
-6.44244e-07
-6.28811e-07
-6.43419e-07
5.16361e-05
4.90367e-05
-5.16107e-05
6.60336e-07
6.73458e-07
6.55707e-07
6.73949e-07
4.90126e-05
-5.16189e-05
9.92334e-07
-1.02011e-06
9.92021e-07
-1.02e-06
-1.00895e-06
9.87199e-07
-1.0092e-06
-4.90694e-05
5.16456e-05
-6.4461e-07
-6.29033e-07
-6.43812e-07
5.16358e-05
4.90371e-05
-5.16105e-05
6.60741e-07
6.73911e-07
6.55927e-07
6.74267e-07
4.90127e-05
-5.16186e-05
9.92788e-07
-1.02035e-06
9.92211e-07
-1.01997e-06
-1.00899e-06
9.8745e-07
-1.00922e-06
-4.90698e-05
5.16456e-05
-6.44826e-07
-6.28994e-07
-6.43979e-07
5.16357e-05
4.90374e-05
-5.16103e-05
6.61099e-07
6.74468e-07
6.56121e-07
6.75057e-07
4.90132e-05
-5.16178e-05
9.93084e-07
-1.02044e-06
9.92367e-07
-1.02049e-06
-1.0091e-06
9.88054e-07
-1.00935e-06
-4.90699e-05
5.16451e-05
-6.45172e-07
-6.29497e-07
-6.44361e-07
5.16355e-05
4.90374e-05
-5.16104e-05
6.61051e-07
6.74975e-07
6.55896e-07
6.74606e-07
4.90137e-05
-5.16186e-05
9.93106e-07
-1.02094e-06
9.92334e-07
-1.02017e-06
-1.00919e-06
9.87335e-07
-1.00895e-06
-4.90704e-05
5.16455e-05
-6.4523e-07
-6.28994e-07
-6.44119e-07
5.16359e-05
4.90374e-05
-5.16104e-05
6.60877e-07
6.74427e-07
6.55862e-07
6.74583e-07
4.90129e-05
-5.16187e-05
9.93388e-07
-1.0203e-06
9.92419e-07
-1.01976e-06
-1.00864e-06
9.87175e-07
-1.00882e-06
-4.90698e-05
5.1646e-05
-6.44846e-07
-6.28675e-07
-6.44027e-07
5.16362e-05
4.90373e-05
-5.16112e-05
6.60799e-07
6.74445e-07
6.54922e-07
6.73676e-07
4.90129e-05
-5.16193e-05
9.93209e-07
-1.02001e-06
9.916e-07
-1.01923e-06
-1.00853e-06
9.86689e-07
-1.00803e-06
-4.90694e-05
5.16466e-05
-6.44733e-07
-6.27814e-07
-6.43276e-07
5.1637e-05
4.90364e-05
-5.16108e-05
6.59762e-07
6.73447e-07
6.55149e-07
6.73987e-07
4.90122e-05
-5.16188e-05
9.92387e-07
-1.01949e-06
9.91786e-07
-1.01894e-06
-1.00761e-06
9.8713e-07
-1.00754e-06
-4.90687e-05
5.16467e-05
-6.4383e-07
-6.27751e-07
-6.43116e-07
5.16374e-05
4.90368e-05
-5.16095e-05
6.60481e-07
6.74217e-07
6.55994e-07
6.74807e-07
4.90126e-05
-5.16178e-05
9.93026e-07
-1.01918e-06
9.92887e-07
-1.01717e-06
-1.00729e-06
9.87971e-07
-1.00615e-06
-4.90685e-05
5.16484e-05
-6.43532e-07
-6.25743e-07
-6.4174e-07
5.16385e-05
4.90376e-05
-5.16083e-05
6.61184e-07
6.7491e-07
6.56966e-07
6.75939e-07
4.90131e-05
-5.16167e-05
9.94097e-07
-1.01642e-06
9.94203e-07
-1.01276e-06
-1.00503e-06
9.89506e-07
-1.00208e-06
-4.90651e-05
5.16546e-05
-6.40428e-07
-6.1543e-07
-6.34029e-07
5.16438e-05
4.90386e-05
-5.16084e-05
6.62245e-07
6.76174e-07
6.57104e-07
6.76329e-07
4.90141e-05
-5.16166e-05
9.95436e-07
-1.01295e-06
9.94045e-07
-1.01574e-06
-1.00117e-06
9.89821e-07
-1.00329e-06
-4.90593e-05
5.16497e-05
-6.31554e-07
-6.24521e-07
-6.38606e-07
5.16418e-05
4.90387e-05
-5.16095e-05
6.61966e-07
6.76073e-07
6.56381e-07
6.75411e-07
4.90145e-05
-5.16179e-05
9.94598e-07
-1.01731e-06
9.92626e-07
-1.01897e-06
-1.0048e-06
9.87936e-07
-1.00785e-06
-4.90663e-05
5.16465e-05
-6.41133e-07
-6.28577e-07
-6.45041e-07
5.16368e-05
4.9038e-05
-5.161e-05
6.61245e-07
6.75185e-07
6.56156e-07
6.74899e-07
4.90134e-05
-5.16182e-05
9.93347e-07
-1.01957e-06
9.92249e-07
-1.0198e-06
-1.00784e-06
9.87687e-07
-1.00856e-06
-4.9069e-05
5.16457e-05
-6.43208e-07
-6.29089e-07
-6.4515e-07
5.1636e-05
4.90376e-05
-5.16108e-05
6.61096e-07
6.74661e-07
6.55292e-07
6.74046e-07
4.90132e-05
-5.16191e-05
9.93112e-07
-1.02026e-06
9.91528e-07
-1.01964e-06
-1.00844e-06
9.86699e-07
-1.00821e-06
-4.90697e-05
5.16459e-05
-6.45143e-07
-6.28605e-07
-6.44188e-07
5.16364e-05
4.90367e-05
-5.16111e-05
6.60136e-07
6.73867e-07
6.5504e-07
6.74041e-07
4.90124e-05
-5.16187e-05
9.92314e-07
-1.01999e-06
9.91252e-07
-1.01958e-06
-1.008e-06
9.87268e-07
-1.00804e-06
-4.90693e-05
5.16461e-05
-6.44971e-07
-6.28332e-07
-6.44143e-07
5.16365e-05
4.90365e-05
-5.16112e-05
6.60089e-07
6.73979e-07
6.5493e-07
6.73623e-07
4.90128e-05
-5.16195e-05
9.92166e-07
-1.0199e-06
9.9118e-07
-1.01934e-06
-1.00784e-06
9.86296e-07
-1.00787e-06
-4.90691e-05
5.16464e-05
-6.45244e-07
-6.27898e-07
-6.44044e-07
5.16366e-05
4.90364e-05
-5.16109e-05
6.59842e-07
6.7344e-07
6.55076e-07
6.73886e-07
4.90119e-05
-5.1619e-05
9.92112e-07
-1.01967e-06
9.91457e-07
-1.01957e-06
-1.00764e-06
9.86893e-07
-1.00821e-06
-4.90689e-05
5.1646e-05
-6.4492e-07
-6.28106e-07
-6.44296e-07
5.16363e-05
4.90368e-05
-5.16103e-05
6.6035e-07
6.74e-07
6.55753e-07
6.74403e-07
4.90126e-05
-5.16188e-05
9.9253e-07
-1.02006e-06
9.91854e-07
-1.01973e-06
-1.00812e-06
9.86985e-07
-1.00835e-06
-4.90693e-05
5.16458e-05
-6.45511e-07
-6.28441e-07
-6.44659e-07
5.16359e-05
4.90373e-05
-5.16103e-05
6.60755e-07
6.744e-07
6.5585e-07
6.74603e-07
4.90128e-05
-5.16185e-05
9.92736e-07
-1.02005e-06
9.91824e-07
-1.0201e-06
-1.00828e-06
9.87186e-07
-1.00882e-06
-4.90694e-05
5.16454e-05
-6.45771e-07
-6.28891e-07
-6.45165e-07
5.16354e-05
4.90373e-05
-5.16098e-05
6.60996e-07
6.74619e-07
6.56316e-07
6.7527e-07
4.9013e-05
-5.16179e-05
9.92839e-07
-1.02072e-06
9.92162e-07
-1.02046e-06
-1.0086e-06
9.87722e-07
-1.00868e-06
-4.907e-05
5.16449e-05
-6.46102e-07
-6.29232e-07
-6.45108e-07
5.16354e-05
4.90377e-05
-5.16102e-05
6.61401e-07
6.75356e-07
6.55982e-07
6.74873e-07
4.90136e-05
-5.16181e-05
9.93135e-07
-1.02073e-06
9.92026e-07
-1.01959e-06
-1.00854e-06
9.87704e-07
-1.0084e-06
-4.90702e-05
5.16459e-05
-6.46134e-07
-6.28462e-07
-6.44634e-07
5.16358e-05
4.90372e-05
-5.16106e-05
6.60793e-07
6.745e-07
6.55471e-07
6.74001e-07
4.9013e-05
-5.16191e-05
9.92812e-07
-1.01989e-06
9.91754e-07
-1.01918e-06
-1.00807e-06
9.86837e-07
-1.00806e-06
-4.90691e-05
5.16463e-05
-6.45359e-07
-6.28096e-07
-6.44276e-07
5.16363e-05
4.90369e-05
-5.16108e-05
6.60386e-07
6.73865e-07
6.55409e-07
6.74326e-07
4.90123e-05
-5.16188e-05
9.92557e-07
-1.0198e-06
9.91705e-07
-1.0193e-06
-1.00784e-06
9.8721e-07
-1.00788e-06
-4.90689e-05
5.16462e-05
-6.45192e-07
-6.27964e-07
-6.44083e-07
5.16365e-05
4.90366e-05
-5.16109e-05
6.59885e-07
6.73747e-07
6.56128e-07
6.75048e-07
4.90126e-05
-5.16187e-05
9.92111e-07
-1.01963e-06
9.92337e-07
-1.01989e-06
-1.00713e-06
9.88033e-07
-1.00878e-06
-4.90689e-05
5.16461e-05
-6.44401e-07
-6.29079e-07
-6.45196e-07
5.16364e-05
4.90362e-05
-5.16087e-05
6.58069e-07
6.71821e-07
6.61189e-07
6.79856e-07
4.90123e-05
-5.16169e-05
9.90351e-07
-1.0185e-06
9.96339e-07
-1.02335e-06
-1.00581e-06
9.9155e-07
-1.01297e-06
-4.90687e-05
5.16439e-05
-6.43149e-07
-6.34e-07
-6.50151e-07
5.16341e-05
4.90343e-05
-5.16014e-05
6.52691e-07
6.66178e-07
6.71837e-07
6.90537e-07
4.901e-05
-5.16092e-05
9.85221e-07
-1.01357e-06
1.00459e-06
-1.03065e-06
-1.00077e-06
1.0001e-06
-1.02137e-06
-4.90664e-05
5.16361e-05
-6.37372e-07
-6.44832e-07
-6.61292e-07
5.16267e-05
4.90211e-05
-5.15199e-05
6.42683e-07
6.55527e-07
6.77237e-07
6.95655e-07
4.89971e-05
-5.15277e-05
9.73413e-07
-1.00265e-06
1.00459e-06
-1.03043e-06
-9.89228e-07
1.0003e-06
-1.02184e-06
-4.9053e-05
5.15531e-05
-6.27389e-07
-6.5069e-07
-6.67047e-07
5.15444e-05
4.89076e-05
-5.1527e-05
6.47436e-07
6.59838e-07
6.21059e-07
6.39745e-07
4.88839e-05
-5.15345e-05
9.71577e-07
-1.00136e-06
9.86305e-07
-1.01312e-06
-9.87503e-07
9.82016e-07
-1.00366e-06
-4.89397e-05
5.15597e-05
-6.32679e-07
-5.95477e-07
-6.0973e-07
5.15512e-05
4.89857e-05
-5.12026e-05
7.1493e-07
7.2744e-07
5.18364e-07
5.36758e-07
4.89625e-05
-5.12104e-05
1.03231e-06
-1.06222e-06
9.05163e-07
-9.32754e-07
-1.04774e-06
9.00661e-07
-9.23236e-07
-4.90175e-05
5.12357e-05
-7.00217e-07
-4.92945e-07
-5.06989e-07
5.12259e-05
4.85476e-05
-5.09818e-05
8.21207e-07
8.3306e-07
3.5943e-07
3.78325e-07
4.85243e-05
-5.09896e-05
1.06458e-06
-1.094e-06
8.13521e-07
-8.41753e-07
-1.08065e-06
8.09263e-07
-8.31414e-07
-4.85782e-05
5.10154e-05
-8.06022e-07
-3.36227e-07
-3.47974e-07
5.10065e-05
4.83614e-05
-5.02662e-05
1.02237e-06
1.03289e-06
2.87149e-08
4.38506e-08
4.83371e-05
-5.02738e-05
1.20045e-06
-1.22794e-06
5.58748e-07
-5.87152e-07
-1.21572e-06
5.56221e-07
-5.77282e-07
-4.83898e-05
5.03011e-05
-1.0075e-06
1.41234e-09
-1.11421e-08
5.02918e-05
4.75679e-05
-4.90935e-05
1.46721e-06
1.47853e-06
-6.69616e-07
-6.55669e-07
4.75447e-05
-4.91015e-05
1.51086e-06
-1.53921e-06
-3.43719e-08
5.60472e-09
-1.52595e-06
-3.55242e-08
1.277e-08
-4.75945e-05
4.91292e-05
-1.44956e-06
7.01409e-07
6.96222e-07
4.9119e-05
4.60965e-05
-4.59798e-05
2.34308e-06
2.35621e-06
-2.09314e-06
-2.08033e-06
4.60731e-05
-4.59872e-05
2.16661e-06
-2.1904e-06
-1.36387e-06
1.3442e-06
-2.17802e-06
-1.35906e-06
1.34354e-06
-4.61223e-05
4.60166e-05
-2.31904e-06
2.13182e-06
2.12468e-06
4.60096e-05
4.21113e-05
-3.68643e-05
4.00379e-06
4.02487e-06
-6.83547e-06
-6.82852e-06
4.20982e-05
-3.68774e-05
3.53407e-06
-3.55244e-06
-5.27534e-06
5.27706e-06
-3.54156e-06
-5.25791e-06
5.28182e-06
-4.21276e-05
3.68954e-05