/*--------------------------------*- C++ -*----------------------------------*\
| =========                 |                                                 |
| \\      /  F ield         | OpenFOAM: The Open Source CFD Toolbox           |
|  \\    /   O peration     | Version:  2206                                  |
|   \\  /    A nd           | Website:  www.openfoam.com                      |
|    \\/     M anipulation  |                                                 |
\*---------------------------------------------------------------------------*/
FoamFile
{
    version     2.0;
    format      ascii;
    arch        "LSB;label=32;scalar=64";
    class       volScalarField;
    location    "13.5";
    object      epsilon;
}
// * * * * * * * * * * * * * * * * * * * * * * * * * * * * * * * * * * * * * //

dimensions      [0 2 -3 0 0 0 0];

internalField   nonuniform List<scalar> 
28448
(
3.84293e-07
3.96354e-07
3.96356e-07
4.14653e-07
3.84296e-07
3.96357e-07
3.96358e-07
4.14661e-07
3.84286e-07
3.9635e-07
3.96342e-07
4.1466e-07
3.84128e-07
3.96209e-07
3.96192e-07
4.14546e-07
3.84073e-07
3.96168e-07
3.96173e-07
4.14521e-07
3.84072e-07
3.96168e-07
3.96172e-07
4.14524e-07
3.84072e-07
3.96168e-07
3.96173e-07
4.14525e-07
3.84072e-07
3.96168e-07
3.96172e-07
4.14525e-07
3.84072e-07
3.96168e-07
3.96173e-07
4.14525e-07
3.84072e-07
3.96168e-07
3.96173e-07
4.14525e-07
3.84072e-07
3.96168e-07
3.96173e-07
4.14525e-07
3.84072e-07
3.96168e-07
3.96173e-07
4.14525e-07
3.84072e-07
3.96168e-07
3.96173e-07
4.14525e-07
3.84072e-07
3.96168e-07
3.96173e-07
4.14525e-07
3.84072e-07
3.96168e-07
3.96173e-07
4.14525e-07
3.84072e-07
3.96168e-07
3.96173e-07
4.14525e-07
3.84072e-07
3.96168e-07
3.96173e-07
4.14525e-07
3.84082e-07
3.96179e-07
4.14489e-07
3.96362e-07
3.96364e-07
4.14484e-07
3.96357e-07
3.96369e-07
3.96354e-07
3.96363e-07
4.14499e-07
3.96356e-07
3.96357e-07
4.14496e-07
4.14651e-07
4.14505e-07
3.96362e-07
3.96364e-07
3.96361e-07
3.96362e-07
4.14647e-07
4.14499e-07
3.96357e-07
3.96374e-07
3.96355e-07
3.96372e-07
3.96367e-07
3.96357e-07
3.96366e-07
4.14658e-07
4.14509e-07
3.96361e-07
3.96359e-07
3.9636e-07
4.14506e-07
4.14662e-07
4.14506e-07
3.96365e-07
3.96367e-07
3.96362e-07
3.96364e-07
4.14657e-07
4.14501e-07
3.96359e-07
3.96374e-07
3.96357e-07
3.96366e-07
3.96368e-07
3.96354e-07
3.9636e-07
4.14666e-07
4.14509e-07
3.96362e-07
3.96352e-07
3.96354e-07
4.14507e-07
4.14664e-07
4.14438e-07
3.96359e-07
3.96361e-07
3.96267e-07
3.96268e-07
4.14659e-07
4.14431e-07
3.96353e-07
3.96357e-07
3.9626e-07
3.96234e-07
3.96351e-07
3.96251e-07
3.96227e-07
4.14664e-07
4.14407e-07
3.96345e-07
3.96221e-07
3.96221e-07
4.14405e-07
4.14578e-07
4.14357e-07
3.96225e-07
3.96227e-07
3.96178e-07
3.9618e-07
4.14572e-07
4.14352e-07
3.96219e-07
3.96207e-07
3.96172e-07
3.96185e-07
3.962e-07
3.96168e-07
3.96179e-07
4.14551e-07
4.14366e-07
3.96194e-07
3.96173e-07
3.96172e-07
4.14363e-07
4.14515e-07
4.14373e-07
3.9618e-07
3.96182e-07
3.96178e-07
3.9618e-07
4.1451e-07
4.14368e-07
3.96174e-07
3.96188e-07
3.96172e-07
3.96186e-07
3.96182e-07
3.96168e-07
3.96179e-07
4.14526e-07
4.14375e-07
3.96175e-07
3.96173e-07
3.96173e-07
4.14371e-07
4.1453e-07
4.14367e-07
3.9618e-07
3.96182e-07
3.96178e-07
3.9618e-07
4.14525e-07
4.14363e-07
3.96174e-07
3.96188e-07
3.96172e-07
3.96186e-07
3.96182e-07
3.96168e-07
3.96179e-07
4.14531e-07
4.14374e-07
3.96175e-07
3.96173e-07
3.96173e-07
4.14371e-07
4.14526e-07
4.14367e-07
3.9618e-07
3.96182e-07
3.96178e-07
3.9618e-07
4.14522e-07
4.14362e-07
3.96174e-07
3.96188e-07
3.96172e-07
3.96185e-07
3.96182e-07
3.96168e-07
3.96179e-07
4.14532e-07
4.14373e-07
3.96175e-07
3.96173e-07
3.96173e-07
4.14371e-07
4.14525e-07
4.14367e-07
3.9618e-07
3.96182e-07
3.96178e-07
3.9618e-07
4.1452e-07
4.14362e-07
3.96174e-07
3.96188e-07
3.96172e-07
3.96186e-07
3.96182e-07
3.96168e-07
3.96179e-07
4.1453e-07
4.14373e-07
3.96175e-07
3.96173e-07
3.96173e-07
4.1437e-07
4.14525e-07
4.14367e-07
3.9618e-07
3.96182e-07
3.96178e-07
3.9618e-07
4.1452e-07
4.14362e-07
3.96174e-07
3.96188e-07
3.96172e-07
3.96186e-07
3.96182e-07
3.96168e-07
3.96179e-07
4.1453e-07
4.14372e-07
3.96175e-07
3.96173e-07
3.96173e-07
4.1437e-07
4.14525e-07
4.14367e-07
3.9618e-07
3.96182e-07
3.96178e-07
3.9618e-07
4.1452e-07
4.14362e-07
3.96174e-07
3.96188e-07
3.96172e-07
3.96186e-07
3.96182e-07
3.96168e-07
3.96179e-07
4.1453e-07
4.14372e-07
3.96175e-07
3.96173e-07
3.96173e-07
4.1437e-07
4.14525e-07
4.14367e-07
3.9618e-07
3.96182e-07
3.96178e-07
3.9618e-07
4.1452e-07
4.14362e-07
3.96174e-07
3.96188e-07
3.96172e-07
3.96186e-07
3.96182e-07
3.96168e-07
3.96179e-07
4.1453e-07
4.14372e-07
3.96175e-07
3.96173e-07
3.96173e-07
4.1437e-07
4.14525e-07
4.14367e-07
3.9618e-07
3.96182e-07
3.96178e-07
3.9618e-07
4.1452e-07
4.14362e-07
3.96174e-07
3.96188e-07
3.96172e-07
3.96186e-07
3.96182e-07
3.96168e-07
3.96179e-07
4.1453e-07
4.14373e-07
3.96175e-07
3.96173e-07
3.96173e-07
4.14371e-07
4.14525e-07
4.14367e-07
3.9618e-07
3.96182e-07
3.96178e-07
3.9618e-07
4.1452e-07
4.14362e-07
3.96174e-07
3.96188e-07
3.96172e-07
3.96186e-07
3.96182e-07
3.96168e-07
3.96179e-07
4.1453e-07
4.14372e-07
3.96175e-07
3.96173e-07
3.96173e-07
4.1437e-07
4.14525e-07
4.14367e-07
3.9618e-07
3.96182e-07
3.96178e-07
3.9618e-07
4.1452e-07
4.14362e-07
3.96174e-07
3.96188e-07
3.96172e-07
3.96186e-07
3.96182e-07
3.96168e-07
3.96179e-07
4.1453e-07
4.14372e-07
3.96175e-07
3.96173e-07
3.96173e-07
4.1437e-07
4.14525e-07
4.14367e-07
3.9618e-07
3.96182e-07
3.96178e-07
3.9618e-07
4.1452e-07
4.14362e-07
3.96174e-07
3.96188e-07
3.96172e-07
3.96186e-07
3.96182e-07
3.96168e-07
3.96179e-07
4.1453e-07
4.14373e-07
3.96175e-07
3.96173e-07
3.96173e-07
4.14371e-07
4.14525e-07
4.14367e-07
3.9618e-07
3.96182e-07
3.96178e-07
3.9618e-07
4.1452e-07
4.14362e-07
3.96174e-07
3.96188e-07
3.96172e-07
3.96186e-07
3.96182e-07
3.96168e-07
3.96179e-07
4.1453e-07
4.14372e-07
3.96175e-07
3.96173e-07
3.96173e-07
4.1437e-07
4.14525e-07
4.14367e-07
3.9618e-07
3.96182e-07
3.96181e-07
4.1452e-07
3.96174e-07
3.96188e-07
3.96172e-07
3.96186e-07
3.96182e-07
3.96183e-07
4.1453e-07
4.14372e-07
3.96175e-07
3.96174e-07
3.96176e-07
4.14371e-07
4.1453e-07
3.96175e-07
3.96189e-07
4.1453e-07
3.84293e-07
3.84295e-07
3.84294e-07
3.84294e-07
1.49014e-06
7.66209e-06
1.49055e-06
7.66158e-06
2.48305e-05
2.48272e-05
1.49e-06
7.66313e-06
1.49038e-06
7.6626e-06
3.84295e-07
3.84299e-07
3.84299e-07
3.84296e-07
3.84293e-07
3.84297e-07
3.84297e-07
5.80353e-07
1.21679e-06
3.87453e-07
3.96358e-07
5.80459e-07
1.2164e-06
3.87458e-07
2.48299e-05
2.4827e-05
5.80379e-07
3.87454e-07
1.21684e-06
3.9636e-07
5.80487e-07
3.87459e-07
1.21635e-06
2.48699e-06
2.48751e-06
4.14503e-07
2.48671e-06
2.48724e-06
1.49011e-06
7.66169e-06
1.49048e-06
7.66127e-06
2.48255e-05
2.48242e-05
1.48997e-06
7.66271e-06
1.4903e-06
7.66226e-06
3.84293e-07
3.84297e-07
3.84296e-07
3.8429e-07
3.84288e-07
3.84286e-07
3.84286e-07
5.80323e-07
1.2168e-06
3.87454e-07
3.96358e-07
5.80426e-07
1.21631e-06
3.87453e-07
2.48262e-05
2.48251e-05
5.80341e-07
3.87454e-07
1.21673e-06
3.96358e-07
5.80452e-07
3.87453e-07
1.21627e-06
2.48711e-06
2.48764e-06
4.14508e-07
2.48673e-06
2.48725e-06
1.49048e-06
7.66179e-06
1.49052e-06
7.66283e-06
2.48253e-05
2.48296e-05
1.49038e-06
7.6628e-06
1.49036e-06
7.66385e-06
3.84284e-07
3.84275e-07
3.84275e-07
3.84178e-07
3.84175e-07
3.84131e-07
3.8413e-07
5.80381e-07
1.21684e-06
3.87439e-07
3.96339e-07
5.80462e-07
1.21655e-06
3.87416e-07
2.48299e-05
2.48355e-05
5.80402e-07
3.87435e-07
1.2169e-06
3.96314e-07
5.80489e-07
3.87405e-07
1.21667e-06
2.48747e-06
2.488e-06
4.14486e-07
2.48759e-06
2.48813e-06
1.4909e-06
7.66729e-06
1.49129e-06
7.66689e-06
2.48365e-05
2.48359e-05
1.49075e-06
7.66833e-06
1.49109e-06
7.66791e-06
3.84127e-07
3.841e-07
3.84099e-07
3.84074e-07
3.84074e-07
3.84074e-07
3.84074e-07
5.80366e-07
1.21728e-06
3.87275e-07
3.96187e-07
5.80474e-07
1.21679e-06
3.87259e-07
2.48379e-05
2.48369e-05
5.80389e-07
3.87269e-07
1.21721e-06
3.96181e-07
5.80503e-07
3.87256e-07
1.21674e-06
2.48794e-06
2.48845e-06
4.14364e-07
2.48752e-06
2.48804e-06
1.49088e-06
7.66712e-06
1.49126e-06
7.66677e-06
2.48363e-05
2.48357e-05
1.49074e-06
7.66817e-06
1.49107e-06
7.6678e-06
3.84076e-07
3.84078e-07
3.84077e-07
3.84073e-07
3.84074e-07
3.84075e-07
3.84074e-07
5.80364e-07
1.21726e-06
3.87247e-07
3.96171e-07
5.80469e-07
1.21678e-06
3.8725e-07
2.48375e-05
2.48368e-05
5.80382e-07
3.87247e-07
1.21719e-06
3.96176e-07
5.80494e-07
3.87251e-07
1.21674e-06
2.48787e-06
2.48838e-06
4.14375e-07
2.4875e-06
2.48802e-06
1.49088e-06
7.66709e-06
1.49126e-06
7.66676e-06
2.48363e-05
2.48357e-05
1.49074e-06
7.66814e-06
1.49107e-06
7.66779e-06
3.84076e-07
3.84077e-07
3.84076e-07
3.84072e-07
3.84073e-07
3.84074e-07
3.84074e-07
5.80364e-07
1.21726e-06
3.87246e-07
3.9617e-07
5.8047e-07
1.21678e-06
3.87248e-07
2.48375e-05
2.48368e-05
5.80383e-07
3.87247e-07
1.21719e-06
3.96175e-07
5.80497e-07
3.87249e-07
1.21674e-06
2.48787e-06
2.48838e-06
4.1437e-07
2.4875e-06
2.48802e-06
1.49088e-06
7.66709e-06
1.49126e-06
7.66676e-06
2.48363e-05
2.48357e-05
1.49074e-06
7.66814e-06
1.49107e-06
7.66779e-06
3.84076e-07
3.84077e-07
3.84076e-07
3.84072e-07
3.84073e-07
3.84074e-07
3.84074e-07
5.80364e-07
1.21726e-06
3.87246e-07
3.9617e-07
5.8047e-07
1.21678e-06
3.87248e-07
2.48375e-05
2.48367e-05
5.80386e-07
3.87247e-07
1.21719e-06
3.96175e-07
5.80497e-07
3.87249e-07
1.21674e-06
2.48787e-06
2.48838e-06
4.14371e-07
2.4875e-06
2.48802e-06
1.49088e-06
7.66709e-06
1.49126e-06
7.66676e-06
2.48363e-05
2.48357e-05
1.49074e-06
7.66814e-06
1.49107e-06
7.66779e-06
3.84076e-07
3.84077e-07
3.84076e-07
3.84072e-07
3.84073e-07
3.84074e-07
3.84074e-07
5.80365e-07
1.21726e-06
3.87246e-07
3.9617e-07
5.8047e-07
1.21678e-06
3.87248e-07
2.48375e-05
2.48367e-05
5.80383e-07
3.87247e-07
1.21719e-06
3.96175e-07
5.80491e-07
3.87249e-07
1.21674e-06
2.48787e-06
2.48838e-06
4.14371e-07
2.4875e-06
2.48802e-06
1.49088e-06
7.66709e-06
1.49126e-06
7.66676e-06
2.48363e-05
2.48357e-05
1.49074e-06
7.66814e-06
1.49107e-06
7.66778e-06
3.84076e-07
3.84077e-07
3.84076e-07
3.84072e-07
3.84074e-07
3.84074e-07
3.84074e-07
5.80365e-07
1.21726e-06
3.87246e-07
3.9617e-07
5.8047e-07
1.21678e-06
3.87249e-07
2.48375e-05
2.48367e-05
5.80384e-07
3.87247e-07
1.21719e-06
3.96175e-07
5.80489e-07
3.87249e-07
1.21674e-06
2.48787e-06
2.48838e-06
4.14372e-07
2.4875e-06
2.48802e-06
1.49088e-06
7.66709e-06
1.49126e-06
7.66676e-06
2.48363e-05
2.48357e-05
1.49074e-06
7.66814e-06
1.49107e-06
7.66779e-06
3.84076e-07
3.84077e-07
3.84076e-07
3.84072e-07
3.84073e-07
3.84074e-07
3.84074e-07
5.80364e-07
1.21726e-06
3.87246e-07
3.9617e-07
5.8047e-07
1.21678e-06
3.87248e-07
2.48375e-05
2.48367e-05
5.80395e-07
3.87247e-07
1.21719e-06
3.96175e-07
5.80497e-07
3.87249e-07
1.21674e-06
2.48787e-06
2.48838e-06
4.14371e-07
2.4875e-06
2.48802e-06
1.49088e-06
7.66709e-06
1.49126e-06
7.66676e-06
2.48363e-05
2.48357e-05
1.49074e-06
7.66814e-06
1.49107e-06
7.66779e-06
3.84076e-07
3.84077e-07
3.84076e-07
3.84072e-07
3.84074e-07
3.84074e-07
3.84074e-07
5.80365e-07
1.21726e-06
3.87246e-07
3.9617e-07
5.8047e-07
1.21678e-06
3.87248e-07
2.48375e-05
2.48367e-05
5.80401e-07
3.87247e-07
1.21719e-06
3.96175e-07
5.80505e-07
3.87249e-07
1.21674e-06
2.48786e-06
2.48838e-06
4.14372e-07
2.4875e-06
2.48802e-06
1.49088e-06
7.66709e-06
1.49126e-06
7.66676e-06
2.48363e-05
2.48357e-05
1.49074e-06
7.66814e-06
1.49107e-06
7.66778e-06
3.84076e-07
3.84077e-07
3.84076e-07
3.84072e-07
3.84073e-07
3.84074e-07
3.84074e-07
5.80365e-07
1.21726e-06
3.87246e-07
3.9617e-07
5.8047e-07
1.21678e-06
3.87248e-07
2.48375e-05
2.48367e-05
5.80405e-07
3.87247e-07
1.21719e-06
3.96175e-07
5.8051e-07
3.87249e-07
1.21674e-06
2.48787e-06
2.48838e-06
4.14372e-07
2.4875e-06
2.48802e-06
1.49088e-06
7.66709e-06
1.49126e-06
7.66676e-06
2.48363e-05
2.48357e-05
1.49074e-06
7.66814e-06
1.49107e-06
7.66779e-06
3.84076e-07
3.84077e-07
3.84076e-07
3.84072e-07
3.84073e-07
3.84074e-07
3.84074e-07
5.80365e-07
1.21726e-06
3.87246e-07
3.9617e-07
5.8047e-07
1.21678e-06
3.87248e-07
2.48375e-05
2.48367e-05
5.80404e-07
3.87247e-07
1.21719e-06
3.96175e-07
5.80512e-07
3.87249e-07
1.21674e-06
2.48787e-06
2.48838e-06
4.14372e-07
2.4875e-06
2.48802e-06
1.49088e-06
7.66709e-06
1.49126e-06
7.66676e-06
2.48363e-05
2.48357e-05
1.49074e-06
7.66814e-06
1.49107e-06
7.66779e-06
3.84076e-07
3.84077e-07
3.84076e-07
3.84072e-07
3.84074e-07
3.84074e-07
3.84074e-07
5.80364e-07
1.21726e-06
3.87246e-07
3.9617e-07
5.8047e-07
1.21678e-06
3.87248e-07
2.48375e-05
2.48367e-05
5.80402e-07
3.87247e-07
1.21719e-06
3.96175e-07
5.80509e-07
3.87249e-07
1.21674e-06
2.48787e-06
2.48838e-06
4.14372e-07
2.4875e-06
2.48802e-06
1.49088e-06
7.66709e-06
1.49126e-06
7.66676e-06
2.48363e-05
2.48357e-05
1.49074e-06
7.66814e-06
1.49107e-06
7.66778e-06
3.84076e-07
3.84077e-07
3.84076e-07
3.84072e-07
3.84073e-07
3.84074e-07
3.84074e-07
5.80365e-07
1.21726e-06
3.87246e-07
3.9617e-07
5.80471e-07
1.21678e-06
3.87248e-07
2.48375e-05
2.48367e-05
5.80401e-07
3.87247e-07
1.21719e-06
3.96175e-07
5.80508e-07
3.87249e-07
1.21674e-06
2.48787e-06
2.48838e-06
4.14372e-07
2.4875e-06
2.48802e-06
1.49088e-06
7.66709e-06
1.49126e-06
7.66676e-06
2.48362e-05
2.48357e-05
1.49074e-06
7.66814e-06
1.49107e-06
7.66778e-06
3.84076e-07
3.84077e-07
3.84076e-07
3.84072e-07
3.84073e-07
3.84075e-07
3.84074e-07
5.80365e-07
1.21726e-06
3.87246e-07
3.9617e-07
5.8047e-07
1.21678e-06
3.87248e-07
2.48375e-05
2.48367e-05
5.80401e-07
3.87247e-07
1.21719e-06
3.96175e-07
5.80507e-07
3.87249e-07
1.21674e-06
2.48787e-06
2.48838e-06
4.14372e-07
2.4875e-06
2.48802e-06
1.49088e-06
7.66709e-06
1.49126e-06
7.66676e-06
2.48362e-05
2.48357e-05
1.49074e-06
7.66814e-06
1.49107e-06
7.66778e-06
3.84076e-07
3.84077e-07
3.84076e-07
3.84075e-07
3.84082e-07
3.84075e-07
3.84078e-07
5.80364e-07
1.21726e-06
3.87246e-07
3.96169e-07
5.8047e-07
1.21678e-06
3.87248e-07
2.48375e-05
2.48367e-05
5.80401e-07
3.87247e-07
1.21719e-06
3.96175e-07
5.80507e-07
3.8725e-07
1.21674e-06
2.48787e-06
2.48838e-06
4.14372e-07
2.4875e-06
2.48802e-06
7.66814e-06
1.49107e-06
3.84081e-07
2.48375e-05
1.21718e-06
2.48294e-05
2.48318e-05
2.48633e-06
2.4869e-06
7.66182e-06
1.49021e-06
7.66241e-06
1.49021e-06
1.21622e-06
3.87456e-07
5.8032e-07
1.21631e-06
3.87456e-07
5.8032e-07
2.48309e-05
2.48682e-06
2.48639e-06
2.48276e-05
7.66283e-06
1.4901e-06
1.21644e-06
3.87458e-07
5.80325e-07
1.49074e-06
7.66337e-06
7.66392e-06
1.49008e-06
5.80447e-07
3.96369e-07
3.87456e-07
1.21658e-06
3.87456e-07
1.21707e-06
5.80343e-07
5.80442e-07
1.21625e-06
3.87452e-07
3.87452e-07
5.80341e-07
1.49093e-06
7.66219e-06
1.4902e-06
5.80445e-07
3.96363e-07
3.87455e-07
1.21638e-06
3.87455e-07
1.21677e-06
5.80347e-07
1.49093e-06
7.66304e-06
7.66351e-06
1.49021e-06
2.48298e-05
2.48354e-05
4.14641e-07
2.48736e-06
2.48658e-06
2.48776e-06
2.48692e-06
2.48291e-05
2.4834e-05
5.80472e-07
3.96356e-07
3.87454e-07
1.21638e-06
3.87454e-07
1.21675e-06
5.80365e-07
5.80445e-07
3.96357e-07
3.87455e-07
1.21649e-06
3.87456e-07
1.21688e-06
5.80347e-07
1.49096e-06
7.66317e-06
7.66364e-06
1.49023e-06
1.49075e-06
7.66346e-06
7.66393e-06
1.49009e-06
4.14638e-07
2.4866e-06
2.48712e-06
2.48694e-06
2.48745e-06
2.48293e-05
2.48343e-05
2.48306e-05
2.48355e-05
2.48291e-05
2.48258e-05
2.48314e-05
2.48282e-05
2.48672e-06
2.48729e-06
4.14502e-07
2.48655e-06
2.48712e-06
2.48238e-05
2.48258e-05
2.48262e-05
2.48282e-05
4.1466e-07
2.48663e-06
2.4872e-06
2.48687e-06
2.48744e-06
1.49016e-06
7.66258e-06
1.49052e-06
7.66228e-06
5.80356e-07
1.2167e-06
3.87456e-07
3.96362e-07
5.80433e-07
1.21632e-06
3.87455e-07
5.80353e-07
1.21681e-06
3.87456e-07
3.96364e-07
5.80432e-07
1.21644e-06
3.87455e-07
1.49046e-06
7.66138e-06
7.66164e-06
1.49012e-06
1.49048e-06
7.66205e-06
7.66234e-06
1.49014e-06
5.80464e-07
3.9636e-07
1.21625e-06
3.87452e-07
1.21673e-06
3.87452e-07
5.8034e-07
5.80461e-07
3.96362e-07
1.21636e-06
3.87452e-07
1.21685e-06
3.87452e-07
5.80338e-07
2.48724e-06
2.4869e-06
4.14497e-07
2.48706e-06
2.48671e-06
2.48276e-05
2.48241e-05
2.48252e-05
2.48271e-05
4.14655e-07
2.48716e-06
2.48683e-06
2.4874e-06
2.48714e-06
2.48219e-05
2.48243e-05
5.80339e-07
1.21697e-06
3.87458e-07
3.96356e-07
5.80431e-07
1.21658e-06
3.87458e-07
1.49004e-06
7.66347e-06
1.49035e-06
7.66314e-06
5.80354e-07
3.87461e-07
1.21706e-06
3.96374e-07
5.80456e-07
3.87461e-07
1.21661e-06
1.49027e-06
7.6624e-06
7.6627e-06
1.48998e-06
5.8044e-07
3.96355e-07
1.21649e-06
3.87456e-07
1.21702e-06
3.87456e-07
5.80323e-07
1.49032e-06
7.66296e-06
7.66324e-06
1.49001e-06
5.80452e-07
3.96372e-07
3.87459e-07
1.21657e-06
3.8746e-07
1.21705e-06
5.80328e-07
1.49018e-06
7.66239e-06
1.49052e-06
7.66207e-06
5.80359e-07
3.87459e-07
1.21682e-06
3.96367e-07
5.80461e-07
3.87459e-07
1.21635e-06
1.49018e-06
7.6631e-06
1.49053e-06
7.66279e-06
5.8045e-07
3.96358e-07
1.21634e-06
3.87456e-07
1.21684e-06
3.87457e-07
5.80323e-07
1.4905e-06
7.66185e-06
7.66217e-06
1.49015e-06
5.80456e-07
3.96366e-07
3.87457e-07
1.21629e-06
3.87458e-07
1.21676e-06
5.80329e-07
1.4905e-06
7.6626e-06
7.66285e-06
1.49016e-06
2.48779e-06
2.48691e-06
4.14507e-07
2.48752e-06
2.4867e-06
2.48289e-05
2.48265e-05
2.48255e-05
2.48273e-05
4.14665e-07
2.48758e-06
2.48673e-06
2.48792e-06
2.48701e-06
2.48251e-05
2.48265e-05
5.80358e-07
3.8746e-07
1.21693e-06
3.96361e-07
5.8046e-07
3.8746e-07
1.21646e-06
1.49021e-06
7.66323e-06
1.49056e-06
7.66293e-06
1.49005e-06
7.66352e-06
1.49036e-06
7.66322e-06
5.80482e-07
3.9636e-07
3.87455e-07
1.21628e-06
3.87457e-07
1.21675e-06
5.80345e-07
5.80454e-07
3.9636e-07
3.87458e-07
1.2164e-06
3.87459e-07
1.21687e-06
5.80327e-07
1.49053e-06
7.66273e-06
7.66299e-06
1.49018e-06
1.49033e-06
7.66303e-06
7.66328e-06
1.49002e-06
2.48292e-05
2.48267e-05
2.48304e-05
2.48279e-05
4.14661e-07
2.48675e-06
2.48727e-06
2.48703e-06
2.48754e-06
2.48253e-05
2.48267e-05
2.48265e-05
2.48279e-05
2.48239e-05
2.48228e-05
2.48263e-05
2.48252e-05
2.48691e-06
2.48749e-06
4.14507e-07
2.48665e-06
2.48722e-06
2.4823e-05
2.48231e-05
2.48254e-05
2.48255e-05
4.14664e-07
2.4866e-06
2.48718e-06
2.48692e-06
2.4875e-06
1.49013e-06
7.66212e-06
1.49046e-06
7.66191e-06
5.80321e-07
1.21665e-06
3.87455e-07
3.96365e-07
5.80438e-07
1.21621e-06
3.87454e-07
5.80321e-07
1.21678e-06
3.87453e-07
3.96367e-07
5.80437e-07
1.21633e-06
3.87452e-07
1.49043e-06
7.66133e-06
7.66137e-06
1.49011e-06
1.49046e-06
7.66194e-06
7.66201e-06
1.49013e-06
5.80424e-07
3.96363e-07
1.21622e-06
3.8745e-07
1.21663e-06
3.87451e-07
5.80327e-07
5.80425e-07
3.96365e-07
1.21634e-06
3.87449e-07
1.21675e-06
3.87449e-07
5.80328e-07
2.48746e-06
2.48721e-06
4.14503e-07
2.48718e-06
2.48688e-06
2.48223e-05
2.48211e-05
2.48243e-05
2.48245e-05
4.1466e-07
2.48712e-06
2.48686e-06
2.48746e-06
2.48725e-06
2.48215e-05
2.48216e-05
5.80326e-07
1.21693e-06
3.87456e-07
3.96359e-07
5.80425e-07
1.21646e-06
3.87455e-07
1.49e-06
7.66309e-06
1.49029e-06
7.66292e-06
5.8033e-07
3.87458e-07
1.21702e-06
3.96373e-07
5.8043e-07
3.87457e-07
1.21656e-06
1.49025e-06
7.66231e-06
7.66238e-06
1.48999e-06
5.80429e-07
3.96358e-07
1.21647e-06
3.87452e-07
1.21691e-06
3.87453e-07
5.80334e-07
1.49028e-06
7.66328e-06
7.66309e-06
1.49008e-06
5.80433e-07
3.9637e-07
3.87451e-07
1.21666e-06
3.87454e-07
1.21701e-06
5.80344e-07
1.49015e-06
7.66196e-06
1.49048e-06
7.66172e-06
5.80328e-07
3.87457e-07
1.21671e-06
3.96367e-07
5.80429e-07
3.87455e-07
1.21628e-06
1.49015e-06
7.66269e-06
1.49048e-06
7.66253e-06
5.80426e-07
3.96356e-07
1.21633e-06
3.87447e-07
1.21676e-06
3.8745e-07
5.80339e-07
1.49046e-06
7.6617e-06
7.66185e-06
1.49024e-06
5.80429e-07
3.96364e-07
3.87448e-07
1.21638e-06
3.87452e-07
1.2167e-06
5.80343e-07
1.49046e-06
7.66287e-06
7.66266e-06
1.49024e-06
2.48797e-06
2.48703e-06
4.1451e-07
2.48757e-06
2.48672e-06
2.48253e-05
2.48244e-05
2.48271e-05
2.4826e-05
4.14667e-07
2.48772e-06
2.48687e-06
2.48791e-06
2.48697e-06
2.4826e-05
2.4825e-05
5.80325e-07
3.87457e-07
1.21683e-06
3.96361e-07
5.80427e-07
3.87456e-07
1.21639e-06
1.49017e-06
7.66283e-06
1.49051e-06
7.66266e-06
1.49001e-06
7.66312e-06
1.4903e-06
7.66295e-06
5.80452e-07
3.96355e-07
3.87446e-07
1.21637e-06
3.8745e-07
1.21669e-06
5.80361e-07
5.80427e-07
3.96357e-07
3.87449e-07
1.21649e-06
3.87452e-07
1.21682e-06
5.80342e-07
1.4905e-06
7.66299e-06
7.66278e-06
1.49027e-06
1.49028e-06
7.6633e-06
7.66309e-06
1.49011e-06
2.48255e-05
2.48247e-05
2.48268e-05
2.48259e-05
4.14666e-07
2.48689e-06
2.48743e-06
2.48699e-06
2.48751e-06
2.48263e-05
2.48252e-05
2.48276e-05
2.48265e-05
2.48238e-05
2.48281e-05
2.48262e-05
2.48306e-05
2.48696e-06
2.48754e-06
4.14502e-07
2.48715e-06
2.48773e-06
2.48348e-05
2.48321e-05
2.48372e-05
2.48346e-05
4.14653e-07
2.48758e-06
2.48815e-06
2.48768e-06
2.48825e-06
1.49046e-06
7.66213e-06
1.49049e-06
7.66322e-06
5.80367e-07
1.21668e-06
3.87446e-07
3.96349e-07
5.80439e-07
1.21647e-06
3.87436e-07
5.80364e-07
1.2168e-06
3.87446e-07
3.96351e-07
5.80439e-07
1.21657e-06
3.87436e-07
1.491e-06
7.66688e-06
7.66445e-06
1.4909e-06
1.49097e-06
7.66735e-06
7.66479e-06
1.49089e-06
5.80485e-07
3.96318e-07
1.21671e-06
3.87346e-07
1.217e-06
3.87403e-07
5.80383e-07
5.80482e-07
3.96319e-07
1.21681e-06
3.87346e-07
1.2171e-06
3.87403e-07
5.80379e-07
2.4875e-06
2.48732e-06
4.14498e-07
2.48767e-06
2.48735e-06
2.48228e-05
2.48266e-05
2.4836e-05
2.48337e-05
4.14648e-07
2.48809e-06
2.48787e-06
2.48822e-06
2.48803e-06
2.48331e-05
2.48306e-05
5.80373e-07
1.21697e-06
3.87448e-07
3.96343e-07
5.80443e-07
1.21673e-06
3.87435e-07
1.4906e-06
7.66386e-06
1.49049e-06
7.6665e-06
5.80388e-07
3.87442e-07
1.2172e-06
3.96328e-07
5.80461e-07
3.87414e-07
1.21697e-06
1.49084e-06
7.66789e-06
7.66554e-06
1.49075e-06
5.80483e-07
3.96311e-07
1.21696e-06
3.87339e-07
1.21728e-06
3.87395e-07
5.80379e-07
1.49101e-06
7.66846e-06
7.66815e-06
1.49079e-06
5.80495e-07
3.96277e-07
3.87309e-07
1.21706e-06
3.87359e-07
1.21749e-06
5.80381e-07
1.49077e-06
7.66193e-06
1.4907e-06
7.66306e-06
5.80384e-07
3.87438e-07
1.21688e-06
3.96321e-07
5.80461e-07
3.87406e-07
1.21668e-06
1.49077e-06
7.66337e-06
1.4907e-06
7.66612e-06
5.80485e-07
3.963e-07
1.21678e-06
3.87312e-07
1.2171e-06
3.8736e-07
5.80372e-07
1.49121e-06
7.66713e-06
7.6647e-06
1.49092e-06
5.80487e-07
3.96271e-07
3.87302e-07
1.21677e-06
3.8735e-07
1.21717e-06
5.80376e-07
1.49121e-06
7.66804e-06
7.66776e-06
1.49092e-06
2.48833e-06
2.48738e-06
4.14487e-07
2.48849e-06
2.48757e-06
2.48284e-05
2.48347e-05
2.48372e-05
2.48377e-05
4.14626e-07
2.48849e-06
2.48757e-06
2.48898e-06
2.48795e-06
2.48362e-05
2.48366e-05
5.80383e-07
3.87438e-07
1.217e-06
3.96315e-07
5.80459e-07
3.87405e-07
1.21679e-06
1.49079e-06
7.66349e-06
1.49074e-06
7.66628e-06
1.49063e-06
7.66381e-06
1.49052e-06
7.66661e-06
5.80513e-07
3.96261e-07
3.87301e-07
1.21676e-06
3.87346e-07
1.21716e-06
5.80395e-07
5.80485e-07
3.96264e-07
3.87301e-07
1.21688e-06
3.87348e-07
1.21729e-06
5.80375e-07
1.49124e-06
7.66816e-06
7.66792e-06
1.49095e-06
1.49103e-06
7.66848e-06
7.66825e-06
1.49079e-06
2.48287e-05
2.4835e-05
2.483e-05
2.48363e-05
4.14626e-07
2.4876e-06
2.48812e-06
2.48798e-06
2.48851e-06
2.48364e-05
2.48368e-05
2.48376e-05
2.48381e-05
2.48352e-05
2.48346e-05
2.48376e-05
2.4837e-05
2.48785e-06
2.48842e-06
4.14377e-07
2.48745e-06
2.48802e-06
2.48344e-05
2.4835e-05
2.48368e-05
2.48373e-05
4.14526e-07
2.48742e-06
2.48799e-06
2.48773e-06
2.48831e-06
1.4909e-06
7.66762e-06
1.49125e-06
7.66744e-06
5.80371e-07
1.21714e-06
3.873e-07
3.962e-07
5.80483e-07
1.2167e-06
3.87271e-07
5.80369e-07
1.21725e-06
3.87299e-07
3.96202e-07
5.80481e-07
1.21681e-06
3.87271e-07
1.49123e-06
7.6668e-06
7.66697e-06
1.49089e-06
1.49123e-06
7.66738e-06
7.66753e-06
1.49089e-06
5.80473e-07
3.96183e-07
1.21669e-06
3.87247e-07
1.21712e-06
3.87252e-07
5.80368e-07
5.80472e-07
3.96185e-07
1.2168e-06
3.87247e-07
1.21724e-06
3.87252e-07
5.80366e-07
2.48838e-06
2.48824e-06
4.14371e-07
2.48796e-06
2.48769e-06
2.48338e-05
2.4833e-05
2.48357e-05
2.48363e-05
4.1452e-07
2.48793e-06
2.48762e-06
2.48826e-06
2.48805e-06
2.48328e-05
2.48335e-05
5.80371e-07
1.21743e-06
3.87295e-07
3.96194e-07
5.8048e-07
1.21696e-06
3.87269e-07
1.49077e-06
7.66857e-06
1.49108e-06
7.66832e-06
5.80373e-07
3.87277e-07
1.21751e-06
3.96194e-07
5.80482e-07
3.8726e-07
1.21704e-06
1.49104e-06
7.66783e-06
7.66801e-06
1.49074e-06
5.80474e-07
3.96177e-07
1.21694e-06
3.87248e-07
1.21741e-06
3.87252e-07
5.80368e-07
1.49106e-06
7.66826e-06
7.66844e-06
1.49076e-06
5.80475e-07
3.96186e-07
3.87249e-07
1.21703e-06
3.87249e-07
1.21749e-06
5.80368e-07
1.49091e-06
7.66752e-06
1.49125e-06
7.66727e-06
5.80371e-07
3.87272e-07
1.21719e-06
3.96188e-07
5.80476e-07
3.87256e-07
1.21675e-06
1.49091e-06
7.66812e-06
1.49125e-06
7.66793e-06
5.80467e-07
3.96173e-07
1.21678e-06
3.87247e-07
1.21724e-06
3.87249e-07
5.80364e-07
1.49124e-06
7.66719e-06
7.66739e-06
1.4909e-06
5.80472e-07
3.9618e-07
3.87247e-07
1.21675e-06
3.87248e-07
1.21718e-06
5.80368e-07
1.49124e-06
7.66788e-06
7.66803e-06
1.4909e-06
2.48883e-06
2.48784e-06
4.14367e-07
2.48836e-06
2.4875e-06
2.48365e-05
2.48359e-05
2.48368e-05
2.48375e-05
4.14521e-07
2.48835e-06
2.48749e-06
2.48874e-06
2.48779e-06
2.48358e-05
2.48363e-05
5.8037e-07
3.87271e-07
1.21731e-06
3.96181e-07
5.80475e-07
3.87257e-07
1.21687e-06
1.49093e-06
7.66825e-06
1.49129e-06
7.66807e-06
1.49077e-06
7.66856e-06
1.49108e-06
7.66837e-06
5.80498e-07
3.96174e-07
3.87247e-07
1.21674e-06
3.87249e-07
1.21717e-06
5.80386e-07
5.80471e-07
3.96173e-07
3.87248e-07
1.21686e-06
3.87248e-07
1.2173e-06
5.80366e-07
1.49126e-06
7.66802e-06
7.66817e-06
1.49091e-06
1.49106e-06
7.66832e-06
7.66847e-06
1.49076e-06
2.48368e-05
2.48362e-05
2.4838e-05
2.48374e-05
4.14518e-07
2.48751e-06
2.48803e-06
2.48782e-06
2.48833e-06
2.48361e-05
2.48366e-05
2.48373e-05
2.48378e-05
2.48348e-05
2.48344e-05
2.48372e-05
2.48367e-05
2.48771e-06
2.48828e-06
4.14366e-07
2.48741e-06
2.48798e-06
2.48343e-05
2.48348e-05
2.48367e-05
2.48372e-05
4.14526e-07
2.4874e-06
2.48798e-06
2.4877e-06
2.48828e-06
1.49088e-06
7.66749e-06
1.49122e-06
7.66736e-06
5.80366e-07
1.21712e-06
3.87249e-07
3.9618e-07
5.80471e-07
1.21669e-06
3.87249e-07
5.80363e-07
1.21723e-06
3.8725e-07
3.96182e-07
5.80469e-07
1.2168e-06
3.8725e-07
1.49122e-06
7.66676e-06
7.66688e-06
1.49089e-06
1.49122e-06
7.66735e-06
7.66747e-06
1.49088e-06
5.80469e-07
3.96178e-07
1.21669e-06
3.87247e-07
1.21711e-06
3.87248e-07
5.80369e-07
5.80467e-07
3.9618e-07
1.2168e-06
3.87247e-07
1.21723e-06
3.87248e-07
5.80367e-07
2.48824e-06
2.488e-06
4.14361e-07
2.48793e-06
2.48762e-06
2.48334e-05
2.48328e-05
2.48357e-05
2.48362e-05
4.14522e-07
2.48793e-06
2.48763e-06
2.48824e-06
2.48801e-06
2.48328e-05
2.48334e-05
5.80366e-07
1.2174e-06
3.8725e-07
3.96174e-07
5.8047e-07
1.21694e-06
3.8725e-07
1.49076e-06
7.6684e-06
1.49105e-06
7.66824e-06
5.80367e-07
3.87252e-07
1.21749e-06
3.96188e-07
5.8047e-07
3.87252e-07
1.21703e-06
1.49103e-06
7.66779e-06
7.66793e-06
1.49074e-06
5.80469e-07
3.96172e-07
1.21694e-06
3.87247e-07
1.2174e-06
3.87248e-07
5.8037e-07
1.49105e-06
7.66824e-06
7.66839e-06
1.49076e-06
5.8047e-07
3.96187e-07
3.87249e-07
1.21703e-06
3.8725e-07
1.21749e-06
5.80371e-07
1.4909e-06
7.66732e-06
1.49123e-06
7.66716e-06
5.80369e-07
3.8725e-07
1.21718e-06
3.96182e-07
5.80469e-07
3.8725e-07
1.21675e-06
1.4909e-06
7.66799e-06
1.49123e-06
7.66787e-06
5.80467e-07
3.96171e-07
1.21678e-06
3.87246e-07
1.21723e-06
3.87249e-07
5.80366e-07
1.49123e-06
7.66715e-06
7.6673e-06
1.4909e-06
5.8047e-07
3.9618e-07
3.87247e-07
1.21675e-06
3.87249e-07
1.21718e-06
5.80371e-07
1.49123e-06
7.66786e-06
7.66798e-06
1.4909e-06
2.48873e-06
2.48778e-06
4.14377e-07
2.48834e-06
2.48748e-06
2.48363e-05
2.48358e-05
2.48367e-05
2.48374e-05
4.14535e-07
2.48834e-06
2.48748e-06
2.48873e-06
2.48778e-06
2.48358e-05
2.48362e-05
5.80365e-07
3.87251e-07
1.21729e-06
3.96176e-07
5.80467e-07
3.87251e-07
1.21686e-06
1.49091e-06
7.66814e-06
1.49124e-06
7.66801e-06
1.49075e-06
7.66843e-06
1.49105e-06
7.66831e-06
5.80491e-07
3.96176e-07
3.87247e-07
1.21674e-06
3.8725e-07
1.21716e-06
5.80387e-07
5.80466e-07
3.96174e-07
3.87248e-07
1.21686e-06
3.87249e-07
1.21729e-06
5.80366e-07
1.49125e-06
7.668e-06
7.66812e-06
1.49091e-06
1.49103e-06
7.6683e-06
7.66842e-06
1.49074e-06
2.48365e-05
2.48361e-05
2.48378e-05
2.48373e-05
4.14534e-07
2.4875e-06
2.48802e-06
2.48781e-06
2.48832e-06
2.48361e-05
2.48365e-05
2.48373e-05
2.48377e-05
2.48348e-05
2.48343e-05
2.48371e-05
2.48367e-05
2.4877e-06
2.48828e-06
4.14366e-07
2.4874e-06
2.48798e-06
2.48343e-05
2.48348e-05
2.48367e-05
2.48372e-05
4.14523e-07
2.4874e-06
2.48798e-06
2.4877e-06
2.48828e-06
1.49088e-06
7.66747e-06
1.49122e-06
7.66735e-06
5.80368e-07
1.21711e-06
3.87249e-07
3.9618e-07
5.80472e-07
1.21669e-06
3.87249e-07
5.80365e-07
1.21723e-06
3.87249e-07
3.96182e-07
5.80471e-07
1.2168e-06
3.87249e-07
1.49122e-06
7.66676e-06
7.66688e-06
1.49089e-06
1.49122e-06
7.66735e-06
7.66747e-06
1.49088e-06
5.8047e-07
3.96178e-07
1.21669e-06
3.87247e-07
1.21711e-06
3.87247e-07
5.80367e-07
5.80468e-07
3.9618e-07
1.2168e-06
3.87247e-07
1.21723e-06
3.87247e-07
5.80365e-07
2.48824e-06
2.48802e-06
4.14361e-07
2.48793e-06
2.48763e-06
2.48334e-05
2.48328e-05
2.48357e-05
2.48362e-05
4.14518e-07
2.48793e-06
2.48763e-06
2.48824e-06
2.48801e-06
2.48328e-05
2.48334e-05
5.80367e-07
1.2174e-06
3.8725e-07
3.96174e-07
5.80472e-07
1.21694e-06
3.8725e-07
1.49076e-06
7.66838e-06
1.49105e-06
7.66824e-06
5.80368e-07
3.87251e-07
1.21748e-06
3.96188e-07
5.80473e-07
3.87251e-07
1.21703e-06
1.49103e-06
7.66779e-06
7.66792e-06
1.49074e-06
5.80469e-07
3.96172e-07
1.21694e-06
3.87247e-07
1.2174e-06
3.87247e-07
5.80368e-07
1.49105e-06
7.66824e-06
7.66839e-06
1.49076e-06
5.8047e-07
3.96186e-07
3.87249e-07
1.21703e-06
3.87249e-07
1.21748e-06
5.8037e-07
1.4909e-06
7.6673e-06
1.49124e-06
7.66715e-06
5.80369e-07
3.87249e-07
1.21718e-06
3.96182e-07
5.80472e-07
3.87249e-07
1.21675e-06
1.4909e-06
7.66798e-06
1.49124e-06
7.66786e-06
5.80466e-07
3.9617e-07
1.21678e-06
3.87246e-07
1.21723e-06
3.87248e-07
5.80366e-07
1.49123e-06
7.66715e-06
7.66729e-06
1.4909e-06
5.8047e-07
3.96179e-07
3.87247e-07
1.21675e-06
3.87247e-07
1.21718e-06
5.80371e-07
1.49124e-06
7.66786e-06
7.66798e-06
1.4909e-06
2.48873e-06
2.48778e-06
4.14372e-07
2.48834e-06
2.48748e-06
2.48362e-05
2.48358e-05
2.48367e-05
2.48374e-05
4.1453e-07
2.48834e-06
2.48748e-06
2.48873e-06
2.48778e-06
2.48358e-05
2.48362e-05
5.80364e-07
3.8725e-07
1.21729e-06
3.96175e-07
5.80467e-07
3.8725e-07
1.21686e-06