/*--------------------------------*- C++ -*----------------------------------*\
| =========                 |                                                 |
| \\      /  F ield         | OpenFOAM: The Open Source CFD Toolbox           |
|  \\    /   O peration     | Version:  2206                                  |
|   \\  /    A nd           | Website:  www.openfoam.com                      |
|    \\/     M anipulation  |                                                 |
\*---------------------------------------------------------------------------*/
FoamFile
{
    version     2.0;
    format      ascii;
    arch        "LSB;label=32;scalar=64";
    class       volVectorField;
    location    "13.5";
    object      U;
}
// * * * * * * * * * * * * * * * * * * * * * * * * * * * * * * * * * * * * * //

dimensions      [0 1 -1 0 0 0 0];

internalField   nonuniform List<vector> 
28448
(
(-4.77993e-07 -4.72749e-07 0.10164)
(-2.76754e-07 4.91844e-07 0.10163)
(4.75171e-07 -2.62362e-07 0.10163)
(-3.77462e-05 -3.77536e-05 0.101614)
(-4.95892e-07 -4.99976e-07 0.10164)
(-2.42081e-07 4.599e-07 0.10163)
(4.29967e-07 -2.08547e-07 0.10163)
(-3.77268e-05 -3.77423e-05 0.101614)
(-4.15114e-07 -4.35559e-07 0.10164)
(-4.3232e-07 5.43354e-07 0.10163)
(5.58342e-07 -4.27129e-07 0.10163)
(-3.79165e-05 -3.79423e-05 0.101613)
(-4.41666e-07 -4.31444e-07 0.10164)
(-3.24591e-07 5.12996e-07 0.10163)
(5.03615e-07 -3.11548e-07 0.10163)
(-3.78087e-05 -3.78058e-05 0.101614)
(-4.59409e-07 -4.5571e-07 0.10164)
(-3.09366e-07 5.01424e-07 0.10163)
(5.05215e-07 -2.91016e-07 0.10163)
(-3.77972e-05 -3.77896e-05 0.101614)
(-4.6042e-07 -4.60165e-07 0.10164)
(-3.10053e-07 4.98238e-07 0.10163)
(4.99991e-07 -3.00367e-07 0.10163)
(-3.77942e-05 -3.77955e-05 0.101614)
(-4.6063e-07 -4.62212e-07 0.10164)
(-3.10461e-07 4.96146e-07 0.10163)
(4.97121e-07 -3.0562e-07 0.10163)
(-3.77916e-05 -3.78005e-05 0.101614)
(-4.60133e-07 -4.62465e-07 0.10164)
(-3.11078e-07 4.96219e-07 0.10163)
(4.97539e-07 -3.06771e-07 0.10163)
(-3.77918e-05 -3.78018e-05 0.101614)
(-4.5995e-07 -4.6231e-07 0.10164)
(-3.11268e-07 4.9596e-07 0.10163)
(4.97285e-07 -3.06752e-07 0.10163)
(-3.77922e-05 -3.7802e-05 0.101614)
(-4.60651e-07 -4.62752e-07 0.10164)
(-3.11215e-07 4.96035e-07 0.10163)
(4.9702e-07 -3.06094e-07 0.10163)
(-3.7792e-05 -3.78015e-05 0.101614)
(-4.60813e-07 -4.62954e-07 0.10164)
(-3.10635e-07 4.95506e-07 0.10163)
(4.96856e-07 -3.05965e-07 0.10163)
(-3.77919e-05 -3.78014e-05 0.101614)
(-4.60893e-07 -4.63114e-07 0.10164)
(-3.09914e-07 4.95098e-07 0.10163)
(4.96874e-07 -3.05778e-07 0.10163)
(-3.77913e-05 -3.78008e-05 0.101614)
(-4.61196e-07 -4.63106e-07 0.10164)
(-3.10005e-07 4.95297e-07 0.10163)
(4.9615e-07 -3.05084e-07 0.10163)
(-3.77911e-05 -3.78008e-05 0.101614)
(-4.61119e-07 -4.632e-07 0.10164)
(-3.10116e-07 4.95248e-07 0.10163)
(4.96456e-07 -3.05555e-07 0.10163)
(-3.77915e-05 -3.78011e-05 0.101614)
(-4.60688e-07 -4.63249e-07 0.10164)
(-3.10197e-07 4.95366e-07 0.10163)
(4.96885e-07 -3.05978e-07 0.10163)
(-3.7792e-05 -3.78017e-05 0.101614)
(-4.59451e-07 -4.62813e-07 0.10164)
(-3.11036e-07 4.95738e-07 0.10163)
(4.98145e-07 -3.06833e-07 0.10163)
(-3.77898e-05 -3.78001e-05 0.101614)
(-4.5886e-07 -4.63788e-07 0.10164)
(-3.0873e-07 4.93337e-07 0.10163)
(4.97784e-07 -3.05575e-07 0.10163)
(-3.77847e-05 -3.77969e-05 0.101614)
(-4.60571e-07 -4.7709e-07 0.10164)
(4.96662e-07 -2.9508e-07 0.10163)
(-3.92032e-05 -3.91726e-05 0.101614)
(5.06266e-07 3.09119e-07 0.10163)
(-5.06203e-07 3.20061e-07 0.10163)
(3.92071e-05 -3.91763e-05 0.101614)
(2.95047e-07 5.0094e-07 0.10163)
(3.02264e-07 -4.96413e-07 0.10163)
(-2.9277e-07 4.97713e-07 0.10163)
(-3.06132e-07 -4.90092e-07 0.10163)
(-3.91797e-05 3.92166e-05 0.101614)
(4.89245e-07 -2.80971e-07 0.10163)
(-4.85131e-07 -2.9617e-07 0.10163)
(3.91833e-05 3.92099e-05 0.101614)
(3.77708e-05 3.77594e-05 0.101614)
(-3.92427e-05 -3.9222e-05 0.101614)
(5.0028e-07 3.02944e-07 0.10163)
(-5.0034e-07 3.10419e-07 0.10163)
(4.99093e-07 2.87087e-07 0.10163)
(-5.01413e-07 2.97772e-07 0.10163)
(-3.77668e-05 3.77463e-05 0.101614)
(3.92446e-05 -3.92245e-05 0.101614)
(2.85376e-07 4.9597e-07 0.10163)
(2.82105e-07 -4.82717e-07 0.10163)
(2.79592e-07 4.83715e-07 0.10163)
(2.69606e-07 -4.8676e-07 0.10163)
(-2.86992e-07 -4.76951e-07 0.10163)
(-2.76564e-07 4.79755e-07 0.10163)
(-2.74687e-07 -4.79307e-07 0.10163)
(3.7733e-05 -3.77629e-05 0.101614)
(-3.92132e-05 3.92406e-05 0.101614)
(-4.7147e-07 -2.76906e-07 0.10163)
(4.69517e-07 -2.54608e-07 0.10163)
(-4.67532e-07 -2.68813e-07 0.10163)
(3.92147e-05 3.92341e-05 0.101614)
(3.77431e-05 3.77194e-05 0.101614)
(-3.92201e-05 -3.92243e-05 0.101614)
(4.8397e-07 2.66388e-07 0.10163)
(-4.85242e-07 2.73245e-07 0.10163)
(5.26221e-07 3.00685e-07 0.10163)
(-5.37836e-07 3.05572e-07 0.10163)
(-3.77416e-05 3.77044e-05 0.101614)
(3.92034e-05 -3.92328e-05 0.101614)
(2.56248e-07 4.66936e-07 0.10163)
(2.20819e-07 -4.50373e-07 0.10163)
(3.27949e-07 4.80523e-07 0.10163)
(3.87171e-07 -6.09472e-07 0.10163)
(-2.24559e-07 -4.42011e-07 0.10163)
(-3.619e-07 4.74574e-07 0.10163)
(-4.09267e-07 -5.97232e-07 0.10163)
(3.77124e-05 -3.77529e-05 0.101614)
(-3.90936e-05 3.90979e-05 0.101614)
(-4.27687e-07 -2.21233e-07 0.10163)
(5.58499e-07 -4.06566e-07 0.10163)
(-5.60199e-07 -4.19726e-07 0.10163)
(3.90888e-05 3.90954e-05 0.101614)
(3.78542e-05 3.78117e-05 0.101613)
(-3.91791e-05 -3.91395e-05 0.101614)
(5.8043e-07 4.0043e-07 0.10163)
(-5.88836e-07 4.01384e-07 0.10163)
(5.27189e-07 3.74144e-07 0.10163)
(-5.2549e-07 3.85959e-07 0.10163)
(-3.78688e-05 3.77964e-05 0.101613)
(3.91872e-05 -3.91449e-05 0.101614)
(4.13565e-07 5.47521e-07 0.10163)
(4.17315e-07 -5.98644e-07 0.10163)
(3.52375e-07 5.29933e-07 0.10163)
(3.5535e-07 -5.0339e-07 0.10163)
(-4.3631e-07 -5.88116e-07 0.10163)
(-3.43575e-07 5.26864e-07 0.10163)
(-3.58008e-07 -4.98993e-07 0.10163)
(3.78965e-05 -3.79559e-05 0.101613)
(-3.91658e-05 3.92123e-05 0.101614)
(-5.58536e-07 -4.41749e-07 0.10163)
(5.06232e-07 -3.26397e-07 0.10163)
(-5.03201e-07 -3.42969e-07 0.10163)
(3.91697e-05 3.92049e-05 0.101614)
(3.78248e-05 3.7822e-05 0.101614)
(-3.92152e-05 -3.91841e-05 0.101615)
(5.15948e-07 3.56517e-07 0.10163)
(-5.14685e-07 3.64603e-07 0.10163)
(5.09104e-07 3.22511e-07 0.10163)
(-5.09672e-07 3.34775e-07 0.10163)
(-3.78175e-05 3.78068e-05 0.101614)
(3.92181e-05 -3.91872e-05 0.101615)
(3.32582e-07 5.19271e-07 0.10163)
(3.42662e-07 -4.99792e-07 0.10163)
(3.09348e-07 5.05084e-07 0.10163)
(3.26187e-07 -4.98459e-07 0.10163)
(-3.46448e-07 -4.94996e-07 0.10163)
(-3.08701e-07 5.02553e-07 0.10163)
(-3.30588e-07 -4.92142e-07 0.10163)
(3.77952e-05 -3.7814e-05 0.101614)
(-3.91808e-05 3.92332e-05 0.101615)
(-5.00543e-07 -3.2805e-07 0.10163)
(5.03572e-07 -2.87408e-07 0.10163)
(-4.99351e-07 -3.06676e-07 0.10163)
(3.91848e-05 3.92264e-05 0.101615)
(3.77983e-05 3.77867e-05 0.101614)
(-3.92165e-05 -3.91892e-05 0.101615)
(5.09052e-07 3.2491e-07 0.10163)
(-5.1038e-07 3.32639e-07 0.10163)
(5.08794e-07 3.16348e-07 0.10163)
(-5.09916e-07 3.28084e-07 0.10163)
(-3.77965e-05 3.77744e-05 0.101614)
(3.92188e-05 -3.91925e-05 0.101615)
(3.10236e-07 5.05171e-07 0.10163)
(3.24578e-07 -4.99624e-07 0.10163)
(3.06992e-07 5.00508e-07 0.10163)
(3.20117e-07 -5.03771e-07 0.10163)
(-3.31258e-07 -4.93269e-07 0.10163)
(-3.08034e-07 4.98215e-07 0.10163)
(-3.26355e-07 -4.95428e-07 0.10163)
(3.77832e-05 -3.77983e-05 0.101614)
(-3.91872e-05 3.92274e-05 0.101615)
(-5.00916e-07 -3.05665e-07 0.10163)
(5.01448e-07 -2.97089e-07 0.10163)
(-4.97823e-07 -3.12401e-07 0.10163)
(3.91889e-05 3.92235e-05 0.101615)
(3.77982e-05 3.77834e-05 0.101614)
(-3.92164e-05 -3.91906e-05 0.101615)
(5.09207e-07 3.21373e-07 0.10163)
(-5.11037e-07 3.28945e-07 0.10163)
(5.08932e-07 3.15191e-07 0.10163)
(-5.10507e-07 3.26774e-07 0.10163)
(-3.77967e-05 3.77711e-05 0.101614)
(3.9218e-05 -3.91936e-05 0.101615)
(3.09694e-07 5.01608e-07 0.10163)
(3.20575e-07 -5.05919e-07 0.10163)
(3.0769e-07 4.98533e-07 0.10163)
(3.18946e-07 -5.08281e-07 0.10163)
(-3.2842e-07 -4.98997e-07 0.10163)
(-3.09204e-07 4.96167e-07 0.10163)
(-3.25238e-07 -5.00734e-07 0.10163)
(3.77789e-05 -3.78061e-05 0.101614)
(-3.91898e-05 3.92228e-05 0.101615)
(-4.97771e-07 -3.14169e-07 0.10163)
(4.96338e-07 -3.01916e-07 0.10163)
(-4.93215e-07 -3.1991e-07 0.10163)
(3.91922e-05 3.92176e-05 0.101615)
(3.77985e-05 3.77825e-05 0.101614)
(-3.92159e-05 -3.91908e-05 0.101615)
(5.09279e-07 3.20473e-07 0.10163)
(-5.1108e-07 3.27525e-07 0.10163)
(5.09468e-07 3.15274e-07 0.10163)
(-5.10679e-07 3.26635e-07 0.10163)
(-3.77975e-05 3.77702e-05 0.101614)
(3.92178e-05 -3.91937e-05 0.101615)
(3.10172e-07 5.0004e-07 0.10163)
(3.19411e-07 -5.09515e-07 0.10163)
(3.08572e-07 4.98287e-07 0.10163)
(3.19243e-07 -5.09855e-07 0.10163)
(-3.27411e-07 -5.02828e-07 0.10163)
(-3.096e-07 4.95781e-07 0.10163)
(-3.25435e-07 -5.02607e-07 0.10163)
(3.77767e-05 -3.78101e-05 0.101614)
(-3.91895e-05 3.92211e-05 0.101615)
(-4.94807e-07 -3.17873e-07 0.10163)
(4.9655e-07 -3.04031e-07 0.10163)
(-4.9337e-07 -3.20465e-07 0.10163)
(3.9192e-05 3.92157e-05 0.101615)
(3.77992e-05 3.77825e-05 0.101614)
(-3.92155e-05 -3.91905e-05 0.101615)
(5.09868e-07 3.20787e-07 0.10163)
(-5.11511e-07 3.28018e-07 0.10163)
(5.09729e-07 3.15636e-07 0.10163)
(-5.10762e-07 3.26808e-07 0.10163)
(-3.77978e-05 3.77702e-05 0.101614)
(3.92175e-05 -3.91938e-05 0.101615)
(3.11231e-07 5.00046e-07 0.10163)
(3.20171e-07 -5.10873e-07 0.10163)
(3.0901e-07 4.9824e-07 0.10163)
(3.19549e-07 -5.1043e-07 0.10163)
(-3.27417e-07 -5.04129e-07 0.10163)
(-3.09806e-07 4.95594e-07 0.10163)
(-3.25474e-07 -5.02932e-07 0.10163)
(3.7777e-05 -3.78116e-05 0.101614)
(-3.91891e-05 3.92206e-05 0.101615)
(-4.94648e-07 -3.20815e-07 0.10163)
(4.96763e-07 -3.0451e-07 0.10163)
(-4.93534e-07 -3.19585e-07 0.10163)
(3.91916e-05 3.92154e-05 0.101615)
(3.77995e-05 3.77827e-05 0.101614)
(-3.92159e-05 -3.91908e-05 0.101615)
(5.10165e-07 3.21206e-07 0.10163)
(-5.11557e-07 3.27945e-07 0.10163)
(5.09481e-07 3.15351e-07 0.10163)
(-5.10889e-07 3.26703e-07 0.10163)
(-3.7798e-05 3.77701e-05 0.101614)
(3.92176e-05 -3.91937e-05 0.101615)
(3.11605e-07 5.00187e-07 0.10163)
(3.19938e-07 -5.11001e-07 0.10163)
(3.08551e-07 4.98198e-07 0.10163)
(3.18901e-07 -5.09837e-07 0.10163)
(-3.2726e-07 -5.04083e-07 0.10163)
(-3.09732e-07 4.95698e-07 0.10163)
(-3.25233e-07 -5.02588e-07 0.10163)
(3.77772e-05 -3.78119e-05 0.101614)
(-3.91897e-05 3.92213e-05 0.101615)
(-4.94628e-07 -3.21438e-07 0.10163)
(4.96333e-07 -3.03755e-07 0.10163)
(-4.93709e-07 -3.19306e-07 0.10163)
(3.91917e-05 3.92159e-05 0.101615)
(3.77989e-05 3.77821e-05 0.101614)
(-3.92163e-05 -3.91912e-05 0.101615)
(5.0955e-07 3.20451e-07 0.10163)
(-5.11551e-07 3.27664e-07 0.10163)
(5.08986e-07 3.14878e-07 0.10163)
(-5.10423e-07 3.26126e-07 0.10163)
(-3.77978e-05 3.77701e-05 0.101614)
(3.9218e-05 -3.91942e-05 0.101615)
(3.1089e-07 4.99706e-07 0.10163)
(3.19393e-07 -5.10462e-07 0.10163)
(3.08131e-07 4.97649e-07 0.10163)
(3.18587e-07 -5.09661e-07 0.10163)
(-3.27136e-07 -5.03808e-07 0.10163)
(-3.09419e-07 4.9519e-07 0.10163)
(-3.25019e-07 -5.024e-07 0.10163)
(3.77766e-05 -3.78111e-05 0.101614)
(-3.91897e-05 3.92215e-05 0.101615)
(-4.94773e-07 -3.21192e-07 0.10163)
(4.96178e-07 -3.03672e-07 0.10163)
(-4.9357e-07 -3.19183e-07 0.10163)
(3.91917e-05 3.92159e-05 0.101615)
(3.77986e-05 3.77819e-05 0.101614)
(-3.92166e-05 -3.91915e-05 0.101615)
(5.09307e-07 3.203e-07 0.10163)
(-5.11067e-07 3.2729e-07 0.10163)
(5.08996e-07 3.14635e-07 0.10163)
(-5.09972e-07 3.25686e-07 0.10163)
(-3.77975e-05 3.77696e-05 0.101614)
(3.92186e-05 -3.91949e-05 0.101615)
(3.10602e-07 4.99423e-07 0.10163)
(3.19201e-07 -5.10331e-07 0.10163)
(3.07958e-07 4.97636e-07 0.10163)
(3.1848e-07 -5.09655e-07 0.10163)
(-3.26759e-07 -5.03594e-07 0.10163)
(-3.08594e-07 4.94733e-07 0.10163)
(-3.24062e-07 -5.01858e-07 0.10163)
(3.77767e-05 -3.7811e-05 0.101614)
(-3.91901e-05 3.92216e-05 0.101615)
(-4.94572e-07 -3.21073e-07 0.10163)
(4.96158e-07 -3.03479e-07 0.10163)
(-4.93024e-07 -3.18657e-07 0.10163)
(3.91925e-05 3.92166e-05 0.101615)
(3.77984e-05 3.77816e-05 0.101614)
(-3.92167e-05 -3.91918e-05 0.101615)
(5.09363e-07 3.19946e-07 0.10163)
(-5.10661e-07 3.26639e-07 0.10163)
(5.08714e-07 3.14197e-07 0.10163)
(-5.10083e-07 3.25492e-07 0.10163)
(-3.77969e-05 3.77689e-05 0.101614)
(3.92185e-05 -3.91947e-05 0.101615)
(3.10338e-07 4.99395e-07 0.10163)
(3.18801e-07 -5.10208e-07 0.10163)
(3.07472e-07 4.97246e-07 0.10163)
(3.17715e-07 -5.08979e-07 0.10163)
(-3.25956e-07 -5.03163e-07 0.10163)
(-3.08524e-07 4.94893e-07 0.10163)
(-3.23812e-07 -5.01694e-07 0.10163)
(3.77764e-05 -3.7811e-05 0.101614)
(-3.91906e-05 3.92222e-05 0.101615)
(-4.94231e-07 -3.20656e-07 0.10163)
(4.95465e-07 -3.02683e-07 0.10163)
(-4.92785e-07 -3.18271e-07 0.10163)
(3.91928e-05 3.92167e-05 0.101615)
(3.77982e-05 3.77813e-05 0.101614)
(-3.92168e-05 -3.91917e-05 0.101615)
(5.0919e-07 3.19813e-07 0.10163)
(-5.10881e-07 3.2674e-07 0.10163)
(5.08589e-07 3.14403e-07 0.10163)
(-5.10104e-07 3.2573e-07 0.10163)
(-3.77971e-05 3.77692e-05 0.101614)
(3.92184e-05 -3.91945e-05 0.101615)
(3.10059e-07 4.99142e-07 0.10163)
(3.18281e-07 -5.09653e-07 0.10163)
(3.07624e-07 4.97258e-07 0.10163)
(3.18056e-07 -5.09196e-07 0.10163)
(-3.26076e-07 -5.03281e-07 0.10163)
(-3.08864e-07 4.94934e-07 0.10163)
(-3.24587e-07 -5.021e-07 0.10163)
(3.77758e-05 -3.78103e-05 0.101614)
(-3.91903e-05 3.9222e-05 0.101615)
(-4.94199e-07 -3.20407e-07 0.10163)
(4.95556e-07 -3.02948e-07 0.10163)
(-4.93225e-07 -3.1862e-07 0.10163)
(3.91923e-05 3.92163e-05 0.101615)
(3.77981e-05 3.77813e-05 0.101614)
(-3.92165e-05 -3.91916e-05 0.101615)
(5.09099e-07 3.1987e-07 0.10163)
(-5.10701e-07 3.26733e-07 0.10163)
(5.08937e-07 3.14492e-07 0.10163)
(-5.10017e-07 3.25789e-07 0.10163)
(-3.77972e-05 3.77695e-05 0.101614)
(3.92186e-05 -3.91946e-05 0.101615)
(3.10286e-07 4.9923e-07 0.10163)
(3.18655e-07 -5.09983e-07 0.10163)
(3.0812e-07 4.97557e-07 0.10163)
(3.18559e-07 -5.09642e-07 0.10163)
(-3.26261e-07 -5.03288e-07 0.10163)
(-3.08924e-07 4.94896e-07 0.10163)
(-3.2434e-07 -5.0221e-07 0.10163)
(3.77762e-05 -3.78106e-05 0.101614)
(-3.91898e-05 3.92214e-05 0.101615)
(-4.94294e-07 -3.20639e-07 0.10163)
(4.96103e-07 -3.03478e-07 0.10163)
(-4.93182e-07 -3.18935e-07 0.10163)
(3.91923e-05 3.92162e-05 0.101615)
(3.77988e-05 3.77819e-05 0.101614)
(-3.92136e-05 -3.9189e-05 0.101615)
(5.093e-07 3.19842e-07 0.10163)
(-5.10772e-07 3.26901e-07 0.10163)
(5.10351e-07 3.15771e-07 0.10163)
(-5.10469e-07 3.26884e-07 0.10163)
(-3.77976e-05 3.77699e-05 0.101614)
(3.92167e-05 -3.91928e-05 0.101615)
(3.10631e-07 4.99356e-07 0.10163)
(3.19391e-07 -5.10405e-07 0.10163)
(3.0923e-07 4.98299e-07 0.10163)
(3.19268e-07 -5.10135e-07 0.10163)
(-3.26587e-07 -5.03729e-07 0.10163)
(-3.09393e-07 4.95423e-07 0.10163)
(-3.24981e-07 -5.02954e-07 0.10163)
(3.77769e-05 -3.78113e-05 0.101614)
(-3.91882e-05 3.92201e-05 0.101615)
(-4.94459e-07 -3.2139e-07 0.10163)
(4.96687e-07 -3.0406e-07 0.10163)
(-4.93297e-07 -3.19817e-07 0.10163)
(3.91904e-05 3.92139e-05 0.101615)
(3.7798e-05 3.77806e-05 0.101614)
(-3.9209e-05 -3.91869e-05 0.101615)
(5.10908e-07 3.20802e-07 0.10163)
(-5.11035e-07 3.27914e-07 0.10163)
(5.10164e-07 3.12408e-07 0.10163)
(-5.10136e-07 3.26449e-07 0.10163)
(-3.77978e-05 3.77701e-05 0.101614)
(3.92147e-05 -3.91906e-05 0.101615)
(3.11934e-07 4.99668e-07 0.10163)
(3.20532e-07 -5.11305e-07 0.10163)
(3.10624e-07 4.9691e-07 0.10163)
(3.21568e-07 -5.11448e-07 0.10163)
(-3.26788e-07 -5.04474e-07 0.10163)
(-3.09442e-07 4.9537e-07 0.10163)
(-3.22555e-07 -5.02537e-07 0.10163)
(3.77757e-05 -3.781e-05 0.101614)
(-3.91851e-05 3.9218e-05 0.101615)
(-4.94461e-07 -3.22099e-07 0.10163)
(4.98334e-07 -3.03622e-07 0.10163)
(-4.91154e-07 -3.18764e-07 0.10163)
(3.91865e-05 3.92084e-05 0.101615)
(3.77944e-05 3.77756e-05 0.101614)
(-3.92029e-05 -3.91862e-05 0.101614)
(5.12256e-07 3.20095e-07 0.10163)
(-5.08454e-07 3.26007e-07 0.10163)
(5.09867e-07 3.0063e-07 0.10163)
(-3.77922e-05 3.77648e-05 0.101614)
(3.11964e-07 4.97972e-07 0.10163)
(3.18821e-07 -5.0978e-07 0.10163)
(3.05096e-07 4.88918e-07 0.10163)
(3.14615e-07 -5.06498e-07 0.10163)
(-3.2638e-07 -5.05814e-07 0.10163)
(-3.10438e-07 -5.00109e-07 0.10163)
(3.77724e-05 -3.78061e-05 0.101614)
(-3.91784e-05 3.92152e-05 0.101614)
(-4.93321e-07 -3.23634e-07 0.10163)
(4.97288e-07 -2.94398e-07 0.10163)
(-4.84338e-07 -3.10489e-07 0.10163)
(3.91841e-05 3.92019e-05 0.101614)
(3.77792e-05 3.77511e-05 0.101614)
(3.03278e-07 4.88879e-07 0.10163)
(3.10631e-07 -5.04548e-07 0.10163)
(3.77587e-05 -3.7787e-05 0.101614)
(-4.72592e-07 -4.661e-07 0.10164)
(4.76639e-07 -4.60863e-07 0.10164)
(-4.68934e-07 4.8339e-07 0.10164)
(4.8267e-07 4.72101e-07 0.10164)
(7.7735e-09 -7.28231e-06 0.10077)
(6.86549e-07 5.55327e-06 0.0966559)
(-3.74316e-09 7.05755e-06 0.100767)
(-9.42481e-07 -5.83028e-06 0.0966612)
(-1.39401e-06 1.73835e-06 0.0874961)
(1.47096e-06 -2.06673e-06 0.0875023)
(-7.33075e-06 1.9631e-11 0.100769)
(5.52057e-06 6.71717e-07 0.0966555)
(7.09165e-06 3.72779e-08 0.100767)
(-5.80504e-06 -9.15806e-07 0.096661)
(4.8301e-07 -4.66709e-07 0.10164)
(-4.77858e-07 4.91386e-07 0.10164)
(4.91752e-07 4.80041e-07 0.10164)
(-4.9623e-07 -4.9772e-07 0.10164)
(4.97367e-07 -4.92974e-07 0.10164)
(-4.90719e-07 4.96337e-07 0.10164)
(5.01551e-07 4.86235e-07 0.10164)
(1.2116e-05 -1.45781e-08 0.10148)
(-1.10872e-05 3.28928e-06 0.100931)
(-3.36223e-07 -1.42538e-07 0.101638)
(-2.59483e-07 4.77352e-07 0.10163)
(-1.19848e-05 2.0234e-08 0.101479)
(1.08422e-05 -3.59138e-06 0.100935)
(-3.19372e-07 -1.474e-07 0.101638)
(1.63799e-06 -1.31864e-06 0.0874946)
(-1.94949e-06 1.39256e-06 0.0875027)
(-1.91424e-08 1.21127e-05 0.10148)
(-1.5327e-07 -3.24583e-07 0.101638)
(3.2617e-06 -1.10991e-05 0.100931)
(4.69541e-07 -2.56605e-07 0.10163)
(-6.32909e-11 -1.19718e-05 0.101479)
(-1.57714e-07 -3.19627e-07 0.101638)
(-3.62077e-06 1.08776e-05 0.100935)
(-3.62979e-06 -4.27253e-06 0.0998466)
(-4.26769e-06 -3.62076e-06 0.0998463)
(3.92046e-05 3.923e-05 0.101614)
(3.40766e-06 4.19745e-06 0.0998511)
(4.18912e-06 3.40361e-06 0.0998507)
(-8.06727e-09 -7.3285e-06 0.100769)
(7.67801e-07 5.45003e-06 0.0966567)
(-3.29338e-08 6.95911e-06 0.100766)
(-9.00155e-07 -5.79047e-06 0.0966622)
(-1.30823e-06 1.57081e-06 0.0874983)
(1.43625e-06 -2.02013e-06 0.0875048)
(-7.38485e-06 1.42405e-08 0.100769)
(5.41649e-06 7.3862e-07 0.0966563)
(7.00461e-06 -4.35602e-08 0.100766)
(-5.75525e-06 -8.92266e-07 0.096662)
(4.98982e-07 -4.93657e-07 0.10164)
(-4.94393e-07 4.97531e-07 0.10164)
(5.05873e-07 4.87051e-07 0.10164)
(-4.7074e-07 -5.04659e-07 0.10164)
(4.59517e-07 -5.03571e-07 0.10164)
(-4.23184e-07 3.94385e-07 0.10164)
(4.29097e-07 3.87378e-07 0.10164)
(1.21888e-05 -3.976e-08 0.10148)
(-1.09905e-05 3.1317e-06 0.10093)
(-2.88192e-07 -1.67944e-07 0.101638)
(-2.08612e-07 4.23457e-07 0.10163)
(-1.19408e-05 -1.32173e-08 0.101479)
(1.08911e-05 -3.61078e-06 0.100935)
(-2.6013e-07 -1.78742e-07 0.101638)
(1.61726e-06 -1.37879e-06 0.0874972)
(-2.15247e-06 1.58846e-06 0.0875054)
(-3.38037e-08 1.21845e-05 0.10148)
(-1.65624e-07 -2.72486e-07 0.101638)
(3.19859e-06 -1.10497e-05 0.10093)
(4.36762e-07 -2.17687e-07 0.10163)
(-1.08324e-08 -1.19359e-05 0.101479)
(-1.75915e-07 -2.77457e-07 0.101638)
(-3.7307e-06 1.09989e-05 0.100934)
(-3.62719e-06 -4.26706e-06 0.0998464)
(-4.25243e-06 -3.62404e-06 0.099846)
(3.92949e-05 3.93068e-05 0.101614)
(3.54533e-06 4.31247e-06 0.099851)
(4.31813e-06 3.53433e-06 0.0998507)
(4.31061e-08 -7.00039e-06 0.100769)
(7.66349e-07 5.49481e-06 0.0966577)
(-3.55686e-09 7.00282e-06 0.100766)
(-9.49382e-07 -4.8615e-06 0.0966626)
(-1.48894e-06 1.71775e-06 0.0875026)
(9.21267e-07 -1.09992e-06 0.0875058)
(-7.0459e-06 2.68017e-08 0.100769)
(5.50481e-06 6.83461e-07 0.0966573)
(7.13105e-06 -3.00644e-07 0.100766)
(-4.81719e-06 -9.21112e-07 0.0966625)
(4.1474e-07 -4.34094e-07 0.10164)
(-3.87745e-07 3.70883e-07 0.10164)
(3.96647e-07 3.63253e-07 0.10164)
(-4.23569e-07 -4.11737e-07 0.10164)
(4.28483e-07 -4.06913e-07 0.10164)
(-4.34499e-07 4.54246e-07 0.10164)
(4.4902e-07 4.43324e-07 0.10164)
(1.15976e-05 2.19392e-08 0.10148)
(-1.12246e-05 3.18067e-06 0.10093)
(-5.27591e-07 -1.65986e-07 0.101638)
(-4.25022e-07 5.66885e-07 0.10163)
(-1.23541e-05 -5.63417e-08 0.101479)
(1.03844e-05 -3.08628e-06 0.100934)
(-5.33148e-07 -1.15694e-07 0.101638)
(2.3694e-06 -1.84791e-06 0.0874994)
(-1.21549e-06 1.0822e-06 0.0875031)
(1.52588e-08 1.16009e-05 0.10148)
(-1.15782e-07 -5.36373e-07 0.101638)
(3.5734e-06 -1.14679e-05 0.10093)
(5.34733e-07 -3.91484e-07 0.10163)
(2.56322e-08 -1.23885e-05 0.101479)
(-1.16815e-07 -5.25315e-07 0.101638)
(-3.16532e-06 1.04792e-05 0.100934)
(-3.62494e-06 -4.4838e-06 0.0998459)
(-4.46188e-06 -3.62985e-06 0.0998456)
(3.91126e-05 3.91327e-05 0.101614)
(3.56438e-06 4.11015e-06 0.0998509)
(4.10762e-06 3.55495e-06 0.0998505)
(7.01974e-09 -7.19087e-06 0.10077)
(7.49457e-07 5.96789e-06 0.096656)
(-1.77343e-08 7.19273e-06 0.100767)
(-9.38606e-07 -5.56698e-06 0.0966608)
(-1.46518e-06 2.02565e-06 0.0874962)
(1.39234e-06 -1.84595e-06 0.0875014)
(-7.24843e-06 2.46323e-08 0.100769)
(5.921e-06 7.52363e-07 0.0966557)
(7.20849e-06 7.88822e-08 0.100767)
(-5.54436e-06 -9.06228e-07 0.0966606)
(4.46347e-07 -4.26055e-07 0.10164)
(-4.44293e-07 4.66344e-07 0.10164)
(4.59025e-07 4.54664e-07 0.10164)
(-4.58773e-07 -4.53058e-07 0.10164)
(4.63701e-07 -4.47774e-07 0.10164)
(-4.51591e-07 4.77151e-07 0.10164)
(4.65401e-07 4.64248e-07 0.10164)
(1.19768e-05 1.60627e-09 0.10148)
(-1.12425e-05 3.44021e-06 0.100931)
(-4.23676e-07 -1.1865e-07 0.101638)
(-3.14651e-07 5.0704e-07 0.10163)
(-1.2173e-05 4.46918e-08 0.101479)
(1.07242e-05 -3.47665e-06 0.100935)
(-4.0372e-07 -1.28205e-07 0.101638)
(1.83353e-06 -1.36925e-06 0.0874939)
(-1.78293e-06 1.35559e-06 0.0875012)
(-1.30003e-08 1.19982e-05 0.10148)
(-1.38364e-07 -4.0489e-07 0.101638)
(3.38152e-06 -1.12324e-05 0.100931)
(5.02829e-07 -3.00388e-07 0.10163)
(7.16073e-09 -1.21491e-05 0.101479)
(-1.40854e-07 -3.89252e-07 0.101638)
(-3.51197e-06 1.07836e-05 0.100935)
(-3.60392e-06 -4.28124e-06 0.0998466)
(-4.28771e-06 -3.58742e-06 0.0998463)
(3.91806e-05 3.92191e-05 0.101615)
(3.44001e-06 4.18915e-06 0.0998512)
(4.16514e-06 3.44753e-06 0.0998508)
(6.32425e-09 -7.22674e-06 0.10077)
(7.49953e-07 5.72811e-06 0.0966557)
(-1.80579e-08 7.07825e-06 0.100767)
(-9.28896e-07 -5.60307e-06 0.0966607)
(-1.45048e-06 1.86448e-06 0.0874958)
(1.37527e-06 -1.8715e-06 0.0875013)
(-7.27144e-06 3.64043e-09 0.100769)
(5.69672e-06 7.30604e-07 0.0966553)
(7.12056e-06 -2.96635e-09 0.100767)
(-5.57371e-06 -9.04107e-07 0.0966605)
(4.64616e-07 -4.50011e-07 0.10164)
(-4.53076e-07 4.7745e-07 0.10164)
(4.66823e-07 4.65138e-07 0.10164)
(-4.60553e-07 -4.58565e-07 0.10164)
(4.64986e-07 -4.53272e-07 0.10164)
(-4.55505e-07 4.71221e-07 0.10164)
(4.68339e-07 4.6109e-07 0.10164)
(1.19934e-05 -8.80624e-09 0.10148)
(-1.11493e-05 3.31514e-06 0.100931)
(-3.88926e-07 -1.38689e-07 0.101638)
(-3.08403e-07 5.00092e-07 0.10163)
(-1.21016e-05 1.45491e-08 0.101479)
(1.07431e-05 -3.49437e-06 0.100935)
(-3.86069e-07 -1.40454e-07 0.101638)
(1.78718e-06 -1.39728e-06 0.0874939)
(-1.78651e-06 1.33927e-06 0.0875012)
(6.1816e-09 1.20095e-05 0.10148)
(-1.4127e-07 -3.64798e-07 0.101638)
(3.35595e-06 -1.11646e-05 0.100931)
(5.05162e-07 -2.91515e-07 0.10163)
(-3.30319e-09 -1.20518e-05 0.101479)
(-1.40611e-07 -3.70061e-07 0.101638)
(-3.51114e-06 1.07935e-05 0.100935)
(-3.59721e-06 -4.28599e-06 0.0998466)
(-4.30016e-06 -3.57264e-06 0.0998463)
(3.9183e-05 3.9225e-05 0.101615)
(3.44586e-06 4.18597e-06 0.0998512)
(4.15571e-06 3.46114e-06 0.0998508)
(7.21563e-09 -7.22814e-06 0.10077)
(7.50786e-07 5.72899e-06 0.0966557)
(-1.73835e-08 7.07465e-06 0.100767)
(-9.28516e-07 -5.60239e-06 0.0966607)
(-1.45316e-06 1.86273e-06 0.0874958)
(1.37464e-06 -1.87257e-06 0.0875013)
(-7.27257e-06 7.97955e-10 0.100769)
(5.69866e-06 7.29744e-07 0.0966553)
(7.1184e-06 -6.22275e-09 0.100767)
(-5.57216e-06 -9.05578e-07 0.0966605)
(4.64518e-07 -4.54313e-07 0.10164)
(-4.55891e-07 4.69304e-07 0.10164)
(4.68936e-07 4.58604e-07 0.10164)
(-4.60915e-07 -4.61312e-07 0.10164)
(4.64002e-07 -4.5607e-07 0.10164)
(-4.56497e-07 4.65144e-07 0.10164)
(4.68712e-07 4.53383e-07 0.10164)
(1.19951e-05 -1.19489e-08 0.10148)
(-1.1149e-05 3.31299e-06 0.100931)
(-3.87765e-07 -1.43454e-07 0.101638)
(-3.09669e-07 4.9766e-07 0.10163)
(-1.20999e-05 1.05866e-08 0.101479)
(1.07432e-05 -3.49687e-06 0.100935)
(-3.86052e-07 -1.44553e-07 0.101638)
(1.78418e-06 -1.40284e-06 0.0874939)
(-1.78876e-06 1.33507e-06 0.0875012)
(-1.14041e-08 1.19902e-05 0.10148)
(-1.41937e-07 -3.78846e-07 0.101638)
(3.34243e-06 -1.1176e-05 0.100931)
(4.98759e-07 -3.04008e-07 0.10163)
(4.36483e-09 -1.20875e-05 0.101479)
(-1.43986e-07 -3.85951e-07 0.101638)
(-3.52452e-06 1.07821e-05 0.100935)
(-3.59276e-06 -4.29037e-06 0.0998466)
(-4.28945e-06 -3.58312e-06 0.0998463)
(3.91892e-05 3.92164e-05 0.101614)
(3.45061e-06 4.18102e-06 0.0998512)
(4.17391e-06 3.44285e-06 0.0998508)
(7.26729e-09 -7.22845e-06 0.10077)
(7.51138e-07 5.72893e-06 0.0966557)
(-1.72372e-08 7.07492e-06 0.100767)
(-9.28064e-07 -5.60309e-06 0.0966607)
(-1.45266e-06 1.86321e-06 0.0874958)
(1.37484e-06 -1.87247e-06 0.0875013)
(-7.27281e-06 -4.12089e-10 0.100769)
(5.69932e-06 7.28633e-07 0.0966553)
(7.11853e-06 -8.24197e-09 0.100767)
(-5.57248e-06 -9.06264e-07 0.0966605)
(4.63899e-07 -4.5651e-07 0.10164)
(-4.56705e-07 4.64662e-07 0.10164)
(4.6933e-07 4.52974e-07 0.10164)
(-4.60625e-07 -4.61965e-07 0.10164)
(4.63902e-07 -4.56647e-07 0.10164)
(-4.56086e-07 4.63332e-07 0.10164)
(4.68931e-07 4.5171e-07 0.10164)
(1.19949e-05 -1.30794e-08 0.10148)
(-1.11502e-05 3.31201e-06 0.100931)
(-3.87639e-07 -1.45975e-07 0.101638)
(-3.09796e-07 4.95979e-07 0.10163)
(-1.21009e-05 8.77469e-09 0.101479)
(1.07431e-05 -3.49769e-06 0.100935)
(-3.85822e-07 -1.46583e-07 0.101638)
(1.78356e-06 -1.40446e-06 0.0874939)
(-1.78934e-06 1.33378e-06 0.0875012)
(-1.14347e-08 1.19919e-05 0.10148)
(-1.4521e-07 -3.82451e-07 0.101638)
(3.33399e-06 -1.11853e-05 0.100931)
(4.97043e-07 -3.03904e-07 0.10163)
(3.04181e-09 -1.20951e-05 0.101479)
(-1.45408e-07 -3.84442e-07 0.101638)
(-3.52484e-06 1.07841e-05 0.100935)
(-3.5921e-06 -4.29324e-06 0.0998466)
(-4.2841e-06 -3.58887e-06 0.0998463)
(3.91898e-05 3.92143e-05 0.101615)
(3.45154e-06 4.17996e-06 0.0998512)
(4.17288e-06 3.44603e-06 0.0998508)
(7.09834e-09 -7.22775e-06 0.10077)
(7.51733e-07 5.7293e-06 0.0966557)
(-1.71742e-08 7.07468e-06 0.100767)
(-9.27912e-07 -5.6028e-06 0.0966607)
(-1.45375e-06 1.86257e-06 0.0874958)
(1.3737e-06 -1.87314e-06 0.0875013)
(-7.27187e-06 -5.9823e-10 0.100769)
(5.69929e-06 7.28702e-07 0.0966553)
(7.11862e-06 -8.44699e-09 0.100767)
(-5.57207e-06 -9.05885e-07 0.0966605)
(4.63701e-07 -4.56689e-07 0.10164)
(-4.56203e-07 4.63195e-07 0.10164)
(4.69642e-07 4.51465e-07 0.10164)
(-4.60264e-07 -4.61825e-07 0.10164)
(4.63864e-07 -4.56579e-07 0.10164)
(-4.55861e-07 4.63062e-07 0.10164)
(4.6903e-07 4.5162e-07 0.10164)
(1.19946e-05 -1.3732e-08 0.10148)
(-1.11499e-05 3.31165e-06 0.100931)
(-3.88062e-07 -1.4657e-07 0.101638)
(-3.10369e-07 4.96151e-07 0.10163)
(-1.21006e-05 8.23254e-09 0.101479)
(1.07426e-05 -3.49818e-06 0.100935)
(-3.86196e-07 -1.46855e-07 0.101638)
(1.78358e-06 -1.40497e-06 0.0874939)
(-1.78925e-06 1.33341e-06 0.0875012)
(-1.34659e-08 1.19858e-05 0.10148)
(-1.45471e-07 -3.84192e-07 0.101638)
(3.33441e-06 -1.11854e-05 0.100931)
(4.97602e-07 -3.05332e-07 0.10163)
(3.1626e-09 -1.20915e-05 0.101479)
(-1.45504e-07 -3.86326e-07 0.101638)
(-3.52499e-06 1.07821e-05 0.100935)
(-3.59105e-06 -4.29322e-06 0.0998466)
(-4.28552e-06 -3.58602e-06 0.0998463)
(3.91896e-05 3.92134e-05 0.101614)
(3.45184e-06 4.17938e-06 0.0998512)
(4.17289e-06 3.44578e-06 0.0998508)
(7.11088e-09 -7.22783e-06 0.10077)
(7.5082e-07 5.72864e-06 0.0966557)
(-1.74302e-08 7.07424e-06 0.100767)
(-9.2835e-07 -5.60282e-06 0.0966607)
(-1.45295e-06 1.86337e-06 0.0874958)
(1.37459e-06 -1.87246e-06 0.0875013)
(-7.27252e-06 -1.06179e-09 0.100769)
(5.69942e-06 7.28619e-07 0.0966553)
(7.11847e-06 -9.14922e-09 0.100767)
(-5.57167e-06 -9.06751e-07 0.0966605)
(4.63694e-07 -4.56688e-07 0.10164)
(-4.56241e-07 4.63254e-07 0.10164)
(4.69705e-07 4.51646e-07 0.10164)
(-4.60723e-07 -4.61931e-07 0.10164)
(4.63721e-07 -4.56634e-07 0.10164)
(-4.56363e-07 4.63554e-07 0.10164)
(4.68975e-07 4.52161e-07 0.10164)
(1.19941e-05 -1.39148e-08 0.10148)
(-1.11506e-05 3.31107e-06 0.100931)
(-3.88048e-07 -1.46664e-07 0.101638)
(-3.10643e-07 4.96133e-07 0.10163)
(-1.21008e-05 7.64743e-09 0.101479)
(1.07422e-05 -3.49834e-06 0.100935)
(-3.86281e-07 -1.46813e-07 0.101638)
(1.78324e-06 -1.40572e-06 0.0874939)
(-1.7893e-06 1.33343e-06 0.0875012)
(-1.32125e-08 1.19835e-05 0.10148)
(-1.45408e-07 -3.8426e-07 0.101638)
(3.33528e-06 -1.11859e-05 0.100931)
(4.97107e-07 -3.04974e-07 0.10163)
(4.92096e-09 -1.209e-05 0.101479)
(-1.45484e-07 -3.86071e-07 0.101638)
(-3.52444e-06 1.07817e-05 0.100935)
(-3.59157e-06 -4.29464e-06 0.0998466)
(-4.28637e-06 -3.58561e-06 0.0998463)
(3.91893e-05 3.92135e-05 0.101614)
(3.45091e-06 4.17904e-06 0.0998512)
(4.17333e-06 3.44558e-06 0.0998508)
(7.23131e-09 -7.22827e-06 0.10077)
(7.51165e-07 5.72876e-06 0.0966557)
(-1.7268e-08 7.07389e-06 0.100767)
(-9.28169e-07 -5.60296e-06 0.0966607)
(-1.45315e-06 1.86277e-06 0.0874958)
(1.37413e-06 -1.87263e-06 0.0875013)
(-7.27248e-06 -7.67821e-10 0.100769)
(5.69936e-06 7.28309e-07 0.0966553)
(7.11806e-06 -8.878e-09 0.100767)
(-5.57199e-06 -9.0599e-07 0.0966605)
(4.63525e-07 -4.56958e-07 0.10164)
(-4.56793e-07 4.63602e-07 0.10164)
(4.69625e-07 4.5203e-07 0.10164)
(-4.61106e-07 -4.6234e-07 0.10164)
(4.63838e-07 -4.56987e-07 0.10164)
(-4.56543e-07 4.63398e-07 0.10164)
(4.68995e-07 4.52024e-07 0.10164)
(1.1995e-05 -1.35042e-08 0.10148)
(-1.11497e-05 3.31137e-06 0.100931)
(-3.88182e-07 -1.46617e-07 0.101638)
(-3.10586e-07 4.96107e-07 0.10163)
(-1.21e-05 7.97458e-09 0.101479)
(1.07428e-05 -3.49788e-06 0.100935)
(-3.86312e-07 -1.46905e-07 0.101638)
(1.78339e-06 -1.40491e-06 0.0874939)
(-1.7892e-06 1.33365e-06 0.0875012)
(-1.33118e-08 1.19847e-05 0.10148)
(-1.45446e-07 -3.83683e-07 0.101638)
(3.33524e-06 -1.11853e-05 0.100931)
(4.97128e-07 -3.04622e-07 0.10163)
(6.71118e-09 -1.20871e-05 0.101479)
(-1.45541e-07 -3.85751e-07 0.101638)
(-3.52454e-06 1.07824e-05 0.100935)
(-3.59096e-06 -4.29373e-06 0.0998466)
(-4.28518e-06 -3.585e-06 0.0998463)