/*--------------------------------*- C++ -*----------------------------------*\
| =========                 |                                                 |
| \\      /  F ield         | OpenFOAM: The Open Source CFD Toolbox           |
|  \\    /   O peration     | Version:  2206                                  |
|   \\  /    A nd           | Website:  www.openfoam.com                      |
|    \\/     M anipulation  |                                                 |
\*---------------------------------------------------------------------------*/
FoamFile
{
    version     2.0;
    format      ascii;
    arch        "LSB;label=32;scalar=64";
    class       volScalarField;
    location    "4";
    object      epsilon;
}
// * * * * * * * * * * * * * * * * * * * * * * * * * * * * * * * * * * * * * //

dimensions      [0 2 -3 0 0 0 0];

internalField   nonuniform List<scalar> 
28755
(
4.84531e-07
4.89921e-07
4.89923e-07
5.24119e-07
4.84532e-07
4.89919e-07
4.89922e-07
5.24107e-07
4.84531e-07
4.89912e-07
4.8992e-07
5.24082e-07
4.84531e-07
4.89913e-07
4.89919e-07
5.2409e-07
4.84531e-07
4.89918e-07
4.8992e-07
5.24102e-07
4.84531e-07
4.89918e-07
4.8992e-07
5.2412e-07
4.84531e-07
4.89913e-07
4.89922e-07
5.24096e-07
4.84531e-07
4.89915e-07
4.89918e-07
5.24092e-07
4.84531e-07
4.89919e-07
4.89922e-07
5.24109e-07
4.84535e-07
4.89923e-07
4.89932e-07
5.24133e-07
4.85751e-07
4.90751e-07
4.90754e-07
5.26143e-07
7.68803e-07
7.67613e-07
7.67652e-07
7.015e-07
5.24462e-07
4.89918e-07
4.89923e-07
5.24465e-07
4.89917e-07
4.89923e-07
4.89922e-07
4.89924e-07
5.24484e-07
4.89923e-07
4.89924e-07
5.24476e-07
5.24096e-07
5.24453e-07
4.8992e-07
4.89922e-07
4.89919e-07
4.89924e-07
5.24098e-07
5.24444e-07
4.89923e-07
4.89925e-07
4.89918e-07
4.89926e-07
4.89921e-07
4.89918e-07
4.89922e-07
5.24118e-07
5.24468e-07
4.89919e-07
4.89918e-07
4.89922e-07
5.24461e-07
5.24087e-07
5.2444e-07
4.8992e-07
4.89921e-07
4.89921e-07
4.89923e-07
5.24081e-07
5.24435e-07
4.89922e-07
4.89925e-07
4.89918e-07
4.89923e-07
4.8992e-07
4.89918e-07
4.89923e-07
5.24109e-07
5.24453e-07
4.89917e-07
4.8992e-07
4.8992e-07
5.24446e-07
5.24077e-07
5.24447e-07
4.89922e-07
4.89921e-07
4.8992e-07
4.89924e-07
5.24086e-07
5.24439e-07
4.89919e-07
4.89927e-07
4.89917e-07
4.89922e-07
4.89922e-07
4.89919e-07
4.89923e-07
5.24096e-07
5.24461e-07
4.89918e-07
4.8992e-07
4.8992e-07
5.24452e-07
5.24092e-07
5.24461e-07
4.89919e-07
4.8992e-07
4.89918e-07
4.89921e-07
5.2409e-07
5.24452e-07
4.89919e-07
4.89922e-07
4.89916e-07
4.89923e-07
4.89923e-07
4.8992e-07
4.89919e-07
5.24111e-07
5.2448e-07
4.89917e-07
4.89921e-07
4.89921e-07
5.24463e-07
5.2409e-07
5.24463e-07
4.89921e-07
4.89922e-07
4.89919e-07
4.89924e-07
5.2409e-07
5.24454e-07
4.89921e-07
4.89923e-07
4.89916e-07
4.89923e-07
4.89919e-07
4.8992e-07
4.89923e-07
5.24119e-07
5.2448e-07
4.89919e-07
4.89923e-07
4.89919e-07
5.24474e-07
5.24095e-07
5.24455e-07
4.8992e-07
4.89922e-07
4.89919e-07
4.89922e-07
5.24093e-07
5.24455e-07
4.89922e-07
4.89923e-07
4.89919e-07
4.89924e-07
4.89922e-07
4.8992e-07
4.89926e-07
5.24126e-07
5.24469e-07
4.89918e-07
4.89923e-07
4.89921e-07
5.24462e-07
5.2409e-07
5.24457e-07
4.89922e-07
4.89923e-07
4.89919e-07
4.89921e-07
5.24101e-07
5.24444e-07
4.8992e-07
4.89926e-07
4.89918e-07
4.89922e-07
4.89924e-07
4.8992e-07
4.89924e-07
5.24116e-07
5.24463e-07
4.89919e-07
4.89921e-07
4.89918e-07
5.2445e-07
5.24095e-07
5.2446e-07
4.8992e-07
4.89923e-07
4.89918e-07
4.89922e-07
5.24085e-07
5.24453e-07
4.89916e-07
4.89923e-07
4.89918e-07
4.89922e-07
4.89922e-07
4.89921e-07
4.89919e-07
5.24115e-07
5.24468e-07
4.89918e-07
4.89925e-07
4.89922e-07
5.24466e-07
5.24095e-07
5.24457e-07
4.8992e-07
4.89921e-07
4.89923e-07
4.89921e-07
5.24086e-07
5.2445e-07
4.8992e-07
4.89924e-07
4.89918e-07
4.89927e-07
4.89919e-07
4.89919e-07
4.89926e-07
5.24106e-07
5.24468e-07
4.89917e-07
4.89923e-07
4.89922e-07
5.24469e-07
5.24129e-07
5.2475e-07
4.89928e-07
4.8993e-07
4.90079e-07
4.90077e-07
5.24107e-07
5.24745e-07
4.89927e-07
4.89935e-07
4.90072e-07
4.90083e-07
4.89933e-07
4.90073e-07
4.90083e-07
5.2413e-07
5.24754e-07
4.89924e-07
4.90077e-07
4.90072e-07
5.24754e-07
5.26139e-07
6.37315e-07
4.90754e-07
4.90755e-07
6.32807e-07
6.32779e-07
5.26134e-07
6.37317e-07
4.90753e-07
4.90759e-07
6.3281e-07
6.32785e-07
4.90759e-07
6.32816e-07
6.3279e-07
5.26146e-07
6.37344e-07
4.90754e-07
6.32823e-07
6.32779e-07
6.37335e-07
7.01486e-07
7.67644e-07
7.6765e-07
7.015e-07
7.67618e-07
7.67688e-07
7.68752e-07
7.68809e-07
7.68826e-07
7.67625e-07
7.0156e-07
7.67607e-07
3.09105e-06
4.84531e-07
4.84531e-07
4.84531e-07
4.84532e-07
5.54558e-07
4.89935e-07
8.03953e-07
4.84883e-07
5.24478e-07
9.84092e-07
9.84142e-07
7.99278e-07
2.27792e-06
7.62126e-07
2.25104e-06
3.13071e-06
3.09104e-06
7.99226e-07
2.27808e-06
7.62152e-07
2.25118e-06
4.84532e-07
4.84532e-07
4.84531e-07
4.84531e-07
4.84532e-07
4.84532e-07
4.84532e-07
5.54557e-07
7.43897e-07
4.84863e-07
4.8992e-07
5.45409e-07
8.04023e-07
4.84863e-07
3.13077e-06
3.09116e-06
5.54564e-07
4.84864e-07
7.43925e-07
4.89919e-07
5.4541e-07
4.84863e-07
8.04084e-07
9.52817e-07
9.52908e-07
5.24464e-07
9.84145e-07
9.84205e-07
7.99346e-07
2.27795e-06
7.62137e-07
2.25104e-06
3.13082e-06
3.09106e-06
7.99367e-07
2.27814e-06
7.62129e-07
2.25119e-06
4.84532e-07
4.84532e-07
4.84531e-07
4.84531e-07
4.84532e-07
4.84532e-07
4.84532e-07
5.54551e-07
7.43892e-07
4.84863e-07
4.89918e-07
5.45387e-07
8.04079e-07
4.84863e-07
3.1309e-06
3.0912e-06
5.54559e-07
4.84864e-07
7.43927e-07
4.89918e-07
5.454e-07
4.84864e-07
8.04116e-07
9.52838e-07
9.52918e-07
5.24459e-07
9.84294e-07
9.84309e-07
7.99355e-07
2.27798e-06
7.62135e-07
2.25106e-06
3.1308e-06
3.09111e-06
7.99542e-07
2.27816e-06
7.62173e-07
2.25112e-06
4.84531e-07
4.84532e-07
4.84532e-07
4.84531e-07
4.84532e-07
4.84531e-07
4.84532e-07
5.54553e-07
7.43893e-07
4.84863e-07
4.89916e-07
5.454e-07
8.04088e-07
4.84863e-07
3.13101e-06
3.09118e-06
5.54557e-07
4.84864e-07
7.43916e-07
4.89917e-07
5.45396e-07
4.84863e-07
8.04154e-07
9.52807e-07
9.52879e-07
5.24452e-07
9.84264e-07
9.843e-07
7.99436e-07
2.27798e-06
7.62135e-07
2.25104e-06
3.13081e-06
3.09107e-06
7.99311e-07
2.27812e-06
7.62168e-07
2.25117e-06
4.84531e-07
4.84531e-07
4.84531e-07
4.8453e-07
4.84531e-07
4.84531e-07
4.84531e-07
5.54548e-07
7.43905e-07
4.84863e-07
4.89917e-07
5.45397e-07
8.04042e-07
4.84863e-07
3.1308e-06
3.09118e-06
5.54566e-07
4.84863e-07
7.43939e-07
4.89917e-07
5.45408e-07
4.84863e-07
8.0408e-07
9.52847e-07
9.5291e-07
5.24455e-07
9.84294e-07
9.84276e-07
7.99243e-07
2.2779e-06
7.62155e-07
2.25103e-06
3.13069e-06
3.09105e-06
7.99359e-07
2.27811e-06
7.62148e-07
2.25115e-06
4.84531e-07
4.84531e-07
4.8453e-07
4.84531e-07
4.84531e-07
4.84531e-07
4.84531e-07
5.5456e-07
7.43899e-07
4.84863e-07
4.89919e-07
5.4541e-07
8.0402e-07
4.84863e-07
3.13082e-06
3.09116e-06
5.54557e-07
4.84863e-07
7.43926e-07
4.89918e-07
5.45428e-07
4.84863e-07
8.04053e-07
9.52841e-07
9.5292e-07
5.2447e-07
9.84157e-07
9.84142e-07
7.99314e-07
2.27795e-06
7.62121e-07
2.25105e-06
3.13074e-06
3.09106e-06
7.99266e-07
2.27811e-06
7.62148e-07
2.25119e-06
4.84531e-07
4.84531e-07
4.84531e-07
4.84531e-07
4.84531e-07
4.84532e-07
4.84532e-07
5.54557e-07
7.43903e-07
4.84863e-07
4.89921e-07
5.45412e-07
8.04016e-07
4.84863e-07
3.13076e-06
3.09115e-06
5.54562e-07
4.84863e-07
7.43931e-07
4.89918e-07
5.45416e-07
4.84863e-07
8.04057e-07
9.52854e-07
9.52929e-07
5.24472e-07
9.84095e-07
9.84149e-07
7.99351e-07
2.27795e-06
7.62136e-07
2.25105e-06
3.13075e-06
3.09107e-06
7.9938e-07
2.27814e-06
7.62138e-07
2.25117e-06
4.84531e-07
4.84532e-07
4.84532e-07
4.84531e-07
4.84532e-07
4.84531e-07
4.84531e-07
5.5455e-07
7.43905e-07
4.84863e-07
4.8992e-07
5.45393e-07
8.04069e-07
4.84863e-07
3.1309e-06
3.0912e-06
5.54562e-07
4.84864e-07
7.43922e-07
4.89918e-07
5.45398e-07
4.84863e-07
8.04141e-07
9.5282e-07
9.52907e-07
5.24456e-07
9.84265e-07
9.84288e-07
7.99384e-07
2.27796e-06
7.6213e-07
2.25103e-06
3.13077e-06
3.09107e-06
7.99423e-07
2.27813e-06
7.62163e-07
2.25114e-06
4.84531e-07
4.84531e-07
4.84531e-07
4.84531e-07
4.84531e-07
4.84532e-07
4.84531e-07
5.54559e-07
7.43902e-07
4.84863e-07
4.89919e-07
5.45398e-07
8.04083e-07
4.84863e-07
3.13086e-06
3.09118e-06
5.5456e-07
4.84863e-07
7.43936e-07
4.89917e-07
5.45406e-07
4.84863e-07
8.04093e-07
9.52842e-07
9.52916e-07
5.24458e-07
9.84276e-07
9.84275e-07
7.99305e-07
2.27794e-06
7.62136e-07
2.25107e-06
3.13072e-06
3.09112e-06
7.99372e-07
2.27812e-06
7.62146e-07
2.25117e-06
4.84531e-07
4.84531e-07
4.84531e-07
4.84534e-07
4.84534e-07
4.84534e-07
4.84534e-07
5.54558e-07
7.43889e-07
4.84863e-07
4.89919e-07
5.45399e-07
8.04084e-07
4.84863e-07
3.13084e-06
3.09122e-06
5.54574e-07
4.84863e-07
7.43916e-07
4.89919e-07
5.45412e-07
4.84863e-07
8.04143e-07
9.52842e-07
9.52902e-07
5.24464e-07
9.84243e-07
9.84287e-07
7.99839e-07
2.27823e-06
7.62081e-07
2.2514e-06
3.13099e-06
3.09242e-06
7.99804e-07
2.27839e-06
7.62091e-07
2.25153e-06
4.84535e-07
4.84536e-07
4.84535e-07
4.84742e-07
4.84742e-07
4.84743e-07
4.84743e-07
5.54594e-07
7.43821e-07
4.84866e-07
4.89932e-07
5.4539e-07
8.04492e-07
4.84867e-07
3.13104e-06
3.09251e-06
5.54598e-07
4.84867e-07
7.43851e-07
4.89933e-07
5.45398e-07
4.84868e-07
8.0451e-07
9.5263e-07
9.52707e-07
5.24483e-07
9.84824e-07
9.8482e-07
8.03243e-07
2.28042e-06
7.62197e-07
2.25686e-06
3.13644e-06
3.11982e-06
8.03254e-07
2.28063e-06
7.62243e-07
2.25694e-06
4.85758e-07
4.85749e-07
4.85751e-07
5.98333e-07
5.98334e-07
5.98351e-07
5.98293e-07
5.54818e-07
7.44167e-07
4.85881e-07
4.93258e-07
5.45594e-07
8.08724e-07
4.88355e-07
3.13661e-06
3.11994e-06
5.54716e-07
4.85893e-07
7.44193e-07
4.93276e-07
5.45694e-07
4.88368e-07
8.08708e-07
9.52249e-07
9.52323e-07
5.29383e-07
9.89912e-07
9.89923e-07
6.50943e-06
7.31869e-06
9.516e-07
5.68977e-06
5.54435e-06
5.9776e-06
6.50789e-06
7.32105e-06
9.51381e-07
5.6836e-06
8.07839e-07
6.42997e-07
6.42999e-07
1.15608e-06
5.74286e-07
8.15184e-07
8.15178e-07
4.64807e-06
1.56296e-06
7.5365e-07
2.03334e-06
6.67888e-07
6.93067e-06
8.66734e-07
5.54409e-06
5.98192e-06
4.64804e-06
7.53702e-07
1.56287e-06
2.03362e-06
6.67909e-07
8.66714e-07
6.93758e-06
1.88942e-06
1.88859e-06
3.01038e-06
6.30987e-06
6.3105e-06
3.09095e-06
3.13064e-06
3.09106e-06
3.13073e-06
5.24095e-07
9.84114e-07
9.8412e-07
9.52815e-07
9.52898e-07
2.25105e-06
4.89938e-07
8.0407e-07
7.62139e-07
2.25102e-06
2.2779e-06
7.99236e-07
7.62141e-07
2.25104e-06
2.27797e-06
7.9925e-07
5.45416e-07
4.89923e-07
8.04054e-07
4.84863e-07
7.43926e-07
4.84863e-07
5.54554e-07
5.45416e-07
4.89925e-07
8.04072e-07
4.84863e-07
7.43969e-07
4.84863e-07
5.54555e-07
5.24472e-07
9.84077e-07
9.84002e-07
3.09097e-06
3.09104e-06
3.13064e-06
5.24105e-07
9.84057e-07
9.83993e-07
9.52912e-07
9.52797e-07
3.09096e-06
3.13052e-06
7.62156e-07
2.25115e-06
2.27806e-06
7.99288e-07
5.45421e-07
4.89921e-07
8.04095e-07
4.84863e-07
7.43968e-07
4.84863e-07
5.54568e-07
7.62161e-07
2.25126e-06
2.27817e-06
7.99294e-07
5.45425e-07
4.89927e-07
4.84863e-07
8.04135e-07
4.84863e-07
7.44014e-07
5.5457e-07
7.99266e-07
2.25106e-06
5.54559e-07
4.89924e-07
4.84884e-07
8.04032e-07
7.99255e-07
2.25116e-06
5.45426e-07
4.89916e-07
8.0397e-07
4.84863e-07
7.43906e-07
4.84863e-07
5.54557e-07
7.62145e-07
2.25107e-06
2.27792e-06
7.99191e-07
5.45427e-07
4.89928e-07
4.84863e-07
8.04048e-07
4.84864e-07
7.43946e-07
5.54559e-07
7.62143e-07
2.25116e-06
2.27803e-06
7.99203e-07
3.09115e-06
3.13075e-06
5.24119e-07
9.84184e-07
9.84145e-07
9.52984e-07
9.52866e-07
3.09105e-06
3.13061e-06
5.45419e-07
4.89919e-07
4.84863e-07
8.04036e-07
4.84863e-07
7.43944e-07
5.54564e-07
5.45418e-07
4.89917e-07
4.84864e-07
8.04136e-07
4.84863e-07
7.43982e-07
5.54565e-07
7.62141e-07
2.25121e-06
2.27806e-06
7.99226e-07
7.62139e-07
2.2512e-06
2.2781e-06
7.99234e-07
3.09101e-06
3.09113e-06
5.24113e-07
9.84067e-07
9.84161e-07
9.52847e-07
9.52923e-07
3.09102e-06
3.13064e-06
3.09112e-06
3.13072e-06
3.13064e-06
3.09098e-06
3.13073e-06
3.09111e-06
9.52816e-07
9.52891e-07
5.24464e-07
9.84155e-07
9.84186e-07
3.09099e-06
3.13069e-06
3.09112e-06
3.13077e-06
5.24093e-07
9.84207e-07
9.8428e-07
9.52823e-07
9.52913e-07
7.99292e-07
2.27798e-06
7.62127e-07
2.25104e-06
5.54556e-07
7.43923e-07
4.84863e-07
4.89919e-07
5.45408e-07
8.04078e-07
4.84863e-07
5.54556e-07
7.43958e-07
4.84863e-07
4.89923e-07
5.45408e-07
8.0413e-07
4.84863e-07
7.62129e-07
2.25104e-06
2.27794e-06
7.99345e-07
7.6213e-07
2.25106e-06
2.27799e-06
7.99343e-07
5.45399e-07
4.89923e-07
8.04087e-07
4.84863e-07
7.4392e-07
4.84863e-07
5.54552e-07
5.454e-07
4.89921e-07
8.04148e-07
4.84863e-07
7.43961e-07
4.84863e-07
5.54552e-07
9.52879e-07
9.52776e-07
5.24462e-07
9.84113e-07
9.84058e-07
3.13058e-06
3.09098e-06
3.09106e-06
3.13078e-06
5.24101e-07
9.84198e-07
9.84176e-07
9.52877e-07
9.52775e-07
3.09099e-06
3.13067e-06
5.54558e-07
7.4396e-07
4.84863e-07
4.89918e-07
5.4542e-07
8.0412e-07
4.84863e-07
7.9924e-07
2.27817e-06
7.62155e-07
2.25126e-06
5.54562e-07
4.84863e-07
7.44006e-07
4.89925e-07
5.45424e-07
4.84864e-07
8.0416e-07
7.62126e-07
2.25119e-06
2.27812e-06
7.99284e-07
5.45399e-07
4.89921e-07
8.04167e-07
4.84863e-07
7.43965e-07
4.84863e-07
5.54556e-07
7.62129e-07
2.25129e-06
2.27818e-06
7.99261e-07
5.45403e-07
4.89928e-07
4.84864e-07
8.04163e-07
4.84864e-07
7.44005e-07
5.54554e-07
7.99236e-07
2.27794e-06
7.62122e-07
2.25107e-06
5.54559e-07
4.84863e-07
7.43937e-07
4.89923e-07
5.45413e-07
4.84863e-07
8.04099e-07
7.99244e-07
2.27804e-06
7.62125e-07
2.25118e-06
5.45393e-07
4.89917e-07
8.04059e-07
4.84863e-07
7.43895e-07
4.84863e-07
5.5455e-07
7.62119e-07
2.25108e-06
2.27797e-06
7.99328e-07
5.45396e-07
4.89926e-07
4.84863e-07
8.04121e-07
4.84864e-07
7.43936e-07
5.54551e-07
7.62122e-07
2.25119e-06
2.27807e-06
7.99337e-07
9.52971e-07
9.52829e-07
5.2448e-07
9.84198e-07
9.84178e-07
3.13067e-06
3.09106e-06
3.09119e-06
3.13081e-06
5.24109e-07
9.84258e-07
9.84241e-07
9.52967e-07
9.52825e-07
3.09105e-06
3.13075e-06
5.54566e-07
4.84864e-07
7.43976e-07
4.8992e-07
5.4541e-07
4.84864e-07
8.04169e-07
7.99264e-07
2.27808e-06
7.62136e-07
2.25119e-06
7.99279e-07
2.27811e-06
7.62136e-07
2.2512e-06
5.454e-07
4.8992e-07
4.84863e-07
8.04112e-07
4.84863e-07
7.43928e-07
5.5456e-07
5.454e-07
4.89917e-07
4.84863e-07
8.04189e-07
4.84863e-07
7.43972e-07
5.54558e-07
7.62136e-07
2.25119e-06
2.27809e-06
7.99352e-07
7.62137e-07
2.2512e-06
2.27814e-06
7.99357e-07
3.1307e-06
3.09105e-06
3.13077e-06
3.09114e-06
5.24098e-07
9.8425e-07
9.84285e-07
9.52822e-07
9.52898e-07
3.09107e-06
3.13077e-06
3.09114e-06
3.13086e-06
3.13071e-06
3.091e-06
3.13079e-06
3.09114e-06
9.52822e-07
9.52918e-07
5.24453e-07
9.84226e-07
9.84273e-07
3.09102e-06
3.13072e-06
3.09111e-06
3.13089e-06
5.24085e-07
9.84265e-07
9.84303e-07
9.52821e-07
9.52892e-07
7.99352e-07
2.27803e-06
7.62133e-07
2.25106e-06
5.54546e-07
7.43921e-07
4.84863e-07
4.89919e-07
5.45397e-07
8.04098e-07
4.84863e-07
5.54548e-07
7.43958e-07
4.84863e-07
4.89921e-07
5.45395e-07
8.0419e-07
4.84863e-07
7.62135e-07
2.25106e-06
2.27795e-06
7.99366e-07
7.62134e-07
2.25105e-06
2.27801e-06
7.99395e-07
5.45391e-07
4.89921e-07
8.04087e-07
4.84863e-07
7.43917e-07
4.84863e-07
5.54544e-07
5.45389e-07
4.89923e-07
8.04146e-07
4.84863e-07
7.43967e-07
4.84863e-07
5.54546e-07
9.52885e-07
9.52783e-07
5.2444e-07
9.84273e-07
9.84186e-07
3.13071e-06
3.09099e-06
3.09108e-06
3.13079e-06
5.24079e-07
9.84225e-07
9.84183e-07
9.52906e-07
9.52772e-07
3.09097e-06
3.13075e-06
5.54556e-07
7.43966e-07
4.84863e-07
4.89916e-07
5.45388e-07
8.04167e-07
4.84863e-07
7.99379e-07
2.27825e-06
7.62125e-07
2.25128e-06
5.5456e-07
4.84864e-07
7.43991e-07
4.89925e-07
5.45388e-07
4.84864e-07
8.04249e-07
7.62141e-07
2.25115e-06
2.27817e-06
7.99532e-07
5.45381e-07
4.89917e-07
8.04195e-07
4.84863e-07
7.43956e-07
4.84863e-07
5.54566e-07
7.62143e-07
2.25124e-06
2.27825e-06
7.99546e-07
5.45384e-07
4.89923e-07
4.84864e-07
8.04258e-07
4.84864e-07
7.44e-07
5.54568e-07
7.99389e-07
2.278e-06
7.6213e-07
2.25106e-06
5.54553e-07
4.84863e-07
7.43937e-07
4.8992e-07
5.4539e-07
4.84863e-07
8.04159e-07
7.99386e-07
2.27811e-06
7.62132e-07
2.25118e-06
5.45384e-07
4.89915e-07
8.04081e-07
4.84863e-07
7.43894e-07
4.84863e-07
5.54561e-07
7.62139e-07
2.25103e-06
2.278e-06
7.99528e-07
5.45386e-07
4.8992e-07
4.84863e-07
8.04131e-07
4.84863e-07
7.4394e-07
5.54562e-07
7.6214e-07
2.25114e-06
2.27809e-06
7.99525e-07
9.52958e-07
9.52829e-07
5.24467e-07
9.84352e-07
9.84235e-07
3.13077e-06
3.09105e-06
3.09119e-06
3.13096e-06
5.24104e-07
9.84352e-07
9.84276e-07
9.52953e-07
9.52807e-07
3.09108e-06
3.13083e-06
5.54559e-07
4.84863e-07
7.43977e-07
4.89918e-07
5.45398e-07
4.84864e-07
8.04208e-07
7.99366e-07
2.27809e-06
7.62147e-07
2.25118e-06
7.99364e-07
2.27815e-06
7.62144e-07
2.25119e-06
5.45389e-07
4.89924e-07
4.84864e-07
8.04134e-07
4.84864e-07
7.43918e-07
5.54564e-07
5.45389e-07
4.89921e-07
4.84864e-07
8.04181e-07
4.84864e-07
7.43978e-07
5.54565e-07
7.62139e-07
2.25117e-06
2.27811e-06
7.99476e-07
7.62141e-07
2.25116e-06
2.27815e-06
7.99494e-07
3.13081e-06
3.09107e-06
3.13086e-06
3.09114e-06
5.24093e-07
9.84225e-07
9.84243e-07
9.52831e-07
9.52907e-07
3.09105e-06
3.13082e-06
3.09114e-06
3.13087e-06
3.13075e-06
3.09103e-06
3.1309e-06
3.09108e-06
9.52824e-07
9.52888e-07
5.24443e-07
9.84322e-07
9.843e-07
3.09103e-06
3.13071e-06
3.09109e-06
3.13083e-06
5.24078e-07
9.84313e-07
9.84249e-07
9.52851e-07
9.52909e-07
7.9935e-07
2.27803e-06
7.62139e-07
2.25107e-06
5.54543e-07
7.43916e-07
4.84863e-07
4.89919e-07
5.45389e-07
8.04124e-07
4.84863e-07
5.54543e-07
7.43959e-07
4.84863e-07
4.89924e-07
5.4539e-07
8.04168e-07
4.84863e-07
7.6213e-07
2.25106e-06
2.27797e-06
7.99374e-07
7.62126e-07
2.25107e-06
2.27804e-06
7.99389e-07
5.45383e-07
4.89921e-07
8.04116e-07
4.84863e-07
7.43932e-07
4.84863e-07
5.54545e-07
5.45381e-07
4.89924e-07
8.04189e-07
4.84863e-07
7.43967e-07
4.84863e-07
5.54546e-07
9.52891e-07
9.52775e-07
5.24439e-07
9.84276e-07
9.84203e-07
3.13076e-06
3.09096e-06
3.0911e-06
3.13081e-06
5.24074e-07
9.84322e-07
9.84182e-07
9.52909e-07
9.52795e-07
3.09097e-06
3.1307e-06
5.54564e-07
7.43958e-07
4.84863e-07
4.89916e-07
5.45395e-07
8.04193e-07
4.84863e-07
7.99542e-07
2.27825e-06
7.62177e-07
2.25123e-06
5.54565e-07
4.84864e-07
7.43995e-07
4.89923e-07
5.45399e-07
4.84863e-07
8.04267e-07
7.6218e-07
2.25114e-06
2.27812e-06
7.9943e-07
5.45406e-07
4.89917e-07
8.04142e-07
4.84863e-07
7.4397e-07
4.84863e-07
5.5456e-07
7.62179e-07
2.25125e-06
2.27822e-06
7.99429e-07
5.45407e-07
4.89922e-07
4.84863e-07
8.04217e-07
4.84863e-07
7.44015e-07
5.54561e-07
7.99445e-07
2.27799e-06
7.62169e-07
2.25103e-06
5.54551e-07
4.84863e-07
7.4393e-07
4.89924e-07
5.45402e-07
4.84863e-07
8.0413e-07
7.99418e-07
2.27808e-06
7.62168e-07
2.25116e-06
5.45397e-07
4.89917e-07
8.04075e-07
4.84863e-07
7.43906e-07
4.84863e-07
5.54551e-07
7.62154e-07
2.25105e-06
2.27798e-06
7.99403e-07
5.45395e-07
4.8992e-07
4.84863e-07
8.04131e-07
4.84863e-07
7.43935e-07
5.54549e-07
7.62148e-07
2.25116e-06
2.2781e-06
7.99402e-07
9.52938e-07
9.52806e-07
5.24456e-07
9.84391e-07
9.8435e-07
3.13088e-06
3.09107e-06
3.09117e-06
3.13092e-06
5.24099e-07
9.8439e-07
9.84307e-07
9.52982e-07
9.52844e-07
3.09105e-06
3.13082e-06
5.54558e-07
4.84863e-07
7.43965e-07
4.8992e-07
5.45398e-07
4.84864e-07
8.04205e-07
7.9947e-07
2.27813e-06
7.62165e-07
2.25116e-06
7.9947e-07
2.27816e-06
7.62168e-07
2.25116e-06
5.45397e-07
4.8992e-07
4.84863e-07
8.04133e-07
4.84863e-07
7.43934e-07
5.54561e-07
5.45394e-07
4.89921e-07
4.84863e-07
8.04198e-07
4.84864e-07
7.43974e-07
5.54557e-07
7.62166e-07
2.25115e-06
2.27812e-06
7.99477e-07
7.62162e-07
2.25116e-06
2.27817e-06
7.99471e-07
3.13086e-06
3.09107e-06
3.13095e-06
3.09114e-06
5.24092e-07
9.84288e-07
9.84317e-07
9.52833e-07
9.52903e-07
3.09108e-06
3.13083e-06
3.09113e-06
3.13093e-06
3.1307e-06
3.091e-06
3.13079e-06
3.09109e-06
9.52855e-07
9.52916e-07
5.24455e-07
9.84276e-07
9.84251e-07
3.09097e-06
3.13066e-06
3.0911e-06
3.13073e-06
5.2409e-07
9.84147e-07
9.84176e-07
9.52849e-07
9.52927e-07
7.9944e-07
2.27804e-06
7.62136e-07
2.25105e-06
5.54554e-07
7.43931e-07
4.84863e-07
4.89918e-07
5.45384e-07
8.04115e-07
4.84863e-07
5.54553e-07
7.4397e-07
4.84863e-07
4.89923e-07
5.45384e-07
8.04175e-07
4.84863e-07
7.62157e-07
2.25101e-06
2.27794e-06
7.99395e-07
7.62155e-07
2.25102e-06
2.27801e-06
7.99408e-07
5.45404e-07
4.89921e-07
8.04049e-07
4.84863e-07
7.43935e-07
4.84863e-07
5.54556e-07
5.45401e-07
4.89923e-07
8.04115e-07
4.84862e-07
7.43975e-07
4.84863e-07
5.54557e-07
9.52916e-07
9.52796e-07
5.24442e-07
9.84283e-07
9.8418e-07
3.13067e-06
3.09098e-06
3.09104e-06
3.13075e-06
5.24077e-07
9.84183e-07
9.84097e-07
9.52918e-07
9.52808e-07
3.09098e-06
3.13063e-06
5.54556e-07
7.4397e-07
4.84863e-07
4.89916e-07
5.4541e-07
8.04137e-07
4.84863e-07
7.99303e-07
2.2782e-06
7.62167e-07
2.25126e-06
5.54557e-07
4.84863e-07
7.44023e-07
4.89923e-07
5.45412e-07
4.84863e-07
8.04154e-07
7.62143e-07
2.25116e-06
2.27811e-06
7.99318e-07
5.45402e-07
4.89918e-07
8.041e-07
4.84863e-07
7.43973e-07
4.84863e-07
5.54559e-07
7.62143e-07
2.25125e-06
2.2782e-06
7.9932e-07
5.45404e-07
4.89924e-07
4.84863e-07
8.04153e-07
4.84863e-07
7.44009e-07
5.54562e-07
7.99365e-07
2.27797e-06
7.62147e-07
2.25106e-06
5.54549e-07
4.84863e-07
7.43943e-07
4.89923e-07
5.45397e-07
4.84863e-07
8.04118e-07
7.99369e-07
2.2781e-06
7.62146e-07
2.25117e-06
5.45398e-07
4.89916e-07
8.04007e-07
4.84863e-07
7.43901e-07
4.84863e-07
5.54555e-07
7.62142e-07
2.25106e-06
2.27798e-06
7.99368e-07
5.454e-07
4.89918e-07
4.84862e-07
8.04071e-07
4.84863e-07
7.43953e-07
5.54558e-07
7.62145e-07
2.25115e-06
2.27808e-06
7.99389e-07
9.5301e-07
9.52847e-07
5.2447e-07
9.84263e-07
9.84202e-07
3.13074e-06
3.09102e-06
3.09117e-06
3.1308e-06
5.24113e-07
9.84215e-07
9.841e-07
9.5298e-07
9.52833e-07
3.09101e-06
3.13071e-06
5.54565e-07
4.84863e-07
7.43976e-07
4.89918e-07
5.45404e-07
4.84863e-07
8.04171e-07
7.99435e-07
2.27809e-06
7.62172e-07
2.25115e-06
7.99451e-07
2.27815e-06
7.62168e-07
2.25114e-06
5.4542e-07
4.89921e-07
4.84863e-07
8.04048e-07
4.84863e-07
7.43931e-07
5.54571e-07
5.45418e-07
4.8992e-07
4.84863e-07
8.04126e-07
4.84863e-07
7.43985e-07
5.54572e-07
7.62174e-07
2.25114e-06
2.27806e-06
7.99385e-07
7.62175e-07
2.25113e-06
2.27813e-06
7.99413e-07
3.1308e-06
3.09107e-06
3.13089e-06
3.09111e-06
5.24096e-07
9.84176e-07
9.84176e-07
9.5287e-07
9.52919e-07
3.09105e-06
3.13072e-06
3.09109e-06
3.13081e-06
3.13062e-06
3.09097e-06
3.13075e-06
3.09109e-06
9.52823e-07
9.52899e-07
5.24463e-07
9.84121e-07
9.84161e-07
3.091e-06
3.13061e-06
3.09109e-06
3.13073e-06
5.24092e-07
9.84144e-07
9.84179e-07
9.5283e-07
9.52905e-07
7.99252e-07
2.27798e-06
7.62154e-07
2.25104e-06
5.5455e-07
7.43925e-07
4.84863e-07
4.89918e-07
5.45416e-07
8.04032e-07
4.84863e-07
5.54551e-07
7.43971e-07
4.84863e-07
4.89922e-07
5.45415e-07
8.04088e-07
4.84863e-07
7.62128e-07
2.25106e-06
2.27792e-06
7.99219e-07
7.62126e-07
2.25107e-06
2.27799e-06
7.99232e-07
5.45408e-07
4.89925e-07
8.04039e-07
4.84863e-07
7.43923e-07
4.84863e-07
5.54549e-07
5.45406e-07
4.89924e-07
8.04074e-07
4.84863e-07
7.43966e-07
4.84863e-07
5.5455e-07
9.52911e-07
9.52785e-07
5.24462e-07
9.84135e-07
9.8407e-07
3.13063e-06
3.09096e-06
3.09109e-06
3.13067e-06
5.24095e-07
9.84135e-07
9.84099e-07
9.52908e-07
9.52787e-07
3.09096e-06
3.13061e-06
5.54567e-07
7.43963e-07
4.84863e-07
4.89916e-07
5.45406e-07
8.04111e-07
4.84863e-07
7.99356e-07
2.2782e-06
7.62147e-07
2.25124e-06
5.54568e-07
4.84863e-07
7.44004e-07
4.89922e-07
5.45407e-07
4.84863e-07
8.04175e-07
7.62161e-07
2.25117e-06
2.2781e-06
7.99297e-07
5.45416e-07
4.89919e-07
8.04102e-07
4.84863e-07
7.43967e-07
4.84863e-07
5.54563e-07
7.62161e-07
2.25125e-06
2.27819e-06
7.99318e-07
5.45417e-07
4.89928e-07
4.84863e-07
8.04145e-07
4.84863e-07
7.44009e-07
5.54565e-07
7.99347e-07
2.27796e-06
7.62152e-07
2.25104e-06
5.54561e-07
4.84863e-07
7.43945e-07
4.89923e-07
5.45413e-07
4.84863e-07
8.04059e-07
7.99344e-07
2.27807e-06
7.62155e-07
2.25115e-06
5.4542e-07
4.89915e-07
8.04005e-07
4.84863e-07
7.43904e-07
4.84863e-07
5.54557e-07
7.62153e-07
2.25107e-06
2.27794e-06
7.99254e-07
5.45421e-07
4.89925e-07
4.84863e-07
8.04036e-07
4.84863e-07
7.43945e-07
5.54558e-07
7.62153e-07
2.25116e-06
2.27805e-06
7.99254e-07
9.52959e-07
9.52811e-07
5.24478e-07
9.84233e-07
9.84133e-07
3.13071e-06
3.09102e-06
3.09116e-06
3.1308e-06
5.24113e-07
9.84236e-07
9.8415e-07
9.52977e-07
9.52836e-07
3.09105e-06
3.13066e-06
5.54558e-07
4.84863e-07
7.43984e-07
4.89919e-07
5.45429e-07
4.84863e-07
8.04083e-07
7.99231e-07
2.27804e-06
7.62168e-07
2.25116e-06
7.99246e-07
2.27809e-06
7.62172e-07
2.25116e-06
5.45422e-07
4.8992e-07
4.84863e-07
8.04029e-07
4.84863e-07
7.43933e-07
5.54561e-07
5.45421e-07
4.89917e-07
4.84863e-07
8.04089e-07
4.84863e-07
7.43982e-07
5.5456e-07
7.62144e-07
2.2512e-06
2.27804e-06
7.99195e-07
7.62145e-07
2.25118e-06
2.2781e-06
7.992e-07
3.13071e-06
3.09104e-06
3.13075e-06
3.09111e-06
5.24108e-07
9.84116e-07
9.84137e-07
9.52853e-07
9.52927e-07
3.09104e-06
3.13065e-06
3.09112e-06
3.13071e-06
3.13066e-06
3.091e-06
3.13073e-06
3.09111e-06
9.52825e-07
9.52915e-07
5.24462e-07
9.84185e-07
9.84198e-07
3.09099e-06
3.13067e-06
3.09111e-06
3.13075e-06
5.24096e-07
9.84183e-07
9.84228e-07
9.52831e-07
9.52916e-07
7.99336e-07
2.27803e-06
7.62119e-07
2.25105e-06
5.54555e-07
7.43919e-07
4.84862e-07
4.89919e-07
5.45398e-07
8.04072e-07
4.84863e-07
5.54557e-07
7.43956e-07
4.84863e-07
4.89923e-07
5.45397e-07
8.0415e-07
4.84863e-07
7.62134e-07
2.25104e-06
2.27794e-06
7.99328e-07
7.62138e-07
2.25105e-06
2.278e-06
7.99345e-07
5.45402e-07
4.89921e-07
8.04077e-07
4.84863e-07
7.43922e-07
4.84863e-07
5.54556e-07
5.45403e-07
4.89924e-07
8.04142e-07
4.84863e-07
7.43968e-07
4.84863e-07
5.54558e-07
9.52898e-07
9.52803e-07
5.24456e-07
9.84195e-07
9.84101e-07
3.13057e-06
3.091e-06
3.09106e-06
3.13074e-06
5.24094e-07
9.842e-07
9.84134e-07
9.52903e-07
9.52801e-07
3.09099e-06
3.13062e-06
5.54562e-07
7.43966e-07
4.84863e-07
4.89917e-07
5.45414e-07
8.04113e-07
4.84863e-07
7.99263e-07
2.27819e-06
7.62151e-07
2.25127e-06
5.54563e-07
4.84863e-07
7.44012e-07
4.89926e-07
5.45417e-07
4.84863e-07
8.0416e-07
7.62132e-07
2.25118e-06
2.27813e-06
7.99288e-07
5.45404e-07
4.89918e-07
8.04146e-07
4.84863e-07
7.43965e-07
4.84863e-07
5.54561e-07
7.62133e-07
2.25128e-06
2.27818e-06
7.99273e-07
5.45407e-07
4.8993e-07
4.84863e-07
8.0418e-07
4.84864e-07
7.44001e-07
5.54561e-07
7.9924e-07
2.27796e-06
7.62132e-07
2.25109e-06
5.54557e-07
4.84863e-07
7.43947e-07
4.89928e-07
5.45415e-07
4.84863e-07
8.04052e-07
7.99221e-07
2.27804e-06
7.62133e-07
2.25118e-06
5.45403e-07
4.89917e-07
8.04049e-07
4.84863e-07
7.43906e-07
4.84863e-07
5.54555e-07
7.62124e-07
2.25109e-06
2.27797e-06
7.99266e-07
5.45403e-07
4.89921e-07
4.84864e-07
8.04098e-07
4.84863e-07
7.4393e-07
5.54556e-07
7.62121e-07
2.25119e-06
2.27806e-06
7.99263e-07
9.52992e-07
9.52847e-07
5.24482e-07
9.84213e-07
9.8415e-07
3.13063e-06
3.09106e-06
3.09119e-06
3.13078e-06
5.24109e-07
9.84243e-07
9.84191e-07
9.52968e-07
9.52833e-07
3.09108e-06
3.13068e-06
5.5456e-07
4.84863e-07
7.43983e-07
4.89922e-07
5.45415e-07
4.84863e-07
8.04121e-07
7.99207e-07
2.27806e-06
7.62132e-07
2.25121e-06
7.9919e-07
2.2781e-06
7.6213e-07
2.25121e-06
5.45404e-07
4.89925e-07
4.84864e-07
8.04103e-07
4.84864e-07
7.4393e-07
5.54565e-07
5.45401e-07
4.89923e-07
4.84863e-07
8.0417e-07
4.84864e-07
7.43972e-07
5.54563e-07
7.62124e-07
2.25121e-06
2.27807e-06
7.99292e-07
7.62119e-07
2.2512e-06
2.27813e-06
7.99297e-07
3.13065e-06
3.09105e-06
3.1307e-06
3.09113e-06
5.24108e-07
9.84178e-07
9.84242e-07
9.52819e-07
9.52905e-07
3.09107e-06
3.13073e-06
3.09114e-06
3.13079e-06
3.13069e-06
3.09099e-06
3.13079e-06
3.09111e-06
9.52822e-07
9.52908e-07
5.24453e-07
9.84225e-07
9.84259e-07
3.09101e-06
3.13068e-06
3.0911e-06
3.13081e-06
5.24088e-07
9.84242e-07
9.84259e-07
9.52837e-07
9.52914e-07
7.99357e-07
2.27801e-06
7.62137e-07
2.25106e-06
5.54556e-07
7.43921e-07
4.84863e-07
4.89922e-07
5.45402e-07
8.04111e-07
4.84863e-07
5.54557e-07
7.43965e-07
4.84863e-07
4.89923e-07
5.45402e-07
8.04144e-07
4.84863e-07
7.62133e-07
2.25106e-06
2.27794e-06
7.99315e-07
7.62135e-07
2.25107e-06
2.27802e-06
7.99334e-07
5.45398e-07
4.89921e-07
8.04084e-07
4.84863e-07
7.43927e-07
4.84863e-07
5.54546e-07
5.45398e-07
4.89924e-07
8.04165e-07
4.84863e-07
7.4396e-07
4.84863e-07
5.54548e-07
9.52905e-07
9.528e-07
5.24451e-07
9.84198e-07
9.84179e-07
3.13065e-06
3.091e-06
3.09108e-06
3.1308e-06
5.24087e-07
9.84271e-07
9.8418e-07
9.5289e-07
9.52796e-07
3.09099e-06
3.13069e-06
5.54564e-07
7.43966e-07
4.84863e-07
4.89917e-07
5.45396e-07
8.04177e-07
4.84863e-07
7.99385e-07
2.27822e-06
7.62136e-07
2.25128e-06
5.54566e-07
4.84864e-07
7.43993e-07
4.89926e-07
5.45397e-07
4.84864e-07
8.04235e-07
7.62146e-07
2.25116e-06
2.27814e-06
7.99438e-07
5.45394e-07
4.89918e-07
8.04156e-07
4.84863e-07
7.43967e-07
4.84863e-07
5.54564e-07
7.62151e-07
2.25126e-06
2.27823e-06
7.99443e-07
5.45398e-07
4.89929e-07
4.84863e-07
8.04223e-07
4.84864e-07
7.44004e-07
5.54565e-07
7.99297e-07
2.27799e-06
7.62122e-07
2.25109e-06
5.54554e-07
4.84864e-07
7.43935e-07
4.89927e-07
5.45396e-07
4.84864e-07
8.04143e-07
7.99307e-07
2.27808e-06
7.62124e-07
2.2512e-06
5.45383e-07
4.89916e-07
8.04087e-07
4.84863e-07
7.43903e-07
4.84863e-07
5.54557e-07
7.62119e-07
2.25106e-06
2.278e-06
7.99416e-07
5.45385e-07
4.8992e-07
4.84863e-07
8.04153e-07
4.84863e-07
7.4394e-07
5.54556e-07
7.62121e-07
2.25118e-06
2.27812e-06
7.99412e-07
9.5295e-07
9.52819e-07
5.24468e-07
9.84332e-07
9.84305e-07
3.13079e-06
3.09108e-06
3.09118e-06
3.13092e-06
5.24102e-07
9.84358e-07
9.84292e-07
9.52964e-07
9.5284e-07
3.09104e-06
3.13081e-06
5.54564e-07
4.84864e-07
7.43973e-07
4.89921e-07
5.45398e-07
4.84864e-07
8.04204e-07
7.99361e-07
2.2781e-06
7.62137e-07
2.25121e-06
7.99388e-07
2.27815e-06
7.62138e-07
2.2512e-06
5.45392e-07
4.89921e-07
4.84863e-07
8.04147e-07
4.84863e-07
7.43931e-07
5.54564e-07
5.45393e-07
4.89922e-07
4.84863e-07
8.04217e-07
4.84864e-07
7.43977e-07
5.54561e-07
7.62141e-07
2.25117e-06
2.27812e-06
7.99434e-07
7.62146e-07
2.25117e-06
2.27817e-06
7.99428e-07
3.13079e-06
3.09109e-06
3.13086e-06
3.09116e-06
5.24095e-07
9.84297e-07
9.8432e-07
9.52837e-07
9.52907e-07
3.09107e-06
3.13083e-06
3.09112e-06
3.13092e-06
3.1307e-06
3.09099e-06
3.1308e-06
3.09109e-06
9.52829e-07
9.52903e-07
5.2445e-07
9.84215e-07
9.84213e-07
3.09097e-06
3.13069e-06
3.09109e-06
3.13078e-06
5.24089e-07