/*--------------------------------*- C++ -*----------------------------------*\
| =========                 |                                                 |
| \\      /  F ield         | OpenFOAM: The Open Source CFD Toolbox           |
|  \\    /   O peration     | Version:  2206                                  |
|   \\  /    A nd           | Website:  www.openfoam.com                      |
|    \\/     M anipulation  |                                                 |
\*---------------------------------------------------------------------------*/
FoamFile
{
    version     2.0;
    format      ascii;
    arch        "LSB;label=32;scalar=64";
    class       volVectorField;
    location    "4";
    object      U;
}
// * * * * * * * * * * * * * * * * * * * * * * * * * * * * * * * * * * * * * //

dimensions      [0 1 -1 0 0 0 0];

internalField   nonuniform List<vector> 
28673
(
(-1.14669e-07 2.59476e-07 0.100613)
(-3.16297e-05 -3.16379e-05 0.100614)
(-1.8573e-07 -1.89227e-07 0.100613)
(-1.68368e-07 2.80815e-07 0.100613)
(2.9474e-07 -1.72541e-07 0.100613)
(-3.17023e-05 -3.17091e-05 0.100614)
(-2.02718e-07 -2.09578e-07 0.100613)
(-1.44502e-07 2.7087e-07 0.100613)
(2.77706e-07 -1.43141e-07 0.100613)
(-3.16699e-05 -3.16821e-05 0.100614)
(-2.06329e-07 -2.10189e-07 0.100613)
(-1.44542e-07 2.71672e-07 0.100613)
(2.74321e-07 -1.41381e-07 0.100613)
(-3.167e-05 -3.16806e-05 0.100614)
(-2.06937e-07 -2.09852e-07 0.100613)
(-1.45376e-07 2.72308e-07 0.100613)
(2.73173e-07 -1.4067e-07 0.100613)
(-3.16705e-05 -3.16812e-05 0.100614)
(-2.07419e-07 -2.10229e-07 0.100613)
(-1.44315e-07 2.71396e-07 0.100613)
(2.73123e-07 -1.40657e-07 0.100613)
(-3.16705e-05 -3.16805e-05 0.100614)
(-2.06865e-07 -2.09818e-07 0.100613)
(-1.45249e-07 2.71895e-07 0.100613)
(2.73696e-07 -1.41933e-07 0.100613)
(-3.16715e-05 -3.16813e-05 0.100614)
(-2.07581e-07 -2.09993e-07 0.100613)
(-1.43826e-07 2.70993e-07 0.100613)
(2.71867e-07 -1.40106e-07 0.100613)
(-3.16702e-05 -3.168e-05 0.100614)
(-2.0832e-07 -2.0953e-07 0.100613)
(-1.43073e-07 2.71045e-07 0.100613)
(2.71609e-07 -1.39862e-07 0.100613)
(-3.16685e-05 -3.16796e-05 0.100614)
(-2.09711e-07 -2.10056e-07 0.100613)
(-1.45191e-07 2.70758e-07 0.100613)
(2.69339e-07 -1.44634e-07 0.100613)
(-3.16641e-05 -3.16777e-05 0.100614)
(-3.40379e-07 -3.34867e-07 0.100613)
(-7.9777e-08 2.15957e-07 0.100613)
(2.08518e-07 -7.65133e-08 0.100613)
(-3.15454e-05 -3.15534e-05 0.100614)
(-4.70746e-06 -4.65288e-06 0.100609)
(1.14619e-06 5.37157e-07 0.100611)
(4.93864e-07 1.16442e-06 0.100611)
(-2.39097e-05 -2.38925e-05 0.100614)
(-4.78365e-05 -4.77014e-05 0.100531)
(4.50624e-05 -3.31159e-05 0.100533)
(-3.31983e-05 4.50489e-05 0.100533)
(4.87085e-05 4.8747e-05 0.100542)
(-2.40672e-07 1.13362e-07 0.100613)
(3.25643e-05 -3.25422e-05 0.100614)
(-1.04185e-07 2.34125e-07 0.100613)
(-3.25149e-05 -3.24639e-05 0.100614)
(2.43208e-07 9.60937e-08 0.100613)
(-2.65565e-07 1.20924e-07 0.100613)
(2.90351e-07 1.86551e-07 0.100613)
(-2.96307e-07 1.83642e-07 0.100613)
(-3.16218e-05 3.15943e-05 0.100614)
(3.25079e-05 -3.24868e-05 0.100614)
(1.61897e-07 3.03428e-07 0.100613)
(1.64726e-07 -2.95606e-07 0.100613)
(-1.04938e-07 -2.36315e-07 0.100613)
(-1.77299e-07 2.88793e-07 0.100613)
(-1.94877e-07 -2.92401e-07 0.100613)
(-3.24758e-05 3.24994e-05 0.100614)
(-2.36343e-07 -1.00359e-07 0.100613)
(2.81445e-07 -1.79595e-07 0.100613)
(-2.98802e-07 -1.8729e-07 0.100613)
(3.24723e-05 3.25016e-05 0.100614)
(3.17064e-05 3.16921e-05 0.100614)
(-3.2529e-05 -3.25132e-05 0.100614)
(2.93302e-07 1.7623e-07 0.100613)
(-2.87834e-07 1.74624e-07 0.100613)
(2.84044e-07 1.46314e-07 0.100613)
(-2.7718e-07 1.54153e-07 0.100613)
(-3.16996e-05 3.16727e-05 0.100614)
(3.25355e-05 -3.25131e-05 0.100614)
(1.73081e-07 2.89041e-07 0.100613)
(1.79669e-07 -2.99669e-07 0.100613)
(1.52821e-07 2.72568e-07 0.100613)
(1.57039e-07 -2.83341e-07 0.100613)
(-1.83974e-07 -2.89695e-07 0.100613)
(-1.46207e-07 2.71972e-07 0.100613)
(-1.58536e-07 -2.77159e-07 0.100613)
(3.16966e-05 -3.17295e-05 0.100614)
(-3.25031e-05 3.25359e-05 0.100614)
(-2.87904e-07 -1.81291e-07 0.100613)
(2.81227e-07 -1.44793e-07 0.100613)
(-2.69871e-07 -1.60089e-07 0.100613)
(3.25116e-05 3.25319e-05 0.100614)
(3.16832e-05 3.16589e-05 0.100614)
(-3.2535e-05 -3.25133e-05 0.100614)
(2.80736e-07 1.47243e-07 0.100613)
(-2.76662e-07 1.5224e-07 0.100613)
(2.78858e-07 1.44349e-07 0.100613)
(-2.76673e-07 1.51908e-07 0.100613)
(-3.16787e-05 3.16526e-05 0.100614)
(3.25367e-05 -3.25144e-05 0.100614)
(1.4923e-07 2.72289e-07 0.100613)
(1.50815e-07 -2.80927e-07 0.100613)
(1.44413e-07 2.72107e-07 0.100613)
(1.47339e-07 -2.77334e-07 0.100613)
(-1.56357e-07 -2.75558e-07 0.100613)
(-1.43712e-07 2.71002e-07 0.100613)
(-1.56086e-07 -2.74771e-07 0.100613)
(3.16611e-05 -3.16914e-05 0.100614)
(-3.25103e-05 3.25399e-05 0.100614)
(-2.68981e-07 -1.57772e-07 0.100613)
(2.73739e-07 -1.39969e-07 0.100613)
(-2.69879e-07 -1.56153e-07 0.100613)
(3.25131e-05 3.25354e-05 0.100614)
(3.16796e-05 3.16598e-05 0.100614)
(-3.25344e-05 -3.2512e-05 0.100614)
(2.78906e-07 1.48203e-07 0.100613)
(-2.7759e-07 1.51884e-07 0.100613)
(2.79997e-07 1.46115e-07 0.100613)
(-2.78989e-07 1.5316e-07 0.100613)
(-3.16788e-05 3.16525e-05 0.100614)
(3.2535e-05 -3.25129e-05 0.100614)
(1.45424e-07 2.73974e-07 0.100613)
(1.46736e-07 -2.80574e-07 0.100613)
(1.4455e-07 2.74363e-07 0.100613)
(1.47588e-07 -2.77039e-07 0.100613)
(-1.55421e-07 -2.73919e-07 0.100613)
(-1.45339e-07 2.73083e-07 0.100613)
(-1.57073e-07 -2.75195e-07 0.100613)
(3.1656e-05 -3.16881e-05 0.100614)
(-3.25097e-05 3.25374e-05 0.100614)
(-2.69498e-07 -1.55233e-07 0.100613)
(2.7365e-07 -1.40293e-07 0.100613)
(-2.71191e-07 -1.56397e-07 0.100613)
(3.2512e-05 3.25343e-05 0.100614)
(3.16799e-05 3.16607e-05 0.100614)
(-3.25365e-05 -3.25135e-05 0.100614)
(2.77484e-07 1.48076e-07 0.100613)
(-2.78654e-07 1.53005e-07 0.100613)
(2.77372e-07 1.44753e-07 0.100613)
(-2.77869e-07 1.52339e-07 0.100613)
(-3.16802e-05 3.16536e-05 0.100614)
(3.25369e-05 -3.25142e-05 0.100614)
(1.44871e-07 2.7326e-07 0.100613)
(1.47028e-07 -2.80449e-07 0.100613)
(1.43367e-07 2.72274e-07 0.100613)
(1.46529e-07 -2.76469e-07 0.100613)
(-1.57134e-07 -2.74597e-07 0.100613)
(-1.44167e-07 2.72106e-07 0.100613)
(-1.56535e-07 -2.74386e-07 0.100613)
(3.16556e-05 -3.1688e-05 0.100614)
(-3.25109e-05 3.25389e-05 0.100614)
(-2.70527e-07 -1.55914e-07 0.100613)
(2.72946e-07 -1.39314e-07 0.100613)
(-2.70582e-07 -1.55715e-07 0.100613)
(3.25126e-05 3.25356e-05 0.100614)
(3.16785e-05 3.16598e-05 0.100614)
(-3.25359e-05 -3.25129e-05 0.100614)
(2.77063e-07 1.47859e-07 0.100613)
(-2.77303e-07 1.51495e-07 0.100613)
(2.79051e-07 1.45837e-07 0.100613)
(-2.78461e-07 1.52984e-07 0.100613)
(-3.1679e-05 3.16531e-05 0.100614)
(3.25362e-05 -3.25141e-05 0.100614)
(1.44201e-07 2.73208e-07 0.100613)
(1.45743e-07 -2.80114e-07 0.100613)
(1.44708e-07 2.73826e-07 0.100613)
(1.47751e-07 -2.77356e-07 0.100613)
(-1.55922e-07 -2.73198e-07 0.100613)
(-1.4559e-07 2.7263e-07 0.100613)
(-1.58059e-07 -2.75194e-07 0.100613)
(3.16552e-05 -3.16871e-05 0.100614)
(-3.25104e-05 3.25382e-05 0.100614)
(-2.69442e-07 -1.54972e-07 0.100613)
(2.74128e-07 -1.41364e-07 0.100613)
(-2.71647e-07 -1.56969e-07 0.100613)
(3.25123e-05 3.25356e-05 0.100614)
(3.16802e-05 3.16615e-05 0.100614)
(-3.25366e-05 -3.25134e-05 0.100614)
(2.78302e-07 1.48881e-07 0.100613)
(-2.78263e-07 1.52276e-07 0.100613)
(2.77154e-07 1.44862e-07 0.100613)
(-2.77296e-07 1.5186e-07 0.100613)
(-3.16804e-05 3.16538e-05 0.100614)
(3.25363e-05 -3.25143e-05 0.100614)
(1.45177e-07 2.7439e-07 0.100613)
(1.46541e-07 -2.80845e-07 0.100613)
(1.43181e-07 2.72172e-07 0.100613)
(1.46149e-07 -2.77011e-07 0.100613)
(-1.56632e-07 -2.74149e-07 0.100613)
(-1.43831e-07 2.71284e-07 0.100613)
(-1.55976e-07 -2.7354e-07 0.100613)
(3.16562e-05 -3.16884e-05 0.100614)
(-3.25113e-05 3.2538e-05 0.100614)
(-2.70608e-07 -1.55927e-07 0.100613)
(2.72211e-07 -1.39488e-07 0.100613)
(-2.7014e-07 -1.55221e-07 0.100613)
(3.25128e-05 3.2536e-05 0.100614)
(3.16784e-05 3.16599e-05 0.100614)
(-3.25372e-05 -3.25142e-05 0.100614)
(2.77073e-07 1.479e-07 0.100613)
(-2.77171e-07 1.51123e-07 0.100613)
(2.76969e-07 1.44513e-07 0.100613)
(-2.77759e-07 1.5079e-07 0.100613)
(-3.1679e-05 3.16524e-05 0.100614)
(3.2537e-05 -3.25146e-05 0.100614)
(1.43978e-07 2.73509e-07 0.100613)
(1.44883e-07 -2.77201e-07 0.100613)
(1.422e-07 2.72006e-07 0.100613)
(1.4507e-07 -2.76784e-07 0.100613)
(-1.55132e-07 -2.72816e-07 0.100613)
(-1.43256e-07 2.71635e-07 0.100613)
(-1.54779e-07 -2.73407e-07 0.100613)
(3.16542e-05 -3.16863e-05 0.100614)
(-3.25125e-05 3.25401e-05 0.100614)
(-2.69307e-07 -1.54226e-07 0.100613)
(2.7186e-07 -1.38731e-07 0.100613)
(-2.70138e-07 -1.53145e-07 0.100613)
(3.25143e-05 3.25369e-05 0.100614)
(3.1678e-05 3.16594e-05 0.100614)
(-3.2534e-05 -3.25148e-05 0.100614)
(2.76108e-07 1.46772e-07 0.100613)
(-2.77125e-07 1.49593e-07 0.100613)
(2.75717e-07 1.44023e-07 0.100613)
(-2.78456e-07 1.50548e-07 0.100613)
(-3.16781e-05 3.16523e-05 0.100614)
(3.25377e-05 -3.2513e-05 0.100614)
(1.42445e-07 2.72919e-07 0.100613)
(1.44481e-07 -2.77483e-07 0.100613)
(1.43727e-07 2.70914e-07 0.100613)
(1.47086e-07 -2.75337e-07 0.100613)
(-1.53204e-07 -2.73144e-07 0.100613)
(-1.44243e-07 2.70541e-07 0.100613)
(-1.51522e-07 -2.73579e-07 0.100613)
(3.16535e-05 -3.1685e-05 0.100614)
(-3.25127e-05 3.25422e-05 0.100614)
(-2.69939e-07 -1.51471e-07 0.100613)
(2.69502e-07 -1.40322e-07 0.100613)
(-2.70038e-07 -1.46044e-07 0.100613)
(3.25148e-05 3.25348e-05 0.100614)
(3.16739e-05 3.16584e-05 0.100614)
(-3.2563e-05 -3.25397e-05 0.100614)
(2.73305e-07 1.54717e-07 0.100613)
(-2.74273e-07 1.54305e-07 0.100613)
(2.33528e-07 1.2766e-07 0.100613)
(-2.38657e-07 1.33515e-07 0.100613)
(-3.1676e-05 3.16485e-05 0.100614)
(3.25697e-05 -3.25391e-05 0.100614)
(1.46383e-07 2.71968e-07 0.100613)
(1.49399e-07 -2.74761e-07 0.100613)
(1.14442e-07 2.34354e-07 0.100613)
(1.27192e-07 -2.35456e-07 0.100613)
(-1.49508e-07 -2.68931e-07 0.100613)
(-1.26061e-07 2.3259e-07 0.100613)
(-1.21315e-07 -2.37568e-07 0.100613)
(3.16517e-05 -3.16821e-05 0.100614)
(-3.25473e-05 3.25684e-05 0.100614)
(-2.67719e-07 -1.47057e-07 0.100613)
(2.27516e-07 -1.16804e-07 0.100613)
(-2.38296e-07 -1.17367e-07 0.100613)
(3.25348e-05 3.25652e-05 0.100614)
(3.15473e-05 3.15388e-05 0.100614)
(-3.09474e-05 -3.08957e-05 0.100615)
(2.08951e-07 8.63683e-08 0.100613)
(-2.18725e-07 8.97062e-08 0.100613)
(-1.90002e-06 -2.62867e-06 0.100614)
(1.87853e-06 -2.62713e-06 0.100614)
(-3.15503e-05 3.15364e-05 0.100614)
(3.0906e-05 -3.08899e-05 0.100615)
(7.72898e-08 2.08941e-07 0.100613)
(7.61806e-08 -2.09722e-07 0.100613)
(-2.65322e-06 -1.87682e-06 0.100614)
(-2.65646e-06 1.8923e-06 0.100614)
(-8.55674e-08 -2.04352e-07 0.100613)
(2.63573e-06 -1.85932e-06 0.100614)
(2.63661e-06 1.8926e-06 0.100614)
(3.15343e-05 -3.15579e-05 0.100614)
(-3.09259e-05 3.09169e-05 0.100615)
(-2.09547e-07 -7.65538e-08 0.100613)
(-1.88734e-06 2.64077e-06 0.100614)
(1.87669e-06 2.64089e-06 0.100614)
(3.08993e-05 3.09218e-05 0.100615)
(2.38617e-05 2.39265e-05 0.100614)
(-5.00164e-05 -4.98415e-05 0.100574)
(4.74123e-07 -1.13867e-06 0.100611)
(-5.09807e-07 -1.13076e-06 0.100611)
(-3.75595e-05 -6.3765e-05 0.100579)
(3.75539e-05 -6.38028e-05 0.100579)
(-2.39148e-05 2.39376e-05 0.100614)
(5.00004e-05 -4.98653e-05 0.100574)
(-1.17984e-06 5.06768e-07 0.100611)
(-1.16365e-06 -4.74794e-07 0.100611)
(-6.39525e-05 -3.7441e-05 0.100579)
(-6.39042e-05 3.75535e-05 0.100579)
(1.14787e-06 -4.74654e-07 0.100611)
(6.39261e-05 -3.7445e-05 0.100579)
(6.38965e-05 3.75681e-05 0.100579)
(2.38632e-05 -2.39059e-05 0.100614)
(-4.99639e-05 4.99989e-05 0.100574)
(-4.95624e-07 1.16935e-06 0.100611)
(-3.75275e-05 6.39048e-05 0.100579)
(3.75335e-05 6.39537e-05 0.100579)
(4.99701e-05 5.00134e-05 0.100574)
(-4.87553e-05 -4.85857e-05 0.100542)
(-3.32294e-05 -4.49064e-05 0.100533)
(3.32245e-05 -4.49387e-05 0.100533)
(4.8749e-05 -4.85907e-05 0.100542)
(-4.5091e-05 -3.31133e-05 0.100533)
(-4.5044e-05 3.32151e-05 0.100533)
(4.78293e-05 -4.77014e-05 0.100531)
(-4.78128e-05 4.78299e-05 0.100531)
(4.78262e-05 4.7848e-05 0.100531)
(4.50425e-05 3.32296e-05 0.100533)
(-4.86947e-05 4.87362e-05 0.100542)
(3.32073e-05 4.50924e-05 0.100533)
(-6.87688e-08 -3.96504e-06 0.100487)
(3.84038e-07 3.14197e-06 0.0992262)
(-6.02807e-09 3.91261e-06 0.100487)
(-3.03023e-07 -3.83478e-06 0.0992267)
(-2.55752e-07 -5.31428e-08 0.095911)
(1.79592e-07 -8.50066e-08 0.0959128)
(-3.94791e-06 -3.2456e-08 0.100488)
(-3.82249e-06 -3.19062e-07 0.0992265)
(2.37536e-07 -2.31852e-07 0.100613)
(2.41099e-07 2.27703e-07 0.100613)
(-1.99039e-07 -1.7916e-07 0.100613)
(1.85486e-07 -1.81841e-07 0.100613)
(-2.04868e-07 2.02163e-07 0.100613)
(1.8882e-07 1.79779e-07 0.100613)
(8.06243e-06 -1.28628e-09 0.100601)
(-6.15293e-06 1.8249e-06 0.100518)
(-1.2511e-07 -9.74346e-08 0.100613)
(-1.40888e-07 2.98843e-07 0.100613)
(-7.89632e-06 1.60797e-08 0.100602)
(6.15116e-06 -1.96267e-06 0.100518)
(-1.45748e-07 -6.63671e-08 0.100613)
(-1.55396e-06 1.0911e-06 0.0959094)
(-5.99844e-08 8.07301e-06 0.100602)
(-8.85812e-08 -1.15551e-07 0.100613)
(2.29971e-07 -9.1626e-08 0.100613)
(3.49528e-08 -7.89631e-06 0.100602)
(-1.0066e-07 -1.22452e-07 0.100613)
(-2.3278e-06 6.31182e-06 0.100518)
(-2.02346e-06 -2.24006e-06 0.100345)
(-2.23663e-06 -2.01802e-06 0.100345)
(3.25235e-05 3.25546e-05 0.100613)
(1.57335e-06 2.36227e-06 0.100345)
(2.35567e-06 1.57712e-06 0.100345)
(2.30756e-09 -3.9206e-06 0.100488)
(3.96989e-07 3.70532e-06 0.0992262)
(2.81258e-08 3.90623e-06 0.100487)
(-5.13788e-07 -3.40136e-06 0.0992264)
(-7.76297e-07 9.24467e-07 0.0959085)
(7.34544e-07 -8.30902e-07 0.0959089)
(-3.93043e-06 -5.5604e-09 0.100488)
(4.03194e-06 2.94773e-07 0.0992263)
(3.90174e-06 4.08738e-08 0.100487)
(-3.27761e-06 -5.527e-07 0.0992263)
(1.97794e-07 -1.92932e-07 0.100613)
(-1.81811e-07 1.85955e-07 0.100613)
(1.97915e-07 1.82502e-07 0.100613)
(-2.00203e-07 -2.07822e-07 0.100613)
(2.10386e-07 -2.037e-07 0.100613)
(-1.95735e-07 2.03368e-07 0.100613)
(2.1682e-07 1.95955e-07 0.100613)
(7.89703e-06 -4.23504e-08 0.100602)
(-6.37598e-06 2.07894e-06 0.100518)
(-2.08212e-07 -8.49765e-08 0.100613)
(-1.57156e-07 2.76274e-07 0.100613)
(-8.09592e-06 3.63424e-08 0.100602)
(6.14879e-06 -2.06606e-06 0.100518)
(-1.91047e-07 -8.71232e-08 0.100613)
(1.86305e-06 -1.33019e-06 0.0959103)
(-6.17288e-07 6.28415e-07 0.0959087)
(-2.1387e-08 7.88782e-06 0.100602)
(-7.3569e-08 -2.07822e-07 0.100613)
(2.25938e-06 -6.45721e-06 0.100518)
(2.92367e-07 -1.58523e-07 0.100613)
(5.10022e-08 -8.09237e-06 0.100602)
(-7.06982e-08 -1.96339e-07 0.100613)
(-2.01264e-06 6.13996e-06 0.100518)
(-1.66622e-06 -2.36054e-06 0.100345)
(-2.36306e-06 -1.6602e-06 0.100345)
(3.25019e-05 3.25228e-05 0.100614)
(1.77657e-06 2.21944e-06 0.100345)
(2.21573e-06 1.77118e-06 0.100345)
(-5.74107e-09 -3.93453e-06 0.100488)
(4.89448e-07 3.47051e-06 0.099226)
(8.0959e-09 3.88578e-06 0.100487)
(-5.07869e-07 -3.41852e-06 0.0992263)
(-7.87524e-07 8.62196e-07 0.0959085)
(7.28343e-07 -8.39509e-07 0.0959088)
(-3.95366e-06 -1.07465e-08 0.100488)
(3.45969e-06 4.72865e-07 0.0992259)
(3.9082e-06 6.90449e-09 0.100487)
(-3.40911e-06 -5.04548e-07 0.0992262)
(2.11124e-07 -2.04219e-07 0.100613)
(-1.99039e-07 2.06449e-07 0.100613)
(2.18908e-07 1.97833e-07 0.100613)
(-2.06356e-07 -2.10068e-07 0.100613)
(2.11426e-07 -2.04909e-07 0.100613)
(-2.03487e-07 2.09652e-07 0.100613)
(2.19367e-07 1.99833e-07 0.100613)
(7.91938e-06 -3.89847e-08 0.100602)
(-6.31172e-06 2.02665e-06 0.100518)
(-1.72849e-07 -8.64364e-08 0.100613)
(-1.43086e-07 2.70632e-07 0.100613)
(-7.98212e-06 3.67733e-08 0.100602)
(6.16362e-06 -2.06908e-06 0.100518)
(-1.70235e-07 -8.67139e-08 0.100613)
(8.12348e-07 -7.65331e-07 0.0959079)
(-7.96545e-07 7.09542e-07 0.0959085)
(-3.6744e-08 7.91538e-06 0.100602)
(-8.08923e-08 -1.74075e-07 0.100613)
(2.04412e-06 -6.32984e-06 0.100518)
(2.75598e-07 -1.40386e-07 0.100613)
(4.04315e-08 -7.97838e-06 0.100602)
(-8.25815e-08 -1.7357e-07 0.100613)
(-2.08057e-06 6.18243e-06 0.100518)
(-1.80064e-06 -2.28149e-06 0.100345)
(-2.27497e-06 -1.79873e-06 0.100345)
(3.25145e-05 3.25361e-05 0.100614)
(1.78096e-06 2.22842e-06 0.100345)
(2.22551e-06 1.77642e-06 0.100345)
(-6.62204e-09 -3.93609e-06 0.100488)
(4.85772e-07 3.47131e-06 0.099226)
(5.44882e-09 3.88422e-06 0.100487)
(-5.0922e-07 -3.41821e-06 0.0992263)
(-7.85655e-07 8.60192e-07 0.0959085)
(7.27779e-07 -8.40341e-07 0.0959088)
(-3.95546e-06 -9.96163e-09 0.100488)
(3.46031e-06 4.75319e-07 0.0992259)
(3.90308e-06 8.73459e-09 0.100487)
(-3.40966e-06 -5.03619e-07 0.0992262)
(2.11185e-07 -2.04566e-07 0.100613)
(-2.0377e-07 2.0974e-07 0.100613)
(2.19337e-07 2.00002e-07 0.100613)
(-2.07164e-07 -2.09404e-07 0.100613)
(2.1032e-07 -2.04327e-07 0.100613)
(-2.04434e-07 2.09791e-07 0.100613)
(2.18092e-07 1.99952e-07 0.100613)
(7.92012e-06 -3.82806e-08 0.100602)
(-6.31071e-06 2.02692e-06 0.100518)
(-1.72219e-07 -8.58046e-08 0.100613)
(-1.44503e-07 2.71882e-07 0.100613)
(-7.98092e-06 3.7725e-08 0.100602)
(6.16354e-06 -2.06874e-06 0.100518)
(-1.72151e-07 -8.57698e-08 0.100613)
(8.21711e-07 -7.69538e-07 0.0959079)
(-7.97718e-07 7.11219e-07 0.0959085)
(-3.77431e-08 7.91674e-06 0.100602)
(-8.39053e-08 -1.70606e-07 0.100613)
(2.03941e-06 -6.32821e-06 0.100518)
(2.73423e-07 -1.398e-07 0.100613)
(3.73917e-08 -7.97567e-06 0.100602)
(-8.41406e-08 -1.72399e-07 0.100613)
(-2.08186e-06 6.18291e-06 0.100518)
(-1.79957e-06 -2.28006e-06 0.100345)
(-2.27518e-06 -1.7963e-06 0.100345)
(3.25144e-05 3.25368e-05 0.100614)
(1.78111e-06 2.23032e-06 0.100345)
(2.22601e-06 1.77734e-06 0.100345)
(-6.50558e-09 -3.93494e-06 0.100488)
(4.85528e-07 3.47135e-06 0.099226)
(5.43971e-09 3.8837e-06 0.100487)
(-5.09922e-07 -3.41785e-06 0.0992263)
(-7.87213e-07 8.59571e-07 0.0959085)
(7.27084e-07 -8.40229e-07 0.0959088)
(-3.95466e-06 -9.72303e-09 0.100488)
(3.45981e-06 4.77379e-07 0.0992259)
(3.90333e-06 8.84424e-09 0.100487)
(-3.40971e-06 -5.02567e-07 0.0992262)
(2.10291e-07 -2.04097e-07 0.100613)
(-2.04099e-07 2.09847e-07 0.100613)
(2.18332e-07 2.00056e-07 0.100613)
(-2.07744e-07 -2.09683e-07 0.100613)
(2.10575e-07 -2.04616e-07 0.100613)
(-2.05005e-07 2.0996e-07 0.100613)
(2.18317e-07 2.00225e-07 0.100613)
(7.91937e-06 -3.87282e-08 0.100602)
(-6.31105e-06 2.02722e-06 0.100518)
(-1.73763e-07 -8.5444e-08 0.100613)
(-1.45126e-07 2.7255e-07 0.100613)
(-7.9813e-06 3.78196e-08 0.100602)
(6.1633e-06 -2.06837e-06 0.100518)
(-1.72521e-07 -8.57472e-08 0.100613)
(8.21878e-07 -7.70269e-07 0.0959079)
(-7.96814e-07 7.11258e-07 0.0959085)
(-3.76049e-08 7.91537e-06 0.100602)
(-8.44867e-08 -1.70339e-07 0.100613)
(2.03958e-06 -6.32874e-06 0.100518)
(2.73215e-07 -1.40164e-07 0.100613)
(3.77458e-08 -7.97664e-06 0.100602)
(-8.4686e-08 -1.72264e-07 0.100613)
(-2.08156e-06 6.18198e-06 0.100518)
(-1.80009e-06 -2.28076e-06 0.100345)
(-2.27665e-06 -1.79625e-06 0.100345)
(3.25141e-05 3.25365e-05 0.100614)
(1.78002e-06 2.23001e-06 0.100345)
(2.22532e-06 1.77638e-06 0.100345)
(-6.88637e-09 -3.93586e-06 0.100488)
(4.85958e-07 3.47177e-06 0.099226)
(5.35937e-09 3.88514e-06 0.100487)
(-5.09887e-07 -3.4186e-06 0.0992263)
(-7.87737e-07 8.58992e-07 0.0959085)
(7.27286e-07 -8.41099e-07 0.0959088)
(-3.95634e-06 -9.69747e-09 0.100488)
(3.46024e-06 4.76345e-07 0.0992259)
(3.90337e-06 9.07058e-09 0.100487)
(-3.41012e-06 -5.03833e-07 0.0992262)
(2.1078e-07 -2.04545e-07 0.100613)
(-2.04838e-07 2.10165e-07 0.100613)
(2.18995e-07 2.00463e-07 0.100613)
(-2.07495e-07 -2.09944e-07 0.100613)
(2.1059e-07 -2.04678e-07 0.100613)
(-2.04856e-07 2.10038e-07 0.100613)
(2.18366e-07 2.00124e-07 0.100613)
(7.92044e-06 -3.81118e-08 0.100602)
(-6.31071e-06 2.02705e-06 0.100518)
(-1.7235e-07 -8.55131e-08 0.100613)
(-1.44427e-07 2.71603e-07 0.100613)
(-7.98087e-06 3.79695e-08 0.100602)
(6.16422e-06 -2.06889e-06 0.100518)
(-1.71802e-07 -8.59664e-08 0.100613)
(8.2143e-07 -7.70513e-07 0.0959079)
(-7.98676e-07 7.10543e-07 0.0959085)
(-3.84957e-08 7.91837e-06 0.100602)
(-8.45742e-08 -1.70109e-07 0.100613)
(2.03928e-06 -6.32849e-06 0.100518)
(2.7286e-07 -1.40125e-07 0.100613)
(3.74769e-08 -7.97608e-06 0.100602)
(-8.49513e-08 -1.72156e-07 0.100613)
(-2.08239e-06 6.18368e-06 0.100518)
(-1.79982e-06 -2.28058e-06 0.100345)
(-2.27643e-06 -1.79568e-06 0.100345)
(3.25145e-05 3.25377e-05 0.100614)
(1.78125e-06 2.23016e-06 0.100345)
(2.22551e-06 1.77791e-06 0.100345)
(-7.30292e-09 -3.93562e-06 0.100488)
(4.85255e-07 3.47089e-06 0.099226)
(4.78979e-09 3.88389e-06 0.100487)
(-5.09549e-07 -3.41801e-06 0.0992263)
(-7.86999e-07 8.59849e-07 0.0959085)
(7.27797e-07 -8.398e-07 0.0959088)
(-3.95492e-06 -9.75048e-09 0.100488)
(3.45951e-06 4.76023e-07 0.0992259)
(3.90278e-06 9.00322e-09 0.100487)
(-3.40963e-06 -5.03017e-07 0.0992262)
(2.1043e-07 -2.04304e-07 0.100613)
(-2.04499e-07 2.09692e-07 0.100613)
(2.18608e-07 2.00001e-07 0.100613)
(-2.07772e-07 -2.09671e-07 0.100613)
(2.10451e-07 -2.04252e-07 0.100613)
(-2.05025e-07 2.0998e-07 0.100613)
(2.1831e-07 2.00271e-07 0.100613)
(7.9201e-06 -3.85101e-08 0.100602)
(-6.31094e-06 2.02707e-06 0.100518)
(-1.73015e-07 -8.55545e-08 0.100613)
(-1.44907e-07 2.72293e-07 0.100613)
(-7.98154e-06 3.81424e-08 0.100602)
(6.1636e-06 -2.06874e-06 0.100518)
(-1.71649e-07 -8.56813e-08 0.100613)
(8.21474e-07 -7.71018e-07 0.0959079)
(-7.97545e-07 7.10765e-07 0.0959085)
(-4.02843e-08 7.92054e-06 0.100602)
(-8.45833e-08 -1.71053e-07 0.100613)
(2.03871e-06 -6.32874e-06 0.100518)
(2.73627e-07 -1.40562e-07 0.100613)
(3.74151e-08 -7.97853e-06 0.100602)
(-8.46699e-08 -1.72072e-07 0.100613)
(-2.08215e-06 6.18296e-06 0.100518)
(-1.79964e-06 -2.2796e-06 0.100345)
(-2.27559e-06 -1.79618e-06 0.100345)
(3.2514e-05 3.25372e-05 0.100614)
(1.78057e-06 2.23e-06 0.100345)
(2.22511e-06 1.77692e-06 0.100345)
(-6.83187e-09 -3.93426e-06 0.100488)
(4.85879e-07 3.47153e-06 0.099226)
(4.95449e-09 3.88543e-06 0.100487)
(-5.08854e-07 -3.41795e-06 0.0992263)
(-7.87209e-07 8.59667e-07 0.0959085)
(7.27408e-07 -8.40264e-07 0.0959088)
(-3.95439e-06 -9.72473e-09 0.100488)
(3.45986e-06 4.76567e-07 0.0992259)
(3.90418e-06 8.78783e-09 0.100487)
(-3.40957e-06 -5.02318e-07 0.0992262)
(2.1074e-07 -2.04234e-07 0.100613)
(-2.04937e-07 2.10313e-07 0.100613)
(2.18709e-07 2.00307e-07 0.100613)
(-2.08833e-07 -2.09871e-07 0.100613)
(2.10355e-07 -2.0537e-07 0.100613)
(-2.05667e-07 2.10196e-07 0.100613)
(2.17268e-07 2.01603e-07 0.100613)
(7.91996e-06 -3.86869e-08 0.100602)
(-6.31122e-06 2.02756e-06 0.100518)
(-1.70907e-07 -8.54932e-08 0.100613)
(-1.42868e-07 2.70856e-07 0.100613)
(-7.98156e-06 3.77212e-08 0.100602)
(6.16365e-06 -2.06856e-06 0.100518)
(-1.6987e-07 -8.56437e-08 0.100613)
(8.21724e-07 -7.70397e-07 0.0959079)
(-7.97486e-07 7.11039e-07 0.0959085)
(-3.92828e-08 7.92009e-06 0.100602)
(-8.49304e-08 -1.68387e-07 0.100613)
(2.03943e-06 -6.32893e-06 0.100518)
(2.71412e-07 -1.38051e-07 0.100613)
(3.7755e-08 -7.97905e-06 0.100602)
(-8.49938e-08 -1.69897e-07 0.100613)
(-2.08183e-06 6.18263e-06 0.100518)
(-1.80074e-06 -2.28147e-06 0.100345)
(-2.27715e-06 -1.7965e-06 0.100345)
(3.25156e-05 3.25388e-05 0.100614)
(1.78027e-06 2.22938e-06 0.100345)
(2.22434e-06 1.77731e-06 0.100345)
(-7.23747e-09 -3.93593e-06 0.100488)
(4.86291e-07 3.47102e-06 0.099226)
(4.86291e-09 3.88433e-06 0.100487)
(-5.10248e-07 -3.4178e-06 0.0992263)
(-7.87598e-07 8.58912e-07 0.0959085)
(7.27202e-07 -8.40174e-07 0.0959088)
(-3.95542e-06 -9.17272e-09 0.100488)
(3.45813e-06 4.77264e-07 0.0992259)
(3.9029e-06 9.09161e-09 0.100487)
(-3.40266e-06 -5.00799e-07 0.0992262)
(2.09883e-07 -2.05537e-07 0.100613)
(-2.05627e-07 2.1002e-07 0.100613)
(2.16561e-07 2.01858e-07 0.100613)
(-2.08161e-07 -2.07414e-07 0.100613)
(2.08542e-07 -2.05934e-07 0.100613)
(-2.06964e-07 2.09542e-07 0.100613)
(2.05756e-07 2.05189e-07 0.100613)
(7.92119e-06 -3.82466e-08 0.100602)
(-6.31005e-06 2.02701e-06 0.100518)
(-1.69645e-07 -8.52799e-08 0.100613)
(-1.43459e-07 2.71689e-07 0.100613)
(-7.9801e-06 3.78418e-08 0.100602)
(6.16446e-06 -2.06885e-06 0.100518)
(-1.69222e-07 -8.5554e-08 0.100613)
(8.21183e-07 -7.70594e-07 0.0959079)
(-7.97608e-07 7.11252e-07 0.0959085)
(-3.94576e-08 7.92024e-06 0.100602)
(-8.52194e-08 -1.67102e-07 0.100613)
(2.03873e-06 -6.32821e-06 0.100518)
(2.71817e-07 -1.39281e-07 0.100613)
(3.78688e-08 -7.97717e-06 0.100602)
(-8.54211e-08 -1.69684e-07 0.100613)
(-2.08213e-06 6.18366e-06 0.100518)
(-1.79965e-06 -2.27956e-06 0.100345)
(-2.27586e-06 -1.79528e-06 0.100345)
(3.25161e-05 3.25369e-05 0.100614)
(1.7812e-06 2.23004e-06 0.100345)
(2.22448e-06 1.77804e-06 0.100345)
(-1.06167e-08 -3.93712e-06 0.100488)
(4.8451e-07 3.46757e-06 0.099226)
(3.35879e-09 3.88278e-06 0.100487)
(-5.09118e-07 -3.41477e-06 0.0992263)
(-7.8041e-07 8.55152e-07 0.0959085)
(6.92717e-07 -8.10225e-07 0.0959089)
(-3.95679e-06 -7.3747e-09 0.100488)
(3.46024e-06 4.77569e-07 0.0992259)
(3.90017e-06 9.61097e-09 0.100487)
(-3.41301e-06 -5.01577e-07 0.0992262)
(2.07965e-07 -2.04088e-07 0.100613)
(-2.07593e-07 2.09564e-07 0.100613)
(2.07269e-07 2.04653e-07 0.100613)
(-2.25679e-07 -2.23362e-07 0.100613)
(2.14681e-07 -2.17537e-07 0.100613)
(-2.23614e-07 2.25373e-07 0.100613)
(2.17855e-07 2.29372e-07 0.100613)
(7.92542e-06 -3.71703e-08 0.100602)
(-6.30949e-06 2.02742e-06 0.100518)
(-1.71921e-07 -8.51495e-08 0.100613)
(-1.48899e-07 2.65699e-07 0.100613)
(-7.97694e-06 3.78292e-08 0.100602)
(6.16756e-06 -2.0687e-06 0.100518)
(-1.64013e-07 -8.77172e-08 0.100613)
(8.23018e-07 -7.69423e-07 0.0959079)
(-8.03274e-07 7.10815e-07 0.0959085)
(-3.94546e-08 7.92356e-06 0.100602)
(-8.69925e-08 -1.66335e-07 0.100613)
(2.03693e-06 -6.3253e-06 0.100518)
(2.62799e-07 -1.40947e-07 0.100613)
(3.67019e-08 -7.97434e-06 0.100602)
(-8.79661e-08 -1.62214e-07 0.100613)
(-2.08003e-06 6.18603e-06 0.100518)
(-1.79888e-06 -2.27911e-06 0.100345)
(-2.27623e-06 -1.79362e-06 0.100345)
(3.25197e-05 3.25419e-05 0.100614)
(1.78295e-06 2.23073e-06 0.100345)
(2.22467e-06 1.78024e-06 0.100345)
(3.27468e-08 -3.89612e-06 0.100488)
(4.64264e-07 3.41712e-06 0.0992261)
(-8.038e-09 3.78909e-06 0.100487)
(-5.41882e-07 -2.88737e-06 0.0992275)
(-7.34764e-07 7.67807e-07 0.0959085)
(8.28549e-07 -8.54397e-07 0.09591)
(-3.89687e-06 3.92835e-08 0.100488)
(3.41068e-06 4.72214e-07 0.0992259)
(3.7941e-06 6.28317e-09 0.100487)
(-2.88829e-06 -5.29314e-07 0.0992274)
(3.30834e-07 -3.33631e-07 0.100613)
(-3.38051e-07 3.39634e-07 0.100613)
(3.35345e-07 3.43142e-07 0.100613)
(-2.02339e-06 -1.98852e-06 0.10061)
(1.99945e-06 -1.98447e-06 0.10061)
(-2.01085e-06 2.01348e-06 0.10061)
(2.0009e-06 2.02086e-06 0.10061)
(8.1116e-06 -1.54425e-08 0.100602)
(-6.2124e-06 1.99426e-06 0.100518)
(-4.35535e-09 -1.4188e-07 0.100613)
(1.78251e-07 -1.67289e-08 0.100614)
(-7.80888e-06 2.75564e-08 0.100602)
(6.17495e-06 -1.98799e-06 0.100519)
(1.9848e-07 -8.76642e-08 0.100613)
(8.32065e-07 -7.67909e-07 0.0959081)
(-7.18019e-07 7.2022e-07 0.0959094)
(-2.62066e-08 8.11786e-06 0.100602)
(-1.44293e-07 -4.78978e-09 0.100613)
(1.99621e-06 -6.22475e-06 0.100518)
(-2.90208e-08 1.85736e-07 0.100614)
(1.83872e-08 -7.80464e-06 0.100602)
(-1.03874e-07 2.11523e-07 0.100613)
(-2.01021e-06 6.18271e-06 0.100519)
(-1.73973e-06 -2.24808e-06 0.100345)
(-2.25615e-06 -1.72861e-06 0.100345)
(3.24979e-05 3.25249e-05 0.100614)
(1.84232e-06 2.27238e-06 0.100346)
(2.24732e-06 1.83741e-06 0.100346)
(1.4891e-05 1.36014e-06 0.100497)
(-6.74089e-07 -3.90698e-05 0.0991883)
(-3.76518e-06 -2.06645e-06 0.10049)
(2.24258e-05 0.000120691 0.0994905)
(2.25199e-06 -1.56927e-05 0.0958959)
(-2.48996e-05 7.17084e-05 0.0960122)
(1.38405e-06 1.49613e-05 0.100497)
(-3.9116e-05 -6.23102e-07 0.0991882)
(-2.06553e-06 -3.76394e-06 0.10049)
(0.000120762 2.23285e-05 0.0994905)
(4.68439e-06 -4.64615e-06 0.100609)
(-4.68218e-06 4.69869e-06 0.100609)
(4.67512e-06 4.71131e-06 0.100609)
(-2.69614e-05 -2.68668e-05 0.100556)
(2.6958e-05 -2.6867e-05 0.100556)
(-2.69431e-05 2.69666e-05 0.100556)
(2.69561e-05 2.69787e-05 0.100556)
(2.05402e-05 1.03728e-06 0.100606)
(6.39456e-06 -3.41295e-06 0.100515)
(5.27166e-06 -1.61753e-06 0.100611)
(1.7399e-05 -1.1804e-05 0.10061)
(-6.54823e-07 -7.91112e-07 0.100604)
(-1.4683e-05 3.31525e-06 0.100534)
(1.24011e-05 -2.08158e-06 0.100603)
(-1.57306e-05 2.24993e-06 0.0958955)
(7.13666e-05 -2.49221e-05 0.0960118)
(1.01385e-06 2.05297e-05 0.100606)
(-1.6484e-06 5.26882e-06 0.100611)
(-3.49265e-06 6.38154e-06 0.100515)
(-1.18452e-05 1.73997e-05 0.10061)
(-8.10622e-07 -6.48839e-07 0.100604)
(-2.12422e-06 1.23636e-05 0.100603)
(3.19662e-06 -1.46446e-05 0.100534)
(-5.51868e-06 -2.01417e-06 0.100345)
(-1.99635e-06 -5.43991e-06 0.100345)
(2.72437e-05 2.73292e-05 0.100613)
(1.09745e-05 -1.32403e-05 0.100345)
(-1.32886e-05 1.12311e-05 0.100345)
(-1.3429e-05 -0.000106075 0.100344)
(-8.41791e-05 -0.000375638 0.0985758)
(-2.30607e-05 -9.00732e-05 0.100451)
(-0.000275444 -6.23381e-05 0.100249)
(0.000205944 -0.000400646 0.095904)
(0.000131137 -0.000238606 0.0989775)
(-0.000106284 -1.36309e-05 0.100344)
(-0.000376478 -8.33336e-05 0.0985757)
(-9.0873e-05 -2.29707e-05 0.100451)
(-6.24852e-05 -0.00027545 0.100249)
(-9.40788e-06 -9.32769e-06 0.100462)
(-1.50184e-05 -4.05842e-05 0.100529)
(-4.07232e-05 -1.49305e-05 0.100529)
(-3.58666e-05 -3.57299e-05 0.100445)
(-1.23742e-05 -1.22822e-05 0.100526)
(-9.61667e-06 -3.42295e-05 0.100457)
(-3.43665e-05 -9.54243e-06 0.100457)
(9.07684e-05 9.99401e-06 0.100409)
(0.00011229 -7.06425e-05 0.10054)
(7.08744e-05 -1.99988e-05 0.100533)
(4.69188e-05 -3.74516e-05 0.100446)
(9.06066e-05 -1.03871e-05 0.10054)
(8.22338e-05 -5.83347e-05 0.100408)
(5.49586e-05 -1.25545e-05 0.100452)
(-0.000400901 0.000205564 0.0959038)
(-0.000238909 0.000131114 0.0989772)
(1.00251e-05 9.0587e-05 0.100409)
(-2.00528e-05 7.08484e-05 0.100533)
(-7.08602e-05 0.000112356 0.10054)
(-3.7571e-05 4.68997e-05 0.100446)
(-1.04078e-05 9.05267e-05 0.10054)
(-1.26074e-05 5.49334e-05 0.100452)
(-5.84123e-05 8.21375e-05 0.100408)
(0.000196438 7.42422e-05 0.100421)
(7.4214e-05 0.000196643 0.100421)
(4.52236e-05 4.5225e-05 0.100441)
(4.54497e-05 -5.19821e-05 0.100443)
(-5.18865e-05 4.52474e-05 0.100443)
(5.53912e-07 -3.7825e-06 0.0992266)
(2.24587e-06 -6.28037e-06 0.100518)
(1.12827e-06 -1.53861e-06 0.0959098)
(2.36977e-06 -1.41888e-06 0.100345)
(1.42007e-06 -2.3357e-06 0.100346)
(1.551e-06 -1.12185e-06 0.0959101)
(6.27425e-06 -2.2316e-06 0.100518)