/*--------------------------------*- C++ -*----------------------------------*\
| =========                 |                                                 |
| \\      /  F ield         | OpenFOAM: The Open Source CFD Toolbox           |
|  \\    /   O peration     | Version:  2206                                  |
|   \\  /    A nd           | Website:  www.openfoam.com                      |
|    \\/     M anipulation  |                                                 |
\*---------------------------------------------------------------------------*/
FoamFile
{
    version     2.0;
    format      ascii;
    arch        "LSB;label=32;scalar=64";
    class       volVectorField;
    location    "4";
    object      U;
}
// * * * * * * * * * * * * * * * * * * * * * * * * * * * * * * * * * * * * * //

dimensions      [0 1 -1 0 0 0 0];

internalField   nonuniform List<vector> 
28755
(
(-0.000157833 -0.000158054 8.13786e-05)
(-0.000127664 8.26346e-05 2.18482e-05)
(8.21687e-05 -0.000127219 2.2209e-05)
(0.000334678 0.000335479 -7.87272e-05)
(-0.000157711 -0.000158671 8.35253e-05)
(-0.000127326 8.25843e-05 2.32151e-05)
(8.25491e-05 -0.000126903 2.31812e-05)
(0.000335583 0.000336285 -7.96985e-05)
(-0.000158328 -0.000158319 8.49003e-05)
(-0.000126022 8.16095e-05 2.40807e-05)
(8.22747e-05 -0.000126942 2.41875e-05)
(0.000335807 0.000336533 -8.0056e-05)
(-0.000158405 -0.000158076 8.42397e-05)
(-0.00012604 8.18508e-05 2.39253e-05)
(8.09243e-05 -0.000125528 2.41428e-05)
(0.000336282 0.000336771 -7.97957e-05)
(-0.000157728 -0.000158335 8.25103e-05)
(-0.000125832 8.11933e-05 2.28318e-05)
(8.15893e-05 -0.000125839 2.29942e-05)
(0.00033629 0.00033679 -7.88432e-05)
(-0.000158022 -0.000158268 8.16799e-05)
(-0.000125852 8.16075e-05 2.21425e-05)
(8.16221e-05 -0.000126443 2.21479e-05)
(0.000335477 0.000336288 -7.83261e-05)
(-0.000157798 -0.000158598 8.25682e-05)
(-0.000126927 8.22617e-05 2.27087e-05)
(8.2982e-05 -0.000127748 2.28057e-05)
(0.000335208 0.000335927 -7.94366e-05)
(-0.000158174 -0.000158399 8.32751e-05)
(-0.000126625 8.18387e-05 2.32209e-05)
(8.15384e-05 -0.000126165 2.34121e-05)
(0.000336522 0.000337155 -7.97252e-05)
(-0.00015881 -0.000158882 8.13273e-05)
(-0.000125713 8.187e-05 2.27739e-05)
(8.15121e-05 -0.000125416 2.29232e-05)
(0.000338971 0.000339501 -8.08211e-05)
(-0.000155129 -0.00015526 3.49421e-05)
(-0.00014389 0.000102013 -1.14976e-06)
(0.000102163 -0.000144654 -1.28304e-06)
(0.000349281 0.000350047 -8.93981e-05)
(-2.19405e-05 -2.11906e-05 -0.000367212)
(-0.000411217 0.000331622 -7.84352e-05)
(0.000328462 -0.00041129 -7.93671e-05)
(0.000373241 0.000372242 -6.61227e-05)
(0.00347023 0.00347013 -0.00532232)
(-0.00137522 0.00130204 0.00420293)
(0.00130265 -0.00137565 0.00420295)
(-0.00174108 -0.00174129 0.0026307)
(0.000264248 0.000263821 -7.86313e-05)
(8.18567e-05 0.0001269 2.45689e-05)
(-8.16755e-05 0.000126428 2.44588e-05)
(-0.000263834 0.000264507 -7.8021e-05)
(0.000126606 8.18475e-05 2.2412e-05)
(0.000126282 -8.15135e-05 2.46516e-05)
(-0.000126934 8.20814e-05 2.19323e-05)
(-0.00012707 -8.24761e-05 2.41731e-05)
(0.000264587 -0.00026394 -7.78396e-05)
(8.19562e-05 -0.000126992 2.21816e-05)
(-8.27227e-05 -0.000127813 2.19894e-05)
(-0.000264565 -0.000264913 -7.75553e-05)
(-0.000336284 -0.000335383 -7.95333e-05)
(0.000265066 0.000264882 -7.99475e-05)
(8.20123e-05 0.000127137 2.4101e-05)
(-8.22327e-05 0.000127023 2.43357e-05)
(8.22707e-05 0.000126712 2.52716e-05)
(-8.24729e-05 0.000127251 2.54922e-05)
(0.000335483 -0.000335279 -7.93798e-05)
(-0.000264802 0.000265407 -8.05927e-05)
(0.000127047 8.21567e-05 2.19061e-05)
(0.00012663 -8.18039e-05 2.46364e-05)
(0.000127664 8.25875e-05 2.29527e-05)
(0.000127715 -8.25056e-05 2.5282e-05)
(-0.00012774 -8.28353e-05 2.41775e-05)
(-0.000127682 8.28499e-05 2.29997e-05)
(-0.000127498 -8.25674e-05 2.52936e-05)
(-0.000335594 0.000335817 -7.88729e-05)
(0.000264904 -0.000264937 -7.95747e-05)
(-8.29601e-05 -0.00012798 2.21656e-05)
(8.24812e-05 -0.000127052 2.29231e-05)
(-8.2489e-05 -0.000127099 2.32051e-05)
(-0.000264698 -0.000265268 -7.98298e-05)
(-0.000336269 -0.000335154 -8.00073e-05)
(0.00026519 0.000264245 -8.09102e-05)
(8.22192e-05 0.00012668 2.54909e-05)
(-8.22833e-05 0.00012725 2.56992e-05)
(8.22623e-05 0.000126779 2.63646e-05)
(-8.19167e-05 0.000126639 2.64884e-05)
(0.000335995 -0.000335706 -8.05006e-05)
(-0.000264481 0.000264442 -8.12226e-05)
(0.000127556 8.2457e-05 2.32246e-05)
(0.000128425 -8.26406e-05 2.54317e-05)
(0.000127012 8.1994e-05 2.42198e-05)
(0.000127719 -8.25759e-05 2.65006e-05)
(-0.000127452 -8.24378e-05 2.54689e-05)
(-0.000126398 8.1882e-05 2.39887e-05)
(-0.000126988 -8.23926e-05 2.62405e-05)
(-0.000335651 0.000335602 -7.98789e-05)
(0.000265481 -0.000265143 -8.15489e-05)
(-8.2348e-05 -0.000127065 2.33106e-05)
(8.27341e-05 -0.000127322 2.40178e-05)
(-8.24085e-05 -0.000127572 2.40929e-05)
(-0.000264581 -0.000264943 -8.0578e-05)
(-0.00033665 -0.000336087 -8.04159e-05)
(0.000264751 0.000263826 -8.04152e-05)
(8.22157e-05 0.000127058 2.61542e-05)
(-8.17756e-05 0.000126912 2.65619e-05)
(8.17519e-05 0.000126867 2.61712e-05)
(-8.19602e-05 0.00012694 2.64501e-05)
(0.00033642 -0.000336624 -8.0592e-05)
(-0.000264453 0.000264569 -8.08501e-05)
(0.000126504 8.1815e-05 2.40992e-05)
(0.000127164 -8.20941e-05 2.66795e-05)
(0.000125563 8.14063e-05 2.40411e-05)
(0.000125541 -8.09732e-05 2.67604e-05)
(-0.000126847 -8.21968e-05 2.64433e-05)
(-0.000126165 8.19095e-05 2.40403e-05)
(-0.000126607 -8.18721e-05 2.64487e-05)
(-0.000336254 0.00033633 -8.0694e-05)
(0.000264012 -0.000263872 -8.04293e-05)
(-8.21725e-05 -0.000127401 2.43708e-05)
(8.10616e-05 -0.000125703 2.43622e-05)
(-8.16903e-05 -0.000126272 2.43935e-05)
(-0.000264034 -0.000264884 -8.05868e-05)
(-0.00033667 -0.000336087 -7.99234e-05)
(0.000264061 0.000263636 -7.89436e-05)
(8.16172e-05 0.000126747 2.61923e-05)
(-8.18155e-05 0.000126589 2.63817e-05)
(8.13125e-05 0.000125742 2.56581e-05)
(-8.07642e-05 0.000125501 2.59482e-05)
(0.000336083 -0.000336369 -8.04538e-05)
(-0.000263424 0.00026379 -7.94296e-05)
(0.000125737 8.14356e-05 2.40095e-05)
(0.000125708 -8.09609e-05 2.65723e-05)
(0.000126304 8.13823e-05 2.33846e-05)
(0.000126981 -8.15304e-05 2.57782e-05)
(-0.000126377 -8.15511e-05 2.62786e-05)
(-0.000125693 8.10219e-05 2.33459e-05)
(-0.000125796 -8.0911e-05 2.56402e-05)
(-0.000336725 0.000336509 -7.9577e-05)
(0.000263678 -0.000263947 -7.85979e-05)
(-8.12802e-05 -0.000125762 2.41806e-05)
(8.13143e-05 -0.000125667 2.33748e-05)
(-8.05687e-05 -0.00012501 2.35831e-05)
(-0.000262995 -0.000263838 -7.85096e-05)
(-0.000336586 -0.000335698 -7.94476e-05)
(0.000264553 0.000263892 -7.87842e-05)
(8.13926e-05 0.000125799 2.51898e-05)
(-8.09657e-05 0.000125703 2.53892e-05)
(8.1766e-05 0.000126904 2.44774e-05)
(-8.15485e-05 0.000126715 2.47037e-05)
(0.000336507 -0.000336566 -7.98255e-05)
(-0.000264087 0.000264181 -7.89929e-05)
(0.000126361 8.14229e-05 2.29555e-05)
(0.000127038 -8.16394e-05 2.53855e-05)
(0.000126287 8.16708e-05 2.23637e-05)
(0.000126117 -8.11582e-05 2.49904e-05)
(-0.000125888 -8.09128e-05 2.5313e-05)
(-0.000125823 8.15872e-05 2.23057e-05)
(-0.000126065 -8.13541e-05 2.45608e-05)
(-0.000336152 0.000335782 -7.93252e-05)
(0.000264157 -0.000263691 -7.81528e-05)
(-8.0661e-05 -0.000124997 2.33092e-05)
(8.14213e-05 -0.000126108 2.25141e-05)
(-8.14446e-05 -0.000126213 2.24359e-05)
(-0.000263731 -0.000264021 -7.70761e-05)
(-0.00033634 -0.000335488 -7.95644e-05)
(0.000264726 0.000264415 -7.93577e-05)
(8.18217e-05 0.000126909 2.44227e-05)
(-8.15373e-05 0.000126884 2.45989e-05)
(8.1935e-05 0.00012646 2.48495e-05)
(-8.16882e-05 0.000126412 2.49541e-05)
(0.000336171 -0.000336212 -7.97922e-05)
(-0.000264263 0.000264985 -7.94946e-05)
(0.000126343 8.17905e-05 2.22413e-05)
(0.000126436 -8.13775e-05 2.46317e-05)
(0.000127122 8.20964e-05 2.26038e-05)
(0.000127931 -8.28339e-05 2.46924e-05)
(-0.00012651 -8.17108e-05 2.44434e-05)
(-0.000126831 8.20493e-05 2.24179e-05)
(-0.0001279 -8.29325e-05 2.45287e-05)
(-0.000336004 0.000336099 -7.89782e-05)
(0.000265432 -0.00026504 -7.93919e-05)
(-8.17987e-05 -0.000126795 2.22719e-05)
(8.29862e-05 -0.000128002 2.22288e-05)
(-8.28698e-05 -0.000127905 2.24368e-05)
(-0.000265087 -0.000265612 -7.89721e-05)
(-0.000336585 -0.000335612 -7.98401e-05)
(0.000264833 0.000264241 -7.95709e-05)
(8.19925e-05 0.000126792 2.48699e-05)
(-8.18486e-05 0.000126633 2.51331e-05)
(8.17549e-05 0.00012654 2.56782e-05)
(-8.18247e-05 0.000126363 2.59084e-05)
(0.000336138 -0.000335852 -7.99715e-05)
(-0.000264432 0.000264974 -8.03188e-05)
(0.000127198 8.21018e-05 2.27361e-05)
(0.000128014 -8.28118e-05 2.50702e-05)
(0.000126453 8.17145e-05 2.3531e-05)
(0.00012643 -8.15214e-05 2.60943e-05)
(-0.000127826 -8.27966e-05 2.49832e-05)
(-0.000126819 8.21006e-05 2.33702e-05)
(-0.000126887 -8.19675e-05 2.57816e-05)
(-0.000335386 0.00033553 -8.00194e-05)
(0.000264673 -0.000264397 -8.01953e-05)
(-8.26915e-05 -0.000127775 2.29034e-05)
(8.16489e-05 -0.000126229 2.36837e-05)
(-8.18446e-05 -0.000126308 2.37624e-05)
(-0.00026445 -0.00026508 -8.0104e-05)
(-0.000336843 -0.000336072 -7.97524e-05)
(0.000265777 0.000265207 -7.76341e-05)
(8.18648e-05 0.00012668 2.54557e-05)
(-8.15973e-05 0.000126276 2.57643e-05)
(8.18846e-05 0.000126413 2.56704e-05)
(-8.16561e-05 0.000126099 2.58744e-05)
(0.000336641 -0.000336579 -8.03189e-05)
(-0.000265383 0.000265512 -7.79664e-05)
(0.000126487 8.18138e-05 2.32624e-05)
(0.000126508 -8.14077e-05 2.58269e-05)
(0.00012638 8.18638e-05 2.34529e-05)
(0.000126357 -8.16903e-05 2.58741e-05)
(-0.00012651 -8.16656e-05 2.57239e-05)
(-0.000125731 8.17022e-05 2.34922e-05)
(-0.000125792 -8.14256e-05 2.57184e-05)
(-0.000336795 0.000336743 -7.99089e-05)
(0.000265497 -0.000265504 -7.79446e-05)
(-8.15421e-05 -0.000126 2.36101e-05)
(8.16327e-05 -0.000125754 2.35115e-05)
(-8.12621e-05 -0.000125488 2.35835e-05)
(-0.0002651 -0.000265779 -7.76045e-05)
(-0.000339284 -0.000338548 -8.1173e-05)
(0.000272565 0.000271798 -5.26783e-05)
(8.1893e-05 0.00012603 2.51262e-05)
(-8.17771e-05 0.000125929 2.5293e-05)
(7.32093e-05 0.000112798 3.98725e-05)
(-7.27305e-05 0.000112317 4.00337e-05)
(0.000338908 -0.000339031 -8.14529e-05)
(-0.00027194 0.000271835 -5.31314e-05)
(0.000125984 8.18409e-05 2.28979e-05)
(0.000125832 -8.15172e-05 2.54125e-05)
(0.000112166 7.29186e-05 3.76496e-05)
(0.00011239 -7.25858e-05 4.00224e-05)
(-0.000125579 -8.1494e-05 2.51696e-05)
(-0.000112012 7.28837e-05 3.77699e-05)
(-0.000112102 -7.25819e-05 4.00324e-05)
(-0.000339194 0.000339006 -8.11777e-05)
(0.000271904 -0.000271866 -5.18817e-05)
(-8.13046e-05 -0.000125164 2.30059e-05)
(7.26635e-05 -0.000112077 3.77718e-05)
(-7.23198e-05 -0.000111564 3.76357e-05)
(-0.000271372 -0.00027208 -5.16992e-05)
(-0.000349665 -0.000348884 -8.98706e-05)
(0.00029537 0.000294577 0.000149827)
(0.000102533 0.000144902 1.3368e-06)
(-0.000101835 0.00014454 1.39862e-06)
(-4.95225e-05 -7.95567e-05 0.000147035)
(5.02901e-05 -8.01581e-05 0.000147211)
(0.000349679 -0.000349757 -9.03564e-05)
(-0.000294602 0.000294847 0.000150602)
(0.00014457 0.00010237 -1.29545e-06)
(0.000144944 -0.000102018 1.26308e-06)
(-7.96305e-05 -5.03091e-05 0.000144253)
(-7.87073e-05 5.00178e-05 0.000146736)
(-0.000144383 -0.000101928 1.45273e-06)
(8.05188e-05 -5.01425e-05 0.000144645)
(7.95403e-05 4.9998e-05 0.000147517)
(-0.000349245 0.00034923 -8.91885e-05)
(0.00029462 -0.000294618 0.000150244)
(-0.000101833 -0.000144338 -1.31344e-06)
(-5.04765e-05 7.95219e-05 0.000144)
(5.10143e-05 8.00483e-05 0.000143865)
(-0.000294255 -0.000295338 0.000151329)
(-0.000371695 -0.000372163 -6.69227e-05)
(0.00130336 0.00130279 0.000926005)
(0.000332216 0.000411802 -7.58276e-05)
(-0.000331243 0.00041126 -7.59214e-05)
(-0.00180728 -0.0021765 -0.00165409)
(0.00180764 -0.00217627 -0.00165382)
(0.00037238 -0.000372218 -6.63439e-05)
(-0.0013023 0.00130384 0.000926181)
(0.000410753 0.000328521 -7.85936e-05)
(0.000412901 -0.000331649 -7.63965e-05)
(-0.00217715 -0.001808 -0.00165452)
(-0.00217576 0.0018075 -0.0016539)
(-0.000412627 -0.000332096 -7.55257e-05)
(0.00217829 -0.00180702 -0.00165423)
(0.00217771 0.00180841 -0.00165249)
(-0.000372993 0.000371974 -6.67297e-05)
(0.00130359 -0.00130239 0.000925867)
(-0.000327725 -0.000410881 -7.92012e-05)
(-0.00180714 0.00217805 -0.00165432)
(0.00180932 0.00217901 -0.00165246)
(-0.00130105 -0.00130196 0.000927019)
(0.0017426 0.00174254 0.00262923)
(0.0013013 0.00137591 0.00420296)
(-0.001301 0.00137612 0.00420269)
(-0.00174225 0.00174313 0.00262864)
(0.00137574 0.00130101 0.0042034)
(0.0013767 -0.00130156 0.00420264)
(-0.00346913 0.00347089 -0.00532208)
(0.00347146 -0.00346933 -0.0053228)
(-0.00346843 -0.00346837 -0.00532223)
(-0.00137435 -0.00129991 0.00420389)
(0.00174353 -0.00174286 0.0026286)
(-0.00129958 -0.00137384 0.00420462)
(-3.36731e-05 0.000106872 1.29851e-05)
(-0.00015794 -0.000158156 8.13845e-05)
(0.000157656 -0.000158174 8.10502e-05)
(-0.000158501 0.000157894 8.1144e-05)
(0.000157964 0.000157522 8.07929e-05)
(7.57948e-05 2.12884e-05 -7.85003e-06)
(-0.000125365 8.07975e-05 2.25203e-05)
(7.10704e-05 9.82554e-05 7.21839e-06)
(-8.08609e-05 -3.27125e-05 4.36325e-05)
(-0.000264056 -0.000264111 -7.6966e-05)
(0.000108682 -3.98301e-05 1.33235e-05)
(-4.00767e-05 0.000108898 1.35275e-05)
(-5.64369e-06 0.000177183 7.22888e-06)
(-7.84371e-05 -0.000658936 1.53017e-05)
(6.74447e-07 -0.00023762 7.21162e-06)
(-6.71268e-05 0.000631545 1.68642e-05)
(0.000141574 -8.99737e-05 1.35329e-05)
(-3.37993e-05 0.000106725 1.48225e-05)
(0.000176931 -5.6624e-06 7.86311e-06)
(-0.00065886 -7.8694e-05 1.48178e-05)
(-0.000237317 7.13597e-07 7.34089e-06)
(0.000631341 -6.7392e-05 1.64513e-05)
(0.00015756 -0.000158231 8.13972e-05)
(-0.000158416 0.000157875 8.13458e-05)
(0.000157921 0.00015771 8.12096e-05)
(-0.000157773 -0.00015862 8.30593e-05)
(0.000157876 -0.000158286 8.35105e-05)
(-0.000158 0.000158347 8.275e-05)
(0.00015824 0.000158145 8.31363e-05)
(7.60531e-05 2.09976e-05 -8.81211e-06)
(-0.000136264 -0.000141719 6.52023e-06)
(-8.32222e-05 -3.24372e-05 4.34538e-05)
(-0.000128061 8.29641e-05 2.22657e-05)
(-5.48597e-05 -2.7669e-05 -8.77009e-06)
(7.10433e-05 9.79792e-05 6.37528e-06)
(-8.38068e-05 -3.24102e-05 4.39446e-05)
(-8.962e-05 0.000141806 1.30204e-05)
(0.000107032 -3.33871e-05 1.35043e-05)
(2.11637e-05 7.61309e-05 -9.23685e-06)
(-3.23871e-05 -8.29664e-05 4.35486e-05)
(-0.000141234 -0.000136084 6.03504e-06)
(8.24458e-05 -0.000127438 2.23363e-05)
(-2.74585e-05 -5.46557e-05 -9.31086e-06)
(-3.23869e-05 -8.33363e-05 4.37238e-05)
(9.79067e-05 7.09573e-05 6.09627e-06)
(-0.000309212 -1.62462e-06 1.27676e-05)
(-1.72975e-06 -0.000309638 1.27937e-05)
(-0.000264799 -0.000265362 -7.89425e-05)
(0.000108292 -3.97455e-05 1.28069e-05)
(-3.98883e-05 0.000108415 1.2874e-05)
(-5.44994e-06 0.000176389 5.77855e-06)
(-7.89229e-05 -0.000659204 1.6705e-05)
(9.71009e-07 -0.000237046 5.60232e-06)
(-6.73419e-05 0.000631864 1.72531e-05)
(0.000141676 -9.00692e-05 1.62955e-05)
(-3.28875e-05 0.000107927 1.63128e-05)
(0.000175906 -5.19041e-06 5.34223e-06)
(-0.00065924 -7.96805e-05 1.64076e-05)
(-0.000237888 1.29707e-06 5.70181e-06)
(0.000631952 -6.78251e-05 1.80692e-05)
(0.000158039 -0.000158341 8.4032e-05)
(-0.0001579 0.000158427 8.3254e-05)
(0.000158307 0.000158084 8.34401e-05)
(-0.000158082 -0.000158545 8.47681e-05)
(0.000158437 -0.000158295 8.49092e-05)
(-0.000158227 0.000158252 8.49925e-05)
(0.000158579 0.00015788 8.45643e-05)
(7.70258e-05 2.11108e-05 -1.23847e-05)
(-0.000136519 -0.000140665 4.31372e-06)
(-8.30273e-05 -3.24259e-05 4.51565e-05)
(-0.000127009 8.22875e-05 2.36281e-05)
(-5.54853e-05 -2.76295e-05 -1.22334e-05)
(7.13507e-05 9.70643e-05 4.32457e-06)
(-8.28958e-05 -3.25476e-05 4.55075e-05)
(-8.97528e-05 0.000141915 1.55146e-05)
(0.000108252 -3.24967e-05 1.67151e-05)
(2.0813e-05 7.67262e-05 -1.13601e-05)
(-3.2143e-05 -8.26433e-05 4.48526e-05)
(-0.000141015 -0.000136715 4.63061e-06)
(8.26363e-05 -0.00012698 2.34526e-05)
(-2.77611e-05 -5.52475e-05 -1.1455e-05)
(-3.21146e-05 -8.29512e-05 4.52079e-05)
(9.68858e-05 7.11728e-05 4.64315e-06)
(-0.000309256 -1.91301e-06 1.19975e-05)
(-1.82684e-06 -0.000309762 1.21269e-05)
(-0.000264855 -0.000265252 -8.01294e-05)
(0.000107563 -3.97535e-05 1.18943e-05)
(-4.01302e-05 0.000108042 1.20323e-05)
(-5.32765e-06 0.000175834 5.47569e-06)
(-7.92882e-05 -0.000659611 1.68794e-05)
(6.91623e-07 -0.000237012 4.80766e-06)
(-6.77864e-05 0.000632196 1.84581e-05)
(0.000141755 -8.98507e-05 1.62925e-05)
(-3.24784e-05 0.000108356 1.71897e-05)
(0.00017679 -5.16996e-06 4.34177e-06)
(-0.000660114 -7.90862e-05 1.78735e-05)
(-0.00023646 1.02924e-06 3.65161e-06)
(0.000632333 -6.63244e-05 1.82322e-05)
(0.00015855 -0.000158106 8.49477e-05)
(-0.000158339 0.000158292 8.52899e-05)
(0.000158456 0.000157893 8.48152e-05)
(-0.000158552 -0.000157982 8.44291e-05)
(0.00015838 -0.000157922 8.48865e-05)
(-0.00015838 0.000158447 8.46678e-05)
(0.000158102 0.00015827 8.4766e-05)
(7.70594e-05 2.10774e-05 -1.26578e-05)
(-0.000136997 -0.000140559 3.6336e-06)
(-8.16449e-05 -3.27242e-05 4.61246e-05)
(-0.000125848 8.16084e-05 2.40536e-05)
(-5.62766e-05 -2.74517e-05 -1.31297e-05)
(7.12161e-05 9.68548e-05 4.21807e-06)
(-8.15477e-05 -3.26436e-05 4.60988e-05)
(-9.04052e-05 0.000141209 1.79677e-05)
(0.000108332 -3.26386e-05 1.76166e-05)
(2.11259e-05 7.72265e-05 -1.3561e-05)
(-3.23596e-05 -8.25523e-05 4.6169e-05)
(-0.000140524 -0.000136928 2.95208e-06)
(8.17909e-05 -0.000126474 2.4382e-05)
(-2.77556e-05 -5.60317e-05 -1.36539e-05)
(-3.25274e-05 -8.21595e-05 4.62568e-05)
(9.67499e-05 7.1367e-05 3.24836e-06)
(-0.000309174 -1.74545e-06 1.12865e-05)
(-1.79684e-06 -0.000309413 1.13006e-05)
(-0.000264494 -0.000265105 -8.08028e-05)
(0.000108067 -3.97182e-05 1.17157e-05)
(-4.00788e-05 0.000108465 1.17642e-05)
(-5.55764e-06 0.000176689 5.55286e-06)
(-7.93508e-05 -0.000659443 1.68784e-05)
(8.14353e-07 -0.000237184 4.21471e-06)
(-6.74698e-05 0.000631992 1.75577e-05)
(0.000141799 -8.98852e-05 1.66075e-05)
(-3.26553e-05 0.000108144 1.65055e-05)
(0.000176382 -5.3435e-06 6.77808e-06)
(-0.000659178 -7.90598e-05 1.61445e-05)
(-0.000236469 8.15414e-07 4.89742e-06)
(0.000631407 -6.72555e-05 1.67377e-05)
(0.000158371 -0.000158049 8.47822e-05)
(-0.000158128 0.000158484 8.40859e-05)
(0.000158111 0.000158421 8.44642e-05)
(-0.000157781 -0.000158471 8.30473e-05)
(0.00015827 -0.000158099 8.34175e-05)
(-0.000157571 0.000158517 8.28231e-05)
(0.000158226 0.000158331 8.29408e-05)
(7.71795e-05 2.05724e-05 -1.15537e-05)
(-0.000137201 -0.000140763 3.76796e-06)
(-8.16117e-05 -3.2468e-05 4.59302e-05)
(-0.000125802 8.14115e-05 2.39605e-05)
(-5.58031e-05 -2.77577e-05 -1.24296e-05)
(7.13774e-05 9.69366e-05 4.98384e-06)
(-8.15026e-05 -3.25127e-05 4.56722e-05)
(-8.94407e-05 0.00014196 1.45135e-05)
(0.000107642 -3.27652e-05 1.43438e-05)
(2.03993e-05 7.67224e-05 -1.15873e-05)
(-3.2514e-05 -8.09213e-05 4.57094e-05)
(-0.000140385 -0.000137207 3.64582e-06)
(8.09044e-05 -0.000125522 2.38624e-05)
(-2.75319e-05 -5.57238e-05 -1.24924e-05)
(-3.23993e-05 -8.09087e-05 4.52437e-05)
(9.66771e-05 7.11173e-05 5.08795e-06)
(-0.000309543 -2.15248e-06 1.09946e-05)
(-1.97182e-06 -0.000309959 1.10635e-05)
(-0.000263347 -0.000264259 -7.97497e-05)
(0.00010757 -4.00499e-05 1.21586e-05)
(-4.0168e-05 0.000108207 1.21672e-05)
(-5.69913e-06 0.000177083 7.94082e-06)
(-7.8191e-05 -0.000658651 1.49441e-05)
(7.64911e-07 -0.00023653 6.04463e-06)
(-6.70863e-05 0.000631075 1.62577e-05)
(0.000141687 -8.96753e-05 1.36946e-05)
(-3.33613e-05 0.000107141 1.40221e-05)
(0.000177422 -5.40516e-06 7.22193e-06)
(-0.000658982 -7.88175e-05 1.49359e-05)
(-0.000237323 1.12622e-06 5.59095e-06)
(0.000631337 -6.68211e-05 1.6658e-05)
(0.00015826 -0.000157916 8.2795e-05)
(-0.000157545 0.000158493 8.24797e-05)
(0.000158179 0.000158233 8.23852e-05)
(-0.000158086 -0.000158163 8.16669e-05)
(0.000158385 -0.000157899 8.18315e-05)
(-0.000158195 0.000158254 8.14218e-05)
(0.000158327 0.000157858 8.09733e-05)
(7.61823e-05 2.07741e-05 -9.34214e-06)
(-0.000136632 -0.000141261 4.96473e-06)
(-8.12234e-05 -3.24964e-05 4.44293e-05)
(-0.000125645 8.11931e-05 2.27445e-05)
(-5.53941e-05 -2.80377e-05 -1.05798e-05)
(7.0974e-05 9.74971e-05 6.5018e-06)
(-8.10236e-05 -3.24387e-05 4.41633e-05)
(-8.97847e-05 0.000141535 1.33821e-05)
(0.000107273 -3.32636e-05 1.49088e-05)
(2.04997e-05 7.63327e-05 -8.21508e-06)
(-3.21854e-05 -8.0841e-05 4.45387e-05)
(-0.000141928 -0.000136983 5.04962e-06)
(8.14378e-05 -0.00012565 2.29411e-05)
(-2.85443e-05 -5.52751e-05 -9.68225e-06)
(-3.21693e-05 -8.08936e-05 4.43007e-05)
(9.74717e-05 7.08035e-05 6.62319e-06)
(-0.000309254 -2.2844e-06 1.16343e-05)
(-2.03968e-06 -0.000309982 1.17043e-05)
(-0.000263303 -0.000263771 -7.76308e-05)
(0.000108174 -3.98651e-05 1.3175e-05)
(-4.0164e-05 0.000108794 1.33432e-05)
(-5.77008e-06 0.000177301 7.41093e-06)
(-7.88877e-05 -0.000659113 1.52477e-05)
(7.7219e-07 -0.000237861 6.23328e-06)
(-6.74674e-05 0.000631675 1.71488e-05)
(0.000142064 -8.97088e-05 1.44973e-05)
(-3.32042e-05 0.00010757 1.55623e-05)
(0.000177214 -5.37299e-06 8.0991e-06)
(-0.000658896 -7.90088e-05 1.50258e-05)
(-0.000237506 9.61119e-07 6.71951e-06)
(0.000631377 -6.75605e-05 1.64803e-05)
(0.000158252 -0.000158099 8.18008e-05)
(-0.00015823 0.000158037 8.10788e-05)
(0.000158275 0.000157728 8.07918e-05)
(-0.000157859 -0.000158766 8.221e-05)
(0.000157944 -0.00015857 8.24212e-05)
(-0.000158261 0.000157897 8.19826e-05)
(0.00015831 0.000157701 8.19264e-05)
(7.60365e-05 2.1624e-05 -8.01005e-06)
(-0.000136292 -0.000141624 5.93138e-06)
(-8.17001e-05 -3.2517e-05 4.36799e-05)
(-0.000126406 8.18475e-05 2.1997e-05)
(-5.46965e-05 -2.76575e-05 -8.83356e-06)
(7.1119e-05 9.83091e-05 6.89114e-06)
(-8.22667e-05 -3.26026e-05 4.35831e-05)
(-8.94029e-05 0.00014215 1.3171e-05)
(0.000107241 -3.3271e-05 1.32073e-05)
(2.11076e-05 7.59569e-05 -7.53068e-06)
(-3.22103e-05 -8.23517e-05 4.34083e-05)
(-0.000141737 -0.000136338 6.10755e-06)
(8.21906e-05 -0.000127104 2.20473e-05)
(-2.79601e-05 -5.44417e-05 -8.34375e-06)
(-3.22186e-05 -8.29774e-05 4.33317e-05)
(9.81219e-05 7.08785e-05 7.0995e-06)
(-0.000309798 -1.92131e-06 1.24644e-05)
(-1.96567e-06 -0.000310026 1.254e-05)
(-0.000264445 -0.000264784 -7.75529e-05)
(0.000108697 -3.94491e-05 1.35583e-05)
(-4.00413e-05 0.000108849 1.36692e-05)
(-5.56325e-06 0.000177264 6.81145e-06)
(-7.87294e-05 -0.000659356 1.62147e-05)
(7.52422e-07 -0.000237424 6.37062e-06)
(-6.73369e-05 0.000631993 1.73172e-05)
(0.000141899 -8.98374e-05 1.53742e-05)
(-3.30347e-05 0.000107612 1.57086e-05)
(0.000176775 -5.14162e-06 6.16573e-06)
(-0.000659337 -7.93545e-05 1.62064e-05)
(-0.000237803 1.40732e-06 5.87837e-06)
(0.000632131 -6.73939e-05 1.75967e-05)
(0.000157951 -0.000158493 8.27556e-05)
(-0.000158273 0.000158082 8.27784e-05)
(0.000158315 0.000157862 8.25557e-05)
(-0.000158151 -0.000158454 8.33903e-05)
(0.000158138 -0.000158563 8.37955e-05)
(-0.000158501 0.000158467 8.37703e-05)
(0.000158443 0.000158435 8.38253e-05)
(7.66434e-05 2.14401e-05 -1.04883e-05)
(-0.000136197 -0.000140821 5.35495e-06)
(-8.29851e-05 -3.25513e-05 4.43979e-05)
(-0.000126954 8.23398e-05 2.28413e-05)
(-5.5039e-05 -2.69897e-05 -1.07368e-05)
(7.11619e-05 9.79188e-05 5.63997e-06)
(-8.30918e-05 -3.25362e-05 4.46641e-05)
(-8.99461e-05 0.000141773 1.55568e-05)
(0.000108134 -3.26069e-05 1.6612e-05)
(2.09417e-05 7.66142e-05 -1.13281e-05)
(-3.21486e-05 -8.34689e-05 4.44257e-05)
(-0.000141111 -0.000136424 4.77984e-06)
(8.26205e-05 -0.000127293 2.30143e-05)
(-2.77935e-05 -5.50922e-05 -1.13256e-05)
(-3.2288e-05 -8.31979e-05 4.47735e-05)
(9.74116e-05 7.10625e-05 4.67652e-06)
(-0.000308978 -1.54352e-06 1.2328e-05)
(-1.70087e-06 -0.000309432 1.23602e-05)
(-0.000265054 -0.000265658 -8.00267e-05)
(0.000107666 -3.97447e-05 1.248e-05)
(-4.00962e-05 0.000108164 1.24754e-05)
(-5.547e-06 0.000177457 7.25907e-06)
(-7.8962e-05 -0.000659442 1.62037e-05)
(7.97859e-07 -0.000237704 5.3229e-06)
(-6.72464e-05 0.000632187 1.82759e-05)
(0.000142022 -8.97673e-05 1.57926e-05)
(-3.26481e-05 0.000108096 1.66079e-05)
(0.000177563 -5.31893e-06 7.10887e-06)
(-0.000659471 -7.902e-05 1.61528e-05)
(-0.000237129 1.00125e-06 5.11015e-06)
(0.000631978 -6.68313e-05 1.80274e-05)
(0.000158258 -0.000158447 8.37427e-05)
(-0.000158339 0.000158442 8.34058e-05)
(0.000158401 0.000158371 8.35666e-05)
(-0.000158459 -0.000158628 8.25e-05)
(0.000158699 -0.000158399 8.27361e-05)
(-0.000158481 0.000158928 8.26432e-05)
(0.00015869 0.000158698 8.25444e-05)
(7.64643e-05 2.07721e-05 -1.09411e-05)
(-0.000136549 -0.000140735 4.32059e-06)
(-8.23068e-05 -3.24392e-05 4.50601e-05)
(-0.000126261 8.16173e-05 2.3547e-05)
(-5.56302e-05 -2.75662e-05 -1.21661e-05)
(7.09337e-05 9.75847e-05 5.72744e-06)
(-8.19068e-05 -3.24683e-05 4.51499e-05)
(-8.9734e-05 0.000141805 1.52783e-05)
(0.000107911 -3.26726e-05 1.61043e-05)
(2.05309e-05 7.66768e-05 -1.07466e-05)
(-3.23123e-05 -8.19366e-05 4.49671e-05)
(-0.00014067 -0.000136825 4.07165e-06)
(8.15745e-05 -0.000126227 2.35419e-05)
(-2.76916e-05 -5.54163e-05 -1.18891e-05)
(-3.23409e-05 -8.19398e-05 4.49365e-05)
(9.71169e-05 7.11431e-05 5.71436e-06)
(-0.000309214 -2.09756e-06 1.15495e-05)
(-1.81421e-06 -0.000309757 1.15743e-05)
(-0.000264483 -0.000265061 -7.94752e-05)
(0.000107536 -3.99697e-05 1.30014e-05)
(-4.00841e-05 0.000108147 1.31585e-05)
(-5.83138e-06 0.000180406 1.80632e-05)
(-7.84636e-05 -0.000660301 1.12262e-05)
(7.90821e-07 -0.000238805 2.35792e-06)
(-6.78798e-05 0.00063457 2.97549e-05)
(0.000141726 -9.00928e-05 1.01962e-05)
(-3.23587e-05 0.000109009 2.79811e-05)
(0.000180726 -5.76977e-06 1.7727e-05)
(-0.000660638 -7.88121e-05 1.13013e-05)
(-0.000239079 7.98191e-07 1.98212e-06)
(0.000634719 -6.74386e-05 2.98855e-05)
(0.00015904 -0.000158718 8.15247e-05)
(-0.000158827 0.000159267 8.14615e-05)
(0.000159046 0.00015914 8.13159e-05)
(-0.000169382 -0.000169598 9.554e-05)
(0.000169956 -0.000169546 9.5988e-05)
(-0.000169452 0.00016976 9.52167e-05)
(0.000169963 0.00016966 9.51788e-05)
(7.45398e-05 2.05608e-05 -2.01337e-06)
(-0.000135672 -0.000142271 1.99786e-06)
(-8.17517e-05 -3.23437e-05 4.42053e-05)
(-0.000124737 8.1228e-05 2.52936e-05)
(-5.36057e-05 -2.80987e-05 -1.32242e-05)
(6.98292e-05 9.88947e-05 1.53281e-05)
(-7.98475e-05 -3.24787e-05 4.76333e-05)
(-9.01043e-05 0.000141651 1.05309e-05)
(0.000109093 -3.22956e-05 2.75851e-05)
(2.06794e-05 7.41959e-05 -1.77835e-06)
(-3.22987e-05 -8.13467e-05 4.41698e-05)
(-0.000142344 -0.000135755 1.66811e-06)
(8.0659e-05 -0.00012425 2.54562e-05)
(-2.82382e-05 -5.36006e-05 -1.32301e-05)
(-3.24341e-05 -7.93508e-05 4.75295e-05)
(9.90518e-05 6.9533e-05 1.52823e-05)
(-0.000308622 -1.70329e-06 8.2369e-06)
(-1.40963e-06 -0.000308898 8.34116e-06)
(-0.000267496 -0.000268348 -7.17528e-05)
(0.000106743 -4.02555e-05 2.38658e-05)
(-4.06109e-05 0.00010689 2.38184e-05)
(-6.65984e-06 0.000202315 0.000104109)
(-7.81904e-05 -0.000673068 -2.59644e-05)
(6.51926e-07 -0.000252213 -2.85154e-05)
(-7.30613e-05 0.000655669 0.000138329)
(0.000140719 -9.39245e-05 -2.79448e-05)
(-2.3039e-05 0.000120858 0.000139141)
(0.000201859 -6.34938e-06 0.000104491)
(-0.000673139 -7.83928e-05 -2.66205e-05)
(-0.000252323 7.56208e-07 -2.80724e-05)
(0.000655239 -7.32388e-05 0.000138128)
(0.000155727 -0.000155057 3.53e-05)
(-0.000154888 0.000155455 3.45799e-05)
(0.000155423 0.000155167 3.46617e-05)
(-0.000306817 -0.000306996 0.000285302)
(0.000307338 -0.000307267 0.000285112)
(-0.000306393 0.000306893 0.000285747)
(0.000307045 0.000306775 0.0002852)
(6.89692e-05 2.10208e-05 7.73592e-05)
(-0.000131112 -0.00014993 -1.93531e-05)
(-0.000108059 -2.84596e-05 1.39273e-05)
(-6.35456e-05 4.2131e-05 7.44802e-05)
(-4.3366e-05 -2.82027e-05 -2.9118e-05)
(7.12514e-05 0.000106855 0.000103783)
(-8.71704e-06 -4.04317e-05 0.000107631)
(-9.38581e-05 0.000140509 -2.95375e-05)
(0.00012059 -2.29629e-05 0.000138044)
(2.07202e-05 6.8903e-05 7.79561e-05)
(-2.81055e-05 -0.000108696 1.33894e-05)
(-0.000149927 -0.000131198 -1.87922e-05)
(4.21848e-05 -6.45799e-05 7.44469e-05)
(-2.8352e-05 -4.29831e-05 -2.82149e-05)
(-4.01435e-05 -9.46022e-06 0.000107052)
(0.000106567 7.13513e-05 0.000104109)
(-0.000302056 2.67777e-06 -2.03574e-05)
(2.84632e-06 -0.000302519 -2.02289e-05)
(-0.000276638 -0.000277287 6.35755e-06)
(9.83926e-05 -4.05945e-05 0.000114989)
(-4.07331e-05 9.89446e-05 0.000115105)
(-2.41061e-07 0.000238382 0.000648556)
(-7.17973e-05 -0.000745211 -0.000230695)
(3.76495e-06 -0.000301099 -0.000152481)
(-0.000109771 0.000779324 0.000765476)
(0.000139525 -0.00011369 -0.000258467)
(-2.02825e-05 0.000162552 0.000861498)
(0.000239059 1.84337e-07 0.000647281)
(-0.000745756 -7.17176e-05 -0.000230247)
(-0.000301243 4.30445e-06 -0.000152106)
(0.000779182 -0.000108921 0.00076546)
(2.2645e-05 -2.22537e-05 -0.000367509)
(-2.01518e-05 2.15735e-05 -0.000366655)
(2.0945e-05 2.1596e-05 -0.000367025)
(-0.00281272 -0.00281189 0.00298544)
(0.00281334 -0.00281161 0.00298573)
(-0.00281102 0.00281314 0.0029854)
(0.0028127 0.00281365 0.00298631)
(0.000160263 2.79275e-05 0.000594254)
(-0.000139626 -0.00017228 -8.3104e-05)
(-0.000435956 4.85926e-05 -0.000289873)
(0.000514842 -0.000362235 0.000105098)
(-2.98463e-05 -2.2843e-05 -4.43761e-05)
(0.000113342 0.00012288 0.000553264)
(0.000720777 -0.000304619 0.000678248)
(-0.000114136 0.000138877 -0.000258068)
(0.000162222 -2.06364e-05 0.000861926)
(2.77092e-05 0.000161988 0.000589323)
(4.61067e-05 -0.000429892 -0.000293805)
(-0.00017099 -0.000138565 -8.25678e-05)
(-0.000366807 0.00051527 0.000106075)
(-2.28458e-05 -2.69215e-05 -4.0294e-05)
(-0.000307727 0.000730389 0.000682003)
(0.00012432 0.000114214 0.000552003)
(-0.000279889 1.93217e-05 -0.00014986)
(1.94256e-05 -0.000279961 -0.000149235)
(-0.000288522 -0.000291443 0.000442625)
(6.85375e-05 -3.88233e-05 0.000646138)
(-3.90534e-05 6.8946e-05 0.000645751)
(0.000379708 0.00447225 -0.000280218)
(-9.70377e-05 3.52136e-05 0.00154951)
(-6.53087e-05 -3.36128e-05 7.2106e-05)
(0.000768733 0.00146384 -0.00138827)
(0.0029309 -0.0025271 -0.00549735)
(-0.000725172 0.00153827 -0.00127705)
(0.00446757 0.000378679 -0.00027851)
(3.84301e-05 -9.66892e-05 0.00154761)
(-3.44498e-05 -6.45126e-05 7.23897e-05)
(0.00146002 0.000771542 -0.00138716)
(-7.0157e-05 -6.9655e-05 -0.00370067)
(0.000335293 0.00207912 -0.00735412)
(0.00207946 0.000335329 -0.00735422)
(-0.000329262 -0.000329513 -0.00338525)
(0.000927547 0.000927457 -0.00752786)