/*--------------------------------*- C++ -*----------------------------------*\
| =========                 |                                                 |
| \\      /  F ield         | OpenFOAM: The Open Source CFD Toolbox           |
|  \\    /   O peration     | Version:  2206                                  |
|   \\  /    A nd           | Website:  www.openfoam.com                      |
|    \\/     M anipulation  |                                                 |
\*---------------------------------------------------------------------------*/
FoamFile
{
    version     2.0;
    format      ascii;
    arch        "LSB;label=32;scalar=64";
    class       volScalarField;
    location    "35";
    object      p;
}
// * * * * * * * * * * * * * * * * * * * * * * * * * * * * * * * * * * * * * //

dimensions      [0 2 -2 0 0 0 0];

internalField   nonuniform List<scalar> 
171728
(
0.00388613
0.00388646
0.00388646
0.00388951
0.00383077
0.00383119
0.00383119
0.00383418
0.00378002
0.00377999
0.00377999
0.00378275
0.00372763
0.00372764
0.00372764
0.00373041
0.0036763
0.00367631
0.00367631
0.00367905
0.00362637
0.00362637
0.00362637
0.00362907
0.00357838
0.00357826
0.00357824
0.00358078
0.00353396
0.00353382
0.00353382
0.00353623
0.00349263
0.00349257
0.00349257
0.00349501
0.00345185
0.00345181
0.00345181
0.00345422
0.0034112
0.00341116
0.00341116
0.00341356
0.00337057
0.00337053
0.00337053
0.00337294
0.00332995
0.00332991
0.00332991
0.00333232
0.00328933
0.00328929
0.00328929
0.0032917
0.00324871
0.00324867
0.00324867
0.00325108
0.00320809
0.00320805
0.00320806
0.00321046
0.00316748
0.00316744
0.00316744
0.00316985
0.00312686
0.00312682
0.00312682
0.00312923
0.00308625
0.00308621
0.00308621
0.00308861
0.00304563
0.00304559
0.00304559
0.00304799
0.00300501
0.00300497
0.00300497
0.00300737
0.00296439
0.00296435
0.00296435
0.00296676
0.00292378
0.00292374
0.00292374
0.00292615
0.00288317
0.00288313
0.00288313
0.00288554
0.00284256
0.00284252
0.00284252
0.00284493
0.00280195
0.00280191
0.00280191
0.00280432
0.00276134
0.00276131
0.00276131
0.00276371
0.00272074
0.0027207
0.0027207
0.0027231
0.00268013
0.00268009
0.00268009
0.0026825
0.00263952
0.00263948
0.00263948
0.00264189
0.00259892
0.00259888
0.00259888
0.00260128
0.00255831
0.00255827
0.00255827
0.00256067
0.0025177
0.00251766
0.00251766
0.00252007
0.00247709
0.00247705
0.00247705
0.00247946
0.00243648
0.00243644
0.00243644
0.00243885
0.00239588
0.00239584
0.00239584
0.00239824
0.00235527
0.00235523
0.00235523
0.00235763
0.00231466
0.00231462
0.00231462
0.00231702
0.00227405
0.00227401
0.00227401
0.00227641
0.00223344
0.0022334
0.0022334
0.00223581
0.00219283
0.00219279
0.00219279
0.0021952
0.00215223
0.00215219
0.00215219
0.00215459
0.00211162
0.00211158
0.00211158
0.00211399
0.00207101
0.00207097
0.00207097
0.00207338
0.00203041
0.00203037
0.00203037
0.00203277
0.0019898
0.00198976
0.00198976
0.00199217
0.00194919
0.00194916
0.00194916
0.00195156
0.00190859
0.00190855
0.00190855
0.00191096
0.00186798
0.00186794
0.00186794
0.00187035
0.00182738
0.00182734
0.00182734
0.00182975
0.00178677
0.00178674
0.00178674
0.00178914
0.00174617
0.00174613
0.00174613
0.00174854
0.00170557
0.00170553
0.00170553
0.00170793
0.00166496
0.00166492
0.00166492
0.00166733
0.00162436
0.00162432
0.00162432
0.00162673
0.00158376
0.00158372
0.00158372
0.00158613
0.00154316
0.00154312
0.00154312
0.00154553
0.00150256
0.00150252
0.00150252
0.00150492
0.00146195
0.00146191
0.00146191
0.00146432
0.00142135
0.00142131
0.00142131
0.00142372
0.00138075
0.00138071
0.00138071
0.00138311
0.00134014
0.0013401
0.0013401
0.00134251
0.00129954
0.0012995
0.0012995
0.00130191
0.00125894
0.0012589
0.0012589
0.0012613
0.00121833
0.00121829
0.00121829
0.0012207
0.00117773
0.00117769
0.00117769
0.0011801
0.00113713
0.00113709
0.00113709
0.0011395
0.00109653
0.00109649
0.00109649
0.00109889
0.00105592
0.00105588
0.00105588
0.00105829
0.00101532
0.00101528
0.00101528
0.00101768
0.000974712
0.000974673
0.000974673
0.000977079
0.000934106
0.000934067
0.000934067
0.000936473
0.0008935
0.00089346
0.00089346
0.000895866
0.000852893
0.000852854
0.000852854
0.00085526
0.000812287
0.000812248
0.000812248
0.000814654
0.00077168
0.000771641
0.000771641
0.000774047
0.000731072
0.000731033
0.000731033
0.000733439
0.000690465
0.000690425
0.000690425
0.000692831
0.000649858
0.000649819
0.000649819
0.000652225
0.000609252
0.000609212
0.000609212
0.000611618
0.000568645
0.000568606
0.000568606
0.000571012
0.000528039
0.000528
0.000528
0.000530405
0.000487432
0.000487392
0.000487392
0.000489799
0.000446823
0.000446784
0.000446784
0.00044919
0.000406214
0.000406175
0.000406175
0.000408581
0.000365605
0.000365566
0.000365566
0.000367972
0.000324996
0.000324958
0.000324958
0.000327363
0.000284383
0.00028434
0.00028434
0.000286746
0.000243774
0.00024374
0.00024374
0.000246143
0.00020315
0.000203105
0.000203105
0.000205506
0.000162527
0.000162494
0.000162493
0.000164886
0.000121893
0.000121862
0.000121862
0.000124244
8.12599e-05
8.12164e-05
8.12151e-05
8.35691e-05
4.13093e-05
4.0759e-05
4.0756e-05
4.29738e-05
8.50262e-06
8.64861e-06
8.64589e-06
8.19276e-06
0.00389954
0.00389976
0.00389976
0.00389954
0.00389976
0.00389976
0.00390052
0.00390052
0.00390053
0.00390053
0.00389976
0.00389976
0.00389954
0.00389977
0.00389976
0.00389954
0.00388951
0.00384075
0.00388646
0.00388646
0.00384303
0.00384303
0.00388951
0.00384075
0.00388646
0.00388646
0.00384303
0.00384303
0.00388646
0.00384303
0.00384303
0.00388951
0.00384075
0.00388646
0.00384303
0.00384302
0.00384075
0.00383418
0.00378967
0.00383119
0.0038312
0.00379311
0.00379311
0.00383418
0.00378967
0.00383119
0.00383119
0.00379311
0.00379311
0.00383119
0.00379311
0.00379311
0.00383418
0.00378967
0.00383119
0.00379311
0.00379311
0.00378967
0.00378275
0.00373729
0.00378
0.00378
0.00374066
0.00374066
0.00378275
0.00373729
0.00378
0.00378
0.00374066
0.00374066
0.00378
0.00374066
0.00374066
0.00378275
0.00373729
0.00377999
0.00374066
0.00374066
0.00373729
0.00373041
0.00368576
0.00372764
0.00372764
0.00368904
0.00368904
0.00373041
0.00368576
0.00372764
0.00372764
0.00368904
0.00368904
0.00372764
0.00368904
0.00368904
0.00373041
0.00368576
0.00372764
0.00368904
0.00368904
0.00368576
0.00367905
0.00363558
0.00367631
0.00367631
0.00363869
0.00363869
0.00367905
0.00363558
0.00367631
0.00367631
0.00363869
0.00363869
0.00367631
0.00363869
0.00363869
0.00367905
0.00363558
0.00367631
0.00363869
0.00363869
0.00363558
0.00362907
0.00358698
0.00362637
0.00362637
0.00358995
0.00358995
0.00362907
0.00358698
0.00362637
0.00362637
0.00358996
0.00358995
0.00362637
0.00358996
0.00358996
0.00362907
0.00358698
0.00362637
0.00358995
0.00358995
0.00358698
0.00358078
0.0035418
0.00357824
0.00357824
0.0035445
0.0035445
0.00358078
0.0035418
0.00357826
0.00357824
0.0035445
0.0035445
0.00357826
0.0035445
0.0035445
0.00358079
0.0035418
0.00357824
0.0035445
0.0035445
0.0035418
0.00353623
0.00350038
0.00353382
0.00353382
0.00350279
0.00350279
0.00353623
0.00350038
0.00353382
0.00353382
0.00350279
0.00350279
0.00353382
0.00350279
0.00350279
0.00353623
0.00350038
0.00353382
0.00350279
0.00350279
0.00350038
0.00349501
0.00345958
0.00349257
0.00349257
0.00346198
0.00346198
0.00349501
0.00345958
0.00349257
0.00349257
0.00346198
0.00346198
0.00349257
0.00346198
0.00346198
0.00349501
0.00345958
0.00349257
0.00346198
0.00346198
0.00345958
0.00345422
0.00341891
0.00345181
0.00345181
0.00342131
0.00342131
0.00345422
0.00341891
0.00345181
0.00345181
0.00342131
0.00342131
0.00345181
0.00342131
0.00342131
0.00345422
0.00341891
0.00345181
0.00342131
0.00342131
0.00341891
0.00341356
0.00337829
0.00341116
0.00341116
0.00338069
0.00338069
0.00341356
0.00337829
0.00341116
0.00341116
0.00338069
0.00338069
0.00341116
0.00338069
0.00338069
0.00341356
0.00337829
0.00341116
0.00338069
0.00338069
0.00337829
0.00337294
0.00333767
0.00337053
0.00337053
0.00334007
0.00334007
0.00337294
0.00333767
0.00337053
0.00337053
0.00334007
0.00334007
0.00337053
0.00334007
0.00334007
0.00337294
0.00333767
0.00337053
0.00334007
0.00334007
0.00333767
0.00333232
0.00329705
0.00332991
0.00332991
0.00329945
0.00329945
0.00333232
0.00329705
0.00332991
0.00332991
0.00329945
0.00329945
0.00332991
0.00329945
0.00329945
0.00333232
0.00329705
0.00332991
0.00329945
0.00329945
0.00329705
0.0032917
0.00325643
0.00328929
0.00328929
0.00325883
0.00325883
0.0032917
0.00325643
0.00328929
0.00328929
0.00325883
0.00325883
0.00328929
0.00325883
0.00325883
0.0032917
0.00325643
0.00328929
0.00325883
0.00325883
0.00325643
0.00325108
0.00321581
0.00324867
0.00324867
0.00321821
0.00321821
0.00325108
0.00321581
0.00324867
0.00324867
0.00321821
0.00321821
0.00324867
0.00321821
0.00321821
0.00325108
0.00321581
0.00324867
0.00321821
0.00321821
0.00321581
0.00321046
0.00317519
0.00320806
0.00320805
0.00317759
0.00317759
0.00321046
0.00317519
0.00320805
0.00320806
0.00317759
0.00317759
0.00320806
0.00317759
0.00317759
0.00321046
0.00317519
0.00320806
0.00317759
0.00317759
0.00317519
0.00316984
0.00313458
0.00316744
0.00316744
0.00313698
0.00313698
0.00316984
0.00313458
0.00316744
0.00316744
0.00313698
0.00313698
0.00316744
0.00313698
0.00313698
0.00316984
0.00313458
0.00316744
0.00313698
0.00313698
0.00313458
0.00312923
0.00309396
0.00312682
0.00312682
0.00309636
0.00309636
0.00312923
0.00309396
0.00312682
0.00312682
0.00309636
0.00309636
0.00312682
0.00309636
0.00309636
0.00312923
0.00309396
0.00312682
0.00309636
0.00309636
0.00309396
0.00308861
0.00305334
0.00308621
0.00308621
0.00305574
0.00305574
0.00308861
0.00305334
0.00308621
0.00308621
0.00305574
0.00305574
0.00308621
0.00305574
0.00305574
0.00308861
0.00305334
0.00308621
0.00305574
0.00305574
0.00305334
0.00304799
0.00301272
0.00304559
0.00304559
0.00301512
0.00301512
0.00304799
0.00301272
0.00304559
0.00304559
0.00301512
0.00301512
0.00304559
0.00301512
0.00301512
0.00304799
0.00301272
0.00304559
0.00301512
0.00301512
0.00301272
0.00300737
0.00297211
0.00300497
0.00300497
0.00297451
0.00297451
0.00300737
0.00297211
0.00300497
0.00300497
0.00297451
0.00297451
0.00300497
0.00297451
0.00297451
0.00300737
0.00297211
0.00300497
0.00297451
0.00297451
0.00297211
0.00296676
0.00293149
0.00296435
0.00296435
0.00293389
0.00293389
0.00296676
0.00293149
0.00296435
0.00296435
0.00293389
0.00293389
0.00296435
0.00293389
0.00293389
0.00296676
0.00293149
0.00296435
0.00293389
0.00293389
0.00293149
0.00292615
0.00289088
0.00292374
0.00292374
0.00289328
0.00289328
0.00292615
0.00289088
0.00292374
0.00292374
0.00289328
0.00289328
0.00292374
0.00289328
0.00289328
0.00292615
0.00289088
0.00292374
0.00289328
0.00289328
0.00289088
0.00288553
0.00285027
0.00288313
0.00288313
0.00285267
0.00285267
0.00288553
0.00285027
0.00288313
0.00288313
0.00285267
0.00285267
0.00288313
0.00285267
0.00285267
0.00288554
0.00285027
0.00288313
0.00285267
0.00285267
0.00285027
0.00284493
0.00280967
0.00284252
0.00284252
0.00281206
0.00281206
0.00284493
0.00280967
0.00284252
0.00284252
0.00281206
0.00281206
0.00284252
0.00281206
0.00281206
0.00284493
0.00280967
0.00284252
0.00281206
0.00281206
0.00280967
0.00280432
0.00276906
0.00280191
0.00280191
0.00277146
0.00277146
0.00280432
0.00276906
0.00280191
0.00280191
0.00277146
0.00277146
0.00280191
0.00277146
0.00277146
0.00280432
0.00276906
0.00280191
0.00277146
0.00277146
0.00276906
0.00276371
0.00272845
0.00276131
0.00276131
0.00273085
0.00273085
0.00276371
0.00272845
0.00276131
0.00276131
0.00273085
0.00273085
0.00276131
0.00273085
0.00273085
0.00276371
0.00272845
0.00276131
0.00273085
0.00273085
0.00272845
0.0027231
0.00268784
0.0027207
0.0027207
0.00269024
0.00269024
0.0027231
0.00268784
0.0027207
0.0027207
0.00269024
0.00269024
0.0027207
0.00269024
0.00269024
0.0027231
0.00268784
0.0027207
0.00269024
0.00269024
0.00268784
0.0026825
0.00264724
0.00268009
0.00268009
0.00264964
0.00264963
0.0026825
0.00264724
0.00268009
0.00268009
0.00264963
0.00264964
0.00268009
0.00264963
0.00264964
0.0026825
0.00264724
0.00268009
0.00264963
0.00264964
0.00264724
0.00264189
0.00260663
0.00263948
0.00263948
0.00260903
0.00260903
0.00264189
0.00260663
0.00263948
0.00263948
0.00260903
0.00260903
0.00263948
0.00260903
0.00260903
0.00264189
0.00260663
0.00263948
0.00260903
0.00260903
0.00260663
0.00260128
0.00256602
0.00259888
0.00259888
0.00256842
0.00256842
0.00260128
0.00256602
0.00259888
0.00259888
0.00256842
0.00256842
0.00259888
0.00256842
0.00256842
0.00260128
0.00256602
0.00259888
0.00256842
0.00256842
0.00256602
0.00256067
0.00252541
0.00255827
0.00255827
0.00252781
0.00252781
0.00256067
0.00252541
0.00255827
0.00255827
0.00252781
0.00252781
0.00255827
0.00252781
0.00252781
0.00256067
0.00252541
0.00255827
0.00252781
0.00252781
0.00252541
0.00252007
0.00248481
0.00251766
0.00251766
0.0024872
0.0024872
0.00252007
0.00248481
0.00251766
0.00251766
0.0024872
0.0024872
0.00251766
0.0024872
0.0024872
0.00252007
0.00248481
0.00251766
0.0024872
0.0024872
0.00248481
0.00247946
0.0024442
0.00247705
0.00247705
0.0024466
0.0024466
0.00247946
0.0024442
0.00247705
0.00247705
0.0024466
0.0024466
0.00247705
0.0024466
0.0024466
0.00247946
0.0024442
0.00247705
0.0024466
0.0024466
0.0024442
0.00243885
0.00240359
0.00243644
0.00243644
0.00240599
0.00240599
0.00243885
0.00240359
0.00243644
0.00243644
0.00240599
0.00240599
0.00243644
0.00240599
0.00240599
0.00243885
0.00240359
0.00243644
0.00240599
0.00240599
0.00240359
0.00239824
0.00236298
0.00239584
0.00239584
0.00236538
0.00236538
0.00239824
0.00236298
0.00239584
0.00239584
0.00236538
0.00236538
0.00239584
0.00236538
0.00236538
0.00239824
0.00236298
0.00239584
0.00236538
0.00236538
0.00236298
0.00235763
0.00232237
0.00235523
0.00235523
0.00232477
0.00232477
0.00235763
0.00232237
0.00235523
0.00235523
0.00232477
0.00232477
0.00235523
0.00232477
0.00232477
0.00235763
0.00232237
0.00235523
0.00232477
0.00232477
0.00232237
0.00231702
0.00228176
0.00231462
0.00231462
0.00228416
0.00228416
0.00231702
0.00228176
0.00231462
0.00231462
0.00228416
0.00228416
0.00231462
0.00228416
0.00228416
0.00231702
0.00228176
0.00231462
0.00228416
0.00228416
0.00228176
0.00227641
0.00224115
0.00227401
0.00227401
0.00224355
0.00224355
0.00227641
0.00224115
0.00227401
0.00227401
0.00224355
0.00224355
0.00227401
0.00224355
0.00224355
0.00227641
0.00224115
0.00227401
0.00224355
0.00224355
0.00224115
0.00223581
0.00220055
0.0022334
0.0022334
0.00220295
0.00220295
0.00223581
0.00220055
0.0022334
0.0022334
0.00220295
0.00220295
0.0022334
0.00220295
0.00220295
0.00223581
0.00220055
0.0022334
0.00220295
0.00220295
0.00220055
0.0021952
0.00215994
0.0021928
0.00219279
0.00216234
0.00216234
0.0021952
0.00215994
0.0021928
0.00219279
0.00216234
0.00216234
0.00219279
0.00216234
0.00216234
0.0021952
0.00215994
0.00219279
0.00216234
0.00216234
0.00215994
0.00215459
0.00211933
0.00215219
0.00215219
0.00212173
0.00212173
0.00215459
0.00211933
0.00215219
0.00215219
0.00212173
0.00212173
0.00215219
0.00212173
0.00212173
0.00215459
0.00211933
0.00215219
0.00212173
0.00212173
0.00211933
0.00211399
0.00207873
0.00211158
0.00211158
0.00208113
0.00208113
0.00211399
0.00207873
0.00211158
0.00211158
0.00208113
0.00208113
0.00211158
0.00208113
0.00208113
0.00211399
0.00207873
0.00211158
0.00208113
0.00208113
0.00207873
0.00207338
0.00203812
0.00207097
0.00207097
0.00204052
0.00204052
0.00207338
0.00203812
0.00207097
0.00207097
0.00204052
0.00204052
0.00207097
0.00204052
0.00204052
0.00207338
0.00203812
0.00207097
0.00204052
0.00204052
0.00203812
0.00203277
0.00199751
0.00203037
0.00203037
0.00199991
0.00199991
0.00203277
0.00199751
0.00203037
0.00203037
0.00199991
0.00199991
0.00203037
0.00199991
0.00199991
0.00203277
0.00199751
0.00203037
0.00199991
0.00199991
0.00199751
0.00199217
0.00195691
0.00198976
0.00198976
0.00195931
0.00195931
0.00199217
0.00195691
0.00198976
0.00198976
0.00195931
0.00195931
0.00198976
0.00195931
0.00195931
0.00199217
0.00195691
0.00198976
0.00195931
0.00195931
0.00195691
0.00195156
0.0019163
0.00194916
0.00194916
0.0019187
0.0019187
0.00195156
0.0019163
0.00194916
0.00194916
0.0019187
0.0019187
0.00194916
0.0019187
0.0019187
0.00195156
0.0019163
0.00194916
0.0019187
0.0019187
0.0019163
0.00191096
0.0018757
0.00190855
0.00190855
0.0018781
0.0018781
0.00191095
0.0018757
0.00190855
0.00190855
0.0018781
0.0018781
0.00190855
0.0018781
0.0018781
0.00191096
0.0018757
0.00190855
0.0018781
0.0018781
0.0018757
0.00187035
0.00183509
0.00186794
0.00186794
0.00183749
0.00183749
0.00187035
0.00183509
0.00186794
0.00186794
0.00183749
0.00183749
0.00186794
0.00183749
0.00183749
0.00187035
0.00183509
0.00186794
0.00183749
0.00183749
0.00183509
0.00182975
0.00179449
0.00182734
0.00182734
0.00179689
0.00179689
0.00182975
0.00179449
0.00182734
0.00182734
0.00179689
0.00179689
0.00182734
0.00179689
0.00179689
0.00182975
0.00179449
0.00182734
0.00179689
0.00179689
0.00179449
0.00178914
0.00175388
0.00178674
0.00178674
0.00175628
0.00175628
0.00178914
0.00175388
0.00178674
0.00178674
0.00175628
0.00175628
0.00178674
0.00175628
0.00175628
0.00178914
0.00175388
0.00178674
0.00175628
0.00175628
0.00175388
0.00174854
0.00171328
0.00174613
0.00174613
0.00171568
0.00171568
0.00174854
0.00171328
0.00174613
0.00174613
0.00171568
0.00171568
0.00174613
0.00171568
0.00171568
0.00174854
0.00171328
0.00174613
0.00171568
0.00171568
0.00171328
0.00170793
0.00167268
0.00170553
0.00170553
0.00167508
0.00167508
0.00170793
0.00167268
0.00170553
0.00170553
0.00167508
0.00167508
0.00170553
0.00167508
0.00167508
0.00170793
0.00167268
0.00170553
0.00167508
0.00167508
0.00167268
0.00166733
0.00163207
0.00166493
0.00166492
0.00163447
0.00163447
0.00166733
0.00163207
0.00166492
0.00166492
0.00163447
0.00163447
0.00166493
0.00163447
0.00163447
0.00166733
0.00163207
0.00166492
0.00163447
0.00163447
0.00163207
0.00162673
0.00159147
0.00162432
0.00162432
0.00159387
0.00159387
0.00162673
0.00159147
0.00162432
0.00162432
0.00159387
0.00159387
0.00162432
0.00159387
0.00159387
0.00162673
0.00159147
0.00162432
0.00159387
0.00159387
0.00159147
0.00158613
0.00155087
0.00158372
0.00158372
0.00155327
0.00155327
0.00158613
0.00155087
0.00158372
0.00158372
0.00155327
0.00155327
0.00158372
0.00155327
0.00155327
0.00158613
0.00155087
0.00158372
0.00155327
0.00155327
0.00155087
0.00154553
0.00151027
0.00154312
0.00154312
0.00151267
0.00151267
0.00154553
0.00151027
0.00154312
0.00154312
0.00151267
0.00151267
0.00154312
0.00151267
0.00151267
0.00154553
0.00151027
0.00154312
0.00151267
0.00151267
0.00151027
0.00150492
0.00146967
0.00150252
0.00150252
0.00147206
0.00147206
0.00150492
0.00146967
0.00150252
0.00150252
0.00147206
0.00147206
0.00150252
0.00147206
0.00147206
0.00150492
0.00146967
0.00150252
0.00147206
0.00147206
0.00146967
0.00146432
0.00142906
0.00146191
0.00146191
0.00143146
0.00143146
0.00146432
0.00142906
0.00146191
0.00146191
0.00143146
0.00143146
0.00146191
0.00143146
0.00143146
0.00146432
0.00142906
0.00146191
0.00143146
0.00143146
0.00142906
0.00142372
0.00138846
0.00142131
0.00142131
0.00139086
0.00139086
0.00142372
0.00138846
0.00142131
0.00142131
0.00139086
0.00139086
0.00142131
0.00139086
0.00139086
0.00142372
0.00138846
0.00142131
0.00139086
0.00139086
0.00138846
0.00138311
0.00134786
0.00138071
0.00138071
0.00135025
0.00135025
0.00138311
0.00134786
0.00138071
0.00138071
0.00135025
0.00135025
0.00138071
0.00135025
0.00135026
0.00138311
0.00134786
0.00138071
0.00135025
0.00135025
0.00134786
0.00134251
0.00130725
0.0013401
0.0013401
0.00130965
0.00130965
0.00134251
0.00130725
0.0013401
0.0013401
0.00130965
0.00130965
0.0013401
0.00130965
0.00130965
0.00134251
0.00130725
0.0013401
0.00130965
0.00130965
0.00130725
0.00130191
0.00126665
0.0012995
0.0012995
0.00126905
0.00126905
0.00130191
0.00126665
0.0012995
0.0012995
0.00126905
0.00126905
0.0012995
0.00126905
0.00126905
0.00130191
0.00126665
0.0012995
0.00126905
0.00126905
0.00126665
0.0012613
0.00122605
0.0012589
0.0012589
0.00122845
0.00122845
0.0012613
0.00122605
0.0012589
0.0012589
0.00122845
0.00122845
0.0012589
0.00122845
0.00122845
0.0012613
0.00122605
0.0012589
0.00122845
0.00122845
0.00122605
0.0012207
0.00118545
0.00121829
0.00121829
0.00118784
0.00118784
0.0012207
0.00118545
0.00121829
0.00121829
0.00118784
0.00118784
0.0012183
0.00118784
0.00118784
0.0012207
0.00118545
0.00121829
0.00118784
0.00118784
0.00118545
0.0011801
0.00114484
0.00117769
0.00117769
0.00114724
0.00114724
0.0011801
0.00114484
0.00117769
0.00117769
0.00114724
0.00114724
0.00117769
0.00114724
0.00114724
0.0011801
0.00114484
0.00117769
0.00114724
0.00114724
0.00114484
0.0011395
0.00110424
0.00113709
0.00113709
0.00110664
0.00110664
0.0011395
0.00110424
0.00113709
0.00113709
0.00110664
0.00110664
0.00113709
0.00110664
0.00110664
0.0011395
0.00110424
0.00113709
0.00110664
0.00110664
0.00110424
0.00109889
0.00106364
0.00109649
0.00109649
0.00106603
0.00106603
0.00109889
0.00106364
0.00109649
0.00109649
0.00106603
0.00106603
0.00109649
0.00106603
0.00106603
0.00109889
0.00106363
0.00109649
0.00106603
0.00106603
0.00106363
0.00105829
0.00102303
0.00105588
0.00105588
0.00102543
0.00102543
0.00105829
0.00102303
0.00105588
0.00105588
0.00102543
0.00102543
0.00105588
0.00102543
0.00102543
0.00105829
0.00102303
0.00105588
0.00102543
0.00102543
0.00102303
0.00101768
0.000982426
0.00101528
0.00101528
0.000984824
0.000984824
0.00101768
0.000982426
0.00101528
0.00101528
0.000984824
0.000984824
0.00101528
0.000984824
0.000984825
0.00101768
0.000982426
0.00101528
0.000984825
0.000984825
0.000982426
0.000977079
0.00094182
0.000974673
0.000974673
0.000944219
0.000944218
0.000977079
0.00094182
0.000974673
0.000974673
0.000944218
0.000944219
0.000974673
0.000944219
0.000944219
0.000977079
0.00094182
0.000974673
0.000944219
0.000944219
0.00094182
0.000936473
0.000901214
0.000934067
0.000934067
0.000903612
0.000903612
0.000936473
0.000901214
0.000934067
0.000934067
0.000903612
0.000903612
0.000934067
0.000903612
0.000903612
0.000936473
0.000901214
0.000934067
0.000903612
0.000903612
0.000901214
0.000895866
0.000860607
0.00089346
0.00089346
0.000863006
0.000863005
0.000895866
0.000860607
0.00089346
0.00089346
0.000863005
0.000863005
0.00089346
0.000863005
0.000863006
0.000895866
0.000860607
0.00089346
0.000863005
0.000863005
0.000860607
0.00085526
0.000820001
0.000852854
0.000852854
0.0008224
0.0008224
0.00085526
0.000820001
0.000852854
0.000852854
0.000822399
0.0008224
0.000852854
0.0008224
0.0008224
0.00085526
0.000820001
0.000852854
0.0008224
0.0008224
0.000820001
0.000814654
0.000779394
0.000812248
0.000812248
0.000781793
0.000781793
0.000814654
0.000779395
0.000812248
0.000812248
0.000781793
0.000781793
0.000812248
0.000781793
0.000781793
0.000814654
0.000779394
0.000812248
0.000781793
0.000781793
0.000779394
0.000774047
0.000738786
0.000771641
0.000771641
0.000741185
0.000741185
0.000774047
0.000738786
0.000771641
0.000771641
0.000741185
0.000741185
0.000771641
0.000741185
0.000741185
0.000774047
0.000738786
0.000771641
0.000741185
0.000741185
0.000738786
0.000733439
0.000698179
0.000731033
0.000731033
0.000700577
0.000700577
0.000733439
0.000698179
0.000731033
0.000731033
0.000700577
0.000700577
0.000731033
0.000700577
0.000700577
0.000733439
0.000698179
0.000731033
0.000700577
0.000700577
0.000698179
0.000692831
0.000657572
0.000690425
0.000690425
0.00065997
0.00065997
0.000692831
0.000657572
0.000690425
0.000690425
0.00065997
0.000659971
0.000690426
0.00065997
0.000659971
0.000692831
0.000657572
0.000690425
0.00065997
0.000659971
0.000657572
0.000652225
0.000616966
0.000649819
0.000649819
0.000619364
0.000619364
0.000652225
0.000616966
0.000649819
0.000649819
0.000619364
0.000619364
0.000649819
0.000619364
0.000619364
0.000652225
0.000616966
0.000649819
0.000619364
0.000619364
0.000616966
0.000611618
0.000576359
0.000609212
0.000609212
0.000578758
0.000578757
0.000611618
0.000576359
0.000609212
0.000609212
0.000578757
0.000578757
0.000609212
0.000578757
0.000578758
0.000611618
0.000576359
0.000609212
0.000578757
0.000578757
0.000576359
0.000571012
0.000535753
0.000568606
0.000568606
0.000538151
0.000538151
0.000571012
0.000535753
0.000568606
0.000568606
0.000538151
0.000538151
0.000568606
0.000538151
0.000538151
0.000571012
0.000535753
0.000568606
0.000538151
0.000538151
0.000535753
0.000530405
0.000495146
0.000528
0.000528
0.000497544
0.000497544
0.000530406
0.000495146
0.000527999
0.000528
0.000497544
0.000497544
0.000528
0.000497544
0.000497545
0.000530405
0.000495146
0.000527999
0.000497544
0.000497544
0.000495146
0.000489799
0.000454538
0.000487393
0.000487392
0.000456936
0.000456936
0.000489798
0.000454538
0.000487392
0.000487392
0.000456936
0.000456936
0.000487393
0.000456936
0.000456936
0.000489798
0.000454538
0.000487392
0.000456936
0.000456936
0.000454538
0.00044919
0.000413928
0.000446784
0.000446784
0.000416327
0.000416327
0.00044919
0.000413929
0.000446783
0.000446784
0.000416327
0.000416327
0.000446784
0.000416327
0.000416327
0.00044919
0.000413928
0.000446784
0.000416327
0.000416327
0.000413928
0.000408581
0.00037332
0.000406175
0.000406175
0.000375718
0.000375718
0.000408581
0.00037332
0.000406174
0.000406175
0.000375718
0.000375718
0.000406175
0.000375718
0.000375718
0.000408581
0.00037332
0.000406175
0.000375718
0.000375718
0.00037332
0.000367972
0.000332711
0.000365566
0.000365566
0.000335109
0.000335109
0.000367972
0.000332711
0.000365566
0.000365566
0.000335109
0.000335109
0.000365566
0.000335109
0.000335109
0.000367972
0.000332711
0.000365566
0.000335109
0.000335109
0.000332711
0.000327363
0.000292098
0.000324958
0.000324958
0.000294495
0.000294495
0.000327363
0.000292098
0.000324958
0.000324958
0.000294495
0.000294495
0.000324958
0.000294496
0.000294496
0.000327363
0.000292098
0.000324958
0.000294496
0.000294496
0.000292098
0.000286745
0.00025149
0.00028434
0.00028434
0.000253889
0.000253889
0.000286745
0.00025149
0.00028434
0.00028434
0.000253889
0.000253889
0.000284341
0.000253889
0.000253889
0.000286746
0.00025149
0.000284341
0.000253889
0.000253889
0.00025149
0.000246143
0.000210871
0.00024374
0.00024374
0.000213266
0.000213266
0.000246143
0.000210872
0.00024374
0.00024374
0.000213266
0.000213266
0.00024374
0.000213266
0.000213266
0.000246143
0.000210871
0.00024374
0.000213266
0.000213266
0.000210871
0.000205506
0.000170255
0.000203105
0.000203105
0.000172654
0.000172654
0.000205506
0.000170255
0.000203105
0.000203105
0.000172653
0.000172654
0.000203105
0.000172654
0.000172654
0.000205507
0.000170255
0.000203105
0.000172653
0.000172653
0.000170255
0.000164887
0.000129631
0.000162494
0.000162494
0.000132024
0.000132024
0.000164886
0.000129632
0.000162494
0.000162494
0.000132024
0.000132024
0.000162494
0.000132024
0.000132024
0.000164886
0.000129631
0.000162494
0.000132024
0.000132024
0.000129631
0.000124244
8.89951e-05
0.000121862
0.000121862
9.1384e-05
9.13845e-05
0.000124244
8.89959e-05
0.000121862
0.000121862
9.13837e-05
9.13835e-05
0.000121862
9.13842e-05
9.13839e-05
0.000124244
8.89945e-05
0.000121862
9.13834e-05
9.13834e-05
8.89948e-05
8.35699e-05
4.83943e-05
8.12161e-05
8.12164e-05
5.07873e-05
5.07878e-05
8.357e-05
4.83952e-05
8.12156e-05
8.1215e-05
5.07854e-05
5.07848e-05
8.12158e-05
5.07865e-05
5.07848e-05
8.35695e-05
4.83917e-05
8.12152e-05
5.0784e-05
5.07835e-05
4.83916e-05
4.29774e-05
1.16778e-05
4.07608e-05
4.07609e-05
1.38345e-05
1.38339e-05
4.29777e-05
1.16777e-05
4.07588e-05
4.07574e-05
1.38326e-05
1.38286e-05
4.07569e-05
1.38314e-05
1.38274e-05
4.29741e-05
1.16727e-05
4.07556e-05
1.38289e-05
1.3829e-05
1.16726e-05
8.19627e-06
8.64988e-06
8.65e-06
8.19719e-06
8.64817e-06
8.64517e-06
8.50252e-06
8.50013e-06
8.50017e-06
8.64503e-06
8.19262e-06
8.64587e-06
0.00390791
0.00391767
0.00391247
0.00391247
0.00393485
0.00392164
0.00395024
0.00391568
0.00393485
0.00392164
0.00391568
0.00395024
0.0039262
0.00395397
0.00395397
0.00386327
0.00388242
0.00389161
0.00385534
0.00385611
0.00385886
0.00386325
0.00388239
0.0038916
0.00385532
0.00388613
0.00388613
0.00388613
0.00384272
0.00384272
0.00384272
0.00384272
0.00386077
0.0038866
0.00388653
0.0038696
0.00388962
0.00385967
0.00387048
0.00385621
0.00385885
0.00386078
0.00388653
0.00388661
0.0038696
0.00388962
0.00387048
0.00385967
0.00389247
0.00389246
0.003864
0.00385931
0.0038593
0.00381663
0.00383592
0.00383728
0.00381515
0.00383483
0.00381472
0.00381662
0.00383592
0.00383728
0.00381514
0.00383077
0.00383077
0.00383077
0.00379318
0.00379318
0.00379318
0.00379318
0.00381522
0.00383599
0.00383077
0.0038189
0.00383478
0.00381575
0.00381863
0.00383483
0.00381471
0.00381522
0.00383077
0.00383599
0.0038189
0.00383478
0.00381863
0.00381575
0.00383702
0.00383702
0.00381545
0.00381608
0.00381608
0.00376439
0.00378321
0.00378427
0.00376337
0.00378286
0.00376307
0.00376439
0.00378321
0.00378427
0.00376337
0.00378002
0.00378002
0.00378002
0.00374065
0.00374065
0.00374064
0.00374064
0.00376349
0.0037836
0.0037799
0.00376685
0.00378303
0.00376385
0.00376676
0.00378286
0.00376307
0.00376349
0.0037799
0.0037836
0.00376685
0.00378303
0.00376676
0.00376385
0.00378385
0.00378384
0.00376348
0.00376392
0.00376392
0.00371189
0.00373052
0.00373135
0.0037111
0.00373031
0.00371092
0.00371189
0.00373052
0.00373135
0.0037111
0.00372763
0.00372763
0.00372763
0.00368903
0.00368903
0.00368903
0.00368903
0.00371136
0.00373091
0.00372759
0.0037147
0.00373062
0.00371155
0.00371465
0.00373031
0.00371092
0.00371136
0.00372759
0.00373091
0.0037147
0.00373062
0.00371465
0.00371155
0.00373096
0.00373096
0.0037114
0.00371149
0.00371149
0.00366059
0.00367906
0.00367971
0.00366008
0.00367891
0.00365994
0.00366059
0.00367905
0.00367971
0.00366008
0.0036763
0.0036763
0.0036763
0.0036387
0.0036387
0.0036387
0.0036387
0.00366035
0.0036794
0.00367628
0.00366366
0.00367922
0.00366046
0.00366364
0.00367891
0.00365994
0.00366035
0.00367628
0.0036794
0.00366366
0.00367922
0.00366364
0.00366046
0.00367939
0.00367939
0.00366046
0.00366037
0.00366037
0.0036109
0.00362898
0.00362946
0.00361057
0.00362886
0.00361046
0.0036109
0.00362898
0.00362946
0.00361057
0.00362637
0.00362637
0.00362637
0.0035901
0.0035901
0.0035901
0.0035901
0.00361087
0.00362928
0.00362634
0.00361413
0.00362916
0.00361092
0.00361412
0.00362885
0.00361046