/*--------------------------------*- C++ -*----------------------------------*\
| =========                 |                                                 |
| \\      /  F ield         | OpenFOAM: The Open Source CFD Toolbox           |
|  \\    /   O peration     | Version:  2206                                  |
|   \\  /    A nd           | Website:  www.openfoam.com                      |
|    \\/     M anipulation  |                                                 |
\*---------------------------------------------------------------------------*/
FoamFile
{
    version     2.0;
    format      ascii;
    arch        "LSB;label=32;scalar=64";
    class       volScalarField;
    location    "35";
    object      Ux;
}
// * * * * * * * * * * * * * * * * * * * * * * * * * * * * * * * * * * * * * //

dimensions      [0 1 -1 0 0 0 0];

internalField   nonuniform List<scalar> 
171728
(
0.000107993
-0.000190226
0.000119357
-0.000239513
9.42432e-05
-0.000159095
9.6953e-05
-0.000200926
9.57016e-05
-0.00015626
9.37405e-05
-0.000201563
9.45419e-05
-0.000152781
9.0481e-05
-0.00019782
9.05454e-05
-0.000145786
8.50056e-05
-0.000190777
8.7092e-05
-0.00013725
7.91653e-05
-0.000183817
7.41139e-05
-0.000121792
6.88653e-05
-0.000166937
4.31434e-05
-6.19101e-05
3.64808e-05
-0.000104395
1.84169e-05
-2.56315e-05
1.8124e-05
-6.90147e-05
2.91843e-06
-5.078e-06
4.13911e-06
-5.07904e-05
-5.14391e-07
-8.99698e-07
1.13962e-06
-4.74534e-05
-8.52762e-07
-5.85443e-07
8.99705e-07
-4.72545e-05
-8.68697e-07
-5.86162e-07
8.9153e-07
-4.72503e-05
-8.68554e-07
-5.85405e-07
8.91821e-07
-4.72515e-05
-8.71528e-07
-5.79986e-07
8.91502e-07
-4.72519e-05
-8.71823e-07
-5.79925e-07
8.91113e-07
-4.72515e-05
-8.70944e-07
-5.80526e-07
8.91153e-07
-4.72507e-05
-8.71193e-07
-5.79581e-07
8.91222e-07
-4.72509e-05
-8.68994e-07
-5.80167e-07
8.91269e-07
-4.72507e-05
-8.62463e-07
-5.78099e-07
8.92289e-07
-4.72514e-05
-8.58577e-07
-5.83982e-07
8.92847e-07
-4.72506e-05
-8.67679e-07
-5.80759e-07
8.92517e-07
-4.72509e-05
-8.68511e-07
-5.79411e-07
8.92128e-07
-4.72507e-05
-8.69533e-07
-5.78973e-07
8.91978e-07
-4.72508e-05
-8.69953e-07
-5.78424e-07
8.91493e-07
-4.72511e-05
-8.70871e-07
-5.77467e-07
8.91091e-07
-4.72512e-05
-8.71695e-07
-5.77021e-07
8.91026e-07
-4.72513e-05
-8.7147e-07
-5.77417e-07
8.91514e-07
-4.72515e-05
-8.71109e-07
-5.77931e-07
8.91835e-07
-4.7252e-05
-8.70115e-07
-5.7795e-07
8.92284e-07
-4.72524e-05
-8.70084e-07
-5.78461e-07
8.91905e-07
-4.72527e-05
-8.7051e-07
-5.78301e-07
8.92307e-07
-4.72524e-05
-8.70487e-07
-5.77592e-07
8.91851e-07
-4.72519e-05
-8.71477e-07
-5.76858e-07
8.91239e-07
-4.72516e-05
-8.71124e-07
-5.76923e-07
8.91428e-07
-4.72514e-05
-8.71075e-07
-5.76871e-07
8.91447e-07
-4.72515e-05
-8.70585e-07
-5.77105e-07
8.92236e-07
-4.72522e-05
-8.7047e-07
-5.78143e-07
8.92345e-07
-4.72526e-05
-8.7028e-07
-5.77697e-07
8.92458e-07
-4.72525e-05
-8.70391e-07
-5.7754e-07
8.90969e-07
-4.72499e-05
-8.66589e-07
-5.74513e-07
8.90806e-07
-4.72497e-05
-8.73601e-07
-5.78052e-07
8.91571e-07
-4.72526e-05
-8.71345e-07
-5.76606e-07
8.90937e-07
-4.72515e-05
-8.70213e-07
-5.78352e-07
8.9113e-07
-4.72518e-05
-8.69377e-07
-5.7889e-07
8.90856e-07
-4.72524e-05
-8.67988e-07
-5.79473e-07
8.91647e-07
-4.72525e-05
-8.67403e-07
-5.79832e-07
8.91524e-07
-4.72527e-05
-8.68179e-07
-5.79255e-07
8.91327e-07
-4.72527e-05
-8.68455e-07
-5.79668e-07
8.91032e-07
-4.72527e-05
-8.68788e-07
-5.78058e-07
8.90923e-07
-4.72519e-05
-8.68936e-07
-5.79198e-07
8.9126e-07
-4.72522e-05
-8.69021e-07
-5.78724e-07
8.91222e-07
-4.72523e-05
-8.67964e-07
-5.79508e-07
8.91753e-07
-4.7253e-05
-8.66699e-07
-5.79364e-07
8.92362e-07
-4.7253e-05
-8.65801e-07
-5.79589e-07
8.92414e-07
-4.72525e-05
-8.67834e-07
-5.80421e-07
8.91647e-07
-4.72538e-05
-8.67701e-07
-5.81168e-07
8.91653e-07
-4.72553e-05
-8.67568e-07
-5.81367e-07
8.92041e-07
-4.72554e-05
-8.67674e-07
-5.80639e-07
8.92022e-07
-4.72553e-05
-8.6721e-07
-5.81664e-07
8.92633e-07
-4.72553e-05
-8.66468e-07
-5.81644e-07
8.92862e-07
-4.72556e-05
-8.66308e-07
-5.82506e-07
8.93026e-07
-4.7256e-05
-8.66187e-07
-5.82549e-07
8.93565e-07
-4.72561e-05
-8.66254e-07
-5.81588e-07
8.92904e-07
-4.72554e-05
-8.66475e-07
-5.8147e-07
8.92737e-07
-4.72555e-05
-8.6774e-07
-5.80682e-07
8.92233e-07
-4.72548e-05
-8.67203e-07
-5.81117e-07
8.92683e-07
-4.7255e-05
-8.66849e-07
-5.81036e-07
8.9267e-07
-4.72556e-05
-8.66132e-07
-5.81626e-07
8.94547e-07
-4.72568e-05
-8.65478e-07
-5.82409e-07
9.00163e-07
-4.72607e-05
-8.65526e-07
-5.81758e-07
8.96481e-07
-4.72596e-05
-8.65909e-07
-5.82122e-07
8.93403e-07
-4.72559e-05
-8.67118e-07
-5.80711e-07
8.92652e-07
-4.72553e-05
-8.6743e-07
-5.81618e-07
8.92302e-07
-4.72555e-05
-8.6734e-07
-5.80223e-07
8.92436e-07
-4.72556e-05
-8.66912e-07
-5.81741e-07
8.93037e-07
-4.72563e-05
-8.66532e-07
-5.81787e-07
8.93144e-07
-4.72568e-05
-8.66104e-07
-5.81963e-07
8.93878e-07
-4.7257e-05
-8.65948e-07
-5.82455e-07
8.94062e-07
-4.72571e-05
-8.66605e-07
-5.81899e-07
8.93123e-07
-4.7257e-05
-8.66912e-07
-5.8125e-07
8.92895e-07
-4.72564e-05
-8.67268e-07
-5.80892e-07
8.92867e-07
-4.72561e-05
-8.67408e-07
-5.81316e-07
8.92615e-07
-4.72562e-05
-8.6686e-07
-5.80564e-07
8.92712e-07
-4.72564e-05
-8.67281e-07
-5.79948e-07
8.91572e-07
-4.72568e-05
-8.72156e-07
-5.73493e-07
8.8536e-07
-4.72533e-05
-8.82918e-07
-5.628e-07
8.71185e-07
-4.72307e-05
-8.97879e-07
-5.75198e-07
8.74667e-07
-4.70642e-05
-8.28836e-07
-6.97283e-07
9.70187e-07
-4.713e-05
-7.34161e-07
-9.01656e-07
1.07037e-06
-4.64887e-05
-6.08042e-07
-1.30471e-06
1.34796e-06
-4.61482e-05
-4.93838e-07
-2.15773e-06
1.98407e-06
-4.48698e-05
-4.86508e-07
-3.77595e-06
3.2933e-06
-4.1256e-05
-5.88992e-06
-2.47478e-06
3.58124e-06
-2.68462e-05
-4.07944e-05
4.23929e-05
-3.38962e-05
4.57383e-05
0.000135038
0.000124252
-0.000124244
-0.000135034
0.000152905
0.000152877
9.0803e-05
-9.07931e-05
9.07772e-05
-9.07747e-05
-0.000152901
-0.000152887
0.000135028
0.000124205
-0.000124201
-0.000135036
0.000239555
0.000111556
0.000119407
-0.000119358
8.91894e-05
-8.91509e-05
-0.000239565
-0.000111516
0.000190262
0.000190201
0.000147376
0.000147411
-0.000190183
-0.000147347
-0.000147368
0.000239486
0.000111507
-0.000119337
8.91638e-05
-8.91433e-05
-0.000111506
0.000201014
0.000106051
9.69597e-05
-9.69329e-05
9.41993e-05
-9.41996e-05
-0.000200976
-0.000106039
0.000159128
0.000159146
0.0001567
0.000156741
-0.000159124
-0.000156697
-0.000156719
0.000200924
0.000106014
-9.6935e-05
9.42009e-05
-9.42068e-05
-0.000106029
0.000201631
9.70931e-05
9.37329e-05
-9.37383e-05
9.09108e-05
-9.09003e-05
-0.000201622
-9.70728e-05
0.000156268
0.000156308
0.000153122
0.000153155
-0.00015629
-0.000153118
-0.000153156
0.000201547
9.70454e-05
-9.37486e-05
9.09131e-05
-9.09036e-05
-9.71076e-05
0.000197853
8.70813e-05
9.0478e-05
-9.04661e-05
8.5194e-05
-8.51831e-05
-0.000197835
-8.7069e-05
0.000152788
0.000152819
0.000145686
0.00014572
-0.00015282
-0.000145683
-0.000145726
0.000197756
8.70423e-05
-9.04669e-05
8.51988e-05
-8.51794e-05
-8.7107e-05
0.000190793
8.00545e-05
8.50016e-05
-8.49952e-05
8.23381e-05
-8.23301e-05
-0.000190794
-8.00532e-05
0.000145793
0.000145819
0.00014181
0.000141843
-0.000145829
-0.00014181
-0.000141856
0.000190714
8.00246e-05
-8.49871e-05
8.23522e-05
-8.23275e-05
-8.00913e-05
0.00018383
6.80239e-05
7.91627e-05
-7.91579e-05
7.55888e-05
-7.55629e-05
-0.000183828
-6.80051e-05
0.000137257
0.000137283
0.000131023
0.000131049
-0.0001373
-0.000131022
-0.000131058
0.000183744
6.79559e-05
-7.91428e-05
7.56207e-05
-7.55884e-05
-6.80526e-05
0.000166963
1.25729e-05
6.89162e-05
-6.88972e-05
4.1765e-05
-4.1764e-05
-0.00016695
-1.25535e-05
0.000121782
0.000121829
7.40554e-05
7.40857e-05
-0.000121832
-7.4046e-05
-7.40895e-05
0.000166859
1.25914e-05
-6.88273e-05
4.17157e-05
-4.17033e-05
-1.25761e-05
0.000104418
-2.46514e-05
3.65301e-05
-3.65328e-05
2.32271e-05
-2.32238e-05
-0.000104411
2.46719e-05
6.19199e-05
6.19433e-05
3.40169e-05
3.40221e-05
-6.19363e-05
-3.40007e-05
-3.40077e-05
0.000104394
-2.46368e-05
-3.64784e-05
2.31798e-05
-2.318e-05
2.46633e-05
6.90517e-05
-4.49419e-05
1.81651e-05
-1.81609e-05
6.33408e-06
-6.32994e-06
-6.90339e-05
4.49563e-05
2.56486e-05
2.56572e-05
8.11089e-06
8.12661e-06
-2.56408e-05
-8.09873e-06
-8.13108e-06
6.90157e-05
-4.49283e-05
-1.81224e-05
6.29268e-06
-6.29639e-06
4.49245e-05
5.08e-05
-4.93349e-05
4.17849e-06
-4.1728e-06
1.44004e-06
-1.42739e-06
-5.07887e-05
4.93433e-05
5.09167e-06
5.10485e-06
1.28044e-06
1.3021e-06
-5.11057e-06
-1.27243e-06
-1.30457e-06
5.07708e-05
-4.93097e-05
-4.1423e-06
1.39723e-06
-1.39666e-06
4.93111e-05
4.74576e-05
-4.96306e-05
1.18075e-06
-1.16602e-06
9.45971e-07
-9.44897e-07
-4.74565e-05
4.96389e-05
9.09485e-07
9.30116e-07
6.01063e-07
6.27914e-07
-9.30295e-07
-5.96577e-07
-6.28141e-07
4.74405e-05
-4.96044e-05
-1.13722e-06
9.12549e-07
-9.10346e-07
4.96073e-05
4.72584e-05
-4.96397e-05
9.32522e-07
-9.31125e-07
9.21336e-07
-9.22769e-07
-4.72575e-05
4.96434e-05
5.90871e-07
6.14574e-07
5.79802e-07
6.07515e-07
-6.141e-07
-5.83064e-07
-6.09875e-07
4.7242e-05
-4.96123e-05
-8.97129e-07
8.90334e-07
-8.88321e-07
4.96139e-05
4.72521e-05
-4.96393e-05
9.2142e-07
-9.22184e-07
9.21405e-07
-9.22529e-07
-4.72561e-05
4.96402e-05
5.82515e-07
6.07878e-07
5.80145e-07
6.08033e-07
-6.09908e-07
-5.85026e-07
-6.11821e-07
4.72372e-05
-4.96113e-05
-8.88545e-07
8.91339e-07
-8.88954e-07
4.96125e-05
4.72524e-05
-4.96347e-05
9.22716e-07
-9.22872e-07
9.20455e-07
-9.25492e-07
-4.72588e-05
4.96427e-05
5.83305e-07
6.08353e-07
5.80898e-07
6.08189e-07
-6.11043e-07
-5.79336e-07
-6.10966e-07
4.72377e-05
-4.96112e-05
-8.89178e-07
8.90726e-07
-8.89857e-07
4.96122e-05
4.72549e-05
-4.96365e-05
9.18812e-07
-9.27532e-07
9.16572e-07
-9.34561e-07
-4.72579e-05
4.96393e-05
5.83913e-07
6.0858e-07
5.81109e-07
6.08402e-07
-6.10073e-07
-5.7999e-07
-6.10758e-07
4.72378e-05
-4.96111e-05
-8.90214e-07
8.90289e-07
-8.90105e-07
4.96124e-05
4.72533e-05
-4.96344e-05
9.15702e-07
-9.31454e-07
9.18436e-07
-9.25723e-07
-4.72571e-05
4.96403e-05
5.84195e-07
6.086e-07
5.8187e-07
6.08387e-07
-6.09866e-07
-5.794e-07
-6.09847e-07
4.72378e-05
-4.96111e-05
-8.90269e-07
8.90431e-07
-8.89716e-07
4.96131e-05
4.72545e-05
-4.96358e-05
9.17622e-07
-9.25803e-07
9.17796e-07
-9.24442e-07
-4.72546e-05
4.96428e-05
5.84895e-07
6.08641e-07
5.81604e-07
6.08442e-07
-6.09079e-07
-5.79164e-07
-6.09299e-07
4.72378e-05
-4.96112e-05
-8.89655e-07
8.90531e-07
-8.89375e-07
4.96136e-05
4.72541e-05
-4.96381e-05
9.15606e-07
-9.24409e-07
9.19253e-07
-9.28997e-07
-4.72524e-05
4.96422e-05
5.84215e-07
6.08698e-07
5.80847e-07
6.08365e-07
-6.08754e-07
-5.79246e-07
-6.091e-07
4.72382e-05
-4.96113e-05
-8.89234e-07
8.90466e-07
-8.88419e-07
4.9614e-05
4.72557e-05
-4.96385e-05
9.21304e-07
-9.30639e-07
9.22489e-07
-9.19508e-07
-4.72566e-05
4.96465e-05
5.83645e-07
6.0852e-07
5.82088e-07
6.08176e-07
-6.09524e-07
-5.78988e-07
-6.14113e-07
4.72383e-05
-4.96113e-05
-8.88044e-07
8.91114e-07
-8.86978e-07
4.96125e-05
4.72584e-05
-4.96418e-05
9.22673e-07
-9.10066e-07
9.25532e-07
-9.23642e-07
-4.72402e-05
4.96342e-05
5.86097e-07
6.08577e-07
5.88667e-07
6.0905e-07
-6.13873e-07
-5.83183e-07
-6.08876e-07
4.7238e-05
-4.96104e-05
-8.87026e-07
8.92184e-07
-8.87685e-07
4.96132e-05
4.72557e-05
-4.96397e-05
9.27004e-07
-9.23284e-07
9.1942e-07
-9.22601e-07
-4.72581e-05
4.96453e-05
5.90758e-07
6.09514e-07
5.8342e-07
6.09042e-07
-6.07857e-07
-5.79687e-07
-6.09477e-07
4.72382e-05
-4.96102e-05
-8.88082e-07
8.91703e-07
-8.88691e-07
4.96129e-05
4.72591e-05
-4.96385e-05
9.19579e-07
-9.25029e-07
9.21422e-07
-9.26347e-07
-4.72486e-05
4.96404e-05
5.85628e-07
6.09261e-07
5.82783e-07
6.09081e-07
-6.08824e-07
-5.78993e-07
-6.0967e-07
4.72383e-05
-4.96099e-05
-8.89236e-07
8.91513e-07
-8.89605e-07
4.96129e-05
4.72607e-05
-4.96387e-05
9.21213e-07
-9.26809e-07
9.21847e-07
-9.2697e-07
-4.72523e-05
4.96403e-05
5.85758e-07
6.09372e-07
5.81945e-07
6.09067e-07
-6.09031e-07
-5.78256e-07
-6.0988e-07
4.72385e-05
-4.96099e-05
-8.8972e-07
8.91271e-07
-8.8949e-07
4.96129e-05
4.72604e-05
-4.96392e-05
9.21531e-07
-9.27296e-07
9.22068e-07
-9.27156e-07
-4.72524e-05
4.964e-05
5.84909e-07
6.09341e-07
5.81222e-07
6.08575e-07
-6.09034e-07
-5.77737e-07
-6.09029e-07
4.72385e-05
-4.96104e-05
-8.89761e-07
8.90808e-07
-8.89419e-07
4.96127e-05
4.72599e-05
-4.96398e-05
9.22143e-07
-9.27408e-07
9.21968e-07
-9.27235e-07
-4.72527e-05
4.96404e-05
5.84472e-07
6.08733e-07
5.80469e-07
6.07936e-07
-6.08074e-07
-5.76875e-07
-6.08176e-07
4.72379e-05
-4.9611e-05
-8.89569e-07
8.90383e-07
-8.89277e-07
4.96127e-05
4.72591e-05
-4.96406e-05
9.21677e-07
-9.27667e-07
9.21694e-07
-9.27443e-07
-4.72523e-05
4.96406e-05
5.8341e-07
6.08075e-07
5.79441e-07
6.07373e-07
-6.07312e-07
-5.76285e-07
-6.07692e-07
4.72373e-05
-4.96111e-05
-8.89388e-07
8.90291e-07
-8.89354e-07
4.96125e-05
4.72584e-05
-4.96408e-05
9.21326e-07
-9.27827e-07
9.21617e-07
-9.2715e-07
-4.72522e-05
4.96407e-05
5.82652e-07
6.07659e-07
5.7963e-07
6.07592e-07
-6.06845e-07
-5.765e-07
-6.07515e-07
4.72372e-05
-4.9611e-05
-8.89478e-07
8.90587e-07
-8.89416e-07
4.96125e-05
4.72586e-05
-4.964e-05
9.21704e-07
-9.28107e-07
9.22417e-07
-9.27298e-07
-4.72523e-05
4.964e-05
5.83124e-07
6.08057e-07
5.80125e-07
6.0811e-07
-6.07032e-07
-5.77037e-07
-6.0787e-07
4.72376e-05
-4.96104e-05
-8.89728e-07
8.91055e-07
-8.89721e-07
4.96119e-05
4.72592e-05
-4.96394e-05
9.22458e-07
-9.29007e-07
9.23719e-07
-9.26457e-07
-4.72532e-05
4.96402e-05
5.83487e-07
6.08495e-07
5.80435e-07
6.08448e-07
-6.07155e-07
-5.7704e-07
-6.08263e-07
4.72381e-05
-4.96101e-05
-8.89832e-07
8.91355e-07
-8.90004e-07
4.96116e-05
4.72597e-05
-4.96392e-05
9.23781e-07
-9.29438e-07
9.24179e-07
-9.25565e-07
-4.72531e-05
4.96392e-05
5.83924e-07
6.09126e-07
5.80707e-07
6.08807e-07
-6.07878e-07
-5.77695e-07
-6.08773e-07
4.72384e-05
-4.961e-05
-8.90308e-07
8.91378e-07
-8.90264e-07
4.96111e-05
4.72599e-05
-4.96398e-05
9.2392e-07
-9.31876e-07
9.23665e-07
-9.27401e-07
-4.72547e-05
4.96404e-05
5.83807e-07
6.08933e-07
5.80307e-07
6.08704e-07
-6.08033e-07
-5.77704e-07
-6.08544e-07
4.72383e-05
-4.96101e-05
-8.9041e-07
8.91457e-07
-8.90113e-07
4.96114e-05
4.72594e-05
-4.96401e-05
9.23354e-07
-9.29667e-07
9.23758e-07
-9.29069e-07
-4.72539e-05
4.96417e-05
5.836e-07
6.09137e-07
5.79919e-07
6.08225e-07
-6.07626e-07
-5.76895e-07
-6.07953e-07
4.72384e-05
-4.96103e-05
-8.90009e-07
8.91292e-07
-8.89657e-07
4.9612e-05
4.72591e-05
-4.96405e-05
9.23739e-07
-9.29287e-07
9.23056e-07
-9.29309e-07
-4.72521e-05
4.96424e-05
5.83213e-07
6.08525e-07
5.79474e-07
6.07711e-07
-6.07368e-07
-5.76389e-07
-6.07608e-07
4.72379e-05
-4.96109e-05
-8.89855e-07
8.90716e-07
-8.89378e-07
4.96121e-05
4.72585e-05
-4.96407e-05
9.22578e-07
-9.29339e-07
9.23141e-07
-9.29573e-07
-4.72514e-05
4.96427e-05
5.82427e-07
6.07824e-07
5.79011e-07
6.07342e-07
-6.06742e-07
-5.76222e-07
-6.07314e-07
4.72374e-05
-4.96112e-05
-8.89309e-07
8.90567e-07
-8.89189e-07
4.96125e-05
4.72585e-05
-4.96401e-05
9.2327e-07
-9.29764e-07
9.23491e-07
-9.29633e-07
-4.72512e-05
4.96426e-05
5.82567e-07
6.07962e-07
5.79534e-07
6.07671e-07
-6.06756e-07
-5.76063e-07
-6.07282e-07
4.72373e-05
-4.96108e-05
-8.89271e-07
8.90832e-07
-8.89315e-07
4.96124e-05
4.7259e-05
-4.96401e-05
9.23231e-07
-9.29648e-07
9.23535e-07
-9.3001e-07
-4.72511e-05
4.96425e-05
5.8259e-07
6.07887e-07
5.7998e-07
6.08098e-07
-6.06708e-07
-5.76321e-07
-6.07759e-07
4.72376e-05
-4.96104e-05
-8.89484e-07
8.91348e-07
-8.89909e-07
4.96118e-05
4.72593e-05
-4.96398e-05
9.23656e-07
-9.29998e-07
9.23565e-07
-9.30706e-07
-4.72512e-05
4.96417e-05
5.83396e-07
6.0869e-07
5.80273e-07
6.08402e-07
-6.07316e-07
-5.77156e-07
-6.08332e-07
4.72382e-05
-4.961e-05
-8.90051e-07
8.91679e-07
-8.90425e-07
4.96112e-05
4.72593e-05
-4.96396e-05
9.23661e-07
-9.30597e-07
9.2347e-07
-9.31073e-07
-4.72521e-05
4.96416e-05
5.83401e-07
6.08825e-07
5.80547e-07
6.08579e-07
-6.0785e-07
-5.77037e-07
-6.0836e-07
4.72384e-05
-4.96099e-05
-8.90446e-07
8.91776e-07
-8.90521e-07
4.96111e-05
4.72591e-05
-4.96402e-05
9.23858e-07
-9.30205e-07
9.21829e-07
-9.31938e-07
-4.72517e-05
4.96429e-05
5.8358e-07
6.09088e-07
5.81992e-07
6.09275e-07
-6.07974e-07
-5.77252e-07
-6.11072e-07
4.72385e-05
-4.96111e-05
-8.90346e-07
8.90874e-07
-8.89736e-07
4.96136e-05
4.72567e-05
-4.96337e-05
9.2153e-07
-9.29388e-07
9.21784e-07
-9.28313e-07
-4.72504e-05
4.9644e-05
5.86042e-07
6.09885e-07
5.866e-07
6.09083e-07
-6.12184e-07
-5.73292e-07
-6.13075e-07
4.72374e-05
-4.96123e-05
-8.87405e-07
8.89705e-07
-8.85303e-07
4.96151e-05
4.72631e-05
-4.96439e-05
9.26485e-07
-9.28499e-07
9.1786e-07
-9.33682e-07
-4.7252e-05
4.96373e-05
5.90225e-07
6.09269e-07
5.79712e-07
6.08519e-07
-6.0965e-07
-5.77726e-07
-6.086e-07
4.72365e-05
-4.96119e-05
-8.87058e-07
8.91116e-07
-8.89599e-07
4.96118e-05
4.72513e-05
-4.96412e-05
9.18292e-07
-9.36001e-07
9.20106e-07
-9.25152e-07
-4.72593e-05
4.96431e-05
5.81303e-07
6.08729e-07
5.79561e-07
6.07817e-07
-6.08297e-07
-5.75716e-07
-6.077e-07
4.7237e-05
-4.96125e-05
-8.89653e-07
8.90464e-07
-8.89298e-07
4.96125e-05
4.72536e-05
-4.96397e-05
9.20222e-07
-9.2543e-07
9.21807e-07
-9.25772e-07
-4.72503e-05
4.9643e-05
5.82481e-07
6.08251e-07
5.80421e-07
6.07935e-07
-6.06711e-07
-5.77258e-07
-6.07372e-07
4.72361e-05
-4.96125e-05
-8.89118e-07
8.90651e-07
-8.8944e-07
4.96124e-05
4.72548e-05
-4.96395e-05
9.20976e-07
-9.25814e-07
9.21571e-07
-9.2588e-07
-4.72513e-05
4.96429e-05
5.83498e-07
6.08647e-07
5.80881e-07
6.08616e-07
-6.07271e-07
-5.78323e-07
-6.08034e-07
4.72362e-05
-4.96118e-05
-8.89732e-07
8.91267e-07
-8.90088e-07
4.96116e-05
4.72551e-05
-4.96386e-05
9.21031e-07
-9.25817e-07
9.22157e-07
-9.25421e-07
-4.72511e-05
4.96433e-05
5.84e-07
6.09151e-07
5.81482e-07
6.09097e-07
-6.07363e-07
-5.78524e-07
-6.08114e-07
4.72368e-05
-4.96115e-05
-8.89773e-07
8.9164e-07
-8.9014e-07
4.96116e-05
4.7256e-05
-4.96375e-05
9.21861e-07
-9.2573e-07
9.22641e-07
-9.25593e-07
-4.72509e-05
4.96431e-05
5.84787e-07
6.09884e-07
5.82604e-07
6.09868e-07
-6.07806e-07
-5.7916e-07
-6.08439e-07
4.72372e-05
-4.9611e-05
-8.90155e-07
8.91856e-07
-8.90235e-07
4.96113e-05
4.72567e-05
-4.96382e-05
9.21953e-07
-9.25656e-07
9.21721e-07
-9.24991e-07
-4.72509e-05
4.96438e-05
5.85441e-07
6.10196e-07
5.81512e-07
6.0911e-07
-6.07791e-07
-5.78566e-07
-6.08134e-07
4.72375e-05
-4.96115e-05
-8.90139e-07
8.91485e-07
-8.90406e-07
4.96114e-05
4.72558e-05
-4.96381e-05
9.20915e-07
-9.25222e-07
9.20806e-07
-9.2535e-07
-4.72501e-05
4.96434e-05
5.84516e-07
6.09573e-07
5.81793e-07
6.08823e-07
-6.07664e-07
-5.78986e-07
-6.0815e-07
4.7237e-05
-4.96117e-05
-8.90531e-07
8.9132e-07
-8.90746e-07
4.96111e-05
4.72559e-05
-4.96381e-05
9.20128e-07
-9.25533e-07
9.20305e-07
-9.24423e-07
-4.72506e-05
4.96445e-05
5.84807e-07
6.09114e-07
5.81576e-07
6.08361e-07
-6.07332e-07
-5.77595e-07
-6.06988e-07
4.72367e-05
-4.96121e-05
-8.90594e-07
8.91015e-07
-8.89954e-07
4.9612e-05
4.72558e-05
-4.96384e-05
9.19636e-07
-9.24482e-07
9.19914e-07
-9.2491e-07
-4.72491e-05
4.96439e-05
5.84501e-07
6.08783e-07
5.81457e-07
6.08529e-07
-6.06229e-07
-5.7826e-07
-6.07177e-07
4.72363e-05
-4.96117e-05
-8.89883e-07
8.91397e-07
-8.90123e-07
4.96117e-05
4.72556e-05
-4.96385e-05
9.19329e-07
-9.25289e-07
9.19819e-07
-9.24653e-07
-4.72502e-05
4.96443e-05
5.84423e-07
6.08986e-07
5.81237e-07
6.08495e-07
-6.06653e-07
-5.78106e-07
-6.07316e-07
4.72367e-05
-4.96117e-05
-8.90175e-07
8.91304e-07
-8.90239e-07
4.96115e-05
4.72555e-05
-4.96375e-05
9.19369e-07
-9.24848e-07
9.20569e-07
-9.24875e-07
-4.72495e-05
4.96438e-05
5.84279e-07
6.08875e-07
5.82096e-07
6.08951e-07
-6.06641e-07
-5.78443e-07
-6.07659e-07
4.72366e-05
-4.96112e-05
-8.90261e-07
8.91749e-07
-8.90865e-07
4.96109e-05
4.72566e-05
-4.96359e-05
9.20342e-07
-9.25271e-07
9.22061e-07
-9.24178e-07
-4.72502e-05
4.96431e-05
5.85437e-07
6.0961e-07
5.834e-07
6.09819e-07
-6.07104e-07
-5.7903e-07
-6.08057e-07
4.7237e-05
-4.96105e-05
-8.90874e-07
8.9234e-07
-8.91007e-07
4.96105e-05
4.72576e-05
-4.96346e-05
9.21976e-07
-9.23228e-07
9.24046e-07
-9.15493e-07
-4.72494e-05
4.96463e-05
5.86557e-07
6.10149e-07
5.84102e-07
6.0968e-07
-6.07189e-07
-5.78335e-07
-6.07055e-07
4.72375e-05
-4.96103e-05
-8.90856e-07
8.92525e-07
-8.90534e-07
4.96112e-05
4.72588e-05
-4.96366e-05
9.23611e-07
-9.15725e-07
9.21794e-07
-9.2548e-07
-4.72468e-05
4.96439e-05
5.87199e-07
6.10079e-07
5.83283e-07
6.09455e-07
-6.06736e-07
-5.80218e-07
-6.08424e-07
4.72375e-05
-4.96107e-05
-8.90436e-07
8.92067e-07
-8.90778e-07
4.96103e-05
4.72571e-05
-4.96385e-05
9.20455e-07
-9.24609e-07
9.20481e-07
-9.2442e-07
-4.725e-05
4.96432e-05
5.85672e-07
6.09243e-07
5.81239e-07
6.06973e-07
-6.09456e-07
-5.80628e-07
-6.13833e-07
4.72372e-05
-4.96126e-05
-8.90274e-07
8.91474e-07
-8.88946e-07
4.96085e-05
4.72554e-05
-4.9639e-05
9.20021e-07
-9.24255e-07
9.20552e-07
-9.23808e-07
-4.72505e-05
4.96435e-05
5.83918e-07
6.06871e-07
5.805e-07
6.06165e-07
-6.14505e-07
-5.80602e-07
-6.13379e-07
4.72356e-05
-4.96132e-05
-8.8829e-07
8.92125e-07
-8.88522e-07
4.96086e-05
4.7255e-05
-4.96392e-05
9.19955e-07
-9.24072e-07
9.20364e-07
-9.2345e-07
-4.72504e-05
4.96437e-05
5.83343e-07
6.06347e-07
5.80135e-07
6.05738e-07
-6.13958e-07
-5.80273e-07
-6.1341e-07
4.72351e-05
-4.96134e-05
-8.88349e-07
8.9203e-07
-8.88761e-07
4.96086e-05
4.72548e-05
-4.9639e-05
9.19822e-07
-9.23549e-07
9.20548e-07
-9.23966e-07
-4.72499e-05
4.9643e-05
5.83118e-07
6.06049e-07
5.80326e-07
6.06133e-07
-6.13872e-07
-5.80824e-07
-6.13511e-07
4.72349e-05
-4.96129e-05
-8.88543e-07
8.92514e-07
-8.89103e-07
4.96087e-05
4.72551e-05
-4.96384e-05
9.20125e-07
-9.24364e-07
9.20986e-07
-9.24356e-07
-4.72509e-05
4.96426e-05
5.83462e-07
6.06634e-07
5.81128e-07
6.06781e-07
-6.14218e-07
-5.81222e-07
-6.13882e-07
4.72355e-05
-4.96125e-05
-8.88965e-07
8.9295e-07
-8.89579e-07
4.96083e-05
4.72557e-05
-4.96383e-05
9.20492e-07
-9.24451e-07
9.21029e-07
-9.24676e-07
-4.72511e-05
4.96424e-05
5.84122e-07
6.07128e-07
5.81272e-07
6.06959e-07
-6.14395e-07
-5.81637e-07
-6.14328e-07
4.72358e-05
-4.96124e-05
-8.8932e-07
8.92973e-07
-8.90009e-07
4.9608e-05
4.72558e-05
-4.9638e-05
9.20534e-07
-9.25168e-07
9.21147e-07
-9.25328e-07
-4.72516e-05
4.96418e-05
5.84199e-07
6.07382e-07
5.81813e-07
6.07738e-07
-6.15134e-07
-5.82183e-07
-6.1481e-07
4.7236e-05
-4.96117e-05
-8.89919e-07
8.93557e-07
-8.90255e-07
4.96078e-05
4.72561e-05
-4.96382e-05
9.20481e-07
-9.25407e-07
9.211e-07
-9.24645e-07
-4.72519e-05
4.96427e-05
5.84318e-07
6.08081e-07
5.81674e-07
6.07349e-07
-6.15243e-07
-5.81289e-07
-6.14087e-07
4.72367e-05
-4.9612e-05
-8.89925e-07
8.93199e-07
-8.89899e-07
4.96084e-05
4.72558e-05
-4.9638e-05
9.20589e-07
-9.24663e-07
9.21107e-07
-9.24544e-07
-4.72509e-05
4.96428e-05
5.83887e-07
6.07461e-07
5.8185e-07
6.07017e-07
-6.14457e-07
-5.80997e-07
-6.13913e-07
4.72361e-05
-4.96124e-05
-8.89595e-07
8.92883e-07
-8.90277e-07
4.96084e-05
4.72559e-05
-4.96393e-05
9.2038e-07
-9.24729e-07
9.20191e-07
-9.2415e-07
-4.72508e-05
4.96433e-05
5.83344e-07
6.072e-07
5.80732e-07
6.05976e-07
-6.14464e-07
-5.80314e-07
-6.13053e-07
4.72358e-05
-4.9613e-05
-8.90129e-07
8.92367e-07
-8.90144e-07
4.9609e-05
4.72545e-05
-4.96392e-05
9.19451e-07
-9.24222e-07
9.2023e-07
-9.24182e-07
-4.72503e-05
4.96432e-05
5.82058e-07
6.06092e-07
5.80899e-07
6.06131e-07
-6.13359e-07
-5.80382e-07
-6.12951e-07
4.72353e-05
-4.96127e-05
-8.89758e-07
8.92537e-07
-8.90107e-07
4.96091e-05
4.72548e-05
-4.96387e-05
9.19829e-07
-9.24473e-07
9.20603e-07
-9.24326e-07
-4.72505e-05
4.96429e-05
5.82767e-07
6.06686e-07
5.81353e-07
6.0649e-07
-6.1389e-07
-5.80591e-07
-6.13387e-07
4.72358e-05
-4.96124e-05
-8.90191e-07
8.92807e-07
-8.90846e-07
4.96082e-05
4.72549e-05
-4.96386e-05
9.19965e-07
-9.24463e-07
9.20652e-07
-9.24496e-07
-4.72504e-05
4.96425e-05
5.82848e-07
6.06706e-07
5.81518e-07
6.07593e-07
-6.13924e-07
-5.80887e-07
-6.14265e-07
4.72359e-05
-4.96103e-05
-8.90638e-07
8.93719e-07
-8.91893e-07
4.96066e-05
4.72548e-05
-4.96379e-05
9.20234e-07
-9.24838e-07
9.21001e-07
-9.25115e-07
-4.72505e-05
4.96419e-05
5.83313e-07
6.08702e-07
5.81878e-07
6.10682e-07
-6.15612e-07
-5.81767e-07
-6.17471e-07
4.72375e-05
-4.96046e-05
-8.92488e-07
8.98835e-07
-8.96573e-07
4.96012e-05
4.72552e-05
-4.9638e-05
9.20452e-07
-9.25442e-07
9.21112e-07
-9.24873e-07
-4.7251e-05
4.96423e-05
5.83467e-07
6.11373e-07
5.81915e-07
6.0951e-07
-6.18602e-07
-5.81357e-07
-6.16712e-07
4.72416e-05
-4.96085e-05
-8.97304e-07
8.98526e-07
-8.96267e-07
4.96035e-05
4.72555e-05
-4.96382e-05
9.20438e-07
-9.24922e-07
9.21083e-07
-9.24863e-07
-4.72508e-05
4.96423e-05
5.83456e-07
6.08854e-07
5.82136e-07
6.07256e-07
-6.16222e-07
-5.8152e-07
-6.13871e-07
4.72393e-05
-4.96119e-05
-8.94656e-07
8.93654e-07
-8.91711e-07
4.96081e-05
4.72557e-05
-4.9639e-05
9.20497e-07
-9.25051e-07
9.20525e-07
-9.24227e-07
-4.72514e-05
4.96432e-05
5.83694e-07
6.07549e-07
5.81336e-07
6.06493e-07
-6.14626e-07
-5.80467e-07
-6.13248e-07
4.72365e-05
-4.96125e-05
-8.9137e-07
8.92768e-07
-8.90881e-07
4.96084e-05
4.72548e-05
-4.96394e-05
9.19793e-07
-9.24293e-07
9.20211e-07
-9.24682e-07
-4.72503e-05
4.96426e-05
5.82727e-07
6.06542e-07
5.81072e-07
6.0619e-07
-6.13479e-07
-5.80935e-07
-6.13155e-07
4.72357e-05
-4.96128e-05
-8.90576e-07
8.9255e-07
-8.90865e-07
4.96084e-05
4.72546e-05
-4.96395e-05
9.19586e-07
-9.25004e-07
9.20242e-07
-9.23905e-07
-4.72512e-05
4.96436e-05
5.82636e-07
6.06414e-07
5.81004e-07
6.05971e-07
-6.13585e-07
-5.7998e-07
-6.12609e-07
4.72355e-05
-4.96129e-05
-8.90598e-07
8.92415e-07
-8.91066e-07
4.96083e-05
4.72546e-05
-4.96391e-05
9.19725e-07
-9.23839e-07
9.20545e-07
-9.2439e-07
-4.72499e-05
4.96429e-05
5.82541e-07
6.06245e-07
5.81313e-07
6.06298e-07
-6.12985e-07
-5.80833e-07
-6.12939e-07
4.72354e-05
-4.96124e-05
-8.90777e-07
8.92959e-07
-8.91564e-07
4.96078e-05
4.72551e-05
-4.96386e-05
9.20114e-07
-9.24843e-07
9.20924e-07
-9.24524e-07
-4.72511e-05
4.96428e-05
5.83169e-07
6.06891e-07
5.81917e-07
6.06825e-07
-6.13839e-07
-5.81243e-07
-6.13653e-07
4.72361e-05
-4.9612e-05
-8.91558e-07
8.93236e-07
-8.92126e-07
4.96071e-05
4.72554e-05
-4.96385e-05
9.20274e-07
-9.24711e-07
9.21003e-07
-9.2462e-07
-4.72508e-05
4.96427e-05
5.83454e-07
6.0705e-07
5.8217e-07
6.07165e-07
-6.14249e-07
-5.81294e-07
-6.13916e-07
4.72363e-05
-4.96115e-05
-8.92066e-07
8.93681e-07
-8.92494e-07
4.96068e-05
4.72556e-05
-4.96382e-05
9.20541e-07
-9.24875e-07
9.21254e-07
-9.25149e-07
-4.7251e-05
4.9642e-05
5.83926e-07
6.07718e-07
5.82497e-07
6.07876e-07
-6.14429e-07
-5.81849e-07
-6.13947e-07
4.72369e-05
-4.96108e-05
-8.9222e-07
8.94303e-07
-8.92591e-07
4.96067e-05
4.72558e-05
-4.96386e-05
9.20631e-07
-9.25479e-07
9.20821e-07
-9.25022e-07
-4.72517e-05
4.96422e-05
5.84025e-07
6.08082e-07
5.81982e-07
6.0714e-07
-6.1468e-07
-5.81626e-07
-6.14031e-07
4.72374e-05
-4.96119e-05
-8.9251e-07
8.93401e-07
-8.92693e-07
4.96067e-05
4.72553e-05
-4.9639e-05
9.20139e-07
-9.24989e-07
9.20665e-07
-9.24233e-07
-4.72513e-05
4.96431e-05
5.83363e-07
6.07185e-07
5.81462e-07
6.06514e-07
-6.14347e-07
-5.80729e-07
-6.1333e-07
4.72362e-05
-4.96123e-05
-8.92328e-07
8.92973e-07
-8.9216e-07
4.96073e-05
4.7255e-05
-4.96392e-05
9.20063e-07
-9.2435e-07
9.20396e-07
-9.24388e-07
-4.72504e-05
4.9643e-05
5.83016e-07
6.06801e-07
5.81258e-07
6.06502e-07
-6.13964e-07
-5.80568e-07
-6.12913e-07
4.72359e-05
-4.96122e-05
-8.91905e-07
8.93117e-07
-8.91829e-07
4.96076e-05
4.72548e-05
-4.96395e-05
9.19753e-07
-9.24528e-07
9.20191e-07
-9.24328e-07
-4.72507e-05
4.96431e-05
5.82749e-07
6.06673e-07
5.80883e-07
6.06077e-07
-6.13262e-07
-5.80642e-07
-6.1283e-07
4.7236e-05
-4.96126e-05
-8.91454e-07
8.92767e-07
-8.91671e-07
4.96078e-05
4.72545e-05
-4.96389e-05
9.19589e-07
-9.24495e-07
9.20838e-07
-9.24108e-07
-4.72506e-05
4.96434e-05
5.82534e-07
6.06371e-07
5.81613e-07
6.06571e-07
-6.13481e-07
-5.80473e-07
-6.13022e-07
4.72357e-05
-4.96122e-05
-8.91476e-07
8.93109e-07
-8.91856e-07
4.96075e-05
4.72552e-05
-4.96382e-05
9.19989e-07
-9.23878e-07
9.22196e-07
-9.2576e-07
-4.72502e-05
4.96423e-05
5.82844e-07
6.0649e-07
5.83173e-07
6.08106e-07
-6.13238e-07
-5.82486e-07
-6.14809e-07
4.72361e-05
-4.96116e-05
-8.91329e-07
8.94356e-07
-8.93242e-07
4.96067e-05
4.72554e-05
-4.96353e-05
9.18751e-07
-9.23122e-07
9.26523e-07
-9.30453e-07
-4.72511e-05
4.96394e-05
5.8162e-07
6.0526e-07
5.88791e-07
6.13613e-07
-6.1222e-07
-5.88192e-07
-6.2041e-07
4.72363e-05
-4.96087e-05
-8.90173e-07
8.98497e-07
-8.97588e-07
4.96039e-05
4.72521e-05
-4.96232e-05
9.12272e-07
-9.16943e-07
9.35346e-07
-9.39712e-07
-4.72478e-05
4.96272e-05
5.75146e-07
5.98644e-07
5.99905e-07
6.24802e-07
-6.05566e-07
-5.99372e-07
-6.32258e-07
4.72329e-05
-4.95968e-05
-8.83773e-07
9.07434e-07
-9.06715e-07
4.9592e-05
4.72295e-05
-4.9501e-05
8.97691e-07
-9.02731e-07
9.32862e-07
-9.36755e-07
-4.72257e-05
4.95051e-05
5.64256e-07
5.87637e-07
6.00337e-07
6.25338e-07
-5.95406e-07
-5.99323e-07
-6.34469e-07
4.72095e-05
-4.94753e-05
-8.69612e-07
9.04922e-07
-9.04179e-07
4.94702e-05
4.70641e-05
-4.94857e-05
9.01286e-07
-9.05481e-07
8.92309e-07
-8.9675e-07
-4.70591e-05
4.94896e-05
5.77688e-07
6.00099e-07
5.01804e-07
5.27318e-07
-6.09338e-07
-5.01529e-07
-5.33801e-07
4.70433e-05
-4.94603e-05
-8.73053e-07
8.63977e-07
-8.63857e-07
4.94542e-05
4.71303e-05
-4.90174e-05
9.97004e-07
-1.00197e-06
7.57283e-07
-7.62196e-07
-4.71252e-05
4.90222e-05
6.99067e-07
7.21919e-07
3.17922e-07
3.42904e-07
-7.30119e-07
-3.17257e-07
-3.49712e-07
4.71099e-05
-4.89907e-05
-9.69002e-07
7.29567e-07
-7.29047e-07
4.89864e-05
4.649e-05
-4.87652e-05
1.09712e-06
-1.10179e-06
5.26722e-07
-5.33152e-07
-4.64841e-05
4.87691e-05
9.04302e-07
9.25745e-07
2.0209e-08
4.71911e-08
-9.34277e-07
-1.94542e-08
-5.29548e-08
4.64705e-05
-4.874e-05
-1.06937e-06
4.99497e-07
-5.0019e-07
4.87343e-05
4.61504e-05
-4.76232e-05
1.37303e-06
-1.37843e-06
-1.02661e-08
2.40084e-09
-4.61455e-05
4.76264e-05
1.3068e-06
1.32855e-06
-6.37601e-07
-6.07452e-07
-1.33446e-06
6.38525e-07
6.11657e-07
4.61312e-05
-4.76004e-05
-1.34602e-06
-3.60559e-08
3.38994e-08
4.75937e-05
4.48699e-05
-4.48449e-05
2.00446e-06
-2.00958e-06
-1.26338e-06
1.25203e-06
-4.48685e-05
4.48482e-05
2.16228e-06
2.18752e-06
-2.03496e-06
-2.00127e-06
-2.1863e-06
2.0268e-06
2.00012e-06
4.48556e-05
-4.48198e-05
-1.97818e-06
-1.28395e-06
1.2792e-06
4.4806e-05
4.12439e-05
-3.64253e-05
3.31387e-06
-3.32354e-06
-5.22388e-06
5.20058e-06
-4.12456e-05
3.63969e-05
3.76474e-06
3.7884e-06
-6.82831e-06
-6.80412e-06
-3.79383e-06
6.80414e-06
6.79292e-06
4.12409e-05
-3.64034e-05