/*--------------------------------*- C++ -*----------------------------------*\
| =========                 |                                                 |
| \\      /  F ield         | OpenFOAM: The Open Source CFD Toolbox           |
|  \\    /   O peration     | Version:  2206                                  |
|   \\  /    A nd           | Website:  www.openfoam.com                      |
|    \\/     M anipulation  |                                                 |
\*---------------------------------------------------------------------------*/
FoamFile
{
    version     2.0;
    format      ascii;
    arch        "LSB;label=32;scalar=64";
    class       volScalarField;
    location    "35";
    object      Uy;
}
// * * * * * * * * * * * * * * * * * * * * * * * * * * * * * * * * * * * * * //

dimensions      [0 1 -1 0 0 0 0];

internalField   nonuniform List<scalar> 
171728
(
0.000107926
0.000119285
-0.000190218
-0.000239532
9.41952e-05
9.69465e-05
-0.000159092
-0.000200978
9.5689e-05
9.3751e-05
-0.000156268
-0.000201614
9.45318e-05
9.04697e-05
-0.000152786
-0.000197865
9.05426e-05
8.49935e-05
-0.00014579
-0.000190824
8.70936e-05
7.91517e-05
-0.000137258
-0.000183865
7.41002e-05
6.88566e-05
-0.000121785
-0.000166985
4.31337e-05
3.64795e-05
-6.1917e-05
-0.000104393
1.83958e-05
1.81102e-05
-2.56237e-05
-6.90509e-05
2.91723e-06
4.13796e-06
-5.08526e-06
-5.08107e-05
-5.04097e-07
1.14215e-06
-9.03834e-07
-4.7469e-05
-8.45489e-07
9.02278e-07
-5.87033e-07
-4.72714e-05
-8.6424e-07
8.92091e-07
-5.80138e-07
-4.72662e-05
-8.64213e-07
8.92232e-07
-5.80739e-07
-4.72662e-05
-8.62031e-07
8.98262e-07
-5.81058e-07
-4.72661e-05
-8.59842e-07
9.01609e-07
-5.81023e-07
-4.72655e-05
-8.61151e-07
8.97856e-07
-5.81051e-07
-4.72659e-05
-8.59805e-07
8.9968e-07
-5.7999e-07
-4.72655e-05
-8.52715e-07
9.1175e-07
-5.78027e-07
-4.72639e-05
-8.5492e-07
8.87159e-07
-5.77827e-07
-4.72641e-05
-8.58608e-07
8.9917e-07
-5.80096e-07
-4.72661e-05
-8.63822e-07
8.94686e-07
-5.81292e-07
-4.72664e-05
-8.628e-07
8.94518e-07
-5.82224e-07
-4.72673e-05
-8.6317e-07
8.94047e-07
-5.82522e-07
-4.72673e-05
-8.63287e-07
8.93487e-07
-5.82051e-07
-4.7267e-05
-8.63564e-07
8.93105e-07
-5.81483e-07
-4.72667e-05
-8.64161e-07
8.92861e-07
-5.81444e-07
-4.72667e-05
-8.63961e-07
8.92814e-07
-5.81858e-07
-4.72669e-05
-8.63499e-07
8.93738e-07
-5.81977e-07
-4.72674e-05
-8.6214e-07
8.93991e-07
-5.82552e-07
-4.72677e-05
-8.61707e-07
8.95232e-07
-5.8239e-07
-4.7268e-05
-8.6234e-07
8.94191e-07
-5.82432e-07
-4.72676e-05
-8.62181e-07
8.93504e-07
-5.81706e-07
-4.72672e-05
-8.63187e-07
8.92862e-07
-5.80928e-07
-4.72668e-05
-8.62753e-07
8.93047e-07
-5.81031e-07
-4.72667e-05
-8.62598e-07
8.92757e-07
-5.80944e-07
-4.72668e-05
-8.62353e-07
8.92721e-07
-5.81992e-07
-4.72676e-05
-8.6209e-07
8.93425e-07
-5.82253e-07
-4.72678e-05
-8.61907e-07
8.93067e-07
-5.82743e-07
-4.7268e-05
-8.61629e-07
8.93817e-07
-5.82613e-07
-4.72698e-05
-8.57506e-07
8.91017e-07
-5.80613e-07
-4.72678e-05
-8.60153e-07
9.03521e-07
-5.79703e-07
-4.72657e-05
-8.6149e-07
8.93478e-07
-5.78673e-07
-4.72652e-05
-8.62481e-07
8.9486e-07
-5.7927e-07
-4.72664e-05
-8.62771e-07
8.95023e-07
-5.79429e-07
-4.72671e-05
-8.62089e-07
8.95589e-07
-5.80006e-07
-4.72674e-05
-8.62075e-07
8.95809e-07
-5.80099e-07
-4.72676e-05
-8.62985e-07
8.95159e-07
-5.79932e-07
-4.72673e-05
-8.63692e-07
8.95434e-07
-5.79429e-07
-4.7267e-05
-8.64268e-07
8.94274e-07
-5.78691e-07
-4.7266e-05
-8.64335e-07
8.95014e-07
-5.78938e-07
-4.7266e-05
-8.64521e-07
8.94544e-07
-5.79051e-07
-4.72663e-05
-8.63895e-07
8.94847e-07
-5.80001e-07
-4.72671e-05
-8.64453e-07
8.91647e-07
-5.80279e-07
-4.72672e-05
-8.65229e-07
8.86185e-07
-5.80542e-07
-4.72681e-05
-8.64617e-07
8.94509e-07
-5.80178e-07
-4.7268e-05
-8.6604e-07
8.92882e-07
-5.77387e-07
-4.72651e-05
-8.66385e-07
8.92326e-07
-5.76657e-07
-4.7264e-05
-8.66749e-07
8.91405e-07
-5.7627e-07
-4.72638e-05
-8.6627e-07
8.92164e-07
-5.76757e-07
-4.72637e-05
-8.65703e-07
8.92052e-07
-5.76773e-07
-4.7264e-05
-8.65397e-07
8.92661e-07
-5.76857e-07
-4.72642e-05
-8.65367e-07
8.92907e-07
-5.77213e-07
-4.72643e-05
-8.65424e-07
8.92063e-07
-5.76285e-07
-4.72636e-05
-8.65553e-07
8.92058e-07
-5.76224e-07
-4.72636e-05
-8.66673e-07
8.91434e-07
-5.75284e-07
-4.72626e-05
-8.66163e-07
8.91958e-07
-5.75604e-07
-4.72625e-05
-8.65607e-07
8.92119e-07
-5.75543e-07
-4.72625e-05
-8.63952e-07
8.93596e-07
-5.72564e-07
-4.72601e-05
-8.62088e-07
8.95288e-07
-5.63641e-07
-4.72543e-05
-8.63233e-07
8.93983e-07
-5.7367e-07
-4.72591e-05
-8.64878e-07
8.92904e-07
-5.76104e-07
-4.72627e-05
-8.66242e-07
8.91639e-07
-5.75842e-07
-4.72629e-05
-8.66479e-07
8.92299e-07
-5.75766e-07
-4.72629e-05
-8.66617e-07
8.90957e-07
-5.75436e-07
-4.72629e-05
-8.66206e-07
8.92075e-07
-5.7601e-07
-4.72633e-05
-8.65814e-07
8.91897e-07
-5.76161e-07
-4.72637e-05
-8.65557e-07
8.9217e-07
-5.76782e-07
-4.72641e-05
-8.65175e-07
8.92813e-07
-5.76943e-07
-4.72641e-05
-8.65701e-07
8.92347e-07
-5.7576e-07
-4.72635e-05
-8.66031e-07
8.91705e-07
-5.75777e-07
-4.72632e-05
-8.66344e-07
8.91948e-07
-5.75279e-07
-4.72628e-05
-8.66562e-07
8.91746e-07
-5.75649e-07
-4.72629e-05
-8.66253e-07
8.91355e-07
-5.75585e-07
-4.72633e-05
-8.66819e-07
8.90477e-07
-5.74471e-07
-4.72637e-05
-8.71494e-07
8.84263e-07
-5.68424e-07
-4.72606e-05
-8.81883e-07
8.70188e-07
-5.57663e-07
-4.72385e-05
-8.96584e-07
8.73062e-07
-5.70323e-07
-4.70732e-05
-8.27392e-07
9.69327e-07
-6.91929e-07
-4.71394e-05
-7.31787e-07
1.06988e-06
-8.97311e-07
-4.64984e-05
-6.04872e-07
1.34738e-06
-1.30019e-06
-4.61602e-05
-4.8839e-07
1.98131e-06
-2.1581e-06
-4.48812e-05
-4.73026e-07
3.30234e-06
-3.76151e-06
-4.12553e-05
-5.83366e-06
3.61782e-06
-2.45903e-06
-2.68191e-05
-4.06662e-05
-3.3816e-05
4.2374e-05
4.57841e-05
0.000135028
0.000152877
0.000152857
0.000134996
0.000124204
-0.000124221
9.07513e-05
9.07487e-05
-9.07973e-05
-9.07953e-05
0.0001242
-0.000124216
-0.000135047
-0.000152907
-0.000152889
-0.00013502
0.000239535
0.000111428
0.000190119
0.00019016
0.000147401
0.000147398
0.000239483
0.000111397
0.000119305
-0.000119365
8.91601e-05
-8.9181e-05
-0.000119369
8.91616e-05
-8.91749e-05
-0.000239577
-0.000111522
-0.000190248
-0.000147339
-0.000147364
-0.000111524
0.000200847
0.000105969
0.000159149
0.000159146
0.000156746
0.000156746
0.000200814
0.000105964
9.69398e-05
-9.69523e-05
9.42033e-05
-9.42063e-05
-9.6947e-05
9.4212e-05
-9.41961e-05
-0.000200987
-0.000106028
-0.000159118
-0.000156699
-0.000156719
-0.000106035
0.000201505
9.70308e-05
0.000156318
0.000156315
0.000153182
0.000153171
0.000201487
9.70278e-05
9.37466e-05
-9.37416e-05
9.09132e-05
-9.08989e-05
-9.37351e-05
9.09046e-05
-9.0902e-05
-0.000201621
-9.70815e-05
-0.000156291
-0.000153121
-0.00015313
-9.71085e-05
0.000197746
8.70417e-05
0.000152845
0.000152835
0.000145746
0.000145736
0.000197733
8.70385e-05
9.04788e-05
-9.04637e-05
8.51935e-05
-8.51744e-05
-9.04671e-05
8.51858e-05
-8.51826e-05
-0.000197857
-8.70752e-05
-0.000152791
-0.000145685
-0.000145685
-8.71104e-05
0.000190715
8.00276e-05
0.000145844
0.000145844
0.000141873
0.00014187
0.000190699
8.00317e-05
8.50016e-05
-8.49843e-05
8.23436e-05
-8.2315e-05
-8.49906e-05
8.23383e-05
-8.23257e-05
-0.000190805
-8.00555e-05
-0.000145788
-0.000141813
-0.000141807
-8.00946e-05
0.000183755
6.79824e-05
0.000137311
0.000137315
0.000131077
0.000131064
0.000183746
6.79575e-05
7.91615e-05
-7.91436e-05
7.55989e-05
-7.55494e-05
-7.91489e-05
7.55902e-05
-7.55736e-05
-0.000183849
-6.80165e-05
-0.00013725
-0.000131021
-0.000131013
-6.80619e-05
0.000166877
1.26219e-05
0.000121876
0.000121848
7.40824e-05
7.40889e-05
0.00016684
1.25717e-05
6.88791e-05
-6.88907e-05
4.1731e-05
-4.17589e-05
-6.8835e-05
4.17088e-05
-4.175e-05
-0.000166982
-1.2563e-05
-0.000121767
-7.40568e-05
-7.40323e-05
-1.25232e-05
0.000104417
-2.46642e-05
6.19308e-05
6.19367e-05
3.39943e-05
3.40097e-05
0.000104358
-2.46689e-05
3.6483e-05
-3.65333e-05
2.31694e-05
-2.32182e-05
-3.65243e-05
2.31689e-05
-2.32141e-05
-0.000104442
2.4687e-05
-6.18985e-05
-3.39981e-05
-3.40071e-05
2.46625e-05
6.89936e-05
-4.49327e-05
2.56259e-05
2.56495e-05
8.11784e-06
8.13699e-06
6.89818e-05
-4.49257e-05
1.81144e-05
-1.81578e-05
6.29811e-06
-6.32729e-06
-1.81563e-05
6.29082e-06
-6.32728e-06
-6.90506e-05
4.49537e-05
-2.56356e-05
-8.10321e-06
-8.10487e-06
4.49394e-05
5.07697e-05
-4.92976e-05
5.10145e-06
5.11774e-06
1.31302e-06
1.31121e-06
5.07664e-05
-4.93097e-05
4.14833e-06
-4.17222e-06
1.41339e-06
-1.42617e-06
-4.17179e-06
1.40125e-06
-1.42481e-06
-5.08156e-05
4.9345e-05
-5.0827e-06
-1.27496e-06
-1.27257e-06
4.93308e-05
4.74539e-05
-4.96067e-05
9.39834e-07
9.43301e-07
6.25463e-07
6.32223e-07
4.74313e-05
-4.96063e-05
1.15503e-06
-1.16744e-06
9.20006e-07
-9.41059e-07
-1.16505e-06
9.16346e-07
-9.3879e-07
-4.74744e-05
4.96398e-05
-8.98146e-07
-5.98158e-07
-5.95091e-07
4.9626e-05
4.72391e-05
-4.96159e-05
6.13918e-07
6.24329e-07
6.02018e-07
6.19714e-07
4.72312e-05
-4.96154e-05
9.08241e-07
-9.28311e-07
8.96757e-07
-9.20175e-07
-9.25429e-07
8.92775e-07
-9.16671e-07
-4.72768e-05
4.96471e-05
-5.81555e-07
-5.77386e-07
-5.77512e-07
4.96336e-05
4.72333e-05
-4.96156e-05
6.04245e-07
6.24201e-07
6.00592e-07
6.22391e-07
4.72249e-05
-4.96163e-05
8.98933e-07
-9.21362e-07
8.97208e-07
-9.22016e-07
-9.16388e-07
8.92386e-07
-9.15876e-07
-4.72726e-05
4.9645e-05
-5.78141e-07
-5.78122e-07
-5.79687e-07
4.96335e-05
4.72367e-05
-4.96122e-05
6.05982e-07
6.21209e-07
6.04496e-07
6.16717e-07
4.72248e-05
-4.96121e-05
9.01576e-07
-9.22295e-07
9.00044e-07
-9.21342e-07
-9.15525e-07
8.96246e-07
-9.15408e-07
-4.72741e-05
4.96452e-05
-5.79137e-07
-5.78283e-07
-5.77262e-07
4.96337e-05
4.72413e-05
-4.9612e-05
6.08819e-07
6.17533e-07
6.06481e-07
6.26784e-07
4.72314e-05
-4.95959e-05
9.00417e-07
-9.21895e-07
8.99696e-07
-9.20598e-07
-9.15296e-07
9.05411e-07
-9.14697e-07
-4.72738e-05
4.96458e-05
-5.76246e-07
-5.78483e-07
-5.75588e-07
4.96343e-05
4.72407e-05
-4.96118e-05
6.10029e-07
6.20429e-07
6.04353e-07
6.13189e-07
4.72433e-05
-4.96162e-05
9.00412e-07
-9.21082e-07
8.99014e-07
-9.20555e-07
-9.14772e-07
8.97186e-07
-9.15845e-07
-4.72732e-05
4.9646e-05
-5.75149e-07
-5.78573e-07
-5.75431e-07
4.96337e-05
4.72396e-05
-4.96106e-05
6.10083e-07
6.13141e-07
6.05179e-07
6.117e-07
4.72261e-05
-4.96157e-05
8.99511e-07
-9.20959e-07
8.99563e-07
-9.19644e-07
-9.15835e-07
8.9848e-07
-9.15216e-07
-4.72729e-05
4.9647e-05
-5.75174e-07
-5.77774e-07
-5.74558e-07
4.96345e-05
4.72397e-05
-4.95998e-05
6.10111e-07
6.12792e-07
6.14483e-07
6.22385e-07
4.72279e-05
-4.95996e-05
9.00789e-07
-9.19665e-07
9.06251e-07
-9.17156e-07
-9.14617e-07
9.07816e-07
-9.12786e-07
-4.72722e-05
4.96491e-05
-5.74167e-07
-5.75993e-07
-5.73437e-07
4.96364e-05
4.72552e-05
-4.95997e-05
6.23285e-07
6.27246e-07
6.10196e-07
6.17719e-07
4.72457e-05
-4.96113e-05
9.10124e-07
-9.17118e-07
9.06553e-07
-9.16818e-07
-9.12202e-07
8.97582e-07
-9.13079e-07
-4.72706e-05
4.96489e-05
-5.7427e-07
-5.74848e-07
-5.80883e-07
4.9636e-05
4.72475e-05
-4.96039e-05
6.09021e-07
6.07666e-07
6.19352e-07
6.19928e-07
4.72184e-05
-4.96135e-05
9.0377e-07
-9.1811e-07
8.98009e-07
-9.19286e-07
-9.14038e-07
8.97532e-07
-9.16105e-07
-4.72707e-05
4.96466e-05
-5.82131e-07
-5.77035e-07
-5.77675e-07
4.96333e-05
4.72411e-05
-4.96055e-05
6.1739e-07
6.13901e-07
6.06994e-07
6.13264e-07
4.72269e-05
-4.9615e-05
8.98438e-07
-9.19983e-07
8.97579e-07
-9.20436e-07
-9.15841e-07
8.94035e-07
-9.15857e-07
-4.72722e-05
4.96456e-05
-5.76439e-07
-5.78276e-07
-5.77305e-07
4.96333e-05
4.72362e-05
-4.96072e-05
6.04136e-07
6.14033e-07
6.07156e-07
6.14983e-07
4.72271e-05
-4.96134e-05
8.97127e-07
-9.21495e-07
8.96163e-07
-9.21232e-07
-9.16447e-07
8.94834e-07
-9.17596e-07
-4.72732e-05
4.96447e-05
-5.76727e-07
-5.79624e-07
-5.77249e-07
4.96319e-05
4.72356e-05
-4.96077e-05
6.04766e-07
6.14397e-07
6.07218e-07
6.1587e-07
4.72278e-05
-4.96124e-05
8.96315e-07
-9.2162e-07
8.95157e-07
-9.20977e-07
-9.17518e-07
8.94504e-07
-9.1749e-07
-4.72738e-05
4.96449e-05
-5.76385e-07
-5.79857e-07
-5.75997e-07
4.96322e-05
4.72349e-05
-4.9608e-05
6.04317e-07
6.15332e-07
6.06724e-07
6.15433e-07
4.72285e-05
-4.96129e-05
8.95217e-07
-9.21484e-07
8.94174e-07
-9.20641e-07
-9.17523e-07
8.93975e-07
-9.17248e-07
-4.72736e-05
4.96453e-05
-5.76909e-07
-5.79598e-07
-5.77801e-07
4.96323e-05
4.72347e-05
-4.96083e-05
6.04332e-07
6.14533e-07
6.06441e-07
6.15756e-07
4.7228e-05
-4.96126e-05
8.94632e-07
-9.21062e-07
8.93553e-07
-9.20088e-07
-9.17103e-07
8.93524e-07
-9.16666e-07
-4.72731e-05
4.96459e-05
-5.77535e-07
-5.7891e-07
-5.77837e-07
4.96327e-05
4.72343e-05
-4.96087e-05
6.03877e-07
6.14903e-07
6.06111e-07
6.15584e-07
4.72284e-05
-4.96123e-05
8.93853e-07
-9.20605e-07
8.92756e-07
-9.20156e-07
-9.16569e-07
8.93444e-07
-9.16677e-07
-4.72725e-05
4.96459e-05
-5.7759e-07
-5.78896e-07
-5.78238e-07
4.96327e-05
4.72338e-05
-4.96094e-05
6.03403e-07
6.14686e-07
6.05897e-07
6.15634e-07
4.72287e-05
-4.96126e-05
8.93043e-07
-9.20712e-07
8.92163e-07
-9.20332e-07
-9.1655e-07
8.93091e-07
-9.16568e-07
-4.72726e-05
4.96458e-05
-5.77903e-07
-5.79061e-07
-5.78474e-07
4.96326e-05
4.72335e-05
-4.96086e-05
6.03673e-07
6.14923e-07
6.06362e-07
6.16068e-07
4.72286e-05
-4.96119e-05
8.929e-07
-9.21048e-07
8.92581e-07
-9.20729e-07
-9.16734e-07
8.93684e-07
-9.1698e-07
-4.72729e-05
4.96452e-05
-5.78378e-07
-5.79541e-07
-5.79149e-07
4.96321e-05
4.72342e-05
-4.96068e-05
6.03974e-07
6.15368e-07
6.07859e-07
6.16591e-07
4.72293e-05
-4.96116e-05
8.93284e-07
-9.21235e-07
8.93675e-07
-9.20536e-07
-9.16869e-07
8.9366e-07
-9.17197e-07
-4.72733e-05
4.96453e-05
-5.78712e-07
-5.79717e-07
-5.79523e-07
4.96319e-05
4.72362e-05
-4.96059e-05
6.05791e-07
6.16309e-07
6.0894e-07
6.17237e-07
4.72295e-05
-4.96103e-05
8.94519e-07
-9.21238e-07
8.94331e-07
-9.20492e-07
-9.17346e-07
8.93784e-07
-9.17479e-07
-4.72733e-05
4.96451e-05
-5.79394e-07
-5.80131e-07
-5.80227e-07
4.96314e-05
4.72368e-05
-4.96066e-05
6.064e-07
6.1677e-07
6.08255e-07
6.17235e-07
4.72297e-05
-4.96115e-05
8.9484e-07
-9.20842e-07
8.9387e-07
-9.20676e-07
-9.17416e-07
8.93795e-07
-9.17249e-07
-4.72732e-05
4.96451e-05
-5.79677e-07
-5.80225e-07
-5.79989e-07
4.96317e-05
4.7236e-05
-4.96066e-05
6.05557e-07
6.16481e-07
6.08202e-07
6.17125e-07
4.72277e-05
-4.96114e-05
8.94223e-07
-9.21342e-07
8.93718e-07
-9.20322e-07
-9.17015e-07
8.93844e-07
-9.16913e-07
-4.72735e-05
4.96455e-05
-5.79095e-07
-5.79698e-07
-5.79549e-07
4.96323e-05
4.72363e-05
-4.96073e-05
6.05874e-07
6.16338e-07
6.07386e-07
6.16958e-07
4.72265e-05
-4.9612e-05
8.94478e-07
-9.20771e-07
8.93304e-07
-9.19855e-07
-9.16984e-07
8.93422e-07
-9.16647e-07
-4.72729e-05
4.9646e-05
-5.78751e-07
-5.79217e-07
-5.79288e-07
4.96324e-05
4.72354e-05
-4.96075e-05
6.04442e-07
6.15892e-07
6.07214e-07
6.16823e-07
4.72258e-05
-4.96123e-05
8.93501e-07
-9.20234e-07
8.93331e-07
-9.19758e-07
-9.16461e-07
8.93329e-07
-9.16527e-07
-4.72724e-05
4.96463e-05
-5.78067e-07
-5.79006e-07
-5.78939e-07
4.96327e-05
4.7236e-05
-4.96072e-05
6.05021e-07
6.16197e-07
6.0772e-07
6.17245e-07
4.72256e-05
-4.96122e-05
8.94132e-07
-9.20405e-07
8.93781e-07
-9.19697e-07
-9.16473e-07
8.93215e-07
-9.16351e-07
-4.72723e-05
4.96461e-05
-5.77924e-07
-5.79008e-07
-5.7897e-07
4.96327e-05
4.72366e-05
-4.96079e-05
6.05226e-07
6.16331e-07
6.07711e-07
6.17626e-07
4.72256e-05
-4.96121e-05
8.94102e-07
-9.20121e-07
8.93697e-07
-9.20285e-07
-9.16401e-07
8.93059e-07
-9.17109e-07
-4.72724e-05
4.96456e-05
-5.78041e-07
-5.79776e-07
-5.79792e-07
4.96319e-05
4.72369e-05
-4.9608e-05
6.0563e-07
6.17073e-07
6.07883e-07
6.1807e-07
4.72257e-05
-4.96115e-05
8.94356e-07
-9.20977e-07
8.93854e-07
-9.2049e-07
-9.17195e-07
8.93676e-07
-9.17326e-07
-4.72731e-05
4.96453e-05
-5.78953e-07
-5.80179e-07
-5.80257e-07
4.96317e-05
4.72376e-05
-4.96082e-05
6.06206e-07
6.17348e-07
6.07816e-07
6.18322e-07
4.72261e-05
-4.96114e-05
8.94346e-07
-9.21022e-07
8.93978e-07
-9.20721e-07
-9.1733e-07
8.93509e-07
-9.17304e-07
-4.72733e-05
4.96449e-05
-5.79312e-07
-5.8039e-07
-5.80398e-07
4.96315e-05
4.72382e-05
-4.96099e-05
6.06908e-07
6.17735e-07
6.06927e-07
6.19912e-07
4.72263e-05
-4.96102e-05
8.94362e-07
-9.21338e-07
8.93327e-07
-9.21178e-07
-9.1745e-07
8.94706e-07
-9.18368e-07
-4.72736e-05
4.96444e-05
-5.79672e-07
-5.80644e-07
-5.83526e-07
4.96297e-05
4.72362e-05
-4.9616e-05
6.06605e-07
6.20435e-07
6.07516e-07
6.22243e-07
4.7228e-05
-4.96075e-05
8.92997e-07
-9.21606e-07
8.95168e-07
-9.19806e-07
-9.18597e-07
8.902e-07
-9.17606e-07
-4.72742e-05
4.96461e-05
-5.84013e-07
-5.79518e-07
-5.84166e-07
4.96312e-05
4.72384e-05
-4.96156e-05
6.15389e-07
6.15607e-07
6.01766e-07
6.27162e-07
4.7227e-05
-4.9602e-05
8.96792e-07
-9.19694e-07
8.92565e-07
-9.19477e-07
-9.16488e-07
9.01163e-07
-9.14931e-07
-4.72725e-05
4.96467e-05
-5.80019e-07
-5.78452e-07
-5.78753e-07
4.96342e-05
4.72398e-05
-4.96099e-05
6.09403e-07
6.286e-07
6.03921e-07
6.13539e-07
4.72401e-05
-4.96146e-05
8.95413e-07
-9.2047e-07
8.95993e-07
-9.19858e-07
-9.14655e-07
8.94282e-07
-9.14617e-07
-4.72724e-05
4.96467e-05
-5.7741e-07
-5.77599e-07
-5.78124e-07
4.96343e-05
4.72427e-05
-4.96095e-05
6.08188e-07
6.13975e-07
6.02928e-07
6.13656e-07
4.72225e-05
-4.96148e-05
8.96245e-07
-9.20325e-07
8.9586e-07
-9.2004e-07
-9.14944e-07
8.95188e-07
-9.16125e-07
-4.7272e-05
4.96466e-05
-5.76615e-07
-5.77994e-07
-5.79089e-07
4.96331e-05
4.72431e-05
-4.96096e-05
6.08242e-07
6.13283e-07
6.02874e-07
6.13468e-07
4.7223e-05
-4.96149e-05
8.96584e-07
-9.20901e-07
8.96025e-07
-9.20719e-07
-9.16426e-07
8.95416e-07
-9.16825e-07
-4.72722e-05
4.96457e-05
-5.77777e-07
-5.78969e-07
-5.80107e-07
4.96322e-05
4.7243e-05
-4.9609e-05
6.08077e-07
6.1305e-07
6.03534e-07
6.13105e-07
4.72229e-05
-4.96149e-05
8.96802e-07
-9.21356e-07
8.96746e-07
-9.20917e-07
-9.16747e-07
8.95834e-07
-9.17111e-07
-4.72729e-05
4.96455e-05
-5.77927e-07
-5.7914e-07
-5.80595e-07
4.9632e-05
4.72438e-05
-4.96085e-05
6.09013e-07
6.13427e-07
6.04007e-07
6.13503e-07
4.72231e-05
-4.96146e-05
8.97761e-07
-9.21703e-07
8.97274e-07
-9.21125e-07
-9.17211e-07
8.96239e-07
-9.1727e-07
-4.72732e-05
4.96451e-05
-5.78427e-07
-5.79557e-07
-5.8094e-07
4.96317e-05
4.72439e-05
-4.96092e-05
6.09039e-07
6.13239e-07
6.03073e-07
6.12523e-07
4.72233e-05
-4.96154e-05
8.9787e-07
-9.21621e-07
8.96804e-07
-9.20905e-07
-9.1714e-07
8.95569e-07
-9.17065e-07
-4.72734e-05
4.96455e-05
-5.78398e-07
-5.7914e-07
-5.80321e-07
4.9632e-05
4.7243e-05
-4.96106e-05
6.08063e-07
6.12556e-07
6.01862e-07
6.12248e-07
4.72223e-05
-4.96153e-05
8.97431e-07
-9.21608e-07
8.96314e-07
-9.20677e-07
-9.17109e-07
8.9583e-07
-9.16904e-07
-4.72731e-05
4.96458e-05
-5.78264e-07
-5.78837e-07
-5.80141e-07
4.96322e-05
4.72416e-05
-4.96116e-05
6.06784e-07
6.12007e-07
6.00846e-07
6.11316e-07
4.72222e-05
-4.96163e-05
8.96937e-07
-9.21149e-07
8.95776e-07
-9.2023e-07
-9.1669e-07
8.94794e-07
-9.16031e-07
-4.72726e-05
4.96463e-05
-5.78021e-07
-5.77925e-07
-5.78809e-07
4.96332e-05
4.72406e-05
-4.9612e-05
6.05958e-07
6.11269e-07
6.00612e-07
6.11238e-07
4.72212e-05
-4.9616e-05
8.96379e-07
-9.20894e-07
8.95503e-07
-9.20586e-07
-9.15989e-07
8.9528e-07
-9.15982e-07
-4.72722e-05
4.96459e-05
-5.77221e-07
-5.7789e-07
-5.78429e-07
4.96333e-05
4.72403e-05
-4.9612e-05
6.0592e-07
6.1127e-07
6.00589e-07
6.11151e-07
4.72216e-05
-4.96162e-05
8.96237e-07
-9.21296e-07
8.9538e-07
-9.2056e-07
-9.16021e-07
8.94922e-07
-9.16134e-07
-4.72725e-05
4.96459e-05
-5.77538e-07
-5.78007e-07
-5.7854e-07
4.96331e-05
4.72403e-05
-4.96115e-05
6.05838e-07
6.11236e-07
6.01029e-07
6.11552e-07
4.72214e-05
-4.96157e-05
8.96153e-07
-9.21203e-07
8.95779e-07
-9.20908e-07
-9.16216e-07
8.95098e-07
-9.1677e-07
-4.72725e-05
4.96455e-05
-5.7777e-07
-5.78451e-07
-5.79334e-07
4.96323e-05
4.72407e-05
-4.96114e-05
6.06512e-07
6.11886e-07
6.01006e-07
6.10721e-07
4.72218e-05
-4.96172e-05
8.96601e-07
-9.21728e-07
8.95575e-07
-9.21363e-07
-9.1702e-07
8.93549e-07
-9.17644e-07
-4.72728e-05
4.96449e-05
-5.7923e-07
-5.79054e-07
-5.79649e-07
4.96317e-05
4.72402e-05
-4.96123e-05
6.05742e-07
6.09088e-07
5.9934e-07
5.9847e-07
4.72184e-05
-4.96328e-05
8.95958e-07
-9.22005e-07
8.94804e-07
-9.21512e-07
-9.1783e-07
8.85155e-07
-9.18686e-07
-4.7273e-05
4.96449e-05
-5.79249e-07
-5.78821e-07
-5.80286e-07
4.96309e-05
4.72397e-05
-4.9611e-05
6.04823e-07
6.00753e-07
6.00972e-07
6.12469e-07
4.72027e-05
-4.96157e-05
8.95708e-07
-9.22272e-07
8.95747e-07
-9.21828e-07
-9.1894e-07
8.95641e-07
-9.18229e-07
-4.72731e-05
4.96446e-05
-5.80826e-07
-5.79093e-07
-5.8208e-07
4.96308e-05
4.72413e-05
-4.96114e-05
6.06101e-07
6.11815e-07
5.99671e-07
6.14161e-07
4.72215e-05
-4.96166e-05
8.96551e-07
-9.22354e-07
8.95876e-07
-9.21635e-07
-9.17592e-07
8.9372e-07
-9.15066e-07
-4.72737e-05
4.9645e-05
-5.83703e-07
-5.76454e-07
-5.88595e-07
4.96338e-05
4.7241e-05
-4.96111e-05
6.04604e-07
6.14564e-07
5.98821e-07
6.1499e-07
4.72206e-05
-4.96176e-05
8.967e-07
-9.22381e-07
8.96339e-07
-9.21854e-07
-9.14306e-07
8.92643e-07
-9.13217e-07
-4.72734e-05
4.96449e-05
-5.90263e-07
-5.75187e-07
-5.89256e-07
4.96351e-05
4.72413e-05
-4.96113e-05
6.04088e-07
6.15037e-07
5.98432e-07
6.14977e-07
4.72199e-05
-4.9618e-05
8.97064e-07
-9.22452e-07
8.96306e-07
-9.21742e-07
-9.1312e-07
8.91829e-07
-9.12774e-07
-4.72735e-05
4.96451e-05
-5.90538e-07
-5.74841e-07
-5.89662e-07
4.96353e-05
4.72412e-05
-4.96108e-05
6.03531e-07
6.15073e-07
5.98655e-07
6.15458e-07
4.72193e-05
-4.96177e-05
8.97064e-07
-9.22405e-07
8.96611e-07
-9.22074e-07
-9.12661e-07
8.9231e-07
-9.12509e-07
-4.72733e-05
4.96448e-05
-5.90768e-07
-5.75012e-07
-5.89995e-07
4.96355e-05
4.72417e-05
-4.96103e-05
6.04129e-07
6.15749e-07
5.99218e-07
6.16163e-07
4.72197e-05
-4.96175e-05
8.97516e-07
-9.22885e-07
8.97186e-07
-9.22534e-07
-9.1254e-07
8.92475e-07
-9.12618e-07
-4.72738e-05
4.96442e-05
-5.91293e-07
-5.7534e-07
-5.90499e-07
4.96352e-05
4.72422e-05
-4.961e-05
6.04511e-07
6.16219e-07
5.99401e-07
6.1647e-07
4.72199e-05
-4.96173e-05
8.98015e-07
-9.23134e-07
8.97384e-07
-9.22475e-07
-9.12571e-07
8.92693e-07
-9.12589e-07
-4.72742e-05
4.96443e-05
-5.9159e-07
-5.75192e-07
-5.90632e-07
4.9635e-05
4.72425e-05
-4.96099e-05
6.04857e-07
6.16797e-07
5.99633e-07
6.1735e-07
4.72203e-05
-4.96165e-05
8.98287e-07
-9.23189e-07
8.97583e-07
-9.23055e-07
-9.12682e-07
8.93339e-07
-9.12737e-07
-4.72742e-05
4.96436e-05
-5.91972e-07
-5.75758e-07
-5.91151e-07
4.96348e-05
4.72425e-05
-4.96101e-05
6.04736e-07
6.17359e-07
5.99299e-07
6.16823e-07
4.72209e-05
-4.96173e-05
8.98272e-07
-9.23767e-07
8.9745e-07
-9.22675e-07
-9.1267e-07
8.92579e-07
-9.12249e-07
-4.72748e-05
4.96441e-05
-5.92183e-07
-5.75086e-07
-5.90499e-07
4.96353e-05
4.72424e-05
-4.961e-05
6.04572e-07
6.16745e-07
5.99194e-07
6.16757e-07
4.722e-05
-4.96174e-05
8.98418e-07
-9.23051e-07
8.97572e-07
-9.22262e-07
-9.12102e-07
8.9244e-07
-9.1219e-07
-4.72741e-05
4.96446e-05
-5.91294e-07
-5.74786e-07
-5.90452e-07
4.96355e-05
4.72423e-05
-4.9611e-05
6.04422e-07
6.16742e-07
5.98176e-07
6.15745e-07
4.72199e-05
-4.96181e-05
8.98507e-07
-9.22848e-07
8.9665e-07
-9.21736e-07
-9.12137e-07
8.91854e-07
-9.11391e-07
-4.72738e-05
4.96453e-05
-5.91446e-07
-5.7387e-07
-5.89674e-07
4.96364e-05
4.72412e-05
-4.96108e-05
6.03281e-07
6.15608e-07
5.98342e-07
6.16008e-07
4.72192e-05
-4.96177e-05
8.97507e-07
-9.22322e-07
8.96706e-07
-9.21756e-07
-9.11207e-07
8.92136e-07
-9.112e-07
-4.7273e-05
4.96451e-05
-5.90495e-07
-5.73963e-07
-5.89674e-07
4.96366e-05
4.72416e-05
-4.961e-05
6.03913e-07
6.16295e-07
5.98922e-07
6.16474e-07
4.72196e-05
-4.96173e-05
8.97934e-07
-9.22455e-07
8.97261e-07
-9.21671e-07
-9.11347e-07
8.92361e-07
-9.11255e-07
-4.72733e-05
4.9645e-05
-5.90714e-07
-5.74081e-07
-5.89992e-07
4.96362e-05
4.72421e-05
-4.96089e-05
6.04273e-07
6.16581e-07
5.99718e-07
6.17346e-07
4.72197e-05
-4.96163e-05
8.98334e-07
-9.22066e-07
8.98132e-07
-9.20212e-07
-9.11018e-07
8.93438e-07
-9.09819e-07
-4.7273e-05
4.96464e-05
-5.9049e-07
-5.72686e-07
-5.88888e-07
4.96375e-05
4.7243e-05
-4.96074e-05
6.05441e-07
6.17844e-07
6.00886e-07
6.1878e-07
4.72206e-05
-4.96147e-05
8.99639e-07
-9.20023e-07
8.99703e-07
-9.15822e-07
-9.08985e-07
8.95284e-07
-9.05905e-07
-4.72703e-05
4.96526e-05
-5.87805e-07
-5.62326e-07
-5.81375e-07
4.96427e-05
4.72441e-05
-4.96078e-05
6.06301e-07
6.18997e-07
6.00744e-07
6.1872e-07
4.72218e-05
-4.96154e-05
9.00859e-07
-9.16013e-07
8.99379e-07
-9.18041e-07
-9.05144e-07
8.94812e-07
-9.06819e-07
-4.72641e-05
4.96487e-05
-5.78734e-07
-5.7045e-07
-5.85176e-07
4.96411e-05
4.7244e-05
-4.96092e-05
6.05753e-07
6.18544e-07
5.9991e-07
6.17559e-07
4.72214e-05
-4.96166e-05
8.99941e-07
-9.19752e-07
8.97987e-07
-9.21474e-07
-9.08306e-07
8.93503e-07
-9.11004e-07
-4.72703e-05
4.96452e-05
-5.87791e-07
-5.74659e-07
-5.91519e-07
4.96366e-05
4.7243e-05
-4.96103e-05
6.05016e-07
6.17276e-07
5.98711e-07
6.16389e-07
4.72206e-05
-4.96177e-05
8.98773e-07
-9.22441e-07
8.96842e-07
-9.21846e-07
-9.11259e-07
8.92115e-07
-9.11252e-07
-4.72734e-05
4.96448e-05
-5.89552e-07
-5.74488e-07
-5.90982e-07
4.96361e-05
4.72419e-05
-4.96107e-05
6.03821e-07
6.16295e-07
5.98466e-07
6.1625e-07
4.72196e-05
-4.96174e-05
8.97652e-07
-9.22599e-07
8.96504e-07
-9.22109e-07
-9.11334e-07
8.92571e-07
-9.11477e-07
-4.72736e-05
4.96448e-05
-5.90802e-07
-5.74401e-07
-5.90348e-07
4.9636e-05
4.72417e-05
-4.96108e-05
6.0375e-07
6.16272e-07
5.98323e-07
6.15845e-07
4.722e-05
-4.96182e-05
8.97481e-07
-9.22592e-07
8.96381e-07
-9.21806e-07
-9.11304e-07
8.91516e-07
-9.112e-07
-4.72735e-05
4.96451e-05
-5.91441e-07
-5.73994e-07
-5.90385e-07
4.96362e-05
4.72416e-05
-4.96106e-05
6.03551e-07
6.15783e-07
5.98474e-07
6.16098e-07
4.72191e-05
-4.96177e-05
8.97407e-07
-9.22493e-07
8.96643e-07
-9.22148e-07
-9.11201e-07
8.92206e-07
-9.11539e-07
-4.72733e-05
4.96447e-05
-5.91406e-07
-5.74288e-07
-5.90703e-07
4.96359e-05
4.7242e-05
-4.96099e-05
6.04062e-07
6.16371e-07
5.99221e-07
6.1668e-07
4.72198e-05
-4.96175e-05
8.97832e-07
-9.22927e-07
8.97072e-07
-9.2231e-07
-9.11706e-07
8.92192e-07
-9.11729e-07
-4.72738e-05
4.96444e-05
-5.92066e-07
-5.74661e-07
-5.91204e-07
4.96354e-05
4.72425e-05
-4.961e-05
6.04499e-07
6.16792e-07
5.99279e-07
6.16833e-07
4.722e-05
-4.96173e-05
8.98019e-07
-9.22874e-07
8.97061e-07
-9.22675e-07
-9.11863e-07
8.92385e-07
-9.12219e-07
-4.72739e-05
4.96441e-05
-5.92475e-07
-5.75077e-07
-5.91794e-07
4.96349e-05
4.72425e-05
-4.96095e-05
6.04723e-07
6.16994e-07
5.99799e-07
6.17577e-07
4.72202e-05
-4.96166e-05
8.98158e-07
-9.23546e-07
8.97382e-07
-9.23108e-07
-9.12177e-07
8.92995e-07
-9.12063e-07
-4.72745e-05
4.96435e-05
-5.92857e-07
-5.75473e-07
-5.91644e-07
4.96349e-05
4.72429e-05
-4.96099e-05
6.0513e-07
6.17758e-07
5.99351e-07
6.17047e-07
4.72208e-05
-4.96169e-05
8.98431e-07
-9.2357e-07
8.97194e-07
-9.2215e-07
-9.12126e-07
8.92951e-07
-9.11814e-07
-4.72748e-05
4.96447e-05
-5.92858e-07
-5.74593e-07
-5.91159e-07
4.96353e-05
4.72423e-05
-4.96102e-05
6.04433e-07
6.16758e-07
5.98858e-07
6.16207e-07
4.72201e-05
-4.96178e-05
8.98086e-07
-9.22621e-07
8.96929e-07
-9.21759e-07
-9.11641e-07
8.92074e-07
-9.11378e-07
-4.72735e-05
4.9645e-05
-5.91936e-07
-5.74144e-07
-5.90677e-07
4.96358e-05
4.72421e-05
-4.96105e-05
6.04131e-07
6.16223e-07
5.98579e-07
6.16364e-07
4.72195e-05
-4.96175e-05
8.97885e-07
-9.22556e-07
8.96693e-07
-9.21812e-07
-9.11477e-07
8.92325e-07
-9.11056e-07
-4.72734e-05
4.9645e-05
-5.91875e-07
-5.73905e-07
-5.90337e-07
4.96361e-05
4.72417e-05
-4.96108e-05
6.03776e-07
6.16356e-07
5.98274e-07
6.16007e-07
4.72198e-05
-4.96178e-05
8.97634e-07
-9.22559e-07
8.96448e-07
-9.2157e-07
-9.10962e-07
8.92129e-07
-9.1099e-07
-4.72733e-05
4.96451e-05
-5.91261e-07
-5.73962e-07
-5.90394e-07
4.96362e-05
4.72415e-05
-4.96104e-05
6.03626e-07
6.15994e-07
5.98922e-07
6.16423e-07
4.72196e-05
-4.96178e-05
8.97368e-07
-9.22724e-07
8.9692e-07
-9.21714e-07
-9.11144e-07
8.92002e-07
-9.11565e-07
-4.72733e-05
4.96448e-05
-5.91709e-07
-5.74467e-07
-5.90938e-07
4.96358e-05
4.7242e-05
-4.96099e-05
6.03853e-07
6.16167e-07
6.00402e-07
6.18006e-07
4.72197e-05
-4.96169e-05
8.97577e-07
-9.22891e-07
8.98199e-07
-9.22566e-07
-9.11282e-07
8.93634e-07
-9.12946e-07
-4.72736e-05
4.96442e-05
-5.91683e-07
-5.75986e-07
-5.92684e-07
4.96351e-05
4.72421e-05
-4.96071e-05
6.02633e-07
6.1493e-07
6.06023e-07
6.23534e-07
4.72201e-05
-4.9614e-05
8.96266e-07
-9.22284e-07
9.02504e-07
-9.26383e-07
-9.10149e-07
8.98262e-07
-9.17699e-07
-4.72737e-05
4.96405e-05
-5.90825e-07
-5.81983e-07
-5.98677e-07
4.9632e-05
4.72386e-05
-4.95952e-05
5.96282e-07
6.08378e-07
6.16834e-07
6.34627e-07
4.72168e-05
-4.96017e-05
8.89771e-07
-9.17106e-07
9.11315e-07
-9.34969e-07
-9.04034e-07
9.07406e-07
-9.26951e-07
-4.72702e-05
4.96271e-05
-5.84482e-07
-5.93328e-07
-6.10066e-07
4.96198e-05
4.72158e-05
-4.94729e-05
5.8571e-07
5.97195e-07
6.17266e-07
6.34709e-07
4.71943e-05
-4.948e-05
8.75178e-07
-9.02901e-07
9.08989e-07
-9.32744e-07
-8.89872e-07
9.04497e-07
-9.24633e-07
-4.72474e-05
4.95051e-05
-5.73703e-07
-5.94013e-07
-6.10509e-07
4.9497e-05
4.70497e-05
-4.94579e-05
5.98836e-07
6.09864e-07
5.19203e-07
5.36816e-07
4.70279e-05
-4.94644e-05
8.78726e-07
-9.05946e-07
8.68426e-07
-8.92954e-07
-8.92993e-07
8.64063e-07
-8.83957e-07
-4.70808e-05
4.94901e-05
-5.8745e-07
-4.9645e-07
-5.1019e-07
4.94822e-05
4.71163e-05
-4.89882e-05
7.20595e-07
7.31301e-07
3.34514e-07
3.51097e-07
4.70955e-05
-4.8995e-05
9.75051e-07
-1.00128e-06
7.33571e-07
-7.59217e-07
-9.88207e-07
7.29704e-07
-7.49907e-07
-4.71461e-05
4.90208e-05
-7.08358e-07
-3.11305e-07
-3.25439e-07
4.90131e-05
4.64761e-05
-4.87368e-05
9.2301e-07
9.3536e-07
3.62885e-08
5.43462e-08
4.64548e-05
-4.87426e-05
1.07475e-06
-1.10013e-06
5.03601e-07
-5.30261e-07
-1.08816e-06
5.0018e-07
-5.20559e-07
-4.65045e-05
4.87704e-05
-9.13148e-07
-1.62593e-08
-2.77532e-08
4.87604e-05
4.61373e-05
-4.75959e-05
1.32728e-06
1.33822e-06
-6.15954e-07
-6.01286e-07
4.6117e-05
-4.76025e-05
1.35197e-06
-1.37768e-06
-3.16232e-08
8.40369e-09
-1.36473e-06
-3.24442e-08
1.47452e-08
-4.61641e-05
4.76302e-05
-1.31437e-06
6.44907e-07
6.37913e-07
4.76201e-05
4.48599e-05
-4.48104e-05
2.18742e-06
2.19644e-06
-2.00123e-06
-1.98786e-06
4.48392e-05
-4.4815e-05
1.98493e-06
-2.00958e-06
-1.27989e-06
1.26138e-06
-1.99857e-06
-1.27512e-06
1.26069e-06
-4.48861e-05
4.48426e-05
-2.16423e-06
2.03405e-06
2.02825e-06
4.48397e-05
4.12466e-05
-3.63664e-05
3.79455e-06
3.81315e-06
-6.78188e-06
-6.77484e-06
4.12353e-05
-3.63815e-05
3.29779e-06
-3.31129e-06
-5.21315e-06
5.21651e-06
-3.30388e-06
-5.19687e-06
5.21888e-06
-4.12636e-05