/*--------------------------------*- C++ -*----------------------------------*\
| =========                 |                                                 |
| \\      /  F ield         | OpenFOAM: The Open Source CFD Toolbox           |
|  \\    /   O peration     | Version:  2206                                  |
|   \\  /    A nd           | Website:  www.openfoam.com                      |
|    \\/     M anipulation  |                                                 |
\*---------------------------------------------------------------------------*/
FoamFile
{
    version     2.0;
    format      ascii;
    arch        "LSB;label=32;scalar=64";
    class       volScalarField;
    location    "3.5";
    object      epsilon;
}
// * * * * * * * * * * * * * * * * * * * * * * * * * * * * * * * * * * * * * //

dimensions      [0 2 -3 0 0 0 0];

internalField   nonuniform List<scalar> 
28688
(
4.96746e-07
4.97876e-07
4.97876e-07
4.99596e-07
4.90486e-07
4.91121e-07
4.91121e-07
4.91865e-07
4.90462e-07
4.91027e-07
4.91027e-07
4.91693e-07
4.90463e-07
4.91027e-07
4.91027e-07
4.91692e-07
4.90463e-07
4.91027e-07
4.91027e-07
4.91692e-07
4.90463e-07
4.91027e-07
4.91027e-07
4.91692e-07
4.90463e-07
4.91027e-07
4.91027e-07
4.91692e-07
4.90463e-07
4.91027e-07
4.91027e-07
4.91692e-07
4.90463e-07
4.91027e-07
4.91027e-07
4.91692e-07
4.90463e-07
4.91027e-07
4.91027e-07
4.91692e-07
4.90463e-07
4.91027e-07
4.91027e-07
4.91692e-07
4.90463e-07
4.91027e-07
4.91027e-07
4.91692e-07
5.04828e-07
5.03972e-07
5.03971e-07
5.04828e-07
5.03971e-07
5.03971e-07
5.07361e-07
5.0736e-07
5.07361e-07
5.07361e-07
5.03971e-07
5.03972e-07
5.04828e-07
5.03972e-07
5.03971e-07
5.04827e-07
4.99596e-07
4.9203e-07
4.97878e-07
4.97883e-07
4.91375e-07
4.91376e-07
4.99596e-07
4.92029e-07
4.97881e-07
4.97884e-07
4.91375e-07
4.91376e-07
4.97879e-07
4.91374e-07
4.91375e-07
4.99597e-07
4.9203e-07
4.97881e-07
4.91375e-07
4.91375e-07
4.92034e-07
4.91873e-07
4.91687e-07
4.91125e-07
4.91126e-07
4.91027e-07
4.91028e-07
4.91872e-07
4.91686e-07
4.91125e-07
4.91126e-07
4.91027e-07
4.91028e-07
4.91125e-07
4.91027e-07
4.91028e-07
4.91873e-07
4.91686e-07
4.91125e-07
4.91028e-07
4.91027e-07
4.91689e-07
4.917e-07
4.91686e-07
4.91031e-07
4.91032e-07
4.91028e-07
4.91028e-07
4.91699e-07
4.91685e-07
4.91031e-07
4.91032e-07
4.91028e-07
4.91028e-07
4.91031e-07
4.91028e-07
4.91028e-07
4.917e-07
4.91686e-07
4.91031e-07
4.91028e-07
4.91028e-07
4.91688e-07
4.917e-07
4.91686e-07
4.91031e-07
4.91032e-07
4.91028e-07
4.91028e-07
4.91699e-07
4.91685e-07
4.91031e-07
4.91032e-07
4.91028e-07
4.91028e-07
4.91031e-07
4.91028e-07
4.91028e-07
4.917e-07
4.91685e-07
4.91031e-07
4.91028e-07
4.91028e-07
4.91688e-07
4.917e-07
4.91686e-07
4.91032e-07
4.91032e-07
4.91028e-07
4.91028e-07
4.91699e-07
4.91685e-07
4.91032e-07
4.91032e-07
4.91028e-07
4.91028e-07
4.91032e-07
4.91028e-07
4.91028e-07
4.91699e-07
4.91686e-07
4.91031e-07
4.91028e-07
4.91028e-07
4.91688e-07
4.917e-07
4.91686e-07
4.91032e-07
4.91032e-07
4.91028e-07
4.91028e-07
4.91699e-07
4.91685e-07
4.91032e-07
4.91032e-07
4.91028e-07
4.91028e-07
4.91032e-07
4.91028e-07
4.91028e-07
4.91699e-07
4.91685e-07
4.91031e-07
4.91028e-07
4.91028e-07
4.91688e-07
4.917e-07
4.91686e-07
4.91032e-07
4.91032e-07
4.91028e-07
4.91028e-07
4.91699e-07
4.91685e-07
4.91032e-07
4.91032e-07
4.91028e-07
4.91028e-07
4.91032e-07
4.91028e-07
4.91028e-07
4.91699e-07
4.91685e-07
4.91031e-07
4.91028e-07
4.91028e-07
4.91688e-07
4.917e-07
4.91686e-07
4.91031e-07
4.91032e-07
4.91028e-07
4.91028e-07
4.91699e-07
4.91685e-07
4.91032e-07
4.91032e-07
4.91028e-07
4.91028e-07
4.91032e-07
4.91028e-07
4.91028e-07
4.91699e-07
4.91685e-07
4.91031e-07
4.91028e-07
4.91028e-07
4.91688e-07
4.91699e-07
4.91685e-07
4.91031e-07
4.91032e-07
4.91028e-07
4.91028e-07
4.91699e-07
4.91685e-07
4.91032e-07
4.91032e-07
4.91028e-07
4.91028e-07
4.91032e-07
4.91028e-07
4.91028e-07
4.91699e-07
4.91686e-07
4.91031e-07
4.91028e-07
4.91028e-07
4.91688e-07
4.91699e-07
4.91686e-07
4.91031e-07
4.91032e-07
4.91028e-07
4.91028e-07
4.91699e-07
4.91685e-07
4.91032e-07
4.91032e-07
4.91028e-07
4.91028e-07
4.91032e-07
4.91028e-07
4.91028e-07
4.917e-07
4.91686e-07
4.91031e-07
4.91028e-07
4.91028e-07
4.91688e-07
4.91699e-07
4.91685e-07
4.91031e-07
4.91032e-07
4.91028e-07
4.91028e-07
4.91699e-07
4.91685e-07
4.91032e-07
4.91032e-07
4.91028e-07
4.91028e-07
4.91032e-07
4.91028e-07
4.91028e-07
4.917e-07
4.91686e-07
4.91031e-07
4.91028e-07
4.91028e-07
4.91688e-07
4.91699e-07
4.91689e-07
4.91031e-07
4.91031e-07
4.91034e-07
4.91699e-07
4.91032e-07
4.91032e-07
4.91034e-07
4.91034e-07
4.91032e-07
4.91034e-07
4.91699e-07
4.91689e-07
4.91031e-07
4.91035e-07
4.91034e-07
4.91692e-07
5.35367e-07
5.3536e-07
5.35357e-07
5.35357e-07
5.34643e-07
5.35414e-07
5.3364e-07
5.35347e-07
5.34643e-07
5.35414e-07
5.35347e-07
5.3364e-07
5.35149e-07
5.35983e-07
5.35983e-07
9.82861e-07
3.87621e-06
9.44471e-07
4.48569e-06
1.25065e-05
1.45951e-05
9.82985e-07
3.87647e-06
9.4452e-07
4.48607e-06
4.96747e-07
4.96747e-07
4.96747e-07
4.90585e-07
4.90585e-07
4.90585e-07
4.90585e-07
5.38827e-07
1.1808e-06
4.96786e-07
4.93816e-07
5.25834e-07
9.9859e-07
4.92498e-07
1.25081e-05
1.45966e-05
5.38825e-07
4.96787e-07
1.18077e-06
4.93816e-07
5.25832e-07
4.92499e-07
9.98563e-07
2.45519e-06
2.45581e-06
4.94112e-07
1.85065e-06
1.851e-06
9.17713e-07
4.77446e-06
9.23195e-07
4.77756e-06
1.4974e-05
1.49781e-05
9.17811e-07
4.77505e-06
9.23301e-07
4.77816e-06
4.90491e-07
4.90491e-07
4.9049e-07
4.90462e-07
4.90462e-07
4.90462e-07
4.90462e-07
5.30337e-07
8.24897e-07
4.9056e-07
4.91053e-07
5.31615e-07
8.15025e-07
4.90542e-07
1.49759e-05
1.49801e-05
5.30343e-07
4.90559e-07
8.24871e-07
4.91053e-07
5.31616e-07
4.90542e-07
8.15053e-07
1.3583e-06
1.35853e-06
4.91701e-07
1.34499e-06
1.34522e-06
9.16937e-07
4.77757e-06
9.1713e-07
4.77728e-06
1.49781e-05
1.49764e-05
9.16869e-07
4.77811e-06
9.17076e-07
4.7778e-06
4.90467e-07
4.90467e-07
4.90467e-07
4.90463e-07
4.90463e-07
4.90463e-07
4.90463e-07
5.30164e-07
8.14377e-07
4.90533e-07
4.91032e-07
5.30207e-07
8.14157e-07
4.90538e-07
1.49806e-05
1.49788e-05
5.30164e-07
4.90533e-07
8.14379e-07
4.91032e-07
5.3021e-07
4.90538e-07
8.1415e-07
1.34408e-06
1.34432e-06
4.91688e-07
1.34386e-06
1.34409e-06
9.16934e-07
4.7776e-06
9.17073e-07
4.77732e-06
1.4978e-05
1.49764e-05
9.16846e-07
4.77815e-06
9.16967e-07
4.77786e-06
4.90467e-07
4.90467e-07
4.90467e-07
4.90463e-07
4.90463e-07
4.90463e-07
4.90463e-07
5.30163e-07
8.14328e-07
4.90533e-07
4.91032e-07
5.30199e-07
8.14144e-07
4.90537e-07
1.49804e-05
1.49787e-05
5.30162e-07
4.90533e-07
8.14284e-07
4.91032e-07
5.30191e-07
4.90537e-07
8.14116e-07
1.34403e-06
1.34426e-06
4.91688e-07
1.34386e-06
1.34409e-06
9.16932e-07
4.77756e-06
9.17071e-07
4.77727e-06
1.49778e-05
1.49759e-05
9.16845e-07
4.77815e-06
9.16966e-07
4.77784e-06
4.90467e-07
4.90467e-07
4.90466e-07
4.90463e-07
4.90463e-07
4.90463e-07
4.90463e-07
5.30162e-07
8.14326e-07
4.90533e-07
4.91031e-07
5.30198e-07
8.14143e-07
4.90537e-07
1.49804e-05
1.49787e-05
5.30161e-07
4.90533e-07
8.14279e-07
4.91032e-07
5.30193e-07
4.90537e-07
8.14116e-07
1.34403e-06
1.34426e-06
4.91688e-07
1.34386e-06
1.34409e-06
9.16934e-07
4.77753e-06
9.17071e-07
4.77722e-06
1.49785e-05
1.4977e-05
9.16845e-07
4.77815e-06
9.16965e-07
4.77784e-06
4.90466e-07
4.90467e-07
4.90467e-07
4.90463e-07
4.90463e-07
4.90463e-07
4.90463e-07
5.30163e-07
8.14326e-07
4.90533e-07
4.91032e-07
5.30196e-07
8.14143e-07
4.90537e-07
1.49804e-05
1.49787e-05
5.30162e-07
4.90533e-07
8.14279e-07
4.91032e-07
5.30193e-07
4.90537e-07
8.14116e-07
1.34403e-06
1.34426e-06
4.91688e-07
1.34386e-06
1.34409e-06
9.16932e-07
4.77753e-06
9.1707e-07
4.77721e-06
1.49782e-05
1.49766e-05
9.16845e-07
4.77815e-06
9.16965e-07
4.77784e-06
4.90466e-07
4.90466e-07
4.90467e-07
4.90463e-07
4.90463e-07
4.90463e-07
4.90463e-07
5.30163e-07
8.14326e-07
4.90533e-07
4.91032e-07
5.30197e-07
8.14143e-07
4.90537e-07
1.49804e-05
1.49787e-05
5.30162e-07
4.90533e-07
8.14279e-07
4.91032e-07
5.30193e-07
4.90537e-07
8.14116e-07
1.34403e-06
1.34426e-06
4.91688e-07
1.34386e-06
1.34409e-06
9.16932e-07
4.77753e-06
9.17071e-07
4.77721e-06
1.49783e-05
1.49767e-05
9.16845e-07
4.77815e-06
9.16965e-07
4.77784e-06
4.90466e-07
4.90467e-07
4.90467e-07
4.90463e-07
4.90463e-07
4.90463e-07
4.90463e-07
5.30164e-07
8.14326e-07
4.90533e-07
4.91031e-07
5.30197e-07
8.14143e-07
4.90537e-07
1.49804e-05
1.49787e-05
5.30162e-07
4.90533e-07
8.14279e-07
4.91032e-07
5.30193e-07
4.90537e-07
8.14116e-07
1.34403e-06
1.34426e-06
4.91688e-07
1.34386e-06
1.34409e-06
9.16932e-07
4.77753e-06
9.17071e-07
4.77721e-06
1.49783e-05
1.49767e-05
9.16845e-07
4.77815e-06
9.16965e-07
4.77784e-06
4.90466e-07
4.90467e-07
4.90467e-07
4.90463e-07
4.90463e-07
4.90463e-07
4.90463e-07
5.30162e-07
8.14326e-07
4.90533e-07
4.91031e-07
5.30197e-07
8.14143e-07
4.90537e-07
1.49804e-05
1.49787e-05
5.30162e-07
4.90533e-07
8.14279e-07
4.91032e-07
5.30194e-07
4.90537e-07
8.14116e-07
1.34403e-06
1.34426e-06
4.91688e-07
1.34386e-06
1.34409e-06
9.16933e-07
4.77749e-06
9.17071e-07
4.77716e-06
1.49783e-05
1.49767e-05
9.16845e-07
4.77811e-06
9.16965e-07
4.77779e-06
4.90466e-07
4.90467e-07
4.90467e-07
4.90463e-07
4.90463e-07
4.90463e-07
4.90463e-07
5.30162e-07
8.14326e-07
4.90533e-07
4.91031e-07
5.30198e-07
8.14143e-07
4.90537e-07
1.49804e-05
1.49787e-05
5.30162e-07
4.90533e-07
8.14279e-07
4.91032e-07
5.30193e-07
4.90537e-07
8.14116e-07
1.34403e-06
1.34426e-06
4.91688e-07
1.34386e-06
1.34409e-06
9.16935e-07
4.77747e-06
9.17071e-07
4.77715e-06
1.49782e-05
1.49766e-05
9.16845e-07
4.77811e-06
9.16965e-07
4.7778e-06
4.90466e-07
4.90467e-07
4.90467e-07
4.90463e-07
4.90463e-07
4.90463e-07
4.90463e-07
5.30163e-07
8.14326e-07
4.90533e-07
4.91031e-07
5.30198e-07
8.14143e-07
4.90537e-07
1.49804e-05
1.49787e-05
5.30161e-07
4.90533e-07
8.14279e-07
4.91032e-07
5.30194e-07
4.90537e-07
8.14116e-07
1.34403e-06
1.34426e-06
4.91688e-07
1.34386e-06
1.34409e-06
9.16932e-07
4.77746e-06
9.1707e-07
4.77715e-06
1.49782e-05
1.49766e-05
9.16845e-07
4.77811e-06
9.16965e-07
4.7778e-06
4.90466e-07
4.90467e-07
4.90467e-07
4.90471e-07
4.90476e-07
4.90469e-07
4.90469e-07
5.30163e-07
8.14326e-07
4.90533e-07
4.9103e-07
5.30197e-07
8.14143e-07
4.90537e-07
1.49804e-05
1.49787e-05
5.30161e-07
4.90533e-07
8.14279e-07
4.91032e-07
5.30193e-07
4.90537e-07
8.14116e-07
1.34403e-06
1.34426e-06
4.91688e-07
1.34386e-06
1.34409e-06
5.35148e-07
5.35987e-07
5.35984e-07
1.08854e-05
5.81307e-07
1.08868e-05
5.81299e-07
5.28614e-07
2.43603e-06
2.43693e-06
5.40814e-07
5.40811e-07
5.34643e-07
5.35413e-07
5.3364e-07
5.35348e-07
5.34643e-07
5.35413e-07
5.33639e-07
5.35348e-07
5.304e-07
3.46851e-06
5.68176e-07
8.28723e-07
5.304e-07
3.46854e-06
5.68175e-07
8.28728e-07
5.29657e-07
5.28695e-07
1.17177e-06
5.07315e-07
5.32655e-07
5.28952e-07
5.19332e-07
5.29657e-07
5.28695e-07
1.17191e-06
5.07315e-07
5.32654e-07
5.28952e-07
5.19335e-07
5.35148e-07
5.35986e-07
5.35984e-07
1.08856e-05
5.81285e-07
5.28614e-07
2.43653e-06
2.43654e-06
5.40815e-07
5.40811e-07
1.08863e-05
5.8128e-07
5.34643e-07
5.35413e-07
5.3364e-07
5.35348e-07
5.34643e-07
5.35413e-07
5.35348e-07
5.3364e-07
5.304e-07
3.46886e-06
5.68174e-07
8.28841e-07
5.29657e-07
5.28695e-07
1.17202e-06
5.07315e-07
5.32654e-07
5.28952e-07
5.1934e-07
5.304e-07
3.46895e-06
5.68172e-07
8.28743e-07
5.29657e-07
5.28695e-07
5.07315e-07
1.17199e-06
5.28952e-07
5.32654e-07
5.19334e-07
5.35367e-07
5.35361e-07
5.35357e-07
5.35357e-07
5.35367e-07
5.35361e-07
5.35357e-07
5.35357e-07
5.35367e-07
5.35361e-07
5.35357e-07
5.35357e-07
5.28994e-07
5.28894e-07
5.07363e-07
5.07363e-07
5.28982e-07
5.28982e-07
5.07417e-07
5.28994e-07
5.28892e-07
5.07363e-07
5.07363e-07
5.28982e-07
5.28982e-07
5.07417e-07
5.28994e-07
5.28892e-07
5.07363e-07
5.07363e-07
5.28982e-07
5.28982e-07
5.07417e-07
5.28994e-07
5.28892e-07
5.07363e-07
5.07363e-07
5.28982e-07
5.28982e-07
5.07417e-07
5.34643e-07
5.35413e-07
5.35348e-07
5.3364e-07
5.29657e-07
5.28694e-07
1.17194e-06
5.07316e-07
5.32654e-07
5.28953e-07
5.19338e-07
5.304e-07
3.46875e-06
5.68168e-07
8.28765e-07
5.29657e-07
5.28694e-07
5.07315e-07
1.17183e-06
5.28952e-07
5.32653e-07
5.19333e-07
5.304e-07
3.46887e-06
5.68172e-07
8.2869e-07
5.35148e-07
5.35984e-07
5.35982e-07
1.08869e-05
5.81296e-07
5.28614e-07
2.43679e-06
2.43651e-06
5.40811e-07
5.40808e-07
1.08867e-05
5.81275e-07
5.34643e-07
5.35413e-07
5.35348e-07
5.3364e-07
5.29657e-07
5.28694e-07
5.07316e-07
1.17189e-06
5.28953e-07
5.32653e-07
5.19336e-07
5.29657e-07
5.28695e-07
5.07315e-07
1.17202e-06
5.28952e-07
5.32654e-07
5.19338e-07
5.304e-07
3.4689e-06
5.68166e-07
8.28714e-07
5.304e-07
3.46893e-06
5.68177e-07
8.28818e-07
5.28612e-07
2.43634e-06
2.43702e-06
5.40809e-07
5.4081e-07
1.08866e-05
5.81279e-07
1.08868e-05
5.81293e-07
1.25059e-05
1.45938e-05
1.25077e-05
1.45959e-05
2.45512e-06
2.45584e-06
4.94115e-07
1.85044e-06
1.85112e-06
1.4957e-05
1.47524e-05
1.49593e-05
1.47545e-05
4.93481e-07
1.37725e-06
1.37759e-06
1.64471e-06
1.64523e-06
9.82879e-07
3.87612e-06
9.44508e-07
4.4858e-06
5.38814e-07
1.18067e-06
4.96787e-07
4.93818e-07
5.25846e-07
9.98518e-07
4.92498e-07
5.38822e-07
1.18083e-06
4.96787e-07
4.93822e-07
5.25847e-07
9.9876e-07
4.92498e-07
9.72418e-07
4.76614e-06
4.61742e-06
9.2805e-07
9.7252e-07
4.76631e-06
4.61754e-06
9.28096e-07
5.38608e-07
4.92093e-07
8.34996e-07
4.90664e-07
9.38396e-07
4.91074e-07
5.32656e-07
5.38618e-07
4.92096e-07
8.3513e-07
4.90664e-07
9.38535e-07
4.91074e-07
5.32662e-07
2.45544e-06
2.45544e-06
4.94114e-07
1.85105e-06
1.85054e-06
1.25068e-05
1.45945e-05
1.49581e-05
1.47539e-05
4.93481e-07
1.37752e-06
1.37736e-06
1.64518e-06
1.64486e-06
1.49573e-05
1.4753e-05
5.38834e-07
1.18093e-06
4.96787e-07
4.9382e-07
5.25854e-07
9.98761e-07
4.92498e-07
9.82901e-07
3.8767e-06
9.44362e-07
4.48643e-06
5.38827e-07
4.96787e-07
1.18089e-06
4.93822e-07
5.25843e-07
4.92498e-07
9.98743e-07
9.72507e-07
4.7667e-06
4.61775e-06
9.28102e-07
5.38624e-07
4.92095e-07
8.35124e-07
4.90664e-07
9.38555e-07
4.91074e-07
5.3266e-07
9.72458e-07
4.76696e-06
4.61818e-06
9.28105e-07
5.38618e-07
4.92096e-07
4.90664e-07
8.35167e-07
4.91074e-07
9.38529e-07
5.32666e-07
9.8293e-07
3.87632e-06
9.44437e-07
4.48589e-06
5.38818e-07
4.96787e-07
1.18075e-06
4.93818e-07
5.25827e-07
4.92498e-07
9.98636e-07
9.82868e-07
3.87657e-06
9.44297e-07
4.48619e-06
5.38614e-07
4.9209e-07
8.34998e-07
4.90665e-07
9.38418e-07
4.91074e-07
5.32665e-07
9.72499e-07
4.76637e-06
4.61748e-06
9.28109e-07
5.38604e-07
4.92094e-07
4.90664e-07
8.35034e-07
4.91074e-07
9.38342e-07
5.32658e-07
9.72388e-07
4.76655e-06
4.61786e-06
9.28119e-07
2.45565e-06
2.45543e-06
4.94115e-07
1.85105e-06
1.85039e-06
1.25075e-05
1.45952e-05
1.49599e-05
1.47555e-05
4.93481e-07
1.37762e-06
1.37746e-06
1.64517e-06
1.64478e-06
1.49586e-05
1.47539e-05
5.38834e-07
4.96787e-07
1.18092e-06
4.9382e-07
5.25843e-07
4.92498e-07
9.98747e-07
9.8293e-07
3.8766e-06
9.44403e-07
4.48621e-06
9.83007e-07
3.87655e-06
9.4449e-07
4.48613e-06
5.38612e-07
4.9209e-07
4.90664e-07
8.35032e-07
4.91073e-07
9.38419e-07
5.32661e-07
5.38621e-07
4.92095e-07
4.90664e-07
8.35141e-07
4.91074e-07
9.38532e-07
5.32666e-07
9.72332e-07
4.76672e-06
4.61793e-06
9.28129e-07
9.72397e-07
4.76681e-06
4.61789e-06
9.28164e-07
1.2507e-05
1.45952e-05
1.25077e-05
1.45959e-05
4.9348e-07
1.37722e-06
1.3775e-06
1.64461e-06
1.6452e-06
1.49581e-05
1.47535e-05
1.49592e-05
1.47545e-05
1.49714e-05
1.49773e-05
1.49738e-05
1.49797e-05
1.35809e-06
1.35847e-06
4.91697e-07
1.34487e-06
1.34515e-06
1.49765e-05
1.49753e-05
1.49789e-05
1.49776e-05
4.91708e-07
1.34403e-06
1.34427e-06
1.34451e-06
1.34485e-06
9.17728e-07
4.77441e-06
9.23158e-07
4.77786e-06
5.30335e-07
8.24829e-07
4.90564e-07
4.91055e-07
5.31607e-07
8.15026e-07
4.90542e-07
5.30337e-07
8.24896e-07
4.90564e-07
4.91055e-07
5.31612e-07
8.15115e-07
4.90542e-07
9.176e-07
4.77743e-06
4.77723e-06
9.17039e-07
9.17604e-07
4.77748e-06
4.77751e-06
9.17052e-07
5.30318e-07
4.91031e-07
8.14254e-07
4.90532e-07
8.1485e-07
4.90532e-07
5.30182e-07
5.3032e-07
4.91031e-07
8.14282e-07
4.90532e-07
8.14936e-07
4.90532e-07
5.30184e-07
1.35837e-06
1.35815e-06
4.91697e-07
1.34511e-06
1.34479e-06
1.49716e-05
1.49777e-05
1.49781e-05
1.4976e-05
4.91707e-07
1.34422e-06
1.34404e-06
1.34477e-06
1.34465e-06
1.49763e-05
1.49757e-05
5.30342e-07
8.2496e-07
4.90564e-07
4.91055e-07
5.31615e-07
8.15145e-07
4.90542e-07
9.17818e-07
4.77506e-06
9.23229e-07
4.77852e-06
5.30345e-07
4.90564e-07
8.24952e-07
4.91056e-07
5.31616e-07
4.90542e-07
8.15163e-07
9.17616e-07
4.77799e-06
4.77781e-06
9.17025e-07
5.30325e-07
4.91031e-07
8.14307e-07
4.90532e-07
8.14963e-07
4.90532e-07
5.30184e-07
9.17618e-07
4.77816e-06
4.77819e-06
9.17039e-07
5.30331e-07
4.91032e-07
4.90532e-07
8.14373e-07
4.90532e-07
8.15023e-07
5.30189e-07
9.17761e-07
4.77445e-06
9.23161e-07
4.77786e-06
5.30338e-07
4.90564e-07
8.24847e-07
4.91056e-07
5.31607e-07
4.90542e-07
8.15097e-07
9.17748e-07
4.77467e-06
9.23185e-07
4.77812e-06
5.30317e-07
4.91033e-07
8.14234e-07
4.90533e-07
8.14878e-07
4.90537e-07
5.30183e-07
9.17565e-07
4.77749e-06
4.77753e-06
9.17044e-07
5.30319e-07
4.91031e-07
4.90532e-07
8.14252e-07
4.90532e-07
8.14918e-07
5.30184e-07
9.17611e-07
4.7778e-06
4.77778e-06
9.17062e-07
1.35853e-06
1.35804e-06
4.91697e-07
1.34519e-06
1.34487e-06
1.49725e-05
1.49791e-05
1.49804e-05
1.49783e-05
4.91708e-07
1.34442e-06
1.34403e-06
1.34502e-06
1.3446e-06
1.4978e-05
1.4977e-05
5.30341e-07
4.90564e-07
8.24902e-07
4.91055e-07
5.3161e-07
4.90542e-07
8.15135e-07
9.17811e-07
4.77474e-06
9.23227e-07
4.7782e-06
9.17755e-07
4.77483e-06
9.23219e-07
4.77832e-06
5.30323e-07
4.91034e-07
4.90533e-07
8.14233e-07
4.90536e-07
8.14871e-07
5.30186e-07
5.30321e-07
4.91031e-07
4.90532e-07
8.14307e-07
4.90532e-07
8.14951e-07
5.30184e-07
9.17616e-07
4.77779e-06
4.77784e-06
9.1704e-07
9.17629e-07
4.77798e-06
4.77798e-06
9.17045e-07
1.49726e-05
1.49791e-05
1.49737e-05
1.49801e-05
4.91711e-07
1.34403e-06
1.34428e-06
1.34465e-06
1.34486e-06
1.49781e-05
1.4977e-05
1.49791e-05
1.4978e-05
1.49745e-05
1.49759e-05
1.49772e-05
1.4978e-05
1.34406e-06
1.34424e-06
4.91683e-07
1.34407e-06
1.34412e-06
1.49761e-05
1.49752e-05
1.49787e-05
1.49772e-05
4.91698e-07
1.34406e-06
1.34417e-06
1.34411e-06
1.34413e-06
9.16955e-07
4.7772e-06
9.17086e-07
4.77737e-06
5.30164e-07
8.14346e-07
4.90536e-07
4.91031e-07
5.30205e-07
8.14187e-07
4.90536e-07
5.30167e-07
8.1434e-07
4.90537e-07
4.91031e-07
5.30208e-07
8.14187e-07
4.90537e-07
9.16987e-07
4.77738e-06
4.77698e-06
9.16928e-07
9.17008e-07
4.77743e-06
4.77715e-06
9.16941e-07
5.30193e-07
4.9103e-07
8.14175e-07
4.90533e-07
8.14293e-07
4.90534e-07
5.30161e-07
5.30196e-07
4.9103e-07
8.14177e-07
4.90533e-07
8.14274e-07
4.90534e-07
5.30168e-07
1.34421e-06
1.34417e-06
4.91683e-07
1.3441e-06
1.34409e-06
1.49745e-05
1.4976e-05
1.49779e-05
1.49752e-05
4.91697e-07
1.34411e-06
1.34403e-06
1.3441e-06
1.34417e-06
1.49761e-05
1.49752e-05
5.3016e-07
8.14368e-07
4.90537e-07
4.91031e-07
5.30207e-07
8.14226e-07
4.90537e-07
9.16932e-07
4.77787e-06
9.17038e-07
4.77805e-06
5.30168e-07
4.90537e-07
8.14461e-07
4.91032e-07
5.30211e-07
4.90537e-07
8.143e-07
9.16878e-07
4.77798e-06
4.77753e-06
9.16861e-07
5.30187e-07
4.91029e-07
8.14241e-07
4.90533e-07
8.14337e-07
4.90535e-07
5.30158e-07
9.16942e-07
4.77811e-06
4.77784e-06
9.16903e-07
5.30196e-07
4.9103e-07
4.90533e-07
8.14295e-07
4.90534e-07
8.14411e-07
5.30168e-07
9.16964e-07
4.7772e-06
9.1708e-07
4.77742e-06
5.30163e-07
4.90537e-07
8.14307e-07
4.91031e-07
5.30205e-07
4.90537e-07
8.14145e-07
9.16963e-07
4.77752e-06
9.17096e-07
4.77771e-06
5.30192e-07
4.91032e-07
8.14155e-07
4.90533e-07
8.14266e-07
4.90537e-07
5.30169e-07
9.1702e-07
4.77745e-06
4.77723e-06
9.16954e-07
5.30192e-07
4.91029e-07
4.90533e-07
8.14137e-07
4.90534e-07
8.14235e-07
5.30167e-07
9.17017e-07
4.77776e-06
4.77749e-06
9.1695e-07
1.34452e-06
1.34403e-06
4.91683e-07
1.34447e-06
1.34393e-06
1.49766e-05
1.49774e-05
1.498e-05
1.49772e-05
4.91697e-07
1.34439e-06
1.34394e-06
1.34445e-06
1.34394e-06
1.49778e-05
1.49765e-05
5.3016e-07
4.90536e-07
8.14361e-07
4.91031e-07
5.30205e-07
4.90536e-07
8.14206e-07
9.16917e-07
4.77753e-06
9.17038e-07
4.77776e-06
9.16909e-07
4.77769e-06
9.17045e-07
4.77787e-06
5.30189e-07
4.91032e-07
4.90534e-07
8.1413e-07
4.90537e-07
8.14233e-07
5.30159e-07
5.30186e-07
4.91029e-07
4.90533e-07
8.142e-07
4.90534e-07
8.14298e-07
5.30157e-07
9.16922e-07
4.77782e-06
4.77759e-06
9.16879e-07
9.16915e-07
4.77793e-06
4.7777e-06
9.16875e-07
1.49765e-05
1.49775e-05
1.49772e-05
1.49781e-05
4.91702e-07
1.34392e-06
1.34415e-06
1.34386e-06
1.34409e-06
1.4978e-05
1.49766e-05
1.49788e-05
1.49774e-05
1.49742e-05
1.49756e-05
1.49773e-05
1.49781e-05
1.34405e-06
1.34417e-06
4.91684e-07
1.34398e-06
1.34412e-06
1.49763e-05
1.49747e-05
1.49787e-05
1.49773e-05
4.91698e-07
1.3439e-06
1.34416e-06
1.34387e-06
1.34411e-06
9.16956e-07
4.77711e-06
9.16997e-07
4.77731e-06
5.30167e-07
8.14292e-07
4.90537e-07
4.91031e-07
5.30191e-07
8.14173e-07
4.90537e-07
5.30168e-07
8.14268e-07
4.90536e-07
4.91032e-07
5.30197e-07
8.14173e-07
4.90536e-07
9.16984e-07
4.77737e-06
4.77699e-06
9.16925e-07
9.17012e-07
4.77742e-06
4.77721e-06
9.16934e-07
5.30196e-07
4.9103e-07
8.14131e-07
4.90533e-07
8.14253e-07
4.90535e-07
5.3016e-07
5.30199e-07
4.9103e-07
8.14174e-07
4.90532e-07
8.14266e-07
4.90534e-07
5.30167e-07
1.34411e-06
1.34418e-06
4.91683e-07
1.3441e-06
1.34396e-06
1.49743e-05
1.49757e-05
1.49778e-05
1.4975e-05
4.91697e-07
1.3441e-06
1.34402e-06
1.3441e-06
1.34417e-06
1.49761e-05
1.4975e-05
5.30156e-07
8.14333e-07
4.90537e-07
4.91031e-07
5.30185e-07
8.14208e-07
4.90536e-07
9.16907e-07
4.7778e-06
9.16918e-07
4.77801e-06
5.30167e-07
4.90537e-07
8.14406e-07
4.91032e-07
5.30196e-07
4.90537e-07
8.14287e-07
9.16861e-07
4.778e-06
4.77756e-06
9.16859e-07
5.30186e-07
4.9103e-07
8.14195e-07
4.90533e-07
8.14294e-07
4.90534e-07
5.30156e-07
9.16922e-07
4.7781e-06
4.77785e-06
9.16898e-07
5.30196e-07
4.9103e-07
4.90533e-07
8.14291e-07
4.90534e-07
8.144e-07
5.30166e-07
9.16943e-07
4.77715e-06
9.17006e-07
4.77737e-06
5.30162e-07
4.90536e-07
8.14227e-07
4.91031e-07
5.30195e-07
4.90536e-07
8.14131e-07
9.16944e-07
4.77744e-06
9.17004e-07
4.77766e-06
5.30191e-07
4.91031e-07
8.14152e-07
4.90534e-07
8.14256e-07
4.90537e-07
5.30166e-07
9.16998e-07
4.77744e-06
4.77724e-06
9.16949e-07
5.30191e-07
4.9103e-07
4.90533e-07
8.14136e-07
4.90534e-07
8.14227e-07
5.30166e-07
9.17e-07
4.77775e-06
4.77756e-06
9.16945e-07
1.34456e-06
1.34394e-06
4.91684e-07
1.34436e-06
1.3439e-06
1.49765e-05
1.49771e-05
1.498e-05
1.4977e-05
4.91697e-07
1.34438e-06
1.34392e-06
1.34444e-06
1.3439e-06
1.49778e-05
1.49763e-05
5.30158e-07
4.90536e-07
8.14291e-07
4.91031e-07
5.30187e-07
4.90536e-07
8.14193e-07
9.16895e-07
4.77751e-06
9.16894e-07
4.77771e-06
9.16884e-07
4.77761e-06
9.16891e-07
4.77783e-06
5.3019e-07
4.91031e-07
4.90533e-07
8.14122e-07
4.90537e-07
8.14208e-07
5.30162e-07
5.30188e-07
4.91029e-07
4.90533e-07
8.14198e-07
4.90534e-07
8.1429e-07
5.30159e-07
9.1691e-07
4.77781e-06
4.77762e-06
9.16889e-07
9.169e-07
4.77792e-06
4.77773e-06
9.16878e-07
1.49766e-05
1.49773e-05
1.49775e-05
1.49782e-05
4.91702e-07
1.34392e-06
1.34415e-06
1.34386e-06
1.34409e-06
1.4978e-05
1.49765e-05
1.49788e-05
1.49774e-05
1.49748e-05
1.49757e-05
1.49773e-05
1.4978e-05
1.34389e-06
1.34417e-06
4.91684e-07
1.34385e-06
1.34412e-06
1.49763e-05
1.49749e-05
1.49787e-05
1.49772e-05
4.91698e-07
1.34389e-06
1.34417e-06
1.34385e-06
1.34412e-06
9.16937e-07
4.7771e-06
9.1699e-07
4.77731e-06
5.30167e-07
8.14226e-07
4.90537e-07
4.91032e-07
5.3019e-07
8.14115e-07
4.90537e-07
5.30166e-07
8.14266e-07
4.90536e-07
4.91032e-07
5.30195e-07
8.14171e-07
4.90536e-07
9.16982e-07
4.77743e-06
4.77698e-06
9.16925e-07
9.16993e-07
4.77743e-06
4.77722e-06
9.16936e-07
5.30195e-07
4.9103e-07
8.14111e-07
4.90533e-07
8.14205e-07
4.90535e-07
5.3016e-07
5.30196e-07
4.9103e-07
8.14175e-07
4.90533e-07
8.14265e-07
4.90534e-07
5.30166e-07
1.3441e-06
1.34418e-06
4.91683e-07
1.34407e-06
1.34396e-06
1.49744e-05
1.49757e-05
1.49785e-05
1.49754e-05
4.91696e-07
1.34411e-06
1.34402e-06
1.34407e-06
1.34416e-06
1.49761e-05
1.4975e-05
5.30157e-07
8.14295e-07
4.90536e-07
4.91031e-07
5.30184e-07
8.14213e-07
4.90536e-07
9.16906e-07
4.77779e-06
9.16913e-07
4.778e-06
5.30167e-07
4.90536e-07
8.14403e-07
4.91032e-07
5.30195e-07
4.90536e-07
8.14286e-07
9.16859e-07
4.77799e-06
4.77755e-06
9.16857e-07
5.30187e-07
4.9103e-07
8.14225e-07
4.90533e-07
8.14301e-07
4.90535e-07
5.30156e-07
9.16922e-07
4.7781e-06
4.77785e-06
9.16898e-07
5.30197e-07
4.9103e-07
4.90533e-07
8.14291e-07
4.90534e-07
8.14399e-07
5.30166e-07
9.16942e-07
4.77713e-06
9.17003e-07
4.77736e-06
5.30162e-07
4.90536e-07
8.14226e-07
4.91032e-07
5.30194e-07
4.90536e-07
8.1413e-07
9.16944e-07
4.77743e-06
9.17001e-07
4.77766e-06
5.3019e-07
4.91031e-07
8.14152e-07
4.90534e-07
8.14255e-07
4.90537e-07
5.30166e-07
9.16997e-07
4.77744e-06
4.77724e-06
9.1694e-07
5.30191e-07
4.9103e-07
4.90533e-07
8.14136e-07
4.90534e-07
8.14226e-07
5.30165e-07
9.17e-07
4.77775e-06
4.77755e-06
9.16944e-07
1.34455e-06
1.34392e-06
4.91683e-07
1.34436e-06
1.34389e-06
1.49766e-05
1.49772e-05
1.498e-05
1.4977e-05
4.91697e-07
1.34438e-06
1.34392e-06
1.34444e-06
1.34389e-06
1.49778e-05
1.49763e-05
5.30158e-07
4.90536e-07
8.1429e-07
4.91031e-07
5.30188e-07
4.90536e-07
8.14192e-07
9.16895e-07
4.7775e-06
9.16903e-07
4.77771e-06
9.16885e-07
4.77761e-06
9.16894e-07
4.77783e-06
5.30189e-07
4.91032e-07
4.90533e-07
8.14122e-07
4.90537e-07
8.14208e-07
5.30162e-07
5.30187e-07
4.9103e-07
4.90533e-07
8.14198e-07
4.90534e-07
8.14289e-07
5.30159e-07
9.16909e-07
4.77781e-06
4.77762e-06
9.16888e-07
9.169e-07
4.77792e-06
4.77773e-06
9.16877e-07
1.49766e-05
1.49773e-05
1.49775e-05
1.49782e-05
4.91702e-07
1.34392e-06
1.34416e-06
1.34386e-06
1.34409e-06
1.4978e-05
1.49765e-05
1.49788e-05
1.49774e-05
1.49746e-05
1.49755e-05
1.49773e-05
1.4978e-05
1.34389e-06
1.34417e-06
4.91684e-07
1.34387e-06
1.34412e-06
1.49761e-05
1.49746e-05
1.49787e-05
1.49772e-05
4.91698e-07
1.34388e-06
1.34416e-06
1.34387e-06
1.34412e-06
9.16938e-07
4.77711e-06
9.16992e-07
4.77733e-06
5.30167e-07
8.14211e-07
4.90537e-07
4.91032e-07
5.3019e-07
8.14107e-07
4.90537e-07
5.30166e-07
8.14267e-07
4.90537e-07
4.91032e-07
5.30195e-07
8.14174e-07
4.90537e-07
9.16984e-07
4.77744e-06
4.77694e-06
9.16925e-07
9.16994e-07
4.77743e-06
4.77724e-06
9.16938e-07
5.30195e-07
4.9103e-07
8.14107e-07
4.90533e-07
8.14198e-07
4.90535e-07
5.3016e-07
5.30196e-07
4.9103e-07
8.14176e-07
4.90533e-07
8.14268e-07
4.90535e-07
5.30167e-07
1.34411e-06
1.34418e-06
4.91683e-07
1.34413e-06
1.34396e-06
1.49744e-05
1.49757e-05
1.49782e-05
1.49761e-05
4.91697e-07
1.34412e-06
1.34402e-06
1.34413e-06
1.34416e-06
1.49761e-05
1.4975e-05
5.30158e-07
8.14321e-07
4.90536e-07
4.91032e-07
5.30184e-07
8.14226e-07
4.90536e-07
9.16906e-07
4.77779e-06
9.16914e-07
4.778e-06
5.30167e-07
4.90536e-07
8.14403e-07
4.91032e-07
5.30195e-07
4.90536e-07
8.14286e-07
9.16859e-07
4.77799e-06
4.77755e-06
9.16857e-07
5.30187e-07
4.9103e-07
8.14227e-07
4.90533e-07
8.14311e-07
4.90534e-07
5.30155e-07
9.16922e-07
4.7781e-06
4.77785e-06
9.16898e-07
5.30196e-07
4.9103e-07
4.90532e-07
8.14291e-07
4.90534e-07
8.14399e-07
5.30166e-07
9.16946e-07
4.77713e-06
9.16995e-07
4.77736e-06
5.30162e-07
4.90537e-07
8.14226e-07
4.91032e-07
5.30194e-07
4.90536e-07
8.1413e-07
9.16944e-07
4.77744e-06
9.17e-07
4.77766e-06
5.30191e-07
4.91031e-07
8.14151e-07
4.90534e-07
8.14255e-07
4.90537e-07
5.30166e-07
9.17e-07
4.77744e-06
4.77723e-06
9.1694e-07
5.30191e-07
4.9103e-07
4.90533e-07
8.14136e-07
4.90535e-07
8.14226e-07
5.30165e-07
9.17e-07
4.77775e-06
4.77756e-06
9.16943e-07
1.34455e-06
1.34393e-06
4.91684e-07
1.34436e-06
1.34389e-06
1.49766e-05
1.49772e-05
1.498e-05
1.4977e-05
4.91697e-07
1.34438e-06
1.34392e-06
1.34444e-06
1.34389e-06
1.49778e-05
1.49763e-05
5.30157e-07
4.90536e-07
8.1429e-07
4.91031e-07
5.30188e-07
4.90536e-07
8.14192e-07
9.16895e-07
4.7775e-06
9.16902e-07
4.77771e-06
9.16881e-07
4.77761e-06
9.16893e-07
4.77783e-06
5.30189e-07
4.91031e-07
4.90534e-07
8.14122e-07
4.90537e-07
8.14208e-07
5.30162e-07
5.30186e-07
4.9103e-07
4.90533e-07
8.14198e-07
4.90534e-07
8.14289e-07
5.30158e-07
9.16909e-07
4.77781e-06
4.77762e-06
9.16888e-07
9.16896e-07
4.77792e-06
4.77773e-06
9.16874e-07
1.49767e-05
1.49773e-05
1.49776e-05
1.49782e-05
4.91702e-07
1.34392e-06
1.34415e-06
1.34386e-06
1.34409e-06
1.4978e-05
1.49765e-05
1.49788e-05
1.49774e-05
1.49747e-05
1.49754e-05
1.49773e-05
1.4978e-05
1.34388e-06
1.34417e-06
4.91684e-07
1.34384e-06
1.34412e-06
1.49762e-05
1.49746e-05
1.49787e-05
1.49772e-05
4.91698e-07
1.34391e-06
1.34417e-06
1.34384e-06
1.34412e-06
9.16938e-07
4.77711e-06
9.16994e-07
4.77731e-06
5.30167e-07
8.14208e-07
4.90537e-07
4.91032e-07
5.3019e-07
8.14105e-07
4.90537e-07
5.30166e-07
8.14267e-07
4.90537e-07
4.91032e-07
5.30196e-07
8.14171e-07
4.90537e-07
9.16982e-07
4.77744e-06
4.77694e-06
9.16925e-07
9.16995e-07
4.77742e-06
4.77722e-06
9.16938e-07
5.30195e-07
4.9103e-07
8.14111e-07
4.90533e-07
8.14198e-07
4.90534e-07
5.3016e-07
5.30196e-07
4.9103e-07
8.14174e-07
4.90533e-07
8.14264e-07
4.90535e-07
5.30167e-07
1.34412e-06
1.34418e-06
4.91683e-07
1.34408e-06
1.34396e-06
1.49744e-05
1.49757e-05
1.49781e-05
1.49753e-05
4.91697e-07
1.3441e-06
1.34402e-06
1.34408e-06
1.34416e-06
1.49761e-05
1.4975e-05
5.30158e-07
8.14322e-07
4.90536e-07
4.91032e-07
5.30184e-07
8.14226e-07
4.90536e-07
9.16906e-07
4.77779e-06
9.16913e-07
4.778e-06
5.30167e-07
4.90536e-07
8.14403e-07
4.91032e-07
5.30194e-07
4.90536e-07
8.14286e-07
9.16859e-07
4.77799e-06
4.77755e-06
9.16857e-07
5.30187e-07
4.9103e-07
8.14227e-07
4.90533e-07
8.14311e-07
4.90534e-07
5.30155e-07
9.16922e-07
4.7781e-06
4.77785e-06
9.16898e-07
5.30196e-07
4.9103e-07
4.90533e-07
8.14291e-07
4.90534e-07
8.14399e-07
5.30166e-07
9.16946e-07
4.77713e-06
9.16995e-07
4.77736e-06
5.30162e-07
4.90537e-07
8.14226e-07
4.91032e-07
5.30193e-07
4.90537e-07
8.1413e-07
9.16944e-07
4.77744e-06
9.16999e-07
4.77766e-06
5.30191e-07
4.91031e-07
8.14152e-07
4.90533e-07
8.14255e-07
4.90537e-07
5.30166e-07
9.17e-07
4.77744e-06
4.77723e-06
9.16941e-07
5.30191e-07
4.9103e-07
4.90533e-07
8.14136e-07
4.90535e-07
8.14226e-07
5.30166e-07
9.17001e-07
4.77775e-06
4.77756e-06
9.16947e-07
1.34455e-06
1.34392e-06
4.91683e-07
1.34436e-06
1.34389e-06
1.49766e-05
1.49772e-05
1.498e-05
1.4977e-05
4.91697e-07
1.34438e-06