/*--------------------------------*- C++ -*----------------------------------*\
| =========                 |                                                 |
| \\      /  F ield         | OpenFOAM: The Open Source CFD Toolbox           |
|  \\    /   O peration     | Version:  2206                                  |
|   \\  /    A nd           | Website:  www.openfoam.com                      |
|    \\/     M anipulation  |                                                 |
\*---------------------------------------------------------------------------*/
FoamFile
{
    version     2.0;
    format      ascii;
    arch        "LSB;label=32;scalar=64";
    class       volScalarField;
    location    "3.5";
    object      nut;
}
// * * * * * * * * * * * * * * * * * * * * * * * * * * * * * * * * * * * * * //

dimensions      [0 2 -1 0 0 0 0];

internalField   nonuniform List<scalar> 
28688
(
0.00023402
0.000233168
0.000233168
0.000233501
0.00023389
0.000233567
0.000233567
0.000233183
0.000233891
0.000233608
0.000233608
0.000233272
0.000233891
0.000233608
0.000233608
0.000233272
0.000233891
0.000233608
0.000233608
0.000233272
0.000233891
0.000233608
0.000233608
0.000233272
0.000233891
0.000233608
0.000233608
0.000233272
0.000233891
0.000233608
0.000233608
0.000233272
0.000233891
0.000233608
0.000233608
0.000233272
0.000233891
0.000233608
0.000233608
0.000233272
0.000233891
0.000233608
0.000233608
0.000233272
0.000233891
0.000233608
0.000233608
0.000233272
0.000234125
0.000234376
0.000234376
0.000234125
0.000234376
0.000234376
0.000234249
0.000234249
0.000234249
0.000234249
0.000234375
0.000234376
0.000234125
0.000234375
0.000234376
0.000234126
0.000233501
0.000233104
0.000233168
0.000233165
0.000233473
0.000233472
0.000233501
0.000233104
0.000233166
0.000233165
0.000233473
0.000233472
0.000233167
0.000233473
0.000233473
0.000233501
0.000233104
0.000233166
0.000233472
0.000233473
0.000233102
0.000233186
0.000233277
0.000233567
0.000233567
0.000233608
0.000233607
0.000233186
0.000233276
0.000233567
0.000233567
0.000233608
0.000233607
0.000233567
0.000233608
0.000233607
0.000233186
0.000233276
0.000233567
0.000233608
0.000233608
0.000233273
0.000233275
0.000233276
0.000233609
0.000233609
0.000233608
0.000233608
0.000233274
0.000233276
0.000233609
0.000233609
0.000233608
0.000233607
0.000233608
0.000233608
0.000233608
0.000233274
0.000233276
0.000233609
0.000233608
0.000233608
0.000233274
0.000233274
0.000233276
0.000233608
0.000233608
0.000233608
0.000233608
0.000233274
0.000233276
0.000233608
0.000233608
0.000233608
0.000233607
0.000233608
0.000233608
0.000233608
0.000233274
0.000233276
0.000233608
0.000233608
0.000233608
0.000233274
0.000233274
0.000233276
0.000233608
0.000233608
0.000233608
0.000233608
0.000233274
0.000233276
0.000233608
0.000233608
0.000233608
0.000233607
0.000233608
0.000233608
0.000233608
0.000233274
0.000233276
0.000233608
0.000233608
0.000233608
0.000233274
0.000233274
0.000233276
0.000233608
0.000233608
0.000233608
0.000233608
0.000233274
0.000233276
0.000233608
0.000233608
0.000233608
0.000233607
0.000233608
0.000233608
0.000233608
0.000233274
0.000233276
0.000233608
0.000233608
0.000233608
0.000233274
0.000233274
0.000233276
0.000233608
0.000233608
0.000233608
0.000233608
0.000233274
0.000233276
0.000233608
0.000233608
0.000233608
0.000233607
0.000233608
0.000233608
0.000233608
0.000233274
0.000233276
0.000233608
0.000233608
0.000233608
0.000233274
0.000233274
0.000233276
0.000233608
0.000233608
0.000233608
0.000233608
0.000233274
0.000233276
0.000233608
0.000233608
0.000233608
0.000233607
0.000233608
0.000233608
0.000233608
0.000233274
0.000233276
0.000233608
0.000233608
0.000233608
0.000233274
0.000233274
0.000233276
0.000233608
0.000233608
0.000233608
0.000233608
0.000233274
0.000233276
0.000233608
0.000233608
0.000233608
0.000233607
0.000233608
0.000233608
0.000233608
0.000233274
0.000233276
0.000233608
0.000233608
0.000233608
0.000233274
0.000233274
0.000233276
0.000233608
0.000233608
0.000233608
0.000233608
0.000233274
0.000233276
0.000233608
0.000233608
0.000233608
0.000233607
0.000233608
0.000233608
0.000233608
0.000233274
0.000233276
0.000233608
0.000233608
0.000233608
0.000233274
0.000233274
0.000233276
0.000233608
0.000233608
0.000233608
0.000233608
0.000233274
0.000233276
0.000233608
0.000233608
0.000233608
0.000233607
0.000233608
0.000233608
0.000233608
0.000233274
0.000233276
0.000233608
0.000233608
0.000233608
0.000233274
0.000233274
0.000233282
0.000233608
0.000233608
0.000233609
0.000233274
0.000233608
0.000233608
0.000233608
0.000233608
0.000233608
0.000233608
0.000233274
0.000233281
0.000233608
0.000233609
0.000233609
0.000233282
0.00023474
0.000234742
0.00023474
0.00023474
0.00023502
0.00023475
0.000234712
0.000234741
0.00023502
0.00023475
0.000234741
0.000234712
0.000234795
0.000233578
0.000233578
0.00011797
3.87365e-05
0.000127821
3.95026e-05
2.16394e-05
2.19614e-05
0.000117953
3.87326e-05
0.000127816
3.94992e-05
0.00023402
0.00023402
0.00023402
0.00023389
0.00023389
0.00023389
0.00023389
0.000212866
9.67611e-05
0.000234002
0.00023306
0.000222359
0.000112172
0.000233882
2.16383e-05
2.19604e-05
0.000212867
0.000234002
9.67649e-05
0.00023306
0.000222359
0.000233881
0.000112175
4.91136e-05
4.91021e-05
0.000232506
5.9137e-05
5.91243e-05
0.000126197
4.03506e-05
0.000125326
4.03604e-05
2.21358e-05
2.2138e-05
0.000126185
4.03474e-05
0.000125312
4.03571e-05
0.00023389
0.00023389
0.00023389
0.000233891
0.000233891
0.000233891
0.000233891
0.000215917
0.000139703
0.000233853
0.000233598
0.000215351
0.000141698
0.000233855
2.21344e-05
2.21365e-05
0.000215915
0.000233853
0.000139706
0.000233598
0.000215351
0.000233855
0.000141694
8.57373e-05
8.57219e-05
0.00023327
8.69531e-05
8.69392e-05
0.000126331
4.03594e-05
0.000126304
4.03585e-05
2.2138e-05
2.21372e-05
0.000126341
4.03569e-05
0.000126311
4.03558e-05
0.000233892
0.000233892
0.000233891
0.000233891
0.000233891
0.000233891
0.000233891
0.000216002
0.000141847
0.000233856
0.000233609
0.000215982
0.000141886
0.000233857
2.21364e-05
2.21355e-05
0.000216002
0.000233856
0.000141847
0.000233609
0.000215981
0.000233856
0.000141887
8.7039e-05
8.70241e-05
0.000233279
8.70548e-05
8.70398e-05
0.000126331
4.03594e-05
0.000126311
4.03586e-05
2.21379e-05
2.21371e-05
0.000126345
4.03565e-05
0.000126327
4.03556e-05
0.000233891
0.000233891
0.000233891
0.000233891
0.000233891
0.000233891
0.000233891
0.000216002
0.000141856
0.000233856
0.000233609
0.000215985
0.000141888
0.000233856
2.21363e-05
2.21355e-05
0.000216003
0.000233856
0.000141864
0.000233609
0.000215989
0.000233856
0.000141893
8.70438e-05
8.70288e-05
0.000233279
8.70544e-05
8.70398e-05
0.000126332
4.03595e-05
0.000126312
4.03587e-05
2.21378e-05
2.21368e-05
0.000126345
4.03565e-05
0.000126327
4.03556e-05
0.000233891
0.000233891
0.000233891
0.000233891
0.000233891
0.000233891
0.000233891
0.000216002
0.000141857
0.000233856
0.000233609
0.000215986
0.000141888
0.000233856
2.21363e-05
2.21354e-05
0.000216003
0.000233856
0.000141865
0.000233609
0.000215988
0.000233856
0.000141893
8.70436e-05
8.70288e-05
0.000233279
8.70544e-05
8.70398e-05
0.000126331
4.03595e-05
0.000126312
4.03586e-05
2.21381e-05
2.21371e-05
0.000126345
4.03565e-05
0.000126328
4.03556e-05
0.000233891
0.000233891
0.000233891
0.000233891
0.000233891
0.000233891
0.000233891
0.000216002
0.000141857
0.000233856
0.000233609
0.000215986
0.000141888
0.000233856
2.21363e-05
2.21354e-05
0.000216003
0.000233856
0.000141865
0.000233609
0.000215988
0.000233856
0.000141893
8.70435e-05
8.70286e-05
0.000233279
8.70544e-05
8.70398e-05
0.000126331
4.03594e-05
0.000126312
4.03586e-05
2.21377e-05
2.21369e-05
0.000126345
4.03565e-05
0.000126328
4.03556e-05
0.000233891
0.000233891
0.000233891
0.000233891
0.000233891
0.000233891
0.000233891
0.000216002
0.000141857
0.000233856
0.000233609
0.000215986
0.000141888
0.000233856
2.21363e-05
2.21354e-05
0.000216003
0.000233856
0.000141865
0.000233609
0.000215988
0.000233856
0.000141893
8.70435e-05
8.70288e-05
0.000233279
8.70544e-05
8.70399e-05
0.000126332
4.03594e-05
0.000126312
4.03586e-05
2.21377e-05
2.21369e-05
0.000126345
4.03565e-05
0.000126327
4.03556e-05
0.000233891
0.000233891
0.000233891
0.000233891
0.000233891
0.000233891
0.000233891
0.000216002
0.000141857
0.000233856
0.000233609
0.000215986
0.000141888
0.000233856
2.21363e-05
2.21354e-05
0.000216003
0.000233856
0.000141865
0.000233609
0.000215988
0.000233856
0.000141893
8.70435e-05
8.70286e-05
0.000233279
8.70544e-05
8.70397e-05
0.000126332
4.03594e-05
0.000126312
4.03586e-05
2.21377e-05
2.21369e-05
0.000126345
4.03565e-05
0.000126327
4.03556e-05
0.000233891
0.000233891
0.000233891
0.000233891
0.000233891
0.000233891
0.000233891
0.000216002
0.000141857
0.000233856
0.000233609
0.000215986
0.000141888
0.000233856
2.21363e-05
2.21354e-05
0.000216003
0.000233856
0.000141865
0.000233609
0.000215988
0.000233856
0.000141893
8.70435e-05
8.70287e-05
0.000233279
8.70544e-05
8.70398e-05
0.000126331
4.03596e-05
0.000126312
4.03587e-05
2.21377e-05
2.21369e-05
0.000126345
4.03566e-05
0.000126327
4.03557e-05
0.000233891
0.000233891
0.000233891
0.000233891
0.000233891
0.000233891
0.000233891
0.000216002
0.000141857
0.000233856
0.000233609
0.000215986
0.000141888
0.000233856
2.21363e-05
2.21354e-05
0.000216003
0.000233856
0.000141865
0.000233609
0.000215988
0.000233856
0.000141893
8.70435e-05
8.70286e-05
0.000233279
8.70544e-05
8.704e-05
0.000126331
4.03598e-05
0.000126312
4.03589e-05
2.21377e-05
2.21369e-05
0.000126345
4.03566e-05
0.000126327
4.03558e-05
0.000233891
0.000233891
0.000233891
0.000233891
0.000233891
0.000233891
0.000233891
0.000216002
0.000141857
0.000233856
0.000233609
0.000215986
0.000141888
0.000233856
2.21363e-05
2.21354e-05
0.000216003
0.000233856
0.000141865
0.000233609
0.000215988
0.000233856
0.000141893
8.70435e-05
8.70288e-05
0.000233279
8.70544e-05
8.70403e-05
0.000126331
4.03598e-05
0.000126312
4.03589e-05
2.21377e-05
2.21369e-05
0.000126345
4.03566e-05
0.000126327
4.03558e-05
0.000233891
0.000233891
0.000233891
0.000233892
0.000233893
0.000233891
0.000233891
0.000216002
0.000141857
0.000233856
0.000233609
0.000215986
0.000141888
0.000233856
2.21363e-05
2.21354e-05
0.000216003
0.000233856
0.000141865
0.000233609
0.000215988
0.000233856
0.000141893
8.70434e-05
8.70287e-05
0.000233279
8.70544e-05
8.70404e-05
0.000234795
0.000233577
0.000233578
2.32407e-05
0.000214166
2.32397e-05
0.000214169
0.000234502
5.12475e-05
5.12307e-05
0.000229994
0.000229996
0.00023502
0.00023475
0.000234712
0.000234741
0.00023502
0.00023475
0.000234712
0.000234741
0.000234474
4.02495e-05
0.000218812
0.000146616
0.000234474
4.0249e-05
0.000218813
0.000146616
0.000233976
0.00023455
9.95004e-05
0.000234247
0.00023336
0.00023458
0.000227904
0.000233976
0.00023455
9.94885e-05
0.000234247
0.00023336
0.00023458
0.000227903
0.000234795
0.000233577
0.000233578
2.32404e-05
0.000214175
0.000234502
5.12377e-05
5.12386e-05
0.000229994
0.000229996
2.32403e-05
0.000214177
0.00023502
0.00023475
0.000234712
0.000234741
0.00023502
0.00023475
0.000234741
0.000234712
0.000234474
4.02464e-05
0.000218813
0.000146597
0.000233976
0.00023455
9.94791e-05
0.000234247
0.00023336
0.00023458
0.000227901
0.000234474
4.02459e-05
0.000218814
0.000146612
0.000233976
0.00023455
0.000234247
9.94816e-05
0.00023458
0.000233361
0.000227903
0.00023474
0.000234742
0.00023474
0.00023474
0.00023474
0.000234742
0.00023474
0.00023474
0.00023474
0.000234742
0.00023474
0.00023474
0.000234582
0.000234576
0.000234228
0.000234228
0.000234582
0.000234582
0.000234227
0.000234582
0.000234576
0.000234228
0.000234228
0.000234582
0.000234582
0.000234227
0.000234582
0.000234576
0.000234228
0.000234228
0.000234582
0.000234582
0.000234227
0.000234582
0.000234576
0.000234228
0.000234228
0.000234582
0.000234582
0.000234227
0.00023502
0.00023475
0.000234741
0.000234712
0.000233975
0.00023455
9.94866e-05
0.000234247
0.000233361
0.00023458
0.000227902
0.000234474
4.02471e-05
0.000218816
0.00014661
0.000233976
0.00023455
0.000234247
9.94955e-05
0.00023458
0.000233361
0.000227904
0.000234474
4.02466e-05
0.000218814
0.000146621
0.000234795
0.000233578
0.000233578
2.32397e-05
0.000214171
0.000234502
5.12323e-05
5.12397e-05
0.000229996
0.000229997
2.32401e-05
0.000214179
0.00023502
0.00023475
0.000234741
0.000234712
0.000233975
0.00023455
0.000234247
9.94913e-05
0.00023458
0.000233361
0.000227903
0.000233976
0.00023455
0.000234247
9.94797e-05
0.00023458
0.00023336
0.000227902
0.000234474
4.02462e-05
0.000218816
0.000146618
0.000234474
4.0246e-05
0.000218812
0.000146601
0.000234502
5.12423e-05
5.12293e-05
0.000229997
0.000229997
2.32402e-05
0.000214177
2.32397e-05
0.000214172
2.16396e-05
2.19622e-05
2.16384e-05
2.19606e-05
4.91153e-05
4.91016e-05
0.000232505
5.91442e-05
5.9121e-05
2.21286e-05
2.20325e-05
2.21271e-05
2.20311e-05
0.000232548
8.40611e-05
8.40399e-05
6.69823e-05
6.69589e-05
0.000117966
3.87355e-05
0.000127817
3.95012e-05
0.000212872
9.67729e-05
0.000234002
0.000233059
0.000222354
0.000112181
0.000233881
0.000212868
9.67595e-05
0.000234002
0.000233057
0.000222354
0.000112155
0.000233881
0.000118711
4.03245e-05
3.9878e-05
0.000124536
0.000118698
4.03236e-05
3.98772e-05
0.000124529
0.000212592
0.000233274
0.000137641
0.000233849
0.000119932
0.000233848
0.000214889
0.000212587
0.000233273
0.00013762
0.00023385
0.000119914
0.000233848
0.000214886
4.911e-05
4.91079e-05
0.000232505
5.91239e-05
5.91398e-05
2.16393e-05
2.19621e-05
2.21279e-05
2.20319e-05
0.000232548
8.40438e-05
8.40535e-05
6.69611e-05
6.69746e-05
2.21286e-05
2.20326e-05
0.000212863
9.67511e-05
0.000234002
0.000233058
0.000222351
0.000112153
0.000233881
0.000117964
3.87321e-05
0.000127835
3.94986e-05
0.000212867
0.000234002
9.67547e-05
0.000233057
0.000222355
0.000233881
0.000112156
0.0001187
4.03212e-05
3.98745e-05
0.00012453
0.000212585
0.000233273
0.000137619
0.000233849
0.00011991
0.000233848
0.000214887
0.000118706
4.032e-05
3.98738e-05
0.000124529
0.000212587
0.000233273
0.00023385
0.000137614
0.000233848
0.000119914
0.000214884
0.00011796
3.87335e-05
0.000127826
3.95014e-05
0.00021287
0.000234002
9.67666e-05
0.000233059
0.000222362
0.000233881
0.000112167
0.000117968
3.87334e-05
0.000127843
3.95e-05
0.00021259
0.000233275
0.000137641
0.000233849
0.000119928
0.000233849
0.000214886
0.0001187
4.03236e-05
3.98764e-05
0.000124527
0.000212593
0.000233274
0.000233849
0.000137635
0.000233848
0.000119937
0.000214888
0.000118714
4.03221e-05
3.98756e-05
0.000124527
4.91046e-05
4.91079e-05
0.000232505
5.9123e-05
5.91442e-05
2.16386e-05
2.19612e-05
2.21265e-05
2.20306e-05
0.000232548
8.40384e-05
8.40482e-05
6.69617e-05
6.69786e-05
2.21278e-05
2.20316e-05
0.000212864
0.000234002
9.67518e-05
0.000233058
0.000222355
0.000233881
0.000112154
0.000117961
3.87326e-05
0.00012783
3.95e-05
0.000117951
3.87323e-05
0.00012782
3.9499e-05
0.00021259
0.000233275
0.000233849
0.000137636
0.000233849
0.000119928
0.000214888
0.000212586
0.000233273
0.000233849
0.000137617
0.000233848
0.000119913
0.000214885
0.00011872
4.03215e-05
3.98755e-05
0.000124526
0.000118711
4.03212e-05
3.98746e-05
0.000124521
2.1639e-05
2.19613e-05
2.16382e-05
2.19608e-05
0.00023255
8.40634e-05
8.40456e-05
6.69853e-05
6.69599e-05
2.2128e-05
2.20318e-05
2.21271e-05
2.20312e-05
2.21358e-05
2.21391e-05
2.21342e-05
2.21374e-05
8.57524e-05
8.57286e-05
0.000233271
8.69594e-05
8.69409e-05
2.21379e-05
2.21379e-05
2.21368e-05
2.21364e-05
0.000233271
8.70413e-05
8.70263e-05
8.70003e-05
8.69786e-05
0.000126195
4.03493e-05
0.000125332
4.03597e-05
0.000215918
0.000139718
0.000233853
0.000233597
0.00021536
0.000141696
0.000233854
0.000215917
0.000139706
0.000233853
0.000233596
0.000215357
0.000141682
0.000233852
0.000126228
4.03589e-05
4.03592e-05
0.000126313
0.000126227
4.03585e-05
4.03587e-05
0.000126311
0.000215933
0.000233606
0.000141866
0.000233856
0.000141752
0.000233856
0.000215993
0.000215932
0.000233606
0.000141861
0.000233855
0.000141738
0.000233855
0.000215992
8.57342e-05
8.57471e-05
0.000233271
8.69436e-05
8.6964e-05
2.21358e-05
2.2139e-05
2.2138e-05
2.2137e-05
0.000233271
8.70289e-05
8.70391e-05
8.69832e-05
8.69926e-05
2.2138e-05
2.21378e-05
0.000215915
0.000139696
0.000233853
0.000233597
0.000215356
0.000141676
0.000233854
0.000126184
4.03455e-05
0.000125324
4.03557e-05
0.000215914
0.000233853
0.000139697
0.000233596
0.000215355
0.000233852
0.000141673
0.000126225
4.03565e-05
4.03561e-05
0.000126314
0.00021593
0.000233606
0.000141856
0.000233856
0.000141732
0.000233856
0.000215992
0.000126225
4.03544e-05
4.03545e-05
0.000126312
0.000215927
0.000233605
0.000233855
0.000141845
0.000233855
0.000141723
0.00021599
0.000126191
4.0349e-05
0.000125332
4.03595e-05
0.000215917
0.000233853
0.000139714
0.000233596
0.00021536
0.000233854
0.000141686
0.000126192
4.03476e-05
0.000125329
4.03578e-05
0.000215934
0.000233607
0.000141869
0.000233856
0.000141749
0.000233855
0.000215992
0.000126232
4.03582e-05
4.03583e-05
0.000126312
0.000215933
0.000233606
0.000233856
0.000141865
0.000233856
0.00014174
0.000215992
0.000126226
4.03564e-05
4.03566e-05
0.000126308
8.57247e-05
8.57538e-05
0.000233271
8.69379e-05
8.69605e-05
2.21351e-05
2.2138e-05
2.21362e-05
2.21353e-05
0.000233271
8.70156e-05
8.70409e-05
8.6968e-05
8.69951e-05
2.21374e-05
2.21369e-05
0.000215916
0.000233853
0.000139704
0.000233597
0.000215358
0.000233854
0.000141679
0.000126185
4.03472e-05
0.000125324
4.03577e-05
0.000126191
4.03467e-05
0.000125324
4.0357e-05
0.000215931
0.000233606
0.000233856
0.000141869
0.000233855
0.000141749
0.00021599
0.000215932
0.000233606
0.000233856
0.000141856
0.000233856
0.000141735
0.000215992
0.000126225
4.03565e-05
4.03567e-05
0.000126312
0.000126224
4.03557e-05
4.03558e-05
0.000126311
2.21351e-05
2.21377e-05
2.21343e-05
2.21371e-05
0.00023327
8.7041e-05
8.70253e-05
8.69919e-05
8.69788e-05
2.21372e-05
2.21367e-05
2.21366e-05
2.21361e-05
2.2137e-05
2.21376e-05
2.2136e-05
2.21364e-05
8.70422e-05
8.70303e-05
0.000233279
8.70381e-05
8.70369e-05
2.21379e-05
2.21373e-05
2.21367e-05
2.2136e-05
0.000233276
8.70393e-05
8.70344e-05
8.70379e-05
8.70384e-05
0.000126327
4.03577e-05
0.000126311
4.03582e-05
0.000216001
0.000141857
0.000233857
0.000233609
0.00021599
0.00014188
0.000233857
0.000215999
0.000141858
0.000233856
0.000233608
0.000215988
0.000141881
0.000233856
0.000126328
4.03587e-05
4.03577e-05
0.00012633
0.000126323
4.03584e-05
4.03576e-05
0.000126328
0.000215993
0.000233608
0.000141881
0.000233856
0.000141867
0.000233856
0.000216003
0.000215991
0.000233608
0.000141882
0.000233856
0.000141871
0.000233856
0.000216
8.70319e-05
8.7034e-05
0.000233279
8.70384e-05
8.70358e-05
2.21371e-05
2.21378e-05
2.21378e-05
2.21365e-05
0.000233276
8.70377e-05
8.70401e-05
8.70403e-05
8.70329e-05
2.21379e-05
2.21375e-05
0.000216003
0.000141853
0.000233857
0.000233609
0.000215989
0.000141874
0.000233857
0.000126331
4.03536e-05
0.000126316
4.03541e-05
0.000215999
0.000233856
0.000141837
0.000233608
0.000215987
0.000233856
0.00014186
0.000126344
4.03559e-05
4.0355e-05
0.000126341
0.000215996
0.000233609
0.000141871
0.000233856
0.00014186
0.000233856
0.000216005
0.000126333
4.03542e-05
4.03534e-05
0.000126333
0.000215992
0.000233608
0.000233856
0.000141861
0.000233855
0.000141846
0.000216
0.000126326
4.03574e-05
0.000126312
4.03579e-05
0.000216001
0.000233857
0.000141862
0.000233608
0.000215989
0.000233857
0.000141887
0.000126326
4.03556e-05
0.000126309
4.03561e-05
0.000215995
0.000233608
0.000141886
0.000233856
0.000141872
0.000233856
0.000215999
0.000126321
4.03581e-05
4.03574e-05
0.000126326
0.000215994
0.000233608
0.000233856
0.000141888
0.000233856
0.000141876
0.000216001
0.000126322
4.03563e-05
4.03555e-05
0.000126326
8.70123e-05
8.70437e-05
0.000233279
8.70126e-05
8.70493e-05
2.21367e-05
2.21371e-05
2.2136e-05
2.21347e-05
0.000233276
8.70177e-05
8.70494e-05
8.70152e-05
8.70504e-05
2.21373e-05
2.21367e-05
0.000216003
0.000233857
0.000141854
0.000233609
0.000215989
0.000233857
0.000141877
0.000126333
4.03555e-05
0.000126316
4.03558e-05
0.000126334
4.03549e-05
0.000126315
4.03554e-05
0.000215996
0.000233609
0.000233856
0.00014189
0.000233856
0.000141878
0.000216003
0.000215997
0.000233608
0.000233856
0.000141877
0.000233856
0.000141865
0.000216005
0.000126336
4.0356e-05
4.03554e-05
0.000126337
0.000126337
4.03555e-05
4.03548e-05
0.000126338
2.21364e-05
2.21369e-05
2.21358e-05
2.21361e-05
0.000233277
8.70512e-05
8.70359e-05
8.70567e-05
8.70416e-05
2.21372e-05
2.21365e-05
2.21365e-05
2.21357e-05
2.2137e-05
2.21377e-05
2.2136e-05
2.21364e-05
8.70423e-05
8.70363e-05
0.000233279
8.70447e-05
8.7037e-05
2.21383e-05
2.21376e-05
2.21367e-05
2.2136e-05
0.000233276
8.70511e-05
8.70345e-05
8.70535e-05
8.70388e-05
0.000126327
4.03575e-05
0.000126323
4.0358e-05
0.000216
0.000141866
0.000233856
0.000233608
0.000215995
0.000141883
0.000233856
0.000215999
0.000141871
0.000233856
0.000233608
0.000215992
0.000141883
0.000233856
0.000126328
4.0359e-05
4.0358e-05
0.000126331
0.000126322
4.03584e-05
4.03578e-05
0.000126329
0.000215992
0.000233608
0.000141889
0.000233855
0.000141873
0.000233855
0.000216003
0.000215991
0.000233608
0.000141883
0.000233856
0.000141873
0.000233856
0.000216001
8.70397e-05
8.70327e-05
0.000233279
8.70375e-05
8.70453e-05
2.2137e-05
2.21377e-05
2.21378e-05
2.21364e-05
0.000233276
8.70384e-05
8.7041e-05
8.70391e-05
8.70335e-05
2.21379e-05
2.21373e-05
0.000216005
0.000141859
0.000233856
0.000233608
0.000215998
0.000141876
0.000233856
0.000126335
4.03534e-05
0.000126334
4.03539e-05
0.000216
0.000233856
0.000141846
0.000233608
0.000215993
0.000233856
0.000141863
0.000126347
4.0356e-05
4.03548e-05
0.000126342
0.000215997
0.000233608
0.000141879
0.000233856
0.000141866
0.000233856
0.000216006
0.000126336
4.03542e-05
4.03534e-05
0.000126334
0.000215992
0.000233608
0.000233856
0.000141861
0.000233856
0.000141849
0.000216001
0.000126329
4.03572e-05
0.000126322
4.03578e-05
0.000216002
0.000233856
0.000141877
0.000233608
0.000215993
0.000233856
0.00014189
0.000126329
4.03554e-05
0.000126322
4.0356e-05
0.000215995
0.000233608
0.000141886
0.000233856
0.000141874
0.000233856
0.000216
0.000126325
4.0358e-05
4.03574e-05
0.000126327
0.000215994
0.000233608
0.000233856
0.000141888
0.000233856
0.000141878
0.000216001
0.000126325
4.03562e-05
4.03557e-05
0.000126327
8.70096e-05
8.70514e-05
0.000233279
8.70203e-05
8.70516e-05
2.21367e-05
2.2137e-05
2.2136e-05
2.21346e-05
0.000233276
8.70192e-05
8.70508e-05
8.70171e-05
8.70528e-05
2.21373e-05
2.21365e-05
0.000216004
0.000233856
0.000141866
0.000233608
0.000215997
0.000233856
0.000141879
0.000126336
4.03552e-05
0.000126338
4.03557e-05
0.000126338
4.03547e-05
0.000126338
4.03553e-05
0.000215996
0.000233608
0.000233856
0.000141892
0.000233856
0.000141882
0.000216002
0.000215996
0.000233608
0.000233856
0.000141878
0.000233856
0.000141867
0.000216004
0.000126338
4.0356e-05
4.03554e-05
0.000126336
0.000126339
4.03555e-05
4.0355e-05
0.000126338
2.21365e-05
2.21368e-05
2.21359e-05
2.21362e-05
0.000233277
8.70508e-05
8.70358e-05
8.70562e-05
8.70413e-05
2.21371e-05
2.21364e-05
2.21365e-05
2.21358e-05
2.21376e-05
2.21381e-05
2.2136e-05
2.21364e-05
8.70535e-05
8.70365e-05
0.000233278
8.70549e-05
8.70371e-05
2.21384e-05
2.21377e-05
2.21367e-05
2.2136e-05
0.000233276
8.7052e-05
8.70345e-05
8.70574e-05
8.70386e-05
0.00012633
4.03575e-05
0.000126324
4.0358e-05
0.000216
0.000141877
0.000233856
0.000233608
0.000215995
0.000141892
0.000233856
0.000216
0.000141871
0.000233856
0.000233608
0.000215993
0.000141884
0.000233856
0.000126328
4.03591e-05
4.03579e-05
0.000126331
0.000126326
4.03584e-05
4.03578e-05
0.000126328
0.000215992
0.000233608
0.000141893
0.000233856
0.000141882
0.000233856
0.000216003
0.000215992
0.000233608
0.000141883
0.000233856
0.000141873
0.000233856
0.000216001
8.70404e-05
8.70324e-05
0.000233279
8.70391e-05
8.70454e-05
2.2137e-05
2.21377e-05
2.2138e-05
2.21366e-05
0.000233276
8.7039e-05
8.70411e-05
8.70406e-05
8.70337e-05
2.21379e-05
2.21373e-05
0.000216004
0.000141866
0.000233856
0.000233608
0.000215998
0.000141876
0.000233856
0.000126335
4.03533e-05
0.000126335
4.03539e-05
0.000216
0.000233856
0.000141847
0.000233608
0.000215993
0.000233856
0.000141863
0.000126347
4.03559e-05
4.03548e-05
0.000126342
0.000215996
0.000233608
0.000141874
0.000233856
0.000141866
0.000233856
0.000216006
0.000126336
4.03542e-05
4.03534e-05
0.000126334
0.000215992
0.000233608
0.000233856
0.000141861
0.000233856
0.000141849
0.000216001
0.000126329
4.03572e-05
0.000126322
4.03578e-05
0.000216002
0.000233856
0.000141877
0.000233608
0.000215993
0.000233856
0.00014189
0.000126329
4.03554e-05
0.000126322
4.0356e-05
0.000215995
0.000233609
0.000141886
0.000233856
0.000141874
0.000233856
0.000216
0.000126325
4.0358e-05
4.03574e-05
0.000126328
0.000215994
0.000233608
0.000233856
0.000141888
0.000233856
0.000141878
0.000216001
0.000126325
4.03563e-05
4.03557e-05
0.000126327
8.701e-05
8.70528e-05
0.000233279
8.70203e-05
8.70523e-05
2.21367e-05
2.2137e-05
2.2136e-05
2.21346e-05
0.000233276
8.70192e-05
8.70504e-05
8.7017e-05
8.70534e-05
2.21373e-05
2.21366e-05
0.000216004
0.000233856
0.000141866
0.000233608
0.000215996
0.000233856
0.000141879
0.000126336
4.03551e-05
0.000126337
4.03557e-05
0.000126338
4.03546e-05
0.000126338
4.03552e-05
0.000215996
0.000233608
0.000233856
0.000141892
0.000233856
0.000141882
0.000216002
0.000215996
0.000233608
0.000233856
0.000141878
0.000233856
0.000141867
0.000216004
0.000126338
4.0356e-05
4.03554e-05
0.000126336
0.000126339
4.03555e-05
4.0355e-05
0.000126338
2.21365e-05
2.21368e-05
2.21359e-05
2.21362e-05
0.000233277
8.70506e-05
8.70357e-05
8.70561e-05
8.70412e-05
2.21371e-05
2.21364e-05
2.21365e-05
2.21358e-05
2.21378e-05
2.21381e-05
2.2136e-05
2.21364e-05
8.70534e-05
8.70364e-05
0.000233278
8.70528e-05
8.7037e-05
2.21384e-05
2.21377e-05
2.21367e-05
2.2136e-05
0.000233276
8.70533e-05
8.70345e-05
8.70545e-05
8.70385e-05
0.00012633
4.03575e-05
0.000126324
4.03581e-05
0.000216
0.00014188
0.000233856
0.000233608
0.000215995
0.000141893
0.000233856
0.000216
0.000141871
0.000233856
0.000233608
0.000215993
0.000141883
0.000233856
0.000126328
4.03591e-05
4.03578e-05
0.000126331
0.000126325
4.03584e-05
4.03578e-05
0.000126328
0.000215992
0.000233608
0.000141894
0.000233856
0.000141882
0.000233856
0.000216003
0.000215992
0.000233608
0.000141882
0.000233855
0.000141872
0.000233855
0.000216001
8.70408e-05
8.70325e-05
0.000233279
8.70371e-05
8.70454e-05
2.21371e-05
2.21377e-05
2.21377e-05
2.21367e-05
0.000233276
8.70377e-05
8.70411e-05
8.70387e-05
8.70336e-05
2.21379e-05
2.21373e-05
0.000216004
0.000141862
0.000233856
0.000233608
0.000215998
0.000141874
0.000233856
0.000126334
4.03533e-05
0.000126335
4.03539e-05
0.000216
0.000233856
0.000141847
0.000233608
0.000215993
0.000233856
0.000141863
0.000126347
4.03559e-05
4.03548e-05
0.000126342
0.000215996
0.000233608
0.000141873
0.000233856
0.000141864
0.000233856
0.000216006
0.000126336
4.03542e-05
4.03534e-05
0.000126334
0.000215992
0.000233608
0.000233856
0.000141861
0.000233856
0.000141849
0.000216001
0.000126329
4.03572e-05
0.000126323
4.03578e-05
0.000216002
0.000233856
0.000141877
0.000233608
0.000215993
0.000233856
0.00014189
0.000126329
4.03554e-05
0.000126322
4.0356e-05
0.000215995
0.000233609
0.000141886
0.000233856
0.000141874
0.000233856
0.000216
0.000126325
4.0358e-05
4.03574e-05
0.000126328
0.000215994
0.000233608
0.000233856
0.000141888
0.000233856
0.000141878
0.000216001
0.000126325
4.03563e-05
4.03557e-05
0.000126327
8.70099e-05
8.70524e-05
0.000233279
8.70203e-05
8.70522e-05
2.21367e-05
2.2137e-05
2.2136e-05
2.21346e-05
0.000233276
8.70192e-05
8.70505e-05
8.7017e-05
8.70532e-05
2.21373e-05
2.21366e-05
0.000216004
0.000233856
0.000141867
0.000233608
0.000215996
0.000233856
0.000141879
0.000126336
4.03551e-05
0.000126337
4.03557e-05
0.000126339
4.03546e-05
0.000126338
4.03552e-05
0.000215996
0.000233608
0.000233856
0.000141892
0.000233856
0.000141882
0.000216002
0.000215997
0.000233608
0.000233856
0.000141878
0.000233856
0.000141867
0.000216005
0.000126338
4.0356e-05
4.03554e-05
0.000126336
0.00012634
4.03555e-05
4.0355e-05
0.000126338
2.21366e-05
2.21368e-05
2.21359e-05
2.21362e-05
0.000233277
8.70506e-05
8.70359e-05
8.70562e-05
8.70411e-05
2.21371e-05
2.21364e-05
2.21365e-05
2.21358e-05
2.21378e-05
2.21381e-05
2.2136e-05
2.21364e-05
8.70552e-05
8.70364e-05
0.000233278
8.70547e-05
8.7037e-05
2.21384e-05
2.21377e-05
2.21367e-05
2.2136e-05
0.000233276
8.705e-05
8.70344e-05
8.70566e-05
8.70385e-05
0.00012633
4.03575e-05
0.000126323
4.0358e-05
0.000216
0.000141881
0.000233856
0.000233608
0.000215995
0.000141893
0.000233856
0.000216
0.000141871
0.000233856
0.000233608
0.000215992
0.000141884
0.000233856
0.000126328
4.03592e-05
4.03578e-05
0.000126331
0.000126325
4.03584e-05
4.03578e-05
0.000126328
0.000215992
0.000233608
0.000141893
0.000233856
0.000141882
0.000233856
0.000216003
0.000215992
0.000233608
0.000141883
0.000233855
0.000141873
0.000233855
0.000216001
8.70392e-05
8.70324e-05
0.000233279
8.70392e-05
8.70454e-05
2.21371e-05
2.21377e-05
2.21376e-05
2.21362e-05
0.000233276
8.7039e-05
8.70411e-05
8.70408e-05
8.70337e-05
2.21379e-05
2.21373e-05
0.000216004
0.000141862
0.000233856
0.000233608
0.000215998
0.000141874
0.000233856
0.000126335
4.03533e-05
0.000126335
4.03539e-05
0.000216
0.000233856
0.000141847
0.000233608
0.000215993
0.000233856
0.000141863
0.000126347
4.03559e-05
4.03548e-05
0.000126342
0.000215996
0.000233608
0.000141873
0.000233856
0.000141864
0.000233856
0.000216006
0.000126336
4.03542e-05
4.03534e-05
0.000126334
0.000215992
0.000233608
0.000233856
0.000141861
0.000233856
0.000141849
0.000216001
0.000126329
4.03572e-05
0.000126323
4.03578e-05
0.000216002
0.000233856
0.000141877
0.000233608
0.000215994
0.000233856
0.00014189
0.000126329
4.03554e-05
0.000126322
4.0356e-05
0.000215995
0.000233609
0.000141886
0.000233856
0.000141874
0.000233856
0.000216
0.000126325
4.0358e-05
4.03574e-05
0.000126328
0.000215994
0.000233608
0.000233856
0.000141888
0.000233856
0.000141878
0.000216001
0.000126324
4.03562e-05
4.03557e-05
0.000126327
8.70099e-05
8.70525e-05
0.000233279
8.70203e-05
8.70522e-05
2.21367e-05
2.2137e-05
2.2136e-05
2.21346e-05
0.000233276
8.70191e-05