/*--------------------------------*- C++ -*----------------------------------*\
| =========                 |                                                 |
| \\      /  F ield         | OpenFOAM: The Open Source CFD Toolbox           |
|  \\    /   O peration     | Version:  2206                                  |
|   \\  /    A nd           | Website:  www.openfoam.com                      |
|    \\/     M anipulation  |                                                 |
\*---------------------------------------------------------------------------*/
FoamFile
{
    version     2.0;
    format      ascii;
    arch        "LSB;label=32;scalar=64";
    class       volScalarField;
    location    "37";
    object      nut;
}
// * * * * * * * * * * * * * * * * * * * * * * * * * * * * * * * * * * * * * //

dimensions      [0 2 -1 0 0 0 0];

internalField   nonuniform List<scalar> 
28448
(
0.000210389
0.000176056
0.000176045
0.000146888
0.000210389
0.000176056
0.000176044
0.000146884
0.000210388
0.000176055
0.000176042
0.000146883
0.000210388
0.000176053
0.000176041
0.000146882
0.000210389
0.000176052
0.00017604
0.000146882
0.000210387
0.000176053
0.000176038
0.000146881
0.000210388
0.000176049
0.000176037
0.000146878
0.000210385
0.000176042
0.00017603
0.000146867
0.000210358
0.000176015
0.000176001
0.00014683
0.000210359
0.000176009
0.000176
0.000146838
0.000210362
0.000176011
0.000176
0.000146832
0.000210362
0.000176012
0.000176001
0.000146834
0.000210362
0.000176012
0.000176002
0.000146834
0.000210362
0.000176012
0.000176002
0.000146833
0.000210362
0.000176012
0.000176002
0.000146834
0.000210362
0.000176012
0.000176002
0.000146835
0.000210362
0.000176012
0.000176002
0.000146834
0.000210364
0.000176003
0.000147004
0.000176032
0.000176025
0.000147009
0.000176049
0.000176017
0.000176056
0.00017603
0.00014707
0.000176046
0.000176049
0.000147074
0.000146822
0.000147073
0.000176031
0.000176025
0.000176032
0.000176025
0.000146827
0.000147078
0.000176049
0.000176018
0.000176049
0.000176017
0.000176032
0.000176056
0.000176031
0.000146885
0.000147066
0.00017605
0.000176044
0.000176049
0.00014707
0.00014689
0.000147073
0.000176031
0.000176025
0.000176031
0.000176025
0.000146894
0.000147078
0.000176049
0.000176017
0.000176049
0.000176016
0.00017603
0.000176055
0.00017603
0.000146881
0.000147065
0.000176049
0.000176043
0.000176048
0.000147069
0.000146888
0.000147072
0.000176031
0.000176025
0.00017603
0.000176024
0.000146893
0.000147078
0.000176049
0.000176017
0.000176048
0.000176016
0.000176031
0.000176053
0.00017603
0.00014688
0.000147064
0.000176049
0.000176041
0.000176048
0.000147068
0.000146887
0.000147072
0.00017603
0.000176024
0.00017603
0.000176023
0.000146892
0.000147077
0.000176048
0.000176017
0.000176047
0.000176016
0.00017603
0.000176053
0.000176029
0.000146879
0.000147063
0.000176047
0.000176041
0.000176046
0.000147068
0.000146887
0.000147071
0.00017603
0.000176023
0.000176029
0.000176023
0.000146892
0.000147076
0.000176047
0.000176017
0.000176047
0.000176015
0.00017603
0.000176053
0.00017603
0.000146878
0.000147062
0.000176047
0.000176039
0.000176047
0.000147067
0.000146886
0.000147071
0.000176029
0.000176023
0.00017603
0.000176024
0.000146891
0.000147076
0.000176047
0.000176013
0.000176047
0.000176009
0.000176028
0.00017605
0.000176023
0.000146877
0.00014706
0.000176046
0.000176037
0.000176043
0.000147064
0.000146886
0.000147068
0.00017603
0.000176024
0.000176025
0.000176018
0.00014689
0.000147071
0.000176047
0.000176007
0.000176045
0.000176004
0.000176021
0.000176044
0.000176017
0.000146874
0.000147054
0.00017604
0.000176032
0.000176035
0.000147057
0.000146881
0.000147038
0.000176022
0.000176015
0.000176002
0.000175994
0.000146884
0.000147042
0.000176042
0.000176002
0.000176018
0.000175979
0.000176015
0.000176024
0.000175991
0.000146867
0.000147021
0.000176033
0.000176008
0.000176009
0.000147024
0.000146845
0.000147026
0.000175992
0.000175985
0.000175983
0.000175977
0.000146849
0.000147031
0.000176009
0.000175972
0.000176001
0.000175969
0.000175984
0.000176008
0.000175983
0.000146831
0.00014702
0.000176003
0.000175999
0.000176001
0.000147024
0.000146843
0.000147025
0.000175986
0.000175979
0.000175987
0.00017598
0.000146847
0.00014703
0.000176003
0.000175971
0.000176004
0.000175971
0.000175985
0.000176011
0.000175984
0.000146835
0.000147015
0.000176003
0.000176
0.000176003
0.000147019
0.00014684
0.000147022
0.000175987
0.000175981
0.000175988
0.000175981
0.000146844
0.000147027
0.000176005
0.000175971
0.000176005
0.000175972
0.000175985
0.000176012
0.000175986
0.00014683
0.000147015
0.000176003
0.000176002
0.000176004
0.000147019
0.000146837
0.000147025
0.000175988
0.000175982
0.000175988
0.000175982
0.000146842
0.00014703
0.000176006
0.000175973
0.000176006
0.000175972
0.000175986
0.000176012
0.000175986
0.000146831
0.000147016
0.000176005
0.000176002
0.000176005
0.00014702
0.000146839
0.000147024
0.000175988
0.000175982
0.000175988
0.000175982
0.000146844
0.000147029
0.000176006
0.000175972
0.000176006
0.000175973
0.000175986
0.000176012
0.000175986
0.000146831
0.000147015
0.000176005
0.000176002
0.000176005
0.000147019
0.000146839
0.000147026
0.000175989
0.000175982
0.000175988
0.000175982
0.000146843
0.000147031
0.000176006
0.000175973
0.000176006
0.000175972
0.000175986
0.000176012
0.000175986
0.00014683
0.000147016
0.000176005
0.000176002
0.000176005
0.00014702
0.000146841
0.000147024
0.000175988
0.000175982
0.000175988
0.000175982
0.000146845
0.000147029
0.000176006
0.000175973
0.000176006
0.000175973
0.000175986
0.000176012
0.000175986
0.000146831
0.000147016
0.000176005
0.000176002
0.000176005
0.000147021
0.00014684
0.000147023
0.000175989
0.000175982
0.000175988
0.000175982
0.000146844
0.000147028
0.000176006
0.000175973
0.000176006
0.000175973
0.000175986
0.000176012
0.000175986
0.000146832
0.000147015
0.000176005
0.000176002
0.000176005
0.00014702
0.000146838
0.000147024
0.000175989
0.000175982
0.000175989
0.000146843
0.000176006
0.000175973
0.000176006
0.000175973
0.000175987
0.000175987
0.000146831
0.000147016
0.000176005
0.000176002
0.000176005
0.000147021
0.000146841
0.000176006
0.000175973
0.00014683
0.000210389
0.00021039
0.000210384
0.000210387
3.88242e-05
4.94443e-05
3.88181e-05
4.94434e-05
2.464e-05
2.46398e-05
3.88308e-05
4.94401e-05
3.88251e-05
4.94391e-05
0.00021039
0.000210384
0.000210388
0.000210389
0.00021039
0.000210384
0.000210387
7.91599e-05
4.66317e-05
0.000195914
0.000176057
7.91355e-05
4.66424e-05
0.000195915
2.46371e-05
2.4637e-05
7.91541e-05
0.00019591
4.66355e-05
0.000176045
7.91293e-05
0.000195909
4.66457e-05
3.77993e-05
3.77956e-05
0.000147071
3.78026e-05
3.77989e-05
3.8828e-05
4.94437e-05
3.88219e-05
4.94429e-05
2.46394e-05
2.46394e-05
3.88347e-05
4.94395e-05
3.88289e-05
4.94387e-05
0.000210391
0.000210384
0.000210388
0.000210389
0.000210388
0.000210383
0.000210388
7.91601e-05
4.66356e-05
0.000195914
0.000176056
7.91359e-05
4.6646e-05
0.000195914
2.46366e-05
2.46367e-05
7.91544e-05
0.000195909
4.66388e-05
0.000176044
7.91297e-05
0.000195909
4.66489e-05
3.78042e-05
3.78006e-05
0.000147069
3.78073e-05
3.78037e-05
3.88315e-05
4.94435e-05
3.88256e-05
4.94429e-05
2.46391e-05
2.46392e-05
3.88382e-05
4.94392e-05
3.88327e-05
4.94385e-05
0.000210388
0.000210381
0.000210387
0.000210388
0.000210388
0.00021038
0.000210387
7.91607e-05
4.66383e-05
0.000195912
0.000176055
7.91363e-05
4.66482e-05
0.000195912
2.46365e-05
2.46366e-05
7.91551e-05
0.000195908
4.66415e-05
0.000176042
7.91302e-05
0.000195907
4.66513e-05
3.78079e-05
3.78045e-05
0.000147069
3.78101e-05
3.78066e-05
3.88342e-05
4.94435e-05
3.88287e-05
4.94429e-05
2.46391e-05
2.46392e-05
3.8841e-05
4.94392e-05
3.88358e-05
4.94386e-05
0.000210389
0.00021038
0.000210387
0.000210389
0.000210389
0.000210383
0.000210387
7.91617e-05
4.66401e-05
0.000195911
0.000176054
7.91371e-05
4.665e-05
0.000195912
2.46364e-05
2.46366e-05
7.91561e-05
0.000195907
4.66435e-05
0.000176042
7.91311e-05
0.000195906
4.66531e-05
3.78094e-05
3.7806e-05
0.000147068
3.78112e-05
3.78079e-05
3.88359e-05
4.94436e-05
3.88307e-05
4.9443e-05
2.46392e-05
2.46393e-05
3.88424e-05
4.94393e-05
3.88377e-05
4.94387e-05
0.000210392
0.000210382
0.000210387
0.000210387
0.000210391
0.00021038
0.000210387
7.91632e-05
4.66418e-05
0.000195912
0.000176053
7.91385e-05
4.66516e-05
0.000195912
2.46365e-05
2.46367e-05
7.91576e-05
0.000195905
4.66451e-05
0.00017604
7.91325e-05
0.000195905
4.66545e-05
3.78108e-05
3.78076e-05
0.000147067
3.78129e-05
3.78097e-05
3.88371e-05
4.94437e-05
3.88321e-05
4.94432e-05
2.46393e-05
2.46395e-05
3.88436e-05
4.94395e-05
3.88389e-05
4.94389e-05
0.000210391
0.000210379
0.000210387
0.000210389
0.000210389
0.000210378
0.000210384
7.91644e-05
4.66431e-05
0.000195913
0.000176052
7.91398e-05
4.66526e-05
0.000195912
2.46367e-05
2.46369e-05
7.91588e-05
0.000195906
4.66462e-05
0.000176038
7.91338e-05
0.000195906
4.66554e-05
3.78125e-05
3.78093e-05
0.000147066
3.78142e-05
3.7811e-05
3.88366e-05
4.94439e-05
3.88326e-05
4.94435e-05
2.46396e-05
2.46398e-05
3.88426e-05
4.94397e-05
3.88392e-05
4.94392e-05
0.000210389
0.000210378
0.000210384
0.000210386
0.000210385
0.000210378
0.000210382
7.91627e-05
4.66434e-05
0.000195911
0.000176047
7.91404e-05
4.66517e-05
0.000195909
2.4637e-05
2.46371e-05
7.91565e-05
0.000195906
4.66462e-05
0.000176035
7.91342e-05
0.000195904
4.66542e-05
3.78125e-05
3.78092e-05
0.000147062
3.78134e-05
3.78101e-05
3.88295e-05
4.94446e-05
3.8828e-05
4.94441e-05
2.46396e-05
2.46396e-05
3.88351e-05
4.94404e-05
3.88338e-05
4.94399e-05
0.000210384
0.000210376
0.00021038
0.000210367
0.000210367
0.000210355
0.000210358
7.91425e-05
4.66391e-05
0.000195906
0.00017604
7.91278e-05
4.66455e-05
0.000195903
2.46368e-05
2.46368e-05
7.91358e-05
0.0001959
4.66414e-05
0.000176027
7.91218e-05
0.000195897
4.66476e-05
3.78109e-05
3.78077e-05
0.000147044
3.78116e-05
3.78084e-05
3.88228e-05
4.94446e-05
3.88204e-05
4.94438e-05
2.46392e-05
2.46393e-05
3.88286e-05
4.94404e-05
3.88264e-05
4.94395e-05
0.000210359
0.000210351
0.000210354
0.000210356
0.000210357
0.000210353
0.000210357
7.9118e-05
4.6631e-05
0.000195876
0.00017601
7.90997e-05
4.66373e-05
0.000195873
2.46365e-05
2.46365e-05
7.91142e-05
0.000195871
4.66333e-05
0.000175998
7.9094e-05
0.000195869
4.66398e-05
3.78083e-05
3.78051e-05
0.000147019
3.78085e-05
3.78053e-05
3.88196e-05
4.94442e-05
3.88157e-05
4.94435e-05
2.46391e-05
2.46392e-05
3.88258e-05
4.944e-05
3.88222e-05
4.94392e-05
0.000210361
0.000210356
0.000210359
0.000210362
0.000210363
0.000210356
0.00021036
7.91245e-05
4.66252e-05
0.000195876
0.000176011
7.9099e-05
4.66336e-05
0.000195877
2.46364e-05
2.46365e-05
7.91192e-05
0.000195873
4.66287e-05
0.000176001
7.90945e-05
0.000195873
4.66371e-05
3.78056e-05
3.78024e-05
0.000147023
3.78066e-05
3.78034e-05
3.88188e-05
4.9444e-05
3.88143e-05
4.94434e-05
2.46391e-05
2.46392e-05
3.88252e-05
4.94398e-05
3.8821e-05
4.94391e-05
0.000210363
0.000210356
0.00021036
0.000210362
0.000210363
0.000210356
0.00021036
7.91241e-05
4.66237e-05
0.000195877
0.000176011
7.91005e-05
4.66328e-05
0.000195877
2.46364e-05
2.46365e-05
7.91178e-05
0.000195873
4.66277e-05
0.000176001
7.90946e-05
0.000195874
4.66366e-05
3.78049e-05
3.78016e-05
0.000147017
3.78062e-05
3.7803e-05
3.88187e-05
4.9444e-05
3.88141e-05
4.94434e-05
2.46391e-05
2.46392e-05
3.88251e-05
4.94398e-05
3.88208e-05
4.94391e-05
0.000210363
0.000210357
0.000210361
0.000210362
0.000210363
0.000210356
0.00021036
7.91246e-05
4.66236e-05
0.000195877
0.000176012
7.91001e-05
4.66328e-05
0.000195878
2.46364e-05
2.46365e-05
7.91176e-05
0.000195874
4.66276e-05
0.000176002
7.90936e-05
0.000195874
4.66366e-05
3.78048e-05
3.78016e-05
0.000147021
3.78062e-05
3.78029e-05
3.88187e-05
4.9444e-05
3.88141e-05
4.94434e-05
2.46391e-05
2.46392e-05
3.88251e-05
4.94398e-05
3.88208e-05
4.94391e-05
0.000210363
0.000210357
0.000210361
0.000210362
0.000210363
0.000210357
0.00021036
7.91242e-05
4.66236e-05
0.000195877
0.000176012
7.91002e-05
4.66328e-05
0.000195878
2.46364e-05
2.46365e-05
7.9117e-05
0.000195874
4.66276e-05
0.000176002
7.90929e-05
0.000195874
4.66366e-05
3.78048e-05
3.78015e-05
0.00014702
3.78062e-05
3.78029e-05
3.88187e-05
4.9444e-05
3.8814e-05
4.94434e-05
2.46391e-05
2.46392e-05
3.88251e-05
4.94398e-05
3.88208e-05
4.94391e-05
0.000210363
0.000210357
0.000210361
0.000210362
0.000210363
0.000210356
0.00021036
7.91243e-05
4.66236e-05
0.000195877
0.000176012
7.91002e-05
4.66328e-05
0.000195878
2.46364e-05
2.46365e-05
7.91169e-05
0.000195874
4.66276e-05
0.000176002
7.90929e-05
0.000195874
4.66366e-05
3.78048e-05
3.78015e-05
0.00014702
3.78062e-05
3.78029e-05
3.88187e-05
4.9444e-05
3.8814e-05
4.94434e-05
2.46391e-05
2.46392e-05
3.88251e-05
4.94398e-05
3.88208e-05
4.94391e-05
0.000210363
0.000210357
0.000210361
0.000210362
0.000210363
0.000210356
0.00021036
7.91243e-05
4.66236e-05
0.000195877
0.000176012
7.91002e-05
4.66328e-05
0.000195878
2.46364e-05
2.46365e-05
7.91165e-05
0.000195873
4.66276e-05
0.000176002
7.90926e-05
0.000195874
4.66366e-05
3.78048e-05
3.78015e-05
0.000147019
3.78062e-05
3.78029e-05
3.88187e-05
4.9444e-05
3.88141e-05
4.94434e-05
2.46391e-05
2.46392e-05
3.88251e-05
4.94398e-05
3.88208e-05
4.94391e-05
0.000210363
0.000210357
0.000210361
0.000210362
0.000210363
0.000210356
0.00021036
7.91243e-05
4.66236e-05
0.000195878
0.000176012
7.91003e-05
4.66328e-05
0.000195878
2.46364e-05
2.46365e-05
7.91161e-05
0.000195873
4.66276e-05
0.000176002
7.90923e-05
0.000195874
4.66366e-05
3.78048e-05
3.78015e-05
0.000147019
3.78062e-05
3.78029e-05
3.88187e-05
4.9444e-05
3.88141e-05
4.94434e-05
2.46391e-05
2.46392e-05
3.88251e-05
4.94398e-05
3.88208e-05
4.94391e-05
0.000210363
0.000210357
0.000210361
0.000210362
0.000210365
0.000210356
0.000210361
7.91244e-05
4.66236e-05
0.000195877
0.000176012
7.91001e-05
4.66328e-05
0.000195878
2.46364e-05
2.46365e-05
7.91159e-05
0.000195873
4.66276e-05
0.000176002
7.90919e-05
0.000195874
4.66366e-05
3.78048e-05
3.78015e-05
0.00014702
3.78062e-05
3.78029e-05
4.94398e-05
3.88208e-05
0.000210358
2.46364e-05
4.66278e-05
2.46414e-05
2.46393e-05
3.77991e-05
3.77945e-05
4.94437e-05
3.88224e-05
4.9444e-05
3.88233e-05
4.66461e-05
0.000195914
7.91617e-05
4.66444e-05
0.000195912
7.91621e-05
2.46403e-05
3.77979e-05
3.78075e-05
2.46407e-05
4.94395e-05
3.8829e-05
4.66386e-05
0.000195913
7.9163e-05
3.88231e-05
4.94359e-05
4.94368e-05
3.88285e-05
7.91374e-05
0.000176017
0.000195906
4.66344e-05
0.000195906
4.66241e-05
7.91607e-05
7.91364e-05
4.66404e-05
0.000195915
0.000195915
7.91596e-05
3.88174e-05
4.9442e-05
3.88233e-05
7.9136e-05
0.00017603
0.000195912
4.66438e-05
0.000195912
4.66339e-05
7.91589e-05
3.88173e-05
4.94398e-05
4.94407e-05
3.88231e-05
2.46373e-05
2.46375e-05
0.00014685
3.77888e-05
3.77998e-05
3.77871e-05
3.77988e-05
2.464e-05
2.46402e-05
7.91304e-05
0.000176046
0.00019591
4.6644e-05
0.00019591
4.66342e-05
7.91539e-05
7.91357e-05
0.000176049
0.000195911
4.66415e-05
0.000195911
4.66316e-05
7.91586e-05
3.88173e-05
4.94395e-05
4.94404e-05
3.88231e-05
3.88224e-05
4.94396e-05
4.94405e-05
3.88278e-05
0.000146854
3.78001e-05
3.77964e-05
3.77993e-05
3.77958e-05
2.46398e-05
2.464e-05
2.46387e-05
2.4639e-05
2.46412e-05
2.46409e-05
2.46392e-05
2.46389e-05
3.77984e-05
3.77938e-05
0.000147043
3.78021e-05
3.77975e-05
2.46406e-05
2.46408e-05
2.46386e-05
2.46388e-05
0.000146866
3.78047e-05
3.78e-05
3.7801e-05
3.77963e-05
3.88251e-05
4.94445e-05
3.88191e-05
4.94436e-05
7.91622e-05
4.66379e-05
0.000195914
0.000176031
7.91392e-05
4.66478e-05
0.000195914
7.91626e-05
4.66361e-05
0.000195912
0.000176025
7.91395e-05
4.66462e-05
0.000195912
3.88201e-05
4.94431e-05
4.94439e-05
3.88261e-05
3.88209e-05
4.94433e-05
4.94442e-05
3.88269e-05
7.91396e-05
0.000176032
4.66495e-05
0.000195914
4.66396e-05
0.000195914
7.91625e-05
7.914e-05
0.000176025
4.66479e-05
0.000195912
4.66378e-05
0.000195913
7.91629e-05
3.7797e-05
3.78053e-05
0.000147046
3.78005e-05
3.78063e-05
2.46406e-05
2.46404e-05
2.46395e-05
2.46397e-05
0.000146868
3.78029e-05
3.78053e-05
3.77994e-05
3.7804e-05
2.46401e-05
2.46403e-05
7.91632e-05
4.663e-05
0.000195913
0.000176049
7.91408e-05
4.66403e-05
0.000195912
3.88302e-05
4.94365e-05
3.88248e-05
4.94356e-05
7.91612e-05
0.000195907
4.66258e-05
0.000176018
7.91383e-05
0.000195907
4.66361e-05
3.88271e-05
4.94389e-05
4.94397e-05
3.88328e-05
7.91409e-05
0.000176049
4.66421e-05
0.000195911
4.66317e-05
0.000195912
7.91632e-05
3.88265e-05
4.94353e-05
4.94362e-05
3.88321e-05
7.91387e-05
0.000176018
0.000195907
4.66377e-05
0.000195907
4.66275e-05
7.91615e-05
3.8825e-05
4.94426e-05
3.88191e-05
4.94417e-05
7.91594e-05
0.000195913
4.66355e-05
0.000176032
7.91367e-05
0.000195912
4.66455e-05
3.88249e-05
4.94404e-05
3.8819e-05
4.94395e-05
7.91374e-05
0.000176057
4.66443e-05
0.000195914
4.6634e-05
0.000195915
7.91601e-05
3.88209e-05
4.94415e-05
4.94423e-05
3.88268e-05
7.91371e-05
0.000176031
0.000195912
4.66471e-05
0.000195913
4.66372e-05
7.91595e-05
3.88207e-05
4.94393e-05
4.94401e-05
3.88267e-05
3.7787e-05
3.77987e-05
0.000147068
3.77901e-05
3.78024e-05
2.46398e-05
2.46396e-05
2.46368e-05
2.46369e-05
0.000146882
3.77917e-05
3.78049e-05
3.77884e-05
3.78012e-05
2.46394e-05
2.46395e-05
7.91591e-05
0.000195912
4.66332e-05
0.00017605
7.91364e-05
0.000195912
4.66432e-05
3.88247e-05
4.94401e-05
3.88189e-05
4.94392e-05
3.88295e-05
4.94402e-05
3.8824e-05
4.94393e-05
7.91312e-05
0.000176045
0.000195909
4.66473e-05
0.00019591
4.66374e-05
7.91544e-05
7.91368e-05
0.000176049
0.000195911
4.66449e-05
0.000195912
4.66349e-05
7.91593e-05
3.88205e-05
4.9439e-05
4.94398e-05
3.88264e-05
3.88258e-05
4.94391e-05
4.94399e-05
3.88313e-05
2.46396e-05
2.46394e-05
2.46386e-05
2.46384e-05
0.000146886
3.78051e-05
3.78014e-05
3.78014e-05
3.77977e-05
2.46392e-05
2.46393e-05
2.46381e-05
2.46383e-05
2.46405e-05
2.46404e-05
2.46385e-05
2.46384e-05
3.78036e-05
3.77989e-05
0.000147073
3.78072e-05
3.78025e-05
2.46403e-05
2.46403e-05
2.46383e-05
2.46383e-05
0.000146887
3.78092e-05
3.78045e-05
3.7806e-05
3.78012e-05
3.88288e-05
4.94439e-05
3.88228e-05
4.94431e-05
7.91628e-05
4.66414e-05
0.000195913
0.000176031
7.91399e-05
4.66512e-05
0.000195913
7.91633e-05
4.66396e-05
0.000195912
0.000176025
7.91402e-05
4.66496e-05
0.000195912
3.88239e-05
4.94429e-05
4.94435e-05
3.88298e-05
3.88247e-05
4.9443e-05
4.94437e-05
3.88306e-05
7.91402e-05
0.000176031
4.66527e-05
0.000195913
4.6643e-05
0.000195913
7.91632e-05
7.91406e-05
0.000176025
4.6651e-05
0.000195911
4.66412e-05
0.000195912
7.91637e-05
3.78017e-05
3.78031e-05
0.000147079
3.78051e-05
3.78046e-05
2.46401e-05
2.464e-05
2.46393e-05
2.46393e-05
0.000146892
3.78069e-05
3.78038e-05
3.78038e-05
3.78024e-05
2.46399e-05
2.46399e-05
7.91634e-05
4.66335e-05
0.000195911
0.000176049
7.91409e-05
4.66437e-05
0.000195911
3.88338e-05
4.9436e-05
3.88284e-05
4.94352e-05
7.9162e-05
0.000195905
4.66291e-05
0.000176017
7.9139e-05
0.000195904
4.66393e-05
3.8831e-05
4.94386e-05
4.94393e-05
3.88365e-05
7.91412e-05
0.000176049
4.66452e-05
0.000195911
4.66351e-05
0.000195911
7.91638e-05
3.88301e-05
4.94352e-05
4.94359e-05
3.88356e-05
7.91396e-05
0.000176016
0.000195904
4.66406e-05
0.000195904
4.66306e-05
7.91626e-05
3.88285e-05
4.94422e-05
3.88227e-05
4.94414e-05
7.91598e-05
0.00019591
4.66388e-05
0.00017603
7.91372e-05
0.00019591
4.66487e-05
3.88284e-05
4.94399e-05
3.88225e-05
4.94391e-05
7.91377e-05
0.000176056
4.66472e-05
0.000195912
4.66374e-05
0.000195913
7.91604e-05
3.88244e-05
4.94414e-05
4.94421e-05
3.88302e-05
7.91375e-05
0.00017603
0.000195909
4.665e-05
0.000195909
4.66403e-05
7.91602e-05
3.88242e-05
4.94391e-05
4.94397e-05
3.88301e-05
3.77901e-05
3.78037e-05
0.000147064
3.77933e-05
3.78072e-05
2.46393e-05
2.46392e-05
2.46366e-05
2.46366e-05
0.000146879
3.77946e-05
3.7809e-05
3.77916e-05
3.78059e-05
2.46392e-05
2.46391e-05
7.91597e-05
0.000195909
4.66365e-05
0.000176049
7.91369e-05
0.000195909
4.66465e-05
3.88281e-05
4.94396e-05
3.88222e-05
4.94388e-05
3.8833e-05
4.94397e-05
3.88275e-05
4.9439e-05
7.91315e-05
0.000176044
0.000195908
4.66502e-05
0.000195909
4.66405e-05
7.91548e-05
7.91375e-05
0.000176048
0.000195908
4.66479e-05
0.000195908
4.66381e-05
7.91602e-05
3.88239e-05
4.94388e-05
4.94395e-05
3.88297e-05
3.88292e-05
4.9439e-05
4.94396e-05
3.88347e-05
2.46391e-05
2.4639e-05
2.4638e-05
2.4638e-05
0.000146884
3.7809e-05
3.78055e-05
3.7806e-05
3.78025e-05
2.4639e-05
2.4639e-05
2.46379e-05
2.46379e-05
2.46403e-05
2.46403e-05
2.46382e-05
2.46383e-05
3.78079e-05
3.78031e-05
0.000147073
3.78107e-05
3.78059e-05
2.46403e-05
2.46402e-05
2.46383e-05
2.46382e-05
0.000146888
3.78115e-05
3.78068e-05
3.78092e-05
3.78044e-05
3.88323e-05
4.94437e-05
3.88265e-05
4.9443e-05
7.91637e-05
4.66445e-05
0.000195912
0.000176031
7.91407e-05
4.6654e-05
0.000195912
7.91641e-05
4.66426e-05
0.00019591
0.000176025
7.9141e-05
4.66523e-05
0.00019591
3.88274e-05
4.94429e-05
4.94435e-05
3.8833e-05
3.88281e-05
4.9443e-05
4.94437e-05
3.88338e-05
7.91411e-05
0.00017603
4.6655e-05
0.000195911
4.66457e-05
0.000195912
7.91639e-05
7.91414e-05
0.000176024
4.66533e-05
0.00019591
4.66438e-05
0.00019591
7.91643e-05
3.78055e-05
3.78016e-05
0.000147078
3.78081e-05
3.78031e-05
2.46398e-05
2.46398e-05
2.46392e-05
2.46391e-05
0.000146892
3.7809e-05
3.7803e-05
3.78067e-05
3.7801e-05
2.46397e-05
2.46397e-05
7.91644e-05
4.66365e-05
0.000195911
0.000176049
7.91417e-05
4.66465e-05
0.000195911
3.88372e-05
4.94359e-05
3.88319e-05
4.94352e-05
7.91633e-05
0.000195903
4.66319e-05
0.000176017
7.91402e-05
0.000195903
4.66417e-05
3.88345e-05
4.94385e-05
4.94392e-05
3.88398e-05
7.91422e-05
0.000176048
4.66475e-05
0.00019591
4.66377e-05
0.000195911
7.91648e-05
3.88335e-05
4.94353e-05
4.94359e-05
3.88387e-05
7.91409e-05
0.000176016
0.000195904
4.66427e-05
0.000195904
4.6633e-05
7.91639e-05
3.88317e-05
4.94421e-05
3.8826e-05
4.94414e-05
7.91607e-05
0.000195909
4.66416e-05
0.00017603
7.91379e-05
0.000195909
4.66512e-05
3.88316e-05
4.94397e-05
3.88259e-05
4.94391e-05
7.91383e-05
0.000176054
4.66491e-05
0.000195911
4.66395e-05
0.000195911
7.91612e-05
3.88275e-05
4.94414e-05
4.94421e-05
3.8833e-05
7.91384e-05
0.00017603
0.00019591
4.66521e-05
0.00019591
4.66427e-05
7.91611e-05
3.88274e-05
4.94391e-05
4.94397e-05
3.8833e-05
3.77928e-05
3.78075e-05
0.000147064
3.77955e-05
3.78101e-05
2.46391e-05
2.46391e-05
2.46365e-05
2.46365e-05
0.000146879
3.77963e-05
3.78107e-05
3.77936e-05
3.78085e-05
2.46391e-05
2.46391e-05
7.91608e-05
0.000195908
4.66394e-05
0.000176049
7.91379e-05
0.000195908
4.6649e-05
3.88312e-05
4.94394e-05
3.88255e-05
4.94388e-05
3.88362e-05
4.94396e-05
3.88309e-05
4.9439e-05
7.91322e-05
0.000176042
0.000195907
4.66522e-05
0.000195907
4.66429e-05
7.91556e-05
7.91386e-05
0.000176048
0.000195908
4.665e-05
0.000195909
4.66405e-05
7.91614e-05
3.88269e-05
4.94388e-05
4.94394e-05
3.88325e-05
3.88325e-05
4.9439e-05
4.94397e-05
3.88376e-05
2.46389e-05
2.4639e-05
2.46379e-05
2.46379e-05
0.000146884
3.78107e-05
3.78073e-05
3.78085e-05
3.78051e-05
2.46389e-05
2.46389e-05
2.46379e-05
2.46379e-05
2.46402e-05
2.46403e-05
2.46382e-05
2.46383e-05
3.78099e-05
3.78052e-05
0.000147072
3.78122e-05
3.78074e-05
2.46403e-05
2.46402e-05
2.46383e-05
2.46382e-05
0.000146887
3.7813e-05
3.78082e-05
3.78106e-05
3.78058e-05
3.8835e-05
4.94437e-05
3.88296e-05
4.9443e-05
7.91641e-05
4.66467e-05
0.000195911
0.00017603
7.91413e-05
4.66559e-05
0.000195911
7.91645e-05
4.66447e-05
0.000195909
0.000176024
7.91416e-05
4.66542e-05
0.000195909
3.883e-05
4.94429e-05
4.94436e-05
3.88352e-05
3.88307e-05
4.94431e-05
4.94437e-05
3.8836e-05
7.91415e-05
0.00017603
4.66567e-05
0.000195911
4.66475e-05
0.000195911
7.91646e-05
7.91419e-05
0.000176024
4.66549e-05
0.00019591
4.66456e-05
0.00019591
7.9165e-05
3.78074e-05
3.78011e-05
0.000147077
3.78097e-05
3.78036e-05
2.46397e-05
2.46397e-05
2.46393e-05
2.46392e-05
0.000146891
3.78105e-05
3.78046e-05
3.78081e-05
3.78018e-05
2.46398e-05
2.46397e-05
7.91652e-05
4.66387e-05
0.00019591
0.000176048
7.91426e-05
4.66484e-05
0.00019591
3.88398e-05
4.94359e-05
3.88348e-05
4.94353e-05
7.91646e-05
0.000195904
4.6634e-05
0.000176017
7.91415e-05
0.000195904
4.66437e-05
3.8837e-05
4.94386e-05
4.94393e-05
3.88418e-05
7.9143e-05
0.000176047
4.66492e-05
0.00019591
4.66396e-05
0.00019591
7.91655e-05
3.88359e-05
4.94353e-05
4.9436e-05
3.88406e-05
7.91422e-05
0.000176016
0.000195904
4.66445e-05
0.000195904
4.66349e-05
7.91652e-05
3.88341e-05
4.94421e-05
3.88288e-05
4.94414e-05
7.91617e-05
0.00019591
4.66436e-05
0.00017603
7.91388e-05
0.00019591
4.6653e-05
3.88341e-05
4.94397e-05
3.88288e-05
4.94391e-05
7.91394e-05
0.000176053
4.66508e-05
0.000195912
4.66413e-05
0.000195912
7.91625e-05
3.88298e-05
4.94414e-05
4.94421e-05
3.8835e-05
7.91396e-05
0.00017603
0.00019591
4.66537e-05
0.00019591
4.66445e-05
7.91625e-05
3.88298e-05
4.94392e-05
4.94398e-05
3.88351e-05
3.77944e-05
3.78091e-05
0.000147063
3.77971e-05
3.78114e-05
2.46391e-05
2.46392e-05
2.46366e-05
2.46365e-05
0.000146878
3.7798e-05
3.78122e-05
3.77953e-05
3.78098e-05
2.46392e-05
2.46391e-05
7.91621e-05
0.000195908
4.66414e-05
0.000176047
7.91391e-05
0.000195908
4.66508e-05
3.88336e-05
4.94394e-05
3.88282e-05
4.94388e-05
3.88387e-05
4.94397e-05
3.88338e-05
4.9439e-05
7.91333e-05
0.000176042
0.000195905
4.66538e-05
0.000195905
4.66446e-05
7.91569e-05
7.91399e-05
0.000176047
0.000195907
4.66516e-05
0.000195908
4.66423e-05
7.91627e-05
3.88292e-05
4.94389e-05
4.94395e-05
3.88346e-05
3.88348e-05
4.94391e-05
4.94397e-05
3.88395e-05
2.46389e-05
2.4639e-05
2.46379e-05
2.46379e-05
0.000146883
3.7812e-05
3.78088e-05
3.78096e-05
3.78064e-05
2.4639e-05
2.46389e-05
2.4638e-05
2.46379e-05
2.46403e-05
2.46404e-05
2.46383e-05
2.46384e-05
3.78114e-05
3.78066e-05
0.000147071
3.78139e-05
3.78091e-05
2.46405e-05
2.46404e-05
2.46385e-05
2.46383e-05
0.000146886
3.78148e-05
3.78099e-05
3.78124e-05
3.78075e-05
3.88367e-05
4.94437e-05
3.88316e-05
4.94432e-05
7.91654e-05
4.66483e-05
0.000195911
0.00017603
7.91421e-05
4.66574e-05
0.000195911
7.91657e-05
4.66464e-05
0.00019591
0.000176023
7.91424e-05
4.66557e-05
0.00019591
3.88316e-05
4.9443e-05
4.94436e-05
3.88366e-05
3.88323e-05
4.94432e-05
4.94438e-05
3.88373e-05
7.91429e-05
0.000176029
4.6658e-05
0.000195912
4.6649e-05
0.000195912
7.91662e-05
7.91431e-05
0.000176023
4.66563e-05
0.000195911
4.66471e-05
0.000195911
7.91663e-05
3.7809e-05
3.78028e-05
0.000147076
3.78114e-05
3.78055e-05
2.46397e-05
2.46399e-05
2.46394e-05
2.46393e-05
0.000146891
3.78122e-05
3.78064e-05
3.78099e-05
3.78037e-05
2.464e-05
2.46398e-05
7.9166e-05
4.66404e-05
0.00019591
0.000176047
7.91434e-05
4.66499e-05
0.000195909
3.88413e-05
4.9436e-05
3.88367e-05
4.94354e-05
7.91659e-05
0.000195904
4.66357e-05
0.000176017
7.91428e-05
0.000195903
4.66452e-05
3.88385e-05
4.94388e-05
4.94394e-05
3.8843e-05
7.91439e-05
0.000176047
4.66506e-05
0.00019591
4.66411e-05
0.00019591
7.91666e-05
3.88373e-05
4.94355e-05
4.94361e-05
3.88419e-05
7.91434e-05
0.000176017
0.000195903
4.66458e-05
0.000195903
4.66364e-05
7.91663e-05
3.88356e-05
4.94421e-05
3.88306e-05
4.94415e-05
7.91634e-05
0.00019591
4.66452e-05
0.00017603
7.91404e-05
0.00019591
4.66545e-05
3.88358e-05
4.94398e-05
3.88307e-05
4.94393e-05
7.91409e-05
0.000176053
4.66522e-05
0.000195912
4.66428e-05
0.000195912
7.91638e-05
3.88312e-05
4.94416e-05
4.94422e-05
3.88361e-05
7.91413e-05
0.00017603
0.000195911
4.6655e-05
0.000195911
4.66459e-05
7.9164e-05
3.88314e-05
4.94394e-05
4.94399e-05
3.88363e-05
3.77962e-05
3.78107e-05
0.000147062
3.77989e-05
3.78132e-05
2.46392e-05
2.46393e-05
2.46368e-05
2.46367e-05
0.000146878
3.77996e-05
3.7814e-05
3.7797e-05
3.78117e-05
2.46394e-05
2.46393e-05
7.91636e-05
0.000195907
4.66431e-05
0.000176047
7.91405e-05
0.000195906
4.66524e-05
3.88354e-05
4.94396e-05
3.88302e-05
4.9439e-05
3.88403e-05
4.94397e-05
3.88356e-05
4.94391e-05
7.91349e-05
0.000176039
0.000195906
4.66551e-05
0.000195905
4.6646e-05
7.91583e-05
7.91414e-05
0.000176047
0.000195908
4.66529e-05
0.000195907
4.66438e-05
7.91642e-05
3.8831e-05
4.94391e-05
4.94396e-05
3.88359e-05
3.88365e-05
4.94392e-05
4.94398e-05
3.8841e-05
2.4639e-05
2.46391e-05
2.4638e-05
2.46381e-05
0.000146883
3.78137e-05
3.78105e-05
3.78114e-05
3.78082e-05
2.46392e-05
2.46391e-05
2.46382e-05
2.4638e-05
2.46405e-05
2.46406e-05
2.46384e-05
2.46386e-05
3.78133e-05
3.78083e-05
0.000147071
3.78155e-05
3.78105e-05
2.46407e-05
2.46406e-05
2.46387e-05
2.46385e-05
0.000146886
3.78156e-05
3.78105e-05
3.78138e-05
3.78088e-05
3.88378e-05
4.94439e-05
3.88328e-05
4.94434e-05
7.9167e-05
4.66496e-05
0.000195913
0.000176029
7.91437e-05
4.66585e-05
0.000195913
7.9167e-05
4.66477e-05
0.000195911
0.000176023
7.91437e-05
4.66568e-05
0.000195912
3.88327e-05
4.94433e-05
4.94438e-05
3.88373e-05
3.88334e-05
4.94435e-05
4.9444e-05
3.8838e-05
7.91445e-05
0.00017603
4.66587e-05
0.000195913
4.665e-05
0.000195913
7.91674e-05
7.91445e-05
0.000176024
4.6657e-05
0.000195912
4.66481e-05
0.000195912
7.91675e-05
3.78106e-05
3.78045e-05
0.000147076
3.78128e-05
3.78069e-05
2.46399e-05
2.46401e-05
2.46396e-05
2.46395e-05
0.00014689
3.78129e-05
3.78068e-05
3.78112e-05
3.78049e-05
2.46402e-05
2.46401e-05
7.91674e-05
4.66417e-05
0.00019591
0.000176047
7.91445e-05
4.6651e-05
0.00019591
3.88424e-05
4.94362e-05
3.88379e-05
4.94356e-05
7.91672e-05
0.000195903
4.66369e-05
0.000176011
7.91439e-05
0.000195903
4.66462e-05
3.88395e-05
4.9439e-05
4.94396e-05
3.88436e-05
7.91452e-05
0.000176047
4.66512e-05
0.000195912
4.66421e-05
0.000195912
7.91673e-05
3.88384e-05
4.94358e-05
4.94363e-05
3.88424e-05
7.91447e-05
0.00017601
0.000195903
4.66461e-05
0.000195903
4.66373e-05
7.91671e-05
3.88366e-05
4.94423e-05
3.88317e-05
4.94417e-05
7.91647e-05
0.000195911
4.66464e-05
0.000176026
7.91418e-05
0.000195911
4.66554e-05
3.88368e-05
4.944e-05
3.88319e-05
4.94395e-05
7.9142e-05
0.000176052
4.66527e-05
0.000195911
4.66437e-05
0.000195911
7.91647e-05
3.88321e-05
4.94417e-05
4.94424e-05
3.88365e-05
7.91424e-05
0.000176024
0.000195908
4.66553e-05
0.00019591
4.66468e-05
7.91644e-05
3.88322e-05
4.94396e-05
4.94401e-05
3.88366e-05
3.77977e-05
3.78124e-05
0.00014706
3.78001e-05
3.78144e-05
2.46394e-05
2.46395e-05
2.46371e-05
2.46369e-05
0.000146875
3.77999e-05
3.78142e-05
3.7798e-05
3.78127e-05
2.46396e-05
2.46395e-05
7.9165e-05
0.00019591
4.66443e-05
0.000176046
7.9142e-05
0.000195909
4.66533e-05
3.88365e-05