/*--------------------------------*- C++ -*----------------------------------*\
| =========                 |                                                 |
| \\      /  F ield         | OpenFOAM: The Open Source CFD Toolbox           |
|  \\    /   O peration     | Version:  2206                                  |
|   \\  /    A nd           | Website:  www.openfoam.com                      |
|    \\/     M anipulation  |                                                 |
\*---------------------------------------------------------------------------*/
FoamFile
{
    version     2.0;
    format      ascii;
    arch        "LSB;label=32;scalar=64";
    class       volScalarField;
    location    "8.5";
    object      nut;
}
// * * * * * * * * * * * * * * * * * * * * * * * * * * * * * * * * * * * * * //

dimensions      [0 2 -1 0 0 0 0];

internalField   nonuniform List<scalar> 
28448
(
0.000232438
0.000229398
0.000229395
0.000224734
0.000232432
0.00022939
0.000229376
0.000224711
0.00023242
0.000229359
0.000229362
0.000224666
0.000232429
0.000229366
0.000229365
0.000224668
0.000232429
0.000229367
0.000229366
0.000224669
0.000232429
0.000229367
0.000229366
0.000224669
0.000232429
0.000229367
0.000229366
0.000224669
0.000232429
0.000229367
0.000229366
0.000224669
0.000232429
0.000229367
0.000229366
0.000224669
0.000232429
0.000229367
0.000229366
0.000224669
0.000232429
0.000229367
0.000229366
0.000224669
0.000232429
0.000229367
0.000229366
0.000224669
0.000232429
0.000229367
0.000229366
0.000224669
0.000232429
0.000229367
0.000229366
0.000224669
0.000232429
0.000229367
0.000229366
0.000224669
0.000232429
0.000229367
0.000229365
0.000224669
0.000232429
0.000229367
0.000229366
0.000224669
0.000232431
0.000229368
0.000224787
0.000229395
0.000229395
0.000224788
0.000229396
0.000229392
0.000229399
0.000229394
0.000224778
0.000229396
0.000229396
0.000224779
0.000224743
0.000224774
0.000229395
0.000229395
0.000229393
0.000229392
0.000224744
0.000224774
0.000229396
0.000229392
0.000229394
0.000229387
0.000229394
0.000229395
0.000229389
0.000224734
0.000224766
0.000229396
0.00022939
0.00022939
0.000224768
0.000224728
0.000224697
0.000229389
0.000229388
0.000229353
0.000229352
0.000224729
0.000224699
0.00022939
0.000229373
0.000229354
0.000229354
0.000229375
0.000229355
0.000229356
0.000224713
0.000224705
0.000229376
0.000229358
0.000229357
0.000224707
0.000224658
0.000224719
0.000229357
0.000229357
0.000229364
0.000229363
0.000224659
0.00022472
0.000229359
0.000229359
0.000229365
0.000229362
0.000229361
0.000229366
0.000229364
0.000224672
0.000224714
0.000229363
0.000229366
0.000229365
0.000224714
0.000224679
0.000224716
0.000229364
0.000229364
0.000229364
0.000229364
0.00022468
0.000224717
0.000229366
0.000229362
0.000229365
0.000229362
0.000229364
0.000229367
0.000229364
0.000224675
0.000224714
0.000229365
0.000229366
0.000229365
0.000224714
0.000224678
0.000224715
0.000229365
0.000229364
0.000229364
0.000229364
0.000224679
0.000224717
0.000229366
0.000229362
0.000229365
0.000229362
0.000229364
0.000229367
0.000229364
0.000224676
0.000224713
0.000229366
0.000229366
0.000229365
0.000224714
0.000224678
0.000224715
0.000229364
0.000229364
0.000229364
0.000229364
0.000224679
0.000224716
0.000229366
0.000229362
0.000229365
0.000229362
0.000229364
0.000229367
0.000229364
0.000224676
0.000224713
0.000229365
0.000229366
0.000229365
0.000224714
0.000224678
0.000224715
0.000229364
0.000229364
0.000229364
0.000229364
0.000224679
0.000224716
0.000229366
0.000229362
0.000229365
0.000229362
0.000229364
0.000229367
0.000229364
0.000224676
0.000224714
0.000229365
0.000229366
0.000229365
0.000224714
0.000224678
0.000224715
0.000229364
0.000229364
0.000229364
0.000229364
0.000224679
0.000224716
0.000229366
0.000229362
0.000229365
0.000229362
0.000229364
0.000229367
0.000229364
0.000224676
0.000224713
0.000229365
0.000229366
0.000229365
0.000224714
0.000224678
0.000224715
0.000229364
0.000229364
0.000229364
0.000229364
0.000224679
0.000224716
0.000229366
0.000229362
0.000229365
0.000229362
0.000229364
0.000229367
0.000229364
0.000224676
0.000224713
0.000229365
0.000229366
0.000229365
0.000224714
0.000224678
0.000224715
0.000229364
0.000229364
0.000229364
0.000229364
0.000224679
0.000224716
0.000229366
0.000229362
0.000229365
0.000229362
0.000229364
0.000229367
0.000229364
0.000224676
0.000224713
0.000229365
0.000229366
0.000229365
0.000224714
0.000224678
0.000224715
0.000229364
0.000229364
0.000229364
0.000229364
0.000224679
0.000224716
0.000229366
0.000229362
0.000229365
0.000229362
0.000229364
0.000229367
0.000229364
0.000224676
0.000224713
0.000229365
0.000229366
0.000229365
0.000224714
0.000224677
0.000224715
0.000229364
0.000229364
0.000229364
0.000229363
0.000224679
0.000224716
0.000229366
0.000229362
0.000229365
0.000229362
0.000229364
0.000229367
0.000229364
0.000224676
0.000224713
0.000229366
0.000229366
0.000229365
0.000224714
0.000224678
0.000224715
0.000229364
0.000229364
0.000229364
0.000229364
0.000224678
0.000224716
0.000229366
0.000229362
0.000229365
0.000229362
0.000229364
0.000229367
0.000229364
0.000224676
0.000224713
0.000229365
0.000229366
0.000229365
0.000224714
0.000224678
0.000224715
0.000229364
0.000229364
0.000229364
0.000229364
0.000224679
0.000224716
0.000229366
0.000229362
0.000229365
0.000229362
0.000229364
0.000229367
0.000229364
0.000224676
0.000224713
0.000229365
0.000229366
0.000229365
0.000224714
0.000224678
0.000224715
0.000229364
0.000229364
0.000229364
0.000229364
0.000224679
0.000224716
0.000229366
0.000229362
0.000229365
0.000229362
0.000229364
0.000229367
0.000229364
0.000224676
0.000224713
0.000229365
0.000229366
0.000229365
0.000224714
0.000224678
0.000224715
0.000229364
0.000229364
0.000229364
0.000229364
0.000224679
0.000224716
0.000229366
0.000229362
0.000229365
0.000229362
0.000229364
0.000229367
0.000229364
0.000224676
0.000224713
0.000229365
0.000229366
0.000229365
0.000224714
0.000224678
0.000224716
0.000229364
0.000229364
0.000229365
0.000224679
0.000229366
0.000229362
0.000229365
0.000229362
0.000229364
0.000229365
0.000224676
0.000224713
0.000229365
0.000229365
0.000229366
0.000224719
0.000224689
0.000229366
0.000229363
0.000224673
0.000232438
0.000232438
0.000232437
0.000232437
8.1948e-05
4.45011e-05
8.19299e-05
4.44999e-05
2.52867e-05
2.52854e-05
8.19607e-05
4.44973e-05
8.1945e-05
4.44961e-05
0.000232438
0.000232437
0.000232437
0.000232436
0.000232436
0.000232433
0.000232432
0.000176859
9.65201e-05
0.000231785
0.000229397
0.000176832
9.65496e-05
0.000231785
2.52841e-05
2.52831e-05
0.000176853
0.000231784
9.65205e-05
0.000229395
0.000176825
0.000231784
9.65484e-05
5.20266e-05
5.20164e-05
0.00022478
5.2038e-05
5.20276e-05
8.19094e-05
4.45006e-05
8.19318e-05
4.45046e-05
2.5285e-05
2.52886e-05
8.19092e-05
4.44969e-05
8.19428e-05
4.45009e-05
0.000232432
0.000232421
0.00023242
0.000232414
0.000232414
0.00023242
0.00023242
0.000176735
9.65187e-05
0.000231772
0.000229373
0.000176809
9.64991e-05
0.000231757
2.52848e-05
2.52923e-05
0.000176726
0.000231766
9.64987e-05
0.000229357
0.0001768
0.000231753
9.64529e-05
5.20201e-05
5.20098e-05
0.000224709
5.19684e-05
5.19578e-05
8.18042e-05
4.45185e-05
8.17947e-05
4.45176e-05
2.52962e-05
2.52958e-05
8.18146e-05
4.45148e-05
8.18046e-05
4.45138e-05
0.000232421
0.000232426
0.000232425
0.000232429
0.000232429
0.000232429
0.000232428
0.000176674
9.63814e-05
0.000231766
0.000229364
0.000176648
9.63979e-05
0.000231769
2.52943e-05
2.52938e-05
0.000176669
0.000231767
9.63799e-05
0.000229365
0.000176641
0.000231769
9.6402e-05
5.1932e-05
5.19216e-05
0.000224719
5.19376e-05
5.19272e-05
8.18044e-05
4.45182e-05
8.17901e-05
4.45175e-05
2.52962e-05
2.52958e-05
8.18147e-05
4.45145e-05
8.1802e-05
4.45137e-05
0.000232429
0.000232429
0.000232428
0.000232429
0.000232429
0.000232429
0.000232428
0.000176675
9.63724e-05
0.00023177
0.000229367
0.000176651
9.63975e-05
0.00023177
2.52942e-05
2.52938e-05
0.00017667
0.00023177
9.63786e-05
0.000229365
0.000176644
0.00023177
9.64021e-05
5.19325e-05
5.19222e-05
0.000224716
5.19379e-05
5.19275e-05
8.18044e-05
4.45182e-05
8.17902e-05
4.45175e-05
2.52962e-05
2.52958e-05
8.18148e-05
4.45145e-05
8.18021e-05
4.45137e-05
0.000232429
0.000232429
0.000232429
0.000232429
0.000232429
0.000232429
0.000232428
0.000176675
9.63725e-05
0.00023177
0.000229367
0.000176651
9.63975e-05
0.000231771
2.52942e-05
2.52938e-05
0.000176671
0.00023177
9.63786e-05
0.000229366
0.000176644
0.00023177
9.64021e-05
5.19325e-05
5.19223e-05
0.000224716
5.19379e-05
5.19275e-05
8.18044e-05
4.45182e-05
8.17902e-05
4.45175e-05
2.52962e-05
2.52958e-05
8.18148e-05
4.45145e-05
8.18022e-05
4.45137e-05
0.000232429
0.000232429
0.000232429
0.000232429
0.000232429
0.000232429
0.000232428
0.000176676
9.63725e-05
0.00023177
0.000229367
0.000176651
9.63975e-05
0.00023177
2.52942e-05
2.52938e-05
0.000176671
0.00023177
9.63786e-05
0.000229366
0.000176644
0.00023177
9.64021e-05
5.19325e-05
5.19223e-05
0.000224716
5.19379e-05
5.19275e-05
8.18044e-05
4.45182e-05
8.17902e-05
4.45175e-05
2.52962e-05
2.52958e-05
8.18148e-05
4.45145e-05
8.18021e-05
4.45137e-05
0.000232429
0.000232429
0.000232429
0.000232429
0.000232429
0.000232429
0.000232428
0.000176676
9.63726e-05
0.00023177
0.000229367
0.000176651
9.63975e-05
0.000231771
2.52942e-05
2.52938e-05
0.00017667
0.00023177
9.63786e-05
0.000229366
0.000176644
0.00023177
9.6402e-05
5.19325e-05
5.19222e-05
0.000224716
5.19379e-05
5.19275e-05
8.18044e-05
4.45182e-05
8.17902e-05
4.45175e-05
2.52962e-05
2.52958e-05
8.18148e-05
4.45145e-05
8.18021e-05
4.45137e-05
0.000232429
0.000232429
0.000232429
0.000232429
0.000232429
0.000232429
0.000232428
0.000176675
9.63725e-05
0.00023177
0.000229367
0.00017665
9.63975e-05
0.00023177
2.52942e-05
2.52938e-05
0.00017667
0.00023177
9.63785e-05
0.000229366
0.000176645
0.00023177
9.6402e-05
5.19325e-05
5.19222e-05
0.000224716
5.19379e-05
5.19275e-05
8.18044e-05
4.45182e-05
8.17902e-05
4.45175e-05
2.52962e-05
2.52958e-05
8.18148e-05
4.45145e-05
8.18021e-05
4.45137e-05
0.000232429
0.000232429
0.000232429
0.000232429
0.000232429
0.000232429
0.000232428
0.000176676
9.63726e-05
0.00023177
0.000229367
0.00017665
9.63975e-05
0.000231771
2.52942e-05
2.52938e-05
0.00017667
0.00023177
9.63785e-05
0.000229366
0.000176646
0.00023177
9.6402e-05
5.19325e-05
5.19222e-05
0.000224716
5.19379e-05
5.19275e-05
8.18044e-05
4.45182e-05
8.17902e-05
4.45175e-05
2.52962e-05
2.52958e-05
8.18148e-05
4.45145e-05
8.18021e-05
4.45137e-05
0.000232429
0.000232429
0.000232429
0.000232429
0.000232429
0.000232429
0.000232428
0.000176676
9.63725e-05
0.00023177
0.000229367
0.00017665
9.63975e-05
0.00023177
2.52942e-05
2.52938e-05
0.000176667
0.00023177
9.63785e-05
0.000229366
0.000176644
0.00023177
9.6402e-05
5.19325e-05
5.19222e-05
0.000224716
5.19379e-05
5.19275e-05
8.18045e-05
4.45182e-05
8.17902e-05
4.45175e-05
2.52962e-05
2.52958e-05
8.18148e-05
4.45144e-05
8.18021e-05
4.45137e-05
0.000232429
0.000232429
0.000232429
0.000232429
0.000232429
0.000232429
0.000232428
0.000176676
9.63726e-05
0.00023177
0.000229367
0.00017665
9.63975e-05
0.00023177
2.52942e-05
2.52938e-05
0.000176663
0.00023177
9.63785e-05
0.000229366
0.00017664
0.00023177
9.6402e-05
5.19325e-05
5.19222e-05
0.000224716
5.19379e-05
5.19275e-05
8.18045e-05
4.45182e-05
8.17902e-05
4.45175e-05
2.52962e-05
2.52958e-05
8.18148e-05
4.45145e-05
8.18021e-05
4.45137e-05
0.000232429
0.000232429
0.000232429
0.000232429
0.000232429
0.000232429
0.000232428
0.000176675
9.63726e-05
0.00023177
0.000229367
0.00017665
9.63975e-05
0.00023177
2.52942e-05
2.52938e-05
0.000176663
0.00023177
9.63785e-05
0.000229366
0.000176639
0.00023177
9.6402e-05
5.19325e-05
5.19222e-05
0.000224716
5.19379e-05
5.19274e-05
8.18044e-05
4.45182e-05
8.17902e-05
4.45175e-05
2.52962e-05
2.52958e-05
8.18148e-05
4.45145e-05
8.18021e-05
4.45137e-05
0.000232429
0.000232429
0.000232429
0.000232429
0.000232429
0.000232429
0.000232428
0.000176675
9.63725e-05
0.00023177
0.000229367
0.00017665
9.63975e-05
0.000231771
2.52942e-05
2.52938e-05
0.000176663
0.00023177
9.63785e-05
0.000229366
0.000176639
0.00023177
9.6402e-05
5.19325e-05
5.19222e-05
0.000224716
5.19379e-05
5.19274e-05
8.18045e-05
4.45182e-05
8.17902e-05
4.45175e-05
2.52962e-05
2.52958e-05
8.18148e-05
4.45144e-05
8.18021e-05
4.45137e-05
0.000232429
0.000232429
0.000232429
0.000232429
0.000232429
0.000232429
0.000232428
0.000176676
9.63725e-05
0.00023177
0.000229367
0.00017665
9.63975e-05
0.00023177
2.52942e-05
2.52938e-05
0.000176664
0.00023177
9.63785e-05
0.000229366
0.000176639
0.00023177
9.6402e-05
5.19326e-05
5.19221e-05
0.000224716
5.19379e-05
5.19274e-05
8.18044e-05
4.45182e-05
8.17902e-05
4.45175e-05
2.52962e-05
2.52958e-05
8.18148e-05
4.45145e-05
8.18022e-05
4.45137e-05
0.000232429
0.000232429
0.000232429
0.000232429
0.000232429
0.000232428
0.000232428
0.000176676
9.63726e-05
0.00023177
0.000229367
0.000176651
9.63975e-05
0.00023177
2.52942e-05
2.52938e-05
0.000176664
0.00023177
9.63785e-05
0.000229366
0.000176639
0.00023177
9.6402e-05
5.19325e-05
5.19222e-05
0.000224716
5.19379e-05
5.19274e-05
8.18044e-05
4.45182e-05
8.17902e-05
4.45175e-05
2.52962e-05
2.52958e-05
8.18148e-05
4.45145e-05
8.18021e-05
4.45137e-05
0.000232429
0.000232429
0.000232429
0.000232429
0.000232429
0.000232428
0.000232428
0.000176676
9.63725e-05
0.00023177
0.000229367
0.000176651
9.63975e-05
0.000231771
2.52942e-05
2.52938e-05
0.000176664
0.00023177
9.63785e-05
0.000229366
0.000176639
0.00023177
9.6402e-05
5.19325e-05
5.19222e-05
0.000224716
5.19379e-05
5.19274e-05
8.18044e-05
4.45182e-05
8.17901e-05
4.45175e-05
2.52962e-05
2.52958e-05
8.18147e-05
4.45144e-05
8.18021e-05
4.45137e-05
0.000232429
0.000232429
0.000232429
0.000232429
0.000232431
0.000232429
0.000232429
0.000176676
9.63725e-05
0.00023177
0.000229367
0.00017665
9.63975e-05
0.00023177
2.52942e-05
2.52938e-05
0.000176663
0.00023177
9.63784e-05
0.000229366
0.000176638
0.00023177
9.6402e-05
5.19324e-05
5.19221e-05
0.000224716
5.19378e-05
5.19273e-05
4.45145e-05
8.1802e-05
0.00023243
2.52942e-05
9.63839e-05
2.52874e-05
2.5286e-05
5.20292e-05
5.20174e-05
4.45006e-05
8.1942e-05
4.45001e-05
8.19424e-05
9.65446e-05
0.000231785
0.000176861
9.65392e-05
0.000231785
0.000176861
2.52869e-05
5.20183e-05
5.20171e-05
2.5287e-05
4.44968e-05
8.19554e-05
9.65302e-05
0.000231786
0.000176876
8.19241e-05
4.44954e-05
4.4496e-05
8.19458e-05
0.000176822
0.000229393
0.000231785
9.65198e-05
0.000231785
9.64671e-05
0.000176859
0.000176821
9.65423e-05
0.000231785
0.000231785
0.000176856
8.19142e-05
4.44992e-05
8.1939e-05
0.000176821
0.000229395
0.000231785
9.65405e-05
0.000231785
9.64903e-05
0.000176857
8.19136e-05
4.44978e-05
4.44984e-05
8.19383e-05
2.5284e-05
2.52856e-05
0.000224746
5.20063e-05
5.20284e-05
5.19939e-05
5.20193e-05
2.52862e-05
2.52875e-05
0.000176814
0.000229396
0.000231785
9.65416e-05
0.000231785
9.64919e-05
0.00017685
0.000176822
0.000229396
0.000231785
9.65329e-05
0.000231785
9.64822e-05
0.000176857
8.19122e-05
4.44976e-05
4.44982e-05
8.19375e-05
8.19225e-05
4.44971e-05
4.44977e-05
8.19444e-05
0.000224747
5.20287e-05
5.20183e-05
5.20197e-05
5.20096e-05
2.52861e-05
2.52874e-05
2.52853e-05
2.52866e-05
2.52872e-05
2.52862e-05
2.52858e-05
2.52848e-05
5.20297e-05
5.20177e-05
0.000224782
5.20374e-05
5.20253e-05
2.52857e-05
2.52861e-05
2.52842e-05
2.52847e-05
0.000224737
5.20446e-05
5.20322e-05
5.20387e-05
5.20264e-05
8.19458e-05
4.45001e-05
8.19343e-05
4.44997e-05
0.000176863
9.6529e-05
0.000231785
0.000229395
0.000176844
9.6552e-05
0.000231785
0.000176861
9.65233e-05
0.000231785
0.000229395
0.000176841
9.65464e-05
0.000231785
8.19415e-05
4.45e-05
4.44999e-05
8.19494e-05
8.19391e-05
4.44998e-05
4.44997e-05
8.19479e-05
0.000176844
0.000229395
9.65542e-05
0.000231783
9.65374e-05
0.000231785
0.000176861
0.000176844
0.000229394
9.65481e-05
0.000231783
9.65311e-05
0.000231784
0.000176862
5.20188e-05
5.20171e-05
0.000224782
5.20264e-05
5.20259e-05
2.5287e-05
2.52858e-05
2.52848e-05
2.52853e-05
0.000224736
5.20337e-05
5.20323e-05
5.20277e-05
5.20244e-05
2.52855e-05
2.52858e-05
0.000176874
9.65124e-05
0.000231786
0.000229397
0.000176859
9.65364e-05
0.000231786
8.19517e-05
4.44954e-05
8.19418e-05
4.44953e-05
0.000176862
0.000231784
9.65037e-05
0.000229392
0.000176843
0.000231784
9.65259e-05
8.19558e-05
4.44962e-05
4.44961e-05
8.19599e-05
0.000176851
0.000229396
9.6538e-05
0.000231784
9.65199e-05
0.000231785
0.000176865
8.19469e-05
4.44958e-05
4.44953e-05
8.19444e-05
0.000176842
0.000229391
0.00023178
9.65134e-05
0.000231783
9.65084e-05
0.000176852
8.19434e-05
4.44993e-05
8.19328e-05
4.44989e-05
0.000176858
0.000231784
9.65261e-05
0.000229394
0.000176839
0.000231784
9.65474e-05
8.19429e-05
4.44977e-05
8.19321e-05
4.44976e-05
0.00017684
0.000229396
9.65485e-05
0.000231781
9.65327e-05
0.000231784
0.000176847
8.19367e-05
4.4499e-05
4.44989e-05
8.19345e-05
0.000176835
0.000229392
0.00023178
9.65346e-05
0.000231783
9.65313e-05
0.000176845
8.19359e-05
4.44981e-05
4.44976e-05
8.19336e-05
5.20053e-05
5.20298e-05
0.000224776
5.20128e-05
5.20375e-05
2.52861e-05
2.52853e-05
2.52833e-05
2.52831e-05
0.000224732
5.20122e-05
5.20351e-05
5.20112e-05
5.20385e-05
2.52854e-05
2.52853e-05
0.000176858
0.000231784
9.65182e-05
0.000229395
0.000176839
0.000231783
9.65398e-05
8.19419e-05
4.44976e-05
8.1931e-05
4.44974e-05
8.19496e-05
4.44971e-05
8.19402e-05
4.4497e-05
0.000176831
0.000229394
0.000231779
9.65356e-05
0.000231783
9.65326e-05
0.000176841
0.000176835
0.000229394
0.000231779
9.65268e-05
0.000231783
9.65234e-05
0.000176845
8.19347e-05
4.44978e-05
4.44974e-05
8.19325e-05
8.19445e-05
4.44974e-05
4.44971e-05
8.194e-05
2.5286e-05
2.52852e-05
2.52852e-05
2.52844e-05
0.000224736
5.20348e-05
5.20245e-05
5.20389e-05
5.20286e-05
2.52853e-05
2.52851e-05
2.52845e-05
2.52843e-05
2.52857e-05
2.52893e-05
2.52842e-05
2.5288e-05
5.20424e-05
5.20297e-05
0.000224747
5.20195e-05
5.20068e-05
2.52968e-05
2.52929e-05
2.52954e-05
2.52916e-05
0.000224671
5.19426e-05
5.19307e-05
5.19914e-05
5.19786e-05
8.19105e-05
4.44998e-05
8.19369e-05
4.45035e-05
0.000176812
9.65333e-05
0.00023178
0.000229375
0.000176835
9.65101e-05
0.000231767
0.000176812
9.6527e-05
0.000231779
0.000229374
0.000176836
9.65047e-05
0.000231766
8.18718e-05
4.45179e-05
4.45108e-05
8.18138e-05
8.18724e-05
4.4517e-05
4.45099e-05
8.18136e-05
0.000176746
0.000229356
9.64187e-05
0.000231756
9.64691e-05
0.000231754
0.000176685
0.000176746
0.000229355
9.64131e-05
0.000231756
9.64631e-05
0.000231753
0.000176685
5.20309e-05
5.20262e-05
0.00022475
5.20083e-05
5.20074e-05
2.52856e-05
2.52889e-05
2.5296e-05
2.52922e-05
0.000224673
5.19321e-05
5.19345e-05
5.19798e-05
5.19808e-05
2.52965e-05
2.52929e-05
0.000176794
9.65151e-05
0.000231779
0.000229376
0.000176837
9.64937e-05
0.000231763
8.18674e-05
4.44968e-05
8.19272e-05
4.45084e-05
0.00017675
0.000231769
9.64812e-05
0.000229354
0.000176818
0.000231755
9.64317e-05
8.18714e-05
4.4514e-05
4.45071e-05
8.18202e-05
0.00017673
0.000229357
9.64019e-05
0.000231756
9.64513e-05
0.000231754
0.000176683
8.18377e-05
4.45126e-05
4.4512e-05
8.18128e-05
0.000176693
0.000229351
0.000231761
9.63815e-05
0.000231755
9.63931e-05
0.000176676
8.18535e-05
4.4499e-05
8.19129e-05
4.45027e-05
0.00017673
0.000231768
9.65035e-05
0.000229355
0.000176809
0.000231754
9.64518e-05
8.18517e-05
4.44991e-05
8.19119e-05
4.45108e-05
0.000176683
0.000229357
9.64133e-05
0.000231761
9.6457e-05
0.000231757
0.000176674
8.18218e-05
4.45162e-05
4.45092e-05
8.18041e-05
0.000176679
0.000229352
0.000231761
9.64041e-05
0.000231756
9.64145e-05
0.000176674
8.18202e-05
4.45149e-05
4.45142e-05
8.18035e-05
5.19952e-05
5.20245e-05
0.000224707
5.19509e-05
5.19682e-05
2.52863e-05
2.52944e-05
2.52941e-05
2.52939e-05
0.000224645
5.19105e-05
5.19367e-05
5.1929e-05
5.195e-05
2.5296e-05
2.52958e-05
0.00017673
0.000231766
9.64955e-05
0.000229357
0.00017681
0.000231753
9.64444e-05
8.18507e-05
4.44988e-05
8.19105e-05
4.45108e-05
8.18545e-05
4.44985e-05
8.19209e-05
4.45104e-05
0.000176674
0.000229355
0.000231761
9.64052e-05
0.000231756
9.64157e-05
0.000176667
0.000176679
0.000229354
0.000231761
9.63964e-05
0.000231755
9.64067e-05
0.000176675
8.18189e-05
4.45147e-05
4.45141e-05
8.18024e-05
8.18272e-05
4.45143e-05
4.45137e-05
8.18108e-05
2.52862e-05
2.52943e-05
2.52855e-05
2.52936e-05
0.000224647
5.19375e-05
5.19269e-05
5.1951e-05
5.19405e-05
2.52959e-05
2.52957e-05
2.52951e-05
2.52949e-05
2.52971e-05
2.52969e-05
2.52956e-05
2.52954e-05
5.1938e-05
5.1926e-05
0.000224717
5.19382e-05
5.19263e-05
2.52968e-05
2.52969e-05
2.52953e-05
2.52954e-05
0.000224681
5.19389e-05
5.19271e-05
5.19372e-05
5.19252e-05
8.18046e-05
4.45175e-05
8.17996e-05
4.45172e-05
0.000176674
9.63942e-05
0.000231762
0.000229361
0.000176659
9.64046e-05
0.000231767
0.000176675
9.63883e-05
0.000231762
0.000229361
0.00017666
9.6399e-05
0.000231767
8.17963e-05
4.45177e-05
4.45177e-05
8.18041e-05
8.17968e-05
4.45172e-05
4.45172e-05
8.18045e-05
0.000176655
0.000229363
9.64038e-05
0.00023177
9.63878e-05
0.000231769
0.000176676
0.000176656
0.000229363
9.63981e-05
0.00023177
9.63816e-05
0.00023177
0.000176677
5.19275e-05
5.19254e-05
0.000224718
5.19275e-05
5.19236e-05
2.52968e-05
2.52965e-05
2.5296e-05
2.52959e-05
0.000224682
5.19279e-05
5.19243e-05
5.19262e-05
5.19191e-05
2.52965e-05
2.52965e-05
0.000176677
9.63754e-05
0.000231763
0.000229363
0.00017666
9.63877e-05
0.000231767
8.18114e-05
4.45126e-05
8.18055e-05
4.45123e-05
0.000176675
0.000231766
9.63613e-05
0.000229361
0.000176656
0.000231769
9.63783e-05
8.18084e-05
4.45139e-05
4.45138e-05
8.18142e-05
0.000176658
0.000229364
9.6387e-05
0.00023177
9.63691e-05
0.00023177
0.00017668
8.18055e-05
4.45122e-05
4.45123e-05
8.18114e-05
0.000176656
0.000229362
0.00023177
9.63782e-05
0.00023177
9.63601e-05
0.000176678
8.18033e-05
4.45167e-05
8.17953e-05
4.45164e-05
0.000176674
0.000231767
9.63853e-05
0.000229363
0.000176655
0.00023177
9.64006e-05
8.1803e-05
4.4515e-05
8.17948e-05
4.45147e-05
0.000176657
0.000229366
9.63971e-05
0.00023177
9.63792e-05
0.000231771
0.000176675
8.17956e-05
4.45163e-05
4.45164e-05
8.18036e-05
0.000176656
0.000229364
0.00023177
9.64004e-05
0.00023177
9.63835e-05
0.000176677
8.17952e-05
4.45146e-05
4.45147e-05
8.18031e-05
5.19061e-05
5.19353e-05
0.000224719
5.19118e-05
5.19371e-05
2.5296e-05
2.5296e-05
2.52939e-05
2.52938e-05
0.00022468
5.19124e-05
5.19374e-05
5.19084e-05
5.19357e-05
2.52959e-05
2.5296e-05
0.000176675
0.000231767
9.63773e-05
0.000229365
0.000176656
0.000231769
9.63929e-05
8.18017e-05
4.45147e-05
8.17934e-05
4.45145e-05
8.18101e-05
4.45143e-05
8.18039e-05
4.45141e-05
0.00017665
0.000229366
0.00023177
9.64019e-05
0.00023177
9.63853e-05
0.00017667
0.000176657
0.000229365
0.00023177
9.63928e-05
0.00023177
9.63756e-05
0.000176678
8.17939e-05
4.45144e-05
4.45145e-05
8.18021e-05
8.18042e-05
4.4514e-05
4.45142e-05
8.18103e-05
2.52958e-05
2.52958e-05
2.52951e-05
2.52951e-05
0.00022468
5.19379e-05
5.19274e-05
5.19361e-05
5.19258e-05
2.52957e-05
2.52959e-05
2.5295e-05
2.52951e-05
2.52968e-05
2.52968e-05
2.52953e-05
2.52953e-05
5.19378e-05
5.19259e-05
0.000224715
5.19389e-05
5.19273e-05
2.52968e-05
2.52968e-05
2.52953e-05
2.52953e-05
0.000224677
5.1939e-05
5.19273e-05
5.19377e-05
5.1926e-05
8.18047e-05
4.45171e-05
8.17966e-05
4.45171e-05
0.000176677
9.6387e-05
0.000231771
0.000229364
0.000176658
9.64038e-05
0.000231771
0.000176676
9.63813e-05
0.000231771
0.000229364
0.000176658
9.63983e-05
0.000231771
8.17966e-05
4.45177e-05
4.45174e-05
8.18042e-05
8.17969e-05
4.45171e-05
4.45171e-05
8.18046e-05
0.000176657
0.000229364
9.64038e-05
0.00023177
9.63875e-05
0.00023177
0.000176676
0.000176656
0.000229364
9.63981e-05
0.00023177
9.63814e-05
0.00023177
0.000176677
5.19264e-05
5.19201e-05
0.000224716
5.19281e-05
5.19258e-05
2.52965e-05
2.52965e-05
2.5296e-05
2.52958e-05
0.000224678
5.19279e-05
5.19253e-05
5.19266e-05
5.19212e-05
2.52965e-05
2.52965e-05
0.000176679
9.63686e-05
0.00023177
0.000229366
0.000176661
9.63872e-05
0.00023177
8.18116e-05
4.45122e-05
8.18053e-05
4.45122e-05
0.000176676
0.00023177
9.63599e-05
0.000229362
0.000176658
0.000231769
9.63782e-05
8.18086e-05
4.45139e-05
4.45137e-05
8.18143e-05
0.000176659
0.000229365
9.63871e-05
0.00023177
9.6369e-05
0.00023177
0.000176679
8.18056e-05
4.45122e-05
4.45123e-05
8.18115e-05
0.000176656
0.000229362
0.00023177
9.63781e-05
0.000231769
9.636e-05
0.000176677
8.18035e-05
4.45163e-05
8.17956e-05
4.45163e-05
0.000176675
0.00023177
9.63836e-05
0.000229364
0.000176657
0.00023177
9.64006e-05
8.18031e-05
4.45146e-05
8.17951e-05
4.45146e-05
0.000176657
0.000229367
9.63973e-05
0.00023177
9.63794e-05
0.00023177
0.000176674
8.17958e-05
4.45162e-05
4.45163e-05
8.18036e-05
0.000176656
0.000229364
0.00023177
9.64004e-05
0.00023177
9.63836e-05
0.000176676
8.17953e-05
4.45146e-05
4.45146e-05
8.18031e-05
5.1908e-05
5.19361e-05
0.000224714
5.19117e-05
5.19374e-05
2.52959e-05
2.52959e-05
2.52939e-05
2.52938e-05
0.000224676
5.19124e-05
5.19375e-05
5.19081e-05
5.1936e-05
2.52959e-05
2.52959e-05
0.000176676
0.00023177
9.63757e-05
0.000229365
0.000176658
0.00023177
9.63929e-05
8.1802e-05
4.45144e-05
8.17939e-05
4.45144e-05
8.18104e-05
4.4514e-05
8.18041e-05
4.4514e-05
0.00017665
0.000229366
0.00023177
9.6402e-05
0.00023177
9.63854e-05
0.00017667
0.000176657
0.000229366
0.00023177
9.63928e-05
0.00023177
9.63756e-05
0.000176677
8.17942e-05
4.45144e-05
4.45144e-05
8.18029e-05
8.18044e-05
4.4514e-05
4.4514e-05
8.18105e-05
2.52957e-05
2.52958e-05
2.5295e-05
2.5295e-05
0.000224677
5.19379e-05
5.19275e-05
5.19363e-05
5.19261e-05
2.52957e-05
2.52958e-05
2.5295e-05
2.5295e-05
2.52968e-05
2.52968e-05
2.52953e-05
2.52953e-05
5.19379e-05
5.1926e-05
0.000224717
5.1939e-05
5.19272e-05
2.52968e-05
2.52968e-05
2.52953e-05
2.52953e-05
0.000224678
5.19391e-05
5.19272e-05
5.19378e-05
5.19258e-05
8.18047e-05
4.45172e-05
8.17966e-05
4.45171e-05
0.000176677
9.63871e-05
0.00023177
0.000229364
0.000176657
9.64039e-05
0.00023177
0.000176676
9.63812e-05
0.00023177
0.000229364
0.000176657
9.63983e-05
0.00023177
8.17967e-05
4.45177e-05
4.45174e-05
8.18042e-05
8.17969e-05
4.45171e-05
4.45172e-05
8.18046e-05
0.000176658
0.000229364
9.64039e-05
0.00023177
9.63875e-05
0.00023177
0.000176676
0.000176657
0.000229364
9.63981e-05
0.00023177
9.63814e-05
0.00023177
0.000176677
5.19264e-05
5.19204e-05
0.000224718
5.19281e-05
5.19249e-05
2.52965e-05
2.52965e-05
2.5296e-05
2.52959e-05
0.000224679
5.19279e-05
5.19255e-05
5.19266e-05
5.19204e-05
2.52965e-05
2.52965e-05
0.000176679
9.63686e-05
0.00023177
0.000229366
0.00017666
9.63872e-05
0.00023177
8.18117e-05
4.45122e-05
8.18054e-05
4.45123e-05
0.000176676
0.00023177
9.63598e-05
0.000229362
0.000176657
0.00023177
9.63782e-05
8.18087e-05
4.45139e-05
4.45137e-05
8.18144e-05
0.00017666
0.000229366
9.63871e-05
0.00023177
9.63691e-05
0.000231771
0.000176679
8.18057e-05
4.45122e-05
4.45123e-05
8.18115e-05
0.000176657
0.000229362
0.00023177
9.63781e-05
0.00023177
9.636e-05
0.000176677
8.18035e-05
4.45162e-05
8.17956e-05
4.45163e-05
0.000176675
0.00023177
9.63837e-05
0.000229364
0.000176657
0.00023177
9.64006e-05
8.18033e-05
4.45146e-05
8.17951e-05
4.45146e-05
0.000176657
0.000229367
9.63973e-05
0.00023177
9.63794e-05
0.000231771
0.000176675
8.17958e-05
4.45162e-05
4.45163e-05
8.18037e-05
0.000176656
0.000229364
0.00023177
9.64004e-05
0.00023177
9.63836e-05
0.000176676
8.17955e-05
4.45146e-05
4.45146e-05
8.18033e-05
5.19081e-05
5.19362e-05
0.000224715
5.19116e-05
5.19375e-05
2.52959e-05
2.52959e-05
2.52939e-05
2.52938e-05
0.000224676
5.19124e-05
5.19375e-05
5.19081e-05
5.1936e-05
2.52959e-05
2.52959e-05
0.000176677
0.00023177
9.63758e-05
0.000229365
0.000176658
0.00023177
9.6393e-05
8.18029e-05
4.45144e-05
8.1795e-05
4.45144e-05
8.18111e-05
4.4514e-05
8.18044e-05
4.4514e-05
0.000176651
0.000229366
0.00023177
9.6402e-05
0.00023177
9.63854e-05
0.00017667
0.000176658
0.000229366
0.00023177
9.63928e-05
0.00023177
9.63757e-05
0.000176677
8.1795e-05
4.45144e-05
4.45144e-05
8.18031e-05
8.18055e-05
4.4514e-05
4.45141e-05
8.18115e-05
2.52957e-05
2.52958e-05
2.52949e-05
2.5295e-05
0.000224677
5.19379e-05
5.19275e-05
5.19363e-05
5.19261e-05
2.52957e-05
2.52958e-05
2.5295e-05
2.5295e-05
2.52968e-05
2.52968e-05
2.52953e-05
2.52953e-05
5.1938e-05
5.19259e-05
0.000224717
5.19391e-05
5.19271e-05
2.52968e-05
2.52968e-05
2.52953e-05
2.52953e-05
0.000224678
5.19391e-05
5.19272e-05
5.19379e-05
5.19258e-05
8.18047e-05
4.45172e-05
8.17966e-05
4.45171e-05
0.000176677
9.63872e-05
0.00023177
0.000229364
0.000176656
9.64039e-05
0.00023177
0.000176676
9.63812e-05
0.00023177
0.000229364
0.000176657
9.63983e-05
0.00023177
8.17967e-05
4.45177e-05
4.45174e-05
8.18042e-05
8.17969e-05
4.45171e-05
4.45171e-05
8.18045e-05
0.000176658
0.000229364
9.64038e-05
0.00023177
9.63876e-05
0.00023177
0.000176675
0.000176657
0.000229364
9.63982e-05
0.00023177
9.63814e-05
0.00023177
0.000176677
5.19264e-05
5.19207e-05
0.000224718
5.19281e-05
5.19249e-05
2.52965e-05
2.52965e-05
2.5296e-05
2.52959e-05
0.000224679
5.1928e-05
5.19255e-05
5.19266e-05
5.19204e-05
2.52965e-05
2.52965e-05
0.000176679
9.63686e-05
0.00023177
0.000229366
0.00017666
9.63872e-05
0.00023177
8.18117e-05
4.45122e-05
8.18054e-05
4.45123e-05
0.000176676
0.00023177
9.63598e-05
0.000229362
0.000176657
0.00023177
9.63782e-05
8.18087e-05
4.45139e-05
4.45137e-05
8.18143e-05
0.00017666
0.000229366
9.63871e-05
0.00023177
9.63691e-05
0.00023177
0.000176679
8.18057e-05
4.45122e-05
4.45123e-05
8.18115e-05
0.000176657
0.000229362
0.00023177
9.63781e-05
0.00023177
9.636e-05
0.000176677
8.18036e-05
4.45162e-05
8.17957e-05
4.45163e-05
0.000176676
0.00023177
9.63836e-05
0.000229364
0.000176657
0.00023177
9.64006e-05
8.18033e-05
4.45146e-05
8.17952e-05
4.45146e-05
0.000176657
0.000229367
9.63973e-05
0.000231771
9.63794e-05
0.00023177
0.000176674
8.17959e-05
4.45162e-05
4.45163e-05
8.18037e-05
0.000176657
0.000229364
0.00023177
9.64004e-05
0.00023177
9.63836e-05
0.000176676
8.17955e-05
4.45146e-05
4.45147e-05
8.18033e-05
5.19081e-05
5.19362e-05
0.000224715
5.19116e-05
5.19374e-05
2.52959e-05
2.52959e-05
2.52939e-05
2.52938e-05
0.000224676
5.19124e-05
5.19375e-05
5.19081e-05
5.1936e-05
2.52959e-05
2.52959e-05
0.000176677
0.00023177
9.63758e-05
0.000229365
0.000176658
0.00023177
9.6393e-05
8.1803e-05
4.45144e-05