/*--------------------------------*- C++ -*----------------------------------*\
| =========                 |                                                 |
| \\      /  F ield         | OpenFOAM: The Open Source CFD Toolbox           |
|  \\    /   O peration     | Version:  2206                                  |
|   \\  /    A nd           | Website:  www.openfoam.com                      |
|    \\/     M anipulation  |                                                 |
\*---------------------------------------------------------------------------*/
FoamFile
{
    version     2.0;
    format      ascii;
    arch        "LSB;label=32;scalar=64";
    class       volScalarField;
    location    "9.5";
    object      p;
}
// * * * * * * * * * * * * * * * * * * * * * * * * * * * * * * * * * * * * * //

dimensions      [0 2 -2 0 0 0 0];

internalField   nonuniform List<scalar> 
171728
(
0.00433507
0.00433535
0.00433535
0.00433842
0.00428057
0.00428061
0.00428061
0.00428325
0.00423245
0.00423238
0.00423238
0.00423503
0.00418623
0.00418619
0.00418619
0.00418887
0.00414022
0.0041402
0.00414019
0.00414287
0.00409424
0.00409421
0.00409421
0.00409689
0.00404825
0.00404823
0.00404823
0.0040509
0.00400227
0.00400225
0.00400225
0.00400492
0.00395629
0.00395627
0.00395627
0.00395895
0.00391032
0.00391029
0.00391029
0.00391297
0.00386434
0.00386432
0.00386432
0.00386699
0.00381837
0.00381834
0.00381834
0.00382102
0.00377239
0.00377237
0.00377237
0.00377505
0.00372642
0.0037264
0.0037264
0.00372908
0.00368045
0.00368043
0.00368043
0.00368311
0.00363448
0.00363446
0.00363446
0.00363713
0.00358851
0.00358849
0.00358849
0.00359116
0.00354254
0.00354252
0.00354252
0.00354519
0.00349657
0.00349654
0.00349654
0.00349922
0.00345059
0.00345057
0.00345057
0.00345325
0.00340462
0.0034046
0.0034046
0.00340727
0.00335865
0.00335862
0.00335862
0.0033613
0.00331267
0.00331265
0.00331265
0.00331533
0.0032667
0.00326668
0.00326668
0.00326935
0.00322072
0.0032207
0.0032207
0.00322338
0.00317475
0.00317473
0.00317473
0.0031774
0.00312877
0.00312875
0.00312875
0.00313143
0.0030828
0.00308277
0.00308277
0.00308545
0.00303682
0.0030368
0.0030368
0.00303947
0.00299085
0.00299082
0.00299082
0.0029935
0.00294487
0.00294485
0.00294485
0.00294752
0.00289889
0.00289887
0.00289887
0.00290154
0.00285291
0.00285289
0.00285289
0.00285557
0.00280694
0.00280691
0.00280691
0.00280959
0.00276096
0.00276094
0.00276094
0.00276361
0.00271498
0.00271496
0.00271496
0.00271763
0.00266901
0.00266898
0.00266898
0.00267166
0.00262303
0.002623
0.002623
0.00262568
0.00257705
0.00257703
0.00257703
0.0025797
0.00253108
0.00253105
0.00253105
0.00253373
0.0024851
0.00248508
0.00248508
0.00248775
0.00243913
0.0024391
0.0024391
0.00244178
0.00239315
0.00239313
0.00239313
0.0023958
0.00234718
0.00234715
0.00234715
0.00234983
0.0023012
0.00230118
0.00230118
0.00230386
0.00225523
0.00225521
0.00225521
0.00225789
0.00220927
0.00220924
0.00220924
0.00221192
0.0021633
0.00216327
0.00216327
0.00216595
0.00211733
0.0021173
0.0021173
0.00211998
0.00207136
0.00207134
0.00207134
0.00207401
0.00202539
0.00202537
0.00202537
0.00202804
0.00197942
0.0019794
0.0019794
0.00198207
0.00193345
0.00193343
0.00193343
0.00193611
0.00188748
0.00188746
0.00188746
0.00189014
0.00184151
0.00184149
0.00184149
0.00184417
0.00179554
0.00179552
0.00179552
0.0017982
0.00174957
0.00174955
0.00174955
0.00175222
0.0017036
0.00170357
0.00170357
0.00170625
0.00165762
0.0016576
0.0016576
0.00166028
0.00161165
0.00161163
0.00161163
0.0016143
0.00156567
0.00156565
0.00156565
0.00156833
0.0015197
0.00151967
0.00151967
0.00152235
0.00147372
0.0014737
0.0014737
0.00147637
0.00142774
0.00142772
0.00142772
0.00143039
0.00138176
0.00138174
0.00138174
0.00138441
0.00133578
0.00133576
0.00133576
0.00133843
0.0012898
0.00128978
0.00128978
0.00129246
0.00124383
0.0012438
0.0012438
0.00124648
0.00119785
0.00119782
0.00119782
0.0012005
0.00115187
0.00115185
0.00115185
0.00115452
0.00110589
0.00110587
0.00110587
0.00110855
0.00105992
0.00105989
0.00105989
0.00106257
0.00101395
0.00101392
0.00101392
0.0010166
0.000967977
0.000967953
0.000967953
0.000970629
0.000922009
0.000921985
0.000921985
0.000924661
0.000876039
0.000876015
0.000876015
0.000878692
0.000830069
0.000830045
0.000830045
0.000832721
0.000784098
0.000784074
0.000784074
0.00078675
0.000738128
0.000738105
0.000738105
0.000740781
0.00069216
0.000692136
0.000692136
0.000694812
0.000646191
0.000646168
0.000646168
0.000648844
0.000600222
0.000600198
0.000600198
0.000602874
0.000554251
0.000554227
0.000554227
0.000556903
0.000508278
0.000508255
0.000508255
0.000510931
0.000462306
0.000462282
0.000462282
0.000464958
0.000416333
0.000416309
0.000416309
0.000418985
0.00037036
0.000370336
0.000370336
0.000373012
0.000324388
0.000324364
0.000324364
0.00032704
0.000278418
0.000278394
0.000278394
0.000281071
0.000232444
0.00023242
0.00023242
0.000235096
0.000186468
0.000186445
0.000186444
0.000189121
0.000140492
0.000140473
0.000140473
0.000143146
9.45053e-05
9.44681e-05
9.44683e-05
9.71026e-05
4.92213e-05
4.86745e-05
4.86729e-05
5.12e-05
1.13931e-05
1.17898e-05
1.17886e-05
1.142e-05
0.00434846
0.00434869
0.00434869
0.00434845
0.00434869
0.00434869
0.00434945
0.00434945
0.00434945
0.00434945
0.00434869
0.00434869
0.00434846
0.00434869
0.00434869
0.00434846
0.00433842
0.00428989
0.00433534
0.00433534
0.00429184
0.00429184
0.00433842
0.00428989
0.00433535
0.00433534
0.00429183
0.00429184
0.00433534
0.00429183
0.00429184
0.00433841
0.00428989
0.00433535
0.00429183
0.00429183
0.00428989
0.00428325
0.00424118
0.00428061
0.00428061
0.00424415
0.00424415
0.00428325
0.00424118
0.00428061
0.00428061
0.00424415
0.00424415
0.00428061
0.00424415
0.00424415
0.00428325
0.00424118
0.0042806
0.00424415
0.00424415
0.00424118
0.00423503
0.00419502
0.00423238
0.00423238
0.0041977
0.0041977
0.00423503
0.00419502
0.00423238
0.00423238
0.0041977
0.0041977
0.00423238
0.0041977
0.0041977
0.00423503
0.00419502
0.00423238
0.0041977
0.0041977
0.00419502
0.00418887
0.00414902
0.00418619
0.00418619
0.00415169
0.00415169
0.00418887
0.00414902
0.00418619
0.00418619
0.00415169
0.00415169
0.00418619
0.00415169
0.00415169
0.00418887
0.00414902
0.00418619
0.00415169
0.00415169
0.00414902
0.00414287
0.00410304
0.0041402
0.0041402
0.00410571
0.00410571
0.00414287
0.00410304
0.00414019
0.00414019
0.00410571
0.00410571
0.0041402
0.00410571
0.00410571
0.00414287
0.00410304
0.00414019
0.00410571
0.00410571
0.00410304
0.00409689
0.00405705
0.00409421
0.00409421
0.00405972
0.00405972
0.00409689
0.00405705
0.00409421
0.00409421
0.00405972
0.00405972
0.00409421
0.00405972
0.00405972
0.00409689
0.00405705
0.00409421
0.00405972
0.00405972
0.00405705
0.0040509
0.00401107
0.00404823
0.00404823
0.00401374
0.00401374
0.0040509
0.00401107
0.00404823
0.00404823
0.00401374
0.00401374
0.00404823
0.00401374
0.00401374
0.0040509
0.00401107
0.00404823
0.00401374
0.00401374
0.00401107
0.00400492
0.00396509
0.00400225
0.00400225
0.00396776
0.00396776
0.00400492
0.00396509
0.00400225
0.00400225
0.00396776
0.00396776
0.00400225
0.00396776
0.00396776
0.00400492
0.00396509
0.00400225
0.00396776
0.00396776
0.00396509
0.00395895
0.00391911
0.00395627
0.00395627
0.00392179
0.00392179
0.00395894
0.00391911
0.00395627
0.00395627
0.00392179
0.00392179
0.00395627
0.00392179
0.00392179
0.00395895
0.00391911
0.00395627
0.00392179
0.00392179
0.00391911
0.00391297
0.00387314
0.00391029
0.00391029
0.00387581
0.00387581
0.00391297
0.00387314
0.00391029
0.00391029
0.00387581
0.00387581
0.00391029
0.00387581
0.00387581
0.00391297
0.00387314
0.00391029
0.00387581
0.00387581
0.00387314
0.00386699
0.00382716
0.00386432
0.00386432
0.00382983
0.00382983
0.00386699
0.00382716
0.00386432
0.00386432
0.00382983
0.00382983
0.00386432
0.00382983
0.00382983
0.00386699
0.00382716
0.00386432
0.00382983
0.00382983
0.00382716
0.00382102
0.00378119
0.00381834
0.00381834
0.00378386
0.00378386
0.00382102
0.00378119
0.00381834
0.00381834
0.00378386
0.00378386
0.00381834
0.00378386
0.00378386
0.00382102
0.00378119
0.00381834
0.00378386
0.00378386
0.00378119
0.00377505
0.00373522
0.00377237
0.00377237
0.00373789
0.00373789
0.00377505
0.00373522
0.00377237
0.00377237
0.00373789
0.00373789
0.00377237
0.00373789
0.00373789
0.00377505
0.00373522
0.00377237
0.00373789
0.00373789
0.00373522
0.00372908
0.00368925
0.0037264
0.0037264
0.00369192
0.00369192
0.00372908
0.00368925
0.0037264
0.0037264
0.00369192
0.00369192
0.0037264
0.00369192
0.00369192
0.00372908
0.00368925
0.0037264
0.00369192
0.00369192
0.00368925
0.0036831
0.00364328
0.00368043
0.00368043
0.00364595
0.00364595
0.00368311
0.00364328
0.00368043
0.00368043
0.00364595
0.00364595
0.00368043
0.00364595
0.00364595
0.0036831
0.00364328
0.00368043
0.00364595
0.00364595
0.00364328
0.00363713
0.00359731
0.00363446
0.00363446
0.00359998
0.00359998
0.00363713
0.00359731
0.00363446
0.00363446
0.00359998
0.00359998
0.00363446
0.00359998
0.00359998
0.00363713
0.00359731
0.00363446
0.00359998
0.00359998
0.00359731
0.00359116
0.00355134
0.00358849
0.00358849
0.00355401
0.00355401
0.00359116
0.00355134
0.00358849
0.00358849
0.00355401
0.00355401
0.00358849
0.00355401
0.00355401
0.00359116
0.00355134
0.00358849
0.00355401
0.00355401
0.00355134
0.00354519
0.00350537
0.00354252
0.00354252
0.00350804
0.00350804
0.00354519
0.00350537
0.00354252
0.00354252
0.00350804
0.00350804
0.00354252
0.00350804
0.00350804
0.00354519
0.00350537
0.00354252
0.00350804
0.00350804
0.00350537
0.00349922
0.00345939
0.00349654
0.00349654
0.00346206
0.00346206
0.00349922
0.00345939
0.00349654
0.00349654
0.00346206
0.00346206
0.00349654
0.00346206
0.00346206
0.00349922
0.00345939
0.00349654
0.00346206
0.00346206
0.00345939
0.00345325
0.00341342
0.00345057
0.00345057
0.00341609
0.00341609
0.00345324
0.00341342
0.00345057
0.00345057
0.00341609
0.00341609
0.00345057
0.00341609
0.00341609
0.00345325
0.00341342
0.00345057
0.00341609
0.00341609
0.00341342
0.00340727
0.00336745
0.0034046
0.0034046
0.00337012
0.00337012
0.00340727
0.00336745
0.0034046
0.0034046
0.00337012
0.00337012
0.0034046
0.00337012
0.00337012
0.00340727
0.00336745
0.0034046
0.00337012
0.00337012
0.00336745
0.0033613
0.00332147
0.00335862
0.00335862
0.00332414
0.00332414
0.0033613
0.00332147
0.00335862
0.00335862
0.00332414
0.00332414
0.00335862
0.00332414
0.00332414
0.0033613
0.00332147
0.00335862
0.00332414
0.00332414
0.00332147
0.00331533
0.0032755
0.00331265
0.00331265
0.00327817
0.00327817
0.00331533
0.0032755
0.00331265
0.00331265
0.00327817
0.00327817
0.00331265
0.00327817
0.00327817
0.00331533
0.0032755
0.00331265
0.00327817
0.00327817
0.0032755
0.00326935
0.00322952
0.00326668
0.00326668
0.00323219
0.00323219
0.00326935
0.00322952
0.00326668
0.00326668
0.00323219
0.00323219
0.00326668
0.00323219
0.00323219
0.00326935
0.00322952
0.00326668
0.00323219
0.00323219
0.00322952
0.00322338
0.00318355
0.0032207
0.0032207
0.00318622
0.00318622
0.00322338
0.00318355
0.0032207
0.0032207
0.00318622
0.00318622
0.0032207
0.00318622
0.00318622
0.00322338
0.00318355
0.0032207
0.00318622
0.00318622
0.00318355
0.0031774
0.00313757
0.00317473
0.00317473
0.00314024
0.00314024
0.0031774
0.00313757
0.00317473
0.00317473
0.00314024
0.00314024
0.00317473
0.00314024
0.00314024
0.0031774
0.00313757
0.00317473
0.00314024
0.00314024
0.00313757
0.00313143
0.0030916
0.00312875
0.00312875
0.00309427
0.00309427
0.00313143
0.0030916
0.00312875
0.00312875
0.00309427
0.00309427
0.00312875
0.00309427
0.00309427
0.00313143
0.0030916
0.00312875
0.00309427
0.00309427
0.0030916
0.00308545
0.00304562
0.00308277
0.00308277
0.00304829
0.00304829
0.00308545
0.00304562
0.00308277
0.00308277
0.00304829
0.00304829
0.00308277
0.00304829
0.00304829
0.00308545
0.00304562
0.00308277
0.00304829
0.00304829
0.00304562
0.00303947
0.00299964
0.0030368
0.0030368
0.00300232
0.00300232
0.00303947
0.00299964
0.0030368
0.0030368
0.00300232
0.00300232
0.0030368
0.00300232
0.00300232
0.00303947
0.00299964
0.0030368
0.00300232
0.00300232
0.00299964
0.0029935
0.00295367
0.00299082
0.00299082
0.00295634
0.00295634
0.0029935
0.00295367
0.00299082
0.00299082
0.00295634
0.00295634
0.00299082
0.00295634
0.00295634
0.0029935
0.00295367
0.00299082
0.00295634
0.00295634
0.00295367
0.00294752
0.00290769
0.00294485
0.00294485
0.00291036
0.00291036
0.00294752
0.00290769
0.00294485
0.00294485
0.00291036
0.00291036
0.00294485
0.00291036
0.00291036
0.00294752
0.00290769
0.00294485
0.00291036
0.00291036
0.00290769
0.00290154
0.00286171
0.00289887
0.00289887
0.00286439
0.00286439
0.00290154
0.00286171
0.00289887
0.00289887
0.00286439
0.00286439
0.00289887
0.00286439
0.00286439
0.00290154
0.00286171
0.00289887
0.00286439
0.00286439
0.00286171
0.00285557
0.00281574
0.00285289
0.00285289
0.00281841
0.00281841
0.00285557
0.00281574
0.00285289
0.00285289
0.00281841
0.00281841
0.00285289
0.00281841
0.00281841
0.00285557
0.00281574
0.00285289
0.00281841
0.00281841
0.00281574
0.00280959
0.00276976
0.00280691
0.00280691
0.00277243
0.00277243
0.00280959
0.00276976
0.00280691
0.00280691
0.00277243
0.00277243
0.00280691
0.00277243
0.00277243
0.00280959
0.00276976
0.00280691
0.00277243
0.00277243
0.00276976
0.00276361
0.00272378
0.00276094
0.00276094
0.00272645
0.00272645
0.00276361
0.00272378
0.00276094
0.00276094
0.00272645
0.00272645
0.00276094
0.00272645
0.00272645
0.00276361
0.00272378
0.00276094
0.00272645
0.00272645
0.00272378
0.00271763
0.0026778
0.00271496
0.00271496
0.00268048
0.00268048
0.00271763
0.0026778
0.00271496
0.00271496
0.00268048
0.00268048
0.00271496
0.00268048
0.00268048
0.00271763
0.0026778
0.00271496
0.00268048
0.00268048
0.0026778
0.00267166
0.00263183
0.00266898
0.00266898
0.0026345
0.0026345
0.00267166
0.00263183
0.00266898
0.00266898
0.0026345
0.0026345
0.00266898
0.0026345
0.0026345
0.00267166
0.00263183
0.00266898
0.0026345
0.0026345
0.00263183
0.00262568
0.00258585
0.002623
0.002623
0.00258852
0.00258852
0.00262568
0.00258585
0.002623
0.002623
0.00258852
0.00258852
0.002623
0.00258852
0.00258852
0.00262568
0.00258585
0.002623
0.00258852
0.00258852
0.00258585
0.0025797
0.00253987
0.00257703
0.00257703
0.00254255
0.00254255
0.0025797
0.00253988
0.00257703
0.00257703
0.00254255
0.00254255
0.00257703
0.00254255
0.00254255
0.0025797
0.00253987
0.00257703
0.00254255
0.00254255
0.00253987
0.00253373
0.0024939
0.00253105
0.00253105
0.00249657
0.00249657
0.00253373
0.0024939
0.00253105
0.00253105
0.00249657
0.00249657
0.00253105
0.00249657
0.00249657
0.00253373
0.0024939
0.00253105
0.00249657
0.00249657
0.0024939
0.00248775
0.00244792
0.00248508
0.00248508
0.00245059
0.0024506
0.00248775
0.00244792
0.00248508
0.00248508
0.00245059
0.00245059
0.00248508
0.0024506
0.00245059
0.00248775
0.00244792
0.00248508
0.00245059
0.00245059
0.00244792
0.00244178
0.00240195
0.0024391
0.0024391
0.00240462
0.00240462
0.00244178
0.00240195
0.0024391
0.0024391
0.00240462
0.00240462
0.0024391
0.00240462
0.00240462
0.00244178
0.00240195
0.0024391
0.00240462
0.00240462
0.00240195
0.0023958
0.00235597
0.00239313
0.00239313
0.00235865
0.00235865
0.0023958
0.00235597
0.00239313
0.00239313
0.00235865
0.00235865
0.00239313
0.00235865
0.00235865
0.0023958
0.00235597
0.00239313
0.00235865
0.00235865
0.00235597
0.00234983
0.00231
0.00234715
0.00234715
0.00231267
0.00231267
0.00234983
0.00231
0.00234715
0.00234715
0.00231267
0.00231267
0.00234715
0.00231267
0.00231267
0.00234983
0.00231
0.00234715
0.00231267
0.00231267
0.00231
0.00230386
0.00226403
0.00230118
0.00230118
0.0022667
0.0022667
0.00230386
0.00226403
0.00230118
0.00230118
0.0022667
0.0022667
0.00230118
0.0022667
0.0022667
0.00230386
0.00226403
0.00230118
0.0022667
0.0022667
0.00226403
0.00225789
0.00221806
0.00225521
0.00225521
0.00222073
0.00222073
0.00225789
0.00221806
0.00225521
0.00225521
0.00222073
0.00222073
0.00225521
0.00222073
0.00222073
0.00225789
0.00221806
0.00225521
0.00222073
0.00222073
0.00221806
0.00221192
0.00217209
0.00220924
0.00220924
0.00217477
0.00217477
0.00221192
0.00217209
0.00220924
0.00220924
0.00217477
0.00217477
0.00220924
0.00217477
0.00217477
0.00221192
0.00217209
0.00220924
0.00217477
0.00217477
0.00217209
0.00216595
0.00212613
0.00216327
0.00216327
0.0021288
0.0021288
0.00216595
0.00212613
0.00216327
0.00216327
0.0021288
0.0021288
0.00216327
0.0021288
0.0021288
0.00216595
0.00212613
0.00216327
0.0021288
0.0021288
0.00212613
0.00211998
0.00208016
0.00211731
0.0021173
0.00208283
0.00208283
0.00211998
0.00208016
0.0021173
0.00211731
0.00208283
0.00208283
0.00211731
0.00208283
0.00208283
0.00211998
0.00208016
0.00211731
0.00208283
0.00208283
0.00208016
0.00207401
0.00203419
0.00207134
0.00207134
0.00203686
0.00203686
0.00207401
0.00203419
0.00207134
0.00207134
0.00203686
0.00203686
0.00207134
0.00203686
0.00203686
0.00207401
0.00203419
0.00207134
0.00203686
0.00203686
0.00203419
0.00202804
0.00198822
0.00202537
0.00202537
0.00199089
0.00199089
0.00202804
0.00198822
0.00202537
0.00202537
0.00199089
0.00199089
0.00202537
0.00199089
0.00199089
0.00202804
0.00198822
0.00202537
0.00199089
0.00199089
0.00198822
0.00198207
0.00194225
0.0019794
0.0019794
0.00194492
0.00194492
0.00198207
0.00194225
0.0019794
0.0019794
0.00194492
0.00194492
0.0019794
0.00194492
0.00194492
0.00198207
0.00194225
0.0019794
0.00194492
0.00194492
0.00194225
0.00193611
0.00189628
0.00193343
0.00193343
0.00189895
0.00189895
0.00193611
0.00189628
0.00193343
0.00193343
0.00189895
0.00189895
0.00193343
0.00189895
0.00189895
0.00193611
0.00189628
0.00193343
0.00189895
0.00189895
0.00189628
0.00189014
0.00185031
0.00188746
0.00188746
0.00185298
0.00185298
0.00189014
0.00185031
0.00188746
0.00188746
0.00185298
0.00185298
0.00188746
0.00185298
0.00185298
0.00189014
0.00185031
0.00188746
0.00185298
0.00185298
0.00185031
0.00184417
0.00180434
0.00184149
0.00184149
0.00180701
0.00180701
0.00184417
0.00180434
0.00184149
0.00184149
0.00180701
0.00180701
0.00184149
0.00180701
0.00180701
0.00184417
0.00180434
0.00184149
0.00180701
0.00180701
0.00180434
0.0017982
0.00175837
0.00179552
0.00179552
0.00176104
0.00176104
0.0017982
0.00175837
0.00179552
0.00179552
0.00176104
0.00176104
0.00179552
0.00176104
0.00176104
0.0017982
0.00175837
0.00179552
0.00176104
0.00176104
0.00175837
0.00175222
0.0017124
0.00174955
0.00174955
0.00171507
0.00171507
0.00175222
0.0017124
0.00174955
0.00174955
0.00171507
0.00171507
0.00174955
0.00171507
0.00171507
0.00175222
0.0017124
0.00174955
0.00171507
0.00171507
0.0017124
0.00170625
0.00166642
0.00170357
0.00170357
0.00166909
0.00166909
0.00170625
0.00166642
0.00170357
0.00170357
0.00166909
0.00166909
0.00170357
0.00166909
0.00166909
0.00170625
0.00166642
0.00170357
0.00166909
0.00166909
0.00166642
0.00166028
0.00162045
0.0016576
0.0016576
0.00162312
0.00162312
0.00166028
0.00162045
0.0016576
0.0016576
0.00162312
0.00162312
0.0016576
0.00162312
0.00162312
0.00166028
0.00162045
0.0016576
0.00162312
0.00162312
0.00162045
0.0016143
0.00157447
0.00161163
0.00161163
0.00157714
0.00157714
0.0016143
0.00157447
0.00161163
0.00161163
0.00157714
0.00157714
0.00161163
0.00157714
0.00157714
0.0016143
0.00157447
0.00161163
0.00157714
0.00157714
0.00157447
0.00156833
0.0015285
0.00156565
0.00156565
0.00153117
0.00153117
0.00156833
0.0015285
0.00156565
0.00156565
0.00153117
0.00153117
0.00156565
0.00153117
0.00153117
0.00156833
0.0015285
0.00156565
0.00153117
0.00153117
0.0015285
0.00152235
0.00148252
0.00151967
0.00151967
0.00148519
0.00148519
0.00152235
0.00148252
0.00151967
0.00151967
0.00148519
0.00148519
0.00151967
0.00148519
0.00148519
0.00152235
0.00148252
0.00151967
0.00148519
0.00148519
0.00148252
0.00147637
0.00143654
0.0014737
0.0014737
0.00143921
0.00143921
0.00147637
0.00143654
0.0014737
0.0014737
0.00143921
0.00143921
0.0014737
0.00143921
0.00143921
0.00147637
0.00143654
0.0014737
0.00143921
0.00143921
0.00143654
0.00143039
0.00139056
0.00142772
0.00142772
0.00139323
0.00139323
0.00143039
0.00139056
0.00142772
0.00142772
0.00139323
0.00139323
0.00142772
0.00139323
0.00139323
0.00143039
0.00139056
0.00142772
0.00139323
0.00139323
0.00139056
0.00138441
0.00134458
0.00138174
0.00138174
0.00134725
0.00134725
0.00138441
0.00134458
0.00138174
0.00138174
0.00134725
0.00134725
0.00138174
0.00134725
0.00134725
0.00138441
0.00134458
0.00138174
0.00134725
0.00134725
0.00134458
0.00133843
0.0012986
0.00133576
0.00133576
0.00130127
0.00130127
0.00133843
0.0012986
0.00133576
0.00133576
0.00130127
0.00130127
0.00133576
0.00130127
0.00130127
0.00133843
0.0012986
0.00133576
0.00130127
0.00130127
0.0012986
0.00129246
0.00125262
0.00128978
0.00128978
0.0012553
0.0012553
0.00129246
0.00125262
0.00128978
0.00128978
0.0012553
0.0012553
0.00128978
0.0012553
0.0012553
0.00129246
0.00125262
0.00128978
0.0012553
0.0012553
0.00125262
0.00124648
0.00120665
0.0012438
0.0012438
0.00120932
0.00120932
0.00124648
0.00120665
0.0012438
0.0012438
0.00120932
0.00120932
0.0012438
0.00120932
0.00120932
0.00124648
0.00120665
0.0012438
0.00120932
0.00120932
0.00120665
0.0012005
0.00116067
0.00119782
0.00119782
0.00116334
0.00116334
0.0012005
0.00116067
0.00119782
0.00119782
0.00116334
0.00116334
0.00119782
0.00116334
0.00116334
0.0012005
0.00116067
0.00119782
0.00116334
0.00116334
0.00116067
0.00115452
0.00111469
0.00115185
0.00115185
0.00111736
0.00111736
0.00115452
0.00111469
0.00115185
0.00115185
0.00111736
0.00111736
0.00115185
0.00111736
0.00111736
0.00115452
0.00111469
0.00115185
0.00111736
0.00111736
0.00111469
0.00110854
0.00106872
0.00110587
0.00110587
0.00107139
0.00107139
0.00110854
0.00106872
0.00110587
0.00110587
0.00107139
0.00107139
0.00110587
0.00107139
0.00107139
0.00110855
0.00106872
0.00110587
0.00107139
0.00107139
0.00106872
0.00106257
0.00102274
0.00105989
0.00105989
0.00102541
0.00102541
0.00106257
0.00102274
0.00105989
0.00105989
0.00102541
0.00102541
0.00105989
0.00102541
0.00102542
0.00106257
0.00102274
0.00105989
0.00102541
0.00102541
0.00102274
0.0010166
0.000976774
0.00101392
0.00101392
0.000979445
0.000979445
0.0010166
0.000976774
0.00101392
0.00101392
0.000979445
0.000979445
0.00101392
0.000979445
0.000979446
0.0010166
0.000976774
0.00101392
0.000979445
0.000979445
0.000976774
0.000970629
0.000930806
0.000967953
0.000967953
0.000933477
0.000933477
0.000970629
0.000930806
0.000967953
0.000967953
0.000933477
0.000933477
0.000967953
0.000933477
0.000933477
0.000970629
0.000930806
0.000967953
0.000933477
0.000933477
0.000930806
0.000924661
0.000884837
0.000921985
0.000921985
0.000887508
0.000887508
0.000924661
0.000884837
0.000921985
0.000921985
0.000887508
0.000887508
0.000921985
0.000887508
0.000887508
0.000924661
0.000884837
0.000921985
0.000887508
0.000887508
0.000884837
0.000878691
0.000838866
0.000876015
0.000876015
0.000841538
0.000841538
0.000878691
0.000838867
0.000876015
0.000876015
0.000841538
0.000841538
0.000876016
0.000841538
0.000841538
0.000878691
0.000838866
0.000876015
0.000841538
0.000841538
0.000838866
0.000832721
0.000792896
0.000830045
0.000830045
0.000795567
0.000795567
0.000832721
0.000792896
0.000830045
0.000830045
0.000795567
0.000795567
0.000830045
0.000795567
0.000795567
0.000832721
0.000792896
0.000830045
0.000795567
0.000795567
0.000792896
0.00078675
0.000746926
0.000784074
0.000784074
0.000749597
0.000749597
0.00078675
0.000746926
0.000784074
0.000784074
0.000749597
0.000749597
0.000784074
0.000749597
0.000749597
0.00078675
0.000746926
0.000784074
0.000749597
0.000749597
0.000746926
0.00074078
0.000700957
0.000738105
0.000738104
0.000703628
0.000703628
0.00074078
0.000700957
0.000738104
0.000738105
0.000703628
0.000703628
0.000738105
0.000703628
0.000703628
0.00074078
0.000700957
0.000738105
0.000703628
0.000703628
0.000700957
0.000694812
0.000654989
0.000692136
0.000692136
0.00065766
0.00065766
0.000694812
0.000654989
0.000692136
0.000692136
0.00065766
0.00065766
0.000692136
0.00065766
0.00065766
0.000694812
0.000654989
0.000692136
0.00065766
0.00065766
0.000654989
0.000648843
0.000609019
0.000646168
0.000646167
0.00061169
0.00061169
0.000648843
0.00060902
0.000646167
0.000646168
0.00061169
0.00061169
0.000646168
0.00061169
0.000611691
0.000648843
0.000609019
0.000646168
0.00061169
0.00061169
0.000609019
0.000602874
0.000563049
0.000600198
0.000600198
0.00056572
0.00056572
0.000602874
0.000563049
0.000600198
0.000600198
0.00056572
0.00056572
0.000600198
0.00056572
0.00056572
0.000602874
0.000563048
0.000600198
0.00056572
0.00056572
0.000563049
0.000556903
0.000517076
0.000554227
0.000554227
0.000519748
0.000519748
0.000556903
0.000517077
0.000554227
0.000554227
0.000519748
0.000519748
0.000554227
0.000519748
0.000519748
0.000556903
0.000517076
0.000554227
0.000519748
0.000519748
0.000517077
0.000510931
0.000471104
0.000508255
0.000508254
0.000473775
0.000473775
0.000510931
0.000471104
0.000508254
0.000508255
0.000473775
0.000473775
0.000508255
0.000473775
0.000473775
0.000510931
0.000471104
0.000508255
0.000473775
0.000473775
0.000471104
0.000464958
0.000425131
0.000462282
0.000462282
0.000427802
0.000427802
0.000464958
0.000425131
0.000462282
0.000462282
0.000427802
0.000427802
0.000462282
0.000427802
0.000427802
0.000464958
0.000425131
0.000462282
0.000427802
0.000427802
0.000425131
0.000418985
0.000379158
0.000416309
0.000416309
0.000381829
0.000381829
0.000418985
0.000379158
0.000416309
0.000416309
0.000381829
0.000381829
0.000416309
0.000381829
0.000381829
0.000418985
0.000379157
0.000416309
0.000381829
0.000381829
0.000379158
0.000373012
0.000333186
0.000370336
0.000370336
0.000335857
0.000335857
0.000373012
0.000333186
0.000370336
0.000370336
0.000335857
0.000335857
0.000370336
0.000335857
0.000335857
0.000373012
0.000333186
0.000370336
0.000335857
0.000335857
0.000333186
0.00032704
0.000287216
0.000324365
0.000324364
0.000289887
0.000289887
0.00032704
0.000287217
0.000324364
0.000324364
0.000289887
0.000289887
0.000324365
0.000289887
0.000289888
0.000327041
0.000287216
0.000324364
0.000289887
0.000289887
0.000287216
0.00028107
0.000241242
0.000278394
0.000278394
0.000243914
0.000243914
0.000281071
0.000241242
0.000278394
0.000278394
0.000243913
0.000243913
0.000278395
0.000243914
0.000243914
0.000281071
0.000241242
0.000278394
0.000243914
0.000243914
0.000241242
0.000235096
0.000195267
0.00023242
0.00023242
0.000197938
0.000197938
0.000235096
0.000195267
0.00023242
0.00023242
0.000197938
0.000197938
0.00023242
0.000197938
0.000197938
0.000235096
0.000195267
0.00023242
0.000197938
0.000197938
0.000195267
0.00018912
0.000149293
0.000186444
0.000186445
0.000151965
0.000151965
0.000189121
0.000149293
0.000186444
0.000186444
0.000151965
0.000151965
0.000186445
0.000151965
0.000151966
0.000189121
0.000149293
0.000186444
0.000151965
0.000151966
0.000149294
0.000143146
0.000103303
0.000140473
0.000140473
0.00010599
0.00010599
0.000143145
0.000103304
0.000140473
0.000140473
0.00010599
0.00010599
0.000140474
0.00010599
0.00010599
0.000143146
0.000103304
0.000140474
0.000105991
0.000105991
0.000103304
9.71022e-05
5.73671e-05
9.44685e-05
9.44686e-05
5.99981e-05
5.99993e-05
9.71025e-05
5.73687e-05
9.44669e-05
9.44677e-05
5.99957e-05
5.99969e-05
9.44679e-05
5.99976e-05
5.99979e-05
9.71031e-05
5.73662e-05
9.44685e-05
5.99965e-05
5.99955e-05
5.73664e-05
5.12014e-05
1.54054e-05
4.86757e-05
4.86762e-05
1.77554e-05
1.77545e-05
5.12024e-05
1.54059e-05
4.86738e-05
4.86741e-05
1.77525e-05
1.77501e-05
4.8674e-05
1.7752e-05
1.77483e-05
5.12002e-05
1.54026e-05
4.8672e-05
1.7751e-05
1.77503e-05
1.54012e-05
1.14228e-05
1.17909e-05
1.17913e-05
1.14242e-05
1.17893e-05
1.17879e-05
1.13929e-05
1.13915e-05
1.13909e-05
1.17865e-05
1.14214e-05
1.17876e-05
0.00435686
0.0043666
0.00436141
0.00436141
0.00438375
0.00437057
0.00439915
0.00436462
0.00438375
0.00437057
0.00436462
0.00439915
0.00437513
0.00440289
0.00440289
0.00431232
0.00433113
0.00434048
0.00430434
0.0043049
0.00430833
0.0043123
0.00433111
0.00434047
0.00430432
0.00433507
0.00433507
0.00433507
0.00429187
0.00429187
0.00429187
0.00429187
0.00430977
0.00433546
0.00433544
0.00431858
0.00433853
0.00430876
0.00431945
0.004305
0.00430833
0.00430978
0.00433544
0.00433548
0.00431859
0.00433853
0.00431945
0.00430876
0.00434135
0.00434133
0.00431293
0.00430826
0.00430826
0.00426539
0.00428234
0.00428541
0.00426442
0.00428195
0.00426371
0.00426539
0.00428234
0.00428541
0.00426441
0.00428058
0.00428057
0.00428057
0.00424423
0.00424423
0.00424423
0.00424423
0.0042646
0.00428352
0.00428032
0.00426848
0.00428332
0.00426518
0.00426843
0.00428194
0.0042637
0.0042646
0.00428032
0.00428352
0.00426848
0.00428332
0.00426843
0.00426517
0.00428396
0.00428395
0.00426492
0.00426483
0.00426483
0.00421776
0.00423465
0.00423495
0.00421766
0.00423457
0.0042177
0.00421776
0.00423464
0.00423495
0.00421766
0.00423245
0.00423245
0.00423245
0.00419775
0.00419775
0.00419775
0.00419775
0.00421789
0.0042351
0.00423237
0.00422078
0.00423501
0.00421785
0.00422078
0.00423464
0.0042177
0.00421788
0.00423237
0.0042351
0.00422077
0.004235
0.00422078
0.00421785
0.00423493
0.00423493
0.00421806
0.00421777
0.00421777
0.00417183
0.00418903
0.00418904
0.00417183
0.00418904
0.00417183
0.00417183
0.00418903
0.00418904
0.00417183
0.00418623
0.00418623
0.00418623
0.00415172
0.00415172
0.00415172
0.00415172
0.0041719
0.00418901
0.0041862
0.00417469
0.00418899
0.00417186
0.0041747
0.00418904
0.00417183
0.0041719
0.0041862
0.00418901
0.00417469
0.00418899
0.0041747
0.00417186
0.00418905
0.00418905
0.00417201
0.00417183
0.00417183
0.00412585
0.00414306
0.00414306
0.00412585
0.00414307
0.00412585
0.00412585
0.00414306
0.00414306
0.00412585
0.00414022
0.00414022
0.00414022
0.00410573
0.00410573
0.00410573
0.00410573
0.00412592
0.00414303
0.0041402
0.0041287
0.00414301
0.00412588
0.00412871
0.00414307
0.00412585
0.00412592
0.0041402
0.00414303
0.0041287
0.004143
0.00412871
0.00412588
0.00414307
0.00414307
0.00412603
0.00412585
0.00412585
0.00407987
0.00409708
0.00409708
0.00407987
0.0040971
0.00407986
0.00407987
0.00409708
0.00409708
0.00407987
0.00409424
0.00409424
0.00409424
0.00405975
0.00405975
0.00405975
0.00405975
0.00407993
0.00409705
0.00409422
0.00408272
0.00409702
0.0040799
0.00408272
0.00409709
0.00407987
0.00407993
0.00409422
0.00409705
0.00408272
0.00409702
0.00408272
0.0040799
0.00409709
0.00409709
0.00408004
0.00407986