/*--------------------------------*- C++ -*----------------------------------*\
| =========                 |                                                 |
| \\      /  F ield         | OpenFOAM: The Open Source CFD Toolbox           |
|  \\    /   O peration     | Version:  2206                                  |
|   \\  /    A nd           | Website:  www.openfoam.com                      |
|    \\/     M anipulation  |                                                 |
\*---------------------------------------------------------------------------*/
FoamFile
{
    version     2.0;
    format      ascii;
    arch        "LSB;label=32;scalar=64";
    class       volScalarField;
    location    "19.5";
    object      nut;
}
// * * * * * * * * * * * * * * * * * * * * * * * * * * * * * * * * * * * * * //

dimensions      [0 2 -1 0 0 0 0];

internalField   nonuniform List<scalar> 
28897
(
0.000226693
0.000210164
0.000210156
0.000190394
0.000226693
0.000210163
0.000210154
0.000190392
0.000226692
0.000210161
0.000210154
0.000190391
0.00022669
0.000210157
0.000210149
0.000190384
0.000226664
0.000210112
0.000210102
0.000190309
0.000226674
0.000210109
0.000210104
0.000190319
0.000226675
0.00021011
0.000210105
0.00019031
0.000226675
0.00021011
0.000210105
0.000190314
0.000226675
0.00021011
0.000210105
0.000190313
0.000226675
0.00021011
0.000210105
0.000190313
0.000226675
0.000210111
0.000210105
0.000190313
0.000226675
0.000210111
0.000210105
0.000190313
0.000226675
0.000210111
0.000210105
0.000190313
0.000226675
0.000210111
0.000210105
0.000190313
0.000226675
0.000210111
0.000210105
0.000190313
0.000226675
0.000210111
0.000210105
0.000190313
0.000226675
0.000210111
0.000210105
0.000190313
0.000226676
0.000210111
0.000210105
0.000190313
0.000190539
0.000210149
0.000210148
0.000190545
0.00021016
0.000210141
0.000210164
0.000210149
0.000190533
0.000210156
0.000210158
0.000190537
0.000190398
0.000190536
0.00021015
0.000210149
0.00021015
0.000210148
0.000190403
0.00019054
0.000210161
0.000210142
0.00021016
0.000210141
0.000210151
0.000210164
0.00021015
0.000190392
0.00019053
0.000210159
0.000210154
0.000210158
0.000190535
0.000190396
0.000190535
0.000210148
0.000210148
0.000210147
0.000210148
0.000190399
0.000190539
0.000210158
0.000210141
0.000210157
0.000210139
0.00021015
0.000210161
0.00021015
0.00019039
0.000190528
0.000210158
0.000210153
0.000210156
0.000190533
0.000190395
0.000190531
0.000210145
0.000210148
0.000210145
0.000210145
0.000190399
0.000190536
0.000210156
0.000210138
0.000210156
0.000210137
0.00021015
0.000210159
0.000210147
0.000190389
0.000190524
0.000210155
0.000210151
0.000210155
0.00019053
0.000190388
0.000190468
0.000210143
0.000210142
0.000210103
0.000210108
0.000190394
0.000190487
0.000210153
0.000210135
0.000210113
0.000210094
0.000210144
0.000210125
0.000210105
0.000190382
0.000190462
0.000210152
0.000210111
0.000210112
0.000190467
0.000190314
0.000190462
0.000210095
0.000210097
0.000210096
0.000210094
0.000190329
0.000190463
0.000210105
0.000210086
0.000210106
0.000210087
0.000210097
0.000210107
0.000210096
0.000190308
0.000190455
0.000210104
0.000210103
0.000210105
0.00019046
0.000190322
0.000190456
0.000210097
0.000210096
0.000210097
0.000210096
0.000190324
0.000190461
0.000210108
0.000210089
0.000210108
0.000210089
0.000210097
0.00021011
0.000210097
0.000190316
0.000190449
0.000210106
0.000210105
0.000210106
0.000190453
0.000190314
0.000190459
0.000210098
0.000210096
0.000210098
0.000210096
0.000190319
0.000190461
0.000210108
0.000210089
0.000210108
0.00021009
0.000210097
0.000210111
0.000210098
0.000190308
0.000190452
0.000210107
0.000210106
0.000210107
0.000190457
0.000190318
0.000190456
0.000210099
0.000210097
0.000210098
0.000210096
0.000190321
0.000190459
0.000210109
0.00021009
0.000210108
0.00021009
0.000210098
0.000210111
0.000210098
0.000190312
0.00019045
0.000210108
0.000210106
0.000210107
0.000190455
0.000190316
0.000190457
0.000210099
0.000210097
0.000210098
0.000210096
0.000190318
0.000190461
0.000210109
0.00021009
0.000210108
0.00021009
0.000210098
0.000210111
0.000210098
0.00019031
0.000190451
0.000210108
0.000210106
0.000210107
0.000190455
0.000190316
0.000190458
0.000210098
0.000210097
0.000210098
0.000210096
0.00019032
0.000190461
0.000210109
0.00021009
0.000210108
0.00021009
0.000210098
0.000210111
0.000210098
0.00019031
0.000190451
0.000210107
0.000210106
0.000210107
0.000190455
0.000190317
0.000190457
0.000210099
0.000210097
0.000210098
0.000210097
0.00019032
0.000190461
0.000210109
0.00021009
0.000210108
0.00021009
0.000210098
0.000210111
0.000210098
0.000190311
0.000190451
0.000210107
0.000210106
0.000210107
0.000190455
0.000190317
0.000190457
0.000210098
0.000210097
0.000210098
0.000210097
0.00019032
0.000190461
0.000210108
0.00021009
0.000210108
0.00021009
0.000210098
0.000210111
0.000210098
0.000190311
0.000190451
0.000210107
0.000210106
0.000210107
0.000190455
0.000190317
0.000190458
0.000210099
0.000210097
0.000210099
0.000210096
0.00019032
0.000190461
0.000210108
0.00021009
0.000210108
0.00021009
0.000210098
0.000210111
0.000210098
0.000190311
0.000190451
0.000210107
0.000210106
0.000210107
0.000190455
0.000190317
0.000190458
0.000210099
0.000210097
0.000210099
0.000210097
0.00019032
0.000190461
0.000210108
0.00021009
0.000210108
0.00021009
0.000210098
0.000210111
0.000210098
0.000190311
0.000190452
0.000210107
0.000210106
0.000210107
0.000190455
0.000190317
0.000190458
0.000210099
0.000210097
0.000210099
0.000210097
0.00019032
0.000190461
0.000210108
0.00021009
0.000210108
0.00021009
0.000210098
0.000210111
0.000210098
0.000190311
0.000190452
0.000210107
0.000210106
0.000210107
0.000190455
0.000190318
0.000190458
0.000210099
0.000210097
0.000210099
0.000210097
0.000190321
0.000190461
0.000210108
0.00021009
0.000210108
0.00021009
0.000210098
0.000210111
0.000210098
0.000190312
0.000190451
0.000210107
0.000210106
0.000210107
0.000190455
0.000190317
0.000190458
0.000210099
0.000210097
0.000210099
0.000210097
0.000190321
0.000190461
0.000210108
0.00021009
0.000210108
0.00021009
0.000210098
0.000210111
0.000210098
0.000190311
0.000190452
0.000210107
0.000210105
0.000210107
0.000190455
0.000190318
0.0002101
0.000210097
0.000190321
0.000210109
0.00021009
0.000210099
0.000190311
0.000210108
0.000226693
0.000226694
0.000226692
0.000226693
4.98164e-05
4.88148e-05
4.98078e-05
4.88137e-05
2.58999e-05
2.5899e-05
4.98204e-05
4.88132e-05
4.98134e-05
4.88121e-05
0.000226694
0.000226692
0.000226693
0.000226694
0.000226694
0.000226692
0.000226693
0.000119168
6.06515e-05
0.000221197
0.000210165
0.000119139
6.06703e-05
0.000221198
2.58966e-05
2.58958e-05
0.000119163
0.000221195
6.06524e-05
0.000210155
0.000119137
0.000221195
6.06702e-05
3.60929e-05
3.60816e-05
0.000190536
3.60985e-05
3.60896e-05
4.98224e-05
4.88141e-05
4.98104e-05
4.88131e-05
2.58985e-05
2.58981e-05
4.98292e-05
4.88124e-05
4.98175e-05
4.88115e-05
0.000226694
0.000226692
0.000226694
0.000226692
0.000226694
0.000226691
0.000226693
0.00011917
6.06543e-05
0.000221198
0.000210161
0.000119141
6.06722e-05
0.000221196
2.58954e-05
2.5895e-05
0.000119163
0.000221194
6.06539e-05
0.000210153
0.000119135
0.000221192
6.06713e-05
3.6101e-05
3.60934e-05
0.000190534
3.6107e-05
3.60994e-05
4.98272e-05
4.88137e-05
4.98175e-05
4.88129e-05
2.58981e-05
2.5898e-05
4.98344e-05
4.88121e-05
4.98254e-05
4.88113e-05
0.000226694
0.000226691
0.000226693
0.000226692
0.000226692
0.00022669
0.000226691
0.000119169
6.06558e-05
0.000221195
0.00021016
0.000119144
6.06751e-05
0.000221194
2.58952e-05
2.5895e-05
0.00011917
0.000221192
6.06575e-05
0.000210153
0.00011914
0.000221192
6.06764e-05
3.6108e-05
3.61005e-05
0.000190533
3.61124e-05
3.61051e-05
4.98129e-05
4.88145e-05
4.98147e-05
4.88152e-05
2.58986e-05
2.58989e-05
4.98198e-05
4.88128e-05
4.98227e-05
4.88136e-05
0.000226691
0.000226688
0.00022669
0.000226666
0.000226668
0.000226663
0.000226665
0.000119152
6.06574e-05
0.000221192
0.000210153
0.000119136
6.06682e-05
0.000221188
2.58958e-05
2.5896e-05
0.000119151
0.00022119
6.06561e-05
0.000210144
0.000119137
0.000221185
6.06628e-05
3.61085e-05
3.60997e-05
0.000190512
3.61067e-05
3.60981e-05
4.97836e-05
4.88193e-05
4.97826e-05
4.88187e-05
2.58993e-05
2.58991e-05
4.97908e-05
4.88177e-05
4.97895e-05
4.88171e-05
0.000226667
0.000226663
0.000226664
0.000226673
0.000226673
0.000226671
0.000226673
0.000119073
6.06274e-05
0.000221158
0.000210107
0.000119068
6.06333e-05
0.000221157
2.58963e-05
2.5896e-05
0.000119076
0.000221154
6.06225e-05
0.0002101
0.000119057
0.000221154
6.06313e-05
3.60936e-05
3.60845e-05
0.000190454
3.60878e-05
3.60803e-05
4.97802e-05
4.88193e-05
4.97715e-05
4.88185e-05
2.58992e-05
2.5899e-05
4.97876e-05
4.88177e-05
4.97798e-05
4.88169e-05
0.000226675
0.000226673
0.000226674
0.000226675
0.000226675
0.000226673
0.000226674
0.000119076
6.06077e-05
0.000221163
0.00021011
0.000119047
6.06243e-05
0.000221163
2.58962e-05
2.5896e-05
0.000119079
0.000221162
6.06102e-05
0.000210105
0.00011905
0.000221162
6.06266e-05
3.60819e-05
3.60753e-05
0.000190458
3.60847e-05
3.60781e-05
4.97801e-05
4.88192e-05
4.97711e-05
4.88184e-05
2.58991e-05
2.5899e-05
4.97876e-05
4.88176e-05
4.97794e-05
4.88168e-05
0.000226675
0.000226673
0.000226674
0.000226675
0.000226675
0.000226673
0.000226674
0.000119075
6.06061e-05
0.000221163
0.00021011
0.000119047
6.06239e-05
0.000221163
2.58962e-05
2.5896e-05
0.000119078
0.000221162
6.06096e-05
0.000210105
0.00011905
0.000221162
6.06265e-05
3.60816e-05
3.60751e-05
0.000190454
3.60847e-05
3.60781e-05
4.97801e-05
4.88192e-05
4.97711e-05
4.88184e-05
2.58991e-05
2.5899e-05
4.97876e-05
4.88176e-05
4.97795e-05
4.88168e-05
0.000226675
0.000226674
0.000226675
0.000226675
0.000226675
0.000226673
0.000226674
0.000119075
6.06061e-05
0.000221163
0.000210111
0.000119047
6.06239e-05
0.000221163
2.58962e-05
2.5896e-05
0.000119078
0.000221162
6.06096e-05
0.000210106
0.00011905
0.000221162
6.06265e-05
3.60817e-05
3.60751e-05
0.000190455
3.60847e-05
3.60781e-05
4.97801e-05
4.88192e-05
4.97711e-05
4.88184e-05
2.58991e-05
2.5899e-05
4.97876e-05
4.88176e-05
4.97795e-05
4.88168e-05
0.000226675
0.000226674
0.000226675
0.000226675
0.000226675
0.000226673
0.000226674
0.000119075
6.06061e-05
0.000221163
0.000210111
0.000119047
6.06239e-05
0.000221164
2.58962e-05
2.5896e-05
0.000119078
0.000221162
6.06096e-05
0.000210106
0.00011905
0.000221162
6.06265e-05
3.60817e-05
3.60751e-05
0.000190456
3.60847e-05
3.60781e-05
4.97801e-05
4.88192e-05
4.97711e-05
4.88185e-05
2.58991e-05
2.5899e-05
4.97876e-05
4.88176e-05
4.97795e-05
4.88168e-05
0.000226675
0.000226673
0.000226675
0.000226675
0.000226675
0.000226673
0.000226674
0.000119075
6.06061e-05
0.000221163
0.000210111
0.000119047
6.06239e-05
0.000221164
2.58962e-05
2.5896e-05
0.000119078
0.000221162
6.06095e-05
0.000210106
0.00011905
0.000221162
6.06267e-05
3.60817e-05
3.60751e-05
0.000190456
3.60847e-05
3.60781e-05
4.97801e-05
4.88197e-05
4.97711e-05
4.88193e-05
2.58988e-05
2.58986e-05
4.97876e-05
4.88172e-05
4.97795e-05
4.88163e-05
0.000226675
0.000226673
0.000226674
0.000226675
0.000226675
0.000226673
0.000226674
0.000119075
6.06062e-05
0.000221163
0.000210111
0.000119047
6.06239e-05
0.000221164
2.58962e-05
2.5896e-05
0.000119079
0.000221162
6.06096e-05
0.000210106
0.00011905
0.000221162
6.06268e-05
3.60817e-05
3.60751e-05
0.000190455
3.60847e-05
3.60781e-05
4.97801e-05
4.88204e-05
4.97711e-05
4.88197e-05
2.58987e-05
2.58985e-05
4.97876e-05
4.88167e-05
4.97795e-05
4.88159e-05
0.000226675
0.000226673
0.000226675
0.000226675
0.000226675
0.000226673
0.000226674
0.000119076
6.06061e-05
0.000221164
0.000210111
0.000119047
6.06239e-05
0.000221164
2.58962e-05
2.5896e-05
0.000119077
0.000221162
6.06097e-05
0.000210106
0.000119049
0.000221162
6.06268e-05
3.60817e-05
3.60751e-05
0.000190455
3.60847e-05
3.60781e-05
4.97801e-05
4.88205e-05
4.97711e-05
4.88198e-05
2.58986e-05
2.58985e-05
4.97876e-05
4.88166e-05
4.97795e-05
4.88159e-05
0.000226675
0.000226673
0.000226675
0.000226675
0.000226675
0.000226673
0.000226674
0.000119075
6.06062e-05
0.000221163
0.000210111
0.000119048
6.06239e-05
0.000221164
2.58962e-05
2.5896e-05
0.000119076
0.000221162
6.06097e-05
0.000210106
0.000119047
0.000221162
6.06268e-05
3.60817e-05
3.60751e-05
0.000190455
3.60847e-05
3.60781e-05
4.97801e-05
4.88206e-05
4.97711e-05
4.88199e-05
2.58986e-05
2.58984e-05
4.97876e-05
4.88166e-05
4.97794e-05
4.88158e-05
0.000226675
0.000226673
0.000226675
0.000226675
0.000226675
0.000226673
0.000226674
0.000119075
6.06062e-05
0.000221163
0.000210111
0.000119047
6.06239e-05
0.000221164
2.58962e-05
2.5896e-05
0.000119076
0.000221162
6.06097e-05
0.000210106
0.000119047
0.000221162
6.06268e-05
3.60817e-05
3.60751e-05
0.000190455
3.60847e-05
3.60781e-05
4.97801e-05
4.88206e-05
4.97711e-05
4.88199e-05
2.58986e-05
2.58984e-05
4.97876e-05
4.88166e-05
4.97794e-05
4.88158e-05
0.000226675
0.000226674
0.000226675
0.000226675
0.000226675
0.000226673
0.000226674
0.000119075
6.06061e-05
0.000221164
0.000210111
0.000119047
6.06239e-05
0.000221164
2.58962e-05
2.5896e-05
0.000119076
0.000221162
6.06097e-05
0.000210106
0.000119047
0.000221162
6.06269e-05
3.60816e-05
3.60751e-05
0.000190455
3.60847e-05
3.60781e-05
4.97801e-05
4.88207e-05
4.97711e-05
4.88199e-05
2.58986e-05
2.58984e-05
4.97876e-05
4.88166e-05
4.97795e-05
4.88159e-05
0.000226676
0.000226673
0.000226675
0.000226675
0.000226675
0.000226673
0.000226674
0.000119075
6.06062e-05
0.000221164
0.000210111
0.000119047
6.06239e-05
0.000221164
2.58962e-05
2.5896e-05
0.000119076
0.000221162
6.06098e-05
0.000210106
0.000119047
0.000221163
6.06269e-05
3.60816e-05
3.60751e-05
0.000190455
3.60847e-05
3.60781e-05
4.97801e-05
4.88207e-05
4.97711e-05
4.88199e-05
2.58986e-05
2.58984e-05
4.97876e-05
4.88166e-05
4.97795e-05
4.88159e-05
0.000226676
0.000226673
0.000226675
0.000226675
0.000226675
0.000226673
0.000226674
0.000119075
6.06062e-05
0.000221163
0.000210111
0.000119047
6.06239e-05
0.000221164
2.58962e-05
2.5896e-05
0.000119076
0.000221162
6.06098e-05
0.000210106
0.000119047
0.000221163
6.06269e-05
3.60817e-05
3.60751e-05
0.000190455
3.60847e-05
3.60782e-05
4.88207e-05
4.97712e-05
2.58986e-05
4.88166e-05
4.97795e-05
0.000226676
0.000226674
0.000226675
6.06062e-05
0.000221164
0.000119047
2.58962e-05
0.000221163
6.06098e-05
0.000119046
3.60817e-05
3.60752e-05
2.58994e-05
2.59005e-05
2.58982e-05
2.58992e-05
0.000190385
3.6081e-05
3.60839e-05
3.60771e-05
3.60787e-05
4.98064e-05
4.88141e-05
4.88159e-05
4.98167e-05
4.98071e-05
4.88159e-05
4.88175e-05
4.9817e-05
0.000119141
0.000210149
6.06648e-05
0.000221195
6.06481e-05
0.000221195
0.000119165
0.000119143
0.000210148
6.06696e-05
0.000221195
6.06538e-05
0.000221195
0.000119167
2.59e-05
3.60842e-05
3.6081e-05
2.59003e-05
4.98153e-05
4.88126e-05
4.88142e-05
4.98222e-05
0.000119143
0.00021016
6.06666e-05
0.000221196
6.06506e-05
0.000221196
0.000119167
4.98139e-05
4.88089e-05
4.88107e-05
4.98195e-05
0.000119142
0.000210141
0.000221193
6.06547e-05
0.000221193
6.06381e-05
0.000119165
6.06689e-05
0.000221197
0.000221197
0.000119166
4.8814e-05
4.98152e-05
0.00021015
0.000221196
6.06607e-05
0.000221196
0.000119166
4.88117e-05
4.98148e-05
2.58965e-05
2.58976e-05
0.000190379
3.60733e-05
3.60896e-05
3.60697e-05
3.60846e-05
2.58991e-05
2.59001e-05
0.000119144
0.000210157
0.000221195
6.06689e-05
0.000221195
6.06531e-05
0.000119165
0.000119143
0.000210158
0.000221195
6.06657e-05
0.000221195
6.06495e-05
0.000119167
4.98145e-05
4.8812e-05
4.88136e-05
4.98202e-05
4.98151e-05
4.88118e-05
4.88135e-05
4.98216e-05
0.000190384
3.60954e-05
3.60831e-05
3.60779e-05
2.5899e-05
2.58979e-05
2.5899e-05
2.58994e-05
2.58986e-05
2.58982e-05
2.58974e-05
3.60802e-05
3.60831e-05
0.000190536
3.60897e-05
3.60908e-05
2.58981e-05
2.58987e-05
2.5897e-05
2.58975e-05
0.000190396
3.60953e-05
3.60966e-05
3.60888e-05
3.60901e-05
4.98156e-05
4.88163e-05
4.98095e-05
4.88154e-05
0.000119165
6.06494e-05
0.000221195
0.00021015
0.000119142
6.06666e-05
0.000221195
0.000119167
6.0655e-05
0.000221195
0.000210149
0.000119144
6.06707e-05
0.000221195
4.98092e-05
4.88133e-05
4.88142e-05
4.98183e-05
4.98084e-05
4.88151e-05
4.88159e-05
4.98181e-05
0.000119141
0.000210151
6.06676e-05
0.000221195
6.06513e-05
0.000221196
0.000119165
0.000119143
0.000210149
6.06711e-05
0.000221195
6.06561e-05
0.000221195
0.000119166
3.60823e-05
3.6077e-05
0.00019054
3.6089e-05
3.60847e-05
2.59004e-05
2.58993e-05
2.58985e-05
2.58991e-05
0.0001904
3.60954e-05
3.60928e-05
3.60881e-05
3.60848e-05
2.58987e-05
2.58994e-05
0.000119166
6.06519e-05
0.000221197
0.000210161
0.000119144
6.06681e-05
0.000221197
4.98181e-05
4.88094e-05
4.98123e-05
4.88084e-05
0.000119165
0.000221194
6.06393e-05
0.000210142
0.000119142
0.000221193
6.06566e-05
4.98145e-05
4.88117e-05
4.88126e-05
4.98242e-05
0.000119143
0.000210161
6.06687e-05
0.000221197
6.06533e-05
0.000221197
0.000119166
4.98124e-05
4.88081e-05
4.88089e-05
4.98224e-05
0.000119141
0.000210142
0.000221193
6.06581e-05
0.000221194
6.06412e-05
0.000119165
4.98188e-05
4.88145e-05
4.98088e-05
4.88135e-05
0.000119168
0.000221197
6.06476e-05
0.000210151
0.000119142
0.000221197
6.06677e-05
4.98185e-05
4.88121e-05
4.98085e-05
4.88113e-05
0.000119144
0.000210164
6.06718e-05
0.000221198
6.06551e-05
0.000221198
0.000119168
4.98124e-05
4.88131e-05
4.8814e-05
4.98221e-05
0.000119145
0.000210151
0.000221197
6.06719e-05
0.000221197
6.06538e-05
0.00011917
4.98121e-05
4.8811e-05
4.88117e-05
4.98219e-05
3.60713e-05
3.60885e-05
0.00019053
3.60804e-05
3.60962e-05
2.58991e-05
2.58983e-05
2.58953e-05
2.58959e-05
0.00019039
3.60863e-05
3.61018e-05
3.60792e-05
3.60952e-05
2.58979e-05
2.58984e-05
0.000119166
0.000221196
6.06508e-05
0.000210159
0.000119143
0.000221196
6.06672e-05
4.98185e-05
4.88124e-05
4.98129e-05
4.88115e-05
4.98198e-05
4.88122e-05
4.98142e-05
4.88113e-05
0.000119139
0.000210156
0.000221195
6.06707e-05
0.000221195
6.06556e-05
0.000119162
0.000119141
0.000210159
0.000221195
6.06678e-05
0.000221196
6.06522e-05
0.000119166
4.98128e-05
4.88112e-05
4.88119e-05
4.98227e-05
4.98138e-05
4.8811e-05
4.88118e-05
4.98237e-05
2.5899e-05
2.58982e-05
2.58979e-05
2.58972e-05
0.000190396
3.61029e-05
3.60952e-05
3.6097e-05
3.60887e-05
2.58977e-05
2.58982e-05
2.58967e-05
2.58973e-05
2.58983e-05
2.58979e-05
2.58971e-05
2.58967e-05
3.60934e-05
3.60955e-05
0.000190534
3.60991e-05
3.6101e-05
2.58978e-05
2.58981e-05
2.58967e-05
2.58969e-05
0.000190394
3.61022e-05
3.61044e-05
3.60969e-05
3.60995e-05
4.98228e-05
4.88156e-05
4.98121e-05
4.88149e-05
0.000119167
6.06519e-05
0.000221193
0.000210147
0.000119142
6.06682e-05
0.000221193
0.000119168
6.06563e-05
0.000221192
0.000210148
0.000119143
6.06718e-05
0.000221192
4.98161e-05
4.8813e-05
4.88137e-05
4.98257e-05
4.98166e-05
4.88147e-05
4.88154e-05
4.98263e-05
0.000119143
0.000210147
6.06704e-05
0.000221192
6.06529e-05
0.000221192
0.000119167
0.000119145
0.000210148
6.06742e-05
0.000221192
6.06573e-05
0.000221191
0.00011917
3.60943e-05
3.60913e-05
0.000190539
3.61005e-05
3.60973e-05
2.58989e-05
2.58983e-05
2.5898e-05
2.58983e-05
0.000190398
3.61045e-05
3.61008e-05
3.6099e-05
3.60952e-05
2.58982e-05
2.58986e-05
0.000119168
6.06537e-05
0.000221194
0.000210157
0.000119144
6.06693e-05
0.000221193
4.98275e-05
4.88087e-05
4.98174e-05
4.88079e-05
0.000119167
0.000221191
6.06426e-05
0.00021014
0.000119142
0.00022119
6.06592e-05
4.98239e-05
4.88114e-05
4.8812e-05
4.98328e-05
0.000119146
0.000210157
6.06716e-05
0.000221193
6.06547e-05
0.000221193
0.00011917
4.98221e-05
4.88078e-05
4.88085e-05
4.98311e-05
0.000119144
0.00021014
0.00022119
6.0661e-05
0.000221189
6.06437e-05
0.000119169
4.98249e-05
4.88137e-05
4.98156e-05
4.88129e-05
0.000119173
0.000221197
6.06576e-05
0.00021015
0.000119147
0.000221196
6.0675e-05
4.98248e-05
4.88115e-05
4.98154e-05
4.88108e-05
0.000119146
0.000210161
6.0673e-05
0.000221195
6.06565e-05
0.000221195
0.000119171
4.98183e-05
4.88127e-05
4.88134e-05
4.98273e-05
0.000119149
0.00021015
0.000221195
6.06773e-05
0.000221196
6.06605e-05
0.000119173
4.98182e-05
4.88107e-05
4.88113e-05
4.98271e-05
3.60843e-05
3.61005e-05
0.000190527
3.60903e-05
3.61061e-05
2.5898e-05
2.58976e-05
2.5895e-05
2.58953e-05
0.000190388
3.60935e-05
3.61095e-05
3.60881e-05
3.61045e-05
2.58976e-05
2.58978e-05
0.000119167
0.000221193
6.06527e-05
0.000210158
0.000119142
0.000221193
6.06685e-05
4.98276e-05
4.88116e-05
4.98176e-05
4.88109e-05
4.98287e-05
4.88115e-05
4.98185e-05
4.88108e-05
0.00011914
0.000210153
0.00022119
6.06737e-05
0.000221191
6.06568e-05
0.000119167
0.000119143
0.000210157
0.000221193
6.06707e-05
0.000221192
6.06536e-05
0.000119169
4.98222e-05
4.88108e-05
4.88114e-05
4.98313e-05
4.98231e-05
4.88106e-05
4.88113e-05
4.98323e-05
2.58978e-05
2.58974e-05
2.58968e-05
2.58965e-05
0.000190394
3.61104e-05
3.61028e-05
3.61053e-05
3.60978e-05
2.58973e-05
2.58976e-05
2.58964e-05
2.58966e-05
2.58981e-05
2.58979e-05
2.58969e-05
2.58967e-05
3.60998e-05
3.61027e-05
0.000190534
3.61044e-05
3.61067e-05
2.58983e-05
2.58982e-05
2.58971e-05
2.5897e-05
0.000190394
3.61035e-05
3.61057e-05
3.61017e-05
3.61047e-05
4.98277e-05
4.88152e-05
4.98197e-05
4.88146e-05
0.000119167
6.06553e-05
0.000221193
0.000210146
0.000119142
6.06729e-05
0.000221193
0.000119168
6.06602e-05
0.000221193
0.000210148
0.000119146
6.0677e-05
0.000221194
4.98201e-05
4.88134e-05
4.88136e-05
4.98257e-05
4.98206e-05
4.88146e-05
4.88151e-05
4.98263e-05
0.00011914
0.000210147
6.06714e-05
0.000221193
6.06576e-05
0.000221194
0.000119163
0.00011914
0.000210146
6.06772e-05
0.000221193
6.06627e-05
0.000221194
0.000119163
3.61028e-05
3.60987e-05
0.000190539
3.61073e-05
3.61034e-05
2.58984e-05
2.58982e-05
2.58983e-05
2.58982e-05
0.000190399
3.61078e-05
3.61045e-05
3.61053e-05
3.61009e-05
2.58984e-05
2.58985e-05
0.000119168
6.06572e-05
0.000221193
0.000210156
0.000119144
6.06742e-05
0.000221194
4.98326e-05
4.88083e-05
4.98254e-05
4.88077e-05
0.000119168
0.000221191
6.06457e-05
0.000210138
0.000119145
0.000221192
6.06631e-05
4.98282e-05
4.88117e-05
4.88119e-05
4.9833e-05
0.000119145
0.000210157
6.06727e-05
0.000221194
6.06595e-05
0.000221195
0.000119165
4.98264e-05
4.88081e-05
4.88083e-05
4.98312e-05
0.00011914
0.000210139
0.000221191
6.06614e-05
0.000221192
6.06476e-05
0.000119161
4.98285e-05
4.88133e-05
4.98205e-05
4.88126e-05
0.000119169
0.000221193
6.06627e-05
0.00021015
0.000119148
0.000221192
6.06788e-05
4.98281e-05
4.88112e-05
4.98203e-05
4.88107e-05
0.000119146
0.000210159
6.06759e-05
0.000221194
6.06599e-05
0.000221194
0.000119165
4.98213e-05
4.88126e-05
4.88132e-05
4.98278e-05
0.000119141
0.000210149
0.000221192
6.06776e-05
0.000221193
6.06639e-05
0.000119163
4.98208e-05
4.8811e-05
4.88113e-05
4.98272e-05
3.60909e-05
3.61077e-05
0.000190527
3.60955e-05
3.61118e-05
2.58978e-05
2.58976e-05
2.58954e-05
2.58954e-05
0.000190387
3.60943e-05
3.61109e-05
3.60927e-05
3.61097e-05
2.5898e-05
2.58979e-05
0.000119173
0.000221193
6.06561e-05
0.000210155
0.000119146
0.000221194
6.06733e-05
4.98332e-05
4.88113e-05
4.98256e-05
4.88107e-05
4.98342e-05
4.88111e-05
4.98265e-05
4.88105e-05
0.000119146
0.000210152
0.000221192
6.06751e-05
0.000221193
6.06619e-05
0.000119168
0.000119144
0.000210156
0.000221193
6.06719e-05
0.000221195
6.06584e-05
0.000119165
4.98271e-05
4.88111e-05
4.88113e-05
4.98322e-05
4.98278e-05
4.88109e-05
4.88111e-05
4.98328e-05
2.58975e-05
2.58974e-05
2.58966e-05
2.58965e-05
0.000190393
3.61126e-05
3.61041e-05
3.61104e-05
3.6103e-05
2.58976e-05
2.58976e-05
2.58969e-05
2.58967e-05
2.58987e-05
2.58989e-05
2.58974e-05
2.58977e-05
3.60991e-05
3.61019e-05
0.000190511
3.60974e-05
3.60996e-05
2.5899e-05
2.58992e-05
2.58978e-05
2.58979e-05
0.000190357
3.60885e-05
3.60914e-05
3.60925e-05
3.60953e-05
4.98136e-05
4.88153e-05
4.9817e-05
4.88161e-05
0.000119147
6.06534e-05
0.00022119
0.000210137
0.000119133
6.06589e-05
0.000221185
0.000119149
6.06608e-05
0.00022119
0.000210137
0.000119134
6.06666e-05
0.000221185
4.98005e-05
4.88183e-05
4.88169e-05
4.97951e-05
4.98012e-05
4.88199e-05
4.88176e-05
4.97957e-05
0.000119112
0.000210121
6.06401e-05
0.000221158
6.06384e-05
0.00022117
0.000119094
0.000119114
0.000210125
6.06474e-05
0.000221158
6.06469e-05
0.000221171
0.000119096
3.61044e-05
3.61009e-05
0.000190524
3.61029e-05
3.61001e-05
2.58988e-05
2.5899e-05
2.58992e-05
2.58992e-05
0.000190374
3.60959e-05
3.60931e-05
3.60985e-05
3.60952e-05
2.58994e-05
2.58994e-05
0.000119148
6.06553e-05
0.000221192
0.000210147
0.000119135
6.06601e-05
0.000221186
4.98183e-05
4.8809e-05
4.98227e-05
4.88099e-05
0.000119147
0.000221188
6.06433e-05
0.000210128
0.000119132
0.000221183
6.06489e-05
4.98082e-05
4.88167e-05
4.88152e-05
4.98014e-05
0.000119113
0.000210131
6.06412e-05
0.000221158
6.06402e-05
0.000221171
0.000119094
4.98066e-05
4.88131e-05
4.88115e-05
4.97999e-05
0.000119112
0.000210112
0.000221155
6.063e-05
0.000221168
6.06282e-05
0.000119093
4.98177e-05
4.88133e-05
4.98194e-05
4.88135e-05
0.00011915
0.000221191
6.06609e-05
0.000210138
0.000119134
0.000221187
6.06669e-05
4.98171e-05
4.88118e-05
4.98188e-05
4.88124e-05
0.00011912
0.000210144
6.06502e-05
0.000221165
6.06485e-05
0.000221178
0.00011911
4.98055e-05
4.88166e-05
4.88147e-05
4.97993e-05
0.000119118
0.000210123
0.000221162
6.0648e-05
0.000221175
6.06472e-05
0.000119108
4.98049e-05
4.88158e-05
4.88136e-05
4.97988e-05
3.60898e-05
3.61069e-05
0.000190505
3.60882e-05
3.61049e-05
2.58984e-05
2.58985e-05
2.58961e-05
2.58963e-05
0.000190351
3.60797e-05
3.60967e-05
3.6083e-05
3.61004e-05
2.58987e-05
2.58988e-05
0.000119149
0.000221191
6.06544e-05
0.000210146
0.000119135
0.000221185
6.06594e-05
4.98192e-05
4.88119e-05
4.98237e-05
4.88128e-05
4.98197e-05
4.88117e-05
4.98241e-05
4.88126e-05
0.000119115
0.000210129
0.000221158
6.06437e-05
0.000221171
6.0643e-05
0.000119097
0.000119113
0.00021013
0.000221157
6.06404e-05
0.00022117
6.06393e-05
0.000119095
4.98075e-05
4.88161e-05
4.88145e-05
4.98007e-05
4.98079e-05
4.88159e-05
4.88142e-05
4.98012e-05
2.5898e-05
2.58983e-05
2.58972e-05
2.58974e-05
0.000190358
3.6099e-05
3.609e-05
3.61021e-05
3.60937e-05
2.58985e-05
2.58986e-05
2.58975e-05
2.58977e-05
2.58992e-05
2.58989e-05
2.5898e-05
2.58977e-05
3.60838e-05
3.60863e-05
0.000190454
3.60789e-05
3.6082e-05
2.58988e-05
2.58991e-05
2.58977e-05
2.58979e-05
0.000190316
3.60763e-05
3.608e-05
3.60749e-05
3.60787e-05
4.97845e-05
4.88207e-05
4.97845e-05
4.88204e-05
0.000119072
6.062e-05
0.000221154
0.000210093
0.000119056
6.06275e-05
0.000221155
0.000119074
6.06279e-05
0.000221154
0.000210093
0.000119058
6.06334e-05
0.000221155
4.97751e-05
4.88186e-05
4.88193e-05
4.97807e-05
4.97759e-05
4.88202e-05
4.88209e-05
4.97815e-05
0.000119048
0.000210094
6.06234e-05
0.00022116
6.06101e-05
0.000221157
0.000119074
0.00011905
0.000210092
6.06284e-05
0.000221161
6.06166e-05
0.000221157
0.000119077
3.60911e-05
3.60884e-05
0.00019046
3.6085e-05
3.60828e-05
2.58996e-05
2.58993e-05
2.5899e-05
2.58993e-05
0.000190317
3.60807e-05
3.60764e-05
3.60806e-05
3.60784e-05
2.58992e-05
2.58996e-05
0.000119074
6.06218e-05
0.000221155
0.000210104
0.000119056
6.0629e-05
0.000221156
4.97893e-05
4.8814e-05
4.97896e-05
4.88135e-05
0.000119073
0.000221152
6.06098e-05
0.000210085
0.000119055
0.000221153
6.06174e-05
4.97832e-05
4.8817e-05
4.88176e-05
4.97881e-05
0.000119051
0.000210104
6.06252e-05
0.000221161
6.06124e-05
0.000221158
0.000119077
4.97816e-05
4.88134e-05
4.88141e-05
4.97864e-05
0.000119049
0.000210085
0.000221159
6.06134e-05
0.000221155
6.06e-05
0.000119075
4.97854e-05
4.88182e-05
4.97875e-05
4.88184e-05
0.000119071
0.000221157
6.0628e-05
0.000210094
0.000119068
0.000221156
6.06331e-05
4.97849e-05
4.88169e-05
4.9787e-05
4.88167e-05
0.000119049
0.000210106
6.06262e-05
0.000221161
6.0615e-05
0.000221159
0.000119073
4.97762e-05
4.88184e-05
4.8819e-05
4.97809e-05
0.000119047
0.000210094
0.000221161
6.06278e-05
0.000221158
6.06159e-05
0.000119073
4.97758e-05
4.88166e-05
4.88172e-05
4.97805e-05
3.60746e-05
3.60914e-05
0.000190447
3.60701e-05
3.6087e-05
2.58989e-05
2.58986e-05
2.5896e-05
2.58963e-05
0.00019031
3.60679e-05
3.60851e-05
3.60659e-05
3.60835e-05
2.58986e-05
2.58988e-05
0.000119075
0.000221154
6.06208e-05
0.000210102
0.000119056
0.000221155
6.06281e-05
4.979e-05
4.88169e-05
4.97904e-05
4.88164e-05
4.97906e-05
4.88167e-05
4.97908e-05
4.88163e-05
0.000119052
0.000210102
0.00022116
6.06275e-05
0.000221158
6.06148e-05
0.000119077
0.00011905
0.000210103
0.000221161
6.06243e-05
0.000221158
6.06113e-05
0.000119077
4.97823e-05
4.88163e-05
4.8817e-05
4.97871e-05
4.97828e-05
4.88162e-05
4.88168e-05
4.97878e-05
2.58987e-05
2.58984e-05
2.58977e-05
2.58975e-05
0.000190316
3.60852e-05
3.60785e-05
3.60841e-05
3.60769e-05
2.58984e-05
2.58986e-05
2.58974e-05
2.58976e-05
2.58991e-05
2.58988e-05
2.58979e-05
2.58977e-05
3.60731e-05
3.60775e-05
0.00019046
3.60762e-05
3.60797e-05
2.58988e-05
2.58991e-05
2.58977e-05
2.58978e-05
0.000190319
3.60763e-05
3.60797e-05
3.60731e-05
3.60773e-05
4.97809e-05
4.88207e-05
4.97739e-05
4.88201e-05
0.000119075
6.06072e-05
0.000221162
0.000210098
0.00011905
6.06225e-05
0.000221162
0.000119078
6.06129e-05
0.000221162
0.000210096
0.000119052
6.06272e-05
0.000221162
4.97729e-05
4.88185e-05
4.88191e-05
4.97801e-05
4.97736e-05
4.88201e-05
4.88207e-05
4.97808e-05
0.000119051
0.000210098
6.06223e-05
0.000221162
6.06067e-05
0.000221163
0.000119075
0.000119053
0.000210096
6.06269e-05
0.000221162
6.06121e-05
0.000221163
0.000119077
3.60778e-05
3.60729e-05
0.000190465
3.608e-05
3.60757e-05
2.58995e-05
2.58992e-05
2.5899e-05
2.58992e-05
0.000190324
3.60799e-05
3.60756e-05
3.60774e-05
3.60726e-05
2.58992e-05
2.58995e-05
0.000119077
6.06097e-05
0.000221163
0.000210108
0.000119053
6.06244e-05
0.000221163
4.97859e-05
4.88139e-05
4.97797e-05
4.88133e-05
0.000119077
0.00022116
6.05972e-05
0.000210089
0.000119052
0.00022116
6.06126e-05
4.97812e-05
4.88169e-05
4.88174e-05
4.97876e-05
0.000119053
0.000210108
6.06242e-05
0.000221163
6.06092e-05
0.000221163
0.000119077
4.97794e-05
4.88133e-05
4.88139e-05
4.97858e-05
0.000119052
0.00021009
0.00022116
6.06123e-05
0.000221161
6.05966e-05
0.000119076
4.978e-05
4.88189e-05
4.97732e-05
4.88183e-05
0.000119075
0.000221162
6.06122e-05
0.000210097
0.000119049
0.000221163
6.06266e-05
4.97796e-05
4.88171e-05
4.97728e-05
4.88165e-05
0.000119053
0.00021011
6.06239e-05