/*--------------------------------*- C++ -*----------------------------------*\
| =========                 |                                                 |
| \\      /  F ield         | OpenFOAM: The Open Source CFD Toolbox           |
|  \\    /   O peration     | Version:  2206                                  |
|   \\  /    A nd           | Website:  www.openfoam.com                      |
|    \\/     M anipulation  |                                                 |
\*---------------------------------------------------------------------------*/
FoamFile
{
    version     2.0;
    format      ascii;
    arch        "LSB;label=32;scalar=64";
    class       surfaceScalarField;
    location    "19.5";
    object      phi;
}
// * * * * * * * * * * * * * * * * * * * * * * * * * * * * * * * * * * * * * //

dimensions      [0 3 -1 0 0 0 0];

oriented        oriented;

internalField   nonuniform List<scalar> 
83348
(
1.31953e-09
1.44598e-09
-0.00107661
-1.33392e-09
-1.2818e-09
0.00107661
-0.00107702
-1.18898e-06
-1.36024e-09
2.17301e-09
0.00107702
-2.42965e-07
1.19116e-06
2.42121e-07
8.70651e-07
-2.3476e-07
-8.70464e-07
2.32573e-07
-0.00107668
-1.18361e-06
-1.42169e-09
2.09545e-09
0.00107668
-2.40202e-07
1.1858e-06
2.39391e-07
8.70502e-07
-2.37346e-07
-8.70321e-07
2.3525e-07
-0.00026477
1.21702e-06
1.18373e-06
-2.22024e-07
-2.27254e-07
0.000262819
1.58327e-09
1.71253e-09
-0.00107661
-1.44275e-09
-1.39187e-09
0.00107661
-0.00107702
-1.18894e-06
-1.54749e-09
2.0786e-09
0.00107702
-2.42906e-07
1.1912e-06
2.42185e-07
8.70706e-07
-2.34682e-07
-8.70425e-07
2.32669e-07
-0.00107668
-1.18356e-06
-1.69478e-09
1.96452e-09
0.00107668
-2.40127e-07
1.18585e-06
2.39464e-07
8.70564e-07
-2.37247e-07
-8.70264e-07
2.35362e-07
-0.00026477
1.21697e-06
1.18368e-06
-2.21965e-07
-2.27189e-07
0.000262819
1.84637e-09
1.92934e-09
-0.00107661
-1.52056e-09
-1.50936e-09
0.00107661
-0.00107701
-1.1889e-06
-1.68257e-09
2.03918e-09
0.00107701
-2.42868e-07
1.19123e-06
2.42219e-07
8.70731e-07
-2.34614e-07
-8.70391e-07
2.32737e-07
-0.00107668
-1.18355e-06
-1.93302e-09
1.86898e-09
0.00107668
-2.40123e-07
1.18591e-06
2.39528e-07
8.70628e-07
-2.37225e-07
-8.70263e-07
2.35439e-07
-0.00026477
1.21697e-06
1.18365e-06
-2.21925e-07
-2.27197e-07
0.000262818
1.85832e-11
-5.52329e-11
-0.0010766
-5.46106e-10
-7.17511e-10
0.0010766
-0.00107701
-1.18905e-06
-8.98652e-10
2.32434e-09
0.00107701
-2.43032e-07
1.19103e-06
2.41987e-07
8.70383e-07
-2.34864e-07
-8.70681e-07
2.32395e-07
-0.00107667
-1.18394e-06
-1.64639e-11
2.819e-09
0.00107667
-2.40602e-07
1.18547e-06
2.38992e-07
8.69984e-07
-2.37878e-07
-8.70848e-07
2.34663e-07
-0.000264769
1.21738e-06
1.18395e-06
-2.22243e-07
-2.27654e-07
0.000262817
9.72279e-10
1.1675e-09
-0.00107661
-1.25725e-09
-1.13288e-09
0.00107661
-0.00107702
-1.18911e-06
-7.65564e-10
2.36786e-09
0.00107702
-2.43135e-07
1.19116e-06
2.4212e-07
8.70566e-07
-2.3529e-07
-8.70728e-07
2.32289e-07
-0.00107668
-1.18368e-06
-1.12248e-09
2.11239e-09
0.00107668
-2.40271e-07
1.18584e-06
2.39449e-07
8.70479e-07
-2.37691e-07
-8.70496e-07
2.35111e-07
-0.00026477
1.21706e-06
1.18383e-06
-2.22149e-07
-2.27328e-07
0.000262819
1.20323e-09
1.33144e-09
-0.00107661
-1.29172e-09
-1.24119e-09
0.00107661
-0.00107702
-1.189e-06
-1.29904e-09
2.14216e-09
0.00107702
-2.42997e-07
1.19121e-06
2.42184e-07
8.70674e-07
-2.3489e-07
-8.7057e-07
2.32582e-07
-0.00107668
-1.18365e-06
-1.31153e-09
2.11815e-09
0.00107668
-2.40253e-07
1.18584e-06
2.39434e-07
8.70505e-07
-2.37495e-07
-8.7044e-07
2.35234e-07
-0.000264771
1.21706e-06
1.18378e-06
-2.22065e-07
-2.27301e-07
0.000262819
1.19614e-09
1.30248e-09
-0.00107661
-1.26258e-09
-1.23631e-09
0.00107661
-0.00107702
-1.18901e-06
-1.3041e-09
2.16201e-09
0.00107702
-2.43013e-07
1.1912e-06
2.42172e-07
8.70675e-07
-2.3489e-07
-8.70569e-07
2.32581e-07
-0.00107668
-1.18366e-06
-1.29548e-09
2.14351e-09
0.00107668
-2.40263e-07
1.18583e-06
2.39427e-07
8.70503e-07
-2.37498e-07
-8.70443e-07
2.35231e-07
-0.000264771
1.21707e-06
1.18378e-06
-2.22067e-07
-2.27308e-07
0.000262819
1.20359e-09
1.30548e-09
-0.00107661
-1.26284e-09
-1.24106e-09
0.00107661
-0.00107702
-1.18901e-06
-1.30759e-09
2.16016e-09
0.00107702
-2.43011e-07
1.1912e-06
2.42172e-07
8.70676e-07
-2.34888e-07
-8.70567e-07
2.32582e-07
-0.00107668
-1.18366e-06
-1.29656e-09
2.14424e-09
0.00107668
-2.40263e-07
1.18583e-06
2.39426e-07
8.70505e-07
-2.37498e-07
-8.70442e-07
2.35233e-07
-0.000264771
1.21707e-06
1.18378e-06
-2.22065e-07
-2.27307e-07
0.000262819
1.2006e-09
1.30443e-09
-0.00107661
-1.26274e-09
-1.24081e-09
0.00107661
-0.00107702
-1.18901e-06
-1.30833e-09
2.16148e-09
0.00107702
-2.43013e-07
1.1912e-06
2.42172e-07
8.70676e-07
-2.34889e-07
-8.70568e-07
2.32581e-07
-0.00107668
-1.18366e-06
-1.29456e-09
2.1455e-09
0.00107668
-2.40264e-07
1.18583e-06
2.39426e-07
8.70507e-07
-2.375e-07
-8.70444e-07
2.35235e-07
-0.000264771
1.21707e-06
1.18377e-06
-2.22065e-07
-2.27308e-07
0.000262819
1.19529e-09
1.2853e-09
-0.00107661
-1.27808e-09
-1.25691e-09
0.00107661
-0.00107702
-1.18902e-06
-1.31541e-09
2.16257e-09
0.00107702
-2.43015e-07
1.1912e-06
2.42173e-07
8.70679e-07
-2.34885e-07
-8.70565e-07
2.32584e-07
-0.00107668
-1.18366e-06
-1.28875e-09
2.1275e-09
0.00107668
-2.4026e-07
1.18584e-06
2.39431e-07
8.70507e-07
-2.37503e-07
-8.70446e-07
2.35236e-07
-0.000264771
1.21708e-06
1.18376e-06
-2.22058e-07
-2.27309e-07
0.000262819
1.11742e-09
-8.87135e-09
-0.0010766
-1.27079e-09
-1.22739e-09
0.00107661
-0.00107702
-1.18902e-06
-1.32002e-09
2.15539e-09
0.00107702
-2.42969e-07
1.19121e-06
2.42156e-07
8.70678e-07
-2.34885e-07
-8.70565e-07
2.32582e-07
-0.00107668
-1.18366e-06
-1.28399e-09
2.13723e-09
0.00107668
-2.40262e-07
1.18583e-06
2.39429e-07
8.70504e-07
-2.37506e-07
-8.7045e-07
2.35233e-07
-0.000264771
1.21707e-06
1.18377e-06
-2.22063e-07
-2.2731e-07
0.000262819
1.152e-09
1.32429e-09
-0.00107661
-1.28332e-09
-1.21799e-09
0.00107661
-0.00107702
-1.18906e-06
-1.28147e-09
2.25171e-09
0.00107702
-2.40316e-07
1.19117e-06
2.39372e-07
8.70681e-07
-2.34863e-07
-8.70567e-07
2.32563e-07
-0.00107668
-1.18366e-06
-1.30274e-09
2.14381e-09
0.00107668
-2.40262e-07
1.18583e-06
2.39429e-07
8.70507e-07
-2.37504e-07
-8.70448e-07
2.35235e-07
-0.000264771
1.21707e-06
1.18378e-06
-2.22067e-07
-2.27305e-07
0.000262819
1.15098e-09
1.28954e-09
-0.00107661
-1.25234e-09
-1.22013e-09
0.00107661
-0.00107702
-1.18902e-06
-1.28561e-09
2.179e-09
0.00107702
-2.40274e-07
1.19121e-06
2.39412e-07
8.70671e-07
-2.34861e-07
-8.7057e-07
2.32559e-07
-0.00107668
-1.18366e-06
-1.29339e-09
2.15142e-09
0.00107668
-2.40264e-07
1.18583e-06
2.39427e-07
8.70504e-07
-2.37507e-07
-8.70451e-07
2.35232e-07
-0.000264771
1.21707e-06
1.18378e-06
-2.22069e-07
-2.27308e-07
0.000262819
1.16705e-09
1.28445e-09
-0.00107661
-1.24679e-09
-1.23025e-09
0.00107661
-0.00107702
-1.18902e-06
-1.29855e-09
2.17423e-09
0.00107702
-2.40275e-07
1.19121e-06
2.39414e-07
8.70676e-07
-2.34862e-07
-8.7057e-07
2.32563e-07
-0.00107668
-1.18366e-06
-1.2974e-09
2.15183e-09
0.00107668
-2.40265e-07
1.18583e-06
2.39428e-07
8.70506e-07
-2.37507e-07
-8.70449e-07
2.35235e-07
-0.000264771
1.21707e-06
1.18378e-06
-2.22069e-07
-2.27308e-07
0.000262819
1.18409e-09
1.28692e-09
-0.00107661
-1.24966e-09
-1.24179e-09
0.00107661
-0.00107702
-1.18902e-06
-1.30045e-09
2.16834e-09
0.00107702
-2.4027e-07
1.19121e-06
2.39412e-07
8.7067e-07
-2.34855e-07
-8.70565e-07
2.32554e-07
-0.00107668
-1.18366e-06
-1.29704e-09
2.14535e-09
0.00107668
-2.40258e-07
1.18583e-06
2.39425e-07
8.70501e-07
-2.37499e-07
-8.70445e-07
2.35228e-07
-0.000264771
1.21707e-06
1.18377e-06
-2.22062e-07
-2.27303e-07
0.000262819
1.1931e-09
1.28752e-09
-0.00107661
-1.25031e-09
-1.24433e-09
0.00107661
-0.00107702
-1.18901e-06
-1.30931e-09
2.16421e-09
0.00107702
-2.40267e-07
1.19121e-06
2.39409e-07
8.70667e-07
-2.34851e-07
-8.7056e-07
2.32549e-07
-0.00107668
-1.18365e-06
-1.30708e-09
2.14444e-09
0.00107668
-2.40255e-07
1.18583e-06
2.39422e-07
8.70498e-07
-2.37494e-07
-8.70441e-07
2.35224e-07
-0.000264771
1.21706e-06
1.18377e-06
-2.22059e-07
-2.273e-07
0.000262819
1.19809e-09
1.29183e-09
-0.00107661
-1.25106e-09
-1.24585e-09
0.00107661
-0.00107702
-1.18901e-06
-1.31352e-09
2.16217e-09
0.00107702
-2.40263e-07
1.19121e-06
2.39409e-07
8.70663e-07
-2.34841e-07
-8.70551e-07
2.32543e-07
-0.00107668
-1.18365e-06
-1.31156e-09
2.14422e-09
0.00107668
-2.40252e-07
1.18583e-06
2.39421e-07
8.70493e-07
-2.37484e-07
-8.70431e-07
2.35218e-07
-0.000264771
1.21706e-06
1.18377e-06
-2.22056e-07
-2.27298e-07
0.000262819
1.22631e-09
1.32525e-09
-0.00107661
-1.26238e-09
-1.25568e-09
-0.00107702
-1.18899e-06
-1.33955e-09
2.15653e-09
-2.4023e-07
1.19119e-06
2.39377e-07
8.70636e-07
-2.34786e-07
-8.70503e-07
2.32516e-07
-0.00107668
-1.18363e-06
-1.33688e-09
2.14053e-09
-2.40219e-07
1.18581e-06
2.39389e-07
8.70466e-07
-2.37429e-07
-8.70382e-07
2.35191e-07
-0.000264771
1.21704e-06
1.18375e-06
-2.22033e-07
-2.27274e-07
0.000262819
-1.22711e-06
-1.18855e-06
0.000264786
-0.000262824
2.21704e-07
2.31957e-07
0.00107623
-1.21931e-09
-0.00107623
2.26767e-09
-1.22496e-06
2.47399e-07
-2.48321e-07
-8.73094e-07
2.29762e-07
-2.32044e-07
8.73198e-07
1.22988e-06
0.00107668
-1.21328e-09
-0.00107668
2.28214e-09
-1.22774e-06
2.47459e-07
-2.48389e-07
-8.7872e-07
2.35237e-07
-2.37542e-07
8.78801e-07
-1.19116e-06
0.00026481
-0.000262842
2.24425e-07
2.29241e-07
0.00107729
-1.3883e-09
-0.00107729
2.13657e-09
-1.18639e-06
2.42153e-07
-2.42996e-07
-8.73177e-07
2.35301e-07
-2.37502e-07
8.73398e-07
1.22453e-06
0.00107635
-1.2353e-09
-0.00107635
2.26108e-09
-1.22239e-06
2.47451e-07
-2.48377e-07
-8.73162e-07
2.3521e-07
-2.37463e-07
8.73264e-07
-1.3266e-09
2.17307e-09
-1.18898e-06
2.42114e-07
-2.42966e-07
-8.70492e-07
2.32535e-07
8.70629e-07
-2.34804e-07
1.21917e-06
0.00107615
-1.2133e-09
-0.00107615
2.2614e-09
-1.21704e-06
2.41957e-07
-2.42859e-07
-8.7049e-07
2.3244e-07
-2.34723e-07
8.70565e-07
-1.18579e-06
0.000264765
-0.000262806
2.21871e-07
2.29214e-07
-1.36004e-09
-0.00107668
2.13219e-09
-1.18363e-06
2.39374e-07
-2.40216e-07
-8.70305e-07
2.35198e-07
8.70532e-07
-2.37407e-07
1.18589e-06
0.00107719
-1.35634e-09
-0.00107719
2.16172e-09
-1.18375e-06
2.39423e-07
-2.40283e-07
-8.70588e-07
2.35289e-07
-2.37488e-07
8.70782e-07
-0.000262819
2.24178e-07
2.29442e-07
1.22495e-06
1.18638e-06
-2.19543e-07
-2.2976e-07
0.000262824
-1.22715e-06
-1.18859e-06
0.000264786
-0.000262824
2.21764e-07
2.32018e-07
2.22068e-09
0.00107623
-2.48304e-07
1.22712e-06
2.47418e-07
8.73226e-07
-2.32007e-07
-8.73048e-07
2.29795e-07
-1.22775e-06
-1.27951e-09
2.3146e-09
0.00107667
-2.48399e-07
1.23252e-06
2.50175e-07
8.78824e-07
-2.37497e-07
-8.78687e-07
2.35273e-07
0.00107623
-1.39567e-09
-0.00107623
2.16583e-09
-1.22492e-06
2.47467e-07
-2.48259e-07
-8.73056e-07
2.29853e-07
-2.31961e-07
8.7324e-07
1.2299e-06
0.00107668
-1.38658e-09
-0.00107667
2.23008e-09
-1.23036e-06
2.47511e-07
-2.51057e-07
-8.7867e-07
2.35321e-07
-2.37449e-07
8.78846e-07
-2.22254e-07
-2.27073e-07
0.000262842
-1.19119e-06
0.00026481
-0.000262842
2.2448e-07
2.29292e-07
2.10363e-09
0.00107729
-2.42981e-07
1.18856e-06
2.4217e-07
8.7342e-07
-2.37465e-07
-8.73147e-07
2.35329e-07
-1.22238e-06
-1.32273e-09
2.22559e-09
0.00107635
-2.4836e-07
1.22454e-06
2.47469e-07
8.73288e-07
-2.37421e-07
-8.73123e-07
2.35245e-07
0.00107729
-1.58721e-09
-0.00107729
2.05025e-09
-1.18635e-06
2.42218e-07
-2.42937e-07
-8.73132e-07
2.35393e-07
-2.37415e-07
8.73449e-07
1.22457e-06
0.00107635
-1.41898e-09
-0.00107635
2.1753e-09
-1.22235e-06
2.47517e-07
-2.48316e-07
-8.73124e-07
2.353e-07
-2.3738e-07
8.73304e-07
-1.27619e-09
2.20831e-09
0.00107615
-2.42836e-07
1.21918e-06
2.41975e-07
8.70589e-07
-2.3468e-07
2.32475e-07
-8.70459e-07
-1.46511e-09
-0.00107702
2.09675e-09
-1.18895e-06
2.42163e-07
-2.42914e-07
-8.70444e-07
2.32622e-07
8.70663e-07
-2.34705e-07
1.21921e-06
0.00107615
-1.36578e-09
-0.00107615
2.15242e-09
-1.21699e-06
2.42022e-07
-2.42796e-07
-8.70447e-07
2.32522e-07
-2.34636e-07
8.70604e-07
-2.19693e-07
-2.27034e-07
0.000262806
-1.18583e-06
0.000264765
-0.000262806
2.2193e-07
2.29275e-07
-1.44044e-09
2.13414e-09
0.00107719
-2.40267e-07
1.1859e-06
2.39439e-07
8.70806e-07
-2.37443e-07
2.35321e-07
-8.70552e-07
-1.55131e-09
-0.00107668
2.04218e-09
-1.18359e-06
2.39439e-07
-2.40158e-07
-8.70261e-07
2.3529e-07
8.70582e-07
-2.37322e-07
1.18593e-06
0.00107719
-1.55954e-09
-0.00107719
2.08335e-09
-1.18371e-06
2.39486e-07
-2.40225e-07
-8.70543e-07
2.35381e-07
-2.37401e-07
8.70832e-07
-0.000262819
2.24234e-07
2.29498e-07
1.2249e-06
1.18633e-06
-2.19476e-07
-2.29694e-07
0.000262824
-1.22715e-06
-1.1886e-06
0.000264785
-0.000262823
2.21827e-07
2.3207e-07
2.08778e-09
0.00107623
-2.48229e-07
1.22717e-06
2.4749e-07
8.73286e-07
-2.31907e-07
-8.72997e-07
2.29909e-07
-1.2277e-06
-1.50391e-09
2.20621e-09
0.00107667
-2.48337e-07
1.23257e-06
2.50245e-07
8.78884e-07
-2.37417e-07
-8.78637e-07
2.35375e-07
0.00107623
-1.51212e-09
-0.00107623
2.1988e-09
-1.22489e-06
2.47478e-07
-2.48225e-07
-8.72991e-07
2.29916e-07
-2.31882e-07
8.73278e-07
1.23263e-06
0.00107667
-1.51315e-09
-0.00107667
2.14677e-09
-1.2303e-06
2.50309e-07
-2.51004e-07
-8.78607e-07
2.35434e-07
-2.37366e-07
8.7891e-07
-2.22201e-07
-2.27027e-07
0.000262842
-1.19125e-06
0.000264812
-0.000262842
2.24611e-07
2.29397e-07
1.96678e-09
0.00107729
-2.42906e-07
1.18861e-06
2.42243e-07
8.73483e-07
-2.37365e-07
-8.73089e-07
2.35442e-07
-1.22232e-06
-1.58318e-09
2.09064e-09
0.00107635
-2.48283e-07
1.22459e-06
2.47543e-07
8.73346e-07
-2.37324e-07
-8.73073e-07
2.35356e-07
0.00107729
-1.64502e-09
-0.00107729
2.02902e-09
-1.18631e-06
2.42241e-07
-2.42894e-07
-8.73085e-07
2.35446e-07
-2.37347e-07
8.73469e-07
1.22458e-06
0.00107635
-1.50235e-09
-0.00107635
2.16575e-09
-1.22231e-06
2.47536e-07
-2.48277e-07
-8.73066e-07
2.3536e-07
-2.37305e-07
8.73336e-07
-1.50119e-09
2.0883e-09
0.00107615
-2.42759e-07
1.21923e-06
2.42051e-07
8.70645e-07
-2.346e-07
2.32568e-07
-8.70416e-07
-1.63796e-09
-0.00107702
2.02867e-09
-1.18889e-06
2.42242e-07
-2.42856e-07
-8.70366e-07
2.32751e-07
8.70769e-07
-2.34611e-07
1.21922e-06
0.00107615
-1.50155e-09
-0.00107615
2.17996e-09
-1.21695e-06
2.42046e-07
-2.42743e-07
-8.70382e-07
2.32609e-07
-2.34563e-07
8.7068e-07
-2.19627e-07
-2.26968e-07
0.000262806
-1.18584e-06
0.000264764
-0.000262805
2.21987e-07
2.29333e-07
-1.71822e-09
2.00028e-09
0.00107719
-2.40193e-07
1.18595e-06
2.39512e-07
8.70872e-07
-2.37343e-07
2.35437e-07
-8.70494e-07
-1.63654e-09
-0.00107668
2.05106e-09
-1.18355e-06
2.39456e-07
-2.40117e-07
-8.70207e-07
2.35348e-07
8.70609e-07
-2.37247e-07
1.18595e-06
0.00107719
-1.61766e-09
-0.00107719
2.04962e-09
-1.18367e-06
2.39511e-07
-2.40184e-07
-8.7049e-07
2.3544e-07
-2.37327e-07
8.70859e-07
-0.000262818
2.24315e-07
2.29558e-07
1.22489e-06
1.18631e-06
-2.19464e-07
-2.29694e-07
0.000262823
-1.22697e-06
-1.18846e-06
0.000264785
-0.000262823
2.21622e-07
2.31834e-07
2.00109e-09
0.00107623
-2.4823e-07
1.22723e-06
2.4755e-07
8.73358e-07
-2.31885e-07
-8.72988e-07
2.29988e-07
-1.2303e-06
-1.66746e-09
2.13096e-09
0.00107667
-2.50996e-07
1.23262e-06
2.50312e-07
8.78916e-07
-2.37358e-07
-8.78629e-07
2.35436e-07
0.00107623
-8.69957e-10
-0.00107623
2.79491e-09
-1.22501e-06
2.4724e-07
-2.48397e-07
-8.73149e-07
2.29664e-07
-2.32045e-07
8.73042e-07
1.23275e-06
0.00107667
-1.346e-09
-0.00107667
1.79867e-09
-1.23017e-06
2.50431e-07
-2.50877e-07
-8.78673e-07
2.35396e-07
-2.37353e-07
8.78777e-07
-2.2217e-07
-2.26943e-07
0.000262842
-1.19131e-06
0.000264811
-0.000262841
2.2466e-07
2.29528e-07
1.83321e-09
0.00107729
-2.42893e-07
1.18868e-06
2.42318e-07
8.73539e-07
-2.37352e-07
-8.73097e-07
2.35511e-07
-1.22231e-06
-1.80535e-09
1.97881e-09
0.00107635
-2.48277e-07
1.22465e-06
2.4761e-07
8.7341e-07
-2.37307e-07
-8.73073e-07
2.3543e-07
0.00107729
-8.00914e-10
-0.00107729
2.36586e-09
-1.1864e-06
2.4204e-07
-2.43031e-07
-8.73276e-07
2.35161e-07
-2.37537e-07
8.73195e-07
1.22442e-06
0.00107635
-7.20973e-10
-0.00107635
2.55641e-09
-1.22241e-06
2.47324e-07
-2.48423e-07
-8.73249e-07
2.35087e-07
-2.37487e-07
8.73073e-07
-1.71042e-09
2.03995e-09
0.00107615
-2.42779e-07
1.21926e-06
2.42072e-07
8.70699e-07
-2.34551e-07
2.32657e-07
-8.70383e-07
-1.8766e-09
-0.00107701
1.84586e-09
-1.18881e-06
2.42316e-07
-2.42766e-07
-8.70301e-07
2.32815e-07
8.70782e-07
-2.34531e-07
1.21904e-06
0.00107614
-1.29576e-09
-0.00107614
2.69155e-09
-1.21706e-06
2.41814e-07
-2.429e-07
-8.70382e-07
2.32538e-07
-2.34588e-07
8.70618e-07
-2.19624e-07
-2.26961e-07
0.000262805
-1.18567e-06
0.000264764
-0.000262805
2.21769e-07
2.29113e-07
-1.94201e-09
1.86535e-09
0.00107719
-2.40177e-07
1.18602e-06
2.39587e-07
8.70922e-07
-2.37327e-07
2.35501e-07
-8.705e-07
-8.91761e-10
-0.00107667
2.48686e-09
-1.18366e-06
2.39238e-07
-2.40274e-07
-8.70384e-07
2.35078e-07
8.70348e-07
-2.37421e-07
1.18589e-06
0.00107719
-7.60102e-10
-0.00107719
2.22388e-09
-1.18368e-06
2.39374e-07
-2.40267e-07
-8.70683e-07
2.35151e-07
-2.37513e-07
8.70575e-07
-0.000262817
2.2423e-07
2.29317e-07
1.2253e-06
1.18668e-06
-2.19887e-07
-2.30147e-07
0.000262823
-1.22712e-06
-1.18853e-06
0.000264786
-0.000262824
2.21629e-07
2.31902e-07
3.12282e-09
0.00107623
-2.48733e-07
1.22677e-06
2.46992e-07
8.72738e-07
-2.3252e-07
-8.73548e-07
2.2923e-07
-1.23038e-06
-4.25367e-10
2.27116e-09
0.00107667
-2.5111e-07
1.23248e-06
2.50127e-07
8.78427e-07
-2.37755e-07
-8.79066e-07
2.34909e-07
0.00107623
-6.21321e-10
-0.00107623
2.30199e-09
-1.22509e-06
2.47418e-07
-2.48474e-07
-8.73391e-07
2.29466e-07
-2.32585e-07
8.73092e-07
1.23237e-06
0.00107667
-3.77794e-10
-0.00107667
2.81148e-09
-1.23071e-06
2.49983e-07
-2.51495e-07
-8.79039e-07
2.34836e-07
-2.38203e-07
8.78673e-07
-2.22327e-07
-2.27016e-07
0.000262841
-1.19104e-06
0.000264812
-0.000262842
2.24258e-07
2.28985e-07
2.71564e-09
0.00107729
-2.4336e-07
1.18825e-06
2.41794e-07
8.7289e-07
-2.38019e-07
-8.73691e-07
2.34725e-07
-1.22269e-06
9.84862e-11
2.90688e-09
0.00107635
-2.48753e-07
1.22422e-06
2.47079e-07
8.72768e-07
-2.3796e-07
-8.73658e-07
2.34657e-07
0.00107729
-8.71751e-10
-0.00107729
2.27617e-09
-1.18654e-06
2.42153e-07
-2.43163e-07
-8.73451e-07
2.35023e-07
-2.38022e-07
8.73318e-07
1.22452e-06
0.00107635
-6.85001e-10
-0.00107635
2.39096e-09
-1.22253e-06
2.47457e-07
-2.4854e-07
-8.73449e-07
2.34922e-07
-2.38e-07
8.73171e-07
-3.37077e-10
3.10957e-09
0.00107614
-2.43279e-07
1.2188e-06
2.41518e-07
8.70234e-07
-2.34983e-07
2.32108e-07
-8.70775e-07
-3.21571e-10
-0.00107702
2.59719e-09
-1.18926e-06
2.41953e-07
-2.4333e-07
-8.70891e-07
2.3205e-07
8.70436e-07
-2.35515e-07
1.21919e-06
0.00107615
-4.59752e-10
-0.00107615
2.29948e-09
-1.21715e-06
2.41989e-07
-2.43e-07
-8.7087e-07
2.32045e-07
-2.35364e-07
8.70403e-07
-2.20057e-07
-2.27399e-07
0.000262805
-1.18578e-06
0.000264765
-0.000262806
2.21803e-07
2.29151e-07
6.86036e-11
2.62038e-09
0.00107719
-2.40582e-07
1.18566e-06
2.39122e-07
8.7026e-07
-2.38002e-07
2.34706e-07
-8.71106e-07
-8.13623e-10
-0.00107668
2.24305e-09
-1.18377e-06
2.39378e-07
-2.40383e-07
-8.70579e-07
2.34917e-07
8.70449e-07
-2.37929e-07
1.18585e-06
0.00107719
-8.45564e-10
-0.00107719
2.36567e-09
-1.18393e-06
2.39393e-07
-2.40478e-07
-8.70858e-07
2.35012e-07
-2.38011e-07
8.70708e-07
-0.000262819
2.24061e-07
2.29396e-07
1.225e-06
1.18645e-06
-2.19638e-07
-2.29838e-07
0.000262824
-1.22716e-06
-1.1886e-06
0.000264786
-0.000262824
2.21736e-07
2.31993e-07
2.16962e-09
0.00107623
-2.48361e-07
1.22717e-06
2.47487e-07
8.73192e-07
-2.32367e-07
-8.73245e-07
2.29648e-07
-1.23056e-06
-7.99201e-10
2.56894e-09
0.00107667
-2.51317e-07
1.2325e-06
2.50148e-07
8.78767e-07
-2.37935e-07
-8.78902e-07
2.3507e-07
0.00107623
-1.18082e-09
-0.00107623
2.2176e-09
-1.22498e-06
2.47471e-07
-2.48344e-07
-8.73181e-07
2.29777e-07
-2.32159e-07
8.73224e-07
1.23259e-06
0.00107667
-1.18715e-09
-0.00107667
2.2846e-09
-1.23041e-06
2.5026e-07
-2.51132e-07
-8.78808e-07
2.35262e-07
-2.37649e-07
8.78831e-07
-2.2247e-07
-2.27304e-07
0.000262842
-1.19122e-06
0.000264812
-0.000262842
2.24509e-07
2.29295e-07
2.16262e-09
0.00107729
-2.43058e-07
1.18859e-06
2.42218e-07
8.73401e-07
-2.37807e-07
-8.73319e-07
2.35193e-07
-1.22244e-06
-1.02781e-09
2.26042e-09
0.00107635
-2.48429e-07
1.22458e-06
2.47525e-07
8.73269e-07
-2.3777e-07
-8.73305e-07
2.35109e-07
0.00107729
-1.37468e-09
-0.00107729
2.1238e-09
-1.18642e-06
2.42218e-07
-2.43027e-07
-8.7326e-07
2.35319e-07
-2.37611e-07
8.7343e-07
1.22458e-06
0.00107635
-1.22337e-09
-0.00107635
2.23468e-09
-1.22241e-06
2.47518e-07
-2.48405e-07
-8.73245e-07
2.3523e-07
-2.37572e-07
8.73292e-07
-8.27935e-10
2.16373e-09
0.00107615
-2.42883e-07
1.21924e-06
2.42053e-07
8.70536e-07
-2.35125e-07
2.32262e-07
-8.70693e-07
-1.29175e-09
-0.00107702
2.1361e-09
-1.189e-06
2.42195e-07
-2.42985e-07
-8.70576e-07
2.32577e-07
8.70671e-07
-2.34906e-07
1.21922e-06
0.00107615
-1.17072e-09
-0.00107615
2.21576e-09
-1.21706e-06
2.42028e-07
-2.42881e-07
-8.70573e-07
2.32462e-07
-2.34838e-07
8.70607e-07
-2.19779e-07
-2.27121e-07
0.000262806
-1.18584e-06
0.000264765
-0.000262806
2.21906e-07
2.29247e-07
-1.16601e-09
2.23982e-09
0.00107719
-2.40371e-07
1.18591e-06
2.39464e-07
8.70793e-07
-2.37784e-07
2.35189e-07
-8.7072e-07
-1.33535e-09
-0.00107668
2.09574e-09
-1.18365e-06
2.39444e-07
-2.40241e-07
-8.70389e-07
2.35214e-07
8.70562e-07
-2.37519e-07
1.18594e-06
0.00107719
-1.33393e-09
-0.00107719
2.15837e-09
-1.18377e-06
2.39485e-07
-2.40319e-07
-8.70671e-07
2.35306e-07
-2.37597e-07
8.70813e-07
-0.000262819
2.24215e-07
2.29473e-07
1.22499e-06
1.18642e-06
-2.19587e-07
-2.29802e-07
0.000262824
-1.22715e-06
-1.18859e-06
0.000264786
-0.000262824
2.21733e-07
2.31983e-07
2.24754e-09
0.00107623
-2.48355e-07
1.22716e-06
2.47462e-07
8.7323e-07
-2.32159e-07
-8.73172e-07
2.29779e-07
-1.23042e-06
-1.19571e-09
2.28174e-09
0.00107667
-2.51138e-07
1.23258e-06
2.50252e-07
8.78835e-07
-2.3764e-07
-8.78802e-07
2.35266e-07
0.00107623
-1.17155e-09
-0.00107623
2.2772e-09
-1.225e-06
2.47454e-07
-2.48365e-07
-8.73185e-07
2.29777e-07
-2.3216e-07
8.73223e-07
1.23258e-06
0.00107667
-1.18116e-09
-0.00107667
2.28809e-09
-1.23042e-06
2.50244e-07
-2.51149e-07
-8.78804e-07
2.3526e-07
-2.37646e-07
8.78834e-07
-2.22317e-07
-2.271e-07
0.000262842
-1.1912e-06
0.000264812
-0.000262842
2.24498e-07
2.29283e-07
2.13653e-09
0.00107729
-2.43036e-07
1.18859e-06
2.4221e-07
8.73424e-07
-2.37613e-07
-8.73265e-07
2.35314e-07
-1.22242e-06
-1.21274e-09
2.25229e-09
0.00107635
-2.48412e-07
1.22457e-06
2.47512e-07
8.73292e-07
-2.37571e-07
-8.73246e-07
2.35231e-07
0.00107729
-1.33514e-09
-0.00107729
2.13786e-09
-1.18643e-06
2.42209e-07
-2.4304e-07
-8.73267e-07
2.35313e-07
-2.37615e-07
8.73425e-07
1.22457e-06
0.00107635
-1.18706e-09
-0.00107635
2.26343e-09
-1.22243e-06
2.47506e-07
-2.4842e-07
-8.73253e-07
2.35224e-07
-2.37577e-07
8.73287e-07
-1.17428e-09
2.24302e-09
0.00107615
-2.4289e-07
1.21921e-06
2.42017e-07
8.70606e-07
-2.34827e-07
2.32466e-07
-8.7057e-07
-1.31265e-09
-0.00107702
2.16113e-09
-1.18901e-06
2.42174e-07
-2.4301e-07
-8.70569e-07
2.32582e-07
8.70676e-07
-2.3489e-07
1.21921e-06
0.00107615
-1.18907e-09
-0.00107615
2.26852e-09
-1.21707e-06
2.42011e-07
-2.42901e-07
-8.70573e-07
2.32468e-07
-2.34827e-07
8.70608e-07
-2.19735e-07
-2.27077e-07
0.000262806
-1.18583e-06
0.000264765
-0.000262806
2.21897e-07
2.29241e-07
-1.31994e-09
2.16781e-09
0.00107719
-2.40321e-07
1.18594e-06
2.3948e-07
8.70809e-07
-2.37593e-07
2.35304e-07
-8.70672e-07
-1.31213e-09
-0.00107668
2.13589e-09
-1.18366e-06
2.39429e-07
-2.40259e-07
-8.70394e-07
2.35211e-07
8.70558e-07
-2.37519e-07
1.18594e-06
0.00107719
-1.30328e-09
-0.00107719
2.15757e-09
-1.18378e-06
2.39481e-07
-2.40324e-07
-8.70678e-07
2.35301e-07
-2.376e-07
8.70807e-07
-0.000262819
2.24211e-07
2.29464e-07
1.225e-06
1.18643e-06
-2.19592e-07
-2.2981e-07
0.000262824
-1.22715e-06
-1.18859e-06
0.000264786
-0.000262824
2.21736e-07
2.31982e-07
2.28226e-09
0.00107623
-2.48367e-07
1.22715e-06
2.47452e-07
8.7323e-07
-2.32163e-07
-8.73175e-07
2.2978e-07
-1.23042e-06
-1.18302e-09
2.28668e-09
0.00107667
-2.51151e-07
1.23258e-06
2.50242e-07
8.78835e-07
-2.37644e-07
-8.78801e-07
2.35263e-07
0.00107623
-1.17999e-09
-0.00107623
2.27955e-09
-1.225e-06
2.47453e-07
-2.48365e-07
-8.73184e-07
2.29782e-07
-2.32161e-07
8.73226e-07
1.23258e-06
0.00107667
-1.18665e-09
-0.00107667
2.2839e-09
-1.23042e-06
2.50245e-07
-2.51148e-07
-8.78801e-07
2.3526e-07
-2.37644e-07
8.78834e-07
-2.22327e-07
-2.2711e-07
0.000262842
-1.1912e-06
0.000264812
-0.000262842
2.24498e-07
2.29285e-07
2.14211e-09
0.00107729
-2.43042e-07
1.18859e-06
2.42207e-07
8.7342e-07
-2.37619e-07
-8.73271e-07
2.35308e-07
-1.22242e-06
-1.18511e-09
2.26761e-09
0.00107635
-2.4842e-07
1.22457e-06
2.47506e-07
8.73288e-07
-2.37576e-07
-8.73251e-07
2.35226e-07
0.00107729
-1.33548e-09
-0.00107729
2.13085e-09
-1.18642e-06
2.4221e-07
-2.43037e-07
-8.73267e-07
2.35313e-07
-2.37614e-07
8.73425e-07
1.22457e-06
0.00107635
-1.1871e-09
-0.00107635
2.26375e-09
-1.22242e-06
2.47507e-07
-2.4842e-07
-8.73252e-07
2.35224e-07
-2.37577e-07
8.73287e-07
-1.18485e-09
2.26986e-09
0.00107615
-2.42901e-07
1.21921e-06
2.42009e-07
8.70607e-07
-2.34824e-07
2.32467e-07
-8.7057e-07
-1.32043e-09
-0.00107702
2.15972e-09
-1.18901e-06
2.42174e-07
-2.4301e-07
-8.70567e-07
2.32584e-07
8.70678e-07
-2.34889e-07
1.21921e-06
0.00107615
-1.1978e-09
-0.00107615
2.26957e-09
-1.21707e-06
2.42011e-07
-2.42901e-07
-8.70571e-07
2.32469e-07
-2.34825e-07
8.7061e-07
-2.19742e-07
-2.27082e-07
0.000262806
-1.18583e-06
0.000264765
-0.000262806
2.21897e-07
2.29241e-07
-1.30093e-09
2.16228e-09
0.00107719
-2.40323e-07
1.18594e-06
2.39479e-07
8.70807e-07
-2.37597e-07
2.35301e-07
-8.70676e-07
-1.31432e-09
-0.00107668
2.13937e-09
-1.18366e-06
2.39428e-07
-2.4026e-07
-8.70392e-07
2.35212e-07
8.7056e-07
-2.37519e-07
1.18594e-06
0.00107719
-1.30348e-09
-0.00107719
2.15096e-09
-1.18378e-06
2.39482e-07
-2.40322e-07
-8.70677e-07
2.353e-07
-2.376e-07
8.70807e-07
-0.000262819
2.24213e-07
2.29464e-07
1.225e-06
1.18643e-06
-2.19591e-07
-2.29808e-07
0.000262824
-1.22715e-06
-1.18859e-06
0.000264786
-0.000262824
2.21739e-07
2.31981e-07
2.28186e-09
0.00107623
-2.48366e-07
1.22715e-06
2.47452e-07
8.73233e-07
-2.32165e-07
-8.73174e-07
2.29786e-07
-1.23042e-06
-1.18958e-09
2.28271e-09
0.00107667
-2.51149e-07
1.23258e-06
2.50243e-07
8.78835e-07
-2.3764e-07
-8.78798e-07
2.35262e-07
0.00107623
-1.1813e-09
-0.00107623
2.27753e-09
-1.225e-06
2.47453e-07
-2.48366e-07
-8.73186e-07
2.29789e-07
-2.32168e-07
8.73227e-07
1.23258e-06
0.00107667
-1.18046e-09
-0.00107667
2.28982e-09
-1.23042e-06
2.50243e-07
-2.5115e-07
-8.78802e-07
2.35259e-07
-2.37645e-07
8.78833e-07
-2.22324e-07
-2.27107e-07
0.000262842
-1.1912e-06
0.000264812
-0.000262842
2.24498e-07
2.29282e-07
2.13557e-09
0.00107729
-2.4304e-07
1.18859e-06
2.42209e-07
8.73421e-07
-2.37618e-07
-8.73269e-07
2.35309e-07
-1.22242e-06
-1.18799e-09
2.26772e-09
0.00107635
-2.48419e-07
1.22457e-06
2.47507e-07
8.73289e-07
-2.37575e-07
-8.7325e-07
2.35227e-07
0.00107729
-1.33306e-09
-0.00107729
2.12976e-09
-1.18643e-06
2.42211e-07
-2.43038e-07
-8.73267e-07
2.35311e-07
-2.37614e-07
8.73423e-07
1.22457e-06
0.00107635
-1.18216e-09
-0.00107635
2.26788e-09
-1.22243e-06
2.47505e-07
-2.48421e-07
-8.73254e-07
2.35223e-07
-2.37578e-07
8.73286e-07
-1.18766e-09
2.27177e-09
0.00107615
-2.42901e-07
1.21921e-06
2.42009e-07
8.70608e-07
-2.34823e-07
2.32468e-07
-8.70569e-07
-1.31395e-09
-0.00107702
2.1626e-09
-1.18901e-06
2.42173e-07
-2.43012e-07
-8.70569e-07
2.32582e-07
8.70676e-07
-2.34891e-07
1.21921e-06
0.00107615
-1.19481e-09
-0.00107615
2.27037e-09
-1.21707e-06
2.4201e-07
-2.42902e-07
-8.70572e-07
2.32469e-07
-2.34826e-07
8.70609e-07
-2.19742e-07
-2.27081e-07
0.000262806
-1.18583e-06
0.000264765
-0.000262806
2.21896e-07
2.2924e-07
-1.29805e-09
2.15826e-09
0.00107719
-2.40321e-07
1.18594e-06
2.39481e-07
8.70806e-07
-2.37598e-07
2.35299e-07
-8.70676e-07
-1.3097e-09
-0.00107668
2.14261e-09
-1.18366e-06
2.39427e-07
-2.40262e-07
-8.70395e-07
2.35213e-07
8.7056e-07
-2.37521e-07
1.18594e-06
0.00107719
-1.30025e-09
-0.00107719
2.15052e-09
-1.18378e-06
2.39482e-07
-2.40322e-07
-8.70679e-07
2.35299e-07
-2.37601e-07
8.70806e-07
-0.000262819
2.24212e-07
2.29463e-07
1.225e-06
1.18643e-06
-2.19594e-07
-2.29808e-07
0.000262824
-1.22715e-06
-1.1886e-06
0.000264786
-0.000262824
2.21748e-07
2.31981e-07
2.28174e-09
0.00107623
-2.48367e-07
1.22715e-06
2.47452e-07
8.73234e-07
-2.32172e-07
-8.73176e-07
2.29793e-07
-1.23042e-06
-1.1861e-09
2.28358e-09
0.00107667
-2.5115e-07
1.23258e-06
2.50243e-07
8.78834e-07
-2.37641e-07
-8.78798e-07
2.35261e-07
0.00107623
-1.18999e-09
-0.00107623
2.26587e-09
-1.22499e-06
2.47457e-07
-2.4836e-07
-8.73181e-07
2.29807e-07
-2.32167e-07
8.73237e-07
1.23258e-06
0.00107667
-1.16849e-09
-0.00107667
2.29676e-09
-1.23042e-06
2.50247e-07
-2.51148e-07
-8.78802e-07
2.35252e-07
-2.37644e-07
8.7883e-07
-2.22326e-07
-2.27108e-07
0.000262842
-1.1912e-06
0.000264812
-0.000262842
2.24494e-07
2.29286e-07
2.13303e-09
0.00107729
-2.4304e-07
1.18859e-06
2.42211e-07
8.73419e-07
-2.37617e-07
-8.73269e-07
2.35307e-07
-1.22242e-06
-1.18424e-09
2.26978e-09
0.00107635
-2.48421e-07
1.22457e-06
2.47505e-07
8.73288e-07
-2.37576e-07
-8.73251e-07
2.35226e-07
0.00107729
-1.32702e-09
-0.00107729
2.12053e-09
-1.18642e-06
2.42215e-07
-2.43036e-07
-8.73266e-07
2.35307e-07
-2.37612e-07
8.7342e-07
1.22457e-06
0.00107635
-1.17878e-09
-0.00107635
2.26562e-09
-1.22242e-06
2.47506e-07
-2.48421e-07
-8.73253e-07
2.35223e-07
-2.37578e-07
8.73286e-07
-1.18846e-09
2.26925e-09
0.00107615
-2.42901e-07
1.21921e-06
2.42009e-07
8.70608e-07
-2.34823e-07
2.32469e-07
-8.7057e-07
-1.32226e-09
-0.00107702
2.16578e-09
-1.18902e-06
2.42172e-07
-2.43014e-07
-8.70566e-07
2.32584e-07
8.70679e-07
-2.34888e-07
1.2192e-06
0.00107615
-1.17718e-09
-0.00107615
2.26789e-09
-1.21707e-06
2.42007e-07
-2.42904e-07
-8.70573e-07
2.32467e-07
-2.34828e-07
8.70608e-07
-2.19743e-07
-2.27083e-07
0.000262806
-1.18584e-06
0.000264765
-0.000262806
2.219e-07
2.29241e-07
-1.29902e-09
2.1544e-09
0.00107719
-2.4032e-07
1.18594e-06
2.39481e-07
8.70806e-07
-2.37597e-07
2.353e-07
-8.70675e-07
-1.31081e-09
-0.00107668
2.13296e-09
-1.18366e-06
2.39433e-07
-2.40258e-07
-8.70398e-07
2.35215e-07
8.70561e-07
-2.37526e-07
1.18595e-06
0.00107719
-1.27204e-09
-0.00107719
2.14755e-09
-1.18377e-06
2.39491e-07
-2.40316e-07
-8.70675e-07
2.35304e-07
-2.37599e-07
8.70812e-07