/*--------------------------------*- C++ -*----------------------------------*\
| =========                 |                                                 |
| \\      /  F ield         | OpenFOAM: The Open Source CFD Toolbox           |
|  \\    /   O peration     | Version:  2206                                  |
|   \\  /    A nd           | Website:  www.openfoam.com                      |
|    \\/     M anipulation  |                                                 |
\*---------------------------------------------------------------------------*/
FoamFile
{
    version     2.0;
    format      ascii;
    arch        "LSB;label=32;scalar=64";
    class       volScalarField;
    location    "33.5";
    object      k;
}
// * * * * * * * * * * * * * * * * * * * * * * * * * * * * * * * * * * * * * //

dimensions      [0 2 -2 0 0 0 0];

internalField   nonuniform List<scalar> 
28673
(
2.41461e-05
2.34723e-05
2.48288e-05
2.41463e-05
2.4146e-05
2.34753e-05
2.48288e-05
2.41463e-05
2.4146e-05
2.34755e-05
2.48288e-05
2.41464e-05
2.41461e-05
2.34757e-05
2.48289e-05
2.41465e-05
2.41462e-05
2.34759e-05
2.48288e-05
2.41464e-05
2.41463e-05
2.34761e-05
2.48286e-05
2.41463e-05
2.41462e-05
2.34762e-05
2.48281e-05
2.41446e-05
2.41454e-05
2.34742e-05
2.4823e-05
2.41391e-05
2.41399e-05
2.34686e-05
2.48217e-05
2.41386e-05
2.41384e-05
2.34674e-05
2.48218e-05
2.41387e-05
2.41386e-05
2.34674e-05
2.4822e-05
2.4139e-05
2.41389e-05
2.34679e-05
2.48479e-05
2.41829e-05
2.41828e-05
2.3558e-05
2.41456e-05
2.34796e-05
2.41462e-05
2.34762e-05
2.41457e-05
2.41456e-05
2.41455e-05
2.41456e-05
2.34755e-05
2.34796e-05
2.4146e-05
2.41452e-05
2.41457e-05
2.41463e-05
2.41457e-05
2.34791e-05
2.41461e-05
2.4146e-05
2.4146e-05
2.34795e-05
2.34725e-05
2.34797e-05
2.41457e-05
2.41457e-05
2.41457e-05
2.41457e-05
2.34756e-05
2.34798e-05
2.41461e-05
2.41453e-05
2.41461e-05
2.41453e-05
2.41458e-05
2.41463e-05
2.41457e-05
2.34751e-05
2.34793e-05
2.41461e-05
2.41461e-05
2.41461e-05
2.34797e-05
2.34758e-05
2.34801e-05
2.41459e-05
2.41458e-05
2.41459e-05
2.41458e-05
2.34758e-05
2.34801e-05
2.41463e-05
2.41454e-05
2.41463e-05
2.41454e-05
2.41458e-05
2.41464e-05
2.41458e-05
2.34753e-05
2.34795e-05
2.41462e-05
2.41461e-05
2.41461e-05
2.34799e-05
2.34761e-05
2.34804e-05
2.4146e-05
2.4146e-05
2.41461e-05
2.4146e-05
2.34761e-05
2.34803e-05
2.41464e-05
2.41455e-05
2.41465e-05
2.41455e-05
2.41459e-05
2.41465e-05
2.41459e-05
2.34755e-05
2.34798e-05
2.41462e-05
2.41462e-05
2.41462e-05
2.34801e-05
2.34764e-05
2.34806e-05
2.41462e-05
2.41462e-05
2.41462e-05
2.41462e-05
2.34763e-05
2.34805e-05
2.41466e-05
2.41457e-05
2.41466e-05
2.41457e-05
2.41461e-05
2.41464e-05
2.4146e-05
2.34758e-05
2.348e-05
2.41464e-05
2.41463e-05
2.41464e-05
2.34803e-05
2.34766e-05
2.34809e-05
2.41464e-05
2.41463e-05
2.41463e-05
2.4146e-05
2.34765e-05
2.34807e-05
2.41467e-05
2.41458e-05
2.41467e-05
2.41458e-05
2.41461e-05
2.41464e-05
2.4146e-05
2.3476e-05
2.34802e-05
2.41466e-05
2.41462e-05
2.41465e-05
2.34805e-05
2.34769e-05
2.34799e-05
2.41463e-05
2.41459e-05
2.41456e-05
2.4145e-05
2.34766e-05
2.34788e-05
2.41468e-05
2.41458e-05
2.41463e-05
2.41453e-05
2.4146e-05
2.41456e-05
2.41453e-05
2.34762e-05
2.34796e-05
2.41464e-05
2.41458e-05
2.41457e-05
2.34791e-05
2.34754e-05
2.34744e-05
2.4145e-05
2.41439e-05
2.41403e-05
2.41393e-05
2.34739e-05
2.3473e-05
2.41459e-05
2.4145e-05
2.41415e-05
2.41408e-05
2.41446e-05
2.41399e-05
2.41399e-05
2.34752e-05
2.34747e-05
2.4145e-05
2.41412e-05
2.41403e-05
2.34736e-05
2.34695e-05
2.34716e-05
2.41393e-05
2.41386e-05
2.41381e-05
2.41379e-05
2.34684e-05
2.34715e-05
2.41402e-05
2.41395e-05
2.41385e-05
2.41377e-05
2.4139e-05
2.41386e-05
2.4138e-05
2.34697e-05
2.34713e-05
2.41394e-05
2.41384e-05
2.41385e-05
2.34716e-05
2.34676e-05
2.34717e-05
2.41383e-05
2.41381e-05
2.41383e-05
2.41381e-05
2.34676e-05
2.34716e-05
2.41387e-05
2.41378e-05
2.41387e-05
2.41378e-05
2.41382e-05
2.41387e-05
2.41382e-05
2.34672e-05
2.34713e-05
2.41386e-05
2.41386e-05
2.41386e-05
2.34716e-05
2.34677e-05
2.3472e-05
2.41384e-05
2.41383e-05
2.41388e-05
2.41387e-05
2.34676e-05
2.34721e-05
2.41389e-05
2.4138e-05
2.41392e-05
2.41384e-05
2.41384e-05
2.41393e-05
2.41388e-05
2.34673e-05
2.34716e-05
2.41388e-05
2.41392e-05
2.41392e-05
2.3472e-05
2.34681e-05
2.35087e-05
2.41385e-05
2.41384e-05
2.41731e-05
2.4173e-05
2.34681e-05
2.35086e-05
2.4139e-05
2.41381e-05
2.41734e-05
2.41728e-05
2.41385e-05
2.41734e-05
2.41731e-05
2.34677e-05
2.35083e-05
2.41389e-05
2.41733e-05
2.41734e-05
2.35086e-05
2.35582e-05
2.41827e-05
2.41826e-05
2.35581e-05
2.4183e-05
2.41825e-05
2.48479e-05
2.48479e-05
2.48479e-05
2.41827e-05
2.35578e-05
2.4183e-05
2.80653e-05
6.9905e-05
2.80667e-05
6.99023e-05
7.70309e-05
7.70289e-05
2.8066e-05
6.99048e-05
2.4829e-05
2.48288e-05
2.48288e-05
2.48289e-05
2.48287e-05
2.48287e-05
2.26195e-05
2.76034e-05
2.45193e-05
2.41463e-05
2.26197e-05
2.75993e-05
2.45193e-05
7.70272e-05
2.26187e-05
2.4519e-05
2.41461e-05
2.2619e-05
2.4519e-05
2.75988e-05
3.59829e-05
3.59859e-05
2.34795e-05
3.59809e-05
3.59839e-05
2.8068e-05
6.99032e-05
2.80699e-05
6.99011e-05
7.70256e-05
7.7025e-05
2.80691e-05
6.99059e-05
2.80706e-05
6.99036e-05
2.48289e-05
2.48287e-05
2.48287e-05
2.48288e-05
2.48288e-05
2.48286e-05
2.48286e-05
2.26205e-05
2.76059e-05
2.45192e-05
2.41464e-05
2.26204e-05
2.76015e-05
2.45193e-05
7.7024e-05
7.70223e-05
2.26196e-05
2.4519e-05
2.76056e-05
2.41461e-05
2.26196e-05
2.45191e-05
2.76016e-05
3.59862e-05
3.59891e-05
2.34796e-05
3.59851e-05
3.5988e-05
2.80699e-05
6.99027e-05
2.80721e-05
6.99007e-05
7.70238e-05
7.7024e-05
2.80713e-05
6.99054e-05
2.80731e-05
6.99033e-05
2.48289e-05
2.48286e-05
2.48286e-05
2.48288e-05
2.48289e-05
2.48285e-05
2.48285e-05
2.26213e-05
2.76075e-05
2.45192e-05
2.41464e-05
2.26213e-05
2.76028e-05
2.45193e-05
7.70209e-05
7.70201e-05
2.26204e-05
2.45189e-05
2.76078e-05
2.41461e-05
2.26204e-05
2.4519e-05
2.76034e-05
3.5989e-05
3.5992e-05
2.34798e-05
3.59869e-05
3.59899e-05
2.80711e-05
6.99024e-05
2.80735e-05
6.99005e-05
7.70239e-05
7.70243e-05
2.80725e-05
6.9905e-05
2.80747e-05
6.9903e-05
2.48289e-05
2.48287e-05
2.48286e-05
2.48289e-05
2.48287e-05
2.48287e-05
2.48286e-05
2.26217e-05
2.76086e-05
2.45192e-05
2.41465e-05
2.26218e-05
2.76037e-05
2.45193e-05
7.70198e-05
7.70196e-05
2.26209e-05
2.4519e-05
2.7609e-05
2.41462e-05
2.2621e-05
2.45191e-05
2.76043e-05
3.59898e-05
3.59929e-05
2.348e-05
3.59878e-05
3.5991e-05
2.80716e-05
6.99024e-05
2.80743e-05
6.99008e-05
7.70245e-05
7.70255e-05
2.80729e-05
6.9905e-05
2.80753e-05
6.99035e-05
2.48288e-05
2.48288e-05
2.48288e-05
2.48288e-05
2.48288e-05
2.48286e-05
2.48287e-05
2.26221e-05
2.76093e-05
2.45192e-05
2.41466e-05
2.26222e-05
2.76042e-05
2.45194e-05
7.70199e-05
7.70205e-05
2.26212e-05
2.45191e-05
2.76096e-05
2.41463e-05
2.26213e-05
2.45192e-05
2.76049e-05
3.59914e-05
3.59946e-05
2.34802e-05
3.59896e-05
3.59928e-05
2.80721e-05
6.99026e-05
2.80748e-05
6.99028e-05
7.7026e-05
7.70302e-05
2.80734e-05
6.99055e-05
2.80758e-05
6.99057e-05
2.48288e-05
2.48286e-05
2.48288e-05
2.48287e-05
2.48285e-05
2.48284e-05
2.48285e-05
2.26224e-05
2.76092e-05
2.45193e-05
2.41465e-05
2.26225e-05
2.76034e-05
2.45193e-05
7.70214e-05
7.70252e-05
2.26215e-05
2.45191e-05
2.76097e-05
2.41463e-05
2.26216e-05
2.4519e-05
2.76041e-05
3.5993e-05
3.59961e-05
2.34804e-05
3.59904e-05
3.59937e-05
2.80703e-05
6.99051e-05
2.80742e-05
6.99079e-05
7.70284e-05
7.70358e-05
2.80722e-05
6.9908e-05
2.80758e-05
6.99106e-05
2.48285e-05
2.48284e-05
2.48285e-05
2.48284e-05
2.48281e-05
2.48281e-05
2.48281e-05
2.26212e-05
2.76089e-05
2.45191e-05
2.41463e-05
2.26225e-05
2.76014e-05
2.45191e-05
7.70244e-05
7.7033e-05
2.26205e-05
2.45189e-05
2.76093e-05
2.41461e-05
2.26216e-05
2.45188e-05
2.7602e-05
3.59939e-05
3.59972e-05
2.34802e-05
3.59899e-05
3.59932e-05
2.80696e-05
6.99051e-05
2.80753e-05
6.99109e-05
7.70251e-05
7.70376e-05
2.80722e-05
6.9908e-05
2.80772e-05
6.99141e-05
2.48275e-05
2.48279e-05
2.48276e-05
2.48243e-05
2.48232e-05
2.48243e-05
2.48235e-05
2.26167e-05
2.76085e-05
2.45179e-05
2.41429e-05
2.26199e-05
2.75968e-05
2.45165e-05
7.70232e-05
7.70358e-05
2.26163e-05
2.45181e-05
2.76095e-05
2.41446e-05
2.26193e-05
2.4517e-05
2.75986e-05
3.59954e-05
3.59984e-05
2.34767e-05
3.5989e-05
3.5992e-05
2.80653e-05
6.99049e-05
2.80703e-05
6.99181e-05
7.70196e-05
7.70357e-05
2.80676e-05
6.99085e-05
2.80726e-05
6.99217e-05
2.48224e-05
2.48231e-05
2.48226e-05
2.48217e-05
2.48218e-05
2.48216e-05
2.48217e-05
2.26122e-05
2.76024e-05
2.45125e-05
2.41388e-05
2.26138e-05
2.75875e-05
2.45121e-05
7.7019e-05
7.70354e-05
2.26113e-05
2.45128e-05
2.76041e-05
2.41391e-05
2.2613e-05
2.45121e-05
2.75891e-05
3.59938e-05
3.59967e-05
2.3472e-05
3.59898e-05
3.59927e-05
2.80659e-05
6.99062e-05
2.80685e-05
6.99285e-05
7.70004e-05
7.70221e-05
2.80675e-05
6.991e-05
2.807e-05
6.99326e-05
2.48219e-05
2.48217e-05
2.48218e-05
2.48218e-05
2.48218e-05
2.48217e-05
2.48217e-05
2.26115e-05
2.75995e-05
2.45119e-05
2.41388e-05
2.26135e-05
2.75811e-05
2.4512e-05
7.7001e-05
7.70228e-05
2.26106e-05
2.45117e-05
2.76008e-05
2.41386e-05
2.26126e-05
2.45118e-05
2.75828e-05
3.59946e-05
3.59972e-05
2.34716e-05
3.59925e-05
3.59951e-05
2.80704e-05
6.98918e-05
2.807e-05
6.99273e-05
7.69602e-05
7.69884e-05
2.80718e-05
6.98958e-05
2.80711e-05
6.99313e-05
2.48219e-05
2.48218e-05
2.48218e-05
2.4822e-05
2.4822e-05
2.48219e-05
2.4822e-05
2.26104e-05
2.76113e-05
2.4512e-05
2.41389e-05
2.26144e-05
2.7585e-05
2.4512e-05
7.69619e-05
7.69893e-05
2.26097e-05
2.45119e-05
2.76131e-05
2.41387e-05
2.26136e-05
2.45119e-05
2.75868e-05
3.59907e-05
3.59929e-05
2.34716e-05
3.599e-05
3.59922e-05
2.80745e-05
6.98484e-05
2.80685e-05
6.99063e-05
7.68743e-05
7.69006e-05
2.80762e-05
6.98523e-05
2.80697e-05
6.99099e-05
2.48222e-05
2.48221e-05
2.48222e-05
2.48299e-05
2.48299e-05
2.48298e-05
2.48299e-05
2.26079e-05
2.76401e-05
2.45131e-05
2.4143e-05
2.26158e-05
2.75654e-05
2.45122e-05
7.68748e-05
7.69007e-05
2.26073e-05
2.4513e-05
2.76414e-05
2.41429e-05
2.26151e-05
2.4512e-05
2.7566e-05
3.59715e-05
3.59736e-05
2.34773e-05
3.59533e-05
3.59554e-05
2.52265e-05
6.79633e-05
2.79265e-05
6.00791e-05
7.29266e-05
4.90836e-05
2.52279e-05
6.79705e-05
2.79286e-05
6.00844e-05
2.51405e-05
2.50298e-05
2.50299e-05
2.47701e-05
2.51354e-05
2.50048e-05
2.50049e-05
2.26353e-05
2.72562e-05
2.45567e-05
2.42282e-05
2.26371e-05
3.0167e-05
2.46316e-05
7.29262e-05
4.90823e-05
2.26348e-05
2.45566e-05
2.7256e-05
2.42282e-05
2.26366e-05
2.46315e-05
3.01661e-05
3.61417e-05
3.61436e-05
2.367e-05
3.39904e-05
3.39887e-05
6.99064e-05
2.76002e-05
7.70322e-05
3.59826e-05
3.59744e-05
7.70277e-05
2.75978e-05
6.99032e-05
7.7033e-05
7.70308e-05
7.70313e-05
3.59829e-05
2.34745e-05
3.59808e-05
3.59818e-05
7.70278e-05
7.70298e-05
7.7028e-05
7.70304e-05
2.34707e-05
3.5983e-05
3.59843e-05
3.59834e-05
3.59847e-05
2.80657e-05
6.9908e-05
2.80672e-05
6.99054e-05
2.26196e-05
2.76034e-05
2.45192e-05
2.41457e-05
2.26198e-05
2.75996e-05
2.45192e-05
2.26197e-05
2.76056e-05
2.45192e-05
2.41456e-05
2.26199e-05
2.76017e-05
2.45192e-05
2.80685e-05
6.99015e-05
6.9904e-05
2.80668e-05
2.80689e-05
6.99047e-05
6.99071e-05
2.80672e-05
2.26203e-05
2.41455e-05
2.76008e-05
2.45191e-05
2.76049e-05
2.45191e-05
2.26201e-05
2.26204e-05
2.41456e-05
2.76029e-05
2.45192e-05
2.7607e-05
2.45192e-05
2.26202e-05
3.59857e-05
3.59777e-05
2.34795e-05
3.59854e-05
3.59771e-05
7.70276e-05
7.70248e-05
7.70263e-05
7.70279e-05
2.34755e-05
3.59876e-05
3.59791e-05
3.59882e-05
3.59801e-05
7.70228e-05
7.70248e-05
2.26203e-05
2.4146e-05
2.76001e-05
2.45192e-05
2.80655e-05
6.99014e-05
2.26201e-05
2.41452e-05
2.4519e-05
2.75986e-05
2.8069e-05
6.99041e-05
6.99066e-05
2.80677e-05
2.26209e-05
2.4146e-05
2.76014e-05
2.45191e-05
2.76054e-05
2.45191e-05
2.26207e-05
2.80686e-05
6.99003e-05
6.99031e-05
2.80673e-05
2.26207e-05
2.41452e-05
2.45189e-05
2.76001e-05
2.45189e-05
2.76043e-05
2.26204e-05
2.80655e-05
6.9905e-05
2.8067e-05
6.99022e-05
2.26196e-05
2.45191e-05
2.76032e-05
2.41457e-05
2.26198e-05
2.45191e-05
2.75993e-05
2.80655e-05
6.99064e-05
2.80669e-05
6.99038e-05
2.26202e-05
2.41463e-05
2.76005e-05
2.45192e-05
2.76048e-05
2.45193e-05
2.26201e-05
2.80688e-05
6.99015e-05
6.9904e-05
2.80671e-05
2.26202e-05
2.41457e-05
2.45191e-05
2.76006e-05
2.45191e-05
2.76047e-05
2.26201e-05
2.80687e-05
6.99029e-05
6.99054e-05
2.8067e-05
2.34792e-05
3.59769e-05
3.59794e-05
7.70323e-05
7.70244e-05
7.70271e-05
2.34751e-05
3.59797e-05
3.5982e-05
3.59802e-05
3.59823e-05
7.70289e-05
7.70314e-05
2.26186e-05
2.4519e-05
2.7604e-05
2.41461e-05
2.26189e-05
2.4519e-05
2.76001e-05
2.80643e-05
2.80661e-05
6.99041e-05
2.80641e-05
6.9909e-05
2.8066e-05
6.99063e-05
2.26194e-05
2.41461e-05
2.4519e-05
2.76003e-05
2.4519e-05
2.76042e-05
2.26192e-05
2.26193e-05
2.4146e-05
2.4519e-05
2.76014e-05
2.4519e-05
2.76055e-05
2.26191e-05
2.80678e-05
6.99032e-05
6.99057e-05
2.80658e-05
2.80676e-05
6.99055e-05
6.9908e-05
2.80656e-05
7.70326e-05
7.70304e-05
7.70319e-05
7.70297e-05
2.34755e-05
3.59832e-05
3.59862e-05
3.59837e-05
3.59866e-05
7.70274e-05
7.70294e-05
7.70267e-05
7.70287e-05
7.7027e-05
7.70259e-05
7.7027e-05
7.70255e-05
3.59855e-05
3.59869e-05
2.34785e-05
3.59848e-05
3.59864e-05
7.70249e-05
7.70255e-05
7.7024e-05
7.7025e-05
2.34748e-05
3.59861e-05
3.5988e-05
3.59873e-05
3.59889e-05
2.80685e-05
6.99065e-05
2.80704e-05
6.99044e-05
2.26206e-05
2.76061e-05
2.45192e-05
2.41457e-05
2.26207e-05
2.76019e-05
2.45192e-05
2.26207e-05
2.76082e-05
2.45192e-05
2.41458e-05
2.26209e-05
2.76039e-05
2.45192e-05
2.80711e-05
6.99009e-05
6.99029e-05
2.80691e-05
2.80716e-05
6.9904e-05
6.99062e-05
2.80695e-05
2.26212e-05
2.41457e-05
2.76028e-05
2.45192e-05
2.76072e-05
2.45192e-05
2.2621e-05
2.26214e-05
2.41457e-05
2.76046e-05
2.45191e-05
2.76091e-05
2.45191e-05
2.26211e-05
3.59902e-05
3.59819e-05
2.34798e-05
3.59891e-05
3.59804e-05
7.70228e-05
7.70214e-05
7.70241e-05
7.70246e-05
2.34757e-05
3.599e-05
3.59813e-05
3.59915e-05
3.59831e-05
7.70206e-05
7.70215e-05
2.26211e-05
2.76066e-05
2.45192e-05
2.41461e-05
2.26213e-05
2.76026e-05
2.45192e-05
2.80687e-05
6.99021e-05
2.80702e-05
6.98996e-05
2.26208e-05
2.4519e-05
2.76057e-05
2.41453e-05
2.26211e-05
2.4519e-05
2.76014e-05
2.8072e-05
6.99034e-05
6.99055e-05
2.80703e-05
2.26217e-05
2.41461e-05
2.76035e-05
2.45191e-05
2.76077e-05
2.45192e-05
2.26215e-05
2.80715e-05
6.98993e-05
6.99015e-05
2.80699e-05
2.26214e-05
2.41453e-05
2.4519e-05
2.76024e-05
2.4519e-05
2.76069e-05
2.26212e-05
2.80683e-05
6.99034e-05
2.80702e-05
6.99012e-05
2.26206e-05
2.45192e-05
2.76059e-05
2.41458e-05
2.26207e-05
2.45192e-05
2.76017e-05
2.80682e-05
6.99046e-05
2.80701e-05
6.99024e-05
2.26212e-05
2.41464e-05
2.76022e-05
2.45192e-05
2.76069e-05
2.45193e-05
2.2621e-05
2.80714e-05
6.99008e-05
6.99031e-05
2.80694e-05
2.26212e-05
2.41457e-05
2.45191e-05
2.76026e-05
2.45191e-05
2.7607e-05
2.2621e-05
2.80713e-05
6.99021e-05
6.99042e-05
2.80693e-05
3.59826e-05
3.59846e-05
2.34792e-05
3.59816e-05
3.5984e-05
7.70279e-05
7.70264e-05
7.7021e-05
7.70224e-05
2.34752e-05
3.5983e-05
3.59857e-05
3.59844e-05
3.59866e-05
7.70249e-05
7.70259e-05
2.26196e-05
2.4519e-05
2.76067e-05
2.41461e-05
2.26198e-05
2.4519e-05
2.76025e-05
2.8067e-05
6.99049e-05
2.80692e-05
6.99026e-05
2.80668e-05
6.99072e-05
2.8069e-05
6.99051e-05
2.26203e-05
2.41461e-05
2.4519e-05
2.76026e-05
2.45191e-05
2.76068e-05
2.26201e-05
2.26202e-05
2.41461e-05
2.45189e-05
2.76034e-05
2.4519e-05
2.76078e-05
2.262e-05
2.80704e-05
6.99025e-05
6.99045e-05
2.8068e-05
2.80702e-05
6.99049e-05
6.99069e-05
2.80678e-05
7.70267e-05
7.70256e-05
7.70259e-05
7.70249e-05
2.34756e-05
3.59863e-05
3.59893e-05
3.59876e-05
3.59905e-05
7.70245e-05
7.70251e-05
7.70238e-05
7.70244e-05
7.70248e-05
7.70244e-05
7.70238e-05
7.70235e-05
3.59884e-05
3.59904e-05
2.34799e-05
3.59868e-05
3.59889e-05
7.70243e-05
7.70244e-05
7.7023e-05
7.70234e-05
2.34759e-05
3.59872e-05
3.59893e-05
3.59889e-05
3.59911e-05
2.80703e-05
6.99058e-05
2.80725e-05
6.99037e-05
2.26213e-05
2.7608e-05
2.45193e-05
2.41459e-05
2.26216e-05
2.76035e-05
2.45193e-05
2.26215e-05
2.76098e-05
2.45192e-05
2.41458e-05
2.26218e-05
2.76052e-05
2.45192e-05
2.80729e-05
6.99005e-05
6.99025e-05
2.80706e-05
2.80733e-05
6.99035e-05
6.99055e-05
2.8071e-05
2.26219e-05
2.41459e-05
2.76039e-05
2.45193e-05
2.76086e-05
2.45193e-05
2.26216e-05
2.26221e-05
2.41458e-05
2.76056e-05
2.45192e-05
2.76103e-05
2.45192e-05
2.26218e-05
3.59923e-05
3.5984e-05
2.348e-05
3.59906e-05
3.59822e-05
7.70207e-05
7.702e-05
7.70241e-05
7.7024e-05
2.3476e-05
3.59913e-05
3.59831e-05
3.5993e-05
3.59849e-05
7.70199e-05
7.70203e-05
2.26218e-05
2.76087e-05
2.45192e-05
2.41463e-05
2.26221e-05
2.76043e-05
2.45192e-05
2.80708e-05
6.99013e-05
2.80727e-05
6.98991e-05
2.26215e-05
2.4519e-05
2.76079e-05
2.41454e-05
2.26218e-05
2.4519e-05
2.76032e-05
2.8074e-05
6.99031e-05
6.99052e-05
2.8072e-05
2.26224e-05
2.41463e-05
2.76048e-05
2.45192e-05
2.76094e-05
2.45192e-05
2.26221e-05
2.80736e-05
6.98989e-05
6.99011e-05
2.80716e-05
2.26221e-05
2.41454e-05
2.4519e-05
2.76038e-05
2.4519e-05
2.76086e-05
2.26218e-05
2.80702e-05
6.99028e-05
2.80724e-05
6.99005e-05
2.26213e-05
2.45192e-05
2.76078e-05
2.41458e-05
2.26216e-05
2.45192e-05
2.76032e-05
2.80701e-05
6.9904e-05
2.80723e-05
6.99018e-05
2.26219e-05
2.41464e-05
2.76033e-05
2.45192e-05
2.76082e-05
2.45193e-05
2.26215e-05
2.80732e-05
6.99003e-05
6.99024e-05
2.80709e-05
2.26219e-05
2.41458e-05
2.45191e-05
2.76036e-05
2.45191e-05
2.76083e-05
2.26216e-05
2.80731e-05
6.99016e-05
6.99036e-05
2.80708e-05
3.59856e-05
3.59881e-05
2.34794e-05
3.59838e-05
3.59866e-05
7.70246e-05
7.70244e-05
7.70196e-05
7.70203e-05
2.34754e-05
3.59847e-05
3.59871e-05
3.59864e-05
3.59889e-05
7.70239e-05
7.70242e-05
2.26203e-05
2.4519e-05
2.76086e-05
2.41462e-05
2.26207e-05
2.4519e-05
2.7604e-05
2.80689e-05
6.99043e-05
2.80714e-05
6.99023e-05
2.80686e-05
6.99067e-05
2.80711e-05
6.99046e-05
2.2621e-05
2.41461e-05
2.4519e-05
2.76039e-05
2.4519e-05
2.76085e-05
2.26207e-05
2.2621e-05
2.41461e-05
2.45189e-05
2.76045e-05
2.45189e-05
2.76092e-05
2.26206e-05
2.80721e-05
6.99021e-05
6.99042e-05
2.80695e-05
2.80719e-05
6.99044e-05
6.99064e-05
2.80693e-05
7.70245e-05
7.7024e-05
7.70238e-05
7.70233e-05
2.34758e-05
3.59872e-05
3.59903e-05
3.59891e-05
3.59921e-05
7.70239e-05
7.7024e-05
7.70232e-05
7.70233e-05
7.70243e-05
7.70245e-05
7.7023e-05
7.70231e-05
3.59894e-05
3.59914e-05
2.34802e-05
3.59878e-05
3.59897e-05
7.70249e-05
7.70245e-05
7.70233e-05
7.70231e-05
2.34762e-05
3.59888e-05
3.59905e-05
3.59901e-05
3.59919e-05
2.80715e-05
6.99054e-05
2.8074e-05
6.99035e-05
2.2622e-05
2.7609e-05
2.45194e-05
2.4146e-05
2.26223e-05
2.76044e-05
2.45194e-05
2.26221e-05
2.76107e-05
2.45194e-05
2.4146e-05
2.26224e-05
2.7606e-05
2.45193e-05
2.8074e-05
6.99006e-05
6.99024e-05
2.80715e-05
2.80744e-05
6.99037e-05
6.99054e-05
2.80718e-05
2.26226e-05
2.4146e-05
2.76047e-05
2.45194e-05
2.76094e-05
2.45194e-05
2.26223e-05
2.26227e-05
2.4146e-05
2.76063e-05
2.45193e-05
2.76111e-05
2.45193e-05
2.26224e-05
3.59937e-05
3.59857e-05
2.34802e-05
3.59921e-05
3.5984e-05
7.70202e-05
7.70201e-05
7.70247e-05
7.70243e-05
2.34762e-05
3.5993e-05
3.5985e-05
3.59945e-05
3.59867e-05
7.70208e-05
7.70205e-05
2.26225e-05
2.76098e-05
2.45193e-05
2.41464e-05
2.26227e-05
2.76052e-05
2.45193e-05
2.80721e-05
6.99008e-05
2.80743e-05
6.98987e-05
2.26222e-05
2.45191e-05
2.76092e-05
2.41455e-05
2.26224e-05
2.45191e-05
2.76043e-05
2.80752e-05
6.99031e-05
6.9905e-05
2.80728e-05
2.26231e-05
2.41464e-05
2.76056e-05
2.45192e-05
2.76102e-05
2.45193e-05
2.26227e-05
2.80747e-05
6.98987e-05
6.99007e-05
2.80724e-05
2.26227e-05
2.41455e-05
2.4519e-05
2.76047e-05
2.4519e-05
2.76097e-05
2.26224e-05
2.80713e-05
6.99023e-05
2.80738e-05
6.99003e-05
2.26219e-05
2.45192e-05
2.76087e-05
2.41459e-05
2.26222e-05
2.45192e-05
2.7604e-05
2.80712e-05
6.99034e-05
2.80737e-05
6.99015e-05
2.26223e-05
2.41465e-05
2.76041e-05
2.45192e-05
2.7609e-05
2.45193e-05
2.2622e-05
2.80742e-05
6.99005e-05
6.99023e-05
2.80716e-05
2.26225e-05
2.41459e-05
2.45191e-05
2.76044e-05
2.45191e-05
2.76091e-05
2.26221e-05
2.80741e-05
6.99016e-05
6.99034e-05
2.80715e-05
3.59873e-05
3.59893e-05
2.34797e-05
3.59857e-05
3.59876e-05
7.70239e-05
7.7024e-05
7.70196e-05
7.70199e-05
2.34757e-05
3.59867e-05
3.59884e-05
3.59884e-05
3.59899e-05
7.70242e-05
7.7024e-05
2.26209e-05
2.4519e-05
2.76096e-05
2.41462e-05
2.26213e-05
2.4519e-05
2.76049e-05
2.807e-05
6.99039e-05
2.80727e-05
6.9902e-05
2.80698e-05
6.99062e-05
2.80725e-05
6.99042e-05
2.26215e-05
2.41462e-05
2.45191e-05
2.76046e-05
2.45191e-05
2.76094e-05
2.26211e-05
2.26215e-05
2.41462e-05
2.4519e-05
2.76052e-05
2.4519e-05
2.761e-05
2.26211e-05
2.80731e-05
6.9902e-05
6.99038e-05
2.80702e-05
2.80729e-05
6.99043e-05
6.99061e-05
2.807e-05
7.70239e-05
7.70241e-05
7.70232e-05
7.70234e-05
2.3476e-05
3.59887e-05
3.59919e-05
3.59902e-05
3.59933e-05
7.70245e-05
7.70241e-05
7.70238e-05
7.70234e-05
7.70249e-05
7.70256e-05
7.70233e-05
7.7024e-05
3.59912e-05
3.59928e-05
2.34805e-05
3.59899e-05
3.59915e-05
7.7027e-05
7.70256e-05
7.70254e-05
7.70239e-05
2.34765e-05
3.59905e-05
3.59923e-05
3.59921e-05
3.59938e-05
2.8072e-05
6.99056e-05
2.80746e-05
6.99041e-05
2.26225e-05
2.76098e-05
2.45195e-05
2.41462e-05
2.26229e-05
2.7605e-05
2.45195e-05
2.26226e-05
2.76114e-05
2.45194e-05
2.41462e-05
2.2623e-05
2.76065e-05
2.45194e-05
2.80746e-05
6.99016e-05
6.99024e-05
2.80719e-05
2.80749e-05
6.99051e-05
6.99058e-05
2.80723e-05
2.26231e-05
2.41462e-05
2.76049e-05
2.45194e-05
2.761e-05
2.45195e-05
2.26227e-05
2.26232e-05
2.41462e-05
2.76064e-05
2.45194e-05
2.76115e-05
2.45194e-05
2.26228e-05
3.59954e-05
3.59877e-05
2.34805e-05
3.59938e-05
3.59859e-05
7.7021e-05
7.70218e-05
7.70268e-05
7.70255e-05
2.34764e-05
3.59943e-05
3.59864e-05
3.59961e-05
3.59885e-05
7.70232e-05
7.70219e-05
2.26228e-05
2.76106e-05
2.45193e-05
2.41466e-05
2.26233e-05
2.76059e-05
2.45193e-05
2.80725e-05
6.99006e-05
2.8075e-05
6.98989e-05
2.26226e-05
2.45191e-05
2.761e-05
2.41457e-05
2.2623e-05
2.45191e-05
2.76049e-05
2.80755e-05
6.99043e-05
6.99052e-05
2.80732e-05
2.26234e-05
2.41466e-05
2.76059e-05
2.45193e-05
2.76108e-05
2.45193e-05
2.26231e-05
2.80752e-05
6.98997e-05
6.99006e-05
2.80728e-05
2.26232e-05
2.41457e-05
2.45191e-05
2.76049e-05
2.45191e-05
2.76102e-05
2.26228e-05
2.80717e-05
6.99025e-05
2.80744e-05
6.99009e-05
2.26222e-05
2.45193e-05
2.76094e-05
2.41461e-05
2.26227e-05
2.45193e-05
2.76046e-05
2.80717e-05
6.99035e-05
2.80744e-05
6.99019e-05
2.26226e-05
2.41465e-05
2.76041e-05
2.45193e-05
2.76095e-05
2.45193e-05
2.26223e-05
2.80746e-05
6.99019e-05
6.99027e-05
2.8072e-05
2.26228e-05
2.4146e-05
2.45193e-05
2.76045e-05
2.45192e-05
2.76096e-05
2.26225e-05
2.80746e-05
6.99028e-05
6.99036e-05
2.8072e-05
3.59893e-05
3.59908e-05
2.34799e-05
3.59876e-05
3.59894e-05
7.70242e-05
7.70249e-05
7.70221e-05
7.70206e-05
2.34759e-05
3.59881e-05
3.59902e-05
3.59901e-05
3.59918e-05
7.70263e-05
7.70249e-05
2.26212e-05
2.45191e-05
2.76103e-05
2.41464e-05
2.26217e-05
2.45191e-05
2.76054e-05
2.80704e-05
6.99038e-05
2.80733e-05
6.99023e-05
2.80702e-05
6.99061e-05
2.80732e-05
6.99046e-05
2.26217e-05
2.41463e-05
2.45191e-05
2.76048e-05
2.45191e-05
2.76099e-05
2.26213e-05
2.26218e-05
2.41464e-05
2.45191e-05
2.76054e-05
2.45191e-05
2.76105e-05
2.26214e-05
2.80736e-05
6.99031e-05
6.99039e-05
2.80707e-05
2.80734e-05
6.99055e-05
6.99062e-05
2.80705e-05
7.70245e-05
7.70251e-05
7.70238e-05
7.70245e-05
2.34762e-05
3.59903e-05
3.59935e-05
3.5992e-05
3.59951e-05
7.70266e-05
7.70251e-05
7.70259e-05
7.70244e-05
7.70265e-05
7.70301e-05
7.70248e-05
7.70283e-05
3.59928e-05
3.59946e-05
2.34808e-05
3.59907e-05
3.59929e-05
7.70347e-05
7.70278e-05
7.70328e-05
7.7026e-05
2.34768e-05
3.59903e-05
3.59929e-05
3.59932e-05
3.59955e-05
2.80725e-05
6.99061e-05
2.80752e-05
6.99066e-05
2.26228e-05
2.76099e-05
2.45194e-05
2.41464e-05
2.26233e-05
2.76042e-05
2.45194e-05
2.2623e-05
2.76114e-05
2.45194e-05
2.41463e-05
2.26234e-05
2.76057e-05
2.45193e-05
2.80748e-05
6.99053e-05
6.99034e-05
2.80716e-05
2.80752e-05
6.99098e-05
6.99072e-05
2.8072e-05
2.26233e-05
2.41464e-05
2.76031e-05
2.45191e-05
2.76095e-05
2.45193e-05
2.26223e-05
2.26235e-05
2.41462e-05
2.76045e-05
2.45191e-05
2.7611e-05
2.45192e-05
2.26225e-05
3.59965e-05
3.59889e-05
2.34807e-05
3.59941e-05
3.59862e-05
7.70229e-05
7.70266e-05
7.70342e-05
7.70279e-05
2.34766e-05
3.59941e-05
3.59861e-05
3.59967e-05
3.5989e-05
7.70307e-05
7.70245e-05
2.26233e-05
2.76108e-05
2.45194e-05
2.41467e-05
2.26237e-05
2.76053e-05
2.45194e-05
2.80731e-05
6.99009e-05
2.80755e-05
6.9901e-05
2.26231e-05
2.45192e-05
2.76101e-05
2.41458e-05
2.26234e-05
2.45192e-05
2.76042e-05
2.80759e-05
6.99081e-05
6.99065e-05
2.80733e-05
2.26239e-05
2.41467e-05
2.76043e-05
2.45194e-05
2.76105e-05
2.45194e-05
2.26233e-05
2.80756e-05
6.99033e-05
6.99019e-05
2.80729e-05
2.26237e-05
2.41458e-05
2.45191e-05
2.76031e-05
2.45192e-05
2.76098e-05
2.2623e-05
2.80722e-05
6.99031e-05
2.80749e-05
6.99033e-05
2.26226e-05
2.45194e-05
2.76095e-05
2.41461e-05
2.26231e-05
2.45194e-05
2.76038e-05
2.80722e-05
6.99039e-05
2.80749e-05
6.99041e-05
2.2623e-05
2.41464e-05
2.76023e-05
2.45191e-05
2.76089e-05
2.45192e-05
2.26223e-05
2.8075e-05
6.99064e-05
6.99044e-05
2.80718e-05
2.26232e-05
2.41461e-05
2.45192e-05
2.76027e-05
2.45194e-05
2.76092e-05
2.26223e-05
2.80749e-05
6.99067e-05
6.99047e-05
2.80717e-05
3.59907e-05
3.59925e-05
2.34801e-05
3.59884e-05
3.59907e-05
7.70258e-05
7.70293e-05
7.70297e-05
7.7023e-05
2.34762e-05
3.59881e-05
3.59904e-05
3.59912e-05
3.59932e-05
7.70339e-05
7.7027e-05
2.26216e-05
2.45193e-05
2.76104e-05
2.41466e-05
2.2622e-05
2.45192e-05
2.76047e-05
2.80709e-05
6.99041e-05
2.80739e-05
6.99044e-05
2.80708e-05
6.99065e-05
2.80737e-05
6.99068e-05
2.26221e-05
2.41463e-05
2.45189e-05
2.76029e-05
2.4519e-05
2.76094e-05
2.26215e-05
2.26222e-05
2.41466e-05
2.4519e-05
2.76036e-05
2.45191e-05
2.76101e-05
2.26214e-05
2.80739e-05
6.99064e-05
6.99049e-05
2.80705e-05
2.80738e-05
6.99094e-05
6.99074e-05
2.80703e-05
7.7026e-05
7.70297e-05
7.70253e-05
7.70289e-05
2.34764e-05
3.59901e-05
3.59934e-05
3.5993e-05
3.59962e-05
7.70342e-05
7.70274e-05
7.70334e-05
7.70267e-05
7.70294e-05
7.70368e-05
7.70277e-05
7.70357e-05
3.59937e-05
3.59963e-05
2.34808e-05
3.59901e-05
3.59927e-05
7.70372e-05
7.70286e-05
7.7037e-05
7.70278e-05
2.34767e-05
3.59898e-05
3.59923e-05
3.59946e-05
3.59972e-05
2.80707e-05
6.99096e-05
2.80747e-05
6.99122e-05
2.26212e-05
2.76095e-05
2.45191e-05
2.41461e-05
2.26227e-05
2.76022e-05
2.4519e-05
2.26213e-05
2.7611e-05
2.45191e-05
2.41458e-05
2.26229e-05
2.76036e-05
2.4519e-05
2.80747e-05
6.99094e-05
6.99057e-05
2.80702e-05
2.80751e-05
6.99131e-05
6.99098e-05
2.80706e-05
2.26218e-05
2.41459e-05
2.76011e-05
2.45186e-05
2.761e-05
2.45189e-05
2.26199e-05
2.26219e-05
2.41455e-05
2.76022e-05
2.45186e-05
2.76114e-05
2.45189e-05
2.26199e-05
3.59977e-05
3.59899e-05
2.34802e-05
3.5994e-05
3.59861e-05
7.70254e-05
7.70326e-05
7.70364e-05
7.70276e-05
2.34759e-05
3.5993e-05
3.59854e-05
3.59985e-05
3.5991e-05
7.70334e-05
7.70246e-05
2.26223e-05
2.76107e-05
2.45195e-05
2.41467e-05
2.26237e-05
2.76035e-05
2.45194e-05
2.80719e-05
6.99032e-05
2.80754e-05
6.99057e-05
2.2622e-05
2.45191e-05
2.76099e-05
2.41457e-05
2.26235e-05
2.4519e-05
2.76023e-05
2.80763e-05
6.99121e-05
6.99085e-05
2.80722e-05
2.26229e-05
2.41466e-05
2.76027e-05
2.45191e-05
2.76113e-05
2.45193e-05
2.26212e-05
2.80759e-05
6.99075e-05
6.99037e-05
2.80718e-05
2.26226e-05
2.41455e-05
2.45187e-05
2.76015e-05
2.45188e-05
2.76104e-05
2.2621e-05
2.80706e-05
6.99066e-05
2.80745e-05
6.99091e-05
2.26211e-05
2.45192e-05
2.76092e-05
2.41459e-05
2.26227e-05
2.4519e-05
2.76018e-05
2.80704e-05
6.99065e-05
2.80743e-05
6.99093e-05
2.26218e-05
2.41461e-05
2.76e-05
2.45186e-05
2.76094e-05
2.45189e-05
2.26198e-05
2.80749e-05
6.99099e-05
6.99068e-05
2.80705e-05
2.26218e-05
2.41456e-05
2.45186e-05
2.76007e-05
2.45188e-05
2.76097e-05
2.26198e-05
2.80748e-05
6.99107e-05
6.9907e-05
2.80703e-05
3.59918e-05
3.59936e-05
2.34802e-05
3.59877e-05
3.59897e-05
7.70288e-05
7.70369e-05
7.70343e-05
7.70252e-05
2.34761e-05
3.59877e-05
3.59896e-05
3.59926e-05
3.59943e-05
7.70376e-05
7.70288e-05
2.26204e-05
2.45189e-05
2.76101e-05
2.41462e-05
2.26219e-05
2.45188e-05
2.76027e-05
2.80692e-05
6.99061e-05
2.80731e-05
6.99088e-05
2.80691e-05
6.99092e-05
2.80733e-05
6.99119e-05
2.26211e-05
2.4146e-05
2.45185e-05
2.7601e-05
2.45187e-05
2.76098e-05
2.26191e-05
2.2621e-05
2.4146e-05
2.45185e-05
2.76015e-05
2.45187e-05
2.76105e-05
2.2619e-05
2.80735e-05
6.99107e-05
6.99066e-05
2.80688e-05
2.80738e-05
6.99133e-05
6.99097e-05
2.8069e-05
7.70289e-05
7.70363e-05
7.70281e-05
7.70356e-05
2.34761e-05
3.59896e-05
3.59927e-05
3.59945e-05
3.59977e-05
7.70368e-05
7.70281e-05
7.70362e-05
7.70274e-05
7.70262e-05
7.70383e-05
7.70259e-05
7.70378e-05
3.59952e-05
3.59977e-05
2.34777e-05
3.59892e-05
3.5992e-05
7.70381e-05
7.70248e-05
7.70372e-05
7.70242e-05
2.34726e-05
3.59892e-05
3.59922e-05
3.59941e-05
3.59969e-05
2.807e-05
6.99087e-05
2.80758e-05
6.99145e-05
2.26168e-05
2.76095e-05
2.45181e-05
2.41436e-05
2.26203e-05
2.75983e-05
2.45168e-05
2.26168e-05
2.76105e-05
2.45179e-05
2.41422e-05
2.26204e-05
2.75989e-05
2.45164e-05
2.8073e-05
6.99139e-05
6.99049e-05
2.80671e-05
2.80734e-05
6.99175e-05
6.99084e-05
2.80675e-05
2.26165e-05
2.4142e-05
2.75937e-05
2.45137e-05
2.76068e-05
2.45152e-05
2.26132e-05
2.26166e-05
2.41407e-05
2.75943e-05
2.45134e-05
2.76075e-05
2.45148e-05
2.26133e-05
3.59982e-05
3.5991e-05
2.34759e-05
3.59916e-05
3.59842e-05
7.70227e-05
7.70352e-05
7.70375e-05
7.70242e-05
2.34707e-05
3.5991e-05
3.59836e-05
3.59964e-05
3.59892e-05
7.70364e-05
7.70224e-05
2.26194e-05
2.76112e-05
2.45188e-05
2.41449e-05
2.26219e-05
2.76005e-05
2.45179e-05
2.80718e-05
6.99035e-05
2.80769e-05
6.99096e-05
2.26192e-05
2.45184e-05
2.76104e-05
2.41441e-05
2.26217e-05
2.45178e-05
2.75994e-05
2.80755e-05
6.99174e-05
6.99083e-05
2.80698e-05
2.26194e-05
2.41433e-05
2.75959e-05
2.45148e-05
2.7609e-05
2.45165e-05
2.2615e-05
2.80752e-05
6.99129e-05
6.99038e-05
2.80694e-05
2.26192e-05
2.41426e-05
2.45147e-05
2.75949e-05
2.45164e-05
2.76083e-05
2.26148e-05
2.80698e-05
6.99058e-05
2.80756e-05
6.99114e-05
2.26168e-05
2.45179e-05
2.76092e-05
2.4143e-05
2.26203e-05
2.45165e-05
2.75979e-05
2.80697e-05
6.99065e-05
2.80755e-05
6.99123e-05
2.26165e-05
2.41413e-05
2.75921e-05
2.45135e-05