/*--------------------------------*- C++ -*----------------------------------*\
| =========                 |                                                 |
| \\      /  F ield         | OpenFOAM: The Open Source CFD Toolbox           |
|  \\    /   O peration     | Version:  2206                                  |
|   \\  /    A nd           | Website:  www.openfoam.com                      |
|    \\/     M anipulation  |                                                 |
\*---------------------------------------------------------------------------*/
FoamFile
{
    version     2.0;
    format      ascii;
    arch        "LSB;label=32;scalar=64";
    class       volScalarField;
    location    "33.5";
    object      nut;
}
// * * * * * * * * * * * * * * * * * * * * * * * * * * * * * * * * * * * * * //

dimensions      [0 2 -1 0 0 0 0];

internalField   nonuniform List<scalar> 
28673
(
0.000182353
0.000153923
0.000214049
0.000182353
0.000182343
0.000153954
0.000214048
0.000182352
0.000182341
0.000153953
0.000214048
0.00018235
0.000182339
0.000153952
0.000214049
0.000182349
0.000182339
0.000153951
0.000214048
0.000182348
0.000182339
0.00015395
0.000214048
0.000182345
0.000182337
0.000153949
0.000214041
0.000182328
0.000182328
0.000153926
0.000214013
0.000182304
0.000182296
0.000153897
0.000214022
0.000182315
0.000182304
0.000153909
0.000214023
0.000182322
0.000182312
0.000153908
0.000214028
0.000182327
0.000182318
0.000153938
0.000215167
0.000185487
0.000185484
0.000158072
0.000182326
0.000154152
0.000182353
0.000154097
0.000182332
0.000182326
0.00018233
0.000182326
0.000153966
0.000154147
0.000182345
0.000182316
0.00018233
0.000182353
0.000182329
0.000154134
0.000182346
0.000182343
0.000182346
0.000154139
0.000153918
0.00015414
0.00018233
0.000182326
0.000182331
0.000182326
0.000153963
0.000154147
0.000182345
0.000182315
0.000182346
0.000182315
0.000182329
0.000182352
0.000182328
0.00015395
0.000154134
0.000182346
0.000182342
0.000182345
0.000154139
0.000153957
0.000154142
0.000182331
0.000182325
0.00018233
0.000182325
0.000153963
0.000154147
0.000182347
0.000182316
0.000182346
0.000182315
0.000182328
0.00018235
0.000182327
0.000153951
0.000154133
0.000182345
0.00018234
0.000182344
0.000154137
0.000153959
0.000154142
0.00018233
0.000182325
0.00018233
0.000182324
0.000153963
0.000154146
0.000182346
0.000182315
0.000182346
0.000182314
0.000182326
0.000182349
0.000182326
0.00015395
0.000154132
0.000182343
0.000182339
0.000182343
0.000154136
0.000153959
0.000154142
0.00018233
0.000182325
0.00018233
0.000182325
0.000153962
0.000154145
0.000182346
0.000182315
0.000182346
0.000182315
0.000182327
0.000182348
0.000182326
0.000153949
0.000154132
0.000182344
0.000182339
0.000182344
0.000154135
0.000153958
0.000154142
0.00018233
0.000182325
0.000182331
0.000182323
0.000153961
0.000154144
0.000182347
0.000182315
0.000182348
0.000182316
0.000182326
0.000182346
0.000182326
0.000153949
0.000154132
0.000182345
0.000182338
0.000182344
0.000154135
0.000153958
0.000154129
0.000182329
0.000182321
0.00018232
0.000182311
0.000153959
0.000154123
0.000182348
0.000182315
0.000182342
0.000182308
0.000182325
0.000182337
0.000182316
0.000153949
0.000154122
0.000182342
0.000182331
0.000182333
0.000154118
0.00015394
0.000154091
0.000182315
0.0001823
0.000182287
0.000182278
0.000153931
0.000154094
0.000182337
0.000182305
0.000182306
0.000182275
0.000182309
0.000182306
0.000182283
0.000153936
0.000154085
0.000182326
0.000182302
0.0001823
0.000154085
0.000153904
0.000154097
0.000182283
0.000182277
0.000182292
0.000182286
0.000153911
0.000154101
0.0001823
0.00018227
0.000182307
0.000182275
0.00018228
0.000182315
0.000182289
0.000153897
0.000154089
0.000182298
0.000182303
0.000182306
0.000154094
0.000153915
0.000154096
0.000182294
0.000182288
0.0001823
0.000182295
0.000153918
0.000154099
0.00018231
0.000182278
0.000182317
0.000182285
0.00018229
0.000182323
0.000182298
0.000153907
0.000154088
0.000182309
0.000182312
0.000182315
0.00015409
0.000153914
0.000154122
0.000182301
0.000182297
0.000182342
0.000182338
0.000153918
0.000154127
0.000182319
0.000182288
0.000182359
0.000182329
0.0001823
0.000182366
0.00018234
0.000153906
0.000154114
0.000182317
0.000182357
0.000182359
0.000154119
0.000153943
0.000155831
0.000182303
0.0001823
0.000184423
0.00018442
0.000153948
0.000155832
0.000182321
0.00018229
0.000184437
0.000184416
0.000182301
0.000184438
0.000184422
0.000153936
0.000155825
0.000182321
0.000184435
0.000184437
0.000155829
0.000158075
0.000185476
0.000185473
0.000158075
0.000185486
0.00018547
0.000215166
0.000215165
0.000215166
0.000185475
0.00015807
0.000185487
3.94639e-05
4.95064e-05
3.94575e-05
4.95054e-05
2.48478e-05
2.48475e-05
3.94697e-05
4.95012e-05
0.00021405
0.000214047
0.000214049
0.00021405
0.000214044
0.000214046
8.45086e-05
4.77428e-05
0.000201054
0.000182354
8.44852e-05
4.77549e-05
0.000201054
2.48452e-05
8.44993e-05
0.000201049
0.000182344
8.44761e-05
0.000201049
4.77573e-05
3.6671e-05
3.66664e-05
0.000154142
3.66722e-05
3.66678e-05
3.94677e-05
4.95057e-05
3.9461e-05
4.9505e-05
2.4847e-05
2.48469e-05
3.94735e-05
4.95016e-05
3.94672e-05
4.95008e-05
0.00021405
0.000214043
0.000214047
0.000214048
0.000214049
0.000214042
0.000214046
8.45101e-05
4.77462e-05
0.000201054
0.000182353
8.44852e-05
4.7758e-05
0.000201053
2.48447e-05
2.48444e-05
8.45004e-05
0.000201049
4.77491e-05
0.000182342
8.44756e-05
0.000201049
4.77609e-05
3.66739e-05
3.66696e-05
0.000154139
3.66771e-05
3.66728e-05
3.94713e-05
4.95056e-05
3.94647e-05
4.95049e-05
2.48467e-05
2.48467e-05
3.94772e-05
4.95014e-05
3.94709e-05
4.95007e-05
0.000214049
0.000214041
0.000214044
0.000214047
0.000214049
0.000214041
0.000214043
8.45109e-05
4.77489e-05
0.000201052
0.000182351
8.44862e-05
4.77606e-05
0.000201052
2.48442e-05
2.48441e-05
8.45014e-05
0.000201047
4.77523e-05
0.000182341
8.44766e-05
0.000201046
4.77636e-05
3.66773e-05
3.66731e-05
0.000154138
3.66794e-05
3.66752e-05
3.9474e-05
4.95055e-05
3.94678e-05
4.95048e-05
2.48467e-05
2.48467e-05
3.94799e-05
4.95013e-05
3.94742e-05
4.95006e-05
0.000214047
0.000214042
0.000214044
0.000214049
0.000214046
0.000214043
0.000214045
8.45114e-05
4.77512e-05
0.000201051
0.00018235
8.44865e-05
4.77627e-05
0.00020105
2.4844e-05
2.4844e-05
8.4502e-05
0.000201046
4.77545e-05
0.000182339
8.44771e-05
0.000201046
4.77656e-05
3.66786e-05
3.66745e-05
0.000154137
3.66809e-05
3.66769e-05
3.94758e-05
4.95055e-05
3.94699e-05
4.95049e-05
2.48468e-05
2.48469e-05
3.94814e-05
4.95013e-05
3.9476e-05
4.95007e-05
0.000214048
0.000214044
0.000214046
0.000214048
0.000214049
0.000214041
0.000214047
8.45123e-05
4.77532e-05
0.00020105
0.000182349
8.44873e-05
4.77644e-05
0.000201051
2.4844e-05
2.48441e-05
8.45026e-05
0.000201046
4.77564e-05
0.000182339
8.44778e-05
0.000201047
4.77673e-05
3.66811e-05
3.66771e-05
0.000154136
3.66837e-05
3.66797e-05
3.94765e-05
4.95055e-05
3.94711e-05
4.95056e-05
2.4847e-05
2.48477e-05
3.94826e-05
4.95014e-05
3.94772e-05
4.95015e-05
0.000214048
0.000214041
0.000214048
0.000214048
0.000214047
0.000214041
0.000214046
8.45134e-05
4.77559e-05
0.000201052
0.000182347
8.44887e-05
4.77658e-05
0.000201052
2.48443e-05
2.48449e-05
8.45036e-05
0.000201047
4.77593e-05
0.000182339
8.44789e-05
0.000201046
4.77691e-05
3.66849e-05
3.6681e-05
0.000154135
3.6687e-05
3.66832e-05
3.94739e-05
4.95064e-05
3.94718e-05
4.95074e-05
2.48474e-05
2.48486e-05
3.94822e-05
4.95023e-05
3.94793e-05
4.95033e-05
0.000214046
0.000214041
0.000214046
0.000214045
0.000214042
0.000214039
0.000214041
8.45067e-05
4.77586e-05
0.00020105
0.000182343
8.44888e-05
4.77635e-05
0.000201049
2.48448e-05
2.48461e-05
8.44984e-05
0.000201046
4.77633e-05
0.000182335
8.44797e-05
0.000201044
4.77688e-05
3.66917e-05
3.66879e-05
0.000154131
3.66909e-05
3.6687e-05
3.94583e-05
4.95064e-05
3.94576e-05
4.95085e-05
2.48469e-05
2.48489e-05
3.94669e-05
4.95023e-05
3.94669e-05
4.95045e-05
0.000214036
0.000214036
0.000214035
0.000214016
0.000214014
0.000214011
0.000214013
8.44764e-05
4.7753e-05
0.000201037
0.000182319
8.44667e-05
4.77534e-05
0.000201024
2.48446e-05
2.48466e-05
8.44702e-05
0.000201037
4.77594e-05
0.000182321
8.44588e-05
0.000201026
4.77597e-05
3.66924e-05
3.66883e-05
0.000154098
3.66896e-05
3.66854e-05
3.94506e-05
4.95064e-05
3.94479e-05
4.95111e-05
2.4846e-05
2.48486e-05
3.9458e-05
4.95025e-05
3.94562e-05
4.95072e-05
0.000214016
0.000214009
0.000214013
0.000214021
0.000214023
0.000214016
0.00021402
8.44631e-05
4.77544e-05
0.000201011
0.000182309
8.44402e-05
4.77515e-05
0.000201014
2.48439e-05
2.48465e-05
8.44552e-05
0.000201007
4.77601e-05
0.000182298
8.44324e-05
0.000201009
4.77559e-05
3.669e-05
3.66858e-05
0.00015409
3.66781e-05
3.66739e-05
3.94436e-05
4.95068e-05
3.94396e-05
4.95147e-05
2.48429e-05
2.48464e-05
3.94503e-05
4.95033e-05
3.94469e-05
4.95113e-05
0.000214024
0.000214017
0.000214021
0.000214023
0.000214024
0.000214019
0.000214022
8.44642e-05
4.77707e-05
0.000201018
0.000182318
8.4446e-05
4.77522e-05
0.000201019
2.4841e-05
2.48445e-05
8.44576e-05
0.000201014
4.77733e-05
0.000182309
8.44388e-05
0.000201015
4.77529e-05
3.66688e-05
3.66646e-05
0.000154091
3.66401e-05
3.66358e-05
3.943e-05
4.95017e-05
3.94248e-05
4.95143e-05
2.48364e-05
2.4841e-05
3.94365e-05
4.94985e-05
3.9432e-05
4.95111e-05
0.000214025
0.00021402
0.000214022
0.000214038
0.000214038
0.000214032
0.000214035
8.44607e-05
4.77772e-05
0.000201023
0.000182332
8.44486e-05
4.77239e-05
0.000201022
2.48347e-05
2.48391e-05
8.44545e-05
0.000201018
4.77764e-05
0.000182323
8.44424e-05
0.000201017
4.77224e-05
3.66183e-05
3.66137e-05
0.000154095
3.65597e-05
3.65551e-05
3.94748e-05
4.949e-05
3.93946e-05
4.95305e-05
2.48244e-05
2.48376e-05
3.94784e-05
4.94864e-05
3.9401e-05
4.95275e-05
0.00021403
0.000214025
0.000214028
0.000214358
0.000214357
0.000214354
0.000214356
8.46121e-05
4.77725e-05
0.000201082
0.000182583
8.44744e-05
4.77223e-05
0.000201017
2.48223e-05
2.48356e-05
8.46075e-05
0.000201078
4.7771e-05
0.000182576
8.44687e-05
0.000201015
4.77215e-05
3.65089e-05
3.65044e-05
0.000154382
3.63551e-05
3.63523e-05
4.35817e-05
5.28689e-05
3.97064e-05
8.33664e-05
2.72466e-05
2.85765e-05
4.35845e-05
5.2867e-05
3.9709e-05
8.33545e-05
0.000226363
0.000222436
0.000222438
0.000212052
0.000226205
0.000221511
0.000221512
8.98113e-05
4.90694e-05
0.000203009
0.000188088
8.65477e-05
5.93028e-05
0.000206189
2.72451e-05
2.85757e-05
8.9806e-05
0.000203007
4.90694e-05
0.000188086
8.65439e-05
0.000206188
5.93029e-05
3.728e-05
3.72737e-05
0.000163389
3.781e-05
3.78038e-05
4.95057e-05
4.77574e-05
2.4848e-05
3.66692e-05
3.66646e-05
2.48484e-05
4.77531e-05
4.95039e-05
2.48492e-05
2.48488e-05
2.48471e-05
3.66714e-05
0.000154077
3.66726e-05
3.66659e-05
2.48483e-05
2.48487e-05
2.48466e-05
2.48469e-05
0.000153896
3.66754e-05
3.6669e-05
3.66715e-05
3.66651e-05
3.94647e-05
4.95062e-05
3.94582e-05
4.95053e-05
8.45098e-05
4.77484e-05
0.000201053
0.000182331
8.44863e-05
4.77596e-05
0.000201053
8.451e-05
4.77477e-05
0.000201053
0.000182326
8.44862e-05
4.77592e-05
0.000201053
3.94593e-05
4.95051e-05
4.9506e-05
3.94658e-05
3.94601e-05
4.95051e-05
4.95059e-05
3.94666e-05
8.44869e-05
0.00018233
4.77613e-05
0.000201053
4.77501e-05
0.000201053
8.45106e-05
8.44871e-05
0.000182326
4.77609e-05
0.000201053
4.77495e-05
0.000201053
8.45111e-05
3.66682e-05
3.6663e-05
0.000154147
3.66719e-05
3.66663e-05
2.48484e-05
2.4848e-05
2.48471e-05
2.48473e-05
0.000153964
3.6674e-05
3.6668e-05
3.66706e-05
3.66647e-05
2.48476e-05
2.4848e-05
8.45117e-05
0.000182347
4.77512e-05
0.000201051
3.94687e-05
4.94981e-05
8.45117e-05
0.000182316
0.000201046
4.77464e-05
3.94655e-05
4.9501e-05
4.95018e-05
3.94716e-05
8.44891e-05
0.000182346
4.77534e-05
0.000201051
4.77419e-05
0.000201051
8.45119e-05
3.94645e-05
4.94977e-05
4.94987e-05
3.94706e-05
8.44888e-05
0.000182316
0.000201045
4.77483e-05
0.000201045
4.77365e-05
8.45119e-05
3.94639e-05
4.95046e-05
3.94574e-05
4.95036e-05
8.45082e-05
0.000201052
4.77455e-05
0.00018233
8.44849e-05
0.000201052
4.77568e-05
3.94637e-05
4.95027e-05
3.94573e-05
4.95017e-05
8.4486e-05
0.000182354
4.77566e-05
0.000201054
4.77451e-05
0.000201055
8.45098e-05
3.94593e-05
4.95033e-05
4.95042e-05
3.94658e-05
8.44857e-05
0.00018233
0.000201052
4.77585e-05
0.000201052
4.77472e-05
8.45091e-05
3.94592e-05
4.95014e-05
4.95023e-05
3.94657e-05
0.000154139
3.66584e-05
3.66706e-05
2.4848e-05
2.48448e-05
2.48452e-05
0.000153954
3.66602e-05
3.66737e-05
3.66568e-05
3.66698e-05
2.48474e-05
2.48478e-05
8.4498e-05
0.000201049
4.77428e-05
0.000182346
8.44751e-05
0.000201049
4.77542e-05
3.94562e-05
3.94494e-05
4.95014e-05
3.94558e-05
4.95024e-05
3.94491e-05
4.95015e-05
8.44766e-05
0.000182344
0.000201049
4.77592e-05
0.00020105
4.77478e-05
8.45001e-05
8.44755e-05
0.000182346
0.000201049
4.77559e-05
0.00020105
4.77445e-05
8.4499e-05
3.94512e-05
4.95011e-05
4.9502e-05
3.94581e-05
3.94508e-05
4.95012e-05
4.95021e-05
3.94576e-05
2.48478e-05
2.48475e-05
2.48468e-05
2.48464e-05
0.000153958
3.66749e-05
3.66705e-05
3.6671e-05
3.66666e-05
2.4847e-05
2.48473e-05
2.4846e-05
2.48463e-05
2.48482e-05
2.4848e-05
2.48464e-05
2.48462e-05
3.66742e-05
3.66678e-05
0.000154126
3.66778e-05
3.66715e-05
2.48479e-05
2.4848e-05
2.48459e-05
2.48461e-05
0.000153947
3.66794e-05
3.66735e-05
3.66764e-05
3.66702e-05
3.94685e-05
4.95057e-05
3.9462e-05
4.95049e-05
8.45114e-05
4.77518e-05
0.000201053
0.00018233
8.44878e-05
4.77629e-05
0.000201053
8.4512e-05
4.77512e-05
0.000201051
0.000182326
8.44882e-05
4.77624e-05
0.00020105
3.94632e-05
4.95049e-05
4.95056e-05
3.94696e-05
3.94639e-05
4.95048e-05
4.95056e-05
3.94703e-05
8.44885e-05
0.00018233
4.77643e-05
0.000201052
4.77534e-05
0.000201053
8.4512e-05
8.4489e-05
0.000182326
4.77636e-05
0.00020105
4.77526e-05
0.00020105
8.45125e-05
3.66727e-05
3.66663e-05
0.000154147
3.66757e-05
3.66694e-05
2.48477e-05
2.48474e-05
2.48467e-05
2.48468e-05
0.000153964
3.66768e-05
3.66705e-05
3.66742e-05
3.66676e-05
2.48473e-05
2.48474e-05
8.45121e-05
4.77441e-05
0.00020105
0.000182346
8.44893e-05
4.77555e-05
0.00020105
3.94726e-05
4.94983e-05
3.94665e-05
4.94974e-05
8.45121e-05
0.000201045
4.77384e-05
0.000182315
8.4489e-05
0.000201045
4.775e-05
3.94694e-05
4.95007e-05
4.95015e-05
3.94754e-05
8.44895e-05
0.000182346
4.77572e-05
0.00020105
4.77461e-05
0.000201051
8.45122e-05
3.94684e-05
4.94973e-05
4.94981e-05
3.94744e-05
8.44892e-05
0.000182316
0.000201045
4.77515e-05
0.000201045
4.77401e-05
8.45121e-05
3.94678e-05
4.9504e-05
3.94613e-05
4.95032e-05
8.451e-05
0.000201051
4.77489e-05
0.000182329
8.44866e-05
0.000201051
4.77601e-05
3.94676e-05
4.9502e-05
3.94611e-05
4.95012e-05
8.44874e-05
0.000182353
4.77593e-05
0.000201053
4.77481e-05
0.000201054
8.45109e-05
3.94632e-05
4.95031e-05
4.95039e-05
3.94696e-05
8.44875e-05
0.000182329
0.000201051
4.77614e-05
0.000201051
4.77504e-05
8.45105e-05
3.9463e-05
4.95011e-05
4.95019e-05
3.94694e-05
3.66584e-05
3.66725e-05
0.000154133
3.66618e-05
3.66762e-05
2.48473e-05
2.4847e-05
2.48442e-05
2.48444e-05
0.000153951
3.66632e-05
3.66781e-05
3.666e-05
3.66748e-05
2.48468e-05
2.48469e-05
8.44999e-05
0.000201048
4.77462e-05
0.000182346
8.44766e-05
0.000201047
4.77575e-05
3.94599e-05
4.95017e-05
3.94531e-05
4.95009e-05
3.94595e-05
4.95018e-05
3.94526e-05
4.9501e-05
8.44777e-05
0.000182342
0.000201047
4.77624e-05
0.000201049
4.77513e-05
8.45012e-05
8.44774e-05
0.000182345
0.000201047
4.77589e-05
0.000201047
4.77478e-05
8.45005e-05
3.94549e-05
4.95009e-05
4.95016e-05
3.94618e-05
3.94545e-05
4.9501e-05
4.95017e-05
3.94613e-05
2.48469e-05
2.48467e-05
2.48458e-05
2.48457e-05
0.000153956
3.66787e-05
3.66744e-05
3.66757e-05
3.66715e-05
2.48465e-05
2.48466e-05
2.48455e-05
2.48456e-05
2.48479e-05
2.48478e-05
2.48459e-05
2.48458e-05
3.66779e-05
3.6672e-05
0.000154142
3.66803e-05
3.66746e-05
2.48478e-05
2.48478e-05
2.48457e-05
2.48458e-05
0.000153959
3.6681e-05
3.66752e-05
3.66786e-05
3.66729e-05
3.9472e-05
4.95055e-05
3.94657e-05
4.95047e-05
8.45122e-05
4.77548e-05
0.000201052
0.000182331
8.4489e-05
4.77655e-05
0.000201052
8.45126e-05
4.77538e-05
0.000201049
0.000182325
8.44894e-05
4.77647e-05
0.000201049
3.94667e-05
4.95048e-05
4.95055e-05
3.94728e-05
3.94673e-05
4.95047e-05
4.95054e-05
3.94735e-05
8.44891e-05
0.00018233
4.77666e-05
0.000201052
4.7756e-05
0.000201052
8.45127e-05
8.44896e-05
0.000182325
4.77658e-05
0.00020105
4.77549e-05
0.00020105
8.45131e-05
3.66752e-05
3.66687e-05
0.000154147
3.66776e-05
3.66717e-05
2.48473e-05
2.48472e-05
2.48467e-05
2.48467e-05
0.000153963
3.66786e-05
3.6673e-05
3.6676e-05
3.66699e-05
2.48472e-05
2.48472e-05
8.45123e-05
4.77478e-05
0.00020105
0.000182347
8.44896e-05
4.77587e-05
0.00020105
3.94762e-05
4.9498e-05
3.94703e-05
4.94973e-05
8.45122e-05
0.000201045
4.77416e-05
0.000182316
8.44892e-05
0.000201045
4.77529e-05
3.9473e-05
4.95006e-05
4.95014e-05
3.94788e-05
8.44897e-05
0.000182346
4.77599e-05
0.00020105
4.77492e-05
0.00020105
8.45127e-05
3.94721e-05
4.94972e-05
4.94979e-05
3.94778e-05
8.44893e-05
0.000182316
0.000201044
4.77541e-05
0.000201045
4.77429e-05
8.45125e-05
3.94713e-05
4.95038e-05
3.9465e-05
4.9503e-05
8.45107e-05
0.00020105
4.77517e-05
0.000182328
8.44879e-05
0.00020105
4.77626e-05
3.94711e-05
4.95018e-05
3.94648e-05
4.9501e-05
8.4488e-05
0.000182351
4.77617e-05
0.000201051
4.77506e-05
0.000201052
8.45113e-05
3.94667e-05
4.95029e-05
4.95037e-05
3.94728e-05
8.4488e-05
0.000182327
0.000201049
4.77637e-05
0.000201049
4.77529e-05
8.4511e-05
3.94664e-05
4.95009e-05
4.95017e-05
3.94726e-05
3.66612e-05
3.66767e-05
0.000154133
3.66642e-05
3.66793e-05
2.48467e-05
2.48467e-05
2.4844e-05
2.48441e-05
0.000153951
3.66653e-05
3.668e-05
3.66622e-05
3.66777e-05
2.48466e-05
2.48467e-05
8.45009e-05
0.000201046
4.77491e-05
0.000182345
8.4478e-05
0.000201046
4.77601e-05
3.94634e-05
4.95015e-05
3.94567e-05
4.95008e-05
3.94629e-05
4.95016e-05
3.94563e-05
4.95009e-05
8.44786e-05
0.000182341
0.000201046
4.77647e-05
0.000201046
4.7754e-05
8.45018e-05
8.44782e-05
0.000182344
0.000201045
4.77611e-05
0.000201046
4.77503e-05
8.45011e-05
3.94583e-05
4.95007e-05
4.95015e-05
3.94649e-05
3.94579e-05
4.95008e-05
4.95015e-05
3.94644e-05
2.48465e-05
2.48465e-05
2.48455e-05
2.48454e-05
0.000153955
3.668e-05
3.66759e-05
3.66777e-05
3.66735e-05
2.48464e-05
2.48464e-05
2.48454e-05
2.48454e-05
2.48478e-05
2.48478e-05
2.48457e-05
2.48458e-05
3.66793e-05
3.66735e-05
0.000154142
3.6682e-05
3.66759e-05
2.48479e-05
2.48478e-05
2.48458e-05
2.48458e-05
0.000153959
3.66835e-05
3.66771e-05
3.66806e-05
3.66743e-05
3.94746e-05
4.95053e-05
3.94688e-05
4.95047e-05
8.45135e-05
4.7757e-05
0.000201053
0.00018233
8.44898e-05
4.77676e-05
0.000201053
8.4514e-05
4.77559e-05
0.00020105
0.000182325
8.44902e-05
4.77668e-05
0.00020105
3.94693e-05
4.95048e-05
4.95055e-05
3.9475e-05
3.94699e-05
4.95047e-05
4.95053e-05
3.94755e-05
8.44907e-05
0.00018233
4.77686e-05
0.000201052
4.77581e-05
0.000201053
8.45145e-05
8.44911e-05
0.000182325
4.77676e-05
0.00020105
4.77569e-05
0.00020105
8.45148e-05
3.6677e-05
3.66712e-05
0.000154146
3.66798e-05
3.66743e-05
2.48472e-05
2.48472e-05
2.48468e-05
2.48467e-05
0.000153963
3.66811e-05
3.66758e-05
3.66783e-05
3.66726e-05
2.48473e-05
2.48473e-05
8.45134e-05
4.77503e-05
0.00020105
0.000182346
8.44902e-05
4.77609e-05
0.00020105
3.9479e-05
4.94979e-05
3.94736e-05
4.94971e-05
8.45131e-05
0.000201044
4.77441e-05
0.000182315
8.44897e-05
0.000201044
4.77552e-05
3.94756e-05
4.95006e-05
4.95013e-05
3.94808e-05
8.4491e-05
0.000182346
4.7762e-05
0.00020105
4.77514e-05
0.00020105
8.4514e-05
3.94747e-05
4.94971e-05
4.94978e-05
3.94798e-05
8.44903e-05
0.000182315
0.000201044
4.77562e-05
0.000201044
4.77452e-05
8.45139e-05
3.94738e-05
4.95036e-05
3.9468e-05
4.95029e-05
8.45117e-05
0.000201048
4.77539e-05
0.000182326
8.44884e-05
0.000201048
4.77647e-05
3.94737e-05
4.95016e-05
3.94678e-05
4.95009e-05
8.44886e-05
0.000182349
4.77636e-05
0.00020105
4.77527e-05
0.00020105
8.4512e-05
3.9469e-05
4.9503e-05
4.95036e-05
3.94747e-05
8.44891e-05
0.000182326
0.000201047
4.77656e-05
0.000201048
4.7755e-05
8.45121e-05
3.94689e-05
4.9501e-05
4.95016e-05
3.94746e-05
3.66634e-05
3.66783e-05
0.000154132
3.66667e-05
3.66808e-05
2.48466e-05
2.48466e-05
2.4844e-05
2.4844e-05
0.00015395
3.66682e-05
3.66821e-05
3.66649e-05
3.66793e-05
2.48467e-05
2.48466e-05
8.45017e-05
0.000201045
4.77513e-05
0.000182343
8.44786e-05
0.000201045
4.77621e-05
3.9466e-05
4.95014e-05
3.94597e-05
4.95007e-05
3.94655e-05
4.95014e-05
3.94593e-05
4.95008e-05
8.44792e-05
0.000182339
0.000201046
4.77665e-05
0.000201046
4.77559e-05
8.45024e-05
8.44791e-05
0.000182343
0.000201045
4.77631e-05
0.000201045
4.77523e-05
8.45021e-05
3.94607e-05
4.95007e-05
4.95013e-05
3.94668e-05
3.94603e-05
4.95008e-05
4.95014e-05
3.94664e-05
2.48464e-05
2.48465e-05
2.48454e-05
2.48454e-05
0.000153954
3.66823e-05
3.66783e-05
3.66794e-05
3.66754e-05
2.48465e-05
2.48465e-05
2.48455e-05
2.48454e-05
2.48479e-05
2.4848e-05
2.48458e-05
2.48459e-05
3.66821e-05
3.66757e-05
0.000154142
3.66851e-05
3.66787e-05
2.48482e-05
2.4848e-05
2.48461e-05
2.48459e-05
0.000153959
3.66865e-05
3.66803e-05
3.66838e-05
3.66774e-05
3.94763e-05
4.95054e-05
3.94707e-05
4.95049e-05
8.45153e-05
4.77591e-05
0.000201052
0.00018233
8.44917e-05
4.77695e-05
0.000201052
8.45156e-05
4.77579e-05
0.00020105
0.000182325
8.44919e-05
4.77684e-05
0.00020105
3.94708e-05
4.95052e-05
4.95055e-05
3.94763e-05
3.94713e-05
4.95052e-05
4.95054e-05
3.94769e-05
8.44924e-05
0.00018233
4.77703e-05
0.000201053
4.77604e-05
0.000201052
8.4516e-05
8.44927e-05
0.000182325
4.77691e-05
0.000201052
4.7759e-05
0.000201051
8.45163e-05
3.66797e-05
3.66741e-05
0.000154145
3.66824e-05
3.66771e-05
2.48474e-05
2.48475e-05
2.48472e-05
2.48469e-05
0.000153962
3.66836e-05
3.66783e-05
3.66811e-05
3.66755e-05
2.48477e-05
2.48475e-05
8.45145e-05
4.77525e-05
0.000201049
0.000182346
8.44916e-05
4.77629e-05
0.000201049
3.94805e-05
4.94978e-05
3.94754e-05
4.94972e-05
8.45146e-05
0.000201043
4.77463e-05
0.000182315
8.44911e-05
0.000201043
4.77571e-05
3.94769e-05
4.9501e-05
4.95013e-05
3.94819e-05
8.44921e-05
0.000182346
4.77639e-05
0.000201049
4.77538e-05
0.00020105
8.45152e-05
3.94761e-05
4.94975e-05
4.94978e-05
3.94811e-05
8.44919e-05
0.000182315
0.000201044
4.7758e-05
0.000201043
4.77475e-05
8.45153e-05
3.94754e-05
4.95037e-05
3.94698e-05
4.95031e-05
8.45126e-05
0.000201048
4.77559e-05
0.000182327
8.44896e-05
0.000201048
4.77665e-05
3.94753e-05
4.95016e-05
3.94697e-05
4.95011e-05
8.44896e-05
0.000182348
4.7765e-05
0.000201051
4.77547e-05
0.00020105
8.45129e-05
3.94704e-05
4.95035e-05
4.95038e-05
3.94759e-05
8.44901e-05
0.000182326
0.00020105
4.77672e-05
0.000201048
4.77571e-05
8.45133e-05
3.94703e-05
4.95014e-05
4.95016e-05
3.94759e-05
3.66664e-05
3.66807e-05
0.000154132
3.66695e-05
3.66836e-05
2.48467e-05
2.48468e-05
2.48444e-05
2.48441e-05
0.00015395
3.66709e-05
3.66853e-05
3.66679e-05
3.66824e-05
2.4847e-05
2.48468e-05
8.45024e-05
0.000201045
4.77533e-05
0.000182344
8.44795e-05
0.000201045
4.77639e-05
3.94674e-05
4.95013e-05
3.94614e-05
4.95008e-05
3.94671e-05
4.95014e-05
3.94611e-05
4.95009e-05
8.44799e-05
0.000182339
0.000201046
4.77681e-05
0.000201046
4.7758e-05
8.4503e-05
8.44799e-05
0.000182344
0.000201047
4.77647e-05
0.000201046
4.77545e-05
8.4503e-05
3.9462e-05
4.95011e-05
4.95014e-05
3.94679e-05
3.94617e-05
4.95012e-05
4.95014e-05
3.94677e-05
2.48465e-05
2.48466e-05
2.48455e-05
2.48456e-05
0.000153953
3.66851e-05
3.66812e-05
3.66824e-05
3.66785e-05
2.48469e-05
2.48466e-05
2.48458e-05
2.48456e-05
2.48481e-05
2.48487e-05
2.4846e-05
2.48466e-05
3.6686e-05
3.66799e-05
0.000154141
3.66885e-05
3.66828e-05
2.48495e-05
2.48483e-05
2.48473e-05
2.48462e-05
0.000153959
3.66911e-05
3.66863e-05
3.66896e-05
3.66841e-05
3.94772e-05
4.95056e-05
3.9472e-05
4.95058e-05
8.45162e-05
4.77622e-05
0.000201052
0.00018233
8.44936e-05
4.77714e-05
0.000201052
8.45168e-05
4.77607e-05
0.000201051
0.000182325
8.44939e-05
4.77699e-05
0.000201051
3.94721e-05
4.95065e-05
4.95058e-05
3.94764e-05
3.94728e-05
4.95069e-05
4.9506e-05
3.94772e-05
8.44941e-05
0.000182331
4.7772e-05
0.00020105
4.77646e-05
0.000201051
8.45137e-05
8.44947e-05
0.000182325
4.77701e-05
0.000201049
4.77629e-05
0.00020105
8.45145e-05
3.66831e-05
3.66775e-05
0.000154145
3.66852e-05
3.66799e-05
2.48477e-05
2.48483e-05
2.48484e-05
2.48473e-05
0.000153961
3.66879e-05
3.66827e-05
3.66863e-05
3.66807e-05
2.48489e-05
2.48479e-05
8.45164e-05
4.77557e-05
0.00020105
0.000182347
8.44933e-05
4.77651e-05
0.00020105
3.94818e-05
4.94979e-05
3.94767e-05
4.9498e-05
8.45165e-05
0.000201045
4.77493e-05
0.000182315
8.44931e-05
0.000201045
4.7759e-05
3.94789e-05
4.95024e-05
4.95018e-05
3.94832e-05
8.44953e-05
0.000182348
4.77663e-05
0.000201053
4.77585e-05
0.000201053
8.45165e-05
3.94781e-05
4.94988e-05
4.94983e-05
3.94824e-05
8.44951e-05
0.000182316
0.000201046
4.77602e-05
0.000201046
4.77519e-05
8.45166e-05
3.94762e-05
4.95039e-05
3.9471e-05
4.9504e-05
8.45139e-05
0.000201051
4.77589e-05
0.000182326
8.44913e-05
0.000201051
4.77682e-05
3.94762e-05
4.95018e-05
3.9471e-05
4.95019e-05
8.44919e-05
0.000182346
4.7766e-05
0.00020105
4.77586e-05
0.000201051
8.45134e-05
3.94718e-05
4.95051e-05
4.95044e-05
3.94763e-05
8.44924e-05
0.000182327
0.000201051
4.77689e-05
0.000201052
4.77613e-05
8.45123e-05
3.94718e-05
4.95028e-05
4.95021e-05
3.94762e-05
3.667e-05
3.66848e-05
0.000154131
3.66729e-05
3.66875e-05
2.48469e-05
2.48475e-05
2.48456e-05
2.48445e-05
0.000153949
3.66761e-05
3.66904e-05
3.66738e-05
3.66887e-05
2.48482e-05
2.48471e-05
8.45039e-05
0.000201049
4.77563e-05
0.000182344
8.44811e-05
0.000201049
4.77657e-05
3.94682e-05
4.95014e-05
3.94625e-05
4.95015e-05
3.94681e-05
4.95016e-05
3.94624e-05
4.95017e-05
8.44821e-05
0.000182339
0.000201046
4.77701e-05
0.000201046
4.77623e-05
8.4504e-05
8.44824e-05
0.000182345
0.000201047
4.77664e-05
0.000201049
4.77588e-05
8.45032e-05
3.94633e-05
4.95023e-05
4.95017e-05
3.94683e-05
3.94633e-05
4.95026e-05
4.95019e-05
3.94682e-05
2.48468e-05
2.48474e-05
2.48457e-05
2.48463e-05
0.000153952
3.66898e-05
3.6686e-05
3.66881e-05
3.66843e-05
2.48481e-05
2.4847e-05
2.4847e-05
2.48459e-05
2.48486e-05
2.48498e-05
2.48465e-05
2.48478e-05
3.66927e-05
3.66882e-05
0.000154139
3.66922e-05
3.66878e-05
2.48499e-05
2.48485e-05
2.4848e-05
2.48465e-05
0.000153955
3.66914e-05
3.66863e-05
3.6693e-05
3.66884e-05
3.94747e-05
4.95068e-05
3.94729e-05
4.95077e-05
8.45074e-05
4.77656e-05
0.000201049
0.000182326
8.44902e-05
4.777e-05
0.000201048
8.45078e-05
4.77633e-05
0.000201048
0.000182318
8.44911e-05
4.77674e-05
0.000201047
3.94665e-05
4.95079e-05
4.95066e-05
3.9466e-05
3.94673e-05
4.9508e-05
4.95068e-05
3.94668e-05
8.44813e-05
0.000182323
4.77652e-05
0.000201044
4.77635e-05
0.000201047
8.44958e-05
8.44814e-05
0.000182315
4.77622e-05
0.000201043
4.77606e-05
0.000201046
8.44959e-05
3.66896e-05
3.66841e-05
0.000154137
3.6689e-05
3.66844e-05
2.48481e-05
2.48492e-05
2.48487e-05
2.48473e-05
0.000153951
3.66874e-05
3.66835e-05
3.66896e-05
3.66849e-05
2.48494e-05
2.4848e-05
8.45117e-05
4.77602e-05
0.000201055
0.000182347
8.44942e-05
4.77655e-05
0.000201054
3.94814e-05
4.94987e-05
3.94788e-05
4.94996e-05
8.45114e-05
0.000201045
4.77535e-05
0.000182314
8.44939e-05
0.000201043
4.77593e-05
3.94758e-05
4.95038e-05
4.95025e-05
3.94751e-05
8.44862e-05
0.000182345
4.77614e-05
0.00020105
4.77592e-05
0.000201053
8.45015e-05
3.9475e-05
4.95002e-05
4.94988e-05
3.94743e-05
8.44855e-05
0.000182311
0.000201041
4.77553e-05
0.000201043
4.77526e-05
8.45015e-05
3.94739e-05
4.95051e-05
3.94721e-05
4.9506e-05
8.45057e-05
0.00020105
4.77623e-05
0.000182323
8.44893e-05
0.000201048
4.77669e-05
3.94737e-05
4.95027e-05
3.94719e-05
4.95037e-05
8.44803e-05
0.000182341
4.77584e-05
0.000201045
4.77565e-05
0.000201048
8.44946e-05
3.94665e-05
4.95063e-05
4.95052e-05
3.9466e-05
8.44798e-05
0.00018232
0.000201043
4.77622e-05
0.000201046
4.77603e-05
8.44941e-05
3.94663e-05
4.95042e-05
4.95028e-05
3.94658e-05
3.66775e-05
3.6692e-05
0.00015413
3.66779e-05
3.66914e-05
2.48474e-05
2.48487e-05
2.48464e-05
2.48449e-05
0.000153946
3.66775e-05
3.66907e-05
3.66785e-05
3.66921e-05
2.48488e-05
2.48474e-05
8.44973e-05
0.000201046
4.77598e-05
0.00018234
8.44807e-05
0.000201044
4.77645e-05
3.94667e-05
4.95021e-05
3.94645e-05
4.95031e-05
3.94658e-05
4.95025e-05
3.94635e-05
4.95035e-05
8.44721e-05
0.000182333
0.000201041
4.77644e-05
0.000201043
4.77623e-05
8.44865e-05
8.44712e-05
0.000182337
0.000201041
4.77596e-05
0.000201043
4.77577e-05
8.44847e-05
3.94596e-05
4.95037e-05
4.95023e-05
3.946e-05
3.9458e-05
4.95039e-05
4.95026e-05
3.94579e-05
2.48472e-05
2.48484e-05
2.48462e-05
2.48474e-05
0.000153946
3.669e-05
3.66859e-05
3.66916e-05
3.66877e-05
2.48485e-05
2.48471e-05
2.48475e-05
2.48461e-05
2.48481e-05
2.485e-05
2.48462e-05
2.48481e-05
3.66936e-05
3.66883e-05
0.000154109
3.66911e-05
3.66858e-05
2.485e-05
2.48479e-05
2.48481e-05
2.4846e-05
0.000153916
3.66874e-05
3.66826e-05
3.66943e-05
3.66891e-05
3.9459e-05
4.95065e-05
3.94586e-05
4.95085e-05
8.44775e-05
4.77607e-05
0.000201039
0.000182303
8.44695e-05
4.77604e-05
0.000201025
8.44774e-05
4.77574e-05
0.000201036
0.00018229
8.44696e-05
4.77571e-05
0.000201021
3.94521e-05
4.95096e-05
4.95064e-05
3.9454e-05
3.94528e-05
4.95096e-05
4.95064e-05
3.94547e-05
8.44506e-05
0.000182293
4.77577e-05
0.00020101
4.77599e-05
0.000201016
8.44634e-05
8.44506e-05
0.000182281
4.77547e-05
0.000201008
4.77564e-05
0.000201013
8.44637e-05
3.66893e-05
3.66852e-05
0.000154101
3.66862e-05
3.66833e-05
2.48476e-05
2.48497e-05
2.48489e-05
2.48467e-05
0.00015391
3.66823e-05
3.66816e-05
3.66893e-05
3.66867e-05
2.48499e-05
2.48476e-05
8.44884e-05
4.7757e-05
0.000201046
0.000182327
8.44766e-05
4.77567e-05
0.000201034
3.9466e-05
4.94988e-05
3.94664e-05
4.9501e-05
8.44885e-05
0.000201038
4.77503e-05
0.000182297
8.44763e-05
0.00020103
4.77506e-05
3.94611e-05
4.95057e-05
4.95024e-05
3.9462e-05
8.4463e-05
0.000182314
4.77535e-05
0.000201011
4.77562e-05
0.00020102
8.44667e-05
3.94602e-05
4.95021e-05
4.94989e-05
3.94611e-05
8.44627e-05
0.000182284
0.000201007
4.77476e-05
0.000201016
4.77496e-05
8.44666e-05
3.94583e-05
4.95048e-05
3.94579e-05
4.95068e-05
8.4476e-05
0.000201036
4.77575e-05
0.000182296
8.44682e-05
0.000201021
4.77573e-05
3.94581e-05
4.95027e-05
3.94576e-05
4.95047e-05
8.44499e-05
0.00018231
4.77511e-05
0.000201011