/*--------------------------------*- C++ -*----------------------------------*\
| =========                 |                                                 |
| \\      /  F ield         | OpenFOAM: The Open Source CFD Toolbox           |
|  \\    /   O peration     | Version:  2206                                  |
|   \\  /    A nd           | Website:  www.openfoam.com                      |
|    \\/     M anipulation  |                                                 |
\*---------------------------------------------------------------------------*/
FoamFile
{
    version     2.0;
    format      ascii;
    arch        "LSB;label=32;scalar=64";
    class       volScalarField;
    location    "33.5";
    object      p;
}
// * * * * * * * * * * * * * * * * * * * * * * * * * * * * * * * * * * * * * //

dimensions      [0 2 -2 0 0 0 0];

internalField   nonuniform List<scalar> 
28673
(
0.000490892
0.000493314
0.000450031
0.000449992
0.000449992
0.000452414
0.000409135
0.000409096
0.000409096
0.000411517
0.000368241
0.000368202
0.000368202
0.000370623
0.000327348
0.00032731
0.00032731
0.000329731
0.000286454
0.000286416
0.000286415
0.000288835
0.000245564
0.000245525
0.000245526
0.000247946
0.000204656
0.000204617
0.000204618
0.00020703
0.000163751
0.00016372
0.00016372
0.000166128
0.000122839
0.000122806
0.000122805
0.0001252
8.19301e-05
8.18853e-05
8.18838e-05
8.42515e-05
4.17035e-05
4.1151e-05
4.1148e-05
4.33813e-05
8.63879e-06
8.79565e-06
8.79299e-06
8.33971e-06
0.000501117
0.000498703
0.000501117
0.000457803
0.000490892
0.000490892
0.000460217
0.000460217
0.000493314
0.000457803
0.000460217
0.000460217
0.000490892
0.000460217
0.000460217
0.000457803
0.000490892
0.000460217
0.000460217
0.000457803
0.000452414
0.000416906
0.000449993
0.000449992
0.00041932
0.00041932
0.000452414
0.000416906
0.000449992
0.000449992
0.00041932
0.00041932
0.000449993
0.00041932
0.00041932
0.000452414
0.000416906
0.000449993
0.00041932
0.00041932
0.000416906
0.000411517
0.000376012
0.000409096
0.000409096
0.000378425
0.000378425
0.000411517
0.000376012
0.000409096
0.000409096
0.000378425
0.000378425
0.000409096
0.000378425
0.000378425
0.000411517
0.000376011
0.000409096
0.000378425
0.000378425
0.000376011
0.000370624
0.000335119
0.000368202
0.000368202
0.000337533
0.000337533
0.000370623
0.000335119
0.000368202
0.000368202
0.000337532
0.000337533
0.000368202
0.000337533
0.000337533
0.000370623
0.000335119
0.000368202
0.000337533
0.000337533
0.000335119
0.000329731
0.000294226
0.000327311
0.00032731
0.00029664
0.00029664
0.000329731
0.000294227
0.00032731
0.00032731
0.00029664
0.00029664
0.000327311
0.00029664
0.00029664
0.000329731
0.000294226
0.00032731
0.00029664
0.00029664
0.000294226
0.000288835
0.000253333
0.000286416
0.000286416
0.000255744
0.000255744
0.000288836
0.000253334
0.000286415
0.000286415
0.000255743
0.000255744
0.000286416
0.000255744
0.000255744
0.000288835
0.000253333
0.000286415
0.000255744
0.000255744
0.000253334
0.000247945
0.000212441
0.000245525
0.000245525
0.000214855
0.000214854
0.000247945
0.00021244
0.000245525
0.000245526
0.000214855
0.000214855
0.000245525
0.000214854
0.000214855
0.000247946
0.000212441
0.000245525
0.000214855
0.000214855
0.00021244
0.000207031
0.000171532
0.000204618
0.000204617
0.00017394
0.00017394
0.000207029
0.000171533
0.000204618
0.000204618
0.00017394
0.00017394
0.000204618
0.00017394
0.00017394
0.000207031
0.000171532
0.000204618
0.00017394
0.00017394
0.000171532
0.000166128
0.000130633
0.00016372
0.00016372
0.000133033
0.000133033
0.000166129
0.000130633
0.00016372
0.00016372
0.000133033
0.000133033
0.00016372
0.000133034
0.000133033
0.000166128
0.000130633
0.00016372
0.000133033
0.000133033
0.000130633
0.0001252
8.97234e-05
0.000122806
0.000122806
9.21225e-05
9.21229e-05
0.0001252
8.9724e-05
0.000122806
0.000122806
9.21222e-05
9.21217e-05
0.000122806
9.21225e-05
9.2122e-05
0.0001252
8.97224e-05
0.000122806
9.21214e-05
9.21216e-05
8.97228e-05
8.42526e-05
4.88451e-05
8.18854e-05
8.18855e-05
5.12524e-05
5.12529e-05
8.42524e-05
4.88462e-05
8.18846e-05
8.1884e-05
5.12504e-05
5.12499e-05
8.18845e-05
5.12515e-05
5.12495e-05
8.42518e-05
4.88426e-05
8.1884e-05
5.1249e-05
5.12483e-05
4.88422e-05
4.33851e-05
1.18502e-05
4.11528e-05
4.1153e-05
1.40166e-05
1.40164e-05
4.33856e-05
1.18505e-05
4.11508e-05
4.11495e-05
1.40149e-05
1.40113e-05
4.11486e-05
1.40138e-05
1.40094e-05
4.33819e-05
1.18457e-05
4.11474e-05
1.40114e-05
1.40108e-05
1.18446e-05
8.3436e-06
8.79646e-06
8.79703e-06
8.34499e-06
8.79505e-06
8.79242e-06
8.63872e-06
8.63647e-06
8.63603e-06
8.79143e-06
8.3406e-06
8.79217e-06
0.000478142
0.00049345
0.000493453
0.000478143
0.000493451
0.000478142
0.000478143
0.000478144
0.000490931
0.00049093
0.000460256
0.000460256
0.000460256
0.000460256
0.000478191
0.000493418
0.000490901
0.000480667
0.000493409
0.000478173
0.000480676
0.000478142
0.000478191
0.000490901
0.000480667
0.000493409
0.000480676
0.000478174
0.000493456
0.000493455
0.000478253
0.000478138
0.000478138
0.000437243
0.00045255
0.000452553
0.000437244
0.000452551
0.000437243
0.000437243
0.00045255
0.000452553
0.000437244
0.000450031
0.000450031
0.000450031
0.000419358
0.000419358
0.000419358
0.000419358
0.000437292
0.000452518
0.000450002
0.000439768
0.000452509
0.000437275
0.000439777
0.000452551
0.000437243
0.000437292
0.000450002
0.000452518
0.000439768
0.000452509
0.000439777
0.000437274
0.000452555
0.000452555
0.000437354
0.00043724
0.00043724
0.000396348
0.000411653
0.000411656
0.000396349
0.000411654
0.000396347
0.000396347
0.000411653
0.000411657
0.000396349
0.000409135
0.000409135
0.000409134
0.000378464
0.000378464
0.000378464
0.000378464
0.000396397
0.000411621
0.000409105
0.000398872
0.000411612
0.000396379
0.000398882
0.000411654
0.000396347
0.000396396
0.000409105
0.000411622
0.000398872
0.000411612
0.000398881
0.000396379
0.000411658
0.000411658
0.000396458
0.000396344
0.000396344
0.000355454
0.000370759
0.000370763
0.000355455
0.000370761
0.000355454
0.000355454
0.000370759
0.000370763
0.000355455
0.000368241
0.000368241
0.00036824
0.000337571
0.000337571
0.000337571
0.000337571
0.000355503
0.000370727
0.000368211
0.000357979
0.000370718
0.000355486
0.000357988
0.000370761
0.000355454
0.000355503
0.000368211
0.000370727
0.000357979
0.000370718
0.000357988
0.000355485
0.000370764
0.000370764
0.000355565
0.000355451
0.000355451
0.000314563
0.000329867
0.000329869
0.000314561
0.000329868
0.00031456
0.000314562
0.000329867
0.000329869
0.000314561
0.000327348
0.000327348
0.000327348
0.000296677
0.000296677
0.000296677
0.000296676
0.000314611
0.000329835
0.00032732
0.000317087
0.000329825
0.000314594
0.000317096
0.000329869
0.000314559
0.000314611
0.000327319
0.000329835
0.000317087
0.000329825
0.000317096
0.000314593
0.000329872
0.000329872
0.000314673
0.000314557
0.000314557
0.000273678
0.000288972
0.000288973
0.000273675
0.000288978
0.00027367
0.000273676
0.000288972
0.000288973
0.000273674
0.000286454
0.000286454
0.000286454
0.000255784
0.000255785
0.000255784
0.000255784
0.000273725
0.000288935
0.000286425
0.00027619
0.000288928
0.000273711
0.000276198
0.000288977
0.000273667
0.000273724
0.000286425
0.000288935
0.000276189
0.000288927
0.000276198
0.000273709
0.000288977
0.000288977
0.000273779
0.000273672
0.000273672
0.00023277
0.000248078
0.000248068
0.000232775
0.000248081
0.00023277
0.000232769
0.000248078
0.000248068
0.000232774
0.000245564
0.000245564
0.000245564
0.000214882
0.000214881
0.000214883
0.000214882
0.000232812
0.000248047
0.000245535
0.000235309
0.000248039
0.000232806
0.000235317
0.000248079
0.000232772
0.000232813
0.000245535
0.000248046
0.00023531
0.00024804
0.000235317
0.000232807
0.000248081
0.000248081
0.000232892
0.000232771
0.000232771
0.000191898
0.000207189
0.000207195
0.000191861
0.000207196
0.000191842
0.000191899
0.00020719
0.000207198
0.000191862
0.000204655
0.000204656
0.000204655
0.000173972
0.000173972
0.000173972
0.000173972
0.000191935
0.000207142
0.000204622
0.000194386
0.000207127
0.000191916
0.000194391
0.000207198
0.000191844
0.000191936
0.000204622
0.000207144
0.000194387
0.000207128
0.000194391
0.000191917
0.000207186
0.000207186
0.000191978
0.000191869
0.000191869
0.000150972
0.000166264
0.000166282
0.00015095
0.0001663
0.000150907
0.000150971
0.000166264
0.000166282
0.00015095
0.000163751
0.000163751
0.000163751
0.000133057
0.000133057
0.000133057
0.000133057
0.000151023
0.000166221
0.000163727
0.000153494
0.000166236
0.000151004
0.00015349
0.000166299
0.000150906
0.000151023
0.000163726
0.00016622
0.000153493
0.000166236
0.00015349
0.000151003
0.000166255
0.000166255
0.000151082
0.000150964
0.000150964
0.000110059
0.000125352
0.00012537
0.000110047
0.000125418
0.000109963
0.000110058
0.000125352
0.00012537
0.000110046
0.000122839
0.000122839
0.000122839
9.21302e-05
9.21297e-05
9.21294e-05
9.21295e-05
0.000110107
0.000125293
0.000122816
0.000112586
0.00012532
0.000110108
0.00011258
0.000125417
0.000109962
0.000110106
0.000122816
0.000125292
0.000112586
0.00012532
0.000112579
0.000110107
0.000125332
0.000125333
0.000110177
0.000110068
0.000110067
6.90771e-05
8.44069e-05
8.44287e-05
6.90903e-05
8.45629e-05
6.88793e-05
6.90755e-05
8.44062e-05
8.44276e-05
6.90888e-05
8.19292e-05
8.19289e-05
8.19289e-05
5.14909e-05
5.14917e-05
5.14889e-05
5.14889e-05
6.91347e-05
8.43374e-05
8.19055e-05
7.16651e-05
8.43874e-05
6.91615e-05
7.16758e-05
8.45584e-05
6.88825e-05
6.91336e-05
8.19045e-05
8.43364e-05
7.16635e-05
8.43866e-05
7.16747e-05
6.91589e-05
8.43781e-05
8.43778e-05
6.92558e-05
6.91176e-05
6.91178e-05
2.73023e-05
4.29959e-05
4.31473e-05
2.66328e-05
4.34362e-05
2.59805e-05
2.72891e-05
4.29878e-05
4.31413e-05
2.66252e-05
4.17039e-05
4.17006e-05
4.17004e-05
1.54426e-05
1.5442e-05
1.54391e-05
1.54386e-05
2.79239e-05
4.30072e-05
4.14114e-05
3.13714e-05
4.32813e-05
2.7152e-05
3.17608e-05
4.34214e-05
2.59874e-05
2.79238e-05
4.14087e-05
4.30054e-05
3.13683e-05
4.32812e-05
3.17582e-05
2.71536e-05
4.29329e-05
4.29322e-05
2.8874e-05
2.68512e-05
2.68484e-05
4.85059e-06
5.49828e-06
5.72492e-06
-5.7918e-08
2.35565e-06
-4.25823e-06
4.86783e-06
5.47997e-06
5.71094e-06
-3.66362e-08
2.48125e-06
9.09342e-06
9.09178e-06
2.72327e-06
9.3938e-06
2.48232e-06
2.48171e-06
4.29571e-06
6.08903e-06
8.44373e-06
2.7834e-06
7.4162e-06
4.31632e-06
2.55858e-06
2.32468e-06
-4.25572e-06
4.3005e-06
8.44278e-06
6.08289e-06
2.78156e-06
7.41604e-06
2.55883e-06
4.32374e-06
2.23648e-06
2.23263e-06
2.61117e-06
2.54922e-06
2.56157e-06
0.000498593
0.000498623
0.000498592
0.000498589
0.000498589
0.000498591
0.000498623
0.000498593
0.000493451
0.000478142
0.000478142
0.000493456
0.000478253
0.000478139
0.000478139
0.000457692
0.000473001
0.000457692
0.000473001
0.000472864
0.000457688
0.000457689
0.000473005
0.000473005
0.000478142
0.00049345
0.000493453
0.000478143
0.000478191
0.000493418
0.000490901
0.000480667
0.000493409
0.000478173
0.000480676
0.000478191
0.000493418
0.000490901
0.000480667
0.000493409
0.000478173
0.000480676
0.000473003
0.000457693
0.000472999
0.000457692
0.000473003
0.000457693
0.000472999
0.000457692
0.000472959
0.000470442
0.000457723
0.000460226
0.000472968
0.000470451
0.000457741
0.000472959
0.000470442
0.000457723
0.000460226
0.000472968
0.000470451
0.000457741
0.000493455
0.000493455
0.000478253
0.000478138
0.000478138
0.000493451
0.000478142
0.000457692
0.000473001
0.000472863
0.000457689
0.000457689
0.000473005
0.000473004
0.000457692
0.000473001
0.000478192
0.000480667
0.000478174
0.000480677
0.000478143
0.000478144
0.000478191
0.000480667
0.000480677
0.000478174
0.000473004
0.000457693
0.000473
0.000457692
0.000472959
0.000470442
0.000457723
0.000460227
0.000472968
0.000470452
0.000457741
0.000473004
0.000457693
0.000473
0.000457692
0.000472959
0.000470442
0.000460227
0.000457723
0.000470452
0.000472968
0.000457741
0.000478142
0.00049345
0.000493454
0.000478143
0.000478191
0.000490901
0.000493418
0.000480667
0.000493409
0.000480676
0.000478173
0.000478142
0.00049345
0.000493454
0.000478143
0.000472958
0.000470442
0.000457723
0.000460226
0.000472968
0.000470451
0.000457741
0.000473003
0.000457693
0.000472999
0.000457692
0.000472958
0.000470442
0.000460226
0.000457723
0.000470451
0.000472968
0.000457741
0.000473003
0.000457693
0.000472999
0.000457692
0.000478253
0.000478139
0.000478139
0.000478142
0.000457692
0.000473001
0.000472864
0.000457689
0.000457688
0.000473005
0.000473005
0.000457692
0.000473001
0.000478191
0.000490901
0.000493418
0.000480667
0.000493409
0.000480676
0.000478173
0.000478142
0.000493454
0.000478143
0.000478142
0.00049345
0.000493453
0.000478143
0.000472958
0.000470442
0.000460226
0.000457723
0.000470451
0.000472968
0.000457741
0.000472958
0.000470442
0.000460226
0.000457723
0.000470451
0.000472968
0.000457741
0.000473003
0.000457693
0.000472999
0.000457692
0.000473003
0.000457693
0.000472999
0.000457692
0.000493451
0.000478142
0.000493451
0.000478142
0.000472864
0.000457688
0.000457689
0.000473005
0.000473005
0.000457692
0.000473001
0.000457692
0.000473001
0.000452551
0.000437243
0.000452551
0.000437243
0.000452555
0.000452555
0.000437354
0.00043724
0.00043724
0.000416795
0.000432102
0.000416795
0.000432103
0.000431965
0.000416791
0.000416791
0.000432106
0.000432106
0.000437243
0.00045255
0.000452553
0.000437244
0.000437292
0.000452518
0.000450002
0.000439768
0.000452509
0.000437274
0.000439777
0.000437292
0.000452518
0.000450002
0.000439768
0.000452509
0.000437275
0.000439777
0.000432105
0.000416796
0.000432101
0.000416795
0.000432105
0.000416796
0.000432101
0.000416795
0.00043206
0.000429544
0.000416826
0.000419329
0.00043207
0.000429553
0.000416844
0.00043206
0.000429544
0.000416826
0.000419329
0.00043207
0.000429553
0.000416844
0.000452555
0.000452555
0.000437354
0.00043724
0.00043724
0.000452552
0.000437243
0.000416795
0.000432103
0.000431965
0.000416792
0.000416792
0.000432106
0.000432106
0.000416795
0.000432103
0.000437292
0.000452518
0.000450002
0.000439768
0.000452509
0.000437274
0.000439777
0.000437243
0.000452549
0.000452553
0.000437244
0.000437292
0.000450002
0.000452518
0.000439768
0.000452509
0.000439777
0.000437275
0.000432105
0.000416796
0.000432101
0.000416795
0.00043206
0.000429544
0.000416826
0.000419329
0.000432069
0.000429553
0.000416844
0.000432105
0.000416796
0.000432101
0.000416795
0.00043206
0.000429544
0.000419329
0.000416826
0.000429553
0.000432069
0.000416844
0.000437243
0.00045255
0.000452553
0.000437244
0.000437292
0.000450002
0.000452518
0.000439768
0.000452509
0.000439777
0.000437275
0.000437243
0.00045255
0.000452553
0.000437244
0.00043206
0.000429544
0.000416826
0.000419329
0.000432069
0.000429553
0.000416844
0.000432104
0.000416796
0.000432101
0.000416795
0.00043206
0.000429544
0.000419329
0.000416826
0.000429553
0.00043207
0.000416844
0.000432104
0.000416796
0.000432101
0.000416795
0.000452555
0.000452555
0.000437354
0.00043724
0.000437239
0.000452551
0.000437243
0.000416795
0.000432103
0.000431965
0.000416792
0.000416791
0.000432106
0.000432106
0.000416795
0.000432102
0.000437292
0.000450002
0.000452518
0.000439768
0.000452509
0.000439777
0.000437275
0.000437243
0.000452549
0.000452553
0.000437244
0.000437243
0.00045255
0.000452553
0.000437244
0.00043206
0.000429544
0.000419329
0.000416826
0.000429553
0.000432069
0.000416844
0.00043206
0.000429544
0.000419329
0.000416826
0.000429553
0.00043207
0.000416844
0.000432104
0.000416796
0.000432101
0.000416795
0.000432104
0.000416796
0.000432101
0.000416795
0.000452551
0.000437243
0.000452551
0.000437243
0.000431966
0.000416791
0.000416792
0.000432107
0.000432107
0.000416795
0.000432103
0.000416795
0.000432103
0.000411654
0.000396348
0.000411654
0.000396348
0.000411658
0.000411659
0.000396459
0.000396344
0.000396344
0.000375901
0.000391208
0.000375901
0.000391208
0.00039107
0.000375897
0.000375897
0.000391212
0.000391212
0.000396347
0.000411653
0.000411656
0.000396348
0.000396396
0.000411622
0.000409105
0.000398872
0.000411612
0.000396379
0.000398882
0.000396396
0.000411621
0.000409105
0.000398872
0.000411612
0.000396379
0.000398882
0.000391209
0.000375902
0.000391206
0.000375901
0.000391209
0.000375902
0.000391206
0.000375901
0.000391165
0.000388649
0.000375932
0.000378435
0.000391175
0.000388658
0.00037595
0.000391165
0.000388649
0.000375932
0.000378435
0.000391174
0.000388658
0.00037595
0.000411658
0.000411658
0.000396458
0.000396344
0.000396344
0.000411655
0.000396347
0.000375901
0.000391207
0.00039107
0.000375897
0.000375898
0.000391211
0.000391211
0.0003759
0.000391207
0.000396396
0.000411621
0.000409105
0.000398872
0.000411612
0.000396379
0.000398882
0.000396347
0.000411653
0.000411656
0.000396348
0.000396396
0.000409105
0.000411621
0.000398872
0.000411612
0.000398882
0.000396379
0.000391209
0.000375902
0.000391206
0.0003759
0.000391165
0.000388649
0.000375932
0.000378435
0.000391174
0.000388658
0.00037595
0.000391209
0.000375902
0.000391206
0.0003759
0.000391165
0.000388649
0.000378434
0.000375932
0.000388658
0.000391174
0.000375949
0.000396348
0.000411653
0.000411656
0.000396349
0.000396397
0.000409105
0.000411621
0.000398872
0.000411612
0.000398882
0.000396379
0.000396348
0.000411653
0.000411656
0.000396349
0.000391165
0.000388649
0.000375932
0.000378434
0.000391174
0.000388658
0.00037595
0.000391209
0.000375902
0.000391206
0.000375901
0.000391165
0.000388649
0.000378435
0.000375932
0.000388658
0.000391174
0.00037595
0.000391209
0.000375901
0.000391206
0.000375901
0.000411658
0.000411658
0.000396458
0.000396344
0.000396344
0.000411654
0.000396347
0.0003759
0.000391207
0.00039107
0.000375897
0.000375897
0.000391211
0.000391211
0.000375901
0.000391207
0.000396397
0.000409105
0.000411621
0.000398872
0.000411612
0.000398881
0.000396379
0.000396348
0.000411653
0.000411656
0.000396348
0.000396348
0.000411653
0.000411656
0.000396348
0.000391165
0.000388649
0.000378434
0.000375932
0.000388658
0.000391174
0.00037595
0.000391165
0.000388649
0.000378434
0.000375932
0.000388658
0.000391174
0.00037595
0.000391209
0.000375902
0.000391206
0.000375901
0.000391209
0.000375901
0.000391206
0.000375901
0.000411654
0.000396348
0.000411654
0.000396347
0.00039107
0.000375897
0.000375897
0.000391211
0.000391211
0.0003759
0.000391207
0.0003759
0.000391207
0.000370761
0.000355454
0.000370761
0.000355454
0.000370765
0.000370765
0.000355565
0.00035545
0.000355451
0.000335008
0.000350314
0.000335008
0.000350314
0.000350177
0.000335004
0.000335004
0.000350318
0.000350318
0.000355454
0.000370759
0.000370763
0.000355455
0.000355503
0.000370728
0.000368211
0.000357979
0.000370718
0.000355485
0.000357988
0.000355503
0.000370728
0.000368211
0.000357979
0.000370718
0.000355485
0.000357988
0.000350316
0.000335009
0.000350312
0.000335008
0.000350316
0.000335008
0.000350313
0.000335008
0.000350272
0.000347756
0.000335039
0.000337542
0.000350281
0.000347765
0.000335057
0.000350272
0.000347756
0.000335039
0.000337542
0.000350281
0.000347765
0.000335057
0.000370764
0.000370764
0.000355565
0.000355451
0.000355451
0.000370761
0.000355454
0.000335007
0.000350314
0.000350177
0.000335004
0.000335005
0.000350318
0.000350318
0.000335007
0.000350315
0.000355503
0.000370727
0.000368211
0.000357979
0.000370718
0.000355486
0.000357988
0.000355454
0.000370759
0.000370762
0.000355455
0.000355503
0.000368211
0.000370727
0.000357979
0.000370718
0.000357988
0.000355486
0.000350316
0.000335008
0.000350313
0.000335008
0.000350272
0.000347756
0.000335039
0.000337542
0.000350281
0.000347765
0.000335057
0.000350316
0.000335008
0.000350313
0.000335008
0.000350272
0.000347756
0.000337542
0.000335039
0.000347765
0.000350281
0.000335057
0.000355454
0.000370759
0.000370763
0.000355455
0.000355503
0.000368211
0.000370727
0.000357979
0.000370718
0.000357988
0.000355485
0.000355454
0.000370759
0.000370762
0.000355455
0.000350272
0.000347756
0.000335039
0.000337542
0.000350281
0.000347765
0.000335057
0.000350316
0.000335009
0.000350313
0.000335009
0.000350272
0.000347756
0.000337542
0.000335039
0.000347765
0.000350281
0.000335057
0.000350316
0.000335009
0.000350313
0.000335009
0.000370764
0.000370764
0.000355565
0.000355451
0.000355451
0.00037076
0.000355454
0.000335007
0.000350314
0.000350177
0.000335004
0.000335004
0.000350318
0.000350318
0.000335007
0.000350314
0.000355503
0.000368211
0.000370727
0.000357979
0.000370718
0.000357988
0.000355485
0.000355454
0.000370759
0.000370762
0.000355455
0.000355454
0.000370759
0.000370762
0.000355455
0.000350271
0.000347756
0.000337542
0.000335039
0.000347765
0.000350281
0.000335057
0.000350271
0.000347756
0.000337542
0.000335039
0.000347765
0.000350281
0.000335057
0.000350316
0.000335008
0.000350313
0.000335009
0.000350316
0.000335009
0.000350313
0.000335009
0.00037076
0.000355454
0.00037076
0.000355454
0.000350177
0.000335004
0.000335004
0.000350318
0.000350318
0.000335008
0.000350314
0.000335008
0.000350314
0.000329869
0.00031456
0.000329869
0.000314559
0.000329872
0.000329872
0.000314673
0.000314558
0.000314557
0.000294111
0.000309424
0.000294111
0.000309424
0.000309285
0.000294111
0.000294111
0.000309427
0.000309427
0.000314563
0.000329867
0.000329869
0.000314561
0.000314611
0.000329835
0.00032732
0.000317087
0.000329825
0.000314594
0.000317096
0.000314611
0.000329835
0.00032732
0.000317087
0.000329825
0.000314594
0.000317096
0.000309423
0.000294115
0.000309422
0.000294116
0.000309423
0.000294115
0.000309422
0.000294116
0.000309378
0.000306865
0.00029415
0.000296649
0.000309388
0.000306874
0.000294166
0.000309378
0.000306865
0.00029415
0.000296649
0.000309388
0.000306874
0.000294166
0.000329872
0.000329872
0.000314673
0.000314558
0.000314558
0.000329869
0.00031456
0.000294111
0.000309424
0.000309284
0.000294111
0.000294111
0.000309426
0.000309426
0.00029411
0.000309425
0.000314611
0.000329835
0.000327319
0.000317087
0.000329825
0.000314594
0.000317096
0.000314562
0.000329867
0.000329869
0.000314561
0.000314611
0.000327319
0.000329835
0.000317087
0.000329825
0.000317096
0.000314593
0.000309422
0.000294115
0.000309421
0.000294116
0.000309378
0.000306865
0.00029415
0.000296649
0.000309387
0.000306873
0.000294166
0.000309422
0.000294115
0.000309421
0.000294116
0.000309378
0.000306864
0.000296649
0.00029415
0.000306873
0.000309387
0.000294166
0.000314563
0.000329867
0.000329869
0.000314562
0.000314611
0.00032732
0.000329835
0.000317087
0.000329825
0.000317096
0.000314593
0.000314563
0.000329867
0.000329869
0.000314561
0.000309378
0.000306865
0.00029415
0.000296649
0.000309388
0.000306874
0.000294166
0.000309423
0.000294115
0.000309422
0.000294116
0.000309378
0.000306865
0.000296649
0.00029415
0.000306874
0.000309387
0.000294166
0.000309423
0.000294115
0.000309421
0.000294116
0.000329872
0.000329872
0.000314673
0.000314557
0.000314557
0.000329869
0.00031456
0.000294111
0.000309424
0.000309285
0.000294111
0.000294111
0.000309426
0.000309426
0.000294111
0.000309424
0.000314611
0.000327319
0.000329835
0.000317087
0.000329825
0.000317096
0.000314593
0.000314563
0.000329867
0.000329869
0.000314561
0.000314563
0.000329867
0.000329869
0.000314561
0.000309378
0.000306865
0.000296649
0.00029415
0.000306873
0.000309387
0.000294166
0.000309378
0.000306864
0.000296649
0.000294149
0.000306873
0.000309387
0.000294166
0.000309422
0.000294115
0.000309421
0.000294116
0.000309422
0.000294115
0.000309421
0.000294116
0.000329868
0.000314559
0.000329868
0.000314559
0.000309285
0.000294111
0.000294111
0.000309426
0.000309426
0.000294111
0.000309424
0.000294111
0.000309424
0.000288977
0.000273668
0.000288978
0.000273668
0.000288977
0.000288977
0.000273779
0.000273672
0.000273672
0.000253233
0.000268524
0.000253232
0.000268523
0.000268385
0.000253233
0.000253233
0.000268523
0.000268522
0.000273678
0.000288972
0.000288973
0.000273677
0.000273725
0.000288935
0.000286425
0.000276189
0.000288928
0.00027371
0.000276198
0.000273725
0.000288935
0.000286425
0.00027619
0.000288928
0.000273711
0.000276198
0.000268519
0.000253234
0.000268518
0.000253244
0.000268519
0.000253235
0.00026852
0.000253244
0.000268476
0.000265965
0.000253264
0.000255752
0.000268483
0.000265974
0.000253278
0.000268476
0.000265965
0.000253265
0.000255752
0.000268485
0.000265975
0.000253278
0.000288977
0.000288977
0.000273779
0.000273674
0.000273674
0.000288978
0.00027367
0.000253234
0.000268526
0.000268386
0.000253234
0.000253235
0.000268524
0.000268524
0.000253233
0.000268526
0.000273724
0.000288935
0.000286425
0.000276189
0.000288927
0.000273709
0.000276198
0.000273676
0.000288972
0.000288973
0.000273674
0.000273724
0.000286425
0.000288935
0.000276189
0.000288927
0.000276198
0.000273709
0.000268518
0.000253233
0.000268517
0.000253244
0.000268476
0.000265964
0.000253264
0.000255751
0.000268482
0.000265974
0.000253278
0.000268518
0.000253233
0.000268517
0.000253244
0.000268475
0.000265964
0.000255751
0.000253264
0.000265974
0.000268482
0.000253278
0.000273678
0.000288972
0.000288974
0.000273677
0.000273725
0.000286425
0.000288935
0.00027619
0.000288928
0.000276198
0.00027371
0.000273678
0.000288972
0.000288973
0.000273676
0.000268477
0.000265966
0.000253265
0.000255752
0.000268484
0.000265975
0.000253279
0.000268519
0.000253235
0.00026852
0.000253244
0.000268476
0.000265965
0.000255752
0.000253264
0.000265975
0.000268484
0.000253279
0.000268519
0.000253234
0.000268519
0.000253244
0.000288976
0.000288977
0.000273778
0.000273671
0.000273671
0.000288978
0.000273668
0.000253231
0.000268523
0.000268385
0.000253233
0.000253233
0.000268521
0.000268522
0.000253233
0.000268523
0.000273725
0.000286425
0.000288935
0.000276189
0.000288927
0.000276198
0.00027371
0.000273677
0.000288972
0.000288973
0.000273674
0.000273677
0.000288971
0.000288973
0.000273675
0.000268476
0.000265965
0.000255752
0.000253264
0.000265974
0.000268482
0.000253278
0.000268476
0.000265965
0.000255752
0.000253264
0.000265974
0.000268483
0.000253279
0.000268518
0.000253234
0.000268517
0.000253244
0.000268518
0.000253234
0.000268518
0.000253244
0.000288977
0.000273669
0.000288977
0.000273669
0.000268386
0.000253234
0.000253234
0.000268523
0.000268523
0.000253233
0.000268524
0.000253233
0.000268524
0.000248079
0.000232771
0.000248079
0.000232771
0.00024808
0.00024808
0.000232892
0.000232771
0.000232771
0.000212301
0.000227651
0.000212302
0.000227652
0.000227499
0.00021231
0.000212312
0.000227651
0.000227652
0.00023277
0.000248082
0.000248068
0.000232774
0.000232812
0.000248045
0.000245535
0.000235309
0.000248039
0.000232806
0.000235317
0.000232812
0.000248047
0.000245535
0.000235309
0.000248039
0.000232806
0.000235317
0.000227663
0.000212309
0.000227644
0.000212291
0.000227663
0.000212308
0.000227643
0.000212291
0.000227612
0.000225084
0.000212353
0.00021486
0.000227612
0.000225094
0.000212365
0.000227612
0.000225084
0.000212351
0.000214859
0.000227611
0.000225094
0.000212365
0.000248081
0.000248081
0.000232892
0.00023277
0.00023277
0.000248081
0.000232769
0.0002123
0.00022765
0.000227499
0.00021231
0.000212309
0.00022765
0.00022765
0.0002123
0.00022765
0.000232813
0.000248046
0.000245535
0.000235309
0.000248039
0.000232806
0.000235318
0.000232769
0.000248079
0.000248068
0.000232775
0.000232812
0.000245535
0.000248046
0.00023531
0.000248039
0.000235318
0.000232806
0.000227663
0.00021231
0.000227644
0.000212294
0.000227613
0.000225084
0.000212353
0.00021486
0.00022761
0.000225094
0.000212367
0.000227663
0.000212311
0.000227645
0.000212294
0.000227613
0.000225084
0.00021486
0.000212354
0.000225094
0.000227611
0.000212367
0.00023277
0.000248082
0.000248068
0.000232774
0.000232812
0.000245535
0.000248046
0.00023531
0.000248039
0.000235317
0.000232806
0.00023277
0.000248079
0.000248068
0.000232774
0.000227612
0.000225084
0.000212351
0.000214859
0.00022761
0.000225094
0.000212365
0.000227663
0.000212308
0.000227643
0.000212291
0.000227612
0.000225084
0.00021486
0.000212352
0.000225094
0.000227611
0.000212365
0.000227663
0.000212309
0.000227643
0.000212291
0.00024808
0.000248081
0.000232892
0.000232772
0.000232772
0.00024808
0.000232772
0.000212303
0.000227653
0.0002275
0.000212313
0.000212312
0.000227654
0.000227653
0.000212302
0.000227653
0.000232813
0.000245535
0.000248046
0.000235309
0.000248039
0.000235317
0.000232806
0.000232771
0.000248079
0.000248069
0.000232776
0.000232771
0.000248079
0.000248068
0.000232775
0.000227612
0.000225084
0.00021486
0.000212353
0.000225094
0.000227612
0.000212366
0.000227612
0.000225084
0.00021486
0.000212352
0.000225094
0.000227611
0.000212366
0.000227664
0.00021231
0.000227645
0.000212292
0.000227663
0.000212309
0.000227644
0.000212292
0.00024808
0.000232771
0.00024808
0.000232771
0.000227499
0.00021231
0.000212311
0.000227652
0.000227652
0.0002123
0.000227651
0.000212301
0.000227651
0.000207196
0.000191842
0.000207197
0.000191843
0.000207186
0.000207188
0.000191979
0.000191869
0.000191869
0.000171388
0.000186741
0.000171388
0.000186741
0.000186573
0.000171429
0.000171429
0.000186713
0.000186713
0.000191898
0.000207188
0.000207195
0.000191861
0.000191936
0.000207143
0.000204622
0.000194387
0.000207127
0.000191916
0.000194391
0.000191935
0.000207141
0.000204622
0.000194386
0.000207127
0.000191916
0.000194391
0.000186687
0.000171422
0.000186715
0.000171409
0.000186687
0.000171422
0.000186716
0.000171409
0.00018666
0.000184158
0.000171467
0.000173951
0.000186663
0.000184173
0.000171453
0.00018666
0.000184158
0.000171468
0.000173951
0.000186662
0.000184173
0.000171453
0.000207186
0.000207185
0.000191978
0.000191869
0.000191869
0.000207195
0.000191843
0.000171389
0.000186741
0.000186573
0.00017143
0.00017143
0.000186713
0.000186712
0.000171389
0.000186742
0.000191937
0.000207144
0.000204623
0.000194387
0.000207129
0.000191917
0.000194391
0.000191899
0.000207191
0.000207198
0.000191862
0.000191936
0.000204623
0.000207145
0.000194387
0.000207129
0.000194392
0.000191918
0.000186687
0.000171422
0.000186716
0.000171409
0.00018666
0.000184158
0.000171467
0.000173951
0.000186663
0.000184173
0.000171453
0.000186687
0.000171422
0.000186716
0.000171409
0.00018666
0.000184159
0.000173951
0.000171467
0.000184173
0.000186662
0.000171453
0.000191898
0.000207188
0.000207195
0.000191861
0.000191935
0.000204622
0.000207142
0.000194386
0.000207127
0.000194391
0.000191917
0.000191898
0.000207189
0.000207195