/*--------------------------------*- C++ -*----------------------------------*\
| =========                 |                                                 |
| \\      /  F ield         | OpenFOAM: The Open Source CFD Toolbox           |
|  \\    /   O peration     | Version:  2206                                  |
|   \\  /    A nd           | Website:  www.openfoam.com                      |
|    \\/     M anipulation  |                                                 |
\*---------------------------------------------------------------------------*/
FoamFile
{
    version     2.0;
    format      ascii;
    arch        "LSB;label=32;scalar=64";
    class       volVectorField;
    location    "7.5";
    object      U;
}
// * * * * * * * * * * * * * * * * * * * * * * * * * * * * * * * * * * * * * //

dimensions      [0 1 -1 0 0 0 0];

internalField   nonuniform List<vector> 
28897
(
(-3.63521e-07 -3.63606e-07 0.100986)
(-1.38757e-07 3.38215e-07 0.100985)
(3.24057e-07 -1.28513e-07 0.100985)
(-3.39366e-05 -3.3953e-05 0.100983)
(-2.67846e-07 -2.71954e-07 0.100986)
(-2.87997e-07 4.22681e-07 0.100985)
(4.16457e-07 -2.83796e-07 0.100985)
(-3.40774e-05 -3.41105e-05 0.100982)
(-3.16799e-07 -3.11829e-07 0.100986)
(-2.30986e-07 3.87727e-07 0.100985)
(3.80494e-07 -2.24347e-07 0.100985)
(-3.40199e-05 -3.40278e-05 0.100983)
(-3.20966e-07 -3.18357e-07 0.100986)
(-2.15301e-07 3.77838e-07 0.100985)
(3.76242e-07 -2.1578e-07 0.100985)
(-3.40079e-05 -3.4022e-05 0.100983)
(-3.21096e-07 -3.19404e-07 0.100986)
(-2.13586e-07 3.76633e-07 0.100985)
(3.75945e-07 -2.1485e-07 0.100985)
(-3.40061e-05 -3.40215e-05 0.100983)
(-3.20881e-07 -3.19239e-07 0.100986)
(-2.14015e-07 3.76756e-07 0.100985)
(3.75937e-07 -2.15017e-07 0.100985)
(-3.4006e-05 -3.4022e-05 0.100983)
(-3.21014e-07 -3.19517e-07 0.100986)
(-2.12995e-07 3.76361e-07 0.100985)
(3.75728e-07 -2.14102e-07 0.100985)
(-3.4005e-05 -3.40209e-05 0.100983)
(-3.20503e-07 -3.1918e-07 0.100986)
(-2.14892e-07 3.77522e-07 0.100985)
(3.77125e-07 -2.16588e-07 0.100985)
(-3.40067e-05 -3.40225e-05 0.100983)
(-3.20457e-07 -3.19445e-07 0.100986)
(-2.1414e-07 3.77171e-07 0.100985)
(3.76628e-07 -2.16158e-07 0.100985)
(-3.40064e-05 -3.40226e-05 0.100983)
(-3.19853e-07 -3.1893e-07 0.100986)
(-2.14946e-07 3.78796e-07 0.100985)
(3.75957e-07 -2.1724e-07 0.100985)
(-3.40029e-05 -3.40255e-05 0.100983)
(-3.15415e-07 -3.13585e-07 0.100986)
(-2.12233e-07 3.76305e-07 0.100985)
(3.76163e-07 -2.16045e-07 0.100985)
(-3.40049e-05 -3.4023e-05 0.100983)
(-3.23195e-07 -3.18196e-07 0.100986)
(-2.14094e-07 3.8774e-07 0.100985)
(3.76e-07 -2.14815e-07 0.100985)
(-3.40067e-05 -3.40206e-05 0.100983)
(-3.21421e-07 -3.18989e-07 0.100986)
(-2.14561e-07 3.79193e-07 0.100985)
(3.75828e-07 -2.14556e-07 0.100985)
(-3.40061e-05 -3.40209e-05 0.100983)
(-3.20874e-07 -3.19526e-07 0.100986)
(-2.13169e-07 3.7696e-07 0.100985)
(3.75394e-07 -2.13462e-07 0.100985)
(-3.4005e-05 -3.40203e-05 0.100983)
(-3.20587e-07 -3.19643e-07 0.100986)
(-2.14292e-07 3.7731e-07 0.100985)
(3.75395e-07 -2.14435e-07 0.100985)
(-3.40061e-05 -3.4022e-05 0.100983)
(-3.20563e-07 -3.19849e-07 0.100986)
(-2.14032e-07 3.77081e-07 0.100985)
(3.75515e-07 -2.14071e-07 0.100985)
(-3.40059e-05 -3.40217e-05 0.100983)
(-3.20502e-07 -3.19984e-07 0.100986)
(-2.15026e-07 3.78091e-07 0.100985)
(3.76432e-07 -2.15164e-07 0.100985)
(-3.40039e-05 -3.40195e-05 0.100983)
(-3.36478e-07 -3.35488e-07 0.100986)
(-1.85347e-07 3.58883e-07 0.100985)
(3.57272e-07 -1.85471e-07 0.100985)
(-3.39728e-05 -3.39879e-05 0.100983)
(-3.51547e-05 -3.51236e-05 0.100983)
(3.46431e-07 1.60023e-07 0.100985)
(-3.70182e-07 1.75892e-07 0.100985)
(3.51436e-05 -3.51245e-05 0.100983)
(1.5147e-07 3.37825e-07 0.100985)
(1.60201e-07 -3.45809e-07 0.100985)
(-1.79817e-07 3.59857e-07 0.100985)
(-1.72138e-07 -3.44487e-07 0.100985)
(-3.51237e-05 3.51564e-05 0.100983)
(3.38548e-07 -1.50971e-07 0.100985)
(-3.40422e-07 -1.49868e-07 0.100985)
(3.51294e-05 3.51511e-05 0.100983)
(3.39491e-05 3.39205e-05 0.100983)
(-3.50453e-05 -3.50237e-05 0.100982)
(3.32058e-07 1.31278e-07 0.100985)
(-3.50575e-07 1.40232e-07 0.100985)
(4.43389e-07 2.87923e-07 0.100985)
(-3.89849e-07 2.80946e-07 0.100985)
(-3.39554e-05 3.39293e-05 0.100983)
(3.51097e-05 -3.50648e-05 0.100982)
(1.30234e-07 3.21556e-07 0.100985)
(1.356e-07 -3.29971e-07 0.100985)
(2.86242e-07 4.18769e-07 0.100985)
(2.93842e-07 -4.30021e-07 0.100985)
(-1.37924e-07 -3.30461e-07 0.100985)
(-2.49417e-07 3.93942e-07 0.100985)
(-2.69273e-07 -4.42385e-07 0.100985)
(3.3924e-05 -3.39557e-05 0.100983)
(-3.50197e-05 3.50567e-05 0.100982)
(-3.15976e-07 -1.25459e-07 0.100985)
(4.2305e-07 -2.82625e-07 0.100985)
(-4.10568e-07 -2.90974e-07 0.100985)
(3.50499e-05 3.50311e-05 0.100982)
(3.41071e-05 3.40736e-05 0.100982)
(-3.51223e-05 -3.50875e-05 0.100983)
(4.30326e-07 2.8688e-07 0.100985)
(-4.31878e-07 2.97442e-07 0.100985)
(3.91247e-07 2.41034e-07 0.100985)
(-4.10026e-07 2.45999e-07 0.100985)
(-3.40768e-05 3.40629e-05 0.100982)
(3.51046e-05 -3.5084e-05 0.100983)
(2.86512e-07 4.14403e-07 0.100985)
(2.9213e-07 -4.23411e-07 0.100985)
(2.28796e-07 3.86971e-07 0.100985)
(2.37916e-07 -3.9309e-07 0.100985)
(-2.87865e-07 -4.27708e-07 0.100985)
(-2.41762e-07 3.94883e-07 0.100985)
(-2.45199e-07 -3.87011e-07 0.100985)
(3.40785e-05 -3.41067e-05 0.100982)
(-3.50913e-05 3.51227e-05 0.100983)
(-4.11913e-07 -2.85984e-07 0.100985)
(3.83464e-07 -2.29734e-07 0.100985)
(-3.86817e-07 -2.27746e-07 0.100985)
(3.50916e-05 3.51184e-05 0.100983)
(3.40279e-05 3.4004e-05 0.100983)
(-3.51334e-05 -3.51002e-05 0.100983)
(3.87802e-07 2.31426e-07 0.100985)
(-4.02029e-07 2.36544e-07 0.100985)
(3.84932e-07 2.23923e-07 0.100985)
(-3.90651e-07 2.25386e-07 0.100985)
(-3.40361e-05 3.40057e-05 0.100983)
(3.51289e-05 -3.51034e-05 0.100983)
(2.23974e-07 3.83899e-07 0.100985)
(2.30503e-07 -3.89198e-07 0.100985)
(2.13307e-07 3.7772e-07 0.100985)
(2.22404e-07 -3.84534e-07 0.100985)
(-2.36295e-07 -3.84969e-07 0.100985)
(-2.16147e-07 3.79057e-07 0.100985)
(-2.2335e-07 -3.81945e-07 0.100985)
(3.40025e-05 -3.40359e-05 0.100983)
(-3.51022e-05 3.51349e-05 0.100983)
(-3.83623e-07 -2.21406e-07 0.100985)
(3.75404e-07 -2.14299e-07 0.100985)
(-3.76224e-07 -2.13819e-07 0.100985)
(3.51077e-05 3.51275e-05 0.100983)
(3.4021e-05 3.39952e-05 0.100983)
(-3.51335e-05 -3.51015e-05 0.100983)
(3.85506e-07 2.21763e-07 0.100985)
(-3.89315e-07 2.24987e-07 0.100985)
(3.84702e-07 2.21618e-07 0.100985)
(-3.87185e-07 2.22901e-07 0.100985)
(-3.40183e-05 3.39913e-05 0.100983)
(3.51313e-05 -3.5105e-05 0.100983)
(2.16625e-07 3.7842e-07 0.100985)
(2.22719e-07 -3.84399e-07 0.100985)
(2.12146e-07 3.75914e-07 0.100985)
(2.20922e-07 -3.83109e-07 0.100985)
(-2.22585e-07 -3.8245e-07 0.100985)
(-2.126e-07 3.76555e-07 0.100985)
(-2.19807e-07 -3.81176e-07 0.100985)
(3.39953e-05 -3.40278e-05 0.100983)
(-3.5103e-05 3.5136e-05 0.100983)
(-3.75932e-07 -2.13763e-07 0.100985)
(3.74349e-07 -2.12315e-07 0.100985)
(-3.73277e-07 -2.12167e-07 0.100985)
(3.51101e-05 3.51282e-05 0.100983)
(3.40206e-05 3.39938e-05 0.100983)
(-3.51333e-05 -3.51018e-05 0.100983)
(3.85025e-07 2.19728e-07 0.100985)
(-3.87374e-07 2.23389e-07 0.100985)
(3.84972e-07 2.21676e-07 0.100985)
(-3.87481e-07 2.23358e-07 0.100985)
(-3.40162e-05 3.39901e-05 0.100983)
(3.51313e-05 -3.5105e-05 0.100983)
(2.1538e-07 3.76771e-07 0.100985)
(2.21562e-07 -3.83715e-07 0.100985)
(2.12354e-07 3.75776e-07 0.100985)
(2.20924e-07 -3.83328e-07 0.100985)
(-2.20894e-07 -3.8257e-07 0.100985)
(-2.13165e-07 3.76886e-07 0.100985)
(-2.20337e-07 -3.81793e-07 0.100985)
(3.39947e-05 -3.40268e-05 0.100983)
(-3.51032e-05 3.51361e-05 0.100983)
(-3.74529e-07 -2.13252e-07 0.100985)
(3.74579e-07 -2.12648e-07 0.100985)
(-3.73472e-07 -2.12854e-07 0.100985)
(3.51102e-05 3.51276e-05 0.100983)
(3.40209e-05 3.39938e-05 0.100983)
(-3.51335e-05 -3.51022e-05 0.100983)
(3.85521e-07 2.20316e-07 0.100985)
(-3.87622e-07 2.23937e-07 0.100985)
(3.84604e-07 2.20935e-07 0.100985)
(-3.86723e-07 2.22569e-07 0.100985)
(-3.40166e-05 3.39903e-05 0.100983)
(3.51317e-05 -3.51054e-05 0.100983)
(2.16085e-07 3.77e-07 0.100985)
(2.21765e-07 -3.8378e-07 0.100985)
(2.11797e-07 3.75285e-07 0.100985)
(2.20407e-07 -3.8268e-07 0.100985)
(-2.21337e-07 -3.82906e-07 0.100985)
(-2.11985e-07 3.7624e-07 0.100985)
(-2.18873e-07 -3.80693e-07 0.100985)
(3.39945e-05 -3.40268e-05 0.100983)
(-3.51034e-05 3.51365e-05 0.100983)
(-3.74633e-07 -2.13732e-07 0.100985)
(3.74242e-07 -2.11658e-07 0.100985)
(-3.72433e-07 -2.11545e-07 0.100985)
(3.51112e-05 3.51287e-05 0.100983)
(3.40206e-05 3.39934e-05 0.100983)
(-3.51328e-05 -3.51013e-05 0.100983)
(3.85175e-07 2.19485e-07 0.100985)
(-3.86959e-07 2.23201e-07 0.100985)
(3.85737e-07 2.22383e-07 0.100985)
(-3.8782e-07 2.2401e-07 0.100985)
(-3.4016e-05 3.39898e-05 0.100983)
(3.51311e-05 -3.51047e-05 0.100983)
(2.15397e-07 3.76572e-07 0.100985)
(2.21202e-07 -3.83215e-07 0.100985)
(2.13353e-07 3.76503e-07 0.100985)
(2.22118e-07 -3.84135e-07 0.100985)
(-2.1982e-07 -3.81886e-07 0.100985)
(-2.13569e-07 3.77369e-07 0.100985)
(-2.20573e-07 -3.82214e-07 0.100985)
(3.39943e-05 -3.40264e-05 0.100983)
(-3.51024e-05 3.51355e-05 0.100983)
(-3.73651e-07 -2.12486e-07 0.100985)
(3.75638e-07 -2.13346e-07 0.100985)
(-3.73984e-07 -2.13494e-07 0.100985)
(3.51098e-05 3.51275e-05 0.100983)
(3.40216e-05 3.39947e-05 0.100983)
(-3.51324e-05 -3.51012e-05 0.100983)
(3.86227e-07 2.21011e-07 0.100985)
(-3.88148e-07 2.24777e-07 0.100985)
(3.85388e-07 2.22413e-07 0.100985)
(-3.88454e-07 2.23914e-07 0.100985)
(-3.4017e-05 3.39909e-05 0.100983)
(3.51305e-05 -3.51048e-05 0.100983)
(2.1694e-07 3.77627e-07 0.100985)
(2.2301e-07 -3.84742e-07 0.100985)
(2.13423e-07 3.76516e-07 0.100985)
(2.21827e-07 -3.84121e-07 0.100985)
(-2.22166e-07 -3.83727e-07 0.100985)
(-2.13536e-07 3.77261e-07 0.100985)
(-2.20606e-07 -3.82218e-07 0.100985)
(3.39957e-05 -3.40278e-05 0.100983)
(-3.51023e-05 3.51351e-05 0.100983)
(-3.75508e-07 -2.14895e-07 0.100985)
(3.75414e-07 -2.13357e-07 0.100985)
(-3.74144e-07 -2.13478e-07 0.100985)
(3.51092e-05 3.51271e-05 0.100983)
(3.40215e-05 3.39949e-05 0.100983)
(-3.51322e-05 -3.51022e-05 0.100983)
(3.86528e-07 2.21021e-07 0.100985)
(-3.87365e-07 2.24606e-07 0.100985)
(3.8377e-07 2.2294e-07 0.100985)
(-3.88483e-07 2.23502e-07 0.100985)
(-3.4017e-05 3.39911e-05 0.100983)
(3.51315e-05 -3.51025e-05 0.100983)
(2.16612e-07 3.77342e-07 0.100985)
(2.22648e-07 -3.8458e-07 0.100985)
(2.1514e-07 3.76258e-07 0.100985)
(2.23011e-07 -3.85128e-07 0.100985)
(-2.21794e-07 -3.83352e-07 0.100985)
(-2.13944e-07 3.7853e-07 0.100985)
(-2.24229e-07 -3.83815e-07 0.100985)
(3.39954e-05 -3.40279e-05 0.100983)
(-3.5103e-05 3.51339e-05 0.100983)
(-3.74832e-07 -2.14678e-07 0.100985)
(3.74923e-07 -2.14487e-07 0.100985)
(-3.73457e-07 -2.17617e-07 0.100985)
(3.51127e-05 3.51246e-05 0.100983)
(3.40196e-05 3.39931e-05 0.100983)
(-3.51217e-05 -3.51072e-05 0.100983)
(3.84221e-07 2.19841e-07 0.100985)
(-3.88507e-07 2.30924e-07 0.100985)
(3.8632e-07 2.26298e-07 0.100985)
(-3.88828e-07 2.32526e-07 0.100985)
(-3.40152e-05 3.39925e-05 0.100983)
(3.51302e-05 -3.51023e-05 0.100983)
(2.1984e-07 3.76226e-07 0.100985)
(2.24229e-07 -3.8565e-07 0.100985)
(2.21785e-07 3.80608e-07 0.100985)
(2.24033e-07 -3.84473e-07 0.100985)
(-2.28906e-07 -3.86048e-07 0.100985)
(-2.10416e-07 3.7461e-07 0.100985)
(-2.27911e-07 -3.84246e-07 0.100985)
(3.39951e-05 -3.40293e-05 0.100983)
(-3.51028e-05 3.51347e-05 0.100983)
(-3.72488e-07 -2.21758e-07 0.100985)
(3.74307e-07 -2.1465e-07 0.100985)
(-3.69455e-07 -2.18591e-07 0.100985)
(3.51125e-05 3.51258e-05 0.100983)
(3.40277e-05 3.39988e-05 0.100983)
(-3.51345e-05 -3.51089e-05 0.100983)
(3.90489e-07 2.29294e-07 0.100985)
(-3.85194e-07 2.2054e-07 0.100985)
(3.78845e-07 2.1627e-07 0.100985)
(-3.91746e-07 2.34348e-07 0.100985)
(-3.40201e-05 3.39901e-05 0.100983)
(3.5127e-05 -3.50954e-05 0.100983)
(2.24156e-07 3.80356e-07 0.100985)
(2.24154e-07 -3.84088e-07 0.100985)
(2.11415e-07 3.74309e-07 0.100985)
(2.22192e-07 -3.83104e-07 0.100985)
(-2.24279e-07 -3.83598e-07 0.100985)
(-2.13714e-07 3.85779e-07 0.100985)
(-2.2169e-07 -3.80321e-07 0.100985)
(3.39955e-05 -3.40282e-05 0.100983)
(-3.5103e-05 3.51362e-05 0.100983)
(-3.72844e-07 -2.14803e-07 0.100985)
(3.74892e-07 -2.12929e-07 0.100985)
(-3.73407e-07 -2.12098e-07 0.100985)
(3.51102e-05 3.51297e-05 0.100983)
(3.40173e-05 3.40029e-05 0.100983)
(-3.51304e-05 -3.5106e-05 0.100983)
(3.84538e-07 2.27592e-07 0.100985)
(-3.9654e-07 2.38983e-07 0.100985)
(3.83206e-07 2.19229e-07 0.100985)
(-3.87851e-07 2.25727e-07 0.100985)
(-3.4024e-05 3.40107e-05 0.100983)
(3.51296e-05 -3.51046e-05 0.100983)
(2.1623e-07 3.81032e-07 0.100985)
(2.22602e-07 -3.83945e-07 0.100985)
(2.12755e-07 3.77393e-07 0.100985)
(2.21324e-07 -3.83266e-07 0.100985)
(-2.22814e-07 -3.8126e-07 0.100985)
(-2.1289e-07 3.79014e-07 0.100985)
(-2.20837e-07 -3.80292e-07 0.100985)
(3.39951e-05 -3.40271e-05 0.100983)
(-3.51035e-05 3.51363e-05 0.100983)
(-3.75081e-07 -2.13196e-07 0.100985)
(3.74448e-07 -2.12436e-07 0.100985)
(-3.7382e-07 -2.12182e-07 0.100985)
(3.51102e-05 3.51289e-05 0.100983)
(3.40171e-05 3.39992e-05 0.100983)
(-3.513e-05 -3.51071e-05 0.100983)
(3.83674e-07 2.23321e-07 0.100985)
(-3.88017e-07 2.2602e-07 0.100985)
(3.83643e-07 2.17947e-07 0.100985)
(-3.85604e-07 2.22218e-07 0.100985)
(-3.40188e-05 3.39947e-05 0.100983)
(3.51321e-05 -3.51071e-05 0.100983)
(2.15819e-07 3.78273e-07 0.100985)
(2.21917e-07 -3.83791e-07 0.100985)
(2.12692e-07 3.76488e-07 0.100985)
(2.20551e-07 -3.82648e-07 0.100985)
(-2.21844e-07 -3.82121e-07 0.100985)
(-2.12085e-07 3.77053e-07 0.100985)
(-2.18995e-07 -3.80255e-07 0.100985)
(3.39945e-05 -3.40269e-05 0.100983)
(-3.5104e-05 3.51368e-05 0.100983)
(-3.75112e-07 -2.13443e-07 0.100985)
(3.74132e-07 -2.11437e-07 0.100985)
(-3.72668e-07 -2.11322e-07 0.100985)
(3.51113e-05 3.51294e-05 0.100983)
(3.40174e-05 3.39983e-05 0.100983)
(-3.51296e-05 -3.5107e-05 0.100983)
(3.83627e-07 2.22409e-07 0.100985)
(-3.85723e-07 2.23268e-07 0.100985)
(3.84061e-07 2.18088e-07 0.100985)
(-3.86018e-07 2.22483e-07 0.100985)
(-3.4016e-05 3.39902e-05 0.100983)
(3.51316e-05 -3.5107e-05 0.100983)
(2.15681e-07 3.77444e-07 0.100985)
(2.21475e-07 -3.8336e-07 0.100985)
(2.13274e-07 3.76557e-07 0.100985)
(2.21303e-07 -3.8366e-07 0.100985)
(-2.20182e-07 -3.81783e-07 0.100985)
(-2.13254e-07 3.77316e-07 0.100985)
(-2.2006e-07 -3.81648e-07 0.100985)
(3.3994e-05 -3.40262e-05 0.100983)
(-3.51034e-05 3.5136e-05 0.100983)
(-3.73916e-07 -2.12497e-07 0.100985)
(3.74991e-07 -2.12914e-07 0.100985)
(-3.7349e-07 -2.12854e-07 0.100985)
(3.51105e-05 3.5128e-05 0.100983)
(3.40179e-05 3.39986e-05 0.100983)
(-3.51301e-05 -3.51075e-05 0.100983)
(3.84213e-07 2.22804e-07 0.100985)
(-3.86218e-07 2.23708e-07 0.100985)
(3.83841e-07 2.17691e-07 0.100985)
(-3.85712e-07 2.22049e-07 0.100985)
(-3.40165e-05 3.39906e-05 0.100983)
(3.51321e-05 -3.51074e-05 0.100983)
(2.16461e-07 3.77809e-07 0.100985)
(2.22317e-07 -3.84467e-07 0.100985)
(2.12972e-07 3.76147e-07 0.100985)
(2.20929e-07 -3.83509e-07 0.100985)
(-2.21364e-07 -3.83134e-07 0.100985)
(-2.13018e-07 3.77014e-07 0.100985)
(-2.19631e-07 -3.81419e-07 0.100985)
(3.39947e-05 -3.40272e-05 0.100983)
(-3.51036e-05 3.51363e-05 0.100983)
(-3.74562e-07 -2.13752e-07 0.100985)
(3.74893e-07 -2.12806e-07 0.100985)
(-3.73286e-07 -2.12921e-07 0.100985)
(3.51108e-05 3.51283e-05 0.100983)
(3.40177e-05 3.39982e-05 0.100983)
(-3.51282e-05 -3.51062e-05 0.100983)
(3.84124e-07 2.22517e-07 0.100985)
(-3.859e-07 2.2337e-07 0.100985)
(3.84744e-07 2.18946e-07 0.100985)
(-3.86237e-07 2.23115e-07 0.100985)
(-3.40162e-05 3.39904e-05 0.100983)
(3.51306e-05 -3.5106e-05 0.100983)
(2.16159e-07 3.77574e-07 0.100985)
(2.22064e-07 -3.84152e-07 0.100985)
(2.1454e-07 3.7685e-07 0.100985)
(2.22132e-07 -3.839e-07 0.100985)
(-2.21226e-07 -3.82995e-07 0.100985)
(-2.13839e-07 3.77596e-07 0.100985)
(-2.20414e-07 -3.81684e-07 0.100985)
(3.39945e-05 -3.4027e-05 0.100983)
(-3.51022e-05 3.5135e-05 0.100983)
(-3.74583e-07 -2.13415e-07 0.100985)
(3.7534e-07 -2.13654e-07 0.100985)
(-3.73397e-07 -2.13712e-07 0.100985)
(3.51095e-05 3.51271e-05 0.100983)
(3.40165e-05 3.39966e-05 0.100983)
(-3.513e-05 -3.51074e-05 0.100983)
(3.85432e-07 2.23703e-07 0.100985)
(-3.86909e-07 2.24519e-07 0.100985)
(3.76183e-07 2.05071e-07 0.100985)
(-3.77525e-07 2.09592e-07 0.100985)
(-3.40146e-05 3.39887e-05 0.100983)
(3.51323e-05 -3.51076e-05 0.100983)
(2.17725e-07 3.7858e-07 0.100985)
(2.23228e-07 -3.85028e-07 0.100985)
(2.00426e-07 3.68204e-07 0.100985)
(2.08389e-07 -3.75197e-07 0.100985)
(-2.22138e-07 -3.83703e-07 0.100985)
(-1.9998e-07 3.68904e-07 0.100985)
(-2.07058e-07 -3.73197e-07 0.100985)
(3.39929e-05 -3.40253e-05 0.100983)
(-3.51037e-05 3.51366e-05 0.100983)
(-3.75201e-07 -2.13685e-07 0.100985)
(3.66935e-07 -1.99623e-07 0.100985)
(-3.65386e-07 -2.00356e-07 0.100985)
(3.51106e-05 3.51284e-05 0.100983)
(3.39845e-05 3.39649e-05 0.100983)
(3.6596e-07 1.94324e-07 0.100985)
(-3.6775e-07 1.94947e-07 0.100985)
(-3.39828e-05 3.39569e-05 0.100983)
(1.87906e-07 3.59376e-07 0.100985)
(1.93958e-07 -3.66018e-07 0.100985)
(-1.92235e-07 -3.64514e-07 0.100985)
(3.39611e-05 -3.39932e-05 0.100983)
(-3.56284e-07 -1.83515e-07 0.100985)
(-3.58765e-07 -3.54789e-07 0.100986)
(3.4537e-07 -3.51855e-07 0.100986)
(-3.542e-07 3.56432e-07 0.100986)
(3.49493e-07 3.59005e-07 0.100986)
(-2.86748e-08 -5.54738e-06 0.100639)
(6.99639e-07 4.21746e-06 0.0983232)
(-1.9294e-08 5.26991e-06 0.100639)
(-4.95398e-07 -4.95096e-06 0.0983252)
(-8.11069e-07 7.17631e-07 0.0924195)
(1.21929e-06 -1.6182e-06 0.0924226)
(-5.57232e-06 -5.13772e-08 0.100639)
(4.24575e-06 6.81522e-07 0.0983231)
(5.29763e-06 -1.26295e-08 0.100639)
(-4.96542e-06 -4.88714e-07 0.0983251)
(3.54499e-07 -3.59136e-07 0.100986)
(-3.6087e-07 3.63357e-07 0.100986)
(3.60872e-07 3.64014e-07 0.100986)
(-2.66997e-07 -2.76829e-07 0.100986)
(3.28613e-07 -3.12316e-07 0.100986)
(-2.68377e-07 2.7213e-07 0.100986)
(2.90313e-07 2.64845e-07 0.100986)
(9.94459e-06 -7.20217e-08 0.100938)
(-8.23529e-06 2.40561e-06 0.100715)
(-1.67269e-07 -1.28974e-07 0.100986)
(-1.24193e-07 3.23479e-07 0.100985)
(-9.60906e-06 3.72811e-08 0.100938)
(8.30293e-06 -2.83805e-06 0.100715)
(-1.52158e-07 -1.44532e-07 0.100986)
(8.24245e-07 -8.99012e-07 0.0924194)
(-1.95545e-06 1.41883e-06 0.0924237)
(-5.59659e-08 9.95672e-06 0.100938)
(-1.37291e-07 -1.56163e-07 0.100986)
(2.41865e-06 -8.24181e-06 0.100714)
(3.55102e-07 -1.64801e-07 0.100985)
(2.35655e-08 -9.62142e-06 0.100937)
(-1.37805e-07 -1.82845e-07 0.100986)
(-2.95556e-06 8.36689e-06 0.100715)
(-2.80962e-06 -3.05603e-06 0.100263)
(-3.04565e-06 -2.76523e-06 0.100263)
(3.51682e-05 3.51695e-05 0.100982)
(2.54645e-06 3.22874e-06 0.100264)
(3.24167e-06 2.49081e-06 0.100264)
(2.06983e-09 -5.34411e-06 0.10064)
(4.67049e-07 5.33864e-06 0.0983234)
(6.61605e-08 5.42581e-06 0.100638)
(-7.72569e-07 -4.18288e-06 0.0983244)
(-1.44789e-06 1.90991e-06 0.0924249)
(5.16438e-07 -3.79712e-07 0.0924216)
(-5.37202e-06 5.29126e-09 0.10064)
(5.3589e-06 4.43533e-07 0.0983233)
(5.45353e-06 5.49208e-08 0.100638)
(-4.21062e-06 -7.59565e-07 0.0983244)
(2.83412e-07 -2.81083e-07 0.100986)
(-2.67369e-07 2.69616e-07 0.100986)
(2.70914e-07 2.66004e-07 0.100986)
(-3.11745e-07 -3.05182e-07 0.100986)
(2.93753e-07 -2.99268e-07 0.100986)
(-3.08214e-07 3.08716e-07 0.100986)
(3.01175e-07 3.09421e-07 0.100986)
(9.4994e-06 -1.14517e-08 0.100938)
(-8.57727e-06 2.74891e-06 0.100714)
(-3.58975e-07 -1.05764e-07 0.100986)
(-2.78562e-07 4.19293e-07 0.100985)
(-1.00916e-05 2.66777e-08 0.100937)
(7.91202e-06 -2.34227e-06 0.100716)
(-3.54458e-07 -8.98253e-08 0.100986)
(2.28303e-06 -1.64763e-06 0.0924201)
(-8.94827e-07 8.68559e-07 0.0924196)
(-2.41038e-08 9.58686e-06 0.100938)
(-9.36084e-08 -3.64214e-07 0.100986)
(2.95518e-06 -8.67702e-06 0.100714)
(4.02258e-07 -2.62078e-07 0.100985)
(6.48013e-08 -1.01485e-05 0.100937)
(-1.03208e-07 -3.33788e-07 0.100986)
(-2.53727e-06 8.03005e-06 0.100716)
(-2.4109e-06 -3.34865e-06 0.100263)
(-3.3208e-06 -2.33644e-06 0.100263)
(3.50564e-05 3.50864e-05 0.100983)
(2.74604e-06 3.03252e-06 0.100265)
(2.99574e-06 2.66016e-06 0.100265)
(-1.35728e-08 -5.41486e-06 0.10064)
(6.37621e-07 4.51204e-06 0.0983226)
(-5.2564e-09 5.33471e-06 0.100639)
(-7.30503e-07 -4.43156e-06 0.0983242)
(-1.08786e-06 1.22514e-06 0.0924183)
(9.94995e-07 -1.20969e-06 0.0924198)
(-5.44329e-06 -1.26275e-08 0.10064)
(4.53313e-06 6.20738e-07 0.0983224)
(5.35904e-06 7.71439e-09 0.100639)
(-4.45117e-06 -7.12617e-07 0.0983241)
(3.03366e-07 -3.08102e-07 0.100986)
(-3.14069e-07 3.14119e-07 0.100986)
(3.07345e-07 3.14132e-07 0.100986)
(-3.21225e-07 -3.16814e-07 0.100986)
(3.16924e-07 -3.18336e-07 0.100986)
(-3.18527e-07 3.19256e-07 0.100986)
(3.16191e-07 3.18651e-07 0.100986)
(9.72467e-06 -4.18733e-08 0.100938)
(-8.40826e-06 2.58592e-06 0.100715)
(-2.84608e-07 -1.09222e-07 0.100986)
(-2.22831e-07 3.83642e-07 0.100985)
(-9.83148e-06 4.9932e-08 0.100938)
(8.12227e-06 -2.65877e-06 0.100716)
(-2.72937e-07 -1.13588e-07 0.100986)
(1.15762e-06 -1.02948e-06 0.0924169)
(-1.1599e-06 9.67518e-07 0.0924193)
(-3.90733e-08 9.73735e-06 0.100938)
(-1.18123e-07 -2.74246e-07 0.100986)
(2.58863e-06 -8.41596e-06 0.100715)
(3.77591e-07 -2.17503e-07 0.100985)
(3.47217e-08 -9.82816e-06 0.100938)
(-1.195e-07 -2.62693e-07 0.100986)
(-2.68024e-06 8.14561e-06 0.100716)
(-2.65891e-06 -3.13538e-06 0.100264)
(-3.13719e-06 -2.64851e-06 0.100263)
(3.51011e-05 3.51238e-05 0.100983)
(2.58687e-06 3.064e-06 0.100265)
(3.05474e-06 2.58661e-06 0.100264)
(-1.02816e-08 -5.41766e-06 0.10064)
(6.45491e-07 4.51019e-06 0.0983226)
(3.12803e-09 5.32408e-06 0.100639)
(-7.27334e-07 -4.43306e-06 0.0983242)
(-1.07596e-06 1.21233e-06 0.0924183)
(9.96748e-07 -1.20832e-06 0.0924198)
(-5.44551e-06 -1.25127e-08 0.10064)
(4.53258e-06 6.25646e-07 0.0983224)
(5.35028e-06 8.75261e-09 0.100639)
(-4.45133e-06 -7.12816e-07 0.0983241)
(3.17907e-07 -3.19509e-07 0.100986)
(-3.18738e-07 3.19619e-07 0.100986)
(3.16625e-07 3.18863e-07 0.100986)
(-3.21354e-07 -3.18277e-07 0.100986)
(3.20167e-07 -3.20673e-07 0.100986)
(-3.18747e-07 3.19965e-07 0.100986)
(3.18552e-07 3.1932e-07 0.100986)
(9.73366e-06 -4.50806e-08 0.100938)
(-8.38396e-06 2.56752e-06 0.100715)
(-2.62879e-07 -1.16565e-07 0.100986)
(-2.13394e-07 3.77718e-07 0.100985)
(-9.80907e-06 4.11022e-08 0.100938)
(8.12787e-06 -2.66118e-06 0.100716)
(-2.59927e-07 -1.17569e-07 0.100986)
(1.16026e-06 -1.0348e-06 0.0924169)
(-1.15911e-06 9.65951e-07 0.0924193)
(-3.91094e-08 9.73882e-06 0.100938)
(-1.18752e-07 -2.60088e-07 0.100986)
(2.58406e-06 -8.40476e-06 0.100715)
(3.75325e-07 -2.12946e-07 0.100985)
(3.47352e-08 -9.81392e-06 0.100938)
(-1.19166e-07 -2.57702e-07 0.100986)
(-2.67924e-06 8.14758e-06 0.100716)
(-2.65047e-06 -3.13827e-06 0.100264)
(-3.13268e-06 -2.64522e-06 0.100263)
(3.51072e-05 3.51261e-05 0.100983)
(2.59168e-06 3.06199e-06 0.100265)
(3.05539e-06 2.58792e-06 0.100264)
(-9.46602e-09 -5.41742e-06 0.10064)
(6.46432e-07 4.5108e-06 0.0983226)
(4.5082e-09 5.32472e-06 0.100639)
(-7.26679e-07 -4.43267e-06 0.0983242)
(-1.07545e-06 1.21329e-06 0.0924183)
(9.96979e-07 -1.20857e-06 0.0924198)
(-5.44487e-06 -1.25612e-08 0.10064)
(4.53308e-06 6.26161e-07 0.0983224)
(5.35095e-06 8.60188e-09 0.100639)
(-4.45101e-06 -7.12255e-07 0.0983241)
(3.19668e-07 -3.20947e-07 0.100986)
(-3.18932e-07 3.19831e-07 0.100986)
(3.17982e-07 3.1894e-07 0.100986)
(-3.213e-07 -3.18323e-07 0.100986)
(3.20208e-07 -3.20755e-07 0.100986)
(-3.18845e-07 3.19898e-07 0.100986)
(3.18466e-07 3.19082e-07 0.100986)
(9.73429e-06 -4.54054e-08 0.100938)
(-8.38345e-06 2.56796e-06 0.100715)
(-2.60533e-07 -1.17405e-07 0.100986)
(-2.12531e-07 3.76958e-07 0.100985)
(-9.80815e-06 4.05035e-08 0.100938)
(8.12832e-06 -2.66131e-06 0.100716)
(-2.58434e-07 -1.18113e-07 0.100986)
(1.16094e-06 -1.03482e-06 0.0924169)
(-1.15883e-06 9.66246e-07 0.0924193)
(-3.78484e-08 9.74074e-06 0.100938)
(-1.18465e-07 -2.57509e-07 0.100986)
(2.58504e-06 -8.40447e-06 0.100715)
(3.75082e-07 -2.12392e-07 0.100985)
(3.59529e-08 -9.81191e-06 0.100938)
(-1.18982e-07 -2.57738e-07 0.100986)
(-2.67898e-06 8.14813e-06 0.100716)
(-2.65017e-06 -3.1395e-06 0.100264)
(-3.13228e-06 -2.64597e-06 0.100263)
(3.5108e-05 3.51258e-05 0.100983)
(2.59215e-06 3.06166e-06 0.100265)
(3.05595e-06 2.58782e-06 0.100264)
(-9.55824e-09 -5.41736e-06 0.10064)
(6.46854e-07 4.50981e-06 0.0983226)
(4.68694e-09 5.32449e-06 0.100639)
(-7.26677e-07 -4.43297e-06 0.0983242)
(-1.07522e-06 1.21328e-06 0.0924183)
(9.97108e-07 -1.20831e-06 0.0924198)
(-5.44476e-06 -1.29319e-08 0.10064)
(4.53222e-06 6.26319e-07 0.0983224)
(5.35063e-06 8.28432e-09 0.100639)
(-4.45116e-06 -7.12442e-07 0.0983241)
(3.19529e-07 -3.20799e-07 0.100986)
(-3.18861e-07 3.1973e-07 0.100986)
(3.1778e-07 3.18717e-07 0.100986)
(-3.21437e-07 -3.18593e-07 0.100986)
(3.20752e-07 -3.20922e-07 0.100986)
(-3.18842e-07 3.20339e-07 0.100986)
(3.19264e-07 3.19793e-07 0.100986)
(9.73377e-06 -4.53074e-08 0.100938)
(-8.38373e-06 2.56748e-06 0.100715)
(-2.61123e-07 -1.17419e-07 0.100986)
(-2.12507e-07 3.7697e-07 0.100985)
(-9.80883e-06 4.03499e-08 0.100938)
(8.128e-06 -2.66114e-06 0.100716)
(-2.58345e-07 -1.17981e-07 0.100986)
(1.16081e-06 -1.0348e-06 0.0924169)
(-1.15875e-06 9.65916e-07 0.0924193)
(-3.77456e-08 9.74046e-06 0.100938)
(-1.18317e-07 -2.5783e-07 0.100986)
(2.58494e-06 -8.40484e-06 0.100715)
(3.75268e-07 -2.12402e-07 0.100985)
(3.63593e-08 -9.813e-06 0.100938)
(-1.18759e-07 -2.57733e-07 0.100986)
(-2.6789e-06 8.14816e-06 0.100716)
(-2.64946e-06 -3.13988e-06 0.100264)
(-3.13244e-06 -2.64566e-06 0.100263)
(3.51081e-05 3.51258e-05 0.100983)
(2.59258e-06 3.06167e-06 0.100265)
(3.05604e-06 2.58819e-06 0.100264)
(-9.51779e-09 -5.41731e-06 0.10064)
(6.46057e-07 4.51078e-06 0.0983226)
(4.77229e-09 5.32402e-06 0.100639)
(-7.26788e-07 -4.43248e-06 0.0983242)
(-1.07509e-06 1.21342e-06 0.0924183)
(9.97015e-07 -1.20844e-06 0.0924198)
(-5.44485e-06 -1.28648e-08 0.10064)
(4.53332e-06 6.25598e-07 0.0983224)
(5.35052e-06 8.33703e-09 0.100639)
(-4.45072e-06 -7.12875e-07 0.0983241)
(3.20163e-07 -3.2107e-07 0.100986)
(-3.1897e-07 3.20272e-07 0.100986)
(3.18626e-07 3.19418e-07 0.100986)
(-3.20896e-07 -3.18227e-07 0.100986)
(3.20178e-07 -3.2067e-07 0.100986)
(-3.18428e-07 3.19621e-07 0.100986)
(3.1862e-07 3.18916e-07 0.100986)
(9.73425e-06 -4.55138e-08 0.100938)
(-8.38304e-06 2.56775e-06 0.100715)
(-2.59775e-07 -1.17349e-07 0.100986)
(-2.12261e-07 3.77048e-07 0.100985)
(-9.80779e-06 4.01701e-08 0.100938)
(8.12801e-06 -2.66117e-06 0.100716)
(-2.58043e-07 -1.17926e-07 0.100986)
(1.16108e-06 -1.03477e-06 0.0924169)
(-1.15872e-06 9.66145e-07 0.0924193)
(-3.78648e-08 9.74068e-06 0.100938)
(-1.18117e-07 -2.56706e-07 0.100986)
(2.58549e-06 -8.4045e-06 0.100715)
(3.75299e-07 -2.12025e-07 0.100985)
(3.61287e-08 -9.81187e-06 0.100938)
(-1.18573e-07 -2.57499e-07 0.100986)
(-2.67878e-06 8.14761e-06 0.100716)
(-2.64997e-06 -3.13928e-06 0.100264)
(-3.13179e-06 -2.64643e-06 0.100263)
(3.51082e-05 3.51259e-05 0.100983)
(2.59221e-06 3.06127e-06 0.100265)
(3.05581e-06 2.5877e-06 0.100264)
(-9.61187e-09 -5.41755e-06 0.10064)
(6.46617e-07 4.51006e-06 0.0983226)
(4.65909e-09 5.32386e-06 0.100639)
(-7.27336e-07 -4.43354e-06 0.0983242)
(-1.07601e-06 1.21233e-06 0.0924183)
(9.9675e-07 -1.2088e-06 0.0924198)
(-5.44467e-06 -1.26354e-08 0.10064)
(4.53245e-06 6.25834e-07 0.0983224)
(5.35012e-06 8.36968e-09 0.100639)
(-4.45124e-06 -7.12574e-07 0.0983241)
(3.19369e-07 -3.20663e-07 0.100986)
(-3.18455e-07 3.19215e-07 0.100986)
(3.1774e-07 3.18297e-07 0.100986)
(-3.20872e-07 -3.1792e-07 0.100986)
(3.19819e-07 -3.2059e-07 0.100986)
(-3.18321e-07 3.19403e-07 0.100986)
(3.18368e-07 3.18857e-07 0.100986)
(9.73366e-06 -4.51995e-08 0.100938)
(-8.3834e-06 2.56725e-06 0.100715)
(-2.62199e-07 -1.17392e-07 0.100986)
(-2.13888e-07 3.77886e-07 0.100985)
(-9.80824e-06 4.03445e-08 0.100938)
(8.12778e-06 -2.66104e-06 0.100716)
(-2.60096e-07 -1.18059e-07 0.100986)
(1.15984e-06 -1.03554e-06 0.0924169)
(-1.15892e-06 9.65306e-07 0.0924193)
(-3.77247e-08 9.74013e-06 0.100938)
(-1.18079e-07 -2.59521e-07 0.100986)
(2.58448e-06 -8.40477e-06 0.100715)
(3.76307e-07 -2.13535e-07 0.100985)
(3.6088e-08 -9.81241e-06 0.100938)
(-1.18644e-07 -2.59794e-07 0.100986)
(-2.67825e-06 8.1482e-06 0.100716)
(-2.64931e-06 -3.13886e-06 0.100264)
(-3.13117e-06 -2.64541e-06 0.100263)
(3.51066e-05 3.51246e-05 0.100983)
(2.59214e-06 3.06132e-06 0.100265)
(3.05581e-06 2.58781e-06 0.100264)
(-1.10914e-08 -5.41728e-06 0.10064)
(6.49827e-07 4.51776e-06 0.0983226)
(4.55394e-09 5.32404e-06 0.100639)
(-7.37846e-07 -4.44881e-06 0.0983242)
(-1.07757e-06 1.21791e-06 0.0924183)
(1.00487e-06 -1.22594e-06 0.0924198)
(-5.44554e-06 -1.33598e-08 0.10064)
(4.53534e-06 6.27115e-07 0.0983224)
(5.35044e-06 8.11198e-09 0.100639)
(-4.45625e-06 -7.16934e-07 0.0983241)
(3.19579e-07 -3.20332e-07 0.100986)
(-3.18306e-07 3.19288e-07 0.100986)
(3.17628e-07 3.18017e-07 0.100986)
(-3.21252e-07 -3.17911e-07 0.100986)
(3.19631e-07 -3.1868e-07 0.100986)
(-3.17342e-07 3.18377e-07 0.100986)
(3.16977e-07 3.16723e-07 0.100986)
(9.73392e-06 -4.51838e-08 0.100938)
(-8.38372e-06 2.56798e-06 0.100715)
(-2.61513e-07 -1.17252e-07 0.100986)
(-2.13489e-07 3.77934e-07 0.100985)
(-9.80875e-06 4.05475e-08 0.100938)
(8.12786e-06 -2.66125e-06 0.100716)
(-2.59365e-07 -1.17842e-07 0.100986)
(1.16092e-06 -1.03457e-06 0.0924169)
(-1.15896e-06 9.65951e-07 0.0924193)
(-3.80339e-08 9.74031e-06 0.100938)
(-1.18241e-07 -2.59047e-07 0.100986)
(2.58415e-06 -8.40729e-06 0.100715)
(3.75667e-07 -2.12662e-07 0.100985)
(3.62579e-08 -9.8131e-06 0.100938)
(-1.18347e-07 -2.59444e-07 0.100986)
(-2.67786e-06 8.15011e-06 0.100716)
(-2.65018e-06 -3.13939e-06 0.100264)
(-3.13173e-06 -2.64648e-06 0.100263)
(3.51075e-05 3.51246e-05 0.100983)
(2.59248e-06 3.06138e-06 0.100265)
(3.05625e-06 2.58804e-06 0.100264)
(-2.47005e-08 -5.41711e-06 0.10064)
(6.45526e-07 4.52961e-06 0.0983227)
(-2.1198e-09 5.32388e-06 0.100639)
(-8.13128e-07 -4.49547e-06 0.0983241)
(-1.08638e-06 1.23582e-06 0.0924183)
(9.76042e-07 -1.12966e-06 0.0924197)
(-5.44499e-06 -1.31469e-08 0.10064)
(4.53678e-06 6.31185e-07 0.0983225)
(5.35076e-06 8.00779e-09 0.100639)
(-4.4548e-06 -7.22041e-07 0.098324)
(3.18494e-07 -3.15895e-07 0.100986)
(-3.16687e-07 3.17734e-07 0.100986)
(3.14167e-07 3.12578e-07 0.100986)
(-3.18199e-07 -3.14988e-07 0.100986)