/*--------------------------------*- C++ -*----------------------------------*\
| =========                 |                                                 |
| \\      /  F ield         | OpenFOAM: The Open Source CFD Toolbox           |
|  \\    /   O peration     | Version:  2206                                  |
|   \\  /    A nd           | Website:  www.openfoam.com                      |
|    \\/     M anipulation  |                                                 |
\*---------------------------------------------------------------------------*/
FoamFile
{
    version     2.0;
    format      ascii;
    arch        "LSB;label=32;scalar=64";
    class       volScalarField;
    location    "39";
    object      epsilon;
}
// * * * * * * * * * * * * * * * * * * * * * * * * * * * * * * * * * * * * * //

dimensions      [0 2 -3 0 0 0 0];

internalField   nonuniform List<scalar> 
28688
(
4.95566e-07
4.97331e-07
4.97331e-07
4.99574e-07
4.45571e-07
4.53735e-07
4.53737e-07
4.63709e-07
4.03771e-07
4.18524e-07
4.18528e-07
4.39412e-07
3.68407e-07
3.88576e-07
3.88582e-07
4.17667e-07
3.3795e-07
3.62072e-07
3.6208e-07
3.96073e-07
3.11671e-07
3.38306e-07
3.38315e-07
3.74601e-07
2.88489e-07
3.16505e-07
3.16514e-07
3.53614e-07
2.6791e-07
2.97081e-07
2.97089e-07
3.34044e-07
2.47425e-07
2.75209e-07
2.75218e-07
3.11043e-07
2.37971e-07
2.66578e-07
2.66589e-07
3.00236e-07
2.36127e-07
2.65896e-07
2.65907e-07
3.00876e-07
2.35935e-07
2.65882e-07
2.65893e-07
3.01104e-07
5.06419e-07
5.05584e-07
5.05582e-07
5.06418e-07
5.05583e-07
5.05582e-07
5.0965e-07
5.0965e-07
5.09651e-07
5.0965e-07
5.05584e-07
5.05584e-07
5.06419e-07
5.05584e-07
5.05583e-07
5.06419e-07
4.99574e-07
4.6724e-07
4.97332e-07
4.97336e-07
4.63719e-07
4.63727e-07
4.99574e-07
4.67237e-07
4.97336e-07
4.97337e-07
4.63723e-07
4.63729e-07
4.97333e-07
4.63715e-07
4.6372e-07
4.99574e-07
4.67243e-07
4.97335e-07
4.63716e-07
4.63724e-07
4.67242e-07
4.63709e-07
4.41431e-07
4.5374e-07
4.53748e-07
4.26751e-07
4.26759e-07
4.63707e-07
4.41425e-07
4.53745e-07
4.53752e-07
4.26752e-07
4.26764e-07
4.53742e-07
4.26742e-07
4.26753e-07
4.63711e-07
4.41436e-07
4.53745e-07
4.26747e-07
4.26753e-07
4.41434e-07
4.39408e-07
4.19281e-07
4.18533e-07
4.18541e-07
3.95674e-07
3.9568e-07
4.39407e-07
4.19273e-07
4.18533e-07
4.18546e-07
3.95669e-07
3.95686e-07
4.18536e-07
3.9566e-07
3.95676e-07
4.39415e-07
4.19287e-07
4.18535e-07
3.95666e-07
3.95671e-07
4.19285e-07
4.17662e-07
3.97639e-07
3.8859e-07
3.88596e-07
3.68429e-07
3.68433e-07
4.17656e-07
3.9763e-07
3.88584e-07
3.88603e-07
3.6842e-07
3.6844e-07
3.88593e-07
3.68412e-07
3.68432e-07
4.17669e-07
3.97645e-07
3.88586e-07
3.68419e-07
3.68421e-07
3.97644e-07
3.96068e-07
3.76106e-07
3.6209e-07
3.62094e-07
3.44088e-07
3.44091e-07
3.96061e-07
3.76096e-07
3.6208e-07
3.62102e-07
3.44075e-07
3.44098e-07
3.62093e-07
3.44069e-07
3.44091e-07
3.96074e-07
3.76112e-07
3.62082e-07
3.44077e-07
3.44076e-07
3.76111e-07
3.74596e-07
3.55026e-07
3.38327e-07
3.3833e-07
3.21706e-07
3.21707e-07
3.74588e-07
3.55016e-07
3.38313e-07
3.38337e-07
3.21689e-07
3.21715e-07
3.3833e-07
3.21684e-07
3.21708e-07
3.74602e-07
3.55032e-07
3.38314e-07
3.21693e-07
3.2169e-07
3.55031e-07
3.53609e-07
3.35389e-07
3.16526e-07
3.16528e-07
3.02207e-07
3.02206e-07
3.53601e-07
3.35379e-07
3.1651e-07
3.16536e-07
3.02187e-07
3.02213e-07
3.16529e-07
3.02183e-07
3.02208e-07
3.53615e-07
3.35395e-07
3.16511e-07
3.02192e-07
3.02189e-07
3.35394e-07
3.34039e-07
3.12641e-07
2.97105e-07
2.97105e-07
2.80051e-07
2.80053e-07
3.34031e-07
3.12634e-07
2.97085e-07
2.97113e-07
2.80034e-07
2.80061e-07
2.97107e-07
2.8003e-07
2.80053e-07
3.34045e-07
3.12649e-07
2.97087e-07
2.8004e-07
2.80033e-07
3.12648e-07
3.11036e-07
3.00057e-07
2.7523e-07
2.75234e-07
2.67433e-07
2.67437e-07
3.11031e-07
3.0005e-07
2.75214e-07
2.75242e-07
2.67416e-07
2.67445e-07
2.75233e-07
2.67411e-07
2.67436e-07
3.11044e-07
3.00066e-07
2.75213e-07
2.67422e-07
2.67415e-07
3.00065e-07
3.0023e-07
3.0047e-07
2.66602e-07
2.66606e-07
2.65951e-07
2.65957e-07
3.00223e-07
3.00461e-07
2.66585e-07
2.66615e-07
2.65934e-07
2.65964e-07
2.66605e-07
2.65928e-07
2.65954e-07
3.00238e-07
3.00479e-07
2.66584e-07
2.65939e-07
2.65933e-07
3.00478e-07
3.00871e-07
3.00803e-07
2.65921e-07
2.65927e-07
2.65905e-07
2.65911e-07
3.00863e-07
3.00794e-07
2.65905e-07
2.65934e-07
2.65888e-07
2.65917e-07
2.65925e-07
2.65881e-07
2.65908e-07
3.00879e-07
3.00811e-07
2.65903e-07
2.65892e-07
2.65887e-07
3.00813e-07
3.01095e-07
3.00814e-07
2.65908e-07
2.65914e-07
2.65912e-07
3.01088e-07
2.65891e-07
2.6592e-07
2.65895e-07
2.65924e-07
2.65911e-07
2.65915e-07
3.01104e-07
3.00821e-07
2.6589e-07
2.65899e-07
2.65894e-07
3.00822e-07
5.35663e-07
5.35601e-07
5.35655e-07
5.35655e-07
5.34573e-07
5.35517e-07
5.33634e-07
5.35654e-07
5.34573e-07
5.35517e-07
5.35654e-07
5.33634e-07
5.35258e-07
5.35987e-07
5.35987e-07
1.10743e-06
3.88203e-06
9.33652e-07
4.60473e-06
1.26082e-05
1.65956e-05
1.10757e-06
3.88227e-06
9.33667e-07
4.60508e-06
4.95566e-07
4.95567e-07
4.95567e-07
4.57242e-07
4.57242e-07
4.57242e-07
4.57242e-07
5.43194e-07
1.22027e-06
4.95565e-07
4.8552e-07
5.25294e-07
1.20957e-06
4.82297e-07
1.26098e-05
1.65981e-05
5.43217e-07
4.95565e-07
1.22025e-06
4.85521e-07
5.2527e-07
4.82298e-07
1.20956e-06
2.52164e-06
2.52235e-06
4.84191e-07
2.37275e-06
2.37314e-06
1.43113e-06
5.59477e-06
1.32918e-06
6.13429e-06
2.12907e-05
2.31056e-05
1.43162e-06
5.59545e-06
1.32918e-06
6.13494e-06
4.45571e-07
4.45572e-07
4.45572e-07
4.13565e-07
4.13565e-07
4.13566e-07
4.13566e-07
5.87082e-07
1.19481e-06
4.46433e-07
4.44283e-07
5.73771e-07
1.20433e-06
4.35678e-07
2.1293e-05
2.31091e-05
5.87101e-07
4.46434e-07
1.19482e-06
4.44285e-07
5.73771e-07
4.35679e-07
1.20442e-06
2.31155e-06
2.31206e-06
4.53488e-07
2.35331e-06
2.35377e-06
1.66345e-06
6.9199e-06
1.59526e-06
7.31775e-06
2.46445e-05
2.49358e-05
1.66366e-06
6.92074e-06
1.59501e-06
7.3187e-06
4.03771e-07
4.03773e-07
4.03772e-07
3.76685e-07
3.76684e-07
3.76686e-07
3.76686e-07
6.15575e-07
1.24275e-06
4.06562e-07
4.10608e-07
6.08364e-07
1.26563e-06
3.97716e-07
2.46478e-05
2.49393e-05
6.15592e-07
4.06563e-07
1.24285e-06
4.10613e-07
6.08379e-07
3.97719e-07
1.26579e-06
2.47352e-06
2.47399e-06
4.30181e-07
2.53289e-06
2.53336e-06
1.81211e-06
7.84908e-06
1.77255e-06
8.09617e-06
2.47457e-05
2.44205e-05
1.81221e-06
7.85003e-06
1.77257e-06
8.09752e-06
3.68407e-07
3.68409e-07
3.68409e-07
3.45123e-07
3.45122e-07
3.45124e-07
3.45124e-07
6.26277e-07
1.31315e-06
3.73512e-07
3.81679e-07
6.2489e-07
1.3337e-06
3.66065e-07
2.47483e-05
2.44238e-05
6.26287e-07
3.73513e-07
1.31323e-06
3.81685e-07
6.24905e-07
3.66068e-07
1.33386e-06
2.63527e-06
2.63576e-06
4.0848e-07
2.67931e-06
2.67981e-06
1.8937e-06
8.3973e-06
1.87258e-06
8.52746e-06
2.37018e-05
2.32548e-05
1.89385e-06
8.39847e-06
1.87261e-06
8.52898e-06
3.3795e-07
3.37953e-07
3.37952e-07
3.1803e-07
3.18029e-07
3.18032e-07
3.18031e-07
6.22202e-07
1.37212e-06
3.45188e-07
3.55924e-07
6.25425e-07
1.38723e-06
3.38775e-07
2.37039e-05
2.32576e-05
6.22212e-07
3.4519e-07
1.3722e-06
3.55932e-07
6.25439e-07
3.38778e-07
1.3874e-06
2.76364e-06
2.76416e-06
3.86837e-07
2.80528e-06
2.80583e-06
1.92929e-06
8.66383e-06
1.9232e-06
8.72007e-06
2.25148e-05
2.21056e-05
1.92936e-06
8.66516e-06
1.92334e-06
8.72156e-06
3.11671e-07
3.11675e-07
3.11673e-07
2.93808e-07
2.93807e-07
2.9381e-07
2.93809e-07
6.08877e-07
1.41597e-06
3.20507e-07
3.32642e-07
6.15414e-07
1.42779e-06
3.14652e-07
2.25165e-05
2.2108e-05
6.08881e-07
3.20509e-07
1.41603e-06
3.32651e-07
6.15434e-07
3.14655e-07
1.42796e-06
2.89494e-06
2.89554e-06
3.65498e-07
2.94417e-06
2.9448e-06
1.94189e-06
8.76009e-06
1.94586e-06
8.77504e-06
2.14988e-05
2.11624e-05
1.94196e-06
8.76149e-06
1.94593e-06
8.77648e-06
2.88488e-07
2.88492e-07
2.88491e-07
2.73295e-07
2.73293e-07
2.73297e-07
2.73296e-07
5.91115e-07
1.45214e-06
2.98383e-07
3.11608e-07
5.9946e-07
1.46248e-06
2.93425e-07
2.15003e-05
2.11646e-05
5.91123e-07
2.98385e-07
1.45222e-06
3.11617e-07
5.99475e-07
2.93428e-07
1.46266e-06
3.04665e-06
3.04734e-06
3.45015e-07
3.10828e-06
3.10905e-06
1.94881e-06
8.75822e-06
1.9549e-06
8.74428e-06
2.07219e-05
2.06052e-05
1.94921e-06
8.75951e-06
1.95501e-06
8.74573e-06
2.6791e-07
2.67914e-07
2.67913e-07
2.51817e-07
2.51816e-07
2.5182e-07
2.51818e-07
5.71652e-07
1.48197e-06
2.78561e-07
2.91489e-07
5.80526e-07
1.47829e-06
2.73167e-07
2.07235e-05
2.06072e-05
5.71677e-07
2.78563e-07
1.48214e-06
2.91499e-07
5.80547e-07
2.7317e-07
1.47844e-06
3.20831e-06
3.20912e-06
3.24971e-07
3.24208e-06
3.24297e-06
1.83386e-06
8.73234e-06
1.86118e-06
8.76274e-06
2.05812e-05
2.06243e-05
1.83374e-06
8.73377e-06
1.86111e-06
8.76412e-06
2.47425e-07
2.47429e-07
2.47427e-07
2.39271e-07
2.39269e-07
2.39273e-07
2.39271e-07
5.29661e-07
1.45612e-06
2.5774e-07
2.71506e-07
5.42898e-07
1.45351e-06
2.54e-07
2.05826e-05
2.06248e-05
5.29657e-07
2.57741e-07
1.45613e-06
2.71516e-07
5.42906e-07
2.54003e-07
1.45361e-06
3.26554e-06
3.26645e-06
3.03129e-07
3.29568e-06
3.29665e-06
1.84547e-06
8.81144e-06
1.84042e-06
8.8218e-06
2.06697e-05
2.0681e-05
1.8454e-06
8.81281e-06
1.84032e-06
8.82327e-06
2.37972e-07
2.37976e-07
2.37974e-07
2.36306e-07
2.36306e-07
2.3631e-07
2.36308e-07
5.28563e-07
1.47261e-06
2.48067e-07
2.66179e-07
5.27319e-07
1.4812e-06
2.47314e-07
2.06701e-05
2.06812e-05
5.28567e-07
2.48068e-07
1.4726e-06
2.66189e-07
5.27331e-07
2.47317e-07
1.4812e-06
3.35379e-06
3.3548e-06
2.99966e-07
3.36664e-06
3.36771e-06
1.84965e-06
8.82754e-06
1.84991e-06
8.82756e-06
2.06844e-05
2.06849e-05
1.8496e-06
8.82912e-06
1.84981e-06
8.82905e-06
2.36127e-07
2.36131e-07
2.36128e-07
2.35947e-07
2.35947e-07
2.35951e-07
2.35949e-07
5.30678e-07
1.48813e-06
2.46481e-07
2.65884e-07
5.30592e-07
1.48781e-06
2.46407e-07
2.06845e-05
2.0685e-05
5.30688e-07
2.46483e-07
1.4881e-06
2.65894e-07
5.30602e-07
2.4641e-07
1.48783e-06
3.37544e-06
3.3765e-06
3.00731e-07
3.37525e-06
3.37633e-06
1.84983e-06
8.82803e-06
1.85042e-06
8.82775e-06
2.06846e-05
2.0685e-05
1.84978e-06
8.82945e-06
1.85031e-06
8.82911e-06
2.35937e-07
2.3594e-07
2.35938e-07
2.35933e-07
2.35934e-07
2.35937e-07
2.35934e-07
5.30849e-07
1.489e-06
2.46342e-07
2.65884e-07
5.31004e-07
1.48813e-06
2.46342e-07
2.06847e-05
2.06851e-05
5.30857e-07
2.46344e-07
1.48897e-06
2.65896e-07
5.31014e-07
2.46344e-07
1.48814e-06
3.37589e-06
3.37696e-06
3.00827e-07
3.37531e-06
3.37638e-06
5.35258e-07
5.3599e-07
5.35988e-07
1.0916e-05
5.81346e-07
1.09173e-05
5.81338e-07
5.28204e-07
2.43133e-06
2.43225e-06
5.40833e-07
5.4083e-07
5.34573e-07
5.35517e-07
5.33635e-07
5.35654e-07
5.34573e-07
5.35517e-07
5.33634e-07
5.35654e-07
5.30398e-07
3.47219e-06
5.68207e-07
8.21305e-07
5.30397e-07
3.47221e-06
5.68206e-07
8.21272e-07
5.29522e-07
5.28379e-07
1.16689e-06
5.09602e-07
5.32664e-07
5.28353e-07
5.19215e-07
5.29522e-07
5.28379e-07
1.16703e-06
5.09602e-07
5.32664e-07
5.28353e-07
5.19217e-07
5.35258e-07
5.35989e-07
5.35988e-07
1.09162e-05
5.81325e-07
5.28204e-07
2.4318e-06
2.43195e-06
5.40834e-07
5.4083e-07
1.09169e-05
5.81319e-07
5.34573e-07
5.35517e-07
5.33635e-07
5.35654e-07
5.34573e-07
5.35517e-07
5.35654e-07
5.33635e-07
5.30398e-07
3.47253e-06
5.68204e-07
8.21462e-07
5.29522e-07
5.2838e-07
1.16715e-06
5.09602e-07
5.32663e-07
5.28353e-07
5.19223e-07
5.30398e-07
3.47262e-06
5.68202e-07
8.21363e-07
5.29522e-07
5.28379e-07
5.09602e-07
1.16706e-06
5.28353e-07
5.32663e-07
5.19217e-07
5.35663e-07
5.35601e-07
5.35655e-07
5.35655e-07
5.35663e-07
5.35601e-07
5.35655e-07
5.35655e-07
5.35663e-07
5.35601e-07
5.35655e-07
5.35655e-07
5.28435e-07
5.28376e-07
5.09727e-07
5.09727e-07
5.28409e-07
5.28409e-07
5.09784e-07
5.28435e-07
5.28376e-07
5.09727e-07
5.09727e-07
5.28409e-07
5.28409e-07
5.09784e-07
5.28435e-07
5.28376e-07
5.09727e-07
5.09727e-07
5.28409e-07
5.28409e-07
5.09784e-07
5.28435e-07
5.28376e-07
5.09727e-07
5.09727e-07
5.28409e-07
5.28409e-07
5.09784e-07
5.34573e-07
5.35517e-07
5.35654e-07
5.33634e-07
5.29522e-07
5.28379e-07
1.16709e-06
5.09602e-07
5.32663e-07
5.28353e-07
5.19221e-07
5.30398e-07
3.47242e-06
5.68198e-07
8.21362e-07
5.29522e-07
5.28379e-07
5.09602e-07
1.16697e-06
5.28353e-07
5.32662e-07
5.19217e-07
5.30398e-07
3.47255e-06
5.68202e-07
8.21308e-07
5.35258e-07
5.35987e-07
5.35986e-07
1.09175e-05
5.81335e-07
5.28204e-07
2.43208e-06
2.43192e-06
5.4083e-07
5.40827e-07
1.09173e-05
5.81314e-07
5.34573e-07
5.35517e-07
5.35654e-07
5.33634e-07
5.29522e-07
5.28379e-07
5.09603e-07
1.16703e-06
5.28353e-07
5.32662e-07
5.1922e-07
5.29522e-07
5.28379e-07
5.09602e-07
1.16715e-06
5.28353e-07
5.32664e-07
5.19223e-07
5.30397e-07
3.47258e-06
5.68196e-07
8.21443e-07
5.30397e-07
3.47259e-06
5.68207e-07
8.2153e-07
5.28204e-07
2.43172e-06
2.43239e-06
5.40828e-07
5.40829e-07
1.09172e-05
5.81318e-07
1.09174e-05
5.81332e-07
1.2608e-05
1.65947e-05
1.26095e-05
1.65974e-05
2.52159e-06
2.52234e-06
4.8419e-07
2.37243e-06
2.37313e-06
2.05248e-05
1.76908e-05
2.05283e-05
1.76938e-05
4.79299e-07
2.30607e-06
2.30672e-06
2.33893e-06
2.33968e-06
1.10728e-06
3.88199e-06
9.33762e-07
4.60462e-06
5.43179e-07
1.22015e-06
4.95565e-07
4.85522e-07
5.25307e-07
1.2095e-06
4.82297e-07
5.43175e-07
1.22033e-06
4.95565e-07
4.85529e-07
5.25315e-07
1.20974e-06
4.82297e-07
1.16066e-06
5.40639e-06
4.81143e-06
1.28084e-06
1.16076e-06
5.40634e-06
4.81146e-06
1.28086e-06
5.50947e-07
4.743e-07
1.19325e-06
4.57771e-07
1.20466e-06
4.69712e-07
5.66412e-07
5.50948e-07
4.74308e-07
1.19342e-06
4.57771e-07
1.20482e-06
4.69712e-07
5.66408e-07
2.52208e-06
2.52182e-06
4.84188e-07
2.37301e-06
2.37254e-06
1.26087e-05
1.65958e-05
2.0526e-05
1.76925e-05
4.79299e-07
2.30659e-06
2.30629e-06
2.33946e-06
2.33927e-06
2.0526e-05
1.76916e-05
5.43216e-07
1.22041e-06
4.95565e-07
4.85527e-07
5.25305e-07
1.20977e-06
4.82298e-07
1.10752e-06
3.88253e-06
9.33517e-07
4.60544e-06
5.4321e-07
4.95565e-07
1.22037e-06
4.8553e-07
5.25295e-07
4.82298e-07
1.20977e-06
1.16064e-06
5.40685e-06
4.81177e-06
1.28106e-06
5.50943e-07
4.74306e-07
1.19344e-06
4.57771e-07
1.20484e-06
4.69712e-07
5.66436e-07
1.16064e-06
5.40735e-06
4.81222e-06
1.28105e-06
5.50945e-07
4.7431e-07
4.57772e-07
1.19349e-06
4.69713e-07
1.20488e-06
5.66439e-07
1.10744e-06
3.882e-06
9.33617e-07
4.60492e-06
5.43192e-07
4.95565e-07
1.22024e-06
4.85523e-07
5.25283e-07
4.82297e-07
1.20962e-06
1.10746e-06
3.88248e-06
9.33455e-07
4.6051e-06
5.50942e-07
4.74297e-07
1.19325e-06
4.5777e-07
1.20466e-06
4.69711e-07
5.66417e-07
1.16068e-06
5.40646e-06
4.8112e-06
1.28095e-06
5.50941e-07
4.74301e-07
4.57771e-07
1.1933e-06
4.69712e-07
1.20464e-06
5.66414e-07
1.16059e-06
5.40679e-06
4.81203e-06
1.28092e-06
2.52226e-06
2.52176e-06
4.84192e-07
2.37315e-06
2.37238e-06
1.26095e-05
1.65963e-05
2.05293e-05
1.76941e-05
4.79299e-07
2.30679e-06
2.30623e-06
2.3396e-06
2.33913e-06
2.05269e-05
1.76933e-05
5.43226e-07
4.95565e-07
1.22041e-06
4.85528e-07
5.25282e-07
4.82298e-07
1.20976e-06
1.10773e-06
3.88244e-06
9.3338e-07
4.60519e-06
1.10779e-06
3.88233e-06
9.33496e-07
4.60509e-06
5.50937e-07
4.74298e-07
4.57771e-07
1.1933e-06
4.69712e-07
1.20472e-06
5.66438e-07
5.50936e-07
4.74305e-07
4.57771e-07
1.19342e-06
4.69712e-07
1.20481e-06
5.66444e-07
1.16041e-06
5.40704e-06
4.81202e-06
1.28108e-06
1.16043e-06
5.40702e-06
4.81176e-06
1.28111e-06
1.26091e-05
1.65962e-05
1.26096e-05
1.6597e-05
4.79299e-07
2.30619e-06
2.3067e-06
2.33882e-06
2.33964e-06
2.05262e-05
1.76928e-05
2.05279e-05
1.7694e-05
2.12886e-05
2.3104e-05
2.12925e-05
2.31081e-05
2.31139e-06
2.31209e-06
4.53485e-07
2.35305e-06
2.35364e-06
2.44671e-05
2.35394e-05
2.44707e-05
2.3543e-05
4.50879e-07
2.44253e-06
2.44331e-06
2.38099e-06
2.38156e-06
1.43113e-06
5.59484e-06
1.32915e-06
6.13443e-06
5.87082e-07
1.19479e-06
4.46434e-07
4.44289e-07
5.73775e-07
1.20435e-06
4.35678e-07
5.87077e-07
1.19495e-06
4.46434e-07
4.44297e-07
5.7377e-07
1.20453e-06
4.35679e-07
1.47438e-06
6.77596e-06
6.30275e-06
1.55783e-06
1.47433e-06
6.77606e-06
6.30278e-06
1.55781e-06
5.93307e-07
4.35311e-07
1.23134e-06
4.15805e-07
1.21233e-06
4.25484e-07
6.0363e-07
5.93298e-07
4.3532e-07
1.23146e-06
4.15805e-07
1.21248e-06
4.25485e-07
6.03625e-07
2.31188e-06
2.31158e-06
4.53481e-07
2.35349e-06
2.35315e-06
2.12895e-05
2.3105e-05
2.44681e-05
2.35412e-05
4.50877e-07
2.44312e-06
2.44245e-06
2.38141e-06
2.38134e-06
2.44677e-05
2.35403e-05
5.871e-07
1.195e-06
4.46434e-07
4.44292e-07
5.7378e-07
1.20453e-06
4.35679e-07
1.4316e-06
5.5958e-06
1.32919e-06
6.13565e-06
5.87102e-07
4.46436e-07
1.19502e-06
4.44301e-07
5.73787e-07
4.3568e-07
1.20461e-06
1.47402e-06
6.77664e-06
6.30355e-06
1.55827e-06
5.93319e-07
4.35315e-07
1.23147e-06
4.15806e-07
1.21249e-06
4.25485e-07
6.03645e-07
1.47403e-06
6.77739e-06
6.30392e-06
1.55827e-06
5.93325e-07
4.35324e-07
4.15807e-07
1.23153e-06
4.25487e-07
1.21262e-06
6.03653e-07
1.43131e-06
5.59475e-06
1.32914e-06
6.13446e-06
5.87087e-07
4.46435e-07
1.19483e-06
4.44291e-07
5.73775e-07
4.35679e-07
1.20446e-06
1.43118e-06
5.59542e-06
1.32924e-06
6.13496e-06
5.93302e-07
4.35305e-07
1.23126e-06
4.15804e-07
1.21234e-06
4.25483e-07
6.03632e-07
1.47424e-06
6.77617e-06
6.30271e-06
1.55788e-06
5.93306e-07
4.35314e-07
4.15805e-07
1.23139e-06
4.25485e-07
1.21242e-06
6.03635e-07
1.47427e-06
6.77675e-06
6.30345e-06
1.5579e-06
2.31214e-06
2.31133e-06
4.53489e-07
2.35376e-06
2.35318e-06
2.12911e-05
2.31064e-05
2.44719e-05
2.35445e-05
4.50883e-07
2.44318e-06
2.44273e-06
2.38195e-06
2.38116e-06
2.44689e-05
2.35421e-05
5.87097e-07
4.46434e-07
1.19493e-06
4.44294e-07
5.7377e-07
4.35679e-07
1.20456e-06
1.43162e-06
5.59548e-06
1.32917e-06
6.13514e-06
1.43149e-06
5.59535e-06
1.32916e-06
6.13511e-06
5.93316e-07
4.35307e-07
4.15806e-07
1.23136e-06
4.25484e-07
1.21238e-06
6.03651e-07
5.93313e-07
4.35314e-07
4.15806e-07
1.23149e-06
4.25485e-07
1.21251e-06
6.03648e-07
1.474e-06
6.77678e-06
6.30348e-06
1.55828e-06
1.47402e-06
6.77687e-06
6.30352e-06
1.5583e-06
2.1291e-05
2.31065e-05
2.12927e-05
2.31081e-05
4.50881e-07
2.44288e-06
2.44335e-06
2.38122e-06
2.38167e-06
2.44691e-05
2.35422e-05
2.44706e-05
2.35438e-05
2.46435e-05
2.49351e-05
2.46463e-05
2.4938e-05
2.47379e-06
2.47383e-06
4.30178e-07
2.53259e-06
2.53331e-06
2.48345e-05
2.4939e-05
2.48376e-05
2.49416e-05
4.28471e-07
2.61099e-06
2.61158e-06
2.56072e-06
2.561e-06
1.66342e-06
6.91987e-06
1.59522e-06
7.31797e-06
6.15572e-07
1.24283e-06
4.06563e-07
4.10619e-07
6.08365e-07
1.2657e-06
3.97717e-07
6.15567e-07
1.24289e-06
4.06564e-07
4.10626e-07
6.0836e-07
1.26584e-06
3.97718e-07
1.69444e-06
7.75625e-06
7.43578e-06
1.74788e-06
1.69441e-06
7.7566e-06
7.43573e-06
1.74786e-06
6.1883e-07
4.03001e-07
1.30107e-06
3.81222e-07
1.27828e-06
3.89271e-07
6.2303e-07
6.18826e-07
4.03008e-07
1.30123e-06
3.81223e-07
1.27837e-06
3.89272e-07
6.23026e-07
2.47379e-06
2.47376e-06
4.3017e-07
2.53318e-06
2.53248e-06
2.46437e-05
2.49353e-05
2.48351e-05
2.49397e-05
4.28467e-07
2.6115e-06
2.61083e-06
2.56094e-06
2.56064e-06
2.4835e-05
2.4939e-05
6.15596e-07
1.24291e-06
4.06564e-07
4.10617e-07
6.08385e-07
1.26585e-06
3.97719e-07
1.66366e-06
6.92109e-06
1.59501e-06
7.31935e-06
6.15598e-07
4.06566e-07
1.24304e-06
4.10631e-07
6.08383e-07
3.9772e-07
1.26591e-06
1.69428e-06
7.75745e-06
7.43667e-06
1.7481e-06
6.18849e-07
4.02998e-07
1.30128e-06
3.81224e-07
1.27845e-06
3.89271e-07
6.23058e-07
1.69429e-06
7.75801e-06
7.437e-06
1.74809e-06
6.18851e-07
4.03014e-07
3.81225e-07
1.3013e-06
3.89274e-07
1.27851e-06
6.23059e-07
1.66349e-06
6.91982e-06
1.5953e-06
7.31812e-06
6.15578e-07
4.06564e-07
1.24282e-06
4.10621e-07
6.08367e-07
3.97718e-07
1.26576e-06
1.6635e-06
6.92057e-06
1.59531e-06
7.31866e-06
6.18832e-07
4.02989e-07
1.30101e-06
3.81221e-07
1.27822e-06
3.89269e-07
6.23034e-07
1.69448e-06
7.75678e-06
7.43571e-06
1.74793e-06
6.18833e-07
4.03004e-07
3.81223e-07
1.30116e-06
3.89272e-07
1.2783e-06
6.23037e-07
1.69448e-06
7.75727e-06
7.43642e-06
1.74792e-06
2.47447e-06
2.47351e-06
4.30183e-07
2.53328e-06
2.53286e-06
2.46452e-05
2.49366e-05
2.48387e-05
2.49429e-05
4.28478e-07
2.61165e-06
2.61116e-06
2.5614e-06
2.56059e-06
2.48358e-05
2.49404e-05
6.15591e-07
4.06564e-07
1.24292e-06
4.10618e-07
6.08379e-07
3.97719e-07
1.26586e-06
1.66365e-06
6.9206e-06
1.59499e-06
7.31875e-06
1.66366e-06
6.9207e-06
1.59501e-06
7.31886e-06
6.18845e-07
4.02994e-07
3.81224e-07
1.30118e-06
3.89271e-07
1.27831e-06
6.23052e-07
6.18846e-07
4.03e-07
3.81224e-07
1.30126e-06
3.89273e-07
1.2784e-06
6.23052e-07
1.69427e-06
7.75738e-06
7.43652e-06
1.74808e-06
1.69429e-06
7.75755e-06
7.43664e-06
1.7481e-06
2.46455e-05
2.49368e-05
2.46469e-05
2.49381e-05
4.28476e-07
2.61117e-06
2.61166e-06
2.56064e-06
2.56112e-06
2.48361e-05
2.49407e-05
2.48371e-05
2.49419e-05
2.47449e-05
2.44201e-05
2.47469e-05
2.44227e-05
2.63531e-06
2.63565e-06
4.08476e-07
2.67913e-06
2.67974e-06
2.38585e-05
2.42809e-05
2.38611e-05
2.4283e-05
4.06882e-07
2.74238e-06
2.74297e-06
2.70077e-06
2.70137e-06
1.81209e-06
7.84903e-06
1.77253e-06
8.09658e-06
6.26271e-07
1.31321e-06
3.73513e-07
3.81693e-07
6.24887e-07
1.33376e-06
3.66066e-07
6.26268e-07
1.31331e-06
3.73514e-07
3.81699e-07
6.24884e-07
1.33393e-06
3.66067e-07
1.83116e-06
8.34888e-06
8.1655e-06
1.85936e-06
1.83115e-06
8.3494e-06
8.16559e-06
1.85935e-06
6.26728e-07
3.74967e-07
1.36258e-06
3.51875e-07
1.34465e-06
3.58845e-07
6.2563e-07
6.26726e-07
3.74972e-07
1.36277e-06
3.51876e-07
1.34484e-06
3.58846e-07
6.25628e-07
2.63561e-06
2.63523e-06
4.08467e-07
2.67967e-06
2.67892e-06
2.47447e-05
2.44203e-05
2.38591e-05
2.4282e-05
4.06875e-07
2.74289e-06
2.74215e-06
2.70133e-06
2.70093e-06
2.3859e-05
2.4281e-05
6.26296e-07
1.31334e-06
3.73514e-07
3.81686e-07
6.24911e-07
1.33397e-06
3.66068e-07
1.8122e-06
7.85033e-06
1.77257e-06
8.0979e-06
6.26295e-07
3.73517e-07
1.31345e-06
3.81705e-07
6.24913e-07
3.6607e-07
1.33399e-06
1.83116e-06
8.35042e-06
8.16657e-06
1.85953e-06
6.26751e-07
3.74959e-07
1.3628e-06
3.51878e-07
1.34487e-06
3.58846e-07
6.25661e-07
1.83115e-06
8.35063e-06
8.16686e-06
1.85952e-06
6.26752e-07
3.74979e-07
3.51879e-07
1.36282e-06
3.58849e-07
1.34498e-06
6.2566e-07
1.81216e-06
7.84905e-06
1.7726e-06
8.09677e-06
6.26278e-07
3.73514e-07
1.31323e-06
3.81696e-07
6.2489e-07
3.66067e-07
1.33385e-06
1.81214e-06
7.84969e-06
1.77259e-06
8.0972e-06
6.26733e-07
3.74951e-07
1.36253e-06
3.51874e-07
1.34467e-06
3.58843e-07
6.25637e-07
1.83121e-06
8.34961e-06
8.16564e-06
1.85941e-06
6.26732e-07
3.7497e-07
3.51876e-07
1.36268e-06
3.58846e-07
1.34475e-06
6.25637e-07
1.8312e-06
8.34997e-06
8.16619e-06
1.8594e-06
2.63602e-06
2.63525e-06
4.08481e-07
2.67979e-06
2.67929e-06
2.47464e-05
2.44211e-05
2.38622e-05
2.42843e-05
4.06888e-07
2.74304e-06
2.7425e-06
2.70175e-06
2.70094e-06
2.38597e-05
2.42827e-05
6.26289e-07
3.73515e-07
1.31334e-06
3.81688e-07
6.24908e-07
3.66068e-07
1.33395e-06
1.81219e-06
7.84981e-06
1.77256e-06
8.09732e-06
1.81221e-06
7.84999e-06
1.77257e-06
8.09756e-06
6.26744e-07
3.74958e-07
3.51877e-07
1.3627e-06
3.58845e-07
1.34476e-06
6.25652e-07
6.26747e-07
3.74961e-07
3.51877e-07
1.36279e-06
3.58846e-07
1.34487e-06
6.25654e-07
1.83114e-06
8.3501e-06
8.16632e-06
1.85951e-06
1.83116e-06
8.35042e-06
8.16657e-06
1.85953e-06
2.47467e-05
2.44214e-05
2.47477e-05
2.44222e-05
4.06887e-07
2.74251e-06
2.74303e-06
2.70096e-06
2.70147e-06
2.386e-05
2.42829e-05
2.38607e-05
2.42838e-05
2.37009e-05
2.32541e-05
2.37027e-05
2.32566e-05
2.76347e-06
2.76407e-06
3.86833e-07
2.80518e-06
2.80579e-06
2.2663e-05
2.30942e-05
2.26653e-05
2.30957e-05
3.85291e-07
2.87139e-06
2.87202e-06
2.82702e-06
2.82762e-06
1.89369e-06
8.39752e-06
1.87257e-06
8.52798e-06
6.22195e-07
1.37211e-06
3.4519e-07
3.55943e-07
6.25419e-07
1.38729e-06
3.38776e-07
6.22193e-07
1.37228e-06
3.45191e-07
3.55946e-07
6.25418e-07
1.38748e-06
3.38777e-07
1.90192e-06
8.64382e-06
8.56e-06
1.91482e-06
1.9019e-06
8.64424e-06
8.56039e-06
1.91482e-06
6.21499e-07
3.49952e-07
1.40843e-06
3.2649e-07
1.39547e-06
3.32567e-07
6.16264e-07
6.21499e-07
3.49955e-07
1.40861e-06
3.26492e-07
1.39566e-06
3.32569e-07
6.16265e-07
2.76402e-06
2.76355e-06
3.86823e-07
2.8057e-06
2.80495e-06
2.37008e-05
2.32547e-05
2.26637e-05
2.3095e-05
3.85283e-07
2.87196e-06
2.87115e-06
2.82757e-06
2.82718e-06
2.26636e-05
2.3094e-05
6.22221e-07
1.37235e-06
3.4519e-07
3.55931e-07
6.25448e-07
1.38751e-06
3.38778e-07
1.89383e-06
8.39868e-06
1.87259e-06
8.52916e-06
6.2222e-07
3.45194e-07
1.37243e-06
3.55954e-07
6.25447e-07
3.3878e-07
1.38752e-06
1.90187e-06
8.64524e-06
8.56131e-06
1.91506e-06
6.21522e-07
3.49939e-07
1.40864e-06
3.26493e-07
1.39572e-06
3.32568e-07
6.16304e-07
1.90185e-06
8.64542e-06
8.56141e-06
1.91504e-06
6.21521e-07
3.49963e-07
3.26495e-07
1.40866e-06
3.32572e-07
1.39578e-06
6.16301e-07
1.89375e-06
8.39757e-06
1.87263e-06
8.52818e-06
6.22201e-07
3.4519e-07
1.37219e-06
3.55946e-07
6.25423e-07
3.38777e-07
1.38738e-06
1.89372e-06
8.39806e-06
1.87262e-06
8.52845e-06
6.21504e-07
3.49933e-07
1.40836e-06
3.26489e-07
1.39548e-06
3.32566e-07
6.16273e-07
1.90196e-06
8.64444e-06
8.56043e-06
1.91488e-06
6.21502e-07
3.49955e-07
3.26491e-07
1.4085e-06
3.32568e-07
1.39556e-06
6.16271e-07
1.90194e-06
8.64464e-06
8.56085e-06
1.91485e-06
2.76441e-06
2.76361e-06
3.86839e-07
2.80588e-06
2.80526e-06
2.37025e-05
2.32554e-05
2.26664e-05
2.30969e-05
3.85297e-07
2.8721e-06
2.8715e-06
2.82805e-06
2.82712e-06
2.26643e-05
2.30956e-05
6.22215e-07
3.45191e-07
1.37232e-06
3.55933e-07
6.25444e-07
3.38777e-07
1.3875e-06
1.89382e-06
8.3982e-06
1.87258e-06
8.5286e-06
1.89384e-06
8.39852e-06
1.8726e-06
8.52897e-06
6.21512e-07
3.49941e-07
3.26493e-07
1.40852e-06
3.32567e-07
1.39556e-06
6.16295e-07
6.21518e-07
3.49941e-07
3.26491e-07
1.40863e-06
3.32569e-07
1.39569e-06
6.16298e-07
1.90184e-06
8.64479e-06
8.56099e-06
1.91504e-06
1.90186e-06
8.64522e-06
8.56137e-06
1.91506e-06
2.37027e-05
2.32556e-05
2.37034e-05
2.32561e-05
3.85296e-07
2.87152e-06
2.8721e-06
2.82714e-06
2.8277e-06
2.26645e-05
2.30958e-05
2.26649e-05
2.30964e-05
2.2514e-05
2.21047e-05
2.25154e-05
2.21069e-05
2.89483e-06
2.89544e-06
3.65493e-07
2.94405e-06
2.94474e-06
2.16183e-05
2.19679e-05
2.16203e-05
2.19692e-05
3.64013e-07
3.01967e-06
3.0204e-06
2.96913e-06
2.96984e-06
1.92929e-06
8.66426e-06
1.9232e-06
8.72061e-06
6.08869e-07
1.41595e-06
3.20509e-07
3.32662e-07
6.15408e-07
1.42787e-06
3.14653e-07
6.08869e-07
1.41614e-06
3.20511e-07
3.32664e-07
6.15409e-07
1.42806e-06
3.14654e-07
1.93207e-06
8.75099e-06
8.72884e-06
1.94152e-06
1.93208e-06
8.75153e-06
8.72933e-06
1.94152e-06
6.07661e-07
3.27108e-07
1.44538e-06
3.0356e-07
1.43456e-06
3.08986e-07
6.00629e-07
6.07663e-07
3.2711e-07
1.44557e-06
3.03561e-07
1.43477e-06
3.08988e-07
6.0063e-07
2.89547e-06
2.89495e-06
3.65483e-07
2.94459e-06
2.94361e-06
2.25138e-05
2.21053e-05
2.16191e-05
2.19687e-05
3.64005e-07
3.02029e-06
3.01938e-06
2.96975e-06
2.96912e-06
2.16188e-05
2.19676e-05
6.0889e-07
1.4162e-06
3.2051e-07
3.32647e-07
6.15444e-07
1.42809e-06
3.14655e-07
1.92934e-06
8.6653e-06
1.92331e-06
8.7216e-06
6.08888e-07
3.20514e-07
1.41627e-06
3.32672e-07
6.15442e-07
3.14657e-07
1.42808e-06
1.93209e-06
8.75243e-06
8.73018e-06
1.94191e-06
6.07685e-07
3.27093e-07
1.44559e-06
3.03562e-07
1.43483e-06
3.08987e-07
6.00665e-07
1.93206e-06
8.75244e-06
8.73026e-06
1.94189e-06
6.07683e-07
3.27118e-07
3.03565e-07
1.44561e-06
3.08991e-07
1.43489e-06
6.00663e-07
1.92934e-06
8.66433e-06
1.92326e-06
8.72075e-06
6.08874e-07
3.2051e-07
1.41603e-06
3.32665e-07
6.15411e-07
3.14654e-07
1.42795e-06
1.92931e-06
8.66464e-06
1.92324e-06
8.72091e-06
6.07667e-07
3.27087e-07
1.44531e-06
3.03559e-07
1.43457e-06
3.08984e-07
6.00637e-07
1.93213e-06
8.75164e-06
8.72936e-06
1.94157e-06
6.07663e-07
3.27111e-07
3.03561e-07
1.44545e-06
3.08987e-07
1.43465e-06
6.00634e-07
1.9321e-06
8.75179e-06
8.72961e-06
1.94155e-06
2.89585e-06
2.89491e-06
3.65499e-07
2.94471e-06
2.94416e-06
2.25154e-05
2.21061e-05
2.16214e-05
2.19703e-05
3.64019e-07
3.02048e-06
3.01979e-06
2.97016e-06
2.96927e-06
2.16196e-05
2.19692e-05
6.08884e-07
3.2051e-07
1.41617e-06
3.32649e-07
6.15441e-07
3.14654e-07
1.42808e-06
1.92932e-06
8.6648e-06
1.92331e-06
8.72106e-06
1.92935e-06
8.66522e-06
1.92333e-06
8.72154e-06
6.07676e-07
3.27095e-07
3.03563e-07
1.44547e-06
3.08986e-07
1.43465e-06
6.00657e-07
6.07682e-07
3.27094e-07
3.03561e-07
1.4456e-06
3.08987e-07
1.4348e-06
6.0066e-07
1.93206e-06
8.75195e-06
8.72976e-06
1.94189e-06
1.93208e-06
8.75245e-06
8.73024e-06
1.94191e-06
2.25156e-05
2.21062e-05
2.2516e-05
2.21066e-05
3.64018e-07
3.0198e-06
3.02049e-06
2.9693e-06
2.96994e-06
2.16198e-05
2.19694e-05
2.162e-05
2.19697e-05
2.1498e-05
2.11616e-05
2.14992e-05
2.11635e-05
3.04649e-06
3.04725e-06
3.4501e-07
3.10816e-06
3.10894e-06
2.07892e-05
2.10491e-05
2.07908e-05
2.10503e-05
3.43689e-07
3.18472e-06
3.18563e-06
3.13599e-06
3.13685e-06
1.94189e-06
8.7606e-06
1.94587e-06
8.77559e-06
5.91108e-07
1.45214e-06
2.98385e-07
3.11629e-07
5.99456e-07
1.46257e-06
2.93425e-07
5.91109e-07
1.45234e-06
2.98386e-07
3.11631e-07
5.99457e-07
1.46277e-06
2.93427e-07
1.94188e-06
8.76264e-06
8.7739e-06
1.94801e-06
1.94188e-06
8.76319e-06
8.77445e-06
1.94801e-06
5.89512e-07
3.0694e-07
1.47809e-06
2.83684e-07
1.46884e-06
2.8858e-07
5.81535e-07
5.89513e-07
3.06941e-07
1.47828e-06
2.83685e-07
1.46904e-06
2.88582e-07
5.81534e-07
3.04714e-06
3.04666e-06
3.45e-07
3.10887e-06
3.10725e-06
2.14978e-05
2.1162e-05
2.07899e-05
2.10498e-05
3.43681e-07
3.18552e-06
3.18427e-06
3.13679e-06
3.13624e-06
2.07895e-05
2.10489e-05
5.91132e-07
1.4524e-06
2.98386e-07
3.11612e-07
5.99483e-07
1.46279e-06
2.93428e-07
1.94194e-06
8.76151e-06
1.94591e-06
8.77643e-06
5.91129e-07
2.9839e-07
1.45246e-06
3.11638e-07
5.99482e-07
2.9343e-07
1.46279e-06
1.94179e-06
8.76404e-06
8.77533e-06
1.94836e-06
5.89533e-07
3.06922e-07
1.4783e-06
2.83686e-07
1.46911e-06
2.88581e-07
5.81564e-07
1.94177e-06
8.76395e-06
8.7753e-06
1.94835e-06
5.89532e-07
3.06949e-07
2.83688e-07
1.4783e-06
2.88585e-07
1.46917e-06
5.81564e-07
1.94194e-06
8.7607e-06
1.94591e-06
8.77569e-06
5.91112e-07
2.98386e-07
1.45221e-06
3.11632e-07
5.99457e-07
2.93427e-07
1.46264e-06
1.94191e-06
8.76085e-06
1.94589e-06
8.77579e-06
5.89516e-07
3.06917e-07
1.47798e-06
2.83683e-07
1.46885e-06
2.88578e-07
5.81538e-07
1.94193e-06
8.76326e-06
8.77457e-06
1.94805e-06
5.89513e-07
3.06942e-07
2.83685e-07
1.47814e-06
2.88581e-07
1.46891e-06
5.81537e-07
1.9419e-06
8.76333e-06
8.77464e-06
1.94803e-06
3.04771e-06
3.0466e-06
3.45016e-07
3.10853e-06
3.10831e-06
2.14993e-05
2.11629e-05
2.0792e-05
2.10514e-05
3.43695e-07
3.18549e-06