/*--------------------------------*- C++ -*----------------------------------*\
| =========                 |                                                 |
| \\      /  F ield         | OpenFOAM: The Open Source CFD Toolbox           |
|  \\    /   O peration     | Version:  2206                                  |
|   \\  /    A nd           | Website:  www.openfoam.com                      |
|    \\/     M anipulation  |                                                 |
\*---------------------------------------------------------------------------*/
FoamFile
{
    version     2.0;
    format      ascii;
    arch        "LSB;label=32;scalar=64";
    class       volScalarField;
    location    "39";
    object      nut;
}
// * * * * * * * * * * * * * * * * * * * * * * * * * * * * * * * * * * * * * //

dimensions      [0 2 -1 0 0 0 0];

internalField   nonuniform List<scalar> 
28688
(
0.000233973
0.000233116
0.000233116
0.000233421
0.000232533
0.000227803
0.000227802
0.000223864
0.000230518
0.000220323
0.00022032
0.000209106
0.000227796
0.000211661
0.000211657
0.00019378
0.000224406
0.000202618
0.000202612
0.000179696
0.00022058
0.00019381
0.000193803
0.00016737
0.000216335
0.00018532
0.000185312
0.000156553
0.000211775
0.000177326
0.000177318
0.00014753
0.000207582
0.000171255
0.000171245
0.000140675
0.000207453
0.000171427
0.000171418
0.000141423
0.00020805
0.000172281
0.000172271
0.000142763
0.000208213
0.000172517
0.000172507
0.000143034
0.000234268
0.000234448
0.000234449
0.000234268
0.000234448
0.000234449
0.000234274
0.000234274
0.000234274
0.000234274
0.000234448
0.000234448
0.000234268
0.000234448
0.000234448
0.000234268
0.000233421
0.000226206
0.000233116
0.000233114
0.000229361
0.000229357
0.00023342
0.000226207
0.000233114
0.000233114
0.000229359
0.000229355
0.000233116
0.000229364
0.000229361
0.000233421
0.000226204
0.000233114
0.000229363
0.000229358
0.000226204
0.000223864
0.000212231
0.0002278
0.000227795
0.000222329
0.000222324
0.000223865
0.000212235
0.000227797
0.000227793
0.000222329
0.000222321
0.000227799
0.000222336
0.000222328
0.000223863
0.000212229
0.000227797
0.000222333
0.000222328
0.00021223
0.000209108
0.000197061
0.000220316
0.00022031
0.000213869
0.000213864
0.000209109
0.000197066
0.000220316
0.000220307
0.000213873
0.000213859
0.000220314
0.00021388
0.000213867
0.000209104
0.000197057
0.000220315
0.000213876
0.000213872
0.000197058
0.000193783
0.000182872
0.000211649
0.000211644
0.000204881
0.000204876
0.000193786
0.000182878
0.000211654
0.000211639
0.000204889
0.00020487
0.000211647
0.000204896
0.000204879
0.000193779
0.000182868
0.000211653
0.000204891
0.000204888
0.000182868
0.0001797
0.00017029
0.000202602
0.000202596
0.000196005
0.000196
0.000179704
0.000170296
0.00020261
0.00020259
0.000196017
0.000195993
0.000202599
0.000196024
0.000196002
0.000179695
0.000170285
0.000202609
0.000196017
0.000196015
0.000170286
0.000167374
0.000159186
0.00019379
0.000193785
0.00018725
0.000187245
0.000167379
0.000159193
0.000193803
0.000193778
0.000187266
0.000187238
0.000193787
0.000187273
0.000187248
0.00016737
0.000159181
0.000193801
0.000187265
0.000187264
0.000159181
0.000156558
0.000149879
0.000185297
0.000185292
0.000179423
0.000179419
0.000156563
0.000149885
0.000185313
0.000185285
0.000179442
0.000179412
0.000185294
0.000179449
0.000179421
0.000156553
0.000149873
0.000185312
0.000179441
0.000179441
0.000149873
0.000147535
0.000142178
0.0001773
0.000177295
0.00017208
0.000172072
0.00014754
0.000142184
0.000177319
0.000177288
0.000172098
0.000172064
0.000177297
0.000172106
0.000172077
0.00014753
0.000142171
0.000177318
0.000172096
0.000172099
0.000142171
0.000140681
0.000141529
0.000171228
0.000171221
0.000171076
0.000171069
0.000140685
0.000141533
0.000171246
0.000171212
0.000171094
0.00017106
0.000171225
0.000171101
0.000171073
0.000140675
0.000141521
0.000171247
0.000171091
0.000171095
0.000141522
0.000141431
0.000142947
0.000171402
0.000171395
0.000172079
0.000172073
0.000141435
0.000142951
0.00017142
0.000171386
0.000172098
0.000172064
0.000171399
0.000172105
0.000172077
0.000141423
0.000142938
0.000171422
0.000172096
0.0001721
0.000142941
0.000142768
0.000143221
0.000172256
0.000172251
0.000172471
0.000172464
0.000142771
0.000143224
0.000172275
0.000172241
0.00017249
0.000172455
0.000172254
0.000172496
0.000172469
0.000142759
0.000143211
0.000172277
0.000172487
0.000172492
0.000143215
0.00014304
0.000143271
0.000172491
0.000172485
0.000172513
0.000143043
0.000172511
0.000172475
0.000172533
0.000172497
0.00017249
0.000172512
0.000143031
0.000143262
0.000172513
0.000172529
0.000172535
0.000143266
0.00023473
0.000234746
0.000234729
0.000234729
0.000235119
0.000234798
0.000234701
0.000234727
0.000235119
0.000234798
0.000234727
0.000234701
0.000234868
0.000233566
0.000233566
0.000104641
3.87451e-05
0.00012914
3.98209e-05
2.16834e-05
2.28288e-05
0.000104631
3.87411e-05
0.000129139
3.98173e-05
0.000233973
0.000233973
0.000233973
0.000232935
0.000232935
0.000232935
0.000232935
0.000206189
9.36601e-05
0.000233969
0.000231994
0.000222626
8.7237e-05
0.000233611
2.16824e-05
2.28281e-05
0.000206181
0.000233969
9.36596e-05
0.000231994
0.000222635
0.000233611
8.72425e-05
4.77858e-05
4.77739e-05
0.000231347
4.40335e-05
4.4024e-05
7.25775e-05
4.24377e-05
8.14082e-05
4.37585e-05
2.47773e-05
2.54616e-05
7.25669e-05
4.24342e-05
8.14058e-05
4.37547e-05
0.000232533
0.000232533
0.000232533
0.000231082
0.000231082
0.000231082
0.000231082
0.000167509
7.94168e-05
0.000232082
0.000226097
0.000180204
7.45253e-05
0.000231377
2.47756e-05
2.54601e-05
0.000167506
0.000232081
7.94105e-05
0.000226096
0.000180199
0.000231376
7.45288e-05
3.91442e-05
3.91339e-05
0.000219595
3.65907e-05
3.65799e-05
5.62914e-05
4.55508e-05
6.11286e-05
4.64076e-05
2.60148e-05
2.61169e-05
5.62967e-05
4.55481e-05
6.11246e-05
4.64047e-05
0.000230518
0.000230517
0.000230518
0.000228534
0.000228535
0.000228533
0.000228534
0.00013862
6.74107e-05
0.000228645
0.000218236
0.000148048
6.35254e-05
0.000227541
2.60126e-05
2.61148e-05
0.000138617
0.000228644
6.74052e-05
0.000218233
0.000148037
0.000227538
6.3524e-05
3.32084e-05
3.32e-05
0.000204618
3.20034e-05
3.19943e-05
4.69838e-05
4.75045e-05
4.98988e-05
4.79979e-05
2.60504e-05
2.59357e-05
4.69869e-05
4.75011e-05
4.98896e-05
4.79952e-05
0.000227796
0.000227795
0.000227795
0.000225321
0.000225322
0.00022532
0.00022532
0.00011758
5.82113e-05
0.000223716
0.000209435
0.000124578
5.54877e-05
0.000222318
2.60479e-05
2.59335e-05
0.000117578
0.000223715
5.82099e-05
0.00020943
0.00012457
0.000222315
5.54841e-05
3.06187e-05
3.06108e-05
0.000189786
3.03041e-05
3.02963e-05
4.14464e-05
4.85861e-05
4.3232e-05
4.88358e-05
2.56787e-05
2.55163e-05
4.14402e-05
4.85827e-05
4.32328e-05
4.88329e-05
0.000224407
0.000224404
0.000224405
0.000221613
0.000221613
0.00022161
0.000221611
0.000102153
5.18827e-05
0.00021775
0.000200383
0.000107329
5.00774e-05
0.000216161
2.56762e-05
2.55141e-05
0.000102149
0.000217748
5.18811e-05
0.000200377
0.000107325
0.000216157
5.00749e-05
3.01964e-05
3.01893e-05
0.000176354
3.03711e-05
3.03639e-05
3.81213e-05
4.90945e-05
3.92508e-05
4.9201e-05
2.52426e-05
2.50886e-05
3.81178e-05
4.90913e-05
3.92593e-05
4.9198e-05
0.000220581
0.000220577
0.000220579
0.000217319
0.000217319
0.000217315
0.000217317
9.05217e-05
4.77442e-05
0.00021131
0.000191565
9.44586e-05
4.6619e-05
0.000209584
2.52401e-05
2.50867e-05
9.05193e-05
0.000211308
4.77426e-05
0.000191557
9.44544e-05
0.00020958
4.66174e-05
3.09978e-05
3.09917e-05
0.000164554
3.15374e-05
3.15312e-05
3.64106e-05
4.92745e-05
3.69608e-05
4.93045e-05
2.48568e-05
2.47269e-05
3.64073e-05
4.92713e-05
3.69581e-05
4.93014e-05
0.000216336
0.000216331
0.000216333
0.000213102
0.000213103
0.000213098
0.0002131
8.17473e-05
4.51707e-05
0.000204589
0.000183426
8.46042e-05
4.45797e-05
0.000203075
2.48546e-05
2.47249e-05
8.17442e-05
0.000204586
4.517e-05
0.000183418
8.45974e-05
0.00020307
4.45778e-05
3.25653e-05
3.256e-05
0.000154375
3.33232e-05
3.33179e-05
3.59177e-05
4.92728e-05
3.58954e-05
4.92473e-05
2.4552e-05
2.45041e-05
3.59095e-05
4.92694e-05
3.58943e-05
4.92443e-05
0.000211775
0.00021177
0.000211772
0.00020823
0.00020823
0.000208224
0.000208227
7.51947e-05
4.39335e-05
0.000197964
0.000175258
7.74398e-05
4.38208e-05
0.000196081
2.45499e-05
2.45021e-05
7.51884e-05
0.00019796
4.39292e-05
0.000175249
7.74368e-05
0.000196076
4.38114e-05
3.45532e-05
3.45486e-05
0.000145539
3.5422e-05
3.54175e-05
3.74663e-05
4.9222e-05
3.6694e-05
4.92752e-05
2.44925e-05
2.45092e-05
3.74652e-05
4.92188e-05
3.66932e-05
4.9272e-05
0.000207583
0.000207577
0.00020758
0.000207284
0.000207285
0.000207279
0.000207282
7.44865e-05
4.38808e-05
0.000192269
0.000170871
7.35804e-05
4.41392e-05
0.000191866
2.44903e-05
2.45067e-05
7.44864e-05
0.000192265
4.38807e-05
0.000170861
7.35774e-05
0.000191861
4.41417e-05
3.65365e-05
3.65322e-05
0.000141211
3.72036e-05
3.71993e-05
3.85226e-05
4.93684e-05
3.83229e-05
4.93887e-05
2.45277e-05
2.45324e-05
3.85247e-05
4.93651e-05
3.83295e-05
4.93856e-05
0.000207453
0.000207446
0.00020745
0.000207942
0.000207943
0.000207936
0.00020794
7.5973e-05
4.54001e-05
0.000192087
0.000171682
7.5419e-05
4.58298e-05
0.000192308
2.45251e-05
2.45297e-05
7.59751e-05
0.000192084
4.54044e-05
0.000171672
7.54207e-05
0.000192304
4.58301e-05
3.81074e-05
3.81038e-05
0.00014235
3.83506e-05
3.83481e-05
3.86685e-05
4.94005e-05
3.86606e-05
4.94006e-05
2.45338e-05
2.4534e-05
3.86753e-05
4.93973e-05
3.86687e-05
4.93972e-05
0.000208052
0.000208045
0.000208049
0.000208199
0.000208199
0.000208192
0.000208197
7.63957e-05
4.61875e-05
0.000192791
0.000172394
7.6322e-05
4.62119e-05
0.000192861
2.45311e-05
2.45313e-05
7.63985e-05
0.000192788
4.61929e-05
0.000172385
7.63247e-05
0.000192858
4.62164e-05
3.85312e-05
3.85282e-05
0.00014314
3.85374e-05
3.85346e-05
3.86749e-05
4.94015e-05
3.86688e-05
4.9401e-05
2.45339e-05
2.45341e-05
3.86812e-05
4.9398e-05
3.86756e-05
4.93974e-05
0.000208213
0.000208206
0.000208211
0.000208224
0.000208225
0.000208217
0.000208221
7.64373e-05
4.62162e-05
0.000192954
0.000172531
7.64069e-05
4.62282e-05
0.000192963
2.45312e-05
2.45313e-05
7.64399e-05
0.000192951
4.62205e-05
0.000172521
7.64096e-05
0.00019296
4.62321e-05
3.85375e-05
3.85347e-05
0.000143247
3.85396e-05
3.85367e-05
0.000234868
0.000233564
0.000233566
2.32575e-05
0.000214159
2.32564e-05
0.000214162
0.000234434
5.135e-05
5.13317e-05
0.00022999
0.000229991
0.000235119
0.000234798
0.000234701
0.000234727
0.000235119
0.000234798
0.000234701
0.000234727
0.000234477
4.02625e-05
0.000218814
0.000147801
0.000234477
4.0262e-05
0.000218814
0.000147808
0.000233886
0.000234474
0.000100112
0.000234271
0.000233358
0.000234597
0.000228482
0.000233886
0.000234474
0.000100102
0.000234271
0.000233359
0.000234597
0.000228481
0.000234868
0.000233565
0.000233566
2.32572e-05
0.000214167
0.000234434
5.13428e-05
5.13356e-05
0.000229989
0.000229991
2.32571e-05
0.000214169
0.000235119
0.000234798
0.000234701
0.000234727
0.000235119
0.000234798
0.000234727
0.000234701
0.000234477
4.02593e-05
0.000218815
0.000147774
0.000233886
0.000234474
0.00010009
0.00023427
0.000233359
0.000234596
0.000228479
0.000234477
4.02588e-05
0.000218816
0.00014779
0.000233886
0.000234474
0.000234271
0.000100098
0.000234597
0.000233359
0.000228481
0.00023473
0.000234746
0.000234729
0.000234729
0.00023473
0.000234746
0.000234729
0.000234729
0.00023473
0.000234746
0.000234729
0.000234729
0.000234591
0.000234573
0.000234253
0.000234253
0.000234592
0.000234592
0.000234253
0.000234591
0.000234573
0.000234253
0.000234253
0.000234592
0.000234592
0.000234253
0.000234591
0.000234573
0.000234253
0.000234253
0.000234592
0.000234592
0.000234253
0.000234591
0.000234573
0.000234253
0.000234253
0.000234592
0.000234592
0.000234253
0.000235119
0.000234798
0.000234727
0.000234701
0.000233886
0.000234474
0.000100093
0.00023427
0.000233359
0.000234596
0.00022848
0.000234477
4.026e-05
0.000218817
0.000147792
0.000233886
0.000234474
0.000234271
0.000100107
0.000234597
0.000233359
0.000228482
0.000234477
4.02595e-05
0.000218816
0.0001478
0.000234868
0.000233566
0.000233566
2.32564e-05
0.000214163
0.000234434
5.13351e-05
5.13396e-05
0.000229991
0.000229993
2.32568e-05
0.000214171
0.000235119
0.000234798
0.000234727
0.000234701
0.000233885
0.000234474
0.00023427
0.000100102
0.000234596
0.00023336
0.000228481
0.000233885
0.000234474
0.00023427
0.000100092
0.000234596
0.000233359
0.000228479
0.000234477
4.02591e-05
0.000218818
0.000147776
0.000234477
4.0259e-05
0.000218813
0.000147762
0.000234434
5.13432e-05
5.13307e-05
0.000229992
0.000229992
2.32569e-05
0.00021417
2.32564e-05
0.000214164
2.16838e-05
2.28299e-05
2.16825e-05
2.28283e-05
4.77878e-05
4.7776e-05
0.000231348
4.40381e-05
4.40227e-05
2.4479e-05
2.33075e-05
2.44774e-05
2.33063e-05
0.000229664
4.00824e-05
4.00682e-05
4.3082e-05
4.30677e-05
0.000104655
3.87442e-05
0.000129126
3.98189e-05
0.000206193
9.36705e-05
0.000233969
0.000231993
0.000222621
8.72446e-05
0.000233611
0.000206196
9.36534e-05
0.000233969
0.000231989
0.000222617
8.72316e-05
0.000233611
9.84379e-05
4.1958e-05
4.0381e-05
8.55747e-05
9.84312e-05
4.19564e-05
4.03799e-05
8.55766e-05
0.000200089
0.000230758
8.08235e-05
0.000232682
8.56535e-05
0.000233188
0.000185645
0.000200089
0.000230753
8.08162e-05
0.000232682
8.56361e-05
0.000233188
0.000185648
4.77783e-05
4.77865e-05
0.000231348
4.40284e-05
4.40302e-05
2.16835e-05
2.283e-05
2.44781e-05
2.33069e-05
0.000229664
4.00737e-05
4.00726e-05
4.30692e-05
4.30803e-05
2.44793e-05
2.33076e-05
0.000206182
9.36488e-05
0.000233969
0.000231991
0.000222621
8.72249e-05
0.000233611
0.000104634
3.87407e-05
0.000129157
3.98167e-05
0.000206183
0.000233969
9.36528e-05
0.000231989
0.000222625
0.000233611
8.72248e-05
9.84376e-05
4.19542e-05
4.03775e-05
8.5567e-05
0.000200089
0.000230755
8.08096e-05
0.000232682
8.56368e-05
0.000233188
0.000185641
9.84383e-05
4.19534e-05
4.03768e-05
8.55655e-05
0.000200089
0.000230753
0.000232682
8.0805e-05
0.000233188
8.56354e-05
0.000185638
0.000104641
3.87416e-05
0.000129145
3.98196e-05
0.000206189
0.000233969
9.3661e-05
0.000231993
0.000222631
0.000233611
8.72397e-05
0.000104639
3.87422e-05
0.000129165
3.98179e-05
0.000200091
0.00023076
8.08192e-05
0.000232683
8.56518e-05
0.000233189
0.000185646
9.84369e-05
4.19565e-05
4.03786e-05
8.55706e-05
0.000200091
0.000230757
0.000232682
8.08242e-05
0.000233188
8.56478e-05
0.000185645
9.84421e-05
4.19553e-05
4.03789e-05
8.55717e-05
4.77763e-05
4.7784e-05
0.000231347
4.40219e-05
4.40387e-05
2.16829e-05
2.28289e-05
2.44769e-05
2.33054e-05
0.000229664
4.0066e-05
4.00815e-05
4.30699e-05
4.30761e-05
2.4478e-05
2.33068e-05
0.000206179
0.000233969
9.36475e-05
0.00023199
0.000222631
0.000233611
8.72285e-05
0.000104617
3.87413e-05
0.000129175
3.98181e-05
0.000104614
3.87407e-05
0.000129161
3.9817e-05
0.000200091
0.000230759
0.000232682
8.08241e-05
0.000233188
8.56441e-05
0.00018564
0.000200092
0.000230755
0.000232682
8.08152e-05
0.000233188
8.56352e-05
0.000185639
9.84536e-05
4.19549e-05
4.03785e-05
8.55647e-05
9.8453e-05
4.19542e-05
4.03771e-05
8.55643e-05
2.16833e-05
2.28289e-05
2.16824e-05
2.28283e-05
0.000229664
4.00817e-05
4.00697e-05
4.30801e-05
4.30659e-05
2.44782e-05
2.33071e-05
2.44773e-05
2.33064e-05
2.4778e-05
2.54627e-05
2.47762e-05
2.54609e-05
3.91484e-05
3.91351e-05
0.000219597
3.65905e-05
3.65797e-05
2.59531e-05
2.56215e-05
2.59516e-05
2.56197e-05
0.000216773
3.38652e-05
3.38528e-05
3.57201e-05
3.5705e-05
7.25805e-05
4.24366e-05
8.14103e-05
4.37572e-05
0.000167506
7.94186e-05
0.000232081
0.000226093
0.000180202
7.45273e-05
0.000231376
0.00016751
7.94018e-05
0.000232081
0.000226087
0.000180204
7.45226e-05
0.000231376
6.96298e-05
4.52328e-05
4.41551e-05
6.32507e-05
6.96318e-05
4.52324e-05
4.41537e-05
6.32537e-05
0.000162873
0.000224263
6.86822e-05
0.000229652
7.31442e-05
0.000230565
0.000151912
0.000162876
0.000224257
6.8681e-05
0.000229652
7.31263e-05
0.000230565
0.000151915
3.91374e-05
3.91471e-05
0.000219599
3.6585e-05
3.65806e-05
2.47781e-05
2.54629e-05
2.59526e-05
2.56207e-05
0.000216774
3.38576e-05
3.38607e-05
3.57078e-05
3.57168e-05
2.59535e-05
2.56214e-05
0.000167508
7.94007e-05
0.000232081
0.000226092
0.000180198
7.4518e-05
0.000231376
7.25646e-05
4.2433e-05
8.14051e-05
4.37538e-05
0.000167504
0.00023208
7.94023e-05
0.000226086
0.000180195
0.000231375
7.45093e-05
6.9634e-05
4.52298e-05
4.41517e-05
6.32474e-05
0.000162865
0.000224261
6.86747e-05
0.000229651
7.3127e-05
0.000230565
0.000151914
6.96338e-05
4.52286e-05
4.41497e-05
6.32448e-05
0.000162863
0.000224254
0.000229651
6.86688e-05
0.000230564
7.31255e-05
0.000151909
7.25731e-05
4.24359e-05
8.14109e-05
4.37571e-05
0.000167506
0.000232081
7.94104e-05
0.000226092
0.000180201
0.000231376
7.45288e-05
7.25762e-05
4.24355e-05
8.14049e-05
4.37556e-05
0.000162875
0.000224267
6.86837e-05
0.000229653
7.31412e-05
0.000230566
0.000151914
6.96339e-05
4.52322e-05
4.41531e-05
6.3251e-05
0.000162872
0.000224261
0.000229652
6.86861e-05
0.000230565
7.31319e-05
0.000151911
6.96318e-05
4.52305e-05
4.41521e-05
6.32492e-05
3.91355e-05
3.91471e-05
0.000219594
3.6575e-05
3.65898e-05
2.47775e-05
2.54613e-05
2.59506e-05
2.56186e-05
0.000216771
3.38536e-05
3.38641e-05
3.57046e-05
3.57146e-05
2.59522e-05
2.56204e-05
0.000167509
0.000232081
7.94004e-05
0.00022609
0.000180201
0.000231376
7.45206e-05
7.25656e-05
4.24351e-05
8.14053e-05
4.37557e-05
7.25716e-05
4.24339e-05
8.14069e-05
4.37545e-05
0.000162864
0.000224266
0.000229652
6.86859e-05
0.000230566
7.31338e-05
0.000151911
0.000162867
0.000224261
0.000229652
6.86785e-05
0.000230565
7.31239e-05
0.000151914
6.96338e-05
4.52307e-05
4.41521e-05
6.32459e-05
6.96345e-05
4.52294e-05
4.41507e-05
6.32468e-05
2.47774e-05
2.54611e-05
2.47766e-05
2.54604e-05
0.000216771
3.38633e-05
3.38532e-05
3.57118e-05
3.57032e-05
2.59521e-05
2.56202e-05
2.59513e-05
2.56194e-05
2.60154e-05
2.61175e-05
2.60136e-05
2.61158e-05
3.3204e-05
3.32024e-05
0.00020462
3.20026e-05
3.19948e-05
2.60826e-05
2.61189e-05
2.60807e-05
2.61171e-05
0.000201347
3.08821e-05
3.08711e-05
3.1559e-05
3.1556e-05
5.6294e-05
4.55501e-05
6.11304e-05
4.64074e-05
0.000138619
6.74108e-05
0.000228644
0.000218227
0.000148046
6.35243e-05
0.00022754
0.000138622
6.74009e-05
0.000228643
0.000218222
0.000148049
6.35203e-05
0.000227539
5.47524e-05
4.73165e-05
4.66557e-05
5.10268e-05
5.47538e-05
4.73166e-05
4.6655e-05
5.10286e-05
0.000135387
0.000216071
5.91383e-05
0.00022506
6.24222e-05
0.000226341
0.00012728
0.00013539
0.000216066
5.91325e-05
0.000225059
6.24139e-05
0.00022634
0.000127283
3.32039e-05
3.32019e-05
0.000204625
3.19979e-05
3.1999e-05
2.60156e-05
2.61178e-05
2.60817e-05
2.61183e-05
0.000201349
3.08734e-05
3.08805e-05
3.15576e-05
3.1556e-05
2.60827e-05
2.61191e-05
0.000138618
6.7402e-05
0.000228644
0.000218229
0.000148038
6.3515e-05
0.000227538
5.62949e-05
4.55459e-05
6.11242e-05
4.64033e-05
0.000138615
0.000228642
6.73964e-05
0.000218218
0.000148036
0.000227537
6.35115e-05
5.47487e-05
4.73137e-05
4.66527e-05
5.10269e-05
0.000135381
0.000216074
5.91289e-05
0.000225058
6.24124e-05
0.000226341
0.000127276
5.4748e-05
4.73123e-05
4.66506e-05
5.10258e-05
0.000135379
0.000216061
0.000225057
5.91261e-05
0.000226339
6.24086e-05
0.000127274
5.62916e-05
4.55496e-05
6.11279e-05
4.64072e-05
0.000138617
0.000228643
6.74057e-05
0.000218225
0.000148045
0.000227539
6.35246e-05
5.62902e-05
4.55482e-05
6.11263e-05
4.64054e-05
0.000135389
0.000216081
5.91388e-05
0.000225061
6.2422e-05
0.000226342
0.000127281
5.47515e-05
4.73165e-05
4.66545e-05
5.10264e-05
0.000135386
0.000216069
0.000225059
5.91361e-05
0.00022634
6.2418e-05
0.000127278
5.47503e-05
4.73144e-05
4.66529e-05
5.10253e-05
3.31919e-05
3.32097e-05
0.000204617
3.19915e-05
3.2004e-05
2.60145e-05
2.61165e-05
2.60796e-05
2.6116e-05
0.000201344
3.08721e-05
3.08796e-05
3.1548e-05
3.15632e-05
2.60813e-05
2.61179e-05
0.000138619
0.000228643
6.7398e-05
0.000218228
0.000148039
0.000227538
6.35179e-05
5.62959e-05
4.55481e-05
6.1124e-05
4.64051e-05
5.62969e-05
4.55471e-05
6.11248e-05
4.64044e-05
0.00013538
0.000216077
0.000225058
5.91358e-05
0.000226341
6.2418e-05
0.000127276
0.000135382
0.000216073
0.000225058
5.913e-05
0.00022634
6.24111e-05
0.000127278
5.47478e-05
4.73141e-05
4.66526e-05
5.10262e-05
5.47487e-05
4.73135e-05
4.6652e-05
5.1027e-05
2.60143e-05
2.61164e-05
2.60135e-05
2.61155e-05
0.000201345
3.08786e-05
3.08704e-05
3.15626e-05
3.15543e-05
2.60811e-05
2.61177e-05
2.60802e-05
2.61168e-05
2.60512e-05
2.59367e-05
2.60489e-05
2.59347e-05
3.06198e-05
3.06119e-05
0.000189789
3.0305e-05
3.0297e-05
2.57368e-05
2.58877e-05
2.57344e-05
2.58851e-05
0.000186554
3.0173e-05
3.01645e-05
3.02077e-05
3.01986e-05
4.69856e-05
4.75038e-05
4.99003e-05
4.79981e-05
0.000117579
5.82107e-05
0.000223715
0.000209422
0.000124577
5.54881e-05
0.000222317
0.000117582
5.82061e-05
0.000223714
0.000209416
0.000124579
5.54814e-05
0.000222316
4.61686e-05
4.84927e-05
4.81347e-05
4.3825e-05
4.61702e-05
4.84928e-05
4.81339e-05
4.38263e-05
0.000115359
0.000207166
5.25039e-05
0.000219324
5.47263e-05
0.000220855
0.000109279
0.000115361
0.000207161
5.24974e-05
0.000219323
5.47193e-05
0.000220853
0.000109281
3.06136e-05
3.06183e-05
0.000189795
3.02988e-05
3.03035e-05
2.60511e-05
2.59367e-05
2.57355e-05
2.58866e-05
0.000186558
3.01661e-05
3.01719e-05
3.02e-05
3.02045e-05
2.57365e-05
2.58873e-05
0.000117577
5.82031e-05
0.000223715
0.000209428
0.00012457
5.54794e-05
0.000222315
4.69857e-05
4.74993e-05
4.98889e-05
4.79935e-05
0.000117575
0.000223712
5.81985e-05
0.000209411
0.000124568
0.000222313
5.54762e-05
4.61693e-05
4.849e-05
4.81311e-05
4.38248e-05
0.000115353
0.000207173
5.24949e-05
0.000219322
5.47171e-05
0.000220854
0.000109276
4.61684e-05
4.84878e-05
4.81292e-05
4.38239e-05
0.000115351
0.000207156
0.00021932
5.24924e-05
0.000220851
5.47124e-05
0.000109274
4.69837e-05
4.75034e-05
4.98982e-05
4.7998e-05
0.000117578
0.000223714
5.82096e-05
0.000209419
0.000124576
0.000222316
5.54845e-05
4.69827e-05
4.75016e-05
4.98972e-05
4.79957e-05
0.00011536
0.000207181
5.2503e-05
0.000219326
5.4724e-05
0.000220856
0.00010928
4.61683e-05
4.84927e-05
4.81336e-05
4.38246e-05
0.000115358
0.000207164
0.000219323
5.25e-05
0.000220854
5.47223e-05
0.000109277
4.61674e-05
4.84902e-05
4.81315e-05
4.38239e-05
3.06098e-05
3.06198e-05
0.000189785
3.02959e-05
3.03048e-05
2.605e-05
2.59353e-05
2.57333e-05
2.58841e-05
0.00018655
3.01645e-05
3.01722e-05
3.01967e-05
3.0206e-05
2.57351e-05
2.58862e-05
0.000117579
0.000223714
5.82034e-05
0.000209426
0.000124571
0.000222315
5.54789e-05
4.69864e-05
4.75013e-05
4.98888e-05
4.79954e-05
4.69871e-05
4.75007e-05
4.98896e-05
4.7995e-05
0.000115353
0.000207175
0.000219322
5.24998e-05
0.000220855
5.47224e-05
0.000109277
0.000115354
0.000207172
0.000219323
5.2495e-05
0.000220853
5.47165e-05
0.000109278
4.61687e-05
4.84899e-05
4.81312e-05
4.38244e-05
4.61694e-05
4.84896e-05
4.81308e-05
4.3825e-05
2.60498e-05
2.59351e-05
2.60489e-05
2.59342e-05
0.00018655
3.01713e-05
3.01639e-05
3.02052e-05
3.01977e-05
2.57349e-05
2.5886e-05
2.57339e-05
2.58851e-05
2.56799e-05
2.55176e-05
2.56772e-05
2.55152e-05
3.01973e-05
3.01902e-05
0.000176358
3.03738e-05
3.03649e-05
2.52994e-05
2.5459e-05
2.5297e-05
2.54562e-05
0.000173306
3.08445e-05
3.0834e-05
3.04877e-05
3.04812e-05
4.14471e-05
4.85856e-05
4.32334e-05
4.88358e-05
0.000102154
5.18846e-05
0.000217748
0.000200366
0.000107329
5.00783e-05
0.000216159
0.000102155
5.18783e-05
0.000217747
0.000200361
0.00010733
5.00728e-05
0.000216157
4.0969e-05
4.90571e-05
4.88979e-05
3.95957e-05
4.09694e-05
4.90569e-05
4.88977e-05
3.95971e-05
0.000100385
0.000198181
4.81486e-05
0.000212971
4.95846e-05
0.000214574
9.59862e-05
0.000100386
0.000198176
4.81429e-05
0.000212969
4.95791e-05
0.000214573
9.5988e-05
3.01912e-05
3.01946e-05
0.000176364
3.03654e-05
3.03731e-05
2.56794e-05
2.55174e-05
2.5298e-05
2.54577e-05
0.00017331
3.08378e-05
3.08337e-05
3.0481e-05
3.04935e-05
2.52992e-05
2.54585e-05
0.000102149
5.18748e-05
0.000217748
0.000200376
0.000107324
5.00704e-05
0.000216157
4.14399e-05
4.85805e-05
4.32319e-05
4.88307e-05
0.000102147
0.000217744
5.1872e-05
0.000200354
0.000107322
0.000216154
5.00677e-05
4.09567e-05
4.9054e-05
4.88947e-05
3.96056e-05
0.000100376
0.000198192
4.81409e-05
0.000212968
4.95758e-05
0.000214574
9.5987e-05
4.09566e-05
4.90518e-05
4.88923e-05
3.96045e-05
0.000100375
0.00019817
0.000212965
4.8139e-05
0.000214569
4.95731e-05
9.59853e-05
4.14455e-05
4.85852e-05
4.32318e-05
4.88357e-05
0.000102152
0.000217747
5.18809e-05
0.000200363
0.000107328
0.000216158
5.00751e-05
4.14448e-05
4.8583e-05
4.3231e-05
4.88331e-05
0.000100385
0.000198199
4.81477e-05
0.000212973
4.95828e-05
0.000214576
9.59865e-05
4.09678e-05
4.90568e-05
4.88973e-05
3.95957e-05
0.000100383
0.000198178
0.00021297
4.8145e-05
0.000214573
4.95814e-05
9.5985e-05
4.09672e-05
4.9054e-05
4.88949e-05
3.95951e-05
3.01872e-05
3.01974e-05
0.000176354
3.03663e-05
3.03725e-05
2.56784e-05
2.5516e-05
2.52959e-05
2.54552e-05
0.000173301
3.0831e-05
3.08445e-05
3.04846e-05
3.0487e-05
2.52978e-05
2.54574e-05
0.000102151
0.000217747
5.18756e-05
0.000200374
0.000107325
0.000216157
5.00704e-05
4.14397e-05
4.85828e-05
4.32325e-05
4.88328e-05
4.14402e-05
4.85824e-05
4.3233e-05
4.88326e-05
0.000100376
0.000198193
0.000212968
4.81448e-05
0.000214574
4.95816e-05
9.59878e-05
0.000100377
0.000198191
0.000212969
4.81406e-05
0.000214573
4.95765e-05
9.59888e-05
4.09562e-05
4.90537e-05
4.88947e-05
3.96055e-05
4.09566e-05
4.90536e-05
4.88944e-05
3.9606e-05
2.56782e-05
2.55158e-05
2.56771e-05
2.55147e-05
0.000173301
3.08436e-05
3.08367e-05
3.04866e-05
3.04799e-05
2.52976e-05
2.54572e-05
2.52965e-05
2.54561e-05
2.52441e-05
2.50903e-05
2.52412e-05
2.50877e-05
3.09991e-05
3.09942e-05
0.000164559
3.15377e-05
3.15289e-05
2.49046e-05
2.50383e-05
2.4902e-05
2.50353e-05
0.000161739
3.23344e-05
3.2325e-05
3.17184e-05
3.17157e-05
3.81219e-05
4.90944e-05
3.92521e-05
4.92011e-05
9.05218e-05
4.77463e-05
0.000211308
0.000191544
9.44588e-05
4.66203e-05
0.000209582
9.05232e-05
4.77404e-05
0.000211306
0.000191539
9.44598e-05
4.66157e-05
0.00020958
3.79159e-05
4.92579e-05
4.92182e-05
3.71386e-05
3.79167e-05
4.9258e-05
4.92181e-05
3.71393e-05
8.91661e-05
0.000189338
4.54341e-05
0.000206162
4.62997e-05
0.000207841
8.58141e-05
8.91672e-05
0.000189333
4.54295e-05
0.00020616
4.62949e-05
0.000207839
8.58151e-05
3.09916e-05
3.10082e-05
0.000164565
3.15326e-05
3.15243e-05
2.52434e-05
2.50899e-05
2.49029e-05
2.50365e-05
0.000161744
3.23277e-05
3.23219e-05
3.17146e-05
3.17262e-05
2.49042e-05
2.50375e-05
9.05184e-05
4.77374e-05
0.000211307
0.000191558
9.44539e-05
4.66136e-05
0.000209579
3.81174e-05
4.9089e-05
3.92583e-05
4.91955e-05
9.0517e-05
0.000211302
4.77354e-05
0.000191532
9.44527e-05
0.000209576
4.66111e-05
3.79171e-05
4.92548e-05
4.92149e-05
3.71356e-05
8.9164e-05
0.000189353
4.54275e-05
0.000206159
4.62919e-05
0.00020784
8.5809e-05
3.79165e-05
4.92523e-05
4.92125e-05
3.71353e-05
8.91626e-05
0.000189326
0.000206156
4.54255e-05
0.000207835
4.62895e-05
8.58081e-05
3.81206e-05
4.9094e-05
3.92507e-05
4.92009e-05
9.05204e-05
0.000211307
4.77425e-05
0.000191541
9.44578e-05
0.000209581
4.66175e-05
3.81202e-05
4.90914e-05
3.92502e-05
4.9198e-05
8.91662e-05
0.00018936
4.54328e-05
0.000206164
4.62975e-05
0.000207844
8.58136e-05
3.79154e-05
4.92577e-05
4.92177e-05
3.7138e-05
8.91655e-05
0.000189335
0.000206161
4.54311e-05
0.00020784
4.62967e-05
8.58125e-05
3.7915e-05
4.92548e-05
4.9215e-05
3.71377e-05
3.09977e-05
3.09981e-05
0.000164554
3.15229e-05
3.15387e-05
2.52424e-05
2.50886e-05
2.49009e-05
2.50343e-05
0.000161734
3.23186e-05
3.23342e-05
3.17173e-05
3.17197e-05
2.49029e-05
2.50365e-05
9.05201e-05
0.000211307
4.77379e-05
0.000191556
9.44544e-05
0.000209581
4.66134e-05
3.81177e-05
4.90912e-05
3.92591e-05
4.91977e-05
3.8118e-05
4.9091e-05
3.92595e-05
4.91976e-05
8.91647e-05
0.000189352
0.00020616
4.5431e-05
0.000207841
4.62968e-05
8.58099e-05
8.91647e-05
0.000189351
0.000206161
4.54272e-05
0.00020784
4.62924e-05
8.58104e-05
3.7917e-05
4.92546e-05
4.92147e-05
3.71355e-05
3.79173e-05
4.92545e-05
4.92146e-05
3.71357e-05
2.52422e-05
2.50884e-05
2.52411e-05
2.50872e-05
0.000161734
3.23326e-05
3.23271e-05
3.17195e-05
3.17135e-05
2.49027e-05
2.50363e-05
2.49015e-05
2.50352e-05
2.48585e-05
2.47286e-05
2.48556e-05
2.47259e-05
3.25657e-05
3.25618e-05
0.00015438
3.33233e-05
3.33164e-05
2.45811e-05
2.46844e-05
2.45784e-05
2.46816e-05
0.000151934
3.42229e-05
3.42184e-05
3.35639e-05
3.35608e-05
3.64109e-05
4.92745e-05
3.69613e-05
4.93046e-05
8.17482e-05
4.5173e-05
0.000204586
0.000183403
8.46047e-05
4.45806e-05
0.000203073
8.17491e-05
4.51684e-05
0.000204584
0.000183398
8.46051e-05
4.45766e-05
0.00020307
3.62496e-05
4.92813e-05
4.93027e-05
3.59799e-05
3.62499e-05
4.92814e-05
4.93028e-05
3.59801e-05
8.06507e-05
0.000181466
4.4016e-05
0.000199817
4.43742e-05
0.000201516
7.82769e-05
8.06511e-05
0.00018146
4.40128e-05
0.000199815
4.43701e-05
0.000201514
7.82775e-05
3.25601e-05
3.25598e-05
0.000154386
3.33188e-05
3.33294e-05
2.48578e-05
2.47281e-05
2.45794e-05
2.46827e-05
0.00015194
3.42196e-05
3.4228e-05
3.35603e-05
3.35672e-05
2.45807e-05
2.46838e-05
8.17436e-05
4.51654e-05
0.000204585
0.000183419
8.45967e-05
4.45746e-05
0.000203069
3.6407e-05
4.92688e-05
3.69579e-05
4.92988e-05
8.17428e-05
0.00020458
4.51634e-05
0.00018339
8.45959e-05
0.000203065
4.4573e-05
3.62483e-05
4.92782e-05
4.92996e-05
3.59749e-05
8.06448e-05
0.000181483
4.40109e-05
0.000199814
4.43672e-05
0.000201515
7.82746e-05
3.62481e-05
4.92754e-05
4.9297e-05
3.5975e-05
8.0644e-05
0.000181453
0.000199809
4.4011e-05
0.000201509
4.43656e-05
7.82738e-05
3.64097e-05
4.92742e-05
3.69601e-05
4.93043e-05
8.17465e-05
0.000204585
4.51699e-05
0.0001834
8.46036e-05
0.000203071
4.45779e-05
3.64095e-05
4.92713e-05
3.69598e-05
4.93013e-05
8.06504e-05
0.00018149
4.40169e-05
0.000199819
4.43724e-05
0.000201519
7.82763e-05
3.62487e-05
4.92811e-05
4.93025e-05
3.5979e-05
8.06496e-05
0.000181463
0.000199815
4.40138e-05
0.000201515
4.43714e-05
7.82755e-05
3.62484e-05
4.9278e-05
4.92994e-05
3.59788e-05
3.25533e-05
3.25662e-05
0.000154375
3.33238e-05
3.33239e-05
2.48568e-05
2.47268e-05
2.45775e-05
2.46806e-05
0.000151929
3.42223e-05
3.42243e-05
3.35605e-05