/*--------------------------------*- C++ -*----------------------------------*\
| =========                 |                                                 |
| \\      /  F ield         | OpenFOAM: The Open Source CFD Toolbox           |
|  \\    /   O peration     | Version:  2206                                  |
|   \\  /    A nd           | Website:  www.openfoam.com                      |
|    \\/     M anipulation  |                                                 |
\*---------------------------------------------------------------------------*/
FoamFile
{
    version     2.0;
    format      ascii;
    arch        "LSB;label=32;scalar=64";
    class       volScalarField;
    location    "39";
    object      p;
}
// * * * * * * * * * * * * * * * * * * * * * * * * * * * * * * * * * * * * * //

dimensions      [0 2 -2 0 0 0 0];

internalField   nonuniform List<scalar> 
28688
(
0.00383441
0.00383474
0.00383474
0.00383779
0.00377904
0.00377946
0.00377946
0.00378245
0.00372829
0.00372826
0.00372826
0.00373102
0.0036759
0.00367591
0.00367591
0.00367868
0.00362455
0.00362456
0.00362456
0.0036273
0.00357457
0.00357457
0.00357457
0.00357728
0.00352611
0.00352611
0.00352611
0.00352874
0.00347973
0.00347962
0.00347962
0.00348211
0.00343673
0.0034366
0.0034366
0.00343899
0.0033962
0.00339613
0.00339613
0.00339853
0.0033561
0.00335605
0.00335605
0.00335843
0.00331613
0.00331609
0.00331609
0.00331846
0.00384782
0.00384804
0.00384804
0.00384782
0.00384804
0.00384804
0.0038488
0.0038488
0.0038488
0.0038488
0.00384804
0.00384804
0.00384782
0.00384804
0.00384804
0.00384782
0.00383779
0.00378903
0.00383473
0.00383473
0.0037913
0.00379131
0.00383779
0.00378903
0.00383474
0.00383473
0.0037913
0.0037913
0.00383473
0.0037913
0.0037913
0.00383779
0.00378903
0.00383474
0.0037913
0.0037913
0.00378903
0.00378246
0.00373794
0.00377947
0.00377947
0.00374138
0.00374138
0.00378246
0.00373794
0.00377946
0.00377946
0.00374138
0.00374138
0.00377946
0.00374138
0.00374138
0.00378245
0.00373794
0.00377946
0.00374138
0.00374138
0.00373794
0.00373102
0.00368556
0.00372826
0.00372826
0.00368892
0.00368892
0.00373102
0.00368556
0.00372826
0.00372826
0.00368892
0.00368892
0.00372826
0.00368892
0.00368892
0.00373102
0.00368556
0.00372826
0.00368892
0.00368892
0.00368556
0.00367868
0.00363401
0.00367591
0.00367591
0.00363727
0.00363727
0.00367868
0.00363401
0.00367591
0.00367591
0.00363727
0.00363727
0.00367591
0.00363727
0.00363727
0.00367868
0.00363401
0.00367591
0.00363727
0.00363727
0.00363401
0.0036273
0.00358379
0.00362456
0.00362456
0.00358692
0.00358692
0.0036273
0.00358379
0.00362456
0.00362456
0.00358692
0.00358692
0.00362456
0.00358692
0.00358692
0.0036273
0.00358379
0.00362456
0.00358692
0.00358692
0.00358379
0.00357728
0.00353506
0.00357457
0.00357457
0.00353807
0.00353807
0.00357728
0.00353506
0.00357457
0.00357457
0.00353807
0.00353808
0.00357457
0.00353807
0.00353807
0.00357728
0.00353506
0.00357457
0.00353807
0.00353807
0.00353506
0.00352875
0.00348809
0.00352611
0.00352611
0.00349093
0.00349093
0.00352874
0.00348809
0.00352611
0.00352611
0.00349093
0.00349093
0.00352611
0.00349093
0.00349093
0.00352874
0.00348809
0.00352611
0.00349093
0.00349093
0.00348809
0.00348211
0.00344441
0.00347962
0.00347962
0.00344698
0.00344698
0.00348211
0.00344441
0.00347962
0.00347962
0.00344698
0.00344698
0.00347962
0.00344698
0.00344698
0.00348211
0.0034444
0.00347962
0.00344698
0.00344698
0.00344441
0.00343899
0.00340381
0.0034366
0.0034366
0.00340619
0.00340619
0.00343899
0.00340381
0.0034366
0.0034366
0.00340619
0.00340619
0.0034366
0.00340619
0.00340619
0.00343899
0.00340381
0.0034366
0.00340619
0.00340619
0.00340381
0.00339853
0.00336369
0.00339613
0.00339613
0.00336606
0.00336606
0.00339853
0.00336369
0.00339613
0.00339613
0.00336606
0.00336606
0.00339613
0.00336606
0.00336606
0.00339853
0.00336369
0.00339613
0.00336606
0.00336606
0.00336369
0.00335843
0.00332371
0.00335605
0.00335605
0.00332608
0.00332608
0.00335843
0.00332371
0.00335605
0.00335605
0.00332608
0.00332608
0.00335605
0.00332608
0.00332608
0.00335843
0.00332371
0.00335605
0.00332608
0.00332608
0.00332371
0.00331846
0.00328376
0.00331609
0.00331609
0.00328613
0.00331846
0.00331609
0.00331609
0.00328613
0.00328613
0.00331609
0.00328613
0.00331846
0.00328376
0.00331609
0.00328613
0.00328613
0.00328376
0.00385619
0.00386595
0.00386075
0.00386075
0.00388313
0.00386991
0.00389852
0.00386396
0.00388313
0.00386992
0.00386396
0.00389852
0.00387448
0.00390225
0.00390226
0.00381154
0.00383069
0.00383989
0.00380362
0.00380438
0.00380713
0.00381152
0.00383067
0.00383988
0.0038036
0.0038344
0.00383441
0.00383441
0.003791
0.003791
0.00379099
0.00379099
0.00380905
0.00383488
0.00383481
0.00381787
0.0038379
0.00380795
0.00381876
0.00380449
0.00380713
0.00380905
0.00383481
0.00383489
0.00381787
0.0038379
0.00381875
0.00380795
0.00384075
0.00384074
0.00381227
0.00380758
0.00380758
0.0037649
0.00378419
0.00378555
0.00376343
0.0037831
0.003763
0.0037649
0.00378419
0.00378555
0.00376342
0.00377904
0.00377904
0.00377904
0.00374145
0.00374145
0.00374145
0.00374145
0.00376349
0.00378427
0.00377904
0.00376717
0.00378306
0.00376403
0.0037669
0.0037831
0.00376299
0.00376349
0.00377904
0.00378427
0.00376717
0.00378305
0.0037669
0.00376403
0.00378529
0.00378529
0.00376372
0.00376436
0.00376436
0.00371265
0.00373146
0.00373253
0.00371164
0.0037311
0.00371135
0.00371265
0.00373146
0.00373253
0.00371163
0.00372829
0.00372829
0.00372829
0.0036889
0.0036889
0.0036889
0.0036889
0.00371175
0.00373185
0.00372816
0.00371512
0.00373129
0.00371212
0.00371503
0.0037311
0.00371135
0.00371175
0.00372816
0.00373185
0.00371512
0.00373129
0.00371503
0.00371211
0.0037321
0.0037321
0.00371174
0.00371219
0.00371219
0.00366015
0.00367876
0.00367961
0.00365937
0.00367855
0.00365919
0.00366015
0.00367876
0.00367961
0.00365937
0.0036759
0.0036759
0.0036759
0.00363727
0.00363727
0.00363727
0.00363727
0.00365962
0.00367916
0.00367586
0.00366296
0.00367888
0.00365981
0.00366292
0.00367855
0.00365919
0.00365962
0.00367586
0.00367916
0.00366296
0.00367888
0.00366292
0.00365981
0.0036792
0.0036792
0.00365965
0.00365975
0.00365975
0.0036089
0.00362727
0.00362791
0.00360835
0.00362713
0.00360821
0.0036089
0.00362727
0.00362791
0.00360835
0.00362455
0.00362455
0.00362455
0.00358691
0.00358691
0.00358691
0.00358691
0.00360865
0.00362762
0.00362453
0.00361193
0.00362745
0.00360875
0.0036119
0.00362713
0.00360821
0.00360865
0.00362453
0.00362762
0.00361193
0.00362745
0.0036119
0.00360875
0.00362761
0.00362761
0.00360873
0.00360865
0.00360865
0.00355925
0.00357723
0.00357767
0.00355883
0.00357711
0.00355872
0.00355925
0.00357723
0.00357767
0.00355883
0.00357457
0.00357457
0.00357457
0.00353808
0.00353808
0.00353808
0.00353808
0.00355914
0.00357751
0.00357455
0.00356232
0.0035774
0.0035592
0.0035623
0.0035771
0.00355873
0.00355914
0.00357455
0.00357751
0.00356232
0.0035774
0.0035623
0.0035592
0.0035775
0.0035775
0.00355925
0.00355911
0.00355911
0.00351102
0.00352863
0.00352888
0.00351069
0.00352851
0.00351061
0.00351102
0.00352862
0.00352888
0.00351069
0.00352611
0.00352611
0.00352611
0.00349106
0.00349106
0.00349106
0.00349106
0.00351107
0.00352887
0.00352609
0.00351421
0.00352878
0.00351105
0.00351422
0.00352851
0.00351061
0.00351107
0.00352609
0.00352887
0.00351421
0.00352878
0.00351422
0.00351105
0.00352885
0.00352885
0.00351122
0.00351095
0.00351095
0.003465
0.00348174
0.00348208
0.00346506
0.0034816
0.00346489
0.003465
0.00348175
0.00348208
0.00346507
0.00347973
0.00347973
0.00347973
0.00344712
0.00344712
0.00344712
0.00344712
0.00346533
0.00348201
0.00347965
0.00346849
0.00348206
0.00346531
0.00346853
0.0034816
0.00346489
0.00346534
0.00347965
0.00348201
0.00346849
0.00348206
0.00346853
0.00346531
0.0034819
0.0034819
0.00346564
0.00346513
0.00346514
0.00342356
0.0034387
0.00343855
0.00342356
0.00343867
0.00342358
0.00342356
0.0034387
0.00343854
0.00342355
0.00343673
0.00343673
0.00343673
0.00340626
0.00340626
0.00340626
0.00340626
0.00342377
0.0034388
0.00343665
0.00342638
0.00343882
0.0034237
0.00342642
0.00343867
0.00342358
0.00342377
0.00343665
0.00343881
0.00342638
0.00343883
0.00342642
0.0034237
0.00343881
0.00343881
0.00342397
0.00342367
0.00342366
0.00338358
0.00339849
0.00339857
0.00338353
0.0033985
0.00338354
0.00338358
0.00339848
0.00339856
0.00338353
0.0033962
0.0033962
0.0033962
0.00336611
0.00336611
0.00336611
0.00336611
0.00338365
0.0033985
0.00339615
0.00338609
0.00339856
0.00338359
0.00338611
0.00339851
0.00338354
0.00338365
0.00339615
0.0033985
0.00338609
0.00339856
0.00338611
0.00338359
0.00339854
0.00339854
0.00338373
0.00338355
0.00338355
0.00334358
0.00335853
0.00335855
0.00334358
0.00335853
0.00334358
0.00334358
0.00335853
0.00335855
0.00334358
0.0033561
0.0033561
0.0033561
0.00332612
0.00332612
0.00332612
0.00332612
0.00334364
0.0033585
0.00335607
0.00334606
0.00335851
0.00334361
0.00334607
0.00335853
0.00334358
0.00334364
0.00335607
0.0033585
0.00334606
0.00335851
0.00334607
0.00334361
0.00335854
0.00335854
0.00334369
0.00334358
0.00334358
0.00330364
0.00331859
0.00331859
0.00330364
0.00331859
0.00330364
0.00330364
0.00331859
0.00331859
0.00330364
0.00331613
0.00331613
0.00331613
0.00328617
0.00328617
0.00328617
0.00328617
0.00330369
0.00331855
0.0033161
0.0033061
0.00331855
0.00330367
0.00330611
0.00331859
0.00330364
0.00330369
0.0033161
0.00331855
0.0033061
0.00331855
0.00330611
0.00330367
0.00331859
0.00331859
0.00330374
0.00330363
0.00330363
0.00387448
0.00390224
0.00390226
0.00386662
0.00390178
0.00386659
0.0039018
0.00387134
0.0038584
0.00385841
0.00389707
0.00389708
0.00388311
0.00386991
0.0038985
0.00386396
0.00388312
0.00386991
0.00389851
0.00386396
0.00388764
0.00385869
0.00389892
0.00385349
0.00388764
0.00385867
0.00389892
0.0038535
0.00387872
0.00386744
0.00384987
0.00385026
0.00389379
0.0038624
0.00385049
0.00387872
0.00386744
0.00384987
0.00385026
0.00389379
0.0038624
0.00385049
0.00387448
0.00390224
0.00390225
0.00386658
0.00390179
0.00387134
0.00385839
0.00385842
0.00389707
0.00389707
0.00386661
0.00390179
0.00388313
0.00386992
0.00389852
0.00386396
0.00388313
0.00386992
0.00386396
0.00389852
0.00388766
0.00385868
0.00389894
0.00385351
0.00387874
0.00386744
0.00384987
0.00385027
0.0038938
0.0038624
0.0038505
0.00388766
0.00385869
0.00389893
0.0038535
0.00387874
0.00386744
0.00385027
0.00384987
0.0038624
0.0038938
0.0038505
0.00385619
0.00386595
0.00386075
0.00386075
0.00385619
0.00386596
0.00386075
0.00386075
0.00385619
0.00386595
0.00386075
0.00386075
0.00385495
0.00386404
0.00384692
0.00384692
0.00385932
0.00385932
0.00384509
0.00385495
0.00386403
0.00384692
0.00384692
0.00385932
0.00385932
0.00384509
0.00385495
0.00386404
0.00384692
0.00384692
0.00385932
0.00385932
0.0038451
0.00385495
0.00386404
0.00384692
0.00384692
0.00385932
0.00385932
0.0038451
0.00388313
0.00386992
0.00386396
0.00389851
0.00387874
0.00386744
0.00384987
0.00385027
0.00389379
0.0038624
0.0038505
0.00388766
0.00385868
0.00389893
0.00385351
0.00387874
0.00386744
0.00385027
0.00384987
0.0038624
0.00389379
0.00385049
0.00388766
0.00385868
0.00389893
0.0038535
0.00387449
0.00390226
0.00390226
0.00386656
0.00390179
0.00387134
0.0038584
0.00385841
0.00389707
0.00389708
0.00386656
0.0039018
0.00388313
0.00386992
0.00386396
0.00389852
0.00387874
0.00386744
0.00385027
0.00384988
0.0038624
0.0038938
0.0038505
0.00387874
0.00386744
0.00385027
0.00384987
0.0038624
0.0038938
0.0038505
0.00388766
0.00385868
0.00389893
0.0038535
0.00388766
0.0038587
0.00389893
0.00385351
0.00387134
0.00385841
0.00385841
0.00389707
0.00389708
0.00386657
0.00390179
0.00386659
0.0039018
0.00380438
0.00380712
0.00380448
0.0038071
0.00384071
0.00384075
0.00381229
0.00380758
0.00380758
0.00378987
0.00380678
0.00378987
0.00380679
0.00380562
0.00379248
0.00379248
0.00380574
0.00380573
0.00381154
0.00383068
0.00383989
0.00380362
0.00380907
0.00383488
0.00383481
0.00381787
0.0038379
0.00380795
0.00381876
0.00380906
0.00383488
0.00383481
0.00381787
0.0038379
0.00380796
0.00381876
0.003807
0.00379161
0.00380452
0.00379235
0.003807
0.00379161
0.00380452
0.00379235
0.00380404
0.00380356
0.00379129
0.00379104
0.00380511
0.00380398
0.00378963
0.00380403
0.00380357
0.00379129
0.00379104
0.00380512
0.00380398
0.00378963
0.0038407
0.00384075
0.00381229
0.00380758
0.00380758
0.00380453
0.00380711
0.00378987
0.00380678
0.00380562
0.00379248
0.00379248
0.00380574
0.00380573
0.00378986
0.00380679
0.00380905
0.00383488
0.00383481
0.00381787
0.0038379
0.00380795
0.00381876
0.00381153
0.00383068
0.00383987
0.00380362
0.00380905
0.00383481
0.00383488
0.00381787
0.0038379
0.00381876
0.00380795
0.00380699
0.00379161
0.00380452
0.00379235
0.00380402
0.00380356
0.00379129
0.00379104
0.00380511
0.00380398
0.00378963
0.00380699
0.0037916
0.00380453
0.00379235
0.00380403
0.00380356
0.00379104
0.00379129
0.00380398
0.00380511
0.00378963
0.00381152
0.00383068
0.00383987
0.00380361
0.00380905
0.00383481
0.00383489
0.00381787
0.0038379
0.00381876
0.00380795
0.00381153
0.0038307
0.00383987
0.00380361
0.00380402
0.00380356
0.00379129
0.00379104
0.00380511
0.00380398
0.00378963
0.00380699
0.00379161
0.00380452
0.00379235
0.00380403
0.00380356
0.00379104
0.00379129
0.00380398
0.00380511
0.00378963
0.00380699
0.00379161
0.00380451
0.00379235
0.00384074
0.00384075
0.00381227
0.00380759
0.00380758
0.00380449
0.00380711
0.00378987
0.0038068
0.00380562
0.00379248
0.00379248
0.00380574
0.00380573
0.00378987
0.00380676
0.00380905
0.00383481
0.00383488
0.00381788
0.0038379
0.00381876
0.00380795
0.00381153
0.00383069
0.00383987
0.0038036
0.00381152
0.00383069
0.00383987
0.00380361
0.00380403
0.00380356
0.00379104
0.00379129
0.00380397
0.0038051
0.00378963
0.00380402
0.00380356
0.00379104
0.00379129
0.00380397
0.00380511
0.00378963
0.00380699
0.00379161
0.00380452
0.00379235
0.00380699
0.0037916
0.00380452
0.00379235
0.00380451
0.00380711
0.00380451
0.00380711
0.00380562
0.00379248
0.00379248
0.00380573
0.00380573
0.00378988
0.00380676
0.00378986
0.00380678
0.0037831
0.003763
0.00378309
0.00376299
0.00378529
0.00378529
0.00376372
0.00376436
0.00376436
0.00373761
0.00375656
0.00373761
0.00375656
0.00375692
0.00373868
0.00373868
0.00375789
0.00375789
0.0037649
0.00378419
0.00378555
0.00376343
0.00376349
0.00378427
0.00377904
0.00376717
0.00378305
0.00376403
0.0037669
0.00376349
0.00378427
0.00377904
0.00376717
0.00378305
0.00376403
0.0037669
0.00375837
0.00373802
0.00375705
0.00373912
0.00375837
0.00373802
0.00375705
0.00373912
0.00375695
0.00375441
0.00373849
0.00374129
0.00375758
0.00375427
0.00373795
0.00375695
0.00375441
0.00373849
0.00374129
0.00375758
0.00375427
0.00373795
0.00378529
0.00378529
0.00376372
0.00376436
0.00376436
0.0037831
0.003763
0.00373761
0.00375656
0.00375692
0.00373868
0.00373868
0.00375789
0.0037579
0.00373761
0.00375656
0.00376349
0.00378426
0.00377904
0.00376717
0.00378305
0.00376402
0.0037669
0.0037649
0.00378418
0.00378555
0.00376343
0.00376349
0.00377904
0.00378426
0.00376717
0.00378305
0.0037669
0.00376402
0.00375837
0.00373802
0.00375705
0.00373912
0.00375695
0.00375441
0.00373849
0.00374129
0.00375757
0.00375427
0.00373795
0.00375837
0.00373802
0.00375705
0.00373912
0.00375695
0.00375441
0.00374129
0.00373849
0.00375427
0.00375757
0.00373795
0.0037649
0.00378419
0.00378555
0.00376343
0.00376349
0.00377904
0.00378427
0.00376717
0.00378305
0.0037669
0.00376403
0.0037649
0.00378419
0.00378555
0.00376343
0.00375695
0.00375441
0.00373849
0.00374129
0.00375758
0.00375427
0.00373795
0.00375837
0.00373802
0.00375705
0.00373912
0.00375695
0.00375441
0.00374129
0.00373849
0.00375427
0.00375757
0.00373795
0.00375837
0.00373802
0.00375705
0.00373912
0.00378528
0.00378529
0.00376372
0.00376436
0.00376436
0.0037831
0.003763
0.00373761
0.00375656
0.00375692
0.00373868
0.00373868
0.00375789
0.00375789
0.00373761
0.00375656
0.00376349
0.00377904
0.00378426
0.00376717
0.00378305
0.0037669
0.00376403
0.0037649
0.00378419
0.00378555
0.00376343
0.0037649
0.00378419
0.00378555
0.00376343
0.00375695
0.00375441
0.00374129
0.00373849
0.00375427
0.00375758
0.00373795
0.00375695
0.00375441
0.00374129
0.00373849
0.00375427
0.00375758
0.00373795
0.00375837
0.00373802
0.00375705
0.00373912
0.00375837
0.00373802
0.00375705
0.00373912
0.0037831
0.00376299
0.00378309
0.003763
0.00375692
0.00373868
0.00373868
0.00375789
0.00375789
0.00373761
0.00375656
0.00373761
0.00375656
0.0037311
0.00371135
0.0037311
0.00371135
0.0037321
0.0037321
0.00371174
0.00371219
0.00371219
0.00368508
0.0037047
0.00368508
0.0037047
0.00370478
0.00368575
0.00368575
0.00370551
0.00370551
0.00371265
0.00373146
0.00373253
0.00371163
0.00371175
0.00373185
0.00372816
0.00371512
0.00373129
0.00371212
0.00371503
0.00371175
0.00373186
0.00372816
0.00371512
0.00373129
0.00371212
0.00371503
0.00370597
0.0036853
0.00370497
0.00368619
0.00370597
0.0036853
0.00370497
0.00368619
0.00370502
0.003702
0.00368578
0.00368886
0.0037054
0.00370192
0.00368553
0.00370502
0.003702
0.00368578
0.00368886
0.0037054
0.00370192
0.00368553
0.0037321
0.0037321
0.00371174
0.00371219
0.00371219
0.0037311
0.00371135
0.00368508
0.0037047
0.00370478
0.00368575
0.00368575
0.00370551
0.00370551
0.00368508
0.0037047
0.00371175
0.00373185
0.00372816
0.00371512
0.00373129
0.00371212
0.00371503
0.00371265
0.00373146
0.00373253
0.00371163
0.00371175
0.00372816
0.00373185
0.00371512
0.00373129
0.00371503
0.00371212
0.00370597
0.0036853
0.00370497
0.00368619
0.00370502
0.003702
0.00368578
0.00368886
0.0037054
0.00370192
0.00368553
0.00370597
0.0036853
0.00370497
0.00368619
0.00370502
0.003702
0.00368886
0.00368578
0.00370192
0.0037054
0.00368553
0.00371265
0.00373146
0.00373253
0.00371164
0.00371175
0.00372816
0.00373185
0.00371512
0.00373129
0.00371503
0.00371212
0.00371265
0.00373146
0.00373253
0.00371164
0.00370502
0.003702
0.00368578
0.00368886
0.0037054
0.00370192
0.00368553
0.00370597
0.0036853
0.00370497
0.00368619
0.00370502
0.003702
0.00368886
0.00368578
0.00370192
0.0037054
0.00368553
0.00370597
0.0036853
0.00370497
0.00368619
0.0037321
0.0037321
0.00371174
0.00371219
0.00371219
0.0037311
0.00371135
0.00368508
0.0037047
0.00370478
0.00368575
0.00368575
0.00370551
0.00370551
0.00368508
0.0037047
0.00371175
0.00372816
0.00373185
0.00371512
0.00373129
0.00371503
0.00371212
0.00371265
0.00373146
0.00373253
0.00371163
0.00371265
0.00373146
0.00373253
0.00371163
0.00370502
0.003702
0.00368886
0.00368578
0.00370192
0.0037054
0.00368553
0.00370502
0.003702
0.00368886
0.00368578
0.00370192
0.0037054
0.00368553
0.00370597
0.0036853
0.00370497
0.00368619
0.00370597
0.0036853
0.00370497
0.00368619
0.0037311
0.00371135
0.0037311
0.00371135
0.00370478
0.00368575
0.00368575
0.00370551
0.00370551
0.00368508
0.0037047
0.00368508
0.0037047
0.00367855
0.00365919
0.00367855
0.00365919
0.0036792
0.0036792
0.00365966
0.00365975
0.00365975
0.00363349
0.0036527
0.00363349
0.0036527
0.00365284
0.00363398
0.00363398
0.00365325
0.00365325
0.00366015
0.00367876
0.00367961
0.00365937
0.00365962
0.00367916
0.00367586
0.00366296
0.00367888
0.00365981
0.00366292
0.00365962
0.00367916
0.00367586
0.00366296
0.00367888
0.00365981
0.00366292
0.00365361
0.00363364
0.00365287
0.0036343
0.00365361
0.00363364
0.00365287
0.0036343
0.00365303
0.00365008
0.00363407
0.00363724
0.00365324
0.00365005
0.00363394
0.00365303
0.00365008
0.00363407
0.00363724
0.00365324
0.00365005
0.00363394
0.0036792
0.0036792
0.00365965
0.00365975
0.00365976
0.00367855
0.00365919
0.00363349
0.0036527
0.00365284
0.00363398
0.00363398
0.00365325
0.00365325
0.00363349
0.0036527
0.00365962
0.00367916
0.00367586
0.00366296
0.00367888
0.00365981
0.00366292
0.00366015
0.00367876
0.00367961
0.00365937
0.00365962
0.00367586
0.00367916
0.00366296
0.00367888
0.00366292
0.00365981
0.00365361
0.00363364
0.00365287
0.0036343
0.00365303
0.00365008
0.00363407
0.00363724
0.00365324
0.00365005
0.00363394
0.00365361
0.00363364
0.00365287
0.0036343
0.00365303
0.00365008
0.00363724
0.00363407
0.00365005
0.00365324
0.00363394
0.00366015
0.00367876
0.00367961
0.00365937
0.00365962
0.00367586
0.00367916
0.00366296
0.00367888
0.00366292
0.00365981
0.00366015
0.00367876
0.00367961
0.00365937
0.00365303
0.00365008
0.00363407
0.00363724
0.00365324
0.00365005
0.00363394
0.00365361
0.00363364
0.00365287
0.0036343
0.00365303
0.00365008
0.00363724
0.00363407
0.00365005
0.00365324
0.00363394
0.00365361
0.00363364
0.00365287
0.0036343
0.0036792
0.0036792
0.00365965
0.00365975
0.00365975
0.00367855
0.00365919
0.00363349
0.0036527
0.00365284
0.00363398
0.00363398
0.00365325
0.00365325
0.00363349
0.0036527
0.00365962
0.00367586
0.00367916
0.00366296
0.00367888
0.00366292
0.00365981
0.00366015
0.00367876
0.00367961
0.00365937
0.00366015
0.00367876
0.00367961
0.00365937
0.00365303
0.00365008
0.00363724
0.00363407
0.00365005
0.00365324
0.00363394
0.00365303
0.00365008
0.00363724
0.00363407
0.00365005
0.00365324
0.00363394
0.00365361
0.00363364
0.00365287
0.0036343
0.00365361
0.00363364
0.00365287
0.0036343
0.00367855
0.00365919
0.00367855
0.00365919
0.00365284
0.00363398
0.00363398
0.00365325
0.00365325
0.00363349
0.0036527
0.00363349
0.0036527
0.00362713
0.00360821
0.00362713
0.00360821
0.00362761
0.00362761
0.00360873
0.00360865
0.00360865
0.00358332
0.0036019
0.00358332
0.0036019
0.00360212
0.00358372
0.00358372
0.00360233
0.00360233
0.0036089
0.00362727
0.00362791
0.00360835
0.00360865
0.00362762
0.00362453
0.00361193
0.00362745
0.00360875
0.0036119
0.00360865
0.00362762
0.00362453
0.00361193
0.00362745
0.00360875
0.0036119
0.00360256
0.00358345
0.00360202
0.00358392
0.00360256
0.00358345
0.00360202
0.00358392
0.00360223
0.00359938
0.00358381
0.0035869
0.00360236
0.00359935
0.00358372
0.00360223
0.00359938
0.00358381
0.0035869
0.00360236
0.00359935
0.00358372
0.00362761
0.00362761
0.00360873
0.00360865
0.00360865
0.00362713
0.00360821
0.00358333
0.00360189
0.00360212
0.00358372
0.00358372
0.00360233
0.00360233
0.00358332
0.0036019
0.00360865
0.00362762
0.00362453
0.00361193
0.00362745
0.00360875
0.0036119
0.0036089
0.00362727
0.00362791
0.00360835
0.00360865
0.00362453
0.00362762
0.00361193
0.00362745
0.0036119
0.00360875
0.00360256
0.00358345
0.00360202
0.00358392
0.00360223
0.00359938
0.00358381
0.0035869
0.00360236
0.00359935
0.00358372
0.00360256
0.00358345
0.00360202
0.00358392
0.00360223
0.00359938
0.0035869
0.00358381
0.00359935
0.00360236
0.00358372
0.0036089
0.00362727
0.00362791
0.00360835
0.00360865
0.00362453
0.00362762
0.00361193
0.00362745
0.0036119
0.00360875
0.0036089
0.00362727
0.00362791
0.00360835
0.00360223
0.00359938
0.00358381
0.0035869
0.00360235
0.00359935
0.00358372
0.00360256
0.00358345
0.00360202
0.00358392
0.00360223
0.00359938
0.0035869
0.00358381
0.00359935
0.00360236
0.00358372
0.00360256
0.00358345
0.00360202
0.00358392
0.00362761
0.00362761
0.00360873
0.00360865
0.00360865
0.00362713
0.00360821
0.00358332
0.0036019
0.00360212
0.00358372
0.00358372
0.00360233
0.00360233
0.00358332
0.0036019
0.00360865
0.00362453
0.00362762
0.00361193
0.00362745
0.0036119
0.00360875
0.0036089
0.00362727
0.00362791
0.00360835
0.0036089
0.00362727
0.00362791
0.00360835
0.00360223
0.00359938
0.0035869
0.00358381
0.00359935
0.00360236
0.00358372
0.00360223
0.00359938
0.0035869
0.00358381
0.00359935
0.00360236
0.00358372
0.00360256
0.00358345
0.00360202
0.00358392
0.00360256
0.00358345
0.00360202
0.00358392
0.00362713
0.00360821
0.00362713
0.00360821
0.00360212
0.00358372
0.00358372
0.00360233
0.00360233
0.00358332
0.0036019
0.00358332
0.0036019
0.0035771
0.00355873
0.0035771
0.00355873
0.0035775
0.0035775
0.00355925
0.00355911
0.00355911
0.00353456
0.00355264
0.00353456
0.00355264
0.00355284
0.0035349
0.0035349
0.00355302
0.00355302
0.00355925
0.00357723
0.00357767
0.00355883
0.00355914
0.00357751
0.00357455
0.00356232
0.0035774
0.0035592
0.0035623
0.00355914
0.00357752
0.00357455
0.00356232
0.0035774
0.0035592
0.0035623
0.00355316
0.00353468
0.00355273
0.00353498
0.00355316
0.00353468
0.00355273
0.00353498
0.00355294
0.00355014
0.003535
0.00353805
0.00355303
0.00355012
0.00353493
0.00355294
0.00355014
0.003535
0.00353805
0.00355302
0.00355012
0.00353493
0.0035775
0.0035775
0.00355925
0.00355911
0.00355911
0.0035771
0.00355873
0.00353456
0.00355263
0.00355284
0.0035349
0.0035349
0.00355301
0.00355302
0.00353456
0.00355263
0.00355914
0.00357751
0.00357455
0.00356232
0.0035774
0.0035592
0.0035623
0.00355925
0.00357723
0.00357767
0.00355883
0.00355914
0.00357455
0.00357751
0.00356232
0.0035774
0.0035623
0.0035592
0.00355316
0.00353468
0.00355273
0.00353498
0.00355294
0.00355014
0.003535
0.00353805
0.00355303
0.00355012
0.00353493
0.00355316
0.00353468
0.00355273
0.00353498
0.00355294
0.00355014
0.00353805
0.003535
0.00355012
0.00355303
0.00353493
0.00355925
0.00357723
0.00357767
0.00355883
0.00355914
0.00357455
0.00357751
0.00356232
0.0035774
0.0035623
0.0035592
0.00355925
0.00357723
0.00357767
0.00355883
0.00355294
0.00355014
0.003535
0.00353805
0.00355303
0.00355012
0.00353493
0.00355316
0.00353468
0.00355273
0.00353498
0.00355294
0.00355014
0.00353805
0.003535
0.00355012
0.00355303
0.00353493
0.00355316
0.00353468
0.00355273
0.00353498
0.0035775
0.0035775
0.00355925
0.00355911
0.00355911
0.0035771
0.00355873
0.00353456
0.00355264
0.00355284
0.0035349
0.0035349
0.00355302
0.00355302
0.00353456
0.00355264
0.00355914
0.00357455
0.00357751
0.00356232
0.0035774
0.0035623
0.0035592
0.00355925
0.00357723
0.00357767
0.00355883
0.00355925
0.00357723
0.00357767
0.00355883
0.00355294
0.00355014
0.00353805
0.003535
0.00355012
0.00355303
0.00353493
0.00355294
0.00355014
0.00353805
0.003535
0.00355012
0.00355303
0.00353493
0.00355316
0.00353468
0.00355273
0.00353498
0.00355316
0.00353468
0.00355273
0.00353498
0.0035771
0.00355873
0.0035771
0.00355873
0.00355284
0.0035349
0.0035349
0.00355302
0.00355302
0.00353456
0.00355264
0.00353456
0.00355264
0.00352851
0.00351061
0.00352851
0.00351061
0.00352885
0.00352885
0.00351122
0.00351095
0.00351094
0.00348734
0.0035047
0.00348735
0.0035047
0.00350504
0.00348764
0.00348765
0.00350502
0.00350502
0.00351102
0.00352862
0.00352888
0.00351069
0.00351107
0.00352887
0.00352609
0.00351421
0.00352878
0.00351105
0.00351422
0.00351107
0.00352887
0.00352609
0.00351421
0.00352878
0.00351105
0.00351422
0.00350517
0.00348747
0.00350477
0.00348789
0.00350517
0.00348747
0.00350477
0.00348789
0.0035051
0.00350245
0.00348781
0.00349096
0.00350508
0.00350248
0.00348789
0.0035051
0.00350245
0.00348781
0.00349096
0.00350508
0.00350248
0.00348789
0.00352885
0.00352885
0.00351122
0.00351094
0.00351095
0.00352851
0.00351061
0.00348735
0.00350469
0.00350504
0.00348764
0.00348766
0.00350502
0.00350502
0.00348735
0.0035047
0.00351107
0.00352887
0.00352609
0.00351421
0.00352878
0.00351105
0.00351422
0.00351102
0.00352862
0.00352888
0.00351069
0.00351107
0.00352609
0.00352887
0.00351421
0.00352878
0.00351422
0.00351105
0.00350517
0.00348747
0.00350477
0.00348789
0.0035051
0.00350245
0.00348782
0.00349096
0.00350508
0.00350248
0.00348789
0.00350517
0.00348747
0.00350477
0.00348789
0.0035051
0.00350245
0.00349096
0.00348782
0.00350248
0.00350508
0.00348789
0.00351102
0.00352862
0.00352888
0.00351069
0.00351107
0.00352609
0.00352887
0.00351421
0.00352878
0.00351422
0.00351105
0.00351102
0.00352863
0.00352888
0.00351069
0.0035051
0.00350245
0.00348782
0.00349096
0.00350508
0.00350248
0.00348789
0.00350517
0.00348747
0.00350477
0.00348789
0.0035051
0.00350245
0.00349096
0.00348782
0.00350248
0.00350508
0.00348789
0.00350517
0.00348747
0.00350477
0.00348789
0.00352885
0.00352885
0.00351122
0.00351095
0.00351095
0.00352851
0.00351061
0.00348735
0.0035047
0.00350504
0.00348765
0.00348765
0.00350502
0.00350502
0.00348735
0.0035047
0.00351107
0.00352609
0.00352887
0.00351421
0.00352878
0.00351422
0.00351105
0.00351102
0.00352863
0.00352888
0.00351069
0.00351102
0.00352863
0.00352888
0.00351069
0.0035051
0.00350245
0.00349096
0.00348782
0.00350248
0.00350508
0.00348789
0.0035051
0.00350245
0.00349096
0.00348782
0.00350248
0.00350508
0.00348789
0.00350517
0.00348747
0.00350477
0.00348789
0.00350517
0.00348747
0.00350477
0.00348789
0.00352851
0.00351061
0.00352851
0.00351061
0.00350504
0.00348764
0.00348764
0.00350502
0.00350502
0.00348735
0.0035047
0.00348735
0.0035047
0.00348159
0.00346489
0.0034816
0.00346489
0.0034819
0.0034819
0.00346564
0.00346513
0.00346514
0.00344379
0.00345946
0.00344379
0.00345946
0.00345999
0.00344394
0.00344394
0.00345968
0.00345968
0.003465
0.00348175
0.00348208
0.00346506
0.00346533
0.00348201
0.00347965
0.00346849
0.00348206
0.0034653
0.00346853
0.00346533
0.00348201
0.00347965
0.00346849
0.00348206
0.00346531
0.00346853
0.00345945
0.00344385
0.00345961
0.00344367
0.00345945
0.00344385
0.00345961
0.00344367
0.00345978
0.0034576
0.00344404
0.00344704
0.00345977
0.00345765
0.00344413
0.00345978
0.0034576
0.00344404
0.00344704
0.00345977
0.00345765
0.00344413
0.0034819
0.00348191
0.00346564
0.00346513
0.00346514
0.0034816
0.00346489
0.00344379
0.00345946
0.00345999
0.00344394
0.00344394
0.00345968
0.00345968
0.00344379
0.00345946
0.00346533
0.00348201
0.00347965
0.00346848
0.00348206
0.00346531
0.00346853
0.003465
0.00348175
0.00348208
0.00346507
0.00346533
0.00347965
0.00348201
0.00346849
0.00348206
0.00346853
0.00346531
0.00345945
0.00344385
0.00345961
0.00344365
0.00345978
0.00345759
0.00344404
0.00344704
0.00345978
0.00345765
0.00344406
0.00345945
0.00344385
0.00345961
0.00344365
0.00345978
0.00345759
0.00344704
0.00344404
0.00345765
0.00345978
0.00344405
0.003465
0.00348175
0.00348208
0.00346506
0.00346533
0.00347965
0.00348201
0.00346849
0.00348206
0.00346853
0.00346531
0.003465
0.00348175
0.00348208
0.00346506
0.00345978
0.00345759
0.00344404
0.00344704
0.00345978
0.00345765
0.00344405
0.00345945
0.00344385
0.00345961
0.00344365
0.00345978
0.00345759
0.00344704
0.00344404
0.00345765
0.00345978
0.00344406
0.00345945
0.00344385
0.00345961
0.00344365
0.0034819
0.00348191
0.00346564
0.00346514
0.00346514
0.0034816
0.00346489
0.00344379
0.00345947
0.00345999
0.00344394
0.00344394
0.00345968
0.00345968
0.0034438
0.00345947
0.00346533
0.00347965
0.00348201
0.00346849
0.00348206
0.00346853
0.00346531
0.003465
0.00348175
0.00348209
0.00346507