/*--------------------------------*- C++ -*----------------------------------*\
| =========                 |                                                 |
| \\      /  F ield         | OpenFOAM: The Open Source CFD Toolbox           |
|  \\    /   O peration     | Version:  2206                                  |
|   \\  /    A nd           | Website:  www.openfoam.com                      |
|    \\/     M anipulation  |                                                 |
\*---------------------------------------------------------------------------*/
FoamFile
{
    version     2.0;
    format      ascii;
    arch        "LSB;label=32;scalar=64";
    class       surfaceScalarField;
    location    "1";
    object      phi;
}
// * * * * * * * * * * * * * * * * * * * * * * * * * * * * * * * * * * * * * //

dimensions      [0 3 -1 0 0 0 0];

oriented        oriented;

internalField   nonuniform List<scalar> 
81717
(
1.30284e-10
1.42999e-10
-0.00105594
-1.41879e-10
-1.42697e-10
0.00105594
-0.00105663
-1.15652e-06
-1.48948e-10
3.29292e-10
0.00105663
-2.10945e-07
1.15705e-06
2.10654e-07
8.20783e-07
-1.86994e-07
-8.2086e-07
1.86647e-07
-0.0010563
-1.15123e-06
-1.48436e-10
3.26868e-10
0.0010563
-2.10936e-07
1.15176e-06
2.1065e-07
8.20608e-07
-1.89586e-07
-8.20736e-07
1.89262e-07
-0.000259871
1.18412e-06
1.15135e-06
-2.01262e-07
-2.06385e-07
0.000257943
1.37333e-10
1.48433e-10
-0.00105594
-1.45414e-10
-1.46057e-10
0.00105594
-0.00105663
-1.15651e-06
-1.55591e-10
3.27165e-10
0.00105663
-2.10942e-07
1.15705e-06
2.10654e-07
8.20785e-07
-1.86989e-07
-8.20857e-07
1.86649e-07
-0.0010563
-1.15123e-06
-1.55099e-10
3.24153e-10
0.0010563
-2.10933e-07
1.15176e-06
2.1065e-07
8.20609e-07
-1.89581e-07
-8.20732e-07
1.89264e-07
-0.000259871
1.18411e-06
1.15135e-06
-2.01258e-07
-2.06381e-07
0.000257943
1.45028e-10
1.54669e-10
-0.00105594
-1.47873e-10
-1.49594e-10
0.00105594
-0.00105663
-1.15651e-06
-1.5559e-10
3.23135e-10
0.00105663
-2.1094e-07
1.15705e-06
2.10654e-07
8.20786e-07
-1.86987e-07
-8.20855e-07
1.86649e-07
-0.0010563
-1.15123e-06
-1.52312e-10
3.21235e-10
0.0010563
-2.10932e-07
1.15176e-06
2.10649e-07
8.20609e-07
-1.8958e-07
-8.20731e-07
1.89263e-07
-0.000259871
1.18411e-06
1.15135e-06
-2.01257e-07
-2.06381e-07
0.000257943
1.39759e-10
1.49357e-10
-0.00105594
-1.45278e-10
-1.47115e-10
0.00105594
-0.00105663
-1.15651e-06
-1.54644e-10
3.2604e-10
0.00105663
-2.10938e-07
1.15705e-06
2.1065e-07
8.2078e-07
-1.86986e-07
-8.20853e-07
1.86643e-07
-0.0010563
-1.15123e-06
-1.52658e-10
3.25028e-10
0.0010563
-2.10929e-07
1.15176e-06
2.10645e-07
8.20604e-07
-1.89578e-07
-8.20728e-07
1.89258e-07
-0.000259871
1.18411e-06
1.15134e-06
-2.01256e-07
-2.06379e-07
0.000257943
1.33468e-10
1.37086e-10
-0.00105594
-1.39668e-10
-1.45958e-10
0.00105594
-0.00105663
-1.15651e-06
-1.49081e-10
3.27579e-10
0.00105663
-2.1094e-07
1.15705e-06
2.1065e-07
8.20778e-07
-1.86989e-07
-8.20857e-07
1.86641e-07
-0.0010563
-1.15123e-06
-1.4304e-10
3.29219e-10
0.0010563
-2.10932e-07
1.15176e-06
2.10644e-07
8.20602e-07
-1.89582e-07
-8.20733e-07
1.89256e-07
-0.000259871
1.18411e-06
1.15134e-06
-2.01257e-07
-2.06383e-07
0.000257943
1.51039e-10
1.18154e-10
-0.00105594
-1.25833e-10
-1.5542e-10
0.00105594
-0.00105663
-1.1565e-06
-1.53368e-10
2.97712e-10
0.00105663
-2.10932e-07
1.15705e-06
2.10659e-07
8.20774e-07
-1.86988e-07
-8.20858e-07
1.86641e-07
-0.0010563
-1.15123e-06
-1.32171e-10
3.33704e-10
0.0010563
-2.10932e-07
1.15175e-06
2.10639e-07
8.20597e-07
-1.8958e-07
-8.20731e-07
1.89252e-07
-0.000259871
1.18411e-06
1.15134e-06
-2.01255e-07
-2.06382e-07
0.000257943
1.56547e-10
1.05501e-10
-0.00105594
-1.14677e-10
-1.57335e-10
0.00105594
-0.00105663
-1.15648e-06
-1.61169e-10
2.68033e-10
0.00105663
-2.10899e-07
1.15706e-06
2.10672e-07
8.20767e-07
-1.86995e-07
-8.20864e-07
1.86634e-07
-0.0010563
-1.15123e-06
-1.23899e-10
3.38622e-10
0.0010563
-2.10937e-07
1.15175e-06
2.10639e-07
8.20599e-07
-1.89585e-07
-8.20735e-07
1.89254e-07
-0.000259871
1.18412e-06
1.15135e-06
-2.01257e-07
-2.06385e-07
0.000257943
1.45794e-10
1.36112e-10
-0.00105594
-1.36028e-10
-1.52037e-10
0.00105594
-0.00105663
-1.15651e-06
-1.55505e-10
3.21807e-10
0.00105663
-2.10939e-07
1.15705e-06
2.10653e-07
8.20781e-07
-1.86989e-07
-8.20856e-07
1.86644e-07
-0.0010563
-1.15123e-06
-1.47111e-10
3.31985e-10
0.0010563
-2.10933e-07
1.15176e-06
2.10646e-07
8.20605e-07
-1.89582e-07
-8.20732e-07
1.89259e-07
-0.000259871
1.18411e-06
1.15135e-06
-2.01257e-07
-2.06383e-07
0.000257943
1.43432e-10
1.42763e-10
-0.00105594
-1.41581e-10
-1.55204e-10
0.00105594
-0.00105663
-1.15651e-06
-1.58991e-10
3.26652e-10
0.00105663
-2.10941e-07
1.15705e-06
2.10653e-07
8.20783e-07
-1.86988e-07
-8.20854e-07
1.86646e-07
-0.0010563
-1.15123e-06
-1.65984e-10
3.30711e-10
0.0010563
-2.10932e-07
1.15176e-06
2.10648e-07
8.20608e-07
-1.89579e-07
-8.20729e-07
1.89263e-07
-0.000259871
1.18411e-06
1.15135e-06
-2.01259e-07
-2.0638e-07
0.000257943
1.47643e-10
1.48109e-10
-0.00105594
-1.45237e-10
-1.58625e-10
0.00105594
-0.00105663
-1.15651e-06
-1.62243e-10
3.23982e-10
0.00105663
-2.10941e-07
1.15705e-06
2.10656e-07
8.20786e-07
-1.86988e-07
-8.20855e-07
1.8665e-07
-0.0010563
-1.15123e-06
-1.68441e-10
3.28936e-10
0.0010563
-2.10933e-07
1.15176e-06
2.1065e-07
8.20611e-07
-1.89579e-07
-8.2073e-07
1.89266e-07
-0.000259871
1.18411e-06
1.15135e-06
-2.01261e-07
-2.0638e-07
0.000257943
1.53624e-10
1.51341e-10
-0.00105594
-1.45663e-10
-1.59567e-10
0.00105594
-0.00105663
-1.15651e-06
-1.63198e-10
3.24226e-10
0.00105663
-2.10939e-07
1.15705e-06
2.10653e-07
8.20785e-07
-1.86986e-07
-8.20852e-07
1.86648e-07
-0.0010563
-1.15123e-06
-1.71456e-10
3.29649e-10
0.0010563
-2.1093e-07
1.15176e-06
2.10648e-07
8.2061e-07
-1.89576e-07
-8.20727e-07
1.89264e-07
-0.000259871
1.18411e-06
1.15135e-06
-2.01259e-07
-2.06378e-07
0.000257943
1.43589e-10
1.44353e-10
-0.00105594
-1.42354e-10
-1.55439e-10
0.00105594
-0.00105663
-1.15651e-06
-1.60382e-10
3.26735e-10
0.00105663
-2.10937e-07
1.15705e-06
2.10651e-07
8.2078e-07
-1.86986e-07
-8.20852e-07
1.86643e-07
-0.0010563
-1.15123e-06
-1.69872e-10
3.29998e-10
0.0010563
-2.10928e-07
1.15176e-06
2.10647e-07
8.20606e-07
-1.89577e-07
-8.20728e-07
1.8926e-07
-0.000259871
1.18411e-06
1.15135e-06
-2.01258e-07
-2.06379e-07
0.000257943
1.40089e-10
1.40012e-10
-0.00105594
-1.41801e-10
-1.54339e-10
0.00105594
-0.00105663
-1.15651e-06
-1.56737e-10
3.30334e-10
0.00105663
-2.10937e-07
1.15704e-06
2.10648e-07
8.20778e-07
-1.86985e-07
-8.20851e-07
1.86641e-07
-0.0010563
-1.15123e-06
-1.66332e-10
3.32792e-10
0.0010563
-2.10928e-07
1.15176e-06
2.10643e-07
8.20604e-07
-1.89575e-07
-8.20726e-07
1.89258e-07
-0.000259871
1.1841e-06
1.15135e-06
-2.01257e-07
-2.06378e-07
0.000257943
1.33725e-10
1.34037e-10
-0.00105594
-1.38996e-10
-1.52041e-10
0.00105594
-0.00105663
-1.15651e-06
-1.43543e-10
3.35559e-10
0.00105663
-2.10943e-07
1.15704e-06
2.10645e-07
8.20775e-07
-1.8699e-07
-8.20856e-07
1.86639e-07
-0.0010563
-1.15123e-06
-1.51483e-10
3.38965e-10
0.0010563
-2.10933e-07
1.15175e-06
2.1064e-07
8.20599e-07
-1.8958e-07
-8.2073e-07
1.89254e-07
-0.000259871
1.18411e-06
1.15135e-06
-2.01261e-07
-2.06381e-07
0.000257943
1.39231e-10
1.38389e-10
-0.00105594
-1.3816e-10
-1.51391e-10
0.00105594
-0.00105663
-1.15651e-06
-1.54658e-10
3.30277e-10
0.00105663
-2.1094e-07
1.15704e-06
2.10648e-07
8.20779e-07
-1.86986e-07
-8.20852e-07
1.86642e-07
-0.0010563
-1.15123e-06
-1.60241e-10
3.35356e-10
0.0010563
-2.10932e-07
1.15176e-06
2.10644e-07
8.20604e-07
-1.89579e-07
-8.20729e-07
1.89258e-07
-0.000259871
1.18411e-06
1.15135e-06
-2.01259e-07
-2.06379e-07
0.000257943
1.29162e-10
1.3564e-10
-0.00105594
-1.3821e-10
-1.48724e-10
0.00105594
-0.00105663
-1.15651e-06
-1.53927e-10
3.34593e-10
0.00105663
-2.10942e-07
1.15704e-06
2.10648e-07
8.20778e-07
-1.86989e-07
-8.20854e-07
1.86641e-07
-0.0010563
-1.15123e-06
-1.62609e-10
3.35792e-10
0.0010563
-2.10933e-07
1.15176e-06
2.10643e-07
8.20604e-07
-1.89579e-07
-8.20729e-07
1.89259e-07
-0.000259871
1.18411e-06
1.15135e-06
-2.01259e-07
-2.06379e-07
0.000257943
1.48411e-10
1.53122e-10
-0.00105594
-1.46105e-10
-1.61071e-10
0.00105594
-0.00105663
-1.15651e-06
-1.55503e-10
3.18404e-10
0.00105663
-2.1094e-07
1.15705e-06
2.10658e-07
8.20787e-07
-1.8699e-07
-8.20857e-07
1.8665e-07
-0.0010563
-1.15123e-06
-1.86042e-10
3.29472e-10
0.0010563
-2.1093e-07
1.15176e-06
2.10652e-07
8.20614e-07
-1.89578e-07
-8.20728e-07
1.89271e-07
-0.000259871
1.18411e-06
1.15135e-06
-2.0126e-07
-2.06381e-07
0.000257943
-1.18985e-06
-1.15447e-06
0.000259886
-0.000257948
1.99339e-07
2.06878e-07
0.00105587
-1.40616e-10
-0.00105587
3.39528e-10
-1.18933e-06
2.15911e-07
-2.16215e-07
-8.20797e-07
1.86564e-07
-1.86918e-07
8.2072e-07
1.19518e-06
0.0010563
-1.2857e-10
-0.0010563
3.40171e-10
-1.19465e-06
2.18631e-07
-2.18933e-07
-8.26264e-07
1.89302e-07
-1.89663e-07
8.2618e-07
-1.15705e-06
0.000259914
-0.000257968
2.02011e-07
2.0426e-07
0.00105689
-1.4182e-10
-0.00105689
3.24553e-10
-1.15394e-06
2.13363e-07
-2.13655e-07
-8.23517e-07
1.89306e-07
-1.8967e-07
8.2344e-07
1.18991e-06
0.00105598
-1.27742e-10
-0.00105598
3.34079e-10
-1.18939e-06
2.18605e-07
-2.18907e-07
-8.23462e-07
1.89274e-07
-1.89632e-07
8.23377e-07
-1.4235e-10
-0.00105663
3.32138e-10
-1.15652e-06
2.10651e-07
-2.10949e-07
-8.2086e-07
1.86643e-07
8.2078e-07
-1.86998e-07
1.18464e-06
0.00105578
-1.32095e-10
-0.00105578
3.37086e-10
-1.18412e-06
2.13213e-07
-2.1351e-07
-8.20829e-07
1.86565e-07
-1.86922e-07
8.20744e-07
-1.15176e-06
0.000259866
-0.00025793
1.99507e-07
2.06698e-07
-1.40528e-10
-0.0010563
3.31202e-10
-1.15124e-06
2.10645e-07
-2.1094e-07
-8.20697e-07
1.89231e-07
8.2067e-07
-1.89609e-07
1.15187e-06
0.0010568
-1.33515e-10
-0.0010568
3.27821e-10
-1.15135e-06
2.1069e-07
-2.10985e-07
-8.20963e-07
1.89301e-07
-1.89656e-07
8.20886e-07
-0.000257943
2.01783e-07
2.06907e-07
1.18933e-06
1.15394e-06
-1.98814e-07
-2.06352e-07
0.000257948
-1.18986e-06
-1.15447e-06
0.000259886
-0.000257948
1.99341e-07
2.06881e-07
3.36059e-10
0.00105587
-2.16212e-07
1.18986e-06
2.15914e-07
8.20714e-07
-1.86918e-07
-8.20801e-07
1.86566e-07
-1.19465e-06
-1.35066e-10
3.36516e-10
0.0010563
-2.1893e-07
1.19518e-06
2.18633e-07
8.26183e-07
-1.89658e-07
-8.26264e-07
1.89306e-07
0.00105587
-1.52437e-10
-0.00105587
3.34238e-10
-1.18933e-06
2.15915e-07
-2.1621e-07
-8.20793e-07
1.86569e-07
-1.86911e-07
8.20724e-07
1.19518e-06
0.0010563
-1.40573e-10
-0.0010563
3.32669e-10
-1.19465e-06
2.18635e-07
-2.18928e-07
-8.2626e-07
1.89307e-07
-1.89656e-07
8.26184e-07
-2.01481e-07
-2.03735e-07
0.000257968
-1.15705e-06
0.000259914
-0.000257968
2.02013e-07
2.04263e-07
3.29855e-10
0.00105689
-2.13654e-07
1.15447e-06
2.13363e-07
8.23451e-07
-1.89666e-07
-8.23518e-07
1.89321e-07
-1.18939e-06
-1.32177e-10
3.40227e-10
0.00105598
-2.18904e-07
1.18991e-06
2.18607e-07
8.2338e-07
-1.89627e-07
-8.23461e-07
1.89278e-07
0.00105689
-1.53723e-10
-0.00105689
3.20145e-10
-1.15394e-06
2.13366e-07
-2.13651e-07
-8.23513e-07
1.89311e-07
-1.89663e-07
8.23444e-07
1.18991e-06
0.00105598
-1.40998e-10
-0.00105598
3.25789e-10
-1.18939e-06
2.18609e-07
-2.18902e-07
-8.23457e-07
1.89279e-07
-1.89623e-07
8.23381e-07
-1.38152e-10
3.32909e-10
0.00105578
-2.13507e-07
1.18464e-06
2.13216e-07
8.20748e-07
-1.86918e-07
1.8657e-07
-8.20828e-07
-1.57814e-10
-0.00105663
3.25923e-10
-1.15651e-06
2.10654e-07
-2.10943e-07
-8.20854e-07
1.86649e-07
8.20785e-07
-1.8699e-07
1.18464e-06
0.00105578
-1.49475e-10
-0.00105578
3.28699e-10
-1.18411e-06
2.13216e-07
-2.13503e-07
-8.20822e-07
1.86571e-07
-1.86913e-07
8.20749e-07
-1.98982e-07
-2.06175e-07
0.00025793
-1.15176e-06
0.000259866
-0.00025793
1.99509e-07
2.06701e-07
-1.50365e-10
3.23135e-10
0.0010568
-2.10981e-07
1.15188e-06
2.10694e-07
8.20888e-07
-1.8965e-07
1.89305e-07
-8.20959e-07
-1.58205e-10
-0.0010563
3.23572e-10
-1.15123e-06
2.10649e-07
-2.10933e-07
-8.2069e-07
1.89237e-07
8.20675e-07
-1.89599e-07
1.15188e-06
0.0010568
-1.53581e-10
-0.0010568
3.1924e-10
-1.15135e-06
2.10694e-07
-2.10977e-07
-8.20956e-07
1.89307e-07
-1.89647e-07
8.20891e-07
-0.000257943
2.01785e-07
2.06909e-07
1.18933e-06
1.15394e-06
-1.98813e-07
-2.0635e-07
0.000257948
-1.18986e-06
-1.15447e-06
0.000259886
-0.000257948
1.99342e-07
2.06882e-07
3.33369e-10
0.00105587
-2.16209e-07
1.18986e-06
2.15916e-07
8.20716e-07
-1.86914e-07
-8.20798e-07
1.86568e-07
-1.19465e-06
-1.42274e-10
3.33125e-10
0.0010563
-2.18927e-07
1.19518e-06
2.18635e-07
8.26184e-07
-1.89655e-07
-8.26261e-07
1.89307e-07
0.00105587
-1.57706e-10
-0.00105587
3.30066e-10
-1.18933e-06
2.15917e-07
-2.16208e-07
-8.20792e-07
1.86571e-07
-1.86909e-07
8.20726e-07
1.19518e-06
0.0010563
-1.47038e-10
-0.0010563
3.3066e-10
-1.19465e-06
2.18637e-07
-2.18927e-07
-8.26259e-07
1.89308e-07
-1.89654e-07
8.26186e-07
-2.01479e-07
-2.03732e-07
0.000257968
-1.15705e-06
0.000259914
-0.000257968
2.02013e-07
2.04264e-07
3.27462e-10
0.00105689
-2.13652e-07
1.15447e-06
2.13363e-07
8.23452e-07
-1.89662e-07
-8.23516e-07
1.89323e-07
-1.18938e-06
-1.39864e-10
3.36338e-10
0.00105598
-2.189e-07
1.18991e-06
2.18608e-07
8.2338e-07
-1.89623e-07
-8.23458e-07
1.89279e-07
0.00105689
-1.57652e-10
-0.00105689
3.15099e-10
-1.15394e-06
2.13368e-07
-2.13649e-07
-8.23512e-07
1.89313e-07
-1.89661e-07
8.23446e-07
1.18991e-06
0.00105598
-1.4486e-10
-0.00105598
3.25452e-10
-1.18939e-06
2.1861e-07
-2.18901e-07
-8.23457e-07
1.8928e-07
-1.89623e-07
8.23381e-07
-1.45696e-10
3.30082e-10
0.00105578
-2.13503e-07
1.18464e-06
2.13217e-07
8.20749e-07
-1.86912e-07
1.86571e-07
-8.20823e-07
-1.59394e-10
-0.00105663
3.21604e-10
-1.15651e-06
2.10655e-07
-2.10942e-07
-8.20853e-07
1.8665e-07
8.20786e-07
-1.86988e-07
1.18464e-06
0.00105578
-1.50253e-10
-0.00105578
3.30293e-10
-1.18411e-06
2.13217e-07
-2.13503e-07
-8.20822e-07
1.86572e-07
-1.86912e-07
8.20749e-07
-1.98979e-07
-2.06172e-07
0.00025793
-1.15176e-06
0.000259866
-0.00025793
1.99509e-07
2.06701e-07
-1.58066e-10
3.20146e-10
0.0010568
-2.10976e-07
1.15188e-06
2.10695e-07
8.20889e-07
-1.89644e-07
1.89306e-07
-8.20954e-07
-1.57354e-10
-0.0010563
3.20367e-10
-1.15123e-06
2.10649e-07
-2.10932e-07
-8.2069e-07
1.89238e-07
8.20675e-07
-1.89598e-07
1.15188e-06
0.0010568
-1.52211e-10
-0.0010568
3.19482e-10
-1.15135e-06
2.10695e-07
-2.10976e-07
-8.20956e-07
1.89307e-07
-1.89646e-07
8.20891e-07
-0.000257943
2.01786e-07
2.0691e-07
1.18933e-06
1.15394e-06
-1.98811e-07
-2.06348e-07
0.000257948
-1.18986e-06
-1.15447e-06
0.000259886
-0.000257948
1.9934e-07
2.0688e-07
3.29798e-10
0.00105587
-2.16207e-07
1.18986e-06
2.15917e-07
8.20718e-07
-1.86912e-07
-8.20796e-07
1.8657e-07
-1.19465e-06
-1.49754e-10
3.31367e-10
0.0010563
-2.18925e-07
1.19518e-06
2.18636e-07
8.26186e-07
-1.89653e-07
-8.26259e-07
1.89308e-07
0.00105587
-1.58453e-10
-0.00105587
3.33073e-10
-1.18932e-06
2.15914e-07
-2.16206e-07
-8.20788e-07
1.86567e-07
-1.86907e-07
8.20723e-07
1.19518e-06
0.0010563
-1.47581e-10
-0.0010563
3.3175e-10
-1.19464e-06
2.18634e-07
-2.18923e-07
-8.26256e-07
1.89305e-07
-1.89652e-07
8.26183e-07
-2.01478e-07
-2.03731e-07
0.000257968
-1.15705e-06
0.000259914
-0.000257968
2.02012e-07
2.04263e-07
3.22864e-10
0.00105689
-2.13649e-07
1.15447e-06
2.13365e-07
8.23454e-07
-1.8966e-07
-8.23514e-07
1.89324e-07
-1.18938e-06
-1.45035e-10
3.36365e-10
0.00105598
-2.18899e-07
1.18991e-06
2.18609e-07
8.23382e-07
-1.89621e-07
-8.23457e-07
1.89279e-07
0.00105689
-1.58113e-10
-0.00105689
3.18141e-10
-1.15394e-06
2.13364e-07
-2.13646e-07
-8.23508e-07
1.89309e-07
-1.89659e-07
8.23443e-07
1.18991e-06
0.00105598
-1.45619e-10
-0.00105598
3.26818e-10
-1.18938e-06
2.18608e-07
-2.18897e-07
-8.23453e-07
1.89277e-07
-1.8962e-07
8.23379e-07
-1.43007e-10
3.34283e-10
0.00105578
-2.13503e-07
1.18464e-06
2.13215e-07
8.20748e-07
-1.86913e-07
1.8657e-07
-8.20824e-07
-1.59639e-10
-0.00105663
3.2492e-10
-1.15651e-06
2.10652e-07
-2.1094e-07
-8.2085e-07
1.86647e-07
8.20784e-07
-1.86986e-07
1.18464e-06
0.00105578
-1.48942e-10
-0.00105578
3.32154e-10
-1.18411e-06
2.13215e-07
-2.135e-07
-8.20819e-07
1.86568e-07
-1.8691e-07
8.20747e-07
-1.98979e-07
-2.06171e-07
0.00025793
-1.15176e-06
0.000259866
-0.00025793
1.99508e-07
2.067e-07
-1.53376e-10
3.22577e-10
0.0010568
-2.10976e-07
1.15187e-06
2.10694e-07
8.20887e-07
-1.89645e-07
1.89304e-07
-8.20954e-07
-1.58251e-10
-0.0010563
3.23679e-10
-1.15123e-06
2.10647e-07
-2.1093e-07
-8.20686e-07
1.89235e-07
8.20673e-07
-1.89595e-07
1.15187e-06
0.0010568
-1.53675e-10
-0.0010568
3.21458e-10
-1.15134e-06
2.10692e-07
-2.10974e-07
-8.20951e-07
1.89304e-07
-1.89643e-07
8.20888e-07
-0.000257943
2.01785e-07
2.0691e-07
1.18932e-06
1.15394e-06
-1.9881e-07
-2.06346e-07
0.000257948
-1.18985e-06
-1.15447e-06
0.000259886
-0.000257948
1.99338e-07
2.06875e-07
3.34302e-10
0.00105587
-2.16205e-07
1.18985e-06
2.15911e-07
8.20712e-07
-1.8691e-07
-8.20794e-07
1.86563e-07
-1.19464e-06
-1.4512e-10
3.33797e-10
0.0010563
-2.18923e-07
1.19518e-06
2.18631e-07
8.2618e-07
-1.89651e-07
-8.26257e-07
1.89302e-07
0.00105587
-1.47307e-10
-0.00105587
3.4372e-10
-1.18933e-06
2.15907e-07
-2.1621e-07
-8.20791e-07
1.86563e-07
-1.8691e-07
8.20718e-07
1.19517e-06
0.0010563
-1.35333e-10
-0.0010563
3.38585e-10
-1.19465e-06
2.18628e-07
-2.18927e-07
-8.26259e-07
1.893e-07
-1.89655e-07
8.26178e-07
-2.01476e-07
-2.03729e-07
0.000257968
-1.15704e-06
0.000259914
-0.000257968
2.0201e-07
2.04259e-07
3.27154e-10
0.00105689
-2.13648e-07
1.15447e-06
2.13359e-07
8.23448e-07
-1.89658e-07
-8.23511e-07
1.89318e-07
-1.18938e-06
-1.41583e-10
3.38748e-10
0.00105598
-2.18897e-07
1.18991e-06
2.18604e-07
8.23376e-07
-1.8962e-07
-8.23454e-07
1.89274e-07
0.00105689
-1.43947e-10
-0.00105689
3.2437e-10
-1.15394e-06
2.1336e-07
-2.13649e-07
-8.23512e-07
1.89303e-07
-1.89663e-07
8.23437e-07
1.18991e-06
0.00105598
-1.31792e-10
-0.00105598
3.34951e-10
-1.18938e-06
2.18602e-07
-2.18902e-07
-8.23457e-07
1.89272e-07
-1.89624e-07
8.23374e-07
-1.44757e-10
3.34872e-10
0.00105578
-2.13501e-07
1.18464e-06
2.13212e-07
8.20743e-07
-1.86911e-07
1.86565e-07
-8.20822e-07
-1.4909e-10
-0.00105663
3.30744e-10
-1.15651e-06
2.10648e-07
-2.10942e-07
-8.20854e-07
1.86641e-07
8.20778e-07
-1.8699e-07
1.18463e-06
0.00105578
-1.38064e-10
-0.00105578
3.42372e-10
-1.18411e-06
2.13207e-07
-2.13506e-07
-8.20822e-07
1.86564e-07
-1.86914e-07
8.20742e-07
-1.98976e-07
-2.06169e-07
0.00025793
-1.15176e-06
0.000259866
-0.00025793
1.99506e-07
2.06696e-07
-1.51341e-10
3.23785e-10
0.0010568
-2.10975e-07
1.15187e-06
2.10689e-07
8.20883e-07
-1.89644e-07
1.893e-07
-8.20952e-07
-1.45557e-10
-0.0010563
3.30311e-10
-1.15123e-06
2.10643e-07
-2.10933e-07
-8.20691e-07
1.89229e-07
8.20667e-07
-1.896e-07
1.15187e-06
0.0010568
-1.37586e-10
-0.0010568
3.26966e-10
-1.15134e-06
2.10687e-07
-2.10978e-07
-8.20957e-07
1.89297e-07
-1.89648e-07
8.2088e-07
-0.000257943
2.01781e-07
2.06904e-07
1.18933e-06
1.15394e-06
-1.9881e-07
-2.06349e-07
0.000257948
-1.18985e-06
-1.15447e-06
0.000259886
-0.000257948
1.99338e-07
2.06873e-07
3.44896e-10
0.00105587
-2.16209e-07
1.18985e-06
2.15908e-07
8.2071e-07
-1.86913e-07
-8.20796e-07
1.86562e-07
-1.19465e-06
-1.38027e-10
3.38164e-10
0.0010563
-2.18927e-07
1.19517e-06
2.18628e-07
8.26179e-07
-1.89654e-07
-8.26259e-07
1.89301e-07
0.00105587
-1.6226e-10
-0.00105587
3.5432e-10
-1.18933e-06
2.15907e-07
-2.16211e-07
-8.20788e-07
1.86565e-07
-1.86907e-07
8.20721e-07
1.19518e-06
0.0010563
-1.58769e-10
-0.0010563
3.26018e-10
-1.19465e-06
2.18632e-07
-2.18925e-07
-8.26257e-07
1.89306e-07
-1.89652e-07
8.26183e-07
-2.01476e-07
-2.03732e-07
0.000257968
-1.15705e-06
0.000259914
-0.000257968
2.02013e-07
2.04259e-07
3.30224e-10
0.00105689
-2.13649e-07
1.15447e-06
2.13358e-07
8.23445e-07
-1.89663e-07
-8.23515e-07
1.89315e-07
-1.18939e-06
-1.30588e-10
3.46178e-10
0.00105598
-2.18902e-07
1.18991e-06
2.186e-07
8.23375e-07
-1.89623e-07
-8.23457e-07
1.89273e-07
0.00105689
-1.32877e-10
-0.00105689
3.13411e-10
-1.15394e-06
2.13361e-07
-2.13647e-07
-8.23514e-07
1.8931e-07
-1.89664e-07
8.23438e-07
1.1899e-06
0.00105598
-1.29851e-10
-0.00105598
3.39132e-10
-1.18938e-06
2.18599e-07
-2.18901e-07
-8.23455e-07
1.89271e-07
-1.89622e-07
8.23372e-07
-1.41356e-10
3.42279e-10
0.00105578
-2.13505e-07
1.18463e-06
2.13208e-07
8.20744e-07
-1.86912e-07
1.86565e-07
-8.20823e-07
-1.54277e-10
-0.00105663
3.09376e-10
-1.15651e-06
2.10654e-07
-2.10937e-07
-8.20854e-07
1.86643e-07
8.20777e-07
-1.86989e-07
1.18463e-06
0.00105578
-1.46794e-10
-0.00105578
3.50878e-10
-1.18411e-06
2.13205e-07
-2.13505e-07
-8.20819e-07
1.86564e-07
-1.86911e-07
8.20742e-07
-1.98978e-07
-2.06173e-07
0.00025793
-1.15175e-06
0.000259866
-0.00025793
1.99503e-07
2.06693e-07
-1.38903e-10
3.23758e-10
0.0010568
-2.10976e-07
1.15187e-06
2.10689e-07
8.2088e-07
-1.89648e-07
1.89297e-07
-8.20957e-07
-1.40473e-10
-0.0010563
3.3026e-10
-1.15123e-06
2.10641e-07
-2.10931e-07
-8.20689e-07
1.89227e-07
8.20665e-07
-1.89598e-07
1.15187e-06
0.0010568
-1.31584e-10
-0.0010568
3.20168e-10
-1.15134e-06
2.10686e-07
-2.10975e-07
-8.20956e-07
1.89296e-07
-1.89647e-07
8.20878e-07
-0.000257943
2.01779e-07
2.06901e-07
1.18933e-06
1.15394e-06
-1.98807e-07
-2.0635e-07
0.000257948
-1.18984e-06
-1.15447e-06
0.000259886
-0.000257948
1.99339e-07
2.06868e-07
3.61842e-10
0.00105587
-2.1621e-07
1.18985e-06
2.15905e-07
8.20713e-07
-1.86909e-07
-8.20791e-07
1.86564e-07
-1.19465e-06
-1.76657e-10
3.16448e-10
0.0010563
-2.18921e-07
1.19518e-06
2.18636e-07
8.26186e-07
-1.89646e-07
-8.26254e-07
1.89312e-07
0.00105587
-1.74588e-10
-0.00105587
3.90469e-10
-1.18934e-06
2.159e-07
-2.16217e-07
-8.20784e-07
1.86566e-07
-1.86905e-07
8.20724e-07
1.19519e-06
0.0010563
-2.92546e-10
-0.0010563
2.43162e-10
-1.19463e-06
2.1867e-07
-2.18878e-07
-8.26211e-07
1.89366e-07
-1.89577e-07
8.26217e-07
-2.01469e-07
-2.0373e-07
0.000257968
-1.15709e-06
0.000259914
-0.000257968
2.02091e-07
2.04256e-07
3.19208e-10
0.00105689
-2.13646e-07
1.15447e-06
2.13359e-07
8.23439e-07
-1.89666e-07
-8.23519e-07
1.89309e-07
-1.18938e-06
-1.2444e-10
3.51934e-10
0.00105598
-2.189e-07
1.1899e-06
2.18598e-07
8.2337e-07
-1.89621e-07
-8.23456e-07
1.89269e-07
0.00105689
-1.06043e-10
-0.00105689
3.07973e-10
-1.15394e-06
2.1336e-07
-2.13649e-07
-8.23519e-07
1.89306e-07
-1.8967e-07
8.23433e-07
1.1899e-06
0.00105598
-1.17403e-10
-0.00105598
3.46577e-10
-1.18939e-06
2.18598e-07
-2.18905e-07
-8.2346e-07
1.89268e-07
-1.89627e-07
8.2337e-07
-1.444e-10
3.56918e-10
0.00105578
-2.13504e-07
1.18463e-06
2.13205e-07
8.20741e-07
-1.86909e-07
1.86563e-07
-8.20819e-07
-1.70582e-10
-0.00105663
2.38844e-10
-1.15646e-06
2.10706e-07
-2.10883e-07
-8.20861e-07
1.86633e-07
8.20765e-07
-1.86993e-07
1.18463e-06
0.00105578
-1.42827e-10
-0.00105578
3.74543e-10
-1.18412e-06
2.13202e-07
-2.1351e-07
-8.20821e-07
1.86563e-07
-1.86914e-07
8.20741e-07
-1.98977e-07
-2.06171e-07
0.00025793
-1.15175e-06
0.000259866
-0.00025793
1.99501e-07
2.06694e-07
-1.26053e-10
3.2004e-10
0.0010568
-2.10974e-07
1.15187e-06
2.10687e-07
8.20876e-07
-1.89645e-07
1.89294e-07
-8.20954e-07
-1.26087e-10
-0.0010563
3.37367e-10
-1.15123e-06
2.10638e-07
-2.10937e-07
-8.20693e-07
1.89226e-07
8.20664e-07
-1.89603e-07
1.15187e-06
0.0010568
-1.09067e-10
-0.0010568
3.2204e-10
-1.15134e-06
2.10686e-07
-2.10978e-07
-8.2096e-07
1.89293e-07
-1.89652e-07
8.20875e-07
-0.000257943
2.0178e-07
2.06899e-07
1.18933e-06
1.15394e-06
-1.98808e-07
-2.06354e-07
0.000257948
-1.18985e-06
-1.15447e-06
0.000259886
-0.000257948
1.9934e-07
2.06875e-07
3.81985e-10
0.00105587
-2.16216e-07
1.18984e-06
2.15902e-07
8.20714e-07
-1.8691e-07
-8.2079e-07
1.86565e-07
-1.19464e-06
-2.26074e-10
2.82904e-10
0.0010563
-2.189e-07
1.19518e-06
2.18642e-07
8.2619e-07
-1.89617e-07
-8.26234e-07
1.89319e-07
0.00105587
-1.61183e-10
-0.00105587
3.52734e-10
-1.18933e-06
2.15909e-07
-2.16213e-07
-8.20789e-07
1.86567e-07
-1.86908e-07
8.20723e-07
1.19518e-06
0.0010563
-1.4772e-10
-0.0010563
3.26211e-10
-1.19465e-06
2.18633e-07
-2.18927e-07
-8.26258e-07
1.89305e-07
-1.89654e-07
8.26181e-07
-2.01426e-07
-2.03731e-07
0.000257968
-1.15705e-06
0.000259914
-0.000257968
2.02013e-07
2.04261e-07
3.16739e-10
0.00105689
-2.13648e-07
1.15447e-06
2.1336e-07
8.23437e-07
-1.89671e-07
-8.23523e-07
1.89307e-07
-1.18939e-06
-1.17437e-10
3.552e-10
0.00105598
-2.18904e-07
1.18991e-06
2.18599e-07
8.23371e-07
-1.89627e-07
-8.23461e-07
1.89269e-07
0.00105689
-1.35841e-10
-0.00105689
3.14119e-10
-1.15394e-06
2.13363e-07
-2.13649e-07
-8.23515e-07
1.89313e-07
-1.89667e-07
8.23441e-07
1.18991e-06
0.00105598
-1.31075e-10
-0.00105598
3.37862e-10
-1.18939e-06
2.18604e-07
-2.18903e-07
-8.23458e-07
1.89274e-07
-1.89625e-07
8.23376e-07
-1.38672e-10
3.72128e-10
0.00105578
-2.1351e-07
1.18463e-06
2.13204e-07
8.20741e-07
-1.86914e-07
1.86563e-07
-8.20823e-07
-1.56479e-10
-0.00105663
3.15269e-10
-1.15651e-06
2.10655e-07
-2.10939e-07
-8.20856e-07
1.86644e-07
8.2078e-07
-1.86991e-07
1.18464e-06
0.00105578
-1.44332e-10
-0.00105578
3.4753e-10
-1.18412e-06
2.13211e-07
-2.13507e-07
-8.20822e-07
1.86567e-07
-1.86914e-07
8.20746e-07
-1.98982e-07
-2.06173e-07
0.00025793
-1.15176e-06
0.000259866
-0.00025793
1.99507e-07
2.06697e-07
-1.10228e-10
3.22862e-10
0.0010568
-2.10978e-07
1.15187e-06
2.10687e-07
8.20876e-07
-1.89652e-07
1.89293e-07
-8.20961e-07
-1.47453e-10
-0.0010563
3.29763e-10
-1.15123e-06
2.10645e-07
-2.10934e-07
-8.20691e-07
1.89232e-07
8.20669e-07
-1.89601e-07
1.15187e-06
0.0010568
-1.25411e-10
-0.0010568
3.12566e-10
-1.15135e-06
2.10692e-07
-2.10978e-07
-8.20959e-07
1.89299e-07
-1.89652e-07
8.20881e-07
-0.000257943
2.01784e-07
2.06906e-07
1.18933e-06
1.15394e-06
-1.98809e-07
-2.0635e-07
0.000257948
-1.18986e-06
-1.15447e-06
0.000259886
-0.000257948
1.99341e-07
2.06879e-07
3.47094e-10
0.00105587
-2.1621e-07
1.18985e-06
2.15911e-07
8.20714e-07
-1.86911e-07
-8.20794e-07
1.86566e-07
-1.19465e-06
-1.37909e-10
3.27715e-10
0.0010563
-2.18926e-07
1.19518e-06
2.18632e-07
8.2618e-07
-1.89654e-07
-8.26261e-07
1.89304e-07
0.00105587
-1.59219e-10
-0.00105587
3.43497e-10
-1.18933e-06
2.15913e-07
-2.16212e-07
-8.20792e-07
1.86568e-07
-1.86911e-07
8.20723e-07
1.19518e-06
0.0010563
-1.14083e-10
-0.0010563
3.2396e-10
-1.19465e-06
2.18633e-07
-2.18929e-07
-8.26263e-07
1.89302e-07
-1.89659e-07
8.26179e-07
-2.01475e-07
-2.03731e-07
0.000257968
-1.15705e-06
0.000259914
-0.000257968
2.02012e-07
2.04262e-07
3.23337e-10
0.00105689
-2.13648e-07
1.15447e-06
2.13363e-07
8.23445e-07
-1.89666e-07
-8.23518e-07
1.89314e-07
-1.18939e-06
-1.37299e-10
3.46345e-10
0.00105598
-2.18901e-07
1.18991e-06
2.18604e-07
8.23377e-07
-1.89623e-07
-8.23457e-07
1.89275e-07
0.00105689
-1.47695e-10
-0.00105689
3.19161e-10
-1.15394e-06
2.13365e-07
-2.13651e-07
-8.23514e-07
1.89316e-07
-1.89667e-07
8.23445e-07
1.18991e-06
0.00105598
-1.44929e-10
-0.00105598
3.31841e-10
-1.18938e-06
2.18607e-07
-2.18902e-07
-8.23457e-07
1.89278e-07
-1.89623e-07
8.23379e-07
-1.43069e-10
3.43873e-10
0.00105578
-2.13505e-07
1.18464e-06
2.13212e-07
8.20746e-07
-1.86914e-07
1.86567e-07
-8.20823e-07
-1.5977e-10
-0.00105663
3.26677e-10
-1.15651e-06
2.10653e-07
-2.10943e-07
-8.20853e-07
1.86648e-07
8.20784e-07
-1.8699e-07
1.18464e-06
0.00105578
-1.51137e-10
-0.00105578
3.32869e-10
-1.18411e-06
2.13219e-07
-2.13501e-07
-8.20824e-07
1.86566e-07
-1.86917e-07
8.20746e-07
-1.98979e-07
-2.06172e-07
0.00025793
-1.15176e-06
0.000259866
-0.00025793
1.99508e-07
2.067e-07
-1.12967e-10
3.10789e-10
0.0010568
-2.10978e-07
1.15187e-06
2.1069e-07
8.20879e-07
-1.89652e-07
1.89297e-07
-8.20962e-07
-1.69331e-10
-0.0010563
3.30751e-10
-1.15123e-06
2.10648e-07
-2.10934e-07
-8.20687e-07
1.89237e-07
8.20674e-07
-1.89597e-07
1.15187e-06
0.0010568
-4.95509e-11
-0.0010568
2.95852e-10
-1.15135e-06
2.10689e-07
-2.10982e-07
-8.20967e-07
1.89291e-07
-1.8966e-07
8.20873e-07
-0.000257943
2.01782e-07
2.0691e-07
1.18933e-06
1.15394e-06
-1.98811e-07
-2.0635e-07
0.000257948
-1.18986e-06
-1.15447e-06
0.000259886
-0.000257948
1.99341e-07
2.0688e-07
3.4226e-10
0.00105587
-2.1621e-07
1.18986e-06
2.15913e-07
8.20715e-07
-1.86914e-07
-8.20797e-07
1.86567e-07
-1.19465e-06
-1.13666e-10
3.24178e-10
0.0010563
-2.18928e-07
1.19518e-06
2.18632e-07
8.26179e-07
-1.89657e-07
-8.26264e-07
1.89302e-07
0.00105587
-1.62765e-10
-0.00105587
3.38262e-10
-1.18933e-06
2.15915e-07
-2.1621e-07
-8.20791e-07
1.8657e-07
-1.86909e-07
8.20725e-07
1.19518e-06
0.0010563
-1.13565e-10
-0.0010563
3.21951e-10
-1.19465e-06
2.18634e-07
-2.18929e-07
-8.26263e-07
1.89304e-07
-1.89658e-07
8.26181e-07
-2.01478e-07
-2.03732e-07
0.000257968
-1.15705e-06
0.000259914
-0.000257968
2.02013e-07
2.04262e-07
3.2788e-10
0.00105689
-2.1365e-07
1.15447e-06
2.13363e-07
8.23448e-07
-1.89666e-07
-8.23518e-07
1.89317e-07
-1.18938e-06
-1.46781e-10
3.41818e-10
0.00105598
-2.189e-07
1.18991e-06
2.18606e-07
8.2338e-07
-1.89621e-07
-8.23456e-07
1.89278e-07
0.00105689
-1.53432e-10
-0.00105689
3.16726e-10
-1.15394e-06
2.13366e-07
-2.1365e-07
-8.23513e-07
1.89319e-07
-1.89664e-07
8.23447e-07
1.18991e-06
0.00105598
-1.48691e-10
-0.00105598
3.30507e-10
-1.18939e-06
2.18609e-07
-2.18902e-07
-8.23456e-07
1.8928e-07
-1.89622e-07
8.23381e-07
-1.52626e-10
3.3166e-10
0.00105578
-2.13499e-07
1.18464e-06
2.13219e-07
8.20745e-07
-1.86916e-07
1.86565e-07
-8.20824e-07
-1.61427e-10
-0.00105663
3.25197e-10
-1.15651e-06
2.10655e-07
-2.10943e-07
-8.20853e-07
1.8665e-07
8.20786e-07
-1.86989e-07
1.18464e-06
0.00105578
-1.51935e-10
-0.00105578
3.30128e-10
-1.18411e-06
2.13221e-07
-2.13501e-07
-8.20826e-07
1.86567e-07
-1.86918e-07
8.20747e-07
-1.98978e-07
-2.06171e-07
0.00025793
-1.15176e-06
0.000259866
-0.00025793
1.99509e-07
2.06701e-07
-4.62416e-11
2.951e-10
0.0010568
-2.10981e-07
1.15187e-06
2.10688e-07
8.20872e-07
-1.8966e-07
1.89289e-07
-8.20969e-07
-1.7188e-10
-0.0010563
3.29324e-10
-1.15123e-06
2.10649e-07
-2.10934e-07
-8.20687e-07
1.89239e-07
8.20676e-07
-1.89597e-07
1.15187e-06
0.0010568
-4.86509e-11
-0.0010568
2.9463e-10
-1.15135e-06
2.10689e-07
-2.10983e-07
-8.20969e-07
1.89292e-07
-1.89661e-07
8.20874e-07
-0.000257943
2.01782e-07
2.06911e-07
1.18933e-06
1.15394e-06
-1.98812e-07
-2.06349e-07
0.000257948
-1.18986e-06
-1.15447e-06
0.000259886
-0.000257948
1.99343e-07
2.06883e-07
3.38319e-10
0.00105587
-2.16209e-07
1.18986e-06
2.15916e-07
8.20718e-07
-1.86913e-07
-8.20797e-07
1.8657e-07
-1.19465e-06
-1.15644e-10
3.22742e-10
0.0010563
-2.18928e-07
1.19518e-06
2.18634e-07
8.26182e-07
-1.89657e-07
-8.26264e-07
1.89305e-07
0.00105587
-1.71137e-10
-0.00105587
3.3302e-10
-1.18932e-06