/*--------------------------------*- C++ -*----------------------------------*\
| =========                 |                                                 |
| \\      /  F ield         | OpenFOAM: The Open Source CFD Toolbox           |
|  \\    /   O peration     | Version:  2206                                  |
|   \\  /    A nd           | Website:  www.openfoam.com                      |
|    \\/     M anipulation  |                                                 |
\*---------------------------------------------------------------------------*/
FoamFile
{
    version     2.0;
    format      ascii;
    arch        "LSB;label=32;scalar=64";
    class       surfaceScalarField;
    location    "1";
    object      phi;
}
// * * * * * * * * * * * * * * * * * * * * * * * * * * * * * * * * * * * * * //

dimensions      [0 3 -1 0 0 0 0];

oriented        oriented;

internalField   nonuniform List<scalar> 
82545
(
8.02007e-06
8.03788e-06
5.62722e-07
2.77622e-07
-8.44538e-06
-8.45292e-06
4.68901e-07
4.75323e-07
-4.73316e-07
-4.72535e-07
3.08555e-06
-3.08393e-06
8.45152e-06
-4.73563e-07
1.12237e-06
2.29913e-06
6.57404e-06
-8.78344e-06
-6.1237e-06
-8.99456e-06
7.70729e-06
-8.08601e-06
8.60877e-06
-2.30185e-06
8.45092e-06
-4.74769e-07
1.1206e-06
2.3013e-06
6.57283e-06
-8.78395e-06
-6.12286e-06
-8.99134e-06
7.70539e-06
-8.08297e-06
8.60658e-06
-2.30173e-06
2.74514e-07
-8.44829e-06
-8.45584e-06
8.0216e-06
8.03914e-06
5.68873e-07
-5.67228e-07
-8.35143e-06
-8.36936e-06
8.77851e-06
8.78402e-06
-8.44294e-06
-8.45065e-06
8.01973e-06
8.03692e-06
5.57969e-07
2.78978e-07
1.12042e-06
2.32445e-06
6.57096e-06
-8.77634e-06
-6.1237e-06
-8.99193e-06
7.704e-06
-8.0833e-06
8.60441e-06
-2.32302e-06
8.44392e-06
-4.67953e-07
1.11952e-06
2.32251e-06
6.56304e-06
-8.77386e-06
-6.11504e-06
-8.99543e-06
7.70759e-06
-8.08746e-06
8.60834e-06
-2.32517e-06
8.03537e-06
8.02202e-06
5.58131e-07
2.79908e-07
1.12014e-06
2.303e-06
6.56404e-06
-8.78071e-06
-6.11421e-06
-8.99438e-06
7.70846e-06
-8.08665e-06
8.60902e-06
-2.30406e-06
8.44347e-06
-4.70964e-07
1.11819e-06
2.32295e-06
6.56251e-06
-8.77346e-06
-6.11329e-06
-8.99242e-06
7.70583e-06
-8.08436e-06
8.60633e-06
-2.32476e-06
-4.72883e-07
1.11528e-06
2.31827e-06
6.57465e-06
-8.77748e-06
-6.1229e-06
-8.99187e-06
7.70713e-06
-8.08272e-06
8.60792e-06
-2.32368e-06
8.03467e-06
8.02157e-06
5.60246e-07
2.77893e-07
-4.76904e-07
1.11432e-06
2.30126e-06
6.56696e-06
-8.78317e-06
-6.11449e-06
-8.99536e-06
7.71104e-06
-8.08625e-06
8.61197e-06
-2.30522e-06
1.35038e-06
-2.70287e-06
3.47356e-07
2.58883e-06
7.02074e-07
-2.28577e-06
1.34794e-06
-2.69995e-06
3.47872e-07
2.58869e-06
7.01955e-07
-2.2865e-06
-2.75514e-07
-5.64109e-07
-8.34986e-06
-8.36803e-06
8.77621e-06
8.78131e-06
-1.76698e-06
-7.00891e-07
-5.48074e-07
-2.58956e-06
3.32591e-06
2.27961e-06
-1.76388e-06
-7.00642e-07
-5.48335e-07
-2.5895e-06
3.32345e-06
2.27892e-06
3.20406e-10
4.71061e-06
-2.33597e-06
1.24815e-07
-1.9742e-06
1.18308e-07
-3.76256e-06
1.95301e-06
1.16544e-06
5.25801e-07
3.00442e-07
3.77296e-06
-1.59485e-06
-1.95471e-06
1.25641e-09
-4.86968e-06
1.97537e-06
2.38991e-06
-2.06664e-08
5.2381e-07
-1.20787e-07
-1.3464e-06
1.14638e-06
3.2081e-07
-2.96413e-07
1.76334e-06
-1.14729e-06
4.71206e-06
2.15393e-10
1.24662e-07
-2.33782e-06
-1.97235e-06
1.20748e-07
-3.7649e-06
1.95474e-06
1.16449e-06
5.24918e-07
2.96495e-07
3.77502e-06
-1.59218e-06
-1.95629e-06
-4.87081e-06
-1.47531e-09
1.97321e-06
-1.8091e-08
2.39192e-06
5.25247e-07
-4.70037e-07
-4.70877e-07
3.08437e-06
-3.08496e-06
-4.73337e-07
-4.74165e-07
3.08195e-06
-3.08018e-06
-4.73584e-07
-4.72944e-07
3.07129e-06
-3.07454e-06
-4.70865e-06
-5.5248e-10
-2.43417e-07
7.36027e-06
-1.89613e-06
2.28567e-06
3.76193e-06
-6.55811e-06
2.04083e-06
-2.04796e-06
5.17641e-07
2.54909e-06
1.83505e-09
4.75364e-07
-8.89817e-06
9.33303e-06
-8.98869e-06
9.20107e-06
-2.55116e-06
1.12359e-06
-8.7842e-06
-4.70325e-07
8.60779e-06
-8.08707e-06
7.7069e-06
-8.99607e-06
8.45076e-06
-6.12574e-06
6.57322e-06
-2.27854e-06
-3.7723e-06
1.8963e-06
-2.04058e-06
6.71303e-06
1.40923e-09
4.78818e-07
9.20022e-06
-8.99033e-06
9.33227e-06
-8.8997e-06
4.86829e-06
-2.1568e-09
1.8974e-06
3.6966e-07
-7.64262e-06
5.09431e-07
-1.20803e-07
-1.34675e-06
1.1469e-06
3.20647e-07
-2.96693e-07
1.7637e-06
-1.14788e-06
1.24864e-09
-4.70838e-06
7.3601e-06
-2.45068e-07
-1.89566e-06
2.54791e-06
-1.85287e-10
4.73814e-07
-8.89573e-06
9.33169e-06
-8.98722e-06
9.19954e-06
-2.54921e-06
2.28503e-06
3.76204e-06
-6.55751e-06
2.03924e-06
-2.04696e-06
5.18162e-07
1.12029e-06
-8.78376e-06
-4.72052e-07
8.60529e-06
-8.08384e-06
7.70571e-06
-8.99302e-06
8.45141e-06
-6.12372e-06
6.57221e-06
1.1066e-10
4.76678e-07
9.19852e-06
-8.98946e-06
9.33037e-06
-8.89729e-06
-2.27953e-06
-3.77217e-06
1.89804e-06
-2.03863e-06
6.71135e-06
7.76784e-10
4.86784e-06
1.89762e-06
-7.64186e-06
3.66963e-07
5.08661e-07
7.00946e-07
-2.28294e-06
1.34622e-06
-2.70084e-06
3.46687e-07
2.58993e-06
7.00624e-07
-2.28422e-06
1.34388e-06
-2.69798e-06
3.47777e-07
2.58991e-06
8.77797e-06
8.78325e-06
-5.67363e-07
-8.3515e-06
-8.36936e-06
2.27772e-06
-1.76441e-06
-5.4693e-07
-2.5904e-06
3.32455e-06
2.27649e-06
-1.76144e-06
-5.46131e-07
-2.59052e-06
3.32178e-06
1.14792e-06
3.19099e-07
-1.16633e-07
-3.20392e-07
-1.14677e-06
-2.9982e-07
1.14878e-06
3.18362e-07
-1.19201e-07
-3.20416e-07
-1.14707e-06
-2.96394e-07
5.6505e-07
8.02021e-06
8.03772e-06
-8.4454e-06
-8.4531e-06
-1.76885e-06
3.32625e-06
-5.47173e-07
-2.58953e-06
2.28025e-06
-1.76562e-06
3.32355e-06
-5.46723e-07
-2.58959e-06
2.27901e-06
1.34937e-06
3.47854e-07
-2.70313e-06
2.58994e-06
-2.28492e-06
1.34716e-06
3.48427e-07
-2.69994e-06
2.58989e-06
-2.28618e-06
-3.21937e-07
-1.14561e-06
-3.01302e-07
1.1468e-06
-1.17811e-07
-3.22499e-07
-1.14481e-06
-2.98308e-07
1.14653e-06
-1.19783e-07
-1.34957e-06
1.14709e-06
3.20788e-07
1.76796e-06
-1.14813e-06
-1.34744e-06
1.14808e-06
3.20109e-07
1.76458e-06
-1.14902e-06
-2.28515e-06
-2.70353e-06
2.58975e-06
3.48217e-07
7.01134e-07
-2.28646e-06
-2.70008e-06
2.58871e-06
3.48647e-07
7.01748e-07
8.77507e-06
8.77973e-06
-5.56483e-07
-8.34946e-06
-8.36858e-06
2.28013e-06
-5.47621e-07
-2.58981e-06
3.32654e-06
2.27844e-06
-5.48366e-07
-2.58839e-06
3.32456e-06
4.71131e-06
-2.33616e-06
1.25202e-07
-1.97464e-06
-3.76416e-06
1.95251e-06
1.16491e-06
5.25949e-07
3.77436e-06
-1.59275e-06
-1.95336e-06
-4.87031e-06
1.9757e-06
2.39058e-06
-1.85705e-08
5.23855e-07
1.07928e-09
-2.44865e-07
7.35942e-06
-1.89047e-06
-6.55778e-06
2.03798e-06
-2.04646e-06
5.18552e-07
2.548e-06
-1.15828e-09
4.7508e-07
-8.89571e-06
9.33089e-06
-8.98698e-06
9.19911e-06
-2.54881e-06
1.12147e-06
-4.67072e-07
8.44377e-06
-6.1239e-06
6.57115e-06
8.60458e-06
-8.08398e-06
7.70492e-06
-8.99328e-06
1.89829e-06
-2.0374e-06
6.71168e-06
-6.11046e-10
4.74298e-07
9.19884e-06
-8.98778e-06
9.3307e-06
-8.89723e-06
1.71611e-09
1.89262e-06
3.66068e-07
-7.64171e-06
5.1162e-07
-2.42751e-07
7.36095e-06
-1.89176e-06
2.28612e-06
-6.55967e-06
2.03945e-06
-2.04786e-06
5.17795e-07
2.54986e-06
4.75943e-07
-8.8981e-06
9.33182e-06
-8.98864e-06
9.20029e-06
-2.5528e-06
1.12079e-06
-8.7737e-06
-4.68124e-07
8.6078e-06
-8.08883e-06
-8.99707e-06
7.70685e-06
8.44224e-06
-6.11587e-06
6.56241e-06
-2.27857e-06
1.89599e-06
-2.03812e-06
6.71441e-06
4.75349e-07
9.19973e-06
-8.98968e-06
9.3319e-06
-8.90037e-06
1.89359e-06
3.69313e-07
-7.64261e-06
5.11114e-07
-2.69876e-06
2.59e-06
3.48068e-07
7.00412e-07
1.34917e-06
-2.70317e-06
2.5925e-06
3.47428e-07
6.99746e-07
-5.56637e-07
-8.36704e-06
-8.35359e-06
-5.47611e-07
-2.58962e-06
3.3228e-06
-1.76612e-06
-5.47524e-07
-2.59225e-06
3.32715e-06
-1.17426e-07
1.14475e-06
3.21838e-07
-2.99811e-07
-1.14584e-06
-5.0238e-10
-2.43225e-07
7.36079e-06
-1.89006e-06
-6.55966e-06
2.03804e-06
-2.04853e-06
5.18783e-07
2.55195e-06
7.49033e-10
4.74254e-07
-8.89693e-06
9.33021e-06
-8.98712e-06
9.19889e-06
-2.55186e-06
1.11852e-06
-4.78145e-07
8.45136e-06
-6.11424e-06
6.56411e-06
8.60941e-06
-8.08763e-06
7.70935e-06
-8.99667e-06
1.89661e-06
-2.03767e-06
6.71374e-06
7.93922e-10
4.72277e-07
9.19967e-06
-8.98835e-06
9.33127e-06
-8.89845e-06
-1.36147e-09
1.89152e-06
3.69197e-07
-7.64242e-06
5.12255e-07
4.71173e-06
-2.33754e-06
1.24926e-07
-1.9722e-06
-3.76449e-06
1.95326e-06
1.16511e-06
5.25315e-07
3.77407e-06
-1.59251e-06
-1.95521e-06
-4.87059e-06
1.97314e-06
2.3914e-06
-2.05495e-08
5.25127e-07
7.35988e-06
-2.43941e-07
-1.88986e-06
2.55117e-06
4.72282e-07
-8.89533e-06
9.33038e-06
-8.98648e-06
9.19875e-06
-2.55182e-06
2.28594e-06
-6.55895e-06
2.03776e-06
-2.04763e-06
5.18389e-07
1.11796e-06
-8.77236e-06
-4.75268e-07
8.60631e-06
-8.08538e-06
-8.99368e-06
7.70626e-06
8.44391e-06
-6.11326e-06
6.56264e-06
4.6919e-07
9.19943e-06
-8.98742e-06
9.3314e-06
-8.89681e-06
-2.27938e-06
1.89736e-06
-2.03738e-06
6.71226e-06
1.8913e-06
-7.64201e-06
3.66813e-07
5.11948e-07
4.71648e-10
1.25028e-07
-2.33319e-06
-1.97758e-06
1.95056e-06
1.16683e-06
5.27099e-07
-1.59489e-06
-1.9521e-06
-2.08423e-09
1.9781e-06
-1.82541e-08
2.38811e-06
5.22424e-07
-4.70854e-06
7.35994e-06
-2.44255e-07
-1.89723e-06
2.54499e-06
4.7109e-07
-8.89627e-06
9.33307e-06
-8.9878e-06
9.20169e-06
-2.54964e-06
3.76023e-06
-6.55773e-06
2.04307e-06
-2.04477e-06
5.16261e-07
1.12002e-06
-4.68079e-07
8.44644e-06
-6.12484e-06
6.57315e-06
8.60692e-06
-8.08602e-06
7.70602e-06
-8.99546e-06
4.75306e-07
9.20067e-06
-8.98975e-06
9.33336e-06
-8.89983e-06
-3.77085e-06
1.89636e-06
-2.04385e-06
6.71196e-06
4.86784e-06
1.89797e-06
-7.64198e-06
3.65433e-07
5.08589e-07
-2.33302e-06
1.25808e-07
-1.97765e-06
1.18431e-07
1.94736e-06
1.16714e-06
5.27298e-07
2.99781e-07
-1.5958e-06
-1.94722e-06
1.978e-06
2.3872e-06
-2.17552e-08
5.22315e-07
-2.69883e-06
2.58799e-06
3.48532e-07
7.01497e-07
1.34966e-06
-2.70385e-06
2.5896e-06
3.48253e-07
7.0138e-07
-5.59622e-07
-8.36639e-06
-8.3519e-06
-5.48834e-07
-2.58819e-06
3.3227e-06
-1.76804e-06
-5.47495e-07
-2.58972e-06
3.32679e-06
-1.17614e-07
1.14597e-06
3.21295e-07
-3.01194e-07
-1.14732e-06
-4.70883e-06
7.36183e-06
-2.42655e-07
-1.89748e-06
2.54516e-06
4.73116e-07
-8.89882e-06
9.3327e-06
-8.98934e-06
9.20166e-06
-2.55035e-06
3.76234e-06
-6.55937e-06
2.04256e-06
-2.04629e-06
5.16547e-07
1.12037e-06
-4.70822e-07
8.4536e-06
-6.11612e-06
6.56466e-06
8.61006e-06
-8.08903e-06
7.70933e-06
-8.9981e-06
4.78404e-07
9.19991e-06
-8.99188e-06
9.33156e-06
-8.9012e-06
-3.77191e-06
1.89501e-06
-2.04274e-06
6.71279e-06
4.86806e-06
1.89906e-06
-7.6425e-06
3.68175e-07
5.07983e-07
4.08909e-10
1.24942e-07
-2.3331e-06
-1.97582e-06
1.95131e-06
1.16652e-06
5.26592e-07
-1.59582e-06
-1.95352e-06
7.5105e-10
1.97709e-06
-2.03974e-08
2.38775e-06
5.22639e-07
1.25712e-07
-2.33285e-06
-1.97635e-06
1.20822e-07
1.94673e-06
1.16646e-06
5.28325e-07
2.97419e-07
-1.59473e-06
-1.94793e-06
1.97789e-06
-1.94338e-08
2.38781e-06
5.22557e-07
1.14271e-06
-1.14231e-06
1.1422e-06
-1.14251e-06
-3.39277e-08
-3.51637e-08
2.03916e-06
5.15553e-07
-1.23665e-06
-1.24897e-06
-9.90476e-07
4.58206e-08
1.21857e-06
-2.73917e-07
-9.90364e-07
4.43825e-08
1.21986e-06
-2.73881e-07
2.74122e-07
-1.29852e-06
2.73989e-07
-1.29951e-06
1.31766e-06
1.32669e-06
-5.14988e-07
-3.11841e-06
-1.80587e-06
4.35566e-07
-1.31782e-06
-4.17324e-07
6.22385e-06
4.95913e-08
1.75747e-06
-5.11841e-06
3.14894e-07
2.93575e-07
1.90971e-06
-3.39821e-06
1.29813e-06
5.37727e-07
-5.48758e-07
3.32628e-06
-7.01335e-07
-1.76723e-06
2.27988e-06
-1.21892e-06
-5.38529e-07
1.23681e-06
-6.8101e-06
4.18806e-07
-3.13115e-07
5.58396e-06
2.48485e-07
-3.11908e-06
-1.80526e-06
4.40758e-07
-1.32706e-06
-4.17618e-07
6.22826e-06
5.7366e-08
1.75475e-06
-5.1181e-06
3.16575e-07
2.89455e-07
1.90992e-06
-3.39822e-06
1.29925e-06
5.36923e-07
-5.49161e-07
3.32387e-06
-7.0111e-07
-1.76464e-06
2.27973e-06
-1.22022e-06
-5.38098e-07
1.249e-06
-6.81425e-06
4.19145e-07
-3.14557e-07
5.58377e-06
2.50178e-07
-4.63131e-08
-4.49882e-08
-2.03802e-06
9.91113e-07
3.36295e-08
2.73396e-07
9.91219e-07
3.49615e-08
2.73074e-07
5.16392e-07
3.39823e-06
1.8076e-06
-4.93793e-08
-6.81042e-06
-1.90884e-06
3.11791e-06
-5.38558e-07
3.4765e-07
-2.70295e-06
1.34963e-06
-2.28523e-06
-4.35961e-07
-1.75949e-06
-3.12127e-07
5.58403e-06
2.49455e-07
-4.1661e-07
6.22381e-06
-5.11872e-06
2.93795e-07
3.39813e-06
1.80705e-06
-5.74465e-08
-6.81431e-06
-1.90866e-06
3.11846e-06
-5.38271e-07
3.48132e-07
-2.69987e-06
1.34746e-06
-2.28634e-06
-4.40687e-07
-1.75705e-06
-3.13385e-07
5.58408e-06
2.5049e-07
-4.16829e-07
6.22836e-06
-5.11812e-06
2.89205e-07
1.53854e-07
-2.23804e-06
1.65094e-06
-7.05835e-08
5.03822e-07
-1.93943e-06
2.09341e-07
-1.47448e-09
-1.96065e-06
-2.20031e-06
3.0464e-07
4.50074e-06
2.39095e-06
-2.05614e-08
5.24381e-07
1.46923e-09
-4.87044e-06
6.06196e-07
-8.23151e-10
-7.14942e-08
5.18738e-07
-4.66651e-06
1.62673e-07
1.46152e-06
-1.00019e-06
-2.98667e-07
-1.62667e-07
-1.5954e-06
-5.24438e-07
3.01025e-07
3.77182e-06
2.52874e-06
1.37062e-06
7.17543e-08
-3.50581e-06
7.00136e-07
-7.00307e-07
-3.05357e-07
3.40053e-06
7.0522e-08
2.999e-07
-1.37077e-06
1.00152e-06
-2.52866e-06
-1.46228e-06
3.40127e-06
1.16538e-06
1.18494e-07
-3.76302e-06
-3.50586e-06
-2.0904e-07
2.19855e-06
-1.64836e-06
-2.33441e-06
1.25151e-07
2.75162e-11
4.70898e-06
1.9361e-06
-1.53998e-07
-6.77833e-10
6.08488e-07
1.96163e-06
2.23784e-06
-4.66643e-06
5.18047e-07
-1.15746e-09
4.49872e-06
5.06005e-07
-3.20404e-07
-2.97031e-07
1.76381e-06
-1.20376e-07
-1.34732e-06
-2.24032e-06
1.54755e-07
1.6546e-06
-7.13363e-08
5.02304e-07
-1.9589e-06
-2.20213e-06
3.03762e-07
4.50314e-06
-1.94308e-06
2.07047e-07
1.01613e-09
-1.78858e-08
2.39237e-06
5.26206e-07
-1.53828e-09
-4.8715e-06
-6.85997e-08
5.20688e-07
-4.66921e-06
6.04095e-07
-4.87123e-11
1.60793e-07
1.46142e-06
-1.00272e-06
-2.97685e-07
-1.61021e-07
-1.59309e-06
-5.23608e-07
2.97392e-07
3.77404e-06
2.52839e-06
1.37264e-06
6.887e-08
-3.5067e-06
7.01302e-07
-7.01479e-07
-3.04285e-07
3.40249e-06
7.10343e-08
2.98883e-07
-1.37302e-06
1.00399e-06
-2.52808e-06
-1.46185e-06
3.40343e-06
1.16466e-06
1.20681e-07
-3.76523e-06
-3.50653e-06
2.20018e-06
-2.07103e-07
-1.6518e-06
1.24616e-07
-2.33591e-06
2.97581e-10
4.71042e-06
1.95996e-06
2.23997e-06
-4.66876e-06
5.19615e-07
1.93997e-06
-1.54532e-07
-2.12059e-10
6.06691e-07
4.50117e-06
1.04126e-09
5.04671e-07
-3.19943e-07
-2.975e-07
1.76435e-06
-1.20555e-07
-1.34727e-06
-3.54473e-08
-3.70993e-08
2.04141e-06
5.13815e-07
-1.23523e-06
-1.24745e-06
-9.84405e-07
4.20716e-08
1.21911e-06
-9.84348e-07
4.13813e-08
1.21951e-06
2.78398e-07
-1.29826e-06
2.78281e-07
-1.29973e-06
1.31492e-06
1.3236e-06
-1.81258e-06
4.36142e-07
-3.11712e-06
-1.31739e-06
-4.12384e-07
6.22334e-06
4.75398e-08
1.76476e-06
3.10176e-07
-5.11801e-06
2.94688e-07
-3.3949e-06
1.90047e-06
1.29879e-06
5.42329e-07
3.32528e-06
-5.4678e-07
-7.00687e-07
-1.76726e-06
2.27938e-06
1.23326e-06
4.14546e-07
-6.80775e-06
-3.07468e-07
5.5833e-06
2.50355e-07
-1.21841e-06
-5.45018e-07
-1.81232e-06
4.40955e-07
-3.11766e-06
-1.32621e-06
-4.1246e-07
6.22769e-06
5.54733e-08
1.76259e-06
3.11245e-07
-5.11746e-06
2.90184e-07
-3.39498e-06
1.9003e-06
1.30027e-06
5.42189e-07
3.32235e-06
-5.46035e-07
-7.00273e-07
-1.76425e-06
2.27813e-06
1.24546e-06
4.14659e-07
-6.81194e-06
-3.08698e-07
5.58299e-06
2.51595e-07
-1.21898e-06
-5.44418e-07
-2.04081e-06
-4.49458e-08
-4.40235e-08
3.75463e-08
9.84948e-07
2.7629e-07
3.91592e-08
9.84716e-07
2.7639e-07
5.14608e-07
-4.91789e-08
3.39618e-06
1.81467e-06
-6.80928e-06
-1.89994e-06
3.11485e-06
-2.70175e-06
3.4706e-07
1.34775e-06
-2.28414e-06
-1.76661e-06
-4.35469e-07
5.58522e-06
2.50313e-07
-5.11817e-06
2.93145e-07
6.22234e-06
-5.68392e-08
3.39628e-06
1.81424e-06
-6.81359e-06
-1.90005e-06
3.11554e-06
-2.69896e-06
3.47934e-07
1.34559e-06
-2.28535e-06
-1.7642e-06
-4.40262e-07
5.5848e-06
2.51564e-07
-5.11767e-06
2.88964e-07
6.22676e-06
-3.20124e-07
-2.99188e-07
-1.17254e-07
-3.19816e-07
-2.96042e-07
-1.19414e-07
-2.0396e-06
-4.66836e-08
-4.53891e-08
-5.14986e-07
1.31892e-06
1.32774e-06
3.43362e-08
9.90524e-07
-1.29877e-06
3.56312e-08
9.90288e-07
-1.2998e-06
-1.23614e-06
-1.24849e-06
-2.74389e-07
1.21823e-06
-2.7442e-07
1.21932e-06
1.80967e-06
3.39636e-06
-4.78004e-08
1.23415e-06
4.16474e-07
-6.80885e-06
-4.37135e-07
-1.76157e-06
5.58415e-06
2.50988e-07
3.11855e-06
-1.9054e-06
-1.21799e-06
3.47373e-07
-2.70176e-06
7.00928e-07
1.34749e-06
-2.28356e-06
-1.31907e-06
6.22471e-06
1.29906e-06
5.3927e-07
3.11928e-07
-5.11804e-06
2.94973e-07
1.80933e-06
3.39613e-06
-5.591e-08
1.24657e-06
4.16583e-07
-6.81271e-06
-4.41711e-07
-1.75955e-06
5.58409e-06
2.51972e-07
3.11907e-06
-1.9049e-06
-1.2187e-06
3.48113e-07
-2.69863e-06
7.00639e-07
1.34508e-06
-2.28479e-06
-1.32782e-06
6.22917e-06
1.30029e-06
5.39062e-07
3.12998e-07
-5.11749e-06
2.90398e-07
2.03986e-06
-3.62757e-08
-3.78472e-08
4.67051e-08
-9.88404e-07
4.57161e-08
-9.88025e-07
-1.80828e-06
-3.11844e-06
4.37215e-07
6.22491e-06
-3.39804e-06
1.90856e-06
4.89134e-08
1.76044e-06
-5.11886e-06
2.94252e-07
-5.47625e-07
3.32619e-06
-1.7678e-06
2.28011e-06
-6.81015e-06
5.58479e-06
2.50994e-07
-1.80785e-06
-3.11898e-06
4.41681e-07
6.22948e-06
-3.39788e-06
1.90824e-06
5.70484e-08
1.75824e-06
-5.11822e-06
2.89611e-07
-5.47637e-07
3.32369e-06
-1.76461e-06
2.2791e-06
-6.81399e-06
5.58487e-06
2.51748e-07
3.20338e-07
-1.18451e-07
-3.0066e-07
3.20776e-07
-1.20502e-07
-2.97298e-07
-3.1989e-07
1.76801e-06
-1.34952e-06
-3.1928e-07
1.76476e-06
-1.34762e-06
-3.43542e-08
-3.47681e-08
2.03836e-06
-1.23637e-06
-1.24881e-06
5.15938e-07
-9.89942e-07
4.64095e-08
1.21833e-06
-9.90286e-07
4.42862e-08
1.22033e-06
-1.29869e-06
2.74386e-07
-1.29923e-06
2.74166e-07
1.31814e-06
1.32679e-06
-3.11819e-06
4.37079e-07
-1.80698e-06
-4.17456e-07
-1.31817e-06
6.22371e-06
1.75741e-06
4.89933e-08
-5.11836e-06
2.94521e-07
3.139e-07
-5.47322e-07
3.32608e-06
-7.01086e-07
2.28009e-06
1.90809e-06
-3.39809e-06
1.29868e-06
5.39533e-07
-5.39145e-07
-1.21827e-06
-3.14394e-07
5.5839e-06
2.51062e-07
1.23653e-06
-6.80988e-06
4.17271e-07
-3.11884e-06
4.41015e-07
-1.80555e-06
-4.18232e-07
-1.32695e-06
6.22855e-06
1.75593e-06
5.7522e-08
-5.11751e-06
2.88991e-07
3.14986e-07
-5.47829e-07
3.32426e-06
-7.01822e-07
2.27886e-06
1.90804e-06
-3.39778e-06
1.2994e-06
5.38984e-07
-5.38759e-07
-1.21987e-06
-3.15005e-07
5.5849e-06
2.51303e-07
1.24912e-06
-6.81309e-06
4.1816e-07
3.39797e-06
1.80749e-06
-4.89158e-08
-6.81038e-06
-1.90812e-06
3.11817e-06
3.47988e-07
-2.70365e-06
-2.28475e-06
-4.37582e-07
-1.75711e-06
5.58448e-06
2.5127e-07
6.22376e-06
-5.11866e-06
2.94583e-07
3.39766e-06
1.80654e-06
-5.76898e-08
-6.81356e-06
-1.90823e-06
3.11878e-06
3.48562e-07
-2.69982e-06
-2.28657e-06
-4.40827e-07
-1.75662e-06
5.58585e-06
2.50695e-07
6.22901e-06
-5.11753e-06
2.88384e-07
-4.61754e-08
-4.45321e-08
-2.03848e-06
9.90058e-07
3.39092e-08
2.74713e-07
9.90227e-07
3.47426e-08
2.74431e-07
5.15824e-07
1.55218e-07
-2.23934e-06
1.65178e-06
-7.1674e-08
5.0401e-07
-1.93968e-06
2.06666e-07
-1.96093e-06
-2.20036e-06
3.04709e-07
4.5019e-06
2.39163e-06
-1.82052e-08
5.24352e-07
-4.87094e-06
6.06349e-07
-6.94161e-08
5.19245e-07
-4.6683e-06
1.60555e-07
1.461e-06
-1.00137e-06
-2.98514e-07
-1.61112e-07
-1.59301e-06
-5.25168e-07
3.77366e-06
2.52835e-06
1.37238e-06
6.97069e-08
-3.50659e-06
7.01068e-07
-7.00997e-07
-3.04737e-07
3.40207e-06
7.143e-08
2.99567e-07
-1.37251e-06
1.00232e-06
-2.529e-06
-1.46078e-06
3.40289e-06
1.16539e-06
-3.76429e-06
-3.50653e-06
-2.07057e-07
2.19942e-06
-1.64947e-06
-2.33455e-06
1.25135e-07
4.70949e-06
1.93642e-06
-1.55118e-07
6.08609e-07
1.96137e-06
2.23897e-06
-4.66806e-06
5.18855e-07
4.50044e-06
5.05806e-07
-3.54861e-08
-3.33689e-08
2.03945e-06
-1.2484e-06
-1.23735e-06
5.15158e-07
-9.89034e-07
4.33514e-08
1.21988e-06
-9.88943e-07
4.44491e-08
1.2189e-06
-1.29986e-06
2.75337e-07
-1.29805e-06
2.75736e-07
1.3257e-06
1.31664e-06
-3.11813e-06
4.40793e-07
-1.808e-06
-4.16368e-07
-1.32641e-06
6.22812e-06
1.75831e-06
5.51714e-08
-5.11583e-06
2.90602e-07
3.12999e-07
-5.47365e-07
3.32246e-06
-7.00408e-07
2.27912e-06
1.90533e-06
-3.39738e-06
1.2998e-06
5.40318e-07
-5.40375e-07
-1.2198e-06
-3.12688e-07
5.58276e-06
2.51486e-07
1.24725e-06
-6.81408e-06
4.1663e-07
4.35596e-07
-3.11782e-06
-1.80776e-06
-4.16505e-07
-1.31695e-06
6.22344e-06
1.76125e-06
5.09239e-08
-5.11913e-06
2.91706e-07
3.12081e-07
3.32737e-06
-5.47319e-07
-6.99692e-07
-1.76607e-06
2.27821e-06
1.90518e-06
-3.39638e-06
1.29774e-06
5.40881e-07
-3.11339e-07
5.58706e-06
2.48492e-07
-5.41007e-07
-1.21894e-06
1.23684e-06
-6.80712e-06
4.17061e-07
3.39778e-06
-5.60827e-08
1.80852e-06
-6.81498e-06
-1.90601e-06
3.11764e-06
3.48475e-07
-2.69897e-06
-2.28686e-06
-1.75828e-06
-4.40436e-07
2.51256e-07
5.5841e-06
2.8978e-07
-5.1158e-06
6.22846e-06
-5.11324e-08
3.39715e-06
1.80874e-06
-6.80861e-06
-1.90589e-06
3.11737e-06
-2.7037e-06
3.47798e-07
1.3497e-06
-2.28574e-06
-1.76178e-06
-4.36261e-07
2.49964e-07
5.58756e-06
2.91612e-07
-5.11956e-06
6.22323e-06
-4.40517e-08
-4.5108e-08
-2.03905e-06
9.8851e-07
3.62028e-08
2.75092e-07
9.88321e-07
3.40249e-08
2.75396e-07
5.1527e-07
-3.21536e-07
-2.99784e-07
-1.17671e-07
1.54992e-07
-2.23891e-06
1.65288e-06
-7.12309e-08
5.02273e-07
-1.94243e-06
2.08762e-07
-1.95946e-06
-2.20151e-06
3.04095e-07
4.50197e-06
2.3914e-06
-2.02735e-08
5.25839e-07
-4.8707e-06
6.03914e-07
-7.08547e-08
5.19653e-07
-4.66745e-06
1.61895e-07
1.46137e-06
-1.0014e-06
-2.97834e-07
-1.62139e-07
-1.59323e-06
-5.23935e-07
3.77293e-06
2.52775e-06
1.37183e-06
7.12345e-08
-3.50625e-06
7.00548e-07
-7.00727e-07
-3.04701e-07
3.40132e-06
7.11623e-08
2.99269e-07
-1.37142e-06
1.00236e-06
-2.52811e-06
-1.46191e-06
3.40207e-06
1.1651e-06
-3.7648e-06
-3.50602e-06
-2.08921e-07
2.19985e-06
-1.6508e-06
-2.33562e-06
1.25087e-07
4.70981e-06
1.93959e-06
-1.5503e-07
6.06623e-07
1.96006e-06
2.23927e-06
-4.66766e-06
5.19014e-07
4.49995e-06
5.04604e-07
-2.23837e-06
1.54386e-07
1.64828e-06
-7.09899e-08
5.06696e-07
-1.96299e-06
-2.1983e-06
3.05321e-07
4.49982e-06
-1.93465e-06
2.06798e-07
1.32527e-09
-1.83312e-08
2.39052e-06
5.22428e-07
-1.61522e-09
-4.8706e-06
-7.00524e-08
5.17754e-07
-4.66738e-06
6.09944e-07
3.20485e-10
1.60851e-07
1.45996e-06
-9.99938e-07
-2.9971e-07
-1.60316e-07
-1.59472e-06
-5.26408e-07
3.77191e-06
2.52958e-06
1.37167e-06
7.02954e-08
-3.5053e-06
7.006e-07
-7.00641e-07
-3.05691e-07
3.40115e-06
7.15487e-08
3.0017e-07
-1.37151e-06
1.00082e-06
-2.52985e-06
-1.46026e-06
3.40129e-06
1.16621e-06
-3.7624e-06
-3.50584e-06
2.19841e-06
-2.06131e-07
-1.6459e-06
1.2554e-07
-2.33365e-06
-1.61873e-10
4.7088e-06
1.96351e-06
2.23685e-06
-4.6661e-06
5.17789e-07
1.9318e-06
-1.55141e-07
9.91234e-10
6.10468e-07
4.49951e-06
1.95253e-09
5.07355e-07
1.53862e-07
-2.23643e-06
1.64614e-06
-7.05454e-08
5.06971e-07
-1.93341e-06
2.08974e-07
-1.96382e-06
-2.19822e-06
3.06758e-07
4.49882e-06
2.3894e-06
-2.09907e-08
5.22056e-07
-4.86974e-06
6.10172e-07
-7.30637e-08
5.16727e-07
-4.6649e-06
1.61881e-07
1.4617e-06
-9.98517e-07
-3.00185e-07
-1.63003e-07
-1.59596e-06
-5.28746e-07
3.01178e-07
3.77088e-06
2.52829e-06
1.36823e-06
7.41511e-08
-3.50376e-06
7.00217e-07
-7.00147e-07
-3.05687e-07
3.39987e-06
6.97089e-08
3.00004e-07
-1.36963e-06
9.98894e-07
-2.52879e-06
-1.46019e-06
3.40025e-06
1.16717e-06
1.17948e-07
-3.76107e-06
-3.50447e-06
-2.09728e-07
2.19823e-06
-1.64455e-06
-2.33336e-06
1.25241e-07
4.70801e-06
1.93097e-06
-1.53182e-07
6.10403e-07
1.96359e-06
2.23508e-06
-4.66355e-06
5.17267e-07
4.4981e-06
5.07065e-07
-3.45923e-08
-3.36472e-08
2.0387e-06
-1.24851e-06
-1.23741e-06
5.15463e-07
-9.90112e-07
4.32239e-08
1.22086e-06
-9.89818e-07
4.53008e-08
1.21867e-06
-1.29908e-06
2.74374e-07
-1.29844e-06
2.74976e-07
1.32594e-06
1.31699e-06
-3.1182e-06
4.41063e-07
-1.80679e-06
-4.17148e-07
-1.32706e-06
6.22813e-06
1.75649e-06
5.52848e-08
-5.11544e-06
2.90825e-07
3.14008e-07
-5.48115e-07
3.32219e-06
-7.01606e-07
2.27987e-06
1.90695e-06
-3.39815e-06
1.30011e-06
5.39627e-07
-5.39074e-07
-1.22029e-06
-3.14048e-07
5.58196e-06
2.51829e-07
1.24731e-06
-6.81438e-06
4.17416e-07
4.36259e-07
-3.11794e-06
-1.80911e-06
-4.15775e-07
-1.31699e-06
6.22355e-06
1.75991e-06
5.06891e-08
-5.11966e-06
2.92802e-07
3.12403e-07
3.32681e-06
-5.4698e-07
-7.01317e-07
-1.76749e-06
2.27857e-06
1.90663e-06
-3.39723e-06
1.29862e-06
5.40229e-07
-3.12505e-07
5.58569e-06
2.49789e-07
-5.40191e-07
-1.2181e-06
1.23693e-06
-6.80833e-06
4.1575e-07
3.39816e-06
-5.60385e-08
1.8069e-06
-6.81468e-06
-1.90786e-06
3.11835e-06
3.47854e-07
-2.69882e-06
-2.2861e-06
-1.75618e-06
-4.40589e-07
2.51255e-07
5.58335e-06
2.90144e-07
-5.11524e-06
6.229e-06
-5.04447e-08
3.39805e-06
1.80911e-06
-6.8099e-06
-1.90782e-06
3.11752e-06
-2.70422e-06
3.48407e-07
1.34947e-06
-2.2847e-06
-1.75925e-06
-4.37622e-07
2.51585e-07
5.58583e-06
2.93683e-07
-5.1201e-06
6.22282e-06
-4.37078e-08
-4.61073e-08
-2.03876e-06
9.89624e-07
3.57422e-08
2.74743e-07
9.89231e-07
3.42868e-08
2.75106e-07
5.1551e-07
-3.2051e-07
-3.01004e-07
-1.1835e-07
-2.23777e-06
1.53891e-07
1.64761e-06
-7.04011e-08
5.06669e-07
-1.96182e-06
-2.19837e-06
3.0556e-07
4.49877e-06
-1.93478e-06
2.09305e-07
-1.90215e-09
-2.05503e-08
2.38996e-06
5.22884e-07
1.45829e-09
-4.86957e-06
-7.15793e-08
5.17631e-07
-4.66618e-06
6.09896e-07
-8.17302e-10
1.62143e-07
1.46015e-06
-9.99379e-07
-2.99348e-07
-1.61422e-07
-1.59569e-06
-5.2519e-07
3.77119e-06
2.52914e-06
1.37022e-06
7.19384e-08
-3.50474e-06
6.9997e-07
-6.99816e-07
-3.06084e-07
3.39949e-06
7.07834e-08
3.00056e-07
-1.37087e-06
1.00112e-06
-2.52886e-06
-1.46104e-06
3.40035e-06
1.1655e-06
-3.76256e-06
-3.5056e-06
2.19732e-06
-2.07906e-07
-1.64417e-06
1.25822e-07
-2.33308e-06
-5.66129e-10
4.7078e-06
1.96293e-06
2.2361e-06
-4.66484e-06
5.17352e-07
1.93084e-06
-1.54649e-07
3.88955e-10
6.11183e-07
4.49761e-06
-2.60713e-10
5.08064e-07
-2.23871e-06
1.5518e-07
1.64688e-06
-7.14761e-08
5.08124e-07
-1.96416e-06
-2.1967e-06
3.0653e-07
4.49888e-06
-1.93499e-06
2.05983e-07
-1.83249e-08
2.39092e-06
5.22504e-07
-4.86999e-06
-7.00549e-08
5.16405e-07
-4.66754e-06
6.10294e-07
1.60047e-07
1.46007e-06
-9.97599e-07
-3.01205e-07
-1.61263e-07
-1.59461e-06
-5.29286e-07
2.98405e-07
3.77222e-06
2.52996e-06
1.3692e-06
7.1821e-08
-3.50468e-06
7.00167e-07
-7.0002e-07
-3.05155e-07
3.40058e-06
7.04424e-08
3.01154e-07
-1.37181e-06
9.99129e-07
-2.52975e-06
-1.45821e-06
3.40059e-06
1.16562e-06
1.20595e-07
-3.76343e-06
-3.50603e-06
2.19816e-06
-2.07554e-07
-1.64375e-06
1.24873e-07
-2.33346e-06
4.70841e-06
1.96505e-06
2.23587e-06
-4.6653e-06
5.16767e-07
1.93098e-06
-1.53958e-07
6.11176e-07
4.49932e-06
5.08602e-07
-3.23382e-07
-3.23665e-07
-1.72004e-06
7.26666e-06
7.27243e-06
-3.6693e-07
7.85311e-06
1.42006e-06
-6.57352e-06
2.02023e-07
7.86009e-06
1.42294e-06
-6.56588e-06
2.02633e-07
-8.34963e-06
-8.3677e-06
-2.76799e-07
8.7759e-06
8.78095e-06
3.68809e-07
-2.00781e-07
6.12182e-06
-2.01288e-07
6.11273e-06
2.33987e-06
1.87358e-09
-2.65132e-09
-2.33733e-06
2.33731e-06
-3.9001e-10
1.70733e-09
-2.3369e-06
-4.75152e-07
-4.72404e-07
1.07631e-09
-4.30747e-09
-1.87041e-09
4.70124e-10
-2.32684e-06
-2.71087e-09
8.5014e-10
-1.17661e-09
2.25084e-09
-2.32644e-06
-1.72986e-06
7.2671e-06
7.27328e-06
-3.59496e-07
7.8529e-06
1.42703e-06
1.98319e-07
7.85991e-06
1.43e-06
1.9872e-07
-8.3503e-06
-8.36804e-06
-2.73433e-07
3.63269e-07
-1.95759e-07
-1.96256e-07
1.72523e-06
-7.85238e-06
-7.85994e-06
3.65545e-07
8.02058e-06
8.03806e-06
2.75163e-07
-8.44667e-06
-8.45436e-06
-7.26816e-06
-1.42444e-06
6.12364e-06
-7.27422e-06
-1.42743e-06
6.1151e-06
1.99339e-07
-6.57361e-06
1.99667e-07
-6.56646e-06
7.26768e-06
7.27306e-06
-1.72172e-06
-3.66765e-07
1.41997e-06
7.85154e-06
2.00822e-07
1.42167e-06
7.85957e-06
2.02209e-07
-8.34965e-06
-8.36842e-06
-2.81013e-07
-2.01792e-07
-2.03003e-07
3.66431e-07
7.26721e-06
7.27321e-06
-1.7252e-06
-3.63671e-07
1.42424e-06
7.85757e-06
2.0077e-07
1.42391e-06
7.85376e-06
1.99264e-07
-8.35314e-06
-8.36576e-06
-2.80271e-07
-1.98651e-07
-2.00584e-07
3.64923e-07
7.26768e-06
7.27248e-06
-1.72337e-06
-3.65116e-07
1.42318e-06
7.85781e-06
2.00749e-07
1.42005e-06
7.85383e-06
2.00864e-07
-8.35233e-06
-8.36568e-06
-2.7915e-07
-2.01766e-07
-2.01342e-07
3.65565e-07
1.72182e-06
-7.85317e-06
-7.8603e-06
8.02039e-06
8.03801e-06
-8.44584e-06
-8.45347e-06
-7.26721e-06
-1.42147e-06
-1.99482e-07
6.12234e-06
-7.27279e-06
-1.42445e-06
-1.99847e-07
6.11315e-06
-3.66009e-07
-6.57375e-06
-6.56614e-06
2.33745e-06
1.8663e-09
-2.33608e-06
2.33366e-06
2.53331e-09
2.93703e-09
-2.33465e-06
-4.69101e-07
-4.72197e-07
6.2114e-10
3.80089e-09
3.87463e-10
-2.32678e-06
7.83136e-10
2.58247e-09
-2.32613e-06
2.33898e-06
-1.87753e-09
-2.33645e-06
2.33392e-06
-4.17747e-10
-2.49655e-10
-2.33361e-06
-4.72265e-07
-4.76924e-07
-4.5481e-09
8.64574e-10
-3.39759e-09
-2.32714e-06
-3.05522e-09
-1.76814e-09
-2.32542e-06
2.33237e-06
1.2018e-09
-2.33313e-06
2.33428e-06
-6.60426e-10
-2.3337e-06
-4.7099e-07
-4.70878e-07
2.26992e-09
9.44004e-10
-2.32567e-06
-2.32432e-06
7.56451e-06
-2.866e-07
1.22713e-06
4.85089e-07
2.10088e-07
-1.90937e-06
7.2906e-06
-6.01493e-07
-1.24359e-06
-2.24464e-07
-6.06052e-10
3.69457e-07
-7.6434e-06
5.0883e-07
-1.60702e-09
8.36142e-07
5.21072e-07
1.59412e-07
-7.35291e-10
-3.9522e-07
-6.08719e-07
-7.21097e-06
-1.32364e-06
-2.45424e-07
3.94199e-07
1.56523e-06
-2.92985e-07
1.6864e-07
6.712e-06
1.89641e-06
-5.17464e-07
1.97913e-06
-7.23171e-06
-8.36548e-07
5.35858e-07
-1.6901e-07
-5.35532e-07
6.0126e-07
-4.84676e-07
2.45106e-07
2.93349e-07
7.23182e-06
1.32228e-06
-1.97898e-06
7.21227e-06
-6.55857e-06
-2.04762e-06
-1.56428e-06
6.10201e-07
-7.289e-06
2.23601e-07
-1.22849e-06
-2.42745e-07
7.35908e-06
-1.29766e-09
1.90991e-06
-7.56418e-06
5.21279e-07
1.24467e-06
2.86267e-07
-6.95994e-10
1.60169e-07
-1.92964e-09
2.09997e-07
-2.84378e-07
7.56276e-06
1.22652e-06
4.83187e-07
2.10434e-07
-1.24449e-06
-2.26096e-07
1.85415e-09
-1.90705e-06
7.28857e-06
-6.03505e-07
-7.64193e-06
3.66202e-07
5.08492e-07
1.99256e-09
1.58625e-07
9.51218e-10
8.34126e-07
5.21612e-07
-3.96938e-07
-6.10262e-07
-7.20812e-06
-1.32204e-06
-2.46421e-07
3.95503e-07
1.5631e-06
-2.91751e-07
1.69319e-07
6.70985e-06
1.89745e-06
-5.18301e-07
1.97777e-06
-7.23036e-06
-8.34965e-07
5.35855e-07
-1.70489e-07
-5.36067e-07
6.02656e-07
-4.83066e-07
2.45499e-07
2.91067e-07
7.23051e-06
1.32049e-06
-1.97685e-06
7.2098e-06
-6.55808e-06
-2.04612e-06
-1.5619e-06
6.12349e-07
2.25067e-07
-7.28641e-06
-1.22845e-06
7.35785e-06
-2.44025e-07
8.61075e-11
1.24625e-06
2.83992e-07
1.06893e-09
1.58523e-07