/*--------------------------------*- C++ -*----------------------------------*\
| =========                 |                                                 |
| \\      /  F ield         | OpenFOAM: The Open Source CFD Toolbox           |
|  \\    /   O peration     | Version:  2206                                  |
|   \\  /    A nd           | Website:  www.openfoam.com                      |
|    \\/     M anipulation  |                                                 |
\*---------------------------------------------------------------------------*/
FoamFile
{
    version     2.0;
    format      ascii;
    arch        "LSB;label=32;scalar=64";
    class       volScalarField;
    location    "26";
    object      k;
}
// * * * * * * * * * * * * * * * * * * * * * * * * * * * * * * * * * * * * * //

dimensions      [0 2 -2 0 0 0 0];

internalField   nonuniform List<scalar> 
28688
(
3.58932e-05
3.58914e-05
3.58914e-05
3.59956e-05
3.39308e-05
3.38902e-05
3.38902e-05
3.39626e-05
3.21669e-05
3.20137e-05
3.20136e-05
3.19539e-05
3.0523e-05
3.0217e-05
3.02169e-05
2.9986e-05
2.90389e-05
2.85728e-05
2.85727e-05
2.81488e-05
2.75652e-05
2.69178e-05
2.69177e-05
2.633e-05
2.70695e-05
2.65177e-05
2.65176e-05
2.58781e-05
2.70224e-05
2.65368e-05
2.65367e-05
2.59899e-05
2.70218e-05
2.65427e-05
2.65426e-05
2.60041e-05
2.70219e-05
2.65435e-05
2.65434e-05
2.60055e-05
2.70219e-05
2.65437e-05
2.65436e-05
2.60057e-05
2.70219e-05
2.65438e-05
2.65437e-05
2.60058e-05
3.63068e-05
3.62909e-05
3.62909e-05
3.63068e-05
3.62909e-05
3.62909e-05
3.64234e-05
3.64234e-05
3.64234e-05
3.64234e-05
3.62909e-05
3.62909e-05
3.63068e-05
3.62909e-05
3.62909e-05
3.63068e-05
3.59956e-05
3.42688e-05
3.58914e-05
3.58914e-05
3.4378e-05
3.4378e-05
3.59956e-05
3.42688e-05
3.58914e-05
3.58914e-05
3.43781e-05
3.4378e-05
3.58914e-05
3.43781e-05
3.4378e-05
3.59956e-05
3.42688e-05
3.58914e-05
3.43781e-05
3.4378e-05
3.42688e-05
3.39626e-05
3.22625e-05
3.38901e-05
3.38901e-05
3.24685e-05
3.24684e-05
3.39626e-05
3.22626e-05
3.38901e-05
3.38901e-05
3.24686e-05
3.24684e-05
3.38901e-05
3.24687e-05
3.24685e-05
3.39626e-05
3.22625e-05
3.38901e-05
3.24687e-05
3.24686e-05
3.22625e-05
3.1954e-05
3.02901e-05
3.20135e-05
3.20134e-05
3.06518e-05
3.06516e-05
3.1954e-05
3.02903e-05
3.20136e-05
3.20134e-05
3.06519e-05
3.06516e-05
3.20135e-05
3.06521e-05
3.06518e-05
3.19539e-05
3.02901e-05
3.20136e-05
3.0652e-05
3.06519e-05
3.02901e-05
2.99861e-05
2.84341e-05
3.02167e-05
3.02166e-05
2.90005e-05
2.90003e-05
2.99861e-05
2.84343e-05
3.02168e-05
3.02165e-05
2.90007e-05
2.90002e-05
3.02167e-05
2.90009e-05
2.90004e-05
2.9986e-05
2.8434e-05
3.02168e-05
2.90008e-05
2.90007e-05
2.8434e-05
2.81489e-05
2.65596e-05
2.85724e-05
2.85722e-05
2.72419e-05
2.72416e-05
2.8149e-05
2.65598e-05
2.85726e-05
2.85721e-05
2.72421e-05
2.72415e-05
2.85723e-05
2.72424e-05
2.72418e-05
2.81488e-05
2.65594e-05
2.85726e-05
2.72423e-05
2.72421e-05
2.65594e-05
2.63301e-05
2.58765e-05
2.69173e-05
2.6917e-05
2.65283e-05
2.65281e-05
2.63302e-05
2.58766e-05
2.69176e-05
2.69169e-05
2.65286e-05
2.6528e-05
2.69172e-05
2.65287e-05
2.65282e-05
2.633e-05
2.58763e-05
2.69176e-05
2.65286e-05
2.65286e-05
2.58764e-05
2.58783e-05
2.59909e-05
2.65174e-05
2.65172e-05
2.65315e-05
2.65314e-05
2.58784e-05
2.59909e-05
2.65176e-05
2.65171e-05
2.65317e-05
2.65312e-05
2.65173e-05
2.65319e-05
2.65314e-05
2.58781e-05
2.59907e-05
2.65176e-05
2.65318e-05
2.65318e-05
2.59909e-05
2.59901e-05
2.60073e-05
2.65366e-05
2.65365e-05
2.65419e-05
2.65419e-05
2.59901e-05
2.60073e-05
2.65369e-05
2.65363e-05
2.65422e-05
2.65416e-05
2.65366e-05
2.65423e-05
2.6542e-05
2.59899e-05
2.6007e-05
2.65369e-05
2.65422e-05
2.65423e-05
2.60074e-05
2.60043e-05
2.6009e-05
2.65425e-05
2.65424e-05
2.6543e-05
2.65429e-05
2.60043e-05
2.6009e-05
2.65428e-05
2.65422e-05
2.65433e-05
2.65427e-05
2.65425e-05
2.65434e-05
2.6543e-05
2.6004e-05
2.60088e-05
2.65428e-05
2.65433e-05
2.65434e-05
2.60091e-05
2.60057e-05
2.60093e-05
2.65432e-05
2.65431e-05
2.65433e-05
2.65433e-05
2.60057e-05
2.60092e-05
2.65435e-05
2.65429e-05
2.65437e-05
2.6543e-05
2.65432e-05
2.65437e-05
2.65434e-05
2.60054e-05
2.6009e-05
2.65435e-05
2.65436e-05
2.65437e-05
2.60093e-05
2.60059e-05
2.60093e-05
2.65435e-05
2.65435e-05
2.65436e-05
2.65435e-05
2.60058e-05
2.60093e-05
2.65438e-05
2.65432e-05
2.65439e-05
2.65433e-05
2.65436e-05
2.65438e-05
2.65436e-05
2.60056e-05
2.6009e-05
2.65439e-05
2.65437e-05
2.65439e-05
2.60094e-05
2.60059e-05
2.60096e-05
2.65437e-05
2.65437e-05
2.65437e-05
2.60059e-05
2.6544e-05
2.65434e-05
2.6544e-05
2.65434e-05
2.65438e-05
2.65437e-05
2.60056e-05
2.60092e-05
2.65441e-05
2.65439e-05
2.65441e-05
2.60096e-05
3.73773e-05
3.73765e-05
3.7377e-05
3.7377e-05
3.73701e-05
3.73777e-05
3.73043e-05
3.73768e-05
3.73701e-05
3.73777e-05
3.73768e-05
3.73043e-05
3.73741e-05
3.72959e-05
3.72959e-05
3.58819e-05
4.08826e-05
3.66029e-05
4.51332e-05
5.5115e-05
6.48729e-05
3.5882e-05
4.08818e-05
3.66032e-05
4.51328e-05
3.58932e-05
3.58933e-05
3.58933e-05
3.44033e-05
3.44032e-05
3.44033e-05
3.44032e-05
3.52763e-05
3.56326e-05
3.58929e-05
3.53765e-05
3.60476e-05
3.42469e-05
3.53812e-05
5.51171e-05
6.48762e-05
3.52762e-05
3.58929e-05
3.56323e-05
3.53765e-05
3.60475e-05
3.53812e-05
3.42478e-05
3.65916e-05
3.6592e-05
3.5279e-05
3.40773e-05
3.40766e-05
3.39733e-05
5.13608e-05
3.46733e-05
5.46126e-05
7.65655e-05
8.08397e-05
3.39752e-05
5.13618e-05
3.46734e-05
5.46129e-05
3.39308e-05
3.39308e-05
3.39308e-05
3.25878e-05
3.25878e-05
3.25878e-05
3.25878e-05
3.30552e-05
3.24596e-05
3.39305e-05
3.34069e-05
3.38948e-05
3.15922e-05
3.3465e-05
7.65676e-05
8.0843e-05
3.30551e-05
3.39305e-05
3.24583e-05
3.34069e-05
3.38945e-05
3.3465e-05
3.15944e-05
3.16973e-05
3.16966e-05
3.32631e-05
3.09397e-05
3.09383e-05
3.2273e-05
5.91845e-05
3.29063e-05
6.14274e-05
8.43943e-05
8.50646e-05
3.22763e-05
5.91864e-05
3.29044e-05
6.14292e-05
3.21669e-05
3.21669e-05
3.21669e-05
3.09105e-05
3.09105e-05
3.09105e-05
3.09105e-05
3.07978e-05
3.05066e-05
3.21444e-05
3.15597e-05
3.16317e-05
2.99003e-05
3.17151e-05
8.4397e-05
8.50668e-05
3.07979e-05
3.21443e-05
3.05052e-05
3.15596e-05
3.16312e-05
3.17151e-05
2.99019e-05
3.02174e-05
3.02163e-05
3.12742e-05
3.0017e-05
3.00157e-05
3.07645e-05
6.43656e-05
3.13374e-05
6.57111e-05
8.46476e-05
8.38655e-05
3.07661e-05
6.43678e-05
3.13357e-05
6.5714e-05
3.0523e-05
3.0523e-05
3.0523e-05
2.94355e-05
2.94354e-05
2.94354e-05
2.94354e-05
2.86034e-05
2.91302e-05
3.04587e-05
2.98035e-05
2.94098e-05
2.86933e-05
3.00752e-05
8.46489e-05
8.38668e-05
2.86031e-05
3.04587e-05
2.91308e-05
2.98034e-05
2.94094e-05
3.00752e-05
2.86933e-05
2.9938e-05
2.99369e-05
2.93437e-05
3.00389e-05
3.00378e-05
2.96151e-05
6.73447e-05
2.99674e-05
6.80315e-05
8.22662e-05
8.11297e-05
2.96174e-05
6.73475e-05
2.99658e-05
6.80349e-05
2.90389e-05
2.90389e-05
2.90389e-05
2.78581e-05
2.7858e-05
2.7858e-05
2.7858e-05
2.66012e-05
2.81369e-05
2.89153e-05
2.81158e-05
2.73196e-05
2.78228e-05
2.84869e-05
8.22667e-05
8.11302e-05
2.6601e-05
2.89152e-05
2.81373e-05
2.81157e-05
2.73192e-05
2.84868e-05
2.78223e-05
3.04416e-05
3.04409e-05
2.7511e-05
3.07518e-05
3.07512e-05
2.83853e-05
6.85624e-05
2.85405e-05
6.89771e-05
8.01691e-05
8.01647e-05
2.83854e-05
6.85656e-05
2.85404e-05
6.898e-05
2.75653e-05
2.75652e-05
2.75653e-05
2.71192e-05
2.71193e-05
2.71192e-05
2.71192e-05
2.49278e-05
2.70932e-05
2.73563e-05
2.66997e-05
2.528e-05
2.70886e-05
2.71295e-05
8.0169e-05
8.01639e-05
2.49276e-05
2.73562e-05
2.70934e-05
2.66996e-05
2.52797e-05
2.71294e-05
2.70899e-05
3.11797e-05
3.11794e-05
2.59781e-05
3.19125e-05
3.19125e-05
2.87067e-05
6.95789e-05
2.8596e-05
6.96905e-05
8.03755e-05
8.04152e-05
2.87071e-05
6.95821e-05
2.85959e-05
6.96931e-05
2.70696e-05
2.70695e-05
2.70695e-05
2.70247e-05
2.70248e-05
2.70247e-05
2.70247e-05
2.50372e-05
2.79098e-05
2.68562e-05
2.65184e-05
2.49465e-05
2.81883e-05
2.68362e-05
8.03734e-05
8.04115e-05
2.50373e-05
2.68561e-05
2.79086e-05
2.65182e-05
2.49466e-05
2.68361e-05
2.81883e-05
3.34053e-05
3.34061e-05
2.5946e-05
3.37682e-05
3.37697e-05
2.87769e-05
6.97308e-05
2.87755e-05
6.97302e-05
8.04315e-05
8.04319e-05
2.8778e-05
6.97339e-05
2.87765e-05
6.97331e-05
2.70226e-05
2.70225e-05
2.70225e-05
2.70217e-05
2.70217e-05
2.70216e-05
2.70217e-05
2.5101e-05
2.83523e-05
2.68247e-05
2.65399e-05
2.50943e-05
2.83558e-05
2.68248e-05
8.04281e-05
8.04281e-05
2.51012e-05
2.68246e-05
2.83525e-05
2.65398e-05
2.50945e-05
2.68248e-05
2.83562e-05
3.39329e-05
3.39343e-05
2.60037e-05
3.39393e-05
3.39408e-05
2.87804e-05
6.97324e-05
2.87818e-05
6.97303e-05
8.04326e-05
8.04322e-05
2.87814e-05
6.97354e-05
2.87826e-05
6.97332e-05
2.70219e-05
2.70218e-05
2.70219e-05
2.70219e-05
2.70219e-05
2.70219e-05
2.70219e-05
2.51054e-05
2.83639e-05
2.68252e-05
2.65432e-05
2.51047e-05
2.8361e-05
2.68254e-05
8.0429e-05
8.04283e-05
2.51056e-05
2.68252e-05
2.8364e-05
2.65431e-05
2.51049e-05
2.68254e-05
2.83613e-05
3.39427e-05
3.39442e-05
2.60086e-05
3.39412e-05
3.39427e-05
2.87811e-05
6.97319e-05
2.87832e-05
6.97292e-05
8.04326e-05
8.04322e-05
2.87822e-05
6.97349e-05
2.8784e-05
6.97325e-05
2.70221e-05
2.7022e-05
2.70221e-05
2.70219e-05
2.7022e-05
2.70219e-05
2.7022e-05
2.51068e-05
2.83656e-05
2.68255e-05
2.65436e-05
2.51065e-05
2.83618e-05
2.68257e-05
8.0429e-05
8.04283e-05
2.51071e-05
2.68255e-05
2.83657e-05
2.65435e-05
2.51066e-05
2.68256e-05
2.83622e-05
3.39435e-05
3.3945e-05
2.60092e-05
3.39417e-05
3.39432e-05
2.87812e-05
6.97312e-05
2.87834e-05
6.97294e-05
8.04326e-05
8.04322e-05
2.87823e-05
6.97343e-05
2.87843e-05
6.9732e-05
2.70221e-05
2.7022e-05
2.70221e-05
2.7022e-05
2.70221e-05
2.7022e-05
2.7022e-05
2.51068e-05
2.83658e-05
2.68257e-05
2.65438e-05
2.5107e-05
2.83619e-05
2.68258e-05
8.0429e-05
8.04283e-05
2.51071e-05
2.68256e-05
2.8366e-05
2.65437e-05
2.51073e-05
2.68257e-05
2.83623e-05
3.39437e-05
3.39452e-05
2.60094e-05
3.39417e-05
3.39433e-05
2.87811e-05
6.97316e-05
2.87834e-05
6.97296e-05
8.04327e-05
8.04323e-05
2.87823e-05
6.97341e-05
2.87843e-05
6.97318e-05
2.70221e-05
2.70221e-05
2.70221e-05
2.70222e-05
2.70224e-05
2.70221e-05
2.70222e-05
2.51066e-05
2.83658e-05
2.68257e-05
2.65439e-05
2.51066e-05
2.83619e-05
2.68258e-05
8.04291e-05
8.04283e-05
2.51071e-05
2.68256e-05
2.8366e-05
2.65439e-05
2.51072e-05
2.68257e-05
2.83623e-05
3.39437e-05
3.39452e-05
2.60094e-05
3.39417e-05
3.39433e-05
3.73741e-05
3.72959e-05
3.72959e-05
5.31119e-05
3.71932e-05
5.31138e-05
3.71932e-05
3.70929e-05
3.72466e-05
3.7247e-05
3.71762e-05
3.71762e-05
3.73701e-05
3.73777e-05
3.73043e-05
3.73768e-05
3.73701e-05
3.73777e-05
3.73043e-05
3.73768e-05
3.71732e-05
3.94123e-05
3.7168e-05
3.67256e-05
3.71732e-05
3.94121e-05
3.7168e-05
3.67257e-05
3.70959e-05
3.71021e-05
3.60311e-05
3.64213e-05
3.71636e-05
3.7111e-05
3.63054e-05
3.70959e-05
3.71021e-05
3.60314e-05
3.64213e-05
3.71636e-05
3.7111e-05
3.63054e-05
3.73741e-05
3.72959e-05
3.72959e-05
5.31121e-05
3.71933e-05
3.70929e-05
3.72473e-05
3.72464e-05
3.71762e-05
3.71762e-05
5.31136e-05
3.71933e-05
3.73701e-05
3.73777e-05
3.73043e-05
3.73768e-05
3.73701e-05
3.73777e-05
3.73768e-05
3.73043e-05
3.71732e-05
3.94126e-05
3.7168e-05
3.67258e-05
3.70959e-05
3.71021e-05
3.60311e-05
3.64213e-05
3.71636e-05
3.7111e-05
3.63054e-05
3.71732e-05
3.94129e-05
3.7168e-05
3.67255e-05
3.70959e-05
3.71021e-05
3.64213e-05
3.60312e-05
3.7111e-05
3.71636e-05
3.63054e-05
3.73773e-05
3.73765e-05
3.7377e-05
3.7377e-05
3.73773e-05
3.73765e-05
3.7377e-05
3.7377e-05
3.73773e-05
3.73765e-05
3.7377e-05
3.7377e-05
3.71135e-05
3.711e-05
3.64246e-05
3.64246e-05
3.71126e-05
3.71126e-05
3.64266e-05
3.71135e-05
3.711e-05
3.64246e-05
3.64246e-05
3.71126e-05
3.71126e-05
3.64266e-05
3.71135e-05
3.711e-05
3.64246e-05
3.64246e-05
3.71126e-05
3.71126e-05
3.64267e-05
3.71135e-05
3.711e-05
3.64246e-05
3.64246e-05
3.71126e-05
3.71126e-05
3.64267e-05
3.73701e-05
3.73777e-05
3.73768e-05
3.73043e-05
3.70959e-05
3.71021e-05
3.6031e-05
3.64213e-05
3.71636e-05
3.7111e-05
3.63054e-05
3.71732e-05
3.94123e-05
3.7168e-05
3.67257e-05
3.70959e-05
3.71021e-05
3.64213e-05
3.60314e-05
3.7111e-05
3.71636e-05
3.63054e-05
3.71732e-05
3.94129e-05
3.7168e-05
3.67255e-05
3.73741e-05
3.72959e-05
3.72959e-05
5.31143e-05
3.71933e-05
3.70929e-05
3.7247e-05
3.72471e-05
3.71762e-05
3.71762e-05
5.31144e-05
3.71933e-05
3.73701e-05
3.73777e-05
3.73768e-05
3.73043e-05
3.70959e-05
3.71021e-05
3.64213e-05
3.60314e-05
3.7111e-05
3.71636e-05
3.63054e-05
3.70959e-05
3.71021e-05
3.64213e-05
3.60314e-05
3.7111e-05
3.71636e-05
3.63054e-05
3.71732e-05
3.94128e-05
3.7168e-05
3.67256e-05
3.71732e-05
3.94128e-05
3.7168e-05
3.67258e-05
3.70929e-05
3.72468e-05
3.72475e-05
3.71762e-05
3.71762e-05
5.31142e-05
3.71933e-05
5.31141e-05
3.71932e-05
5.5115e-05
6.48725e-05
5.51168e-05
6.48755e-05
3.65915e-05
3.65926e-05
3.5279e-05
3.4077e-05
3.40762e-05
7.47088e-05
6.76951e-05
7.47126e-05
6.76991e-05
3.49727e-05
3.2054e-05
3.20524e-05
3.34571e-05
3.34574e-05
3.58817e-05
4.08818e-05
3.66031e-05
4.51315e-05
3.52762e-05
3.56327e-05
3.58929e-05
3.53764e-05
3.60475e-05
3.42474e-05
3.53811e-05
3.52762e-05
3.56323e-05
3.58929e-05
3.53764e-05
3.60475e-05
3.42482e-05
3.53811e-05
3.56305e-05
5.02012e-05
4.64649e-05
3.48971e-05
3.5631e-05
5.02e-05
4.64644e-05
3.48975e-05
3.49987e-05
3.48722e-05
3.27442e-05
3.44038e-05
3.38532e-05
3.48856e-05
3.41805e-05
3.49988e-05
3.48722e-05
3.27452e-05
3.44038e-05
3.38522e-05
3.48856e-05
3.41806e-05
3.65918e-05
3.65923e-05
3.5279e-05
3.40774e-05
3.40752e-05
5.51161e-05
6.48745e-05
7.47097e-05
6.76974e-05
3.49727e-05
3.20535e-05
3.20527e-05
3.34566e-05
3.34584e-05
7.47109e-05
6.76973e-05
3.52763e-05
3.56326e-05
3.58929e-05
3.53764e-05
3.60476e-05
3.42474e-05
3.53811e-05
3.58817e-05
4.0883e-05
3.66028e-05
4.51341e-05
3.52762e-05
3.58929e-05
3.56327e-05
3.53764e-05
3.60476e-05
3.53811e-05
3.42474e-05
3.56307e-05
5.0201e-05
4.64645e-05
3.48978e-05
3.49987e-05
3.48722e-05
3.27441e-05
3.44038e-05
3.38525e-05
3.48856e-05
3.41807e-05
3.56306e-05
5.02026e-05
4.64665e-05
3.48975e-05
3.49987e-05
3.48722e-05
3.44038e-05
3.27439e-05
3.48856e-05
3.38529e-05
3.41806e-05
3.58819e-05
4.08807e-05
3.6603e-05
4.51332e-05
3.52762e-05
3.58929e-05
3.56324e-05
3.53764e-05
3.60475e-05
3.53811e-05
3.42482e-05
3.58819e-05
4.08833e-05
3.66026e-05
4.51334e-05
3.49988e-05
3.48722e-05
3.27434e-05
3.44038e-05
3.38529e-05
3.48856e-05
3.41806e-05
3.56309e-05
5.02003e-05
4.64625e-05
3.48975e-05
3.49987e-05
3.48722e-05
3.44038e-05
3.27452e-05
3.48856e-05
3.3852e-05
3.41805e-05
3.56304e-05
5.02015e-05
4.64666e-05
3.48974e-05
3.65919e-05
3.65915e-05
3.5279e-05
3.4076e-05
3.40767e-05
5.51172e-05
6.48744e-05
7.47132e-05
6.76989e-05
3.49727e-05
3.20529e-05
3.20543e-05
3.34572e-05
3.34569e-05
7.47112e-05
6.76988e-05
3.52763e-05
3.58929e-05
3.56324e-05
3.53764e-05
3.60476e-05
3.53811e-05
3.4248e-05
3.58822e-05
4.08826e-05
3.66027e-05
4.51339e-05
3.58825e-05
4.08817e-05
3.6603e-05
4.51328e-05
3.49987e-05
3.48722e-05
3.44038e-05
3.27451e-05
3.48856e-05
3.38523e-05
3.41806e-05
3.49987e-05
3.48722e-05
3.44038e-05
3.2745e-05
3.48856e-05
3.38519e-05
3.41807e-05
3.563e-05
5.02024e-05
4.64662e-05
3.48977e-05
3.56302e-05
5.02019e-05
4.64642e-05
3.4898e-05
5.51168e-05
6.48743e-05
5.51168e-05
6.4875e-05
3.49727e-05
3.20539e-05
3.20527e-05
3.34564e-05
3.34566e-05
7.47103e-05
6.76981e-05
7.47119e-05
6.76996e-05
7.65631e-05
8.08386e-05
7.65672e-05
8.08429e-05
3.16979e-05
3.1697e-05
3.32631e-05
3.09399e-05
3.09373e-05
8.39924e-05
8.18673e-05
8.39961e-05
8.18706e-05
3.29542e-05
3.03313e-05
3.03288e-05
3.0729e-05
3.0728e-05
3.39738e-05
5.13604e-05
3.46735e-05
5.46124e-05
3.30549e-05
3.24597e-05
3.39305e-05
3.34069e-05
3.38947e-05
3.15929e-05
3.3465e-05
3.30551e-05
3.24582e-05
3.39305e-05
3.34068e-05
3.38947e-05
3.15945e-05
3.3465e-05
3.37665e-05
5.83614e-05
5.56058e-05
3.30982e-05
3.37667e-05
5.83615e-05
5.56049e-05
3.30987e-05
3.27654e-05
3.29319e-05
3.06713e-05
3.25739e-05
3.1377e-05
3.30121e-05
3.1922e-05
3.27656e-05
3.29318e-05
3.06729e-05
3.25739e-05
3.13747e-05
3.30121e-05
3.19222e-05
3.16967e-05
3.16981e-05
3.32631e-05
3.09386e-05
3.09372e-05
7.65652e-05
8.08402e-05
8.39935e-05
8.1869e-05
3.29542e-05
3.03297e-05
3.03299e-05
3.07283e-05
3.07285e-05
8.39938e-05
8.18693e-05
3.30553e-05
3.24587e-05
3.39305e-05
3.34069e-05
3.38946e-05
3.15934e-05
3.3465e-05
3.39747e-05
5.1363e-05
3.46732e-05
5.46154e-05
3.30551e-05
3.39305e-05
3.24595e-05
3.34068e-05
3.38945e-05
3.3465e-05
3.15924e-05
3.3765e-05
5.83622e-05
5.56073e-05
3.31006e-05
3.27653e-05
3.29319e-05
3.06716e-05
3.25739e-05
3.13751e-05
3.30122e-05
3.19224e-05
3.37648e-05
5.83645e-05
5.56079e-05
3.31001e-05
3.27652e-05
3.29318e-05
3.25739e-05
3.06706e-05
3.30121e-05
3.13768e-05
3.19221e-05
3.39742e-05
5.13599e-05
3.46734e-05
5.46122e-05
3.3055e-05
3.39305e-05
3.24584e-05
3.34068e-05
3.38947e-05
3.3465e-05
3.15949e-05
3.39735e-05
5.13624e-05
3.46735e-05
5.46137e-05
3.27656e-05
3.2932e-05
3.06706e-05
3.2574e-05
3.13766e-05
3.30122e-05
3.19222e-05
3.37661e-05
5.83616e-05
5.56047e-05
3.30987e-05
3.27654e-05
3.29318e-05
3.2574e-05
3.06732e-05
3.30121e-05
3.1375e-05
3.1922e-05
3.3766e-05
5.83634e-05
5.56069e-05
3.30984e-05
3.16976e-05
3.1697e-05
3.32631e-05
3.09383e-05
3.09388e-05
7.65664e-05
8.08406e-05
8.39963e-05
8.1872e-05
3.29541e-05
3.03305e-05
3.03306e-05
3.07279e-05
3.07292e-05
8.39942e-05
8.187e-05
3.30553e-05
3.39305e-05
3.24577e-05
3.34069e-05
3.38946e-05
3.3465e-05
3.15944e-05
3.39748e-05
5.13624e-05
3.46732e-05
5.46146e-05
3.39747e-05
5.13611e-05
3.46734e-05
5.46137e-05
3.27652e-05
3.2932e-05
3.2574e-05
3.06729e-05
3.30121e-05
3.1375e-05
3.19222e-05
3.27653e-05
3.29319e-05
3.25739e-05
3.06727e-05
3.30121e-05
3.13745e-05
3.19224e-05
3.37647e-05
5.83636e-05
5.56071e-05
3.31002e-05
3.37652e-05
5.83631e-05
5.56064e-05
3.31007e-05
7.65663e-05
8.08406e-05
7.6568e-05
8.08422e-05
3.29541e-05
3.03307e-05
3.03292e-05
3.07289e-05
3.07279e-05
8.39944e-05
8.18699e-05
8.39956e-05
8.18714e-05
8.43938e-05
8.50641e-05
8.43957e-05
8.50665e-05
3.02178e-05
3.02164e-05
3.12742e-05
3.00182e-05
3.00152e-05
8.48353e-05
8.50709e-05
8.48374e-05
8.50724e-05
3.09658e-05
2.99238e-05
2.99234e-05
2.99891e-05
2.99858e-05
3.22735e-05
5.91837e-05
3.29065e-05
6.14282e-05
3.07976e-05
3.05074e-05
3.21444e-05
3.15594e-05
3.16316e-05
2.9901e-05
3.17151e-05
3.07978e-05
3.05048e-05
3.21443e-05
3.15593e-05
3.16317e-05
2.99016e-05
3.17151e-05
3.21148e-05
6.38412e-05
6.21008e-05
3.14642e-05
3.21151e-05
6.38427e-05
6.21001e-05
3.14647e-05
3.05174e-05
3.11032e-05
2.92246e-05
3.08626e-05
2.97892e-05
3.12849e-05
2.96739e-05
3.05176e-05
3.11031e-05
2.92251e-05
3.08626e-05
2.97879e-05
3.12849e-05
2.96741e-05
3.02168e-05
3.02167e-05
3.12743e-05
3.00162e-05
3.00164e-05
8.43948e-05
8.50648e-05
8.48351e-05
8.5071e-05
3.09658e-05
2.99239e-05
2.99218e-05
2.99865e-05
2.99885e-05
8.48359e-05
8.50713e-05
3.0798e-05
3.05056e-05
3.21444e-05
3.15595e-05
3.16314e-05
2.99005e-05
3.17151e-05
3.22758e-05
5.91868e-05
3.29042e-05
6.14309e-05
3.07977e-05
3.21443e-05
3.05068e-05
3.15593e-05
3.16312e-05
3.1715e-05
2.99004e-05
3.21124e-05
6.3844e-05
6.21027e-05
3.14675e-05
3.05173e-05
3.11033e-05
2.92249e-05
3.08626e-05
2.97883e-05
3.12849e-05
2.96742e-05
3.21122e-05
6.38452e-05
6.21029e-05
3.1467e-05
3.05171e-05
3.1103e-05
3.08625e-05
2.92241e-05
3.12848e-05
2.97887e-05
2.9674e-05
3.22735e-05
5.91837e-05
3.29066e-05
6.14283e-05
3.07976e-05
3.21443e-05
3.0505e-05
3.15594e-05
3.16316e-05
3.17151e-05
2.99018e-05
3.22731e-05
5.91855e-05
3.29063e-05
6.14298e-05
3.05176e-05
3.11034e-05
2.92239e-05
3.08627e-05
2.97885e-05
3.12849e-05
2.96742e-05
3.21151e-05
6.38429e-05
6.21002e-05
3.14646e-05
3.05174e-05
3.11032e-05
3.08626e-05
2.92251e-05
3.12849e-05
2.97881e-05
2.96739e-05
3.21147e-05
6.3844e-05
6.21016e-05
3.14642e-05
3.02163e-05
3.02177e-05
3.12742e-05
3.00171e-05
3.00173e-05
8.43951e-05
8.50652e-05
8.48372e-05
8.50729e-05
3.09657e-05
2.99227e-05
2.99248e-05
2.99883e-05
2.99875e-05
8.48356e-05
8.50716e-05
3.07981e-05
3.21443e-05
3.05045e-05
3.15595e-05
3.16314e-05
3.17151e-05
2.99014e-05
3.2276e-05
5.91856e-05
3.29041e-05
6.14299e-05
3.22764e-05
5.91854e-05
3.29045e-05
6.143e-05
3.05171e-05
3.11034e-05
3.08626e-05
2.92252e-05
3.12849e-05
2.97882e-05
2.96741e-05
3.05173e-05
3.11033e-05
3.08626e-05
2.92248e-05
3.12849e-05
2.97876e-05
2.96743e-05
3.2112e-05
6.38442e-05
6.21018e-05
3.14672e-05
3.21124e-05
6.38446e-05
6.21019e-05
3.14676e-05
8.43952e-05
8.50654e-05
8.43963e-05
8.50663e-05
3.09657e-05
2.99246e-05
2.99234e-05
2.99871e-05
2.9986e-05
8.48358e-05
8.50718e-05
8.48362e-05
8.50724e-05
8.46479e-05
8.38663e-05
8.4648e-05
8.38669e-05
2.99381e-05
2.99368e-05
2.93438e-05
3.00397e-05
3.00377e-05
8.26386e-05
8.35698e-05
8.26388e-05
8.35698e-05
2.90524e-05
3.03258e-05
3.03246e-05
3.01021e-05
3.01014e-05
3.07648e-05
6.43652e-05
3.13376e-05
6.57124e-05
2.86032e-05
2.91307e-05
3.04587e-05
2.98031e-05
2.94095e-05
2.86943e-05
3.00752e-05
2.86034e-05
2.91307e-05
3.04587e-05
2.98029e-05
2.94097e-05
2.86933e-05
3.00751e-05
3.06062e-05
6.70611e-05
6.60778e-05
3.01129e-05
3.06065e-05
6.70628e-05
6.60776e-05
3.01131e-05
2.83303e-05
2.94039e-05
2.81936e-05
2.93206e-05
2.85796e-05
2.9702e-05
2.75683e-05
2.83305e-05
2.94037e-05
2.81939e-05
2.93206e-05
2.85792e-05
2.9702e-05
2.75685e-05
2.99374e-05
2.99367e-05
2.9344e-05
3.00383e-05
3.00384e-05
8.46479e-05
8.38662e-05
8.26378e-05
8.35697e-05
2.90525e-05
3.03257e-05
3.03218e-05
3.01013e-05
3.01034e-05
8.26384e-05
8.35701e-05
2.86033e-05
2.91305e-05
3.04587e-05
2.98033e-05
2.94095e-05
2.86932e-05
3.00751e-05
3.07657e-05
6.43675e-05
3.13354e-05
6.57147e-05
2.8603e-05
3.04586e-05
2.91304e-05
2.98028e-05
2.94093e-05
3.00751e-05
2.86935e-05
3.06037e-05
6.70645e-05
6.608e-05
3.01156e-05
2.83301e-05
2.9404e-05
2.81936e-05
2.93206e-05
2.85792e-05
2.9702e-05
2.75686e-05
3.06034e-05
6.70642e-05
6.60799e-05
3.01151e-05
2.83299e-05
2.94036e-05
2.93205e-05
2.81926e-05
2.97019e-05
2.8581e-05
2.75683e-05
3.07648e-05
6.43653e-05
3.13376e-05
6.57128e-05
2.86031e-05
3.04587e-05
2.91308e-05
2.98031e-05
2.94096e-05
3.00751e-05
2.86932e-05
3.07644e-05
6.43664e-05
3.13372e-05
6.57134e-05
2.83305e-05
2.94042e-05
2.81924e-05
2.93207e-05
2.85807e-05
2.9702e-05
2.75685e-05
3.06065e-05
6.70629e-05
6.6078e-05
3.01131e-05
2.83303e-05
2.94038e-05
2.93206e-05
2.81938e-05
2.9702e-05
2.85791e-05
2.75683e-05
3.06061e-05
6.70632e-05
6.60785e-05
3.01127e-05
2.99371e-05
2.99381e-05
2.93437e-05
3.00391e-05
3.00393e-05
8.46482e-05
8.38659e-05
8.26387e-05
8.35706e-05
2.90523e-05
3.03239e-05
3.03264e-05
3.01032e-05
3.01024e-05
8.26383e-05
8.35704e-05
2.86033e-05
3.04587e-05
2.91304e-05
2.98032e-05
2.94096e-05
3.00751e-05
2.86929e-05
3.07657e-05
6.43666e-05
3.13353e-05
6.57137e-05
3.07661e-05
6.43671e-05
3.13357e-05
6.57143e-05
2.83299e-05
2.94041e-05
2.93207e-05
2.81938e-05
2.9702e-05
2.85792e-05
2.75684e-05
2.83301e-05
2.9404e-05
2.93206e-05
2.81936e-05
2.9702e-05
2.85788e-05
2.75686e-05
3.06034e-05
6.70635e-05
6.60788e-05
3.01152e-05
3.06037e-05
6.70645e-05
6.60795e-05
3.01156e-05
8.46484e-05
8.38661e-05
8.46487e-05
8.3866e-05
2.90523e-05
3.03261e-05
3.0325e-05
3.01019e-05
3.01012e-05
8.26385e-05
8.35705e-05
8.2638e-05
8.35704e-05
8.22668e-05
8.11304e-05
8.22661e-05
8.11302e-05
3.04416e-05
3.04408e-05
2.75111e-05
3.07522e-05
3.07509e-05
8.02309e-05
8.08066e-05
8.02304e-05
8.08056e-05
2.72193e-05
3.11152e-05
3.11149e-05
3.08623e-05
3.08617e-05
2.96153e-05
6.73455e-05
2.99676e-05
6.80331e-05
2.6601e-05
2.81373e-05
2.89153e-05
2.81153e-05
2.73194e-05
2.78229e-05
2.84868e-05
2.66012e-05
2.81375e-05
2.89153e-05
2.81151e-05
2.73196e-05
2.78225e-05
2.84867e-05
2.94985e-05
6.8462e-05
6.81837e-05
2.87187e-05
2.94988e-05
6.84636e-05
6.8185e-05
2.8719e-05
2.63346e-05
2.76556e-05
2.71426e-05
2.76709e-05
2.76629e-05
2.8059e-05
2.55022e-05
2.63348e-05
2.76553e-05
2.71428e-05
2.76709e-05
2.76626e-05
2.8059e-05
2.55024e-05
3.0441e-05
3.04415e-05
2.75113e-05
3.07511e-05
3.075e-05
8.22666e-05
8.11303e-05
8.02301e-05
8.08058e-05
2.72193e-05
3.11148e-05
3.11134e-05
3.08616e-05
3.08633e-05
8.02306e-05
8.08062e-05
2.6601e-05
2.81374e-05
2.89153e-05
2.81155e-05
2.73193e-05
2.78224e-05
2.84867e-05
2.96171e-05
6.7347e-05
2.99655e-05
6.80339e-05
2.66008e-05
2.89152e-05
2.81372e-05
2.81149e-05
2.73191e-05
2.84866e-05
2.78231e-05
2.94969e-05
6.84651e-05
6.81867e-05
2.87199e-05
2.63344e-05
2.76559e-05
2.71424e-05
2.76709e-05
2.76636e-05
2.8059e-05
2.55022e-05
2.94967e-05
6.84639e-05
6.8186e-05
2.87195e-05
2.63341e-05
2.76552e-05
2.76708e-05
2.71421e-05
2.80589e-05
2.76654e-05
2.5502e-05
2.96152e-05
6.73458e-05
2.99675e-05
6.80333e-05
2.66009e-05
2.89153e-05
2.81373e-05
2.81152e-05
2.73194e-05
2.84867e-05
2.78222e-05
2.96149e-05
6.73458e-05
2.99672e-05
6.80331e-05
2.63346e-05
2.76561e-05
2.71418e-05
2.7671e-05
2.7665e-05
2.80591e-05
2.55023e-05
2.94987e-05
6.84637e-05
6.81855e-05
2.87189e-05
2.63345e-05
2.76555e-05
2.76709e-05
2.71424e-05
2.8059e-05
2.76622e-05
2.55021e-05
2.94983e-05
6.84631e-05
6.81848e-05
2.87185e-05
3.04424e-05
3.04419e-05
2.7511e-05
3.07517e-05
3.07521e-05
8.22669e-05
8.11302e-05
8.02306e-05
8.08061e-05
2.72191e-05
3.11152e-05
3.11158e-05
3.08641e-05
3.08625e-05
8.02309e-05
8.08065e-05
2.66011e-05
2.89153e-05
2.81372e-05
2.81155e-05
2.73194e-05
2.84867e-05
2.78221e-05
2.96171e-05
6.73462e-05
2.99655e-05
6.80336e-05
2.96174e-05
6.73472e-05
2.99658e-05
6.80348e-05
2.63341e-05
2.76559e-05
2.76709e-05
2.71425e-05
2.8059e-05
2.76622e-05
2.55021e-05
2.63344e-05
2.76558e-05
2.76709e-05
2.71423e-05
2.8059e-05
2.76622e-05
2.55023e-05
2.94966e-05
6.84636e-05
6.81853e-05
2.87195e-05
2.9497e-05
6.84652e-05
6.81866e-05
2.87198e-05
8.2267e-05
8.11303e-05
8.22665e-05
8.11296e-05
2.72191e-05
3.11154e-05
3.11152e-05
3.08621e-05
3.08618e-05
8.02309e-05
8.08066e-05
8.02302e-05
8.08059e-05
8.01696e-05
8.01656e-05
8.01688e-05
8.01651e-05
3.11794e-05
3.11792e-05
2.59783e-05
3.19121e-05
3.19115e-05
8.03396e-05
8.02133e-05
8.034e-05
8.02127e-05
2.59056e-05
3.31755e-05
3.31757e-05
3.22742e-05
3.22745e-05
2.83855e-05
6.85639e-05
2.85407e-05
6.89791e-05
2.49278e-05
2.70935e-05
2.73563e-05
2.66992e-05
2.52798e-05
2.70899e-05
2.71294e-05
2.49279e-05
2.70938e-05
2.73562e-05
2.66989e-05
2.528e-05
2.70903e-05
2.71293e-05
2.83938e-05
6.94949e-05
6.91351e-05
2.85176e-05
2.83941e-05
6.9497e-05
6.91371e-05
2.85177e-05
2.49008e-05
2.65781e-05
2.77089e-05
2.68996e-05
2.71605e-05
2.69835e-05
2.49122e-05
2.49009e-05
2.65778e-05
2.77094e-05
2.68995e-05
2.7161e-05
2.69834e-05
2.49122e-05
3.11793e-05
3.11788e-05
2.59784e-05
3.19123e-05
3.19088e-05
8.01691e-05
8.01639e-05
8.03393e-05
8.02125e-05
2.59057e-05
3.3176e-05
3.3173e-05
3.22745e-05
3.22738e-05
8.03362e-05
8.0212e-05
2.49276e-05
2.70935e-05
2.73562e-05
2.66995e-05
2.52798e-05
2.70896e-05
2.71293e-05
2.83851e-05
6.85648e-05
2.854e-05
6.89791e-05
2.49274e-05
2.73561e-05
2.70936e-05
2.66988e-05
2.52796e-05
2.71292e-05
2.7089e-05
2.8393e-05
6.94974e-05
6.91382e-05
2.85194e-05
2.49006e-05
2.65783e-05
2.77088e-05
2.68995e-05
2.71611e-05
2.69835e-05
2.49121e-05
2.83929e-05
6.94946e-05
6.91377e-05
2.85191e-05
2.49004e-05
2.65777e-05
2.68994e-05
2.77083e-05
2.69833e-05
2.71611e-05
2.4912e-05
2.83853e-05
6.85645e-05
2.85406e-05
6.89789e-05
2.49276e-05
2.73562e-05
2.70933e-05
2.66991e-05
2.52798e-05
2.71293e-05
2.70898e-05
2.8385e-05
6.85633e-05
2.85402e-05
6.8978e-05
2.49008e-05
2.65785e-05
2.77078e-05
2.68996e-05
2.71604e-05
2.69835e-05
2.49122e-05
2.83938e-05
6.94947e-05
6.91376e-05
2.85176e-05
2.49007e-05
2.6578e-05
2.68995e-05
2.77086e-05
2.69835e-05
2.71605e-05
2.49121e-05
2.83936e-05
6.94955e-05
6.91359e-05
2.85174e-05
3.11802e-05
3.118e-05
2.59781e-05
3.19111e-05
3.19128e-05
8.01696e-05
8.01656e-05
8.0336e-05
8.0212e-05
2.59054e-05
3.31754e-05
3.3176e-05
3.22758e-05
3.22747e-05
8.03398e-05
8.02133e-05
2.49277e-05
2.73562e-05
2.70933e-05
2.66995e-05
2.52798e-05
2.71293e-05
2.70898e-05
2.83852e-05
6.85638e-05
2.854e-05
6.89785e-05
2.83853e-05
6.85655e-05
2.85403e-05
6.89802e-05
2.49006e-05
2.65784e-05
2.68995e-05
2.77088e-05
2.69834e-05
2.71602e-05
2.49122e-05
2.49007e-05
2.65783e-05
2.68995e-05
2.7709e-05
2.69835e-05
2.71606e-05
2.49123e-05
2.83929e-05
6.9496e-05
6.91363e-05
2.85193e-05
2.8393e-05
6.94979e-05
6.91381e-05
2.85193e-05
8.01696e-05
8.01656e-05
8.01689e-05
8.01649e-05
2.59055e-05
3.31757e-05
3.31766e-05
3.22746e-05
3.22746e-05
8.03398e-05
8.02133e-05
8.03393e-05
8.02127e-05
8.03758e-05
8.04153e-05
8.03752e-05
8.04154e-05
3.34049e-05
3.34062e-05
2.59462e-05
3.37676e-05
3.37695e-05
8.04304e-05
8.04247e-05
8.04302e-05
8.04242e-05
2.59527e-05
3.39134e-05
3.39163e-05
3.38374e-05
3.384e-05
2.87067e-05
6.95812e-05
2.85962e-05
6.9693e-05
2.50371e-05
2.79091e-05
2.68562e-05
2.6518e-05
2.49469e-05
2.81882e-05
2.68361e-05
2.50371e-05
2.79098e-05
2.68561e-05
2.65178e-05
2.49469e-05
2.81892e-05
2.68361e-05
2.87407e-05
6.97279e-05
6.97135e-05
2.87686e-05
2.87408e-05
6.97307e-05
6.97162e-05
2.87689e-05
2.50576e-05
2.65235e-05
2.8335e-05
2.68251e-05
2.82643e-05
2.68278e-05
2.50887e-05
2.50576e-05
2.65233e-05
2.83364e-05
2.6825e-05
2.82655e-05
2.68278e-05
2.50887e-05
3.34057e-05
3.34044e-05
2.59463e-05
3.37686e-05
3.37642e-05
8.03737e-05
8.04118e-05
8.04302e-05
8.04245e-05
2.59528e-05
3.39149e-05
3.39107e-05
3.38388e-05
3.38364e-05
8.04264e-05
8.04217e-05
2.50372e-05
2.79101e-05
2.68562e-05
2.65182e-05
2.49469e-05
2.81893e-05
2.68361e-05
2.87069e-05
6.95792e-05
2.85958e-05
6.96892e-05
2.50371e-05
2.6856e-05
2.79108e-05
2.65176e-05
2.49468e-05
2.6836e-05
2.81886e-05
2.87401e-05
6.97307e-05
6.97167e-05
2.87697e-05
2.50576e-05
2.65237e-05
2.83366e-05
2.68251e-05
2.82659e-05
2.68278e-05
2.50889e-05
2.87399e-05
6.97268e-05
6.97129e-05
2.87694e-05
2.50574e-05
2.65232e-05
2.68249e-05
2.83356e-05
2.68277e-05
2.82659e-05
2.50887e-05
2.87067e-05
6.95793e-05
2.85961e-05
6.96897e-05
2.5037e-05
2.68562e-05
2.79089e-05
2.65179e-05
2.49468e-05
2.68361e-05
2.81882e-05
2.87065e-05
6.95797e-05
2.8596e-05
6.96913e-05
2.50575e-05
2.65238e-05
2.83353e-05
2.68251e-05
2.82655e-05
2.68278e-05
2.50887e-05
2.87407e-05
6.97275e-05
6.97134e-05
2.87689e-05
2.50575e-05
2.65234e-05
2.68251e-05
2.83352e-05
2.68278e-05
2.82644e-05
2.50886e-05
2.87405e-05
6.9729e-05
6.97145e-05
2.87687e-05
3.34064e-05
3.34055e-05
2.5946e-05
3.37659e-05
3.37684e-05
8.03761e-05
8.04155e-05
8.04262e-05
8.04215e-05
2.59525e-05
3.39123e-05
3.39145e-05
3.38374e-05