/*--------------------------------*- C++ -*----------------------------------*\
| =========                 |                                                 |
| \\      /  F ield         | OpenFOAM: The Open Source CFD Toolbox           |
|  \\    /   O peration     | Version:  2206                                  |
|   \\  /    A nd           | Website:  www.openfoam.com                      |
|    \\/     M anipulation  |                                                 |
\*---------------------------------------------------------------------------*/
FoamFile
{
    version     2.0;
    format      ascii;
    arch        "LSB;label=32;scalar=64";
    class       volVectorField;
    location    "26";
    object      U;
}
// * * * * * * * * * * * * * * * * * * * * * * * * * * * * * * * * * * * * * //

dimensions      [0 1 -1 0 0 0 0];

internalField   nonuniform List<vector> 
28688
(
(0.000107829 0.000107763 0.100299)
(-0.000189976 0.000119189 0.100385)
(0.000119262 -0.000189968 0.100385)
(-0.000239347 -0.000239366 0.100397)
(9.42046e-05 9.41561e-05 0.100859)
(-0.000158958 9.67685e-05 0.100942)
(9.67756e-05 -0.000158956 0.100942)
(-0.000200625 -0.000200678 0.100968)
(9.41833e-05 9.4171e-05 0.101371)
(-0.000153193 9.16892e-05 0.101449)
(9.16822e-05 -0.000153204 0.101449)
(-0.00020047 -0.000200522 0.10147)
(9.46655e-05 9.46544e-05 0.101895)
(-0.000151784 9.00981e-05 0.101957)
(9.01135e-05 -0.00015179 0.101957)
(-0.000198074 -0.000198116 0.101962)
(8.54488e-05 8.54603e-05 0.102391)
(-0.000143994 8.40226e-05 0.102446)
(8.40363e-05 -0.000143994 0.102446)
(-0.000185331 -0.000185371 0.102431)
(5.1805e-05 5.17939e-05 0.102773)
(-7.33215e-05 4.20885e-05 0.102797)
(4.20962e-05 -7.33286e-05 0.102797)
(-0.000114907 -0.000114891 0.10277)
(1.71596e-05 1.71428e-05 0.102912)
(-2.30494e-05 1.63032e-05 0.102879)
(1.63171e-05 -2.30418e-05 0.102879)
(-6.34687e-05 -6.34975e-05 0.102815)
(1.852e-06 1.85075e-06 0.102939)
(-3.38687e-06 2.84396e-06 0.102886)
(2.84549e-06 -3.39206e-06 0.102886)
(-4.58268e-05 -4.58448e-05 0.102807)
(-5.24923e-07 -5.20282e-07 0.102941)
(-6.11414e-07 8.37103e-07 0.102885)
(8.35353e-07 -6.14715e-07 0.102885)
(-4.36984e-05 -4.37136e-05 0.102805)
(-6.95458e-07 -6.89064e-07 0.102941)
(-4.71816e-07 7.22727e-07 0.102885)
(7.20199e-07 -4.75018e-07 0.102885)
(-4.36035e-05 -4.36203e-05 0.102805)
(-6.99927e-07 -6.91762e-07 0.102941)
(-4.69809e-07 7.20655e-07 0.102885)
(7.17722e-07 -4.73312e-07 0.102885)
(-4.36012e-05 -4.36179e-05 0.102805)
(-7.04543e-07 -6.9944e-07 0.102941)
(-4.72488e-07 7.18719e-07 0.102885)
(7.17059e-07 -4.73775e-07 0.102885)
(-4.35974e-05 -4.36143e-05 0.102805)
(0.000135132 0.000135121 0.100282)
(0.00012429 0.00015298 0.100229)
(-0.000124282 0.000152961 0.100229)
(-0.000135127 0.000135089 0.100282)
(0.000153009 0.000124241 0.100229)
(0.000152981 -0.000124258 0.100229)
(9.0789e-05 9.07368e-05 0.10015)
(-9.07793e-05 9.07344e-05 0.10015)
(9.07629e-05 -9.07833e-05 0.10015)
(-9.07605e-05 -9.07813e-05 0.10015)
(-0.000153004 0.000124238 0.100229)
(-0.00015299 -0.000124253 0.100229)
(0.000135121 -0.000135141 0.100282)
(0.000124241 -0.00015301 0.100229)
(-0.000124238 -0.000152993 0.100229)
(-0.00013513 -0.000135115 0.100282)
(0.000239391 0.00023937 0.100397)
(0.000111892 0.000111764 0.100892)
(0.000119311 0.000189869 0.100385)
(-0.000119262 0.00018991 0.100385)
(8.88844e-05 0.000146816 0.100823)
(-8.88446e-05 0.000146813 0.100823)
(-0.000239401 0.000239319 0.100397)
(-0.000111852 0.000111732 0.100892)
(0.000190012 0.000119209 0.100385)
(0.00018995 -0.000119271 0.100385)
(0.000146789 8.88528e-05 0.100823)
(0.00014682 -8.88744e-05 0.100823)
(-0.000189932 -0.000119274 0.100385)
(-0.000146758 8.88545e-05 0.100823)
(-0.00014678 -8.88686e-05 0.100823)
(0.000239322 -0.000239412 0.100397)
(0.000111844 -0.000111858 0.100892)
(-0.000119242 -0.000189997 0.100385)
(8.88591e-05 -0.000146751 0.100823)
(-8.88379e-05 -0.000146776 0.100823)
(-0.000111842 -0.000111861 0.100892)
(0.000200713 0.000200546 0.100968)
(0.00010662 0.000106541 0.101394)
(9.67838e-05 0.000159011 0.100942)
(-9.67573e-05 0.000159008 0.100942)
(9.44111e-05 0.000156501 0.101319)
(-9.44118e-05 0.0001565 0.101319)
(-0.000200675 0.000200513 0.100968)
(-0.000106611 0.000106533 0.101394)
(0.00015899 9.67622e-05 0.100942)
(0.000159008 -9.67748e-05 0.100942)
(0.000156458 9.44166e-05 0.101319)
(0.000156496 -9.44174e-05 0.101319)
(-0.000158985 -9.67697e-05 0.100942)
(-0.000156453 9.44256e-05 0.101319)
(-0.000156473 -9.4408e-05 0.101319)
(0.000200623 -0.000200687 0.100968)
(0.000106587 -0.000106599 0.101395)
(-9.67578e-05 -0.000158982 0.100942)
(9.44146e-05 -0.000156457 0.101319)
(-9.44201e-05 -0.000156476 0.101319)
(-0.000106601 -0.000106607 0.101395)
(0.000200537 0.000200408 0.10147)
(0.000100743 0.000100685 0.101892)
(9.16737e-05 0.000153254 0.101449)
(-9.16755e-05 0.000153249 0.101449)
(9.34729e-05 0.000156522 0.101831)
(-9.34608e-05 0.000156512 0.101831)
(-0.000200524 0.000200394 0.10147)
(-0.000100725 0.00010068 0.101891)
(0.0001532 9.16862e-05 0.101449)
(0.000153244 -9.16802e-05 0.101449)
(0.000156462 9.34765e-05 0.101831)
(0.000156496 -9.34598e-05 0.101831)
(-0.000153226 -9.16749e-05 0.101449)
(-0.000156459 9.34721e-05 0.101831)
(-0.000156494 -9.34644e-05 0.101831)
(0.000200452 -0.000200527 0.10147)
(0.0001007 -0.000100732 0.101892)
(-9.16882e-05 -0.000153225 0.101449)
(9.34783e-05 -0.000156461 0.101831)
(-9.34684e-05 -0.000156472 0.101831)
(-0.000100757 -0.000100757 0.101892)
(0.000198101 0.000198005 0.101962)
(8.98678e-05 8.98258e-05 0.102369)
(9.01006e-05 0.000151846 0.101957)
(-9.00873e-05 0.000151833 0.101957)
(8.64542e-05 0.000146886 0.102324)
(-8.64474e-05 0.000146887 0.102324)
(-0.000198093 0.000197988 0.101962)
(-8.98561e-05 8.98267e-05 0.102369)
(0.000151791 9.01067e-05 0.101957)
(0.00015182 -9.00851e-05 0.101957)
(0.000146838 8.64496e-05 0.102324)
(0.000146867 -8.64368e-05 0.102324)
(-0.000151821 -9.00917e-05 0.101957)
(-0.000146831 8.6447e-05 0.102324)
(-0.000146868 -8.64456e-05 0.102324)
(0.000198018 -0.000198108 0.101962)
(8.98326e-05 -8.98601e-05 0.102369)
(-9.00955e-05 -0.000151794 0.101957)
(8.64548e-05 -0.000146832 0.102324)
(-8.64409e-05 -0.000146835 0.102324)
(-8.98952e-05 -8.9897e-05 0.102369)
(0.000185347 0.000185265 0.102431)
(3.4012e-05 3.40329e-05 0.102749)
(8.40084e-05 0.000144055 0.102446)
(-8.39934e-05 0.000144052 0.102446)
(5.09669e-05 9.14724e-05 0.102743)
(-5.09801e-05 9.14694e-05 0.102743)
(-0.000185346 0.000185256 0.102431)
(-3.3984e-05 3.40296e-05 0.102749)
(0.000143997 8.40251e-05 0.102446)
(0.000144025 -8.39799e-05 0.102446)
(9.14142e-05 5.09398e-05 0.102743)
(9.14494e-05 -5.09726e-05 0.102743)
(-0.000144031 -8.40015e-05 0.102446)
(-9.14111e-05 5.09339e-05 0.102743)
(-9.14587e-05 -5.09543e-05 0.102743)
(0.000185261 -0.00018536 0.102431)
(3.40307e-05 -3.39688e-05 0.102749)
(-8.40155e-05 -0.000143993 0.102446)
(5.09311e-05 -9.14201e-05 0.102743)
(-5.09179e-05 -9.13958e-05 0.102743)
(-3.40188e-05 -3.39484e-05 0.102749)
(0.000114932 0.000114909 0.10277)
(-2.16589e-05 -2.1667e-05 0.102819)
(4.21248e-05 7.33303e-05 0.102797)
(-4.21437e-05 7.33495e-05 0.102797)
(2.2339e-05 3.30101e-05 0.102871)
(-2.23429e-05 3.30244e-05 0.102871)
(-0.000114925 0.000114886 0.102769)
(2.16662e-05 -2.16673e-05 0.102819)
(7.33286e-05 4.20959e-05 0.102797)
(7.33507e-05 -4.21354e-05 0.102797)
(3.30332e-05 2.22937e-05 0.102871)
(3.30404e-05 -2.23383e-05 0.102871)
(-7.33454e-05 -4.21205e-05 0.102797)
(-3.30252e-05 2.22945e-05 0.102871)
(-3.30244e-05 -2.23301e-05 0.102871)
(0.000114905 -0.000114934 0.10277)
(-2.16336e-05 2.16857e-05 0.102819)
(-4.20825e-05 -7.33071e-05 0.102797)
(2.23067e-05 -3.30181e-05 0.102871)
(-2.23046e-05 -3.30237e-05 0.102871)
(2.16611e-05 2.16673e-05 0.102819)
(6.34987e-05 6.34508e-05 0.102815)
(-4.24712e-05 -4.24505e-05 0.102812)
(1.63497e-05 2.3042e-05 0.102879)
(-1.63454e-05 2.30595e-05 0.102879)
(4.60742e-06 5.77884e-06 0.102886)
(-4.59965e-06 5.79344e-06 0.102886)
(-6.34893e-05 6.34372e-05 0.102815)
(4.24817e-05 -4.24528e-05 0.102812)
(2.30619e-05 1.63083e-05 0.102879)
(2.30688e-05 -1.6343e-05 0.102879)
(5.76922e-06 4.57815e-06 0.102886)
(5.78292e-06 -4.59764e-06 0.102886)
(-2.30541e-05 -1.63403e-05 0.102879)
(-5.7606e-06 4.56956e-06 0.102886)
(-5.78613e-06 -4.59662e-06 0.102886)
(6.34709e-05 -6.35011e-05 0.102815)
(-4.2455e-05 4.24829e-05 0.102812)
(-1.63144e-05 -2.30503e-05 0.102879)
(4.57154e-06 -5.76322e-06 0.102886)
(-4.57309e-06 -5.76368e-06 0.102886)
(4.24534e-05 4.247e-05 0.102812)
(4.5836e-05 4.58147e-05 0.102807)
(-4.54441e-05 -4.54204e-05 0.102809)
(2.8752e-06 3.40391e-06 0.102886)
(-2.87134e-06 3.41894e-06 0.102886)
(1.0031e-06 8.37375e-07 0.102885)
(-1.00354e-06 8.44758e-07 0.102885)
(-4.58267e-05 4.58056e-05 0.102807)
(4.54475e-05 -4.54195e-05 0.102809)
(3.3966e-06 2.85056e-06 0.102886)
(3.40746e-06 -2.87019e-06 0.102886)
(8.19506e-07 9.81278e-07 0.102885)
(8.39734e-07 -1.00083e-06 0.102885)
(-3.41214e-06 -2.86895e-06 0.102886)
(-8.17281e-07 9.79094e-07 0.102885)
(-8.39969e-07 -9.97266e-07 0.102885)
(4.58112e-05 -4.58494e-05 0.102807)
(-4.54171e-05 4.54522e-05 0.102809)
(-2.8465e-06 -3.38877e-06 0.102886)
(9.76096e-07 -8.17952e-07 0.102885)
(-9.75543e-07 -8.15551e-07 0.102885)
(4.54202e-05 4.54396e-05 0.102809)
(4.3703e-05 4.36849e-05 0.102805)
(-4.55843e-05 -4.55582e-05 0.102808)
(8.61147e-07 6.32268e-07 0.102885)
(-8.60942e-07 6.41388e-07 0.102885)
(7.52622e-07 5.00839e-07 0.102885)
(-7.50724e-07 5.03656e-07 0.102885)
(-4.37013e-05 4.36788e-05 0.102805)
(4.55907e-05 -4.55594e-05 0.102808)
(6.16941e-07 8.41101e-07 0.102885)
(6.33773e-07 -8.58713e-07 0.102885)
(4.7919e-07 7.3219e-07 0.102885)
(5.01246e-07 -7.47519e-07 0.102885)
(-6.33361e-07 -8.55194e-07 0.102885)
(-4.76108e-07 7.28468e-07 0.102885)
(-4.98999e-07 -7.44243e-07 0.102885)
(4.36876e-05 -4.3719e-05 0.102805)
(-4.55569e-05 4.55933e-05 0.102808)
(-8.33418e-07 -6.09238e-07 0.102885)
(7.2456e-07 -4.77198e-07 0.102885)
(-7.2228e-07 -4.74645e-07 0.102885)
(4.55619e-05 4.55803e-05 0.102808)
(4.36107e-05 4.35946e-05 0.102805)
(-4.55827e-05 -4.55458e-05 0.102808)
(7.47899e-07 4.97985e-07 0.102885)
(-7.43587e-07 5.06109e-07 0.102885)
(7.52692e-07 5.05769e-07 0.102885)
(-7.42578e-07 4.98579e-07 0.102885)
(-4.36079e-05 4.3587e-05 0.102805)
(4.55954e-05 -4.55587e-05 0.102808)
(4.78403e-07 7.29161e-07 0.102885)
(4.96302e-07 -7.4167e-07 0.102885)
(4.7315e-07 7.31846e-07 0.102885)
(4.94896e-07 -7.38243e-07 0.102885)
(-4.94231e-07 -7.39078e-07 0.102885)
(-4.68909e-07 7.21838e-07 0.102885)
(-4.92191e-07 -7.36009e-07 0.102885)
(4.35944e-05 -4.36249e-05 0.102805)
(-4.55583e-05 4.55961e-05 0.102808)
(-7.1738e-07 -4.70161e-07 0.102885)
(7.16632e-07 -4.69274e-07 0.102885)
(-7.13949e-07 -4.67716e-07 0.102885)
(4.5564e-05 4.55823e-05 0.102808)
(4.36112e-05 4.36061e-05 0.102805)
(-4.55819e-05 -4.55597e-05 0.102808)
(7.52369e-07 5.0449e-07 0.102885)
(-7.4094e-07 5.0462e-07 0.102885)
(7.42149e-07 4.90974e-07 0.102885)
(-7.4452e-07 4.95255e-07 0.102885)
(-4.36042e-05 4.35847e-05 0.102805)
(4.55904e-05 -4.55574e-05 0.102808)
(4.76977e-07 7.31516e-07 0.102885)
(4.95331e-07 -7.38522e-07 0.102885)
(4.7156e-07 7.20975e-07 0.102885)
(4.94198e-07 -7.3946e-07 0.102885)
(-4.93028e-07 -7.36507e-07 0.102885)
(-4.69706e-07 7.2014e-07 0.102885)
(-4.92021e-07 -7.35967e-07 0.102885)
(4.35924e-05 -4.36222e-05 0.102805)
(-4.55559e-05 4.55919e-05 0.102808)
(-7.14365e-07 -4.68839e-07 0.102885)
(7.15932e-07 -4.69855e-07 0.102885)
(-7.13318e-07 -4.67758e-07 0.102885)
(4.5561e-05 4.55791e-05 0.102808)
(4.36044e-05 4.35837e-05 0.102805)
(-4.55714e-05 -4.55487e-05 0.102808)
(7.42461e-07 4.93536e-07 0.102885)
(-7.43386e-07 5.01284e-07 0.102885)
(7.40324e-07 4.8663e-07 0.102885)
(-4.36006e-05 4.35774e-05 0.102805)
(4.76231e-07 7.23009e-07 0.102885)
(4.94332e-07 -7.40116e-07 0.102885)
(4.69602e-07 7.19956e-07 0.102885)
(4.92513e-07 -7.40586e-07 0.102885)
(-4.92978e-07 -7.36571e-07 0.102885)
(-4.9229e-07 -7.35953e-07 0.102885)
(4.35879e-05 -4.36195e-05 0.102805)
(-4.55447e-05 4.55794e-05 0.102808)
(-7.14052e-07 -4.69204e-07 0.102885)
(7.15667e-07 -4.68814e-07 0.102885)
(-7.13038e-07 -4.69178e-07 0.102885)
(4.55487e-05 4.55672e-05 0.102808)
(-3.41434e-07 -3.44075e-07 0.0999988)
(1.68472e-05 1.68418e-05 0.100003)
(-4.54509e-07 1.39343e-05 0.1)
(1.3942e-05 -4.56994e-07 0.1)
(-4.67321e-05 5.72396e-06 0.100008)
(-1.53002e-05 1.56121e-05 0.0999999)
(-0.000128008 6.0436e-05 0.100057)
(-1.31133e-05 -8.58902e-07 0.0999958)
(5.7178e-06 -4.67169e-05 0.100008)
(1.56152e-05 -1.53006e-05 0.0999999)
(-8.57008e-07 -1.31128e-05 0.0999958)
(6.04485e-05 -0.000127937 0.100057)
(-1.87856e-05 -1.87889e-05 0.100003)
(-0.000135075 -8.10379e-05 0.100054)
(-8.10461e-05 -0.000135055 0.100054)
(-3.48324e-05 0.000136928 0.100719)
(0.000176847 0.000387318 0.0994247)
(2.48507e-06 0.000304463 0.10052)
(-8.38706e-05 0.000244786 0.0991334)
(-0.000303156 0.000836939 0.0977855)
(-0.00013008 0.000305597 0.0957059)
(0.000136662 -3.4979e-05 0.100719)
(0.000387934 0.000175811 0.0994255)
(0.000305211 2.34734e-06 0.100521)
(0.000244908 -8.3763e-05 0.0991338)
(-0.000107813 0.000107765 0.100299)
(0.000107801 -0.000107811 0.100299)
(-0.000107793 -0.000107819 0.100299)
(9.1418e-05 9.13493e-05 0.10074)
(-9.13733e-05 9.13663e-05 0.10074)
(9.1405e-05 -9.14182e-05 0.10074)
(-9.13839e-05 -9.14283e-05 0.10074)
(-0.000281182 6.39759e-06 0.100752)
(-0.000397491 0.000228994 0.100531)
(-0.000175062 3.73754e-05 0.100332)
(-0.000153503 9.45114e-05 0.100558)
(-0.000358476 1.56561e-05 0.10048)
(-0.000150456 0.000199077 0.100733)
(-0.00015294 3.33647e-05 0.100497)
(0.000835905 -0.000301283 0.0977841)
(0.000305586 -0.000129676 0.0957068)
(6.3473e-06 -0.000281095 0.100752)
(3.74103e-05 -0.00017504 0.100332)
(0.000229087 -0.00039747 0.100531)
(9.44689e-05 -0.000153493 0.100558)
(1.56532e-05 -0.000358351 0.10048)
(3.34157e-05 -0.000152928 0.100497)
(0.000199119 -0.000150457 0.100733)
(-0.000371508 -0.000140956 0.100373)
(-0.000141156 -0.000371755 0.100373)
(-0.000112273 -0.000112349 0.100655)
(9.86979e-06 -7.9849e-05 0.100577)
(-8.01085e-05 9.8848e-06 0.100577)
(-1.68893e-05 0.000200685 0.100861)
(-5.59274e-05 0.00028625 0.0983304)
(-2.00922e-05 0.000207175 0.100784)
(-4.37637e-05 0.000272415 0.0979301)
(-0.00014972 0.000311849 0.0926388)
(-0.000137836 0.00027414 0.0909832)
(0.000200613 -1.70503e-05 0.100861)
(0.000286489 -5.58162e-05 0.0983308)
(0.000207214 -2.02298e-05 0.100784)
(0.000272541 -4.37023e-05 0.0979303)
(-9.41588e-05 9.41736e-05 0.100859)
(9.42148e-05 -9.42093e-05 0.100859)
(-9.41924e-05 -9.42077e-05 0.100859)
(9.60715e-05 9.60536e-05 0.10124)
(-9.6044e-05 9.60696e-05 0.10124)
(9.60823e-05 -9.60802e-05 0.10124)
(-9.60754e-05 -9.60757e-05 0.10124)
(-0.000265255 1.32016e-05 0.101152)
(-0.00021635 0.000213939 0.100826)
(-0.000164297 3.09934e-05 0.100897)
(-0.000160407 9.75412e-05 0.101064)
(-0.000296725 1.41599e-05 0.100979)
(-0.000186336 0.000198573 0.100936)
(-0.000169065 3.25582e-05 0.101019)
(0.000311854 -0.000149456 0.0926374)
(0.00027426 -0.000137692 0.0909845)
(1.3272e-05 -0.000265234 0.101152)
(3.107e-05 -0.000164301 0.100897)
(0.000214007 -0.000216416 0.100827)
(9.75393e-05 -0.000160408 0.101064)
(1.4251e-05 -0.000296688 0.100979)
(3.26282e-05 -0.000169066 0.101019)
(0.000198537 -0.000186276 0.100936)
(-8.16229e-05 -9.59879e-05 0.100454)
(-9.6087e-05 -8.1641e-05 0.100454)
(-0.00011312 -0.000113117 0.101144)
(-8.85752e-05 -8.37503e-05 0.100415)
(-8.38875e-05 -8.86253e-05 0.100414)
(-9.30161e-06 0.000213164 0.100944)
(-2.17067e-05 0.000278533 0.0971461)
(-1.16439e-05 0.000228814 0.100913)
(-1.15187e-05 0.000261159 0.0966989)
(-0.000115455 0.000223541 0.0884004)
(-9.87437e-05 0.00018998 0.0870475)
(0.000213096 -9.42482e-06 0.100944)
(0.000278664 -2.16696e-05 0.0971463)
(0.000228868 -1.17543e-05 0.100913)
(0.000261258 -1.14151e-05 0.096699)
(-9.41562e-05 9.41867e-05 0.101371)
(9.41947e-05 -9.4192e-05 0.101371)
(-9.41869e-05 -9.41878e-05 0.101371)
(9.59057e-05 9.58961e-05 0.101765)
(-9.58836e-05 9.59193e-05 0.101765)
(9.59315e-05 -9.59112e-05 0.101765)
(-9.59131e-05 -9.59144e-05 0.101765)
(-0.000253855 1.21515e-05 0.101577)
(-0.000218106 0.000189449 0.101039)
(-0.000164699 3.25166e-05 0.101407)
(-0.000154647 9.21974e-05 0.101578)
(-0.000287732 1.21499e-05 0.101416)
(-0.000187247 0.00017109 0.101111)
(-0.000166052 3.25784e-05 0.101537)
(0.000223432 -0.000115231 0.088398)
(0.000190048 -9.86558e-05 0.0870485)
(1.21992e-05 -0.000253841 0.101577)
(3.25585e-05 -0.000164711 0.101407)
(0.00018948 -0.00021815 0.101039)
(9.21941e-05 -0.000154653 0.101578)
(1.22027e-05 -0.000287731 0.101416)
(3.26154e-05 -0.000166051 0.101537)
(0.000171034 -0.000187195 0.10111)
(-0.00011425 -8.97983e-05 0.1002)
(-8.98909e-05 -0.000114319 0.1002)
(-0.000102585 -0.000102589 0.101648)
(-0.000114513 -7.38117e-05 0.100068)
(-7.39024e-05 -0.00011459 0.100067)
(-8.05929e-06 0.000214572 0.100939)
(4.87621e-06 0.000257205 0.0958738)
(-7.11565e-06 0.000231949 0.100938)
(1.08769e-05 0.000231288 0.0954022)
(-8.17412e-05 0.00015186 0.0849989)
(-5.17088e-05 0.000115888 0.0839406)
(0.000214502 -8.15176e-06 0.100938)
(0.000257303 4.96167e-06 0.0958738)
(0.000232015 -7.20486e-06 0.100938)
(0.000231357 1.09383e-05 0.0954024)
(-9.46461e-05 9.46781e-05 0.101895)
(9.46939e-05 -9.46695e-05 0.101895)
(-9.46723e-05 -9.46746e-05 0.101895)
(8.72977e-05 8.72959e-05 0.102265)
(-8.72864e-05 8.7324e-05 0.102265)
(8.73311e-05 -8.73022e-05 0.102265)
(-8.73106e-05 -8.73091e-05 0.102265)
(-0.000241294 1.08569e-05 0.101973)
(-0.000215329 0.000162772 0.101156)
(-0.000165914 3.2509e-05 0.101924)
(-0.000144926 8.48387e-05 0.102082)
(-0.00027937 1.11837e-05 0.101825)
(-0.000178484 0.000140449 0.101196)
(-0.000157983 3.11586e-05 0.10205)
(0.000151682 -8.1543e-05 0.0849963)
(0.000115976 -5.16998e-05 0.0839415)
(1.08986e-05 -0.000241285 0.101973)
(3.25301e-05 -0.000165913 0.101924)
(0.000162807 -0.00021538 0.101157)
(8.48542e-05 -0.000144931 0.102082)
(1.12203e-05 -0.000279383 0.101825)
(3.1175e-05 -0.00015797 0.10205)
(0.000140407 -0.00017844 0.101195)
(-0.000131773 -7.8267e-05 0.0997389)
(-7.83303e-05 -0.000131843 0.0997385)
(-9.20669e-05 -9.2073e-05 0.102134)
(-0.000124716 -6.01388e-05 0.0995507)
(-6.01961e-05 -0.000124782 0.09955)
(-1.42653e-05 0.000201659 0.10084)
(1.92629e-05 0.000231244 0.0945998)
(-6.16162e-06 0.000218681 0.100875)
(1.93978e-05 0.000194728 0.0941372)
(-5.37081e-05 0.00010317 0.0823613)
(1.18444e-06 6.2308e-05 0.0815574)
(0.000201585 -1.43494e-05 0.10084)
(0.000231281 1.92959e-05 0.0945993)
(0.000218745 -6.23408e-06 0.100876)
(0.000194775 1.94858e-05 0.0941376)
(-8.54393e-05 8.54909e-05 0.102391)
(8.54952e-05 -8.54491e-05 0.102391)
(-8.54682e-05 -8.54599e-05 0.102391)
(6.19449e-05 6.19299e-05 0.102705)
(-6.19445e-05 6.19504e-05 0.102705)
(6.19569e-05 -6.19586e-05 0.102705)
(-6.19553e-05 -6.19619e-05 0.102705)
(-0.00021895 6.06256e-06 0.102329)
(-0.000203036 0.000135373 0.101191)
(-0.000156219 2.93133e-05 0.10242)
(-0.000131447 7.47795e-05 0.102564)
(-0.000259366 9.5902e-06 0.102198)
(-0.000157023 0.000107432 0.101204)
(-0.000147272 2.71066e-05 0.102539)
(0.000103008 -5.35351e-05 0.0823588)
(6.23052e-05 1.2918e-06 0.0815584)
(6.09518e-06 -0.000218947 0.102329)
(2.93132e-05 -0.000156211 0.10242)
(0.000135413 -0.00020309 0.101191)
(7.47908e-05 -0.000131447 0.102564)
(9.62774e-06 -0.000259378 0.102198)
(2.7105e-05 -0.000147255 0.102539)
(0.000107378 -0.000156979 0.101203)
(-0.000137396 -6.35531e-05 0.0991503)
(-6.35945e-05 -0.000137448 0.0991497)
(-7.53874e-05 -7.53896e-05 0.102591)
(-0.000123365 -3.51437e-05 0.0989312)
(-3.52001e-05 -0.000123414 0.0989303)
(-5.28721e-06 2.82622e-05 0.100641)
(-1.31781e-05 9.88371e-05 0.0934526)
(-1.19713e-05 0.000117589 0.100706)
(-2.56614e-05 3.9572e-05 0.0932998)
(1.47853e-05 4.94184e-06 0.0809938)
(1.71859e-06 -1.17076e-05 0.0810326)
(2.8194e-05 -5.34201e-06 0.10064)
(9.88155e-05 -1.31715e-05 0.0934518)
(0.000117695 -1.2015e-05 0.100706)
(3.96238e-05 -2.56174e-05 0.0933004)
(-5.18091e-05 5.17976e-05 0.102773)
(5.18101e-05 -5.18149e-05 0.102773)
(-5.18124e-05 -5.1824e-05 0.102773)
(2.4575e-05 2.45565e-05 0.102892)
(-2.45679e-05 2.45563e-05 0.102892)
(2.45729e-05 -2.4577e-05 0.102892)
(-2.45747e-05 -2.45815e-05 0.102892)
(-4.36087e-05 2.80074e-06 0.102451)
(-9.76278e-05 4.93973e-05 0.101105)
(-8.37687e-05 1.67479e-05 0.102791)
(-5.80452e-05 3.5047e-05 0.102833)
(-0.000137101 2.99101e-06 0.102446)
(-2.73111e-05 1.14656e-05 0.101056)
(-6.43695e-05 1.41487e-05 0.102837)
(4.79152e-06 1.49371e-05 0.0809914)
(-1.16678e-05 1.78172e-06 0.0810334)
(2.85259e-06 -4.35817e-05 0.102451)
(1.67562e-05 -8.37577e-05 0.102791)
(4.94496e-05 -9.76756e-05 0.101105)
(3.50485e-05 -5.80325e-05 0.102833)
(3.00649e-06 -0.000137096 0.102446)
(1.41636e-05 -6.43574e-05 0.102837)
(1.14394e-05 -2.72381e-05 0.101056)
(-4.77645e-05 -5.7491e-06 0.098567)
(-5.74464e-06 -4.77865e-05 0.0985663)
(1.9085e-07 2.23672e-07 0.102807)
(-1.21281e-05 1.53338e-05 0.0984531)
(1.53153e-05 -1.214e-05 0.0984521)
(-6.87273e-07 -9.96857e-06 0.10056)
(-9.19552e-06 1.50613e-05 0.0932294)
(-1.33971e-06 9.61471e-06 0.100562)
(-4.59854e-06 -4.77813e-06 0.093249)
(-7.34045e-06 -1.25393e-06 0.0810837)
(-6.55474e-07 -4.20426e-06 0.081115)
(-1.00414e-05 -7.03001e-07 0.10056)
(1.50379e-05 -9.31759e-06 0.0932286)
(9.6811e-06 -1.33657e-06 0.100562)
(-4.72417e-06 -4.62968e-06 0.0932497)
(-1.7153e-05 1.71429e-05 0.102912)
(1.71572e-05 -1.71601e-05 0.102912)
(-1.716e-05 -1.71657e-05 0.102912)
(3.7783e-06 3.77533e-06 0.102937)
(-3.77582e-06 3.7718e-06 0.102937)
(3.77768e-06 -3.77735e-06 0.102937)
(-3.78152e-06 -3.78422e-06 0.102937)
(9.55619e-06 8.03737e-07 0.102413)
(-2.50442e-05 7.38983e-06 0.100948)
(-2.3967e-05 6.42847e-06 0.102905)
(-1.52261e-05 1.1187e-05 0.102883)
(-2.86844e-05 1.6561e-06 0.102418)
(9.96193e-06 -3.08207e-06 0.100942)
(-1.57985e-05 4.21478e-06 0.102914)
(-1.32901e-06 -7.26549e-06 0.0810809)
(-4.07657e-06 -7.11006e-07 0.0811157)
(8.23522e-07 9.56496e-06 0.102413)
(6.44341e-06 -2.39673e-05 0.102905)
(7.45698e-06 -2.50773e-05 0.100948)
(1.11961e-05 -1.52214e-05 0.102883)
(1.66867e-06 -2.86965e-05 0.102418)
(4.22532e-06 -1.5795e-05 0.102914)
(-3.09799e-06 1.00261e-05 0.100941)
(-7.41568e-06 -9.83104e-07 0.0983033)
(-9.47292e-07 -7.41984e-06 0.0983026)
(3.56204e-05 3.56327e-05 0.102816)
(2.96872e-06 6.58053e-06 0.0982893)
(6.57971e-06 2.95672e-06 0.0982883)
(-2.06852e-08 -9.36785e-06 0.100551)
(2.44871e-07 6.82039e-06 0.0932334)
(-2.93462e-07 9.07834e-06 0.10054)
(-1.21644e-06 -6.60641e-06 0.0932514)
(-2.31423e-06 2.61522e-06 0.0811004)
(1.77628e-06 -2.77971e-06 0.0811188)
(-9.43887e-06 -2.53174e-08 0.10055)
(6.78382e-06 2.03261e-07 0.0932326)
(9.14444e-06 -2.74605e-07 0.10054)
(-6.5701e-06 -1.1808e-06 0.0932521)
(-1.85102e-06 1.84895e-06 0.102939)
(1.85291e-06 -1.85158e-06 0.102939)
(-1.85653e-06 -1.85763e-06 0.102939)
(-3.35248e-07 -3.30283e-07 0.102941)
(3.32757e-07 -3.31473e-07 0.102941)
(-3.28892e-07 3.33032e-07 0.102941)
(3.26998e-07 3.29354e-07 0.102941)
(1.47838e-05 8.07978e-08 0.102404)
(-1.56954e-05 4.4934e-06 0.100909)
(-3.62357e-06 6.89729e-07 0.102923)
(-1.99585e-06 1.82706e-06 0.102886)
(-1.6575e-05 -2.27135e-08 0.1024)
(1.38627e-05 -4.54591e-06 0.100926)
(-2.18625e-06 2.70419e-07 0.102924)
(2.50511e-06 -2.24027e-06 0.0810974)
(-2.66611e-06 1.72208e-06 0.0811193)
(9.24592e-08 1.47928e-05 0.102404)
(6.9146e-07 -3.62387e-06 0.102923)
(4.54268e-06 -1.57549e-05 0.100909)
(1.82552e-06 -1.99823e-06 0.102886)
(-2.59982e-08 -1.65852e-05 0.1024)
(2.70538e-07 -2.18275e-06 0.102924)
(-4.58885e-06 1.39117e-05 0.100926)
(-4.86213e-06 -5.62571e-06 0.0982527)
(-5.6098e-06 -4.85652e-06 0.098252)
(4.48169e-05 4.48356e-05 0.102809)
(4.13955e-06 5.33672e-06 0.0982697)
(5.3317e-06 4.13169e-06 0.0982688)
(5.59072e-08 -9.39417e-06 0.100551)
(6.99404e-07 6.78284e-06 0.0932335)
(-9.19908e-08 9.09495e-06 0.100538)
(-1.11068e-06 -6.58888e-06 0.0932516)
(-1.94311e-06 2.77842e-06 0.0811003)
(1.88851e-06 -2.75731e-06 0.0811188)
(-9.46301e-06 5.09695e-08 0.10055)
(6.74229e-06 6.64248e-07 0.0932326)
(9.16506e-06 -7.55618e-08 0.100538)
(-6.55072e-06 -1.07253e-06 0.0932522)
(5.23202e-07 -5.21533e-07 0.102941)
(-5.18884e-07 5.23274e-07 0.102941)
(5.17635e-07 5.20133e-07 0.102941)
(-6.86979e-07 -6.8029e-07 0.102941)
(6.86264e-07 -6.82881e-07 0.102941)
(-6.81047e-07 6.86582e-07 0.102941)
(6.8102e-07 6.83651e-07 0.102941)
(1.52098e-05 7.87199e-08 0.102403)
(-1.48775e-05 4.20735e-06 0.100907)
(-7.69505e-07 -1.40877e-07 0.102924)
(-5.24382e-07 7.70719e-07 0.102885)
(-1.54113e-05 -9.51273e-08 0.102398)
(1.41854e-05 -4.61974e-06 0.100926)
(-6.6837e-07 -1.67295e-07 0.102924)
(2.66152e-06 -1.86822e-06 0.0810974)
(-2.63875e-06 1.83122e-06 0.0811194)
(8.66402e-08 1.52212e-05 0.102403)
(-1.42784e-07 -7.68257e-07 0.102924)
(4.24334e-06 -1.49281e-05 0.100907)
(7.67122e-07 -5.25129e-07 0.102885)
(-9.93938e-08 -1.54274e-05 0.102398)
(-1.69623e-07 -6.63067e-07 0.102924)
(-4.66592e-06 1.42381e-05 0.100925)
(-4.55105e-06 -5.55982e-06 0.09825)
(-5.54741e-06 -4.54467e-06 0.0982493)
(4.55414e-05 4.55597e-05 0.102808)
(4.23303e-06 5.40173e-06 0.0982691)
(5.39479e-06 4.22571e-06 0.0982681)
(6.83243e-08 -9.38366e-06 0.100551)
(7.15529e-07 6.79504e-06 0.0932335)
(-7.76822e-08 9.09877e-06 0.100538)
(-1.09148e-06 -6.58035e-06 0.0932516)
(-1.92968e-06 2.78256e-06 0.0811003)
(1.88871e-06 -2.75076e-06 0.0811188)
(-9.45334e-06 5.62859e-08 0.10055)
(6.75342e-06 6.77924e-07 0.0932327)
(9.16783e-06 -6.24042e-08 0.100538)
(-6.53224e-06 -1.05859e-06 0.0932524)
(6.9577e-07 -6.92226e-07 0.102941)
(-6.90793e-07 6.96383e-07 0.102941)
(6.90847e-07 6.9357e-07 0.102941)
(-7.00688e-07 -6.91038e-07 0.102941)
(7.03129e-07 -6.95715e-07 0.102941)
(-6.96821e-07 7.04182e-07 0.102941)
(6.97355e-07 7.00423e-07 0.102941)
(1.52182e-05 8.15076e-08 0.102403)
(-1.48342e-05 4.21646e-06 0.100907)
(-6.01149e-07 -1.83328e-07 0.102924)
(-4.69633e-07 7.22416e-07 0.102885)
(-1.5361e-05 -8.98772e-08 0.102398)
(1.41896e-05 -4.60894e-06 0.100926)
(-5.96404e-07 -1.844e-07 0.102924)
(2.66915e-06 -1.85955e-06 0.0810974)
(-2.63394e-06 1.82996e-06 0.0811194)
(8.87858e-08 1.52296e-05 0.102403)
(-1.86201e-07 -5.99547e-07 0.102924)
(4.25357e-06 -1.48864e-05 0.100907)
(7.16974e-07 -4.7008e-07 0.102885)
(-9.55974e-08 -1.53747e-05 0.102398)
(-1.87426e-07 -5.90893e-07 0.102924)
(-4.65224e-06 1.42402e-05 0.100925)
(-4.54357e-06 -5.55137e-06 0.09825)
(-5.53925e-06 -4.53701e-06 0.0982492)
(4.55649e-05 4.55833e-05 0.102808)
(4.23006e-06 5.39881e-06 0.0982691)
(5.39169e-06 4.22274e-06 0.0982681)
(6.54022e-08 -9.37959e-06 0.100551)
(8.00652e-07 6.83081e-06 0.0932337)
(-6.52119e-08 9.10446e-06 0.100538)
(-1.12233e-06 -6.59085e-06 0.0932516)
(-1.91814e-06 2.77658e-06 0.0811003)
(1.89047e-06 -2.74821e-06 0.0811188)
(-9.44944e-06 5.54264e-08 0.10055)
(6.75316e-06 6.78034e-07 0.0932327)
(9.17243e-06 -6.07466e-08 0.100538)
(-6.53182e-06 -1.05997e-06 0.0932524)
(7.03799e-07 -6.97209e-07 0.102941)
(-6.9683e-07 7.03783e-07 0.102941)
(6.97425e-07 7.00165e-07 0.102941)
(-7.04723e-07 -6.98958e-07 0.102941)
(7.02994e-07 -6.97179e-07 0.102941)
(-6.97693e-07 7.03638e-07 0.102941)
(6.97878e-07 6.99964e-07 0.102941)
(1.52139e-05 8.126e-08 0.102403)
(-1.48333e-05 4.21851e-06 0.100907)
(-5.98035e-07 -1.8387e-07 0.102924)
(-4.69538e-07 7.20956e-07 0.102885)
(-1.53623e-05 -8.88126e-08 0.102398)
(1.41866e-05 -4.60827e-06 0.100926)
(-5.96108e-07 -1.84441e-07 0.102924)
(2.66208e-06 -1.85462e-06 0.0810974)
(-2.63007e-06 1.82742e-06 0.0811194)
(8.90462e-08 1.52251e-05 0.102403)
(-1.86597e-07 -5.96655e-07 0.102924)
(4.25578e-06 -1.48875e-05 0.100907)
(7.16195e-07 -4.70067e-07 0.102885)
(-9.51742e-08 -1.53761e-05 0.102398)
(-1.87295e-07 -5.90955e-07 0.102924)
(-4.65123e-06 1.42371e-05 0.100925)
(-4.5424e-06 -5.55228e-06 0.09825)
(-5.54037e-06 -4.53598e-06 0.0982493)
(4.55635e-05 4.55817e-05 0.102808)
(4.22794e-06 5.3994e-06 0.0982691)
(5.39268e-06 4.22029e-06 0.0982681)
(6.05131e-08 -9.38134e-06 0.100551)
(7.19418e-07 6.81136e-06 0.0932337)
(-8.08885e-08 9.09979e-06 0.100538)
(-1.10702e-06 -6.58902e-06 0.0932516)
(-1.91922e-06 2.77614e-06 0.0811003)
(1.8897e-06 -2.74627e-06 0.0811188)
(-9.44954e-06 5.28921e-08 0.10055)
(6.75451e-06 6.73803e-07 0.0932327)
(9.17098e-06 -6.41087e-08 0.100538)
(-6.53012e-06 -1.06116e-06 0.0932524)
(7.04131e-07 -6.97575e-07 0.102941)
(-6.97609e-07 7.02967e-07 0.102941)
(6.97566e-07 6.98966e-07 0.102941)
(-7.03649e-07 -7.00102e-07 0.102941)
(7.0934e-07 -6.89349e-07 0.102941)
(-6.96844e-07 7.03328e-07 0.102941)
(6.98701e-07 6.96279e-07 0.102941)
(1.52109e-05 8.048e-08 0.102403)
(-1.48316e-05 4.2179e-06 0.100907)
(-6.00057e-07 -1.84692e-07 0.102924)
(-4.71776e-07 7.18793e-07 0.102885)
(-1.53594e-05 -8.93693e-08 0.102398)
(1.41871e-05 -4.60871e-06 0.100926)
(-5.98332e-07 -1.85215e-07 0.102924)
(2.66398e-06 -1.85809e-06 0.0810974)
(-2.63054e-06 1.82377e-06 0.0811194)
(8.88508e-08 1.52229e-05 0.102403)
(-1.8675e-07 -5.97185e-07 0.102924)
(4.25704e-06 -1.48858e-05 0.100907)
(7.15221e-07 -4.69933e-07 0.102885)
(-9.51674e-08 -1.53732e-05 0.102398)
(-1.87426e-07 -5.906e-07 0.102924)
(-4.65031e-06 1.42351e-05 0.100925)
(-4.54543e-06 -5.5529e-06 0.09825)
(-5.54021e-06 -4.53967e-06 0.0982493)
(4.5558e-05 4.55762e-05 0.102808)
(4.22903e-06 5.39782e-06 0.0982691)
(5.39176e-06 4.22074e-06 0.0982681)
(1.87906e-05 1.87798e-05 0.100003)
(8.10243e-05 0.000135052 0.100054)
(0.000135113 8.10355e-05 0.100054)
(0.000413838 0.0010423 0.0978722)
(0.000115165 0.000204359 0.100125)
(0.00104139 0.000411212 0.0978721)
(0.000204507 0.000115193 0.100125)
(0.000102306 0.000102269 0.100042)
(0.000117765 0.000514113 0.100269)
(0.000512976 0.000117386 0.100269)
(0.000117292 0.000180236 0.100097)
(0.000180375 0.000117313 0.100097)
(5.72173e-06 4.67014e-05 0.100008)
(1.56193e-05 1.52982e-05 0.0999999)
(6.04374e-05 0.000127944 0.100057)
(-8.55766e-07 1.31061e-05 0.0999958)
(-5.73278e-06 4.67101e-05 0.100008)
(-1.5617e-05 1.5293e-05 0.0999999)
(-6.041e-05 0.000127932 0.100057)
(8.56293e-07 1.31067e-05 0.0999958)
(4.58927e-06 0.000154559 0.100054)
(0.000326786 0.0003159 0.0993469)
(9.83624e-05 0.000167643 0.100056)
(7.33236e-06 0.000328127 0.100415)
(-4.62893e-06 0.000154574 0.100054)
(-0.000326251 0.000316609 0.0993468)
(-9.82993e-05 0.000167604 0.100056)