/*--------------------------------*- C++ -*----------------------------------*\
| =========                 |                                                 |
| \\      /  F ield         | OpenFOAM: The Open Source CFD Toolbox           |
|  \\    /   O peration     | Version:  2206                                  |
|   \\  /    A nd           | Website:  www.openfoam.com                      |
|    \\/     M anipulation  |                                                 |
\*---------------------------------------------------------------------------*/
FoamFile
{
    version     2.0;
    format      ascii;
    arch        "LSB;label=32;scalar=64";
    class       volScalarField;
    location    "31";
    object      epsilon;
}
// * * * * * * * * * * * * * * * * * * * * * * * * * * * * * * * * * * * * * //

dimensions      [0 2 -3 0 0 0 0];

internalField   nonuniform List<scalar> 
28335
(
2.70924e-07
2.98636e-07
2.98647e-07
3.32607e-07
2.70925e-07
2.9864e-07
2.98651e-07
3.32612e-07
2.70927e-07
2.98643e-07
2.98654e-07
3.32619e-07
2.70926e-07
2.98647e-07
2.98657e-07
3.32627e-07
2.70923e-07
2.98647e-07
2.98658e-07
3.32634e-07
2.7092e-07
2.98649e-07
2.9866e-07
3.32638e-07
2.70896e-07
2.98619e-07
2.98629e-07
3.32621e-07
2.70811e-07
2.9853e-07
2.98541e-07
3.32507e-07
2.70802e-07
2.98523e-07
2.98534e-07
3.32498e-07
2.70802e-07
2.98523e-07
2.98533e-07
3.32501e-07
2.70801e-07
2.98523e-07
2.98533e-07
3.32499e-07
2.70801e-07
2.98522e-07
2.98533e-07
3.32503e-07
2.70801e-07
2.98522e-07
2.98533e-07
3.32502e-07
2.70801e-07
2.98522e-07
2.98533e-07
3.32499e-07
2.70801e-07
2.98522e-07
2.98533e-07
3.32499e-07
2.70801e-07
2.98522e-07
2.98533e-07
3.32499e-07
2.70801e-07
2.98522e-07
2.98533e-07
3.325e-07
3.32333e-07
2.98659e-07
2.98664e-07
3.32324e-07
2.98643e-07
2.98671e-07
2.98636e-07
2.98662e-07
3.32341e-07
2.98647e-07
2.98645e-07
3.3234e-07
3.32602e-07
3.32339e-07
2.98662e-07
2.98667e-07
2.98661e-07
2.98667e-07
3.32593e-07
3.32329e-07
2.98646e-07
2.98674e-07
2.98645e-07
2.98674e-07
2.98665e-07
2.98639e-07
2.98664e-07
3.32609e-07
3.32346e-07
2.98648e-07
2.9865e-07
2.98648e-07
3.32346e-07
3.32608e-07
3.32345e-07
2.98664e-07
2.9867e-07
2.98665e-07
2.9867e-07
3.32598e-07
3.32335e-07
2.98649e-07
2.98677e-07
2.98649e-07
2.98677e-07
2.98667e-07
2.98643e-07
2.98667e-07
3.32615e-07
3.32352e-07
2.98651e-07
2.98654e-07
2.98651e-07
3.32352e-07
3.32614e-07
3.32353e-07
2.98668e-07
2.98673e-07
2.98669e-07
2.98674e-07
3.32605e-07
3.32343e-07
2.98652e-07
2.9868e-07
2.98653e-07
2.98681e-07
2.98671e-07
2.98646e-07
2.98671e-07
3.32621e-07
3.3236e-07
2.98654e-07
2.98657e-07
2.98655e-07
3.3236e-07
3.32622e-07
3.32361e-07
2.98672e-07
2.98677e-07
2.98671e-07
2.98676e-07
3.32613e-07
3.32351e-07
2.98656e-07
2.98684e-07
2.98655e-07
2.98684e-07
2.98675e-07
2.98647e-07
2.98674e-07
3.32629e-07
3.32368e-07
2.98658e-07
2.98658e-07
2.98657e-07
3.32368e-07
3.3263e-07
3.32366e-07
2.98673e-07
2.98678e-07
2.98671e-07
2.98677e-07
3.32621e-07
3.32357e-07
2.98657e-07
2.98685e-07
2.98655e-07
2.98684e-07
2.98675e-07
2.98649e-07
2.98674e-07
3.32637e-07
3.32373e-07
2.98658e-07
2.9866e-07
2.98657e-07
3.32372e-07
3.32634e-07
3.32355e-07
2.98673e-07
2.98678e-07
2.98662e-07
2.98667e-07
3.32626e-07
3.32345e-07
2.98657e-07
2.98686e-07
2.98646e-07
2.98675e-07
2.98676e-07
2.98639e-07
2.98665e-07
3.32641e-07
3.32362e-07
2.98659e-07
2.9865e-07
2.98648e-07
3.32362e-07
3.32616e-07
3.32246e-07
2.98642e-07
2.98647e-07
2.98567e-07
2.98572e-07
3.32607e-07
3.32237e-07
2.98626e-07
2.98655e-07
2.98551e-07
2.98579e-07
2.98646e-07
2.98544e-07
2.9857e-07
3.32623e-07
3.32254e-07
2.98629e-07
2.98555e-07
2.98553e-07
3.32253e-07
3.32503e-07
3.32221e-07
2.98555e-07
2.9856e-07
2.98546e-07
2.98551e-07
3.32494e-07
3.32211e-07
2.98539e-07
2.98567e-07
2.9853e-07
2.98559e-07
2.98558e-07
2.98523e-07
2.9855e-07
3.3251e-07
3.32228e-07
2.98541e-07
2.98534e-07
2.98533e-07
3.32229e-07
3.32492e-07
3.32229e-07
2.98548e-07
2.98554e-07
2.98546e-07
2.98551e-07
3.32483e-07
3.32219e-07
2.98533e-07
2.98561e-07
2.9853e-07
2.98559e-07
2.98552e-07
2.98523e-07
2.98549e-07
3.32499e-07
3.32236e-07
2.98535e-07
2.98534e-07
2.98533e-07
3.32237e-07
3.32496e-07
3.32227e-07
2.98547e-07
2.98552e-07
2.98545e-07
2.9855e-07
3.32487e-07
3.32217e-07
2.98531e-07
2.9856e-07
2.9853e-07
2.98558e-07
2.98551e-07
2.98523e-07
2.98548e-07
3.32503e-07
3.32234e-07
2.98534e-07
2.98533e-07
2.98531e-07
3.32234e-07
3.32494e-07
3.32229e-07
2.98546e-07
2.98552e-07
2.98545e-07
2.9855e-07
3.32485e-07
3.32219e-07
2.98532e-07
2.98559e-07
2.9853e-07
2.98558e-07
2.9855e-07
2.98523e-07
2.98549e-07
3.32502e-07
3.32236e-07
2.98533e-07
2.98533e-07
2.98532e-07
3.32237e-07
3.32497e-07
3.32226e-07
2.98546e-07
2.98552e-07
2.98545e-07
2.9855e-07
3.32488e-07
3.32217e-07
2.98531e-07
2.98559e-07
2.98529e-07
2.98558e-07
2.9855e-07
2.98522e-07
2.98548e-07
3.32504e-07
3.32234e-07
2.98533e-07
2.98533e-07
2.98531e-07
3.32234e-07
3.32495e-07
3.32225e-07
2.98547e-07
2.98553e-07
2.98545e-07
2.9855e-07
3.32486e-07
3.32216e-07
2.98532e-07
2.9856e-07
2.98529e-07
2.98558e-07
2.98551e-07
2.98522e-07
2.98548e-07
3.32503e-07
3.32233e-07
2.98534e-07
2.98533e-07
2.98531e-07
3.32232e-07
3.32494e-07
3.32226e-07
2.98546e-07
2.98552e-07
2.98545e-07
2.9855e-07
3.32485e-07
3.32217e-07
2.98531e-07
2.98559e-07
2.98529e-07
2.98558e-07
2.9855e-07
2.98522e-07
2.98548e-07
3.32501e-07
3.32233e-07
2.98533e-07
2.98533e-07
2.98531e-07
3.32233e-07
3.32494e-07
3.32226e-07
2.98546e-07
2.98552e-07
2.98545e-07
2.9855e-07
3.32485e-07
3.32217e-07
2.98531e-07
2.98559e-07
2.98529e-07
2.98558e-07
2.9855e-07
2.98522e-07
2.98548e-07
3.32501e-07
3.32233e-07
2.98533e-07
2.98533e-07
2.98531e-07
3.32234e-07
3.32494e-07
3.32226e-07
2.98547e-07
2.98552e-07
2.98545e-07
2.9855e-07
3.32485e-07
3.32216e-07
2.98531e-07
2.9856e-07
2.98529e-07
2.98558e-07
2.9855e-07
2.98522e-07
2.98548e-07
3.32501e-07
3.32233e-07
2.98533e-07
2.98533e-07
2.98531e-07
3.32234e-07
3.32494e-07
2.98547e-07
2.98552e-07
3.32485e-07
2.98531e-07
2.98559e-07
2.98549e-07
3.32501e-07
2.98533e-07
1.77594e-06
8.8946e-06
2.19308e-05
1.77584e-06
8.89611e-06
2.70924e-07
2.70925e-07
2.70929e-07
2.70927e-07
5.52852e-07
2.98636e-07
1.41596e-06
2.80469e-07
2.19304e-05
5.5287e-07
2.98647e-07
2.80471e-07
1.41593e-06
3.32332e-07
3.09387e-06
3.09473e-06
1.77616e-06
8.89477e-06
1.77668e-06
8.89438e-06
2.19289e-05
2.19281e-05
1.77606e-06
8.89628e-06
1.77653e-06
8.89585e-06
2.70926e-07
2.7093e-07
2.70928e-07
2.70925e-07
2.70926e-07
2.70929e-07
2.70927e-07
5.52883e-07
1.41691e-06
2.80468e-07
2.98639e-07
5.53035e-07
1.41614e-06
2.80471e-07
2.19291e-05
2.1928e-05
5.52902e-07
2.8047e-07
1.41685e-06
2.9865e-07
5.53058e-07
2.80473e-07
1.41611e-06
3.09476e-06
3.0956e-06
3.32343e-07
3.09432e-06
3.09516e-06
1.77626e-06
8.89465e-06
1.77681e-06
8.8942e-06
2.19273e-05
2.1927e-05
1.77615e-06
8.89612e-06
1.77666e-06
8.89565e-06
2.70926e-07
2.70929e-07
2.70927e-07
2.70927e-07
2.70925e-07
2.70928e-07
2.70926e-07
5.52912e-07
1.41703e-06
2.8047e-07
2.98643e-07
5.53065e-07
1.41622e-06
2.80472e-07
2.19275e-05
2.19269e-05
5.5293e-07
2.80472e-07
1.41697e-06
2.98654e-07
5.53088e-07
2.80475e-07
1.41619e-06
3.09496e-06
3.09579e-06
3.32349e-07
3.09441e-06
3.09525e-06
1.77628e-06
8.89448e-06
1.77686e-06
8.89409e-06
2.1927e-05
2.1927e-05
1.77616e-06
8.89595e-06
1.77669e-06
8.89554e-06
2.70927e-07
2.70931e-07
2.70929e-07
2.70927e-07
2.70927e-07
2.7093e-07
2.70929e-07
5.52932e-07
1.41707e-06
2.80471e-07
2.98646e-07
5.5309e-07
1.41625e-06
2.80474e-07
2.19269e-05
2.19267e-05
5.52949e-07
2.80474e-07
1.417e-06
2.98657e-07
5.53111e-07
2.80476e-07
1.41622e-06
3.095e-06
3.09583e-06
3.32356e-07
3.09448e-06
3.09532e-06
1.77625e-06
8.89445e-06
1.77684e-06
8.89409e-06
2.19272e-05
2.19273e-05
1.77613e-06
8.89594e-06
1.77666e-06
8.89557e-06
2.70927e-07
2.7093e-07
2.70928e-07
2.70924e-07
2.70924e-07
2.70927e-07
2.70925e-07
5.52943e-07
1.41709e-06
2.80473e-07
2.98649e-07
5.53102e-07
1.41627e-06
2.80474e-07
2.19272e-05
2.19272e-05
5.52959e-07
2.80475e-07
1.41702e-06
2.98659e-07
5.53122e-07
2.80477e-07
1.41623e-06
3.09512e-06
3.09595e-06
3.32364e-07
3.0946e-06
3.09544e-06
1.77625e-06
8.89451e-06
1.77682e-06
8.89419e-06
2.19278e-05
2.19281e-05
1.77614e-06
8.89602e-06
1.77665e-06
8.89569e-06
2.70923e-07
2.70927e-07
2.70924e-07
2.70921e-07
2.7092e-07
2.70923e-07
2.70921e-07
5.52953e-07
1.4171e-06
2.80471e-07
2.98649e-07
5.53112e-07
1.41627e-06
2.80471e-07
2.19278e-05
2.1928e-05
5.52971e-07
2.80472e-07
1.41702e-06
2.9866e-07
5.53135e-07
2.80473e-07
1.41623e-06
3.09519e-06
3.09602e-06
3.32371e-07
3.09461e-06
3.09545e-06
1.77637e-06
8.89485e-06
1.77684e-06
8.89472e-06
2.19286e-05
2.19284e-05
1.77626e-06
8.89624e-06
1.77668e-06
8.89604e-06
2.70919e-07
2.70923e-07
2.70921e-07
2.70912e-07
2.70912e-07
2.70916e-07
2.70914e-07
5.52965e-07
1.41714e-06
2.80469e-07
2.98649e-07
5.53122e-07
1.41637e-06
2.80468e-07
2.19287e-05
2.19283e-05
5.5298e-07
2.80471e-07
1.41707e-06
2.9866e-07
5.53141e-07
2.80471e-07
1.41633e-06
3.09521e-06
3.09604e-06
3.32373e-07
3.09474e-06
3.09557e-06
1.77634e-06
8.89526e-06
1.77704e-06
8.89488e-06
2.19274e-05
2.1927e-05
1.77623e-06
8.89655e-06
1.77688e-06
8.89612e-06
2.70898e-07
2.70901e-07
2.709e-07
2.70825e-07
2.70824e-07
2.70827e-07
2.70825e-07
5.52874e-07
1.41722e-06
2.80445e-07
2.98593e-07
5.53097e-07
1.41631e-06
2.8042e-07
2.19276e-05
2.19271e-05
5.52889e-07
2.80446e-07
1.41715e-06
2.98603e-07
5.53118e-07
2.80422e-07
1.41627e-06
3.0953e-06
3.09613e-06
3.32317e-07
3.09464e-06
3.09548e-06
1.7761e-06
8.89514e-06
1.77675e-06
8.89472e-06
2.19269e-05
2.19268e-05
1.77599e-06
8.89637e-06
1.77659e-06
8.89591e-06
2.70812e-07
2.70816e-07
2.70814e-07
2.70802e-07
2.70803e-07
2.70807e-07
2.70805e-07
5.52776e-07
1.417e-06
2.80358e-07
2.98526e-07
5.52961e-07
1.41613e-06
2.80354e-07
2.1927e-05
2.19268e-05
5.52792e-07
2.8036e-07
1.41694e-06
2.98537e-07
5.52979e-07
2.80356e-07
1.41609e-06
3.09501e-06
3.09584e-06
3.32223e-07
3.09438e-06
3.09522e-06
1.77606e-06
8.89505e-06
1.77665e-06
8.89467e-06
2.19268e-05
2.19268e-05
1.77595e-06
8.89625e-06
1.77649e-06
8.89585e-06
2.70805e-07
2.70809e-07
2.70807e-07
2.70802e-07
2.70803e-07
2.70807e-07
2.70805e-07
5.52764e-07
1.41693e-06
2.80351e-07
2.98525e-07
5.52927e-07
1.41609e-06
2.80354e-07
2.1927e-05
2.19268e-05
5.52781e-07
2.80353e-07
1.41686e-06
2.98536e-07
5.52947e-07
2.80356e-07
1.41606e-06
3.0949e-06
3.09572e-06
3.32239e-07
3.09433e-06
3.09516e-06
1.77605e-06
8.89503e-06
1.77664e-06
8.89467e-06
2.19268e-05
2.19268e-05
1.77595e-06
8.89623e-06
1.77648e-06
8.89583e-06
2.70804e-07
2.70808e-07
2.70806e-07
2.70802e-07
2.70803e-07
2.70807e-07
2.70805e-07
5.52762e-07
1.41692e-06
2.8035e-07
2.98524e-07
5.52926e-07
1.41609e-06
2.80352e-07
2.1927e-05
2.19268e-05
5.52779e-07
2.80352e-07
1.41685e-06
2.98535e-07
5.52947e-07
2.80354e-07
1.41605e-06
3.09488e-06
3.09571e-06
3.32234e-07
3.09432e-06
3.09516e-06
1.77605e-06
8.89503e-06
1.77664e-06
8.89467e-06
2.19268e-05
2.19268e-05
1.77595e-06
8.89622e-06
1.77648e-06
8.89582e-06
2.70804e-07
2.70808e-07
2.70806e-07
2.70802e-07
2.70803e-07
2.70807e-07
2.70805e-07
5.52761e-07
1.41692e-06
2.8035e-07
2.98524e-07
5.52924e-07
1.41609e-06
2.80352e-07
2.1927e-05
2.19268e-05
5.52779e-07
2.80352e-07
1.41685e-06
2.98535e-07
5.52946e-07
2.80354e-07
1.41605e-06
3.09488e-06
3.09571e-06
3.32233e-07
3.09432e-06
3.09516e-06
1.77605e-06
8.89503e-06
1.77664e-06
8.89467e-06
2.19268e-05
2.19268e-05
1.77595e-06
8.89621e-06
1.77648e-06
8.89582e-06
2.70804e-07
2.70808e-07
2.70806e-07
2.70802e-07
2.70803e-07
2.70807e-07
2.70805e-07
5.52762e-07
1.41692e-06
2.8035e-07
2.98524e-07
5.52925e-07
1.41609e-06
2.80352e-07
2.1927e-05
2.19268e-05
5.52785e-07
2.80352e-07
1.41685e-06
2.98535e-07
5.52948e-07
2.80354e-07
1.41605e-06
3.09488e-06
3.09571e-06
3.32233e-07
3.09432e-06
3.09516e-06
1.77605e-06
8.89503e-06
1.77664e-06
8.89467e-06
2.19269e-05
2.19268e-05
1.77595e-06
8.89621e-06
1.77648e-06
8.89582e-06
2.70805e-07
2.70808e-07
2.70806e-07
2.70802e-07
2.70803e-07
2.70807e-07
2.70805e-07
5.52761e-07
1.41692e-06
2.80351e-07
2.98524e-07
5.52925e-07
1.41609e-06
2.80352e-07
2.1927e-05
2.19268e-05
5.52794e-07
2.80353e-07
1.41685e-06
2.98535e-07
5.52958e-07
2.80354e-07
1.41605e-06
3.09488e-06
3.09571e-06
3.32237e-07
3.09432e-06
3.09516e-06
1.77605e-06
8.89503e-06
1.77664e-06
8.89467e-06
2.19269e-05
2.19268e-05
1.77595e-06
8.89621e-06
1.77648e-06
8.89582e-06
2.70804e-07
2.70808e-07
2.70806e-07
2.70802e-07
2.70803e-07
2.70807e-07
2.70805e-07
5.5276e-07
1.41692e-06
2.8035e-07
2.98524e-07
5.52923e-07
1.41609e-06
2.80352e-07
2.1927e-05
2.19268e-05
5.52798e-07
2.80353e-07
1.41685e-06
2.98535e-07
5.52964e-07
2.80354e-07
1.41605e-06
3.09488e-06
3.09571e-06
3.32237e-07
3.09432e-06
3.09516e-06
1.77605e-06
8.89503e-06
1.77664e-06
8.89467e-06
2.19269e-05
2.19268e-05
1.77595e-06
8.89621e-06
1.77648e-06
8.89582e-06
2.70804e-07
2.70808e-07
2.70806e-07
2.70802e-07
2.70803e-07
2.70807e-07
2.70805e-07
5.52762e-07
1.41692e-06
2.8035e-07
2.98524e-07
5.52925e-07
1.41609e-06
2.80352e-07
2.1927e-05
2.19268e-05
5.52798e-07
2.80353e-07
1.41685e-06
2.98535e-07
5.52966e-07
2.80355e-07
1.41605e-06
3.09488e-06
3.09571e-06
3.32236e-07
3.09432e-06
3.09516e-06
1.77605e-06
8.89503e-06
1.77664e-06
8.89467e-06
2.19269e-05
2.19268e-05
1.77595e-06
8.89621e-06
1.77648e-06
8.89582e-06
2.70804e-07
2.70808e-07
2.70806e-07
2.70802e-07
2.70803e-07
2.70807e-07
2.70805e-07
5.52762e-07
1.41692e-06
2.8035e-07
2.98524e-07
5.52926e-07
1.41609e-06
2.80352e-07
2.1927e-05
2.19268e-05
5.52797e-07
2.80353e-07
1.41685e-06
2.98535e-07
5.52965e-07
2.80354e-07
1.41605e-06
3.09488e-06
3.09571e-06
3.32235e-07
3.09432e-06
3.09516e-06
1.77605e-06
8.89503e-06
1.77664e-06
8.89467e-06
2.19269e-05
2.19268e-05
1.77595e-06
8.89621e-06
1.77648e-06
8.89582e-06
2.70805e-07
2.70807e-07
2.70805e-07
5.52764e-07
1.41692e-06
2.8035e-07
2.98523e-07
5.52926e-07
1.41608e-06
2.80352e-07
2.1927e-05
2.19268e-05
5.52797e-07
2.80353e-07
1.41685e-06
2.98535e-07
5.52963e-07
2.80355e-07
1.41605e-06
3.09488e-06
3.09571e-06
3.32235e-07
3.0944e-06
3.09529e-06
2.19299e-05
2.19311e-05
3.32325e-07
3.09384e-06
3.09463e-06
2.19282e-05
2.19297e-05
2.19294e-05
2.19308e-05
3.32597e-07
3.09406e-06
3.09487e-06
3.09441e-06
3.09522e-06
1.77596e-06
8.89549e-06
5.52849e-07
2.98658e-07
1.41588e-06
2.8047e-07
5.52853e-07
2.98664e-07
1.41607e-06
2.80471e-07
1.77656e-06
8.89443e-06
8.89491e-06
1.77607e-06
1.77658e-06
8.89531e-06
8.8958e-06
1.77609e-06
5.53021e-07
2.98658e-07
1.41598e-06
2.80469e-07
1.41669e-06
2.80469e-07
5.52865e-07
5.53025e-07
2.98664e-07
1.41617e-06
2.8047e-07
1.41689e-06
2.8047e-07
5.52869e-07
3.32316e-07
3.09464e-06
3.0936e-06
2.19279e-05
2.19291e-05
2.19305e-05
3.32588e-07
3.09503e-06
3.09393e-06
3.09531e-06
3.09431e-06
2.19264e-05
2.19279e-05
5.52871e-07
2.98643e-07
1.41618e-06
2.80471e-07
1.77582e-06
8.89561e-06
5.5286e-07
2.98671e-07
2.80475e-07
1.41624e-06
1.7764e-06
8.89593e-06
8.89644e-06
1.77597e-06
5.53039e-07
2.98643e-07
1.41628e-06
2.80471e-07
1.41699e-06
2.80471e-07
5.52888e-07
1.77639e-06
8.89545e-06
8.89595e-06
1.77596e-06
5.5303e-07
2.98671e-07
2.80474e-07
1.41635e-06
2.80474e-07
1.4171e-06
5.52876e-07
1.77598e-06
8.895e-06
5.52857e-07
2.98662e-07
2.80471e-07
1.41594e-06
1.77597e-06
8.89564e-06
5.53022e-07
2.98636e-07
1.41606e-06
2.80468e-07
1.41681e-06
2.80469e-07
5.52868e-07
1.77659e-06
8.89482e-06
8.89534e-06
1.77611e-06
5.53027e-07
2.98662e-07
2.80471e-07
1.41605e-06
2.80471e-07
1.41676e-06
5.52873e-07
1.77659e-06
8.89547e-06
8.89595e-06
1.7761e-06
3.32333e-07
3.09464e-06
3.09388e-06
2.19308e-05
2.1929e-05
2.19305e-05
3.32604e-07
3.09502e-06
3.09411e-06
3.09537e-06
3.09447e-06
2.1929e-05
2.19305e-05
5.52874e-07
2.98645e-07
2.80471e-07
1.41611e-06
1.77582e-06
8.89579e-06
1.77583e-06
8.89641e-06
5.53045e-07
2.98647e-07
2.8047e-07
1.41603e-06
2.80471e-07
1.41675e-06
5.52886e-07
5.53049e-07
2.98645e-07
2.8047e-07
1.41621e-06
2.8047e-07
1.41694e-06
5.52891e-07
1.77639e-06
8.89561e-06
8.8961e-06
1.77595e-06
1.7764e-06
8.89623e-06
8.89672e-06
1.77596e-06
2.19309e-05
2.19315e-05
3.32603e-07
3.09415e-06
3.09499e-06
3.09448e-06
3.09533e-06
2.19292e-05
2.19306e-05
2.19298e-05
2.19312e-05
2.19281e-05
2.19271e-05
2.19292e-05
2.19282e-05
3.09462e-06
3.09543e-06
3.32337e-07
3.09424e-06
3.09503e-06
2.19265e-05
2.1927e-05
2.19277e-05
2.19282e-05
3.32605e-07
3.09432e-06
3.09512e-06
3.09479e-06
3.09558e-06
1.77619e-06
8.89565e-06
1.7767e-06
8.89524e-06
5.52881e-07
1.41679e-06
2.8047e-07
2.98662e-07
5.53037e-07
1.41607e-06
2.8047e-07
5.52885e-07
1.41699e-06
2.80472e-07
2.98667e-07
5.53041e-07
1.41625e-06
2.80472e-07
1.77676e-06
8.89431e-06
8.89473e-06
1.77622e-06
1.77678e-06
8.89514e-06
8.89558e-06
1.77624e-06
5.53054e-07
2.98661e-07
1.41612e-06
2.8047e-07
1.41687e-06
2.8047e-07
5.52897e-07
5.53057e-07
2.98666e-07
1.4163e-06
2.80471e-07
1.41706e-06
2.80471e-07
5.52901e-07
3.09561e-06
3.09458e-06
3.32328e-07
3.09517e-06
3.0941e-06
2.19265e-05
2.19254e-05
2.19274e-05
2.19279e-05
3.32597e-07
3.09518e-06
3.09419e-06
3.0957e-06
3.09473e-06
2.19247e-05
2.19255e-05
5.52904e-07
1.41708e-06
2.80474e-07
2.98646e-07
5.53056e-07
1.41636e-06
2.80474e-07
1.77605e-06
8.89582e-06
1.77651e-06
8.89538e-06
5.52892e-07
2.80476e-07
1.4172e-06
2.98674e-07
5.53047e-07
2.80476e-07
1.41642e-06
1.7766e-06
8.89576e-06
8.89622e-06
1.77612e-06
5.53072e-07
2.98645e-07
1.41641e-06
2.80472e-07
1.41716e-06
2.80472e-07
5.5292e-07
1.77659e-06
8.89529e-06
8.89576e-06
1.7761e-06
5.53062e-07
2.98674e-07
2.80475e-07
1.41647e-06
2.80475e-07
1.41727e-06
5.52908e-07
1.7762e-06
8.89518e-06
1.77671e-06
8.89472e-06
5.52889e-07
2.80472e-07
1.41686e-06
2.98665e-07
5.53043e-07
2.80472e-07
1.41613e-06
1.77619e-06
8.89581e-06
1.77671e-06
8.89539e-06
5.53054e-07
2.98639e-07
1.41619e-06
2.8047e-07
1.41697e-06
2.8047e-07
5.52899e-07
1.77679e-06
8.89462e-06
8.89509e-06
1.77626e-06
5.53059e-07
2.98664e-07
2.80471e-07
1.41618e-06
2.80471e-07
1.41693e-06
5.52905e-07
1.77679e-06
8.8953e-06
8.89574e-06
1.77625e-06
3.09567e-06
3.09468e-06
3.32345e-07
3.09514e-06
3.09428e-06
2.19289e-05
2.19279e-05
2.19273e-05
2.19282e-05
3.32613e-07
3.09516e-06
3.09436e-06
3.09575e-06
3.09482e-06
2.19273e-05
2.19278e-05
5.52908e-07
2.80472e-07
1.41703e-06
2.98648e-07
5.53066e-07
2.80472e-07
1.41629e-06
1.77604e-06
8.89595e-06
1.77651e-06
8.89553e-06
1.77605e-06
8.89657e-06
1.77652e-06
8.89617e-06
5.53077e-07
2.9865e-07
2.80472e-07
1.41616e-06
2.80472e-07
1.41692e-06
5.52917e-07
5.53083e-07
2.98648e-07
2.80471e-07
1.41634e-06
2.80471e-07
1.41711e-06
5.52924e-07
1.77659e-06
8.89544e-06
8.89588e-06
1.7761e-06
1.7766e-06
8.89608e-06
8.89652e-06
1.77611e-06
2.1929e-05
2.19281e-05
2.19296e-05
2.19287e-05
3.32612e-07
3.0944e-06
3.09523e-06
3.09488e-06
3.0957e-06
2.19275e-05
2.1928e-05
2.19281e-05
2.19286e-05
2.19266e-05
2.19262e-05
2.19277e-05
2.19273e-05
3.09483e-06
3.09564e-06
3.32343e-07
3.09433e-06
3.09514e-06
2.19261e-05
2.19263e-05
2.19272e-05
2.19274e-05
3.32612e-07
3.09435e-06
3.09517e-06
3.09484e-06
3.09567e-06
1.77627e-06
8.89547e-06
1.77683e-06
8.89501e-06
5.52912e-07
1.41691e-06
2.80473e-07
2.98664e-07
5.53069e-07
1.41615e-06
2.80473e-07
5.52915e-07
1.4171e-06
2.80474e-07
2.9867e-07
5.53072e-07
1.41632e-06
2.80474e-07
1.77684e-06
8.89412e-06
8.89454e-06
1.77627e-06
1.77685e-06
8.89493e-06
8.89535e-06
1.77629e-06
5.53083e-07
2.98664e-07
1.41616e-06
2.80472e-07
1.41693e-06
2.80472e-07
5.52925e-07
5.53086e-07
2.98669e-07
1.41634e-06
2.80473e-07
1.41712e-06
2.80473e-07
5.52927e-07
3.09571e-06
3.09481e-06
3.32334e-07
3.0952e-06
3.09427e-06
2.19249e-05
2.19243e-05
2.1927e-05
2.19272e-05
3.32603e-07
3.09524e-06
3.09433e-06
3.09574e-06
3.09488e-06
2.19241e-05
2.19245e-05
5.52934e-07
1.4172e-06
2.80474e-07
2.98649e-07
5.53088e-07
1.41644e-06
2.80474e-07
1.77614e-06
8.89565e-06
1.77664e-06
8.89517e-06
5.52922e-07
2.80478e-07
1.41731e-06
2.98677e-07
5.53078e-07
2.80478e-07
1.4165e-06
1.77668e-06
8.89557e-06
8.89601e-06
1.77616e-06
5.53102e-07
2.98648e-07
1.41646e-06
2.80474e-07
1.41722e-06
2.80473e-07
5.52947e-07
1.77666e-06
8.89509e-06
8.89554e-06
1.77615e-06
5.53092e-07
2.98677e-07
2.80477e-07
1.41652e-06
2.80477e-07
1.41733e-06
5.52935e-07
1.77629e-06
8.89499e-06
1.77684e-06
8.89451e-06
5.52919e-07
2.80474e-07
1.41697e-06
2.98667e-07
5.53074e-07
2.80474e-07
1.4162e-06
1.77628e-06
8.89563e-06
1.77683e-06
8.89517e-06
5.53082e-07
2.98643e-07
1.41624e-06
2.80471e-07
1.41705e-06
2.80472e-07
5.52924e-07
1.77687e-06
8.89444e-06
8.89489e-06
1.7763e-06
5.53089e-07
2.98667e-07
2.80473e-07
1.41622e-06
2.80473e-07
1.417e-06
5.52933e-07
1.77686e-06
8.89509e-06
8.89551e-06
1.7763e-06
3.09577e-06
3.09489e-06
3.32351e-07
3.0952e-06
3.09438e-06
2.19274e-05
2.1927e-05
2.19267e-05
2.19271e-05
3.32619e-07
3.09525e-06
3.09441e-06
3.09582e-06
3.0949e-06
2.19269e-05
2.19271e-05
5.52938e-07
2.80474e-07
1.41715e-06
2.98651e-07
5.53099e-07
2.80474e-07
1.41637e-06
1.77613e-06
8.89577e-06
1.77663e-06
8.89531e-06
1.77614e-06
8.89642e-06
1.77664e-06
8.89597e-06
5.53104e-07
2.98654e-07
2.80474e-07
1.4162e-06
2.80474e-07
1.41698e-06
5.52942e-07
5.53113e-07
2.98651e-07
2.80473e-07
1.41639e-06
2.80473e-07
1.41717e-06
5.52951e-07
1.77666e-06
8.89523e-06
8.89565e-06
1.77614e-06
1.77667e-06
8.8959e-06
8.89632e-06
1.77615e-06
2.19275e-05
2.19271e-05
2.19281e-05
2.19277e-05
3.32618e-07
3.09444e-06
3.09528e-06
3.09494e-06
3.09577e-06
2.19271e-05
2.19272e-05
2.19277e-05
2.19278e-05
2.19263e-05
2.19261e-05
2.19274e-05
2.19273e-05
3.09487e-06
3.0957e-06
3.32351e-07
3.0944e-06
3.09523e-06
2.19263e-05
2.19263e-05
2.19274e-05
2.19274e-05
3.32619e-07
3.09447e-06
3.09529e-06
3.09493e-06
3.09576e-06
1.77629e-06
8.89529e-06
1.77687e-06
8.8949e-06
5.52935e-07
1.41695e-06
2.80475e-07
2.98668e-07
5.53096e-07
1.41618e-06
2.80475e-07
5.52937e-07
1.41714e-06
2.80476e-07
2.98673e-07
5.53098e-07
1.41636e-06
2.80476e-07
1.77685e-06
8.89408e-06
8.89445e-06
1.77627e-06
1.77687e-06
8.89491e-06
8.89527e-06
1.77628e-06
5.53105e-07
2.98668e-07
1.41619e-06
2.80474e-07
1.41696e-06
2.80474e-07
5.52942e-07
5.53108e-07
2.98673e-07
1.41637e-06
2.80475e-07
1.41715e-06
2.80475e-07
5.52944e-07
3.09578e-06
3.09494e-06
3.32341e-07
3.09529e-06
3.09438e-06
2.19244e-05
2.19241e-05
2.19272e-05
2.19272e-05
3.3261e-07
3.09535e-06
3.09446e-06
3.09583e-06
3.095e-06
2.19243e-05
2.19244e-05
5.52955e-07
1.41724e-06
2.80476e-07
2.98652e-07
5.53114e-07
1.41647e-06
2.80477e-07
1.77615e-06
8.89547e-06
1.77667e-06
8.89505e-06
5.52943e-07
2.8048e-07
1.41735e-06
2.9868e-07
5.53104e-07
2.8048e-07
1.41653e-06
1.77668e-06
8.89555e-06
8.89592e-06
1.77614e-06
5.53121e-07
2.98652e-07
1.41648e-06
2.80476e-07
1.41725e-06
2.80475e-07
5.52961e-07
1.77666e-06
8.89505e-06
8.89544e-06
1.77613e-06
5.53111e-07
2.98681e-07
2.80479e-07
1.41654e-06
2.80479e-07
1.41736e-06
5.5295e-07
1.77631e-06
8.89482e-06
1.77688e-06
8.89441e-06
5.52942e-07
2.80476e-07
1.41701e-06
2.98671e-07
5.53101e-07
2.80476e-07
1.41623e-06
1.7763e-06
8.89545e-06
1.77688e-06
8.89506e-06
5.53101e-07
2.98646e-07
1.41626e-06
2.80473e-07
1.41707e-06
2.80474e-07
5.52938e-07
1.77688e-06
8.89441e-06
8.8948e-06
1.77629e-06
5.53109e-07
2.98671e-07
2.80475e-07
1.41624e-06
2.80475e-07
1.41702e-06
5.52948e-07
1.77688e-06
8.89506e-06
8.89543e-06
1.77629e-06
3.09586e-06
3.09493e-06
3.32358e-07
3.0953e-06
3.09446e-06
2.19271e-05
2.19269e-05
2.19269e-05
2.1927e-05
3.32627e-07
3.09537e-06
3.09452e-06
3.09592e-06
3.09499e-06
2.19271e-05
2.19271e-05
5.52959e-07
2.80476e-07
1.41719e-06
2.98654e-07
5.53124e-07
2.80476e-07
1.4164e-06
1.77613e-06
8.89559e-06
1.77667e-06
8.8952e-06
1.77615e-06
8.89626e-06
1.77668e-06
8.89586e-06
5.53121e-07
2.98657e-07
2.80475e-07
1.41623e-06
2.80476e-07
1.417e-06
5.52954e-07
5.53131e-07
2.98654e-07
2.80475e-07
1.41641e-06
2.80475e-07
1.4172e-06
5.52965e-07
1.77666e-06
8.89521e-06
8.89557e-06
1.77612e-06
1.77667e-06
8.89583e-06
8.89621e-06
1.77613e-06
2.19272e-05
2.19271e-05
2.19278e-05
2.19277e-05
3.32625e-07
3.09455e-06
3.09539e-06
3.09502e-06
3.09585e-06
2.19272e-05
2.19273e-05
2.19278e-05
2.19278e-05
2.19265e-05
2.19265e-05
2.19276e-05
2.19277e-05
3.095e-06
3.09583e-06
3.32359e-07
3.09453e-06
3.09535e-06
2.19269e-05
2.19268e-05
2.1928e-05
2.19279e-05
3.32627e-07
3.09456e-06
3.09538e-06
3.09504e-06
3.09587e-06
1.77627e-06
8.89528e-06
1.77685e-06
8.89493e-06
5.52948e-07
1.41697e-06
2.80477e-07
2.98672e-07
5.53111e-07
1.41619e-06
2.80477e-07
5.52951e-07
1.41716e-06
2.80478e-07
2.98677e-07
5.53114e-07
1.41637e-06
2.80478e-07
1.77683e-06
8.89414e-06
8.89447e-06
1.77624e-06
1.77685e-06
8.89499e-06
8.89531e-06
1.77626e-06
5.53118e-07
2.98671e-07
1.4162e-06
2.80475e-07
1.41698e-06
2.80477e-07
5.52954e-07
5.53121e-07
2.98676e-07
1.41637e-06
2.80474e-07
1.41717e-06
2.80476e-07
5.52958e-07
3.09589e-06
3.09507e-06
3.32349e-07
3.0954e-06
3.09451e-06
2.19247e-05
2.19246e-05
2.19277e-05
2.19276e-05
3.32618e-07
3.09543e-06
3.09454e-06
3.09594e-06
3.09512e-06
2.1925e-05
2.1925e-05
5.52967e-07
1.41726e-06
2.80478e-07
2.98656e-07
5.53126e-07
1.41649e-06
2.80478e-07
1.77613e-06
8.89545e-06
1.77665e-06
8.89508e-06
5.52957e-07
2.80482e-07
1.41738e-06
2.98685e-07
5.53118e-07
2.80482e-07
1.41655e-06
1.77666e-06
8.89563e-06
8.89597e-06
1.77613e-06
5.53134e-07
2.98655e-07
1.41649e-06
2.80476e-07
1.41727e-06
2.80476e-07
5.52975e-07
1.77665e-06
8.89514e-06
8.89549e-06
1.77612e-06
5.53125e-07
2.98684e-07
2.80477e-07
1.41656e-06
2.8048e-07
1.41739e-06
5.52964e-07
1.77628e-06
8.89482e-06
1.77686e-06
8.89444e-06
5.52953e-07
2.80478e-07
1.41703e-06
2.98675e-07
5.53114e-07
2.80478e-07
1.41625e-06
1.77628e-06
8.89544e-06
1.77686e-06
8.89509e-06
5.53111e-07
2.98649e-07
1.41627e-06
2.80473e-07
1.41709e-06
2.80473e-07
5.52948e-07
1.77686e-06
8.8945e-06
8.89485e-06
1.77627e-06
5.53121e-07
2.98674e-07
2.80473e-07
1.41625e-06
2.80476e-07
1.41704e-06
5.5296e-07
1.77686e-06
8.89514e-06
8.89547e-06
1.77627e-06
3.09598e-06
3.09506e-06
3.32366e-07
3.09542e-06
3.09458e-06
2.19273e-05
2.19273e-05
2.19275e-05
2.19276e-05
3.32634e-07
3.09545e-06
3.09461e-06
3.09603e-06
3.09511e-06
2.19277e-05
2.19276e-05
5.52972e-07
2.80478e-07
1.4172e-06
2.98658e-07
5.53137e-07
2.80478e-07
1.41641e-06
1.77611e-06
8.89558e-06
1.77664e-06
8.89523e-06
1.77612e-06
8.89619e-06
1.77665e-06
8.89583e-06
5.53132e-07
2.98659e-07
2.80474e-07
1.41623e-06
2.80476e-07
1.41702e-06
5.52966e-07
5.53144e-07
2.98657e-07
2.80475e-07
1.41641e-06
2.80477e-07
1.41721e-06
5.52978e-07
1.77664e-06
8.89528e-06
8.89561e-06
1.7761e-06
1.77665e-06
8.89586e-06
8.8962e-06
1.77611e-06
2.19274e-05
2.19275e-05
2.1928e-05
2.19281e-05
3.32633e-07
3.09463e-06
3.09547e-06
3.09513e-06
3.09596e-06
2.19278e-05
2.19277e-05
2.19284e-05
2.19283e-05
2.19271e-05
2.19273e-05
2.19282e-05
2.19284e-05
3.09507e-06
3.0959e-06
3.32366e-07
3.09454e-06
3.09536e-06
2.19278e-05
2.19276e-05
2.19289e-05
2.19287e-05
3.32634e-07
3.09454e-06
3.09537e-06
3.09503e-06
3.09586e-06
1.77627e-06
8.89537e-06
1.77683e-06
8.89505e-06
5.52957e-07
1.41698e-06
2.80474e-07
2.98673e-07
5.53123e-07
1.41619e-06
2.80472e-07
5.52961e-07
1.41717e-06
2.80474e-07
2.98678e-07
5.53127e-07
1.41637e-06
2.80474e-07
1.77683e-06
8.89441e-06
8.8946e-06
1.77624e-06
1.77685e-06
8.89526e-06
8.89545e-06
1.77626e-06
5.53124e-07
2.98671e-07
1.41622e-06
2.80469e-07
1.41698e-06
2.80469e-07
5.52953e-07
5.53128e-07
2.98677e-07
1.4164e-06
2.80471e-07
1.41717e-06
2.80472e-07
5.52957e-07
3.09596e-06
3.09514e-06
3.32356e-07
3.0954e-06
3.09451e-06
2.19253e-05
2.19254e-05
2.19286e-05
2.19283e-05
3.32625e-07
3.09541e-06
3.09452e-06
3.09592e-06
3.0951e-06
2.19259e-05
2.19258e-05
5.52978e-07
1.41727e-06
2.80474e-07
2.98657e-07
5.5314e-07
1.41649e-06
2.80473e-07
1.77613e-06
8.89554e-06
1.77664e-06
8.8952e-06
5.52967e-07
2.80477e-07
1.41739e-06
2.98685e-07
5.53132e-07
2.80477e-07
1.41656e-06
1.77666e-06
8.8958e-06
8.89611e-06
1.77613e-06
5.53141e-07
2.98655e-07
1.41651e-06
2.8047e-07
1.41727e-06
2.8047e-07
5.52973e-07
1.77665e-06
8.89541e-06
8.89563e-06
1.77612e-06
5.53133e-07
2.98684e-07
2.80475e-07
1.41658e-06
2.80475e-07
1.41739e-06
5.52963e-07
1.77628e-06
8.8949e-06
1.77684e-06
8.89456e-06
5.52964e-07
2.80474e-07
1.41704e-06
2.98675e-07
5.53127e-07
2.80474e-07
1.41625e-06
1.77628e-06
8.89552e-06
1.77684e-06
8.8952e-06
5.53121e-07
2.98649e-07
1.4163e-06
2.80469e-07
1.41709e-06
2.80469e-07
5.52957e-07
1.77686e-06
8.89478e-06
8.89499e-06
1.77627e-06
5.53129e-07
2.98674e-07
2.80471e-07
1.41627e-06
2.80472e-07
1.41704e-06
5.52962e-07
1.77686e-06
8.89542e-06
8.89561e-06
1.77627e-06
3.09605e-06
3.09513e-06
3.32373e-07
3.09543e-06
3.09459e-06
2.19279e-05
2.19281e-05
2.19285e-05
2.19284e-05
3.32641e-07
3.09543e-06
3.0946e-06
3.09602e-06
3.09509e-06
2.19286e-05
2.19284e-05
5.52981e-07
2.80474e-07
1.4172e-06
2.98658e-07
5.5315e-07
2.80473e-07
1.41641e-06
1.77611e-06
8.89566e-06
1.77662e-06
8.89534e-06
1.77612e-06
8.89623e-06
1.77663e-06
8.89591e-06
5.53143e-07
2.9866e-07
2.80471e-07
1.41626e-06
2.80472e-07
1.41702e-06
5.52973e-07
5.5315e-07
2.98657e-07
2.8047e-07
1.41643e-06
2.8047e-07
1.4172e-06
5.52977e-07
1.77664e-06
8.89556e-06
8.89575e-06
1.7761e-06
1.77665e-06
8.89612e-06
8.89631e-06
1.77611e-06
2.19281e-05
2.19282e-05
2.19286e-05
2.19288e-05
3.32639e-07
3.09462e-06
3.09546e-06
3.09512e-06
3.09595e-06
2.19287e-05
2.19285e-05
2.19293e-05
2.1929e-05
2.19279e-05
2.19276e-05
2.1929e-05
2.19287e-05
3.09509e-06
3.09592e-06
3.32367e-07
3.09466e-06
3.09549e-06
2.19268e-05
2.19274e-05
2.19279e-05
2.19286e-05
3.32634e-07
3.09468e-06
3.09551e-06
3.0952e-06
3.09603e-06
1.77639e-06
8.8957e-06
1.77685e-06
8.89557e-06
5.52957e-07
1.41702e-06
2.80469e-07
2.98672e-07
5.53121e-07
1.41629e-06
2.80469e-07
5.52962e-07
1.41721e-06
2.80471e-07
2.98678e-07
5.53126e-07
1.41647e-06
2.8047e-07
1.77701e-06
8.8949e-06
8.89514e-06
1.77646e-06
1.77703e-06
8.89574e-06
8.89599e-06
1.77648e-06
5.53126e-07
2.98669e-07
1.41631e-06
2.80461e-07
1.4171e-06
2.80466e-07
5.5294e-07
5.53131e-07
2.98675e-07
1.41649e-06
2.80462e-07
1.41729e-06
2.80467e-07
5.52944e-07
3.09597e-06
3.09515e-06
3.32358e-07
3.09552e-06
3.09464e-06
2.19262e-05
2.19257e-05
2.19275e-05
2.19283e-05
3.32625e-07
3.09561e-06
3.09466e-06
3.09608e-06
3.09527e-06
2.1925e-05
2.19258e-05
5.52978e-07
1.41736e-06
2.8047e-07
2.98657e-07
5.53137e-07
1.41661e-06
2.8047e-07
1.77625e-06
8.89588e-06
1.77666e-06
8.89572e-06
5.52969e-07
2.80475e-07
1.41743e-06
2.98685e-07
5.5313e-07
2.80474e-07
1.41665e-06
1.77685e-06
8.89616e-06
8.89646e-06