/*--------------------------------*- C++ -*----------------------------------*\
| =========                 |                                                 |
| \\      /  F ield         | OpenFOAM: The Open Source CFD Toolbox           |
|  \\    /   O peration     | Version:  2206                                  |
|   \\  /    A nd           | Website:  www.openfoam.com                      |
|    \\/     M anipulation  |                                                 |
\*---------------------------------------------------------------------------*/
FoamFile
{
    version     2.0;
    format      ascii;
    arch        "LSB;label=32;scalar=64";
    class       volScalarField;
    location    "18";
    object      nut;
}
// * * * * * * * * * * * * * * * * * * * * * * * * * * * * * * * * * * * * * //

dimensions      [0 2 -1 0 0 0 0];

internalField   nonuniform List<scalar> 
28687
(
0.000227734
0.000213201
0.000213196
0.000195123
0.000227734
0.0002132
0.000213194
0.000195126
0.000227731
0.000213198
0.000213191
0.000195124
0.000227731
0.000213193
0.000213189
0.000195118
0.000227705
0.000213146
0.000213145
0.000195049
0.000227715
0.000213148
0.000213143
0.000195051
0.000227716
0.000213149
0.000213144
0.000195043
0.000227716
0.00021315
0.000213145
0.000195048
0.000227716
0.00021315
0.000213145
0.000195045
0.000227716
0.00021315
0.000213145
0.000195045
0.000227717
0.00021315
0.000213145
0.000195045
0.000227717
0.000213149
0.000213145
0.000195045
0.000227717
0.000213149
0.000213145
0.000195045
0.000227717
0.000213149
0.000213145
0.000195045
0.000227717
0.000213149
0.000213145
0.000195045
0.000227717
0.000213149
0.000213145
0.000195045
0.000227717
0.000213149
0.000213145
0.000195045
0.000227717
0.000213149
0.000213145
0.000195045
0.000213188
0.000195269
0.000213201
0.000195125
0.000195262
0.00021319
0.000213188
0.000213189
0.000213187
0.000195136
0.000195262
0.000213198
0.000213182
0.000213197
0.000213181
0.000213189
0.000213201
0.000213189
0.000195119
0.000195255
0.000213199
0.000213195
0.000213198
0.000195259
0.000195131
0.000195259
0.000213187
0.000213187
0.000213187
0.000213187
0.000195132
0.000195262
0.000213195
0.000213179
0.000213194
0.000213179
0.000213186
0.000213199
0.000213185
0.000195125
0.000195252
0.000213195
0.000213191
0.000213195
0.000195256
0.000195129
0.000195255
0.000213186
0.000213188
0.000213184
0.000213185
0.000195131
0.000195257
0.000213192
0.000213177
0.000213192
0.000213176
0.000213185
0.000213196
0.000213184
0.000195122
0.000195249
0.000213195
0.00021319
0.000213193
0.000195254
0.000195124
0.000195206
0.000213182
0.000213182
0.000213152
0.000213141
0.000195123
0.000195189
0.00021319
0.000213175
0.000213161
0.000213145
0.000213182
0.000213156
0.000213152
0.000195118
0.000195199
0.000213192
0.000213159
0.000213161
0.000195202
0.000195055
0.000195183
0.000213138
0.000213133
0.000213135
0.000213136
0.000195046
0.000195187
0.000213147
0.000213132
0.000213143
0.000213128
0.000213138
0.000213147
0.000213135
0.000195049
0.000195176
0.000213148
0.000213141
0.000213144
0.000195182
0.000195054
0.00019518
0.000213137
0.000213137
0.000213137
0.000213138
0.000195057
0.00019518
0.000213145
0.00021313
0.000213146
0.00021313
0.000213137
0.000213149
0.000213137
0.000195048
0.000195173
0.000213147
0.000213144
0.000213147
0.000195177
0.000195048
0.000195181
0.000213137
0.000213138
0.000213137
0.000213137
0.000195049
0.000195185
0.000213146
0.00021313
0.000213146
0.000213131
0.000213137
0.00021315
0.000213138
0.000195042
0.000195175
0.000213147
0.000213145
0.000213147
0.00019518
0.000195052
0.000195178
0.000213138
0.000213137
0.000213138
0.000213136
0.000195055
0.000195183
0.000213146
0.000213131
0.000213146
0.000213131
0.000213138
0.00021315
0.000213138
0.000195046
0.000195173
0.000213148
0.000213145
0.000213147
0.000195177
0.000195049
0.000195179
0.000213138
0.000213137
0.000213138
0.000213137
0.000195054
0.000195182
0.000213147
0.000213131
0.000213146
0.000213131
0.000213139
0.00021315
0.000213138
0.000195044
0.000195173
0.000213148
0.000213145
0.000213147
0.000195177
0.000195049
0.000195179
0.000213139
0.000213137
0.000213139
0.000213137
0.000195052
0.000195182
0.000213147
0.000213131
0.000213147
0.000213131
0.000213139
0.00021315
0.000213138
0.000195043
0.000195173
0.000213148
0.000213145
0.000213147
0.000195178
0.000195049
0.000195179
0.000213139
0.000213138
0.000213139
0.000213137
0.000195052
0.000195182
0.000213147
0.000213131
0.000213147
0.000213131
0.000213139
0.00021315
0.000213138
0.000195043
0.000195173
0.000213148
0.000213145
0.000213147
0.000195178
0.000195049
0.000195179
0.000213139
0.000213138
0.000213138
0.000213137
0.000195052
0.000195182
0.000213148
0.000213131
0.000213147
0.000213131
0.000213139
0.00021315
0.000213138
0.000195043
0.000195173
0.000213146
0.000213145
0.000213146
0.000195178
0.000195049
0.000195179
0.000213139
0.000213138
0.000213138
0.000213137
0.000195051
0.000195182
0.000213148
0.000213131
0.000213147
0.000213131
0.000213139
0.00021315
0.000213138
0.000195043
0.000195173
0.000213147
0.000213145
0.000213146
0.000195178
0.000195049
0.000195179
0.000213139
0.000213138
0.000213138
0.000213137
0.000195052
0.000195182
0.000213148
0.000213131
0.000213147
0.000213131
0.000213138
0.00021315
0.000213138
0.000195043
0.000195173
0.000213147
0.000213145
0.000213146
0.000195178
0.000195049
0.000195179
0.000213139
0.000213138
0.000213138
0.000213137
0.000195052
0.000195182
0.000213148
0.000213131
0.000213147
0.000213131
0.000213138
0.00021315
0.000213138
0.000195043
0.000195173
0.000213147
0.000213145
0.000213146
0.000195178
0.000195049
0.000195179
0.000213139
0.000213138
0.000213138
0.000213137
0.000195051
0.000195182
0.000213148
0.000213131
0.000213147
0.000213131
0.000213138
0.00021315
0.000213138
0.000195043
0.000195173
0.000213147
0.000213145
0.000213146
0.000195178
0.000195049
0.000195179
0.000213139
0.000213138
0.000213138
0.000213137
0.000195051
0.000195182
0.000213148
0.000213131
0.000213147
0.000213131
0.000213138
0.00021315
0.000213138
0.000195043
0.000195173
0.000213147
0.000213145
0.000213146
0.000195178
0.000195049
0.000213138
0.000213137
0.000195051
0.000213148
0.000213131
0.000213138
0.000195043
0.000213146
5.21749e-05
4.85277e-05
5.21649e-05
4.85262e-05
2.59948e-05
2.59939e-05
5.21756e-05
4.85239e-05
5.21719e-05
4.85223e-05
0.000227736
0.000227733
0.000227734
0.000227734
0.000227735
0.000227732
0.000227733
0.00012485
6.34011e-05
0.00022308
0.000213202
0.000124826
6.34208e-05
0.00022308
2.59927e-05
2.59916e-05
0.000124852
0.000223078
6.34041e-05
0.000213196
0.00012483
0.000223077
6.34202e-05
3.6752e-05
3.67453e-05
0.000195262
3.67623e-05
3.67556e-05
5.21799e-05
4.85264e-05
5.21665e-05
4.85254e-05
2.59932e-05
2.59929e-05
5.21865e-05
4.85225e-05
5.2173e-05
4.85215e-05
0.000227735
0.000227732
0.000227733
0.000227731
0.000227734
0.000227731
0.000227732
0.000124847
6.34023e-05
0.000223079
0.000213199
0.000124819
6.34211e-05
0.000223076
2.59909e-05
2.59903e-05
0.000124849
0.000223078
6.34029e-05
0.000213192
0.000124821
0.000223075
6.34202e-05
3.67676e-05
3.67608e-05
0.000195257
3.67746e-05
3.67678e-05
5.21873e-05
4.85259e-05
5.21758e-05
4.85251e-05
2.59929e-05
2.59927e-05
5.21943e-05
4.85221e-05
5.21836e-05
4.85212e-05
0.000227733
0.000227731
0.000227732
0.000227732
0.000227733
0.00022773
0.000227731
0.000124852
6.34064e-05
0.000223076
0.000213197
0.000124821
6.34271e-05
0.000223078
2.59902e-05
2.599e-05
0.000124854
0.000223075
6.34057e-05
0.00021319
0.000124824
0.000223074
6.34259e-05
3.67766e-05
3.67698e-05
0.000195258
3.6782e-05
3.67752e-05
5.21786e-05
4.8526e-05
5.21775e-05
4.85264e-05
2.59932e-05
2.59937e-05
5.21858e-05
4.85222e-05
5.21857e-05
4.85225e-05
0.000227732
0.00022773
0.000227731
0.000227709
0.000227706
0.000227709
0.000227709
0.000124838
6.34046e-05
0.000223077
0.000213189
0.000124821
6.34111e-05
0.000223073
2.59906e-05
2.59909e-05
0.000124841
0.000223074
6.3409e-05
0.000213186
0.000124824
0.000223071
6.34187e-05
3.67795e-05
3.67728e-05
0.000195244
3.67781e-05
3.67713e-05
5.21404e-05
4.85321e-05
5.21437e-05
4.85318e-05
2.59942e-05
2.5994e-05
5.21469e-05
4.85281e-05
5.21506e-05
4.85279e-05
0.000227705
0.000227705
0.000227705
0.000227713
0.000227714
0.000227712
0.000227713
0.00012475
6.33652e-05
0.000223039
0.000213144
0.00012475
6.33736e-05
0.000223038
2.59918e-05
2.59915e-05
0.000124753
0.000223039
6.33742e-05
0.00021314
0.000124752
0.000223037
6.33793e-05
3.67636e-05
3.67568e-05
0.000195176
3.67556e-05
3.67487e-05
5.21348e-05
4.85324e-05
5.21258e-05
4.85316e-05
2.59941e-05
2.5994e-05
5.21423e-05
4.85286e-05
5.21341e-05
4.85278e-05
0.000227716
0.000227715
0.000227716
0.000227716
0.000227717
0.000227715
0.000227716
0.000124752
6.33505e-05
0.000223047
0.000213149
0.000124723
6.33687e-05
0.000223047
2.59917e-05
2.59914e-05
0.000124756
0.000223046
6.33546e-05
0.000213144
0.000124726
0.000223046
6.33716e-05
3.67493e-05
3.67424e-05
0.000195183
3.67524e-05
3.67454e-05
5.21347e-05
4.85326e-05
5.21252e-05
4.85318e-05
2.5994e-05
2.59937e-05
5.21423e-05
4.85285e-05
5.21337e-05
4.85277e-05
0.000227717
0.000227715
0.000227716
0.000227716
0.000227717
0.000227715
0.000227716
0.000124751
6.33501e-05
0.000223047
0.00021315
0.000124723
6.33687e-05
0.000223048
2.59917e-05
2.59914e-05
0.000124755
0.000223046
6.33536e-05
0.000213145
0.000124727
0.000223046
6.33713e-05
3.67491e-05
3.67422e-05
0.000195176
3.67524e-05
3.67455e-05
5.21347e-05
4.85323e-05
5.21252e-05
4.85313e-05
2.59941e-05
2.59941e-05
5.21424e-05
4.85285e-05
5.21338e-05
4.85277e-05
0.000227717
0.000227715
0.000227716
0.000227716
0.000227717
0.000227715
0.000227716
0.000124752
6.33501e-05
0.000223048
0.00021315
0.000124723
6.33686e-05
0.000223048
2.59917e-05
2.59914e-05
0.000124756
0.000223046
6.33536e-05
0.000213145
0.000124727
0.000223047
6.33713e-05
3.67491e-05
3.67423e-05
0.000195179
3.67524e-05
3.67455e-05
5.21347e-05
4.8532e-05
5.21252e-05
4.8531e-05
2.59944e-05
2.59944e-05
5.21425e-05
4.85288e-05
5.21338e-05
4.85282e-05
0.000227717
0.000227715
0.000227716
0.000227716
0.000227717
0.000227715
0.000227716
0.000124752
6.335e-05
0.000223048
0.00021315
0.000124723
6.33686e-05
0.000223048
2.59917e-05
2.59914e-05
0.000124756
0.000223046
6.33536e-05
0.000213145
0.000124727
0.000223047
6.33713e-05
3.67491e-05
3.67423e-05
0.00019518
3.67524e-05
3.67455e-05
5.21346e-05
4.85315e-05
5.21251e-05
4.85306e-05
2.59945e-05
2.59944e-05
5.21425e-05
4.85291e-05
5.21339e-05
4.85284e-05
0.000227717
0.000227715
0.000227716
0.000227717
0.000227717
0.000227715
0.000227716
0.000124752
6.33501e-05
0.000223048
0.00021315
0.000124723
6.33687e-05
0.000223048
2.59917e-05
2.59914e-05
0.000124755
0.000223046
6.33536e-05
0.000213145
0.000124727
0.000223047
6.33713e-05
3.67491e-05
3.67423e-05
0.000195179
3.67524e-05
3.67455e-05
5.21347e-05
4.85313e-05
5.21251e-05
4.85305e-05
2.59946e-05
2.59944e-05
5.21425e-05
4.85293e-05
5.21339e-05
4.85286e-05
0.000227717
0.000227715
0.000227716
0.000227717
0.000227717
0.000227715
0.000227716
0.000124752
6.33501e-05
0.000223048
0.00021315
0.000124723
6.33687e-05
0.000223048
2.59917e-05
2.59914e-05
0.000124755
0.000223046
6.33536e-05
0.000213145
0.000124727
0.000223047
6.33713e-05
3.67491e-05
3.67423e-05
0.000195179
3.67524e-05
3.67455e-05
5.21347e-05
4.85312e-05
5.21252e-05
4.85304e-05
2.59946e-05
2.59944e-05
5.21425e-05
4.85294e-05
5.21339e-05
4.85286e-05
0.000227717
0.000227716
0.000227716
0.000227717
0.000227717
0.000227715
0.000227716
0.000124752
6.33501e-05
0.000223048
0.00021315
0.000124723
6.33687e-05
0.000223048
2.59917e-05
2.59914e-05
0.000124755
0.000223046
6.33536e-05
0.000213145
0.000124727
0.000223047
6.33713e-05
3.67491e-05
3.67423e-05
0.000195179
3.67524e-05
3.67455e-05
5.21347e-05
4.85311e-05
5.21252e-05
4.85304e-05
2.59946e-05
2.59944e-05
5.21425e-05
4.85294e-05
5.21339e-05
4.85287e-05
0.000227717
0.000227715
0.000227716
0.000227717
0.000227717
0.000227715
0.000227716
0.000124752
6.33501e-05
0.000223048
0.00021315
0.000124723
6.33687e-05
0.000223048
2.59917e-05
2.59914e-05
0.000124755
0.000223046
6.33536e-05
0.000213145
0.000124727
0.000223047
6.33713e-05
3.67491e-05
3.67423e-05
0.000195179
3.67524e-05
3.67455e-05
5.21347e-05
4.85311e-05
5.21252e-05
4.85303e-05
2.59946e-05
2.59944e-05
5.21425e-05
4.85294e-05
5.21339e-05
4.85287e-05
0.000227717
0.000227715
0.000227716
0.000227717
0.000227717
0.000227715
0.000227716
0.000124752
6.33501e-05
0.000223048
0.00021315
0.000124723
6.33687e-05
0.000223048
2.59917e-05
2.59914e-05
0.000124755
0.000223046
6.33536e-05
0.000213145
0.000124727
0.000223047
6.33713e-05
3.67491e-05
3.67423e-05
0.000195179
3.67524e-05
3.67455e-05
5.21347e-05
4.85311e-05
5.21252e-05
4.85303e-05
2.59946e-05
2.59944e-05
5.21425e-05
4.85294e-05
5.21339e-05
4.85287e-05
0.000227717
0.000227715
0.000227716
0.000227717
0.000227717
0.000227715
0.000227716
0.000124752
6.33501e-05
0.000223048
0.00021315
0.000124723
6.33687e-05
0.000223048
2.59917e-05
2.59914e-05
0.000124755
0.000223046
6.33536e-05
0.000213145
0.000124726
0.000223047
6.33713e-05
3.67491e-05
3.67423e-05
0.000195179
3.67524e-05
3.67455e-05
5.21347e-05
4.85311e-05
5.21252e-05
4.85303e-05
2.59946e-05
2.59944e-05
5.21424e-05
4.85294e-05
5.21338e-05
4.85287e-05
0.000227717
0.000227715
0.000227716
0.000227717
0.000227717
0.000227715
0.000227716
0.000124752
6.33501e-05
0.000223048
0.00021315
0.000124723
6.33687e-05
0.000223048
2.59917e-05
2.59914e-05
0.000124755
0.000223046
6.33536e-05
0.000213145
0.000124726
0.000223047
6.33713e-05
3.67491e-05
3.67423e-05
0.000195179
3.67524e-05
3.67455e-05
5.21347e-05
4.85311e-05
5.21252e-05
4.85303e-05
2.59946e-05
2.59944e-05
5.21425e-05
4.85294e-05
5.21338e-05
4.85287e-05
0.000227717
0.000227716
0.000227716
0.000227717
0.000227717
0.000227715
0.000227716
0.000124752
6.33501e-05
0.000223048
0.00021315
0.000124723
6.33687e-05
0.000223048
2.59917e-05
2.59914e-05
0.000124755
0.000223046
6.33536e-05
0.000213145
0.000124726
0.000223047
6.33713e-05
3.67492e-05
3.67423e-05
0.000195179
3.67524e-05
3.67455e-05
5.21354e-05
4.85311e-05
5.21252e-05
4.85306e-05
2.59946e-05
2.59944e-05
5.21425e-05
4.85294e-05
5.21339e-05
4.85289e-05
0.000227717
0.000227715
0.000227716
0.000124751
6.33501e-05
0.000223048
0.00021315
0.000124723
6.33687e-05
0.000223048
2.59917e-05
2.59915e-05
0.000124757
0.000223046
6.33536e-05
0.000213146
0.000124726
0.000223047
6.33723e-05
3.67491e-05
3.67423e-05
0.000195182
3.67524e-05
3.67401e-05
4.85259e-05
6.34216e-05
2.59949e-05
3.67543e-05
3.67569e-05
2.59954e-05
6.34194e-05
4.85246e-05
2.59966e-05
2.59956e-05
2.59943e-05
2.59933e-05
3.67541e-05
3.67468e-05
0.000195265
3.67643e-05
3.67565e-05
2.59947e-05
2.59955e-05
2.59924e-05
2.59932e-05
0.000195134
3.67713e-05
3.67637e-05
3.67636e-05
3.67561e-05
5.21755e-05
4.85264e-05
5.21654e-05
4.85255e-05
0.000124849
6.3407e-05
0.000223079
0.00021319
0.000124825
6.34235e-05
0.000223079
0.000124851
6.34061e-05
0.000223079
0.000213188
0.000124827
6.34226e-05
0.000223079
5.21667e-05
4.85257e-05
4.85265e-05
5.21748e-05
5.21673e-05
4.85251e-05
4.85259e-05
5.21755e-05
0.000124825
0.00021319
6.34244e-05
0.000223078
6.34082e-05
0.000223079
0.000124848
0.000124827
0.000213188
6.34223e-05
0.000223079
6.3407e-05
0.000223079
0.00012485
3.67534e-05
3.67546e-05
0.000195265
3.67615e-05
3.67605e-05
2.59954e-05
2.59944e-05
2.59932e-05
2.59939e-05
0.000195134
3.67676e-05
3.67654e-05
3.67608e-05
3.6759e-05
2.59937e-05
2.59945e-05
0.00012485
6.33953e-05
0.000223079
0.000213198
0.000124829
6.34123e-05
0.000223078
5.21741e-05
4.85214e-05
5.21703e-05
4.85198e-05
0.000124848
0.000223076
6.33879e-05
0.000213182
0.000124826
0.000223076
6.34052e-05
5.21691e-05
4.85218e-05
4.85227e-05
5.21797e-05
0.000124827
0.000213198
6.34132e-05
0.000223078
6.33963e-05
0.000223079
0.00012485
5.21676e-05
4.85193e-05
4.85202e-05
5.21781e-05
0.000124825
0.000213182
0.000223076
6.34065e-05
0.000223076
6.33893e-05
0.000124848
5.21745e-05
4.85252e-05
5.21646e-05
4.85242e-05
0.000124848
0.000223078
6.34035e-05
0.000213189
0.000124825
0.000223078
6.34199e-05
5.21724e-05
4.85245e-05
5.21641e-05
4.8523e-05
0.000124826
0.000213202
6.3421e-05
0.00022308
6.34048e-05
0.00022308
0.000124847
5.21663e-05
4.85238e-05
4.85246e-05
5.21745e-05
0.000124824
0.000213189
0.000223078
6.34205e-05
0.000223079
6.34045e-05
0.000124847
5.21638e-05
4.85225e-05
4.85233e-05
5.21727e-05
3.67323e-05
3.67522e-05
0.000195258
3.67459e-05
3.67624e-05
2.59952e-05
2.59942e-05
2.59908e-05
2.59917e-05
0.000195128
3.67538e-05
3.67695e-05
3.67456e-05
3.67618e-05
2.59934e-05
2.59941e-05
0.000124853
0.000223079
6.33999e-05
0.000213198
0.000124831
0.000223078
6.34165e-05
5.21748e-05
4.85243e-05
5.21705e-05
4.85227e-05
5.21752e-05
4.8524e-05
5.21714e-05
4.85225e-05
0.000124828
0.000213196
0.000223078
6.34207e-05
0.000223078
6.34051e-05
0.000124849
0.00012483
0.000213199
0.000223079
6.34174e-05
0.000223079
6.3401e-05
0.000124853
5.21682e-05
4.85223e-05
4.85231e-05
5.21788e-05
5.21686e-05
4.85221e-05
4.85229e-05
5.21792e-05
2.5995e-05
2.5994e-05
2.59941e-05
2.5993e-05
0.000195131
3.67694e-05
3.67626e-05
3.67616e-05
3.6755e-05
2.59932e-05
2.5994e-05
2.59922e-05
2.5993e-05
2.59948e-05
2.59942e-05
2.59925e-05
2.59919e-05
3.67702e-05
3.67628e-05
0.000195261
3.67765e-05
3.6769e-05
2.5994e-05
2.59944e-05
2.59917e-05
2.59921e-05
0.00019513
3.67807e-05
3.67733e-05
3.6775e-05
3.67677e-05
5.21807e-05
4.85255e-05
5.21691e-05
4.85248e-05
0.00012485
6.34087e-05
0.000223078
0.000213187
0.000124826
6.34243e-05
0.000223077
0.000124852
6.34064e-05
0.000223077
0.000213187
0.000124827
6.34224e-05
0.000223076
5.21738e-05
4.85252e-05
4.85259e-05
5.21843e-05
5.21746e-05
4.85246e-05
4.85253e-05
5.21851e-05
0.000124827
0.000213187
6.34265e-05
0.000223077
6.34089e-05
0.000223078
0.000124851
0.000124829
0.000213187
6.34254e-05
0.000223077
6.34072e-05
0.000223076
0.000124854
3.67663e-05
3.67636e-05
0.000195262
3.67721e-05
3.67696e-05
2.59938e-05
2.59933e-05
2.59927e-05
2.5993e-05
0.000195131
3.6776e-05
3.67733e-05
3.67706e-05
3.67675e-05
2.59932e-05
2.59935e-05
0.000124852
6.33968e-05
0.000223077
0.000213195
0.000124828
6.34128e-05
0.000223077
5.21849e-05
4.85198e-05
5.21734e-05
4.8519e-05
0.00012485
0.000223073
6.33901e-05
0.000213179
0.000124826
0.000223073
6.34064e-05
5.21813e-05
4.85213e-05
4.8522e-05
5.21911e-05
0.000124829
0.000213195
6.34147e-05
0.000223076
6.33967e-05
0.000223077
0.000124853
5.21797e-05
4.85188e-05
4.85195e-05
5.21895e-05
0.000124827
0.000213179
0.000223072
6.34082e-05
0.000223072
6.33902e-05
0.000124851
5.21795e-05
4.85243e-05
5.2168e-05
4.85235e-05
0.000124848
0.000223076
6.34049e-05
0.000213186
0.000124824
0.000223075
6.34203e-05
5.21791e-05
4.85229e-05
5.21667e-05
4.85222e-05
0.000124824
0.000213199
6.3424e-05
0.000223076
6.34054e-05
0.000223076
0.000124848
5.21733e-05
4.85233e-05
4.8524e-05
5.21838e-05
0.000124825
0.000213185
0.000223074
6.34223e-05
0.000223074
6.34049e-05
0.00012485
5.21729e-05
4.85219e-05
4.85226e-05
5.21835e-05
3.67519e-05
3.67683e-05
0.000195254
3.67585e-05
3.67747e-05
2.59934e-05
2.59928e-05
2.599e-05
2.59905e-05
0.000195124
3.67625e-05
3.67789e-05
3.67563e-05
3.67732e-05
2.59926e-05
2.5993e-05
0.000124854
0.000223076
6.34017e-05
0.000213195
0.00012483
0.000223076
6.34175e-05
5.21855e-05
4.85227e-05
5.2174e-05
4.8522e-05
5.21861e-05
4.85225e-05
5.21744e-05
4.85217e-05
0.000124826
0.000213191
0.000223075
6.34223e-05
0.000223075
6.34051e-05
0.000124851
0.000124831
0.000213195
0.000223075
6.34193e-05
0.000223075
6.34019e-05
0.000124855
5.21803e-05
4.85217e-05
4.85224e-05
5.21901e-05
5.21809e-05
4.85215e-05
4.85222e-05
5.21906e-05
2.59932e-05
2.59926e-05
2.59923e-05
2.59917e-05
0.000195127
3.67789e-05
3.6772e-05
3.67731e-05
3.67663e-05
2.59924e-05
2.59928e-05
2.59915e-05
2.59918e-05
2.59942e-05
2.5994e-05
2.59919e-05
2.59917e-05
3.67791e-05
3.6772e-05
0.00019526
3.67838e-05
3.67766e-05
2.59941e-05
2.59942e-05
2.59918e-05
2.59919e-05
0.000195129
3.67852e-05
3.6778e-05
3.67819e-05
3.67748e-05
5.21882e-05
4.85251e-05
5.21786e-05
4.85245e-05
0.000124856
6.34116e-05
0.000223077
0.000213186
0.000124829
6.34301e-05
0.000223077
0.000124858
6.34106e-05
0.000223077
0.000213188
0.000124832
6.34287e-05
0.000223078
5.21802e-05
4.85251e-05
4.85256e-05
5.21876e-05
5.21809e-05
4.85251e-05
4.85251e-05
5.21883e-05
0.00012483
0.000213185
6.34317e-05
0.000223077
6.34151e-05
0.000223077
0.000124851
0.000124832
0.000213187
6.34264e-05
0.000223078
6.34132e-05
0.000223078
0.000124853
3.67742e-05
3.67709e-05
0.000195262
3.67786e-05
3.67759e-05
2.59935e-05
2.59932e-05
2.59929e-05
2.5993e-05
0.000195131
3.67769e-05
3.67752e-05
3.67764e-05
3.67732e-05
2.59936e-05
2.59936e-05
0.000124859
6.33994e-05
0.000223074
0.000213192
0.000124832
6.34184e-05
0.000223073
5.21926e-05
4.85193e-05
5.21839e-05
4.85187e-05
0.000124856
0.000223072
6.33928e-05
0.000213177
0.000124829
0.000223072
6.34117e-05
5.21881e-05
4.85213e-05
4.85218e-05
5.21949e-05
0.000124832
0.000213192
6.34197e-05
0.000223075
6.34028e-05
0.000223075
0.000124852
5.21864e-05
4.85187e-05
4.85192e-05
5.21932e-05
0.00012483
0.000213176
0.000223074
6.34131e-05
0.000223074
6.33961e-05
0.00012485
5.21865e-05
4.85238e-05
5.21772e-05
4.85232e-05
0.000124854
0.000223077
6.34076e-05
0.000213185
0.000124828
0.000223078
6.34258e-05
5.21863e-05
4.85224e-05
5.21769e-05
4.85218e-05
0.000124828
0.000213196
6.34255e-05
0.000223078
6.34113e-05
0.000223079
0.00012485
5.21793e-05
4.85239e-05
4.85238e-05
5.21871e-05
0.000124827
0.000213185
0.000223078
6.34271e-05
0.000223079
6.34109e-05
0.000124848
5.2179e-05
4.85218e-05
4.85223e-05
5.21866e-05
3.67603e-05
3.67774e-05
0.000195253
3.67655e-05
3.67821e-05
2.59928e-05
2.59926e-05
2.59902e-05
2.59903e-05
0.000195122
3.67668e-05
3.67836e-05
3.67629e-05
3.67802e-05
2.59927e-05
2.59928e-05
0.00012486
0.000223075
6.34044e-05
0.000213195
0.000124833
0.000223076
6.34226e-05
5.2193e-05
4.85221e-05
5.21845e-05
4.85216e-05
5.21937e-05
4.85219e-05
5.2185e-05
4.85213e-05
0.000124831
0.00021319
0.000223075
6.34275e-05
0.000223075
6.34113e-05
0.000124853
0.000124833
0.000213194
0.000223077
6.34238e-05
0.000223077
6.34075e-05
0.000124854
5.21869e-05
4.85216e-05
4.8522e-05
5.21938e-05
5.21874e-05
4.85214e-05
4.85218e-05
5.21942e-05
2.59926e-05
2.59924e-05
2.59917e-05
2.59914e-05
0.000195127
3.67834e-05
3.67766e-05
3.678e-05
3.67733e-05
2.59925e-05
2.59926e-05
2.59916e-05
2.59917e-05
2.59945e-05
2.59948e-05
2.59921e-05
2.59925e-05
3.6782e-05
3.6775e-05
0.000195246
3.67799e-05
3.67727e-05
2.59955e-05
2.59952e-05
2.59932e-05
2.59929e-05
0.000195106
3.67713e-05
3.6764e-05
3.67751e-05
3.6768e-05
5.21793e-05
4.85259e-05
5.21801e-05
4.85274e-05
0.000124838
6.34149e-05
0.000223075
0.000213179
0.000124822
6.34226e-05
0.000223073
0.000124839
6.34079e-05
0.000223076
0.000213175
0.000124823
6.34113e-05
0.000223072
5.21659e-05
4.85305e-05
4.85276e-05
5.2158e-05
5.21666e-05
4.85313e-05
4.85294e-05
5.21583e-05
0.000124805
0.000213171
6.34019e-05
0.000223047
6.3402e-05
0.000223065
0.000124793
0.000124806
0.000213157
6.33888e-05
0.000223043
6.33897e-05
0.000223062
0.000124791
3.67726e-05
3.67706e-05
0.000195236
3.67693e-05
3.67678e-05
2.59941e-05
2.59944e-05
2.59941e-05
2.59941e-05
0.000195088
3.67577e-05
3.6755e-05
3.67643e-05
3.67622e-05
2.59948e-05
2.59948e-05
0.00012484
6.34024e-05
0.000223074
0.000213187
0.000124824
6.34105e-05
0.000223072
5.21845e-05
4.85194e-05
5.2186e-05
4.85199e-05
0.000124838
0.000223073
6.33958e-05
0.000213173
0.000124822
0.000223071
6.34042e-05
5.2174e-05
4.85264e-05
4.85238e-05
5.21645e-05
0.000124808
0.00021318
6.33898e-05
0.000223047
6.33895e-05
0.000223065
0.000124796
5.21727e-05
4.85238e-05
4.85211e-05
5.21632e-05
0.000124806
0.000213165
0.000223045
6.33834e-05
0.000223063
6.33831e-05
0.000124795
5.21786e-05
4.85248e-05
5.2179e-05
4.85262e-05
0.000124837
0.000223077
6.34107e-05
0.000213179
0.00012482
0.000223073
6.34185e-05
5.21781e-05
4.85225e-05
5.21785e-05
4.8523e-05
0.000124806
0.000213174
6.33889e-05
0.000223046
6.33893e-05
0.000223063
0.000124794
5.21659e-05
4.85301e-05
4.85283e-05
5.21579e-05
0.000124805
0.000213171
0.000223046
6.33974e-05
0.000223064
6.33981e-05
0.000124793
5.21654e-05
4.8527e-05
4.85241e-05
5.21574e-05
3.67629e-05
3.67804e-05
0.00019524
3.67615e-05
3.67784e-05
2.59931e-05
2.59934e-05
2.59915e-05
2.59914e-05
0.0001951
3.67523e-05
3.67696e-05
3.67559e-05
3.67735e-05
2.59941e-05
2.59938e-05
0.000124843
0.000223076
6.34071e-05
0.000213188
0.000124826
0.000223073
6.34148e-05
5.21852e-05
4.85222e-05
5.21867e-05
4.85227e-05
5.21856e-05
4.8522e-05
5.2187e-05
4.85225e-05
0.000124809
0.000213178
0.000223047
6.33976e-05
0.000223064
6.33986e-05
0.000124799
0.000124811
0.00021318
0.000223047
6.33939e-05
0.000223065
6.33943e-05
0.0001248
5.21734e-05
4.85268e-05
4.85238e-05
5.2164e-05
5.21738e-05
4.85266e-05
4.85236e-05
5.21643e-05
2.59929e-05
2.59932e-05
2.59919e-05
2.59923e-05
0.000195104
3.67695e-05
3.67626e-05
3.67732e-05
3.67664e-05
2.59939e-05
2.59936e-05
2.59929e-05
2.59927e-05
2.59957e-05
2.59955e-05
2.59934e-05
2.59932e-05
3.6766e-05
3.67587e-05
0.000195177
3.67573e-05
3.67502e-05
2.59954e-05
2.59956e-05
2.59931e-05
2.59933e-05
0.000195045
3.67545e-05
3.67473e-05
3.67534e-05
3.67465e-05
5.21411e-05
4.85319e-05
5.21453e-05
4.85315e-05
0.000124749
6.33804e-05
0.000223039
0.000213133
0.00012475
6.33836e-05
0.000223038
0.00012475
6.33681e-05
0.000223037
0.000213132
0.000124748
6.33754e-05
0.000223038
5.21307e-05
4.85317e-05
4.85323e-05
5.21356e-05
5.21315e-05
4.85314e-05
4.85319e-05
5.21364e-05
0.000124725
0.000213132
6.33771e-05
0.000223044
6.33653e-05
0.00022304
0.000124751
0.000124726
0.000213133
6.33719e-05
0.000223044
6.33581e-05
0.00022304
0.000124752
3.67517e-05
3.67499e-05
0.00019518
3.67474e-05
3.67444e-05
2.59951e-05
2.59947e-05
2.5994e-05
2.59942e-05
0.000195052
3.67465e-05
3.6743e-05
3.67444e-05
3.67405e-05
2.59947e-05
2.5995e-05
0.000124752
6.33677e-05
0.000223039
0.000213142
0.000124753
6.33715e-05
0.000223038
5.2146e-05
4.85255e-05
5.21507e-05
4.85255e-05
0.00012475
0.000223037
6.33612e-05
0.000213127
0.000124751
0.000223036
6.33648e-05
5.21386e-05
4.85278e-05
4.85284e-05
5.2143e-05
0.000124728
0.000213141
6.3365e-05
0.000223044
6.33527e-05
0.00022304
0.000124754
5.21374e-05
4.85254e-05
4.8526e-05
5.21414e-05
0.000124725
0.000213125
0.000223042
6.3358e-05
0.000223037
6.33458e-05
0.000124752
5.21405e-05
4.85308e-05
5.21449e-05
4.85303e-05
0.000124748
0.000223039
6.33759e-05
0.000213134
0.000124751
0.000223038
6.33791e-05
5.214e-05
4.85286e-05
5.21444e-05
4.85286e-05
0.000124726
0.000213145
6.33694e-05
0.000223045
6.33555e-05
0.000223041
0.00012475
5.21307e-05
4.85302e-05
4.85308e-05
5.21355e-05
0.000124724
0.000213132
0.000223044
6.33727e-05
0.00022304
6.33609e-05
0.00012475
5.21302e-05
4.85285e-05
4.85291e-05
5.2135e-05
3.67468e-05
3.67642e-05
0.000195171
3.67393e-05
3.67557e-05
2.59943e-05
2.59941e-05
2.59915e-05
2.59918e-05
0.000195038
3.6735e-05
3.67529e-05
3.67344e-05
3.67518e-05
2.5994e-05
2.59942e-05
0.000124754
0.000223039
6.33723e-05
0.000213143
0.000124756
0.000223038
6.33757e-05
5.21468e-05
4.85284e-05
5.21516e-05
4.85284e-05
5.21472e-05
4.85282e-05
5.21518e-05
4.85282e-05
0.000124729
0.00021314
0.000223043
6.33729e-05
0.00022304
6.33613e-05
0.000124753
0.00012473
0.000213142
0.000223044
6.33693e-05
0.00022304
6.33574e-05
0.000124756
5.21382e-05
4.85283e-05
4.85288e-05
5.21421e-05
5.21385e-05
4.8528e-05
4.85286e-05
5.21425e-05
2.59941e-05
2.59939e-05
2.59932e-05
2.59929e-05
0.000195044
3.67528e-05
3.67458e-05
3.67516e-05
3.67447e-05
2.59938e-05
2.59941e-05
2.59929e-05
2.59931e-05
2.59956e-05
2.59954e-05
2.59933e-05
2.59931e-05
3.67518e-05
3.67447e-05
0.000195185
3.67542e-05
3.67469e-05
2.59954e-05
2.59956e-05
2.59931e-05
2.59933e-05
0.000195054
3.67541e-05
3.67469e-05
3.67516e-05
3.67444e-05
5.21356e-05
4.85318e-05
5.21284e-05
4.85313e-05
0.000124752
6.33607e-05
0.000223047
0.000213137
0.000124727
6.33757e-05
0.000223047
0.000124754
6.33558e-05
0.000223047
0.000213138
0.000124728
6.33707e-05
0.000223047
5.21272e-05
4.85317e-05
4.85321e-05
5.21347e-05
5.21279e-05
4.85311e-05
4.85318e-05
5.21354e-05
0.000124727
0.000213137
6.33754e-05
0.000223047
6.33598e-05
0.000223047
0.000124751
0.000124729
0.000213138
6.3369e-05
0.000223047
6.33536e-05
0.000223047
0.000124753
3.6744e-05
3.67399e-05
0.000195186
3.67454e-05
3.67432e-05
2.59949e-05
2.59946e-05
2.59938e-05
2.59943e-05
0.000195054
3.67436e-05
3.67433e-05
3.67417e-05
3.67401e-05
2.59946e-05
2.59949e-05
0.000124755
6.3348e-05
0.000223047
0.000213146
0.00012473
6.33636e-05
0.000223047
5.21406e-05
4.85259e-05
5.21344e-05
4.85253e-05
0.000124753
0.000223044
6.3341e-05
0.00021313
0.000124728
0.000223045
6.33566e-05
5.21357e-05
4.85277e-05
4.85283e-05
5.21423e-05
0.000124731
0.000213146
6.33633e-05
0.000223047
6.33472e-05
0.000223047
0.000124755
5.21339e-05
4.85252e-05
4.85258e-05
5.21405e-05
0.000124729
0.00021313
0.000223044
6.33563e-05
0.000223045
6.33401e-05
0.000124753
5.21346e-05
4.85307e-05
5.21275e-05
4.85301e-05
0.000124751
0.000223047
6.33565e-05
0.000213137
0.000124726
0.000223047
6.33713e-05
5.21342e-05
4.8529e-05
5.2127e-05
4.85284e-05
0.000124728
0.000213149
6.33687e-05
0.000223047
6.33524e-05
0.000223047
0.000124751
5.2127e-05
4.85301e-05
4.85306e-05
5.21345e-05
0.000124727
0.000213138
0.000223047
6.3371e-05
0.000223047
6.33556e-05
0.000124751
5.21265e-05
4.85284e-05
4.85289e-05
5.21341e-05
3.67316e-05
3.67501e-05
0.000195178
3.67347e-05
3.67525e-05
2.59942e-05
2.5994e-05
2.59914e-05
2.59917e-05
0.000195048
3.67348e-05
3.67525e-05
3.67315e-05
3.67499e-05
2.5994e-05
2.59942e-05
0.000124758
0.000223047
6.3353e-05
0.000213147
0.000124733
0.000223047
6.3368e-05
5.21413e-05
4.85287e-05
5.21351e-05
4.85282e-05
5.21418e-05
4.85285e-05
5.21355e-05
4.8528e-05
0.000124733
0.000213145
0.000223046
6.33713e-05
0.000223047
6.33561e-05
0.000124754
0.000124733
0.000213147
0.000223047
6.33677e-05
0.000223047
6.33521e-05
0.000124757
5.21347e-05
4.85281e-05
4.85286e-05
5.21413e-05
5.21351e-05
4.85279e-05
4.85284e-05
5.21417e-05
2.5994e-05
2.59938e-05
2.59931e-05
2.59928e-05
0.000195052
3.67524e-05
3.67455e-05
3.67497e-05
3.67428e-05
2.59938e-05
2.5994e-05
2.59928e-05
2.59931e-05
2.59956e-05
2.59951e-05
2.59933e-05
2.59931e-05
3.67514e-05
3.67445e-05
0.000195178
3.67534e-05
3.67469e-05
2.59951e-05