/*--------------------------------*- C++ -*----------------------------------*\
| =========                 |                                                 |
| \\      /  F ield         | OpenFOAM: The Open Source CFD Toolbox           |
|  \\    /   O peration     | Version:  2206                                  |
|   \\  /    A nd           | Website:  www.openfoam.com                      |
|    \\/     M anipulation  |                                                 |
\*---------------------------------------------------------------------------*/
FoamFile
{
    version     2.0;
    format      ascii;
    arch        "LSB;label=32;scalar=64";
    class       volScalarField;
    location    "20";
    object      epsilon;
}
// * * * * * * * * * * * * * * * * * * * * * * * * * * * * * * * * * * * * * //

dimensions      [0 2 -3 0 0 0 0];

internalField   nonuniform List<scalar> 
28448
(
3.34223e-07
3.54535e-07
3.54541e-07
3.82641e-07
3.34226e-07
3.54538e-07
3.54545e-07
3.82649e-07
3.34224e-07
3.5454e-07
3.54546e-07
3.82658e-07
3.34222e-07
3.5454e-07
3.54543e-07
3.82661e-07
3.34175e-07
3.54491e-07
3.54468e-07
3.82623e-07
3.34057e-07
3.54391e-07
3.54396e-07
3.82516e-07
3.3405e-07
3.54387e-07
3.54395e-07
3.82531e-07
3.34049e-07
3.54386e-07
3.54394e-07
3.82525e-07
3.34049e-07
3.54386e-07
3.54394e-07
3.8253e-07
3.34049e-07
3.54386e-07
3.54394e-07
3.8253e-07
3.34049e-07
3.54386e-07
3.54394e-07
3.82529e-07
3.34049e-07
3.54386e-07
3.54394e-07
3.82528e-07
3.34049e-07
3.54386e-07
3.54394e-07
3.82528e-07
3.34049e-07
3.54386e-07
3.54394e-07
3.82528e-07
3.34049e-07
3.54386e-07
3.54394e-07
3.82528e-07
3.34049e-07
3.54386e-07
3.54394e-07
3.82528e-07
3.34049e-07
3.54386e-07
3.54394e-07
3.82528e-07
3.34057e-07
3.54399e-07
3.82408e-07
3.5455e-07
3.54554e-07
3.824e-07
3.54539e-07
3.54561e-07
3.54535e-07
3.54552e-07
3.82419e-07
3.54541e-07
3.5454e-07
3.82416e-07
3.82637e-07
3.8242e-07
3.5455e-07
3.54554e-07
3.54549e-07
3.54553e-07
3.8263e-07
3.82413e-07
3.54539e-07
3.54564e-07
3.54539e-07
3.54564e-07
3.54556e-07
3.54538e-07
3.54555e-07
3.82645e-07
3.82428e-07
3.54544e-07
3.54544e-07
3.54543e-07
3.82426e-07
3.82646e-07
3.82429e-07
3.54553e-07
3.54557e-07
3.54553e-07
3.54556e-07
3.8264e-07
3.82421e-07
3.54543e-07
3.54567e-07
3.54543e-07
3.54567e-07
3.54559e-07
3.5454e-07
3.54558e-07
3.82654e-07
3.82437e-07
3.54547e-07
3.54548e-07
3.54546e-07
3.82434e-07
3.82655e-07
3.82433e-07
3.54557e-07
3.5456e-07
3.54555e-07
3.54558e-07
3.82648e-07
3.82425e-07
3.54546e-07
3.54569e-07
3.54544e-07
3.54565e-07
3.54561e-07
3.5454e-07
3.54556e-07
3.82662e-07
3.82439e-07
3.54549e-07
3.54543e-07
3.54545e-07
3.82438e-07
3.82659e-07
3.82426e-07
3.54555e-07
3.54558e-07
3.54542e-07
3.54545e-07
3.82651e-07
3.82418e-07
3.54545e-07
3.54565e-07
3.54531e-07
3.5453e-07
3.54556e-07
3.54523e-07
3.5452e-07
3.82663e-07
3.82417e-07
3.54545e-07
3.54508e-07
3.54508e-07
3.82415e-07
3.82645e-07
3.82307e-07
3.54516e-07
3.54519e-07
3.54421e-07
3.54424e-07
3.82637e-07
3.82298e-07
3.54504e-07
3.54491e-07
3.5441e-07
3.5442e-07
3.54481e-07
3.54401e-07
3.54411e-07
3.82628e-07
3.82298e-07
3.54469e-07
3.544e-07
3.54399e-07
3.82296e-07
3.82523e-07
3.82297e-07
3.5441e-07
3.54413e-07
3.54403e-07
3.54407e-07
3.82515e-07
3.8229e-07
3.54399e-07
3.54417e-07
3.54392e-07
3.54415e-07
3.54409e-07
3.54387e-07
3.54406e-07
3.8252e-07
3.82309e-07
3.54397e-07
3.54395e-07
3.54394e-07
3.82307e-07
3.82525e-07
3.82303e-07
3.54406e-07
3.5441e-07
3.54403e-07
3.54407e-07
3.82518e-07
3.82295e-07
3.54395e-07
3.54418e-07
3.54392e-07
3.54414e-07
3.54409e-07
3.54386e-07
3.54405e-07
3.82536e-07
3.82307e-07
3.54397e-07
3.54394e-07
3.54394e-07
3.82304e-07
3.82527e-07
3.823e-07
3.54405e-07
3.54408e-07
3.54403e-07
3.54406e-07
3.8252e-07
3.82293e-07
3.54394e-07
3.54416e-07
3.54392e-07
3.54414e-07
3.54407e-07
3.54387e-07
3.54405e-07
3.82531e-07
3.8231e-07
3.54395e-07
3.54395e-07
3.54393e-07
3.82308e-07
3.82527e-07
3.82298e-07
3.54405e-07
3.54408e-07
3.54402e-07
3.54406e-07
3.82521e-07
3.82291e-07
3.54394e-07
3.54416e-07
3.54392e-07
3.54414e-07
3.54407e-07
3.54386e-07
3.54405e-07
3.82535e-07
3.82307e-07
3.54395e-07
3.54394e-07
3.54393e-07
3.82307e-07
3.82524e-07
3.82299e-07
3.54405e-07
3.54408e-07
3.54403e-07
3.54406e-07
3.82517e-07
3.82291e-07
3.54394e-07
3.54416e-07
3.54392e-07
3.54414e-07
3.54407e-07
3.54386e-07
3.54405e-07
3.82533e-07
3.82307e-07
3.54395e-07
3.54394e-07
3.54393e-07
3.82306e-07
3.82524e-07
3.82299e-07
3.54404e-07
3.54408e-07
3.54403e-07
3.54406e-07
3.82517e-07
3.82292e-07
3.54394e-07
3.54416e-07
3.54392e-07
3.54414e-07
3.54407e-07
3.54386e-07
3.54405e-07
3.82532e-07
3.82307e-07
3.54395e-07
3.54394e-07
3.54393e-07
3.82305e-07
3.82524e-07
3.82299e-07
3.54405e-07
3.54408e-07
3.54402e-07
3.54406e-07
3.82517e-07
3.82292e-07
3.54394e-07
3.54416e-07
3.54392e-07
3.54414e-07
3.54407e-07
3.54386e-07
3.54405e-07
3.82532e-07
3.82307e-07
3.54395e-07
3.54394e-07
3.54393e-07
3.82305e-07
3.82524e-07
3.823e-07
3.54404e-07
3.54408e-07
3.54403e-07
3.54406e-07
3.82518e-07
3.82292e-07
3.54394e-07
3.54416e-07
3.54392e-07
3.54414e-07
3.54407e-07
3.54386e-07
3.54405e-07
3.82532e-07
3.82307e-07
3.54395e-07
3.54394e-07
3.54393e-07
3.82305e-07
3.82525e-07
3.823e-07
3.54405e-07
3.54408e-07
3.54402e-07
3.54406e-07
3.82517e-07
3.82292e-07
3.54394e-07
3.54416e-07
3.54392e-07
3.54414e-07
3.54407e-07
3.54386e-07
3.54405e-07
3.82532e-07
3.82307e-07
3.54395e-07
3.54394e-07
3.54393e-07
3.82305e-07
3.82525e-07
3.823e-07
3.54405e-07
3.54408e-07
3.54402e-07
3.54406e-07
3.82517e-07
3.82292e-07
3.54394e-07
3.54416e-07
3.54392e-07
3.54414e-07
3.54407e-07
3.54386e-07
3.54405e-07
3.82532e-07
3.82307e-07
3.54395e-07
3.54394e-07
3.54393e-07
3.82305e-07
3.82524e-07
3.823e-07
3.54404e-07
3.54408e-07
3.54402e-07
3.54406e-07
3.82517e-07
3.82292e-07
3.54394e-07
3.54416e-07
3.54392e-07
3.54414e-07
3.54407e-07
3.54386e-07
3.54405e-07
3.82532e-07
3.82307e-07
3.54395e-07
3.54394e-07
3.54393e-07
3.82305e-07
3.82524e-07
3.823e-07
3.54404e-07
3.54408e-07
3.54405e-07
3.82517e-07
3.54394e-07
3.54416e-07
3.54392e-07
3.54414e-07
3.54407e-07
3.54408e-07
3.82531e-07
3.82307e-07
3.54395e-07
3.54396e-07
3.54396e-07
3.82306e-07
3.82529e-07
3.54395e-07
3.54416e-07
3.82532e-07
3.34223e-07
3.34225e-07
3.34226e-07
3.34225e-07
1.65819e-06
8.55124e-06
1.6586e-06
8.55065e-06
2.42411e-05
2.42384e-05
1.65809e-06
8.55235e-06
1.65841e-06
8.55173e-06
3.34225e-07
3.3423e-07
3.34229e-07
3.34226e-07
3.34224e-07
3.34229e-07
3.34228e-07
5.83662e-07
1.32735e-06
3.40471e-07
3.54539e-07
5.83782e-07
1.32676e-06
3.40475e-07
2.42402e-05
2.4238e-05
5.83689e-07
3.40474e-07
1.32732e-06
3.54545e-07
5.83812e-07
3.40478e-07
1.32675e-06
2.76216e-06
2.76277e-06
3.82422e-07
2.76174e-06
2.76235e-06
1.65825e-06
8.55077e-06
1.65874e-06
8.55028e-06
2.42369e-05
2.42358e-05
1.65812e-06
8.55188e-06
1.65857e-06
8.55136e-06
3.34226e-07
3.34229e-07
3.34228e-07
3.34225e-07
3.34223e-07
3.34227e-07
3.34226e-07
5.83685e-07
1.32746e-06
3.40475e-07
3.54542e-07
5.83812e-07
1.32684e-06
3.40478e-07
2.4237e-05
2.42359e-05
5.83713e-07
3.40476e-07
1.32739e-06
3.54548e-07
5.83844e-07
3.4048e-07
1.32679e-06
2.76229e-06
2.7629e-06
3.82431e-07
2.76188e-06
2.7625e-06
1.65822e-06
8.55056e-06
1.65872e-06
8.55015e-06
2.42357e-05
2.42354e-05
1.65808e-06
8.55166e-06
1.65852e-06
8.55122e-06
3.34223e-07
3.34227e-07
3.34226e-07
3.34222e-07
3.3422e-07
3.34223e-07
3.34222e-07
5.83691e-07
1.32749e-06
3.40475e-07
3.54542e-07
5.83825e-07
1.32685e-06
3.40474e-07
2.42364e-05
2.42359e-05
5.83718e-07
3.40475e-07
1.32741e-06
3.54546e-07
5.83857e-07
3.40474e-07
1.3268e-06
2.76238e-06
2.76299e-06
3.82436e-07
2.76195e-06
2.76256e-06
1.65827e-06
8.5506e-06
1.65868e-06
8.55062e-06
2.42365e-05
2.42372e-05
1.65816e-06
8.55167e-06
1.6585e-06
8.55167e-06
3.3422e-07
3.34221e-07
3.3422e-07
3.34205e-07
3.34203e-07
3.34181e-07
3.3418e-07
5.83712e-07
1.3275e-06
3.40469e-07
3.54539e-07
5.83826e-07
1.32693e-06
3.40468e-07
2.42379e-05
2.42384e-05
5.83736e-07
3.4047e-07
1.32745e-06
3.54541e-07
5.83854e-07
3.40467e-07
1.32695e-06
2.76241e-06
2.76302e-06
3.82437e-07
2.76214e-06
2.76276e-06
1.65867e-06
8.55293e-06
1.65918e-06
8.55309e-06
2.42388e-05
2.42383e-05
1.65849e-06
8.55402e-06
1.65897e-06
8.55417e-06
3.34174e-07
3.34138e-07
3.34136e-07
3.34072e-07
3.3407e-07
3.3406e-07
3.34059e-07
5.83642e-07
1.32775e-06
3.40403e-07
3.54455e-07
5.83825e-07
1.32707e-06
3.40369e-07
2.42393e-05
2.42386e-05
5.83662e-07
3.40392e-07
1.32767e-06
3.54438e-07
5.83854e-07
3.40359e-07
1.32698e-06
2.76268e-06
2.76328e-06
3.82341e-07
2.762e-06
2.76261e-06
1.65846e-06
8.55346e-06
1.65899e-06
8.55303e-06
2.42384e-05
2.42379e-05
1.65831e-06
8.55457e-06
1.65877e-06
8.55412e-06
3.34059e-07
3.34057e-07
3.34056e-07
3.3405e-07
3.34051e-07
3.34054e-07
3.34052e-07
5.83601e-07
1.32761e-06
3.40313e-07
3.5439e-07
5.83739e-07
1.32693e-06
3.40313e-07
2.42389e-05
2.42383e-05
5.83625e-07
3.40313e-07
1.32751e-06
3.54397e-07
5.83765e-07
3.40315e-07
1.32688e-06
2.76229e-06
2.76289e-06
3.82297e-07
2.76181e-06
2.76241e-06
1.65844e-06
8.55338e-06
1.65893e-06
8.55299e-06
2.42383e-05
2.42379e-05
1.65829e-06
8.5545e-06
1.65873e-06
8.55409e-06
3.34054e-07
3.34056e-07
3.34055e-07
3.3405e-07
3.34051e-07
3.34053e-07
3.34052e-07
5.83603e-07
1.32757e-06
3.40311e-07
3.54389e-07
5.83736e-07
1.32692e-06
3.40312e-07
2.42389e-05
2.42383e-05
5.83629e-07
3.40313e-07
1.32749e-06
3.54397e-07
5.83763e-07
3.40314e-07
1.32687e-06
2.76226e-06
2.76286e-06
3.8231e-07
2.7618e-06
2.76241e-06
1.65844e-06
8.55337e-06
1.65893e-06
8.55299e-06
2.42383e-05
2.42379e-05
1.65829e-06
8.55449e-06
1.65872e-06
8.55408e-06
3.34053e-07
3.34055e-07
3.34054e-07
3.34049e-07
3.34051e-07
3.34053e-07
3.34052e-07
5.83602e-07
1.32757e-06
3.4031e-07
3.54388e-07
5.83735e-07
1.32692e-06
3.40312e-07
2.42389e-05
2.42383e-05
5.83624e-07
3.40312e-07
1.32749e-06
3.54396e-07
5.83757e-07
3.40314e-07
1.32687e-06
2.76226e-06
2.76286e-06
3.82304e-07
2.7618e-06
2.76241e-06
1.65844e-06
8.55337e-06
1.65893e-06
8.55299e-06
2.42383e-05
2.42379e-05
1.65829e-06
8.55449e-06
1.65872e-06
8.55408e-06
3.34053e-07
3.34055e-07
3.34054e-07
3.34049e-07
3.34051e-07
3.34053e-07
3.34052e-07
5.83602e-07
1.32757e-06
3.4031e-07
3.54388e-07
5.83736e-07
1.32692e-06
3.40312e-07
2.42389e-05
2.42383e-05
5.83624e-07
3.40311e-07
1.32749e-06
3.54396e-07
5.83756e-07
3.40313e-07
1.32687e-06
2.76226e-06
2.76286e-06
3.82303e-07
2.7618e-06
2.76241e-06
1.65844e-06
8.55337e-06
1.65893e-06
8.55299e-06
2.42383e-05
2.42379e-05
1.65829e-06
8.55449e-06
1.65872e-06
8.55408e-06
3.34053e-07
3.34055e-07
3.34054e-07
3.34049e-07
3.34051e-07
3.34053e-07
3.34052e-07
5.83602e-07
1.32757e-06
3.4031e-07
3.54388e-07
5.83736e-07
1.32692e-06
3.40312e-07
2.42389e-05
2.42383e-05
5.83634e-07
3.40312e-07
1.32749e-06
3.54396e-07
5.83763e-07
3.40314e-07
1.32687e-06
2.76226e-06
2.76286e-06
3.82305e-07
2.7618e-06
2.76241e-06
1.65844e-06
8.55337e-06
1.65893e-06
8.55299e-06
2.42383e-05
2.42379e-05
1.65829e-06
8.55449e-06
1.65872e-06
8.55408e-06
3.34053e-07
3.34055e-07
3.34054e-07
3.34049e-07
3.34051e-07
3.34053e-07
3.34052e-07
5.83602e-07
1.32757e-06
3.4031e-07
3.54388e-07
5.83735e-07
1.32692e-06
3.40312e-07
2.42389e-05
2.42383e-05
5.83642e-07
3.40312e-07
1.32749e-06
3.54396e-07
5.83773e-07
3.40314e-07
1.32687e-06
2.76226e-06
2.76286e-06
3.82305e-07
2.76179e-06
2.76241e-06
1.65844e-06
8.55337e-06
1.65893e-06
8.55299e-06
2.42383e-05
2.42379e-05
1.65829e-06
8.55449e-06
1.65872e-06
8.55408e-06
3.34053e-07
3.34055e-07
3.34054e-07
3.3405e-07
3.34051e-07
3.34053e-07
3.34052e-07
5.83602e-07
1.32757e-06
3.4031e-07
3.54388e-07
5.83736e-07
1.32692e-06
3.40312e-07
2.42389e-05
2.42383e-05
5.83644e-07
3.40312e-07
1.32749e-06
3.54396e-07
5.83777e-07
3.40314e-07
1.32687e-06
2.76226e-06
2.76286e-06
3.82305e-07
2.76179e-06
2.76241e-06
1.65844e-06
8.55337e-06
1.65893e-06
8.55299e-06
2.42383e-05
2.42379e-05
1.65829e-06
8.55449e-06
1.65872e-06
8.55408e-06
3.34053e-07
3.34055e-07
3.34054e-07
3.34049e-07
3.34051e-07
3.34053e-07
3.34052e-07
5.83602e-07
1.32757e-06
3.4031e-07
3.54388e-07
5.83735e-07
1.32692e-06
3.40312e-07
2.42389e-05
2.42383e-05
5.83642e-07
3.40312e-07
1.32749e-06
3.54396e-07
5.83778e-07
3.40314e-07
1.32687e-06
2.76226e-06
2.76286e-06
3.82305e-07
2.76179e-06
2.76241e-06
1.65844e-06
8.55337e-06
1.65893e-06
8.55299e-06
2.42383e-05
2.42379e-05
1.65829e-06
8.55449e-06
1.65872e-06
8.55408e-06
3.34053e-07
3.34055e-07
3.34054e-07
3.3405e-07
3.34051e-07
3.34053e-07
3.34052e-07
5.83602e-07
1.32757e-06
3.4031e-07
3.54388e-07
5.83735e-07
1.32692e-06
3.40312e-07
2.42389e-05
2.42383e-05
5.8364e-07
3.40312e-07
1.32749e-06
3.54396e-07
5.83775e-07
3.40314e-07
1.32688e-06
2.76226e-06
2.76286e-06
3.82305e-07
2.7618e-06
2.76241e-06
1.65844e-06
8.55337e-06
1.65893e-06
8.55299e-06
2.42383e-05
2.42379e-05
1.65829e-06
8.55449e-06
1.65872e-06
8.55408e-06
3.34053e-07
3.34055e-07
3.34054e-07
3.34049e-07
3.34051e-07
3.34053e-07
3.34052e-07
5.83602e-07
1.32757e-06
3.4031e-07
3.54388e-07
5.83735e-07
1.32692e-06
3.40312e-07
2.42389e-05
2.42383e-05
5.83638e-07
3.40312e-07
1.32749e-06
3.54396e-07
5.83773e-07
3.40314e-07
1.32687e-06
2.76226e-06
2.76286e-06
3.82305e-07
2.7618e-06
2.76241e-06
1.65844e-06
8.55337e-06
1.65893e-06
8.55299e-06
2.42383e-05
2.42379e-05
1.65829e-06
8.55449e-06
1.65872e-06
8.55408e-06
3.34053e-07
3.34055e-07
3.34054e-07
3.34049e-07
3.34051e-07
3.34053e-07
3.34052e-07
5.83602e-07
1.32757e-06
3.4031e-07
3.54388e-07
5.83735e-07
1.32692e-06
3.40312e-07
2.42389e-05
2.42383e-05
5.83638e-07
3.40312e-07
1.32749e-06
3.54396e-07
5.83772e-07
3.40314e-07
1.32687e-06
2.76226e-06
2.76286e-06
3.82306e-07
2.7618e-06
2.76241e-06
1.65844e-06
8.55337e-06
1.65892e-06
8.55299e-06
2.42383e-05
2.42379e-05
1.65829e-06
8.55449e-06
1.65872e-06
8.55408e-06
3.34053e-07
3.34055e-07
3.34054e-07
3.34051e-07
3.34057e-07
3.34053e-07
3.34055e-07
5.83602e-07
1.32757e-06
3.4031e-07
3.54387e-07
5.83736e-07
1.32692e-06
3.40312e-07
2.42389e-05
2.42383e-05
5.83637e-07
3.40312e-07
1.32749e-06
3.54396e-07
5.83771e-07
3.40314e-07
1.32687e-06
2.76225e-06
2.76286e-06
3.82305e-07
2.76179e-06
2.7624e-06
8.55449e-06
1.65872e-06
3.34058e-07
2.42389e-05
1.32749e-06
2.42403e-05
2.4242e-05
2.76149e-06
2.7621e-06
8.55094e-06
1.65809e-06
8.55165e-06
1.65809e-06
1.32659e-06
3.40474e-07
5.8364e-07
1.32673e-06
3.40475e-07
5.8364e-07
2.42413e-05
2.76193e-06
2.76134e-06
2.42384e-05
8.55202e-06
1.65794e-06
1.32689e-06
3.40477e-07
5.83652e-07
1.65835e-06
8.55219e-06
8.55312e-06
1.65803e-06
5.83775e-07
3.54561e-07
3.40477e-07
1.327e-06
3.40477e-07
1.32757e-06
5.83652e-07
5.83771e-07
1.32669e-06
3.40471e-07
3.40471e-07
5.83646e-07
1.6586e-06
8.55126e-06
1.65818e-06
5.83776e-07
3.54552e-07
3.40474e-07
1.3267e-06
3.40474e-07
1.32724e-06
5.83651e-07
1.6586e-06
8.552e-06
8.55289e-06
1.65817e-06
2.42401e-05
2.42431e-05
3.82631e-07
2.76235e-06
2.76167e-06
2.76266e-06
2.76198e-06
2.42398e-05
2.42426e-05
5.83802e-07
3.54541e-07
3.40474e-07
1.3267e-06
3.40474e-07
1.32723e-06
5.83672e-07
5.83773e-07
3.54541e-07
3.40475e-07
1.32683e-06
3.40475e-07
1.32737e-06
5.8365e-07
1.65863e-06
8.55215e-06
8.55303e-06
1.6582e-06
1.65835e-06
8.55255e-06
8.55344e-06
1.65804e-06
3.82627e-07
2.76167e-06
2.76229e-06
2.76198e-06
2.76261e-06
2.42399e-05
2.42428e-05
2.42408e-05
2.42437e-05
2.42401e-05
2.42374e-05
2.42418e-05
2.42391e-05
2.76196e-06
2.76258e-06
3.82418e-07
2.76163e-06
2.76225e-06
2.42357e-05
2.42375e-05
2.42374e-05
2.42392e-05
3.82645e-07
2.76169e-06
2.76232e-06
2.76205e-06
2.76269e-06
1.6582e-06
8.55191e-06
1.65859e-06
8.5514e-06
5.83654e-07
1.32721e-06
3.40474e-07
3.5455e-07
5.83779e-07
1.32666e-06
3.40474e-07
5.83654e-07
1.32736e-06
3.40475e-07
3.54553e-07
5.83779e-07
1.3268e-06
3.40474e-07
1.65868e-06
8.55043e-06
8.55088e-06
1.65825e-06
1.65869e-06
8.55118e-06
8.55163e-06
1.65827e-06
5.83794e-07
3.54549e-07
1.3267e-06
3.40472e-07
1.32727e-06
3.40472e-07
5.83672e-07
5.83795e-07
3.54552e-07
1.32685e-06
3.40472e-07
1.32742e-06
3.40472e-07
5.83673e-07
2.76247e-06
2.76203e-06
3.82411e-07
2.7622e-06
2.76172e-06
2.42386e-05
2.42357e-05
2.42368e-05
2.42385e-05
3.82638e-07
2.76229e-06
2.76179e-06
2.76266e-06
2.76224e-06
2.4234e-05
2.4236e-05
5.83672e-07
1.32755e-06
3.40476e-07
3.54539e-07
5.83789e-07
1.32697e-06
3.40477e-07
1.65814e-06
8.55245e-06
1.65848e-06
8.55195e-06
5.83671e-07
3.40481e-07
1.32765e-06
3.54564e-07
5.83791e-07
3.40481e-07
1.32705e-06
1.65853e-06
8.55151e-06
8.55199e-06
1.65814e-06
5.8381e-07
3.54538e-07
1.32701e-06
3.40476e-07
1.32761e-06
3.40476e-07
5.8369e-07
1.65856e-06
8.55177e-06
8.55222e-06
1.65814e-06
5.8381e-07
3.54563e-07
3.40479e-07
1.32708e-06
3.40479e-07
1.3277e-06
5.83685e-07
1.65827e-06
8.55155e-06
1.65867e-06
8.55103e-06
5.83667e-07
3.40478e-07
1.32732e-06
3.54556e-07
5.83788e-07
3.40478e-07
1.32676e-06
1.65825e-06
8.55223e-06
1.65866e-06
8.55175e-06
5.83801e-07
3.54538e-07
1.32681e-06
3.40475e-07
1.32741e-06
3.40475e-07
5.83677e-07
1.65875e-06
8.55083e-06
8.5513e-06
1.65829e-06
5.83805e-07
3.54555e-07
3.40477e-07
1.32679e-06
3.40477e-07
1.32737e-06
5.83683e-07
1.65873e-06
8.55157e-06
8.55199e-06
1.65828e-06
2.76294e-06
2.76211e-06
3.82425e-07
2.76252e-06
2.76172e-06
2.42397e-05
2.42376e-05
2.42367e-05
2.42383e-05
3.82651e-07
2.76261e-06
2.7618e-06
2.76304e-06
2.76216e-06
2.42363e-05
2.42378e-05
5.83669e-07
3.40479e-07
1.32745e-06
3.54544e-07
5.83788e-07
3.40479e-07
1.32688e-06
1.65829e-06
8.55238e-06
1.6587e-06
8.5519e-06
1.65814e-06
8.55278e-06
1.65849e-06
8.55231e-06
5.83832e-07
3.54544e-07
3.40476e-07
1.32678e-06
3.40477e-07
1.32736e-06
5.83705e-07
5.83806e-07
3.54543e-07
3.40478e-07
1.32692e-06
3.40477e-07
1.3275e-06
5.83683e-07
1.65878e-06
8.55172e-06
8.55214e-06
1.65832e-06
1.65856e-06
8.55213e-06
8.55255e-06
1.65814e-06
2.42399e-05
2.42378e-05
2.42407e-05
2.42387e-05
3.82649e-07
2.76182e-06
2.76243e-06
2.76218e-06
2.76279e-06
2.42365e-05
2.4238e-05
2.42374e-05
2.42389e-05
2.4236e-05
2.42347e-05
2.42377e-05
2.42364e-05
2.76212e-06
2.76276e-06
3.82424e-07
2.76176e-06
2.7624e-06
2.42342e-05
2.42351e-05
2.42359e-05
2.42368e-05
3.82652e-07
2.76183e-06
2.76246e-06
2.76219e-06
2.76283e-06
1.65827e-06
8.55143e-06
1.65874e-06
8.55103e-06
5.83684e-07
1.32731e-06
3.40476e-07
3.54553e-07
5.83811e-07
1.32673e-06
3.40476e-07
5.83685e-07
1.32746e-06
3.40476e-07
3.54557e-07
5.83812e-07
1.32687e-06
3.40476e-07
1.65871e-06
8.55019e-06
8.55055e-06
1.65824e-06
1.65872e-06
8.55093e-06
8.5513e-06
1.65825e-06
5.83822e-07
3.54553e-07
1.32674e-06
3.40475e-07
1.32732e-06
3.40475e-07
5.83693e-07
5.83823e-07
3.54556e-07
1.32688e-06
3.40475e-07
1.32748e-06
3.40475e-07
5.83694e-07
2.76275e-06
2.76232e-06
3.82418e-07
2.76237e-06
2.76188e-06
2.42344e-05
2.42329e-05
2.42353e-05
2.42362e-05
3.82645e-07
2.76244e-06
2.76195e-06
2.76282e-06
2.7624e-06
2.42325e-05
2.42335e-05
5.83698e-07
1.32765e-06
3.4048e-07
3.54543e-07
5.83824e-07
1.32703e-06
3.4048e-07
1.65812e-06
8.55206e-06
1.65854e-06
8.55166e-06
5.83694e-07
3.40483e-07
1.32772e-06
3.54567e-07
5.83822e-07
3.40483e-07
1.32709e-06
1.65852e-06
8.55127e-06
8.55166e-06
1.6581e-06
5.83832e-07
3.54542e-07
1.32704e-06
3.40478e-07
1.32767e-06
3.40478e-07
5.83704e-07
1.65852e-06
8.55158e-06
8.55196e-06
1.6581e-06
5.8383e-07
3.54566e-07
3.40481e-07
1.3271e-06
3.40482e-07
1.32773e-06
5.837e-07
1.65828e-06
8.55112e-06
1.65875e-06
8.55069e-06
5.83694e-07
3.4048e-07
1.32739e-06
3.54559e-07
5.83819e-07
3.4048e-07
1.3268e-06
1.65827e-06
8.55183e-06
1.65874e-06
8.55146e-06
5.83822e-07
3.54542e-07
1.32685e-06
3.40477e-07
1.32747e-06
3.40478e-07
5.83692e-07
1.65874e-06
8.5506e-06
8.55099e-06
1.65826e-06
5.8383e-07
3.54558e-07
3.40478e-07
1.32681e-06
3.40479e-07
1.32741e-06
5.837e-07
1.65873e-06
8.55138e-06
8.55173e-06
1.65826e-06
2.76313e-06
2.76223e-06
3.82433e-07
2.76268e-06
2.76186e-06
2.42367e-05
2.42356e-05
2.42357e-05
2.42366e-05
3.8266e-07
2.76272e-06
2.7619e-06
2.7632e-06
2.76229e-06
2.42354e-05
2.42361e-05
5.83692e-07
3.40481e-07
1.32753e-06
3.54547e-07
5.83819e-07
3.40481e-07
1.32693e-06
1.6583e-06
8.55198e-06
1.65878e-06
8.5516e-06
1.65812e-06
8.55239e-06
1.65855e-06
8.55202e-06
5.83853e-07
3.54548e-07
3.40477e-07
1.3268e-06
3.40479e-07
1.32739e-06
5.83721e-07
5.83828e-07
3.54546e-07
3.40479e-07
1.32694e-06
3.4048e-07
1.32754e-06
5.83698e-07
1.65877e-06
8.55152e-06
8.55187e-06
1.65829e-06
1.65852e-06
8.55194e-06
8.55229e-06
1.6581e-06
2.42369e-05
2.42358e-05
2.42378e-05
2.42367e-05
3.82658e-07
2.76192e-06
2.76254e-06
2.76232e-06
2.76293e-06
2.42356e-05
2.42363e-05
2.42365e-05
2.42372e-05
2.42348e-05
2.42343e-05
2.42365e-05
2.4236e-05
2.76224e-06
2.76288e-06
3.82431e-07
2.76185e-06
2.76249e-06
2.42347e-05
2.4235e-05
2.42364e-05
2.42367e-05
3.82657e-07
2.76183e-06
2.76247e-06
2.76227e-06
2.76292e-06
1.65824e-06
8.55121e-06
1.65871e-06
8.55088e-06
5.83695e-07
1.32733e-06
3.40476e-07
3.54557e-07
5.8383e-07
1.32674e-06
3.40476e-07
5.83696e-07
1.32749e-06
3.40476e-07
3.5456e-07
5.83831e-07
1.32688e-06
3.40475e-07
1.65868e-06
8.55016e-06
8.55044e-06
1.65822e-06
1.6587e-06
8.55088e-06
8.55116e-06
1.65824e-06
5.83831e-07
3.54556e-07
1.32674e-06
3.40471e-07
1.32733e-06
3.40472e-07
5.83692e-07
5.83832e-07
3.54558e-07
1.32688e-06
3.4047e-07
1.32749e-06
3.40471e-07
5.83693e-07
2.76287e-06
2.76246e-06
3.82424e-07
2.76247e-06
2.76199e-06
2.42332e-05
2.42326e-05
2.42358e-05
2.4236e-05
3.82651e-07
2.76244e-06
2.76197e-06
2.76291e-06
2.7625e-06
2.4233e-05
2.42334e-05
5.83703e-07
1.32767e-06
3.40476e-07
3.54546e-07
5.83836e-07
1.32704e-06
3.40475e-07
1.65809e-06
8.5519e-06
1.6585e-06
8.55157e-06
5.837e-07
3.4048e-07
1.32774e-06
3.54569e-07
5.83834e-07
3.40478e-07
1.3271e-06
1.65849e-06
8.55122e-06
8.55153e-06
1.65808e-06
5.83834e-07
3.54545e-07
1.32704e-06
3.40472e-07
1.32767e-06
3.40472e-07
5.83699e-07
1.6585e-06
8.55172e-06
8.5519e-06
1.65808e-06
5.83833e-07
3.54566e-07
3.40475e-07
1.32712e-06
3.40475e-07
1.32774e-06
5.83696e-07
1.65826e-06
8.5509e-06
1.65872e-06
8.55054e-06
5.83698e-07
3.40477e-07
1.32741e-06
3.5456e-07
5.83834e-07
3.40475e-07
1.32681e-06
1.65825e-06
8.55166e-06
1.65872e-06
8.55135e-06
5.83825e-07
3.54541e-07
1.32686e-06
3.4047e-07
1.32748e-06
3.40471e-07
5.8369e-07
1.65872e-06
8.5505e-06
8.55086e-06
1.65823e-06
5.83829e-07
3.54557e-07
3.40471e-07
1.32682e-06
3.40472e-07
1.32741e-06
5.83693e-07
1.65872e-06
8.55148e-06
8.55164e-06
1.65823e-06
2.76323e-06
2.76232e-06
3.8244e-07
2.76275e-06
2.76193e-06
2.42361e-05
2.42356e-05
2.42369e-05
2.42368e-05
3.82666e-07
2.76271e-06
2.76189e-06
2.76323e-06
2.76232e-06
2.42366e-05
2.42363e-05
5.83696e-07
3.40478e-07
1.32754e-06
3.54549e-07
5.83831e-07
3.40476e-07
1.32694e-06
1.65828e-06
8.5518e-06
1.65875e-06
8.55149e-06
1.65809e-06
8.55222e-06
1.6585e-06
8.55191e-06
5.83854e-07
3.54544e-07
3.4047e-07
1.32681e-06
3.40471e-07
1.32739e-06
5.83714e-07
5.83827e-07
3.54546e-07
3.40472e-07
1.32695e-06
3.40473e-07
1.32754e-06
5.83691e-07
1.65875e-06
8.55161e-06
8.55178e-06
1.65826e-06
1.6585e-06
8.55204e-06
8.5522e-06
1.65807e-06
2.42363e-05
2.42358e-05
2.42372e-05
2.42367e-05
3.82662e-07
2.76191e-06
2.76252e-06
2.76235e-06
2.76296e-06
2.42367e-05
2.42365e-05
2.42377e-05
2.42374e-05
2.42356e-05
2.42362e-05
2.42374e-05
2.4238e-05
2.76222e-06
2.76287e-06
3.82432e-07
2.7619e-06
2.76254e-06
2.42373e-05
2.42371e-05
2.42389e-05
2.42388e-05
3.82657e-07
2.76217e-06
2.7628e-06
2.76241e-06
2.76306e-06
1.65828e-06
8.55121e-06
1.65869e-06
8.55127e-06
5.837e-07
1.32734e-06
3.4047e-07
3.54554e-07
5.83826e-07
1.32682e-06
3.40469e-07
5.837e-07
1.32749e-06
3.4047e-07
3.54557e-07
5.83827e-07
1.32695e-06
3.40468e-07
1.65882e-06
8.55202e-06
8.55113e-06
1.65861e-06
1.65882e-06
8.55258e-06
8.55176e-06
1.6586e-06
5.83843e-07
3.54551e-07
1.32699e-06
3.40458e-07
1.32747e-06
3.40466e-07
5.8372e-07
5.83843e-07
3.54553e-07
1.32712e-06
3.40457e-07
1.32761e-06
3.40465e-07
5.83718e-07
2.76285e-06
2.76246e-06
3.82426e-07
2.76251e-06
2.76206e-06
2.42341e-05
2.42346e-05
2.42383e-05
2.42381e-05
3.82652e-07
2.76277e-06
2.76229e-06
2.76304e-06
2.76266e-06
2.42355e-05
2.42357e-05
5.83712e-07
1.32768e-06
3.40473e-07
3.54544e-07
5.83832e-07
1.32712e-06
3.40473e-07
1.65825e-06
8.55217e-06
1.65849e-06
8.55247e-06
5.83715e-07
3.40474e-07
1.32778e-06
3.54562e-07
5.83832e-07
3.40472e-07
1.32726e-06
1.65867e-06
8.55308e-06
8.55223e-06
1.65847e-06
5.83851e-07
3.5454e-07
1.32729e-06
3.40458e-07
1.32781e-06
3.40468e-07
5.83721e-07
1.65878e-06
8.55406e-06
8.55321e-06
1.65853e-06
5.83856e-07
3.54554e-07
3.40444e-07
1.32738e-06
3.40465e-07
1.32796e-06
5.83713e-07
1.65843e-06
8.55084e-06
1.65871e-06
8.55087e-06
5.83714e-07
3.40471e-07
1.32745e-06
3.54554e-07
5.83829e-07
3.40468e-07
1.32696e-06
1.65843e-06
8.55189e-06
1.65871e-06
8.55223e-06
5.83852e-07
3.54534e-07
1.32708e-06
3.40443e-07
1.32761e-06
3.40461e-07
5.83704e-07
1.65902e-06
8.55225e-06
8.55143e-06
1.6587e-06
5.83853e-07
3.54545e-07
3.40436e-07
1.32707e-06
3.4046e-07
1.32762e-06
5.83703e-07
1.65902e-06
8.55388e-06
8.55289e-06
1.65869e-06
2.76325e-06
2.76234e-06
3.82437e-07
2.76294e-06
2.76211e-06
2.42375e-05
2.4238e-05
2.42388e-05
2.42393e-05
3.82661e-07
2.76307e-06
2.76222e-06
2.76353e-06
2.76261e-06
2.42384e-05
2.42387e-05
5.83711e-07
3.40472e-07
1.32758e-06
3.54542e-07
5.83826e-07
3.40469e-07
1.32709e-06
1.65846e-06
8.55201e-06
1.65874e-06
8.55237e-06
1.65827e-06
8.55244e-06
1.6585e-06
8.5528e-06
5.83881e-07
3.54533e-07
3.40434e-07
1.32706e-06
3.40459e-07
1.32761e-06
5.83727e-07
5.8385e-07
3.54533e-07
3.40434e-07
1.3272e-06
3.4046e-07
1.32776e-06
5.83699e-07
1.65905e-06
8.55405e-06
8.55304e-06
1.6587e-06
1.65881e-06
8.55448e-06
8.55347e-06
1.65853e-06
2.42377e-05
2.42382e-05
2.42386e-05
2.42391e-05
3.82661e-07
2.76225e-06
2.76287e-06
2.76265e-06
2.76326e-06
2.42386e-05
2.42389e-05
2.42395e-05
2.42398e-05
2.42379e-05
2.42372e-05
2.42396e-05
2.42389e-05
2.76262e-06
2.76325e-06
3.82374e-07
2.76207e-06
2.7627e-06
2.4237e-05
2.42377e-05
2.42387e-05
2.42394e-05
3.82581e-07
2.76181e-06
2.76245e-06
2.76241e-06
2.76305e-06
1.65867e-06
8.55348e-06
1.65915e-06
8.55374e-06
5.83671e-07
1.32762e-06
3.40432e-07
3.54479e-07
5.83851e-07
1.32699e-06
3.40392e-07
5.8367e-07
1.32776e-06
3.40433e-07
3.54481e-07
5.83849e-07
1.32712e-06
3.40393e-07
1.6591e-06
8.5531e-06
8.55341e-06
1.65852e-06
1.65911e-06
8.55377e-06
8.55407e-06
1.65853e-06
5.83792e-07
3.54445e-07
1.32689e-06
3.40331e-07
1.32757e-06
3.40357e-07
5.83621e-07
5.83792e-07
3.54448e-07
1.32702e-06
3.40331e-07
1.32771e-06
3.40357e-07
5.83621e-07
2.76324e-06
2.76283e-06
3.82365e-07
2.76267e-06
2.7622e-06
2.42362e-05
2.42354e-05
2.4238e-05
2.42388e-05
3.82572e-07
2.76242e-06
2.76193e-06
2.76304e-06
2.76264e-06
2.42352e-05
2.42361e-05
5.83665e-07
1.32796e-06
3.40425e-07
3.54467e-07
5.83847e-07
1.32729e-06
3.40386e-07
1.65847e-06
8.5546e-06
1.65897e-06
8.55444e-06
5.83653e-07
3.40404e-07
1.32802e-06
3.54459e-07
5.83836e-07
3.40369e-07
1.3273e-06
1.65887e-06
8.55418e-06
8.55451e-06
1.65836e-06
5.83786e-07
3.54433e-07
1.32719e-06
3.40329e-07
1.3279e-06
3.40352e-07
5.83623e-07
1.65885e-06
8.55439e-06
8.55475e-06
1.65835e-06
5.83775e-07
3.54434e-07
3.40323e-07
1.32722e-06
3.4034e-07
1.32792e-06
5.83618e-07
1.65861e-06
8.55315e-06
1.65919e-06
8.55339e-06
5.83644e-07
3.40395e-07
1.32767e-06
3.5445e-07
5.83824e-07
3.40361e-07
1.32699e-06
1.65861e-06
8.55434e-06
1.65918e-06
8.5542e-06
5.83765e-07
3.54423e-07
1.32698e-06
3.4032e-07
1.32769e-06
3.40339e-07
5.8361e-07
1.65905e-06
8.55343e-06
8.55375e-06
1.6585e-06
5.83767e-07
3.54425e-07
3.40318e-07
1.32692e-06
3.40334e-07
1.32758e-06
5.83614e-07
1.65904e-06
8.55416e-06
8.55448e-06
1.6585e-06
2.76354e-06
2.76261e-06
3.82344e-07
2.76282e-06
2.76197e-06
2.42389e-05
2.42381e-05
2.42384e-05
2.42392e-05
3.82554e-07
2.76263e-06
2.76182e-06
2.76326e-06
2.76234e-06
2.4238e-05
2.42387e-05
5.83639e-07
3.40393e-07
1.32781e-06
3.54438e-07
5.8382e-07
3.4036e-07
1.32712e-06
1.65861e-06
8.55451e-06
1.65918e-06
8.55437e-06
1.65843e-06
8.55494e-06
1.65895e-06
8.5548e-06
5.83791e-07
3.54414e-07
3.40318e-07
1.32691e-06
3.40333e-07
1.32756e-06
5.83632e-07
5.83762e-07
3.54413e-07
3.40319e-07
1.32705e-06
3.40333e-07
1.32771e-06
5.83609e-07
1.65905e-06
8.55431e-06
8.55465e-06
1.6585e-06
1.6588e-06
8.55474e-06
8.55508e-06
1.65831e-06
2.42391e-05
2.42384e-05
2.424e-05
2.42393e-05
3.82551e-07
2.76185e-06
2.76245e-06
2.76238e-06
2.76297e-06
2.42382e-05
2.42389e-05
2.42391e-05
2.42398e-05
2.42375e-05
2.42368e-05
2.42392e-05
2.42386e-05
2.7622e-06
2.76284e-06
3.82288e-07
2.76173e-06
2.76236e-06
2.42368e-05
2.42374e-05
2.42385e-05
2.42391e-05
3.82515e-07
2.76171e-06
2.76235e-06
2.76213e-06
2.76278e-06
1.65847e-06
8.55405e-06
1.65898e-06
8.55372e-06
5.83604e-07
1.32747e-06
3.40319e-07
3.54406e-07
5.8375e-07
1.32684e-06
3.40314e-07
5.83604e-07
1.32762e-06
3.40319e-07
3.54409e-07
5.8375e-07
1.32697e-06
3.40315e-07
1.65892e-06
8.553e-06
8.55331e-06
1.65844e-06
1.65893e-06
8.5537e-06
8.554e-06
1.65845e-06
5.83738e-07
3.54403e-07
1.32682e-06
3.40311e-07
1.32743e-06
3.40311e-07
5.83602e-07
5.83738e-07
3.54407e-07
1.32696e-06
3.40312e-07
1.32758e-06
3.40312e-07
5.83602e-07
2.76281e-06
2.76239e-06
3.8228e-07
2.76233e-06
2.76182e-06
2.42359e-05
2.42351e-05
2.42379e-05
2.42385e-05
3.82508e-07
2.76231e-06
2.76181e-06
2.76276e-06
2.76232e-06
2.42351e-05
2.42358e-05
5.8361e-07
1.32781e-06
3.40318e-07
3.54395e-07
5.83751e-07
1.32714e-06
3.40315e-07
1.65831e-06
8.55469e-06
1.65875e-06
8.55434e-06
5.83607e-07
3.40319e-07
1.32785e-06
3.54417e-07
5.83748e-07
3.40317e-07
1.32719e-06
1.65872e-06
8.55409e-06
8.55442e-06
1.65829e-06
5.83741e-07
3.54392e-07
1.32713e-06
3.40312e-07
1.32777e-06
3.40312e-07
5.83609e-07
1.65872e-06
8.55433e-06
8.55465e-06
1.6583e-06
5.8374e-07
3.54415e-07
3.40315e-07
1.32718e-06
3.40315e-07
1.32782e-06
5.83606e-07
1.65847e-06
8.55374e-06
1.65896e-06
8.55338e-06
5.83606e-07
3.40315e-07
1.32751e-06
3.54408e-07
5.83744e-07
3.40314e-07
1.32689e-06
1.65847e-06
8.55443e-06
1.65896e-06
8.55412e-06
5.83736e-07
3.54388e-07
1.32692e-06
3.40311e-07
1.32756e-06
3.40313e-07
5.83603e-07
1.65894e-06
8.55335e-06
8.55369e-06
1.65846e-06
5.83739e-07
3.54406e-07
3.40313e-07
1.32689e-06
3.40313e-07
1.32749e-06
5.83607e-07
1.65893e-06
8.5541e-06
8.5544e-06
1.65846e-06
2.76312e-06
2.76223e-06
3.823e-07
2.76258e-06
2.76178e-06
2.42385e-05
2.42379e-05
2.42383e-05
2.4239e-05
3.82528e-07
2.76258e-06
2.76178e-06
2.76309e-06
2.7622e-06
2.42379e-05
2.42385e-05
5.83601e-07
3.40316e-07
1.32764e-06
3.54396e-07