/*--------------------------------*- C++ -*----------------------------------*\
| =========                 |                                                 |
| \\      /  F ield         | OpenFOAM: The Open Source CFD Toolbox           |
|  \\    /   O peration     | Version:  2206                                  |
|   \\  /    A nd           | Website:  www.openfoam.com                      |
|    \\/     M anipulation  |                                                 |
\*---------------------------------------------------------------------------*/
FoamFile
{
    version     2.0;
    format      ascii;
    arch        "LSB;label=32;scalar=64";
    class       volScalarField;
    location    "3.5";
    object      k;
}
// * * * * * * * * * * * * * * * * * * * * * * * * * * * * * * * * * * * * * //

dimensions      [0 2 -2 0 0 0 0];

internalField   nonuniform List<scalar> 
28549
(
2.2499e-05
2.24983e-05
3.75842e-05
3.46743e-05
3.46733e-05
3.50741e-05
2.90947e-05
3.6814e-05
3.59678e-05
3.63039e-05
3.57432e-05
3.50742e-05
2.9095e-05
3.68141e-05
3.59679e-05
3.57432e-05
3.63045e-05
3.5968e-05
3.63045e-05
2.90949e-05
2.24982e-05
3.75842e-05
3.46736e-05
3.4674e-05
2.24988e-05
3.68139e-05
3.59679e-05
3.57432e-05
3.63042e-05
3.68139e-05
3.59678e-05
3.57432e-05
3.63041e-05
3.50743e-05
2.90949e-05
3.50743e-05
2.9095e-05
3.75838e-05
3.46742e-05
3.46735e-05
2.24986e-05
2.24986e-05
2.13664e-05
2.13647e-05
3.38326e-05
2.8708e-05
3.804e-05
3.62817e-05
2.87057e-05
3.80375e-05
3.62801e-05
2.58482e-05
3.49356e-05
2.68758e-05
3.48008e-05
2.60001e-05
3.46719e-05
2.67471e-05
2.0752e-05
3.40377e-05
2.88765e-05
2.09714e-05
3.38075e-05
2.58479e-05
2.68759e-05
3.49357e-05
3.48008e-05
2.59997e-05
2.67472e-05
3.46719e-05
2.07516e-05
3.40377e-05
2.88764e-05
2.0971e-05
3.38071e-05
2.0752e-05
3.40376e-05
2.88769e-05
2.09712e-05
3.38073e-05
2.23196e-05
3.37913e-05
2.13648e-05
2.13664e-05
3.38329e-05
2.13374e-05
2.13384e-05
3.59814e-05
2.87061e-05
3.80388e-05
3.43404e-05
3.79755e-05
3.62807e-05
2.82943e-05
3.59827e-05
2.87081e-05
3.8039e-05
3.43405e-05
3.62817e-05
2.82967e-05
3.79762e-05
2.23203e-05
2.58482e-05
3.49357e-05
2.68759e-05
3.48014e-05
2.6e-05
3.46722e-05
2.67473e-05
2.07521e-05
3.40376e-05
2.88768e-05
2.09714e-05
3.38066e-05
2.58485e-05
3.49358e-05
2.68759e-05
3.48014e-05
2.60003e-05
3.46724e-05
2.67473e-05
2.07522e-05
3.4038e-05
2.88765e-05
2.09716e-05
3.38079e-05
3.37915e-05
2.13664e-05
2.13651e-05
3.38333e-05
2.13396e-05
2.13384e-05
3.59835e-05
2.87079e-05
3.80397e-05
3.43413e-05
3.62818e-05
3.79775e-05
2.82966e-05
3.59817e-05
2.87062e-05
3.80374e-05
3.43409e-05
3.62803e-05
3.79749e-05
2.82946e-05
2.23202e-05
2.23199e-05
3.57285e-05
3.57067e-05
3.57067e-05
3.57033e-05
3.57285e-05
3.57067e-05
3.57067e-05
3.57033e-05
3.57286e-05
3.57067e-05
3.57067e-05
3.57034e-05
3.57286e-05
3.57067e-05
3.57067e-05
3.57034e-05
3.76767e-05
3.76769e-05
3.72405e-05
3.62274e-05
3.68656e-05
3.61151e-05
3.67802e-05
3.6157e-05
3.68383e-05
3.61784e-05
3.6423e-05
3.69465e-05
3.6883e-05
3.60296e-05
3.68941e-05
3.63424e-05
3.69217e-05
3.62274e-05
3.61152e-05
3.6866e-05
3.67803e-05
3.61572e-05
3.61784e-05
3.68384e-05
3.64231e-05
3.69472e-05
3.68837e-05
3.60296e-05
3.63428e-05
3.69217e-05
3.68945e-05
3.64234e-05
3.69469e-05
3.68841e-05
3.60302e-05
3.63427e-05
3.69221e-05
3.68953e-05
3.70925e-05
3.75654e-05
3.76774e-05
3.76764e-05
3.76704e-05
3.72406e-05
3.76698e-05
3.62276e-05
3.61151e-05
3.68657e-05
3.67808e-05
3.61571e-05
3.61786e-05
3.68388e-05
3.6423e-05
3.69466e-05
3.68836e-05
3.60293e-05
3.63425e-05
3.68944e-05
3.69214e-05
3.62276e-05
3.61151e-05
3.68655e-05
3.67807e-05
3.6157e-05
3.61786e-05
3.68386e-05
3.64231e-05
3.69464e-05
3.6883e-05
3.60297e-05
3.63424e-05
3.69217e-05
3.68942e-05
3.70928e-05
3.75648e-05
3.76764e-05
3.76766e-05
3.72403e-05
3.76702e-05
3.76701e-05
3.57277e-05
3.5967e-05
3.57276e-05
3.59668e-05
3.59672e-05
3.7582e-05
3.59677e-05
3.7581e-05
3.75643e-05
3.59671e-05
3.59672e-05
3.59671e-05
3.59672e-05
3.7581e-05
3.75638e-05
3.5967e-05
3.59672e-05
3.59668e-05
3.59674e-05
3.59669e-05
3.5967e-05
3.59671e-05
3.75818e-05
3.75673e-05
3.59672e-05
3.59672e-05
3.5968e-05
3.5967e-05
3.75814e-05
3.75644e-05
3.59669e-05
3.59673e-05
3.59678e-05
3.59678e-05
3.59673e-05
3.5967e-05
3.5968e-05
3.7582e-05
3.75704e-05
3.5967e-05
3.75701e-05
3.59689e-05
3.75819e-05
3.48008e-05
2.9093e-05
2.88772e-05
3.50706e-05
2.24969e-05
2.23202e-05
3.48004e-05
2.90926e-05
2.88763e-05
3.50705e-05
3.57277e-05
3.57277e-05
3.57276e-05
3.57276e-05
3.57277e-05
3.57276e-05
3.57276e-05
3.67802e-05
3.63007e-05
3.57423e-05
3.5967e-05
3.60288e-05
3.57423e-05
3.68111e-05
3.48011e-05
2.90927e-05
3.50707e-05
2.88771e-05
2.2497e-05
2.23201e-05
3.48013e-05
2.90922e-05
3.50707e-05
2.88764e-05
3.57277e-05
3.57277e-05
3.57277e-05
3.57285e-05
3.57277e-05
3.57292e-05
3.57291e-05
3.67803e-05
3.63008e-05
3.57423e-05
3.5967e-05
3.68112e-05
3.60291e-05
3.57423e-05
2.24959e-05
2.23195e-05
3.67808e-05
3.57423e-05
3.63014e-05
3.59669e-05
3.57423e-05
3.60293e-05
3.68117e-05
3.46707e-05
3.46698e-05
3.75648e-05
3.43405e-05
3.43401e-05
2.24965e-05
3.57293e-05
3.63016e-05
3.57432e-05
3.68126e-05
2.24973e-05
2.23205e-05
2.24968e-05
2.23198e-05
3.46706e-05
3.46697e-05
3.75639e-05
3.43401e-05
3.43397e-05
2.23204e-05
2.24971e-05
2.23197e-05
2.24965e-05
3.75817e-05
3.43406e-05
3.43401e-05
3.46707e-05
3.46698e-05
3.48008e-05
2.9093e-05
2.88769e-05
3.50706e-05
3.678e-05
3.63012e-05
3.57423e-05
3.59672e-05
3.60292e-05
3.57423e-05
3.68111e-05
3.67801e-05
3.63012e-05
3.57423e-05
3.59671e-05
3.60293e-05
3.57423e-05
3.68111e-05
3.50706e-05
2.88771e-05
2.90929e-05
3.48006e-05
3.50707e-05
2.88769e-05
2.9093e-05
3.48006e-05
3.68112e-05
3.59671e-05
3.60295e-05
3.57423e-05
3.63014e-05
3.57423e-05
3.67802e-05
3.68111e-05
3.59669e-05
3.60294e-05
3.57423e-05
3.63013e-05
3.57423e-05
3.67802e-05
3.467e-05
3.46703e-05
3.75641e-05
3.43402e-05
3.43403e-05
2.24971e-05
2.23204e-05
2.23202e-05
2.24969e-05
3.75815e-05
3.43404e-05
3.43403e-05
3.46701e-05
3.46703e-05
2.23204e-05
2.24971e-05
3.678e-05
3.63007e-05
3.57423e-05
3.59667e-05
3.60287e-05
3.57423e-05
3.68108e-05
3.48004e-05
2.90928e-05
3.50705e-05
2.88764e-05
3.67799e-05
3.57423e-05
3.63012e-05
3.5967e-05
3.57423e-05
3.68109e-05
3.60288e-05
3.50706e-05
2.88763e-05
2.90924e-05
3.48006e-05
3.68113e-05
3.59669e-05
3.60291e-05
3.57423e-05
3.6301e-05
3.57423e-05
3.67804e-05
3.50706e-05
2.88764e-05
3.48006e-05
2.90925e-05
3.68113e-05
3.59673e-05
3.57423e-05
3.60294e-05
3.57423e-05
3.67804e-05
3.63016e-05
3.48008e-05
2.90925e-05
2.88768e-05
3.50705e-05
3.67801e-05
3.57423e-05
3.63013e-05
3.59672e-05
3.57423e-05
3.68111e-05
3.60289e-05
3.48007e-05
2.90926e-05
3.50706e-05
2.88768e-05
3.68111e-05
3.5967e-05
3.60291e-05
3.57423e-05
3.63007e-05
3.57423e-05
3.67803e-05
3.50706e-05
2.88768e-05
2.90924e-05
3.48007e-05
3.68111e-05
3.59672e-05
3.57423e-05
3.60295e-05
3.57423e-05
3.67803e-05
3.63014e-05
3.50706e-05
2.88768e-05
3.48007e-05
2.90927e-05
2.24969e-05
2.23203e-05
2.24963e-05
2.23198e-05
3.46707e-05
3.46699e-05
3.75646e-05
3.4341e-05
3.43404e-05
2.23227e-05
2.24968e-05
2.23221e-05
2.24962e-05
3.75823e-05
3.43451e-05
3.43445e-05
3.46708e-05
3.46699e-05
3.4801e-05
2.9093e-05
3.50707e-05
2.88769e-05
3.67806e-05
3.63016e-05
3.57423e-05
3.59672e-05
3.68116e-05
3.60301e-05
3.57423e-05
3.67805e-05
3.63014e-05
3.57423e-05
3.5967e-05
3.68116e-05
3.60294e-05
3.57423e-05
3.50708e-05
2.88799e-05
2.90927e-05
3.48047e-05
3.50708e-05
2.88773e-05
2.9093e-05
3.48046e-05
3.68117e-05
3.59671e-05
3.60335e-05
3.57432e-05
3.63018e-05
3.57423e-05
3.67838e-05
3.68116e-05
3.59672e-05
3.60298e-05
3.57431e-05
3.63017e-05
3.57423e-05
3.67836e-05
3.46701e-05
3.46704e-05
3.75642e-05
3.43402e-05
3.43405e-05
2.24971e-05
2.23204e-05
2.23201e-05
2.24968e-05
3.75812e-05
3.43405e-05
3.43406e-05
3.46701e-05
3.46706e-05
2.23204e-05
2.24971e-05
3.67809e-05
3.63012e-05
3.57423e-05
3.5967e-05
3.68119e-05
3.60296e-05
3.57423e-05
3.48013e-05
2.90924e-05
3.50708e-05
2.88765e-05
3.67809e-05
3.57423e-05
3.63018e-05
3.59674e-05
3.68119e-05
3.57423e-05
3.60297e-05
3.50708e-05
2.88791e-05
2.90923e-05
3.48049e-05
3.68118e-05
3.59671e-05
3.60329e-05
3.57432e-05
3.63013e-05
3.57424e-05
3.67842e-05
3.50709e-05
2.88791e-05
2.90924e-05
3.48048e-05
3.68119e-05
3.59671e-05
3.57431e-05
3.60334e-05
3.57423e-05
3.63021e-05
3.67842e-05
3.48006e-05
2.90925e-05
3.50707e-05
2.88767e-05
3.67803e-05
3.57423e-05
3.63016e-05
3.59671e-05
3.68114e-05
3.57423e-05
3.60296e-05
3.48006e-05
2.90926e-05
3.50707e-05
2.88766e-05
3.68118e-05
3.59669e-05
3.60293e-05
3.57423e-05
3.63011e-05
3.57423e-05
3.67807e-05
3.50708e-05
2.88766e-05
2.90924e-05
3.48008e-05
3.68119e-05
3.59672e-05
3.57424e-05
3.60338e-05
3.57423e-05
3.63019e-05
3.67807e-05
3.50708e-05
2.88789e-05
2.90923e-05
3.4801e-05
3.46701e-05
3.46705e-05
3.75654e-05
3.43403e-05
3.43403e-05
2.24965e-05
2.23201e-05
2.23225e-05
2.24957e-05
3.75828e-05
3.435e-05
3.46703e-05
3.46709e-05
2.24964e-05
3.67807e-05
3.57423e-05
3.63012e-05
3.5967e-05
3.57423e-05
3.60293e-05
3.68116e-05
3.4801e-05
2.90923e-05
2.88768e-05
3.50708e-05
3.4801e-05
2.90925e-05
2.88766e-05
3.50708e-05
3.68125e-05
3.59676e-05
3.57431e-05
3.63017e-05
3.68124e-05
3.59676e-05
3.57431e-05
3.63017e-05
3.50711e-05
2.90923e-05
3.50711e-05
2.90924e-05
2.24968e-05
2.23199e-05
2.24964e-05
2.23198e-05
3.75824e-05
3.43505e-05
3.46709e-05
3.46702e-05
2.23228e-05
2.24966e-05
2.24962e-05
2.90959e-05
3.63053e-05
3.46704e-05
3.46708e-05
2.24968e-05
2.90923e-05
3.50711e-05
3.57439e-05
3.68128e-05
3.50712e-05
2.59975e-05
2.67472e-05
3.46717e-05
3.50706e-05
2.68736e-05
3.4932e-05
2.5848e-05
2.07516e-05
2.88773e-05
3.40336e-05
3.38066e-05
2.0969e-05
2.09689e-05
3.38064e-05
2.9093e-05
3.40337e-05
2.07516e-05
2.5848e-05
3.48008e-05
2.68736e-05
3.4932e-05
2.67472e-05
3.46718e-05
2.59975e-05
2.23202e-05
2.24969e-05
2.59979e-05
3.46714e-05
2.6747e-05
3.50706e-05
3.4932e-05
2.68736e-05
2.58481e-05
2.07518e-05
2.88764e-05
3.40339e-05
3.38068e-05
2.09696e-05
2.09694e-05
3.38068e-05
2.90925e-05
3.40339e-05
2.07518e-05
2.58482e-05
3.48004e-05
3.4932e-05
2.68736e-05
3.46716e-05
2.6747e-05
2.5998e-05
2.59971e-05
3.50708e-05
2.67472e-05
3.46721e-05
2.68734e-05
3.49321e-05
2.58479e-05
2.07515e-05
3.40335e-05
2.88771e-05
2.09684e-05
3.38069e-05
2.58478e-05
3.48007e-05
2.68734e-05
3.4932e-05
2.59972e-05
2.67471e-05
3.46718e-05
2.09684e-05
3.38073e-05
2.90927e-05
3.40336e-05
2.07516e-05
2.23201e-05
2.24969e-05
2.59973e-05
3.50708e-05
3.46724e-05
2.6747e-05
3.49322e-05
2.68731e-05
2.58481e-05
2.07517e-05
3.40338e-05
2.88763e-05
2.09686e-05
3.38076e-05
2.5848e-05
3.4801e-05
3.49321e-05
2.68731e-05
2.59974e-05
3.46721e-05
2.6747e-05
2.09687e-05
3.38078e-05
2.90922e-05
3.40339e-05
2.07518e-05
2.23195e-05
2.24957e-05
3.38286e-05
2.1339e-05
2.13369e-05
2.13646e-05
2.13634e-05
3.3791e-05
3.59826e-05
3.80372e-05
3.43404e-05
2.87055e-05
3.79769e-05
2.82964e-05
3.62795e-05
3.59807e-05
3.80348e-05
3.43399e-05
2.87039e-05
3.79743e-05
2.82945e-05
3.6278e-05
3.62797e-05
2.82963e-05
3.46708e-05
3.7977e-05
3.80376e-05
2.87055e-05
3.5983e-05
3.62783e-05
2.82945e-05
3.46699e-05
3.79749e-05
3.80353e-05
2.87038e-05
3.59811e-05
3.37909e-05
2.13646e-05
2.13635e-05
2.13386e-05
2.13366e-05
3.38287e-05
2.23223e-05
2.23205e-05
2.24972e-05
2.23199e-05
2.24967e-05
3.38291e-05
2.1338e-05
2.13369e-05
2.13647e-05
2.13634e-05
3.37908e-05
3.59821e-05
3.80363e-05
3.43402e-05
2.87057e-05
2.82965e-05
3.79762e-05
3.62788e-05
3.59801e-05
3.80336e-05
3.43397e-05
2.87037e-05
2.82941e-05
3.79735e-05
3.62773e-05
3.6279e-05
2.82965e-05
3.46707e-05
3.79761e-05
2.87057e-05
3.59821e-05
3.80365e-05
3.62775e-05
2.82941e-05
3.46697e-05
3.79735e-05
2.87037e-05
3.59803e-05
3.8034e-05
3.37908e-05
2.13647e-05
2.13634e-05
2.13379e-05
2.13368e-05
3.38292e-05
2.2497e-05
2.23204e-05
2.24964e-05
2.23198e-05
3.37908e-05
2.13646e-05
2.13632e-05
3.38288e-05
2.13382e-05
2.1337e-05
3.62793e-05
3.79769e-05
3.46707e-05
2.82965e-05
2.87056e-05
3.80371e-05
3.59827e-05
3.62779e-05
3.79742e-05
3.46698e-05
2.82941e-05
2.87035e-05
3.80347e-05
3.59809e-05
3.59824e-05
2.87056e-05
3.80368e-05
3.43404e-05
3.62792e-05
2.82965e-05
3.79766e-05
3.59806e-05
2.87036e-05
3.80345e-05
3.43399e-05
3.62778e-05
2.82941e-05
3.79739e-05
3.38287e-05
2.13386e-05
2.13373e-05
2.13646e-05
2.13632e-05
3.37909e-05
2.59978e-05
2.67472e-05
3.46718e-05
3.50706e-05
2.68736e-05
3.49321e-05
2.58482e-05
2.07517e-05
2.88769e-05
3.40341e-05
3.38071e-05
2.09691e-05
2.09691e-05
3.38071e-05
2.9093e-05
3.40341e-05
2.07517e-05
2.58482e-05
3.48008e-05
2.68735e-05
3.4932e-05
2.67472e-05
3.46717e-05
2.59977e-05
2.58479e-05
2.68736e-05
3.4932e-05
3.48007e-05
2.59975e-05
2.67472e-05
3.46717e-05
2.09687e-05
2.90928e-05
3.38066e-05
2.07515e-05
3.40336e-05
2.07516e-05
3.40337e-05
2.88772e-05
2.09688e-05
3.38065e-05
2.59974e-05
3.50707e-05
2.67471e-05
3.46716e-05
2.58479e-05
2.68735e-05
3.4932e-05
2.58482e-05
2.68736e-05
3.49321e-05
3.48008e-05
2.59978e-05
2.67472e-05
3.46718e-05
2.09692e-05
2.9093e-05
3.38072e-05
3.40341e-05
2.07517e-05
2.07517e-05
3.40341e-05
2.88769e-05
2.09692e-05
3.38072e-05
2.59978e-05
3.50707e-05
2.67471e-05
3.46717e-05
2.68736e-05
3.49321e-05
2.58481e-05
3.38287e-05
2.13373e-05
2.13383e-05
2.13635e-05
2.13647e-05
3.37908e-05
3.59807e-05
3.80346e-05
3.43402e-05
2.87039e-05
2.82945e-05
3.79747e-05
3.62775e-05
3.59821e-05
3.80352e-05
3.43404e-05
2.87054e-05
3.79754e-05
2.82964e-05
3.62786e-05
3.62775e-05
2.82945e-05
3.467e-05
3.79746e-05
2.87039e-05
3.80348e-05
3.59807e-05
3.62786e-05
2.82963e-05
3.46703e-05
3.79752e-05
3.80353e-05
2.87054e-05
3.59821e-05
3.37909e-05
2.13635e-05
2.13648e-05
2.13372e-05
2.13383e-05
3.38288e-05
2.23205e-05
2.24971e-05
2.2497e-05
2.23202e-05
3.37909e-05
2.13635e-05
2.13647e-05
3.38289e-05
2.13377e-05
2.13387e-05
3.62776e-05
3.79749e-05
3.46701e-05
2.82945e-05
3.80348e-05
2.8704e-05
3.59809e-05
3.62786e-05
3.79755e-05
3.46704e-05
2.82963e-05
2.87055e-05
3.80353e-05
3.59823e-05
3.59809e-05
2.87038e-05
3.8035e-05
3.43404e-05
3.79749e-05
3.62777e-05
2.82945e-05
3.59824e-05
2.87054e-05
3.80352e-05
3.43405e-05
3.62786e-05
2.82964e-05
3.79756e-05
3.38293e-05
2.13377e-05
2.13386e-05
2.13636e-05
2.13648e-05
3.3791e-05
2.24972e-05
2.23204e-05
2.59974e-05
2.67471e-05
3.50706e-05
3.46712e-05
2.68736e-05
3.4932e-05
2.58478e-05
2.07514e-05
3.40337e-05
2.88765e-05
3.38061e-05
2.09691e-05
2.58477e-05
3.48003e-05
2.68736e-05
3.4932e-05
2.6747e-05
3.46712e-05
2.59976e-05
2.09688e-05
3.38059e-05
2.90926e-05
3.40338e-05
2.07513e-05
2.58481e-05
3.4932e-05
2.68735e-05
3.48004e-05
2.59978e-05
3.46716e-05
2.6747e-05
2.09688e-05
2.90923e-05
3.38072e-05
2.07517e-05
3.40338e-05
2.07517e-05
3.40339e-05
2.88763e-05
2.09691e-05
3.3807e-05
2.59975e-05
3.50707e-05
3.46717e-05
2.67469e-05
2.5848e-05
3.49321e-05
2.68733e-05
2.58477e-05
2.68735e-05
3.48005e-05
3.4932e-05
2.59973e-05
2.6747e-05
3.46714e-05
2.09684e-05
3.38064e-05
2.90925e-05
3.40338e-05
2.07513e-05
2.59971e-05
3.50707e-05
2.6747e-05
3.46716e-05
2.68733e-05
3.49321e-05
2.58477e-05
2.07513e-05
3.40338e-05
2.88764e-05
2.09685e-05
3.38062e-05
2.59979e-05
3.46718e-05
2.67471e-05
3.50706e-05
3.4932e-05
2.68735e-05
2.58483e-05
2.0752e-05
2.88768e-05
3.40338e-05
3.38071e-05
2.09694e-05
2.09694e-05
3.38071e-05
2.90924e-05
3.40338e-05
2.0752e-05
2.58483e-05
3.48008e-05
3.4932e-05
2.68734e-05
3.46719e-05
2.67471e-05
2.59978e-05
2.59974e-05
2.67471e-05
3.50706e-05
3.46716e-05
2.68735e-05
3.4932e-05
2.58479e-05
2.07517e-05
3.40337e-05
2.88767e-05
3.38063e-05
2.09692e-05
2.58479e-05
3.48008e-05
2.68735e-05
3.4932e-05
2.67471e-05
3.46716e-05
2.59975e-05
2.09689e-05
3.38062e-05
2.90926e-05
3.40337e-05
2.07515e-05
2.58483e-05
3.4932e-05
2.68734e-05
3.48006e-05
2.59979e-05
3.46718e-05
2.6747e-05
2.09695e-05
2.90925e-05
3.38073e-05
3.40338e-05
2.0752e-05
2.0752e-05
3.40338e-05
2.88767e-05
2.09695e-05
3.38072e-05
2.59978e-05
3.50707e-05
3.46718e-05
2.67471e-05
3.49321e-05
2.68734e-05
2.58483e-05
2.58479e-05
2.68735e-05
3.48007e-05
3.4932e-05
2.59975e-05
2.67471e-05
3.46717e-05
2.09692e-05
3.38065e-05
2.90927e-05
3.40337e-05
2.07518e-05
2.59975e-05
3.50707e-05
2.67471e-05
3.46716e-05
2.68735e-05
3.4932e-05
2.5848e-05
2.07517e-05
3.40338e-05
2.88767e-05
2.0969e-05
3.38065e-05
2.23203e-05
2.24968e-05
2.23197e-05
2.24962e-05
3.38284e-05
2.13389e-05
2.13374e-05
2.13645e-05
2.13631e-05
3.37909e-05
3.59828e-05
3.80372e-05
2.87055e-05
3.43408e-05
3.62794e-05
2.82964e-05
3.79771e-05
3.59811e-05
3.8035e-05
2.87034e-05
3.43404e-05
3.62781e-05
2.82941e-05
3.79747e-05
3.37909e-05
2.13645e-05
2.13631e-05
3.38286e-05
2.13389e-05
2.13374e-05
3.62795e-05
2.82964e-05
3.46708e-05
3.79775e-05
2.87054e-05
3.59831e-05
3.80375e-05
3.62781e-05
2.82941e-05
3.46699e-05
3.79748e-05
2.87034e-05
3.59813e-05
3.80351e-05
2.2497e-05
2.23203e-05
2.24964e-05
2.23198e-05
3.3791e-05
2.13644e-05
2.13631e-05
3.38284e-05
2.13391e-05
2.13375e-05
3.62797e-05
3.79817e-05
3.4671e-05
2.82992e-05
2.87056e-05
3.80376e-05
3.59864e-05
3.62782e-05
3.79789e-05
3.46701e-05
2.82969e-05
2.87036e-05
3.8035e-05
3.59845e-05
3.59834e-05
2.87054e-05
3.80376e-05
3.43412e-05
3.62795e-05
2.82965e-05
3.79777e-05
3.59815e-05
2.87034e-05
3.80352e-05
3.43407e-05
3.62782e-05
2.82942e-05
3.79752e-05
3.38286e-05
2.13414e-05
2.13399e-05
2.13646e-05
2.13632e-05
3.37952e-05
2.59975e-05
3.50708e-05
2.67472e-05
3.46719e-05
2.68734e-05
3.49321e-05
2.58482e-05
2.07516e-05
3.40341e-05
2.88769e-05
2.0969e-05
3.38072e-05
2.58481e-05
3.48007e-05
2.68734e-05
3.49321e-05
2.67471e-05
2.59976e-05
3.46717e-05
2.09688e-05
3.3807e-05
2.9093e-05
3.40342e-05
2.07516e-05
2.58479e-05
2.68734e-05
3.49322e-05
3.48012e-05
2.59972e-05
2.67472e-05
3.46723e-05
2.09687e-05
2.90928e-05
3.38118e-05
2.0754e-05
3.40338e-05
2.07516e-05
3.40336e-05
2.88772e-05
2.09686e-05
3.38076e-05
2.59973e-05
3.50711e-05
2.67498e-05
3.46759e-05
2.58505e-05
2.68735e-05
3.49324e-05
2.58482e-05
2.68734e-05
3.49322e-05
3.4801e-05
2.59976e-05
2.67472e-05
3.4672e-05
2.09686e-05
2.9093e-05
3.38111e-05
3.40345e-05
2.07541e-05
2.07517e-05
3.40343e-05
2.8877e-05
2.09687e-05
3.3807e-05
2.59976e-05
3.5071e-05
2.67498e-05
3.46756e-05
2.68734e-05
3.49324e-05
2.58508e-05
3.3829e-05
2.13376e-05
2.13383e-05
2.13635e-05
2.13648e-05
3.37909e-05
3.59808e-05
3.80348e-05
2.87039e-05
3.43403e-05
2.82944e-05
3.62777e-05
3.79749e-05
3.59822e-05
3.80355e-05
2.87054e-05
3.43404e-05
3.79756e-05
3.62788e-05
2.82964e-05
3.3791e-05
2.13636e-05
2.13648e-05
2.13377e-05
3.38292e-05
2.13385e-05
3.62779e-05
2.82943e-05
3.46702e-05
3.79748e-05
2.87039e-05
3.80354e-05
3.59807e-05
3.62789e-05
2.82964e-05
3.46705e-05
3.79756e-05
3.80356e-05
2.87055e-05
3.59823e-05
2.23204e-05
2.24972e-05
2.24968e-05
2.23201e-05
3.37908e-05
2.13635e-05
2.13648e-05
3.38289e-05
2.13378e-05
2.13383e-05
3.62782e-05
3.79754e-05
3.46703e-05
2.82943e-05
3.80361e-05
2.87039e-05
3.59811e-05
3.62792e-05
3.79759e-05
3.46706e-05
2.82964e-05
2.87055e-05
3.80361e-05
3.59825e-05
3.59809e-05
2.87039e-05
3.80356e-05
3.43402e-05
3.79751e-05
3.62781e-05
2.82943e-05
3.59825e-05
2.87055e-05
3.8036e-05
3.43407e-05
3.62791e-05
2.82965e-05
3.79758e-05
3.38289e-05
2.1338e-05
2.13385e-05
2.13635e-05
2.13648e-05
3.37909e-05
2.24971e-05
2.23204e-05
2.59969e-05
3.50708e-05
2.67471e-05
3.46721e-05
2.68731e-05
3.49321e-05
2.58478e-05
2.07513e-05
3.40338e-05
2.88765e-05
2.09681e-05
3.38066e-05
2.58477e-05
3.4801e-05
2.68732e-05
3.49321e-05
2.6747e-05
2.5997e-05
3.46719e-05
2.09679e-05
3.38066e-05
2.90924e-05
3.40338e-05
2.07513e-05
2.58482e-05
3.49322e-05
2.68732e-05
3.48014e-05
2.59975e-05
3.46725e-05
2.67471e-05
2.0969e-05
2.90924e-05
3.38118e-05
2.07542e-05
3.40342e-05
2.07519e-05
3.4034e-05
2.88765e-05
2.09689e-05
3.38079e-05
2.59976e-05
3.50711e-05
3.4676e-05
2.67497e-05
2.58507e-05
3.49325e-05
2.68733e-05
2.58478e-05
2.68732e-05
3.49322e-05
3.48014e-05
2.5997e-05
2.67471e-05
3.46722e-05
2.09682e-05
2.90926e-05
3.38108e-05
3.40341e-05
2.07538e-05
2.07515e-05
3.40339e-05
2.88765e-05
2.09681e-05
3.38068e-05
2.59971e-05
3.50711e-05
2.67497e-05
3.46757e-05
2.68733e-05
3.49324e-05
2.58504e-05
2.59979e-05
3.50707e-05
3.46717e-05
2.6747e-05
3.49321e-05
2.68735e-05
2.58483e-05
2.0752e-05
3.40338e-05
2.88768e-05
3.38073e-05
2.09697e-05
2.58483e-05
3.48008e-05
3.49321e-05
2.68735e-05
3.4672e-05
2.59979e-05
2.67471e-05
2.09696e-05
3.38073e-05
2.90924e-05
3.40338e-05
2.0752e-05
2.59974e-05
3.50708e-05
2.6747e-05
3.46714e-05
2.68734e-05
3.49321e-05
2.58479e-05
2.07517e-05
3.40337e-05
2.88767e-05
2.09692e-05
3.38063e-05
2.58479e-05
3.48007e-05
2.68735e-05
3.49321e-05
2.59975e-05
2.67471e-05
3.46715e-05
2.09689e-05
3.38063e-05
2.90925e-05
3.40336e-05
2.07517e-05
2.58482e-05
3.49321e-05
2.68733e-05
3.48007e-05
2.59978e-05
3.46718e-05
2.6747e-05
2.09692e-05
2.90924e-05
3.38073e-05
3.40338e-05
2.07519e-05
2.0752e-05
3.40338e-05
2.88767e-05
2.09694e-05
3.38073e-05
2.59976e-05
3.50708e-05
3.46719e-05
2.6747e-05
3.49322e-05
2.68732e-05
2.58482e-05
2.58479e-05
2.68733e-05
3.49321e-05
3.48008e-05
2.59972e-05
2.6747e-05
3.46718e-05
2.09687e-05
2.90924e-05
3.38075e-05
3.40336e-05
2.07518e-05
2.07517e-05
3.40336e-05
2.88766e-05
2.09686e-05
3.38067e-05
2.59972e-05
3.50709e-05
2.6747e-05
3.4672e-05
2.68732e-05
3.49321e-05
2.58479e-05
3.38282e-05
2.13371e-05
2.13382e-05
2.1363e-05
2.13645e-05
3.37909e-05
3.59812e-05
3.80363e-05
3.43401e-05
2.87037e-05
2.82942e-05
3.79757e-05
3.62786e-05
3.59826e-05
3.80367e-05
3.43402e-05
2.87056e-05
3.79762e-05
2.82966e-05
3.62796e-05
3.62789e-05
2.82942e-05
3.46701e-05
3.7976e-05
2.87036e-05
3.80368e-05
3.59814e-05
3.62799e-05
2.82965e-05
3.46706e-05
3.79763e-05
3.80373e-05
2.87055e-05
3.59829e-05
3.37909e-05
2.13631e-05
2.13646e-05
2.13368e-05
2.13379e-05
3.38284e-05
2.23202e-05
2.24964e-05
2.24967e-05
2.23195e-05
3.37948e-05
2.1363e-05
2.13644e-05
3.38284e-05
2.13397e-05
2.13408e-05
3.79827e-05
3.46759e-05
3.80399e-05
3.59844e-05
2.87037e-05
3.80371e-05
3.43411e-05
3.79768e-05
3.62792e-05
2.82966e-05
3.59859e-05
2.87055e-05
3.80375e-05
3.43444e-05
3.62801e-05
2.82992e-05
3.79805e-05
2.23224e-05
2.59972e-05
3.4672e-05
2.6747e-05
3.50708e-05
3.49322e-05
2.68732e-05
2.5848e-05
2.07517e-05
2.88767e-05
3.40336e-05
3.38064e-05
2.09687e-05
2.09686e-05
3.38066e-05
2.90922e-05
3.40336e-05
2.07517e-05
2.5848e-05
3.4801e-05
3.49321e-05
2.68733e-05
3.46719e-05
2.6747e-05
2.59973e-05
2.59975e-05
3.4672e-05
2.6747e-05
3.50708e-05
3.49322e-05
2.68732e-05
2.58482e-05
2.07518e-05
2.88765e-05
3.4034e-05
3.38072e-05
2.09689e-05
2.09687e-05
3.38072e-05
2.90924e-05
3.4034e-05
2.07517e-05
2.58482e-05
3.4801e-05
3.49322e-05
2.68733e-05
3.4672e-05
2.6747e-05
2.59977e-05
2.58505e-05
3.49324e-05
2.68731e-05
3.48047e-05
2.59972e-05
3.46758e-05
2.67496e-05
2.07542e-05
3.40339e-05
2.88794e-05
2.09686e-05
3.3811e-05
2.58507e-05
3.49325e-05
2.68731e-05
3.48048e-05
2.59975e-05
3.46759e-05
2.67496e-05
2.07542e-05
3.40343e-05
2.88792e-05
2.09686e-05
3.38117e-05
2.232e-05
2.24967e-05
2.23199e-05
2.24962e-05
3.37949e-05
2.13645e-05
2.13634e-05
3.38286e-05
2.13415e-05
2.13392e-05
3.79849e-05
3.46766e-05
3.80416e-05
3.59857e-05
2.87055e-05
3.80379e-05
3.43412e-05
3.628e-05
3.79777e-05
2.82986e-05
3.5984e-05
2.87038e-05
3.80358e-05
3.43439e-05
3.62786e-05
3.79788e-05
2.8297e-05
2.24973e-05
2.23199e-05
2.2322e-05
2.88826e-05
3.59838e-05
3.80365e-05
2.87037e-05
3.43441e-05
2.82968e-05
3.62784e-05
3.7979e-05
3.59851e-05
3.80369e-05
2.87053e-05
3.43444e-05
3.79798e-05
3.62795e-05
2.82988e-05
3.37947e-05
2.13634e-05
2.13647e-05
2.13402e-05
3.38283e-05
2.13404e-05
2.23225e-05
2.07542e-05
3.4034e-05
2.88792e-05
3.38115e-05
2.09689e-05
2.58507e-05
3.48044e-05
3.49324e-05
2.68731e-05
3.46756e-05
2.59975e-05
2.67495e-05
2.07547e-05
3.40391e-05
2.09693e-05
3.38163e-05
2.58503e-05
3.48045e-05
2.68731e-05
3.49328e-05
2.59971e-05
2.67495e-05
3.4676e-05
3.57058e-05
3.57058e-05
3.57276e-05
3.57058e-05
3.57058e-05
3.57025e-05
3.57025e-05
3.57058e-05
3.57058e-05
3.57277e-05
3.57058e-05
3.57058e-05
3.57025e-05
3.57025e-05
3.70923e-05
3.76755e-05
3.76755e-05
3.75649e-05
3.76702e-05
3.76697e-05
3.72392e-05
3.70916e-05
3.76746e-05
3.76743e-05
3.75639e-05
3.76691e-05
3.76689e-05
3.72382e-05
3.7239e-05
3.75817e-05
3.76697e-05
3.76694e-05
3.76753e-05
3.76751e-05
3.70921e-05
3.70918e-05
3.76748e-05
3.7674e-05
3.75639e-05
3.76688e-05
3.76694e-05
3.72382e-05
3.72381e-05
3.7581e-05
3.76694e-05
3.7669e-05
3.76747e-05
3.7674e-05
3.70918e-05
3.70924e-05
3.76753e-05
3.76755e-05
3.75646e-05
3.72392e-05
3.767e-05
3.76698e-05
3.72391e-05
3.75819e-05
3.7672e-05
3.76718e-05
3.76752e-05
3.76752e-05
3.70949e-05
3.70919e-05
3.7675e-05
3.76744e-05
3.7564e-05
3.7669e-05
3.72385e-05
3.76696e-05
3.7239e-05
3.75817e-05
3.76698e-05
3.76693e-05
3.76757e-05
3.76746e-05
3.70921e-05
3.70926e-05
3.76761e-05
3.76754e-05
3.75653e-05
3.767e-05
3.76705e-05
3.72396e-05
3.75861e-05
3.76748e-05
3.76791e-05
3.75855e-05
3.76751e-05
3.76787e-05
3.70942e-05
3.76759e-05
3.76748e-05
3.75668e-05
3.7671e-05
3.72392e-05
3.76718e-05
3.57058e-05
3.57058e-05
3.57277e-05
3.57058e-05
3.57058e-05
3.57025e-05
3.57025e-05
3.57058e-05
3.57058e-05
3.57276e-05
3.57058e-05
3.57058e-05
3.57025e-05
3.57025e-05
3.57058e-05
3.57058e-05
3.57276e-05
3.57058e-05
3.57058e-05
3.57025e-05
3.57025e-05
3.57276e-05
3.57058e-05
3.57058e-05
3.57058e-05
3.57058e-05
3.57025e-05
3.57025e-05
3.57277e-05
3.57058e-05
3.57058e-05
3.57058e-05
3.57058e-05
3.57025e-05
3.57025e-05
3.57277e-05
3.57058e-05
3.57058e-05
3.57058e-05
3.57058e-05
3.57025e-05
3.57025e-05
3.57276e-05
3.57058e-05
3.57058e-05
3.57058e-05
3.57058e-05
3.57025e-05
3.57025e-05
3.61549e-05
3.68382e-05
3.61782e-05
3.68111e-05
3.68627e-05
3.6113e-05
3.62272e-05
3.64225e-05
3.6881e-05
3.6029e-05
3.69434e-05
3.68938e-05
3.6921e-05
3.63404e-05
3.63403e-05
3.6921e-05
3.63007e-05
3.68937e-05
3.6881e-05
3.69433e-05
3.64225e-05
3.62272e-05
3.67803e-05
3.68628e-05
3.6113e-05
3.68382e-05
3.61783e-05
3.6155e-05
3.57058e-05
3.57058e-05
3.57276e-05
3.57058e-05
3.57058e-05
3.57025e-05
3.57025e-05
3.57058e-05
3.57058e-05
3.57276e-05
3.57058e-05
3.57058e-05
3.57025e-05
3.57025e-05
3.57058e-05
3.57058e-05
3.57276e-05
3.57058e-05
3.57058e-05
3.57025e-05
3.57025e-05
3.57277e-05
3.57067e-05
3.57067e-05
3.57059e-05
3.57059e-05
3.57025e-05
3.57033e-05
3.57276e-05
3.57067e-05
3.57059e-05
3.57059e-05
3.57058e-05
3.57025e-05
3.57033e-05
3.57277e-05
3.57067e-05
3.57075e-05
3.57059e-05
3.57059e-05
3.57025e-05
3.57033e-05
3.57277e-05
3.5706e-05
3.57075e-05
3.57058e-05
3.57059e-05
3.57025e-05
3.57033e-05
3.6155e-05
3.68115e-05
3.68383e-05
3.61782e-05
3.6863e-05
3.61131e-05
3.62272e-05
3.64226e-05
3.68811e-05
3.69434e-05
3.60291e-05
3.63404e-05
3.68939e-05
3.69212e-05
3.62273e-05
3.67805e-05
3.68628e-05
3.61131e-05
3.6155e-05
3.68384e-05
3.61783e-05
3.63405e-05
3.69212e-05
3.63009e-05
3.6894e-05
3.68812e-05
3.69435e-05
3.64227e-05
3.61552e-05
3.61784e-05
3.68388e-05
3.6812e-05
3.61132e-05
3.68638e-05
3.62274e-05
3.64227e-05
3.6882e-05
3.60293e-05
3.69441e-05
3.68944e-05
3.69213e-05
3.63408e-05
3.63408e-05
3.69214e-05
3.63016e-05
3.68944e-05
3.68823e-05
3.69443e-05
3.64228e-05
3.62273e-05
3.67807e-05
3.61132e-05
3.68636e-05
3.61783e-05
3.68387e-05
3.61552e-05
3.72396e-05
3.75826e-05
3.76701e-05
3.76701e-05
3.7676e-05
3.76758e-05
3.70925e-05
3.57076e-05
3.57083e-05
3.64247e-05
3.68821e-05
3.69446e-05
3.60325e-05
3.63411e-05
3.68963e-05
3.69247e-05
3.62294e-05
3.6784e-05
3.68642e-05
3.61137e-05
3.61556e-05
3.68418e-05
3.61807e-05
3.72384e-05
3.75813e-05
3.76691e-05
3.7669e-05
3.70916e-05
3.76746e-05
3.76748e-05
3.7092e-05
3.75645e-05
3.7675e-05
3.76752e-05
3.72388e-05
3.76697e-05
3.76694e-05
3.6155e-05
3.68381e-05
3.61781e-05
3.6811e-05
3.68629e-05
3.6113e-05
3.62271e-05
3.64228e-05
3.68819e-05
3.60292e-05
3.69438e-05
3.69213e-05
3.68944e-05
3.63407e-05
3.63407e-05
3.69212e-05
3.63013e-05
3.68944e-05
3.69439e-05
3.68818e-05
3.64227e-05
3.62272e-05
3.67801e-05
3.68629e-05
3.6113e-05
3.68382e-05
3.61781e-05
3.6155e-05
3.6155e-05
3.6838e-05
3.61781e-05
3.6811e-05
3.68628e-05
3.6113e-05
3.62271e-05
3.64228e-05
3.68812e-05
3.60293e-05
3.69438e-05
3.69213e-05
3.6894e-05
3.63407e-05
3.63407e-05
3.69214e-05
3.63013e-05
3.6894e-05
3.69438e-05
3.64228e-05
3.68813e-05
3.62271e-05
3.67801e-05
3.68629e-05
3.6113e-05
3.6838e-05
3.61781e-05
3.6155e-05
3.62272e-05
3.68631e-05
3.6113e-05
3.67802e-05
3.61551e-05
3.68383e-05
3.61782e-05
3.63409e-05
3.68949e-05
3.63016e-05
3.69215e-05
3.68823e-05
3.69442e-05
3.6423e-05
3.64229e-05
3.6944e-05
3.6882e-05
3.60294e-05
3.68946e-05
3.63408e-05
3.69214e-05
3.61551e-05
3.68114e-05
3.68383e-05
3.61782e-05
3.68633e-05
3.61131e-05
3.62273e-05
3.62272e-05
3.68629e-05
3.6113e-05
3.67802e-05
3.6155e-05
3.68382e-05
3.61782e-05
3.63407e-05
3.68941e-05
3.63013e-05
3.69215e-05
3.69439e-05
3.68813e-05
3.64229e-05
3.64229e-05
3.69439e-05
3.68812e-05
3.60295e-05
3.63406e-05
3.69215e-05
3.68941e-05
3.6155e-05
3.68113e-05
3.68382e-05
3.61782e-05
3.68629e-05
3.6113e-05
3.62272e-05
3.72382e-05
3.7581e-05
3.76695e-05
3.76688e-05
3.7674e-05
3.76747e-05
3.70917e-05
3.70919e-05
3.7564e-05
3.76753e-05
3.76742e-05
3.76696e-05
3.72384e-05
3.76689e-05
3.61549e-05
3.68379e-05
3.61781e-05
3.68109e-05
3.68627e-05
3.6113e-05
3.62271e-05
3.64225e-05
3.68806e-05
3.60287e-05
3.69432e-05
3.69209e-05
3.68934e-05
3.63404e-05
3.63404e-05
3.69208e-05
3.63009e-05
3.68934e-05
3.69435e-05
3.68809e-05
3.64225e-05
3.62271e-05
3.67799e-05
3.68625e-05
3.61129e-05
3.68379e-05
3.61781e-05
3.61549e-05
3.6155e-05
3.61781e-05
3.6811e-05
3.68379e-05
3.6113e-05
3.6863e-05
3.62271e-05
3.64228e-05
3.68815e-05
3.69437e-05
3.60288e-05
3.6921e-05
3.63408e-05
3.6894e-05
3.62271e-05
3.67798e-05
3.6113e-05
3.68628e-05
3.61781e-05
3.68379e-05
3.6155e-05
3.63408e-05
3.6921e-05
3.63014e-05
3.68938e-05
3.6944e-05
3.64227e-05
3.68818e-05
3.62271e-05
3.6863e-05
3.6113e-05
3.67802e-05
3.6155e-05
3.68381e-05
3.61782e-05
3.63406e-05
3.68937e-05
3.63011e-05
3.69213e-05
3.68811e-05
3.6944e-05
3.64226e-05
3.64225e-05
3.69437e-05
3.68809e-05
3.60288e-05
3.68934e-05
3.63405e-05
3.6921e-05
3.61551e-05
3.68116e-05
3.68383e-05
3.61782e-05
3.68633e-05
3.61132e-05
3.62272e-05
3.62272e-05
3.61131e-05
3.67801e-05
3.68633e-05
3.61552e-05
3.61782e-05
3.68382e-05
3.6341e-05
3.68943e-05
3.69215e-05
3.63017e-05
3.69444e-05
3.6423e-05
3.68819e-05
3.61553e-05
3.68117e-05
3.61782e-05