/*--------------------------------*- C++ -*----------------------------------*\
| =========                 |                                                 |
| \\      /  F ield         | OpenFOAM: The Open Source CFD Toolbox           |
|  \\    /   O peration     | Version:  2206                                  |
|   \\  /    A nd           | Website:  www.openfoam.com                      |
|    \\/     M anipulation  |                                                 |
\*---------------------------------------------------------------------------*/
FoamFile
{
    version     2.0;
    format      ascii;
    arch        "LSB;label=32;scalar=64";
    class       volScalarField;
    location    "3.5";
    object      nut;
}
// * * * * * * * * * * * * * * * * * * * * * * * * * * * * * * * * * * * * * //

dimensions      [0 2 -1 0 0 0 0];

internalField   nonuniform List<scalar> 
28448
(
0.000233889
0.000233612
0.000233593
0.000233264
0.000233888
0.000233605
0.000233607
0.000233272
0.000233891
0.000233608
0.000233608
0.000233272
0.000233891
0.000233608
0.000233608
0.000233272
0.000233891
0.000233608
0.000233608
0.000233272
0.000233891
0.000233608
0.000233608
0.000233272
0.000233891
0.000233608
0.000233608
0.000233272
0.000233891
0.000233608
0.000233608
0.000233272
0.000233891
0.000233608
0.000233608
0.000233272
0.000233891
0.000233608
0.000233608
0.000233272
0.000233891
0.000233608
0.000233608
0.000233272
0.000233891
0.000233608
0.000233608
0.000233272
0.000233891
0.000233608
0.000233608
0.000233272
0.000233891
0.000233608
0.000233608
0.000233272
0.000233891
0.000233608
0.000233608
0.000233272
0.000233891
0.000233608
0.000233608
0.000233272
0.000233891
0.000233608
0.000233608
0.000233272
0.000233893
0.00023361
0.000233299
0.000233617
0.000233617
0.000233299
0.000233617
0.000233612
0.000233617
0.000233612
0.00023329
0.000233613
0.000233612
0.000233291
0.00023329
0.000233273
0.000233612
0.000233612
0.000233597
0.000233597
0.00023329
0.000233273
0.000233612
0.000233592
0.000233597
0.000233604
0.000233592
0.000233597
0.000233604
0.000233266
0.000233277
0.000233592
0.000233604
0.000233604
0.000233274
0.000233273
0.000233276
0.000233605
0.000233605
0.000233608
0.000233608
0.000233273
0.000233276
0.000233605
0.000233607
0.000233608
0.000233608
0.000233608
0.000233608
0.000233608
0.000233275
0.000233276
0.000233608
0.000233608
0.000233608
0.000233274
0.000233274
0.000233276
0.000233608
0.000233608
0.000233608
0.000233608
0.000233274
0.000233276
0.000233608
0.000233608
0.000233608
0.000233607
0.000233608
0.000233608
0.000233608
0.000233274
0.000233276
0.000233608
0.000233608
0.000233608
0.000233274
0.000233274
0.000233276
0.000233608
0.000233608
0.000233608
0.000233608
0.000233274
0.000233276
0.000233608
0.000233608
0.000233608
0.000233607
0.000233608
0.000233608
0.000233608
0.000233274
0.000233276
0.000233608
0.000233608
0.000233608
0.000233274
0.000233274
0.000233276
0.000233608
0.000233608
0.000233608
0.000233608
0.000233274
0.000233276
0.000233608
0.000233608
0.000233608
0.000233607
0.000233608
0.000233608
0.000233608
0.000233274
0.000233276
0.000233608
0.000233608
0.000233608
0.000233274
0.000233274
0.000233276
0.000233608
0.000233608
0.000233608
0.000233608
0.000233274
0.000233276
0.000233608
0.000233608
0.000233608
0.000233607
0.000233608
0.000233608
0.000233608
0.000233274
0.000233276
0.000233608
0.000233608
0.000233608
0.000233274
0.000233274
0.000233276
0.000233608
0.000233608
0.000233608
0.000233608
0.000233274
0.000233276
0.000233608
0.000233608
0.000233608
0.000233607
0.000233608
0.000233608
0.000233608
0.000233274
0.000233276
0.000233608
0.000233608
0.000233608
0.000233274
0.000233274
0.000233276
0.000233608
0.000233608
0.000233608
0.000233608
0.000233274
0.000233276
0.000233608
0.000233608
0.000233608
0.000233607
0.000233608
0.000233608
0.000233608
0.000233274
0.000233276
0.000233608
0.000233608
0.000233608
0.000233274
0.000233274
0.000233276
0.000233608
0.000233608
0.000233608
0.000233608
0.000233274
0.000233276
0.000233608
0.000233608
0.000233608
0.000233607
0.000233608
0.000233608
0.000233608
0.000233274
0.000233276
0.000233608
0.000233608
0.000233608
0.000233274
0.000233274
0.000233276
0.000233608
0.000233608
0.000233608
0.000233608
0.000233274
0.000233276
0.000233608
0.000233608
0.000233608
0.000233607
0.000233608
0.000233608
0.000233608
0.000233274
0.000233276
0.000233608
0.000233608
0.000233608
0.000233274
0.000233274
0.000233276
0.000233608
0.000233608
0.000233608
0.000233608
0.000233274
0.000233276
0.000233608
0.000233608
0.000233608
0.000233607
0.000233608
0.000233608
0.000233608
0.000233274
0.000233276
0.000233608
0.000233608
0.000233608
0.000233274
0.000233274
0.000233276
0.000233608
0.000233608
0.000233608
0.000233608
0.000233274
0.000233276
0.000233608
0.000233608
0.000233608
0.000233607
0.000233608
0.000233608
0.000233608
0.000233274
0.000233276
0.000233608
0.000233608
0.000233608
0.000233274
0.000233274
0.000233276
0.000233608
0.000233608
0.000233608
0.000233608
0.000233274
0.000233276
0.000233608
0.000233608
0.000233608
0.000233607
0.000233608
0.000233608
0.000233608
0.000233274
0.000233276
0.000233608
0.000233608
0.000233608
0.000233274
0.000233274
0.000233276
0.000233608
0.000233608
0.000233608
0.000233608
0.000233274
0.000233276
0.000233608
0.000233608
0.000233608
0.000233607
0.000233608
0.000233608
0.000233608
0.000233274
0.000233276
0.000233608
0.000233608
0.000233608
0.000233274
0.000233274
0.000233276
0.000233608
0.000233608
0.000233608
0.000233608
0.000233274
0.000233276
0.000233608
0.000233608
0.000233608
0.000233607
0.000233608
0.000233608
0.000233608
0.000233274
0.000233276
0.000233608
0.000233608
0.000233608
0.000233274
0.000233274
0.000233276
0.000233608
0.000233608
0.000233608
0.000233608
0.000233274
0.000233276
0.000233608
0.000233608
0.000233608
0.000233607
0.000233608
0.000233608
0.000233608
0.000233274
0.000233276
0.000233608
0.000233608
0.000233608
0.000233274
0.000233274
0.000233278
0.000233608
0.000233608
0.000233608
0.000233274
0.000233608
0.000233608
0.000233608
0.000233607
0.000233608
0.000233609
0.000233274
0.000233276
0.000233608
0.000233608
0.000233609
0.000233282
0.000233284
0.000233609
0.000233608
0.000233272
0.000233894
0.000233894
0.00023389
0.000233889
0.000126587
4.03344e-05
0.000126686
4.0346e-05
2.2111e-05
2.21232e-05
0.00012658
4.03309e-05
0.000126713
4.03425e-05
0.000233889
0.000233872
0.000233872
0.000233879
0.00023388
0.000233888
0.000233887
0.000216024
0.000142216
0.000233839
0.000233592
0.000216148
0.000142124
0.000233835
2.21148e-05
2.2134e-05
0.000216021
0.000233836
0.000142157
0.000233589
0.000216145
0.000233834
0.000141954
8.73286e-05
8.73145e-05
0.000233262
8.70949e-05
8.70796e-05
0.000126332
4.036e-05
0.000126311
4.03592e-05
2.21376e-05
2.21368e-05
0.000126346
4.03565e-05
0.000126326
4.03557e-05
0.000233888
0.000233891
0.00023389
0.000233891
0.000233891
0.000233892
0.000233891
0.000216002
0.000141855
0.000233855
0.000233608
0.000215985
0.000141887
0.000233856
2.21363e-05
2.21355e-05
0.000216
0.000233855
0.000141864
0.000233608
0.000215982
0.000233856
0.000141894
8.70438e-05
8.70288e-05
0.000233279
8.70543e-05
8.70397e-05
0.000126331
4.036e-05
0.000126312
4.03591e-05
2.21376e-05
2.21369e-05
0.000126346
4.03565e-05
0.000126328
4.03556e-05
0.000233891
0.000233891
0.000233891
0.000233891
0.000233891
0.000233891
0.000233891
0.000216002
0.000141857
0.000233856
0.000233609
0.000215986
0.000141888
0.000233856
2.21363e-05
2.21355e-05
0.000216
0.000233856
0.000141865
0.000233609
0.000215984
0.000233856
0.000141894
8.70435e-05
8.70287e-05
0.000233279
8.70544e-05
8.70399e-05
0.000126332
4.036e-05
0.000126312
4.03591e-05
2.21376e-05
2.21368e-05
0.000126346
4.03565e-05
0.000126328
4.03556e-05
0.000233891
0.000233891
0.000233891
0.000233891
0.000233891
0.000233891
0.000233891
0.000216002
0.000141857
0.000233856
0.000233609
0.000215986
0.000141888
0.000233856
2.21363e-05
2.21355e-05
0.000216
0.000233856
0.000141865
0.000233609
0.000215984
0.000233856
0.000141894
8.70435e-05
8.70288e-05
0.000233279
8.70544e-05
8.70396e-05
0.000126332
4.036e-05
0.000126312
4.03591e-05
2.21376e-05
2.21368e-05
0.000126346
4.03565e-05
0.000126328
4.03556e-05
0.000233891
0.000233891
0.000233891
0.000233891
0.000233891
0.000233891
0.000233891
0.000216002
0.000141857
0.000233856
0.000233609
0.000215986
0.000141888
0.000233856
2.21363e-05
2.21355e-05
0.000216
0.000233856
0.000141865
0.000233609
0.000215983
0.000233856
0.000141894
8.70434e-05
8.70289e-05
0.000233279
8.70544e-05
8.70399e-05
0.000126332
4.036e-05
0.000126312
4.03591e-05
2.21376e-05
2.21368e-05
0.000126346
4.03565e-05
0.000126328
4.03556e-05
0.000233891
0.000233891
0.000233891
0.000233891
0.000233891
0.000233891
0.000233891
0.000216002
0.000141857
0.000233856
0.000233609
0.000215986
0.000141888
0.000233856
2.21363e-05
2.21355e-05
0.000216
0.000233856
0.000141865
0.000233609
0.000215984
0.000233856
0.000141894
8.70435e-05
8.70285e-05
0.000233279
8.70544e-05
8.70401e-05
0.000126332
4.036e-05
0.000126312
4.03591e-05
2.21376e-05
2.21368e-05
0.000126346
4.03565e-05
0.000126328
4.03556e-05
0.000233891
0.000233891
0.000233891
0.000233891
0.000233891
0.000233891
0.000233891
0.000216002
0.000141857
0.000233856
0.000233609
0.000215986
0.000141888
0.000233856
2.21363e-05
2.21354e-05
0.000216
0.000233856
0.000141865
0.000233609
0.000215984
0.000233856
0.000141894
8.70435e-05
8.70289e-05
0.000233279
8.70544e-05
8.70401e-05
0.000126331
4.036e-05
0.000126312
4.03591e-05
2.21376e-05
2.21368e-05
0.000126346
4.03565e-05
0.000126328
4.03556e-05
0.000233891
0.000233891
0.000233891
0.000233891
0.000233891
0.000233891
0.000233891
0.000216002
0.000141857
0.000233856
0.000233609
0.000215987
0.000141888
0.000233856
2.21363e-05
2.21355e-05
0.000216001
0.000233856
0.000141865
0.000233609
0.000215985
0.000233856
0.000141894
8.70435e-05
8.70289e-05
0.000233279
8.70544e-05
8.70399e-05
0.000126332
4.036e-05
0.000126312
4.03591e-05
2.21376e-05
2.21368e-05
0.000126346
4.03565e-05
0.000126328
4.03556e-05
0.000233891
0.000233891
0.000233891
0.000233891
0.000233891
0.000233891
0.000233891
0.000216002
0.000141857
0.000233856
0.000233609
0.000215987
0.000141888
0.000233856
2.21363e-05
2.21355e-05
0.000216
0.000233856
0.000141865
0.000233609
0.000215985
0.000233856
0.000141894
8.70435e-05
8.70289e-05
0.000233279
8.70544e-05
8.70399e-05
0.000126332
4.036e-05
0.000126312
4.03591e-05
2.21376e-05
2.21368e-05
0.000126346
4.03565e-05
0.000126328
4.03556e-05
0.000233891
0.000233891
0.000233891
0.000233891
0.000233891
0.000233891
0.000233891
0.000216002
0.000141857
0.000233856
0.000233609
0.000215986
0.000141888
0.000233856
2.21363e-05
2.21355e-05
0.000215996
0.000233856
0.000141865
0.000233609
0.000215981
0.000233856
0.000141894
8.70434e-05
8.70289e-05
0.000233279
8.70544e-05
8.70399e-05
0.000126332
4.036e-05
0.000126312
4.03591e-05
2.21376e-05
2.21368e-05
0.000126346
4.03565e-05
0.000126328
4.03556e-05
0.000233891
0.000233891
0.000233891
0.000233891
0.000233891
0.000233891
0.000233891
0.000216002
0.000141857
0.000233856
0.000233609
0.000215986
0.000141888
0.000233856
2.21363e-05
2.21354e-05
0.000215997
0.000233856
0.000141865
0.000233609
0.00021598
0.000233856
0.000141894
8.70435e-05
8.70286e-05
0.000233279
8.70544e-05
8.70397e-05
0.000126332
4.036e-05
0.000126312
4.03591e-05
2.21376e-05
2.21368e-05
0.000126346
4.03565e-05
0.000126328
4.03556e-05
0.000233891
0.000233891
0.000233891
0.000233891
0.000233891
0.000233891
0.000233891
0.000216002
0.000141857
0.000233856
0.000233609
0.000215986
0.000141888
0.000233856
2.21363e-05
2.21354e-05
0.000215997
0.000233856
0.000141865
0.000233609
0.00021598
0.000233856
0.000141894
8.70435e-05
8.70285e-05
0.000233279
8.70544e-05
8.70395e-05
0.000126332
4.036e-05
0.000126312
4.03591e-05
2.21376e-05
2.21368e-05
0.000126346
4.03565e-05
0.000126328
4.03556e-05
0.000233891
0.000233891
0.000233891
0.000233891
0.000233891
0.000233891
0.000233891
0.000216002
0.000141857
0.000233856
0.000233609
0.000215986
0.000141888
0.000233856
2.21363e-05
2.21354e-05
0.000215997
0.000233856
0.000141865
0.000233609
0.00021598
0.000233856
0.000141894
8.70435e-05
8.70285e-05
0.000233279
8.70544e-05
8.70397e-05
0.000126332
4.036e-05
0.000126312
4.03591e-05
2.21376e-05
2.21368e-05
0.000126346
4.03565e-05
0.000126328
4.03556e-05
0.000233891
0.000233891
0.000233891
0.000233891
0.000233891
0.000233891
0.000233891
0.000216002
0.000141857
0.000233856
0.000233609
0.000215986
0.000141888
0.000233856
2.21363e-05
2.21355e-05
0.000215997
0.000233856
0.000141865
0.000233609
0.000215981
0.000233856
0.000141894
8.70435e-05
8.70286e-05
0.000233279
8.70544e-05
8.70397e-05
0.000126332
4.036e-05
0.000126312
4.03591e-05
2.21376e-05
2.21368e-05
0.000126346
4.03565e-05
0.000126328
4.03556e-05
0.000233891
0.000233891
0.000233891
0.000233891
0.000233891
0.000233891
0.000233891
0.000216002
0.000141857
0.000233856
0.000233609
0.000215987
0.000141888
0.000233856
2.21363e-05
2.21354e-05
0.000215997
0.000233856
0.000141865
0.000233609
0.000215981
0.000233856
0.000141894
8.70435e-05
8.70286e-05
0.000233279
8.70544e-05
8.70398e-05
0.000126332
4.036e-05
0.000126312
4.03591e-05
2.21376e-05
2.21368e-05
0.000126346
4.03565e-05
0.000126328
4.03556e-05
0.000233891
0.000233891
0.000233891
0.000233891
0.000233891
0.000233891
0.000233891
0.000216002
0.000141857
0.000233856
0.000233609
0.000215987
0.000141888
0.000233856
2.21363e-05
2.21355e-05
0.000215997
0.000233856
0.000141865
0.000233609
0.000215981
0.000233856
0.000141893
8.70435e-05
8.70289e-05
0.000233279
8.70544e-05
8.70399e-05
0.000126331
4.036e-05
0.000126312
4.03591e-05
2.21376e-05
2.21368e-05
0.000126346
4.03565e-05
0.000126328
4.03556e-05
0.000233891
0.000233891
0.000233891
0.000233891
0.000233893
0.000233891
0.000233891
0.000216002
0.000141857
0.000233856
0.000233609
0.000215987
0.000141888
0.000233856
2.21363e-05
2.21354e-05
0.000215997
0.000233856
0.000141865
0.000233609
0.00021598
0.000233856
0.000141894
8.70434e-05
8.70288e-05
0.000233279
8.70544e-05
8.70399e-05
4.03565e-05
0.000126328
0.000233892
2.21363e-05
0.000141875
2.21117e-05
2.21105e-05
8.73948e-05
8.73778e-05
4.03338e-05
0.000126706
4.03333e-05
0.000126702
0.000142253
0.00023386
0.000216203
0.000142245
0.00023386
0.000216201
2.21108e-05
8.73809e-05
8.73848e-05
2.21118e-05
4.03303e-05
0.00012673
0.000142234
0.00023386
0.000216218
0.000126694
4.03305e-05
4.0329e-05
0.000126689
0.000216186
0.000233617
0.000233855
0.000142196
0.00023386
0.000142181
0.000216192
0.000216186
0.000142253
0.000233856
0.00023386
0.000216188
0.000126682
4.03329e-05
0.000126679
0.000216185
0.000233617
0.000233855
0.00014222
0.00023386
0.000142211
0.000216187
0.000126682
4.03326e-05
4.0331e-05
0.000126678
2.21109e-05
2.21099e-05
0.000233298
8.7344e-05
8.73753e-05
8.73516e-05
8.73852e-05
2.21124e-05
2.21113e-05
0.000216182
0.000233617
0.000233855
0.000142222
0.00023386
0.000142216
0.000216186
0.000216186
0.000233617
0.000233855
0.000142209
0.00023386
0.0001422
0.000216188
0.00012668
4.03324e-05
4.03307e-05
0.000126677
0.000126692
4.0332e-05
4.03303e-05
0.000126684
0.000233298
8.73745e-05
8.73606e-05
8.73869e-05
8.73728e-05
2.21125e-05
2.21112e-05
2.21118e-05
2.21105e-05
2.21117e-05
2.21237e-05
2.21105e-05
2.2123e-05
8.73959e-05
8.73786e-05
0.00023325
8.72795e-05
8.72611e-05
2.21381e-05
2.21313e-05
2.21368e-05
2.21303e-05
0.00023324
8.70492e-05
8.7033e-05
8.71682e-05
8.71496e-05
0.000126589
4.03335e-05
0.000126693
4.0345e-05
0.000216113
0.000142231
0.000233855
0.000233592
0.000216191
0.000142135
0.000233837
0.000216113
0.000142223
0.000233855
0.000233592
0.000216189
0.000142127
0.000233836
0.000126443
4.03598e-05
4.03533e-05
0.000126331
0.000126443
4.03586e-05
4.03523e-05
0.000126332
0.000216044
0.000233587
0.000141892
0.000233845
0.000142004
0.000233833
0.000216001
0.000216043
0.000233586
0.000141883
0.000233844
0.000141994
0.000233833
0.000216
8.73792e-05
8.73794e-05
0.000233251
8.72651e-05
8.72769e-05
2.21118e-05
2.21235e-05
2.21376e-05
2.21306e-05
0.000233242
8.70361e-05
8.70476e-05
8.71497e-05
8.71483e-05
2.21379e-05
2.21313e-05
0.000216101
0.000142208
0.000233855
0.000233592
0.000216202
0.000142114
0.000233836
0.000126417
4.03336e-05
0.000126659
4.03524e-05
0.000216032
0.000233838
0.000142136
0.000233586
0.00021616
0.000233833
0.000141931
0.00012644
4.03562e-05
4.03498e-05
0.00012634
0.000216037
0.000233587
0.000141871
0.000233845
0.000141978
0.000233834
0.000216001
0.000126351
4.03541e-05
4.03536e-05
0.000126335
0.000216
0.000233596
0.000233852
0.00014186
0.000233843
0.000141859
0.000215999
0.000126393
4.03331e-05
0.000126638
4.03446e-05
0.000216022
0.000233837
0.000142168
0.000233587
0.000216152
0.000233833
0.000141951
0.000126391
4.03356e-05
0.000126637
4.03545e-05
0.000216
0.000233588
0.000141886
0.000233851
0.000141991
0.000233844
0.000215997
0.000126332
4.03581e-05
4.03519e-05
0.000126327
0.000215998
0.000233596
0.000233852
0.000141888
0.000233844
0.000141884
0.000216
0.000126331
4.03562e-05
4.03557e-05
0.000126326
8.72986e-05
8.73371e-05
0.000233261
8.70713e-05
8.70955e-05
2.21153e-05
2.21355e-05
2.21361e-05
2.21349e-05
0.000233261
8.70178e-05
8.70495e-05
8.7025e-05
8.7057e-05
2.21372e-05
2.21364e-05
0.000216022
0.000233836
0.000142156
0.000233587
0.000216153
0.000233833
0.00014194
0.000126389
4.03355e-05
0.000126635
4.03544e-05
0.000126394
4.03351e-05
0.00012665
4.03539e-05
0.000215996
0.000233597
0.000233852
0.000141891
0.000233844
0.000141888
0.000215995
0.000215998
0.000233596
0.000233852
0.000141877
0.000233844
0.000141873
0.000216001
0.000126329
4.03559e-05
4.03555e-05
0.000126325
0.000126338
4.03555e-05
4.0355e-05
0.000126334
2.21155e-05
2.21356e-05
2.21149e-05
2.21349e-05
0.000233262
8.70507e-05
8.70354e-05
8.70584e-05
8.70433e-05
2.21371e-05
2.21363e-05
2.21364e-05
2.21357e-05
2.21374e-05
2.21377e-05
2.21362e-05
2.21364e-05
8.70511e-05
8.70348e-05
0.000233279
8.70521e-05
8.70359e-05
2.21381e-05
2.21373e-05
2.21368e-05
2.2136e-05
0.000233276
8.70515e-05
8.70352e-05
8.70546e-05
8.70385e-05
0.000126329
4.03579e-05
0.000126324
4.03582e-05
0.000216001
0.000141877
0.000233852
0.000233607
0.000215992
0.000141892
0.000233855
0.000216001
0.000141869
0.000233852
0.000233607
0.000215991
0.000141884
0.000233855
0.000126328
4.03597e-05
4.03584e-05
0.000126331
0.000126325
4.03585e-05
4.03579e-05
0.000126328
0.000215993
0.000233608
0.000141892
0.000233856
0.000141881
0.000233856
0.000216003
0.000215992
0.000233608
0.000141883
0.000233856
0.000141873
0.000233856
0.000216001
8.70388e-05
8.70337e-05
0.000233279
8.70368e-05
8.70343e-05
2.21373e-05
2.21377e-05
2.21376e-05
2.21361e-05
0.000233276
8.70352e-05
8.70394e-05
8.70427e-05
8.70317e-05
2.21379e-05
2.21373e-05
0.000216005
0.000141852
0.000233853
0.000233607
0.000215994
0.000141871
0.000233855
0.000126337
4.03534e-05
0.000126336
4.0354e-05
0.000216002
0.000233855
0.000141846
0.000233608
0.000215994
0.000233856
0.000141863
0.000126346
4.03561e-05
4.03548e-05
0.000126342
0.000215997
0.000233608
0.00014187
0.000233856
0.000141857
0.000233856
0.000216005
0.000126339
4.03542e-05
4.03533e-05
0.000126337
0.000215994
0.000233608
0.000233856
0.000141862
0.000233856
0.000141849
0.000216002
0.000126328
4.03574e-05
0.000126323
4.03578e-05
0.000216002
0.000233856
0.000141877
0.000233608
0.000215993
0.000233856
0.000141889
0.000126329
4.03555e-05
0.000126321
4.03561e-05
0.000215995
0.000233608
0.000141886
0.000233856
0.000141873
0.000233856
0.000216
0.000126324
4.0358e-05
4.03573e-05
0.000126328
0.000215994
0.000233608
0.000233856
0.000141888
0.000233857
0.000141878
0.000216001
0.000126325
4.03563e-05
4.03555e-05
0.000126327
8.70103e-05
8.70518e-05
0.000233279
8.70206e-05
8.70523e-05
2.21366e-05
2.2137e-05
2.2136e-05
2.21346e-05
0.000233276
8.70193e-05
8.70505e-05
8.70167e-05
8.70532e-05
2.21373e-05
2.21366e-05
0.000216003
0.000233855
0.000141865
0.000233608
0.000215994
0.000233856
0.000141879
0.000126326
4.03552e-05
0.000126321
4.03558e-05
0.000126336
4.03548e-05
0.000126334
4.03554e-05
0.000215992
0.000233608
0.000233856
0.000141892
0.000233856
0.000141883
0.000215999
0.000215995
0.000233609
0.000233856
0.000141877
0.000233856
0.000141867
0.000216003
0.000126322
4.0356e-05
4.03553e-05
0.000126327
0.000126337
4.03555e-05
4.03547e-05
0.000126335
2.21365e-05
2.21369e-05
2.21358e-05
2.21362e-05
0.000233276
8.70507e-05
8.70359e-05
8.7056e-05
8.7041e-05
2.21371e-05
2.21364e-05
2.21365e-05
2.21357e-05
2.21375e-05
2.21377e-05
2.21362e-05
2.21364e-05
8.7054e-05
8.70374e-05
0.000233278
8.7052e-05
8.7037e-05
2.21381e-05
2.21373e-05
2.21368e-05
2.2136e-05
0.000233276
8.70516e-05
8.70359e-05
8.70538e-05
8.70395e-05
0.00012633
4.03577e-05
0.000126324
4.03582e-05
0.000216
0.00014188
0.000233856
0.000233608
0.000215995
0.000141892
0.000233856
0.000216
0.000141871
0.000233856
0.000233608
0.000215993
0.000141884
0.000233856
0.000126328
4.03597e-05
4.03583e-05
0.000126331
0.000126325
4.03585e-05
4.03579e-05
0.000126328
0.000215992
0.000233608
0.000141892
0.000233856
0.000141881
0.000233856
0.000216003
0.000215992
0.000233608
0.000141883
0.000233856
0.000141873
0.000233856
0.000216001
8.70399e-05
8.70328e-05
0.000233279
8.7036e-05
8.70445e-05
2.21371e-05
2.21377e-05
2.21376e-05
2.21361e-05
0.000233276
8.70351e-05
8.70404e-05
8.70418e-05
8.7033e-05
2.21379e-05
2.21374e-05
0.000216004
0.000141854
0.000233856
0.000233608
0.000215997
0.000141871
0.000233856
0.000126338
4.03533e-05
0.000126337
4.03539e-05
0.000216001
0.000233856
0.000141847
0.000233608
0.000215994
0.000233856
0.000141863
0.000126347
4.03561e-05
4.03548e-05
0.000126343
0.000215996
0.000233608
0.000141871
0.000233856
0.000141857
0.000233856
0.000216006
0.000126339
4.03542e-05
4.03534e-05
0.000126337
0.000215993
0.000233608
0.000233855
0.000141861
0.000233855
0.000141849
0.000216002
0.000126328
4.03572e-05
0.000126323
4.03578e-05
0.000216002
0.000233856
0.000141877
0.000233608
0.000215993
0.000233856
0.00014189
0.000126329
4.03554e-05
0.000126322
4.0356e-05
0.000215995
0.000233609
0.000141886
0.000233856
0.000141874
0.000233856
0.000216
0.000126324
4.0358e-05
4.03574e-05
0.000126328
0.000215994
0.000233608
0.000233856
0.000141888
0.000233855
0.000141878
0.000216001
0.000126324
4.03563e-05
4.03557e-05
0.000126327
8.70099e-05
8.70526e-05
0.000233279
8.70203e-05
8.70522e-05
2.21367e-05
2.2137e-05
2.2136e-05
2.21346e-05
0.000233276
8.70191e-05
8.70505e-05
8.7017e-05
8.70531e-05
2.21373e-05
2.21366e-05
0.000216003
0.000233856
0.000141866
0.000233608
0.000215995
0.000233856
0.000141879
0.000126326
4.03551e-05
0.000126322
4.03557e-05
0.000126336
4.03547e-05
0.000126336
4.03553e-05
0.000215991
0.000233608
0.000233856
0.000141892
0.000233856
0.000141882
0.000215998
0.000215995
0.000233608
0.000233856
0.000141877
0.000233856
0.000141867
0.000216003
0.000126322
4.0356e-05
4.03554e-05
0.000126327
0.000126337
4.03555e-05
4.0355e-05
0.000126335
2.21366e-05
2.21368e-05
2.21359e-05
2.21362e-05
0.000233277
8.70507e-05
8.7036e-05
8.70562e-05
8.70415e-05
2.21371e-05
2.21364e-05
2.21365e-05
2.21358e-05
2.21375e-05
2.21377e-05
2.21362e-05
2.21364e-05
8.70539e-05
8.70376e-05
0.000233279
8.70529e-05
8.70371e-05
2.2138e-05
2.21373e-05
2.21368e-05
2.2136e-05
0.000233276
8.70517e-05
8.70351e-05
8.70545e-05
8.70387e-05
0.00012633
4.03577e-05
0.000126324
4.03582e-05
0.000216
0.00014188
0.000233856
0.000233608
0.000215995
0.000141892
0.000233856
0.000216
0.000141871
0.000233856
0.000233608
0.000215993
0.000141884
0.000233856
0.000126328
4.03597e-05
4.03583e-05
0.000126331
0.000126325
4.03585e-05
4.0358e-05
0.000126328
0.000215992
0.000233608
0.000141892
0.000233856
0.000141881
0.000233856
0.000216003
0.000215992
0.000233608
0.000141883
0.000233856
0.000141873
0.000233856
0.000216001
8.70398e-05
8.7032e-05
0.000233279
8.7036e-05
8.70446e-05
2.21371e-05
2.21377e-05
2.21376e-05
2.21361e-05
0.000233276
8.70351e-05
8.70404e-05
8.70419e-05
8.7033e-05
2.21379e-05
2.21374e-05
0.000216004
0.000141855
0.000233856
0.000233608
0.000215998
0.000141871
0.000233856
0.000126337
4.03533e-05
0.000126337
4.03539e-05
0.000216001
0.000233856
0.000141847
0.000233608
0.000215994
0.000233856
0.000141863
0.000126347
4.03561e-05
4.03548e-05
0.000126343
0.000215996
0.000233608
0.00014187
0.000233856
0.000141857
0.000233856
0.000216006
0.000126339
4.03542e-05
4.03534e-05
0.000126337
0.000215993
0.000233608
0.000233855
0.000141861
0.000233855
0.000141849
0.000216002
0.000126329
4.03572e-05
0.000126323
4.03578e-05
0.000216002
0.000233856
0.000141877
0.000233608
0.000215993
0.000233856
0.00014189
0.000126329
4.03554e-05
0.000126322
4.0356e-05
0.000215995
0.000233609
0.000141886
0.000233856
0.000141874
0.000233856
0.000216
0.000126325
4.0358e-05
4.03574e-05
0.000126328
0.000215994
0.000233608
0.000233856
0.000141888
0.000233856
0.000141878
0.000216001
0.000126325
4.03563e-05
4.03557e-05
0.000126327
8.70099e-05
8.70525e-05
0.000233279
8.70203e-05
8.70522e-05
2.21367e-05
2.2137e-05
2.2136e-05
2.21346e-05
0.000233276
8.70191e-05
8.70505e-05
8.70169e-05
8.70533e-05
2.21373e-05
2.21366e-05
0.000216002
0.000233856
0.000141866
0.000233608
0.000215995
0.000233856
0.000141879
0.000126327
4.03551e-05
0.000126322
4.03557e-05
0.000126336
4.03547e-05
0.000126336
4.03553e-05
0.000215991
0.000233608
0.000233856
0.000141892
0.000233856
0.000141882
0.000215998
0.000215995
0.000233608
0.000233856
0.000141877
0.000233856
0.000141866
0.000216003
0.000126322
4.0356e-05
4.03554e-05
0.000126327
0.000126337
4.03555e-05
4.0355e-05
0.000126336
2.21366e-05
2.21368e-05
2.21359e-05
2.21362e-05
0.000233277
8.70506e-05
8.70359e-05
8.70561e-05
8.70411e-05
2.21371e-05
2.21364e-05
2.21365e-05
2.21358e-05
2.21375e-05
2.21377e-05
2.21362e-05
2.21364e-05
8.70541e-05
8.70375e-05
0.000233279
8.70534e-05
8.70368e-05
2.21381e-05
2.21373e-05
2.21368e-05
2.2136e-05
0.000233276
8.70511e-05
8.70357e-05
8.70554e-05
8.70389e-05
0.00012633
4.03576e-05
0.000126323
4.03582e-05
0.000216
0.00014188
0.000233856
0.000233608
0.000215995
0.000141892
0.000233856
0.000216
0.000141871
0.000233856
0.000233608
0.000215993
0.000141884
0.000233856
0.000126328
4.03597e-05
4.03583e-05
0.000126331
0.000126325
4.03585e-05
4.0358e-05
0.000126328
0.000215992
0.000233608
0.000141892
0.000233856
0.000141881
0.000233856
0.000216003
0.000215992
0.000233608
0.000141883
0.000233856
0.000141873
0.000233856
0.000216001
8.70398e-05
8.7032e-05
0.000233279
8.70361e-05
8.70446e-05
2.21371e-05
2.21377e-05
2.21376e-05
2.21361e-05
0.000233276
8.70351e-05
8.70404e-05
8.70419e-05
8.7033e-05
2.21379e-05
2.21374e-05
0.000216004
0.000141855
0.000233856
0.000233608
0.000215998
0.000141871
0.000233856
0.000126338
4.03533e-05
0.000126337
4.03539e-05
0.000216001
0.000233856
0.000141847
0.000233608
0.000215994
0.000233856
0.000141863
0.000126347
4.03561e-05
4.03548e-05
0.000126343
0.000215996
0.000233608
0.000141871
0.000233856
0.000141857
0.000233856
0.000216006
0.000126339
4.03542e-05
4.03534e-05
0.000126337
0.000215993
0.000233608
0.000233856
0.000141861
0.000233856
0.000141849
0.000216003
0.000126329
4.03572e-05
0.000126323
4.03578e-05
0.000216002
0.000233856
0.000141877
0.000233608
0.000215994
0.000233856
0.00014189
0.000126329
4.03554e-05
0.000126322
4.0356e-05
0.000215995
0.000233609
0.000141886
0.000233856
0.000141874
0.000233856
0.000216
0.000126325
4.0358e-05
4.03574e-05
0.000126328
0.000215994
0.000233608
0.000233856
0.000141888
0.000233856
0.000141878
0.000216001
0.000126325
4.03563e-05
4.03557e-05
0.000126327
8.70099e-05
8.70522e-05
0.000233279
8.70203e-05
8.70523e-05
2.21367e-05
2.2137e-05
2.2136e-05
2.21346e-05
0.000233276
8.70191e-05
8.70504e-05
8.70169e-05
8.70533e-05
2.21373e-05
2.21366e-05
0.000216003
0.000233856
0.000141866
0.000233608
0.000215995
0.000233856
0.000141879
0.000126328
4.03551e-05
0.000126322
4.03557e-05
0.000126337
4.03547e-05
0.000126336
4.03553e-05
0.000215992
0.000233608
0.000233856
0.000141892
0.000233856
0.000141882
0.000215999
0.000215995
0.000233608
0.000233856
0.000141877
0.000233856
0.000141867
0.000216003
0.000126323
4.0356e-05
4.03554e-05
0.000126329
0.000126338
4.03555e-05
4.0355e-05
0.000126337
2.21366e-05
2.21368e-05
2.21359e-05
2.21362e-05
0.000233277
8.70506e-05
8.70356e-05
8.70561e-05
8.70415e-05
2.21371e-05
2.21364e-05
2.21365e-05
2.21358e-05
2.21375e-05
2.21377e-05
2.21362e-05
2.21364e-05
8.7054e-05
8.70384e-05
0.000233279
8.70523e-05
8.70371e-05
2.2138e-05
2.21373e-05
2.21368e-05
2.2136e-05
0.000233276
8.70517e-05
8.7035e-05
8.7054e-05
8.70391e-05
0.00012633
4.03576e-05
0.000126324
4.03582e-05
0.000216
0.00014188
0.000233856
0.000233608
0.000215995
0.000141892
0.000233856
0.000216
0.000141871
0.000233856
0.000233608
0.000215993
0.000141884
0.000233856
0.000126328
4.03597e-05
4.03583e-05
0.000126331
0.000126326
4.03585e-05
4.0358e-05
0.000126328
0.000215992
0.000233608
0.000141892
0.000233856
0.000141881
0.000233856
0.000216003
0.000215992
0.000233608
0.000141883
0.000233856
0.000141873
0.000233856
0.000216001
8.70398e-05
8.7032e-05
0.000233279
8.70361e-05
8.70446e-05
2.21371e-05
2.21377e-05
2.21376e-05
2.21361e-05
0.000233276
8.70351e-05
8.70404e-05
8.70419e-05
8.7033e-05
2.21379e-05
2.21374e-05
0.000216004
0.000141855
0.000233856
0.000233608
0.000215998
0.000141871
0.000233856
0.000126338
4.03533e-05
0.000126337
4.03539e-05
0.000216001
0.000233856
0.000141847
0.000233608
0.000215994
0.000233856
0.000141863
0.000126347
4.03561e-05
4.03548e-05
0.000126343
0.000215996
0.000233608
0.00014187
0.000233856
0.000141857
0.000233856
0.000216006
0.000126339
4.03542e-05
4.03534e-05
0.000126337
0.000215993
0.000233608
0.000233855
0.000141861
0.000233855
0.000141849
0.000216003
0.000126328
4.03572e-05
0.000126323
4.03578e-05
0.000216002
0.000233856
0.000141877
0.000233608
0.000215994
0.000233856
0.00014189
0.000126329
4.03554e-05
0.000126322
4.0356e-05
0.000215995
0.000233609
0.000141886
0.000233856
0.000141874
0.000233856
0.000216
0.000126324
4.0358e-05
4.03574e-05
0.000126328
0.000215994
0.000233608
0.000233856
0.000141888
0.000233856
0.000141878
0.000216001
0.000126324
4.03563e-05
4.03557e-05
0.000126327
8.70099e-05
8.70524e-05
0.000233279
8.70203e-05
8.70522e-05
2.21367e-05
2.2137e-05
2.2136e-05
2.21346e-05
0.000233276
8.70191e-05
8.70504e-05
8.70169e-05
8.70532e-05
2.21373e-05
2.21366e-05
0.000216003
0.000233856
0.000141866