/*--------------------------------*- C++ -*----------------------------------*\
| =========                 |                                                 |
| \\      /  F ield         | OpenFOAM: The Open Source CFD Toolbox           |
|  \\    /   O peration     | Version:  2206                                  |
|   \\  /    A nd           | Website:  www.openfoam.com                      |
|    \\/     M anipulation  |                                                 |
\*---------------------------------------------------------------------------*/
FoamFile
{
    version     2.0;
    format      ascii;
    arch        "LSB;label=32;scalar=64";
    class       volScalarField;
    location    "10";
    object      nut;
}
// * * * * * * * * * * * * * * * * * * * * * * * * * * * * * * * * * * * * * //

dimensions      [0 2 -1 0 0 0 0];

internalField   nonuniform List<scalar> 
28673
(
0.000227425
0.000220678
0.0002319
0.000227424
0.000227423
0.000220662
0.00023188
0.000227383
0.000227403
0.00022061
0.000231884
0.000227388
0.000227383
0.000220595
0.000231889
0.000227389
0.000227387
0.000220591
0.000231889
0.000227389
0.000227388
0.000220593
0.000231889
0.000227389
0.000227387
0.000220593
0.000231889
0.000227389
0.000227388
0.000220593
0.000231888
0.000227389
0.000227388
0.000220593
0.000231889
0.000227389
0.000227387
0.000220593
0.000231889
0.00022739
0.000227388
0.000220594
0.000231889
0.000227391
0.000227389
0.000220603
0.000231977
0.000228685
0.000228684
0.000221893
0.000227421
0.000220735
0.000227425
0.000220738
0.000227422
0.000227421
0.000227422
0.000227422
0.000220675
0.000220726
0.000227424
0.000227418
0.000227421
0.000227425
0.000227421
0.000220725
0.000227423
0.000227424
0.000227423
0.000220724
0.000220678
0.000220712
0.000227422
0.000227421
0.000227411
0.000227392
0.000220666
0.00022067
0.000227427
0.000227418
0.000227421
0.000227414
0.000227419
0.000227397
0.000227406
0.000220665
0.000220713
0.000227421
0.000227417
0.000227408
0.000220697
0.000220636
0.000220644
0.000227389
0.000227379
0.00022738
0.000227382
0.000220578
0.000220661
0.000227409
0.000227405
0.000227378
0.000227374
0.000227384
0.000227386
0.00022738
0.000220647
0.000220639
0.000227387
0.000227378
0.000227383
0.000220652
0.00022059
0.000220657
0.000227384
0.000227385
0.000227385
0.000227385
0.000220603
0.000220656
0.000227384
0.000227378
0.000227387
0.000227382
0.000227384
0.000227389
0.000227385
0.000220585
0.000220655
0.000227386
0.000227388
0.000227387
0.000220653
0.000220596
0.000220657
0.000227385
0.000227385
0.000227385
0.000227385
0.000220596
0.000220657
0.000227388
0.000227382
0.000227388
0.000227382
0.000227385
0.00022739
0.000227385
0.000220595
0.000220654
0.000227387
0.000227388
0.000227387
0.000220655
0.000220597
0.000220657
0.000227386
0.000227385
0.000227385
0.000227385
0.000220598
0.000220658
0.000227388
0.000227383
0.000227388
0.000227382
0.000227385
0.00022739
0.000227385
0.000220595
0.000220653
0.000227388
0.000227388
0.000227387
0.000220655
0.000220597
0.000220657
0.000227386
0.000227385
0.000227385
0.000227385
0.000220598
0.000220658
0.000227388
0.000227383
0.000227388
0.000227382
0.000227385
0.00022739
0.000227385
0.000220594
0.000220654
0.000227388
0.000227388
0.000227387
0.000220655
0.000220596
0.000220657
0.000227386
0.000227385
0.000227385
0.000227385
0.000220598
0.000220658
0.000227388
0.000227383
0.000227388
0.000227382
0.000227385
0.00022739
0.000227385
0.000220594
0.000220654
0.000227388
0.000227388
0.000227387
0.000220655
0.000220596
0.000220657
0.000227386
0.000227385
0.000227386
0.000227385
0.000220598
0.000220658
0.000227388
0.000227383
0.000227388
0.000227382
0.000227385
0.00022739
0.000227385
0.000220594
0.000220654
0.000227388
0.000227388
0.000227387
0.000220655
0.000220596
0.000220657
0.000227386
0.000227385
0.000227386
0.000227386
0.000220598
0.000220658
0.000227388
0.000227383
0.000227388
0.000227383
0.000227385
0.00022739
0.000227386
0.000220594
0.000220654
0.000227388
0.000227388
0.000227388
0.000220655
0.000220597
0.000220664
0.000227387
0.000227386
0.000227396
0.000227396
0.000220598
0.000220665
0.000227389
0.000227384
0.000227399
0.000227393
0.000227386
0.0002274
0.000227396
0.000220594
0.000220661
0.000227389
0.000227399
0.000227399
0.000220662
0.000220605
0.000221184
0.000227386
0.000227386
0.000228114
0.000228115
0.000220607
0.000221185
0.000227389
0.000227383
0.000228116
0.000228113
0.000227386
0.000228116
0.000228115
0.000220603
0.000221183
0.000227389
0.000228116
0.000228117
0.000221183
0.000221896
0.000228684
0.000228684
0.000221896
0.000228685
0.000228683
0.000231978
0.000231978
0.000231978
0.000228684
0.000221894
0.000228685
7.45352e-05
4.5449e-05
7.45098e-05
4.54484e-05
2.56908e-05
2.56896e-05
7.45417e-05
4.54444e-05
0.0002319
0.000231898
0.0002319
0.000231899
0.000231899
0.000231898
0.000166454
8.84917e-05
0.000230846
0.000227425
0.000166395
8.8524e-05
0.000230846
2.56886e-05
0.000166441
0.000230845
0.000227425
0.000166381
0.000230845
8.85121e-05
4.73844e-05
4.7375e-05
0.000220729
4.73944e-05
4.73847e-05
7.45427e-05
4.54487e-05
7.45288e-05
4.54479e-05
2.5689e-05
2.56889e-05
7.45517e-05
4.54448e-05
7.45376e-05
4.5444e-05
0.000231899
0.000231899
0.000231898
0.000231894
0.000231882
0.000231894
0.000231886
0.000166451
8.85064e-05
0.000230845
0.000227423
0.00016643
8.85228e-05
0.000230844
2.56875e-05
2.56867e-05
0.000166439
0.000230844
8.8506e-05
0.000227422
0.000166417
0.000230843
8.85314e-05
4.73992e-05
4.73898e-05
0.000220721
4.74073e-05
4.73978e-05
7.44443e-05
4.54553e-05
7.44861e-05
4.54625e-05
2.56969e-05
2.56971e-05
7.44895e-05
4.54456e-05
7.45253e-05
4.54532e-05
0.000231871
0.000231884
0.000231872
0.000231878
0.000231884
0.000231878
0.000231883
0.000166304
8.84317e-05
0.000230813
0.000227381
0.000166364
8.84105e-05
0.000230813
2.56878e-05
2.56928e-05
0.000166295
0.000230816
8.84864e-05
0.000227383
0.000166356
0.000230813
8.84562e-05
4.73719e-05
4.73623e-05
0.000220642
4.73375e-05
4.73277e-05
7.44273e-05
4.54635e-05
7.44141e-05
4.54627e-05
2.56973e-05
2.5697e-05
7.44368e-05
4.546e-05
7.44261e-05
4.5459e-05
0.000231888
0.000231884
0.000231887
0.000231889
0.000231889
0.000231888
0.000231888
0.000166287
8.83787e-05
0.000230826
0.000227389
0.000166259
8.84026e-05
0.000230827
2.56953e-05
2.56948e-05
0.000166274
0.000230825
8.83881e-05
0.000227387
0.000166247
0.000230826
8.84074e-05
4.73222e-05
4.73126e-05
0.000220659
4.73276e-05
4.73179e-05
7.44274e-05
4.54635e-05
7.44143e-05
4.54627e-05
2.56973e-05
2.5697e-05
7.44372e-05
4.54597e-05
7.44254e-05
4.54589e-05
0.000231888
0.000231889
0.000231888
0.000231888
0.000231889
0.000231888
0.000231888
0.000166286
8.83789e-05
0.000230827
0.00022739
0.00016626
8.84027e-05
0.000230827
2.56951e-05
2.56947e-05
0.000166274
0.000230827
8.83843e-05
0.000227388
0.000166248
0.000230827
8.84068e-05
4.73228e-05
4.73133e-05
0.000220654
4.73279e-05
4.73182e-05
7.44274e-05
4.54635e-05
7.44143e-05
4.54627e-05
2.56973e-05
2.5697e-05
7.44372e-05
4.54597e-05
7.44255e-05
4.54589e-05
0.000231889
0.000231888
0.000231888
0.000231889
0.000231889
0.000231888
0.000231888
0.000166287
8.83789e-05
0.000230827
0.00022739
0.00016626
8.84027e-05
0.000230828
2.56951e-05
2.56947e-05
0.000166275
0.000230827
8.83842e-05
0.000227388
0.000166248
0.000230827
8.84068e-05
4.73229e-05
4.73133e-05
0.000220654
4.73279e-05
4.73182e-05
7.44274e-05
4.54635e-05
7.44143e-05
4.54627e-05
2.56973e-05
2.5697e-05
7.44373e-05
4.54597e-05
7.44255e-05
4.54589e-05
0.000231889
0.000231888
0.000231888
0.000231889
0.000231889
0.000231888
0.000231888
0.000166287
8.83789e-05
0.000230827
0.00022739
0.00016626
8.84027e-05
0.000230827
2.56951e-05
2.56947e-05
0.000166275
0.000230827
8.83843e-05
0.000227388
0.000166248
0.000230827
8.84068e-05
4.73228e-05
4.73133e-05
0.000220654
4.73279e-05
4.73182e-05
7.44274e-05
4.54635e-05
7.44143e-05
4.54627e-05
2.56973e-05
2.5697e-05
7.44373e-05
4.54597e-05
7.44255e-05
4.54589e-05
0.000231889
0.000231888
0.000231888
0.000231889
0.000231889
0.000231888
0.000231888
0.000166287
8.83789e-05
0.000230827
0.00022739
0.00016626
8.84027e-05
0.000230828
2.56951e-05
2.56947e-05
0.000166278
0.000230827
8.83843e-05
0.000227388
0.00016625
0.000230827
8.84068e-05
4.73228e-05
4.73133e-05
0.000220654
4.73279e-05
4.73182e-05
7.44274e-05
4.54635e-05
7.44143e-05
4.54627e-05
2.56973e-05
2.5697e-05
7.44372e-05
4.54597e-05
7.44255e-05
4.54589e-05
0.000231889
0.000231888
0.000231888
0.000231889
0.000231889
0.000231888
0.000231888
0.000166287
8.83789e-05
0.000230827
0.00022739
0.00016626
8.84027e-05
0.000230827
2.56951e-05
2.56947e-05
0.000166281
0.000230827
8.83843e-05
0.000227388
0.000166253
0.000230827
8.84069e-05
4.73228e-05
4.73133e-05
0.000220654
4.73278e-05
4.73183e-05
7.44275e-05
4.54635e-05
7.44145e-05
4.54631e-05
2.56973e-05
2.56971e-05
7.44373e-05
4.54598e-05
7.44258e-05
4.54594e-05
0.000231889
0.000231888
0.000231888
0.000231889
0.000231889
0.000231888
0.000231888
0.000166287
8.83798e-05
0.000230827
0.00022739
0.00016626
8.8403e-05
0.000230828
2.56951e-05
2.56949e-05
0.000166282
0.000230827
8.83851e-05
0.000227388
0.000166254
0.000230827
8.84071e-05
4.73231e-05
4.73136e-05
0.000220654
4.73284e-05
4.73188e-05
7.44069e-05
4.54618e-05
7.44009e-05
4.54641e-05
2.5696e-05
2.56973e-05
7.44169e-05
4.54584e-05
7.44127e-05
4.54608e-05
0.000231889
0.000231888
0.000231888
0.000231889
0.00023189
0.00023189
0.00023189
0.000166288
8.84059e-05
0.000230828
0.000227392
0.000166261
8.83396e-05
0.000230828
2.56941e-05
2.56954e-05
0.000166282
0.000230827
8.8408e-05
0.00022739
0.000166255
0.000230828
8.83393e-05
4.73259e-05
4.73165e-05
0.000220655
4.7266e-05
4.7257e-05
7.44619e-05
4.54525e-05
7.43385e-05
4.5483e-05
2.56836e-05
2.56969e-05
7.44651e-05
4.5449e-05
7.43476e-05
4.548e-05
0.000231889
0.000231889
0.000231889
0.000231909
0.00023191
0.000231909
0.00023191
0.00016647
8.83344e-05
0.000230835
0.000227455
0.000166271
8.84134e-05
0.000230831
2.56816e-05
2.56951e-05
0.000166465
0.000230835
8.83307e-05
0.000227454
0.000166264
0.00023083
8.84134e-05
4.71911e-05
4.71825e-05
0.000220747
4.70083e-05
4.70025e-05
9.41058e-05
4.86386e-05
7.52578e-05
6.62785e-05
2.78006e-05
2.38053e-05
9.41047e-05
4.86369e-05
7.52561e-05
6.62731e-05
0.000232318
0.000232255
0.000232255
0.000231752
0.000232316
0.000232231
0.000232231
0.00017289
9.21461e-05
0.000231075
0.000229392
0.000168614
9.58206e-05
0.000231544
2.77992e-05
2.38051e-05
0.000172885
0.000231074
9.21481e-05
0.000229391
0.000168611
0.000231544
9.58221e-05
4.84759e-05
4.84641e-05
0.000223474
5.60081e-05
5.6007e-05
4.54478e-05
8.85093e-05
2.56909e-05
4.73848e-05
4.73827e-05
2.56913e-05
8.851e-05
4.54468e-05
2.56928e-05
2.56911e-05
2.56901e-05
4.73862e-05
0.000220748
4.73958e-05
4.73801e-05
2.56903e-05
2.5691e-05
2.56889e-05
2.569e-05
0.000220687
4.74033e-05
4.73875e-05
4.73965e-05
4.73796e-05
7.45357e-05
4.54479e-05
7.45102e-05
4.54473e-05
0.000166452
8.84661e-05
0.000230845
0.000227422
0.000166393
8.85196e-05
0.000230845
0.000166454
8.84962e-05
0.000230846
0.000227421
0.000166394
8.85225e-05
0.000230846
7.45288e-05
4.54481e-05
4.54484e-05
7.45408e-05
7.45292e-05
4.5447e-05
4.54474e-05
7.45411e-05
0.000166435
0.000227422
8.8528e-05
0.000230845
8.8506e-05
0.000230845
0.000166456
0.000166436
0.000227422
8.85285e-05
0.000230845
8.85075e-05
0.000230846
0.000166458
4.73844e-05
4.73823e-05
0.00022073
4.73919e-05
4.73908e-05
2.56912e-05
2.569e-05
2.56889e-05
2.56896e-05
0.000220671
4.73994e-05
4.73971e-05
4.73927e-05
4.73896e-05
2.56894e-05
2.569e-05
0.000166438
0.000227424
8.85005e-05
0.000230845
7.45418e-05
4.54425e-05
0.000166437
0.000227418
0.000230844
8.84923e-05
7.45359e-05
4.54442e-05
4.54446e-05
7.45475e-05
0.000166424
0.000227424
8.85138e-05
0.000230845
8.84884e-05
0.000230845
0.000166461
7.45358e-05
4.54422e-05
4.54427e-05
7.45473e-05
0.000166423
0.000227418
0.000230844
8.85048e-05
0.000230844
8.84782e-05
0.000166457
7.45349e-05
4.54469e-05
7.45094e-05
4.54463e-05
0.000166453
0.000230845
8.84621e-05
0.000227421
0.000166394
0.000230845
8.85164e-05
7.45344e-05
4.54461e-05
7.45088e-05
4.54453e-05
0.000166437
0.000227425
8.85292e-05
0.000230846
8.85078e-05
0.000230846
0.000166456
7.45283e-05
4.5446e-05
4.54464e-05
7.45402e-05
0.000166436
0.000227421
0.000230845
8.85244e-05
0.000230845
8.85023e-05
0.000166456
7.45278e-05
4.54449e-05
4.54452e-05
7.45396e-05
0.000220731
4.73714e-05
4.7393e-05
2.56908e-05
2.56874e-05
2.56886e-05
0.000220671
4.73779e-05
4.74005e-05
4.737e-05
4.73926e-05
2.56895e-05
2.56906e-05
0.00016644
0.000230844
8.84547e-05
0.000227423
0.000166381
0.000230844
8.85094e-05
7.45224e-05
7.44946e-05
4.5445e-05
7.45218e-05
4.54455e-05
7.44938e-05
4.54446e-05
0.000166424
0.000227425
0.000230845
8.85266e-05
0.000230845
8.85003e-05
0.000166443
0.000166423
0.000227423
0.000230844
8.85176e-05
0.000230844
8.84951e-05
0.000166443
7.45142e-05
4.54446e-05
4.54451e-05
7.45275e-05
7.45136e-05
4.54443e-05
4.54446e-05
7.45268e-05
2.56918e-05
2.56901e-05
2.5691e-05
2.56893e-05
0.000220669
4.74021e-05
4.73925e-05
4.7395e-05
4.73855e-05
2.56892e-05
2.56899e-05
2.56884e-05
2.56891e-05
2.56903e-05
2.56899e-05
2.56889e-05
2.56883e-05
4.74034e-05
4.73879e-05
0.000220731
4.74093e-05
4.73954e-05
2.56917e-05
2.56899e-05
2.56883e-05
2.56883e-05
0.00022067
4.73938e-05
4.73947e-05
4.7407e-05
4.73958e-05
7.4543e-05
4.54471e-05
7.45339e-05
4.54475e-05
0.000166451
8.85125e-05
0.000230845
0.000227421
0.000166432
8.85305e-05
0.000230844
0.000166453
8.85125e-05
0.000230845
0.000227419
0.000166437
8.85231e-05
0.000230844
7.45324e-05
4.54504e-05
4.5448e-05
7.45158e-05
7.45329e-05
4.54568e-05
4.54479e-05
7.45173e-05
0.000166424
0.000227418
8.8501e-05
0.000230832
8.85114e-05
0.000230841
0.00016642
0.000166426
0.000227412
8.8472e-05
0.000230829
8.84978e-05
0.000230841
0.000166421
4.73995e-05
4.73951e-05
0.000220718
4.73992e-05
4.73985e-05
2.56894e-05
2.56895e-05
2.56952e-05
2.56894e-05
0.000220654
4.7359e-05
4.73615e-05
4.73922e-05
4.73876e-05
2.56956e-05
2.56901e-05
0.000166458
8.8499e-05
0.000230845
0.000227426
0.000166441
8.85194e-05
0.000230844
7.45512e-05
4.54423e-05
7.45423e-05
4.5442e-05
0.000166458
0.000230844
8.84885e-05
0.000227417
0.000166438
0.000230844
8.85099e-05
7.45461e-05
4.54444e-05
4.5444e-05
7.45455e-05
0.000166433
0.000227425
8.85115e-05
0.000230841
8.85037e-05
0.000230844
0.000166448
7.45454e-05
4.54423e-05
4.54421e-05
7.45449e-05
0.000166434
0.000227417
0.00023084
8.8502e-05
0.000230843
8.84923e-05
0.000166449
7.45419e-05
4.54461e-05
7.4533e-05
4.54466e-05
0.00016645
0.000230844
8.85086e-05
0.000227418
0.000166431
0.000230843
8.85264e-05
7.45414e-05
4.54449e-05
7.45323e-05
4.5445e-05
0.000166425
0.000227417
8.84709e-05
0.00023083
8.84962e-05
0.000230841
0.000166421
7.45318e-05
4.54557e-05
4.54473e-05
7.45165e-05
0.000166424
0.000227415
0.000230832
8.8497e-05
0.000230841
8.85068e-05
0.00016642
7.45312e-05
4.5447e-05
4.54451e-05
7.45158e-05
4.73773e-05
4.74007e-05
0.00022072
4.73845e-05
4.74077e-05
2.56895e-05
2.56889e-05
2.56869e-05
2.56867e-05
0.000220662
4.73845e-05
4.74055e-05
4.73827e-05
4.74074e-05
2.5689e-05
2.56889e-05
0.000166439
0.000230844
8.85016e-05
0.00022742
0.000166419
0.000230843
8.85196e-05
7.45295e-05
4.54446e-05
7.45187e-05
4.54444e-05
7.45287e-05
4.54443e-05
7.45178e-05
4.54444e-05
0.000166413
0.00022742
0.000230833
8.85193e-05
0.000230841
8.85145e-05
0.00016641
0.000166413
0.000227417
0.000230832
8.84902e-05
0.00023084
8.84997e-05
0.000166409
7.45179e-05
4.54445e-05
4.54444e-05
7.45052e-05
7.4517e-05
4.54464e-05
4.54445e-05
7.45046e-05
2.56892e-05
2.56888e-05
2.56884e-05
2.5688e-05
0.000220661
4.73907e-05
4.73811e-05
4.74045e-05
4.73951e-05
2.56907e-05
2.56888e-05
2.56899e-05
2.5688e-05
2.56946e-05
2.56979e-05
2.56888e-05
2.56945e-05
4.73765e-05
4.73866e-05
0.000220648
4.73386e-05
4.73539e-05
2.5698e-05
2.56981e-05
2.56966e-05
2.56961e-05
0.000220567
4.73288e-05
4.73179e-05
4.73313e-05
4.73406e-05
7.44444e-05
4.54611e-05
7.44911e-05
4.54627e-05
0.000166302
8.84674e-05
0.000230814
0.000227378
0.000166368
8.84301e-05
0.000230813
0.000166303
8.84363e-05
0.000230812
0.000227377
0.000166368
8.84115e-05
0.000230812
7.44277e-05
4.54629e-05
4.54632e-05
7.44276e-05
7.44279e-05
4.54625e-05
4.54626e-05
7.44283e-05
0.00016627
0.000227376
8.84111e-05
0.000230822
8.8404e-05
0.000230816
0.000166286
0.000166271
0.000227379
8.84042e-05
0.000230822
8.83906e-05
0.000230816
0.000166287
4.73418e-05
4.73427e-05
0.000220643
4.73189e-05
4.73168e-05
2.56974e-05
2.56978e-05
2.5697e-05
2.56971e-05
0.000220588
4.73186e-05
4.73147e-05
4.73161e-05
4.73117e-05
2.56976e-05
2.56978e-05
0.00016636
8.84852e-05
0.000230832
0.000227385
0.000166416
8.84552e-05
0.000230814
7.44875e-05
4.54429e-05
7.45293e-05
4.54512e-05
0.000166359
0.000230832
8.84745e-05
0.000227383
0.000166415
0.000230814
8.84458e-05
7.44648e-05
4.54594e-05
4.54578e-05
7.44392e-05
0.000166304
0.000227377
8.84028e-05
0.000230816
8.84205e-05
0.000230812
0.000166289
7.4462e-05
4.54578e-05
4.54561e-05
7.44363e-05
0.000166301
0.000227374
0.000230816
8.83915e-05
0.000230811
8.84093e-05
0.000166287
7.44435e-05
4.54603e-05
7.44904e-05
4.54618e-05
0.000166303
0.000230814
8.84631e-05
0.000227377
0.000166368
0.000230813
8.84262e-05
7.44431e-05
4.54513e-05
7.44897e-05
4.54594e-05
0.000166272
0.000227383
8.84026e-05
0.000230822
8.83881e-05
0.000230817
0.000166285
7.44271e-05
4.54615e-05
4.54618e-05
7.44274e-05
0.000166271
0.000227376
0.000230822
8.8407e-05
0.000230816
8.83996e-05
0.000166285
7.44266e-05
4.54601e-05
4.54605e-05
7.44269e-05
4.7373e-05
4.7398e-05
0.000220666
4.73475e-05
4.73656e-05
2.56895e-05
2.56949e-05
2.5695e-05
2.56947e-05
0.000220575
4.73045e-05
4.73278e-05
4.7329e-05
4.73494e-05
2.56971e-05
2.56966e-05
0.000166293
0.000230814
8.84561e-05
0.000227379
0.000166359
0.000230813
8.84195e-05
7.4432e-05
4.54449e-05
7.44759e-05
4.54537e-05
7.44318e-05
4.54507e-05
7.44755e-05
4.54588e-05
0.000166262
0.000227378
0.000230821
8.84135e-05
0.000230816
8.84235e-05
0.000166273
0.00016626
0.000227379
0.000230821
8.84e-05
0.000230816
8.83926e-05
0.000166273
7.44143e-05
4.54599e-05
4.54583e-05
7.44132e-05
7.44139e-05
4.54594e-05
4.54598e-05
7.44123e-05
2.56936e-05
2.56968e-05
2.56928e-05
2.5696e-05
0.000220578
4.7327e-05
4.73173e-05
4.73296e-05
4.732e-05
2.56969e-05
2.56971e-05
2.56961e-05
2.56963e-05
2.5698e-05
2.56979e-05
2.56966e-05
2.56964e-05
4.73271e-05
4.73155e-05
0.000220661
4.73292e-05
4.73179e-05
2.56979e-05
2.56979e-05
2.56964e-05
2.56964e-05
0.000220604
4.73291e-05
4.73181e-05
4.73274e-05
4.73161e-05
7.4428e-05
4.54625e-05
7.44198e-05
4.54625e-05
0.000166287
8.83932e-05
0.000230826
0.000227385
0.000166265
8.84091e-05
0.000230827
0.000166288
8.83867e-05
0.000230826
0.000227385
0.000166266
8.84039e-05
0.000230827
7.44193e-05
4.54629e-05
4.54628e-05
7.44276e-05
7.44199e-05
4.54624e-05
4.54625e-05
7.44282e-05
0.000166267
0.000227385
8.8409e-05
0.000230827
8.83925e-05
0.000230827
0.000166288
0.000166268
0.000227385
8.84038e-05
0.000230827
8.83868e-05
0.000230827
0.000166289
4.73166e-05
4.73109e-05
0.00022066
4.73191e-05
4.73155e-05
2.56977e-05
2.56976e-05
2.5697e-05
2.5697e-05
0.000220601
4.73191e-05
4.73163e-05
4.73172e-05
4.73118e-05
2.56976e-05
2.56977e-05
0.000166288
8.83829e-05
0.000230822
0.000227387
0.000166267
8.83968e-05
0.000230826
7.44341e-05
4.54578e-05
7.44281e-05
4.54575e-05
0.000166286
0.000230822
8.83697e-05
0.000227381
0.000166266
0.000230825
8.83851e-05
7.44304e-05
4.5459e-05
4.54591e-05
7.44371e-05
0.000166268
0.000227387
8.83964e-05
0.000230827
8.838e-05
0.000230827
0.000166292
7.44275e-05
4.54573e-05
4.54575e-05
7.44345e-05
0.000166266
0.000227382
0.000230826
8.83847e-05
0.000230826
8.83666e-05
0.000166289
7.44269e-05
4.54616e-05
7.44189e-05
4.54614e-05
0.000166287
0.000230826
8.83891e-05
0.000227385
0.000166265
0.000230827
8.84055e-05
7.44266e-05
4.54601e-05
7.44184e-05
4.54599e-05
0.000166267
0.000227389
8.84026e-05
0.000230827
8.83845e-05
0.000230827
0.000166286
7.44188e-05
4.54614e-05
4.54615e-05
7.44272e-05
0.000166267
0.000227385
0.000230827
8.84054e-05
0.000230827
8.83884e-05
0.000166288
7.44184e-05
4.54599e-05
4.54599e-05
7.44267e-05
4.72996e-05
4.73252e-05
0.000220658
4.73036e-05
4.73273e-05
2.56971e-05
2.5697e-05
2.56948e-05
2.56949e-05
0.000220601
4.73043e-05
4.73275e-05
4.73002e-05
4.73254e-05
2.5697e-05
2.5697e-05
0.000166273
0.000230826
8.83819e-05
0.000227387
0.000166252
0.000230827
8.83985e-05
7.44133e-05
4.546e-05
7.44032e-05
4.54598e-05
7.44127e-05
4.54595e-05
7.44022e-05
4.54593e-05
0.000166254
0.000227388
0.000230827
8.84067e-05
0.000230827
8.83902e-05
0.000166274
0.000166253
0.000227387
0.000230827
8.83983e-05
0.000230827
8.83811e-05
0.000166275
7.44037e-05
4.54597e-05
4.54598e-05
7.44137e-05
7.44029e-05
4.54592e-05
4.54593e-05
7.44129e-05
2.56969e-05
2.56968e-05
2.56961e-05
2.5696e-05
0.000220599
4.73277e-05
4.7318e-05
4.73256e-05
4.73161e-05
2.56968e-05
2.56968e-05
2.5696e-05
2.5696e-05
2.56979e-05
2.56979e-05
2.56964e-05
2.56964e-05
4.73273e-05
4.73163e-05
0.000220655
4.73291e-05
4.73184e-05
2.56979e-05
2.56979e-05
2.56964e-05
2.56964e-05
0.000220598
4.73291e-05
4.73183e-05
4.73273e-05
4.73165e-05
7.4428e-05
4.54625e-05
7.44199e-05
4.54624e-05
0.000166286
8.83921e-05
0.000230827
0.000227385
0.000166267
8.8409e-05
0.000230827
0.000166287
8.83866e-05
0.000230827
0.000227385
0.000166267
8.84039e-05
0.000230827
7.44193e-05
4.54629e-05
4.54627e-05
7.44276e-05
7.44198e-05
4.54624e-05
4.54625e-05
7.44281e-05
0.000166265
0.000227386
8.8409e-05
0.000230827
8.83924e-05
0.000230827
0.000166288
0.000166266
0.000227386
8.84038e-05
0.000230827
8.83868e-05
0.000230827
0.000166289
4.7317e-05
4.73122e-05
0.000220659
4.73192e-05
4.73158e-05
2.56977e-05
2.56976e-05
2.5697e-05
2.5697e-05
0.000220601
4.73191e-05
4.73158e-05
4.73173e-05
4.73116e-05
2.56976e-05
2.56977e-05
0.00016629
8.83796e-05
0.000230827
0.000227388
0.000166271
8.83964e-05
0.000230827
7.44345e-05
4.54574e-05
7.44278e-05
4.54573e-05
0.000166287
0.000230827
8.83664e-05
0.000227382
0.000166268
0.000230826
8.83847e-05
7.44307e-05
4.5459e-05
4.5459e-05
7.44373e-05
0.000166268
0.000227388
8.83965e-05
0.000230827
8.83799e-05
0.000230827
0.00016629
7.44279e-05
4.54573e-05
4.54574e-05
7.44346e-05
0.000166266
0.000227383
0.000230826
8.83847e-05
0.000230826
8.83665e-05
0.000166288
7.44268e-05
4.54615e-05
7.44189e-05
4.54614e-05
0.000166286
0.000230827
8.83884e-05
0.000227385
0.000166267
0.000230827
8.84056e-05
7.44265e-05
4.54599e-05
7.44184e-05
4.54599e-05
0.000166266
0.00022739
8.84025e-05
0.000230827
8.83845e-05
0.000230827
0.000166285
7.44186e-05
4.54614e-05
4.54615e-05
7.4427e-05
0.000166266
0.000227386
0.000230827
8.84054e-05
0.000230827
8.83884e-05
0.000166287
7.44182e-05
4.54599e-05
4.54599e-05
7.44266e-05
4.73008e-05
4.73256e-05
0.000220652
4.73042e-05
4.73276e-05
2.5697e-05
2.5697e-05
2.56948e-05
2.56948e-05
0.000220595
4.73043e-05
4.73275e-05
4.73005e-05
4.73256e-05
2.5697e-05
2.5697e-05
0.000166274
0.000230826
8.83811e-05
0.000227387
0.000166254
0.000230826
8.83985e-05
7.44133e-05
4.54597e-05
7.44038e-05
4.54596e-05
7.44127e-05
4.54593e-05
7.4403e-05
4.54592e-05
0.000166254
0.000227388
0.000230827
8.84066e-05
0.000230827
8.83899e-05
0.000166272
0.000166253
0.000227388
0.000230826
8.83983e-05
0.000230827
8.83812e-05
0.000166273
7.44035e-05
4.54596e-05
4.54597e-05
7.44134e-05
7.44029e-05
4.54592e-05
4.54592e-05
7.44128e-05
2.56968e-05
2.56968e-05
2.5696e-05
2.5696e-05
0.000220596
4.73278e-05
4.73181e-05
4.73258e-05
4.73163e-05
2.56968e-05
2.56968e-05
2.5696e-05
2.5696e-05
2.56979e-05
2.56979e-05
2.56964e-05
2.56964e-05
4.73273e-05
4.73165e-05
0.000220656
4.73292e-05
4.73184e-05
2.56979e-05
2.56979e-05
2.56964e-05
2.56964e-05
0.000220599
4.73291e-05
4.73182e-05
4.73274e-05
4.73164e-05
7.4428e-05
4.54625e-05
7.44199e-05
4.54624e-05
0.000166287
8.83921e-05
0.000230827
0.000227386
0.000166267
8.8409e-05
0.000230827
0.000166288
8.83866e-05
0.000230827
0.000227385
0.000166267
8.84039e-05
0.000230827
7.44193e-05
4.54629e-05
4.54627e-05
7.44276e-05
7.44198e-05
4.54624e-05
4.54625e-05
7.44281e-05
0.000166265
0.000227386
8.8409e-05
0.000230827
8.83925e-05
0.000230827
0.000166288
0.000166267
0.000227385
8.84038e-05
0.000230827
8.83868e-05
0.000230827
0.000166288
4.7317e-05
4.73119e-05
0.000220658
4.73192e-05
4.7316e-05
2.56977e-05
2.56976e-05
2.5697e-05
2.5697e-05
0.0002206
4.73191e-05
4.73157e-05
4.73173e-05
4.73118e-05
2.56976e-05
2.56977e-05
0.00016629
8.83796e-05
0.000230827
0.000227388
0.00016627
8.83964e-05
0.000230827
7.44345e-05
4.54574e-05
7.4428e-05
4.54573e-05
0.000166288
0.000230827
8.83664e-05
0.000227383
0.000166268
0.000230827
8.83847e-05
7.44307e-05
4.5459e-05
4.5459e-05
7.44372e-05
0.000166269
0.000227388
8.83964e-05
0.000230827
8.83799e-05
0.000230828
0.00016629
7.44279e-05
4.54573e-05
4.54574e-05
7.44346e-05
0.000166266
0.000227383
0.000230826
8.83847e-05
0.000230827
8.83665e-05
0.000166287
7.44268e-05
4.54615e-05
7.44187e-05
4.54614e-05
0.000166287
0.000230827
8.83884e-05
0.000227385
0.000166266
0.000230827
8.84056e-05
7.44265e-05
4.54599e-05
7.44183e-05
4.54599e-05
0.000166266
0.00022739
8.84026e-05
0.000230827
8.83845e-05
0.000230828
0.000166285
7.44186e-05
4.54614e-05
4.54615e-05
7.4427e-05
0.000166266
0.000227386
0.000230827
8.84054e-05
0.000230827
8.83884e-05
0.000166286
7.44182e-05
4.54599e-05
4.54599e-05
7.44266e-05
4.73007e-05
4.73256e-05
0.000220653
4.73042e-05
4.73276e-05
2.5697e-05
2.5697e-05
2.56948e-05
2.56948e-05
0.000220596
4.73043e-05
4.73275e-05
4.73005e-05
4.73256e-05
2.5697e-05
2.5697e-05
0.000166275
0.000230827
8.83811e-05
0.000227387
0.000166253
0.000230827
8.83985e-05
7.44132e-05
4.54597e-05
7.44036e-05
4.54596e-05
7.44127e-05
4.54593e-05
7.4403e-05
4.54592e-05
0.000166254
0.000227388
0.000230827
8.84067e-05
0.000230827
8.83899e-05
0.000166272
0.000166254
0.000227388
0.000230826
8.83983e-05
0.000230827
8.83812e-05
0.000166273
7.44034e-05
4.54596e-05
4.54597e-05
7.4413e-05
7.44029e-05
4.54592e-05
4.54593e-05
7.44128e-05
2.56968e-05
2.56968e-05
2.5696e-05
2.5696e-05
0.000220595
4.73278e-05
4.73181e-05
4.73258e-05
4.73163e-05
2.56968e-05
2.56968e-05
2.5696e-05
2.5696e-05
2.56979e-05
2.56979e-05
2.56964e-05
2.56964e-05
4.73273e-05
4.73163e-05
0.000220656
4.73293e-05
4.73183e-05
2.56979e-05
2.56979e-05
2.56964e-05
2.56964e-05
0.000220599
4.73293e-05
4.73183e-05
4.73275e-05
4.73164e-05
7.4428e-05
4.54625e-05
7.44199e-05
4.54624e-05
0.000166287
8.83921e-05
0.000230827
0.000227386
0.000166267
8.8409e-05
0.000230827
0.000166288
8.83866e-05
0.000230827
0.000227385
0.000166267
8.84039e-05
0.000230827
7.44193e-05
4.54629e-05
4.54627e-05
7.44276e-05
7.44198e-05
4.54624e-05
4.54625e-05
7.44281e-05
0.000166266
0.000227386
8.84091e-05
0.000230827
8.83925e-05
0.000230827
0.000166288
0.000166267
0.000227385
8.84038e-05
0.000230827
8.83868e-05
0.000230827
0.000166288
4.7317e-05
4.73119e-05
0.000220658
4.73192e-05
4.7316e-05
2.56977e-05
2.56976e-05
2.5697e-05
2.5697e-05
0.0002206
4.73191e-05
4.73158e-05
4.73173e-05
4.73118e-05
2.56976e-05
2.56977e-05
0.00016629
8.83796e-05
0.000230827
0.000227388
0.00016627
8.83963e-05
0.000230827
7.44345e-05
4.54574e-05
7.4428e-05
4.54573e-05
0.000166288
0.000230827
8.83664e-05
0.000227383
0.000166267
0.000230827
8.83848e-05
7.44307e-05
4.5459e-05
4.5459e-05
7.44373e-05
0.000166269
0.000227388
8.83964e-05
0.000230827
8.83799e-05
0.000230828
0.00016629
7.44279e-05
4.54573e-05
4.54574e-05
7.44346e-05
0.000166267
0.000227383
0.000230826
8.83847e-05
0.000230826
8.83665e-05
0.000166287
7.44269e-05
4.54615e-05
7.44188e-05
4.54614e-05
0.000166287
0.000230827
8.83883e-05
0.000227385
0.000166266
0.000230827
8.84056e-05
7.44265e-05
4.54599e-05
7.44183e-05
4.54599e-05
0.000166267
0.00022739
8.84026e-05
0.000230827
8.83845e-05
0.000230827
0.000166285
7.44187e-05
4.54614e-05
4.54615e-05
7.44271e-05
0.000166267
0.000227386
0.000230827
8.84054e-05
0.000230827
8.83884e-05
0.000166286
7.44183e-05
4.54599e-05
4.54599e-05
7.44266e-05
4.73007e-05
4.73256e-05
0.000220653
4.73042e-05
4.73276e-05
2.5697e-05
2.5697e-05
2.56948e-05
2.56948e-05
0.000220597
4.73043e-05
4.73275e-05
4.73005e-05
4.73256e-05
2.5697e-05
2.5697e-05
0.000166275
0.000230827
8.83811e-05
0.000227387
0.000166253
0.000230827
8.83986e-05
7.44146e-05
4.54597e-05
7.4406e-05
4.54596e-05
7.44128e-05
4.54593e-05
7.4403e-05
4.54592e-05
0.000166255
0.000227388
0.000230827
8.84067e-05
0.000230827
8.83899e-05
0.000166274
0.000166254
0.000227388
0.000230826
8.83983e-05
0.000230827
8.83812e-05
0.000166273
7.44074e-05
4.54596e-05
4.54597e-05
7.44181e-05
7.4403e-05
4.54592e-05
4.54593e-05
7.44131e-05
2.56968e-05
2.56968e-05
2.5696e-05
2.5696e-05
0.000220595
4.73278e-05
4.73181e-05
4.73258e-05
4.73163e-05
2.56968e-05
2.56968e-05
2.5696e-05
2.5696e-05
2.56979e-05
2.56979e-05
2.56964e-05
2.56964e-05
4.73275e-05
4.73164e-05
0.000220656
4.73292e-05
4.73183e-05
2.56979e-05
2.56979e-05
2.56964e-05
2.56964e-05
0.000220599
4.73291e-05
4.73182e-05
4.73274e-05
4.73164e-05
7.4428e-05
4.54625e-05
7.44199e-05
4.54624e-05
0.000166287
8.83921e-05
0.000230827
0.000227386
0.000166267
8.8409e-05
0.000230827
0.000166288
8.83866e-05
0.000230827
0.000227385
0.000166267
8.84039e-05
0.000230827
7.44193e-05
4.54629e-05
4.54627e-05
7.44276e-05
7.44198e-05
4.54624e-05
4.54625e-05
7.44281e-05
0.000166266
0.000227386
8.8409e-05
0.000230827
8.83925e-05
0.000230827
0.000166288
0.000166267
0.000227385
8.84038e-05
0.000230827
8.83868e-05
0.000230827
0.000166288
4.7317e-05
4.73119e-05
0.000220658
4.73192e-05
4.7316e-05
2.56977e-05
2.56976e-05
2.5697e-05
2.5697e-05
0.0002206
4.73191e-05
4.73157e-05
4.73172e-05
4.73117e-05
2.56976e-05
2.56977e-05
0.00016629
8.83796e-05
0.000230827
0.000227388
0.00016627
8.83964e-05
0.000230827
7.44345e-05
4.54574e-05
7.4428e-05
4.54573e-05
0.000166288
0.000230826
8.83664e-05
0.000227383
0.000166267
0.000230826
8.83847e-05
7.44307e-05
4.5459e-05
4.5459e-05
7.44372e-05
0.000166269
0.000227388
8.83964e-05
0.000230827
8.83799e-05
0.000230828
0.00016629
7.44279e-05
4.54573e-05
4.54574e-05
7.44346e-05
0.000166267
0.000227383
0.000230826
8.83847e-05
0.000230826
8.83665e-05
0.000166287
7.44269e-05
4.54615e-05
7.44189e-05
4.54614e-05
0.000166287
0.000230827
8.83884e-05
0.000227385
0.000166266
0.000230827
8.84056e-05
7.44265e-05
4.54599e-05
7.44184e-05
4.54599e-05
0.000166267