/*--------------------------------*- C++ -*----------------------------------*\
| =========                 |                                                 |
| \\      /  F ield         | OpenFOAM: The Open Source CFD Toolbox           |
|  \\    /   O peration     | Version:  2206                                  |
|   \\  /    A nd           | Website:  www.openfoam.com                      |
|    \\/     M anipulation  |                                                 |
\*---------------------------------------------------------------------------*/
FoamFile
{
    version     2.0;
    format      ascii;
    arch        "LSB;label=32;scalar=64";
    class       volScalarField;
    location    "16.5";
    object      epsilon;
}
// * * * * * * * * * * * * * * * * * * * * * * * * * * * * * * * * * * * * * //

dimensions      [0 2 -3 0 0 0 0];

internalField   nonuniform List<scalar> 
28335
(
3.59691e-07
3.75883e-07
3.7589e-07
3.99451e-07
3.59692e-07
3.75885e-07
3.75892e-07
3.99457e-07
3.59686e-07
3.75883e-07
3.7589e-07
3.9946e-07
3.59579e-07
3.7579e-07
3.75797e-07
3.99415e-07
3.59498e-07
3.75721e-07
3.75727e-07
3.99318e-07
3.59496e-07
3.7572e-07
3.75727e-07
3.99335e-07
3.59496e-07
3.7572e-07
3.75726e-07
3.99326e-07
3.59496e-07
3.7572e-07
3.75726e-07
3.99328e-07
3.59496e-07
3.7572e-07
3.75726e-07
3.99329e-07
3.59496e-07
3.7572e-07
3.75726e-07
3.99329e-07
3.59496e-07
3.7572e-07
3.75726e-07
3.99329e-07
3.59496e-07
3.7572e-07
3.75726e-07
3.99329e-07
3.59496e-07
3.7572e-07
3.75726e-07
3.99329e-07
3.59496e-07
3.7572e-07
3.75726e-07
3.99329e-07
3.59496e-07
3.7572e-07
3.75726e-07
3.99329e-07
3.59496e-07
3.7572e-07
3.75726e-07
3.99329e-07
3.59496e-07
3.7572e-07
3.75726e-07
3.99329e-07
3.99255e-07
3.75896e-07
3.75899e-07
3.99249e-07
3.75888e-07
3.75906e-07
3.75883e-07
3.75898e-07
3.99262e-07
3.75889e-07
3.75889e-07
3.99259e-07
3.99451e-07
3.99262e-07
3.759e-07
3.75903e-07
3.75899e-07
3.75901e-07
3.99445e-07
3.99256e-07
3.75891e-07
3.75909e-07
3.7589e-07
3.75908e-07
3.75902e-07
3.75885e-07
3.759e-07
3.99457e-07
3.99268e-07
3.75893e-07
3.75892e-07
3.75891e-07
3.99265e-07
3.99457e-07
3.99263e-07
3.75901e-07
3.75903e-07
3.75897e-07
3.759e-07
3.99451e-07
3.99257e-07
3.75892e-07
3.7591e-07
3.75888e-07
3.75907e-07
3.75902e-07
3.75884e-07
3.75899e-07
3.99462e-07
3.99271e-07
3.75894e-07
3.75891e-07
3.7589e-07
3.99268e-07
3.99457e-07
3.99237e-07
3.75896e-07
3.75899e-07
3.75848e-07
3.75851e-07
3.99451e-07
3.99231e-07
3.75887e-07
3.75906e-07
3.7584e-07
3.75858e-07
3.75898e-07
3.75835e-07
3.7585e-07
3.99465e-07
3.99244e-07
3.75889e-07
3.75841e-07
3.75841e-07
3.99242e-07
3.99413e-07
3.99124e-07
3.75805e-07
3.75807e-07
3.75737e-07
3.75739e-07
3.99408e-07
3.99118e-07
3.75796e-07
3.75814e-07
3.75728e-07
3.75746e-07
3.75806e-07
3.75724e-07
3.75739e-07
3.9942e-07
3.99131e-07
3.75797e-07
3.7573e-07
3.7573e-07
3.99127e-07
3.99317e-07
3.99136e-07
3.75736e-07
3.75739e-07
3.75733e-07
3.75736e-07
3.99311e-07
3.9913e-07
3.75727e-07
3.75746e-07
3.75725e-07
3.75743e-07
3.75738e-07
3.75721e-07
3.75736e-07
3.99324e-07
3.99144e-07
3.75729e-07
3.75727e-07
3.75727e-07
3.99141e-07
3.99332e-07
3.9913e-07
3.75736e-07
3.75739e-07
3.75733e-07
3.75736e-07
3.99327e-07
3.99125e-07
3.75727e-07
3.75746e-07
3.75724e-07
3.75743e-07
3.75738e-07
3.7572e-07
3.75735e-07
3.99339e-07
3.99137e-07
3.75729e-07
3.75726e-07
3.75726e-07
3.99134e-07
3.99325e-07
3.99133e-07
3.75735e-07
3.75738e-07
3.75733e-07
3.75736e-07
3.9932e-07
3.99127e-07
3.75726e-07
3.75745e-07
3.75724e-07
3.75743e-07
3.75737e-07
3.7572e-07
3.75735e-07
3.99332e-07
3.9914e-07
3.75728e-07
3.75726e-07
3.75726e-07
3.99136e-07
3.99327e-07
3.99133e-07
3.75735e-07
3.75738e-07
3.75733e-07
3.75736e-07
3.99321e-07
3.99127e-07
3.75727e-07
3.75745e-07
3.75724e-07
3.75743e-07
3.75737e-07
3.7572e-07
3.75735e-07
3.99334e-07
3.99139e-07
3.75728e-07
3.75726e-07
3.75726e-07
3.99137e-07
3.99327e-07
3.99132e-07
3.75735e-07
3.75738e-07
3.75733e-07
3.75736e-07
3.99322e-07
3.99126e-07
3.75727e-07
3.75745e-07
3.75725e-07
3.75743e-07
3.75737e-07
3.7572e-07
3.75735e-07
3.99334e-07
3.99139e-07
3.75728e-07
3.75726e-07
3.75726e-07
3.99137e-07
3.99327e-07
3.99133e-07
3.75735e-07
3.75738e-07
3.75733e-07
3.75736e-07
3.99321e-07
3.99126e-07
3.75727e-07
3.75745e-07
3.75725e-07
3.75743e-07
3.75737e-07
3.7572e-07
3.75735e-07
3.99333e-07
3.99139e-07
3.75728e-07
3.75726e-07
3.75726e-07
3.99137e-07
3.99327e-07
3.99133e-07
3.75735e-07
3.75738e-07
3.75733e-07
3.75736e-07
3.99321e-07
3.99126e-07
3.75727e-07
3.75745e-07
3.75725e-07
3.75743e-07
3.75737e-07
3.7572e-07
3.75735e-07
3.99333e-07
3.99139e-07
3.75728e-07
3.75726e-07
3.75726e-07
3.99137e-07
3.99327e-07
3.99132e-07
3.75735e-07
3.75738e-07
3.75733e-07
3.75736e-07
3.99321e-07
3.99126e-07
3.75727e-07
3.75745e-07
3.75725e-07
3.75743e-07
3.75737e-07
3.7572e-07
3.75735e-07
3.99334e-07
3.99139e-07
3.75728e-07
3.75726e-07
3.75726e-07
3.99137e-07
3.99327e-07
3.99132e-07
3.75735e-07
3.75738e-07
3.75733e-07
3.75736e-07
3.99321e-07
3.99126e-07
3.75727e-07
3.75745e-07
3.75725e-07
3.75743e-07
3.75737e-07
3.7572e-07
3.75735e-07
3.99334e-07
3.99139e-07
3.75728e-07
3.75726e-07
3.75726e-07
3.99137e-07
3.99327e-07
3.99132e-07
3.75735e-07
3.75738e-07
3.75733e-07
3.75736e-07
3.99321e-07
3.99126e-07
3.75727e-07
3.75745e-07
3.75725e-07
3.75743e-07
3.75737e-07
3.7572e-07
3.75735e-07
3.99334e-07
3.99139e-07
3.75728e-07
3.75726e-07
3.75726e-07
3.99137e-07
3.99327e-07
3.99132e-07
3.75735e-07
3.75738e-07
3.75733e-07
3.75736e-07
3.99321e-07
3.99126e-07
3.75727e-07
3.75745e-07
3.75725e-07
3.75743e-07
3.75737e-07
3.7572e-07
3.75735e-07
3.99334e-07
3.99139e-07
3.75728e-07
3.75726e-07
3.75726e-07
3.99137e-07
3.99327e-07
3.99132e-07
3.75735e-07
3.75738e-07
3.75733e-07
3.75736e-07
3.99321e-07
3.99126e-07
3.75727e-07
3.75745e-07
3.75725e-07
3.75743e-07
3.75737e-07
3.7572e-07
3.75735e-07
3.99333e-07
3.99139e-07
3.75728e-07
3.75726e-07
3.75726e-07
3.99137e-07
3.99327e-07
3.75735e-07
3.75738e-07
3.99321e-07
3.75727e-07
3.75744e-07
3.75736e-07
3.99333e-07
3.75727e-07
1.58287e-06
8.16525e-06
2.48033e-05
1.58299e-06
8.16658e-06
3.59691e-07
3.59693e-07
3.59694e-07
3.59693e-07
5.85093e-07
3.75883e-07
1.27738e-06
3.64323e-07
2.48036e-05
5.851e-07
3.7589e-07
3.64324e-07
1.27734e-06
3.99249e-07
2.63562e-06
2.63617e-06
1.58293e-06
8.16538e-06
1.5834e-06
8.16488e-06
2.47999e-05
2.4798e-05
1.58279e-06
8.16672e-06
1.58322e-06
8.1662e-06
3.59695e-07
3.59696e-07
3.59696e-07
3.59694e-07
3.59693e-07
3.59695e-07
3.59693e-07
5.85114e-07
1.27801e-06
3.64321e-07
3.75887e-07
5.85228e-07
1.27748e-06
3.64325e-07
2.48007e-05
2.47983e-05
5.85126e-07
3.64322e-07
1.27796e-06
3.75893e-07
5.85242e-07
3.64326e-07
1.27746e-06
2.6361e-06
2.63665e-06
3.99263e-07
2.63574e-06
2.6363e-06
1.58287e-06
8.16504e-06
1.58331e-06
8.16462e-06
2.47973e-05
2.47967e-05
1.58272e-06
8.16638e-06
1.58312e-06
8.16594e-06
3.59693e-07
3.59694e-07
3.59693e-07
3.59688e-07
3.59688e-07
3.59689e-07
3.59688e-07
5.85118e-07
1.27805e-06
3.64322e-07
3.75887e-07
5.85238e-07
1.27749e-06
3.64322e-07
2.47979e-05
2.4797e-05
5.85123e-07
3.64324e-07
1.27799e-06
3.75894e-07
5.85259e-07
3.64323e-07
1.27745e-06
2.6362e-06
2.63675e-06
3.99268e-07
2.63581e-06
2.63638e-06
1.58306e-06
8.16511e-06
1.58329e-06
8.16544e-06
2.4798e-05
2.47996e-05
1.58291e-06
8.16645e-06
1.58309e-06
8.16674e-06
3.59686e-07
3.59688e-07
3.59687e-07
3.5963e-07
3.5963e-07
3.59632e-07
3.59631e-07
5.85143e-07
1.27807e-06
3.64317e-07
3.7588e-07
5.85242e-07
1.27765e-06
3.64313e-07
2.47987e-05
2.48001e-05
5.85142e-07
3.64318e-07
1.278e-06
3.75886e-07
5.85244e-07
3.64314e-07
1.2776e-06
2.63619e-06
2.63674e-06
3.99267e-07
2.63604e-06
2.6366e-06
1.58342e-06
8.16901e-06
1.58391e-06
8.16877e-06
2.48034e-05
2.48028e-05
1.58325e-06
8.17035e-06
1.5837e-06
8.17009e-06
3.5958e-07
3.59581e-07
3.5958e-07
3.59502e-07
3.59502e-07
3.59504e-07
3.59503e-07
5.85113e-07
1.27843e-06
3.64216e-07
3.75759e-07
5.85264e-07
1.27782e-06
3.64182e-07
2.4804e-05
2.48033e-05
5.85114e-07
3.64217e-07
1.27835e-06
3.75766e-07
5.85274e-07
3.64183e-07
1.27777e-06
2.63675e-06
2.63731e-06
3.99163e-07
2.63613e-06
2.6367e-06
1.58334e-06
8.16902e-06
1.58378e-06
8.16863e-06
2.48031e-05
2.48026e-05
1.58319e-06
8.17037e-06
1.58358e-06
8.16996e-06
3.59501e-07
3.59503e-07
3.59502e-07
3.59497e-07
3.59498e-07
3.595e-07
3.59499e-07
5.85095e-07
1.27833e-06
3.64139e-07
3.75722e-07
5.85216e-07
1.27776e-06
3.64141e-07
2.48037e-05
2.4803e-05
5.85098e-07
3.6414e-07
1.27826e-06
3.75729e-07
5.85222e-07
3.64142e-07
1.27772e-06
2.63644e-06
2.63699e-06
3.99131e-07
2.63601e-06
2.63657e-06
1.58334e-06
8.16898e-06
1.58377e-06
8.16861e-06
2.48031e-05
2.48026e-05
1.58319e-06
8.17021e-06
1.58357e-06
8.16979e-06
3.595e-07
3.59502e-07
3.59501e-07
3.59496e-07
3.59498e-07
3.59499e-07
3.59499e-07
5.85097e-07
1.27832e-06
3.64139e-07
3.75722e-07
5.85216e-07
1.27775e-06
3.64141e-07
2.48037e-05
2.4803e-05
5.85101e-07
3.6414e-07
1.27825e-06
3.75729e-07
5.85222e-07
3.64142e-07
1.27771e-06
2.63642e-06
2.63698e-06
3.99141e-07
2.63601e-06
2.63657e-06
1.58334e-06
8.16898e-06
1.58377e-06
8.16861e-06
2.48028e-05
2.48023e-05
1.58319e-06
8.17013e-06
1.58357e-06
8.16973e-06
3.595e-07
3.59502e-07
3.59501e-07
3.59497e-07
3.59498e-07
3.59499e-07
3.59499e-07
5.85096e-07
1.27832e-06
3.64139e-07
3.75722e-07
5.85215e-07
1.27775e-06
3.64141e-07
2.48037e-05
2.4803e-05
5.85098e-07
3.6414e-07
1.27825e-06
3.75729e-07
5.85221e-07
3.64142e-07
1.27771e-06
2.63642e-06
2.63698e-06
3.9914e-07
2.63601e-06
2.63657e-06
1.58334e-06
8.16898e-06
1.58377e-06
8.16861e-06
2.48028e-05
2.48023e-05
1.58319e-06
8.1701e-06
1.58357e-06
8.1697e-06
3.595e-07
3.59502e-07
3.59501e-07
3.59497e-07
3.59498e-07
3.59499e-07
3.59499e-07
5.85096e-07
1.27832e-06
3.64139e-07
3.75722e-07
5.85216e-07
1.27775e-06
3.64141e-07
2.48037e-05
2.4803e-05
5.85099e-07
3.64139e-07
1.27825e-06
3.75728e-07
5.85224e-07
3.64142e-07
1.27771e-06
2.63642e-06
2.63698e-06
3.99139e-07
2.63601e-06
2.63657e-06
1.58334e-06
8.16897e-06
1.58377e-06
8.16861e-06
2.48028e-05
2.48023e-05
1.58319e-06
8.17007e-06
1.58357e-06
8.16968e-06
3.595e-07
3.59502e-07
3.59501e-07
3.59497e-07
3.59498e-07
3.59499e-07
3.59499e-07
5.85096e-07
1.27832e-06
3.64139e-07
3.75722e-07
5.85216e-07
1.27775e-06
3.64141e-07
2.48037e-05
2.4803e-05
5.85099e-07
3.6414e-07
1.27825e-06
3.75728e-07
5.85225e-07
3.64142e-07
1.27771e-06
2.63642e-06
2.63698e-06
3.99138e-07
2.63601e-06
2.63657e-06
1.58334e-06
8.16897e-06
1.58377e-06
8.16861e-06
2.48028e-05
2.48023e-05
1.58319e-06
8.17006e-06
1.58357e-06
8.16968e-06
3.595e-07
3.59502e-07
3.59501e-07
3.59497e-07
3.59498e-07
3.59499e-07
3.59499e-07
5.85096e-07
1.27832e-06
3.64139e-07
3.75722e-07
5.85216e-07
1.27775e-06
3.64141e-07
2.48037e-05
2.4803e-05
5.851e-07
3.6414e-07
1.27825e-06
3.75728e-07
5.85225e-07
3.64142e-07
1.27771e-06
2.63642e-06
2.63698e-06
3.99138e-07
2.63601e-06
2.63657e-06
1.58334e-06
8.16897e-06
1.58377e-06
8.16861e-06
2.48028e-05
2.48023e-05
1.58319e-06
8.17006e-06
1.58357e-06
8.16968e-06
3.595e-07
3.59502e-07
3.59501e-07
3.59497e-07
3.59498e-07
3.59499e-07
3.59499e-07
5.85096e-07
1.27832e-06
3.64139e-07
3.75722e-07
5.85216e-07
1.27775e-06
3.64142e-07
2.48037e-05
2.4803e-05
5.85099e-07
3.6414e-07
1.27825e-06
3.75728e-07
5.85225e-07
3.64142e-07
1.27771e-06
2.63642e-06
2.63698e-06
3.99138e-07
2.63601e-06
2.63657e-06
1.58334e-06
8.16897e-06
1.58377e-06
8.16861e-06
2.48028e-05
2.48023e-05
1.58319e-06
8.17006e-06
1.58357e-06
8.16968e-06
3.595e-07
3.59502e-07
3.59501e-07
3.59497e-07
3.59498e-07
3.59499e-07
3.59499e-07
5.85096e-07
1.27832e-06
3.64139e-07
3.75722e-07
5.85216e-07
1.27775e-06
3.64141e-07
2.48037e-05
2.4803e-05
5.85106e-07
3.6414e-07
1.27825e-06
3.75728e-07
5.85227e-07
3.64142e-07
1.27771e-06
2.63642e-06
2.63698e-06
3.99138e-07
2.63601e-06
2.63657e-06
1.58334e-06
8.16897e-06
1.58377e-06
8.16861e-06
2.48028e-05
2.48023e-05
1.58319e-06
8.17006e-06
1.58357e-06
8.16968e-06
3.595e-07
3.59502e-07
3.59501e-07
3.59497e-07
3.59498e-07
3.595e-07
3.59499e-07
5.85096e-07
1.27832e-06
3.64139e-07
3.75722e-07
5.85216e-07
1.27775e-06
3.64141e-07
2.48037e-05
2.4803e-05
5.85117e-07
3.6414e-07
1.27825e-06
3.75728e-07
5.85238e-07
3.64142e-07
1.27771e-06
2.63642e-06
2.63698e-06
3.99138e-07
2.63601e-06
2.63657e-06
1.58334e-06
8.16897e-06
1.58377e-06
8.16861e-06
2.48028e-05
2.48023e-05
1.58319e-06
8.17006e-06
1.58357e-06
8.16968e-06
3.595e-07
3.59502e-07
3.59501e-07
3.59497e-07
3.59498e-07
3.59499e-07
3.59499e-07
5.85096e-07
1.27832e-06
3.64139e-07
3.75722e-07
5.85216e-07
1.27775e-06
3.64141e-07
2.48037e-05
2.4803e-05
5.85121e-07
3.6414e-07
1.27825e-06
3.75728e-07
5.85245e-07
3.64142e-07
1.27771e-06
2.63642e-06
2.63698e-06
3.99138e-07
2.63601e-06
2.63657e-06
1.58334e-06
8.16897e-06
1.58377e-06
8.16861e-06
2.48028e-05
2.48023e-05
1.58319e-06
8.17006e-06
1.58357e-06
8.16968e-06
3.595e-07
3.59502e-07
3.59501e-07
3.59497e-07
3.59498e-07
3.59499e-07
3.59499e-07
5.85096e-07
1.27832e-06
3.64138e-07
3.75722e-07
5.85216e-07
1.27775e-06
3.64141e-07
2.48037e-05
2.4803e-05
5.85121e-07
3.6414e-07
1.27825e-06
3.75728e-07
5.85246e-07
3.64142e-07
1.27771e-06
2.63642e-06
2.63698e-06
3.99138e-07
2.63601e-06
2.63657e-06
1.58334e-06
8.16897e-06
1.58377e-06
8.16861e-06
2.48028e-05
2.48023e-05
1.58319e-06
8.17006e-06
1.58357e-06
8.16968e-06
3.595e-07
3.59502e-07
3.59501e-07
3.59497e-07
3.59498e-07
3.59499e-07
3.59499e-07
5.85096e-07
1.27832e-06
3.64139e-07
3.75722e-07
5.85216e-07
1.27775e-06
3.64141e-07
2.48037e-05
2.4803e-05
5.85121e-07
3.6414e-07
1.27825e-06
3.75728e-07
5.85246e-07
3.64142e-07
1.27771e-06
2.63643e-06
2.63698e-06
3.99138e-07
2.63601e-06
2.63657e-06
1.58334e-06
8.16898e-06
1.58377e-06
8.16861e-06
2.48028e-05
2.48023e-05
1.58319e-06
8.17006e-06
1.58357e-06
8.16968e-06
3.595e-07
3.59501e-07
3.595e-07
5.85097e-07
1.27832e-06
3.64139e-07
3.75721e-07
5.85216e-07
1.27775e-06
3.64141e-07
2.48037e-05
2.4803e-05
5.8512e-07
3.6414e-07
1.27825e-06
3.75729e-07
5.85245e-07
3.64143e-07
1.27771e-06
2.63642e-06
2.63698e-06
3.99138e-07
2.6363e-06
2.63686e-06
2.48018e-05
2.48039e-05
3.99246e-07
2.63545e-06
2.63605e-06
2.47985e-05
2.48016e-05
2.48007e-05
2.48037e-05
3.99444e-07
2.63554e-06
2.63615e-06
2.63583e-06
2.63644e-06
1.58297e-06
8.16578e-06
5.85096e-07
3.75896e-07
1.27729e-06
3.64324e-07
5.85097e-07
3.75899e-07
1.27742e-06
3.64324e-07
1.58334e-06
8.16507e-06
8.16546e-06
1.58299e-06
1.58346e-06
8.16559e-06
8.16599e-06
1.583e-06
5.8522e-07
3.75896e-07
1.27737e-06
3.64322e-07
1.27782e-06
3.64322e-07
5.85115e-07
5.85223e-07
3.75899e-07
1.27748e-06
3.64323e-07
1.27795e-06
3.64323e-07
5.85112e-07
3.9924e-07
2.63597e-06
2.63533e-06
2.48e-05
2.48001e-05
2.48031e-05
3.99439e-07
2.63611e-06
2.63563e-06
2.63639e-06
2.63589e-06
2.47968e-05
2.48001e-05
5.85106e-07
3.75888e-07
1.27753e-06
3.64324e-07
1.58298e-06
8.16655e-06
5.85103e-07
3.75906e-07
3.64326e-07
1.27764e-06
1.58334e-06
8.16639e-06
8.16681e-06
1.58288e-06
5.85228e-07
3.75888e-07
1.2776e-06
3.64323e-07
1.27805e-06
3.64323e-07
5.85123e-07
1.58332e-06
8.16635e-06
8.16679e-06
1.58286e-06
5.85226e-07
3.75906e-07
3.64325e-07
1.2777e-06
3.64325e-07
1.2782e-06
5.85117e-07
1.58288e-06
8.16548e-06
5.85098e-07
3.75898e-07
3.64324e-07
1.27735e-06
1.58287e-06
8.16626e-06
5.85216e-07
3.75883e-07
1.27744e-06
3.64321e-07
1.27794e-06
3.64322e-07
5.85107e-07
1.58335e-06
8.16529e-06
8.16572e-06
1.58298e-06
5.85221e-07
3.75898e-07
3.64323e-07
1.27742e-06
3.64323e-07
1.27789e-06
5.85115e-07
1.58335e-06
8.16607e-06
8.16647e-06
1.58298e-06
3.99253e-07
2.63616e-06
2.63553e-06
2.48031e-05
2.48005e-05
2.48038e-05
3.99451e-07
2.6364e-06
2.63562e-06
2.63668e-06
2.63592e-06
2.47998e-05
2.48029e-05
5.85103e-07
3.75889e-07
3.64324e-07
1.27747e-06
1.58293e-06
8.1664e-06
1.58294e-06
8.16677e-06
5.8523e-07
3.75889e-07
3.64322e-07
1.27741e-06
3.64323e-07
1.27788e-06
5.85114e-07
5.85234e-07
3.75889e-07
3.64323e-07
1.27754e-06
3.64323e-07
1.27801e-06
5.8512e-07
1.5833e-06
8.16621e-06
8.16661e-06
1.58284e-06
1.5833e-06
8.16658e-06
8.16698e-06
1.58285e-06
2.48033e-05
2.48044e-05
3.99447e-07
2.63567e-06
2.63622e-06
2.636e-06
2.63655e-06
2.48001e-05
2.48032e-05
2.48012e-05
2.48042e-05
2.47984e-05
2.47964e-05
2.48006e-05
2.47985e-05
2.63593e-06
2.63654e-06
3.99261e-07
2.63564e-06
2.63624e-06
2.47954e-05
2.47967e-05
2.47975e-05
2.47988e-05
3.99456e-07
2.6357e-06
2.6363e-06
2.63601e-06
2.63662e-06
1.58291e-06
8.16575e-06
1.58336e-06
8.1654e-06
5.85131e-07
1.2779e-06
3.64325e-07
3.759e-07
5.85239e-07
1.27743e-06
3.64325e-07
5.85127e-07
1.27802e-06
3.64326e-07
3.75903e-07
5.85235e-07
1.27754e-06
3.64326e-07
1.58332e-06
8.16471e-06
8.16505e-06
1.5829e-06
1.5833e-06
8.16524e-06
8.16557e-06
1.58289e-06
5.85253e-07
3.75899e-07
1.27742e-06
3.64324e-07
1.27794e-06
3.64324e-07
5.85136e-07
5.85251e-07
3.75901e-07
1.27754e-06
3.64324e-07
1.27806e-06
3.64325e-07
5.85133e-07
2.63652e-06
2.63613e-06
3.99254e-07
2.63623e-06
2.63579e-06
2.4797e-05
2.47946e-05
2.47969e-05
2.47983e-05
3.99449e-07
2.63629e-06
2.63587e-06
2.63662e-06
2.63626e-06
2.47936e-05
2.47951e-05
5.85138e-07
1.27813e-06
3.64327e-07
3.75891e-07
5.85244e-07
1.27767e-06
3.64327e-07
1.58278e-06
8.16654e-06
1.58318e-06
8.16616e-06
5.85131e-07
3.64328e-07
1.27826e-06
3.75909e-07
5.85239e-07
3.64328e-07
1.27774e-06
1.58312e-06
8.16604e-06
8.16639e-06
1.58275e-06
5.85258e-07
3.7589e-07
1.27766e-06
3.64324e-07
1.27817e-06
3.64325e-07
5.85142e-07
1.58312e-06
8.16602e-06
8.16637e-06
1.58275e-06
5.85252e-07
3.75908e-07
3.64326e-07
1.27776e-06
3.64327e-07
1.2783e-06
5.85135e-07
1.58293e-06
8.16547e-06
1.58337e-06
8.16509e-06
5.85128e-07
3.64326e-07
1.27796e-06
3.75902e-07
5.85236e-07
3.64326e-07
1.27748e-06
1.58293e-06
8.16623e-06
1.58337e-06
8.16588e-06
5.85234e-07
3.75886e-07
1.2775e-06
3.64323e-07
1.27803e-06
3.64324e-07
5.85119e-07
1.58331e-06
8.16494e-06
8.1653e-06
1.5829e-06
5.85249e-07
3.759e-07
3.64324e-07
1.27748e-06
3.64325e-07
1.278e-06
5.85134e-07
1.58332e-06
8.16572e-06
8.16605e-06
1.58291e-06
2.63689e-06
2.63601e-06
3.99268e-07
2.63654e-06
2.63572e-06
2.47997e-05
2.47977e-05
2.47973e-05
2.47988e-05
3.99462e-07
2.63662e-06
2.63577e-06
2.63702e-06
2.63609e-06
2.47967e-05
2.4798e-05
5.85134e-07
3.64326e-07
1.27808e-06
3.75893e-07
5.85248e-07
3.64326e-07
1.2776e-06
1.58276e-06
8.16637e-06
1.58317e-06
8.16602e-06
1.58277e-06
8.16674e-06
1.58318e-06
8.16639e-06
5.85255e-07
3.75893e-07
3.64325e-07
1.27747e-06
3.64325e-07
1.27798e-06
5.85138e-07
5.85263e-07
3.75891e-07
3.64325e-07
1.2776e-06
3.64325e-07
1.27812e-06
5.85145e-07
1.5831e-06
8.16586e-06
8.16619e-06
1.58274e-06
1.58311e-06
8.16622e-06
8.16656e-06
1.58274e-06
2.48e-05
2.47979e-05
2.4801e-05
2.4799e-05
3.99458e-07
2.63579e-06
2.63636e-06
2.63613e-06
2.63668e-06
2.47969e-05
2.47982e-05
2.4798e-05
2.47993e-05
2.47959e-05
2.47952e-05
2.4798e-05
2.47973e-05
2.63605e-06
2.63666e-06
3.99266e-07
2.63573e-06
2.63633e-06
2.47956e-05
2.47957e-05
2.47977e-05
2.47978e-05
3.99461e-07
2.63567e-06
2.63628e-06
2.63608e-06
2.63668e-06
1.58287e-06
8.16542e-06
1.58328e-06
8.16515e-06
5.85126e-07
1.27793e-06
3.64324e-07
3.75901e-07
5.85253e-07
1.27741e-06
3.64322e-07
5.85124e-07
1.27805e-06
3.64323e-07
3.75903e-07
5.85251e-07
1.27753e-06
3.64321e-07
1.58327e-06
8.16465e-06
8.16482e-06
1.58286e-06
1.58327e-06
8.16517e-06
8.16535e-06
1.58286e-06
5.85244e-07
3.75898e-07
1.27741e-06
3.64318e-07
1.27792e-06
3.64319e-07
5.85122e-07
5.85242e-07
3.75901e-07
1.27753e-06
3.64318e-07
1.27804e-06
3.64318e-07
5.8512e-07
2.63666e-06
2.63631e-06
3.9926e-07
2.63632e-06
2.6359e-06
2.47943e-05
2.47933e-05
2.47971e-05
2.47972e-05
3.99455e-07
2.63626e-06
2.63585e-06
2.63668e-06
2.63634e-06
2.47938e-05
2.47941e-05
5.85129e-07
1.27816e-06
3.64323e-07
3.75892e-07
5.85258e-07
1.27765e-06
3.64322e-07
1.58273e-06
8.16623e-06
1.58309e-06
8.16594e-06
5.85127e-07
3.64325e-07
1.2783e-06
3.7591e-07
5.85252e-07
3.64324e-07
1.27775e-06
1.58307e-06
8.16597e-06
8.16615e-06
1.58271e-06
5.85244e-07
3.75889e-07
1.27765e-06
3.64319e-07
1.27815e-06
3.64319e-07
5.85123e-07
1.58308e-06
8.16596e-06
8.16617e-06
1.58271e-06
5.85244e-07
3.75908e-07
3.6432e-07
1.27775e-06
3.64321e-07
1.2783e-06
5.85124e-07
1.58289e-06
8.16516e-06
1.58329e-06
8.16486e-06
5.85127e-07
3.64323e-07
1.27798e-06
3.75902e-07
5.8525e-07
3.64321e-07
1.27746e-06
1.58289e-06
8.1659e-06
1.58329e-06
8.16562e-06
5.85236e-07
3.75885e-07
1.27749e-06
3.64318e-07
1.27803e-06
3.64319e-07
5.8512e-07
1.58329e-06
8.16488e-06
8.16509e-06
1.58287e-06
5.85243e-07
3.759e-07
3.64318e-07
1.27746e-06
3.64318e-07
1.27797e-06
5.85125e-07
1.58329e-06
8.16564e-06
8.16582e-06
1.58287e-06
2.63706e-06
2.63613e-06
3.99272e-07
2.63665e-06
2.6358e-06
2.47972e-05
2.47964e-05
2.47975e-05
2.47978e-05
3.99466e-07
2.6366e-06
2.63574e-06
2.63709e-06
2.63615e-06
2.47968e-05
2.4797e-05
5.85128e-07
3.64324e-07
1.27811e-06
3.75893e-07
5.85265e-07
3.64322e-07
1.27758e-06
1.58271e-06
8.16604e-06
1.58308e-06
8.16577e-06
1.58272e-06
8.1664e-06
1.58309e-06
8.16612e-06
5.85244e-07
3.75892e-07
3.64319e-07
1.27745e-06
3.6432e-07
1.27796e-06
5.85117e-07
5.85247e-07
3.75891e-07
3.64319e-07
1.27758e-06
3.64319e-07
1.2781e-06
5.8512e-07
1.58307e-06
8.16578e-06
8.16597e-06
1.58269e-06
1.58307e-06
8.16614e-06
8.16632e-06
1.58269e-06
2.47974e-05
2.47966e-05
2.47985e-05
2.47977e-05
3.99463e-07
2.63576e-06
2.63632e-06
2.63617e-06
2.63673e-06
2.47971e-05
2.47972e-05
2.47981e-05
2.47983e-05
2.47966e-05
2.47981e-05
2.47987e-05
2.48002e-05
2.63604e-06
2.63666e-06
3.99264e-07
2.63595e-06
2.63656e-06
2.48013e-05
2.47999e-05
2.48035e-05
2.4802e-05
3.99456e-07
2.63627e-06
2.63687e-06
2.63646e-06
2.63707e-06
1.58305e-06
8.16546e-06
1.58326e-06
8.16588e-06
5.85145e-07
1.27794e-06
3.64317e-07
3.75892e-07
5.85244e-07
1.27757e-06
3.64314e-07
5.85143e-07
1.27806e-06
3.64317e-07
3.75895e-07
5.85243e-07
1.27768e-06
3.64314e-07
1.5836e-06
8.16822e-06
8.16628e-06
1.58344e-06
1.5836e-06
8.16875e-06
8.16674e-06
1.58344e-06
5.85277e-07
3.75881e-07
1.27776e-06
3.64267e-07
1.27815e-06
3.64302e-07
5.85154e-07
5.85275e-07
3.75884e-07
1.27787e-06
3.64267e-07
1.27827e-06
3.64302e-07
5.85152e-07
2.63665e-06
2.63632e-06
3.99258e-07
2.63654e-06
2.63613e-06
2.47951e-05
2.47964e-05
2.48028e-05
2.48014e-05
3.99451e-07
2.63685e-06
2.63648e-06
2.63706e-06
2.63674e-06
2.47996e-05
2.47984e-05
5.85149e-07
1.27817e-06
3.64318e-07
3.75884e-07
5.85243e-07
1.2778e-06
3.64315e-07
1.58291e-06
8.16629e-06
1.58306e-06
8.16668e-06
5.85147e-07
3.6432e-07
1.27832e-06
3.75902e-07
5.85245e-07
3.64316e-07
1.27791e-06
1.5834e-06
8.16952e-06
8.16764e-06
1.58329e-06
5.85277e-07
3.75872e-07
1.27799e-06
3.64267e-07
1.27838e-06
3.64302e-07
5.85157e-07
1.58341e-06
8.1695e-06
8.16757e-06
1.5833e-06
5.85277e-07
3.75891e-07
3.64269e-07
1.27811e-06
3.64304e-07
1.27853e-06
5.85155e-07
1.58307e-06
8.1652e-06
1.58327e-06
8.1656e-06
5.85148e-07
3.64317e-07
1.27799e-06
3.75894e-07
5.85245e-07
3.64314e-07
1.27761e-06
1.58307e-06
8.16593e-06
1.58327e-06
8.16635e-06
5.85273e-07
3.75868e-07
1.27785e-06
3.64265e-07
1.27827e-06
3.643e-07
5.85152e-07
1.58361e-06
8.16844e-06
8.1665e-06
1.58346e-06
5.85276e-07
3.75883e-07
3.64266e-07
1.27781e-06
3.64302e-07
1.2782e-06
5.85156e-07
1.58361e-06
8.16924e-06
8.16721e-06
1.58346e-06
2.63707e-06
2.63612e-06
3.99271e-07
2.63688e-06
2.63601e-06
2.47979e-05
2.47993e-05
2.48032e-05
2.48021e-05
3.99463e-07
2.63721e-06
2.63634e-06
2.63748e-06
2.63653e-06
2.48026e-05
2.48011e-05
5.85146e-07
3.64318e-07
1.27811e-06
3.75885e-07
5.85246e-07
3.64314e-07
1.27773e-06
1.58288e-06
8.16607e-06
1.58305e-06
8.16648e-06
1.58288e-06
8.16643e-06
1.58305e-06
8.16685e-06
5.85281e-07
3.75874e-07
3.64266e-07
1.2778e-06
3.64301e-07
1.27819e-06
5.85158e-07
5.85284e-07
3.75874e-07
3.64267e-07
1.27793e-06
3.64302e-07
1.27833e-06
5.85162e-07
1.58339e-06
8.16936e-06
8.16733e-06
1.58328e-06
1.58339e-06
8.16974e-06
8.16771e-06
1.58328e-06
2.47981e-05
2.47996e-05
2.47992e-05
2.48006e-05
3.9946e-07
2.63635e-06
2.63692e-06
2.63656e-06
2.63712e-06
2.48028e-05
2.48014e-05
2.48039e-05
2.48025e-05
2.4802e-05
2.48013e-05
2.48041e-05
2.48034e-05
2.63661e-06
2.63722e-06
3.99161e-07
2.63605e-06
2.63665e-06
2.48011e-05
2.48018e-05
2.48033e-05
2.4804e-05
3.99341e-07
2.63594e-06
2.63654e-06
2.63637e-06
2.63697e-06
1.58342e-06
8.16954e-06
1.58388e-06
8.16939e-06
5.85115e-07
1.27828e-06
3.64219e-07
3.75773e-07
5.85267e-07
1.27773e-06
3.64183e-07
5.85113e-07
1.27841e-06
3.64219e-07
3.75775e-07
5.85265e-07
1.27785e-06
3.64183e-07
1.5838e-06
8.16868e-06
8.16895e-06
1.58335e-06
1.5838e-06
8.16931e-06
8.16957e-06
1.58336e-06
5.85229e-07
3.75748e-07
1.27768e-06
3.64144e-07
1.27822e-06
3.64156e-07
5.851e-07
5.85228e-07
3.75751e-07
1.2778e-06
3.64144e-07
1.27835e-06
3.64156e-07
5.85099e-07
2.63721e-06
2.63693e-06
3.99154e-07
2.63663e-06
2.63627e-06
2.48005e-05
2.47997e-05
2.48026e-05
2.48033e-05
3.99335e-07
2.63651e-06
2.6361e-06
2.63696e-06
2.63666e-06
2.47995e-05
2.48003e-05
5.85116e-07
1.27851e-06
3.64219e-07
3.75764e-07
5.85268e-07
1.27796e-06
3.64184e-07
1.58328e-06
8.17036e-06
1.58369e-06
8.17021e-06
5.85117e-07
3.64221e-07
1.27868e-06
3.75782e-07
5.85267e-07
3.64186e-07
1.27808e-06
1.58359e-06
8.17001e-06
8.1703e-06
1.5832e-06
5.8523e-07
3.75739e-07
1.27791e-06
3.64144e-07
1.27845e-06
3.64157e-07
5.85102e-07
1.58361e-06
8.17011e-06
8.17043e-06
1.58322e-06
5.8523e-07
3.75758e-07
3.64146e-07
1.27803e-06
3.64158e-07
1.27862e-06
5.85103e-07
1.58344e-06
8.16929e-06
1.5839e-06
8.16913e-06
5.85118e-07
3.64219e-07
1.27834e-06
3.75774e-07
5.85267e-07
3.64183e-07
1.27778e-06
1.58344e-06
8.17003e-06
1.5839e-06
8.16987e-06
5.85226e-07
3.75736e-07
1.27777e-06
3.64143e-07
1.27835e-06
3.64156e-07
5.85098e-07
1.58382e-06
8.16904e-06
8.16934e-06
1.58338e-06
5.8523e-07
3.7575e-07
3.64144e-07
1.27774e-06
3.64156e-07
1.27829e-06
5.85103e-07
1.58382e-06
8.16979e-06
8.17006e-06
1.58338e-06
2.63765e-06
2.63669e-06
3.99167e-07
2.63699e-06
2.63612e-06
2.48033e-05
2.48026e-05
2.4803e-05
2.48039e-05
3.99347e-07
2.63685e-06
2.63601e-06
2.63738e-06
2.63644e-06
2.48024e-05
2.48031e-05
5.85119e-07
3.64219e-07
1.27847e-06
3.75765e-07
5.85277e-07
3.64184e-07
1.27791e-06
1.58325e-06
8.17016e-06
1.58367e-06
8.17001e-06
1.58326e-06
8.17054e-06
1.58367e-06
8.17038e-06
5.85233e-07
3.75742e-07
3.64144e-07
1.27773e-06
3.64157e-07
1.27828e-06
5.851e-07
5.85238e-07
3.75741e-07
3.64144e-07
1.27786e-06
3.64157e-07
1.27841e-06
5.85106e-07
1.5836e-06
8.16993e-06
8.1702e-06
1.5832e-06
1.5836e-06
8.17029e-06
8.17056e-06
1.58321e-06
2.48035e-05
2.48028e-05
2.48046e-05
2.48039e-05
3.99344e-07
2.63603e-06
2.6366e-06
2.63646e-06
2.63702e-06
2.48027e-05
2.48033e-05
2.48037e-05
2.48044e-05
2.48017e-05
2.48011e-05
2.48038e-05
2.48032e-05
2.63629e-06
2.6369e-06
3.99127e-07
2.63592e-06
2.63652e-06
2.48011e-05
2.48016e-05
2.48032e-05
2.48038e-05
3.99323e-07
2.63591e-06
2.63652e-06
2.63628e-06
2.63689e-06
1.58334e-06
8.1695e-06
1.58376e-06
8.16927e-06
5.85096e-07
1.27818e-06
3.64143e-07
3.75736e-07
5.85218e-07
1.27766e-06
3.64142e-07
5.85095e-07
1.27832e-06
3.64143e-07
3.75738e-07
5.85217e-07
1.27779e-06
3.64143e-07
1.58374e-06
8.16862e-06
8.16883e-06
1.58334e-06
1.58375e-06
8.16926e-06
8.16947e-06
1.58334e-06
5.85216e-07
3.75733e-07
1.27766e-06
3.6414e-07
1.27817e-06
3.6414e-07
5.85098e-07
5.85215e-07
3.75736e-07
1.27778e-06
3.64141e-07
1.27831e-06
3.64141e-07
5.85097e-07
2.63688e-06
2.63654e-06
3.9912e-07
2.63649e-06
2.63608e-06
2.48002e-05
2.47994e-05
2.48026e-05
2.48031e-05
3.99318e-07
2.63649e-06
2.63608e-06
2.63687e-06
2.63653e-06
2.47994e-05
2.48002e-05
5.85099e-07
1.27841e-06
3.64143e-07
3.75727e-07
5.85218e-07
1.2779e-06
3.64143e-07
1.58321e-06
8.17033e-06
1.58357e-06
8.17006e-06
5.85099e-07
3.64146e-07
1.27857e-06
3.75745e-07
5.8522e-07
3.64145e-07
1.27801e-06
1.58354e-06
8.16984e-06
8.17018e-06
1.58319e-06
5.85216e-07
3.75725e-07
1.27789e-06
3.6414e-07
1.2784e-06
3.6414e-07
5.85101e-07
1.58356e-06
8.17005e-06
8.1703e-06
1.5832e-06
5.85218e-07
3.75743e-07
3.64143e-07
1.27801e-06
3.64143e-07
1.27856e-06
5.85101e-07
1.58336e-06
8.16926e-06
1.58378e-06
8.16899e-06
5.851e-07
3.64143e-07
1.27825e-06
3.75738e-07
5.85219e-07
3.64143e-07
1.27772e-06
1.58336e-06
8.16999e-06
1.58378e-06
8.16975e-06
5.85214e-07
3.75722e-07
1.27776e-06
3.6414e-07
1.2783e-06
3.64141e-07
5.85097e-07
1.58376e-06
8.16898e-06
8.16923e-06
1.58336e-06
5.85218e-07
3.75736e-07
3.64141e-07
1.27772e-06
3.64141e-07
1.27824e-06
5.85101e-07
1.58376e-06
8.16974e-06
8.16996e-06
1.58336e-06
2.63729e-06
2.63637e-06
3.99134e-07
2.63683e-06
2.63599e-06
2.4803e-05
2.48024e-05
2.4803e-05
2.48037e-05
3.99331e-07
2.63682e-06
2.63599e-06
2.63727e-06
2.63636e-06
2.48024e-05
2.48029e-05
5.85105e-07
3.64144e-07
1.27837e-06
3.75729e-07
5.85227e-07
3.64143e-07
1.27784e-06
1.58319e-06
8.17013e-06
1.58356e-06
8.16989e-06
1.58319e-06
8.17048e-06
1.58356e-06
8.17024e-06
5.8522e-07
3.75729e-07
3.64141e-07
1.27771e-06
3.64142e-07
1.27823e-06
5.85097e-07
5.85226e-07
3.75727e-07
3.64141e-07
1.27784e-06
3.64141e-07
1.27836e-06
5.85102e-07
1.58355e-06
8.16988e-06
8.1701e-06
1.58318e-06
1.58355e-06
8.17023e-06
8.17045e-06
1.58319e-06
2.48032e-05
2.48026e-05
2.48043e-05
2.48037e-05
3.99328e-07
2.63601e-06
2.63657e-06
2.63638e-06
2.63694e-06
2.48026e-05
2.48032e-05
2.48037e-05
2.48043e-05
2.48016e-05
2.4801e-05
2.48037e-05
2.48031e-05
2.63627e-06
2.63689e-06
3.99136e-07
2.63591e-06
2.63652e-06
2.4801e-05
2.48016e-05
2.48031e-05
2.48037e-05
3.99329e-07
2.63591e-06
2.63652e-06
2.63627e-06
2.63688e-06
1.58334e-06
8.16947e-06
1.58374e-06
8.16925e-06
5.85098e-07
1.27817e-06
3.64143e-07
3.75736e-07
5.85218e-07
1.27766e-06
3.64142e-07
5.85097e-07
1.27831e-06
3.64143e-07
3.75739e-07
5.85217e-07
1.27778e-06
3.64143e-07
1.58374e-06
8.16861e-06
8.16882e-06
1.58334e-06
1.58375e-06
8.16923e-06
8.16946e-06
1.58334e-06
5.85218e-07
3.75733e-07
1.27766e-06
3.6414e-07
1.27817e-06
3.6414e-07
5.85097e-07
5.85217e-07
3.75736e-07
1.27778e-06
3.6414e-07
1.2783e-06
3.6414e-07
5.85096e-07
2.63687e-06
2.63653e-06
3.9913e-07
2.63649e-06
2.63608e-06
2.48002e-05
2.47994e-05
2.48023e-05
2.48031e-05
3.99323e-07
2.63657e-06
2.63608e-06
2.63686e-06
2.63653e-06
2.47994e-05
2.48002e-05
5.85102e-07
1.27845e-06
3.64143e-07
3.75727e-07
5.85218e-07
1.27792e-06
3.64143e-07
1.5832e-06
8.17028e-06
1.58356e-06
8.17005e-06
5.85101e-07
3.64145e-07
1.27856e-06
3.75746e-07
5.8522e-07
3.64145e-07
1.27801e-06
1.58354e-06
8.16975e-06
8.17001e-06
1.58319e-06
5.85218e-07
3.75725e-07