/*--------------------------------*- C++ -*----------------------------------*\
| =========                 |                                                 |
| \\      /  F ield         | OpenFOAM: The Open Source CFD Toolbox           |
|  \\    /   O peration     | Version:  2206                                  |
|   \\  /    A nd           | Website:  www.openfoam.com                      |
|    \\/     M anipulation  |                                                 |
\*---------------------------------------------------------------------------*/
FoamFile
{
    version     2.0;
    format      ascii;
    arch        "LSB;label=32;scalar=64";
    class       surfaceScalarField;
    location    "16.5";
    object      phi;
}
// * * * * * * * * * * * * * * * * * * * * * * * * * * * * * * * * * * * * * //

dimensions      [0 3 -1 0 0 0 0];

oriented        oriented;

internalField   nonuniform List<scalar> 
81717
(
1.36478e-09
1.45328e-09
-0.00107328
-1.26832e-09
-1.26205e-09
0.00107328
-0.00107379
-1.18319e-06
-1.46945e-09
1.83629e-09
0.00107379
-2.35375e-07
1.18529e-06
2.3471e-07
8.62882e-07
-2.27161e-07
-8.62671e-07
2.25434e-07
-0.00107345
-1.17784e-06
-1.46957e-09
1.82422e-09
0.00107345
-2.35363e-07
1.17993e-06
2.34721e-07
8.62711e-07
-2.29799e-07
-8.62551e-07
2.28101e-07
-0.000264012
1.21116e-06
1.17796e-06
-2.18863e-07
-2.24085e-07
0.000262066
1.49941e-09
1.5868e-09
-0.00107328
-1.35823e-09
-1.35165e-09
0.00107328
-0.00107379
-1.18314e-06
-1.60772e-09
1.78608e-09
0.00107379
-2.35316e-07
1.18532e-06
2.3475e-07
8.62906e-07
-2.27074e-07
-8.6262e-07
2.25504e-07
-0.00107345
-1.17779e-06
-1.60451e-09
1.77309e-09
0.00107345
-2.35304e-07
1.17996e-06
2.34762e-07
8.62734e-07
-2.29715e-07
-8.62501e-07
2.2817e-07
-0.000264012
1.21111e-06
1.17792e-06
-2.18769e-07
-2.23989e-07
0.000262066
4.02355e-10
4.97792e-10
-0.00107328
-8.3833e-10
-8.33253e-10
0.00107328
-0.00107378
-1.18334e-06
-5.09653e-10
2.3392e-09
0.00107378
-2.35582e-07
1.18507e-06
2.3442e-07
8.62502e-07
-2.27406e-07
-8.62961e-07
2.25056e-07
-0.00107345
-1.17799e-06
-5.1568e-10
2.31998e-09
0.00107345
-2.35568e-07
1.17971e-06
2.34432e-07
8.62335e-07
-2.30036e-07
-8.62837e-07
2.27731e-07
-0.000264011
1.2113e-06
1.17811e-06
-2.18966e-07
-2.24185e-07
0.000262065
6.93451e-10
7.86481e-10
-0.00107328
-9.54896e-10
-9.51516e-10
0.00107328
-0.00107379
-1.18334e-06
-7.9742e-10
2.05118e-09
0.00107379
-2.35559e-07
1.18526e-06
2.34666e-07
8.6279e-07
-2.27711e-07
-8.62928e-07
2.2512e-07
-0.00107345
-1.17799e-06
-7.83959e-10
2.04199e-09
0.00107345
-2.35551e-07
1.1799e-06
2.34677e-07
8.62617e-07
-2.30351e-07
-8.62808e-07
2.27782e-07
-0.000264012
1.21131e-06
1.17811e-06
-2.19047e-07
-2.24276e-07
0.000262066
1.07635e-09
1.15526e-09
-0.00107328
-1.13012e-09
-1.13235e-09
0.00107328
-0.00107379
-1.18326e-06
-1.17693e-09
1.94049e-09
0.00107379
-2.35478e-07
1.1853e-06
2.34705e-07
8.62851e-07
-2.27392e-07
-8.62826e-07
2.25335e-07
-0.00107345
-1.17792e-06
-1.16765e-09
1.93342e-09
0.00107345
-2.35467e-07
1.17993e-06
2.34715e-07
8.62679e-07
-2.30031e-07
-8.62707e-07
2.28001e-07
-0.000264013
1.21124e-06
1.17804e-06
-2.18944e-07
-2.24169e-07
0.000262066
1.09893e-09
1.15479e-09
-0.00107328
-1.12187e-09
-1.14666e-09
0.00107328
-0.00107379
-1.18326e-06
-1.19404e-09
1.91444e-09
0.00107379
-2.35472e-07
1.18531e-06
2.34714e-07
8.62853e-07
-2.27386e-07
-8.62823e-07
2.25338e-07
-0.00107345
-1.17792e-06
-1.17162e-09
1.93957e-09
0.00107345
-2.35472e-07
1.17993e-06
2.34712e-07
8.62682e-07
-2.30028e-07
-8.62703e-07
2.28002e-07
-0.000264013
1.21124e-06
1.17804e-06
-2.18942e-07
-2.24169e-07
0.000262066
1.11378e-09
1.14456e-09
-0.00107328
-1.10616e-09
-1.15673e-09
0.00107328
-0.00107379
-1.18322e-06
-1.21404e-09
1.85932e-09
0.00107379
-2.3543e-07
1.18534e-06
2.34745e-07
8.6285e-07
-2.27389e-07
-8.62825e-07
2.25334e-07
-0.00107345
-1.17792e-06
-1.17143e-09
1.94153e-09
0.00107345
-2.35472e-07
1.17993e-06
2.34712e-07
8.62682e-07
-2.30027e-07
-8.62702e-07
2.28003e-07
-0.000264013
1.21124e-06
1.17804e-06
-2.18941e-07
-2.2417e-07
0.000262066
1.08499e-09
1.15731e-09
-0.00107328
-1.12685e-09
-1.1389e-09
0.00107328
-0.00107379
-1.18326e-06
-1.18677e-09
1.93771e-09
0.00107379
-2.35477e-07
1.18531e-06
2.34709e-07
8.62857e-07
-2.2739e-07
-8.62821e-07
2.25337e-07
-0.00107345
-1.17792e-06
-1.17627e-09
1.94302e-09
0.00107345
-2.35472e-07
1.17993e-06
2.34712e-07
8.62682e-07
-2.30027e-07
-8.62703e-07
2.28003e-07
-0.000264013
1.21124e-06
1.17804e-06
-2.18944e-07
-2.24168e-07
0.000262066
1.08999e-09
1.15708e-09
-0.00107328
-1.12675e-09
-1.14672e-09
0.00107328
-0.00107379
-1.18326e-06
-1.18135e-09
1.93851e-09
0.00107379
-2.3548e-07
1.1853e-06
2.34705e-07
8.62855e-07
-2.2739e-07
-8.62822e-07
2.25336e-07
-0.00107345
-1.17792e-06
-1.19841e-09
1.942e-09
0.00107345
-2.35472e-07
1.17993e-06
2.34713e-07
8.62685e-07
-2.30024e-07
-8.62699e-07
2.28007e-07
-0.000264013
1.21123e-06
1.17804e-06
-2.18946e-07
-2.24165e-07
0.000262066
1.08697e-09
1.14922e-09
-0.00107328
-1.12347e-09
-1.14643e-09
0.00107328
-0.00107379
-1.18326e-06
-1.17231e-09
1.93815e-09
0.00107379
-2.35481e-07
1.1853e-06
2.34704e-07
8.62852e-07
-2.27391e-07
-8.62825e-07
2.25335e-07
-0.00107345
-1.17792e-06
-1.19413e-09
1.94613e-09
0.00107345
-2.35474e-07
1.17993e-06
2.34711e-07
8.62684e-07
-2.30024e-07
-8.62699e-07
2.28006e-07
-0.000264013
1.21123e-06
1.17805e-06
-2.18948e-07
-2.24164e-07
0.000262066
1.09269e-09
1.15356e-09
-0.00107328
-1.12675e-09
-1.14922e-09
0.00107328
-0.00107379
-1.18326e-06
-1.17358e-09
1.93578e-09
0.00107379
-2.3548e-07
1.1853e-06
2.34705e-07
8.62853e-07
-2.2739e-07
-8.62824e-07
2.25336e-07
-0.00107345
-1.17792e-06
-1.19853e-09
1.94374e-09
0.00107345
-2.35473e-07
1.17993e-06
2.34712e-07
8.62685e-07
-2.30023e-07
-8.62698e-07
2.28007e-07
-0.000264013
1.21123e-06
1.17805e-06
-2.18947e-07
-2.24163e-07
0.000262066
1.09379e-09
1.15468e-09
-0.00107328
-1.12652e-09
-1.14858e-09
0.00107328
-0.00107379
-1.18326e-06
-1.18195e-09
1.93257e-09
0.00107379
-2.35478e-07
1.1853e-06
2.34706e-07
8.62855e-07
-2.27388e-07
-8.62822e-07
2.25338e-07
-0.00107345
-1.17792e-06
-1.20757e-09
1.94236e-09
0.00107345
-2.35472e-07
1.17993e-06
2.34713e-07
8.62687e-07
-2.30021e-07
-8.62696e-07
2.28009e-07
-0.000264013
1.21123e-06
1.17804e-06
-2.18945e-07
-2.24161e-07
0.000262066
1.09841e-09
1.159e-09
-0.00107328
-1.12912e-09
-1.1511e-09
0.00107328
-0.00107379
-1.18326e-06
-1.18464e-09
1.9297e-09
0.00107379
-2.35477e-07
1.1853e-06
2.34707e-07
8.62855e-07
-2.27388e-07
-8.62822e-07
2.25338e-07
-0.00107345
-1.17792e-06
-1.21045e-09
1.94038e-09
0.00107345
-2.35472e-07
1.17993e-06
2.34713e-07
8.62688e-07
-2.3002e-07
-8.62696e-07
2.2801e-07
-0.000264013
1.21123e-06
1.17804e-06
-2.18945e-07
-2.24161e-07
0.000262066
1.1054e-09
1.16774e-09
-0.00107328
-1.13497e-09
-1.15589e-09
0.00107328
-0.00107379
-1.18326e-06
-1.18873e-09
1.9276e-09
0.00107379
-2.35478e-07
1.1853e-06
2.34709e-07
8.62856e-07
-2.27388e-07
-8.62821e-07
2.2534e-07
-0.00107345
-1.17792e-06
-1.21661e-09
1.93777e-09
0.00107345
-2.35472e-07
1.17994e-06
2.34715e-07
8.62691e-07
-2.3002e-07
-8.62694e-07
2.28014e-07
-0.000264013
1.21123e-06
1.17804e-06
-2.18945e-07
-2.2416e-07
0.000262066
1.10059e-09
1.16226e-09
-0.00107328
-1.13098e-09
-1.15192e-09
0.00107328
-0.00107379
-1.18326e-06
-1.18659e-09
1.9307e-09
0.00107379
-2.35472e-07
1.1853e-06
2.34703e-07
8.62854e-07
-2.27382e-07
-8.6282e-07
2.25332e-07
-0.00107345
-1.17792e-06
-1.21602e-09
1.93897e-09
0.00107345
-2.35468e-07
1.17993e-06
2.34712e-07
8.62687e-07
-2.30013e-07
-8.62689e-07
2.28007e-07
-0.000264013
1.21122e-06
1.17804e-06
-2.1894e-07
-2.24156e-07
0.000262066
1.0999e-09
1.16711e-09
-0.00107328
-1.13033e-09
-1.14866e-09
0.00107328
-0.00107379
-1.18326e-06
-1.1942e-09
1.9323e-09
0.00107379
-2.35469e-07
1.18529e-06
2.34696e-07
8.6285e-07
-2.27376e-07
-8.62813e-07
2.25327e-07
-0.00107345
-1.17791e-06
-1.21315e-09
1.94143e-09
0.00107345
-2.35463e-07
1.17993e-06
2.34707e-07
8.6268e-07
-2.30004e-07
-8.62681e-07
2.27999e-07
-0.000264013
1.21122e-06
1.17804e-06
-2.18935e-07
-2.2415e-07
0.000262066
1.09452e-09
1.18425e-09
-0.00107328
-1.13558e-09
-1.13507e-09
0.00107328
-0.00107379
-1.18325e-06
-1.20354e-09
1.95132e-09
0.00107379
-2.35462e-07
1.18528e-06
2.34684e-07
8.62831e-07
-2.27347e-07
-8.62778e-07
2.25311e-07
-0.00107345
-1.1779e-06
-1.2358e-09
1.95104e-09
0.00107345
-2.35443e-07
1.17991e-06
2.34681e-07
8.62658e-07
-2.29965e-07
-8.62647e-07
2.27972e-07
-0.000264013
1.2112e-06
1.17802e-06
-2.18917e-07
-2.2413e-07
0.000262066
-1.21848e-06
-1.18265e-06
0.000264028
-0.000262072
2.18445e-07
2.26146e-07
0.00107302
-1.26006e-09
-0.00107302
1.97435e-09
-1.21645e-06
2.40002e-07
-2.40771e-07
-8.62632e-07
2.25309e-07
-2.27148e-07
8.62779e-07
1.22388e-06
0.00107345
-1.2278e-09
-0.00107345
1.98219e-09
-1.22184e-06
2.42777e-07
-2.43533e-07
-8.68187e-07
2.28081e-07
-2.29955e-07
8.68309e-07
-1.18527e-06
0.000264057
-0.000262092
2.21186e-07
2.23463e-07
0.00107405
-1.34354e-09
-0.00107405
1.87728e-09
-1.18061e-06
2.37459e-07
-2.38161e-07
-8.65371e-07
2.28128e-07
-2.29941e-07
8.65587e-07
1.21854e-06
0.00107313
-1.22484e-09
-0.00107313
1.97882e-09
-1.21651e-06
2.42755e-07
-2.43519e-07
-8.6535e-07
2.2805e-07
-2.29894e-07
8.65461e-07
-1.34053e-09
-0.00107379
1.89627e-09
-1.1832e-06
2.34682e-07
-2.35395e-07
-8.62679e-07
2.2539e-07
8.6285e-07
-2.27193e-07
1.21319e-06
0.00107292
-1.23331e-09
-0.00107292
1.98664e-09
-1.21117e-06
2.3727e-07
-2.38016e-07
-8.62679e-07
2.253e-07
-2.27152e-07
8.62788e-07
-1.17991e-06
0.000264007
-0.000262053
2.18628e-07
2.25951e-07
-1.34032e-09
-0.00107345
1.87928e-09
-1.17786e-06
2.34694e-07
-2.35384e-07
-8.6251e-07
2.28038e-07
8.62733e-07
-2.29851e-07
1.18001e-06
0.00107396
-1.32121e-09
-0.00107396
1.88662e-09
-1.17798e-06
2.34741e-07
-2.35446e-07
-8.62777e-07
2.28117e-07
-2.29919e-07
8.62974e-07
-0.000262066
2.20935e-07
2.26167e-07
1.21644e-06
1.18059e-06
-2.16368e-07
-2.24045e-07
0.000262071
-1.21857e-06
-1.18274e-06
0.000264028
-0.000262071
2.18571e-07
2.26274e-07
1.91591e-09
0.00107302
-2.40751e-07
1.2185e-06
2.4003e-07
8.62799e-07
-2.2712e-07
-8.62631e-07
2.25345e-07
-1.22183e-06
-1.35979e-09
1.92339e-09
0.00107345
-2.43514e-07
1.2239e-06
2.42805e-07
8.68339e-07
-2.29925e-07
-8.68177e-07
2.28122e-07
0.00107301
-1.46306e-09
-0.00107301
1.8655e-09
-1.21638e-06
2.40117e-07
-2.40683e-07
-8.6257e-07
2.25458e-07
-2.27035e-07
8.62885e-07
1.22397e-06
0.00107345
-1.43035e-09
-0.00107345
1.86997e-09
-1.22177e-06
2.42892e-07
-2.43445e-07
-8.68126e-07
2.28232e-07
-2.29842e-07
8.68415e-07
-2.19074e-07
-2.21364e-07
0.000262092
-1.18536e-06
0.000264056
-0.000262092
2.21312e-07
2.23594e-07
1.82209e-09
0.00107405
-2.38142e-07
1.18267e-06
2.37485e-07
8.65616e-07
-2.29911e-07
-8.65366e-07
2.28169e-07
-1.2165e-06
-1.35126e-09
1.92912e-09
0.00107313
-2.43499e-07
1.21855e-06
2.42782e-07
8.65491e-07
-2.29866e-07
-8.65339e-07
2.2809e-07
0.00107405
-1.54512e-09
-0.00107405
1.76889e-09
-1.18053e-06
2.37573e-07
-2.38073e-07
-8.65311e-07
2.28278e-07
-2.29828e-07
8.65693e-07
1.21863e-06
0.00107312
-1.43359e-09
-0.00107312
1.86428e-09
-1.21644e-06
2.42869e-07
-2.43432e-07
-8.65285e-07
2.28204e-07
-2.29779e-07
8.6557e-07
-1.3657e-09
1.92741e-09
0.00107292
-2.37998e-07
1.21321e-06
2.37294e-07
8.62821e-07
-2.27122e-07
2.25344e-07
-8.62667e-07
-1.55234e-09
-0.00107379
1.78337e-09
-1.18313e-06
2.34796e-07
-2.35308e-07
-8.62614e-07
2.25545e-07
8.62964e-07
-2.27077e-07
1.21328e-06
0.00107292
-1.436e-09
-0.00107292
1.87761e-09
-1.2111e-06
2.37383e-07
-2.37928e-07
-8.62618e-07
2.2545e-07
-2.2704e-07
8.62894e-07
-2.16535e-07
-2.23861e-07
0.000262053
-1.18e-06
0.000264007
-0.000262053
2.18758e-07
2.26077e-07
-1.46819e-09
1.82769e-09
0.00107396
-2.3543e-07
1.18003e-06
2.34765e-07
8.63008e-07
-2.29888e-07
2.28162e-07
-8.62765e-07
-1.54993e-09
-0.00107345
1.76714e-09
-1.17778e-06
2.34808e-07
-2.35296e-07
-8.62446e-07
2.28188e-07
8.62845e-07
-2.29738e-07
1.1801e-06
0.00107396
-1.5319e-09
-0.00107396
1.77662e-09
-1.1779e-06
2.34854e-07
-2.3536e-07
-8.62713e-07
2.28269e-07
-2.29805e-07
8.63084e-07
-0.000262066
2.2106e-07
2.26296e-07
1.21639e-06
1.18054e-06
-2.16273e-07
-2.23948e-07
0.000262071
-1.21859e-06
-1.18276e-06
0.000264027
-0.00026207
2.1861e-07
2.26311e-07
1.86727e-09
0.00107301
-2.4069e-07
1.21853e-06
2.40073e-07
8.62819e-07
-2.27038e-07
-8.62586e-07
2.25415e-07
-1.22178e-06
-1.49165e-09
1.87263e-09
0.00107345
-2.43452e-07
1.22393e-06
2.42847e-07
8.68357e-07
-2.29841e-07
-8.68132e-07
2.28192e-07
0.00107301
-1.43866e-09
-0.00107301
1.88661e-09
-1.2163e-06
2.40116e-07
-2.40616e-07
-8.62502e-07
2.25476e-07
-2.26962e-07
8.62866e-07
1.22398e-06
0.00107344
-1.40422e-09
-0.00107344
1.8967e-09
-1.22169e-06
2.42889e-07
-2.43379e-07
-8.68054e-07
2.28249e-07
-2.29769e-07
8.68395e-07
-2.18979e-07
-2.21267e-07
0.000262092
-1.18537e-06
0.000264055
-0.000262091
2.21348e-07
2.23627e-07
1.77475e-09
0.00107405
-2.38082e-07
1.1827e-06
2.37528e-07
8.65634e-07
-2.29829e-07
-8.65321e-07
2.28238e-07
-1.21645e-06
-1.49071e-09
1.87505e-09
0.00107312
-2.43439e-07
1.21858e-06
2.42825e-07
8.65512e-07
-2.29779e-07
-8.65292e-07
2.28164e-07
0.00107405
-1.5194e-09
-0.00107405
1.79357e-09
-1.18046e-06
2.37571e-07
-2.38009e-07
-8.65239e-07
2.28292e-07
-2.29754e-07
8.65671e-07
1.21865e-06
0.00107312
-1.4041e-09
-0.00107312
1.88593e-09
-1.21636e-06
2.42872e-07
-2.43363e-07
-8.65219e-07
2.28218e-07
-2.29711e-07
8.65548e-07
-1.4953e-09
1.88183e-09
0.00107292
-2.37939e-07
1.21324e-06
2.37335e-07
8.62839e-07
-2.27039e-07
2.25412e-07
-8.62623e-07
-1.52689e-09
-0.00107379
1.81523e-09
-1.18306e-06
2.34789e-07
-2.35245e-07
-8.62538e-07
2.2556e-07
8.62946e-07
-2.27e-07
1.2133e-06
0.00107292
-1.41666e-09
-0.00107292
1.89428e-09
-1.21102e-06
2.37387e-07
-2.37862e-07
-8.62543e-07
2.25473e-07
-2.26961e-07
8.62878e-07
-2.16439e-07
-2.23765e-07
0.000262053
-1.18001e-06
0.000264006
-0.000262052
2.18789e-07
2.26121e-07
-1.60124e-09
1.78326e-09
0.00107396
-2.35371e-07
1.18006e-06
2.34805e-07
8.63029e-07
-2.29803e-07
2.28232e-07
-8.62717e-07
-1.53958e-09
-0.00107345
1.79099e-09
-1.17771e-06
2.34804e-07
-2.35232e-07
-8.62364e-07
2.28215e-07
8.62834e-07
-2.29652e-07
1.18012e-06
0.00107395
-1.52381e-09
-0.00107396
1.79834e-09
-1.17783e-06
2.34858e-07
-2.35293e-07
-8.62638e-07
2.28294e-07
-2.29725e-07
8.63069e-07
-0.000262065
2.211e-07
2.26337e-07
1.21659e-06
1.18074e-06
-2.16473e-07
-2.24152e-07
0.00026207
-1.2184e-06
-1.18256e-06
0.000264028
-0.000262071
2.18257e-07
2.25961e-07
2.41456e-09
0.00107301
-2.40954e-07
1.21828e-06
2.3974e-07
8.62425e-07
-2.27367e-07
-8.62922e-07
2.24971e-07
-1.22197e-06
-3.94269e-10
2.42401e-09
0.00107344
-2.43717e-07
1.22368e-06
2.42516e-07
8.67958e-07
-2.3017e-07
-8.68472e-07
2.27749e-07
0.00107302
-3.31753e-10
-0.00107301
2.29983e-09
-1.21669e-06
2.39887e-07
-2.41084e-07
-8.63043e-07
2.24806e-07
-2.27917e-07
8.62597e-07
1.22379e-06
0.00107345
-3.10076e-10
-0.00107345
2.3085e-09
-1.22208e-06
2.42657e-07
-2.43849e-07
-8.68585e-07
2.27578e-07
-2.30725e-07
8.68139e-07
-2.19182e-07
-2.21471e-07
0.000262091
-1.18519e-06
0.000264057
-0.000262092
2.21001e-07
2.23273e-07
2.32516e-09
0.00107405
-2.38345e-07
1.18245e-06
2.37198e-07
8.65235e-07
-2.30161e-07
-8.65662e-07
2.27791e-07
-1.21664e-06
-3.95082e-10
2.42411e-09
0.00107312
-2.43699e-07
1.21833e-06
2.42495e-07
8.65116e-07
-2.30109e-07
-8.6563e-07
2.27722e-07
0.00107405
-4.29805e-10
-0.00107405
2.19681e-09
-1.18085e-06
2.37341e-07
-2.38477e-07
-8.65773e-07
2.27631e-07
-2.30702e-07
8.65413e-07
1.21845e-06
0.00107313
-2.90259e-10
-0.00107312
2.3216e-09
-1.21676e-06
2.42632e-07
-2.43839e-07
-8.65758e-07
2.27542e-07
-2.30671e-07
8.65282e-07
-4.07926e-10
2.41283e-09
0.00107292
-2.38192e-07
1.21299e-06
2.37018e-07
8.62439e-07
-2.27364e-07
2.24969e-07
-8.62962e-07
-4.14469e-10
-0.00107379
2.22043e-09
-1.18344e-06
2.34565e-07
-2.35707e-07
-8.63086e-07
2.24881e-07
8.62677e-07
-2.27971e-07
1.2131e-06
0.00107292
-3.22154e-10
-0.00107292
2.30998e-09
-1.21141e-06
2.37151e-07
-2.38328e-07
-8.63077e-07
2.24798e-07
-2.27923e-07
8.6262e-07
-2.16642e-07
-2.23962e-07
0.000262052
-1.17982e-06
0.000264007
-0.000262053
2.18437e-07
2.25762e-07
-5.23532e-10
2.31524e-09
0.00107395
-2.35623e-07
1.17981e-06
2.34489e-07
8.62629e-07
-2.30126e-07
2.27791e-07
-8.63054e-07
-4.03606e-10
-0.00107345
2.20814e-09
-1.1781e-06
2.34573e-07
-2.35701e-07
-8.62917e-07
2.27526e-07
8.62559e-07
-2.30629e-07
1.17993e-06
0.00107396
-3.87717e-10
-0.00107396
2.20132e-09
-1.17821e-06
2.34628e-07
-2.35755e-07
-8.63194e-07
2.27607e-07
-2.30698e-07
8.6279e-07
-0.000262066
2.20754e-07
2.25981e-07
1.21658e-06
1.18074e-06
-2.16558e-07
-2.24233e-07
0.000262072
-1.21851e-06
-1.18268e-06
0.000264028
-0.000262072
2.18437e-07
2.26135e-07
2.13177e-09
0.00107302
-2.40934e-07
1.21847e-06
2.39989e-07
8.62702e-07
-2.27667e-07
-8.62896e-07
2.25032e-07
-1.22198e-06
-6.94133e-10
2.14197e-09
0.00107345
-2.43701e-07
1.22387e-06
2.42761e-07
8.68247e-07
-2.3047e-07
-8.68433e-07
2.27809e-07
0.00107302
-1.09114e-09
-0.00107302
2.02641e-09
-1.21652e-06
2.40026e-07
-2.40855e-07
-8.62776e-07
2.25252e-07
-2.27352e-07
8.62776e-07
1.22391e-06
0.00107345
-1.0575e-09
-0.00107345
2.03468e-09
-1.2219e-06
2.42801e-07
-2.43618e-07
-8.68334e-07
2.28022e-07
-2.30162e-07
8.68304e-07
-2.19262e-07
-2.21557e-07
0.000262092
-1.1853e-06
0.000264057
-0.000262092
2.21177e-07
2.23455e-07
2.03423e-09
0.00107405
-2.38327e-07
1.18264e-06
2.37444e-07
8.65519e-07
-2.30453e-07
-8.65625e-07
2.27856e-07
-1.21665e-06
-6.82669e-10
2.15682e-09
0.00107313
-2.4369e-07
1.21852e-06
2.42736e-07
8.65398e-07
-2.30417e-07
-8.65601e-07
2.27778e-07
0.00107405
-1.16408e-09
-0.00107405
1.92316e-09
-1.18067e-06
2.37485e-07
-2.38243e-07
-8.6552e-07
2.28067e-07
-2.30144e-07
8.65578e-07
1.21856e-06
0.00107313
-1.05635e-09
-0.00107313
2.03267e-09
-1.21657e-06
2.42777e-07
-2.43606e-07
-8.65492e-07
2.27998e-07
-2.30097e-07
8.6546e-07
-7.09532e-10
2.14579e-09
0.00107292
-2.38184e-07
1.21318e-06
2.37253e-07
8.6273e-07
-2.27666e-07
2.25033e-07
-8.62922e-07
-1.16552e-09
-0.00107379
1.9378e-09
-1.18327e-06
2.34708e-07
-2.35479e-07
-8.62827e-07
2.25333e-07
8.62847e-07
-2.27399e-07
1.21321e-06
0.00107292
-1.0583e-09
-0.00107292
2.04697e-09
-1.21124e-06
2.3729e-07
-2.38102e-07
-8.62827e-07
2.2524e-07
-2.27361e-07
8.62783e-07
-2.16729e-07
-2.24053e-07
0.000262053
-1.17994e-06
0.000264007
-0.000262054
2.18622e-07
2.25939e-07
-7.86248e-10
2.03658e-09
0.00107396
-2.35611e-07
1.18e-06
2.34727e-07
8.6291e-07
-2.30439e-07
2.27845e-07
-8.63031e-07
-1.15776e-09
-0.00107345
1.92575e-09
-1.17792e-06
2.3472e-07
-2.35466e-07
-8.6266e-07
2.27976e-07
8.62727e-07
-2.30061e-07
1.18004e-06
0.00107396
-1.13996e-09
-0.00107396
1.93871e-09
-1.17804e-06
2.34764e-07
-2.35531e-07
-8.62928e-07
2.28055e-07
-2.30129e-07
8.62965e-07
-0.000262066
2.20924e-07
2.26156e-07
1.21652e-06
1.18067e-06
-2.16448e-07
-2.24128e-07
0.000262072
-1.21851e-06
-1.18268e-06
0.000264028
-0.000262072
2.1844e-07
2.26136e-07
2.03277e-09
0.00107302
-2.40856e-07
1.21851e-06
2.40023e-07
8.62767e-07
-2.27349e-07
-8.62786e-07
2.25249e-07
-1.2219e-06
-1.07601e-09
2.03454e-09
0.00107345
-2.43618e-07
1.22391e-06
2.42799e-07
8.68308e-07
-2.30155e-07
-8.68333e-07
2.28024e-07
0.00107302
-1.12278e-09
-0.00107302
2.04394e-09
-1.21652e-06
2.40019e-07
-2.40862e-07
-8.62769e-07
2.2526e-07
-2.27337e-07
8.62783e-07
1.22391e-06
0.00107345
-1.09952e-09
-0.00107345
2.02529e-09
-1.2219e-06
2.42799e-07
-2.4362e-07
-8.68324e-07
2.28035e-07
-2.30144e-07
8.68314e-07
-2.19155e-07
-2.21446e-07
0.000262092
-1.1853e-06
0.000264057
-0.000262092
2.21183e-07
2.23457e-07
1.93059e-09
0.00107405
-2.38245e-07
1.18268e-06
2.37481e-07
8.65579e-07
-2.30138e-07
-8.65524e-07
2.28067e-07
-1.21657e-06
-1.06418e-09
2.04694e-09
0.00107313
-2.43608e-07
1.21856e-06
2.42773e-07
8.6546e-07
-2.30092e-07
-8.65494e-07
2.27997e-07
0.00107405
-1.17919e-09
-0.00107405
1.91973e-09
-1.18067e-06
2.37482e-07
-2.38248e-07
-8.65514e-07
2.28074e-07
-2.30131e-07
8.65585e-07
1.21856e-06
0.00107313
-1.07237e-09
-0.00107313
2.04329e-09
-1.21657e-06
2.42772e-07
-2.43611e-07
-8.65488e-07
2.28003e-07
-2.30086e-07
8.65463e-07
-1.0818e-09
2.0479e-09
0.00107292
-2.38105e-07
1.21321e-06
2.37287e-07
8.62791e-07
-2.27351e-07
2.25248e-07
-8.62823e-07
-1.19449e-09
-0.00107379
1.92572e-09
-1.18326e-06
2.34709e-07
-2.35479e-07
-8.62821e-07
2.2534e-07
8.62853e-07
-2.27386e-07
1.21321e-06
0.00107292
-1.08759e-09
-0.00107292
2.05993e-09
-1.21124e-06
2.37285e-07
-2.38106e-07
-8.62818e-07
2.25249e-07
-2.27345e-07
8.62791e-07
-2.16617e-07
-2.23944e-07
0.000262054
-1.17994e-06
0.000264007
-0.000262054
2.18622e-07
2.25941e-07
-1.16252e-09
1.93838e-09
0.00107396
-2.35534e-07
1.18004e-06
2.34761e-07
8.6297e-07
-2.30121e-07
2.28061e-07
-8.62927e-07
-1.18005e-09
-0.00107345
1.9349e-09
-1.17792e-06
2.34713e-07
-2.35473e-07
-8.62652e-07
2.27984e-07
8.62734e-07
-2.30046e-07
1.18004e-06
0.00107396
-1.15491e-09
-0.00107396
1.93837e-09
-1.17804e-06
2.34762e-07
-2.35533e-07
-8.62923e-07
2.28062e-07
-2.30115e-07
8.6297e-07
-0.000262066
2.20928e-07
2.26157e-07
1.21652e-06
1.18067e-06
-2.16445e-07
-2.24128e-07
0.000262072
-1.2185e-06
-1.18268e-06
0.000264028
-0.000262072
2.18443e-07
2.26134e-07
2.05034e-09
0.00107302
-2.40861e-07
1.2185e-06
2.40019e-07
8.62773e-07
-2.27343e-07
-8.6278e-07
2.25253e-07
-1.2219e-06
-1.1169e-09
2.0148e-09
0.00107345
-2.43615e-07
1.22391e-06
2.42802e-07
8.68318e-07
-2.30142e-07
-8.68323e-07
2.28038e-07
0.00107302
-1.14526e-09
-0.00107302
2.07169e-09
-1.21652e-06
2.40016e-07
-2.40864e-07
-8.62761e-07
2.25265e-07
-2.27331e-07
8.6279e-07
1.22392e-06
0.00107345
-1.22562e-09
-0.00107345
1.94245e-09
-1.22188e-06
2.42833e-07
-2.43585e-07
-8.68283e-07
2.28094e-07
-2.3008e-07
8.68352e-07
-2.19146e-07
-2.21443e-07
0.000262092
-1.18534e-06
0.000264057
-0.000262092
2.21247e-07
2.23462e-07
1.92129e-09
0.00107405
-2.38246e-07
1.18268e-06
2.37482e-07
8.65581e-07
-2.30135e-07
-8.65521e-07
2.28068e-07
-1.21658e-06
-1.06784e-09
2.05501e-09
0.00107313
-2.43611e-07
1.21856e-06
2.42771e-07
8.65461e-07
-2.30091e-07
-8.65492e-07
2.27997e-07
0.00107405
-1.16942e-09
-0.00107405
1.90829e-09
-1.18066e-06
2.37484e-07
-2.38244e-07
-8.65514e-07
2.28074e-07
-2.30132e-07
8.65584e-07
1.21856e-06
0.00107313
-1.07369e-09
-0.00107313
2.04535e-09
-1.21657e-06
2.42773e-07
-2.4361e-07
-8.65487e-07
2.28003e-07
-2.30086e-07
8.65464e-07
-1.09523e-09
2.0629e-09
0.00107292
-2.38109e-07
1.21321e-06
2.37283e-07
8.62794e-07
-2.27346e-07
2.2525e-07
-8.62818e-07
-1.21809e-09
-0.00107379
1.84976e-09
-1.18322e-06
2.34753e-07
-2.35435e-07
-8.6282e-07
2.25338e-07
8.62849e-07
-2.27384e-07
1.21321e-06
0.00107292
-1.09458e-09
-0.00107292
2.07703e-09
-1.21124e-06
2.37283e-07
-2.38108e-07
-8.62815e-07
2.25251e-07
-2.27343e-07
8.62793e-07
-2.16617e-07
-2.23944e-07
0.000262054
-1.17994e-06
0.000264007
-0.000262054
2.18622e-07
2.25941e-07
-1.16072e-09
1.93652e-09
0.00107396
-2.35535e-07
1.18004e-06
2.34761e-07
8.62971e-07
-2.30118e-07
2.28061e-07
-8.62925e-07
-1.18052e-09
-0.00107345
1.93573e-09
-1.17792e-06
2.34713e-07
-2.35472e-07
-8.6265e-07
2.27984e-07
8.62735e-07
-2.30045e-07
1.18004e-06
0.00107396
-1.14755e-09
-0.00107396
1.93333e-09
-1.17804e-06
2.34763e-07
-2.35532e-07
-8.62923e-07
2.28061e-07
-2.30116e-07
8.62969e-07
-0.000262066
2.20929e-07
2.26156e-07
1.21652e-06
1.18066e-06
-2.16443e-07
-2.2413e-07
0.000262072
-1.21851e-06
-1.18268e-06
0.000264028
-0.000262072
2.18438e-07
2.26136e-07
2.07322e-09
0.00107302
-2.40864e-07
1.2185e-06
2.40016e-07
8.62777e-07
-2.27339e-07
-8.62775e-07
2.25256e-07
-1.22188e-06
-1.1992e-09
1.9502e-09
0.00107345
-2.43586e-07
1.22392e-06
2.42822e-07
8.68341e-07
-2.30099e-07
-8.6829e-07
2.28062e-07
0.00107302
-1.11916e-09
-0.00107302
2.04164e-09
-1.21652e-06
2.40019e-07
-2.40863e-07
-8.6277e-07
2.2526e-07
-2.27338e-07
8.62782e-07
1.22391e-06
0.00107345
-1.07545e-09
-0.00107345
2.03297e-09
-1.2219e-06
2.42798e-07
-2.43625e-07
-8.68329e-07
2.28037e-07
-2.30147e-07
8.68312e-07
-2.19088e-07
-2.21439e-07
0.000262092
-1.1853e-06
0.000264057
-0.000262092
2.21184e-07
2.23459e-07
1.91507e-09
0.00107405
-2.38244e-07
1.18268e-06
2.37483e-07
8.6558e-07
-2.30137e-07
-8.65522e-07
2.28067e-07
-1.21657e-06
-1.06878e-09
2.05662e-09
0.00107313
-2.43611e-07
1.21856e-06
2.42771e-07
8.65462e-07
-2.3009e-07
-8.65491e-07
2.27997e-07
0.00107405
-1.17519e-09
-0.00107405
1.92194e-09
-1.18067e-06
2.37481e-07
-2.38248e-07
-8.65515e-07
2.28074e-07
-2.30133e-07
8.65585e-07
1.21856e-06
0.00107313
-1.06942e-09
-0.00107313
2.04436e-09
-1.21657e-06
2.42772e-07
-2.43611e-07
-8.65489e-07
2.28002e-07
-2.30087e-07
8.65463e-07
-1.10189e-09
2.07494e-09
0.00107292
-2.3811e-07
1.21321e-06
2.37282e-07
8.62795e-07
-2.27345e-07
2.25251e-07
-8.62817e-07
-1.19006e-09
-0.00107379
1.93843e-09
-1.18326e-06
2.34706e-07
-2.35483e-07
-8.62821e-07
2.25339e-07
8.62855e-07
-2.27391e-07
1.21321e-06
0.00107292
-1.08391e-09
-0.00107292
2.05544e-09
-1.21124e-06
2.37287e-07
-2.38106e-07
-8.62818e-07
2.25249e-07
-2.27345e-07
8.62791e-07
-2.16617e-07
-2.23943e-07
0.000262054
-1.17994e-06
0.000264007
-0.000262054
2.18622e-07
2.25941e-07
-1.15258e-09
1.9312e-09
0.00107396
-2.35534e-07
1.18004e-06
2.34761e-07
8.62971e-07
-2.3012e-07
2.28061e-07
-8.62925e-07
-1.18391e-09
-0.00107345
1.93863e-09
-1.17792e-06
2.34713e-07
-2.35473e-07
-8.6265e-07
2.27985e-07
8.62735e-07
-2.30045e-07
1.18004e-06
0.00107396
-1.14137e-09
-0.00107396
1.93018e-09
-1.17804e-06
2.34761e-07
-2.35533e-07
-8.62925e-07
2.28059e-07
-2.30118e-07
8.62968e-07
-0.000262066
2.20928e-07
2.26158e-07
1.21652e-06
1.18067e-06
-2.16449e-07
-2.24128e-07
0.000262072
-1.21851e-06
-1.18267e-06
0.000264028
-0.000262072
2.18437e-07
2.26137e-07
2.03777e-09
0.00107302
-2.40861e-07
1.21851e-06
2.40021e-07
8.6277e-07
-2.27346e-07
-8.62784e-07
2.25251e-07
-1.2219e-06
-1.08095e-09
2.02089e-09
0.00107345
-2.43619e-07
1.22391e-06
2.428e-07
8.68316e-07
-2.30144e-07
-8.68327e-07
2.28035e-07
0.00107302
-1.11754e-09
-0.00107302
2.04029e-09
-1.21652e-06
2.40021e-07
-2.40862e-07
-8.62772e-07
2.25259e-07
-2.27339e-07
8.62781e-07
1.2239e-06
0.00107345
-1.04058e-09
-0.00107345
2.02564e-09
-1.2219e-06
2.42794e-07
-2.43625e-07
-8.68331e-07
2.28028e-07
-2.3015e-07
8.68307e-07
-2.19148e-07
-2.21443e-07
0.000262092
-1.1853e-06
0.000264057
-0.000262092
2.21181e-07
2.23457e-07
1.93148e-09
0.00107405
-2.38249e-07
1.18267e-06
2.37479e-07
8.65582e-07
-2.30137e-07
-8.65521e-07
2.28069e-07
-1.21658e-06
-1.06496e-09
2.05582e-09
0.00107313
-2.43612e-07
1.21856e-06
2.4277e-07
8.65461e-07
-2.30092e-07
-8.65493e-07
2.27997e-07
0.00107405
-1.17895e-09
-0.00107405
1.93172e-09
-1.18067e-06
2.37478e-07
-2.38251e-07
-8.65515e-07
2.28075e-07
-2.30133e-07
8.65586e-07
1.21856e-06
0.00107313
-1.0683e-09
-0.00107313
2.04531e-09
-1.21658e-06
2.4277e-07
-2.43613e-07
-8.65489e-07
2.28003e-07
-2.30087e-07
8.65464e-07
-1.08691e-09
2.0492e-09
0.00107292
-2.38107e-07
1.21321e-06
2.37286e-07
8.62793e-07
-2.27349e-07
2.25249e-07
-8.62821e-07
-1.1854e-09
-0.00107379
1.93721e-09
-1.18326e-06
2.34706e-07
-2.35481e-07
-8.62821e-07
2.25339e-07
8.62854e-07
-2.27389e-07
1.21322e-06
0.00107292
-1.08282e-09
-0.00107292
2.04315e-09
-1.21123e-06
2.37293e-07
-2.381e-07
-8.62822e-07
2.25245e-07
-2.2735e-07
8.62787e-07
-2.16618e-07
-2.23944e-07
0.000262054
-1.17994e-06
0.000264007
-0.000262054
2.18622e-07
2.2594e-07
-1.13154e-09
1.92541e-09
0.00107396
-2.35537e-07
1.18004e-06
2.34759e-07
8.62967e-07
-2.30124e-07
2.28057e-07
-8.6293e-07
-1.20434e-09
-0.00107345
1.93842e-09
-1.17792e-06
2.34714e-07
-2.35473e-07
-8.62648e-07
2.27988e-07
8.62738e-07
-2.30043e-07
1.18003e-06
0.00107396
-1.05041e-09
-0.00107396
1.91335e-09
-1.17804e-06
2.34757e-07
-2.35538e-07
-8.62937e-07
2.28046e-07
-2.30131e-07
8.62955e-07
-0.000262066
2.20924e-07
2.26161e-07
1.21652e-06
1.18067e-06
-2.1645e-07
-2.24127e-07
0.000262072
-1.21851e-06
-1.18267e-06
0.000264028
-0.000262072
2.18434e-07
2.26136e-07
2.03983e-09
0.00107302
-2.4086e-07
1.21851e-06
2.40022e-07
8.6277e-07
-2.27345e-07
-8.62784e-07
2.25251e-07
-1.2219e-06
-1.03229e-09
2.02615e-09
0.00107345
-2.43625e-07
1.2239e-06
2.42793e-07
8.68304e-07
-2.30157e-07
-8.68336e-07
2.28022e-07
0.00107302
-1.11804e-09
-0.00107302
2.03966e-09
-1.21652e-06
2.40021e-07
-2.40861e-07
-8.62772e-07
2.25259e-07
-2.27339e-07
8.6278e-07
1.2239e-06
0.00107345
-1.02543e-09
-0.00107345
2.0275e-09
-1.22191e-06
2.42793e-07
-2.43626e-07
-8.68335e-07
2.28023e-07
-2.30155e-07
8.68302e-07
-2.19154e-07
-2.21446e-07
0.000262092
-1.1853e-06
0.000264057
-0.000262092
2.21179e-07
2.23455e-07
1.93869e-09
0.00107405
-2.38251e-07
1.18267e-06
2.37477e-07
8.65583e-07
-2.30137e-07
-8.65521e-07
2.28069e-07
-1.21658e-06
-1.06436e-09
2.05586e-09
0.00107313
-2.43614e-07
1.21856e-06
2.42769e-07
8.65461e-07
-2.30091e-07
-8.65493e-07
2.27997e-07
0.00107405
-1.1735e-09
-0.00107405
1.93942e-09
-1.18067e-06
2.37475e-07
-2.38254e-07
-8.65516e-07
2.28073e-07
-2.30134e-07
8.65585e-07
1.21856e-06
0.00107313
-1.06006e-09
-0.00107313
2.04728e-09
-1.21658e-06
2.42769e-07
-2.43615e-07
-8.6549e-07
2.28001e-07
-2.30088e-07
8.65462e-07
-1.09225e-09
2.03887e-09
0.00107292
-2.381e-07
1.21322e-06
2.37293e-07
8.62789e-07
-2.27353e-07
2.25244e-07
-8.62825e-07
-1.17902e-09
-0.00107379
1.93549e-09
-1.18326e-06
2.34705e-07
-2.35482e-07
-8.62822e-07
2.25338e-07
8.62852e-07
-2.27389e-07
1.21322e-06
0.00107292
-1.0814e-09
-0.00107292
2.03806e-09
-1.21123e-06
2.37296e-07
-2.38097e-07
-8.62824e-07
2.25243e-07
-2.27351e-07
8.62785e-07
-2.16618e-07
-2.23945e-07
0.000262054
-1.17994e-06
0.000264007
-0.000262054
2.1862e-07
2.25938e-07
-1.04314e-09
1.91072e-09
0.00107396
-2.3554e-07
1.18003e-06
2.34755e-07
8.62955e-07
-2.30137e-07
2.28044e-07
-8.62942e-07
-1.20621e-09
-0.00107345
1.94157e-09
-1.17792e-06
2.34713e-07
-2.35474e-07
-8.62647e-07
2.27988e-07
8.62738e-07
-2.30041e-07
1.18003e-06
0.00107396
-1.03611e-09
-0.00107396
1.92025e-09
-1.17805e-06
2.34755e-07
-2.3554e-07
-8.62941e-07
2.28042e-07
-2.30136e-07
8.62951e-07
-0.000262066
2.20923e-07
2.26162e-07
1.21652e-06
1.18067e-06
-2.16453e-07
-2.24128e-07
0.000262072
-1.21851e-06
-1.18267e-06
0.000264028
-0.000262072
2.18435e-07
2.26137e-07
2.04034e-09
0.00107302
-2.4086e-07
1.21851e-06
2.40021e-07
8.62768e-07
-2.27347e-07
-8.62785e-07
2.2525e-07
-1.22191e-06
-1.02033e-09
2.02899e-09
0.00107345
-2.43625e-07
1.2239e-06
2.42793e-07
8.68301e-07