/*--------------------------------*- C++ -*----------------------------------*\
| =========                 |                                                 |
| \\      /  F ield         | OpenFOAM: The Open Source CFD Toolbox           |
|  \\    /   O peration     | Version:  2206                                  |
|   \\  /    A nd           | Website:  www.openfoam.com                      |
|    \\/     M anipulation  |                                                 |
\*---------------------------------------------------------------------------*/
FoamFile
{
    version     2.0;
    format      ascii;
    arch        "LSB;label=32;scalar=64";
    class       volScalarField;
    location    "12";
    object      nut;
}
// * * * * * * * * * * * * * * * * * * * * * * * * * * * * * * * * * * * * * //

dimensions      [0 2 -1 0 0 0 0];

internalField   nonuniform List<scalar> 
28448
(
0.000231072
0.000224364
0.000224359
0.000214614
0.000231072
0.000224362
0.000224356
0.000214608
0.000231056
0.000224337
0.000224319
0.000214544
0.000231056
0.000224317
0.000224317
0.000214533
0.000231061
0.000224321
0.000224318
0.000214528
0.000231061
0.000224321
0.000224319
0.00021453
0.000231061
0.000224321
0.000224319
0.00021453
0.000231061
0.000224321
0.000224319
0.00021453
0.000231061
0.000224321
0.000224319
0.00021453
0.000231061
0.000224321
0.000224319
0.00021453
0.000231061
0.000224321
0.000224318
0.00021453
0.000231061
0.000224321
0.000224318
0.00021453
0.000231061
0.000224321
0.000224319
0.00021453
0.000231061
0.000224321
0.000224318
0.00021453
0.000231061
0.000224321
0.000224318
0.00021453
0.000231061
0.000224321
0.000224319
0.00021453
0.000231061
0.000224321
0.000224318
0.00021453
0.000231063
0.000224321
0.0002147
0.000224358
0.000224357
0.000214702
0.000224361
0.000224352
0.000224364
0.000224356
0.000214693
0.00022436
0.00022436
0.000214696
0.00021462
0.000214693
0.000224358
0.000224357
0.000224358
0.000224357
0.000214622
0.000214694
0.000224361
0.000224353
0.000224361
0.000224352
0.000224357
0.000224363
0.000224356
0.000214614
0.000214686
0.00022436
0.000224356
0.000224359
0.00021469
0.000214614
0.000214677
0.000224356
0.000224355
0.000224349
0.000224348
0.000214615
0.000214679
0.000224359
0.000224351
0.000224353
0.000224333
0.000224355
0.000224353
0.000224337
0.000214607
0.000214654
0.000224359
0.000224341
0.00022434
0.000214656
0.000214586
0.000214604
0.000224337
0.000224336
0.000224308
0.000224307
0.000214588
0.000214606
0.00022434
0.000224312
0.000224311
0.000224307
0.000224315
0.000224313
0.000224311
0.000214547
0.000214609
0.000224318
0.000224314
0.000224314
0.000214611
0.00021453
0.000214617
0.000224312
0.000224311
0.000224315
0.000224314
0.000214531
0.000214619
0.000224315
0.000224311
0.000224318
0.000224311
0.000224314
0.000224321
0.000224315
0.000214534
0.00021461
0.000224318
0.000224318
0.000224318
0.000214611
0.000214537
0.000214615
0.000224316
0.000224315
0.000224316
0.000224315
0.000214538
0.000214617
0.000224319
0.000224311
0.000224319
0.000224311
0.000224315
0.000224321
0.000224315
0.00021453
0.000214611
0.000224318
0.000224319
0.000224318
0.000214613
0.000214537
0.000214614
0.000224316
0.000224315
0.000224316
0.000224315
0.000214539
0.000214616
0.000224319
0.000224312
0.000224319
0.000224311
0.000224315
0.000224322
0.000224315
0.000214533
0.00021461
0.000224319
0.000224319
0.000224318
0.000214612
0.000214536
0.000214614
0.000224316
0.000224315
0.000224316
0.000224315
0.000214537
0.000214616
0.000224319
0.000224312
0.000224319
0.000224311
0.000224315
0.000224322
0.000224315
0.000214532
0.00021461
0.000224319
0.000224319
0.000224318
0.000214612
0.000214536
0.000214614
0.000224316
0.000224315
0.000224316
0.000224315
0.000214537
0.000214616
0.000224319
0.000224312
0.000224319
0.000224311
0.000224315
0.000224322
0.000224315
0.000214532
0.00021461
0.000224319
0.000224319
0.000224318
0.000214612
0.000214535
0.000214614
0.000224316
0.000224315
0.000224316
0.000224315
0.000214537
0.000214616
0.000224319
0.000224312
0.000224319
0.000224311
0.000224315
0.000224322
0.000224315
0.000214532
0.00021461
0.000224319
0.000224319
0.000224318
0.000214612
0.000214535
0.000214614
0.000224316
0.000224315
0.000224316
0.000224315
0.000214537
0.000214616
0.000224319
0.000224312
0.000224319
0.000224311
0.000224315
0.000224322
0.000224315
0.000214532
0.00021461
0.000224319
0.000224319
0.000224318
0.000214612
0.000214535
0.000214614
0.000224316
0.000224315
0.000224316
0.000224315
0.000214537
0.000214616
0.000224319
0.000224312
0.000224319
0.000224311
0.000224315
0.000224322
0.000224315
0.000214532
0.00021461
0.000224319
0.000224319
0.000224318
0.000214612
0.000214535
0.000214614
0.000224316
0.000224315
0.000224316
0.000224315
0.000214537
0.000214616
0.000224319
0.000224312
0.000224319
0.000224311
0.000224315
0.000224322
0.000224315
0.000214532
0.00021461
0.000224319
0.000224319
0.000224318
0.000214612
0.000214535
0.000214614
0.000224316
0.000224315
0.000224316
0.000224315
0.000214537
0.000214616
0.000224319
0.000224312
0.000224319
0.000224311
0.000224315
0.000224322
0.000224315
0.000214532
0.00021461
0.000224319
0.000224319
0.000224318
0.000214612
0.000214535
0.000214614
0.000224316
0.000224315
0.000224316
0.000224315
0.000214537
0.000214616
0.000224319
0.000224312
0.000224319
0.000224311
0.000224315
0.000224322
0.000224315
0.000214532
0.00021461
0.000224319
0.000224319
0.000224318
0.000214612
0.000214535
0.000214614
0.000224316
0.000224315
0.000224316
0.000224315
0.000214537
0.000214616
0.000224319
0.000224312
0.000224319
0.000224311
0.000224315
0.000224322
0.000224315
0.000214532
0.00021461
0.000224319
0.000224319
0.000224318
0.000214612
0.000214535
0.000214614
0.000224316
0.000224315
0.000224316
0.000224315
0.000214537
0.000214616
0.000224319
0.000224312
0.000224319
0.000224311
0.000224315
0.000224322
0.000224315
0.000214532
0.00021461
0.000224319
0.000224319
0.000224318
0.000214612
0.000214535
0.000214613
0.000224316
0.000224315
0.000224317
0.000214537
0.000224319
0.000224312
0.000224319
0.000224311
0.000224315
0.000224316
0.000214532
0.00021461
0.000224319
0.000224318
0.00022432
0.000214617
0.000214546
0.00022432
0.000224312
0.000214532
0.000231072
0.000231073
0.000231072
0.000231072
6.67772e-05
4.65101e-05
6.67606e-05
4.6509e-05
2.59888e-05
2.59877e-05
6.67887e-05
4.65061e-05
6.67731e-05
4.6505e-05
0.000231073
0.000231072
0.000231072
0.000231072
0.000231073
0.000231071
0.000231072
0.000153962
7.99231e-05
0.000229325
0.000224364
0.000153919
7.99603e-05
0.000229325
2.59859e-05
2.59848e-05
0.000153955
0.000229324
7.99325e-05
0.000224357
0.00015391
0.000229322
7.99641e-05
4.30411e-05
4.30326e-05
0.000214694
4.30504e-05
4.30417e-05
6.67847e-05
4.65093e-05
6.67711e-05
4.65085e-05
2.59871e-05
2.59865e-05
6.67941e-05
4.65052e-05
6.67829e-05
4.65044e-05
0.000231073
0.000231071
0.000231071
0.000231067
0.000231067
0.000231057
0.000231057
0.000153963
7.99489e-05
0.000229324
0.000224361
0.00015394
7.99725e-05
0.000229323
2.59846e-05
2.59844e-05
0.000153955
0.000229323
7.99504e-05
0.000224355
0.000153933
0.000229322
7.99699e-05
4.30535e-05
4.3045e-05
0.000214689
4.30582e-05
4.30496e-05
6.67267e-05
4.65115e-05
6.67513e-05
4.65189e-05
2.59884e-05
2.59917e-05
6.67279e-05
4.65076e-05
6.67572e-05
4.65148e-05
0.000231056
0.000231046
0.000231045
0.00023105
0.000231051
0.000231056
0.000231055
0.000153829
7.99247e-05
0.000229296
0.00022432
0.000153873
7.99085e-05
0.000229292
2.5989e-05
2.59899e-05
0.000153821
0.000229291
7.99058e-05
0.000224311
0.000153862
0.00022929
7.98888e-05
4.30279e-05
4.30194e-05
0.000214606
4.30055e-05
4.29966e-05
6.66895e-05
4.65224e-05
6.66786e-05
4.65216e-05
2.59923e-05
2.59921e-05
6.66986e-05
4.65184e-05
6.66888e-05
4.65175e-05
0.000231057
0.000231059
0.000231059
0.000231061
0.000231061
0.00023106
0.00023106
0.000153818
7.98518e-05
0.000229301
0.00022432
0.00015379
7.9871e-05
0.000229303
2.59901e-05
2.59897e-05
0.000153812
0.000229301
7.98539e-05
0.000224318
0.000153781
0.000229303
7.98744e-05
4.2994e-05
4.29854e-05
0.000214619
4.29986e-05
4.29899e-05
6.66895e-05
4.65221e-05
6.66774e-05
4.65214e-05
2.59923e-05
2.59921e-05
6.66986e-05
4.65182e-05
6.66878e-05
4.65174e-05
0.000231061
0.00023106
0.00023106
0.000231061
0.000231061
0.00023106
0.00023106
0.000153818
7.98482e-05
0.000229303
0.000224321
0.00015379
7.98706e-05
0.000229303
2.599e-05
2.59897e-05
0.000153812
0.000229302
7.98531e-05
0.000224319
0.000153784
0.000229303
7.98744e-05
4.29942e-05
4.29857e-05
0.000214614
4.29987e-05
4.29901e-05
6.66895e-05
4.65221e-05
6.66774e-05
4.65214e-05
2.59923e-05
2.59921e-05
6.66987e-05
4.65182e-05
6.66879e-05
4.65174e-05
0.000231061
0.00023106
0.000231061
0.000231061
0.000231061
0.00023106
0.00023106
0.000153818
7.98483e-05
0.000229303
0.000224321
0.00015379
7.98706e-05
0.000229303
2.599e-05
2.59897e-05
0.000153812
0.000229303
7.98531e-05
0.000224319
0.000153784
0.000229303
7.98744e-05
4.29943e-05
4.29857e-05
0.000214614
4.29987e-05
4.299e-05
6.66895e-05
4.65221e-05
6.66774e-05
4.65214e-05
2.59923e-05
2.59921e-05
6.66987e-05
4.65181e-05
6.66879e-05
4.65174e-05
0.000231061
0.00023106
0.00023106
0.000231061
0.000231061
0.00023106
0.00023106
0.000153818
7.98483e-05
0.000229303
0.000224321
0.000153791
7.98706e-05
0.000229303
2.599e-05
2.59897e-05
0.000153811
0.000229303
7.98531e-05
0.000224319
0.000153784
0.000229303
7.98743e-05
4.29943e-05
4.29857e-05
0.000214614
4.29987e-05
4.299e-05
6.66895e-05
4.65221e-05
6.66774e-05
4.65214e-05
2.59923e-05
2.59921e-05
6.66987e-05
4.65181e-05
6.66879e-05
4.65174e-05
0.000231061
0.00023106
0.000231061
0.000231061
0.000231061
0.00023106
0.00023106
0.000153818
7.98483e-05
0.000229303
0.000224321
0.00015379
7.98705e-05
0.000229303
2.599e-05
2.59897e-05
0.000153812
0.000229303
7.98531e-05
0.000224319
0.000153785
0.000229303
7.98743e-05
4.29943e-05
4.29857e-05
0.000214615
4.29987e-05
4.299e-05
6.66895e-05
4.65221e-05
6.66774e-05
4.65214e-05
2.59923e-05
2.59921e-05
6.66987e-05
4.65181e-05
6.66879e-05
4.65174e-05
0.000231061
0.00023106
0.000231061
0.000231061
0.000231061
0.00023106
0.00023106
0.000153818
7.98483e-05
0.000229303
0.000224321
0.00015379
7.98706e-05
0.000229303
2.599e-05
2.59897e-05
0.000153812
0.000229303
7.9853e-05
0.000224319
0.000153785
0.000229303
7.98743e-05
4.29943e-05
4.29857e-05
0.000214614
4.29987e-05
4.299e-05
6.66895e-05
4.65221e-05
6.66774e-05
4.65214e-05
2.59923e-05
2.59921e-05
6.66986e-05
4.65181e-05
6.66879e-05
4.65174e-05
0.000231061
0.00023106
0.000231061
0.000231061
0.000231061
0.00023106
0.00023106
0.000153818
7.98483e-05
0.000229303
0.000224321
0.00015379
7.98706e-05
0.000229304
2.599e-05
2.59897e-05
0.00015381
0.000229303
7.9853e-05
0.000224319
0.000153783
0.000229303
7.98743e-05
4.29943e-05
4.29857e-05
0.000214615
4.29987e-05
4.299e-05
6.66895e-05
4.65221e-05
6.66774e-05
4.65214e-05
2.59923e-05
2.59921e-05
6.66987e-05
4.65181e-05
6.66879e-05
4.65174e-05
0.000231061
0.00023106
0.000231061
0.000231061
0.000231061
0.00023106
0.00023106
0.000153818
7.98483e-05
0.000229303
0.000224321
0.00015379
7.98706e-05
0.000229304
2.599e-05
2.59897e-05
0.000153807
0.000229303
7.9853e-05
0.000224319
0.000153781
0.000229303
7.98743e-05
4.29943e-05
4.29857e-05
0.000214614
4.29987e-05
4.299e-05
6.66895e-05
4.65221e-05
6.66774e-05
4.65214e-05
2.59923e-05
2.59921e-05
6.66986e-05
4.65181e-05
6.66879e-05
4.65174e-05
0.000231061
0.00023106
0.000231061
0.000231061
0.000231061
0.00023106
0.00023106
0.000153818
7.98483e-05
0.000229303
0.000224322
0.00015379
7.98706e-05
0.000229304
2.599e-05
2.59897e-05
0.000153805
0.000229303
7.9853e-05
0.000224319
0.000153778
0.000229303
7.98743e-05
4.29943e-05
4.29857e-05
0.000214614
4.29987e-05
4.299e-05
6.66895e-05
4.65221e-05
6.66774e-05
4.65214e-05
2.59923e-05
2.59921e-05
6.66987e-05
4.65181e-05
6.66879e-05
4.65174e-05
0.000231061
0.00023106
0.000231061
0.000231061
0.000231061
0.00023106
0.00023106
0.000153818
7.98483e-05
0.000229303
0.000224321
0.00015379
7.98706e-05
0.000229304
2.599e-05
2.59897e-05
0.000153805
0.000229303
7.9853e-05
0.000224319
0.000153778
0.000229303
7.98743e-05
4.29943e-05
4.29856e-05
0.000214615
4.29987e-05
4.299e-05
6.66895e-05
4.65221e-05
6.66774e-05
4.65214e-05
2.59923e-05
2.59921e-05
6.66986e-05
4.65181e-05
6.66879e-05
4.65174e-05
0.000231061
0.00023106
0.00023106
0.000231061
0.000231061
0.00023106
0.00023106
0.000153818
7.98483e-05
0.000229303
0.000224321
0.00015379
7.98706e-05
0.000229303
2.599e-05
2.59897e-05
0.000153805
0.000229303
7.9853e-05
0.000224319
0.000153778
0.000229303
7.98742e-05
4.29943e-05
4.29856e-05
0.000214615
4.29987e-05
4.29899e-05
6.66896e-05
4.65221e-05
6.66774e-05
4.65214e-05
2.59923e-05
2.59921e-05
6.66987e-05
4.65181e-05
6.66879e-05
4.65174e-05
0.000231061
0.00023106
0.00023106
0.000231061
0.000231061
0.00023106
0.00023106
0.000153818
7.98483e-05
0.000229303
0.000224321
0.00015379
7.98706e-05
0.000229303
2.599e-05
2.59897e-05
0.000153805
0.000229303
7.9853e-05
0.000224319
0.000153778
0.000229303
7.98743e-05
4.29943e-05
4.29856e-05
0.000214614
4.29987e-05
4.299e-05
6.66895e-05
4.65221e-05
6.66773e-05
4.65214e-05
2.59923e-05
2.59921e-05
6.66986e-05
4.65181e-05
6.66879e-05
4.65174e-05
0.000231061
0.00023106
0.00023106
0.000231061
0.000231061
0.00023106
0.00023106
0.000153818
7.98483e-05
0.000229303
0.000224321
0.00015379
7.98705e-05
0.000229304
2.599e-05
2.59897e-05
0.000153805
0.000229303
7.9853e-05
0.000224319
0.000153778
0.000229303
7.98742e-05
4.29942e-05
4.29856e-05
0.000214614
4.29987e-05
4.29899e-05
6.66895e-05
4.65221e-05
6.66774e-05
4.65214e-05
2.59923e-05
2.59921e-05
6.66986e-05
4.65181e-05
6.66879e-05
4.65174e-05
0.000231061
0.00023106
0.000231061
0.000231061
0.000231063
0.00023106
0.000231061
0.000153818
7.98483e-05
0.000229303
0.000224321
0.00015379
7.98706e-05
0.000229304
2.599e-05
2.59897e-05
0.000153805
0.000229302
7.9853e-05
0.000224319
0.000153778
0.000229303
7.98742e-05
4.29942e-05
4.29856e-05
0.000214614
4.29987e-05
4.29899e-05
4.65181e-05
6.66878e-05
0.000231062
2.599e-05
7.98562e-05
2.59898e-05
2.59882e-05
4.30432e-05
4.3033e-05
4.65095e-05
6.67707e-05
4.65092e-05
6.67713e-05
7.99478e-05
0.000229325
0.000153951
7.99412e-05
0.000229325
0.000153954
2.59889e-05
4.30346e-05
4.3033e-05
2.59894e-05
4.65055e-05
6.67815e-05
7.99288e-05
0.000229326
0.000153971
6.67516e-05
4.6504e-05
4.6505e-05
6.67762e-05
0.000153924
0.000224353
0.000229323
7.99327e-05
0.000229323
7.99065e-05
0.000153949
0.000153923
7.99428e-05
0.000229325
0.000229325
0.000153943
6.67433e-05
4.65081e-05
6.67702e-05
0.000153922
0.000224357
0.000229324
7.99478e-05
0.000229325
7.99185e-05
0.000153945
6.67428e-05
4.65067e-05
4.65076e-05
6.67698e-05
2.59858e-05
2.59878e-05
0.000214619
4.30243e-05
4.30433e-05
4.30129e-05
4.30329e-05
2.59882e-05
2.59899e-05
0.000153914
0.00022436
0.000229324
7.99486e-05
0.000229324
7.99205e-05
0.000153937
0.000153923
0.00022436
0.000229324
7.9942e-05
0.000229324
7.99108e-05
0.000153945
6.67416e-05
4.65065e-05
4.65074e-05
6.67689e-05
6.67503e-05
4.65061e-05
4.6507e-05
6.6775e-05
0.000214622
4.30434e-05
4.30347e-05
4.30329e-05
4.30245e-05
2.59881e-05
2.59898e-05
2.59872e-05
2.59889e-05
2.59897e-05
2.59886e-05
2.5988e-05
2.59869e-05
4.30423e-05
4.30322e-05
0.000214696
4.30496e-05
4.30396e-05
2.59878e-05
2.59885e-05
2.59862e-05
2.59869e-05
0.000214616
4.30567e-05
4.30467e-05
4.30494e-05
4.30394e-05
6.67768e-05
4.65095e-05
6.67639e-05
4.65089e-05
0.000153955
7.9933e-05
0.000229325
0.000224358
0.000153928
7.99632e-05
0.000229325
0.000153955
7.99269e-05
0.000229325
0.000224357
0.000153929
7.99585e-05
0.000229325
6.67705e-05
4.65086e-05
4.65091e-05
6.67823e-05
6.677e-05
4.65084e-05
4.65089e-05
6.67815e-05
0.000153938
0.000224359
7.99734e-05
0.000229325
7.99501e-05
0.000229325
0.00015397
0.000153938
0.000224358
7.99688e-05
0.000229325
7.9945e-05
0.000229325
0.00015397
4.3034e-05
4.30321e-05
0.000214698
4.3041e-05
4.30393e-05
2.59894e-05
2.59881e-05
2.5987e-05
2.59876e-05
0.000214618
4.3048e-05
4.30458e-05
4.3041e-05
4.30385e-05
2.59874e-05
2.59882e-05
0.000153978
7.99158e-05
0.000229326
0.000224361
0.000153951
7.99504e-05
0.000229326
6.67829e-05
4.65041e-05
6.67713e-05
4.65035e-05
0.000153967
0.000229324
7.99181e-05
0.000224353
0.00015393
0.000229324
7.99456e-05
6.67832e-05
4.65046e-05
4.65051e-05
6.67929e-05
0.000153953
0.000224362
7.99603e-05
0.000229326
7.99359e-05
0.000229326
0.000153975
6.67776e-05
4.65032e-05
4.65036e-05
6.67873e-05
0.000153948
0.000224353
0.000229324
7.99517e-05
0.000229324
7.99298e-05
0.000153972
6.6776e-05
4.65084e-05
6.67636e-05
4.65078e-05
0.000153964
0.000229325
7.99358e-05
0.000224357
0.000153927
0.000229325
7.99633e-05
6.67757e-05
4.65068e-05
6.67632e-05
4.65062e-05
0.000153944
0.000224364
7.99699e-05
0.000229325
7.99459e-05
0.000229325
0.000153968
6.67692e-05
4.65073e-05
4.65079e-05
6.67799e-05
0.000153945
0.000224357
0.000229324
7.99698e-05
0.000229325
7.99487e-05
0.000153968
6.67688e-05
4.65059e-05
4.65063e-05
6.67793e-05
4.30234e-05
4.30429e-05
0.00021469
4.30308e-05
4.30503e-05
2.59882e-05
2.59873e-05
2.59843e-05
2.59849e-05
0.00021461
4.30365e-05
4.30562e-05
4.30298e-05
4.30497e-05
2.59869e-05
2.59873e-05
0.000153964
0.000229324
7.99296e-05
0.00022436
0.000153927
0.000229324
7.99573e-05
6.67747e-05
4.65066e-05
6.67621e-05
4.6506e-05
6.67816e-05
4.65062e-05
6.677e-05
4.65056e-05
0.000153935
0.000224356
0.000229323
7.99705e-05
0.000229322
7.99496e-05
0.000153962
0.000153946
0.00022436
0.000229324
7.99638e-05
0.000229324
7.99425e-05
0.000153969
6.67677e-05
4.65057e-05
4.65061e-05
6.67785e-05
6.67762e-05
4.65053e-05
4.65057e-05
6.67856e-05
2.5988e-05
2.59871e-05
2.59872e-05
2.59863e-05
0.000214615
4.30564e-05
4.30477e-05
4.30497e-05
4.30413e-05
2.59867e-05
2.59871e-05
2.59858e-05
2.59863e-05
2.59878e-05
2.59875e-05
2.59862e-05
2.59859e-05
4.3056e-05
4.30458e-05
0.00021469
4.3062e-05
4.30516e-05
2.59881e-05
2.59876e-05
2.59865e-05
2.5986e-05
0.00021461
4.30556e-05
4.30451e-05
4.30605e-05
4.305e-05
6.67838e-05
4.65085e-05
6.67741e-05
4.65083e-05
0.000153971
7.99581e-05
0.000229324
0.000224355
0.00015395
7.99772e-05
0.000229324
0.000153972
7.99531e-05
0.000229324
0.000224354
0.000153951
7.99725e-05
0.000229324
6.67764e-05
4.65095e-05
4.65086e-05
6.67727e-05
6.67756e-05
4.6509e-05
4.65084e-05
6.6773e-05
0.000153944
0.000224353
7.99645e-05
0.000229319
7.99604e-05
0.000229322
0.000153955
0.000153944
0.000224352
7.99599e-05
0.000229319
7.99551e-05
0.000229322
0.000153956
4.30473e-05
4.30443e-05
0.000214691
4.30533e-05
4.30506e-05
2.59875e-05
2.59871e-05
2.59872e-05
2.59866e-05
0.000214611
4.30467e-05
4.30452e-05
4.30515e-05
4.30479e-05
2.59878e-05
2.59873e-05
0.000153971
7.99435e-05
0.000229325
0.000224359
0.000153951
7.99638e-05
0.000229324
6.67875e-05
4.65034e-05
6.67813e-05
4.65034e-05
0.000153966
0.000229323
7.99347e-05
0.00022435
0.00015395
0.000229322
7.99508e-05
6.67865e-05
4.65054e-05
4.65046e-05
6.67783e-05
0.000153944
0.000224357
7.99505e-05
0.000229318
7.99453e-05
0.000229323
0.000153953
6.67777e-05
4.65068e-05
4.65037e-05
6.67624e-05
0.000153937
0.000224346
0.00022931
7.99209e-05
0.000229319
7.99287e-05
0.000153935
6.67793e-05
4.65075e-05
6.67723e-05
4.65072e-05
0.000153961
0.000229323
7.99539e-05
0.000224354
0.000153943
0.000229322
7.9969e-05
6.67785e-05
4.6506e-05
6.67717e-05
4.6506e-05
0.000153934
0.000224359
7.9957e-05
0.000229313
7.99537e-05
0.000229321
0.000153928
6.67676e-05
4.65078e-05
4.65073e-05
6.67516e-05
0.000153932
0.00022435
0.000229308
7.99384e-05
0.000229319
7.99478e-05
0.000153924
6.67667e-05
4.65093e-05
4.65063e-05
6.67504e-05
4.30346e-05
4.30555e-05
0.000214683
4.30384e-05
4.30583e-05
2.59869e-05
2.59868e-05
2.5987e-05
2.59848e-05
0.000214601
4.30214e-05
4.30404e-05
4.30325e-05
4.30535e-05
2.59893e-05
2.5987e-05
0.000153961
0.000229323
7.99477e-05
0.000224357
0.000153943
0.000229321
7.9963e-05
6.67776e-05
4.65058e-05
6.67707e-05
4.65057e-05
6.67848e-05
4.65054e-05
6.67794e-05
4.65054e-05
0.000153925
0.000224352
0.000229308
7.99394e-05
0.000229318
7.9949e-05
0.000153919
0.000153932
0.000224353
0.000229307
7.99324e-05
0.000229318
7.99416e-05
0.000153924
6.67655e-05
4.65091e-05
4.6506e-05
6.67495e-05
6.67742e-05
4.65088e-05
4.65057e-05
6.67564e-05
2.59867e-05
2.59866e-05
2.59859e-05
2.59858e-05
0.000214606
4.304e-05
4.30313e-05
4.30532e-05
4.30447e-05
2.59892e-05
2.59868e-05
2.59884e-05
2.5986e-05
2.59892e-05
2.59925e-05
2.59876e-05
2.59909e-05
4.30472e-05
4.30366e-05
0.000214623
4.30259e-05
4.30156e-05
2.59932e-05
2.59933e-05
2.59915e-05
2.59916e-05
0.000214521
4.30001e-05
4.299e-05
4.30155e-05
4.30053e-05
6.67274e-05
4.65104e-05
6.67557e-05
4.6518e-05
0.00015387
7.99382e-05
0.000229308
0.000224317
0.000153919
7.9917e-05
0.000229292
0.00015387
7.99334e-05
0.000229308
0.000224316
0.00015392
7.99127e-05
0.000229292
6.67063e-05
4.65218e-05
4.65218e-05
6.6692e-05
6.67069e-05
4.65214e-05
4.65212e-05
6.66928e-05
0.000153819
0.000224309
7.98824e-05
0.000229294
7.9888e-05
0.00022929
0.000153818
0.00015382
0.000224308
7.9878e-05
0.000229293
7.98831e-05
0.00022929
0.000153819
4.30382e-05
4.30346e-05
0.000214626
4.30168e-05
4.30162e-05
2.59891e-05
2.59921e-05
2.59921e-05
2.59923e-05
0.000214523
4.29914e-05
4.29892e-05
4.3007e-05
4.30054e-05
2.59928e-05
2.5993e-05
0.000153856
7.99228e-05
0.000229303
0.00022432
0.000153913
7.99032e-05
0.000229291
6.67119e-05
4.65111e-05
6.67428e-05
4.65161e-05
0.000153835
0.000229293
7.98898e-05
0.000224305
0.000153888
0.000229291
7.98718e-05
6.67094e-05
4.65178e-05
4.65178e-05
6.67007e-05
0.000153812
0.000224312
7.98683e-05
0.000229294
7.98734e-05
0.00022929
0.00015382
6.6697e-05
4.6516e-05
4.65164e-05
6.66969e-05
0.0001538
0.000224304
0.000229297
7.98561e-05
0.000229292
7.98464e-05
0.000153818
6.67014e-05
4.65095e-05
6.67307e-05
4.65168e-05
0.000153826
0.000229292
7.9908e-05
0.000224308
0.000153873
0.000229291
7.98885e-05
6.67003e-05
4.65137e-05
6.67294e-05
4.65187e-05
0.0001538
0.000224314
7.98765e-05
0.000229298
7.98792e-05
0.000229294
0.000153816
6.66871e-05
4.65204e-05
4.65202e-05
6.66894e-05
0.000153798
0.000224307
0.000229298
7.98749e-05
0.000229293
7.98653e-05
0.000153816
6.66862e-05
4.65186e-05
4.65189e-05
6.66889e-05
4.30088e-05
4.30298e-05
0.000214601
4.29856e-05
4.30052e-05
2.59912e-05
2.59922e-05
2.59898e-05
2.59901e-05
0.000214518
4.29766e-05
4.29984e-05
4.29785e-05
4.29989e-05
2.59921e-05
2.59923e-05
0.000153826
0.000229291
7.99019e-05
0.000224312
0.000153872
0.00022929
7.98825e-05
6.66994e-05
4.65135e-05
6.67284e-05
4.65184e-05
6.67057e-05
4.65132e-05
6.67359e-05
4.65181e-05
0.000153791
0.000224311
0.000229298
7.98759e-05
0.000229293
7.98658e-05
0.000153809
0.000153798
0.00022431
0.000229298
7.98689e-05
0.000229292
7.9859e-05
0.000153817
6.66851e-05
4.65184e-05
4.65186e-05
6.6688e-05
6.66931e-05
4.65181e-05
4.65183e-05
6.66954e-05
2.59911e-05
2.5992e-05
2.59903e-05
2.59912e-05
0.000214521
4.29985e-05
4.29898e-05
4.29991e-05
4.29904e-05
2.5992e-05
2.59921e-05
2.59911e-05
2.59913e-05
2.59932e-05
2.59931e-05
2.59916e-05
2.59914e-05
4.29974e-05
4.29873e-05
0.000214619
4.29998e-05
4.29897e-05
2.5993e-05
2.59932e-05
2.59914e-05
2.59915e-05
0.000214542
4.3e-05
4.299e-05
4.29976e-05
4.29875e-05
6.66902e-05
4.65214e-05
6.66829e-05
4.65212e-05
0.000153818
7.98632e-05
0.000229299
0.000224315
0.000153795
7.98772e-05
0.000229302
0.000153819
7.98584e-05
0.000229299
0.000224314
0.000153796
7.98727e-05
0.000229302
6.66811e-05
4.65215e-05
4.65217e-05
6.66894e-05
6.66818e-05
4.65211e-05
4.65213e-05
6.66901e-05
0.000153795
0.000224315
7.98767e-05
0.000229303
7.98603e-05
0.000229303
0.000153819
0.000153797
0.000224314
7.98722e-05
0.000229303
7.98553e-05
0.000229303
0.00015382
4.29884e-05
4.29847e-05
0.000214621
4.29909e-05
4.29869e-05
2.59929e-05
2.59927e-05
2.59921e-05
2.59922e-05
0.000214543
4.29912e-05
4.29875e-05
4.29886e-05
4.29835e-05
2.59927e-05
2.59929e-05
0.00015382
7.98478e-05
0.000229299
0.000224318
0.000153798
7.98633e-05
0.000229302
6.66961e-05
4.65161e-05
6.66895e-05
4.65158e-05
0.000153819
0.000229301
7.98372e-05
0.000224311
0.000153796
0.000229302
7.98545e-05
6.66916e-05
4.65175e-05
4.65177e-05
6.66986e-05
0.000153798
0.000224318
7.98629e-05
0.000229303
7.9845e-05
0.000229303
0.000153822
6.66891e-05
4.65157e-05
4.6516e-05
6.66961e-05
0.000153798
0.000224311
0.000229302
7.98543e-05
0.000229302
7.98363e-05
0.00015382
6.6689e-05
4.65205e-05
6.66808e-05
4.65201e-05
0.000153818
0.000229302
7.98571e-05
0.000224315
0.000153795
0.000229303
7.98732e-05
6.66886e-05
4.65187e-05
6.66803e-05
4.65185e-05
0.000153797
0.000224321
7.98705e-05
0.000229303
7.98528e-05
0.000229304
0.000153817
6.66807e-05
4.652e-05
4.65203e-05
6.6689e-05
0.000153797
0.000224315
0.000229303
7.98731e-05
0.000229303
7.98562e-05
0.000153818
6.66802e-05
4.65184e-05
4.65186e-05
6.66886e-05
4.29734e-05
4.2996e-05
0.000214617
4.29773e-05
4.29985e-05
2.59922e-05
2.59921e-05
2.59897e-05
2.59899e-05
0.000214536
4.29774e-05
4.29987e-05
4.2974e-05
4.29962e-05
2.5992e-05
2.59922e-05
0.000153818
0.000229302
7.98508e-05
0.000224318
0.000153795
0.000229303
7.98673e-05
6.66877e-05
4.65185e-05
6.66792e-05
4.65183e-05
6.66951e-05
4.65182e-05
6.66881e-05
4.65179e-05
0.000153789
0.000224319
0.000229303
7.98743e-05
0.000229303
7.98575e-05
0.000153812
0.000153797
0.000224318
0.000229303
7.98671e-05
0.000229303
7.985e-05
0.000153819
6.66793e-05
4.65182e-05
4.65184e-05
6.66883e-05
6.66881e-05
4.65179e-05
4.6518e-05
6.66952e-05
2.5992e-05
2.59919e-05
2.59912e-05
2.59911e-05
0.000214539
4.29987e-05
4.299e-05
4.29962e-05
4.29876e-05
2.59919e-05
2.5992e-05
2.5991e-05
2.59912e-05
2.59931e-05
2.5993e-05
2.59915e-05
2.59914e-05
4.29978e-05
4.29877e-05
0.000214613
4.30001e-05
4.29901e-05
2.5993e-05
2.59931e-05
2.59914e-05
2.59915e-05
0.000214533
4.30001e-05
4.29901e-05
4.29978e-05
4.29878e-05
6.66901e-05
4.65213e-05
6.66818e-05
4.65211e-05
0.000153819
7.98599e-05
0.000229303
0.000224316
0.000153797
7.98767e-05
0.000229303
0.00015382
7.9855e-05
0.000229303
0.000224315
0.000153798
7.98722e-05
0.000229303
6.66812e-05
4.65214e-05
4.65216e-05
6.66895e-05
6.66818e-05
4.65211e-05
4.65213e-05
6.669e-05
0.000153796
0.000224316
7.98768e-05
0.000229303
7.98601e-05
0.000229303
0.000153818
0.000153797
0.000224315
7.98721e-05
0.000229303
7.9855e-05
0.000229303
0.000153819
4.29887e-05
4.29842e-05
0.000214614
4.29911e-05
4.2988e-05
2.59929e-05
2.59927e-05
2.59921e-05
2.59922e-05
0.000214535
4.29912e-05
4.29878e-05
4.29887e-05
4.29845e-05
2.59927e-05
2.59929e-05
0.000153821
7.98447e-05
0.000229303
0.000224319
0.0001538
7.98628e-05
0.000229303
6.66962e-05
4.65159e-05
6.66892e-05
4.65157e-05
0.000153819
0.000229301
7.98362e-05
0.000224311
0.000153797
0.000229301
7.98543e-05
6.66917e-05
4.65175e-05
4.65176e-05
6.66987e-05
0.000153798
0.000224319
7.98629e-05
0.000229303
7.98448e-05
0.000229303
0.000153821
6.66892e-05
4.65157e-05
4.65159e-05
6.66962e-05
0.000153796
0.000224312
0.000229302
7.98543e-05
0.000229302
7.98362e-05
0.000153819
6.6689e-05
4.65202e-05
6.66807e-05
4.652e-05
0.000153817
0.000229302
7.98561e-05
0.000224315
0.000153796
0.000229303
7.98731e-05
6.66886e-05
4.65186e-05
6.66802e-05
4.65184e-05
0.000153797
0.000224321
7.98705e-05
0.000229304
7.98527e-05
0.000229303
0.000153817
6.66807e-05
4.652e-05
4.65202e-05
6.6689e-05
0.000153796
0.000224316
0.000229303
7.98731e-05
0.000229303
7.98561e-05
0.000153818
6.66802e-05
4.65184e-05
4.65185e-05
6.66886e-05
4.2974e-05
4.29963e-05
0.00021461
4.29774e-05
4.29987e-05
2.59921e-05
2.5992e-05
2.59897e-05
2.59899e-05
0.000214531
4.29774e-05
4.29987e-05
4.2974e-05
4.29964e-05
2.5992e-05
2.59921e-05
0.000153818
0.000229302
7.98499e-05
0.000224318
0.000153797
0.000229302
7.98672e-05
6.66885e-05
4.65183e-05
6.668e-05
4.65182e-05
6.66957e-05
4.6518e-05
6.66884e-05
4.65179e-05
0.000153789
0.000224319
0.000229303
7.98744e-05
0.000229303
7.98575e-05
0.000153811
0.000153797
0.000224319
0.000229303
7.98671e-05
0.000229303
7.98499e-05
0.000153819
6.668e-05
4.65182e-05
4.65183e-05
6.66886e-05
6.6689e-05
4.65178e-05
4.6518e-05
6.66961e-05
2.5992e-05
2.59919e-05
2.59911e-05
2.5991e-05
0.000214536
4.29987e-05
4.29901e-05
4.29963e-05
4.29878e-05
2.59919e-05
2.5992e-05
2.5991e-05
2.59911e-05
2.59931e-05
2.5993e-05
2.59915e-05
2.59914e-05
4.29979e-05
4.29877e-05
0.000214616
4.30001e-05
4.299e-05
2.5993e-05
2.59931e-05
2.59914e-05
2.59915e-05
0.000214536
4.30002e-05
4.299e-05
4.29979e-05
4.29877e-05
6.66901e-05
4.65212e-05
6.66818e-05
4.65211e-05
0.000153819
7.986e-05
0.000229303
0.000224316
0.000153796
7.98767e-05
0.000229303
0.00015382
7.9855e-05
0.000229303
0.000224315
0.000153797
7.98722e-05
0.000229303
6.66812e-05
4.65214e-05
4.65216e-05
6.66895e-05
6.66818e-05
4.65211e-05
4.65212e-05
6.669e-05
0.000153796
0.000224316
7.98768e-05
0.000229303
7.98601e-05
0.000229303
0.000153818
0.000153797
0.000224315
7.98722e-05
0.000229303
7.9855e-05
0.000229303
0.000153819
4.29888e-05
4.29841e-05
0.000214617
4.29911e-05
4.29877e-05
2.59929e-05
2.59927e-05
2.59921e-05
2.59922e-05
0.000214537
4.29912e-05
4.29879e-05
4.29887e-05
4.29842e-05
2.59927e-05
2.59929e-05
0.000153821
7.98447e-05
0.000229303
0.000224319
0.000153799
7.98629e-05
0.000229303
6.66962e-05
4.65159e-05
6.66893e-05
4.65157e-05
0.000153819
0.000229302
7.98362e-05
0.000224312
0.000153798
0.000229302
7.98543e-05
6.66917e-05
4.65174e-05
4.65176e-05
6.66987e-05
0.000153799
0.000224319
7.98629e-05
0.000229303
7.98448e-05
0.000229304
0.000153821
6.66893e-05
4.65157e-05
4.65159e-05
6.66962e-05
0.000153796
0.000224312
0.000229302
7.98543e-05
0.000229302
7.98362e-05
0.000153819
6.66891e-05
4.65202e-05
6.66807e-05
4.652e-05
0.000153818
0.000229303
7.98561e-05
0.000224315
0.000153796
0.000229303
7.98731e-05
6.66887e-05
4.65185e-05
6.66803e-05
4.65184e-05
0.000153797
0.000224322
7.98705e-05
0.000229303
7.98527e-05
0.000229303
0.000153817
6.66807e-05
4.652e-05
4.65202e-05
6.66891e-05
0.000153796
0.000224316
0.000229303
7.98731e-05
0.000229303
7.98561e-05
0.000153818
6.66803e-05
4.65184e-05
4.65185e-05
6.66886e-05
4.2974e-05
4.29964e-05
0.000214611
4.29774e-05
4.29987e-05
2.59921e-05
2.5992e-05
2.59897e-05
2.59899e-05
0.000214532
4.29774e-05
4.29987e-05
4.2974e-05
4.29963e-05
2.5992e-05
2.59921e-05
0.000153819
0.000229303
7.98499e-05
0.000224319
0.000153797
0.000229303
7.98672e-05
6.66886e-05
4.65183e-05
6.66801e-05
4.65182e-05
6.66961e-05