/*--------------------------------*- C++ -*----------------------------------*\
| =========                 |                                                 |
| \\      /  F ield         | OpenFOAM: The Open Source CFD Toolbox           |
|  \\    /   O peration     | Version:  2206                                  |
|   \\  /    A nd           | Website:  www.openfoam.com                      |
|    \\/     M anipulation  |                                                 |
\*---------------------------------------------------------------------------*/
FoamFile
{
    version     2.0;
    format      ascii;
    arch        "LSB;label=32;scalar=64";
    class       volScalarField;
    location    "34";
    object      nut;
}
// * * * * * * * * * * * * * * * * * * * * * * * * * * * * * * * * * * * * * //

dimensions      [0 2 -1 0 0 0 0];

internalField   nonuniform List<scalar> 
28688
(
0.000233973
0.000233116
0.000233116
0.000233421
0.000232532
0.000227801
0.0002278
0.000223865
0.000230511
0.000220313
0.00022031
0.000209109
0.000227777
0.000211638
0.000211633
0.000193779
0.000224457
0.000202684
0.000202678
0.000179753
0.000220619
0.000193862
0.000193855
0.000167341
0.000216105
0.000185116
0.000185109
0.000156823
0.000212559
0.000179425
0.000179416
0.00014965
0.000212912
0.000180398
0.000180389
0.000151311
0.000213409
0.000181223
0.000181214
0.000152636
0.000213496
0.000181365
0.000181357
0.000152832
0.000213502
0.000181379
0.00018137
0.000152842
0.000234267
0.000234448
0.000234448
0.000234267
0.000234448
0.000234449
0.000234274
0.000234274
0.000234274
0.000234274
0.000234448
0.000234448
0.000234267
0.000234448
0.000234448
0.000234267
0.000233421
0.000226205
0.000233116
0.000233114
0.00022936
0.000229355
0.000233421
0.000226206
0.000233114
0.000233114
0.000229357
0.000229354
0.000233116
0.000229362
0.000229359
0.000233421
0.000226203
0.000233114
0.000229362
0.000229357
0.000226203
0.000223865
0.000212226
0.000227798
0.000227793
0.000222326
0.000222321
0.000223866
0.000212229
0.000227796
0.000227791
0.000222326
0.000222318
0.000227797
0.000222333
0.000222325
0.000223864
0.000212223
0.000227796
0.00022233
0.000222325
0.000212224
0.000209112
0.000197054
0.000220306
0.0002203
0.000213878
0.000213873
0.000209113
0.00019706
0.000220307
0.000220297
0.000213882
0.000213868
0.000220304
0.000213889
0.000213876
0.000209108
0.00019705
0.000220306
0.000213885
0.000213881
0.000197051
0.000193782
0.0001829
0.000211626
0.00021162
0.000204953
0.000204948
0.000193786
0.000182906
0.000211631
0.000211615
0.000204961
0.000204942
0.000211623
0.000204968
0.00020495
0.000193778
0.000182895
0.000211629
0.000204962
0.000204959
0.000182896
0.000179757
0.000170214
0.000202668
0.000202662
0.00019587
0.000195865
0.00017976
0.000170221
0.000202677
0.000202656
0.000195882
0.000195859
0.000202665
0.000195889
0.000195867
0.000179752
0.00017021
0.000202675
0.000195882
0.000195881
0.00017021
0.000167345
0.00015944
0.000193843
0.000193837
0.000187461
0.000187456
0.00016735
0.000159448
0.000193855
0.00019383
0.000187476
0.000187449
0.00019384
0.000187483
0.000187458
0.000167341
0.000159435
0.000193854
0.000187475
0.000187474
0.000159435
0.000156827
0.000150963
0.000185093
0.000185088
0.000179964
0.000179956
0.000156832
0.000150967
0.000185109
0.000185081
0.000179979
0.000179948
0.00018509
0.000179986
0.00017996
0.000156823
0.000150956
0.000185107
0.000179977
0.000179979
0.000150957
0.000149656
0.000151335
0.000179402
0.000179394
0.00018001
0.000180003
0.000149659
0.00015134
0.000179417
0.000179386
0.000180025
0.000179994
0.000179398
0.000180032
0.000180006
0.000149651
0.000151328
0.000179418
0.000180023
0.000180026
0.000151328
0.000151319
0.000152807
0.000180376
0.000180369
0.000181079
0.000181073
0.000151322
0.000152811
0.000180392
0.000180361
0.000181096
0.000181064
0.000180372
0.000181102
0.000181077
0.000151311
0.000152799
0.000180393
0.000181093
0.000181097
0.000152802
0.000152641
0.000153014
0.000181202
0.000181197
0.000181333
0.000181327
0.000152644
0.000153017
0.000181219
0.000181187
0.00018135
0.000181318
0.0001812
0.000181355
0.000181331
0.000152633
0.000153005
0.00018122
0.000181347
0.000181352
0.00015301
0.000152838
0.00015303
0.000181343
0.000181338
0.000181354
0.000181349
0.00015284
0.000153033
0.000181361
0.000181329
0.000181372
0.00018134
0.000181342
0.000181377
0.000181353
0.000152829
0.000153021
0.000181363
0.000181369
0.000181374
0.000153026
0.000152848
0.00015304
0.000181355
0.000181351
0.000181359
0.00015285
0.000181373
0.000181341
0.000181377
0.000181345
0.000181354
0.000181358
0.000152839
0.000153031
0.000181375
0.000181373
0.000181379
0.000153036
0.00023473
0.000234746
0.000234729
0.000234729
0.000235119
0.000234798
0.000234701
0.000234727
0.000235118
0.000234798
0.000234727
0.000234701
0.000234867
0.000233566
0.000233566
0.000104615
3.87456e-05
0.000129154
3.98201e-05
2.16834e-05
2.28284e-05
0.000104603
3.87416e-05
0.000129154
3.98166e-05
0.000233973
0.000233973
0.000233973
0.000232934
0.000232934
0.000232934
0.000232934
0.00020617
9.36585e-05
0.000233969
0.000231994
0.000222633
8.72378e-05
0.000233611
2.16824e-05
2.28277e-05
0.000206162
0.000233969
9.3658e-05
0.000231994
0.000222643
0.000233611
8.72435e-05
4.77888e-05
4.77768e-05
0.000231347
4.40287e-05
4.40192e-05
7.256e-05
4.24391e-05
8.14005e-05
4.37588e-05
2.47775e-05
2.54613e-05
7.25454e-05
4.24356e-05
8.1399e-05
4.3755e-05
0.000232532
0.000232532
0.000232532
0.000231079
0.000231079
0.000231078
0.000231079
0.000167512
7.94208e-05
0.00023208
0.000226101
0.000180195
7.45431e-05
0.000231379
2.47758e-05
2.54597e-05
0.000167505
0.00023208
7.94137e-05
0.000226099
0.00018019
0.000231378
7.45475e-05
3.91573e-05
3.9147e-05
0.000219594
3.66003e-05
3.65897e-05
5.63268e-05
4.55521e-05
6.10948e-05
4.64065e-05
2.60147e-05
2.61168e-05
5.63366e-05
4.55494e-05
6.10958e-05
4.64036e-05
0.000230511
0.00023051
0.00023051
0.000228541
0.000228542
0.00022854
0.000228541
0.000138625
6.74249e-05
0.000228638
0.000218237
0.000148047
6.35156e-05
0.000227539
2.60125e-05
2.61146e-05
0.000138622
0.000228637
6.74152e-05
0.000218234
0.000148038
0.000227537
6.35121e-05
3.32191e-05
3.32106e-05
0.00020461
3.19856e-05
3.19766e-05
4.69885e-05
4.75047e-05
4.98939e-05
4.7998e-05
2.60508e-05
2.59355e-05
4.69846e-05
4.75015e-05
4.98941e-05
4.79951e-05
0.000227777
0.000227775
0.000227776
0.000225375
0.000225375
0.000225373
0.000225374
0.000117594
5.82043e-05
0.000223705
0.000209395
0.000124564
5.54966e-05
0.000222289
2.60484e-05
2.59333e-05
0.000117589
0.000223704
5.82015e-05
0.00020939
0.000124558
0.000222286
5.54949e-05
3.0616e-05
3.0608e-05
0.000189762
3.03045e-05
3.02967e-05
4.13699e-05
4.85871e-05
4.32758e-05
4.88366e-05
2.56792e-05
2.55163e-05
4.13716e-05
4.85835e-05
4.32751e-05
4.88337e-05
0.000224457
0.000224454
0.000224455
0.000221507
0.000221508
0.000221504
0.000221506
0.000102098
5.18812e-05
0.000217807
0.000200349
0.000107405
5.00837e-05
0.000216156
2.56768e-05
2.55141e-05
0.000102096
0.000217805
5.18805e-05
0.000200342
0.000107399
0.000216152
5.00799e-05
3.01916e-05
3.0185e-05
0.000176338
3.03967e-05
3.03892e-05
3.82137e-05
4.90916e-05
3.91955e-05
4.92025e-05
2.52451e-05
2.50919e-05
3.82173e-05
4.90884e-05
3.91813e-05
4.91994e-05
0.00022062
0.000220616
0.000220618
0.000217439
0.00021744
0.000217435
0.000217437
9.06126e-05
4.77522e-05
0.00021131
0.000191865
9.43931e-05
4.6641e-05
0.000209803
2.52427e-05
2.50899e-05
9.06096e-05
0.000211307
4.77528e-05
0.000191858
9.43855e-05
0.000209799
4.66377e-05
3.10076e-05
3.10013e-05
0.000164698
3.15499e-05
3.15435e-05
3.64709e-05
4.9266e-05
3.70425e-05
4.92585e-05
2.48567e-05
2.4785e-05
3.64601e-05
4.92629e-05
3.70435e-05
4.92554e-05
0.000216106
0.000216101
0.000216103
0.000212969
0.00021297
0.000212964
0.000212967
8.18962e-05
4.54121e-05
0.000204415
0.00018291
8.50028e-05
4.47313e-05
0.000202485
2.48546e-05
2.47829e-05
8.18898e-05
0.000204412
4.54083e-05
0.000182902
8.49986e-05
0.00020248
4.47226e-05
3.25318e-05
3.25261e-05
0.000154247
3.33805e-05
3.33754e-05
3.82424e-05
4.92778e-05
3.74048e-05
4.93671e-05
2.4771e-05
2.47908e-05
3.82415e-05
4.92745e-05
3.74043e-05
4.93637e-05
0.00021256
0.000212555
0.000212557
0.000212717
0.000212717
0.000212712
0.000212715
8.173e-05
4.49145e-05
0.000199194
0.000179356
8.04818e-05
4.53303e-05
0.000199026
2.47688e-05
2.47882e-05
8.17291e-05
0.00019919
4.49165e-05
0.000179347
8.04791e-05
0.000199021
4.53319e-05
3.462e-05
3.46148e-05
0.000150634
3.54609e-05
3.54559e-05
3.9238e-05
4.94719e-05
3.90773e-05
4.94898e-05
2.48106e-05
2.48141e-05
3.92391e-05
4.94687e-05
3.90823e-05
4.94865e-05
0.000212912
0.000212907
0.00021291
0.000213336
0.000213336
0.000213331
0.000213334
8.33367e-05
4.68961e-05
0.000199577
0.000180643
8.28472e-05
4.72755e-05
0.000199797
2.4808e-05
2.48113e-05
8.33388e-05
0.000199574
4.68983e-05
0.000180635
8.28481e-05
0.000199793
4.72737e-05
3.64732e-05
3.64689e-05
0.000152364
3.66878e-05
3.66841e-05
3.93241e-05
4.94978e-05
3.93155e-05
4.94973e-05
2.48151e-05
2.48152e-05
3.93304e-05
4.94946e-05
3.93227e-05
4.94943e-05
0.00021341
0.000213404
0.000213408
0.000213492
0.000213491
0.000213485
0.000213489
8.36098e-05
4.75131e-05
0.000200169
0.000181296
8.35547e-05
4.75337e-05
0.000200216
2.48124e-05
2.48124e-05
8.36125e-05
0.000200167
4.75178e-05
0.000181288
8.35573e-05
0.000200213
4.75374e-05
3.68175e-05
3.68137e-05
0.00015295
3.68199e-05
3.68161e-05
3.93296e-05
4.94984e-05
3.9323e-05
4.94978e-05
2.48152e-05
2.48152e-05
3.93357e-05
4.9495e-05
3.93295e-05
4.94943e-05
0.000213495
0.00021349
0.000213493
0.000213501
0.0002135
0.000213495
0.000213498
8.36358e-05
4.75324e-05
0.000200262
0.000181372
8.36067e-05
4.75454e-05
0.000200266
2.48124e-05
2.48124e-05
8.36386e-05
0.00020026
4.75361e-05
0.000181364
8.36094e-05
0.000200263
4.75488e-05
3.68197e-05
3.68158e-05
0.000153027
3.68218e-05
3.6818e-05
3.93314e-05
4.94985e-05
3.93257e-05
4.94979e-05
2.48152e-05
2.48153e-05
3.93376e-05
4.94949e-05
3.93323e-05
4.94942e-05
0.000213502
0.000213496
0.0002135
0.000213504
0.000213506
0.000213499
0.000213503
8.36449e-05
4.75368e-05
0.00020027
0.00018138
8.36181e-05
4.75478e-05
0.000200271
2.48124e-05
2.48124e-05
8.36475e-05
0.000200267
4.75406e-05
0.000181371
8.36206e-05
0.000200269
4.75513e-05
3.68209e-05
3.6817e-05
0.000153029
3.68226e-05
3.68187e-05
0.000234867
0.000233564
0.000233566
2.32575e-05
0.000214159
2.32564e-05
0.000214162
0.000234434
5.13494e-05
5.13309e-05
0.00022999
0.000229991
0.000235118
0.000234798
0.000234701
0.000234727
0.000235119
0.000234798
0.000234701
0.000234727
0.000234477
4.02625e-05
0.000218814
0.000147782
0.000234477
4.0262e-05
0.000218814
0.000147788
0.000233886
0.000234474
0.000100116
0.00023427
0.000233358
0.000234596
0.00022848
0.000233886
0.000234474
0.000100106
0.00023427
0.000233359
0.000234596
0.000228479
0.000234867
0.000233565
0.000233566
2.32572e-05
0.000214167
0.000234434
5.13419e-05
5.13351e-05
0.000229989
0.000229991
2.32571e-05
0.000214169
0.000235118
0.000234798
0.000234701
0.000234727
0.000235118
0.000234798
0.000234727
0.000234701
0.000234477
4.02593e-05
0.000218815
0.000147755
0.000233886
0.000234474
0.000100094
0.00023427
0.000233359
0.000234596
0.000228477
0.000234477
4.02588e-05
0.000218816
0.000147771
0.000233886
0.000234474
0.00023427
0.000100102
0.000234596
0.000233359
0.000228479
0.00023473
0.000234746
0.000234729
0.000234729
0.00023473
0.000234746
0.000234729
0.000234729
0.00023473
0.000234746
0.000234729
0.000234729
0.000234591
0.000234573
0.000234252
0.000234252
0.000234592
0.000234592
0.000234253
0.000234591
0.000234573
0.000234252
0.000234252
0.000234592
0.000234592
0.000234253
0.000234591
0.000234573
0.000234252
0.000234252
0.000234592
0.000234592
0.000234253
0.000234591
0.000234573
0.000234252
0.000234252
0.000234592
0.000234592
0.000234253
0.000235118
0.000234798
0.000234727
0.000234701
0.000233886
0.000234474
0.000100097
0.00023427
0.000233359
0.000234596
0.000228478
0.000234477
4.026e-05
0.000218817
0.000147773
0.000233886
0.000234474
0.00023427
0.000100112
0.000234596
0.000233359
0.000228479
0.000234477
4.02595e-05
0.000218816
0.000147781
0.000234867
0.000233566
0.000233566
2.32564e-05
0.000214163
0.000234434
5.13345e-05
5.13387e-05
0.000229991
0.000229993
2.32568e-05
0.000214171
0.000235118
0.000234798
0.000234727
0.000234701
0.000233886
0.000234474
0.00023427
0.000100106
0.000234596
0.00023336
0.000228478
0.000233886
0.000234474
0.00023427
0.000100096
0.000234596
0.000233359
0.000228477
0.000234477
4.02591e-05
0.000218818
0.000147757
0.000234477
4.0259e-05
0.000218813
0.000147743
0.000234434
5.13423e-05
5.13299e-05
0.000229992
0.000229992
2.32569e-05
0.00021417
2.32564e-05
0.000214164
2.16838e-05
2.28295e-05
2.16825e-05
2.2828e-05
4.77904e-05
4.77788e-05
0.000231347
4.4034e-05
4.40181e-05
2.44786e-05
2.33078e-05
2.4477e-05
2.33065e-05
0.000229665
4.00888e-05
4.00748e-05
4.30931e-05
4.3081e-05
0.000104628
3.87447e-05
0.00012914
3.98182e-05
0.000206175
9.3669e-05
0.000233969
0.000231993
0.000222628
8.72455e-05
0.000233611
0.000206177
9.36518e-05
0.000233969
0.000231989
0.000222624
8.72326e-05
0.000233611
9.84457e-05
4.1958e-05
4.03821e-05
8.55441e-05
9.84392e-05
4.19564e-05
4.0381e-05
8.55458e-05
0.000200091
0.000230759
8.08349e-05
0.000232681
8.56599e-05
0.000233189
0.000185619
0.000200091
0.000230754
8.0828e-05
0.000232681
8.56428e-05
0.000233189
0.000185622
4.77812e-05
4.77886e-05
0.000231348
4.40236e-05
4.40264e-05
2.16835e-05
2.28296e-05
2.44777e-05
2.33071e-05
0.000229665
4.00801e-05
4.00791e-05
4.30826e-05
4.30906e-05
2.44788e-05
2.33079e-05
0.000206163
9.36473e-05
0.000233969
0.000231991
0.000222629
8.72259e-05
0.000233611
0.000104606
3.87412e-05
0.000129172
3.98159e-05
0.000206164
0.000233969
9.36512e-05
0.000231989
0.000222633
0.000233611
8.72255e-05
9.84462e-05
4.19542e-05
4.03786e-05
8.55358e-05
0.000200092
0.000230756
8.08211e-05
0.000232681
8.56437e-05
0.000233189
0.000185615
9.84468e-05
4.19533e-05
4.03779e-05
8.55345e-05
0.000200091
0.000230753
0.000232681
8.08163e-05
0.000233189
8.56418e-05
0.000185612
0.000104614
3.87421e-05
0.000129159
3.98188e-05
0.000206171
0.000233969
9.36595e-05
0.000231992
0.000222638
0.000233611
8.72408e-05
0.000104612
3.87427e-05
0.000129179
3.98171e-05
0.000200093
0.00023076
8.08305e-05
0.000232682
8.56581e-05
0.000233189
0.00018562
9.84449e-05
4.19565e-05
4.03797e-05
8.55397e-05
0.000200093
0.000230758
0.000232681
8.08359e-05
0.000233189
8.56546e-05
0.000185619
9.84502e-05
4.19553e-05
4.038e-05
8.55409e-05
4.77787e-05
4.77869e-05
0.000231346
4.40177e-05
4.40338e-05
2.16829e-05
2.28285e-05
2.44765e-05
2.33057e-05
0.000229665
4.00725e-05
4.00879e-05
4.30809e-05
4.30893e-05
2.44776e-05
2.33071e-05
0.000206159
0.000233969
9.3646e-05
0.00023199
0.000222638
0.000233611
8.72296e-05
0.00010459
3.87417e-05
0.00012919
3.98173e-05
0.000104586
3.87412e-05
0.000129177
3.98163e-05
0.000200093
0.00023076
0.000232681
8.08358e-05
0.000233189
8.56508e-05
0.000185614
0.000200095
0.000230756
0.000232681
8.08269e-05
0.000233189
8.5642e-05
0.000185613
9.84623e-05
4.19549e-05
4.03796e-05
8.55333e-05
9.84617e-05
4.19542e-05
4.03783e-05
8.5533e-05
2.16833e-05
2.28286e-05
2.16824e-05
2.2828e-05
0.000229665
4.00881e-05
4.00762e-05
4.30936e-05
4.30792e-05
2.44778e-05
2.33074e-05
2.44769e-05
2.33067e-05
2.47782e-05
2.54624e-05
2.47764e-05
2.54607e-05
3.91621e-05
3.91479e-05
0.000219597
3.66032e-05
3.65892e-05
2.59529e-05
2.56215e-05
2.59514e-05
2.56197e-05
0.000216777
3.38561e-05
3.38394e-05
3.57279e-05
3.5714e-05
7.25625e-05
4.2438e-05
8.14028e-05
4.37576e-05
0.000167512
7.94222e-05
0.000232079
0.000226096
0.000180193
7.45451e-05
0.000231378
0.000167514
7.94048e-05
0.000232079
0.000226091
0.000180195
7.45411e-05
0.000231378
6.96023e-05
4.52325e-05
4.41564e-05
6.32668e-05
6.96046e-05
4.52321e-05
4.4155e-05
6.32699e-05
0.000162852
0.000224265
6.86868e-05
0.000229651
7.31458e-05
0.000230569
0.000151933
0.000162856
0.00022426
6.86857e-05
0.000229651
7.31271e-05
0.000230568
0.000151937
3.91505e-05
3.91615e-05
0.000219599
3.65948e-05
3.65936e-05
2.47783e-05
2.54625e-05
2.59524e-05
2.56207e-05
0.000216778
3.38444e-05
3.38519e-05
3.57159e-05
3.57256e-05
2.59533e-05
2.56214e-05
0.000167507
7.94038e-05
0.00023208
0.000226095
0.000180189
7.45361e-05
0.000231377
7.25437e-05
4.24345e-05
8.1398e-05
4.37541e-05
0.000167505
0.000232079
7.94062e-05
0.000226089
0.000180186
0.000231377
7.45272e-05
6.96098e-05
4.52295e-05
4.41531e-05
6.32624e-05
0.000162846
0.000224264
6.86798e-05
0.00022965
7.31282e-05
0.000230569
0.000151936
6.96093e-05
4.52282e-05
4.41511e-05
6.32599e-05
0.000162844
0.000224257
0.000229649
6.86734e-05
0.000230567
7.31273e-05
0.000151931
7.2555e-05
4.24373e-05
8.14034e-05
4.37574e-05
0.000167509
0.000232079
7.94134e-05
0.000226095
0.000180192
0.000231378
7.45473e-05
7.25582e-05
4.24369e-05
8.13974e-05
4.37559e-05
0.000162855
0.00022427
6.86882e-05
0.000229652
7.31433e-05
0.000230569
0.000151936
6.96069e-05
4.52318e-05
4.41545e-05
6.32671e-05
0.000162852
0.000224264
0.000229651
6.86907e-05
0.000230568
7.31328e-05
0.000151933
6.96047e-05
4.52302e-05
4.41535e-05
6.32653e-05
3.915e-05
3.91607e-05
0.000219594
3.65881e-05
3.66005e-05
2.47776e-05
2.5461e-05
2.59504e-05
2.56186e-05
0.000216775
3.38446e-05
3.38519e-05
3.57128e-05
3.57224e-05
2.5952e-05
2.56204e-05
0.000167509
0.000232079
7.94034e-05
0.000226094
0.000180192
0.000231378
7.4539e-05
7.2544e-05
4.24365e-05
8.13986e-05
4.37561e-05
7.25501e-05
4.24353e-05
8.14001e-05
4.37549e-05
0.000162845
0.000224269
0.000229651
6.86908e-05
0.000230569
7.31348e-05
0.000151933
0.000162848
0.000224264
0.00022965
6.86832e-05
0.000230568
7.31248e-05
0.000151936
6.96097e-05
4.52304e-05
4.41535e-05
6.32609e-05
6.96104e-05
4.52291e-05
4.41521e-05
6.32618e-05
2.47776e-05
2.54608e-05
2.47768e-05
2.54601e-05
0.000216775
3.38498e-05
3.384e-05
3.57202e-05
3.57113e-05
2.59519e-05
2.56202e-05
2.59511e-05
2.56194e-05
2.60152e-05
2.61174e-05
2.60135e-05
2.61157e-05
3.3224e-05
3.32131e-05
0.000204613
3.19884e-05
3.19769e-05
2.60824e-05
2.61189e-05
2.60805e-05
2.6117e-05
0.000201356
3.08801e-05
3.08736e-05
3.15722e-05
3.15583e-05
5.63301e-05
4.55514e-05
6.10965e-05
4.64063e-05
0.000138623
6.74245e-05
0.000228637
0.000218228
0.000148046
6.3515e-05
0.000227538
0.000138626
6.74107e-05
0.000228636
0.000218223
0.000148048
6.35086e-05
0.000227538
5.47573e-05
4.73159e-05
4.66565e-05
5.1007e-05
5.47585e-05
4.7316e-05
4.66558e-05
5.10095e-05
0.000135401
0.000216091
5.91322e-05
0.00022507
6.24234e-05
0.000226353
0.000127259
0.000135403
0.000216085
5.91227e-05
0.00022507
6.24175e-05
0.000226353
0.000127262
3.32145e-05
3.32231e-05
0.000204618
3.19801e-05
3.19841e-05
2.60154e-05
2.61177e-05
2.60816e-05
2.61182e-05
0.000201357
3.08755e-05
3.08775e-05
3.15605e-05
3.15725e-05
2.60826e-05
2.61191e-05
0.000138623
6.74126e-05
0.000228637
0.00021823
0.000148038
6.35052e-05
0.000227537
5.63344e-05
4.55473e-05
6.10953e-05
4.64021e-05
0.00013862
0.000228635
6.74102e-05
0.000218219
0.000148037
0.000227536
6.3502e-05
5.47486e-05
4.7313e-05
4.66535e-05
5.10211e-05
0.000135394
0.000216094
5.91212e-05
0.000225069
6.24126e-05
0.000226353
0.000127259
5.47481e-05
4.73116e-05
4.66514e-05
5.10191e-05
0.000135392
0.000216081
0.000225067
5.91199e-05
0.000226351
6.241e-05
0.000127256
5.63278e-05
4.55509e-05
6.10939e-05
4.6406e-05
0.000138622
0.000228636
6.74155e-05
0.000218227
0.000148045
0.000227538
6.35128e-05
5.63263e-05
4.55495e-05
6.10923e-05
4.64043e-05
0.000135402
0.0002161
5.9132e-05
0.000225072
6.24238e-05
0.000226355
0.000127261
5.47562e-05
4.73158e-05
4.66553e-05
5.10075e-05
0.0001354
0.000216089
0.00022507
5.91262e-05
0.000226353
6.24216e-05
0.000127258
5.47549e-05
4.73138e-05
4.66537e-05
5.10063e-05
3.32118e-05
3.32208e-05
0.000204609
3.19768e-05
3.19859e-05
2.60143e-05
2.61164e-05
2.60794e-05
2.6116e-05
0.000201352
3.08699e-05
3.08816e-05
3.15615e-05
3.15668e-05
2.60812e-05
2.61178e-05
0.000138625
0.000228636
6.74079e-05
0.000218229
0.00014804
0.000227537
6.35061e-05
5.63358e-05
4.55494e-05
6.10951e-05
4.6404e-05
5.63368e-05
4.55484e-05
6.1096e-05
4.64033e-05
0.000135394
0.000216097
0.000225069
5.91258e-05
0.000226353
6.24217e-05
0.000127259
0.000135395
0.000216092
0.000225069
5.91202e-05
0.000226352
6.24148e-05
0.000127261
5.47478e-05
4.73135e-05
4.66534e-05
5.10204e-05
5.47486e-05
4.73129e-05
4.66527e-05
5.10213e-05
2.60141e-05
2.61162e-05
2.60133e-05
2.61154e-05
0.000201352
3.08807e-05
3.08725e-05
3.15654e-05
3.15571e-05
2.6081e-05
2.61177e-05
2.60801e-05
2.61168e-05
2.60516e-05
2.59365e-05
2.60494e-05
2.59344e-05
3.06164e-05
3.06088e-05
0.000189766
3.03072e-05
3.02974e-05
2.5736e-05
2.58884e-05
2.57336e-05
2.58858e-05
0.000186549
3.01706e-05
3.01631e-05
3.02103e-05
3.02026e-05
4.699e-05
4.75041e-05
4.98959e-05
4.7998e-05
0.000117593
5.82041e-05
0.000223704
0.000209382
0.000124563
5.5497e-05
0.000222288
0.000117596
5.8198e-05
0.000223703
0.000209377
0.000124565
5.5492e-05
0.000222287
4.61143e-05
4.84919e-05
4.81356e-05
4.39079e-05
4.61155e-05
4.84918e-05
4.81348e-05
4.39097e-05
0.000115316
0.000207171
5.25e-05
0.000219369
5.47367e-05
0.000220849
0.000109344
0.000115318
0.000207166
5.24934e-05
0.000219368
5.47301e-05
0.000220847
0.000109346
3.06108e-05
3.06142e-05
0.000189772
3.02992e-05
3.03063e-05
2.60515e-05
2.59365e-05
2.57347e-05
2.58872e-05
0.000186553
3.01647e-05
3.01694e-05
3.02038e-05
3.02073e-05
2.57357e-05
2.5888e-05
0.000117589
5.81959e-05
0.000223703
0.000209388
0.000124559
5.54891e-05
0.000222286
4.69836e-05
4.74995e-05
4.98931e-05
4.79935e-05
0.000117587
0.0002237
5.81919e-05
0.000209372
0.000124557
0.000222284
5.5485e-05
4.61123e-05
4.8489e-05
4.8132e-05
4.39182e-05
0.00011531
0.000207178
5.24909e-05
0.000219367
5.47276e-05
0.000220848
0.000109343
4.61115e-05
4.8487e-05
4.81301e-05
4.3917e-05
0.000115308
0.00020716
0.000219364
5.24883e-05
0.000220845
5.47228e-05
0.000109341
4.69881e-05
4.75037e-05
4.98939e-05
4.79979e-05
0.000117591
0.000223703
5.82015e-05
0.00020938
0.000124562
0.000222287
5.54951e-05
4.69871e-05
4.75019e-05
4.98928e-05
4.79956e-05
0.000115317
0.000207185
5.24986e-05
0.000219371
5.47344e-05
0.00022085
0.000109344
4.61137e-05
4.84917e-05
4.81344e-05
4.39079e-05
0.000115315
0.000207169
0.000219368
5.24961e-05
0.000220848
5.47331e-05
0.000109342
4.61128e-05
4.84893e-05
4.81324e-05
4.39072e-05
3.06064e-05
3.06168e-05
0.000189762
3.02982e-05
3.03054e-05
2.60504e-05
2.59351e-05
2.57325e-05
2.58848e-05
0.000186545
3.01622e-05
3.01707e-05
3.01994e-05
3.021e-05
2.57344e-05
2.58869e-05
0.000117591
0.000223702
5.81952e-05
0.000209387
0.000124559
0.000222286
5.54896e-05
4.69839e-05
4.75016e-05
4.98935e-05
4.79953e-05
4.69847e-05
4.7501e-05
4.98942e-05
4.79949e-05
0.00011531
0.00020718
0.000219367
5.24958e-05
0.000220848
5.47334e-05
0.000109343
0.000115311
0.000207177
0.000219367
5.2491e-05
0.000220847
5.47274e-05
0.000109345
4.61117e-05
4.8489e-05
4.81321e-05
4.39179e-05
4.61124e-05
4.84886e-05
4.81317e-05
4.39185e-05
2.60502e-05
2.59349e-05
2.60493e-05
2.59339e-05
0.000186546
3.01699e-05
3.01626e-05
3.02089e-05
3.02014e-05
2.57342e-05
2.58867e-05
2.57332e-05
2.58857e-05
2.56804e-05
2.55176e-05
2.56778e-05
2.55152e-05
3.01937e-05
3.01866e-05
0.000176342
3.0397e-05
3.03884e-05
2.52988e-05
2.54589e-05
2.52963e-05
2.54561e-05
0.000173271
3.08479e-05
3.0838e-05
3.0482e-05
3.04774e-05
4.13711e-05
4.85864e-05
4.32773e-05
4.88366e-05
0.000102098
5.18837e-05
0.000217805
0.000200332
0.000107405
5.00841e-05
0.000216154
0.0001021
5.18778e-05
0.000217804
0.000200326
0.000107407
5.00778e-05
0.000216153
4.0978e-05
4.90505e-05
4.8902e-05
3.96062e-05
4.09795e-05
4.90504e-05
4.89017e-05
3.96065e-05
0.000100388
0.000198035
4.81455e-05
0.000212845
4.9584e-05
0.000214473
9.59627e-05
0.000100389
0.00019803
4.81407e-05
0.000212844
4.95778e-05
0.000214472
9.59641e-05
3.01862e-05
3.0196e-05
0.000176349
3.03912e-05
3.03814e-05
2.568e-05
2.55174e-05
2.52974e-05
2.54575e-05
0.000173275
3.084e-05
3.08395e-05
3.04767e-05
3.04849e-05
2.52985e-05
2.54584e-05
0.000102095
5.18742e-05
0.000217805
0.000200341
0.000107399
5.00757e-05
0.000216152
4.13707e-05
4.85815e-05
4.32744e-05
4.88315e-05
0.000102093
0.000217801
5.18707e-05
0.00020032
0.000107397
0.000216149
5.00742e-05
4.0984e-05
4.90475e-05
4.88987e-05
3.95917e-05
0.000100385
0.000198046
4.8138e-05
0.000212843
4.95748e-05
0.000214473
9.5957e-05
4.09828e-05
4.90451e-05
4.88964e-05
3.95916e-05
0.000100383
0.000198023
0.00021284
4.81343e-05
0.000214468
4.95732e-05
9.59558e-05
4.13696e-05
4.85861e-05
4.32756e-05
4.88364e-05
0.000102097
0.000217804
5.18804e-05
0.000200329
0.000107404
0.000216153
5.00801e-05
4.13689e-05
4.85838e-05
4.32749e-05
4.88339e-05
0.000100388
0.000198053
4.81431e-05
0.000212847
4.95828e-05
0.000214476
9.59627e-05
4.0978e-05
4.90502e-05
4.89014e-05
3.96049e-05
0.000100387
0.000198032
0.000212844
4.81428e-05
0.000214473
4.95802e-05
9.59611e-05
4.09774e-05
4.90475e-05
4.88989e-05
3.96044e-05
3.0188e-05
3.0192e-05
0.000176337
3.03806e-05
3.03979e-05
2.56789e-05
2.5516e-05
2.52952e-05
2.54551e-05
0.000173266
3.08353e-05
3.08471e-05
3.04759e-05
3.04828e-05
2.52971e-05
2.54573e-05
0.000102097
0.000217804
5.18751e-05
0.00020034
0.000107399
0.000216153
5.00754e-05
4.13714e-05
4.85836e-05
4.32747e-05
4.88336e-05
4.13719e-05
4.85832e-05
4.32753e-05
4.88334e-05
0.000100386
0.000198047
0.000212843
4.81426e-05
0.000214473
4.95803e-05
9.59578e-05
0.000100386
0.000198044
0.000212844
4.81384e-05
0.000214472
4.95753e-05
9.59585e-05
4.09837e-05
4.90472e-05
4.88986e-05
3.95914e-05
4.09842e-05
4.90471e-05
4.88984e-05
3.95918e-05
2.56787e-05
2.55158e-05
2.56777e-05
2.55147e-05
0.000173266
3.08461e-05
3.08394e-05
3.04821e-05
3.04756e-05
2.5297e-05
2.54571e-05
2.52959e-05
2.5456e-05
2.52466e-05
2.50936e-05
2.52437e-05
2.5091e-05
3.1009e-05
3.10037e-05
0.000164702
3.15498e-05
3.15425e-05
2.48976e-05
2.50393e-05
2.48949e-05
2.50364e-05
0.00016197
3.22534e-05
3.22467e-05
3.17201e-05
3.17157e-05
3.82145e-05
4.90915e-05
3.91959e-05
4.92025e-05
9.06135e-05
4.77558e-05
0.000211307
0.000191845
9.43932e-05
4.6641e-05
0.000209801
9.06147e-05
4.77506e-05
0.000211306
0.000191839
9.43942e-05
4.66359e-05
0.000209799
3.79519e-05
4.92625e-05
4.92219e-05
3.7197e-05
3.79524e-05
4.92626e-05
4.92219e-05
3.71977e-05
8.92467e-05
0.00018974
4.55581e-05
0.000206388
4.63238e-05
0.000208196
8.61374e-05
8.92474e-05
0.000189735
4.5554e-05
0.000206386
4.63186e-05
0.000208194
8.61384e-05
3.10009e-05
3.10068e-05
0.000164709
3.15456e-05
3.15548e-05
2.52459e-05
2.50931e-05
2.48959e-05
2.50376e-05
0.000161975
3.22483e-05
3.22549e-05
3.17157e-05
3.17224e-05
2.48971e-05
2.50387e-05
9.0609e-05
4.7747e-05
0.000211307
0.000191858
9.43851e-05
4.66341e-05
0.000209798
3.82168e-05
4.90861e-05
3.91811e-05
4.9197e-05
9.0608e-05
0.000211302
4.77434e-05
0.000191832
9.43838e-05
0.000209795
4.6633e-05
3.79492e-05
4.92594e-05
4.92187e-05
3.71956e-05
8.92411e-05
0.000189754
4.55525e-05
0.000206385
4.63156e-05
0.000208195
8.61345e-05
3.79488e-05
4.92568e-05
4.92162e-05
3.71955e-05
8.924e-05
0.000189728
0.000206381
4.55515e-05
0.00020819
4.63141e-05
8.61335e-05
3.82131e-05
4.90912e-05
3.91944e-05
4.92023e-05
9.06114e-05
0.000211306
4.77527e-05
0.000191842
9.43923e-05
0.0002098
4.66377e-05
3.82127e-05
4.90885e-05
3.9194e-05
4.91994e-05
8.92467e-05
0.000189762
4.55585e-05
0.00020639
4.63222e-05
0.000208198
8.61371e-05
3.7951e-05
4.92622e-05
4.92215e-05
3.71965e-05
8.92455e-05
0.000189737
0.000206386
4.55556e-05
0.000208195
4.63204e-05
8.6136e-05
3.79506e-05
4.92593e-05
4.92187e-05
3.71962e-05
3.09988e-05
3.10085e-05
0.000164698
3.15492e-05
3.15507e-05
2.52448e-05
2.50919e-05
2.48939e-05
2.50354e-05
0.000161965
3.22489e-05
3.22537e-05
3.17152e-05
3.17209e-05
2.48959e-05
2.50376e-05
9.06106e-05
0.000211306
4.77481e-05
0.000191857
9.43857e-05
0.000209799
4.66335e-05
3.82172e-05
4.90883e-05
3.91809e-05
4.91992e-05
3.82175e-05
4.90881e-05
3.91812e-05
4.91991e-05
8.92421e-05
0.000189754
0.000206385
4.55548e-05
0.000208195
4.63207e-05
8.61354e-05
8.92418e-05
0.000189753
0.000206386
4.5552e-05
0.000208194
4.63161e-05
8.61359e-05
3.7949e-05
4.92591e-05
4.92185e-05
3.71957e-05
3.79492e-05
4.9259e-05
4.92184e-05
3.71959e-05
2.52446e-05
2.50917e-05
2.52435e-05
2.50906e-05
0.000161966
3.2253e-05
3.22473e-05
3.17205e-05
3.17144e-05
2.48957e-05
2.50374e-05
2.48946e-05
2.50363e-05
2.48584e-05
2.47866e-05
2.48556e-05
2.47839e-05
3.2532e-05
3.25275e-05
0.000154253
3.33814e-05
3.33747e-05
2.47699e-05
2.47754e-05
2.47672e-05
2.47727e-05
0.00015189
3.42603e-05
3.42513e-05
3.35579e-05
3.35556e-05
3.6471e-05
4.92661e-05
3.70431e-05
4.92586e-05
8.18972e-05
4.54114e-05
0.000204412
0.000182886
8.5003e-05
4.47262e-05
0.000202482
8.18981e-05
4.54073e-05
0.000204411
0.000182881
8.50037e-05
4.47216e-05
0.000202481
3.63143e-05
4.92564e-05
4.92522e-05
3.71074e-05
3.63147e-05
4.92564e-05
4.92522e-05
3.71076e-05
8.09091e-05
0.000181125
4.48626e-05
0.000199775
4.45531e-05
0.000200876
8.04803e-05
8.09095e-05
0.000181117
4.4859e-05
0.000199773
4.45486e-05
0.000200874
8.04805e-05
3.25273e-05
3.25339e-05
0.00015426
3.33755e-05
3.33807e-05
2.48578e-05
2.47861e-05
2.47683e-05
2.47738e-05
0.000151894
3.42549e-05
3.42497e-05
3.35535e-05
3.35634e-05
2.47693e-05
2.47749e-05
8.18887e-05
4.54057e-05
0.000204412
0.000182903
8.49979e-05
4.47214e-05
0.00020248
3.64597e-05
4.92603e-05
3.70433e-05
4.92527e-05
8.18881e-05
0.000204406
4.54051e-05
0.000182874
8.49969e-05
0.000202475
4.47246e-05
3.63183e-05
4.92532e-05
4.9249e-05
3.7101e-05
8.09074e-05
0.00018114
4.48552e-05
0.000199772
4.45495e-05
0.000200875
8.04747e-05
3.63182e-05
4.92505e-05
4.92464e-05
3.71012e-05
8.09063e-05
0.00018111
0.000199767
4.48531e-05
0.000200869
4.45517e-05
8.04743e-05
3.64699e-05
4.92658e-05
3.70418e-05
4.92583e-05
8.1894e-05
0.000204411
4.54088e-05
0.000182883
8.50021e-05
0.000202481
4.47229e-05
3.64695e-05
4.92628e-05
3.70416e-05
4.92552e-05
8.0909e-05
0.000181148
4.48594e-05
0.000199777
4.45583e-05
0.000200879
8.04787e-05
3.63135e-05
4.92561e-05
4.92519e-05
3.71061e-05
8.09096e-05
0.000181121
0.000199773
4.48599e-05
0.000200875
4.45499e-05
8.0478e-05
3.63132e-05
4.92531e-05
4.92489e-05
3.71061e-05
3.25274e-05
3.25324e-05
0.000154247
3.33747e-05
3.33813e-05
2.48567e-05
2.47849e-05
2.47661e-05
2.47717e-05
0.000151885
3.42439e-05
3.42607e-05
3.35573e-05