/*--------------------------------*- C++ -*----------------------------------*\
| =========                 |                                                 |
| \\      /  F ield         | OpenFOAM: The Open Source CFD Toolbox           |
|  \\    /   O peration     | Version:  2206                                  |
|   \\  /    A nd           | Website:  www.openfoam.com                      |
|    \\/     M anipulation  |                                                 |
\*---------------------------------------------------------------------------*/
FoamFile
{
    version     2.0;
    format      ascii;
    arch        "LSB;label=32;scalar=64";
    class       volVectorField;
    location    "34";
    object      U;
}
// * * * * * * * * * * * * * * * * * * * * * * * * * * * * * * * * * * * * * //

dimensions      [0 1 -1 0 0 0 0];

internalField   nonuniform List<vector> 
28688
(
(0.000107968 0.000107901 0.100299)
(-0.000190207 0.000119277 0.100385)
(0.000119349 -0.000190199 0.100385)
(-0.000239489 -0.000239508 0.100397)
(9.40784e-05 9.40304e-05 0.10086)
(-0.000158893 9.68402e-05 0.100941)
(9.68474e-05 -0.000158891 0.100941)
(-0.000200903 -0.000200955 0.100968)
(9.53416e-05 9.53293e-05 0.101371)
(-0.00015594 9.36271e-05 0.101448)
(9.36171e-05 -0.000155948 0.101448)
(-0.000201542 -0.000201593 0.101471)
(9.4526e-05 9.45163e-05 0.101893)
(-0.000152977 9.07556e-05 0.101957)
(9.07677e-05 -0.000152982 0.101957)
(-0.00019807 -0.000198114 0.101965)
(9.14114e-05 9.14082e-05 0.102397)
(-0.000147638 8.63926e-05 0.102446)
(8.64044e-05 -0.000147643 0.102446)
(-0.000190623 -0.00019067 0.102433)
(8.56946e-05 8.56921e-05 0.102882)
(-0.000135974 7.85517e-05 0.102912)
(7.85629e-05 -0.000135983 0.102912)
(-0.000181314 -0.000181361 0.102871)
(6.90254e-05 6.90208e-05 0.103327)
(-0.00011059 6.14402e-05 0.103337)
(6.14501e-05 -0.000110591 0.103337)
(-0.000158187 -0.00015822 0.103266)
(3.79826e-05 3.7963e-05 0.103589)
(-5.36283e-05 3.29918e-05 0.103556)
(3.29994e-05 -5.3628e-05 0.103556)
(-9.43729e-05 -9.4378e-05 0.103466)
(1.34117e-05 1.33945e-05 0.103691)
(-1.87701e-05 1.36463e-05 0.103608)
(1.36571e-05 -1.8768e-05 0.103608)
(-6.25961e-05 -6.26279e-05 0.103482)
(1.40726e-06 1.40949e-06 0.103713)
(-3.15872e-06 2.74652e-06 0.103612)
(2.7464e-06 -3.16487e-06 0.103612)
(-4.87879e-05 -4.88065e-05 0.103473)
(-6.73283e-07 -6.62442e-07 0.103715)
(-6.97421e-07 9.91427e-07 0.103612)
(9.88544e-07 -7.01193e-07 0.103612)
(-4.69425e-05 -4.6957e-05 0.10347)
(-8.43265e-07 -8.36417e-07 0.103715)
(-5.692e-07 8.76579e-07 0.103612)
(8.74316e-07 -5.71136e-07 0.103612)
(-4.68475e-05 -4.68644e-05 0.10347)
(0.000135049 0.000135039 0.100282)
(0.000124255 0.000152883 0.100229)
(-0.000124247 0.000152864 0.100229)
(-0.000135045 0.000135007 0.100282)
(0.000152912 0.000124206 0.100229)
(0.000152884 -0.000124223 0.100229)
(9.08007e-05 9.0749e-05 0.100151)
(-9.07907e-05 9.07464e-05 0.100151)
(9.0775e-05 -9.07951e-05 0.100151)
(-9.07726e-05 -9.07931e-05 0.100151)
(-0.000152907 0.000124203 0.100229)
(-0.000152893 -0.000124219 0.100229)
(0.000135038 -0.000135058 0.100282)
(0.000124207 -0.000152913 0.100229)
(-0.000124203 -0.000152896 0.100229)
(-0.000135047 -0.000135031 0.100282)
(0.000239531 0.00023951 0.100397)
(0.000111583 0.000111455 0.100892)
(0.000119399 0.0001901 0.100385)
(-0.00011935 0.000190141 0.100385)
(8.92437e-05 0.000147457 0.100823)
(-8.92051e-05 0.000147453 0.100823)
(-0.000239541 0.000239459 0.100397)
(-0.000111543 0.000111424 0.100892)
(0.000190243 0.000119296 0.100385)
(0.000190182 -0.000119357 0.100385)
(0.000147432 8.92142e-05 0.100823)
(0.000147466 -8.92353e-05 0.100823)
(-0.000190164 -0.000119361 0.100385)
(-0.000147403 8.92159e-05 0.100823)
(-0.000147424 -8.92291e-05 0.100823)
(0.000239462 -0.000239553 0.100397)
(0.000111535 -0.000111548 0.100892)
(-0.000119329 -0.000190229 0.100385)
(8.92188e-05 -0.000147394 0.100823)
(-8.91984e-05 -0.00014742 0.100823)
(-0.000111533 -0.000111551 0.100892)
(0.00020099 0.000200824 0.100968)
(0.000106159 0.000106081 0.101395)
(9.68538e-05 0.000158947 0.100941)
(-9.68269e-05 0.000158944 0.100941)
(9.43637e-05 0.000156956 0.10132)
(-9.43639e-05 0.000156956 0.10132)
(-0.000200953 0.00020079 0.100968)
(-0.000106152 0.000106072 0.101395)
(0.000158926 9.68336e-05 0.100941)
(0.000158944 -9.68463e-05 0.100942)
(0.00015691 9.43676e-05 0.10132)
(0.000156951 -9.43703e-05 0.10132)
(-0.000158922 -9.68412e-05 0.100941)
(-0.000156907 9.43764e-05 0.10132)
(-0.000156928 -9.43603e-05 0.10132)
(0.000200901 -0.000200963 0.100968)
(0.000106127 -0.000106137 0.101395)
(-9.68294e-05 -0.000158916 0.100942)
(9.43654e-05 -0.000156909 0.10132)
(-9.43714e-05 -0.000156929 0.10132)
(-0.000106139 -0.000106145 0.101395)
(0.000201609 0.000201482 0.101471)
(9.74856e-05 9.74232e-05 0.101893)
(9.36091e-05 0.000155998 0.101448)
(-9.36142e-05 0.000155995 0.101448)
(9.1577e-05 0.00015417 0.101832)
(-9.1567e-05 0.000154161 0.101832)
(-0.0002016 0.000201466 0.101471)
(-9.74653e-05 9.74204e-05 0.101893)
(0.000155948 9.36227e-05 0.101448)
(0.000155989 -9.36175e-05 0.101448)
(0.000154112 9.15787e-05 0.101832)
(0.000154144 -9.15655e-05 0.101832)
(-0.00015597 -9.36113e-05 0.101448)
(-0.000154107 9.15716e-05 0.101832)
(-0.000154145 -9.15675e-05 0.101832)
(0.000201525 -0.000201598 0.101471)
(9.74375e-05 -9.74739e-05 0.101893)
(-9.36249e-05 -0.000155971 0.101448)
(9.15784e-05 -0.000154111 0.101832)
(-9.15689e-05 -0.000154119 0.101832)
(-9.74983e-05 -9.74992e-05 0.101893)
(0.000198101 0.000198001 0.101965)
(8.69027e-05 8.68697e-05 0.102367)
(9.07621e-05 0.000153039 0.101957)
(-9.07503e-05 0.00015303 0.101957)
(8.55317e-05 0.000146509 0.102327)
(-8.55235e-05 0.000146504 0.102327)
(-0.000198091 0.000197983 0.101965)
(-8.68998e-05 8.68636e-05 0.102367)
(0.000152984 9.07645e-05 0.101957)
(0.000153014 -9.07472e-05 0.101957)
(0.000146453 8.55311e-05 0.102327)
(0.000146483 -8.55146e-05 0.102327)
(-0.000153016 -9.07523e-05 0.101957)
(-0.000146449 8.55227e-05 0.102327)
(-0.000146492 -8.5521e-05 0.102327)
(0.000198012 -0.000198106 0.101965)
(8.68718e-05 -8.68995e-05 0.102367)
(-9.07532e-05 -0.000152987 0.101957)
(8.55346e-05 -0.000146451 0.102327)
(-8.55176e-05 -0.000146452 0.102327)
(-8.69345e-05 -8.69369e-05 0.102367)
(0.000190642 0.000190557 0.102433)
(7.89718e-05 7.89382e-05 0.102811)
(8.64003e-05 0.000147698 0.102446)
(-8.63926e-05 0.000147698 0.102446)
(8.03871e-05 0.000139176 0.102798)
(-8.03821e-05 0.000139175 0.102798)
(-0.00019064 0.000190545 0.102433)
(-7.89634e-05 7.89412e-05 0.102811)
(0.000147646 8.63998e-05 0.102446)
(0.000147673 -8.63815e-05 0.102446)
(0.000139117 8.03883e-05 0.102798)
(0.000139147 -8.03684e-05 0.102798)
(-0.000147681 -8.63895e-05 0.102446)
(-0.000139115 8.03797e-05 0.102798)
(-0.000139163 -8.03739e-05 0.102798)
(0.000190557 -0.000190655 0.102433)
(7.89274e-05 -7.89737e-05 0.102811)
(-8.63864e-05 -0.000147641 0.102446)
(8.03929e-05 -0.00013912 0.102798)
(-8.03707e-05 -0.000139114 0.102798)
(-7.9004e-05 -7.90102e-05 0.102811)
(0.000181325 0.000181247 0.102871)
(6.37442e-05 6.3713e-05 0.10322)
(7.85635e-05 0.00013603 0.102912)
(-7.85601e-05 0.000136041 0.102912)
(7.11895e-05 0.000125395 0.103238)
(-7.11681e-05 0.000125372 0.103238)
(-0.000181318 0.00018124 0.102871)
(-6.37345e-05 6.36767e-05 0.10322)
(0.000135984 7.85563e-05 0.102912)
(0.000136008 -7.85444e-05 0.102912)
(0.000125312 7.12e-05 0.103238)
(0.000125353 -7.11598e-05 0.103238)
(-0.000136022 -7.85538e-05 0.102912)
(-0.000125321 7.11818e-05 0.103238)
(-0.000125368 -7.11648e-05 0.103238)
(0.000181234 -0.000181342 0.102871)
(6.36846e-05 -6.37577e-05 0.10322)
(-7.8542e-05 -0.000135975 0.102912)
(7.12044e-05 -0.000125317 0.103238)
(-7.11765e-05 -0.00012531 0.103238)
(-6.37895e-05 -6.38042e-05 0.10322)
(0.000158195 0.000158155 0.103266)
(2.5503e-06 2.62938e-06 0.103462)
(6.14825e-05 0.000110685 0.103337)
(-6.14646e-05 0.000110655 0.103337)
(3.75061e-05 6.42343e-05 0.103525)
(-3.75053e-05 6.42402e-05 0.103525)
(-0.000158217 0.000158143 0.103266)
(-2.5774e-06 2.58337e-06 0.103462)
(0.000110583 6.14698e-05 0.103337)
(0.000110631 -6.14614e-05 0.103337)
(6.42171e-05 3.74524e-05 0.103525)
(6.42444e-05 -3.75016e-05 0.103525)
(-0.000110649 -6.1441e-05 0.103337)
(-6.42098e-05 3.745e-05 0.103525)
(-6.4239e-05 -3.74934e-05 0.103525)
(0.000158151 -0.000158227 0.103266)
(2.61407e-06 -2.54466e-06 0.103462)
(-6.14284e-05 -0.000110572 0.103337)
(3.74473e-05 -6.42152e-05 0.103525)
(-3.74499e-05 -6.41977e-05 0.103525)
(-2.59438e-06 -2.55131e-06 0.103462)
(9.43717e-05 9.43793e-05 0.103466)
(-3.04273e-05 -3.04385e-05 0.103489)
(3.30475e-05 5.36328e-05 0.103556)
(-3.30486e-05 5.36395e-05 0.103556)
(1.85808e-05 2.62881e-05 0.103602)
(-1.85767e-05 2.63099e-05 0.103602)
(-9.43928e-05 9.43311e-05 0.103466)
(3.04419e-05 -3.04397e-05 0.10349)
(5.36353e-05 3.29917e-05 0.103556)
(5.36517e-05 -3.30465e-05 0.103556)
(2.63091e-05 1.85288e-05 0.103602)
(2.63206e-05 -1.85722e-05 0.103602)
(-5.36393e-05 -3.30357e-05 0.103556)
(-2.62948e-05 1.85269e-05 0.103602)
(-2.63026e-05 -1.85713e-05 0.103602)
(9.43746e-05 -9.43911e-05 0.103466)
(-3.04207e-05 3.04508e-05 0.10349)
(-3.29971e-05 -5.36214e-05 0.103556)
(1.85383e-05 -2.62863e-05 0.103602)
(-1.85377e-05 -2.62987e-05 0.103602)
(3.04323e-05 3.04341e-05 0.10349)
(6.26234e-05 6.25721e-05 0.103482)
(-4.65302e-05 -4.65155e-05 0.103481)
(1.36956e-05 1.87706e-05 0.103608)
(-1.36925e-05 1.87928e-05 0.103608)
(4.223e-06 5.16964e-06 0.103612)
(-4.22004e-06 5.18707e-06 0.103612)
(-6.26134e-05 6.25637e-05 0.103482)
(4.65424e-05 -4.65087e-05 0.103481)
(1.87851e-05 1.36514e-05 0.103608)
(1.87956e-05 -1.36904e-05 0.103608)
(5.15903e-06 4.19171e-06 0.103612)
(5.17516e-06 -4.21753e-06 0.103612)
(-1.87852e-05 -1.36892e-05 0.103608)
(-5.14867e-06 4.18436e-06 0.103612)
(-5.18155e-06 -4.21736e-06 0.103612)
(6.25871e-05 -6.26324e-05 0.103482)
(-4.65132e-05 4.65394e-05 0.103481)
(-1.36566e-05 -1.87729e-05 0.103608)
(4.18457e-06 -5.15391e-06 0.103612)
(-4.18841e-06 -5.15384e-06 0.103612)
(4.65087e-05 4.65251e-05 0.103481)
(4.87936e-05 4.87688e-05 0.103473)
(-4.90569e-05 -4.9017e-05 0.103478)
(2.78255e-06 3.18291e-06 0.103612)
(-2.77774e-06 3.19789e-06 0.103612)
(1.16181e-06 9.3165e-07 0.103612)
(-1.1493e-06 9.2806e-07 0.103612)
(-4.87867e-05 4.8764e-05 0.103473)
(4.90648e-05 -4.90296e-05 0.103478)
(3.17028e-06 2.75584e-06 0.103612)
(3.18492e-06 -2.77749e-06 0.103612)
(8.97282e-07 1.13622e-06 0.103612)
(9.20172e-07 -1.14752e-06 0.103612)
(-3.18973e-06 -2.77649e-06 0.103612)
(-8.89928e-07 1.12457e-06 0.103612)
(-9.21011e-07 -1.14572e-06 0.103612)
(4.87694e-05 -4.88108e-05 0.103473)
(-4.90294e-05 4.90673e-05 0.103478)
(-2.7485e-06 -3.16099e-06 0.103612)
(1.12007e-06 -8.91746e-07 0.103612)
(-1.11857e-06 -8.89257e-07 0.103612)
(4.90321e-05 4.90529e-05 0.103478)
(4.69456e-05 4.69447e-05 0.10347)
(-4.91883e-05 -4.91638e-05 0.103478)
(1.02914e-06 7.37431e-07 0.103612)
(-1.01532e-06 7.40127e-07 0.103612)
(9.11201e-07 5.99907e-07 0.103612)
(-9.11411e-07 6.06803e-07 0.103612)
(-4.69429e-05 4.6921e-05 0.10347)
(4.91954e-05 -4.91621e-05 0.103478)
(7.05979e-07 1.00416e-06 0.103612)
(7.27814e-07 -1.0151e-06 0.103612)
(5.75733e-07 8.86254e-07 0.103612)
(6.02665e-07 -9.06957e-07 0.103612)
(-7.26866e-07 -1.01226e-06 0.103612)
(-5.7162e-07 8.83324e-07 0.103612)
(-6.02185e-07 -9.04481e-07 0.103612)
(4.69307e-05 -4.6962e-05 0.10347)
(-4.91615e-05 4.91976e-05 0.103478)
(-9.85345e-07 -6.95061e-07 0.103612)
(8.78969e-07 -5.73005e-07 0.103612)
(-8.76883e-07 -5.7019e-07 0.103612)
(4.91647e-05 4.91833e-05 0.103478)
(4.68511e-05 4.68322e-05 0.10347)
(-4.91816e-05 -4.9158e-05 0.103478)
(9.05917e-07 5.97055e-07 0.103612)
(-9.0482e-07 6.07314e-07 0.103612)
(8.99711e-07 5.8998e-07 0.103612)
(-4.6849e-05 4.68235e-05 0.10347)
(5.74753e-07 8.8229e-07 0.103612)
(5.98183e-07 -9.02405e-07 0.103612)
(5.68217e-07 8.75725e-07 0.103612)
(5.95554e-07 -8.99553e-07 0.103612)
(-5.97243e-07 -8.99194e-07 0.103612)
(-5.97555e-07 -8.95766e-07 0.103612)
(4.68356e-05 -4.68694e-05 0.10347)
(-4.91537e-05 4.91888e-05 0.103478)
(-8.71463e-07 -5.65777e-07 0.103612)
(8.69811e-07 -5.6602e-07 0.103612)
(-8.67924e-07 -5.66348e-07 0.103612)
(4.91557e-05 4.91751e-05 0.103477)
(-3.28086e-07 -3.3077e-07 0.0999987)
(1.68345e-05 1.68291e-05 0.100003)
(-4.47067e-07 1.39454e-05 0.1)
(1.39531e-05 -4.49612e-07 0.1)
(-4.66617e-05 5.72721e-06 0.100008)
(-1.52774e-05 1.55864e-05 0.0999999)
(-0.000127965 6.04339e-05 0.100057)
(-1.31241e-05 -8.63097e-07 0.0999957)
(5.7212e-06 -4.66463e-05 0.100008)
(1.55898e-05 -1.52777e-05 0.0999999)
(-8.61193e-07 -1.3123e-05 0.0999957)
(6.04456e-05 -0.000127894 0.100057)
(-1.87386e-05 -1.87419e-05 0.100003)
(-0.00013504 -8.10307e-05 0.100054)
(-8.10388e-05 -0.00013502 0.100054)
(-3.48644e-05 0.0001368 0.10072)
(0.000177052 0.000387699 0.099423)
(2.40526e-06 0.000304913 0.10052)
(-8.39727e-05 0.000244757 0.0991361)
(-0.00030323 0.000837199 0.0977829)
(-0.00012961 0.000305199 0.0957082)
(0.000136531 -3.50122e-05 0.10072)
(0.000388317 0.000176012 0.0994238)
(0.000305663 2.26806e-06 0.10052)
(0.000244878 -8.38682e-05 0.0991365)
(-0.000107952 0.000107904 0.100299)
(0.000107939 -0.000107949 0.100299)
(-0.000107931 -0.000107958 0.100299)
(9.18709e-05 9.1801e-05 0.100739)
(-9.18263e-05 9.18185e-05 0.100739)
(9.18552e-05 -9.18693e-05 0.100739)
(-9.18345e-05 -9.18793e-05 0.100739)
(-0.000281051 6.39438e-06 0.100753)
(-0.000398224 0.000229155 0.10053)
(-0.000175245 3.7393e-05 0.100332)
(-0.000153195 9.45095e-05 0.100558)
(-0.000358756 1.56415e-05 0.10048)
(-0.000149923 0.000198935 0.100734)
(-0.000152656 3.32651e-05 0.100497)
(0.00083616 -0.000301354 0.0977812)
(0.000305208 -0.000129212 0.0957092)
(6.34582e-06 -0.000280964 0.100752)
(3.74281e-05 -0.000175221 0.100332)
(0.000229252 -0.000398205 0.10053)
(9.44683e-05 -0.000153184 0.100558)
(1.56387e-05 -0.000358631 0.10048)
(3.33149e-05 -0.000152639 0.100497)
(0.000198973 -0.00014992 0.100734)
(-0.000372072 -0.000141374 0.100371)
(-0.000141574 -0.000372318 0.100371)
(-0.000112101 -0.000112177 0.100655)
(1.00886e-05 -7.94241e-05 0.10058)
(-7.96847e-05 1.01083e-05 0.10058)
(-1.66467e-05 0.000199743 0.100861)
(-5.50723e-05 0.000286883 0.0983284)
(-2.03276e-05 0.000208009 0.100783)
(-4.46669e-05 0.000273013 0.097933)
(-0.000149842 0.000312488 0.0926343)
(-0.000137684 0.00027408 0.0909868)
(0.000199665 -1.68076e-05 0.10086)
(0.000287131 -5.49608e-05 0.0983288)
(0.000208052 -2.04658e-05 0.100783)
(0.000273145 -4.45828e-05 0.0979332)
(-9.40321e-05 9.40482e-05 0.10086)
(9.40884e-05 -9.4082e-05 0.10086)
(-9.40661e-05 -9.40803e-05 0.10086)
(9.6523e-05 9.65067e-05 0.101239)
(-9.64947e-05 9.65228e-05 0.101239)
(9.6536e-05 -9.65323e-05 0.101239)
(-9.65294e-05 -9.65263e-05 0.101239)
(-0.000264422 1.32645e-05 0.101151)
(-0.000217625 0.00021404 0.100825)
(-0.000164451 3.10022e-05 0.100897)
(-0.000159997 9.72761e-05 0.101065)
(-0.000297557 1.41216e-05 0.100979)
(-0.00018526 0.000198265 0.100938)
(-0.000168475 3.24679e-05 0.101019)
(0.000312472 -0.000149565 0.0926327)
(0.000274165 -0.000137517 0.0909883)
(1.33362e-05 -0.0002644 0.101151)
(3.10778e-05 -0.000164449 0.100897)
(0.000214108 -0.000217693 0.100825)
(9.72743e-05 -0.000159996 0.101065)
(1.42136e-05 -0.000297521 0.100979)
(3.25366e-05 -0.000168474 0.101019)
(0.000198222 -0.0001852 0.100937)
(-8.28635e-05 -9.63538e-05 0.100451)
(-9.64587e-05 -8.28816e-05 0.100451)
(-0.000112757 -0.000112756 0.101144)
(-8.81293e-05 -8.32985e-05 0.100417)
(-8.34357e-05 -8.81837e-05 0.100416)
(-9.23797e-06 0.000212387 0.100946)
(-2.18476e-05 0.000280324 0.0971465)
(-1.17287e-05 0.000228972 0.100911)
(-1.22869e-05 0.00025877 0.0966986)
(-0.000116373 0.000224599 0.0883996)
(-9.78421e-05 0.000188687 0.0870498)
(0.000212318 -9.35543e-06 0.100946)
(0.000280451 -2.18021e-05 0.0971466)
(0.000229023 -1.18445e-05 0.100912)
(0.000258881 -1.21639e-05 0.0966988)
(-9.53141e-05 9.53454e-05 0.101371)
(9.53541e-05 -9.53508e-05 0.101371)
(-9.53464e-05 -9.53463e-05 0.101371)
(9.49752e-05 9.49647e-05 0.101762)
(-9.49538e-05 9.49878e-05 0.101762)
(9.49997e-05 -9.49809e-05 0.101762)
(-9.4982e-05 -9.49832e-05 0.101762)
(-0.000252185 1.21893e-05 0.101577)
(-0.000220156 0.000190002 0.101037)
(-0.000167435 3.27509e-05 0.101406)
(-0.000154455 9.2483e-05 0.101577)
(-0.000289187 1.21165e-05 0.101416)
(-0.000185025 0.000170091 0.101112)
(-0.000166344 3.25756e-05 0.101537)
(0.000224478 -0.000116141 0.088397)
(0.00018871 -9.77335e-05 0.0870511)
(1.22377e-05 -0.000252172 0.101577)
(3.27922e-05 -0.000167446 0.101407)
(0.000190025 -0.000220196 0.101038)
(9.24805e-05 -0.000154461 0.101577)
(1.217e-05 -0.000289187 0.101416)
(3.2612e-05 -0.000166341 0.101537)
(0.000170034 -0.000184976 0.101112)
(-0.000115016 -9.02921e-05 0.100198)
(-9.03893e-05 -0.000115087 0.100198)
(-0.000102118 -0.000102123 0.101646)
(-0.000113453 -7.33199e-05 0.10007)
(-7.34075e-05 -0.000113531 0.100069)
(-7.28776e-06 0.000213501 0.10094)
(5.57285e-06 0.000256693 0.09587)
(-7.66198e-06 0.000233368 0.100938)
(1.03675e-05 0.000231025 0.0954064)
(-7.75756e-05 0.000149655 0.0849925)
(-5.96602e-05 0.00011939 0.0839505)
(0.000213445 -7.37213e-06 0.100939)
(0.000256789 5.63506e-06 0.09587)
(0.000233437 -7.74671e-06 0.100939)
(0.00023112 1.04197e-05 0.0954066)
(-9.45065e-05 9.45416e-05 0.101892)
(9.45551e-05 -9.45302e-05 0.101893)
(-9.45339e-05 -9.45352e-05 0.101893)
(9.11054e-05 9.11024e-05 0.102272)
(-9.10924e-05 9.11298e-05 0.102272)
(9.11403e-05 -9.11078e-05 0.102272)
(-9.1117e-05 -9.11158e-05 0.102272)
(-0.000241186 1.10959e-05 0.101974)
(-0.000216392 0.000162078 0.101155)
(-0.000166206 3.22325e-05 0.101923)
(-0.000150852 8.92895e-05 0.102081)
(-0.000280467 1.10706e-05 0.101826)
(-0.000178926 0.000142197 0.101199)
(-0.000163995 3.17479e-05 0.102051)
(0.00014947 -7.73775e-05 0.0849898)
(0.000119477 -5.96361e-05 0.0839515)
(1.11329e-05 -0.00024118 0.101974)
(3.22536e-05 -0.000166205 0.101923)
(0.000162117 -0.000216453 0.101155)
(8.93032e-05 -0.000150857 0.102081)
(1.11088e-05 -0.000280481 0.101826)
(3.17638e-05 -0.000163982 0.102051)
(0.00014216 -0.000178873 0.101198)
(-0.00013182 -7.80612e-05 0.0997369)
(-7.8123e-05 -0.000131887 0.0997366)
(-9.31535e-05 -9.31563e-05 0.102132)
(-0.000125089 -6.18596e-05 0.0995522)
(-6.19178e-05 -0.000125156 0.0995515)
(-6.20993e-06 0.000204417 0.100838)
(1.86156e-05 0.000225752 0.0945753)
(-7.11224e-06 0.000229545 0.100866)
(1.95922e-05 0.000198677 0.0941264)
(-4.30368e-05 9.35351e-05 0.0823639)
(-3.53715e-05 7.42288e-05 0.0815697)
(0.000204401 -6.27641e-06 0.100837)
(0.000225786 1.85928e-05 0.0945747)
(0.000229597 -7.16696e-06 0.100867)
(0.000198745 1.97288e-05 0.0941268)
(-9.13995e-05 9.144e-05 0.102397)
(9.1447e-05 -9.14123e-05 0.102397)
(-9.14246e-05 -9.14228e-05 0.102397)
(8.81308e-05 8.81333e-05 0.102766)
(-8.81239e-05 8.81642e-05 0.102766)
(8.81738e-05 -8.81296e-05 0.102766)
(-8.8147e-05 -8.81406e-05 0.102766)
(-0.000226447 1.01436e-05 0.10233)
(-0.000206919 0.00013623 0.101178)
(-0.000159768 3.06322e-05 0.102424)
(-0.000146855 8.60174e-05 0.102564)
(-0.00026869 1.00279e-05 0.102195)
(-0.000168788 0.000118602 0.101196)
(-0.000159785 3.0628e-05 0.102546)
(9.33609e-05 -4.28646e-05 0.0823611)
(7.42189e-05 -3.52663e-05 0.081571)
(1.01654e-05 -0.000226457 0.10233)
(3.06374e-05 -0.00015976 0.102424)
(0.000136267 -0.000206978 0.101178)
(8.60271e-05 -0.000146858 0.102564)
(1.00629e-05 -0.000268692 0.102195)
(3.06298e-05 -0.000159767 0.102546)
(0.000118565 -0.000168745 0.101195)
(-0.000136332 -6.73712e-05 0.0991346)
(-6.7426e-05 -0.000136391 0.0991341)
(-8.47638e-05 -8.47657e-05 0.102592)
(-0.000127539 -5.22438e-05 0.0989132)
(-5.22785e-05 -0.000127594 0.0989122)
(-5.55493e-06 0.000185601 0.100653)
(1.8975e-05 0.00019224 0.0933308)
(-6.99032e-06 0.00022013 0.100706)
(2.05046e-05 0.000164074 0.0929163)
(-2.32047e-05 5.74821e-05 0.0803772)
(-2.32143e-05 4.68703e-05 0.0797637)
(0.000185531 -5.6174e-06 0.100652)
(0.000192225 1.89909e-05 0.0933298)
(0.000220239 -7.01641e-06 0.100707)
(0.000164131 2.05945e-05 0.0929169)
(-8.56869e-05 8.57248e-05 0.102882)
(8.57346e-05 -8.56924e-05 0.102882)
(-8.57086e-05 -8.57039e-05 0.102882)
(7.59364e-05 7.59542e-05 0.103224)
(-7.59306e-05 7.59774e-05 0.103224)
(7.59897e-05 -7.59322e-05 0.103224)
(-7.5962e-05 -7.59481e-05 0.103224)
(-0.000202705 9.02324e-06 0.102645)
(-0.000193522 0.00011359 0.101118)
(-0.000145793 2.8434e-05 0.102903)
(-0.000135285 7.86314e-05 0.103023)
(-0.000252194 9.48033e-06 0.102521)
(-0.000152927 9.98133e-05 0.101115)
(-0.00014364 2.77168e-05 0.103018)
(5.72747e-05 -2.30318e-05 0.0803745)
(4.68605e-05 -2.31006e-05 0.0797652)
(9.05437e-06 -0.0002027 0.102644)
(2.84323e-05 -0.000145782 0.102903)
(0.000113647 -0.000193592 0.101119)
(7.86471e-05 -0.00013529 0.103023)
(9.50355e-06 -0.000252209 0.102521)
(2.77127e-05 -0.000143623 0.103018)
(9.97653e-05 -0.000152878 0.101114)
(-0.00013293 -5.99551e-05 0.0984414)
(-5.99726e-05 -0.000132968 0.0984407)
(-7.29395e-05 -7.29462e-05 0.103025)
(-0.000122035 -4.42992e-05 0.0981988)
(-4.43466e-05 -0.000122085 0.0981975)
(-1.31858e-05 0.000137935 0.10038)
(8.36899e-06 0.00015143 0.0921882)
(-1.39404e-05 0.000194756 0.100469)
(-4.51997e-06 8.79677e-05 0.0918375)
(2.572e-05 2.47806e-05 0.078889)
(3.16043e-05 2.08972e-06 0.0786879)
(0.000137889 -1.32593e-05 0.100379)
(0.000151376 8.37325e-06 0.0921872)
(0.000194817 -1.3997e-05 0.10047)
(8.79789e-05 -4.5167e-06 0.0918382)
(-6.902e-05 6.90392e-05 0.103327)
(6.90486e-05 -6.9035e-05 0.103327)
(-6.90438e-05 -6.90403e-05 0.103327)
(4.47025e-05 4.46952e-05 0.103543)
(-4.46975e-05 4.4686e-05 0.103543)
(4.47035e-05 -4.4705e-05 0.103543)
(-4.47053e-05 -4.47148e-05 0.103543)
(-0.0001384 3.72991e-06 0.102879)
(-0.000162781 8.30131e-05 0.100992)
(-0.000124034 2.2654e-05 0.10334)
(-9.30694e-05 5.12222e-05 0.103419)
(-0.000221134 4.57946e-06 0.102797)
(-9.51956e-05 5.30411e-05 0.100958)
(-0.00010576 1.94292e-05 0.103426)
(2.46414e-05 2.58063e-05 0.0788864)
(2.19631e-06 3.15512e-05 0.0786895)
(3.74669e-06 -0.000138391 0.102879)
(2.26619e-05 -0.000124021 0.10334)
(8.30629e-05 -0.000162836 0.100992)
(5.12226e-05 -9.30847e-05 0.10342)
(4.61259e-06 -0.000221143 0.102797)
(1.94365e-05 -0.000105743 0.103426)
(5.29881e-05 -9.51696e-05 0.100957)
(-0.000116727 -3.44877e-05 0.0977106)
(-3.4522e-05 -0.000116757 0.0977096)
(-3.29766e-05 -3.28993e-05 0.103383)
(-6.88489e-05 -1.15833e-05 0.0974917)
(-1.15853e-05 -6.88722e-05 0.0974902)
(1.80967e-06 -2.56947e-07 0.100192)
(-2.32081e-05 4.48655e-05 0.0914412)
(-3.90741e-07 5.28775e-05 0.100215)
(-2.05994e-05 1.17051e-05 0.0913973)
(-8.90326e-07 -3.19419e-06 0.0786193)
(-3.40116e-06 -7.93746e-06 0.0786801)
(-3.14772e-07 1.76842e-06 0.100192)
(4.48216e-05 -2.32131e-05 0.0914403)
(5.29637e-05 -4.27505e-07 0.100216)
(1.17279e-05 -2.061e-05 0.0913981)
(-3.79707e-05 3.7958e-05 0.103589)
(3.79788e-05 -3.79821e-05 0.103589)
(-3.79785e-05 -3.79885e-05 0.103589)
(1.89657e-05 1.89451e-05 0.103676)
(-1.89585e-05 1.89475e-05 0.103676)
(1.89626e-05 -1.89672e-05 0.103676)
(-1.89665e-05 -1.89743e-05 0.103676)
(-1.37619e-05 3.55776e-06 0.102892)
(-6.1954e-05 2.10943e-05 0.100794)
(-5.75715e-05 1.27108e-05 0.103587)
(-4.41098e-05 2.85634e-05 0.103577)
(-7.8014e-05 3.02925e-06 0.102897)
(-9.67745e-06 3.41802e-07 0.100761)
(-4.62243e-05 1.10526e-05 0.103617)
(-3.32185e-06 -8.08663e-07 0.0786164)
(-7.77667e-06 -3.47467e-06 0.0786814)
(3.58682e-06 -1.376e-05 0.102892)
(1.27324e-05 -5.75676e-05 0.103587)
(2.11538e-05 -6.19717e-05 0.100795)
(2.85741e-05 -4.41071e-05 0.103577)
(3.0593e-06 -7.80182e-05 0.102897)
(1.10756e-05 -4.62213e-05 0.103617)
(3.15571e-07 -9.5788e-06 0.10076)
(-2.61489e-05 -8.16626e-07 0.0972001)
(-7.87954e-07 -2.61481e-05 0.0971992)
(1.59332e-05 1.5961e-05 0.103486)
(-4.43878e-06 1.28252e-05 0.0971391)
(1.28437e-05 -4.45109e-06 0.0971376)
(-3.80735e-07 -1.0611e-05 0.100145)
(-5.40953e-06 1.06912e-05 0.0913527)
(-3.49576e-07 9.01196e-06 0.100133)
(-3.56257e-06 -6.14664e-06 0.0913819)
(-4.71504e-06 1.69855e-06 0.0786851)
(1.19037e-06 -3.61697e-06 0.0787176)
(-1.0684e-05 -3.85623e-07 0.100144)
(1.06747e-05 -5.4971e-06 0.0913518)
(9.079e-06 -3.34307e-07 0.100134)
(-6.09037e-06 -3.5452e-06 0.0913827)
(-1.34072e-05 1.33963e-05 0.103691)
(1.34097e-05 -1.34133e-05 0.103691)
(-1.34137e-05 -1.34204e-05 0.103691)
(3.00486e-06 3.00362e-06 0.103711)
(-3.00509e-06 3.0024e-06 0.103711)
(3.00658e-06 -3.00617e-06 0.103711)
(-3.01252e-06 -3.01417e-06 0.103711)
(1.22259e-05 7.23937e-07 0.102858)
(-2.34508e-05 5.68037e-06 0.100654)
(-1.93471e-05 5.0104e-06 0.103666)
(-1.27306e-05 9.53522e-06 0.103611)
(-2.63982e-05 1.31791e-06 0.102857)
(1.209e-05 -4.67367e-06 0.100668)
(-1.31985e-05 3.30201e-06 0.103673)
(1.591e-06 -4.63767e-06 0.0786819)
(-3.49161e-06 1.13303e-06 0.0787187)
(7.38699e-07 1.22391e-05 0.102858)
(5.02345e-06 -1.93491e-05 0.103666)
(5.73834e-06 -2.34987e-05 0.100655)
(9.54193e-06 -1.27315e-05 0.103611)
(1.33302e-06 -2.64108e-05 0.102857)
(3.31072e-06 -1.31956e-05 0.103673)
(-4.70405e-06 1.21628e-05 0.100667)
(-7.22231e-06 -3.18084e-06 0.0970242)
(-3.1522e-06 -7.22923e-06 0.0970233)
(4.10665e-05 4.10791e-05 0.103485)
(3.29613e-06 6.61867e-06 0.0970346)
(6.61628e-06 3.28775e-06 0.0970332)
(7.89424e-09 -1.01444e-05 0.100137)
(2.96743e-07 7.28532e-06 0.0913549)
(-3.08141e-07 9.75254e-06 0.100117)
(-1.27053e-06 -6.90399e-06 0.0913826)
(-2.22218e-06 3.15763e-06 0.0786918)
(2.09098e-06 -3.07931e-06 0.0787192)
(-1.02235e-05 -5.3019e-09 0.100136)
(7.24957e-06 2.51573e-07 0.0913539)
(9.82959e-06 -2.85642e-07 0.100117)
(-6.85515e-06 -1.24434e-06 0.0913836)
(-1.40709e-06 1.40587e-06 0.103713)
(1.41048e-06 -1.40762e-06 0.103713)
(-1.41509e-06 -1.4151e-06 0.103713)
(-4.94788e-07 -4.83562e-07 0.103715)
(4.96726e-07 -4.91027e-07 0.103715)
(-4.89286e-07 4.97446e-07 0.103715)
(4.88776e-07 4.91773e-07 0.103715)
(1.63805e-05 1.21636e-07 0.10285)
(-1.69273e-05 4.51935e-06 0.100624)
(-3.4272e-06 5.29437e-07 0.103681)
(-1.95633e-06 1.87841e-06 0.103612)
(-1.79317e-05 -1.13938e-07 0.10284)
(1.51429e-05 -5.119e-06 0.100656)
(-2.18475e-06 1.827e-07 0.103681)
(3.03795e-06 -2.14282e-06 0.0786885)
(-2.95905e-06 2.02975e-06 0.0787202)
(1.31965e-07 1.63926e-05 0.102849)
(5.30044e-07 -3.42712e-06 0.103681)
(4.56747e-06 -1.69933e-05 0.100625)
(1.87471e-06 -1.95878e-06 0.103612)
(-1.15054e-07 -1.79443e-05 0.10284)
(1.81439e-07 -2.17996e-06 0.103681)
(-5.16896e-06 1.51988e-05 0.100655)
(-5.03926e-06 -5.81526e-06 0.0969932)
(-5.7989e-06 -5.03409e-06 0.0969923)
(4.84999e-05 4.85192e-05 0.103479)
(4.30022e-06 5.68961e-06 0.0970226)
(5.68577e-06 4.29289e-06 0.0970212)
(8.54947e-08 -1.01497e-05 0.100136)
(7.09397e-07 7.21761e-06 0.091355)
(-1.12452e-07 9.75917e-06 0.100115)
(-1.20212e-06 -6.93331e-06 0.0913827)
(-2.10974e-06 3.15492e-06 0.0786917)
(2.1212e-06 -3.08825e-06 0.0787193)
(-1.02278e-05 7.45903e-08 0.100135)
(7.14094e-06 5.93618e-07 0.0913539)
(9.83722e-06 -1.06939e-07 0.100115)
(-6.87314e-06 -1.14659e-06 0.0913837)
(6.76155e-07 -6.70705e-07 0.103715)
(-6.68181e-07 6.76666e-07 0.103715)
(6.68178e-07 6.71426e-07 0.103715)
(-8.33591e-07 -8.25485e-07 0.103715)
(8.31704e-07 -8.26206e-07 0.103715)
(-8.25628e-07 8.33042e-07 0.103715)
(8.25622e-07 8.28265e-07 0.103715)
(1.67359e-05 1.31901e-07 0.102849)
(-1.62279e-05 4.5031e-06 0.100622)
(-8.96094e-07 -1.73007e-07 0.103682)
(-6.16929e-07 9.27112e-07 0.103612)
(-1.69464e-05 -1.57586e-07 0.102838)
(1.54236e-05 -5.09116e-06 0.100656)
(-7.96175e-07 -1.96175e-07 0.103682)
(3.03515e-06 -2.0381e-06 0.0786885)
(-2.96481e-06 2.05525e-06 0.0787203)
(1.41264e-07 1.67473e-05 0.102848)
(-1.75926e-07 -8.9386e-07 0.103682)
(4.54755e-06 -1.62887e-05 0.100623)
(9.2277e-07 -6.19104e-07 0.103612)
(-1.60543e-07 -1.69634e-05 0.102838)
(-1.99195e-07 -7.90425e-07 0.103682)
(-5.13958e-06 1.5482e-05 0.100654)
(-4.81186e-06 -5.84e-06 0.0969916)
(-5.82744e-06 -4.8065e-06 0.0969907)
(4.91458e-05 4.91647e-05 0.103478)
(4.37405e-06 5.6934e-06 0.0970222)
(5.68831e-06 4.36695e-06 0.0970208)
(8.54667e-08 -1.01391e-05 0.100136)
(6.45331e-07 7.21022e-06 0.0913551)
(-1.12494e-07 9.76861e-06 0.100115)
(-1.18347e-06 -6.92301e-06 0.0913827)
(-2.10908e-06 3.1516e-06 0.0786918)
(2.11788e-06 -3.08699e-06 0.0787193)
(-1.02155e-05 7.60386e-08 0.100135)
(7.15457e-06 6.04349e-07 0.091354)
(9.85026e-06 -9.44518e-08 0.100115)
(-6.86251e-06 -1.14244e-06 0.0913838)
(8.42548e-07 -8.36292e-07 0.103715)
(-8.35516e-07 8.42211e-07 0.103715)
(8.35404e-07 8.37099e-07 0.103715)
(-8.49859e-07 -8.44135e-07 0.103715)
(8.53632e-07 -8.33464e-07 0.103715)
(-8.41384e-07 8.49397e-07 0.103715)
(8.42835e-07 8.41177e-07 0.103715)
(1.67398e-05 1.33838e-07 0.102849)
(-1.61941e-05 4.52867e-06 0.100622)
(-7.30328e-07 -2.13255e-07 0.103682)
(-5.67474e-07 8.75066e-07 0.103612)
(-1.6907e-05 -1.50206e-07 0.102838)
(1.54274e-05 -5.07371e-06 0.100656)
(-7.27445e-07 -2.13536e-07 0.103682)
(3.03373e-06 -2.03848e-06 0.0786885)
(-2.96374e-06 2.05272e-06 0.0787204)
(1.43572e-07 1.67509e-05 0.102848)
(-2.16121e-07 -7.26877e-07 0.103682)
(4.5733e-06 -1.62551e-05 0.100623)
(8.70892e-07 -5.66677e-07 0.103612)
(-1.53e-07 -1.69242e-05 0.102838)
(-2.16838e-07 -7.19137e-07 0.103682)
(-5.12047e-06 1.54842e-05 0.100654)
(-4.80861e-06 -5.84614e-06 0.0969916)
(-5.83292e-06 -4.80328e-06 0.0969907)
(4.91637e-05 4.91825e-05 0.103477)
(4.37299e-06 5.68672e-06 0.0970223)
(5.68205e-06 4.36559e-06 0.0970209)
(1.87435e-05 1.87329e-05 0.100003)
(8.10169e-05 0.000135018 0.100054)
(0.000135078 8.10279e-05 0.100054)
(0.000413769 0.00104216 0.0978742)
(0.000115158 0.000204343 0.100125)
(0.00104125 0.000411144 0.0978741)
(0.000204491 0.000115186 0.100125)
(0.000102398 0.000102361 0.100042)
(0.000117374 0.00051386 0.100271)
(0.000512725 0.000116997 0.100271)
(0.000117327 0.000180283 0.100097)
(0.000180421 0.000117348 0.100097)
(5.7252e-06 4.66311e-05 0.100008)
(1.55936e-05 1.52756e-05 0.0999999)
(6.04341e-05 0.000127902 0.100057)
(-8.59999e-07 1.31167e-05 0.0999958)
(-5.73582e-06 4.66397e-05 0.100008)
(-1.55913e-05 1.52703e-05 0.0999999)
(-6.0407e-05 0.000127889 0.100057)
(8.6051e-07 1.31174e-05 0.0999958)
(4.58544e-06 0.000154587 0.100054)
(0.00032668 0.000315438 0.0993493)
(9.83732e-05 0.000167692 0.100056)
(7.33302e-06 0.000327864 0.100416)
(-4.62526e-06 0.000154603 0.100054)
(-0.000326147 0.000316145 0.099349)
(-9.8309e-05 0.000167653 0.100056)