/*--------------------------------*- C++ -*----------------------------------*\
| =========                 |                                                 |
| \\      /  F ield         | OpenFOAM: The Open Source CFD Toolbox           |
|  \\    /   O peration     | Version:  2206                                  |
|   \\  /    A nd           | Website:  www.openfoam.com                      |
|    \\/     M anipulation  |                                                 |
\*---------------------------------------------------------------------------*/
FoamFile
{
    version     2.0;
    format      ascii;
    arch        "LSB;label=32;scalar=64";
    class       volScalarField;
    location    "2";
    object      epsilon;
}
// * * * * * * * * * * * * * * * * * * * * * * * * * * * * * * * * * * * * * //

dimensions      [0 2 -3 0 0 0 0];

internalField   nonuniform List<scalar> 
28687
(
5.10724e-07
5.10789e-07
5.1084e-07
5.10966e-07
5.10434e-07
5.10549e-07
5.10552e-07
5.10633e-07
5.1043e-07
5.10549e-07
5.10549e-07
5.10633e-07
5.1043e-07
5.10549e-07
5.10549e-07
5.10633e-07
5.1043e-07
5.10549e-07
5.10549e-07
5.10633e-07
5.1043e-07
5.10549e-07
5.10549e-07
5.10633e-07
5.1043e-07
5.10549e-07
5.10549e-07
5.10633e-07
5.1043e-07
5.10549e-07
5.10549e-07
5.10633e-07
5.1043e-07
5.10549e-07
5.10549e-07
5.10633e-07
5.1043e-07
5.10549e-07
5.10549e-07
5.10633e-07
5.1043e-07
5.10549e-07
5.10549e-07
5.10633e-07
5.1043e-07
5.10549e-07
5.10549e-07
5.10633e-07
5.1043e-07
5.10549e-07
5.10549e-07
5.10633e-07
5.1043e-07
5.10549e-07
5.10549e-07
5.10633e-07
5.1043e-07
5.10549e-07
5.10549e-07
5.10633e-07
5.1043e-07
5.10549e-07
5.10549e-07
5.10633e-07
5.1043e-07
5.10549e-07
5.10549e-07
5.10633e-07
5.1043e-07
5.10549e-07
5.10549e-07
5.10633e-07
5.10843e-07
5.10956e-07
5.10845e-07
5.10966e-07
5.10633e-07
5.10837e-07
5.10787e-07
5.1057e-07
5.10552e-07
5.10931e-07
5.10632e-07
5.10837e-07
5.10837e-07
5.1057e-07
5.1057e-07
5.10837e-07
5.10552e-07
5.1057e-07
5.10966e-07
5.10633e-07
5.10837e-07
5.1057e-07
5.1057e-07
5.10633e-07
5.10643e-07
5.10633e-07
5.10556e-07
5.10554e-07
5.10548e-07
5.10548e-07
5.10642e-07
5.10633e-07
5.10556e-07
5.10556e-07
5.10548e-07
5.10548e-07
5.10556e-07
5.10549e-07
5.10548e-07
5.10643e-07
5.10633e-07
5.10556e-07
5.10549e-07
5.10548e-07
5.10633e-07
5.10644e-07
5.10633e-07
5.10555e-07
5.10553e-07
5.10548e-07
5.10548e-07
5.10643e-07
5.10633e-07
5.10555e-07
5.10554e-07
5.10548e-07
5.10548e-07
5.10554e-07
5.10549e-07
5.10548e-07
5.10643e-07
5.10632e-07
5.10554e-07
5.10549e-07
5.10548e-07
5.10632e-07
5.10644e-07
5.10633e-07
5.10554e-07
5.10553e-07
5.10548e-07
5.10548e-07
5.10643e-07
5.10633e-07
5.10553e-07
5.10553e-07
5.10548e-07
5.10548e-07
5.10553e-07
5.10549e-07
5.10548e-07
5.10643e-07
5.10633e-07
5.10553e-07
5.10549e-07
5.10548e-07
5.10632e-07
5.10644e-07
5.10633e-07
5.10553e-07
5.10553e-07
5.10548e-07
5.10548e-07
5.10643e-07
5.10633e-07
5.10553e-07
5.10553e-07
5.10548e-07
5.10548e-07
5.10553e-07
5.10549e-07
5.10548e-07
5.10643e-07
5.10632e-07
5.10553e-07
5.10549e-07
5.10548e-07
5.10633e-07
5.10644e-07
5.10633e-07
5.10553e-07
5.10553e-07
5.10548e-07
5.10548e-07
5.10644e-07
5.10633e-07
5.10553e-07
5.10553e-07
5.10548e-07
5.10548e-07
5.10553e-07
5.10549e-07
5.10548e-07
5.10643e-07
5.10634e-07
5.10553e-07
5.10549e-07
5.10548e-07
5.10633e-07
5.10643e-07
5.10633e-07
5.10553e-07
5.10553e-07
5.10548e-07
5.10548e-07
5.10644e-07
5.10633e-07
5.10553e-07
5.10553e-07
5.10548e-07
5.10548e-07
5.10553e-07
5.10549e-07
5.10548e-07
5.10644e-07
5.10633e-07
5.10553e-07
5.10549e-07
5.10548e-07
5.10632e-07
5.10643e-07
5.10633e-07
5.10553e-07
5.10553e-07
5.10548e-07
5.10548e-07
5.10643e-07
5.10633e-07
5.10553e-07
5.10553e-07
5.10548e-07
5.10548e-07
5.10553e-07
5.10549e-07
5.10548e-07
5.10644e-07
5.10632e-07
5.10553e-07
5.10549e-07
5.10548e-07
5.10633e-07
5.10643e-07
5.10633e-07
5.10553e-07
5.10553e-07
5.10548e-07
5.10548e-07
5.10643e-07
5.10632e-07
5.10553e-07
5.10553e-07
5.10548e-07
5.10548e-07
5.10553e-07
5.10549e-07
5.10548e-07
5.10643e-07
5.10633e-07
5.10553e-07
5.10549e-07
5.10548e-07
5.10632e-07
5.10643e-07
5.10633e-07
5.10553e-07
5.10553e-07
5.10548e-07
5.10548e-07
5.10643e-07
5.10633e-07
5.10553e-07
5.10553e-07
5.10548e-07
5.10548e-07
5.10553e-07
5.10549e-07
5.10548e-07
5.10643e-07
5.10634e-07
5.10553e-07
5.10549e-07
5.10548e-07
5.10632e-07
5.10644e-07
5.10633e-07
5.10553e-07
5.10553e-07
5.10548e-07
5.10548e-07
5.10643e-07
5.10633e-07
5.10553e-07
5.10553e-07
5.10548e-07
5.10548e-07
5.10553e-07
5.10549e-07
5.10548e-07
5.10644e-07
5.10633e-07
5.10553e-07
5.10549e-07
5.10548e-07
5.10632e-07
5.10644e-07
5.10633e-07
5.10553e-07
5.10553e-07
5.10548e-07
5.10548e-07
5.10643e-07
5.10633e-07
5.10553e-07
5.10553e-07
5.10548e-07
5.10548e-07
5.10553e-07
5.10549e-07
5.10548e-07
5.10643e-07
5.10632e-07
5.10553e-07
5.10549e-07
5.10548e-07
5.10632e-07
5.10643e-07
5.10633e-07
5.10553e-07
5.10553e-07
5.10548e-07
5.10548e-07
5.10643e-07
5.10633e-07
5.10553e-07
5.10553e-07
5.10548e-07
5.10548e-07
5.10553e-07
5.10549e-07
5.10548e-07
5.10643e-07
5.10633e-07
5.10553e-07
5.10549e-07
5.10548e-07
5.10632e-07
5.10643e-07
5.10633e-07
5.10553e-07
5.10553e-07
5.10548e-07
5.10548e-07
5.10643e-07
5.10633e-07
5.10553e-07
5.10553e-07
5.10548e-07
5.10548e-07
5.10553e-07
5.10549e-07
5.10548e-07
5.10643e-07
5.10632e-07
5.10553e-07
5.10549e-07
5.10548e-07
5.10633e-07
5.10643e-07
5.10633e-07
5.10553e-07
5.10553e-07
5.10548e-07
5.10548e-07
5.10643e-07
5.10633e-07
5.10553e-07
5.10553e-07
5.10548e-07
5.10548e-07
5.10553e-07
5.10549e-07
5.10548e-07
5.10643e-07
5.10633e-07
5.10553e-07
5.10549e-07
5.10548e-07
5.10632e-07
5.10643e-07
5.10633e-07
5.10553e-07
5.10553e-07
5.10548e-07
5.10548e-07
5.10643e-07
5.10633e-07
5.10553e-07
5.10553e-07
5.10548e-07
5.10548e-07
5.10553e-07
5.10549e-07
5.10548e-07
5.10643e-07
5.10633e-07
5.10553e-07
5.10549e-07
5.10548e-07
5.10633e-07
5.10644e-07
5.10633e-07
5.10553e-07
5.10553e-07
5.10548e-07
5.10548e-07
5.10643e-07
5.10633e-07
5.10553e-07
5.10553e-07
5.10548e-07
5.10548e-07
5.10553e-07
5.10549e-07
5.10548e-07
5.10644e-07
5.10632e-07
5.10553e-07
5.10549e-07
5.10548e-07
5.10632e-07
5.10643e-07
5.10552e-07
5.10553e-07
5.10643e-07
5.10553e-07
5.10552e-07
5.10552e-07
5.10643e-07
5.10552e-07
7.77518e-07
4.22631e-06
7.7645e-07
4.23277e-06
1.1678e-05
1.1712e-05
7.7754e-07
4.2268e-06
7.7638e-07
4.23325e-06
5.1072e-07
5.10721e-07
5.10721e-07
5.10452e-07
5.10452e-07
5.10453e-07
5.10453e-07
5.26936e-07
7.12024e-07
5.10734e-07
5.10657e-07
5.26957e-07
7.13122e-07
5.10675e-07
1.16614e-05
1.17015e-05
5.26936e-07
5.10734e-07
7.11635e-07
5.10783e-07
5.26956e-07
5.10676e-07
7.12298e-07
1.04981e-06
1.04996e-06
5.10818e-07
1.05254e-06
1.05264e-06
7.78781e-07
4.2349e-06
7.78925e-07
4.23476e-06
1.17128e-05
1.1712e-05
7.78731e-07
4.2354e-06
7.78839e-07
4.23525e-06
5.10437e-07
5.10437e-07
5.10438e-07
5.1043e-07
5.10429e-07
5.10429e-07
5.10429e-07
5.26937e-07
7.13452e-07
5.10444e-07
5.10553e-07
5.26955e-07
7.13305e-07
5.10445e-07
1.17145e-05
1.17136e-05
5.26936e-07
5.10444e-07
7.13421e-07
5.10553e-07
5.26952e-07
5.10445e-07
7.13283e-07
1.05485e-06
1.055e-06
5.10639e-07
1.05474e-06
1.05489e-06
7.78773e-07
4.23489e-06
7.78926e-07
4.23476e-06
1.17129e-05
1.17121e-05
7.78731e-07
4.23545e-06
7.7883e-07
4.23527e-06
5.10436e-07
5.10436e-07
5.10436e-07
5.1043e-07
5.10429e-07
5.10429e-07
5.10429e-07
5.26939e-07
7.13453e-07
5.10441e-07
5.10555e-07
5.26955e-07
7.13305e-07
5.10447e-07
1.17143e-05
1.17134e-05
5.26937e-07
5.10441e-07
7.13417e-07
5.10555e-07
5.26953e-07
5.10447e-07
7.13284e-07
1.05484e-06
1.05499e-06
5.10639e-07
1.05474e-06
1.05488e-06
7.78776e-07
4.23489e-06
7.78925e-07
4.23476e-06
1.17131e-05
1.17123e-05
7.7873e-07
4.23545e-06
7.7883e-07
4.23527e-06
5.10434e-07
5.10435e-07
5.10435e-07
5.1043e-07
5.10429e-07
5.1043e-07
5.10429e-07
5.26938e-07
7.13453e-07
5.10441e-07
5.10554e-07
5.26955e-07
7.13305e-07
5.10446e-07
1.17143e-05
1.17134e-05
5.26936e-07
5.10441e-07
7.13417e-07
5.10554e-07
5.26953e-07
5.10446e-07
7.13284e-07
1.05484e-06
1.05499e-06
5.10639e-07
1.05474e-06
1.05488e-06
7.78774e-07
4.23489e-06
7.78926e-07
4.23476e-06
1.17131e-05
1.17122e-05
7.7873e-07
4.23545e-06
7.78829e-07
4.23527e-06
5.10434e-07
5.10435e-07
5.10435e-07
5.1043e-07
5.10429e-07
5.1043e-07
5.10429e-07
5.26938e-07
7.13457e-07
5.10441e-07
5.10554e-07
5.26955e-07
7.13306e-07
5.10446e-07
1.17143e-05
1.17134e-05
5.26936e-07
5.10441e-07
7.13418e-07
5.10554e-07
5.26953e-07
5.10446e-07
7.13284e-07
1.05484e-06
1.05499e-06
5.10638e-07
1.05474e-06
1.05488e-06
7.78775e-07
4.23489e-06
7.78927e-07
4.23476e-06
1.1713e-05
1.17119e-05
7.7873e-07
4.23545e-06
7.78828e-07
4.23527e-06
5.10435e-07
5.10434e-07
5.10435e-07
5.1043e-07
5.10429e-07
5.10429e-07
5.10429e-07
5.26939e-07
7.13454e-07
5.1044e-07
5.10554e-07
5.26955e-07
7.13305e-07
5.10446e-07
1.17143e-05
1.17134e-05
5.26936e-07
5.10441e-07
7.13417e-07
5.10554e-07
5.26953e-07
5.10446e-07
7.13284e-07
1.05484e-06
1.05499e-06
5.10639e-07
1.05474e-06
1.05487e-06
7.78775e-07
4.23486e-06
7.78926e-07
4.23474e-06
1.17128e-05
1.17122e-05
7.7873e-07
4.23545e-06
7.78829e-07
4.23527e-06
5.10434e-07
5.10435e-07
5.10435e-07
5.1043e-07
5.10429e-07
5.10429e-07
5.10429e-07
5.26939e-07
7.13454e-07
5.10441e-07
5.10554e-07
5.26954e-07
7.13305e-07
5.10446e-07
1.17143e-05
1.17134e-05
5.26936e-07
5.10441e-07
7.13417e-07
5.10554e-07
5.26953e-07
5.10446e-07
7.13284e-07
1.05484e-06
1.05499e-06
5.10639e-07
1.05474e-06
1.05488e-06
7.78776e-07
4.2349e-06
7.78926e-07
4.23478e-06
1.17131e-05
1.17123e-05
7.78729e-07
4.23545e-06
7.78829e-07
4.23527e-06
5.10434e-07
5.10434e-07
5.10434e-07
5.1043e-07
5.10429e-07
5.10429e-07
5.10429e-07
5.26939e-07
7.13454e-07
5.10441e-07
5.10554e-07
5.26955e-07
7.13306e-07
5.10446e-07
1.17143e-05
1.17134e-05
5.26935e-07
5.10441e-07
7.13417e-07
5.10554e-07
5.26953e-07
5.10446e-07
7.13284e-07
1.05484e-06
1.05499e-06
5.10638e-07
1.05474e-06
1.05488e-06
7.78776e-07
4.23492e-06
7.78926e-07
4.2348e-06
1.17127e-05
1.17118e-05
7.78731e-07
4.23541e-06
7.78829e-07
4.23524e-06
5.10435e-07
5.10434e-07
5.10434e-07
5.1043e-07
5.10429e-07
5.10429e-07
5.10429e-07
5.26938e-07
7.13454e-07
5.10441e-07
5.10554e-07
5.26955e-07
7.13305e-07
5.10446e-07
1.17143e-05
1.17134e-05
5.26935e-07
5.10441e-07
7.13418e-07
5.10554e-07
5.26954e-07
5.10446e-07
7.13284e-07
1.05484e-06
1.05499e-06
5.10639e-07
1.05474e-06
1.05488e-06
7.78774e-07
4.23497e-06
7.78926e-07
4.23481e-06
1.17127e-05
1.17119e-05
7.78731e-07
4.23536e-06
7.78829e-07
4.23522e-06
5.10435e-07
5.10435e-07
5.10435e-07
5.1043e-07
5.10429e-07
5.10429e-07
5.10429e-07
5.26939e-07
7.13454e-07
5.10441e-07
5.10554e-07
5.26955e-07
7.13305e-07
5.10446e-07
1.17143e-05
1.17134e-05
5.26935e-07
5.10441e-07
7.13418e-07
5.10554e-07
5.26954e-07
5.10446e-07
7.13284e-07
1.05484e-06
1.05499e-06
5.10639e-07
1.05474e-06
1.05488e-06
7.78775e-07
4.23497e-06
7.78926e-07
4.23481e-06
1.17127e-05
1.17119e-05
7.7873e-07
4.2354e-06
7.78828e-07
4.23524e-06
5.10435e-07
5.10434e-07
5.10435e-07
5.1043e-07
5.10429e-07
5.10429e-07
5.10429e-07
5.26939e-07
7.13454e-07
5.10441e-07
5.10554e-07
5.26954e-07
7.13305e-07
5.10446e-07
1.17143e-05
1.17134e-05
5.26935e-07
5.10441e-07
7.13417e-07
5.10554e-07
5.26954e-07
5.10446e-07
7.13284e-07
1.05484e-06
1.05499e-06
5.10639e-07
1.05474e-06
1.05488e-06
7.78774e-07
4.23497e-06
7.78926e-07
4.23481e-06
1.17127e-05
1.17119e-05
7.7873e-07
4.2354e-06
7.78829e-07
4.23524e-06
5.10435e-07
5.10435e-07
5.10435e-07
5.1043e-07
5.10429e-07
5.10429e-07
5.10429e-07
5.26939e-07
7.13454e-07
5.10441e-07
5.10554e-07
5.26954e-07
7.13305e-07
5.10446e-07
1.17143e-05
1.17134e-05
5.26937e-07
5.10441e-07
7.13418e-07
5.10554e-07
5.26953e-07
5.10446e-07
7.13284e-07
1.05484e-06
1.05499e-06
5.10639e-07
1.05474e-06
1.05488e-06
7.78775e-07
4.23497e-06
7.78926e-07
4.23481e-06
1.17127e-05
1.17119e-05
7.7873e-07
4.2354e-06
7.78829e-07
4.23523e-06
5.10434e-07
5.10434e-07
5.10435e-07
5.1043e-07
5.10429e-07
5.10429e-07
5.10429e-07
5.26939e-07
7.13454e-07
5.10441e-07
5.10554e-07
5.26954e-07
7.13305e-07
5.10446e-07
1.17143e-05
1.17134e-05
5.26937e-07
5.10441e-07
7.13418e-07
5.10554e-07
5.26953e-07
5.10446e-07
7.13284e-07
1.05484e-06
1.05499e-06
5.10639e-07
1.05474e-06
1.05488e-06
7.78775e-07
4.23497e-06
7.78926e-07
4.23481e-06
1.17127e-05
1.17119e-05
7.7873e-07
4.2354e-06
7.78829e-07
4.23524e-06
5.10434e-07
5.10434e-07
5.10435e-07
5.1043e-07
5.10429e-07
5.10429e-07
5.10429e-07
5.26939e-07
7.13454e-07
5.10441e-07
5.10554e-07
5.26954e-07
7.13305e-07
5.10446e-07
1.17143e-05
1.17134e-05
5.26937e-07
5.10441e-07
7.13418e-07
5.10554e-07
5.26953e-07
5.10446e-07
7.13284e-07
1.05484e-06
1.05499e-06
5.10639e-07
1.05474e-06
1.05488e-06
7.78775e-07
4.23497e-06
7.78926e-07
4.23481e-06
1.17127e-05
1.17119e-05
7.7873e-07
4.2354e-06
7.78829e-07
4.23524e-06
5.10435e-07
5.10434e-07
5.10435e-07
5.1043e-07
5.1043e-07
5.1043e-07
5.10429e-07
5.26939e-07
7.13454e-07
5.10441e-07
5.10554e-07
5.26954e-07
7.13305e-07
5.10446e-07
1.17143e-05
1.17134e-05
5.26937e-07
5.10441e-07
7.13418e-07
5.10554e-07
5.26953e-07
5.10446e-07
7.13284e-07
1.05484e-06
1.05499e-06
5.10639e-07
1.05474e-06
1.05488e-06
7.78775e-07
4.23497e-06
7.78926e-07
4.23481e-06
1.17127e-05
1.17119e-05
7.7873e-07
4.2354e-06
7.78829e-07
4.23524e-06
5.10435e-07
5.10436e-07
5.10435e-07
5.1043e-07
5.1043e-07
5.1043e-07
5.10429e-07
5.26939e-07
7.13454e-07
5.10441e-07
5.10554e-07
5.26954e-07
7.13305e-07
5.10446e-07
1.17143e-05
1.17134e-05
5.26936e-07
5.10441e-07
7.13418e-07
5.10554e-07
5.26953e-07
5.10446e-07
7.13284e-07
1.05484e-06
1.055e-06
5.10639e-07
1.05474e-06
1.05488e-06
7.78775e-07
4.23497e-06
7.78926e-07
4.23481e-06
1.17127e-05
1.17119e-05
7.7873e-07
4.2354e-06
7.78829e-07
4.23523e-06
5.10434e-07
5.10434e-07
5.10435e-07
5.1043e-07
5.10429e-07
5.10429e-07
5.10429e-07
5.26938e-07
7.13454e-07
5.10441e-07
5.10554e-07
5.26955e-07
7.13305e-07
5.10446e-07
1.17143e-05
1.17134e-05
5.26937e-07
5.10441e-07
7.13418e-07
5.10554e-07
5.26953e-07
5.10446e-07
7.13284e-07
1.05484e-06
1.05499e-06
5.10638e-07
1.05474e-06
1.05488e-06
7.78736e-07
4.23497e-06
7.78926e-07
4.23469e-06
1.17127e-05
1.17119e-05
7.78693e-07
4.2354e-06
7.78829e-07
4.23511e-06
5.10434e-07
5.10434e-07
5.10434e-07
5.26939e-07
7.13454e-07
5.10441e-07
5.10552e-07
5.26955e-07
7.13305e-07
5.10446e-07
1.17143e-05
1.1713e-05
5.26937e-07
5.10441e-07
7.13418e-07
5.10554e-07
5.26953e-07
5.10446e-07
7.13269e-07
1.05484e-06
1.05499e-06
5.10651e-07
1.05474e-06
1.05477e-06
4.22687e-06
7.1161e-07
1.16625e-05
1.05e-06
1.04986e-06
1.16616e-05
7.11582e-07
4.22707e-06
1.16586e-05
1.16986e-05
1.16606e-05
1.17009e-05
1.04977e-06
1.04994e-06
5.1082e-07
1.05249e-06
1.05269e-06
1.17118e-05
1.17066e-05
1.17134e-05
1.17086e-05
5.10732e-07
1.05478e-06
1.05496e-06
1.0538e-06
1.05396e-06
7.77517e-07
4.22908e-06
7.76438e-07
4.23496e-06
5.2694e-07
7.11619e-07
5.10732e-07
5.1078e-07
5.26962e-07
7.12277e-07
5.10675e-07
5.26941e-07
7.11927e-07
5.10732e-07
5.10648e-07
5.2696e-07
7.13176e-07
5.10674e-07
7.784e-07
4.23488e-06
4.23409e-06
7.78833e-07
7.78401e-07
4.23502e-06
4.23484e-06
7.78825e-07
5.26957e-07
5.10638e-07
7.13306e-07
5.10463e-07
7.1306e-07
5.10531e-07
5.26942e-07
5.26959e-07
5.10572e-07
7.13351e-07
5.10463e-07
7.13424e-07
5.1053e-07
5.26942e-07
1.05076e-06
1.05073e-06
5.10662e-07
1.05469e-06
1.05454e-06
1.16755e-05
1.17116e-05
1.17128e-05
1.17112e-05
5.10652e-07
1.05494e-06
1.05486e-06
1.05486e-06
1.05482e-06
1.17119e-05
1.17107e-05
5.26941e-07
7.11713e-07
5.10732e-07
5.1078e-07
5.26956e-07
7.12355e-07
5.10675e-07
7.77551e-07
4.22697e-06
7.76409e-07
4.23337e-06
5.26943e-07
5.10732e-07
7.11743e-07
5.10781e-07
5.2696e-07
5.10675e-07
7.12373e-07
7.78343e-07
4.23537e-06
4.23461e-06
7.78782e-07
5.26958e-07
5.10638e-07
7.13402e-07
5.10463e-07
7.13166e-07
5.10531e-07
5.26939e-07
7.78354e-07
4.23559e-06
4.23476e-06
7.78792e-07
5.26961e-07
5.10638e-07
5.10463e-07
7.13429e-07
5.10532e-07
7.13187e-07
5.26941e-07
7.77522e-07
4.22944e-06
7.76444e-07
4.23498e-06
5.26938e-07
5.10731e-07
7.11633e-07
5.1078e-07
5.26958e-07
5.10674e-07
7.12295e-07
7.77518e-07
4.22668e-06
7.76446e-07
4.23309e-06
5.26952e-07
5.10577e-07
7.13332e-07
5.10461e-07
7.13405e-07
5.1053e-07
5.2694e-07
7.78403e-07
4.23503e-06
4.23486e-06
7.78828e-07
5.26954e-07
5.10638e-07
5.10463e-07
7.13323e-07
5.10531e-07
7.13076e-07
5.2694e-07
7.78403e-07
4.23529e-06
4.23446e-06
7.78829e-07
1.05012e-06
1.0498e-06
5.1082e-07
1.05273e-06
1.05254e-06
1.16601e-05
1.17003e-05
1.17145e-05
1.17093e-05
5.10732e-07
1.05508e-06
1.05481e-06
1.05419e-06
1.05384e-06
1.17128e-05
1.17079e-05
5.26938e-07
5.10732e-07
7.11682e-07
5.1078e-07
5.26954e-07
5.10675e-07
7.12341e-07
7.77538e-07
4.22677e-06
7.76397e-07
4.23324e-06
7.77551e-07
4.22685e-06
7.76386e-07
4.23332e-06
5.26952e-07
5.10639e-07
5.10462e-07
7.13322e-07
5.1053e-07
7.13073e-07
5.26937e-07
5.26954e-07
5.10638e-07
5.10463e-07
7.13369e-07
5.10532e-07
7.13123e-07
5.26937e-07
7.78339e-07
4.23535e-06
4.23457e-06
7.78784e-07
7.78351e-07
4.23543e-06
4.23464e-06
7.78783e-07
1.16602e-05
1.17004e-05
1.16604e-05
1.17003e-05
5.1073e-07
1.05481e-06
1.05496e-06
1.05385e-06
1.05397e-06
1.17129e-05
1.17081e-05
1.17136e-05
1.17084e-05
1.17096e-05
1.17118e-05
1.17112e-05
1.17136e-05
1.05462e-06
1.05481e-06
5.10635e-07
1.05474e-06
1.05492e-06
1.17118e-05
1.17106e-05
1.17135e-05
1.17123e-05
5.10645e-07
1.05474e-06
1.05493e-06
1.05464e-06
1.05488e-06
7.78822e-07
4.23466e-06
7.78805e-07
4.23502e-06
5.26933e-07
7.13352e-07
5.10448e-07
5.10552e-07
5.26956e-07
7.13291e-07
5.10444e-07
5.26938e-07
7.13392e-07
5.10448e-07
5.10553e-07
5.26957e-07
7.13345e-07
5.10443e-07
7.78815e-07
4.23488e-06
4.23463e-06
7.78838e-07
7.78814e-07
4.235e-06
4.23483e-06
7.78826e-07
5.2695e-07
5.10548e-07
7.13293e-07
5.1044e-07
7.13345e-07
5.1044e-07
5.26943e-07
5.26955e-07
5.10548e-07
7.13347e-07
5.10439e-07
7.13391e-07
5.10439e-07
5.26942e-07
1.05481e-06
1.05477e-06
5.10636e-07
1.05493e-06
1.0549e-06
1.17098e-05
1.1712e-05
1.17129e-05
1.17111e-05
5.10644e-07
1.05494e-06
1.05486e-06
1.0548e-06
1.05479e-06
1.17118e-05
1.17107e-05
5.26928e-07
7.13471e-07
5.10448e-07
5.10552e-07
5.26952e-07
7.13382e-07
5.10444e-07
7.78782e-07
4.23523e-06
7.78793e-07
4.23559e-06
5.26936e-07
5.10448e-07
7.13496e-07
5.10552e-07
5.26955e-07
5.10443e-07
7.13419e-07
7.78709e-07
4.23544e-06
4.23513e-06
7.78761e-07
5.26944e-07
5.10548e-07
7.13387e-07
5.1044e-07
7.13454e-07
5.1044e-07
5.26935e-07
7.78784e-07
4.23557e-06
4.2354e-06
7.78795e-07
5.26954e-07
5.10548e-07
5.10439e-07
7.1342e-07
5.10439e-07
7.13491e-07
5.26942e-07
7.78827e-07
4.2347e-06
7.78806e-07
4.23505e-06
5.26937e-07
5.10448e-07
7.13362e-07
5.10552e-07
5.26954e-07
5.10443e-07
7.13312e-07
7.78827e-07
4.23492e-06
7.78809e-07
4.23529e-06
5.26953e-07
5.10551e-07
7.13333e-07
5.10441e-07
7.13375e-07
5.10443e-07
5.26939e-07
7.78814e-07
4.23502e-06
4.23486e-06
7.78826e-07
5.26953e-07
5.10548e-07
5.1044e-07
7.13317e-07
5.1044e-07
7.1336e-07
5.26938e-07
7.78863e-07
4.23528e-06
4.2351e-06
7.78825e-07
1.05519e-06
1.05465e-06
5.10636e-07
1.05514e-06
1.05476e-06
1.17106e-05
1.17129e-05
1.17143e-05
1.17127e-05
5.10644e-07
1.05511e-06
1.05477e-06
1.05502e-06
1.05467e-06
1.17128e-05
1.17116e-05
5.26933e-07
5.10448e-07
7.1341e-07
5.10552e-07
5.26951e-07
5.10443e-07
7.13357e-07
7.78778e-07
4.235e-06
7.78784e-07
4.23535e-06
7.78776e-07
4.23507e-06
7.78783e-07
4.23543e-06
5.26952e-07
5.1055e-07
5.10441e-07
7.13311e-07
5.10443e-07
7.13328e-07
5.26937e-07
5.26949e-07
5.10548e-07
5.1044e-07
7.13363e-07
5.10439e-07
7.13406e-07
5.26934e-07
7.78779e-07
4.23532e-06
4.23516e-06
7.78789e-07
7.78776e-07
4.23541e-06
4.23524e-06
7.78773e-07
1.17107e-05
1.1713e-05
1.17113e-05
1.17136e-05
5.10647e-07
1.05479e-06
1.05495e-06
1.0547e-06
1.05485e-06
1.17129e-05
1.17117e-05
1.17135e-05
1.17124e-05
1.17099e-05
1.17118e-05
1.17114e-05
1.17136e-05
1.05459e-06
1.05478e-06
5.10636e-07
1.05475e-06
1.05492e-06
1.17118e-05
1.17106e-05
1.17135e-05
1.17123e-05
5.10645e-07
1.05477e-06
1.05493e-06
1.05468e-06
1.05486e-06
7.78832e-07
4.23467e-06
7.78811e-07
4.23501e-06
5.26932e-07
7.13343e-07
5.10446e-07
5.10554e-07
5.26958e-07
7.1329e-07
5.10445e-07
5.2694e-07
7.13392e-07
5.10446e-07
5.10553e-07
5.26959e-07
7.13343e-07
5.10444e-07
7.78809e-07
4.23488e-06
4.23463e-06
7.78836e-07
7.78851e-07
4.235e-06
4.23483e-06
7.78823e-07
5.26949e-07
5.10549e-07
7.13296e-07
5.1044e-07
7.13342e-07
5.1044e-07
5.26942e-07
5.26956e-07
5.10549e-07
7.13346e-07
5.1044e-07
7.13391e-07
5.1044e-07
5.26942e-07
1.05481e-06
1.05477e-06
5.10636e-07
1.05493e-06
1.05489e-06
1.17099e-05
1.17119e-05
1.17131e-05
1.17112e-05
5.10644e-07
1.05496e-06
1.05486e-06
1.0548e-06
1.05479e-06
1.17118e-05
1.17107e-05
5.26929e-07
7.13458e-07
5.10446e-07
5.10554e-07
5.26952e-07
7.13382e-07
5.10445e-07
7.78798e-07
4.23523e-06
7.78798e-07
4.23558e-06
5.26938e-07
5.10446e-07
7.13487e-07
5.10554e-07
5.26958e-07
5.10444e-07
7.13419e-07
7.78709e-07
4.23544e-06
4.23514e-06
7.78761e-07
5.26944e-07
5.10549e-07
7.13387e-07
5.1044e-07
7.13454e-07
5.1044e-07
5.26936e-07
7.788e-07
4.23557e-06
4.2354e-06
7.78797e-07
5.26954e-07
5.10549e-07
5.1044e-07
7.1342e-07
5.1044e-07
7.1349e-07
5.26941e-07
7.78839e-07
4.23469e-06
7.78811e-07
4.23506e-06
5.26939e-07
5.10446e-07
7.13359e-07
5.10554e-07
5.26954e-07
5.10445e-07
7.13312e-07
7.78841e-07
4.23496e-06
7.78812e-07
4.23529e-06
5.26954e-07
5.10552e-07
7.13333e-07
5.10441e-07
7.13375e-07
5.10444e-07
5.26939e-07
7.78833e-07
4.23502e-06
4.23486e-06
7.7883e-07
5.26954e-07
5.10549e-07
5.1044e-07
7.13317e-07
5.1044e-07
7.1336e-07
5.26938e-07
7.7886e-07
4.23528e-06
4.2351e-06
7.78826e-07
1.05502e-06
1.05462e-06
5.10636e-07
1.0551e-06
1.05476e-06
1.1711e-05
1.17128e-05
1.17143e-05
1.17126e-05
5.10644e-07
1.05511e-06
1.05477e-06
1.055e-06
1.05469e-06
1.17128e-05
1.17116e-05
5.26934e-07
5.10446e-07
7.13407e-07
5.10554e-07
5.2695e-07
5.10445e-07
7.13356e-07
7.78788e-07
4.23498e-06
7.78791e-07
4.23534e-06
7.78778e-07
4.23508e-06
7.78772e-07
4.23542e-06
5.26952e-07
5.10552e-07
5.10441e-07
7.13311e-07
5.10444e-07
7.13329e-07
5.26936e-07
5.26949e-07
5.10549e-07
5.1044e-07
7.13363e-07
5.1044e-07
7.13406e-07
5.26934e-07
7.78789e-07
4.23532e-06
4.23516e-06
7.78789e-07
7.78778e-07
4.23541e-06
4.23523e-06
7.78774e-07
1.1711e-05
1.1713e-05
1.17117e-05
1.17136e-05
5.10647e-07
1.05479e-06
1.05495e-06
1.0547e-06
1.05484e-06
1.17129e-05
1.17117e-05
1.17135e-05
1.17123e-05
1.17099e-05
1.17118e-05
1.17115e-05
1.17136e-05
1.05461e-06
1.05478e-06
5.10636e-07
1.05475e-06
1.05492e-06
1.17118e-05
1.17106e-05
1.17135e-05
1.17123e-05
5.10645e-07
1.05478e-06
1.05493e-06
1.05465e-06
1.05486e-06
7.78833e-07
4.23466e-06
7.78808e-07
4.23501e-06
5.26932e-07
7.13346e-07
5.10445e-07
5.10553e-07
5.26958e-07
7.1329e-07
5.10445e-07
5.2694e-07
7.13391e-07
5.10446e-07
5.10553e-07
5.26959e-07
7.13343e-07
5.10445e-07
7.78808e-07
4.23488e-06
4.23463e-06
7.78836e-07
7.7885e-07
4.235e-06
4.23483e-06
7.78823e-07
5.26949e-07
5.10549e-07
7.13297e-07
5.1044e-07
7.13341e-07
5.10441e-07
5.26942e-07
5.26956e-07
5.10549e-07
7.13342e-07
5.1044e-07
7.1339e-07
5.1044e-07
5.26942e-07
1.05482e-06
1.05477e-06
5.10636e-07
1.05494e-06
1.0549e-06
1.17099e-05
1.17119e-05
1.17131e-05
1.17113e-05
5.10644e-07
1.05491e-06
1.05484e-06
1.05479e-06
1.05479e-06
1.17118e-05
1.17107e-05
5.26928e-07
7.13458e-07
5.10446e-07
5.10553e-07
5.26952e-07
7.13382e-07
5.10446e-07
7.78784e-07
4.23523e-06
7.788e-07
4.23558e-06
5.26936e-07
5.10446e-07
7.13487e-07
5.10553e-07
5.26958e-07
5.10446e-07
7.13419e-07
7.78707e-07
4.23544e-06
4.23514e-06
7.7876e-07
5.26944e-07
5.10549e-07
7.13387e-07
5.1044e-07
7.13454e-07
5.10441e-07
5.26935e-07
7.78785e-07
4.23557e-06
4.2354e-06
7.78773e-07
5.26952e-07
5.10549e-07
5.1044e-07
7.1342e-07
5.1044e-07
7.1349e-07
5.26938e-07
7.78837e-07
4.23469e-06
7.78809e-07
4.23506e-06
5.26939e-07
5.10445e-07
7.13359e-07
5.10553e-07
5.26954e-07
5.10445e-07
7.13312e-07
7.78841e-07
4.23495e-06
7.78812e-07
4.23529e-06
5.26954e-07
5.10552e-07
7.13335e-07
5.10441e-07
7.13375e-07
5.10444e-07
5.26939e-07
7.7883e-07
4.23502e-06
4.23486e-06
7.7883e-07
5.26954e-07
5.10549e-07
5.1044e-07
7.13317e-07
5.1044e-07
7.1336e-07
5.26938e-07
7.78861e-07
4.23528e-06
4.2351e-06
7.78826e-07
1.05502e-06
1.05462e-06
5.10636e-07
1.0551e-06
1.05476e-06
1.1711e-05
1.17128e-05
1.17143e-05
1.17126e-05
5.10644e-07
1.05511e-06
1.05477e-06
1.055e-06
1.05469e-06
1.17128e-05
1.17116e-05
5.26934e-07
5.10445e-07
7.13407e-07
5.10553e-07
5.2695e-07
5.10444e-07
7.13357e-07
7.78788e-07
4.23498e-06
7.78788e-07
4.23534e-06
7.78778e-07
4.23508e-06
7.78774e-07
4.23542e-06
5.26952e-07
5.10552e-07
5.10441e-07
7.13311e-07
5.10444e-07
7.13329e-07
5.26938e-07
5.2695e-07
5.10549e-07
5.1044e-07
7.13363e-07
5.1044e-07
7.13406e-07
5.26935e-07
7.78788e-07
4.23532e-06
4.23516e-06
7.78789e-07
7.78779e-07
4.23541e-06
4.23523e-06
7.78775e-07
1.17111e-05
1.1713e-05
1.17117e-05
1.17136e-05
5.10647e-07
1.05479e-06
1.05495e-06
1.0547e-06
1.05484e-06
1.17129e-05
1.17117e-05
1.17135e-05
1.17123e-05
1.17099e-05
1.17118e-05
1.17115e-05
1.17136e-05
1.05466e-06
1.05478e-06
5.10636e-07
1.05475e-06
1.05492e-06
1.17118e-05
1.17106e-05
1.17135e-05
1.17123e-05
5.10645e-07
1.05474e-06
1.05493e-06
1.0546e-06
1.05486e-06
7.78834e-07
4.23466e-06
7.78808e-07
4.23501e-06
5.26932e-07
7.13347e-07
5.10444e-07
5.10553e-07
5.26958e-07
7.13289e-07
5.10444e-07
5.2694e-07
7.13387e-07
5.10444e-07
5.10553e-07
5.26959e-07
7.1334e-07
5.10444e-07
7.78808e-07
4.23488e-06
4.23463e-06
7.78836e-07
7.78849e-07
4.235e-06
4.23483e-06
7.78822e-07
5.26949e-07
5.10549e-07
7.13294e-07
5.1044e-07
7.13338e-07
5.1044e-07
5.26942e-07
5.26956e-07
5.10549e-07
7.13344e-07
5.1044e-07
7.13388e-07
5.1044e-07
5.26943e-07
1.05477e-06
1.05494e-06
5.10636e-07
1.0549e-06
1.0549e-06
1.17099e-05
1.17119e-05
1.17131e-05
1.17113e-05
5.10644e-07
1.05494e-06
1.05486e-06
1.0548e-06
1.05479e-06
1.17118e-05
1.17107e-05
5.26928e-07
7.13458e-07
5.10444e-07
5.10553e-07
5.26951e-07
7.13382e-07
5.10444e-07
7.7878e-07
4.23523e-06
7.78773e-07
4.23558e-06
5.26936e-07
5.10444e-07
7.13487e-07
5.10553e-07
5.26955e-07
5.10444e-07
7.13419e-07
7.78706e-07
4.23544e-06
4.23514e-06
7.78759e-07
5.26944e-07
5.10549e-07
7.13387e-07
5.1044e-07
7.13454e-07
5.1044e-07
5.26935e-07
7.7878e-07
4.23557e-06
4.2354e-06
7.78776e-07
5.26953e-07
5.10549e-07
5.1044e-07
7.1342e-07
5.1044e-07
7.1349e-07
5.26938e-07
7.78837e-07
4.23469e-06
7.7881e-07
4.23506e-06
5.26939e-07
5.10446e-07
7.13359e-07
5.10553e-07
5.26954e-07
5.10445e-07
7.13312e-07
7.78841e-07
4.23495e-06
7.78812e-07
4.23529e-06
5.26954e-07
5.10552e-07
7.13333e-07
5.1044e-07
7.13375e-07
5.10444e-07
5.26939e-07
7.7883e-07
4.23503e-06
4.23486e-06
7.78829e-07
5.26954e-07
5.10549e-07
5.1044e-07
7.13317e-07
5.1044e-07
7.1336e-07
5.26938e-07
7.7886e-07
4.23528e-06
4.2351e-06
7.78822e-07
1.05502e-06
1.05462e-06
5.10636e-07
1.0551e-06
1.05476e-06
1.1711e-05
1.17128e-05
1.17143e-05
1.17126e-05
5.10644e-07
1.05511e-06
1.05477e-06
1.055e-06
1.05469e-06
1.17128e-05
1.17116e-05
5.26934e-07
5.10445e-07
7.13407e-07
5.10553e-07
5.26951e-07
5.10445e-07
7.13356e-07
7.78788e-07
4.23498e-06
7.7879e-07
4.23534e-06
7.78779e-07
4.23508e-06
7.78775e-07
4.23542e-06
5.26952e-07
5.10552e-07
5.10441e-07
7.13311e-07
5.10444e-07
7.13329e-07
5.26938e-07
5.2695e-07
5.10549e-07
5.1044e-07
7.13363e-07
5.1044e-07
7.13406e-07
5.26935e-07
7.78789e-07
4.23532e-06
4.23516e-06
7.78789e-07
7.78778e-07
4.23541e-06
4.23523e-06
7.78775e-07
1.17111e-05
1.1713e-05
1.17117e-05
1.17136e-05
5.10647e-07
1.05479e-06
1.05494e-06
1.0547e-06
1.05484e-06
1.17129e-05
1.17117e-05
1.17135e-05
1.17124e-05
1.17099e-05
1.17118e-05
1.17115e-05
1.17136e-05
1.05459e-06
1.05478e-06
5.10636e-07
1.05473e-06
1.05492e-06
1.17118e-05
1.17106e-05
1.17135e-05
1.17123e-05
5.10645e-07
1.05474e-06
1.05493e-06
1.05466e-06
1.05486e-06
7.78839e-07
4.23466e-06
7.78859e-07
4.23498e-06
5.26932e-07
7.13344e-07
5.10445e-07
5.10553e-07
5.26958e-07
7.13289e-07
5.10444e-07
5.2694e-07
7.13393e-07
5.10446e-07
5.10553e-07
5.26961e-07
7.13355e-07
5.10446e-07
7.78808e-07
4.23484e-06
4.23463e-06
7.78837e-07
7.7884e-07
4.23497e-06
4.2348e-06
7.78825e-07
5.26949e-07
5.10549e-07
7.13292e-07
5.1044e-07
7.13338e-07
5.1044e-07
5.26942e-07
5.26956e-07
5.10549e-07
7.13381e-07
5.1044e-07
7.13441e-07
5.1044e-07
5.26942e-07
1.05482e-06
1.05477e-06
5.10636e-07
1.05497e-06
1.0549e-06
1.17099e-05
1.17119e-05
1.17128e-05
1.1711e-05
5.10644e-07
1.05499e-06
1.05486e-06
1.05487e-06
1.05479e-06
1.17118e-05
1.17107e-05
5.26928e-07
7.13458e-07
5.10445e-07
5.10553e-07
5.26951e-07
7.13382e-07
5.10444e-07
7.7878e-07
4.23523e-06
7.78776e-07
4.23558e-06
5.26936e-07
5.10445e-07
7.13487e-07
5.10553e-07
5.26955e-07
5.10445e-07
7.13419e-07
7.78706e-07
4.23544e-06
4.23514e-06
7.7876e-07
5.26944e-07
5.10549e-07
7.13387e-07
5.1044e-07
7.13454e-07
5.1044e-07
5.26935e-07
7.78781e-07
4.23557e-06
4.2354e-06
7.78777e-07
5.26953e-07
5.10549e-07
5.1044e-07
7.1342e-07
5.1044e-07
7.1349e-07
5.26938e-07
7.78838e-07
4.23469e-06
7.7881e-07
4.23506e-06
5.26939e-07
5.10444e-07
7.13359e-07
5.10553e-07
5.26954e-07
5.10444e-07
7.13312e-07
7.78846e-07
4.23495e-06
7.78859e-07
4.23529e-06
5.26955e-07
5.10552e-07
7.13333e-07
5.10441e-07
7.13375e-07
5.10444e-07
5.26938e-07
7.7883e-07
4.23503e-06
4.23486e-06
7.7883e-07
5.26954e-07
5.10549e-07
5.1044e-07
7.13317e-07
5.1044e-07
7.1336e-07
5.26937e-07
7.7885e-07
4.23528e-06
4.2351e-06
7.78826e-07
1.05502e-06
1.05462e-06
5.10636e-07
1.0551e-06
1.05476e-06
1.1711e-05
1.17128e-05
1.17143e-05
1.17126e-05
5.10644e-07
1.05511e-06
1.05477e-06
1.055e-06
1.05469e-06
1.17128e-05
1.17116e-05
5.26934e-07
5.10445e-07
7.13406e-07
5.10553e-07
5.26951e-07
5.10444e-07
7.13356e-07
7.78788e-07
4.23498e-06
7.78789e-07
4.23534e-06
7.78778e-07
4.23508e-06
7.78775e-07
4.23542e-06
5.26952e-07
5.10552e-07
5.10441e-07
7.13311e-07
5.10444e-07
7.13329e-07
5.26937e-07
5.26949e-07
5.10549e-07
5.1044e-07
7.13363e-07
5.1044e-07
7.13405e-07
5.26934e-07
7.78788e-07
4.23532e-06
4.23516e-06
7.78789e-07
7.78778e-07
4.23541e-06
4.23523e-06
7.78775e-07
1.17111e-05
1.1713e-05
1.17117e-05
1.17136e-05
5.10647e-07
1.05479e-06
1.05494e-06
1.0547e-06
1.05484e-06
1.17129e-05
1.17117e-05
1.17135e-05
1.17123e-05
1.17099e-05
1.17121e-05
1.17115e-05
1.17136e-05
1.05459e-06
1.05478e-06
5.10636e-07
1.05474e-06
1.05492e-06
1.17121e-05
1.1711e-05
1.17135e-05
1.17123e-05
5.10645e-07
1.05478e-06
1.05493e-06