/*--------------------------------*- C++ -*----------------------------------*\
| =========                 |                                                 |
| \\      /  F ield         | OpenFOAM: The Open Source CFD Toolbox           |
|  \\    /   O peration     | Version:  2206                                  |
|   \\  /    A nd           | Website:  www.openfoam.com                      |
|    \\/     M anipulation  |                                                 |
\*---------------------------------------------------------------------------*/
FoamFile
{
    version     2.0;
    format      ascii;
    arch        "LSB;label=32;scalar=64";
    class       volScalarField;
    location    "32";
    object      epsilon;
}
// * * * * * * * * * * * * * * * * * * * * * * * * * * * * * * * * * * * * * //

dimensions      [0 2 -3 0 0 0 0];

internalField   nonuniform List<scalar> 
28673
(
2.9421e-07
3.28352e-07
2.6614e-07
2.94213e-07
2.94223e-07
3.28368e-07
2.6614e-07
2.94217e-07
2.94226e-07
3.28375e-07
2.66141e-07
2.94221e-07
2.9423e-07
3.28382e-07
2.66141e-07
2.94224e-07
2.94233e-07
3.2839e-07
2.66139e-07
2.94225e-07
2.94234e-07
3.28398e-07
2.66137e-07
2.94226e-07
2.94235e-07
3.28402e-07
2.66121e-07
2.94177e-07
2.94216e-07
3.2838e-07
2.66034e-07
2.94099e-07
2.94121e-07
3.28265e-07
2.66019e-07
2.9409e-07
2.941e-07
3.28251e-07
2.66018e-07
2.94079e-07
2.94091e-07
3.28244e-07
2.66019e-07
2.94079e-07
2.9409e-07
3.28199e-07
2.65213e-07
2.90233e-07
2.90236e-07
3.22226e-07
2.94239e-07
3.28075e-07
2.9421e-07
3.28099e-07
2.94232e-07
2.94239e-07
2.94232e-07
2.94239e-07
3.28349e-07
3.28087e-07
2.94217e-07
2.94245e-07
2.94236e-07
2.94213e-07
2.94235e-07
3.28101e-07
2.94219e-07
2.94222e-07
2.94218e-07
3.281e-07
3.28369e-07
3.28105e-07
2.94235e-07
2.94242e-07
2.94235e-07
2.94242e-07
3.28358e-07
3.28093e-07
2.9422e-07
2.94248e-07
2.94221e-07
2.94248e-07
2.94238e-07
2.94216e-07
2.94238e-07
3.28371e-07
3.28108e-07
2.94221e-07
2.94226e-07
2.94221e-07
3.28107e-07
3.28375e-07
3.28111e-07
2.94239e-07
2.94245e-07
2.9424e-07
2.94246e-07
3.28364e-07
3.28101e-07
2.94224e-07
2.94251e-07
2.94224e-07
2.94252e-07
2.94241e-07
2.9422e-07
2.94242e-07
3.28377e-07
3.28114e-07
2.94224e-07
2.94229e-07
2.94224e-07
3.28114e-07
3.28381e-07
3.28118e-07
2.94243e-07
2.9425e-07
2.94245e-07
2.94251e-07
3.28372e-07
3.28109e-07
2.94227e-07
2.94255e-07
2.94228e-07
2.94255e-07
2.94245e-07
2.94224e-07
2.94246e-07
3.28384e-07
3.28122e-07
2.94228e-07
2.94233e-07
2.94228e-07
3.28122e-07
3.28389e-07
3.28126e-07
2.94248e-07
2.94254e-07
2.94248e-07
2.94253e-07
3.2838e-07
3.28118e-07
2.94231e-07
2.94259e-07
2.94231e-07
2.94259e-07
2.94249e-07
2.94225e-07
2.94248e-07
3.28392e-07
3.28131e-07
2.94231e-07
2.94234e-07
2.94231e-07
3.2813e-07
3.28397e-07
3.28132e-07
2.9425e-07
2.94255e-07
2.94249e-07
2.94254e-07
3.28388e-07
3.28122e-07
2.94233e-07
2.94261e-07
2.94231e-07
2.94258e-07
2.9425e-07
2.94227e-07
2.94248e-07
3.284e-07
3.28136e-07
2.94233e-07
2.94235e-07
2.94231e-07
3.28135e-07
3.28402e-07
3.28123e-07
2.9425e-07
2.94254e-07
2.94237e-07
2.9423e-07
3.28392e-07
3.28094e-07
2.94232e-07
2.94259e-07
2.94227e-07
2.94255e-07
2.94249e-07
2.94202e-07
2.94236e-07
3.28405e-07
3.28131e-07
2.94232e-07
2.94229e-07
2.94218e-07
3.28121e-07
3.28386e-07
3.28018e-07
2.94221e-07
2.94206e-07
2.94142e-07
2.94136e-07
3.28353e-07
3.27979e-07
2.94216e-07
2.94246e-07
2.94137e-07
2.94168e-07
2.94216e-07
2.94108e-07
2.9414e-07
3.28395e-07
3.28035e-07
2.94199e-07
2.94138e-07
2.94123e-07
3.2801e-07
3.28273e-07
3.27971e-07
2.9413e-07
2.94129e-07
2.94111e-07
2.94118e-07
3.28241e-07
3.27969e-07
2.94121e-07
2.94152e-07
2.94096e-07
2.94124e-07
2.9413e-07
2.9409e-07
2.94115e-07
3.28289e-07
3.27975e-07
2.94113e-07
2.941e-07
2.94098e-07
3.27982e-07
3.28242e-07
3.27974e-07
2.94113e-07
2.94119e-07
2.94103e-07
2.94107e-07
3.2824e-07
3.27962e-07
2.94096e-07
2.94125e-07
2.94087e-07
2.94115e-07
2.94116e-07
2.94078e-07
2.94106e-07
3.28246e-07
3.27983e-07
2.94099e-07
2.9409e-07
2.94088e-07
3.27981e-07
3.2824e-07
3.27932e-07
2.94105e-07
2.94108e-07
2.94051e-07
2.94055e-07
3.28229e-07
3.2792e-07
2.94088e-07
2.94116e-07
2.94034e-07
2.94062e-07
2.94107e-07
2.94027e-07
2.94055e-07
3.28248e-07
3.27938e-07
2.94089e-07
2.94037e-07
2.94034e-07
3.27938e-07
3.28196e-07
3.25417e-07
2.94105e-07
2.94108e-07
2.91635e-07
2.91638e-07
3.28186e-07
3.25412e-07
2.94087e-07
2.94116e-07
2.91622e-07
2.91639e-07
2.94109e-07
2.91619e-07
2.91637e-07
3.28201e-07
3.25419e-07
2.94088e-07
2.91623e-07
2.91621e-07
3.25418e-07
3.22227e-07
2.90245e-07
2.90247e-07
3.22222e-07
2.90235e-07
2.90248e-07
2.65213e-07
2.65213e-07
2.65213e-07
2.90246e-07
3.22229e-07
2.90235e-07
1.78399e-06
8.89232e-06
1.78446e-06
8.8918e-06
2.17497e-05
2.17484e-05
1.78381e-06
8.89317e-06
2.66142e-07
2.66141e-07
2.6614e-07
2.66141e-07
2.66143e-07
2.66141e-07
5.49595e-07
1.42439e-06
2.75846e-07
2.94213e-07
5.49752e-07
1.42362e-06
2.75846e-07
2.17498e-05
5.49618e-07
2.75847e-07
2.94222e-07
5.49777e-07
2.75847e-07
1.42349e-06
3.12721e-06
3.12808e-06
3.28096e-07
3.12679e-06
3.12766e-06
1.78416e-06
8.892e-06
1.7847e-06
8.89161e-06
2.17472e-05
2.17467e-05
1.78404e-06
8.89339e-06
1.7845e-06
8.89298e-06
2.66141e-07
2.66145e-07
2.66141e-07
2.6614e-07
2.66139e-07
2.66144e-07
2.66139e-07
5.49631e-07
1.42455e-06
2.75845e-07
2.94216e-07
5.49784e-07
1.42375e-06
2.75848e-07
2.17484e-05
2.17475e-05
5.49653e-07
2.75846e-07
1.42442e-06
2.94226e-07
5.49806e-07
2.75849e-07
1.42367e-06
3.12758e-06
3.12843e-06
3.28103e-07
3.12711e-06
3.12796e-06
1.78423e-06
8.89189e-06
1.7848e-06
8.89148e-06
2.17464e-05
2.17464e-05
1.78413e-06
8.89332e-06
1.78464e-06
8.89289e-06
2.66142e-07
2.66144e-07
2.66142e-07
2.66142e-07
2.66141e-07
2.66143e-07
2.66141e-07
5.4966e-07
1.42463e-06
2.75847e-07
2.9422e-07
5.49816e-07
1.4238e-06
2.7585e-07
2.17469e-05
2.17465e-05
5.49681e-07
2.75848e-07
1.42455e-06
2.94229e-07
5.49838e-07
2.75851e-07
1.42377e-06
3.12774e-06
3.12859e-06
3.2811e-07
3.12719e-06
3.12805e-06
1.78425e-06
8.89179e-06
1.78484e-06
8.89142e-06
2.17464e-05
2.17465e-05
1.78415e-06
8.8932e-06
1.78469e-06
8.89281e-06
2.66143e-07
2.66145e-07
2.66141e-07
2.66142e-07
2.6614e-07
2.66144e-07
2.6614e-07
5.49677e-07
1.42466e-06
2.75849e-07
2.94224e-07
5.49838e-07
1.42383e-06
2.75852e-07
2.17465e-05
2.17462e-05
5.49699e-07
2.7585e-07
1.4246e-06
2.94233e-07
5.4986e-07
2.75853e-07
1.4238e-06
3.12778e-06
3.12863e-06
3.28118e-07
3.12725e-06
3.12811e-06
1.78423e-06
8.89177e-06
1.78482e-06
8.89145e-06
2.17468e-05
2.1747e-05
1.78412e-06
8.89321e-06
1.78467e-06
8.89287e-06
2.6614e-07
2.66145e-07
2.66142e-07
2.66139e-07
2.66138e-07
2.66143e-07
2.66139e-07
5.49687e-07
1.42468e-06
2.75851e-07
2.94226e-07
5.49849e-07
1.42384e-06
2.75852e-07
2.17466e-05
2.17466e-05
5.49708e-07
2.75852e-07
1.42462e-06
2.94236e-07
5.4987e-07
2.75854e-07
1.42381e-06
3.12789e-06
3.12874e-06
3.28126e-07
3.12735e-06
3.12822e-06
1.78427e-06
8.89181e-06
1.78484e-06
8.8918e-06
2.17474e-05
2.17486e-05
1.78415e-06
8.89329e-06
1.78468e-06
8.89324e-06
2.66138e-07
2.66143e-07
2.66139e-07
2.66137e-07
2.66136e-07
2.66139e-07
2.66136e-07
5.49698e-07
1.42462e-06
2.75847e-07
2.94227e-07
5.49859e-07
1.42376e-06
2.75848e-07
2.17472e-05
2.17482e-05
5.49719e-07
2.75849e-07
1.42457e-06
2.94235e-07
5.49881e-07
2.7585e-07
1.42372e-06
3.12788e-06
3.12873e-06
3.28133e-07
3.12725e-06
3.12811e-06
1.78429e-06
8.89243e-06
1.7848e-06
8.893e-06
2.1748e-05
2.17508e-05
1.7841e-06
8.89385e-06
1.78461e-06
8.89439e-06
2.66135e-07
2.66139e-07
2.66135e-07
2.66131e-07
2.66124e-07
2.66134e-07
2.66127e-07
5.49689e-07
1.4245e-06
2.75847e-07
2.94225e-07
5.49853e-07
1.42359e-06
2.75846e-07
2.17484e-05
2.17518e-05
5.49712e-07
2.75848e-07
1.42436e-06
2.94236e-07
5.49876e-07
2.75847e-07
1.42348e-06
3.12748e-06
3.12834e-06
3.28134e-07
3.12696e-06
3.12783e-06
1.78462e-06
8.8925e-06
1.78541e-06
8.89339e-06
2.17466e-05
2.17517e-05
1.78459e-06
8.894e-06
1.78529e-06
8.89494e-06
2.66103e-07
2.66127e-07
2.66112e-07
2.6605e-07
2.66035e-07
2.66055e-07
2.6604e-07
5.49607e-07
1.42453e-06
2.75814e-07
2.9415e-07
5.49842e-07
1.42332e-06
2.7579e-07
2.17476e-05
2.17525e-05
5.49627e-07
2.75826e-07
1.42449e-06
2.9419e-07
5.49865e-07
2.75802e-07
1.42335e-06
3.12757e-06
3.12842e-06
3.28072e-07
3.12658e-06
3.12744e-06
1.78456e-06
8.8922e-06
1.78532e-06
8.89468e-06
2.17448e-05
2.17513e-05
1.78449e-06
8.89379e-06
1.78521e-06
8.89624e-06
2.66027e-07
2.66039e-07
2.6603e-07
2.66019e-07
2.66019e-07
2.66022e-07
2.66021e-07
5.49516e-07
1.4239e-06
2.75734e-07
2.94093e-07
5.49715e-07
1.42252e-06
2.7573e-07
2.17462e-05
2.17529e-05
5.49522e-07
2.7574e-07
1.42389e-06
2.94109e-07
5.49725e-07
2.75734e-07
1.42252e-06
3.12728e-06
3.12811e-06
3.27979e-07
3.12756e-06
3.12839e-06
1.78495e-06
8.89248e-06
1.78546e-06
8.89672e-06
2.17368e-05
2.17457e-05
1.78484e-06
8.89404e-06
1.7853e-06
8.89835e-06
2.66021e-07
2.66024e-07
2.66022e-07
2.66019e-07
2.66018e-07
2.66022e-07
2.6602e-07
5.49498e-07
1.42314e-06
2.75728e-07
2.94088e-07
5.49696e-07
1.42181e-06
2.7573e-07
2.17388e-05
2.17477e-05
5.49499e-07
2.7573e-07
1.42317e-06
2.94098e-07
5.49698e-07
2.75732e-07
1.42195e-06
3.12927e-06
3.13007e-06
3.27988e-07
3.1314e-06
3.1322e-06
1.78614e-06
8.88983e-06
1.78637e-06
8.89662e-06
2.17196e-05
2.17312e-05
1.78601e-06
8.89142e-06
1.78618e-06
8.8982e-06
2.66019e-07
2.66023e-07
2.66021e-07
2.66008e-07
2.66008e-07
2.66011e-07
2.66009e-07
5.49477e-07
1.42409e-06
2.75724e-07
2.94069e-07
5.49726e-07
1.42306e-06
2.75725e-07
2.17221e-05
2.17333e-05
5.49482e-07
2.75726e-07
1.42429e-06
2.94079e-07
5.49729e-07
2.75728e-07
1.42328e-06
3.1331e-06
3.13384e-06
3.27972e-07
3.13822e-06
3.13897e-06
1.78453e-06
8.881e-06
1.78752e-06
8.88847e-06
2.16814e-05
2.16842e-05
1.78456e-06
8.88264e-06
1.78739e-06
8.88993e-06
2.6602e-07
2.66023e-07
2.66022e-07
2.65793e-07
2.65793e-07
2.65795e-07
2.65794e-07
5.48398e-07
1.42717e-06
2.75671e-07
2.93777e-07
5.49636e-07
1.42116e-06
2.75737e-07
2.16835e-05
2.16859e-05
5.484e-07
2.75674e-07
1.42734e-06
2.93786e-07
5.49642e-07
2.75738e-07
1.42125e-06
3.13946e-06
3.14021e-06
3.2754e-07
3.14997e-06
3.15056e-06
1.30744e-06
7.86758e-06
1.75634e-06
3.84841e-06
1.77363e-05
7.58515e-06
1.30749e-06
7.86957e-06
1.75649e-06
3.84955e-06
2.58582e-07
2.60634e-07
2.60633e-07
2.67336e-07
2.58653e-07
2.61167e-07
2.61167e-07
5.18259e-07
1.35212e-06
2.74093e-07
2.87381e-07
5.37669e-07
1.36712e-06
2.71597e-07
1.77371e-05
7.58488e-06
5.18268e-07
2.74094e-07
1.3521e-06
2.87383e-07
5.37668e-07
2.71597e-07
1.36703e-06
3.10727e-06
3.10812e-06
3.14891e-07
2.71189e-06
2.71205e-06
8.89276e-06
1.42362e-06
2.17501e-05
3.12728e-06
3.12633e-06
2.17472e-05
1.42352e-06
8.89227e-06
2.17496e-05
2.17484e-05
2.17504e-05
3.12715e-06
3.28093e-07
3.12673e-06
3.12742e-06
2.17471e-05
2.17481e-05
2.17488e-05
2.17501e-05
3.28366e-07
3.12689e-06
3.12763e-06
3.12729e-06
3.12801e-06
1.78401e-06
8.89308e-06
1.78448e-06
8.89259e-06
5.49591e-07
1.42421e-06
2.75845e-07
2.94232e-07
5.4975e-07
1.4235e-06
2.75845e-07
5.49595e-07
1.42446e-06
2.75847e-07
2.94239e-07
5.49754e-07
1.42372e-06
2.75847e-07
1.7846e-06
8.89166e-06
8.89211e-06
1.78409e-06
1.78462e-06
8.89249e-06
8.89292e-06
1.78411e-06
5.49765e-07
2.94232e-07
1.42358e-06
2.75844e-07
1.42432e-06
2.75844e-07
5.49608e-07
5.4977e-07
2.94238e-07
1.4238e-06
2.75846e-07
1.42455e-06
2.75846e-07
5.49612e-07
3.12791e-06
3.12704e-06
3.28084e-07
3.12758e-06
3.12666e-06
2.17472e-05
2.17458e-05
2.17474e-05
2.17482e-05
3.28356e-07
3.12778e-06
3.12685e-06
3.12817e-06
3.12732e-06
2.17449e-05
2.17459e-05
5.49611e-07
2.94217e-07
1.4238e-06
2.75847e-07
1.7838e-06
8.8929e-06
5.49599e-07
2.94245e-07
2.7585e-07
1.4238e-06
1.78438e-06
8.89304e-06
8.89351e-06
1.78394e-06
5.49782e-07
2.94217e-07
1.42387e-06
2.75847e-07
1.42461e-06
2.75847e-07
5.49627e-07
1.78437e-06
8.8927e-06
8.89323e-06
1.78393e-06
5.49772e-07
2.94245e-07
2.7585e-07
1.4239e-06
2.7585e-07
1.42467e-06
5.49615e-07
1.78402e-06
8.89261e-06
1.7845e-06
8.89209e-06
5.496e-07
2.75846e-07
1.42428e-06
2.94236e-07
5.49756e-07
2.75846e-07
1.42356e-06
1.78402e-06
8.89336e-06
1.78449e-06
8.89284e-06
5.49769e-07
2.94213e-07
1.42369e-06
2.75845e-07
1.42447e-06
2.75845e-07
5.49614e-07
1.78464e-06
8.89199e-06
8.89245e-06
1.78413e-06
5.49772e-07
2.94235e-07
2.75846e-07
1.42364e-06
2.75846e-07
1.42439e-06
5.49617e-07
1.78463e-06
8.89269e-06
8.89316e-06
1.78412e-06
3.28092e-07
3.12728e-06
3.12664e-06
2.17501e-05
2.17484e-05
2.17498e-05
3.28366e-07
3.12761e-06
3.12685e-06
3.12799e-06
3.12723e-06
2.17485e-05
2.17499e-05
5.49621e-07
2.75847e-07
1.42444e-06
2.94219e-07
5.49779e-07
2.75847e-07
1.42372e-06
1.78422e-06
1.78475e-06
8.89297e-06
1.78422e-06
8.89404e-06
1.78475e-06
8.89352e-06
5.49792e-07
2.94222e-07
2.75846e-07
1.42359e-06
2.75846e-07
1.42432e-06
5.49635e-07
5.49794e-07
2.94218e-07
2.75847e-07
1.4238e-06
2.75846e-07
1.42455e-06
5.49637e-07
1.78489e-06
8.89282e-06
8.89329e-06
1.78432e-06
1.78488e-06
8.89338e-06
8.89384e-06
1.78432e-06
2.17506e-05
2.17494e-05
2.17511e-05
2.17499e-05
3.28367e-07
3.12698e-06
3.12784e-06
3.12737e-06
3.12823e-06
2.1748e-05
2.17491e-05
2.17486e-05
2.17496e-05
2.17469e-05
2.17462e-05
2.17485e-05
2.17477e-05
3.12744e-06
3.1282e-06
3.28103e-07
3.12701e-06
3.12779e-06
2.17458e-05
2.17462e-05
2.17471e-05
2.17476e-05
3.28374e-07
3.12708e-06
3.12789e-06
3.12755e-06
3.12835e-06
1.78418e-06
8.89284e-06
1.78472e-06
8.89241e-06
5.49626e-07
1.4244e-06
2.75847e-07
2.94235e-07
5.49783e-07
1.42365e-06
2.75847e-07
5.4963e-07
1.42463e-06
2.75849e-07
2.94242e-07
5.49787e-07
1.42386e-06
2.75849e-07
1.78476e-06
8.89155e-06
8.89196e-06
1.78421e-06
1.78478e-06
8.89231e-06
8.89275e-06
1.78423e-06
5.498e-07
2.94235e-07
1.42369e-06
2.75846e-07
1.42446e-06
2.75846e-07
5.49641e-07
5.49804e-07
2.94242e-07
1.42389e-06
2.75848e-07
1.42467e-06
2.75848e-07
5.49645e-07
3.12835e-06
3.12748e-06
3.2809e-07
3.12788e-06
3.12694e-06
2.1745e-05
2.17443e-05
2.17464e-05
2.17466e-05
3.28361e-07
3.12794e-06
3.12701e-06
3.12844e-06
3.12757e-06
2.17439e-05
2.17444e-05
5.49645e-07
1.42468e-06
2.75849e-07
2.9422e-07
5.49798e-07
1.42393e-06
2.7585e-07
1.78402e-06
8.89306e-06
1.78449e-06
8.8926e-06
5.49632e-07
2.75852e-07
1.42476e-06
2.94248e-07
5.49788e-07
2.75852e-07
1.42397e-06
1.78458e-06
8.89295e-06
8.89336e-06
1.7841e-06
5.49815e-07
2.9422e-07
1.42398e-06
2.75848e-07
1.42473e-06
2.75848e-07
5.49661e-07
1.78457e-06
8.89254e-06
8.89297e-06
1.78408e-06
5.49805e-07
2.94248e-07
2.75851e-07
1.42403e-06
2.75851e-07
1.42483e-06
5.49648e-07
1.7842e-06
8.89237e-06
1.78473e-06
8.89191e-06
5.49635e-07
2.75848e-07
1.42446e-06
2.94238e-07
5.4979e-07
2.75848e-07
1.42371e-06
1.78419e-06
8.89304e-06
1.78472e-06
8.89263e-06
5.49805e-07
2.94216e-07
1.42378e-06
2.75847e-07
1.42459e-06
2.75847e-07
5.49647e-07
1.7848e-06
8.89181e-06
8.89228e-06
1.78425e-06
5.49808e-07
2.94238e-07
2.75848e-07
1.42375e-06
2.75847e-07
1.42453e-06
5.4965e-07
1.78479e-06
8.89254e-06
8.89297e-06
1.78424e-06
3.12828e-06
3.12742e-06
3.28104e-07
3.12781e-06
3.12702e-06
2.17483e-05
2.17475e-05
2.17469e-05
2.17476e-05
3.28375e-07
3.12791e-06
3.12712e-06
3.12845e-06
3.12757e-06
2.17468e-05
2.17473e-05
5.49654e-07
2.75849e-07
1.42463e-06
2.94221e-07
5.49811e-07
2.75849e-07
1.42387e-06
1.78439e-06
8.89315e-06
1.78498e-06
8.89275e-06
1.78439e-06
8.89373e-06
1.78498e-06
8.89333e-06
5.49827e-07
2.94226e-07
2.75848e-07
1.42373e-06
2.75848e-07
1.42449e-06
5.49668e-07
5.49827e-07
2.9422e-07
2.75848e-07
1.42391e-06
2.75848e-07
1.42469e-06
5.49669e-07
1.78504e-06
8.89272e-06
8.8931e-06
1.78444e-06
1.78504e-06
8.89327e-06
8.89368e-06
1.78443e-06
2.17479e-05
2.17472e-05
2.17484e-05
2.17477e-05
3.28374e-07
3.12717e-06
3.12803e-06
3.12766e-06
3.12851e-06
2.17468e-05
2.17471e-05
2.17473e-05
2.17477e-05
2.17459e-05
2.17456e-05
2.17471e-05
2.17468e-05
3.1276e-06
3.12843e-06
3.28107e-07
3.12709e-06
3.12792e-06
2.17456e-05
2.17457e-05
2.17467e-05
2.17468e-05
3.28378e-07
3.12711e-06
3.12793e-06
3.12761e-06
3.12845e-06
1.78425e-06
8.89265e-06
1.78482e-06
8.89223e-06
5.49654e-07
1.42449e-06
2.75849e-07
2.94239e-07
5.49815e-07
1.42371e-06
2.75849e-07
5.49658e-07
1.4247e-06
2.75851e-07
2.94245e-07
5.49819e-07
1.42391e-06
2.75851e-07
1.78482e-06
8.89144e-06
8.89182e-06
1.78425e-06
1.78484e-06
8.8922e-06
8.89258e-06
1.78427e-06
5.49828e-07
2.9424e-07
1.42373e-06
2.75849e-07
1.42451e-06
2.75848e-07
5.49667e-07
5.49832e-07
2.94246e-07
1.42392e-06
2.7585e-07
1.42472e-06
2.7585e-07
5.4967e-07
3.12848e-06
3.12763e-06
3.28097e-07
3.12798e-06
3.12707e-06
2.17441e-05
2.17437e-05
2.17464e-05
2.17465e-05
3.28368e-07
3.12803e-06
3.12712e-06
3.12852e-06
3.12769e-06
2.17436e-05
2.17439e-05
5.49675e-07
1.42478e-06
2.75851e-07
2.94224e-07
5.49831e-07
1.424e-06
2.75851e-07
1.78412e-06
8.89292e-06
1.78462e-06
8.89246e-06
5.49663e-07
2.75854e-07
1.42488e-06
2.94251e-07
5.49821e-07
2.75854e-07
1.42406e-06
1.78467e-06
8.89283e-06
8.89325e-06
1.78415e-06
5.49845e-07
2.94224e-07
1.42402e-06
2.7585e-07
1.4248e-06
2.75849e-07
5.49689e-07
1.78465e-06
8.8924e-06
8.89283e-06
1.78414e-06
5.49835e-07
2.94251e-07
2.75853e-07
1.42409e-06
2.75853e-07
1.42491e-06
5.49676e-07
1.78427e-06
8.89217e-06
1.78483e-06
8.89172e-06
5.49663e-07
2.7585e-07
1.42456e-06
2.94241e-07
5.49822e-07
2.7585e-07
1.42377e-06
1.78426e-06
8.89288e-06
1.78483e-06
8.89245e-06
5.49832e-07
2.9422e-07
1.42382e-06
2.75849e-07
1.42464e-06
2.75849e-07
5.4967e-07
1.78486e-06
8.89169e-06
8.8921e-06
1.78428e-06
5.49835e-07
2.94241e-07
2.7585e-07
1.42378e-06
2.7585e-07
1.42458e-06
5.49675e-07
1.78485e-06
8.8924e-06
8.89279e-06
1.78428e-06
3.12853e-06
3.12765e-06
3.2811e-07
3.12797e-06
3.12715e-06
2.17468e-05
2.17465e-05
2.17463e-05
2.17467e-05
3.28381e-07
3.12804e-06
3.12717e-06
3.12859e-06
3.12768e-06
2.17464e-05
2.17465e-05
5.49682e-07
2.75851e-07
1.42472e-06
2.94224e-07
5.49842e-07
2.75851e-07
1.42393e-06
1.78446e-06
8.89307e-06
1.78508e-06
8.89264e-06
1.78445e-06
8.8936e-06
1.78507e-06
8.89317e-06
5.49854e-07
2.94229e-07
2.7585e-07
1.42379e-06
2.75851e-07
1.42457e-06
5.49692e-07
5.49855e-07
2.94224e-07
2.7585e-07
1.42394e-06
2.7585e-07
1.42474e-06
5.49694e-07
1.7851e-06
8.89257e-06
8.89299e-06
1.78448e-06
1.78509e-06
8.89311e-06
8.89352e-06
1.78447e-06
2.17468e-05
2.17466e-05
2.17473e-05
2.17471e-05
3.28381e-07
3.12721e-06
3.12807e-06
3.12772e-06
3.12857e-06
2.17466e-05
2.17466e-05
2.17471e-05
2.17472e-05
2.17458e-05
2.17457e-05
2.17468e-05
2.17467e-05
3.12764e-06
3.12846e-06
3.28114e-07
3.12716e-06
3.12796e-06
2.17459e-05
2.17459e-05
2.17468e-05
2.17468e-05
3.28385e-07
3.12723e-06
3.12802e-06
3.12769e-06
3.1285e-06
1.78427e-06
8.89256e-06
1.78485e-06
8.8922e-06
5.49677e-07
1.42453e-06
2.75852e-07
2.94243e-07
5.4984e-07
1.42374e-06
2.75852e-07
5.49679e-07
1.42473e-06
2.75853e-07
2.9425e-07
5.49843e-07
1.42393e-06
2.75853e-07
1.78483e-06
8.89141e-06
8.89178e-06
1.78424e-06
1.78484e-06
8.89222e-06
8.89257e-06
1.78425e-06
5.49849e-07
2.94244e-07
1.42375e-06
2.75851e-07
1.42454e-06
2.75851e-07
5.49683e-07
5.49852e-07
2.9425e-07
1.42394e-06
2.75853e-07
1.42474e-06
2.75852e-07
5.49685e-07
3.12857e-06
3.12774e-06
3.28104e-07
3.12807e-06
3.12718e-06
2.17439e-05
2.17438e-05
2.17467e-05
2.17466e-05
3.28376e-07
3.12813e-06
3.12724e-06
3.12862e-06
3.1278e-06
2.17441e-05
2.17441e-05
5.49699e-07
1.42481e-06
2.75852e-07
2.94227e-07
5.49858e-07
1.42403e-06
2.75852e-07
1.78414e-06
8.89277e-06
1.78467e-06
8.89235e-06
5.49686e-07
2.75856e-07
1.42494e-06
2.94255e-07
5.49847e-07
2.75856e-07
1.42411e-06
1.78468e-06
8.89282e-06
8.89319e-06
1.78414e-06
5.49867e-07
2.94227e-07
1.42404e-06
2.75851e-07
1.42482e-06
2.75851e-07
5.49704e-07
1.78467e-06
8.89235e-06
8.89274e-06
1.78413e-06
5.49857e-07
2.94255e-07
2.75855e-07
1.42412e-06
2.75855e-07
1.42495e-06
5.49692e-07
1.78428e-06
8.89209e-06
1.78487e-06
8.8917e-06
5.49684e-07
2.75853e-07
1.42459e-06
2.94245e-07
5.49846e-07
2.75853e-07
1.4238e-06
1.78427e-06
8.89275e-06
1.78486e-06
8.89238e-06
5.49848e-07
2.94224e-07
1.42384e-06
2.75851e-07
1.42467e-06
2.75851e-07
5.49682e-07
1.78486e-06
8.89173e-06
8.8921e-06
1.78427e-06
5.49853e-07
2.94245e-07
2.75852e-07
1.42381e-06
2.75852e-07
1.4246e-06
5.49688e-07
1.78485e-06
8.8924e-06
8.89275e-06
1.78426e-06
3.12866e-06
3.1277e-06
3.28118e-07
3.1281e-06
3.12721e-06
2.17465e-05
2.17464e-05
2.17463e-05
2.17465e-05
3.28389e-07
3.12815e-06
3.12727e-06
3.12872e-06
3.12774e-06
2.17466e-05
2.17465e-05
5.49702e-07
2.75853e-07
1.42475e-06
2.94228e-07
5.49866e-07
2.75853e-07
1.42395e-06
1.78447e-06
8.89293e-06
1.78511e-06
8.89254e-06
1.78447e-06
8.89347e-06
1.78511e-06
8.89308e-06
5.4987e-07
2.94233e-07
2.75852e-07
1.42381e-06
2.75852e-07
1.4246e-06
5.49703e-07
5.49873e-07
2.94228e-07
2.75852e-07
1.42396e-06
2.75852e-07
1.42476e-06
5.49707e-07
1.78511e-06
8.89254e-06
8.8929e-06
1.78446e-06
1.7851e-06
8.8931e-06
8.89344e-06
1.78445e-06
2.17467e-05
2.17467e-05
2.17472e-05
2.17472e-05
3.28389e-07
3.12731e-06
3.12818e-06
3.12779e-06
3.12865e-06
2.17468e-05
2.17468e-05
2.17474e-05
2.17473e-05
2.1746e-05
2.17462e-05
2.1747e-05
2.17471e-05
3.12776e-06
3.12855e-06
3.28122e-07
3.12728e-06
3.12808e-06
2.17466e-05
2.17463e-05
2.17475e-05
2.17472e-05
3.28393e-07
3.12729e-06
3.1281e-06
3.12779e-06
3.1286e-06
1.78425e-06
8.89259e-06
1.78483e-06
8.89229e-06
5.49689e-07
1.42454e-06
2.75854e-07
2.94248e-07
5.49855e-07
1.42375e-06
2.75854e-07
5.49691e-07
1.42474e-06
2.75855e-07
2.94254e-07
5.49857e-07
1.42394e-06
2.75854e-07
1.78482e-06
8.89155e-06
8.89179e-06
1.78423e-06
1.78483e-06
8.89243e-06
8.89265e-06
1.78425e-06
5.49861e-07
2.94247e-07
1.42374e-06
2.7585e-07
1.42454e-06
2.75852e-07
5.49695e-07
5.49864e-07
2.94253e-07
1.42392e-06
2.75849e-07
1.42474e-06
2.75851e-07
5.49697e-07
3.12867e-06
3.12785e-06
3.28113e-07
3.12816e-06
3.12728e-06
2.17444e-05
2.17444e-05
2.17475e-05
2.17471e-05
3.28385e-07
3.12813e-06
3.12725e-06
3.12868e-06
3.12787e-06
2.1745e-05
2.17447e-05
5.49709e-07
1.42483e-06
2.75854e-07
2.94231e-07
5.49872e-07
1.42404e-06
2.75854e-07
1.78412e-06
8.89274e-06
1.78465e-06
8.89238e-06
5.49698e-07
2.75858e-07
1.42496e-06
2.94259e-07
5.49862e-07
2.75858e-07
1.42412e-06
1.78466e-06
8.893e-06
8.89324e-06
1.78413e-06
5.49877e-07
2.94231e-07
1.42403e-06
2.75853e-07
1.42482e-06
2.75853e-07
5.49716e-07
1.78465e-06
8.89251e-06
8.89276e-06
1.78412e-06
5.49868e-07
2.94258e-07
2.75855e-07
1.42411e-06
2.75857e-07
1.42495e-06
5.49705e-07
1.78426e-06
8.89213e-06
1.78484e-06
8.8918e-06
5.49695e-07
2.75854e-07
1.42461e-06
2.94249e-07
5.49858e-07
2.75854e-07
1.42381e-06
1.78426e-06
8.89277e-06
1.78484e-06
8.89245e-06
5.49858e-07
2.94225e-07
1.42382e-06
2.75848e-07
1.42466e-06
2.75851e-07
5.49692e-07
1.78485e-06
8.89194e-06
8.89218e-06
1.78426e-06
5.49864e-07
2.94248e-07
2.7585e-07
1.42379e-06
2.75852e-07
1.4246e-06
5.497e-07
1.78484e-06
8.89256e-06
8.8928e-06
1.78426e-06
3.12877e-06
3.1278e-06
3.28126e-07
3.12819e-06
3.12732e-06
2.17467e-05
2.17468e-05
2.17472e-05
2.17469e-05
3.28397e-07
3.12819e-06
3.12734e-06
3.12879e-06
3.12784e-06
2.17473e-05
2.17469e-05
5.49713e-07
2.75854e-07
1.42477e-06
2.94232e-07
5.49877e-07
2.75854e-07
1.42397e-06
1.78446e-06
8.89291e-06
1.78509e-06
8.89258e-06
1.78445e-06
8.89346e-06
1.78508e-06
8.89315e-06
5.49879e-07
2.94236e-07
2.7585e-07
1.4238e-06
2.75853e-07
1.4246e-06
5.49714e-07
5.49883e-07
2.94231e-07
2.7585e-07
1.42395e-06
2.75852e-07
1.42477e-06
5.49719e-07
1.7851e-06
8.89269e-06
8.89293e-06
1.78446e-06
1.78509e-06
8.89327e-06
8.8935e-06
1.78445e-06
2.1747e-05
2.17471e-05
2.17475e-05
2.17476e-05
3.28397e-07
3.12736e-06
3.12823e-06
3.12788e-06
3.12874e-06
2.17476e-05
2.17472e-05
2.17481e-05
2.17477e-05
2.17466e-05
2.17477e-05
2.17475e-05
2.17484e-05
3.12775e-06
3.12858e-06
3.28129e-07
3.12717e-06
3.12802e-06
2.17494e-05
2.17473e-05
2.17504e-05
2.1748e-05
3.284e-07
3.12699e-06
3.12778e-06
3.12754e-06
3.12838e-06
1.78429e-06
8.89271e-06
1.78485e-06
8.89278e-06
5.49697e-07
1.42449e-06
2.7585e-07
2.94251e-07
5.49866e-07
1.42367e-06
2.7585e-07
5.49701e-07
1.42469e-06
2.7585e-07
2.94255e-07
5.49869e-07
1.42387e-06
2.7585e-07
1.78485e-06
8.89233e-06
8.89194e-06
1.78426e-06
1.78487e-06
8.8934e-06
8.89297e-06
1.78428e-06
5.49862e-07
2.94249e-07
1.42356e-06
2.75847e-07
1.4244e-06
2.75848e-07
5.49691e-07
5.49867e-07
2.94254e-07
1.42377e-06
2.75848e-07
1.42461e-06
2.75849e-07
5.49695e-07
3.12861e-06
3.1278e-06
3.2812e-07
3.12803e-06
3.12715e-06
2.17451e-05
2.17461e-05
2.175e-05
2.17481e-05
3.28391e-07
3.12791e-06
3.127e-06
3.12843e-06
3.12762e-06
2.17475e-05
2.17456e-05
5.49722e-07
1.42478e-06
2.75852e-07
2.94233e-07
5.49883e-07
1.42396e-06
2.75851e-07
1.78415e-06
8.8928e-06
1.78466e-06
8.89271e-06
5.49711e-07
2.75855e-07
1.42491e-06
2.94261e-07
5.49875e-07
2.75855e-07
1.42404e-06
1.78469e-06
8.89374e-06
8.89342e-06
1.78416e-06
5.49884e-07
2.94231e-07
1.42384e-06
2.75848e-07
1.42468e-06
2.75848e-07
5.49716e-07
1.78469e-06
8.89318e-06
8.89291e-06
1.78414e-06
5.49876e-07
2.94259e-07
2.75851e-07
1.4239e-06
2.75852e-07
1.4248e-06
5.49706e-07
1.7843e-06
8.89225e-06
1.78486e-06
8.89226e-06
5.49705e-07
2.7585e-07
1.42456e-06
2.9425e-07
5.4987e-07
2.7585e-07
1.42373e-06
1.7843e-06
8.89283e-06
1.78486e-06
8.89282e-06
5.49863e-07
2.94227e-07
1.42367e-06
2.75847e-07
1.42453e-06
2.75848e-07
5.49696e-07
1.78489e-06
8.8929e-06
8.89253e-06
1.78429e-06
5.49868e-07
2.94248e-07
2.75848e-07
1.42361e-06
2.75849e-07
1.42446e-06
5.49698e-07
1.78488e-06
8.89336e-06
8.89297e-06
1.78428e-06
3.12875e-06
3.12783e-06
3.28133e-07
3.1281e-06
3.12726e-06
2.17473e-05
2.17482e-05
2.17501e-05
2.17478e-05
3.28403e-07
3.12783e-06
3.12701e-06
3.12854e-06
3.12762e-06
2.17502e-05
2.17478e-05
5.49723e-07
2.75851e-07
1.42472e-06
2.94233e-07
5.49889e-07
2.75851e-07
1.42389e-06
1.7845e-06
8.89295e-06
1.78512e-06
8.89289e-06
1.78449e-06
8.89354e-06
1.78511e-06
8.89353e-06
5.49885e-07
2.94235e-07
2.75848e-07
1.42359e-06
2.75849e-07
1.42445e-06
5.49718e-07
5.49888e-07
2.94231e-07
2.75848e-07
1.42377e-06
2.75849e-07
1.42462e-06
5.49719e-07
1.78514e-06
8.89332e-06
8.89301e-06
1.7845e-06
1.78513e-06
8.89407e-06
8.89368e-06
1.78448e-06
2.17476e-05
2.17486e-05
2.17481e-05
2.17491e-05
3.28404e-07
3.12707e-06
3.12793e-06
3.12763e-06
3.12849e-06
2.17503e-05
2.17482e-05
2.17509e-05
2.17487e-05
2.17477e-05
2.17503e-05
2.17487e-05
2.17517e-05
3.12735e-06
3.12816e-06
3.28133e-07
3.12687e-06
3.12771e-06
2.17504e-05
2.17471e-05
2.17519e-05
2.17486e-05
3.28402e-07
3.12671e-06
3.1276e-06
3.12743e-06
3.12829e-06
1.7843e-06
8.89348e-06
1.78481e-06
8.89395e-06
5.49685e-07
1.42433e-06
2.75847e-07
2.94249e-07
5.49853e-07
1.42348e-06
2.75846e-07
5.49688e-07
1.42456e-06
2.75848e-07
2.94252e-07
5.49858e-07
1.42369e-06
2.75847e-07
1.785e-06
8.89332e-06
8.89275e-06
1.78439e-06
1.78501e-06
8.89421e-06
8.89368e-06
1.78441e-06
5.49861e-07
2.94246e-07
1.42343e-06
2.75837e-07
1.4244e-06
2.75843e-07
5.49657e-07
5.49865e-07
2.94246e-07
1.4236e-06
2.75836e-07
1.42461e-06
2.75844e-07
5.49659e-07
3.1283e-06
3.12744e-06
3.28118e-07
3.12778e-06
3.12674e-06
2.17458e-05
2.17486e-05
2.1751e-05
2.17476e-05
3.28386e-07
3.12753e-06
3.12652e-06
3.12834e-06
3.12738e-06
2.17489e-05
2.17456e-05
5.49705e-07
1.42459e-06
2.75847e-07
2.94232e-07
5.49872e-07
1.42373e-06
2.75847e-07
1.78409e-06
8.89334e-06
1.78459e-06
8.89386e-06
5.49695e-07
2.75852e-07
1.4247e-06
2.94259e-07
5.49864e-07
2.75851e-07
1.4238e-06
1.78476e-06
8.89479e-06
8.89417e-06
1.78429e-06
5.49881e-07
2.94231e-07
1.42374e-06
2.75844e-07
1.42465e-06
2.75846e-07
5.49701e-07
1.78475e-06
8.8943e-06
8.89367e-06
1.78428e-06
5.49873e-07
2.94258e-07
2.75847e-07
1.4238e-06
2.75849e-07
1.42477e-06
5.4969e-07
1.78432e-06
8.89304e-06
1.78482e-06
8.89346e-06
5.49692e-07
2.75847e-07
1.42439e-06
2.94249e-07
5.49858e-07
2.75846e-07
1.42353e-06
1.78431e-06
8.89345e-06
1.78481e-06
8.89401e-06
5.49864e-07
2.94219e-07
1.4235e-06
2.75834e-07
1.42454e-06
2.75842e-07
5.49661e-07
1.78503e-06
8.89373e-06
8.89322e-06
1.78442e-06
5.49867e-07
2.94245e-07
2.75837e-07
1.42348e-06
2.75843e-07
1.42446e-06
5.49665e-07
1.78502e-06
8.89435e-06
8.89377e-06
1.78442e-06
3.12824e-06
3.12736e-06
3.28136e-07
3.12757e-06
3.12688e-06
2.17486e-05
2.17514e-05
2.1752e-05
2.17488e-05
3.28405e-07
3.12751e-06
3.12679e-06
3.12824e-06
3.12746e-06
2.17514e-05
2.17482e-05
5.49714e-07
2.75848e-07
1.42455e-06
2.94231e-07
5.49881e-07
2.75847e-07
1.42369e-06
1.78449e-06
8.8934e-06
1.785e-06
8.89401e-06
1.78451e-06
8.89416e-06
1.78507e-06
8.89471e-06
5.49887e-07
2.94234e-07
2.7584e-07
1.42347e-06
2.75845e-07
1.42441e-06
5.49684e-07
5.4989e-07
2.94228e-07
2.75839e-07
1.42364e-06
2.75844e-07
1.42462e-06
5.49688e-07
1.78517e-06
8.89446e-06
8.8938e-06
1.7845e-06
1.78528e-06
8.89502e-06
8.89445e-06
1.78462e-06
2.17486e-05
2.17512e-05
2.17491e-05
2.17518e-05
3.28402e-07
3.1268e-06
3.12766e-06
3.12753e-06
3.12839e-06
2.17513e-05
2.17481e-05
2.17519e-05
2.17486e-05
2.17461e-05
2.17511e-05
2.17476e-05
2.17524e-05
3.12743e-06
3.12834e-06
3.28082e-07
3.1265e-06
3.12742e-06
2.17511e-05
2.17455e-05
2.17523e-05
2.17468e-05
3.28336e-07
3.12667e-06
3.12758e-06
3.12714e-06
3.12806e-06
1.78464e-06
8.89338e-06
1.78542e-06
8.89428e-06
5.49603e-07
1.42442e-06
2.75822e-07
2.94191e-07
5.49843e-07
1.42327e-06
2.75795e-07
5.49605e-07
1.4246e-06
2.75818e-07
2.94177e-07
5.49845e-07
1.42342e-06
2.75791e-07
1.78549e-06
8.89386e-06
8.89226e-06
1.78466e-06
1.78551e-06
8.89477e-06
8.89315e-06
1.78468e-06
5.49765e-07
2.94168e-07
1.42294e-06
2.7575e-07
1.4242e-06
2.75772e-07
5.49545e-07
5.49767e-07
2.94156e-07
1.4231e-06
2.75747e-07
1.42436e-06
2.75768e-07
5.49548e-07
3.12825e-06
3.12732e-06
3.28032e-07
3.12726e-06
3.12626e-06
2.17447e-05
2.17496e-05
2.17518e-05
2.17462e-05
3.28287e-07
3.12742e-06
3.12623e-06
3.12792e-06
3.12693e-06
2.17503e-05
2.17443e-05
5.49669e-07
1.42474e-06
2.75838e-07
2.9419e-07
5.49891e-07
1.42363e-06
2.7582e-07
1.78459e-06
8.89353e-06
1.78528e-06
8.89446e-06
5.49659e-07
2.75841e-07
1.42486e-06
2.94222e-07
5.49883e-07
2.75823e-07
1.4237e-06
1.78542e-06
8.89544e-06
8.89383e-06
1.78462e-06
5.49825e-07
2.94165e-07
1.42329e-06
2.75769e-07
1.42455e-06
2.75794e-07
5.49597e-07
1.78542e-06
8.89495e-06
8.89336e-06
1.78462e-06
5.49817e-07
2.94198e-07
2.75772e-07
1.42336e-06
2.75798e-07
1.42468e-06
5.49586e-07
1.78465e-06
8.89293e-06
1.78544e-06
8.8938e-06
5.49611e-07
2.7582e-07
1.42448e-06
2.94186e-07
5.49848e-07
2.75794e-07
1.42333e-06
1.78465e-06
8.89352e-06
1.78543e-06
8.89443e-06
5.49768e-07
2.94127e-07