/*--------------------------------*- C++ -*----------------------------------*\
| =========                 |                                                 |
| \\      /  F ield         | OpenFOAM: The Open Source CFD Toolbox           |
|  \\    /   O peration     | Version:  2206                                  |
|   \\  /    A nd           | Website:  www.openfoam.com                      |
|    \\/     M anipulation  |                                                 |
\*---------------------------------------------------------------------------*/
FoamFile
{
    version     2.0;
    format      ascii;
    arch        "LSB;label=32;scalar=64";
    class       volScalarField;
    location    "32";
    object      k;
}
// * * * * * * * * * * * * * * * * * * * * * * * * * * * * * * * * * * * * * //

dimensions      [0 2 -2 0 0 0 0];

internalField   nonuniform List<scalar> 
28673
(
2.46019e-05
2.39458e-05
2.52487e-05
2.4602e-05
2.46017e-05
2.3949e-05
2.52487e-05
2.4602e-05
2.46017e-05
2.39492e-05
2.52487e-05
2.46021e-05
2.46018e-05
2.39494e-05
2.52487e-05
2.46022e-05
2.46019e-05
2.39495e-05
2.52486e-05
2.46021e-05
2.46019e-05
2.39498e-05
2.52484e-05
2.46019e-05
2.46017e-05
2.39496e-05
2.52465e-05
2.45978e-05
2.45996e-05
2.39458e-05
2.52417e-05
2.45941e-05
2.45942e-05
2.39411e-05
2.52414e-05
2.45941e-05
2.45939e-05
2.39408e-05
2.52414e-05
2.45942e-05
2.4594e-05
2.39408e-05
2.52416e-05
2.45944e-05
2.45943e-05
2.39414e-05
2.52657e-05
2.46386e-05
2.46385e-05
2.40312e-05
2.46013e-05
2.39532e-05
2.46019e-05
2.39511e-05
2.46014e-05
2.46013e-05
2.46013e-05
2.46013e-05
2.39492e-05
2.39534e-05
2.46017e-05
2.46009e-05
2.46015e-05
2.4602e-05
2.46014e-05
2.39528e-05
2.46018e-05
2.46017e-05
2.46017e-05
2.39532e-05
2.39477e-05
2.39535e-05
2.46015e-05
2.46015e-05
2.46016e-05
2.46015e-05
2.39494e-05
2.39536e-05
2.46019e-05
2.4601e-05
2.46019e-05
2.4601e-05
2.46015e-05
2.4602e-05
2.46014e-05
2.39489e-05
2.39531e-05
2.46018e-05
2.46018e-05
2.46018e-05
2.39534e-05
2.39496e-05
2.39538e-05
2.46017e-05
2.46016e-05
2.46017e-05
2.46016e-05
2.39496e-05
2.39538e-05
2.46021e-05
2.46012e-05
2.46021e-05
2.46012e-05
2.46015e-05
2.46021e-05
2.46015e-05
2.39491e-05
2.39533e-05
2.46019e-05
2.46018e-05
2.46018e-05
2.39536e-05
2.39499e-05
2.39541e-05
2.46018e-05
2.46018e-05
2.46018e-05
2.46018e-05
2.39498e-05
2.3954e-05
2.46022e-05
2.46013e-05
2.46022e-05
2.46013e-05
2.46016e-05
2.46022e-05
2.46016e-05
2.39493e-05
2.39535e-05
2.4602e-05
2.46019e-05
2.46019e-05
2.39538e-05
2.39501e-05
2.39543e-05
2.4602e-05
2.46019e-05
2.4602e-05
2.46019e-05
2.395e-05
2.39543e-05
2.46023e-05
2.46015e-05
2.46024e-05
2.46015e-05
2.46018e-05
2.46021e-05
2.46017e-05
2.39495e-05
2.39537e-05
2.46021e-05
2.46019e-05
2.46021e-05
2.3954e-05
2.39504e-05
2.39545e-05
2.46021e-05
2.46019e-05
2.46018e-05
2.46016e-05
2.39503e-05
2.39541e-05
2.46025e-05
2.46016e-05
2.46024e-05
2.46014e-05
2.46018e-05
2.4602e-05
2.46016e-05
2.39498e-05
2.39539e-05
2.46023e-05
2.46018e-05
2.4602e-05
2.3954e-05
2.39505e-05
2.39522e-05
2.46017e-05
2.46014e-05
2.46003e-05
2.45989e-05
2.39499e-05
2.39504e-05
2.46024e-05
2.46013e-05
2.46013e-05
2.46004e-05
2.46015e-05
2.45996e-05
2.45997e-05
2.39499e-05
2.39522e-05
2.46019e-05
2.46009e-05
2.46001e-05
2.39512e-05
2.39472e-05
2.39461e-05
2.45986e-05
2.45972e-05
2.45943e-05
2.45937e-05
2.39452e-05
2.39454e-05
2.46e-05
2.45994e-05
2.45951e-05
2.45945e-05
2.4598e-05
2.45943e-05
2.45941e-05
2.39474e-05
2.39462e-05
2.45984e-05
2.45949e-05
2.45944e-05
2.39457e-05
2.39417e-05
2.3945e-05
2.45939e-05
2.45936e-05
2.45937e-05
2.45935e-05
2.39412e-05
2.39451e-05
2.45945e-05
2.45938e-05
2.4594e-05
2.45932e-05
2.45938e-05
2.45941e-05
2.45936e-05
2.39416e-05
2.39446e-05
2.45942e-05
2.45939e-05
2.4594e-05
2.3945e-05
2.39411e-05
2.3945e-05
2.45939e-05
2.45937e-05
2.45937e-05
2.45936e-05
2.39411e-05
2.3945e-05
2.45942e-05
2.45934e-05
2.45941e-05
2.45933e-05
2.45938e-05
2.45942e-05
2.45938e-05
2.39406e-05
2.39446e-05
2.45942e-05
2.4594e-05
2.45941e-05
2.3945e-05
2.3941e-05
2.39455e-05
2.45938e-05
2.45938e-05
2.45943e-05
2.45942e-05
2.3941e-05
2.39455e-05
2.45942e-05
2.45934e-05
2.45947e-05
2.45939e-05
2.45939e-05
2.45947e-05
2.45943e-05
2.39406e-05
2.39451e-05
2.45942e-05
2.45946e-05
2.45947e-05
2.39455e-05
2.39416e-05
2.39821e-05
2.4594e-05
2.45939e-05
2.46286e-05
2.46285e-05
2.39416e-05
2.39821e-05
2.45944e-05
2.45936e-05
2.46289e-05
2.46283e-05
2.4594e-05
2.46288e-05
2.46286e-05
2.39412e-05
2.39818e-05
2.45944e-05
2.46288e-05
2.46288e-05
2.3982e-05
2.40314e-05
2.46384e-05
2.46384e-05
2.40313e-05
2.46387e-05
2.46382e-05
2.52657e-05
2.52657e-05
2.52657e-05
2.46384e-05
2.40311e-05
2.46387e-05
2.81267e-05
6.99502e-05
2.81281e-05
6.99475e-05
7.7644e-05
7.7641e-05
2.81273e-05
6.99499e-05
2.52489e-05
2.52486e-05
2.52487e-05
2.52488e-05
2.52486e-05
2.52486e-05
2.30624e-05
2.76776e-05
2.49608e-05
2.46021e-05
2.30625e-05
2.76737e-05
2.49608e-05
7.764e-05
2.30616e-05
2.49605e-05
2.46018e-05
2.30618e-05
2.49605e-05
2.76731e-05
3.54963e-05
3.5499e-05
2.39532e-05
3.54949e-05
3.54975e-05
2.81294e-05
6.99485e-05
2.81312e-05
6.99465e-05
7.7638e-05
7.76368e-05
2.81305e-05
6.9951e-05
2.81319e-05
6.99489e-05
2.52488e-05
2.52486e-05
2.52486e-05
2.52487e-05
2.52487e-05
2.52485e-05
2.52485e-05
2.30634e-05
2.76801e-05
2.49607e-05
2.46021e-05
2.30633e-05
2.76758e-05
2.49608e-05
7.76367e-05
7.76345e-05
2.30625e-05
2.49605e-05
2.76797e-05
2.46018e-05
2.30625e-05
2.49606e-05
2.76759e-05
3.55001e-05
3.55026e-05
2.39533e-05
3.54988e-05
3.55015e-05
2.81312e-05
6.99479e-05
2.81333e-05
6.99458e-05
7.76361e-05
7.7636e-05
2.81325e-05
6.99506e-05
2.81343e-05
6.99484e-05
2.52488e-05
2.52485e-05
2.52485e-05
2.52487e-05
2.52487e-05
2.52484e-05
2.52484e-05
2.3064e-05
2.76816e-05
2.49607e-05
2.46022e-05
2.3064e-05
2.76771e-05
2.49607e-05
7.76332e-05
7.76322e-05
2.30632e-05
2.49604e-05
2.76818e-05
2.46018e-05
2.30632e-05
2.49605e-05
2.76776e-05
3.55021e-05
3.55048e-05
2.39535e-05
3.55e-05
3.55027e-05
2.81323e-05
6.99475e-05
2.81346e-05
6.99455e-05
7.76361e-05
7.76363e-05
2.81336e-05
6.995e-05
2.81357e-05
6.9948e-05
2.52487e-05
2.52486e-05
2.52485e-05
2.52488e-05
2.52486e-05
2.52486e-05
2.52485e-05
2.30644e-05
2.76826e-05
2.49607e-05
2.46022e-05
2.30645e-05
2.7678e-05
2.49608e-05
7.76321e-05
7.76316e-05
2.30636e-05
2.49604e-05
2.76829e-05
2.46019e-05
2.30637e-05
2.49606e-05
2.76785e-05
3.55031e-05
3.55058e-05
2.39537e-05
3.55015e-05
3.55043e-05
2.81328e-05
6.99473e-05
2.81352e-05
6.99456e-05
7.7637e-05
7.76375e-05
2.81339e-05
6.99501e-05
2.81361e-05
6.99483e-05
2.52487e-05
2.52486e-05
2.52486e-05
2.52486e-05
2.52486e-05
2.52484e-05
2.52486e-05
2.30647e-05
2.76833e-05
2.49607e-05
2.46022e-05
2.30648e-05
2.76785e-05
2.49608e-05
7.76325e-05
7.76325e-05
2.30639e-05
2.49605e-05
2.76836e-05
2.4602e-05
2.3064e-05
2.49606e-05
2.76791e-05
3.55053e-05
3.55081e-05
2.39539e-05
3.55036e-05
3.55064e-05
2.81332e-05
6.99475e-05
2.81358e-05
6.99475e-05
7.76386e-05
7.76413e-05
2.81346e-05
6.99505e-05
2.81368e-05
6.99502e-05
2.52485e-05
2.52484e-05
2.52486e-05
2.52485e-05
2.52483e-05
2.52482e-05
2.52483e-05
2.30651e-05
2.76833e-05
2.49607e-05
2.46021e-05
2.30653e-05
2.7678e-05
2.49607e-05
7.76338e-05
7.76362e-05
2.30643e-05
2.49605e-05
2.76837e-05
2.46019e-05
2.30644e-05
2.49605e-05
2.76786e-05
3.55066e-05
3.55094e-05
2.39541e-05
3.55039e-05
3.55068e-05
2.81311e-05
6.99508e-05
2.81348e-05
6.99538e-05
7.764e-05
7.76466e-05
2.8133e-05
6.99534e-05
2.81364e-05
6.99562e-05
2.52483e-05
2.52482e-05
2.52482e-05
2.52477e-05
2.52468e-05
2.52476e-05
2.5247e-05
2.3063e-05
2.76823e-05
2.49605e-05
2.46016e-05
2.30644e-05
2.76749e-05
2.49603e-05
7.76368e-05
7.76448e-05
2.30623e-05
2.49603e-05
2.76826e-05
2.46016e-05
2.30637e-05
2.49602e-05
2.76756e-05
3.55069e-05
3.55097e-05
2.39533e-05
3.55035e-05
3.55064e-05
2.81284e-05
6.99511e-05
2.81344e-05
6.99558e-05
7.76366e-05
7.76488e-05
2.81312e-05
6.99542e-05
2.81368e-05
6.99591e-05
2.52452e-05
2.52467e-05
2.52455e-05
2.52424e-05
2.52418e-05
2.52424e-05
2.52419e-05
2.30561e-05
2.76803e-05
2.49572e-05
2.45963e-05
2.30604e-05
2.76688e-05
2.49557e-05
7.76348e-05
7.76466e-05
2.30555e-05
2.49578e-05
2.76819e-05
2.45979e-05
2.30599e-05
2.49562e-05
2.76709e-05
3.55075e-05
3.55101e-05
2.3948e-05
3.55003e-05
3.5503e-05
2.81254e-05
6.99496e-05
2.813e-05
6.99626e-05
7.76323e-05
7.76479e-05
2.81273e-05
6.99531e-05
2.8132e-05
6.9966e-05
2.52417e-05
2.52418e-05
2.52416e-05
2.52414e-05
2.52415e-05
2.52413e-05
2.52414e-05
2.30545e-05
2.76749e-05
2.49532e-05
2.45942e-05
2.30554e-05
2.76611e-05
2.49532e-05
7.76315e-05
7.76475e-05
2.30536e-05
2.49532e-05
2.76762e-05
2.4594e-05
2.30545e-05
2.49531e-05
2.76623e-05
3.55047e-05
3.55072e-05
2.39451e-05
3.5501e-05
3.55036e-05
2.81263e-05
6.9951e-05
2.81288e-05
6.99733e-05
7.76132e-05
7.76344e-05
2.81278e-05
6.99546e-05
2.81301e-05
6.99773e-05
2.52416e-05
2.52415e-05
2.52415e-05
2.52414e-05
2.52415e-05
2.52413e-05
2.52414e-05
2.30541e-05
2.76727e-05
2.49532e-05
2.45942e-05
2.30558e-05
2.76549e-05
2.49533e-05
7.76139e-05
7.76351e-05
2.30532e-05
2.4953e-05
2.76736e-05
2.45941e-05
2.30549e-05
2.49532e-05
2.76564e-05
3.55064e-05
3.55088e-05
2.3945e-05
3.55048e-05
3.55071e-05
2.81309e-05
6.99372e-05
2.81308e-05
6.99728e-05
7.75724e-05
7.76e-05
2.81322e-05
6.99411e-05
2.81318e-05
6.99767e-05
2.52416e-05
2.52414e-05
2.52415e-05
2.52417e-05
2.52418e-05
2.52416e-05
2.52417e-05
2.30532e-05
2.76839e-05
2.49533e-05
2.45944e-05
2.30566e-05
2.76588e-05
2.49533e-05
7.75742e-05
7.76008e-05
2.30525e-05
2.49532e-05
2.76856e-05
2.45942e-05
2.30559e-05
2.49532e-05
2.76606e-05
3.55037e-05
3.55056e-05
2.3945e-05
3.55038e-05
3.55057e-05
2.81361e-05
6.98943e-05
2.81294e-05
6.99523e-05
7.74852e-05
7.75105e-05
2.81377e-05
6.98982e-05
2.81308e-05
6.99559e-05
2.52418e-05
2.52417e-05
2.52418e-05
2.52489e-05
2.52489e-05
2.52488e-05
2.52489e-05
2.3051e-05
2.77124e-05
2.49543e-05
2.45984e-05
2.3058e-05
2.76408e-05
2.49534e-05
7.74856e-05
7.75105e-05
2.30504e-05
2.49542e-05
2.77136e-05
2.45983e-05
2.30573e-05
2.49533e-05
2.76415e-05
3.54856e-05
3.54875e-05
2.39507e-05
3.54733e-05
3.54751e-05
2.54147e-05
6.79898e-05
2.80053e-05
5.95288e-05
7.33934e-05
4.87684e-05
2.54159e-05
6.79971e-05
2.80075e-05
5.95356e-05
2.5529e-05
2.54314e-05
2.54315e-05
2.51923e-05
2.55246e-05
2.54085e-05
2.54085e-05
2.30809e-05
2.73638e-05
2.49954e-05
2.46827e-05
2.3079e-05
3.02035e-05
2.50664e-05
7.33929e-05
4.87666e-05
2.30805e-05
2.49953e-05
2.73637e-05
2.46826e-05
2.30784e-05
2.50664e-05
3.02021e-05
3.56742e-05
3.56759e-05
2.41422e-05
3.37508e-05
3.3749e-05
6.99514e-05
2.76744e-05
7.76449e-05
3.5496e-05
3.54881e-05
7.76405e-05
2.76722e-05
6.99482e-05
7.76459e-05
7.76431e-05
7.7644e-05
3.54964e-05
2.39481e-05
3.54948e-05
3.54953e-05
7.76399e-05
7.76424e-05
7.76401e-05
7.76433e-05
2.39444e-05
3.54969e-05
3.54979e-05
3.54974e-05
3.54982e-05
2.81271e-05
6.99531e-05
2.81285e-05
6.99505e-05
2.30625e-05
2.76775e-05
2.49607e-05
2.46014e-05
2.30626e-05
2.76739e-05
2.49607e-05
2.30626e-05
2.76796e-05
2.49607e-05
2.46013e-05
2.30627e-05
2.76759e-05
2.49607e-05
2.81298e-05
6.99467e-05
6.99491e-05
2.81282e-05
2.81303e-05
6.99499e-05
6.99522e-05
2.81286e-05
2.30631e-05
2.46013e-05
2.76752e-05
2.49606e-05
2.7679e-05
2.49606e-05
2.3063e-05
2.30633e-05
2.46013e-05
2.76771e-05
2.49607e-05
2.76811e-05
2.49607e-05
2.30632e-05
3.54991e-05
3.54914e-05
2.39532e-05
3.5499e-05
3.54909e-05
7.76405e-05
7.76372e-05
7.76384e-05
7.76405e-05
2.39493e-05
3.5501e-05
3.54927e-05
3.55016e-05
3.54938e-05
7.7635e-05
7.76373e-05
2.30631e-05
2.46018e-05
2.76744e-05
2.49606e-05
2.81269e-05
6.99466e-05
2.30629e-05
2.4601e-05
2.49605e-05
2.76729e-05
2.81303e-05
6.99492e-05
6.99517e-05
2.81291e-05
2.30637e-05
2.46017e-05
2.76757e-05
2.49606e-05
2.76795e-05
2.49606e-05
2.30635e-05
2.81298e-05
6.99456e-05
6.99484e-05
2.81286e-05
2.30634e-05
2.46009e-05
2.49604e-05
2.76744e-05
2.49604e-05
2.76784e-05
2.30632e-05
2.8127e-05
6.99501e-05
2.81283e-05
6.99473e-05
2.30625e-05
2.49606e-05
2.76773e-05
2.46015e-05
2.30626e-05
2.49606e-05
2.76736e-05
2.81268e-05
6.99517e-05
2.81282e-05
6.99489e-05
2.30631e-05
2.46021e-05
2.76749e-05
2.49607e-05
2.76791e-05
2.49607e-05
2.3063e-05
2.81301e-05
6.99468e-05
6.99492e-05
2.81285e-05
2.30631e-05
2.46014e-05
2.49606e-05
2.76749e-05
2.49606e-05
2.76788e-05
2.3063e-05
2.813e-05
6.99482e-05
6.99506e-05
2.81284e-05
2.39528e-05
3.54905e-05
3.54933e-05
7.76449e-05
7.76367e-05
7.764e-05
2.39488e-05
3.54933e-05
3.54959e-05
3.54938e-05
3.54962e-05
7.7641e-05
7.76442e-05
2.30615e-05
2.49605e-05
2.7678e-05
2.46018e-05
2.30617e-05
2.49605e-05
2.76744e-05
2.81257e-05
2.81274e-05
6.99493e-05
2.81256e-05
6.99542e-05
2.81273e-05
6.99515e-05
2.30623e-05
2.46018e-05
2.49605e-05
2.76747e-05
2.49605e-05
2.76783e-05
2.30622e-05
2.30622e-05
2.46018e-05
2.49605e-05
2.76757e-05
2.49605e-05
2.76796e-05
2.30621e-05
2.81291e-05
6.99484e-05
6.99509e-05
2.81272e-05
2.8129e-05
6.99507e-05
6.99531e-05
2.8127e-05
7.76455e-05
7.76427e-05
7.76449e-05
7.7642e-05
2.39492e-05
3.54972e-05
3.54998e-05
3.54976e-05
3.55002e-05
7.76395e-05
7.7642e-05
7.76388e-05
7.76414e-05
7.76395e-05
7.76379e-05
7.76396e-05
7.76377e-05
3.54994e-05
3.55005e-05
2.39532e-05
3.54986e-05
3.55e-05
7.7637e-05
7.76377e-05
7.76361e-05
7.76374e-05
2.39493e-05
3.54995e-05
3.55012e-05
3.55009e-05
3.55024e-05
2.81299e-05
6.99518e-05
2.81317e-05
6.99495e-05
2.30634e-05
2.76802e-05
2.49607e-05
2.46015e-05
2.30636e-05
2.76762e-05
2.49607e-05
2.30636e-05
2.76822e-05
2.49607e-05
2.46015e-05
2.30638e-05
2.76781e-05
2.49607e-05
2.81324e-05
6.99462e-05
6.99483e-05
2.81304e-05
2.81329e-05
6.9949e-05
6.99513e-05
2.81308e-05
2.3064e-05
2.46015e-05
2.7677e-05
2.49606e-05
2.76812e-05
2.49607e-05
2.30638e-05
2.30642e-05
2.46015e-05
2.76787e-05
2.49606e-05
2.76831e-05
2.49606e-05
2.30639e-05
3.55035e-05
3.54954e-05
2.39535e-05
3.55022e-05
3.54938e-05
7.76352e-05
7.76335e-05
7.76362e-05
7.76367e-05
2.39495e-05
3.55029e-05
3.54948e-05
3.55045e-05
3.54964e-05
7.76326e-05
7.76338e-05
2.30639e-05
2.76807e-05
2.49607e-05
2.46019e-05
2.30641e-05
2.76769e-05
2.49607e-05
2.813e-05
6.99474e-05
2.81315e-05
6.9945e-05
2.30636e-05
2.49605e-05
2.76798e-05
2.4601e-05
2.30638e-05
2.49605e-05
2.76757e-05
2.81333e-05
6.99487e-05
6.99508e-05
2.81317e-05
2.30645e-05
2.46019e-05
2.76778e-05
2.49606e-05
2.76818e-05
2.49606e-05
2.30642e-05
2.81328e-05
6.99447e-05
6.9947e-05
2.81312e-05
2.30642e-05
2.4601e-05
2.49604e-05
2.76766e-05
2.49605e-05
2.7681e-05
2.30639e-05
2.81297e-05
6.99488e-05
2.81316e-05
6.99464e-05
2.30635e-05
2.49607e-05
2.768e-05
2.46015e-05
2.30636e-05
2.49607e-05
2.7676e-05
2.81296e-05
6.995e-05
2.81314e-05
6.99478e-05
2.3064e-05
2.46021e-05
2.76765e-05
2.49607e-05
2.7681e-05
2.49608e-05
2.30638e-05
2.81328e-05
6.99458e-05
6.99483e-05
2.81308e-05
2.30641e-05
2.46015e-05
2.49606e-05
2.76768e-05
2.49606e-05
2.7681e-05
2.30638e-05
2.81326e-05
6.99474e-05
6.99496e-05
2.81306e-05
3.54962e-05
3.54985e-05
2.3953e-05
3.54952e-05
3.54979e-05
7.76405e-05
7.76385e-05
7.76331e-05
7.76348e-05
2.3949e-05
3.54962e-05
3.54993e-05
3.54978e-05
3.55004e-05
7.7637e-05
7.76382e-05
2.30625e-05
2.49605e-05
2.76808e-05
2.46018e-05
2.30627e-05
2.49605e-05
2.76768e-05
2.81285e-05
6.99502e-05
2.81306e-05
6.99481e-05
2.81282e-05
6.99525e-05
2.81304e-05
6.99505e-05
2.30632e-05
2.46018e-05
2.49604e-05
2.7677e-05
2.49605e-05
2.7681e-05
2.3063e-05
2.30632e-05
2.46018e-05
2.49604e-05
2.76776e-05
2.49604e-05
2.76818e-05
2.30629e-05
2.81317e-05
6.99479e-05
6.99499e-05
2.81295e-05
2.81315e-05
6.99501e-05
6.99523e-05
2.81292e-05
7.76391e-05
7.76376e-05
7.76384e-05
7.76369e-05
2.39494e-05
3.54997e-05
3.55023e-05
3.55012e-05
3.55038e-05
7.76366e-05
7.76374e-05
7.76359e-05
7.76367e-05
7.7637e-05
7.76365e-05
7.76361e-05
7.76354e-05
3.55016e-05
3.55034e-05
2.39537e-05
3.54999e-05
3.55017e-05
7.76365e-05
7.76366e-05
7.76352e-05
7.76355e-05
2.39497e-05
3.55005e-05
3.55021e-05
3.5502e-05
3.55038e-05
2.81316e-05
6.99508e-05
2.81338e-05
6.99486e-05
2.30641e-05
2.76819e-05
2.49607e-05
2.46017e-05
2.30644e-05
2.76776e-05
2.49607e-05
2.30642e-05
2.76837e-05
2.49607e-05
2.46016e-05
2.30645e-05
2.76793e-05
2.49607e-05
2.81341e-05
6.99456e-05
6.99476e-05
2.81319e-05
2.81345e-05
6.99484e-05
6.99504e-05
2.81322e-05
2.30647e-05
2.46017e-05
2.76781e-05
2.49607e-05
2.76825e-05
2.49607e-05
2.30645e-05
2.30648e-05
2.46016e-05
2.76797e-05
2.49607e-05
2.76842e-05
2.49607e-05
2.30646e-05
3.55052e-05
3.54974e-05
2.39537e-05
3.55036e-05
3.54958e-05
7.7633e-05
7.76321e-05
7.76361e-05
7.76363e-05
2.39497e-05
3.55045e-05
3.54968e-05
3.55059e-05
3.54984e-05
7.7632e-05
7.76325e-05
2.30646e-05
2.76827e-05
2.49607e-05
2.46021e-05
2.30648e-05
2.76784e-05
2.49607e-05
2.81321e-05
6.99467e-05
2.81339e-05
6.99443e-05
2.30643e-05
2.49605e-05
2.76819e-05
2.46012e-05
2.30645e-05
2.49605e-05
2.76774e-05
2.81352e-05
6.99481e-05
6.99503e-05
2.81332e-05
2.30651e-05
2.46021e-05
2.76789e-05
2.49607e-05
2.76833e-05
2.49607e-05
2.3065e-05
2.81348e-05
6.9944e-05
6.99463e-05
2.81328e-05
2.30648e-05
2.46012e-05
2.49605e-05
2.7678e-05
2.49605e-05
2.76826e-05
2.30646e-05
2.81315e-05
6.99477e-05
2.81337e-05
6.99454e-05
2.30641e-05
2.49607e-05
2.76817e-05
2.46015e-05
2.30644e-05
2.49607e-05
2.76773e-05
2.81314e-05
6.99492e-05
2.81335e-05
6.99469e-05
2.30646e-05
2.46022e-05
2.76776e-05
2.49607e-05
2.76822e-05
2.49607e-05
2.30643e-05
2.81344e-05
6.99452e-05
6.99474e-05
2.81321e-05
2.30647e-05
2.46015e-05
2.49606e-05
2.76778e-05
2.49606e-05
2.76822e-05
2.30644e-05
2.81343e-05
6.99466e-05
6.99487e-05
2.8132e-05
3.54988e-05
3.55015e-05
2.39532e-05
3.54971e-05
3.54998e-05
7.7637e-05
7.76363e-05
7.76317e-05
7.76326e-05
2.39492e-05
3.54982e-05
3.55003e-05
3.54997e-05
3.55019e-05
7.7636e-05
7.76364e-05
2.30632e-05
2.49605e-05
2.76825e-05
2.46019e-05
2.30635e-05
2.49605e-05
2.76781e-05
2.81302e-05
6.99498e-05
2.81327e-05
6.99475e-05
2.813e-05
6.99519e-05
2.81324e-05
6.99496e-05
2.30638e-05
2.46018e-05
2.49604e-05
2.76781e-05
2.49605e-05
2.76825e-05
2.30635e-05
2.30638e-05
2.46019e-05
2.49604e-05
2.76786e-05
2.49604e-05
2.7683e-05
2.30635e-05
2.81334e-05
6.99472e-05
6.99493e-05
2.81308e-05
2.81332e-05
6.99493e-05
6.99514e-05
2.81306e-05
7.76366e-05
7.76361e-05
7.76359e-05
7.76354e-05
2.39495e-05
3.55005e-05
3.55033e-05
3.55021e-05
3.55048e-05
7.76361e-05
7.76362e-05
7.76354e-05
7.76355e-05
7.76368e-05
7.76367e-05
7.76354e-05
7.76352e-05
3.55027e-05
3.55042e-05
2.3954e-05
3.55016e-05
3.55028e-05
7.76371e-05
7.7637e-05
7.76356e-05
7.76354e-05
2.395e-05
3.55028e-05
3.5504e-05
3.55039e-05
3.55051e-05
2.81326e-05
6.99503e-05
2.81351e-05
6.99484e-05
2.30648e-05
2.76829e-05
2.49609e-05
2.46018e-05
2.30651e-05
2.76785e-05
2.49609e-05
2.30649e-05
2.76846e-05
2.49608e-05
2.46018e-05
2.30652e-05
2.76801e-05
2.49608e-05
2.81351e-05
6.99455e-05
6.99474e-05
2.81325e-05
2.81354e-05
6.99486e-05
6.99504e-05
2.81328e-05
2.30654e-05
2.46018e-05
2.76789e-05
2.49609e-05
2.76834e-05
2.49609e-05
2.30651e-05
2.30655e-05
2.46018e-05
2.76804e-05
2.49608e-05
2.7685e-05
2.49608e-05
2.30652e-05
3.55069e-05
3.54994e-05
2.39539e-05
3.55055e-05
3.5498e-05
7.76325e-05
7.76324e-05
7.76369e-05
7.76367e-05
2.39499e-05
3.55066e-05
3.54991e-05
3.55079e-05
3.55006e-05
7.7633e-05
7.76331e-05
2.30653e-05
2.76837e-05
2.49608e-05
2.46022e-05
2.30655e-05
2.76793e-05
2.49608e-05
2.81331e-05
6.9946e-05
2.81354e-05
6.99438e-05
2.30649e-05
2.49606e-05
2.76832e-05
2.46013e-05
2.30652e-05
2.49606e-05
2.76785e-05
2.81361e-05
6.9948e-05
6.995e-05
2.81337e-05
2.30658e-05
2.46022e-05
2.76797e-05
2.49607e-05
2.76841e-05
2.49607e-05
2.30654e-05
2.81356e-05
6.99437e-05
6.99458e-05
2.81333e-05
2.30655e-05
2.46013e-05
2.49605e-05
2.76788e-05
2.49605e-05
2.76836e-05
2.30652e-05
2.81324e-05
6.99473e-05
2.81349e-05
6.99452e-05
2.30647e-05
2.49606e-05
2.76827e-05
2.46016e-05
2.3065e-05
2.49606e-05
2.76782e-05
2.81323e-05
6.99485e-05
2.81348e-05
6.99465e-05
2.3065e-05
2.46022e-05
2.76783e-05
2.49607e-05
2.76831e-05
2.49607e-05
2.30647e-05
2.81352e-05
6.99454e-05
6.99473e-05
2.81326e-05
2.30652e-05
2.46016e-05
2.49606e-05
2.76785e-05
2.49606e-05
2.76831e-05
2.30648e-05
2.81351e-05
6.99466e-05
6.99485e-05
2.81325e-05
3.55008e-05
3.55025e-05
2.39534e-05
3.54994e-05
3.55011e-05
7.76363e-05
7.76361e-05
7.76318e-05
7.76321e-05
2.39494e-05
3.55004e-05
3.55023e-05
3.5502e-05
3.55034e-05
7.76365e-05
7.76364e-05
2.30637e-05
2.49605e-05
2.76835e-05
2.4602e-05
2.30641e-05
2.49605e-05
2.7679e-05
2.81311e-05
6.9949e-05
2.81339e-05
6.9947e-05
2.81309e-05
6.99512e-05
2.81337e-05
6.99492e-05
2.30642e-05
2.46019e-05
2.49605e-05
2.76788e-05
2.49606e-05
2.76833e-05
2.30638e-05
2.30643e-05
2.4602e-05
2.49605e-05
2.76793e-05
2.49605e-05
2.76839e-05
2.30638e-05
2.81342e-05
6.9947e-05
6.99489e-05
2.81313e-05
2.8134e-05
6.99492e-05
6.99511e-05
2.81311e-05
7.76363e-05
7.76362e-05
7.76357e-05
7.76356e-05
2.39497e-05
3.55026e-05
3.55055e-05
3.55038e-05
3.55066e-05
7.76367e-05
7.76366e-05
7.7636e-05
7.76359e-05
7.76374e-05
7.76377e-05
7.76358e-05
7.76361e-05
3.55051e-05
3.55063e-05
2.39542e-05
3.55038e-05
3.55051e-05
7.76389e-05
7.7638e-05
7.76372e-05
7.76363e-05
2.39503e-05
3.55044e-05
3.55059e-05
3.5506e-05
3.55074e-05
2.81331e-05
6.99505e-05
2.81356e-05
6.99489e-05
2.30653e-05
2.76837e-05
2.4961e-05
2.4602e-05
2.30656e-05
2.76792e-05
2.4961e-05
2.30654e-05
2.76853e-05
2.49609e-05
2.4602e-05
2.30657e-05
2.76806e-05
2.49609e-05
2.81356e-05
6.99462e-05
6.99474e-05
2.8133e-05
2.81359e-05
6.99496e-05
6.99508e-05
2.81334e-05
2.30659e-05
2.4602e-05
2.76792e-05
2.49609e-05
2.76839e-05
2.49609e-05
2.30656e-05
2.30659e-05
2.4602e-05
2.76806e-05
2.49608e-05
2.76854e-05
2.49609e-05
2.30657e-05
3.55089e-05
3.55017e-05
2.39541e-05
3.55073e-05
3.54999e-05
7.76337e-05
7.76339e-05
7.76387e-05
7.76377e-05
2.39502e-05
3.55076e-05
3.55001e-05
3.55096e-05
3.55024e-05
7.76351e-05
7.76345e-05
2.30656e-05
2.76845e-05
2.49608e-05
2.46023e-05
2.30659e-05
2.768e-05
2.49608e-05
2.81335e-05
6.99458e-05
2.81358e-05
6.99439e-05
2.30654e-05
2.49606e-05
2.7684e-05
2.46015e-05
2.30657e-05
2.49606e-05
2.76791e-05
2.81364e-05
6.9949e-05
6.99502e-05
2.81343e-05
2.30661e-05
2.46023e-05
2.76801e-05
2.49608e-05
2.76848e-05
2.49608e-05
2.30659e-05
2.81361e-05
6.99446e-05
6.99459e-05
2.81339e-05
2.30659e-05
2.46015e-05
2.49606e-05
2.76792e-05
2.49606e-05
2.76842e-05
2.30657e-05
2.81328e-05
6.99475e-05
2.81354e-05
6.99458e-05
2.3065e-05
2.49607e-05
2.76834e-05
2.46018e-05
2.30654e-05
2.49607e-05
2.76788e-05
2.81328e-05
6.99486e-05
2.81353e-05
6.99469e-05
2.30653e-05
2.46022e-05
2.76785e-05
2.49607e-05
2.76835e-05
2.49608e-05
2.30651e-05
2.81357e-05
6.99465e-05
6.99478e-05
2.81331e-05
2.30656e-05
2.46018e-05
2.49607e-05
2.76788e-05
2.49607e-05
2.76836e-05
2.30653e-05
2.81356e-05
6.99475e-05
6.99487e-05
2.81331e-05
3.5503e-05
3.55046e-05
2.39536e-05
3.55013e-05
3.55034e-05
7.76368e-05
7.7637e-05
7.76338e-05
7.76332e-05
2.39497e-05
3.55018e-05
3.55042e-05
3.55038e-05
3.55057e-05
7.76382e-05
7.76373e-05
2.3064e-05
2.49606e-05
2.76842e-05
2.46021e-05
2.30644e-05
2.49606e-05
2.76796e-05
2.81315e-05
6.99489e-05
2.81343e-05
6.99472e-05
2.81314e-05
6.99511e-05
2.81342e-05
6.99495e-05
2.30644e-05
2.4602e-05
2.49605e-05
2.76791e-05
2.49605e-05
2.76839e-05
2.30642e-05
2.30646e-05
2.46021e-05
2.49606e-05
2.76796e-05
2.49606e-05
2.76844e-05
2.30643e-05
2.81346e-05
6.99478e-05
6.9949e-05
2.81319e-05
2.81345e-05
6.99502e-05
6.99513e-05
2.81317e-05
7.7637e-05
7.76373e-05
7.76363e-05
7.76366e-05
2.39499e-05
3.55041e-05
3.5507e-05
3.55058e-05
3.55086e-05
7.76384e-05
7.76375e-05
7.76377e-05
7.76369e-05
7.76389e-05
7.76413e-05
7.76372e-05
7.76394e-05
3.55065e-05
3.55081e-05
2.39545e-05
3.55042e-05
3.55063e-05
7.76455e-05
7.76404e-05
7.7644e-05
7.76384e-05
2.39505e-05
3.55038e-05
3.55061e-05
3.55063e-05
3.55085e-05
2.81336e-05
6.99511e-05
2.81362e-05
6.99515e-05
2.30653e-05
2.76839e-05
2.49608e-05
2.46021e-05
2.30661e-05
2.76787e-05
2.49607e-05
2.30655e-05
2.76853e-05
2.49607e-05
2.46019e-05
2.30662e-05
2.76801e-05
2.49607e-05
2.81359e-05
6.99503e-05
6.99482e-05
2.81325e-05
2.81363e-05
6.99547e-05
6.99525e-05
2.81329e-05
2.30656e-05
2.4602e-05
2.76774e-05
2.49605e-05
2.76835e-05
2.49606e-05
2.30642e-05
2.30658e-05
2.46017e-05
2.76788e-05
2.49605e-05
2.76849e-05
2.49606e-05
2.30645e-05
3.55097e-05
3.55024e-05
2.39543e-05
3.55073e-05
3.54998e-05
7.76355e-05
7.76378e-05
7.76447e-05
7.76401e-05
2.39503e-05
3.55073e-05
3.54998e-05
3.55096e-05
3.55024e-05
7.76412e-05
7.76368e-05
2.30661e-05
2.76848e-05
2.49609e-05
2.46025e-05
2.30665e-05
2.76797e-05
2.49609e-05
2.81342e-05
6.99461e-05
2.81365e-05
6.99457e-05
2.30659e-05
2.49607e-05
2.76842e-05
2.46016e-05
2.30663e-05
2.49606e-05
2.76787e-05
2.81372e-05
6.99529e-05
6.99512e-05
2.81344e-05
2.30666e-05
2.46025e-05
2.76786e-05
2.49608e-05
2.76845e-05
2.49609e-05
2.30653e-05
2.81368e-05
6.99481e-05
6.99467e-05
2.8134e-05
2.30663e-05
2.46016e-05
2.49605e-05
2.76775e-05
2.49605e-05
2.76838e-05
2.30652e-05
2.81334e-05
6.99481e-05
2.8136e-05
6.99482e-05
2.30653e-05
2.49609e-05
2.76835e-05
2.46018e-05
2.30659e-05
2.49608e-05
2.76783e-05
2.81333e-05
6.99489e-05
2.81359e-05
6.99488e-05
2.30656e-05
2.46021e-05
2.76767e-05
2.49605e-05
2.7683e-05
2.49606e-05
2.30644e-05
2.81361e-05
6.99515e-05
6.99496e-05
2.81327e-05
2.30656e-05
2.46017e-05
2.49605e-05
2.7677e-05
2.49607e-05
2.76831e-05
2.30642e-05
2.8136e-05
6.99517e-05
6.99496e-05
2.81326e-05
3.55043e-05
3.55064e-05
2.39539e-05
3.55019e-05
3.55043e-05
7.76382e-05
7.76403e-05
7.76408e-05
7.76353e-05
2.39499e-05
3.55013e-05
3.55036e-05
3.55043e-05
3.55064e-05
7.76451e-05
7.76394e-05
2.30644e-05
2.49607e-05
2.76844e-05
2.46023e-05
2.30649e-05
2.49606e-05
2.76791e-05
2.81322e-05
6.99491e-05
2.8135e-05
6.99488e-05
2.8132e-05
6.99515e-05
2.81349e-05
6.99515e-05
2.30648e-05
2.46019e-05
2.49603e-05
2.76773e-05
2.49604e-05
2.76833e-05
2.30637e-05
2.30648e-05
2.46021e-05
2.49603e-05
2.76778e-05
2.49604e-05
2.76839e-05
2.30636e-05
2.81351e-05
6.99511e-05
6.99494e-05
2.81316e-05
2.8135e-05
6.99544e-05
6.99523e-05
2.81314e-05
7.76384e-05
7.76409e-05
7.76377e-05
7.76402e-05
2.39501e-05
3.55036e-05
3.55065e-05
3.55061e-05
3.5509e-05
7.76451e-05
7.76399e-05
7.76443e-05
7.76392e-05
7.76413e-05
7.76476e-05
7.764e-05
7.76471e-05
3.55067e-05
3.5509e-05
2.39539e-05
3.55038e-05
3.5506e-05
7.76478e-05
7.764e-05
7.76476e-05
7.76397e-05
2.39496e-05
3.55026e-05
3.5505e-05
3.55076e-05
3.55099e-05
2.81315e-05
6.99552e-05
2.81353e-05
6.99576e-05
2.30631e-05
2.76828e-05
2.49604e-05
2.46015e-05
2.30645e-05
2.76757e-05
2.49603e-05
2.30631e-05
2.76843e-05
2.49605e-05
2.46011e-05
2.30647e-05
2.76769e-05
2.49603e-05
2.81344e-05
6.99555e-05
6.99525e-05
2.81297e-05
2.81348e-05
6.99589e-05
6.99562e-05
2.81301e-05
2.30633e-05
2.46011e-05
2.76736e-05
2.49591e-05
2.76826e-05
2.496e-05
2.30607e-05
2.30634e-05
2.46005e-05
2.76743e-05
2.49588e-05
2.76837e-05
2.49599e-05
2.30608e-05
3.55103e-05
3.5503e-05
2.3953e-05
3.55069e-05
3.54993e-05
7.76371e-05
7.76439e-05
7.76471e-05
7.76391e-05
2.39483e-05
3.55048e-05
3.54975e-05
3.55107e-05
3.55034e-05
7.76445e-05
7.76366e-05
2.30641e-05
2.7684e-05
2.49608e-05
2.46022e-05
2.30655e-05
2.76771e-05
2.49607e-05
2.81326e-05
6.99489e-05
2.81361e-05
6.99516e-05
2.30639e-05
2.49604e-05
2.76832e-05
2.46012e-05
2.30652e-05
2.49603e-05
2.7676e-05
2.8136e-05
6.99583e-05
6.99551e-05
2.81321e-05
2.30645e-05
2.46019e-05
2.76756e-05
2.496e-05
2.76841e-05
2.49604e-05
2.30628e-05
2.81357e-05
6.99539e-05
6.99506e-05
2.81317e-05
2.30643e-05
2.46009e-05
2.49597e-05
2.76745e-05
2.49601e-05
2.76832e-05
2.30626e-05
2.81314e-05
6.99523e-05
2.81351e-05
6.99545e-05
2.3063e-05
2.49604e-05
2.76825e-05
2.46013e-05
2.30644e-05
2.49602e-05
2.76754e-05
2.81312e-05
6.99522e-05
2.8135e-05
6.99551e-05
2.30632e-05
2.4601e-05
2.76723e-05
2.49589e-05
2.76819e-05
2.49599e-05
2.30606e-05
2.81346e-05
6.99559e-05
6.99532e-05
2.81299e-05
2.30633e-05
2.46008e-05
2.49589e-05
2.76733e-05
2.49598e-05
2.76823e-05
2.30606e-05
2.81345e-05
6.99568e-05
6.99538e-05
2.81298e-05
3.55044e-05
3.55064e-05
2.39535e-05
3.55011e-05
3.55035e-05
7.76411e-05
7.7648e-05
7.76453e-05
7.76376e-05
2.39493e-05
3.55007e-05
3.55029e-05
3.55053e-05
3.55074e-05
7.76481e-05
7.76404e-05
2.30622e-05
2.49603e-05
2.76833e-05
2.46016e-05
2.30638e-05
2.49601e-05
2.76761e-05
2.81302e-05
6.99515e-05
2.81339e-05
6.99547e-05
2.81301e-05
6.99548e-05
2.8134e-05
6.99577e-05
2.30626e-05
2.46014e-05
2.49593e-05
2.76739e-05
2.49599e-05
2.76826e-05
2.306e-05
2.30625e-05
2.46012e-05
2.4959e-05
2.7674e-05
2.49598e-05
2.76831e-05
2.30599e-05
2.81333e-05
6.99571e-05
6.99536e-05
2.81284e-05
2.81336e-05
6.99593e-05
6.99563e-05
2.81286e-05
7.76408e-05
7.76472e-05
7.76401e-05
7.76465e-05
2.39488e-05
3.55024e-05
3.55051e-05
3.55074e-05
3.55102e-05
7.76474e-05
7.76396e-05
7.76468e-05
7.7639e-05
7.76376e-05
7.76494e-05
7.76373e-05
7.76487e-05
3.55073e-05
3.55098e-05
2.39489e-05
3.55005e-05
3.55033e-05
7.76496e-05
7.76362e-05
7.76486e-05
7.76354e-05
2.39438e-05
3.55e-05
3.55027e-05
3.55057e-05
3.55085e-05
2.81288e-05
6.99546e-05
2.81349e-05
6.99593e-05
2.30561e-05
2.76816e-05
2.49576e-05
2.45969e-05
2.30605e-05
2.76704e-05
2.49559e-05
2.30562e-05
2.76822e-05
2.49572e-05
2.45956e-05
2.30606e-05
2.76709e-05
2.49556e-05
2.81327e-05
6.99583e-05
6.99499e-05
2.81269e-05
2.81331e-05
6.99619e-05
6.99534e-05
2.81274e-05
2.30564e-05
2.45954e-05
2.76665e-05
2.49536e-05
2.76789e-05
2.49546e-05
2.30548e-05
2.30565e-05
2.45945e-05
2.76672e-05
2.49535e-05
2.76795e-05
2.49543e-05
2.30549e-05
3.55094e-05
3.55024e-05
2.39471e-05
3.55022e-05
3.54952e-05
7.76346e-05
7.76463e-05
7.7649e-05
7.76356e-05
2.39424e-05
3.55017e-05
3.54946e-05
3.55075e-05
3.55006e-05
7.76478e-05
7.76336e-05
2.30591e-05
2.76837e-05
2.49589e-05
2.45981e-05
2.30631e-05
2.76728e-05
2.49572e-05
2.81308e-05
6.99499e-05
2.81365e-05
6.99548e-05
2.30589e-05
2.49588e-05
2.76829e-05
2.45975e-05
2.30629e-05
2.49571e-05
2.76717e-05
2.81352e-05
6.99618e-05
6.99533e-05
2.81293e-05
2.30587e-05
2.45965e-05
2.76685e-05
2.49543e-05
2.76812e-05
2.49557e-05
2.30559e-05
2.81348e-05
6.99574e-05
6.9949e-05
2.81289e-05
2.30585e-05
2.45959e-05
2.49542e-05
2.76674e-05
2.49555e-05
2.76805e-05
2.30557e-05
2.81287e-05
6.99517e-05
2.81348e-05
6.99563e-05
2.30561e-05
2.49573e-05
2.76812e-05
2.45964e-05
2.30605e-05
2.49557e-05
2.76701e-05
2.81285e-05
6.99525e-05
2.81346e-05
6.99573e-05