/*--------------------------------*- C++ -*----------------------------------*\
| =========                 |                                                 |
| \\      /  F ield         | OpenFOAM: The Open Source CFD Toolbox           |
|  \\    /   O peration     | Version:  2206                                  |
|   \\  /    A nd           | Website:  www.openfoam.com                      |
|    \\/     M anipulation  |                                                 |
\*---------------------------------------------------------------------------*/
FoamFile
{
    version     2.0;
    format      ascii;
    arch        "LSB;label=32;scalar=64";
    class       volScalarField;
    location    "32";
    object      p;
}
// * * * * * * * * * * * * * * * * * * * * * * * * * * * * * * * * * * * * * //

dimensions      [0 2 -2 0 0 0 0];

internalField   nonuniform List<scalar> 
28673
(
0.000494561
0.000496999
0.000453408
0.00045337
0.00045337
0.000455807
0.00041222
0.000412182
0.000412182
0.000414619
0.000371032
0.000370995
0.000370994
0.000373432
0.000329844
0.000329807
0.000329807
0.000332244
0.000288654
0.00028862
0.000288618
0.000291055
0.000247462
0.000247418
0.000247418
0.000249855
0.000206261
0.000206231
0.000206232
0.000208659
0.000165061
0.000165024
0.000165023
0.000167451
0.000123856
0.000123819
0.000123819
0.000126227
8.2654e-05
8.26074e-05
8.26061e-05
8.49863e-05
4.21339e-05
4.15816e-05
4.15784e-05
4.3825e-05
8.78998e-06
8.95932e-06
8.9565e-06
8.50192e-06
0.000504859
0.000502429
0.000504859
0.000461238
0.000494561
0.000494561
0.000463668
0.000463668
0.000496999
0.000461238
0.000463668
0.000463668
0.000494562
0.000463668
0.000463668
0.000461238
0.000494561
0.000463668
0.000463668
0.000461238
0.000455807
0.000420049
0.00045337
0.00045337
0.000422479
0.000422479
0.000455807
0.000420049
0.00045337
0.00045337
0.000422479
0.000422479
0.00045337
0.000422479
0.000422479
0.000455807
0.000420049
0.00045337
0.000422479
0.000422479
0.000420049
0.000414619
0.000378862
0.000412182
0.000412182
0.000381291
0.000381291
0.000414619
0.000378862
0.000412182
0.000412182
0.000381291
0.000381291
0.000412182
0.000381291
0.000381291
0.000414619
0.000378861
0.000412182
0.000381291
0.000381291
0.000378861
0.000373432
0.000337674
0.000370995
0.000370994
0.000340104
0.000340104
0.000373431
0.000337674
0.000370994
0.000370994
0.000340104
0.000340104
0.000370995
0.000340104
0.000340104
0.000373432
0.000337674
0.000370994
0.000340104
0.000340104
0.000337674
0.000332244
0.000296486
0.000329807
0.000329807
0.000298916
0.000298916
0.000332244
0.000296486
0.000329807
0.000329807
0.000298915
0.000298915
0.000329808
0.000298916
0.000298916
0.000332244
0.000296485
0.000329807
0.000298915
0.000298916
0.000296486
0.000291055
0.000255291
0.000288619
0.000288619
0.000257716
0.000257716
0.000291055
0.000255291
0.000288618
0.000288618
0.000257716
0.000257717
0.000288619
0.000257716
0.000257716
0.000291054
0.000255291
0.000288619
0.000257717
0.000257716
0.000255291
0.000249855
0.000214104
0.000247418
0.000247418
0.00021654
0.000216539
0.000249854
0.000214103
0.000247418
0.000247418
0.00021654
0.00021654
0.000247418
0.000216539
0.000216539
0.000249856
0.000214104
0.000247418
0.00021654
0.00021654
0.000214103
0.000208659
0.000172898
0.000206232
0.000206231
0.000175318
0.000175318
0.000208659
0.000172899
0.000206232
0.000206233
0.000175317
0.000175317
0.000206232
0.000175318
0.000175318
0.00020866
0.000172898
0.000206232
0.000175317
0.000175317
0.000172898
0.000167451
0.000131708
0.000165024
0.000165024
0.000134125
0.000134126
0.000167451
0.000131708
0.000165024
0.000165023
0.000134125
0.000134125
0.000165024
0.000134125
0.000134126
0.00016745
0.000131707
0.000165024
0.000134125
0.000134125
0.000131707
0.000126227
9.05058e-05
0.000123819
0.000123819
9.29242e-05
9.29246e-05
0.000126227
9.05066e-05
0.000123819
0.000123819
9.2924e-05
9.29236e-05
0.000123819
9.29243e-05
9.29237e-05
0.000126227
9.05051e-05
0.000123819
9.29234e-05
9.29234e-05
9.05051e-05
8.49875e-05
4.93363e-05
8.26074e-05
8.26078e-05
5.17563e-05
5.17569e-05
8.49875e-05
4.93374e-05
8.26067e-05
8.26061e-05
5.17543e-05
5.17538e-05
8.26067e-05
5.17555e-05
5.17537e-05
8.49869e-05
4.93338e-05
8.26061e-05
5.1753e-05
5.17523e-05
4.93335e-05
4.38287e-05
1.20447e-05
4.15833e-05
4.15835e-05
1.42203e-05
1.42197e-05
4.38291e-05
1.20446e-05
4.15813e-05
4.15798e-05
1.42185e-05
1.42146e-05
4.15793e-05
1.42173e-05
1.42131e-05
4.38254e-05
1.20399e-05
4.1578e-05
1.42148e-05
1.42143e-05
1.2039e-05
8.50578e-06
8.96005e-06
8.96044e-06
8.50723e-06
8.95873e-06
8.95575e-06
8.7898e-06
8.78753e-06
8.78726e-06
8.95517e-06
8.50255e-06
8.95575e-06
0.00048172
0.000497137
0.000497141
0.000481721
0.000497138
0.00048172
0.00048172
0.000481721
0.000494599
0.000494599
0.000463706
0.000463705
0.000463706
0.000463705
0.000481769
0.000497105
0.00049457
0.000484263
0.000497096
0.000481751
0.000484273
0.000481719
0.000481769
0.00049457
0.000484264
0.000497096
0.000484273
0.000481751
0.000497143
0.000497143
0.000481833
0.000481716
0.000481716
0.000440529
0.000455945
0.000455949
0.00044053
0.000455947
0.000440529
0.000440529
0.000455945
0.000455949
0.00044053
0.000453408
0.000453408
0.000453408
0.000422516
0.000422516
0.000422516
0.000422516
0.000440578
0.000455914
0.000453379
0.000443073
0.000455904
0.00044056
0.000443082
0.000455947
0.000440529
0.000440579
0.000453379
0.000455914
0.000443073
0.000455904
0.000443082
0.00044056
0.000455951
0.000455951
0.000440643
0.000440526
0.000440526
0.000399342
0.000414757
0.00041476
0.000399343
0.000414758
0.000399341
0.000399341
0.000414757
0.00041476
0.000399343
0.000412219
0.000412219
0.000412219
0.000381329
0.000381329
0.000381329
0.000381329
0.000399391
0.000414725
0.000412191
0.000401885
0.000414715
0.000399373
0.000401894
0.000414758
0.000399341
0.000399391
0.000412191
0.000414726
0.000401885
0.000414715
0.000401894
0.000399372
0.000414762
0.000414762
0.000399455
0.000399338
0.000399338
0.000358154
0.00037357
0.000373573
0.000358155
0.000373571
0.000358155
0.000358154
0.00037357
0.000373573
0.000358155
0.000371032
0.000371032
0.000371032
0.000340141
0.000340141
0.000340141
0.000340141
0.000358204
0.000373538
0.000371004
0.000360698
0.000373528
0.000358186
0.000360707
0.000373571
0.000358154
0.000358204
0.000371004
0.000373538
0.000360698
0.000373528
0.000360706
0.000358185
0.000373575
0.000373575
0.000358268
0.000358151
0.000358151
0.000316967
0.000332382
0.000332385
0.000316966
0.000332384
0.000316965
0.000316967
0.000332382
0.000332385
0.000316966
0.000329845
0.000329844
0.000329844
0.000298951
0.000298952
0.000298951
0.000298951
0.000317016
0.000332351
0.000329816
0.00031951
0.000332341
0.000316998
0.000319519
0.000332384
0.000316965
0.000317016
0.000329816
0.000332351
0.00031951
0.00033234
0.000319518
0.000316997
0.000332387
0.000332387
0.00031708
0.000316962
0.000316962
0.000275779
0.000291194
0.000291195
0.000275779
0.000291199
0.000275773
0.000275779
0.000291193
0.000291194
0.000275778
0.000288655
0.000288654
0.000288654
0.000257757
0.000257757
0.000257758
0.000257757
0.000275829
0.00029116
0.000288628
0.000278319
0.00029115
0.000275815
0.000278327
0.000291197
0.000275771
0.000275829
0.000288627
0.000291158
0.000278318
0.000291149
0.000278327
0.000275813
0.000291199
0.000291199
0.000275889
0.000275775
0.000275775
0.000234601
0.00024999
0.000249985
0.000234585
0.000249993
0.000234582
0.000234603
0.00024999
0.000249984
0.000234586
0.000247461
0.000247462
0.000247461
0.000216561
0.00021656
0.000216561
0.00021656
0.00023463
0.000249955
0.000247427
0.000237125
0.000249948
0.000234618
0.000237133
0.000249995
0.000234588
0.000234631
0.000247428
0.000249956
0.000237126
0.000249948
0.000237134
0.00023462
0.000249992
0.000249992
0.000234697
0.000234589
0.000234589
0.00019338
0.000208815
0.000208843
0.000193363
0.000208825
0.000193354
0.000193379
0.000208816
0.000208845
0.000193364
0.00020626
0.00020626
0.00020626
0.000175356
0.000175356
0.000175356
0.000175356
0.000193443
0.000208776
0.000206239
0.000195925
0.000208774
0.000193418
0.000195926
0.000208826
0.000193353
0.000193443
0.000206239
0.000208778
0.000195925
0.000208775
0.000195926
0.000193418
0.000208819
0.00020882
0.000193498
0.000193373
0.000193373
0.00015217
0.000167584
0.000167589
0.000152179
0.000167626
0.000152136
0.000152169
0.000167584
0.000167589
0.000152179
0.000165062
0.000165061
0.000165062
0.000134146
0.000134147
0.000134146
0.000134147
0.000152227
0.000167535
0.00016504
0.000154735
0.000167559
0.000152227
0.000154735
0.000167624
0.000152135
0.000152227
0.00016504
0.000167535
0.000154734
0.000167558
0.000154735
0.000152226
0.00016758
0.00016758
0.000152305
0.000152195
0.000152195
0.000110967
0.00012639
0.000126391
0.000110977
0.000126462
0.000110898
0.000110966
0.000126391
0.000126391
0.000110976
0.000123856
0.000123856
0.000123856
9.29291e-05
9.29288e-05
9.29284e-05
9.29285e-05
0.000111024
0.000126325
0.000123835
0.000113528
0.000126351
0.000111039
0.000113526
0.000126461
0.000110897
0.000111024
0.000123835
0.000126325
0.000113528
0.00012635
0.000113526
0.000111038
0.000126377
0.000126377
0.000111106
0.000111004
0.000111004
6.97107e-05
8.51508e-05
8.51704e-05
6.97256e-05
8.53083e-05
6.95131e-05
6.9709e-05
8.51503e-05
8.51694e-05
6.97241e-05
8.26532e-05
8.2653e-05
8.26529e-05
5.19946e-05
5.19955e-05
5.19926e-05
5.19927e-05
6.97703e-05
8.50856e-05
8.26305e-05
7.2316e-05
8.51314e-05
6.9802e-05
7.2328e-05
8.53036e-05
6.95165e-05
6.97691e-05
8.26295e-05
8.50847e-05
7.23144e-05
8.51307e-05
7.23268e-05
6.97996e-05
8.51234e-05
8.51232e-05
6.98912e-05
6.97541e-05
6.97539e-05
2.76331e-05
4.34476e-05
4.35945e-05
2.69633e-05
4.38885e-05
2.63145e-05
2.76197e-05
4.34395e-05
4.35886e-05
2.69556e-05
4.21343e-05
4.2131e-05
4.21309e-05
1.56571e-05
1.56563e-05
1.56533e-05
1.56531e-05
2.82595e-05
4.34588e-05
4.18418e-05
3.17233e-05
4.37296e-05
2.74955e-05
3.2116e-05
4.38734e-05
2.63215e-05
2.82591e-05
4.18389e-05
4.3457e-05
3.17201e-05
4.37292e-05
3.21132e-05
2.74969e-05
4.339e-05
4.33892e-05
2.92118e-05
2.71857e-05
2.71825e-05
4.97826e-06
5.61539e-06
5.84021e-06
-1.80813e-08
2.56893e-06
-4.16331e-06
4.99671e-06
5.59563e-06
5.82671e-06
-5.39246e-09
2.5289e-06
9.23634e-06
9.23469e-06
2.78229e-06
9.53332e-06
2.53898e-06
2.53842e-06
4.42062e-06
6.18675e-06
8.59042e-06
2.85257e-06
7.55911e-06
4.29636e-06
2.62226e-06
2.53862e-06
-4.16079e-06
4.42537e-06
8.58931e-06
6.18195e-06
2.85106e-06
7.55867e-06
2.62245e-06
4.30252e-06
2.44556e-06
2.44157e-06
2.69504e-06
2.62217e-06
2.63428e-06
0.000502317
0.000502347
0.000502315
0.000502312
0.000502313
0.000502315
0.000502347
0.000502317
0.000497138
0.00048172
0.000481719
0.000497143
0.000481834
0.000481716
0.000481717
0.000461124
0.000476542
0.000461124
0.000476542
0.000476403
0.00046112
0.00046112
0.000476546
0.000476547
0.00048172
0.000497137
0.000497141
0.000481721
0.000481769
0.000497106
0.00049457
0.000484264
0.000497096
0.000481751
0.000484273
0.000481769
0.000497105
0.00049457
0.000484263
0.000497096
0.000481751
0.000484273
0.000476544
0.000461125
0.000476541
0.000461124
0.000476544
0.000461125
0.000476541
0.000461124
0.000476499
0.000473966
0.000461155
0.000463677
0.00047651
0.000473975
0.000461173
0.000476499
0.000473965
0.000461155
0.000463677
0.000476509
0.000473975
0.000461173
0.000497142
0.000497142
0.000481833
0.000481716
0.000481716
0.000497138
0.00048172
0.000461124
0.000476542
0.000476403
0.00046112
0.000461121
0.000476546
0.000476546
0.000461124
0.000476543
0.00048177
0.000484264
0.000481751
0.000484273
0.00048172
0.000481721
0.00048177
0.000484264
0.000484273
0.000481751
0.000476545
0.000461125
0.000476541
0.000461124
0.0004765
0.000473966
0.000461155
0.000463677
0.00047651
0.000473975
0.000461173
0.000476545
0.000461125
0.000476541
0.000461124
0.0004765
0.000473966
0.000463677
0.000461155
0.000473975
0.00047651
0.000461173
0.00048172
0.000497137
0.000497141
0.000481721
0.000481769
0.00049457
0.000497106
0.000484264
0.000497096
0.000484273
0.000481751
0.00048172
0.000497137
0.000497141
0.000481721
0.000476499
0.000473965
0.000461155
0.000463677
0.000476509
0.000473975
0.000461173
0.000476544
0.000461125
0.000476541
0.000461124
0.000476499
0.000473966
0.000463677
0.000461155
0.000473975
0.00047651
0.000461173
0.000476544
0.000461125
0.000476541
0.000461124
0.000481834
0.000481717
0.000481717
0.00048172
0.000461124
0.000476543
0.000476403
0.000461121
0.00046112
0.000476547
0.000476547
0.000461124
0.000476542
0.000481769
0.00049457
0.000497106
0.000484264
0.000497096
0.000484273
0.000481751
0.00048172
0.000497141
0.000481721
0.00048172
0.000497137
0.000497141
0.000481721
0.000476499
0.000473966
0.000463677
0.000461155
0.000473975
0.00047651
0.000461173
0.000476499
0.000473966
0.000463677
0.000461155
0.000473975
0.00047651
0.000461173
0.000476544
0.000461125
0.000476541
0.000461124
0.000476544
0.000461125
0.000476541
0.000461124
0.000497138
0.00048172
0.000497138
0.00048172
0.000476403
0.00046112
0.00046112
0.000476546
0.000476546
0.000461124
0.000476543
0.000461124
0.000476543
0.000455947
0.000440529
0.000455947
0.000440529
0.000455951
0.000455951
0.000440643
0.000440526
0.000440526
0.000419935
0.000435352
0.000419935
0.000435352
0.000435213
0.000419931
0.000419932
0.000435356
0.000435356
0.000440529
0.000455945
0.000455949
0.00044053
0.000440578
0.000455914
0.000453379
0.000443073
0.000455904
0.00044056
0.000443082
0.000440578
0.000455914
0.000453379
0.000443073
0.000455904
0.00044056
0.000443082
0.000435354
0.000419936
0.000435351
0.000419935
0.000435354
0.000419936
0.000435351
0.000419935
0.000435309
0.000432776
0.000419966
0.000422488
0.00043532
0.000432785
0.000419984
0.000435309
0.000432776
0.000419966
0.000422488
0.000435319
0.000432785
0.000419984
0.000455951
0.000455951
0.000440643
0.000440526
0.000440526
0.000455947
0.000440529
0.000419935
0.000435352
0.000435213
0.000419932
0.000419932
0.000435356
0.000435356
0.000419935
0.000435352
0.000440578
0.000455914
0.000453379
0.000443073
0.000455904
0.00044056
0.000443082
0.000440529
0.000455945
0.000455949
0.00044053
0.000440578
0.000453379
0.000455914
0.000443073
0.000455904
0.000443082
0.00044056
0.000435354
0.000419936
0.000435351
0.000419935
0.000435309
0.000432775
0.000419966
0.000422488
0.00043532
0.000432785
0.000419984
0.000435354
0.000419936
0.000435351
0.000419935
0.000435309
0.000432776
0.000422488
0.000419966
0.000432785
0.000435319
0.000419984
0.000440529
0.000455945
0.000455949
0.00044053
0.000440579
0.000453379
0.000455914
0.000443073
0.000455904
0.000443082
0.00044056
0.000440529
0.000455945
0.000455949
0.00044053
0.000435309
0.000432776
0.000419966
0.000422488
0.000435319
0.000432785
0.000419984
0.000435354
0.000419936
0.000435351
0.000419935
0.000435309
0.000432776
0.000422488
0.000419966
0.000432785
0.00043532
0.000419984
0.000435354
0.000419936
0.000435351
0.000419935
0.00045595
0.000455951
0.000440643
0.000440526
0.000440526
0.000455947
0.000440529
0.000419935
0.000435352
0.000435213
0.000419932
0.000419932
0.000435356
0.000435356
0.000419935
0.000435352
0.000440579
0.000453379
0.000455914
0.000443073
0.000455904
0.000443082
0.00044056
0.000440529
0.000455945
0.000455949
0.00044053
0.000440529
0.000455945
0.000455949
0.00044053
0.000435309
0.000432776
0.000422488
0.000419966
0.000432785
0.00043532
0.000419984
0.000435309
0.000432776
0.000422488
0.000419966
0.000432785
0.00043532
0.000419985
0.000435354
0.000419936
0.000435351
0.000419935
0.000435354
0.000419936
0.000435351
0.000419935
0.000455947
0.000440529
0.000455947
0.000440529
0.000435213
0.000419931
0.000419931
0.000435356
0.000435356
0.000419935
0.000435352
0.000419935
0.000435352
0.000414758
0.000399342
0.000414758
0.000399342
0.000414762
0.000414762
0.000399455
0.000399338
0.000399338
0.000378748
0.000394165
0.000378748
0.000394165
0.000394025
0.000378745
0.000378745
0.000394169
0.000394169
0.000399342
0.000414757
0.00041476
0.000399343
0.000399391
0.000414726
0.000412191
0.000401885
0.000414716
0.000399373
0.000401894
0.000399391
0.000414726
0.000412191
0.000401885
0.000414716
0.000399373
0.000401894
0.000394167
0.000378749
0.000394163
0.000378748
0.000394167
0.000378749
0.000394163
0.000378748
0.000394122
0.000391588
0.000378779
0.0003813
0.000394132
0.000391597
0.000378797
0.000394122
0.000391588
0.000378779
0.0003813
0.000394132
0.000391597
0.000378797
0.000414762
0.000414762
0.000399455
0.000399338
0.000399338
0.000414759
0.000399341
0.000378748
0.000394165
0.000394025
0.000378745
0.000378745
0.000394169
0.000394169
0.000378748
0.000394165
0.000399391
0.000414725
0.000412191
0.000401885
0.000414715
0.000399373
0.000401894
0.000399341
0.000414757
0.00041476
0.000399342
0.000399391
0.000412191
0.000414725
0.000401885
0.000414715
0.000401894
0.000399373
0.000394167
0.000378749
0.000394164
0.000378748
0.000394122
0.000391588
0.000378779
0.0003813
0.000394132
0.000391597
0.000378797
0.000394167
0.000378749
0.000394163
0.000378748
0.000394122
0.000391588
0.0003813
0.000378779
0.000391597
0.000394132
0.000378797
0.000399341
0.000414757
0.00041476
0.000399342
0.000399391
0.000412191
0.000414725
0.000401885
0.000414715
0.000401894
0.000399373
0.000399341
0.000414757
0.00041476
0.000399342
0.000394122
0.000391588
0.000378779
0.0003813
0.000394132
0.000391597
0.000378797
0.000394167
0.000378749
0.000394163
0.000378748
0.000394122
0.000391588
0.0003813
0.000378779
0.000391597
0.000394132
0.000378797
0.000394167
0.000378749
0.000394163
0.000378748
0.000414762
0.000414762
0.000399455
0.000399338
0.000399338
0.000414758
0.000399342
0.000378748
0.000394165
0.000394025
0.000378744
0.000378744
0.000394169
0.000394169
0.000378748
0.000394165
0.000399391
0.000412191
0.000414726
0.000401885
0.000414715
0.000401894
0.000399373
0.000399342
0.000414757
0.00041476
0.000399342
0.000399342
0.000414757
0.00041476
0.000399343
0.000394122
0.000391588
0.0003813
0.000378779
0.000391597
0.000394132
0.000378797
0.000394122
0.000391588
0.0003813
0.000378779
0.000391597
0.000394132
0.000378797
0.000394167
0.000378749
0.000394163
0.000378748
0.000394167
0.000378749
0.000394163
0.000378748
0.000414758
0.000399342
0.000414758
0.000399342
0.000394025
0.000378744
0.000378744
0.000394169
0.000394169
0.000378748
0.000394165
0.000378748
0.000394165
0.000373571
0.000358154
0.000373571
0.000358154
0.000373575
0.000373575
0.000358268
0.000358151
0.000358151
0.00033756
0.000352978
0.00033756
0.000352977
0.000352838
0.000337557
0.000337557
0.000352982
0.000352981
0.000358154
0.00037357
0.000373573
0.000358156
0.000358204
0.000373539
0.000371004
0.000360698
0.000373528
0.000358185
0.000360706
0.000358204
0.000373538
0.000371004
0.000360697
0.000373528
0.000358186
0.000360707
0.000352979
0.000337561
0.000352976
0.00033756
0.000352979
0.000337561
0.000352976
0.000337561
0.000352935
0.000350401
0.000337591
0.000340113
0.000352945
0.00035041
0.00033761
0.000352935
0.000350401
0.000337592
0.000340113
0.000352945
0.00035041
0.00033761
0.000373575
0.000373575
0.000358268
0.000358151
0.000358151
0.000373571
0.000358154
0.00033756
0.000352978
0.000352838
0.000337557
0.000337557
0.000352982
0.000352981
0.00033756
0.000352978
0.000358203
0.000373538
0.000371003
0.000360697
0.000373528
0.000358185
0.000360707
0.000358154
0.00037357
0.000373573
0.000358155
0.000358203
0.000371003
0.000373538
0.000360697
0.000373528
0.000360707
0.000358185
0.000352979
0.000337561
0.000352976
0.00033756
0.000352934
0.000350401
0.000337591
0.000340113
0.000352945
0.00035041
0.00033761
0.000352979
0.000337561
0.000352976
0.00033756
0.000352934
0.000350401
0.000340113
0.000337592
0.00035041
0.000352944
0.000337609
0.000358155
0.00037357
0.000373573
0.000358156
0.000358204
0.000371004
0.000373539
0.000360698
0.000373528
0.000360707
0.000358185
0.000358155
0.00037357
0.000373573
0.000358155
0.000352935
0.000350401
0.000337592
0.000340113
0.000352945
0.00035041
0.00033761
0.00035298
0.000337561
0.000352976
0.000337561
0.000352935
0.000350401
0.000340113
0.000337591
0.00035041
0.000352945
0.00033761
0.000352979
0.000337561
0.000352976
0.000337561
0.000373575
0.000373575
0.000358268
0.000358151
0.000358151
0.000373571
0.000358154
0.00033756
0.000352977
0.000352838
0.000337557
0.000337557
0.000352981
0.000352981
0.00033756
0.000352977
0.000358204
0.000371004
0.000373538
0.000360697
0.000373528
0.000360707
0.000358185
0.000358155
0.00037357
0.000373573
0.000358155
0.000358155
0.00037357
0.000373573
0.000358155
0.000352934
0.000350401
0.000340113
0.000337591
0.00035041
0.000352945
0.00033761
0.000352934
0.000350401
0.000340113
0.000337591
0.00035041
0.000352945
0.00033761
0.000352979
0.000337561
0.000352976
0.000337561
0.000352979
0.000337561
0.000352976
0.000337561
0.000373571
0.000358154
0.000373571
0.000358154
0.000352838
0.000337557
0.000337557
0.000352982
0.000352982
0.00033756
0.000352978
0.00033756
0.000352978
0.000332383
0.000316965
0.000332383
0.000316965
0.000332387
0.000332387
0.00031708
0.000316962
0.000316962
0.000296368
0.00031179
0.000296368
0.00031179
0.00031165
0.000296367
0.000296366
0.000311794
0.000311794
0.000316967
0.000332383
0.000332385
0.000316966
0.000317016
0.000332351
0.000329816
0.00031951
0.00033234
0.000316997
0.000319519
0.000317016
0.000332351
0.000329816
0.00031951
0.000332341
0.000316997
0.000319519
0.00031179
0.00029637
0.000311789
0.000296373
0.00031179
0.000296371
0.000311789
0.000296373
0.000311746
0.000309214
0.000296404
0.000298924
0.000311756
0.000309222
0.000296422
0.000311746
0.000309214
0.000296405
0.000298924
0.000311756
0.000309223
0.000296422
0.000332388
0.000332388
0.00031708
0.000316962
0.000316963
0.000332384
0.000316965
0.000296369
0.00031179
0.00031165
0.000296368
0.000296368
0.000311793
0.000311793
0.000296369
0.000311791
0.000317016
0.00033235
0.000329816
0.00031951
0.00033234
0.000316997
0.000319518
0.000316967
0.000332382
0.000332385
0.000316966
0.000317016
0.000329816
0.00033235
0.00031951
0.00033234
0.000319518
0.000316997
0.000311791
0.00029637
0.000311789
0.000296371
0.000311745
0.000309213
0.000296403
0.000298924
0.000311756
0.000309222
0.000296421
0.000311791
0.00029637
0.000311789
0.000296371
0.000311746
0.000309213
0.000298924
0.000296404
0.000309222
0.000311756
0.000296421
0.000316967
0.000332383
0.000332385
0.000316967
0.000317016
0.000329816
0.000332351
0.00031951
0.000332341
0.000319519
0.000316998
0.000316967
0.000332382
0.000332385
0.000316966
0.000311746
0.000309214
0.000296405
0.000298924
0.000311756
0.000309223
0.000296422
0.00031179
0.000296371
0.000311789
0.000296373
0.000311746
0.000309214
0.000298924
0.000296404
0.000309223
0.000311756
0.000296422
0.00031179
0.00029637
0.000311789
0.000296373
0.000332387
0.000332388
0.00031708
0.000316962
0.000316962
0.000332384
0.000316965
0.000296367
0.00031179
0.00031165
0.000296366
0.000296367
0.000311793
0.000311793
0.000296368
0.00031179
0.000317016
0.000329816
0.000332351
0.00031951
0.00033234
0.000319519
0.000316997
0.000316967
0.000332382
0.000332385
0.000316966
0.000316967
0.000332382
0.000332385
0.000316966
0.000311745
0.000309213
0.000298924
0.000296404
0.000309222
0.000311756
0.000296422
0.000311745
0.000309213
0.000298924
0.000296404
0.000309222
0.000311756
0.000296422
0.00031179
0.00029637
0.000311789
0.000296372
0.00031179
0.00029637
0.000311789
0.000296373
0.000332383
0.000316966
0.000332383
0.000316965
0.00031165
0.000296367
0.000296367
0.000311794
0.000311794
0.000296368
0.00031179
0.000296368
0.00031179
0.000291198
0.000275773
0.000291197
0.000275772
0.000291199
0.000291198
0.000275889
0.000275775
0.000275774
0.000255185
0.0002706
0.000255185
0.000270599
0.000270454
0.00025519
0.00025519
0.000270599
0.000270598
0.000275779
0.000291195
0.000291195
0.00027578
0.000275829
0.000291159
0.000288628
0.000278319
0.00029115
0.000275815
0.000278327
0.000275829
0.00029116
0.000288628
0.000278319
0.00029115
0.000275815
0.000278327
0.000270594
0.00025519
0.000270593
0.000255197
0.000270594
0.000255189
0.000270593
0.000255197
0.000270548
0.000268018
0.000255224
0.000257725
0.000270555
0.000268027
0.000255238
0.000270548
0.000268018
0.000255224
0.000257724
0.000270556
0.000268028
0.000255238
0.0002912
0.0002912
0.00027589
0.000275776
0.000275776
0.000291199
0.000275773
0.000255184
0.0002706
0.000270454
0.000255189
0.000255189
0.000270599
0.000270599
0.000255184
0.000270601
0.000275829
0.000291158
0.000288627
0.000278319
0.000291149
0.000275814
0.000278327
0.000275779
0.000291193
0.000291194
0.000275778
0.000275829
0.000288627
0.000291158
0.000278318
0.000291149
0.000278327
0.000275814
0.000270595
0.00025519
0.000270593
0.000255195
0.000270548
0.000268018
0.000255224
0.000257725
0.000270555
0.000268027
0.000255238
0.000270595
0.000255191
0.000270592
0.000255195
0.000270548
0.000268018
0.000257725
0.000255224
0.000268027
0.000270555
0.000255238
0.000275779
0.000291195
0.000291195
0.00027578
0.000275829
0.000288628
0.000291159
0.000278319
0.00029115
0.000278327
0.000275815
0.000275779
0.000291194
0.000291195
0.000275779
0.000270548
0.000268018
0.000255224
0.000257724
0.000270555
0.000268027
0.000255238
0.000270594
0.000255189
0.000270593
0.000255196
0.000270548
0.000268018
0.000257725
0.000255224
0.000268028
0.000270556
0.000255238
0.000270594
0.00025519
0.000270593
0.000255196
0.000291198
0.000291198
0.000275889
0.000275774
0.000275774
0.000291197
0.000275771
0.000255185
0.000270599
0.000270454
0.00025519
0.00025519
0.000270597
0.000270598
0.000255186
0.000270599
0.000275829
0.000288627
0.000291159
0.000278319
0.000291149
0.000278327
0.000275815
0.000275779
0.000291194
0.000291195
0.000275778
0.000275779
0.000291194
0.000291195
0.000275779
0.000270548
0.000268018
0.000257725
0.000255224
0.000268027
0.000270555
0.000255238
0.000270548
0.000268018
0.000257725
0.000255224
0.000268027
0.000270556
0.000255238
0.000270594
0.000255191
0.000270592
0.000255197
0.000270594
0.00025519
0.000270593
0.000255197
0.000291198
0.000275773
0.000291198
0.000275773
0.000270454
0.00025519
0.00025519
0.000270599
0.000270599
0.000255185
0.0002706
0.000255185
0.0002706
0.000249995
0.000234581
0.000249995
0.000234583
0.000249993
0.000249993
0.000234697
0.00023459
0.00023459
0.000213962
0.000229406
0.000213963
0.000229407
0.000229267
0.000213967
0.000213967
0.000229408
0.000229409
0.000234601
0.000249989
0.000249985
0.000234584
0.00023463
0.000249956
0.000247427
0.000237126
0.000249948
0.00023462
0.000237134
0.00023463
0.000249955
0.000247427
0.000237125
0.000249948
0.000234618
0.000237133
0.000229402
0.000213971
0.000229403
0.000213947
0.000229402
0.000213971
0.000229402
0.000213947
0.000229371
0.000226834
0.000214006
0.000216547
0.000229374
0.000226844
0.000214011
0.000229371
0.000226833
0.000214006
0.000216546
0.000229372
0.000226843
0.000214011
0.000249991
0.000249991
0.000234696
0.000234587
0.000234586
0.000249993
0.000234584
0.000213961
0.000229405
0.000229266
0.000213966
0.000213966
0.000229407
0.000229406
0.000213961
0.000229406
0.000234632
0.000249955
0.000247428
0.000237126
0.000249948
0.00023462
0.000237134
0.000234603
0.000249991
0.000249984
0.000234587
0.000234632
0.000247428
0.000249956
0.000237126
0.000249948
0.000237134
0.00023462
0.000229406
0.000213973
0.000229405
0.000213949
0.000229373
0.000226834
0.000214008
0.000216547
0.000229374
0.000226844
0.000214013
0.000229406
0.000213973
0.000229405
0.000213949
0.000229373
0.000226834
0.000216547
0.000214008
0.000226844
0.000229374
0.000214012
0.000234601
0.000249989
0.000249985
0.000234585
0.00023463
0.000247427
0.000249956
0.000237126
0.000249948
0.000237134
0.000234619
0.000234601
0.00024999
0.000249985
0.000234585
0.000229371
0.000226833
0.000214006
0.000216546
0.000229372
0.000226843
0.000214011
0.000229402
0.000213971
0.000229403
0.000213947
0.000229371
0.000226834
0.000216546
0.000214006
0.000226843
0.000229373
0.000214011
0.000229402
0.000213971
0.000229403
0.000213947
0.000249993
0.000249993
0.000234698
0.000234589
0.00023459
0.000249996
0.000234583
0.000213963
0.000229409
0.000229268
0.000213968
0.000213967
0.000229409
0.000229409
0.000213962
0.000229407
0.000234631
0.000247427
0.000249956
0.000237126
0.000249948
0.000237134
0.000234619
0.000234602
0.000249991
0.000249986
0.000234587
0.000234602
0.00024999
0.000249986
0.000234585
0.000229371
0.000226834
0.000216547
0.000214008
0.000226844
0.000229375
0.000214011
0.000229371
0.000226834
0.000216547
0.000214006
0.000226844
0.000229374
0.000214011
0.000229403
0.000213972
0.000229405
0.000213948
0.000229403
0.000213971
0.000229403
0.000213948
0.000249994
0.000234581
0.000249995
0.000234582
0.000229267
0.000213966
0.000213966
0.000229407
0.000229408
0.000213961
0.000229405
0.000213962
0.000229406
0.000208825
0.000193353
0.000208826
0.000193354
0.000208821
0.000208821
0.000193498
0.000193373
0.000193374
0.000172753
0.000188221
0.000172753
0.000188221
0.000188044
0.000172793
0.000172793
0.000188196
0.000188196
0.00019338
0.000208814
0.000208843
0.000193364
0.000193443
0.000208777
0.000206239
0.000195925
0.000208774
0.000193418
0.000195926
0.000193443
0.000208776
0.000206239
0.000195925
0.000208774
0.000193418
0.000195926
0.000188176
0.000172788
0.000188206
0.000172809
0.000188176
0.000172789
0.000188206
0.000172809
0.000188128
0.000185615
0.000172841
0.000175329
0.000188149
0.000185622
0.000172837
0.000188128
0.000185615
0.000172842
0.000175329
0.000188149
0.000185623
0.000172837
0.000208819
0.000208819
0.000193498
0.000193374
0.000193374
0.000208825
0.000193354
0.000172754
0.000188221
0.000188044
0.000172793
0.000172794
0.000188196
0.000188195
0.000172753
0.000188224
0.000193443
0.000208778
0.000206239
0.000195925
0.000208776
0.000193418
0.000195926
0.000193379
0.000208816
0.000208845
0.000193364
0.000193443
0.00020624
0.000208778
0.000195925
0.000208776
0.000195926
0.000193419
0.000188175
0.000172788
0.000188206
0.000172808
0.000188128
0.000185615
0.000172841
0.000175329
0.000188149
0.000185622
0.000172837
0.000188175
0.000172788
0.000188205
0.000172808
0.000188128
0.000185615
0.000175329
0.000172841
0.000185622
0.000188149
0.000172837
0.00019338
0.000208814
0.000208843
0.000193364
0.000193443
0.000206239
0.000208776
0.000195925
0.000208774
0.000195926
0.000193418
0.00019338
0.000208814
0.000208843
0.000193364
0.000188128
0.000185615