/*--------------------------------*- C++ -*----------------------------------*\
| =========                 |                                                 |
| \\      /  F ield         | OpenFOAM: The Open Source CFD Toolbox           |
|  \\    /   O peration     | Version:  2206                                  |
|   \\  /    A nd           | Website:  www.openfoam.com                      |
|    \\/     M anipulation  |                                                 |
\*---------------------------------------------------------------------------*/
FoamFile
{
    version     2.0;
    format      ascii;
    arch        "LSB;label=32;scalar=64";
    class       volVectorField;
    location    "37.5";
    object      U;
}
// * * * * * * * * * * * * * * * * * * * * * * * * * * * * * * * * * * * * * //

dimensions      [0 1 -1 0 0 0 0];

internalField   nonuniform List<vector> 
28897
(
(-9.16218e-07 -9.07971e-07 0.104041)
(-6.11635e-07 9.49955e-07 0.103913)
(9.45724e-07 -6.16028e-07 0.103913)
(-4.82351e-05 -4.82508e-05 0.10374)
(-9.21392e-07 -9.10846e-07 0.104041)
(-6.05295e-07 9.45191e-07 0.103913)
(9.41779e-07 -6.07836e-07 0.103913)
(-4.82306e-05 -4.82442e-05 0.10374)
(-9.23326e-07 -9.13316e-07 0.104041)
(-5.99686e-07 9.42415e-07 0.103913)
(9.4001e-07 -6.01261e-07 0.103913)
(-4.82259e-05 -4.82406e-05 0.10374)
(-9.28374e-07 -9.17642e-07 0.104041)
(-5.96178e-07 9.4418e-07 0.103913)
(9.36617e-07 -5.95366e-07 0.103913)
(-4.82216e-05 -4.82351e-05 0.10374)
(-9.32182e-07 -9.21668e-07 0.104041)
(-5.97351e-07 9.41946e-07 0.103913)
(9.37909e-07 -5.93171e-07 0.103913)
(-4.82192e-05 -4.82317e-05 0.10374)
(-9.2822e-07 -9.22582e-07 0.104041)
(-5.77579e-07 9.30369e-07 0.103913)
(9.43571e-07 -5.94725e-07 0.103913)
(-4.82023e-05 -4.82175e-05 0.103739)
(-9.29712e-07 -9.30962e-07 0.10404)
(-5.44584e-07 9.02672e-07 0.103912)
(9.13607e-07 -5.57209e-07 0.103912)
(-4.81944e-05 -4.82206e-05 0.103739)
(-8.18379e-07 -8.12499e-07 0.104041)
(-7.42064e-07 1.03357e-06 0.103913)
(1.02946e-06 -7.54855e-07 0.103913)
(-4.8391e-05 -4.84321e-05 0.103739)
(-9.35177e-07 -9.12685e-07 0.104041)
(-6.2138e-07 9.37114e-07 0.103913)
(9.13765e-07 -5.97853e-07 0.103913)
(-4.8256e-05 -4.82376e-05 0.10374)
(-9.31921e-07 -9.22756e-07 0.104041)
(-5.83303e-07 9.24005e-07 0.103913)
(9.27015e-07 -5.95807e-07 0.103913)
(-4.82221e-05 -4.82467e-05 0.10374)
(-9.13783e-07 -9.05659e-07 0.104041)
(-6.0076e-07 9.40815e-07 0.103913)
(9.42172e-07 -6.09337e-07 0.103913)
(-4.82434e-05 -4.8264e-05 0.10374)
(-9.20078e-07 -9.06562e-07 0.104041)
(-6.07111e-07 9.54796e-07 0.103913)
(9.43263e-07 -6.09548e-07 0.103913)
(-4.82485e-05 -4.8262e-05 0.10374)
(-9.17524e-07 -9.07301e-07 0.104041)
(-6.0764e-07 9.46345e-07 0.103913)
(9.43487e-07 -6.09543e-07 0.103913)
(-4.82483e-05 -4.8262e-05 0.10374)
(-9.1655e-07 -9.08458e-07 0.104041)
(-6.07908e-07 9.46923e-07 0.103913)
(9.43229e-07 -6.09063e-07 0.103913)
(-4.82478e-05 -4.82622e-05 0.10374)
(-9.15613e-07 -9.08601e-07 0.104041)
(-6.0913e-07 9.47378e-07 0.103913)
(9.42997e-07 -6.09871e-07 0.103913)
(-4.82486e-05 -4.82631e-05 0.10374)
(-9.14885e-07 -9.08717e-07 0.104041)
(-6.08937e-07 9.47337e-07 0.103913)
(9.43161e-07 -6.09619e-07 0.103913)
(-4.82475e-05 -4.82621e-05 0.10374)
(-9.13615e-07 -9.07988e-07 0.104041)
(-6.09687e-07 9.47723e-07 0.103913)
(9.43199e-07 -6.10175e-07 0.103913)
(-4.82465e-05 -4.82613e-05 0.10374)
(-9.13237e-07 -9.07517e-07 0.104041)
(-6.09791e-07 9.47046e-07 0.103913)
(9.42651e-07 -6.10158e-07 0.103913)
(-4.82463e-05 -4.82607e-05 0.10374)
(-5.07296e-05 -5.06951e-05 0.103749)
(9.80739e-07 6.45359e-07 0.103913)
(-9.80139e-07 6.5513e-07 0.103913)
(5.07418e-05 -5.07123e-05 0.103749)
(6.1527e-07 9.48325e-07 0.103913)
(6.45977e-07 -9.76833e-07 0.103913)
(-6.10417e-07 9.47142e-07 0.103913)
(-6.41978e-07 -9.72011e-07 0.103913)
(-5.06996e-05 5.07354e-05 0.103749)
(9.45947e-07 -6.15052e-07 0.103913)
(-9.43736e-07 -6.14948e-07 0.103913)
(5.07029e-05 5.07217e-05 0.103749)
(4.82422e-05 4.822e-05 0.10374)
(-5.07333e-05 -5.06979e-05 0.103749)
(9.80005e-07 6.41386e-07 0.103913)
(-9.88224e-07 6.54357e-07 0.103913)
(9.76302e-07 6.37427e-07 0.103913)
(-9.81427e-07 6.4718e-07 0.103913)
(-4.82444e-05 4.82191e-05 0.10374)
(5.07339e-05 -5.07052e-05 0.103749)
(6.17181e-07 9.48525e-07 0.103913)
(6.44193e-07 -9.76199e-07 0.103913)
(6.07296e-07 9.46099e-07 0.103913)
(6.36451e-07 -9.72724e-07 0.103913)
(-6.42177e-07 -9.7201e-07 0.103913)
(-6.05688e-07 9.44848e-07 0.103913)
(-6.38329e-07 -9.68211e-07 0.103913)
(4.82216e-05 -4.8257e-05 0.10374)
(-5.07034e-05 5.07386e-05 0.103749)
(-9.43851e-07 -6.13414e-07 0.103913)
(9.41779e-07 -6.07463e-07 0.103913)
(-9.41128e-07 -6.06559e-07 0.103913)
(5.07027e-05 5.07248e-05 0.103749)
(4.82351e-05 4.8214e-05 0.10374)
(-5.07379e-05 -5.07039e-05 0.103749)
(9.75787e-07 6.33804e-07 0.103913)
(-9.83161e-07 6.44873e-07 0.103913)
(9.73334e-07 6.32081e-07 0.103913)
(-9.81274e-07 6.42582e-07 0.103913)
(-4.82338e-05 4.82067e-05 0.10374)
(5.07378e-05 -5.07082e-05 0.103749)
(6.08737e-07 9.46137e-07 0.103913)
(6.34789e-07 -9.72067e-07 0.103913)
(6.03012e-07 9.43512e-07 0.103913)
(6.33334e-07 -9.71456e-07 0.103913)
(-6.36721e-07 -9.67631e-07 0.103913)
(-6.01991e-07 9.43546e-07 0.103913)
(-6.34772e-07 -9.67288e-07 0.103913)
(4.82147e-05 -4.82501e-05 0.10374)
(-5.0706e-05 5.07431e-05 0.103749)
(-9.40586e-07 -6.04172e-07 0.103913)
(9.41638e-07 -6.02668e-07 0.103913)
(-9.39689e-07 -6.01627e-07 0.103913)
(5.07073e-05 5.07287e-05 0.103749)
(4.82306e-05 4.82073e-05 0.10374)
(-5.0745e-05 -5.07078e-05 0.103749)
(9.7118e-07 6.25679e-07 0.103913)
(-9.8077e-07 6.39373e-07 0.103913)
(9.72968e-07 6.32717e-07 0.103913)
(-9.79682e-07 6.41334e-07 0.103913)
(-4.82248e-05 4.81984e-05 0.10374)
(5.07437e-05 -5.07115e-05 0.103749)
(6.02802e-07 9.41762e-07 0.103913)
(6.29123e-07 -9.69318e-07 0.103913)
(5.99987e-07 9.4252e-07 0.103913)
(6.34062e-07 -9.71208e-07 0.103913)
(-6.31167e-07 -9.66071e-07 0.103913)
(-5.97012e-07 9.43441e-07 0.103913)
(-6.29727e-07 -9.66712e-07 0.103913)
(4.82117e-05 -4.82459e-05 0.10374)
(-5.07109e-05 5.07498e-05 0.103749)
(-9.37997e-07 -5.97452e-07 0.103913)
(9.40868e-07 -6.0016e-07 0.103913)
(-9.37452e-07 -5.99928e-07 0.103913)
(5.07135e-05 5.07352e-05 0.103749)
(4.82251e-05 4.82063e-05 0.10374)
(-5.07502e-05 -5.07182e-05 0.103749)
(9.68428e-07 6.2279e-07 0.103913)
(-9.8031e-07 6.3786e-07 0.103913)
(9.7367e-07 6.25882e-07 0.103913)
(-9.75782e-07 6.32337e-07 0.103913)
(-4.82214e-05 4.81962e-05 0.10374)
(5.07548e-05 -5.07247e-05 0.103749)
(5.96224e-07 9.38503e-07 0.103913)
(6.26225e-07 -9.66656e-07 0.103913)
(5.9806e-07 9.43218e-07 0.103913)
(6.26095e-07 -9.71235e-07 0.103913)
(-6.24911e-07 -9.64805e-07 0.103913)
(-5.89692e-07 9.3533e-07 0.103913)
(-6.2825e-07 -9.65133e-07 0.103913)
(4.82094e-05 -4.82409e-05 0.10374)
(-5.07232e-05 5.07558e-05 0.103749)
(-9.33959e-07 -5.92245e-07 0.103913)
(9.3884e-07 -5.9832e-07 0.103913)
(-9.39179e-07 -5.96774e-07 0.103913)
(5.07201e-05 5.07438e-05 0.103749)
(4.82243e-05 4.82005e-05 0.10374)
(-5.07732e-05 -5.07403e-05 0.103749)
(9.72521e-07 6.17752e-07 0.103913)
(-9.84729e-07 6.33794e-07 0.103913)
(9.58519e-07 6.03336e-07 0.103912)
(-9.6028e-07 6.04921e-07 0.103912)
(-4.82142e-05 4.81868e-05 0.10374)
(5.07727e-05 -5.07442e-05 0.103749)
(5.9373e-07 9.42231e-07 0.103913)
(6.19392e-07 -9.70107e-07 0.103913)
(5.74989e-07 9.27049e-07 0.103913)
(6.05622e-07 -9.55601e-07 0.103912)
(-6.2738e-07 -9.64582e-07 0.103913)
(-5.64583e-07 9.19415e-07 0.103913)
(-6.03723e-07 -9.47003e-07 0.103912)
(4.82012e-05 -4.82397e-05 0.10374)
(-5.07422e-05 5.07792e-05 0.103749)
(-9.3912e-07 -5.88271e-07 0.103913)
(9.25427e-07 -5.74148e-07 0.103913)
(-9.22413e-07 -5.72238e-07 0.103913)
(5.07436e-05 5.07635e-05 0.103749)
(4.82094e-05 4.81865e-05 0.103739)
(-5.07841e-05 -5.07579e-05 0.103749)
(9.77057e-07 6.19192e-07 0.103912)
(-9.7333e-07 6.24173e-07 0.103912)
(9.41664e-07 5.80562e-07 0.103912)
(-9.5173e-07 6.02231e-07 0.103912)
(-4.82017e-05 4.81734e-05 0.10374)
(5.07832e-05 -5.07468e-05 0.103749)
(5.98005e-07 9.44367e-07 0.103913)
(6.24457e-07 -9.72348e-07 0.103912)
(5.54714e-07 9.04432e-07 0.103912)
(5.84173e-07 -9.33908e-07 0.103912)
(-6.16636e-07 -9.61947e-07 0.103912)
(-5.66335e-07 9.19921e-07 0.103912)
(-5.90948e-07 -9.39761e-07 0.103912)
(4.819e-05 -4.82237e-05 0.103739)
(-5.0757e-05 5.07944e-05 0.103749)
(-9.3693e-07 -5.91237e-07 0.103913)
(9.05637e-07 -5.51424e-07 0.103912)
(-9.01491e-07 -5.52543e-07 0.103912)
(5.07591e-05 5.07675e-05 0.103749)
(4.8206e-05 4.81772e-05 0.103739)
(-5.06057e-05 -5.05821e-05 0.103749)
(9.50423e-07 5.79485e-07 0.103912)
(-9.38753e-07 5.87466e-07 0.103912)
(1.08019e-06 7.65204e-07 0.103912)
(-1.03493e-06 7.63781e-07 0.103912)
(-4.81991e-05 4.81771e-05 0.103739)
(5.06767e-05 -5.06234e-05 0.103749)
(5.63197e-07 9.10422e-07 0.103912)
(5.87782e-07 -9.40678e-07 0.103912)
(7.46164e-07 1.0362e-06 0.103912)
(7.72277e-07 -1.06783e-06 0.103912)
(-5.78261e-07 -9.37046e-07 0.103912)
(-6.92475e-07 1.0143e-06 0.103912)
(-7.42747e-07 -1.0783e-06 0.103912)
(4.8183e-05 -4.82167e-05 0.103739)
(-5.05815e-05 5.06157e-05 0.103749)
(-9.01191e-07 -5.56012e-07 0.103912)
(1.03909e-06 -7.42612e-07 0.103912)
(-1.02064e-06 -7.49251e-07 0.103912)
(5.06054e-05 5.05928e-05 0.103749)
(4.84159e-05 4.83881e-05 0.103739)
(-5.07573e-05 -5.07109e-05 0.103749)
(1.06688e-06 7.78612e-07 0.103912)
(-1.06208e-06 7.92494e-07 0.103912)
(9.5349e-07 6.61374e-07 0.103913)
(-1.02053e-06 6.84173e-07 0.103913)
(-4.83592e-05 4.83499e-05 0.103739)
(5.06856e-05 -5.06822e-05 0.103749)
(7.56458e-07 1.03035e-06 0.103913)
(7.82333e-07 -1.05972e-06 0.103912)
(6.2002e-07 9.38003e-07 0.103913)
(6.53767e-07 -9.61434e-07 0.103913)
(-7.77161e-07 -1.06821e-06 0.103912)
(-6.64545e-07 9.63618e-07 0.103913)
(-6.81601e-07 -9.44796e-07 0.103913)
(4.83899e-05 -4.8428e-05 0.103739)
(-5.07197e-05 5.07552e-05 0.103749)
(-1.02403e-06 -7.54801e-07 0.103913)
(9.28101e-07 -6.24575e-07 0.103913)
(-9.46107e-07 -6.17714e-07 0.103913)
(5.06938e-05 5.07538e-05 0.103749)
(4.82323e-05 4.82247e-05 0.10374)
(-5.07766e-05 -5.07462e-05 0.103749)
(9.40163e-07 6.29337e-07 0.103913)
(-9.90048e-07 6.47449e-07 0.103913)
(9.51941e-07 6.14376e-07 0.103913)
(-9.57907e-07 6.26575e-07 0.103913)
(-4.82871e-05 4.82373e-05 0.10374)
(5.07893e-05 -5.07515e-05 0.103749)
(5.9442e-07 9.23346e-07 0.103913)
(6.23875e-07 -9.4679e-07 0.103913)
(5.87088e-07 9.24288e-07 0.103913)
(6.15717e-07 -9.52302e-07 0.103913)
(-6.44064e-07 -9.31587e-07 0.103913)
(-5.77904e-07 9.1906e-07 0.103913)
(-6.16787e-07 -9.48754e-07 0.103913)
(4.82184e-05 -4.82548e-05 0.10374)
(-5.07486e-05 5.07806e-05 0.103749)
(-9.27824e-07 -5.89371e-07 0.103913)
(9.19283e-07 -5.8679e-07 0.103913)
(-9.19524e-07 -5.88778e-07 0.103913)
(5.07514e-05 5.07639e-05 0.103749)
(4.82313e-05 4.82101e-05 0.10374)
(-5.07463e-05 -5.07292e-05 0.103749)
(9.60646e-07 6.20396e-07 0.103913)
(-9.59602e-07 6.33266e-07 0.103913)
(9.73995e-07 6.34556e-07 0.103913)
(-9.7538e-07 6.50106e-07 0.103913)
(-4.82129e-05 4.81955e-05 0.10374)
(5.0761e-05 -5.07216e-05 0.103749)
(5.98897e-07 9.30392e-07 0.103913)
(6.23048e-07 -9.59538e-07 0.103913)
(6.13633e-07 9.4417e-07 0.103913)
(6.37391e-07 -9.71093e-07 0.103913)
(-6.23289e-07 -9.57903e-07 0.103913)
(-5.96199e-07 9.37202e-07 0.103913)
(-6.38496e-07 -9.69424e-07 0.103913)
(4.82107e-05 -4.82494e-05 0.10374)
(-5.07249e-05 5.07591e-05 0.103749)
(-9.22971e-07 -5.97133e-07 0.103913)
(9.39583e-07 -6.06077e-07 0.103913)
(-9.32583e-07 -6.10762e-07 0.103913)
(5.07291e-05 5.07424e-05 0.103749)
(4.82578e-05 4.82322e-05 0.10374)
(-5.07551e-05 -5.07267e-05 0.103749)
(9.80266e-07 6.4464e-07 0.103913)
(-9.7868e-07 6.45941e-07 0.103913)
(9.71128e-07 6.32339e-07 0.103913)
(-9.86128e-07 6.58601e-07 0.103913)
(-4.82435e-05 4.822e-05 0.10374)
(5.07492e-05 -5.0713e-05 0.103749)
(6.19485e-07 9.47375e-07 0.103913)
(6.39356e-07 -9.7221e-07 0.103913)
(6.09352e-07 9.43714e-07 0.103913)
(6.39846e-07 -9.7248e-07 0.103913)
(-6.3844e-07 -9.69802e-07 0.103913)
(-6.0613e-07 9.51996e-07 0.103913)
(-6.38911e-07 -9.6764e-07 0.103913)
(4.82312e-05 -4.82678e-05 0.10374)
(-5.07225e-05 5.07581e-05 0.103749)
(-9.36403e-07 -6.09039e-07 0.103913)
(9.42691e-07 -6.07647e-07 0.103913)
(-9.3996e-07 -6.07783e-07 0.103913)
(5.07226e-05 5.07445e-05 0.103749)
(4.82466e-05 4.8235e-05 0.10374)
(-5.07513e-05 -5.07193e-05 0.103749)
(9.72129e-07 6.40344e-07 0.103913)
(-9.88901e-07 6.60589e-07 0.103913)
(9.74037e-07 6.35555e-07 0.103913)
(-9.7956e-07 6.46182e-07 0.103913)
(-4.82542e-05 4.82349e-05 0.10374)
(5.07528e-05 -5.07237e-05 0.103749)
(6.11495e-07 9.4705e-07 0.103913)
(6.39925e-07 -9.73438e-07 0.103913)
(6.09848e-07 9.48262e-07 0.103913)
(6.40067e-07 -9.73843e-07 0.103913)
(-6.39816e-07 -9.67858e-07 0.103913)
(-6.0623e-07 9.46941e-07 0.103913)
(-6.39761e-07 -9.68204e-07 0.103913)
(4.82327e-05 -4.82684e-05 0.10374)
(-5.07219e-05 5.07567e-05 0.103749)
(-9.4079e-07 -6.07362e-07 0.103913)
(9.42849e-07 -6.08075e-07 0.103913)
(-9.41048e-07 -6.08147e-07 0.103913)
(5.07215e-05 5.07434e-05 0.103749)
(4.82491e-05 4.82388e-05 0.10374)
(-5.07503e-05 -5.07194e-05 0.103749)
(9.74573e-07 6.40184e-07 0.103913)
(-9.79955e-07 6.46694e-07 0.103913)
(9.75431e-07 6.34473e-07 0.103913)
(-9.79373e-07 6.45673e-07 0.103913)
(-4.82465e-05 4.82181e-05 0.10374)
(5.07538e-05 -5.07251e-05 0.103749)
(6.13182e-07 9.48703e-07 0.103913)
(6.40186e-07 -9.74208e-07 0.103913)
(6.10478e-07 9.48024e-07 0.103913)
(6.39899e-07 -9.73659e-07 0.103913)
(-6.39749e-07 -9.68965e-07 0.103913)
(-6.0688e-07 9.46978e-07 0.103913)
(-6.38728e-07 -9.68835e-07 0.103913)
(4.82323e-05 -4.82687e-05 0.10374)
(-5.07224e-05 5.07572e-05 0.103749)
(-9.41407e-07 -6.07377e-07 0.103913)
(9.428e-07 -6.07708e-07 0.103913)
(-9.40638e-07 -6.08275e-07 0.103913)
(5.07222e-05 5.07433e-05 0.103749)
(4.82501e-05 4.82389e-05 0.10374)
(-5.07497e-05 -5.07192e-05 0.103749)
(9.75066e-07 6.396e-07 0.103913)
(-9.79524e-07 6.45445e-07 0.103913)
(9.75291e-07 6.34497e-07 0.103913)
(-9.79536e-07 6.45466e-07 0.103913)
(-4.82462e-05 4.82178e-05 0.10374)
(5.07532e-05 -5.07248e-05 0.103749)
(6.13844e-07 9.48913e-07 0.103913)
(6.40104e-07 -9.74207e-07 0.103913)
(6.1119e-07 9.48363e-07 0.103913)
(6.40544e-07 -9.74331e-07 0.103913)
(-6.38967e-07 -9.69442e-07 0.103913)
(-6.08069e-07 9.47505e-07 0.103913)
(-6.39445e-07 -9.69796e-07 0.103913)
(4.82319e-05 -4.82682e-05 0.10374)
(-5.07217e-05 5.07562e-05 0.103749)
(-9.41089e-07 -6.07299e-07 0.103913)
(9.43257e-07 -6.08839e-07 0.103913)
(-9.41356e-07 -6.09528e-07 0.103913)
(5.07212e-05 5.07421e-05 0.103749)
(4.82504e-05 4.82388e-05 0.10374)
(-5.07489e-05 -5.07188e-05 0.103749)
(9.75033e-07 6.39669e-07 0.103913)
(-9.79786e-07 6.45472e-07 0.103913)
(9.7501e-07 6.34316e-07 0.103913)
(-9.79124e-07 6.44722e-07 0.103913)
(-4.82465e-05 4.82177e-05 0.10374)
(5.07532e-05 -5.07246e-05 0.103749)
(6.14481e-07 9.49257e-07 0.103913)
(6.40781e-07 -9.74967e-07 0.103913)
(6.11147e-07 9.48193e-07 0.103913)
(6.40647e-07 -9.74265e-07 0.103913)
(-6.39793e-07 -9.70459e-07 0.103913)
(-6.08091e-07 9.47546e-07 0.103913)
(-6.39207e-07 -9.6963e-07 0.103913)
(4.82323e-05 -4.8269e-05 0.10374)
(-5.0721e-05 5.07555e-05 0.103749)
(-9.41754e-07 -6.08272e-07 0.103913)
(9.43278e-07 -6.08774e-07 0.103913)
(-9.41154e-07 -6.09565e-07 0.103913)
(5.07207e-05 5.07416e-05 0.103749)
(4.82498e-05 4.82378e-05 0.10374)
(-5.07461e-05 -5.07165e-05 0.103749)
(9.74959e-07 6.39541e-07 0.103913)
(-9.79309e-07 6.44805e-07 0.103913)
(9.75666e-07 6.34747e-07 0.103913)
(-9.79099e-07 6.44972e-07 0.103913)
(-4.82452e-05 4.82166e-05 0.10374)
(5.07514e-05 -5.07226e-05 0.103749)
(6.14485e-07 9.49202e-07 0.103913)
(6.40708e-07 -9.74682e-07 0.103913)
(6.12197e-07 9.48958e-07 0.103913)
(6.41345e-07 -9.74492e-07 0.103913)
(-6.39365e-07 -9.70036e-07 0.103913)
(-6.08632e-07 9.47983e-07 0.103913)
(-6.39685e-07 -9.70077e-07 0.103913)
(4.82316e-05 -4.82681e-05 0.10374)
(-5.07187e-05 5.07535e-05 0.103749)
(-9.41493e-07 -6.07766e-07 0.103913)
(9.43554e-07 -6.091e-07 0.103913)
(-9.41379e-07 -6.10111e-07 0.103913)
(5.07191e-05 5.07397e-05 0.103749)
(4.82485e-05 4.82361e-05 0.10374)
(-5.07438e-05 -5.07137e-05 0.103749)
(9.75378e-07 6.40243e-07 0.103913)
(-9.79156e-07 6.45139e-07 0.103913)
(9.75144e-07 6.34793e-07 0.103913)
(-9.78482e-07 6.44491e-07 0.103913)
(-4.8243e-05 4.82147e-05 0.10374)
(5.07494e-05 -5.07205e-05 0.103749)
(6.15514e-07 9.49713e-07 0.103913)
(6.41464e-07 -9.74699e-07 0.103913)
(6.11782e-07 9.48944e-07 0.103913)
(6.41106e-07 -9.74198e-07 0.103913)
(-6.39961e-07 -9.70353e-07 0.103913)
(-6.08557e-07 9.4771e-07 0.103913)
(-6.39515e-07 -9.6968e-07 0.103913)
(4.82299e-05 -4.82662e-05 0.10374)
(-5.07158e-05 5.07504e-05 0.103749)
(-9.4161e-07 -6.08443e-07 0.103913)
(9.43072e-07 -6.08775e-07 0.103913)
(-9.41554e-07 -6.09574e-07 0.103913)
(5.07189e-05 5.07399e-05 0.103749)
(4.82456e-05 4.82336e-05 0.10374)
(9.74485e-07 6.40219e-07 0.103913)
(-9.78462e-07 6.44957e-07 0.103913)
(-4.82404e-05 4.8212e-05 0.10374)
(6.15327e-07 9.49484e-07 0.103913)
(6.40942e-07 -9.74022e-07 0.103913)
(-6.39892e-07 -9.69497e-07 0.103913)
(4.82262e-05 -4.82627e-05 0.10374)
(-9.41532e-07 -6.08147e-07 0.103913)
(-9.16161e-07 -9.05985e-07 0.104041)
(9.11218e-07 -9.10774e-07 0.104041)
(-9.0606e-07 9.12133e-07 0.104041)
(9.04997e-07 9.0858e-07 0.104041)
(9.01012e-08 -1.03669e-05 0.0999049)
(5.71784e-07 7.30759e-06 0.0906218)
(-1.26835e-07 9.97092e-06 0.0998788)
(-1.20558e-06 -6.99315e-06 0.0906554)
(-2.19731e-06 3.3225e-06 0.0778832)
(2.20465e-06 -3.19464e-06 0.0779142)
(-1.04403e-05 8.48839e-08 0.0999037)
(7.37277e-06 5.81157e-07 0.0906223)
(1.00522e-05 -1.08447e-07 0.0998794)
(-7.04397e-06 -1.19983e-06 0.0906551)
(9.10738e-07 -9.12778e-07 0.104041)
(-9.07148e-07 9.12957e-07 0.104041)
(9.05324e-07 9.0956e-07 0.104041)
(-9.21556e-07 -9.09441e-07 0.104041)
(9.12458e-07 -9.13988e-07 0.104041)
(-9.11323e-07 9.17403e-07 0.104041)
(9.08353e-07 9.14032e-07 0.104041)
(1.73272e-05 1.58409e-07 0.10301)
(-1.66334e-05 4.647e-06 0.100447)
(-7.89261e-07 -2.27263e-07 0.103999)
(-6.08751e-07 9.46794e-07 0.103913)
(-1.75084e-05 -1.78157e-07 0.102997)
(1.58022e-05 -5.22384e-06 0.100487)
(-7.85091e-07 -2.26997e-07 0.103999)
(3.18464e-06 -2.10727e-06 0.0778795)
(-3.07737e-06 2.14559e-06 0.0779153)
(1.66503e-07 1.73371e-05 0.10301)
(-2.31138e-07 -7.86046e-07 0.103999)
(4.69379e-06 -1.6697e-05 0.100447)
(9.43165e-07 -6.10534e-07 0.103913)
(-1.80071e-07 -1.75271e-05 0.102997)
(-2.31885e-07 -7.78724e-07 0.103999)
(-5.2782e-06 1.58633e-05 0.100486)
(-4.87177e-06 -5.91047e-06 0.0964267)
(-5.89755e-06 -4.87126e-06 0.0964257)
(5.07012e-05 5.07232e-05 0.103749)
(4.3999e-06 5.74426e-06 0.0964623)
(5.73894e-06 4.39081e-06 0.0964608)
(9.53276e-08 -1.03859e-05 0.0999049)
(5.97628e-07 7.28436e-06 0.0906219)
(-1.25151e-07 9.95409e-06 0.0998788)
(-1.18588e-06 -7.00384e-06 0.0906555)
(-2.18168e-06 3.27918e-06 0.0778832)
(2.21845e-06 -3.22635e-06 0.0779143)
(-1.04557e-05 8.61171e-08 0.0999037)
(7.34373e-06 5.89282e-07 0.0906224)
(1.0038e-05 -1.03936e-07 0.0998794)
(-7.06729e-06 -1.19123e-06 0.0906552)
(9.13036e-07 -9.1544e-07 0.104041)
(-9.11594e-07 9.18154e-07 0.104041)
(9.09149e-07 9.14926e-07 0.104041)
(-9.2265e-07 -9.10262e-07 0.104041)
(9.13921e-07 -9.15856e-07 0.104041)
(-9.10913e-07 9.18356e-07 0.104041)
(9.098e-07 9.1538e-07 0.104041)
(1.73416e-05 1.58362e-07 0.10301)
(-1.66183e-05 4.62784e-06 0.100447)
(-7.80784e-07 -2.26841e-07 0.103999)
(-6.03004e-07 9.44788e-07 0.103913)
(-1.74909e-05 -1.75638e-07 0.102997)
(1.58181e-05 -5.24577e-06 0.100487)
(-7.7659e-07 -2.27545e-07 0.103999)
(3.15424e-06 -2.10632e-06 0.0778795)
(-3.09528e-06 2.14411e-06 0.0779154)
(1.66554e-07 1.73525e-05 0.10301)
(-2.33177e-07 -7.75234e-07 0.103999)
(4.67375e-06 -1.66795e-05 0.100447)
(9.40642e-07 -6.04297e-07 0.103913)
(-1.78716e-07 -1.75076e-05 0.102997)
(-2.33281e-07 -7.69849e-07 0.103999)
(-5.29505e-06 1.5881e-05 0.100486)
(-4.8799e-06 -5.90257e-06 0.0964268)
(-5.89156e-06 -4.87906e-06 0.0964258)
(5.07049e-05 5.07267e-05 0.103749)
(4.39697e-06 5.74914e-06 0.0964624)
(5.74599e-06 4.38858e-06 0.0964609)
(1.00002e-07 -1.04023e-05 0.0999049)
(6.09411e-07 7.28622e-06 0.0906221)
(-1.22357e-07 9.93846e-06 0.0998788)
(-1.19734e-06 -7.01915e-06 0.0906557)
(-2.18445e-06 3.26515e-06 0.0778834)
(2.20742e-06 -3.2251e-06 0.0779146)
(-1.04741e-05 8.99076e-08 0.0999037)
(7.3382e-06 6.0447e-07 0.0906226)
(1.00217e-05 -1.05055e-07 0.0998794)
(-7.07765e-06 -1.18848e-06 0.0906554)
(9.1499e-07 -9.17308e-07 0.104041)
(-9.12366e-07 9.19728e-07 0.104041)
(9.11332e-07 9.16835e-07 0.104041)
(-9.25417e-07 -9.12747e-07 0.104041)
(9.16906e-07 -9.1634e-07 0.104041)
(-9.12924e-07 9.21019e-07 0.104041)
(9.137e-07 9.17459e-07 0.104041)
(1.73597e-05 1.59216e-07 0.10301)
(-1.66091e-05 4.61444e-06 0.100447)
(-7.72949e-07 -2.27871e-07 0.103999)
(-5.94863e-07 9.4142e-07 0.103913)
(-1.74764e-05 -1.73161e-07 0.102997)
(1.58307e-05 -5.2551e-06 0.100487)
(-7.65787e-07 -2.28394e-07 0.103999)
(3.14927e-06 -2.11072e-06 0.0778797)
(-3.10107e-06 2.146e-06 0.0779156)
(1.68154e-07 1.73699e-05 0.10301)
(-2.33171e-07 -7.64636e-07 0.103999)
(4.66636e-06 -1.66682e-05 0.100447)
(9.37319e-07 -5.97467e-07 0.103913)
(-1.77409e-07 -1.7493e-05 0.102997)
(-2.33353e-07 -7.60468e-07 0.103999)
(-5.30483e-06 1.58944e-05 0.100486)
(-4.87915e-06 -5.89944e-06 0.0964269)
(-5.88591e-06 -4.87436e-06 0.0964258)
(5.071e-05 5.07316e-05 0.103749)
(4.39939e-06 5.74892e-06 0.0964625)
(5.74746e-06 4.39619e-06 0.0964609)
(9.60735e-08 -1.04103e-05 0.0999048)
(5.71699e-07 7.26679e-06 0.0906224)
(-1.18627e-07 9.92572e-06 0.0998788)
(-1.20713e-06 -7.02727e-06 0.090656)
(-2.18443e-06 3.27603e-06 0.0778836)
(2.21512e-06 -3.23153e-06 0.0779149)
(-1.04842e-05 8.64846e-08 0.0999037)
(7.32105e-06 5.75854e-07 0.0906228)
(1.00058e-05 -1.06465e-07 0.0998794)
(-7.08271e-06 -1.20447e-06 0.0906557)
(9.189e-07 -9.18998e-07 0.104041)
(-9.16788e-07 9.2441e-07 0.104041)
(9.16857e-07 9.21054e-07 0.104041)
(-9.27109e-07 -9.16496e-07 0.104041)
(9.20686e-07 -9.22575e-07 0.104041)
(-9.18067e-07 9.2258e-07 0.104041)
(9.1382e-07 9.19067e-07 0.104041)
(1.73756e-05 1.58568e-07 0.10301)
(-1.65921e-05 4.61043e-06 0.100447)
(-7.65607e-07 -2.29342e-07 0.103999)
(-5.86405e-07 9.38028e-07 0.103913)
(-1.74596e-05 -1.76167e-07 0.102997)
(1.58508e-05 -5.26688e-06 0.100487)
(-7.5465e-07 -2.31065e-07 0.103999)
(3.14588e-06 -2.09384e-06 0.07788)
(-3.10303e-06 2.151e-06 0.077916)
(1.66245e-07 1.73783e-05 0.10301)
(-2.35053e-07 -7.5723e-07 0.103999)
(4.64416e-06 -1.66513e-05 0.100447)
(9.27825e-07 -5.86613e-07 0.103913)
(-1.78897e-07 -1.74783e-05 0.102997)
(-2.36078e-07 -7.4993e-07 0.103999)
(-5.32798e-06 1.59075e-05 0.100486)
(-4.86909e-06 -5.89785e-06 0.0964269)
(-5.88186e-06 -4.85799e-06 0.0964259)
(5.07188e-05 5.07396e-05 0.103749)
(4.41164e-06 5.75446e-06 0.0964625)
(5.75382e-06 4.40859e-06 0.096461)
(9.41416e-08 -1.04442e-05 0.0999049)
(5.95451e-07 7.24526e-06 0.0906227)
(-1.2423e-07 9.91132e-06 0.0998788)
(-1.21026e-06 -7.05513e-06 0.0906564)
(-2.17475e-06 3.24949e-06 0.0778841)
(2.20696e-06 -3.23664e-06 0.0779155)
(-1.05182e-05 8.9865e-08 0.0999037)
(7.30786e-06 5.88254e-07 0.0906232)
(9.99161e-06 -9.76081e-08 0.0998794)
(-7.10994e-06 -1.20561e-06 0.090656)
(9.17899e-07 -9.24246e-07 0.104041)
(-9.22794e-07 9.27262e-07 0.104041)
(9.14289e-07 9.24968e-07 0.104041)
(-9.34194e-07 -9.2537e-07 0.104041)
(9.33756e-07 -9.35792e-07 0.104041)
(-9.24387e-07 9.31415e-07 0.104041)
(9.24846e-07 9.28564e-07 0.104041)
(1.73921e-05 1.57079e-07 0.10301)
(-1.65753e-05 4.58825e-06 0.100447)
(-7.64888e-07 -2.32765e-07 0.103999)
(-5.88242e-07 9.38719e-07 0.103913)
(-1.74487e-05 -1.76847e-07 0.102997)
(1.58623e-05 -5.27031e-06 0.100487)
(-7.54685e-07 -2.32999e-07 0.103999)
(3.13888e-06 -2.09658e-06 0.0778806)
(-3.12085e-06 2.14524e-06 0.0779166)
(1.65787e-07 1.74219e-05 0.10301)
(-2.37797e-07 -7.49474e-07 0.103999)
(4.64181e-06 -1.6639e-05 0.100447)
(9.27419e-07 -5.75084e-07 0.103913)
(-1.7729e-07 -1.7464e-05 0.102997)
(-2.38919e-07 -7.35632e-07 0.103998)
(-5.32214e-06 1.59334e-05 0.100486)
(-4.85349e-06 -5.89114e-06 0.096427)
(-5.88417e-06 -4.85285e-06 0.096426)
(5.07265e-05 5.07544e-05 0.103749)
(4.42251e-06 5.75819e-06 0.0964626)
(5.74767e-06 4.42191e-06 0.0964611)
(1.00855e-07 -1.04802e-05 0.0999049)
(6.05199e-07 7.25379e-06 0.0906232)
(-1.22141e-07 9.89907e-06 0.0998789)
(-1.23378e-06 -7.05478e-06 0.0906567)
(-2.18014e-06 3.25052e-06 0.0778849)
(2.2163e-06 -3.21587e-06 0.0779162)
(-1.05536e-05 8.73172e-08 0.0999037)
(7.31086e-06 5.9902e-07 0.0906236)
(9.98229e-06 -1.06564e-07 0.0998794)
(-7.10629e-06 -1.23695e-06 0.0906564)
(9.30026e-07 -9.30723e-07 0.104041)
(-9.19446e-07 9.27313e-07 0.10404)
(9.20943e-07 9.23067e-07 0.10404)
(-9.38523e-07 -9.31489e-07 0.10404)
(9.33627e-07 -9.35445e-07 0.10404)
(-9.28489e-07 9.37014e-07 0.10404)
(9.29528e-07 9.3338e-07 0.10404)
(1.74229e-05 1.53543e-07 0.10301)
(-1.65603e-05 4.5909e-06 0.100447)
(-7.40852e-07 -2.37958e-07 0.103998)
(-5.93619e-07 9.48076e-07 0.103913)
(-1.74385e-05 -1.7754e-07 0.102997)
(1.58696e-05 -5.27685e-06 0.100487)
(-7.61035e-07 -2.35202e-07 0.103998)
(3.14447e-06 -2.11595e-06 0.0778813)
(-3.11047e-06 2.16267e-06 0.0779173)
(1.64437e-07 1.74382e-05 0.10301)
(-2.36657e-07 -7.45983e-07 0.103998)
(4.63879e-06 -1.66369e-05 0.100447)
(9.51335e-07 -5.99741e-07 0.103912)
(-1.76434e-07 -1.74529e-05 0.102996)
(-2.345e-07 -7.64796e-07 0.103998)
(-5.33523e-06 1.59471e-05 0.100486)
(-4.86367e-06 -5.88534e-06 0.0964271)
(-5.87287e-06 -4.85439e-06 0.0964261)
(5.07336e-05 5.07549e-05 0.103749)
(4.45164e-06 5.77127e-06 0.0964628)
(5.76983e-06 4.43859e-06 0.0964612)
(1.43299e-07 -1.04494e-05 0.099905)
(6.0218e-07 7.2713e-06 0.0906237)
(-1.15907e-07 9.92775e-06 0.0998788)
(-1.17203e-06 -6.99598e-06 0.0906571)
(-2.14783e-06 3.26566e-06 0.0778858)
(2.1751e-06 -3.15439e-06 0.0779173)
(-1.05167e-05 1.12861e-07 0.0999038)
(7.33154e-06 5.81086e-07 0.0906241)
(1.00161e-05 -1.16708e-07 0.0998794)
(-7.03619e-06 -1.18087e-06 0.0906569)
(9.40914e-07 -9.39628e-07 0.10404)
(-9.23058e-07 9.32868e-07 0.10404)
(9.31871e-07 9.2688e-07 0.10404)
(-8.28031e-07 -8.29197e-07 0.10404)
(8.70598e-07 -8.54662e-07 0.10404)
(-8.22551e-07 8.29972e-07 0.10404)
(8.46103e-07 8.21929e-07 0.10404)
(1.74052e-05 1.49266e-07 0.10301)
(-1.65537e-05 4.57155e-06 0.100447)
(-7.0965e-07 -2.42878e-07 0.103998)
(-5.58874e-07 9.22345e-07 0.103912)
(-1.74654e-05 -1.92453e-07 0.102996)
(1.58431e-05 -5.2712e-06 0.100487)
(-7.19849e-07 -2.41217e-07 0.103998)
(3.1567e-06 -2.12872e-06 0.0778822)
(-3.05018e-06 2.01731e-06 0.0779179)
(1.79697e-07 1.73964e-05 0.10301)
(-2.35339e-07 -7.08574e-07 0.103998)
(4.63881e-06 -1.66433e-05 0.100447)
(9.59648e-07 -6.08595e-07 0.103912)
(-1.72932e-07 -1.74728e-05 0.102996)
(-2.23552e-07 -7.62936e-07 0.103998)
(-5.28444e-06 1.58794e-05 0.100486)
(-4.83792e-06 -5.90845e-06 0.0964273)
(-5.86752e-06 -4.8373e-06 0.0964263)
(5.07462e-05 5.07491e-05 0.103749)
(4.44292e-06 5.68347e-06 0.0964631)
(5.72976e-06 4.39052e-06 0.0964615)
(4.61117e-08 -1.00854e-05 0.0999046)
(6.2796e-07 7.52354e-06 0.0906238)
(-1.34999e-07 1.0192e-05 0.0998788)
(-1.20015e-06 -6.7642e-06 0.0906563)
(-2.18774e-06 3.35094e-06 0.0778852)
(2.19501e-06 -3.18111e-06 0.0779156)
(-1.01642e-05 5.00421e-08 0.0999035)
(7.56932e-06 6.35199e-07 0.0906242)
(1.02757e-05 -1.26956e-07 0.0998794)
(-6.81659e-06 -1.17801e-06 0.0906561)
(8.28834e-07 -8.24213e-07 0.104041)
(-8.10104e-07 8.15942e-07 0.104041)
(8.16363e-07 8.11194e-07 0.104041)
(-9.12096e-07 -8.86864e-07 0.104041)
(8.5546e-07 -8.72208e-07 0.104041)
(-8.97216e-07 9.00476e-07 0.104041)
(8.71652e-07 9.01169e-07 0.104041)
(1.69869e-05 1.65422e-07 0.10301)
(-1.67701e-05 4.67097e-06 0.100447)
(-9.49629e-07 -2.05355e-07 0.103998)
(-7.45813e-07 1.0243e-06 0.103913)
(-1.77476e-05 -1.781e-07 0.102996)
(1.55803e-05 -5.13093e-06 0.100487)
(-9.51792e-07 -1.95751e-07 0.103999)
(3.23725e-06 -2.07727e-06 0.0778811)
(-3.03028e-06 2.20245e-06 0.0779163)
(1.74044e-07 1.70245e-05 0.10301)
(-2.00183e-07 -9.54006e-07 0.103998)
(4.75385e-06 -1.68867e-05 0.100447)
(9.94637e-07 -7.21101e-07 0.103913)
(-1.63217e-07 -1.78326e-05 0.102996)
(-2.09702e-07 -9.21569e-07 0.103999)
(-5.1804e-06 1.5645e-05 0.100486)
(-5.03594e-06 -5.95828e-06 0.0964273)
(-5.94898e-06 -5.03861e-06 0.0964263)
(5.05907e-05 5.06255e-05 0.103749)
(4.191e-06 5.76317e-06 0.0964625)
(5.704e-06 4.2386e-06 0.0964609)
(7.64109e-08 -1.03334e-05 0.0999046)
(6.00997e-07 7.44233e-06 0.0906226)
(-1.58601e-07 1.0084e-05 0.0998785)
(-1.20683e-06 -6.975e-06 0.090655)
(-2.18876e-06 3.30335e-06 0.0778836)
(2.21797e-06 -3.1967e-06 0.0779146)
(-1.04119e-05 8.60651e-08 0.0999035)
(7.46763e-06 6.00291e-07 0.0906229)
(1.01618e-05 -1.16727e-07 0.099879)
(-7.0025e-06 -1.19936e-06 0.090655)
(8.90373e-07 -9.03387e-07 0.104041)
(-9.21208e-07 9.24467e-07 0.104041)
(8.99271e-07 9.25281e-07 0.104041)
(-9.39903e-07 -9.26665e-07 0.104041)
(9.3287e-07 -9.32302e-07 0.104041)
(-9.28399e-07 9.33361e-07 0.104041)
(9.24857e-07 9.29044e-07 0.104041)
(1.73053e-05 1.69527e-07 0.10301)
(-1.67784e-05 4.75668e-06 0.100447)
(-8.07128e-07 -2.14062e-07 0.103999)
(-5.91669e-07 9.2189e-07 0.103913)
(-1.76341e-05 -1.50232e-07 0.102997)
(1.57457e-05 -5.17473e-06 0.100487)
(-7.73975e-07 -2.25319e-07 0.103999)
(3.1855e-06 -2.08764e-06 0.0778798)
(-3.07231e-06 2.14864e-06 0.0779155)
(1.58454e-07 1.73363e-05 0.10301)
(-2.40725e-07 -7.71189e-07 0.103999)
(4.75452e-06 -1.67992e-05 0.100447)
(9.09191e-07 -5.82726e-07 0.103913)
(-1.83457e-07 -1.75999e-05 0.102997)
(-2.42989e-07 -7.56788e-07 0.103999)
(-5.25535e-06 1.58387e-05 0.100486)
(-4.96556e-06 -5.88748e-06 0.0964265)
(-5.90703e-06 -4.93155e-06 0.0964255)
(5.07511e-05 5.07834e-05 0.103749)
(4.37504e-06 5.74047e-06 0.096462)
(5.73416e-06 4.37034e-06 0.0964605)
(8.24834e-08 -1.03703e-05 0.0999048)
(6.13562e-07 7.35836e-06 0.0906226)
(-1.28706e-07 9.96517e-06 0.0998787)
(-1.27831e-06 -7.06678e-06 0.0906546)
(-2.17989e-06 3.30195e-06 0.0778833)
(2.20412e-06 -3.13908e-06 0.0779144)
(-1.04446e-05 8.58261e-08 0.0999037)
(7.37284e-06 6.04048e-07 0.0906227)
(1.00495e-05 -1.07337e-07 0.0998793)
(-7.03498e-06 -1.2038e-06 0.0906547)
(9.30582e-07 -9.26752e-07 0.104041)
(-9.21792e-07 9.2779e-07 0.104041)
(9.19165e-07 9.21149e-07 0.104041)
(-9.18471e-07 -9.09202e-07 0.104041)
(9.19849e-07 -9.12537e-07 0.104041)