/*--------------------------------*- C++ -*----------------------------------*\
| =========                 |                                                 |
| \\      /  F ield         | OpenFOAM: The Open Source CFD Toolbox           |
|  \\    /   O peration     | Version:  2206                                  |
|   \\  /    A nd           | Website:  www.openfoam.com                      |
|    \\/     M anipulation  |                                                 |
\*---------------------------------------------------------------------------*/
FoamFile
{
    version     2.0;
    format      ascii;
    arch        "LSB;label=32;scalar=64";
    class       volScalarField;
    location    "10.5";
    object      epsilon;
}
// * * * * * * * * * * * * * * * * * * * * * * * * * * * * * * * * * * * * * //

dimensions      [0 2 -3 0 0 0 0];

internalField   nonuniform List<scalar> 
28688
(
4.95321e-07
4.97141e-07
4.97142e-07
4.9964e-07
4.43479e-07
4.52501e-07
4.52504e-07
4.63592e-07
4.14627e-07
4.24377e-07
4.2438e-07
4.39877e-07
4.11726e-07
4.19584e-07
4.19588e-07
4.31842e-07
4.11661e-07
4.19427e-07
4.1943e-07
4.31568e-07
4.11661e-07
4.19427e-07
4.19429e-07
4.31577e-07
4.11661e-07
4.19427e-07
4.19429e-07
4.31577e-07
4.11661e-07
4.19427e-07
4.19429e-07
4.31576e-07
4.11661e-07
4.19427e-07
4.19429e-07
4.31576e-07
4.11661e-07
4.19427e-07
4.19429e-07
4.31577e-07
4.11661e-07
4.19427e-07
4.19429e-07
4.31577e-07
4.11661e-07
4.19426e-07
4.19429e-07
4.31577e-07
5.0643e-07
5.05671e-07
5.0567e-07
5.0643e-07
5.0567e-07
5.0567e-07
5.09564e-07
5.09563e-07
5.09563e-07
5.09563e-07
5.05672e-07
5.05671e-07
5.0643e-07
5.05672e-07
5.0567e-07
5.0643e-07
4.9964e-07
4.67267e-07
4.97143e-07
4.97147e-07
4.63587e-07
4.63595e-07
4.99641e-07
4.67264e-07
4.97147e-07
4.97148e-07
4.63592e-07
4.63597e-07
4.97144e-07
4.63585e-07
4.63588e-07
4.9964e-07
4.6727e-07
4.97146e-07
4.63586e-07
4.63592e-07
4.6727e-07
4.63592e-07
4.41724e-07
4.52508e-07
4.52517e-07
4.28544e-07
4.28551e-07
4.63591e-07
4.41719e-07
4.52513e-07
4.52521e-07
4.28544e-07
4.28555e-07
4.5251e-07
4.28535e-07
4.28546e-07
4.63595e-07
4.41727e-07
4.52514e-07
4.28539e-07
4.28545e-07
4.41725e-07
4.39877e-07
4.31816e-07
4.24386e-07
4.24391e-07
4.19865e-07
4.19866e-07
4.39873e-07
4.31812e-07
4.24384e-07
4.24394e-07
4.19861e-07
4.1987e-07
4.24388e-07
4.19859e-07
4.19866e-07
4.39881e-07
4.31819e-07
4.24385e-07
4.19862e-07
4.19862e-07
4.31819e-07
4.31841e-07
4.31459e-07
4.19592e-07
4.19593e-07
4.19435e-07
4.19436e-07
4.31837e-07
4.31454e-07
4.19588e-07
4.19597e-07
4.19431e-07
4.1944e-07
4.19593e-07
4.19429e-07
4.19436e-07
4.31844e-07
4.31462e-07
4.19588e-07
4.19432e-07
4.19431e-07
4.3146e-07
4.3157e-07
4.31469e-07
4.19436e-07
4.19437e-07
4.19433e-07
4.19434e-07
4.31566e-07
4.31464e-07
4.19432e-07
4.19441e-07
4.19429e-07
4.19439e-07
4.19437e-07
4.19427e-07
4.19434e-07
4.31573e-07
4.31472e-07
4.19432e-07
4.1943e-07
4.19429e-07
4.31468e-07
4.3158e-07
4.31466e-07
4.19435e-07
4.19437e-07
4.19433e-07
4.19434e-07
4.31576e-07
4.31463e-07
4.19432e-07
4.19441e-07
4.19429e-07
4.19438e-07
4.19437e-07
4.19427e-07
4.19434e-07
4.31584e-07
4.31469e-07
4.19432e-07
4.1943e-07
4.19429e-07
4.31467e-07
4.31579e-07
4.31466e-07
4.19435e-07
4.19437e-07
4.19433e-07
4.19434e-07
4.31576e-07
4.31463e-07
4.19432e-07
4.19441e-07
4.19429e-07
4.19438e-07
4.19437e-07
4.19427e-07
4.19434e-07
4.31582e-07
4.31469e-07
4.19432e-07
4.19429e-07
4.19429e-07
4.31467e-07
4.31578e-07
4.31465e-07
4.19435e-07
4.19437e-07
4.19433e-07
4.19434e-07
4.31576e-07
4.31463e-07
4.19432e-07
4.19441e-07
4.19429e-07
4.19438e-07
4.19437e-07
4.19427e-07
4.19434e-07
4.31582e-07
4.31469e-07
4.19432e-07
4.19429e-07
4.19429e-07
4.31467e-07
4.31578e-07
4.31465e-07
4.19436e-07
4.19437e-07
4.19433e-07
4.19434e-07
4.31576e-07
4.31463e-07
4.19432e-07
4.19441e-07
4.19429e-07
4.19438e-07
4.19437e-07
4.19427e-07
4.19434e-07
4.31582e-07
4.31469e-07
4.19432e-07
4.19429e-07
4.19429e-07
4.31467e-07
4.31578e-07
4.31465e-07
4.19436e-07
4.19437e-07
4.19433e-07
4.19434e-07
4.31576e-07
4.31463e-07
4.19432e-07
4.19441e-07
4.19429e-07
4.19438e-07
4.19437e-07
4.19427e-07
4.19434e-07
4.31582e-07
4.31469e-07
4.19432e-07
4.19429e-07
4.19429e-07
4.31468e-07
4.31577e-07
4.31465e-07
4.19436e-07
4.19437e-07
4.19433e-07
4.19434e-07
4.31576e-07
4.31462e-07
4.19432e-07
4.19441e-07
4.19429e-07
4.19438e-07
4.19437e-07
4.19427e-07
4.19434e-07
4.31582e-07
4.31469e-07
4.19432e-07
4.1943e-07
4.19429e-07
4.31467e-07
4.31577e-07
4.31466e-07
4.19436e-07
4.19437e-07
4.19437e-07
4.31575e-07
4.19432e-07
4.19441e-07
4.19433e-07
4.19442e-07
4.19437e-07
4.19438e-07
4.31582e-07
4.31469e-07
4.19432e-07
4.19434e-07
4.19433e-07
4.31468e-07
5.35732e-07
5.35636e-07
5.35722e-07
5.35722e-07
5.34574e-07
5.35467e-07
5.33635e-07
5.35715e-07
5.34574e-07
5.35467e-07
5.35715e-07
5.33634e-07
5.35234e-07
5.35987e-07
5.35987e-07
1.11031e-06
3.88273e-06
9.33014e-07
4.60688e-06
1.26078e-05
1.65921e-05
1.1104e-06
3.88294e-06
9.33071e-07
4.60729e-06
4.95322e-07
4.95323e-07
4.95323e-07
4.56864e-07
4.56863e-07
4.56863e-07
4.56863e-07
5.43803e-07
1.22012e-06
4.95342e-07
4.85757e-07
5.25032e-07
1.21099e-06
4.82801e-07
1.26094e-05
1.6594e-05
5.43821e-07
4.95342e-07
1.22009e-06
4.85757e-07
5.25015e-07
4.82801e-07
1.211e-06
2.52119e-06
2.52189e-06
4.84168e-07
2.37773e-06
2.37815e-06
1.45681e-06
5.59891e-06
1.32069e-06
6.1347e-06
2.12885e-05
2.31358e-05
1.45695e-06
5.59954e-06
1.32091e-06
6.13539e-06
4.4348e-07
4.43481e-07
4.43481e-07
4.17827e-07
4.17827e-07
4.17828e-07
4.17828e-07
5.90837e-07
1.19716e-06
4.44498e-07
4.42628e-07
5.71777e-07
1.20253e-06
4.3342e-07
2.12918e-05
2.31385e-05
5.90853e-07
4.44499e-07
1.19717e-06
4.4263e-07
5.7179e-07
4.33422e-07
1.20262e-06
2.31706e-06
2.31758e-06
4.52783e-07
2.35144e-06
2.35191e-06
1.37276e-06
6.77854e-06
1.40864e-06
6.94164e-06
2.39192e-05
2.39554e-05
1.3728e-06
6.77935e-06
1.40857e-06
6.94248e-06
4.14628e-07
4.14629e-07
4.14628e-07
4.1186e-07
4.11859e-07
4.1186e-07
4.11859e-07
5.73085e-07
1.15506e-06
4.16549e-07
4.21852e-07
5.82624e-07
1.13713e-06
4.14856e-07
2.39232e-05
2.39586e-05
5.73092e-07
4.1655e-07
1.15506e-06
4.21855e-07
5.82626e-07
4.14857e-07
1.13724e-06
2.24043e-06
2.24084e-06
4.342e-07
2.25344e-06
2.2539e-06
1.36634e-06
6.98494e-06
1.36689e-06
6.9846e-06
2.39715e-05
2.39706e-05
1.36622e-06
6.98603e-06
1.36674e-06
6.98575e-06
4.11728e-07
4.11729e-07
4.11728e-07
4.11662e-07
4.11662e-07
4.11663e-07
4.11662e-07
5.69471e-07
1.13341e-06
4.13539e-07
4.19481e-07
5.69837e-07
1.13264e-06
4.13491e-07
2.39739e-05
2.39729e-05
5.69467e-07
4.1354e-07
1.13336e-06
4.19484e-07
5.69836e-07
4.13491e-07
1.13261e-06
2.26972e-06
2.27019e-06
4.31506e-07
2.26998e-06
2.27046e-06
1.36614e-06
6.9846e-06
1.36648e-06
6.98422e-06
2.3971e-05
2.39704e-05
1.36601e-06
6.98573e-06
1.36631e-06
6.98528e-06
4.11665e-07
4.11666e-07
4.11665e-07
4.11661e-07
4.11662e-07
4.11663e-07
4.11662e-07
5.6939e-07
1.13284e-06
4.13467e-07
4.19429e-07
5.69486e-07
1.13243e-06
4.1347e-07
2.39732e-05
2.39722e-05
5.69383e-07
4.13467e-07
1.13279e-06
4.19432e-07
5.6948e-07
4.1347e-07
1.13239e-06
2.27033e-06
2.2708e-06
4.31469e-07
2.27001e-06
2.27048e-06
1.36613e-06
6.98455e-06
1.36644e-06
6.98422e-06
2.39711e-05
2.39703e-05
1.366e-06
6.98557e-06
1.36627e-06
6.98521e-06
4.11665e-07
4.11666e-07
4.11665e-07
4.11661e-07
4.11662e-07
4.11663e-07
4.11662e-07
5.69389e-07
1.13281e-06
4.13467e-07
4.19429e-07
5.6948e-07
1.13241e-06
4.13469e-07
2.3973e-05
2.39722e-05
5.69383e-07
4.13467e-07
1.13275e-06
4.19432e-07
5.6947e-07
4.1347e-07
1.13238e-06
2.27031e-06
2.27078e-06
4.31469e-07
2.27e-06
2.27047e-06
1.36613e-06
6.98454e-06
1.36644e-06
6.9842e-06
2.39715e-05
2.39708e-05
1.366e-06
6.98556e-06
1.36627e-06
6.98521e-06
4.11665e-07
4.11666e-07
4.11665e-07
4.11661e-07
4.11662e-07
4.11663e-07
4.11662e-07
5.6939e-07
1.1328e-06
4.13466e-07
4.19429e-07
5.69479e-07
1.13241e-06
4.13469e-07
2.3973e-05
2.39722e-05
5.69381e-07
4.13467e-07
1.13274e-06
4.19432e-07
5.6947e-07
4.1347e-07
1.13238e-06
2.27031e-06
2.27078e-06
4.31469e-07
2.27e-06
2.27047e-06
1.36613e-06
6.98454e-06
1.36644e-06
6.9842e-06
2.39714e-05
2.39706e-05
1.366e-06
6.98556e-06
1.36627e-06
6.98521e-06
4.11665e-07
4.11666e-07
4.11665e-07
4.11661e-07
4.11662e-07
4.11663e-07
4.11662e-07
5.6939e-07
1.1328e-06
4.13467e-07
4.19429e-07
5.69478e-07
1.13241e-06
4.13469e-07
2.3973e-05
2.39722e-05
5.69382e-07
4.13467e-07
1.13274e-06
4.19432e-07
5.6947e-07
4.1347e-07
1.13238e-06
2.27031e-06
2.27077e-06
4.31469e-07
2.27e-06
2.27047e-06
1.36613e-06
6.98453e-06
1.36644e-06
6.9842e-06
2.39713e-05
2.39706e-05
1.366e-06
6.98556e-06
1.36627e-06
6.98522e-06
4.11665e-07
4.11666e-07
4.11665e-07
4.11661e-07
4.11662e-07
4.11663e-07
4.11662e-07
5.6939e-07
1.1328e-06
4.13466e-07
4.19429e-07
5.69478e-07
1.13241e-06
4.13469e-07
2.3973e-05
2.39722e-05
5.69382e-07
4.13467e-07
1.13274e-06
4.19432e-07
5.69471e-07
4.1347e-07
1.13238e-06
2.27031e-06
2.27077e-06
4.31469e-07
2.27e-06
2.27047e-06
1.36613e-06
6.98445e-06
1.36644e-06
6.98404e-06
2.39713e-05
2.39706e-05
1.366e-06
6.98548e-06
1.36627e-06
6.9851e-06
4.11665e-07
4.11666e-07
4.11665e-07
4.11661e-07
4.11662e-07
4.11663e-07
4.11662e-07
5.6939e-07
1.1328e-06
4.13467e-07
4.19429e-07
5.69478e-07
1.13241e-06
4.13469e-07
2.3973e-05
2.39722e-05
5.69381e-07
4.13467e-07
1.13275e-06
4.19432e-07
5.6947e-07
4.1347e-07
1.13238e-06
2.27031e-06
2.27077e-06
4.31469e-07
2.27e-06
2.27047e-06
1.36614e-06
6.98435e-06
1.36644e-06
6.98404e-06
2.39713e-05
2.39706e-05
1.366e-06
6.98543e-06
1.36627e-06
6.98507e-06
4.11665e-07
4.11666e-07
4.11665e-07
4.11661e-07
4.11662e-07
4.11663e-07
4.11662e-07
5.6939e-07
1.1328e-06
4.13467e-07
4.19429e-07
5.69478e-07
1.13241e-06
4.13469e-07
2.3973e-05
2.39722e-05
5.69381e-07
4.13467e-07
1.13275e-06
4.19432e-07
5.6947e-07
4.1347e-07
1.13238e-06
2.27031e-06
2.27078e-06
4.31469e-07
2.27e-06
2.27047e-06
1.36613e-06
6.98441e-06
1.36644e-06
6.98408e-06
2.39713e-05
2.39706e-05
1.366e-06
6.98541e-06
1.36627e-06
6.98506e-06
4.11665e-07
4.11666e-07
4.11665e-07
4.11667e-07
4.11672e-07
4.11667e-07
4.11667e-07
5.6939e-07
1.1328e-06
4.13467e-07
4.19428e-07
5.69478e-07
1.13241e-06
4.1347e-07
2.3973e-05
2.39722e-05
5.69381e-07
4.13467e-07
1.13275e-06
4.19432e-07
5.6947e-07
4.1347e-07
1.13238e-06
2.27031e-06
2.27078e-06
4.31469e-07
2.27e-06
2.27047e-06
5.35234e-07
5.3599e-07
5.35988e-07
1.09158e-05
5.81346e-07
1.09171e-05
5.81338e-07
5.28274e-07
2.43191e-06
2.43284e-06
5.40833e-07
5.4083e-07
5.34574e-07
5.35467e-07
5.33635e-07
5.35715e-07
5.34574e-07
5.35467e-07
5.33634e-07
5.35715e-07
5.30398e-07
3.47213e-06
5.68207e-07
8.2316e-07
5.30397e-07
3.47216e-06
5.68206e-07
8.23129e-07
5.29521e-07
5.28498e-07
1.16684e-06
5.09528e-07
5.32664e-07
5.28199e-07
5.19248e-07
5.29521e-07
5.28498e-07
1.16698e-06
5.09528e-07
5.32664e-07
5.28199e-07
5.19251e-07
5.35234e-07
5.35989e-07
5.35988e-07
1.0916e-05
5.81325e-07
5.28274e-07
2.43237e-06
2.43253e-06
5.40834e-07
5.40829e-07
1.09167e-05
5.81319e-07
5.34574e-07
5.35467e-07
5.33635e-07
5.35715e-07
5.34574e-07
5.35467e-07
5.35715e-07
5.33635e-07
5.30397e-07
3.47247e-06
5.68204e-07
8.23281e-07
5.29521e-07
5.28498e-07
1.1671e-06
5.09528e-07
5.32663e-07
5.28199e-07
5.19256e-07
5.30397e-07
3.47256e-06
5.68202e-07
8.23187e-07
5.29521e-07
5.28498e-07
5.09528e-07
1.16701e-06
5.28199e-07
5.32663e-07
5.19251e-07
5.35732e-07
5.35636e-07
5.35722e-07
5.35722e-07
5.35732e-07
5.35636e-07
5.35722e-07
5.35722e-07
5.35732e-07
5.35636e-07
5.35722e-07
5.35722e-07
5.28253e-07
5.28297e-07
5.09619e-07
5.09619e-07
5.28232e-07
5.28232e-07
5.09667e-07
5.28254e-07
5.28297e-07
5.09618e-07
5.09618e-07
5.28232e-07
5.28232e-07
5.09668e-07
5.28254e-07
5.28297e-07
5.09618e-07
5.09618e-07
5.28232e-07
5.28232e-07
5.09669e-07
5.28254e-07
5.28297e-07
5.09618e-07
5.09618e-07
5.28232e-07
5.28232e-07
5.09669e-07
5.34574e-07
5.35467e-07
5.35715e-07
5.33635e-07
5.29521e-07
5.28498e-07
1.16705e-06
5.09529e-07
5.32663e-07
5.28199e-07
5.19254e-07
5.30398e-07
3.47236e-06
5.68198e-07
8.2321e-07
5.29522e-07
5.28498e-07
5.09528e-07
1.16692e-06
5.28199e-07
5.32662e-07
5.1925e-07
5.30398e-07
3.47249e-06
5.68202e-07
8.23155e-07
5.35234e-07
5.35987e-07
5.35986e-07
1.09172e-05
5.81336e-07
5.28274e-07
2.43266e-06
2.4325e-06
5.40829e-07
5.40827e-07
1.09171e-05
5.81314e-07
5.34574e-07
5.35467e-07
5.35715e-07
5.33635e-07
5.29521e-07
5.28497e-07
5.09529e-07
1.16698e-06
5.28199e-07
5.32662e-07
5.19254e-07
5.29521e-07
5.28498e-07
5.09528e-07
1.1671e-06
5.28199e-07
5.32663e-07
5.19256e-07
5.30397e-07
3.47252e-06
5.68196e-07
8.23266e-07
5.30397e-07
3.47253e-06
5.68207e-07
8.23352e-07
5.28274e-07
2.4323e-06
2.43297e-06
5.40828e-07
5.40829e-07
1.0917e-05
5.81318e-07
1.09172e-05
5.81332e-07
1.26076e-05
1.6591e-05
1.26091e-05
1.65938e-05
2.52113e-06
2.52188e-06
4.84167e-07
2.37749e-06
2.37819e-06
2.04921e-05
1.77054e-05
2.04957e-05
1.77083e-05
4.79357e-07
2.30121e-06
2.30188e-06
2.34524e-06
2.34597e-06
1.11016e-06
3.88265e-06
9.33124e-07
4.60681e-06
5.43792e-07
1.21999e-06
4.95343e-07
4.85759e-07
5.25043e-07
1.21095e-06
4.82801e-07
5.43787e-07
1.22017e-06
4.95343e-07
4.85765e-07
5.25051e-07
1.21117e-06
4.82801e-07
1.16372e-06
5.40266e-06
4.81412e-06
1.27099e-06
1.16384e-06
5.40269e-06
4.81412e-06
1.27098e-06
5.51184e-07
4.74845e-07
1.19309e-06
4.57406e-07
1.20445e-06
4.70486e-07
5.6503e-07
5.51187e-07
4.74853e-07
1.19327e-06
4.57406e-07
1.20463e-06
4.70486e-07
5.65024e-07
2.52162e-06
2.52136e-06
4.84166e-07
2.37807e-06
2.37765e-06
1.26083e-05
1.65919e-05
2.04937e-05
1.77069e-05
4.79357e-07
2.30173e-06
2.30147e-06
2.34578e-06
2.3455e-06
2.04929e-05
1.77067e-05
5.4382e-07
1.22026e-06
4.95343e-07
4.85763e-07
5.25049e-07
1.21119e-06
4.82801e-07
1.11037e-06
3.88324e-06
9.32911e-07
4.60755e-06
5.43817e-07
4.95343e-07
1.22022e-06
4.85766e-07
5.25038e-07
4.82801e-07
1.21121e-06
1.16378e-06
5.40317e-06
4.81441e-06
1.27102e-06
5.5119e-07
4.74851e-07
1.19328e-06
4.57406e-07
1.20467e-06
4.70486e-07
5.65038e-07
1.16376e-06
5.40359e-06
4.81498e-06
1.27102e-06
5.51189e-07
4.74854e-07
4.57407e-07
1.19333e-06
4.70486e-07
1.20469e-06
5.65045e-07
1.1103e-06
3.88271e-06
9.32987e-07
4.60706e-06
5.43805e-07
4.95343e-07
1.22008e-06
4.85759e-07
5.25021e-07
4.82801e-07
1.21105e-06
1.11035e-06
3.88313e-06
9.32823e-07
4.60731e-06
5.51183e-07
4.74842e-07
1.19308e-06
4.57407e-07
1.20449e-06
4.70485e-07
5.65029e-07
1.16378e-06
5.4027e-06
4.81395e-06
1.27103e-06
5.51179e-07
4.74846e-07
4.57406e-07
1.19314e-06
4.70486e-07
1.20446e-06
5.6503e-07
1.16366e-06
5.40314e-06
4.8147e-06
1.27105e-06
2.5218e-06
2.5213e-06
4.84169e-07
2.3782e-06
2.37744e-06
1.26091e-05
1.6593e-05
2.04962e-05
1.77093e-05
4.79358e-07
2.30192e-06
2.30139e-06
2.34591e-06
2.34542e-06
2.04946e-05
1.77076e-05
5.43828e-07
4.95343e-07
1.22025e-06
4.85764e-07
5.25028e-07
4.82801e-07
1.21118e-06
1.11057e-06
3.8831e-06
9.32776e-07
4.60739e-06
1.11062e-06
3.883e-06
9.32894e-07
4.6073e-06
5.51185e-07
4.74843e-07
4.57408e-07
1.19314e-06
4.70486e-07
1.20451e-06
5.65038e-07
5.51184e-07
4.74851e-07
4.57406e-07
1.19326e-06
4.70486e-07
1.20465e-06
5.65047e-07
1.16355e-06
5.40339e-06
4.81469e-06
1.27104e-06
1.16357e-06
5.40338e-06
4.81444e-06
1.27108e-06
1.26087e-05
1.65929e-05
1.26092e-05
1.65937e-05
4.79358e-07
2.30131e-06
2.30182e-06
2.3452e-06
2.346e-06
2.04939e-05
1.7707e-05
2.04956e-05
1.77083e-05
2.12868e-05
2.31338e-05
2.12905e-05
2.31384e-05
2.31688e-06
2.3176e-06
4.52778e-07
2.35116e-06
2.35175e-06
2.38759e-05
2.34735e-05
2.38801e-05
2.34766e-05
4.50118e-07
2.24797e-06
2.24867e-06
2.3451e-06
2.34574e-06
1.4568e-06
5.59892e-06
1.32067e-06
6.13495e-06
5.90834e-07
1.19714e-06
4.44501e-07
4.42633e-07
5.71778e-07
1.20255e-06
4.33419e-07
5.9083e-07
1.1973e-06
4.44501e-07
4.42642e-07
5.71773e-07
1.20273e-06
4.33419e-07
1.46385e-06
6.68046e-06
6.28991e-06
1.4276e-06
1.46384e-06
6.68063e-06
6.28981e-06
1.4276e-06
5.91628e-07
4.34603e-07
1.16189e-06
4.19746e-07
1.20069e-06
4.25166e-07
5.86133e-07
5.91624e-07
4.34612e-07
1.16208e-06
4.19747e-07
1.20086e-06
4.25166e-07
5.86135e-07
2.31736e-06
2.31707e-06
4.52775e-07
2.35161e-06
2.35126e-06
2.12881e-05
2.31345e-05
2.38778e-05
2.34749e-05
4.50115e-07
2.24847e-06
2.248e-06
2.34554e-06
2.34541e-06
2.38763e-05
2.34747e-05
5.90855e-07
1.19735e-06
4.44501e-07
4.42636e-07
5.71796e-07
1.20274e-06
4.3342e-07
1.45694e-06
5.59997e-06
1.32091e-06
6.13608e-06
5.90852e-07
4.44503e-07
1.19738e-06
4.42646e-07
5.71801e-07
4.33421e-07
1.2028e-06
1.46388e-06
6.68107e-06
6.29062e-06
1.42783e-06
5.91648e-07
4.34606e-07
1.16207e-06
4.19747e-07
1.20086e-06
4.25166e-07
5.86153e-07
1.46386e-06
6.68176e-06
6.2911e-06
1.4278e-06
5.91653e-07
4.34616e-07
4.19748e-07
1.16207e-06
4.25168e-07
1.20096e-06
5.8616e-07
1.45688e-06
5.59894e-06
1.32072e-06
6.13486e-06
5.90839e-07
4.44501e-07
1.19719e-06
4.42635e-07
5.7178e-07
4.33419e-07
1.20266e-06
1.45678e-06
5.59947e-06
1.32077e-06
6.13552e-06
5.91628e-07
4.34595e-07
1.16184e-06
4.19745e-07
1.20068e-06
4.25163e-07
5.86142e-07
1.46381e-06
6.68056e-06
6.28984e-06
1.42769e-06
5.9163e-07
4.34606e-07
4.19746e-07
1.16201e-06
4.25166e-07
1.20078e-06
5.8614e-07
1.46382e-06
6.68122e-06
6.29048e-06
1.42767e-06
2.31766e-06
2.31685e-06
4.52782e-07
2.35186e-06
2.35126e-06
2.12888e-05
2.31369e-05
2.38805e-05
2.34791e-05
4.50121e-07
2.24862e-06
2.24819e-06
2.34604e-06
2.34526e-06
2.38785e-05
2.34753e-05
5.90849e-07
4.44501e-07
1.19729e-06
4.42638e-07
5.71786e-07
4.3342e-07
1.20277e-06
1.45693e-06
5.59956e-06
1.32092e-06
6.1357e-06
1.45685e-06
5.59942e-06
1.32087e-06
6.13565e-06
5.91643e-07
4.34598e-07
4.19746e-07
1.16196e-06
4.25165e-07
1.20075e-06
5.86154e-07
5.91642e-07
4.34605e-07
4.19747e-07
1.16211e-06
4.25166e-07
1.20088e-06
5.86157e-07
1.46385e-06
6.68126e-06
6.29053e-06
1.42779e-06
1.4639e-06
6.6814e-06
6.29054e-06
1.42784e-06
2.12887e-05
2.3137e-05
2.12904e-05
2.31386e-05
4.50119e-07
2.2483e-06
2.24874e-06
2.34536e-06
2.3458e-06
2.38787e-05
2.34756e-05
2.38802e-05
2.34771e-05
2.39184e-05
2.39541e-05
2.39209e-05
2.39573e-05
2.24041e-06
2.24075e-06
4.34199e-07
2.25323e-06
2.25387e-06
2.39687e-05
2.39637e-05
2.39729e-05
2.39663e-05
4.33575e-07
2.26827e-06
2.26865e-06
2.26031e-06
2.26069e-06
1.37276e-06
6.77861e-06
1.4086e-06
6.94186e-06
5.73081e-07
1.15508e-06
4.16551e-07
4.21858e-07
5.82612e-07
1.13718e-06
4.14855e-07
5.73081e-07
1.15508e-06
4.16551e-07
4.21861e-07
5.82615e-07
1.13728e-06
4.14855e-07
1.37055e-06
6.98343e-06
6.96355e-06
1.36673e-06
1.37055e-06
6.98386e-06
6.96372e-06
1.36673e-06
5.72095e-07
4.20506e-07
1.13326e-06
4.13682e-07
1.13644e-06
4.1404e-07
5.69845e-07
5.72096e-07
4.20508e-07
1.13326e-06
4.13682e-07
1.13648e-06
4.1404e-07
5.69844e-07
2.24064e-06
2.24042e-06
4.34194e-07
2.25376e-06
2.25319e-06
2.39186e-05
2.39541e-05
2.39705e-05
2.39643e-05
4.33572e-07
2.26855e-06
2.26825e-06
2.2606e-06
2.26032e-06
2.39686e-05
2.39635e-05
5.73102e-07
1.15515e-06
4.16552e-07
4.21855e-07
5.82636e-07
1.13731e-06
4.14856e-07
1.37279e-06
6.77985e-06
1.4085e-06
6.94292e-06
5.731e-07
4.16553e-07
1.15528e-06
4.21864e-07
5.82627e-07
4.14856e-07
1.13737e-06
1.3704e-06
6.98456e-06
6.96453e-06
1.36661e-06
5.72107e-07
4.20502e-07
1.13337e-06
4.13683e-07
1.13657e-06
4.1404e-07
5.69851e-07
1.37041e-06
6.98479e-06
6.96481e-06
1.36663e-06
5.72107e-07
4.20511e-07
4.13683e-07
1.13347e-06
4.14041e-07
1.13664e-06
5.69854e-07
1.37279e-06
6.77868e-06
1.40868e-06
6.94182e-06
5.73087e-07
4.16551e-07
1.15502e-06
4.21859e-07
5.82611e-07
4.14855e-07
1.13722e-06
1.37279e-06
6.77917e-06
1.40866e-06
6.94235e-06
5.72093e-07
4.20497e-07
1.13324e-06
4.13683e-07
1.1364e-06
4.14038e-07
5.69845e-07
1.37057e-06
6.98372e-06
6.96372e-06
1.36674e-06
5.72094e-07
4.20507e-07
4.13683e-07
1.13321e-06
4.1404e-07
1.13643e-06
5.6985e-07
1.37058e-06
6.98434e-06
6.9642e-06
1.36675e-06
2.24108e-06
2.24034e-06
4.34203e-07
2.25394e-06
2.25343e-06
2.39195e-05
2.39561e-05
2.39727e-05
2.39678e-05
4.33579e-07
2.26892e-06
2.26825e-06
2.26103e-06
2.26028e-06
2.39716e-05
2.39652e-05
5.7309e-07
4.16552e-07
1.15512e-06
4.21855e-07
5.82625e-07
4.14856e-07
1.13733e-06
1.37278e-06
6.77922e-06
1.40848e-06
6.94244e-06
1.37279e-06
6.77939e-06
1.40852e-06
6.94265e-06
5.72097e-07
4.205e-07
4.13684e-07
1.13322e-06
4.14038e-07
1.13644e-06
5.69845e-07
5.72098e-07
4.20503e-07
4.13683e-07
1.13331e-06
4.1404e-07
1.13653e-06
5.69842e-07
1.3704e-06
6.98445e-06
6.96429e-06
1.36661e-06
1.37041e-06
6.98469e-06
6.96452e-06
1.36661e-06
2.39198e-05
2.39563e-05
2.39213e-05
2.39577e-05
4.33577e-07
2.26827e-06
2.26874e-06
2.2603e-06
2.26074e-06
2.39718e-05
2.39655e-05
2.39732e-05
2.39668e-05
2.39694e-05
2.39687e-05
2.39733e-05
2.39731e-05
2.26991e-06
2.27005e-06
4.31504e-07
2.27016e-06
2.27038e-06
2.39683e-05
2.39685e-05
2.39726e-05
2.39731e-05
4.31599e-07
2.26996e-06
2.27043e-06
2.27031e-06
2.27061e-06
1.36634e-06
6.98525e-06
1.36685e-06
6.98518e-06
5.69471e-07
1.13341e-06
4.13541e-07
4.19488e-07
5.69837e-07
1.13265e-06
4.13492e-07
5.6947e-07
1.13338e-06
4.13541e-07
4.19489e-07
5.69837e-07
1.13266e-06
4.13492e-07
1.36654e-06
6.98432e-06
6.98458e-06
1.36619e-06
1.36655e-06
6.98488e-06
6.98518e-06
1.36619e-06
5.6954e-07
4.19446e-07
1.13243e-06
4.13467e-07
1.13291e-06
4.13471e-07
5.69404e-07
5.6954e-07
4.19447e-07
1.1325e-06
4.13468e-07
1.13293e-06
4.13471e-07
5.69403e-07
2.27e-06
2.26997e-06
4.31499e-07
2.27031e-06
2.27022e-06
2.39693e-05
2.39689e-05
2.39704e-05
2.39706e-05
4.31595e-07
2.27036e-06
2.27021e-06
2.27056e-06
2.27058e-06
2.39682e-05
2.39691e-05
5.6947e-07
1.13348e-06
4.13541e-07
4.19484e-07
5.6984e-07
1.13272e-06
4.13492e-07
1.36624e-06
6.98624e-06
1.36671e-06
6.98612e-06
5.69476e-07
4.13542e-07
1.13363e-06
4.19493e-07
5.69844e-07
4.13492e-07
1.13287e-06
1.36638e-06
6.98547e-06
6.98576e-06
1.36606e-06
5.69538e-07
4.19443e-07
1.13254e-06
4.13468e-07
1.13299e-06
4.13471e-07
5.69399e-07
1.36641e-06
6.98576e-06
6.98612e-06
1.36608e-06
5.69544e-07
4.19451e-07
4.13469e-07
1.1327e-06
4.13472e-07
1.13317e-06
5.69406e-07
1.36636e-06
6.98518e-06
1.36687e-06
6.98506e-06
5.69475e-07
4.13541e-07
1.13333e-06
4.19489e-07
5.69839e-07
4.13492e-07
1.13261e-06
1.36636e-06
6.98572e-06
1.36687e-06
6.98565e-06
5.69539e-07
4.19442e-07
1.13247e-06
4.13467e-07
1.13293e-06
4.13473e-07
5.69403e-07
1.36656e-06
6.98471e-06
6.98507e-06
1.36621e-06
5.69542e-07
4.19447e-07
4.13468e-07
1.13244e-06
4.13471e-07
1.13288e-06
5.69407e-07
1.36657e-06
6.98534e-06
6.98565e-06
1.36621e-06
2.27061e-06
2.26968e-06
4.31507e-07
2.27088e-06
2.26998e-06
2.3972e-05
2.39719e-05
2.39724e-05
2.39731e-05
4.31602e-07
2.27089e-06
2.27003e-06
2.2712e-06
2.27023e-06
2.39715e-05
2.39719e-05
5.69463e-07
4.13541e-07
1.13343e-06
4.19484e-07
5.69833e-07
4.13492e-07
1.1327e-06
1.36623e-06
6.98583e-06
1.36669e-06
6.98577e-06
1.36622e-06
6.98607e-06
1.36669e-06
6.986e-06
5.69534e-07
4.19445e-07
4.13467e-07
1.13244e-06
4.13473e-07
1.13287e-06
5.69397e-07
5.69532e-07
4.19443e-07
4.13467e-07
1.13254e-06
4.13471e-07
1.13298e-06
5.69393e-07
1.36639e-06
6.98546e-06
6.98577e-06
1.36607e-06
1.36639e-06
6.98569e-06
6.986e-06
1.36606e-06
2.39722e-05
2.39721e-05
2.39736e-05
2.39734e-05
4.31601e-07
2.27003e-06
2.27051e-06
2.27023e-06
2.2707e-06
2.39717e-05
2.39721e-05
2.3973e-05
2.39735e-05
2.39684e-05
2.39683e-05
2.39726e-05
2.39724e-05
2.27012e-06
2.27062e-06
4.31467e-07
2.26984e-06
2.27041e-06
2.39685e-05
2.39684e-05
2.39723e-05
2.39724e-05
4.3158e-07
2.26982e-06
2.2704e-06
2.27003e-06
2.2706e-06
1.36614e-06
6.98488e-06
1.36643e-06
6.98472e-06
5.69391e-07
1.13274e-06
4.1347e-07
4.19436e-07
5.69486e-07
1.13236e-06
4.1347e-07
5.69389e-07
1.13281e-06
4.13471e-07
4.19437e-07
5.69485e-07
1.13246e-06
4.13471e-07
1.36639e-06
6.98426e-06
6.98427e-06
1.36613e-06
1.36639e-06
6.98466e-06
6.98472e-06
1.36613e-06
5.69476e-07
4.19434e-07
1.13234e-06
4.13468e-07
1.13269e-06
4.13468e-07
5.69393e-07
5.69475e-07
4.19435e-07
1.13245e-06
4.13468e-07
1.13279e-06
4.13469e-07
5.69392e-07
2.27057e-06
2.27053e-06
4.31462e-07
2.27034e-06
2.27017e-06
2.39685e-05
2.3968e-05
2.39704e-05
2.39704e-05
4.31576e-07
2.27032e-06
2.27016e-06
2.27055e-06
2.2705e-06
2.39679e-05
2.39683e-05
5.69385e-07
1.13285e-06
4.1347e-07
4.19432e-07
5.6948e-07
1.13252e-06
4.1347e-07
1.36603e-06
6.98578e-06
1.36628e-06
6.98556e-06
5.69392e-07
4.13471e-07
1.13305e-06
4.19441e-07
5.69487e-07
4.13471e-07
1.13266e-06
1.36622e-06
6.98525e-06
6.98534e-06
1.366e-06
5.69469e-07
4.1943e-07
1.13252e-06
4.13468e-07
1.13284e-06
4.13468e-07
5.69387e-07
1.36624e-06
6.98549e-06
6.9856e-06
1.36602e-06
5.69477e-07
4.19439e-07
4.13468e-07
1.13265e-06
4.13469e-07
1.13302e-06
5.69394e-07
1.36616e-06
6.98472e-06
1.36644e-06
6.9845e-06
5.69392e-07
4.1347e-07
1.13276e-06
4.19437e-07
5.69486e-07
4.1347e-07
1.1324e-06
1.36616e-06
6.98535e-06
1.36644e-06
6.98516e-06
5.69474e-07
4.19429e-07
1.13242e-06
4.13467e-07
1.13278e-06
4.1347e-07
5.69392e-07
1.36641e-06
6.98444e-06
6.98455e-06
1.36614e-06
5.69476e-07
4.19434e-07
4.13467e-07
1.13239e-06
4.13468e-07
1.13273e-06
5.69395e-07
1.36641e-06
6.9851e-06
6.98516e-06
1.36614e-06
2.27119e-06
2.27023e-06
4.3147e-07
2.27086e-06
2.27e-06
2.39715e-05
2.39711e-05
2.39722e-05
2.39725e-05
4.31583e-07
2.27085e-06
2.26999e-06
2.27116e-06
2.27021e-06
2.3971e-05
2.39712e-05
5.69377e-07
4.1347e-07
1.13286e-06
4.19432e-07
5.69474e-07
4.1347e-07
1.13249e-06
1.36602e-06
6.98547e-06
1.36626e-06
6.98529e-06
1.36601e-06
6.98569e-06
1.36626e-06
6.98551e-06
5.69466e-07
4.19432e-07
4.13467e-07
1.13239e-06
4.13469e-07
1.13272e-06
5.69382e-07
5.69462e-07
4.1943e-07
4.13467e-07
1.13248e-06
4.13468e-07
1.13283e-06
5.69378e-07
1.36622e-06
6.98522e-06
6.98529e-06
1.366e-06
1.36622e-06
6.98544e-06
6.98551e-06
1.366e-06
2.39717e-05
2.39714e-05
2.3973e-05
2.39727e-05
4.31583e-07
2.27001e-06
2.27048e-06
2.27022e-06
2.27068e-06
2.39713e-05
2.39714e-05
2.39726e-05
2.39727e-05
2.39684e-05
2.39684e-05
2.39724e-05
2.39723e-05
2.27004e-06
2.2706e-06
4.31468e-07
2.26985e-06
2.2704e-06
2.39685e-05
2.39685e-05
2.39723e-05
2.39723e-05
4.31579e-07
2.26987e-06
2.2704e-06
2.27007e-06
2.27059e-06
1.36613e-06
6.98468e-06
1.36638e-06
6.98467e-06
5.69394e-07
1.13267e-06
4.1347e-07
4.19435e-07
5.6948e-07
1.13233e-06
4.1347e-07
5.69391e-07
1.13278e-06
4.1347e-07
4.19437e-07
5.69479e-07
1.13245e-06
4.1347e-07
1.36639e-06
6.98426e-06
6.98424e-06
1.36613e-06
1.36638e-06
6.98466e-06
6.98468e-06
1.36612e-06
5.69479e-07
4.19433e-07
1.13233e-06
4.13468e-07
1.13266e-06
4.13468e-07
5.69393e-07
5.69477e-07
4.19435e-07
1.13245e-06
4.13468e-07
1.13278e-06
4.13468e-07
5.69391e-07
2.27055e-06
2.27049e-06
4.31464e-07
2.27034e-06
2.27017e-06
2.39682e-05
2.39679e-05
2.39707e-05
2.39704e-05
4.31576e-07
2.27033e-06
2.27016e-06
2.27054e-06
2.2705e-06
2.39679e-05
2.39683e-05
5.69386e-07
1.13285e-06
4.1347e-07
4.19432e-07
5.69472e-07
1.13252e-06
4.1347e-07
1.36602e-06
6.98555e-06
1.36623e-06
6.98548e-06
5.69394e-07
4.13471e-07
1.13301e-06
4.19441e-07
5.69481e-07
4.13471e-07
1.13265e-06
1.36621e-06
6.98524e-06
6.98528e-06
1.366e-06
5.6947e-07
4.1943e-07
1.13253e-06
4.13467e-07
1.13285e-06
4.13468e-07
5.69386e-07
1.36623e-06
6.98548e-06
6.98554e-06
1.36602e-06
5.69477e-07
4.19439e-07
4.13468e-07
1.13265e-06
4.13469e-07
1.13301e-06
5.69393e-07
1.36614e-06
6.9845e-06
1.36639e-06
6.98443e-06
5.69393e-07
4.1347e-07
1.13272e-06
4.19437e-07
5.6948e-07
4.1347e-07
1.13239e-06
1.36614e-06
6.98511e-06
1.36639e-06
6.98508e-06
5.69473e-07
4.19429e-07
1.13241e-06
4.13467e-07
1.13277e-06
4.13469e-07
5.6939e-07
1.36639e-06
6.98443e-06
6.98449e-06
1.36614e-06
5.69476e-07
4.19434e-07
4.13468e-07
1.13239e-06
4.13468e-07
1.13272e-06
5.69394e-07
1.3664e-06
6.98508e-06
6.9851e-06
1.36614e-06
2.27115e-06
2.2702e-06
4.31471e-07
2.27086e-06
2.26999e-06
2.39711e-05
2.3971e-05
2.39722e-05
2.39725e-05
4.31582e-07
2.27085e-06
2.26999e-06
2.27116e-06
2.2702e-06
2.3971e-05
2.3971e-05
5.6938e-07
4.1347e-07
1.13282e-06
4.19432e-07
5.69465e-07
4.1347e-07
1.13248e-06
1.366e-06
6.98524e-06
1.36621e-06
6.98521e-06
1.366e-06
6.98546e-06
1.36621e-06
6.98543e-06
5.69467e-07
4.19432e-07
4.13467e-07
1.13238e-06
4.13469e-07
1.13271e-06
5.69383e-07
5.69465e-07
4.1943e-07
4.13467e-07
1.13248e-06
4.13468e-07
1.13282e-06
5.69378e-07
1.36621e-06
6.98521e-06
6.98523e-06
1.366e-06
1.36621e-06
6.98543e-06
6.98544e-06
1.366e-06
2.39714e-05
2.39712e-05
2.39727e-05
2.39726e-05
4.31582e-07
2.27001e-06
2.27048e-06
2.27021e-06
2.27068e-06
2.39712e-05
2.39713e-05
2.39726e-05
2.39726e-05
2.39685e-05
2.39685e-05
2.39723e-05
2.39723e-05
2.27008e-06
2.27059e-06
4.31468e-07
2.26988e-06
2.27039e-06
2.39687e-05
2.39686e-05
2.39723e-05
2.39723e-05
4.31579e-07
2.2699e-06
2.2704e-06
2.2701e-06
2.27059e-06
1.36613e-06
6.98467e-06
1.36638e-06
6.98465e-06
5.69392e-07
1.13266e-06
4.1347e-07
4.19435e-07
5.69478e-07
1.13233e-06
4.1347e-07
5.69389e-07
1.13278e-06
4.1347e-07
4.19437e-07
5.69478e-07
1.13245e-06
4.1347e-07
1.36639e-06
6.98425e-06
6.98422e-06
1.36613e-06
1.36638e-06
6.98464e-06
6.98467e-06
1.36612e-06
5.69478e-07
4.19433e-07
1.13233e-06
4.13468e-07
1.13266e-06
4.13468e-07
5.69395e-07
5.69475e-07
4.19435e-07
1.13244e-06
4.13468e-07
1.13278e-06
4.13468e-07
5.69392e-07
2.27056e-06
2.27049e-06
4.31465e-07
2.27034e-06
2.27017e-06
2.39682e-05
2.3968e-05
2.39708e-05
2.39708e-05
4.31577e-07
2.27033e-06
2.27016e-06
2.27055e-06
2.2705e-06
2.39679e-05
2.39683e-05
5.69385e-07
1.13285e-06
4.1347e-07
4.19432e-07
5.69472e-07
1.13253e-06
4.1347e-07
1.36602e-06
6.98554e-06
1.36623e-06
6.98548e-06
5.69393e-07
4.13471e-07
1.13301e-06
4.19441e-07
5.69479e-07
4.13471e-07
1.13265e-06
1.36621e-06
6.98524e-06
6.98528e-06
1.366e-06
5.6947e-07
4.1943e-07
1.13253e-06
4.13467e-07
1.13285e-06
4.13468e-07
5.69388e-07
1.36623e-06
6.98548e-06
6.98554e-06
1.36601e-06
5.69477e-07
4.19439e-07
4.13468e-07
1.13265e-06
4.13469e-07
1.13301e-06
5.69394e-07
1.36614e-06
6.98449e-06
1.36639e-06
6.98443e-06
5.69394e-07
4.1347e-07
1.13272e-06
4.19437e-07
5.69479e-07
4.1347e-07
1.13239e-06
1.36614e-06
6.9851e-06
1.36639e-06
6.98508e-06
5.69473e-07
4.19429e-07
1.13241e-06
4.13467e-07
1.13277e-06
4.13469e-07
5.69389e-07
1.3664e-06
6.98443e-06
6.98449e-06
1.36614e-06
5.69476e-07
4.19434e-07
4.13468e-07
1.13239e-06
4.13468e-07
1.13272e-06
5.69393e-07
1.3664e-06
6.98508e-06
6.9851e-06
1.36614e-06
2.27115e-06
2.2702e-06
4.31472e-07
2.27086e-06
2.26999e-06
2.3971e-05
2.3971e-05
2.39722e-05
2.39725e-05
4.31583e-07
2.27085e-06
2.26999e-06
2.27116e-06
2.2702e-06
2.3971e-05
2.3971e-05