/*--------------------------------*- C++ -*----------------------------------*\
| =========                 |                                                 |
| \\      /  F ield         | OpenFOAM: The Open Source CFD Toolbox           |
|  \\    /   O peration     | Version:  2206                                  |
|   \\  /    A nd           | Website:  www.openfoam.com                      |
|    \\/     M anipulation  |                                                 |
\*---------------------------------------------------------------------------*/
FoamFile
{
    version     2.0;
    format      ascii;
    arch        "LSB;label=32;scalar=64";
    class       volScalarField;
    location    "10.5";
    object      nut;
}
// * * * * * * * * * * * * * * * * * * * * * * * * * * * * * * * * * * * * * //

dimensions      [0 2 -1 0 0 0 0];

internalField   nonuniform List<scalar> 
28688
(
0.000233953
0.000233089
0.000233089
0.000233456
0.000232415
0.000227448
0.000227447
0.000224055
0.000231513
0.000224823
0.000224821
0.00021507
0.00023168
0.000226566
0.000226564
0.000218913
0.000231694
0.000226662
0.000226661
0.000219134
0.000231694
0.000226665
0.000226663
0.000219133
0.000231694
0.000226665
0.000226663
0.000219133
0.000231694
0.000226665
0.000226664
0.000219133
0.000231694
0.000226665
0.000226663
0.000219133
0.000231694
0.000226665
0.000226663
0.000219133
0.000231694
0.000226665
0.000226663
0.000219133
0.000231694
0.000226665
0.000226663
0.000219133
0.00023421
0.000234451
0.000234452
0.000234211
0.000234452
0.000234452
0.000234271
0.000234271
0.000234271
0.000234271
0.000234451
0.000234451
0.00023421
0.000234451
0.000234452
0.00023421
0.000233457
0.000226166
0.000233089
0.000233087
0.00022943
0.000229425
0.000233456
0.000226167
0.000233087
0.000233087
0.000229427
0.000229424
0.000233089
0.000229431
0.000229429
0.000233457
0.000226164
0.000233087
0.000229431
0.000229427
0.000226164
0.000224055
0.000215035
0.000227444
0.000227439
0.000224226
0.000224221
0.000224056
0.000215038
0.000227442
0.000227437
0.000224226
0.000224219
0.000227443
0.000224232
0.000224225
0.000224053
0.000215033
0.000227442
0.00022423
0.000224226
0.000215034
0.000215074
0.000218913
0.000224818
0.000224815
0.000226413
0.000226412
0.000215076
0.000218915
0.000224819
0.000224813
0.000226415
0.00022641
0.000224817
0.000226417
0.000226412
0.000215072
0.000218911
0.000224819
0.000226415
0.000226415
0.00021891
0.000218917
0.000219195
0.000226563
0.000226562
0.000226656
0.000226655
0.000218918
0.000219197
0.000226565
0.000226559
0.000226659
0.000226653
0.000226562
0.00022666
0.000226656
0.000218914
0.000219193
0.000226565
0.000226658
0.000226659
0.000219197
0.000219135
0.0002192
0.000226659
0.000226658
0.000226661
0.000226661
0.000219136
0.000219202
0.000226661
0.000226656
0.000226664
0.000226658
0.000226659
0.000226665
0.000226661
0.000219132
0.000219197
0.000226662
0.000226663
0.000226664
0.000219198
0.000219136
0.000219201
0.000226662
0.000226662
0.000226661
0.00022666
0.000219137
0.000219202
0.000226665
0.000226659
0.000226664
0.000226658
0.000226662
0.000226665
0.000226661
0.000219133
0.000219198
0.000226665
0.000226664
0.000226664
0.000219199
0.000219137
0.000219201
0.000226662
0.000226661
0.000226661
0.00022666
0.000219138
0.000219202
0.000226664
0.000226658
0.000226664
0.000226658
0.000226661
0.000226665
0.000226661
0.000219134
0.000219198
0.000226664
0.000226664
0.000226664
0.000219199
0.000219137
0.000219201
0.000226662
0.000226661
0.000226661
0.00022666
0.000219137
0.000219202
0.000226664
0.000226658
0.000226664
0.000226658
0.000226661
0.000226666
0.000226661
0.000219134
0.000219199
0.000226664
0.000226664
0.000226664
0.000219199
0.000219137
0.000219201
0.000226662
0.000226661
0.000226661
0.00022666
0.000219138
0.000219202
0.000226664
0.000226658
0.000226664
0.000226658
0.000226661
0.000226666
0.000226661
0.000219134
0.000219198
0.000226664
0.000226664
0.000226664
0.000219198
0.000219137
0.000219202
0.000226662
0.000226661
0.000226661
0.00022666
0.000219137
0.000219202
0.000226664
0.000226658
0.000226664
0.000226658
0.000226661
0.000226666
0.000226661
0.000219134
0.000219199
0.000226664
0.000226664
0.000226664
0.000219198
0.000219138
0.000219202
0.000226662
0.000226661
0.000226661
0.00022666
0.000219137
0.000219202
0.000226664
0.000226658
0.000226664
0.000226658
0.000226661
0.000226666
0.000226661
0.000219134
0.000219198
0.000226664
0.000226664
0.000226664
0.000219198
0.000219138
0.000219206
0.000226662
0.000226661
0.000226662
0.000219138
0.000226664
0.000226658
0.000226665
0.000226659
0.000226661
0.000226662
0.000219134
0.000219203
0.000226664
0.000226664
0.000226665
0.000219203
0.000234726
0.000234741
0.000234726
0.000234726
0.000235105
0.000234791
0.000234701
0.000234724
0.000235105
0.000234791
0.000234724
0.000234701
0.000234844
0.000233566
0.000233566
0.000104364
3.87477e-05
0.000129273
3.98263e-05
2.16832e-05
2.28266e-05
0.000104355
3.87437e-05
0.000129266
3.98229e-05
0.000233953
0.000233953
0.000233953
0.000232937
0.000232937
0.000232937
0.000232937
0.000205916
9.36417e-05
0.000233956
0.000231986
0.000222783
8.73055e-05
0.000233604
2.16822e-05
2.28257e-05
0.000205909
0.000233956
9.36451e-05
0.000231986
0.00022279
0.000233604
8.73051e-05
4.78153e-05
4.78027e-05
0.000231266
4.41029e-05
4.40934e-05
7.13455e-05
4.24455e-05
8.19778e-05
4.3764e-05
2.47744e-05
2.54763e-05
7.1343e-05
4.2442e-05
8.19676e-05
4.37603e-05
0.000232415
0.000232415
0.000232415
0.000231503
0.000231503
0.000231502
0.000231502
0.000165867
7.95147e-05
0.000231987
0.000225485
0.000181022
7.38988e-05
0.000231151
2.4773e-05
2.54744e-05
0.000165861
0.000231986
7.95139e-05
0.000225483
0.000181017
0.00023115
7.38961e-05
3.94385e-05
3.94275e-05
0.000218806
3.61422e-05
3.61323e-05
7.13403e-05
4.5262e-05
6.94803e-05
4.56435e-05
2.57738e-05
2.57876e-05
7.13384e-05
4.52593e-05
6.94823e-05
4.56405e-05
0.000231513
0.000231513
0.000231513
0.00023166
0.00023166
0.00023166
0.00023166
0.000161359
7.76685e-05
0.000230173
0.000225554
0.00015898
8.33305e-05
0.000230263
2.57719e-05
2.57854e-05
0.000161357
0.000230173
7.76692e-05
0.000225552
0.000158978
0.000230262
8.33265e-05
4.00028e-05
3.99925e-05
0.000217398
4.42941e-05
4.42838e-05
7.22667e-05
4.57491e-05
7.21984e-05
4.57486e-05
2.57939e-05
2.57937e-05
7.22729e-05
4.57464e-05
7.22043e-05
4.5746e-05
0.00023168
0.00023168
0.00023168
0.000231693
0.000231694
0.000231693
0.000231693
0.000162968
8.58573e-05
0.000230449
0.000226628
0.000162801
8.6022e-05
0.000230465
2.57915e-05
2.57912e-05
0.000162968
0.000230449
8.5859e-05
0.000226626
0.0001628
0.000230465
8.60235e-05
4.59796e-05
4.59703e-05
0.000219156
4.6062e-05
4.60525e-05
7.22949e-05
4.57488e-05
7.22785e-05
4.5748e-05
2.57938e-05
2.57934e-05
7.23033e-05
4.57459e-05
7.22872e-05
4.57449e-05
0.000231694
0.000231694
0.000231694
0.000231694
0.000231694
0.000231693
0.000231694
0.000163021
8.60381e-05
0.000230475
0.000226664
0.000162986
8.6066e-05
0.000230475
2.57913e-05
2.57909e-05
0.000163023
0.000230475
8.60418e-05
0.000226662
0.000162987
0.000230475
8.6069e-05
4.60727e-05
4.60634e-05
0.000219199
4.60793e-05
4.60699e-05
7.22962e-05
4.57487e-05
7.22833e-05
4.5748e-05
2.57937e-05
2.57932e-05
7.23054e-05
4.57455e-05
7.22939e-05
4.57448e-05
0.000231694
0.000231694
0.000231694
0.000231694
0.000231694
0.000231693
0.000231694
0.000163023
8.60443e-05
0.000230475
0.000226665
0.000162995
8.60678e-05
0.000230475
2.57912e-05
2.57909e-05
0.000163025
0.000230475
8.6049e-05
0.000226664
0.000162999
0.000230475
8.60713e-05
4.60751e-05
4.60658e-05
0.000219199
4.608e-05
4.60707e-05
7.22962e-05
4.57487e-05
7.22834e-05
4.57479e-05
2.57936e-05
2.57933e-05
7.23055e-05
4.57455e-05
7.22941e-05
4.57448e-05
0.000231694
0.000231694
0.000231694
0.000231694
0.000231694
0.000231694
0.000231694
0.000163023
8.60445e-05
0.000230475
0.000226665
0.000162995
8.60679e-05
0.000230475
2.57912e-05
2.57909e-05
0.000163026
0.000230475
8.60493e-05
0.000226664
0.000162998
0.000230475
8.60713e-05
4.60751e-05
4.60659e-05
0.000219199
4.608e-05
4.60707e-05
7.22962e-05
4.57487e-05
7.22835e-05
4.57479e-05
2.57935e-05
2.57933e-05
7.23055e-05
4.57455e-05
7.22941e-05
4.57448e-05
0.000231694
0.000231694
0.000231694
0.000231694
0.000231694
0.000231694
0.000231694
0.000163023
8.60445e-05
0.000230475
0.000226665
0.000162995
8.60679e-05
0.000230475
2.57912e-05
2.57909e-05
0.000163026
0.000230475
8.60493e-05
0.000226664
0.000162998
0.000230475
8.60713e-05
4.60751e-05
4.60659e-05
0.000219199
4.608e-05
4.60707e-05
7.22963e-05
4.57487e-05
7.22835e-05
4.57479e-05
2.57935e-05
2.57933e-05
7.23055e-05
4.57455e-05
7.22941e-05
4.57448e-05
0.000231694
0.000231694
0.000231694
0.000231694
0.000231694
0.000231693
0.000231694
0.000163023
8.60445e-05
0.000230475
0.000226665
0.000162995
8.60679e-05
0.000230475
2.57912e-05
2.57909e-05
0.000163026
0.000230475
8.60493e-05
0.000226664
0.000162998
0.000230475
8.60713e-05
4.60751e-05
4.60659e-05
0.000219199
4.608e-05
4.60707e-05
7.22963e-05
4.57488e-05
7.22835e-05
4.57479e-05
2.57935e-05
2.57933e-05
7.23055e-05
4.57456e-05
7.22941e-05
4.57448e-05
0.000231694
0.000231694
0.000231694
0.000231694
0.000231694
0.000231694
0.000231694
0.000163023
8.60445e-05
0.000230475
0.000226665
0.000162995
8.60679e-05
0.000230475
2.57912e-05
2.57909e-05
0.000163026
0.000230475
8.60493e-05
0.000226664
0.000162998
0.000230475
8.60713e-05
4.60751e-05
4.60659e-05
0.000219199
4.608e-05
4.60707e-05
7.22962e-05
4.57489e-05
7.22834e-05
4.57482e-05
2.57935e-05
2.57933e-05
7.23054e-05
4.57455e-05
7.2294e-05
4.57448e-05
0.000231694
0.000231694
0.000231694
0.000231694
0.000231694
0.000231693
0.000231694
0.000163023
8.60444e-05
0.000230475
0.000226666
0.000162995
8.60678e-05
0.000230475
2.57912e-05
2.57909e-05
0.000163026
0.000230475
8.60493e-05
0.000226664
0.000162998
0.000230475
8.60713e-05
4.60751e-05
4.60658e-05
0.000219199
4.608e-05
4.60706e-05
7.22962e-05
4.5749e-05
7.22833e-05
4.57483e-05
2.57935e-05
2.57933e-05
7.23054e-05
4.57455e-05
7.2294e-05
4.57447e-05
0.000231694
0.000231694
0.000231694
0.000231695
0.000231696
0.000231694
0.000231694
0.000163023
8.60445e-05
0.000230475
0.000226665
0.000162995
8.60679e-05
0.000230475
2.57912e-05
2.57909e-05
0.000163026
0.000230474
8.60493e-05
0.000226664
0.000162998
0.000230475
8.60714e-05
4.6075e-05
4.60658e-05
0.000219199
4.60799e-05
4.60706e-05
0.000234843
0.000233565
0.000233566
2.32574e-05
0.000214159
2.32563e-05
0.000214162
0.000234457
5.137e-05
5.13524e-05
0.00022999
0.000229991
0.000235105
0.000234791
0.000234701
0.000234724
0.000235105
0.000234791
0.000234702
0.000234724
0.000234477
4.02623e-05
0.000218814
0.000147466
0.000234477
4.02618e-05
0.000218814
0.000147473
0.000233913
0.000234476
0.000100198
0.00023427
0.000233358
0.000234601
0.000228434
0.000233913
0.000234475
0.000100185
0.00023427
0.000233359
0.000234601
0.000228433
0.000234844
0.000233565
0.000233566
2.32571e-05
0.000214167
0.000234457
5.13613e-05
5.13585e-05
0.000229989
0.000229991
2.32569e-05
0.000214169
0.000235105
0.000234791
0.000234701
0.000234724
0.000235105
0.000234791
0.000234724
0.000234701
0.000234477
4.02592e-05
0.000218815
0.000147447
0.000233913
0.000234475
0.000100175
0.000234269
0.000233359
0.000234601
0.000228431
0.000234477
4.02587e-05
0.000218816
0.000147461
0.000233913
0.000234475
0.00023427
0.000100184
0.000234601
0.000233359
0.000228433
0.000234726
0.000234741
0.000234726
0.000234726
0.000234726
0.000234741
0.000234726
0.000234726
0.000234726
0.000234741
0.000234726
0.000234726
0.000234594
0.000234578
0.000234246
0.000234246
0.000234595
0.000234595
0.000234244
0.000234594
0.000234578
0.000234246
0.000234246
0.000234595
0.000234595
0.000234244
0.000234594
0.000234578
0.000234246
0.000234246
0.000234595
0.000234595
0.000234244
0.000234594
0.000234578
0.000234246
0.000234246
0.000234595
0.000234595
0.000234244
0.000235105
0.000234791
0.000234724
0.000234701
0.000233913
0.000234475
0.000100181
0.00023427
0.000233359
0.000234601
0.000228432
0.000234477
4.02599e-05
0.000218818
0.000147459
0.000233913
0.000234475
0.00023427
0.000100191
0.000234601
0.000233359
0.000228433
0.000234477
4.02594e-05
0.000218816
0.000147467
0.000234844
0.000233566
0.000233566
2.32563e-05
0.000214163
0.000234457
5.13555e-05
5.1359e-05
0.000229991
0.000229993
2.32567e-05
0.000214171
0.000235105
0.000234791
0.000234724
0.000234701
0.000233912
0.000234475
0.00023427
0.000100186
0.000234601
0.000233359
0.000228433
0.000233912
0.000234475
0.00023427
0.000100175
0.000234601
0.000233359
0.000228431
0.000234477
4.0259e-05
0.000218818
0.000147447
0.000234477
4.02588e-05
0.000218814
0.000147434
0.000234457
5.13629e-05
5.13504e-05
0.000229992
0.000229992
2.32568e-05
0.000214169
2.32563e-05
0.000214164
2.16836e-05
2.28277e-05
2.16823e-05
2.28262e-05
4.78165e-05
4.78044e-05
0.000231267
4.4107e-05
4.40919e-05
2.44661e-05
2.33136e-05
2.44645e-05
2.33123e-05
0.000229727
4.02405e-05
4.0225e-05
4.31125e-05
4.30993e-05
0.000104377
3.87467e-05
0.00012926
3.98244e-05
0.000205919
9.36534e-05
0.000233956
0.000231985
0.000222778
8.73094e-05
0.000233604
0.000205921
9.36392e-05
0.000233956
0.000231982
0.000222775
8.72942e-05
0.000233604
9.81807e-05
4.19461e-05
4.03898e-05
8.62953e-05
9.8174e-05
4.19448e-05
4.03887e-05
8.62971e-05
0.000199985
0.000230898
8.11673e-05
0.000232729
8.56185e-05
0.000233231
0.000186239
0.000199985
0.000230894
8.11543e-05
0.000232729
8.56036e-05
0.000233231
0.000186242
4.78083e-05
4.78123e-05
0.000231267
4.40959e-05
4.41014e-05
2.16833e-05
2.28276e-05
2.44653e-05
2.33128e-05
0.000229727
4.02288e-05
4.0234e-05
4.31021e-05
4.3108e-05
2.44662e-05
2.33139e-05
0.00020591
9.36326e-05
0.000233956
0.000231983
0.000222776
8.72908e-05
0.000233604
0.000104357
3.87434e-05
0.000129286
3.9822e-05
0.00020591
0.000233956
9.36355e-05
0.000231981
0.00022278
0.000233603
8.72912e-05
9.81786e-05
4.19425e-05
4.03862e-05
8.62945e-05
0.000199984
0.000230895
8.11506e-05
0.000232729
8.56005e-05
0.000233231
0.000186237
9.8179e-05
4.19415e-05
4.03858e-05
8.6293e-05
0.000199983
0.000230893
0.000232728
8.115e-05
0.000233231
8.55986e-05
0.000186234
0.000104366
3.87443e-05
0.000129278
3.9825e-05
0.000205915
0.000233956
9.36463e-05
0.000231985
0.000222787
0.000233604
8.73036e-05
0.000104361
3.87447e-05
0.000129297
3.98234e-05
0.000199986
0.0002309
8.11641e-05
0.000232729
8.56129e-05
0.000233231
0.000186241
9.81777e-05
4.19446e-05
4.03876e-05
8.62945e-05
0.000199987
0.000230897
0.000232729
8.11636e-05
0.000233231
8.56139e-05
0.000186239
9.81856e-05
4.19437e-05
4.03877e-05
8.62915e-05
4.78037e-05
4.78148e-05
0.000231266
4.40923e-05
4.41062e-05
2.16827e-05
2.28268e-05
2.44638e-05
2.33117e-05
0.000229727
4.02255e-05
4.02384e-05
4.30986e-05
4.3109e-05
2.44653e-05
2.33127e-05
0.000205907
0.000233956
9.36333e-05
0.000231983
0.000222785
0.000233604
8.72927e-05
0.000104342
3.87438e-05
0.000129304
3.98236e-05
0.000104339
3.87432e-05
0.00012929
3.98226e-05
0.000199985
0.000230899
0.000232728
8.11629e-05
0.000233231
8.56123e-05
0.000186237
0.000199986
0.000230895
0.000232729
8.11535e-05
0.000233231
8.56005e-05
0.000186235
9.81944e-05
4.19432e-05
4.03873e-05
8.62923e-05
9.81932e-05
4.19426e-05
4.03859e-05
8.6291e-05
2.16831e-05
2.28269e-05
2.16822e-05
2.28263e-05
0.000229727
4.02374e-05
4.02255e-05
4.31118e-05
4.30971e-05
2.44655e-05
2.3313e-05
2.44645e-05
2.33123e-05
2.47752e-05
2.54772e-05
2.47734e-05
2.54756e-05
3.94413e-05
3.94276e-05
0.000218808
3.61469e-05
3.6133e-05
2.57582e-05
2.56056e-05
2.5757e-05
2.56036e-05
0.000216728
3.83729e-05
3.83566e-05
3.60378e-05
3.60241e-05
7.13477e-05
4.24443e-05
8.19806e-05
4.3763e-05
0.000165866
7.95173e-05
0.000231986
0.00022548
0.00018102
7.39009e-05
0.00023115
0.000165869
7.95057e-05
0.000231986
0.000225474
0.000181023
7.38888e-05
0.000231149
6.98912e-05
4.50358e-05
4.41321e-05
6.87975e-05
6.98934e-05
4.50356e-05
4.41304e-05
6.87976e-05
0.000162781
0.000224315
7.60134e-05
0.0002302
7.32894e-05
0.000230504
0.000158698
0.000162784
0.00022431
7.59996e-05
0.0002302
7.32781e-05
0.000230504
0.000158698
3.9432e-05
3.94363e-05
0.00021881
3.61375e-05
3.61415e-05
2.47755e-05
2.54773e-05
2.5758e-05
2.56046e-05
0.000216729
3.83622e-05
3.83677e-05
3.60291e-05
3.60313e-05
2.57585e-05
2.56056e-05
0.000165862
7.95026e-05
0.000231986
0.000225478
0.000181016
7.38864e-05
0.00023115
7.13417e-05
4.2441e-05
8.19658e-05
4.37593e-05
0.000165861
0.000231985
7.94998e-05
0.000225472
0.000181013
0.000231149
7.38833e-05
6.98882e-05
4.50327e-05
4.41285e-05
6.87876e-05
0.000162777
0.000224314
7.59982e-05
0.000230199
7.32761e-05
0.000230504
0.000158692
6.98879e-05
4.50313e-05
4.41268e-05
6.87885e-05
0.000162774
0.000224307
0.000230199
7.59989e-05
0.000230503
7.32726e-05
0.00015869
7.13455e-05
4.24439e-05
8.19771e-05
4.37626e-05
0.000165865
0.000231986
7.95142e-05
0.000225478
0.00018102
0.00023115
7.38948e-05
7.13472e-05
4.24431e-05
8.19753e-05
4.37614e-05
0.000162782
0.000224319
7.60131e-05
0.000230201
7.32892e-05
0.000230505
0.000158696
6.98923e-05
4.50349e-05
4.413e-05
6.87935e-05
0.000162781
0.000224314
0.0002302
7.60051e-05
0.000230504
7.32842e-05
0.000158696
6.98908e-05
4.50335e-05
4.41289e-05
6.87941e-05
3.94267e-05
3.94402e-05
0.000218806
3.6133e-05
3.61438e-05
2.47745e-05
2.54761e-05
2.57557e-05
2.56029e-05
0.000216726
3.83581e-05
3.83687e-05
3.60219e-05
3.6035e-05
2.57576e-05
2.56042e-05
0.000165863
0.000231986
7.95044e-05
0.000225477
0.000181019
0.00023115
7.38858e-05
7.13423e-05
4.24427e-05
8.1966e-05
4.37616e-05
7.13463e-05
4.24415e-05
8.197e-05
4.37603e-05
0.000162776
0.000224318
0.0002302
7.60074e-05
0.000230504
7.32853e-05
0.000158691
0.000162778
0.000224314
0.000230199
7.59968e-05
0.000230504
7.32763e-05
0.000158692
6.98882e-05
4.50337e-05
4.41289e-05
6.87891e-05
6.98882e-05
4.50325e-05
4.41275e-05
6.87871e-05
2.47745e-05
2.54759e-05
2.47737e-05
2.54752e-05
0.000216726
3.83668e-05
3.83561e-05
3.60341e-05
3.60243e-05
2.57574e-05
2.5604e-05
2.57567e-05
2.56033e-05
2.57744e-05
2.5788e-05
2.57725e-05
2.57864e-05
4.00083e-05
3.9995e-05
0.000217398
4.42973e-05
4.42833e-05
2.5794e-05
2.57917e-05
2.57925e-05
2.57898e-05
0.000217748
4.5897e-05
4.58908e-05
4.50105e-05
4.50001e-05
7.13395e-05
4.52616e-05
6.94822e-05
4.56433e-05
0.00016136
7.76732e-05
0.000230173
0.000225551
0.000158985
8.33285e-05
0.000230263
0.00016136
7.76682e-05
0.000230173
0.000225548
0.000158984
8.33231e-05
0.000230262
7.1651e-05
4.57453e-05
4.5696e-05
7.21484e-05
7.16505e-05
4.57455e-05
4.56957e-05
7.21482e-05
0.000161762
0.000226098
8.57108e-05
0.000230416
8.43253e-05
0.000230356
0.000162747
0.000161761
0.000226096
8.5712e-05
0.000230416
8.43191e-05
0.000230355
0.000162747
3.99989e-05
4.00036e-05
0.000217401
4.42861e-05
4.42946e-05
2.57747e-05
2.57882e-05
2.57935e-05
2.5791e-05
0.000217749
4.58928e-05
4.5896e-05
4.50025e-05
4.50083e-05
2.57939e-05
2.57918e-05
0.000161354
7.76633e-05
0.000230172
0.000225552
0.000158978
8.33176e-05
0.000230262
7.13383e-05
4.52575e-05
6.94859e-05
4.56388e-05
0.000161354
0.000230172
7.76571e-05
0.000225546
0.000158979
0.000230262
8.33136e-05
7.16549e-05
4.57426e-05
4.56933e-05
7.21551e-05
0.000161758
0.0002261
8.57038e-05
0.000230416
8.43141e-05
0.000230355
0.000162745
7.16547e-05
4.57407e-05
4.56913e-05
7.21539e-05
0.000161757
0.000226094
0.000230415
8.56947e-05
0.000230354
8.43099e-05
0.000162743
7.13381e-05
4.52612e-05
6.94784e-05
4.56428e-05
0.000161358
0.000230173
7.76735e-05
0.00022555
0.000158985
0.000230263
8.33267e-05
7.13378e-05
4.52594e-05
6.94791e-05
4.5641e-05
0.000161762
0.000226104
8.57123e-05
0.000230416
8.43262e-05
0.000230356
0.000162747
7.16495e-05
4.57448e-05
4.56953e-05
7.21478e-05
0.000161762
0.000226097
0.000230416
8.57139e-05
0.000230355
8.43218e-05
0.000162746
7.16489e-05
4.57432e-05
4.56933e-05
7.21467e-05
3.9992e-05
4.00066e-05
0.000217396
4.42819e-05
4.42939e-05
2.57733e-05
2.57872e-05
2.5791e-05
2.5789e-05
0.000217745
4.58825e-05
4.59002e-05
4.49951e-05
4.50099e-05
2.57933e-05
2.57907e-05
0.000161357
0.000230172
7.7665e-05
0.000225552
0.000158981
0.000230262
8.33189e-05
7.13389e-05
4.52593e-05
6.94867e-05
4.56407e-05
7.13379e-05
4.52585e-05
6.94846e-05
4.56402e-05
0.00016176
0.000226102
0.000230416
8.57146e-05
0.000230356
8.43213e-05
0.000162747
0.00016176
0.0002261
0.000230416
8.57078e-05
0.000230355
8.43142e-05
0.000162748
7.16553e-05
4.57429e-05
4.5693e-05
7.2155e-05
7.16546e-05
4.57425e-05
4.56926e-05
7.21548e-05
2.57731e-05
2.5787e-05
2.57724e-05
2.57862e-05
0.000217746
4.58991e-05
4.58896e-05
4.50088e-05
4.49993e-05
2.57931e-05
2.57905e-05
2.57923e-05
2.57897e-05
2.57943e-05
2.57941e-05
2.57928e-05
2.57927e-05
4.59761e-05
4.59729e-05
0.000219155
4.60558e-05
4.60536e-05
2.57944e-05
2.57944e-05
2.57925e-05
2.57927e-05
0.000219104
4.6074e-05
4.60684e-05
4.6064e-05
4.6061e-05
7.22663e-05
4.57492e-05
7.22006e-05
4.57492e-05
0.000162968
8.58582e-05
0.00023045
0.000226623
0.000162804
8.60207e-05
0.000230464
0.000162968
8.58596e-05
0.000230449
0.000226622
0.000162804
8.60214e-05
0.000230464
7.22672e-05
4.57482e-05
4.57488e-05
7.22891e-05
7.22668e-05
4.57486e-05
4.57493e-05
7.22889e-05
0.000162956
0.000226648
8.60596e-05
0.000230474
8.60216e-05
0.000230472
0.000163007
0.000162956
0.000226647
8.60583e-05
0.000230474
8.6022e-05
0.000230472
0.000163007
4.59739e-05
4.59749e-05
0.000219157
4.60546e-05
4.6052e-05
2.57942e-05
2.57941e-05
2.57936e-05
2.57937e-05
0.000219106
4.60694e-05
4.60672e-05
4.60618e-05
4.60575e-05
2.57939e-05
2.57942e-05
0.000162968
8.58519e-05
0.00023045
0.000226626
0.000162803
8.60159e-05
0.000230464
7.22709e-05
4.57444e-05
7.22056e-05
4.57444e-05
0.000162965
0.000230449
8.58421e-05
0.00022662
0.000162801
0.000230463
8.60047e-05
7.22748e-05
4.57454e-05
4.5746e-05
7.22959e-05
0.000162956
0.000226651
8.6054e-05
0.000230474
8.60167e-05
0.000230472
0.000163009
7.22726e-05
4.57436e-05
4.57444e-05
7.22937e-05
0.000162954
0.000226645
0.000230473
8.6041e-05
0.000230471
8.60038e-05
0.000163005
7.22656e-05
4.57485e-05
7.22002e-05
4.57485e-05
0.000162966
0.00023045
8.58615e-05
0.000226622
0.000162803
0.000230464
8.60233e-05
7.22646e-05
4.57468e-05
7.21989e-05
4.57468e-05
0.000162957
0.000226651
8.60583e-05
0.000230475
8.60213e-05
0.000230472
0.000163008
7.2266e-05
4.57477e-05
4.57485e-05
7.2288e-05
0.000162955
0.000226648
0.000230474
8.60602e-05
0.000230472
8.60237e-05
0.000163006
7.22651e-05
4.57461e-05
4.57468e-05
7.22873e-05
4.5961e-05
4.59813e-05
0.000219152
4.60397e-05
4.60616e-05
2.57935e-05
2.57935e-05
2.5791e-05
2.57913e-05
0.000219102
4.6055e-05
4.6076e-05
4.6046e-05
4.60685e-05
2.57933e-05
2.57935e-05
0.000162969
0.000230449
8.58554e-05
0.000226626
0.000162805
0.000230464
8.60176e-05
7.22716e-05
4.57465e-05
7.22065e-05
4.57466e-05
7.22717e-05
4.57461e-05
7.22063e-05
4.57462e-05
0.000162957
0.000226649
0.000230475
8.60604e-05
0.000230472
8.60242e-05
0.000163009
0.000162958
0.000226651
0.000230474
8.60545e-05
0.000230472
8.60178e-05
0.00016301
7.22734e-05
4.57459e-05
4.57466e-05
7.22947e-05
7.22734e-05
4.57455e-05
4.57463e-05
7.22949e-05
2.57933e-05
2.57933e-05
2.57925e-05
2.57925e-05
0.000219106
4.60765e-05
4.60671e-05
4.6069e-05
4.60596e-05
2.57932e-05
2.57933e-05
2.57924e-05
2.57925e-05
2.57944e-05
2.57943e-05
2.57926e-05
2.57925e-05
4.60736e-05
4.60676e-05
0.000219198
4.60787e-05
4.60713e-05
2.57944e-05
2.57944e-05
2.57924e-05
2.57925e-05
0.000219135
4.60812e-05
4.60718e-05
4.60775e-05
4.60698e-05
7.2295e-05
4.57486e-05
7.2283e-05
4.57482e-05
0.00016302
8.60458e-05
0.000230476
0.00022666
0.00016299
8.60688e-05
0.000230476
0.000163021
8.60444e-05
0.000230475
0.000226659
0.000162989
8.60663e-05
0.000230475
7.22872e-05
4.57481e-05
4.57481e-05
7.22962e-05
7.22873e-05
4.57481e-05
4.57482e-05
7.22964e-05
0.000163
0.000226661
8.60724e-05
0.000230474
8.6053e-05
0.000230475
0.000163023
0.000163
0.000226661
8.6068e-05
0.000230474
8.60501e-05
0.000230474
0.000163023
4.60681e-05
4.60642e-05
0.0002192
4.60717e-05
4.60683e-05
2.5794e-05
2.57938e-05
2.57934e-05
2.57934e-05
0.000219137
4.60724e-05
4.60689e-05
4.60698e-05
4.60643e-05
2.57938e-05
2.57939e-05
0.000163023
8.60401e-05
0.000230476
0.000226662
0.000162991
8.6061e-05
0.000230476
7.23008e-05
4.57436e-05
7.22896e-05
4.57431e-05
0.000163019
0.000230475
8.60256e-05
0.000226656
0.000162988
0.000230475
8.60484e-05
7.22974e-05
4.57449e-05
4.57451e-05
7.23052e-05
0.000163004
0.000226664
8.60623e-05
0.000230475
8.60451e-05
0.000230475
0.000163027
7.22947e-05
4.5743e-05
4.57432e-05
7.23026e-05
0.000162999
0.000226658
0.000230474
8.605e-05
0.000230474
8.60308e-05
0.000163023
7.2294e-05
4.57478e-05
7.2282e-05
4.57473e-05
0.000163019
0.000230476
8.60463e-05
0.00022666
0.000162989
0.000230475
8.60686e-05
7.22936e-05
4.57461e-05
7.22813e-05
4.57457e-05
0.000163001
0.000226664
8.60675e-05
0.000230475
8.60485e-05
0.000230475
0.000163021
7.22863e-05
4.57471e-05
4.57474e-05
7.22956e-05
0.000162999
0.000226661
0.000230475
8.60701e-05
0.000230475
8.60522e-05
0.000163022
7.22858e-05
4.57456e-05
4.57457e-05
7.22952e-05
4.60521e-05
4.60749e-05
0.000219196
4.60565e-05
4.60788e-05
2.57933e-05
2.57932e-05
2.57909e-05
2.5791e-05
0.000219133
4.6057e-05
4.60795e-05
4.60531e-05
4.6077e-05
2.57932e-05
2.57932e-05
0.000163025
0.000230476
8.60404e-05
0.000226663
0.000162992
0.000230476
8.60628e-05
7.2302e-05
4.57459e-05
7.22907e-05
4.57455e-05
7.23023e-05
4.57456e-05
7.22908e-05
4.57451e-05
0.000163004
0.000226662
0.000230475
8.60708e-05
0.000230475
8.60531e-05
0.000163025
0.000163005
0.000226664
0.000230475
8.60644e-05
0.000230475
8.60462e-05
0.000163028
7.2296e-05
4.57454e-05
4.57455e-05
7.23038e-05
7.22963e-05
4.5745e-05
4.57451e-05
7.23042e-05
2.57932e-05
2.57931e-05
2.57924e-05
2.57922e-05
0.000219135
4.60798e-05
4.60705e-05
4.60774e-05
4.60682e-05
2.5793e-05
2.57931e-05
2.57922e-05
2.57923e-05
2.57946e-05
2.57946e-05
2.57925e-05
2.57924e-05
4.60794e-05
4.60701e-05
0.000219199
4.60821e-05
4.6072e-05
2.57946e-05
2.57946e-05
2.57924e-05
2.57924e-05
0.000219137
4.60823e-05
4.6072e-05
4.60802e-05
4.60703e-05
7.22966e-05
4.57481e-05
7.22882e-05
4.57481e-05
0.000163023
8.60558e-05
0.000230475
0.000226662
0.000163001
8.60738e-05
0.000230475
0.000163024
8.60511e-05
0.000230475
0.000226661
0.000163002
8.60682e-05
0.000230475
7.2288e-05
4.57481e-05
4.5748e-05
7.22964e-05
7.22884e-05
4.57481e-05
4.57481e-05
7.22968e-05
0.000163002
0.000226661
8.60745e-05
0.000230475
8.60573e-05
0.000230475
0.000163023
0.000163003
0.000226661
8.60682e-05
0.000230475
8.60513e-05
0.000230475
0.000163024
4.607e-05
4.60652e-05
0.000219201
4.60722e-05
4.60688e-05
2.57939e-05
2.57938e-05
2.57933e-05
2.57932e-05
0.000219138
4.60722e-05
4.60687e-05
4.60701e-05
4.60646e-05
2.57938e-05
2.57939e-05
0.000163027
8.60456e-05
0.000230475
0.000226664
0.000163006
8.60623e-05
0.000230475
7.23028e-05
4.57431e-05
7.2296e-05
4.5743e-05
0.000163023
0.000230474
8.60318e-05
0.000226658
0.000163002
0.000230474
8.60503e-05
7.22988e-05
4.57448e-05
4.57449e-05
7.23056e-05
0.000163006
0.000226664
8.60621e-05
0.000230475
8.60458e-05
0.000230475
0.000163027
7.22961e-05
4.5743e-05
4.57431e-05
7.23029e-05
0.000163002
0.000226658
0.000230474
8.60503e-05
0.000230474
8.60321e-05
0.000163023
7.22957e-05
4.57473e-05
7.22874e-05
4.57471e-05
0.000163023
0.000230475
8.60532e-05
0.000226661
0.000163001
0.000230475
8.60706e-05
7.22954e-05
4.57456e-05
7.2287e-05
4.57456e-05
0.000163002
0.000226666
8.60678e-05
0.000230475
8.60497e-05
0.000230475
0.000163021
7.22874e-05
4.57471e-05
4.57472e-05
7.22959e-05
0.000163002
0.000226661
0.000230475
8.60705e-05
0.000230475
8.60535e-05
0.000163022
7.2287e-05
4.57455e-05
4.57456e-05
7.22955e-05
4.60536e-05
4.60775e-05
0.000219197
4.60571e-05
4.60798e-05
2.57932e-05
2.57932e-05
2.57909e-05
2.5791e-05
0.000219134
4.6057e-05
4.60798e-05
4.60535e-05
4.60777e-05
2.57932e-05
2.57932e-05
0.000163028
0.000230475
8.60473e-05
0.000226664
0.000163007
0.000230475
8.60649e-05
7.23039e-05
4.57454e-05
7.22972e-05
4.57453e-05
7.23044e-05
4.5745e-05
7.22975e-05
4.57449e-05
0.000163005
0.000226664
0.000230475
8.60712e-05
0.000230475
8.60546e-05
0.000163024
0.000163006
0.000226664
0.000230475
8.60648e-05
0.000230475
8.60476e-05
0.000163028
7.22971e-05
4.57453e-05
4.57454e-05
7.23041e-05
7.22975e-05
4.57449e-05
4.5745e-05
7.23045e-05
2.5793e-05
2.5793e-05
2.57922e-05
2.57922e-05
0.000219134
4.60799e-05
4.60706e-05
4.60778e-05
4.60686e-05
2.5793e-05
2.5793e-05
2.57922e-05
2.57922e-05
2.57946e-05
2.57946e-05
2.57924e-05
2.57924e-05
4.60802e-05
4.60702e-05
0.000219199
4.60821e-05
4.6072e-05
2.57946e-05
2.57946e-05
2.57924e-05
2.57924e-05
0.000219137
4.60814e-05
4.6072e-05
4.60796e-05
4.60703e-05
7.22968e-05
4.57481e-05
7.22886e-05
4.57481e-05
0.000163023
8.60575e-05
0.000230475
0.000226662
0.000163002
8.60746e-05
0.000230475
0.000163024
8.60512e-05
0.000230475
0.000226661
0.000163002
8.60683e-05
0.000230475
7.2288e-05
4.5748e-05
4.5748e-05
7.22964e-05
7.22885e-05
4.5748e-05
4.57481e-05
7.22969e-05
0.000163002
0.000226662
8.60746e-05
0.000230475
8.60579e-05
0.000230475
0.000163022
0.000163003
0.000226661
8.60683e-05
0.000230474
8.60514e-05
0.000230475
0.000163023
4.60699e-05
4.60648e-05
0.0002192
4.60722e-05
4.60689e-05
2.57939e-05
2.57938e-05
2.57933e-05
2.57933e-05
0.000219137
4.60724e-05
4.60685e-05
4.60701e-05
4.60648e-05
2.57938e-05
2.57939e-05
0.000163027
8.60453e-05
0.000230475
0.000226664
0.000163006
8.60618e-05
0.000230475
7.23029e-05
4.57431e-05
7.22962e-05
4.5743e-05
0.000163023
0.000230474
8.6032e-05
0.000226658
0.000163002
0.000230474
8.60503e-05
7.22988e-05
4.57448e-05
4.57449e-05
7.23056e-05
0.000163006
0.000226664
8.60618e-05
0.000230475
8.60453e-05
0.000230475
0.000163026
7.22961e-05
4.5743e-05
4.57431e-05
7.23029e-05
0.000163002
0.000226658
0.000230474
8.60503e-05
0.000230474
8.60321e-05
0.000163023
7.22958e-05
4.57472e-05
7.22877e-05
4.57471e-05
0.000163023
0.000230475
8.60534e-05
0.000226661
0.000163001
0.000230475
8.60706e-05
7.22954e-05
4.57456e-05
7.22872e-05
4.57455e-05
0.000163002
0.000226666
8.60678e-05
0.000230475
8.60498e-05
0.000230475
0.000163021
7.22875e-05
4.57471e-05
4.57472e-05
7.22959e-05
0.000163002
0.000226661
0.000230475
8.60705e-05
0.000230475
8.60535e-05
0.000163023
7.22871e-05
4.57456e-05
4.57456e-05
7.22955e-05
4.60536e-05
4.60777e-05
0.000219196
4.60571e-05
4.60798e-05
2.57932e-05
2.57932e-05
2.57909e-05
2.5791e-05
0.000219134