/*--------------------------------*- C++ -*----------------------------------*\
| =========                 |                                                 |
| \\      /  F ield         | OpenFOAM: The Open Source CFD Toolbox           |
|  \\    /   O peration     | Version:  2206                                  |
|   \\  /    A nd           | Website:  www.openfoam.com                      |
|    \\/     M anipulation  |                                                 |
\*---------------------------------------------------------------------------*/
FoamFile
{
    version     2.0;
    format      ascii;
    arch        "LSB;label=32;scalar=64";
    class       volVectorField;
    location    "10.5";
    object      U;
}
// * * * * * * * * * * * * * * * * * * * * * * * * * * * * * * * * * * * * * //

dimensions      [0 1 -1 0 0 0 0];

internalField   nonuniform List<vector> 
28688
(
(0.000108302 0.000108236 0.1003)
(-0.000190704 0.00011933 0.100385)
(0.000119411 -0.000190708 0.100385)
(-0.000236232 -0.000236256 0.100398)
(9.71443e-05 9.71051e-05 0.100852)
(-0.000169328 0.000105704 0.100939)
(0.000105718 -0.000169335 0.100939)
(-0.000201789 -0.000201818 0.100959)
(4.38762e-05 4.3833e-05 0.101244)
(-5.54792e-05 3.45663e-05 0.101286)
(3.45949e-05 -5.54751e-05 0.101286)
(-9.38224e-05 -9.38203e-05 0.101305)
(4.61414e-06 4.60404e-06 0.101309)
(-5.68515e-06 4.06225e-06 0.10131)
(4.0685e-06 -5.68547e-06 0.10131)
(-4.01456e-05 -4.01651e-05 0.101305)
(-7.34768e-08 -6.96945e-08 0.101313)
(-5.55916e-07 6.31232e-07 0.101309)
(6.24432e-07 -5.5563e-07 0.101309)
(-3.6204e-05 -3.62182e-05 0.101301)
(-3.81717e-07 -3.74314e-07 0.101313)
(-2.73552e-07 4.59296e-07 0.101309)
(4.47687e-07 -2.74261e-07 0.101309)
(-3.60454e-05 -3.60584e-05 0.101301)
(-3.93987e-07 -3.9003e-07 0.101313)
(-2.64396e-07 4.45351e-07 0.101309)
(4.41801e-07 -2.65498e-07 0.101309)
(-3.60397e-05 -3.6054e-05 0.101301)
(-3.93515e-07 -3.91381e-07 0.101313)
(-2.63451e-07 4.43267e-07 0.101309)
(4.41346e-07 -2.64948e-07 0.101309)
(-3.6038e-05 -3.60537e-05 0.101301)
(-3.95559e-07 -3.93769e-07 0.101313)
(-2.63246e-07 4.41963e-07 0.101309)
(4.40556e-07 -2.64465e-07 0.101309)
(-3.60379e-05 -3.6054e-05 0.101301)
(-3.9371e-07 -3.91037e-07 0.101313)
(-2.6372e-07 4.43829e-07 0.101309)
(4.42106e-07 -2.65566e-07 0.101309)
(-3.60385e-05 -3.60548e-05 0.101301)
(-3.90832e-07 -3.86574e-07 0.101313)
(-2.62502e-07 4.44063e-07 0.101309)
(4.4104e-07 -2.643e-07 0.101309)
(-3.60372e-05 -3.60539e-05 0.101301)
(-3.96055e-07 -3.97088e-07 0.101313)
(-2.61287e-07 4.36345e-07 0.101309)
(4.40325e-07 -2.63655e-07 0.101309)
(-3.60328e-05 -3.6051e-05 0.101301)
(0.000137305 0.00013729 0.100283)
(0.000124081 0.000152297 0.10023)
(-0.000124073 0.000152278 0.10023)
(-0.0001373 0.000137259 0.100283)
(0.000152335 0.00012403 0.10023)
(0.000152301 -0.000124052 0.10023)
(9.06472e-05 9.05883e-05 0.100151)
(-9.06363e-05 9.05866e-05 0.100151)
(9.0617e-05 -9.06409e-05 0.100151)
(-9.06126e-05 -9.06398e-05 0.100151)
(-0.000152331 0.00012403 0.10023)
(-0.000152309 -0.000124048 0.10023)
(0.000137294 -0.000137315 0.100283)
(0.000124034 -0.000152334 0.10023)
(-0.00012403 -0.000152317 0.10023)
(-0.000137302 -0.000137289 0.100283)
(0.000236284 0.000236256 0.100398)
(0.000116268 0.000116154 0.100894)
(0.000119462 0.000190613 0.100385)
(-0.00011941 0.000190656 0.100385)
(9.57718e-05 0.000157507 0.100822)
(-9.57287e-05 0.000157513 0.100822)
(-0.000236297 0.00023621 0.100398)
(-0.000116227 0.000116119 0.100894)
(0.000190744 0.000119355 0.100385)
(0.000190692 -0.000119422 0.100385)
(0.000157484 9.57349e-05 0.100822)
(0.000157523 -9.57641e-05 0.100822)
(-0.000190674 -0.000119425 0.100385)
(-0.000157452 9.57307e-05 0.100822)
(-0.000157476 -9.57546e-05 0.100822)
(0.000236209 -0.000236301 0.100398)
(0.000116221 -0.000116233 0.100894)
(-0.000119389 -0.000190736 0.100385)
(9.57385e-05 -0.000157452 0.100822)
(-9.57182e-05 -0.000157476 0.100822)
(-0.000116223 -0.000116231 0.100894)
(0.000201861 0.000201723 0.100959)
(3.68804e-05 3.68417e-05 0.101294)
(0.0001057 0.000169385 0.100939)
(-0.000105675 0.000169388 0.100939)
(5.1106e-05 8.42868e-05 0.101249)
(-5.1086e-05 8.42776e-05 0.101249)
(-0.000201824 0.000201694 0.100959)
(-3.6851e-05 3.68142e-05 0.101294)
(0.000169371 0.000105701 0.100939)
(0.000169381 -0.000105706 0.100939)
(8.42966e-05 5.10633e-05 0.101249)
(8.43162e-05 -5.10999e-05 0.101249)
(-0.000169358 -0.000105701 0.100939)
(-8.42777e-05 5.10455e-05 0.101249)
(-8.42865e-05 -5.10933e-05 0.101249)
(0.000201781 -0.000201827 0.100959)
(3.689e-05 -3.68379e-05 0.101294)
(-0.000105701 -0.000169361 0.100939)
(5.10763e-05 -8.42846e-05 0.101249)
(-5.10747e-05 -8.43062e-05 0.101249)
(-3.68875e-05 -3.68293e-05 0.101294)
(9.38623e-05 9.37675e-05 0.101305)
(-3.12888e-05 -3.12852e-05 0.101306)
(3.46187e-05 5.54597e-05 0.101286)
(-3.46106e-05 5.54598e-05 0.101286)
(7.42572e-06 1.07002e-05 0.10131)
(-7.42609e-06 1.07082e-05 0.10131)
(-9.38339e-05 9.37473e-05 0.101305)
(3.12961e-05 -3.12842e-05 0.101306)
(5.54942e-05 3.45751e-05 0.101286)
(5.54989e-05 -3.46206e-05 0.101286)
(1.07056e-05 7.39869e-06 0.10131)
(1.07173e-05 -7.42629e-06 0.10131)
(-5.54717e-05 -3.46017e-05 0.101286)
(-1.07046e-05 7.3991e-06 0.10131)
(-1.07127e-05 -7.42374e-06 0.10131)
(9.3818e-05 -9.38378e-05 0.101305)
(-3.12695e-05 3.12995e-05 0.101306)
(-3.45809e-05 -5.54864e-05 0.101286)
(7.40857e-06 -1.07011e-05 0.10131)
(-7.40723e-06 -1.07049e-05 0.10131)
(3.1277e-05 3.1291e-05 0.101306)
(4.01587e-05 4.01271e-05 0.101305)
(-3.70618e-05 -3.70411e-05 0.101302)
(4.08214e-06 5.6844e-06 0.10131)
(-4.08351e-06 5.6943e-06 0.10131)
(8.55676e-07 9.04274e-07 0.101309)
(-8.62453e-07 9.13018e-07 0.101309)
(-4.01547e-05 4.01244e-05 0.101305)
(3.70633e-05 -3.70352e-05 0.101302)
(5.68933e-06 4.0625e-06 0.10131)
(5.69654e-06 -4.08382e-06 0.10131)
(8.96005e-07 8.46263e-07 0.101309)
(9.06266e-07 -8.57065e-07 0.101309)
(-5.6965e-06 -4.08157e-06 0.10131)
(-8.96386e-07 8.48696e-07 0.101309)
(-9.07334e-07 -8.54809e-07 0.101309)
(4.01356e-05 -4.01705e-05 0.101305)
(-3.70376e-05 3.7068e-05 0.101302)
(-4.06641e-06 -5.68556e-06 0.10131)
(8.44607e-07 -8.95242e-07 0.101309)
(-8.45532e-07 -8.95482e-07 0.101309)
(3.70403e-05 3.706e-05 0.101302)
(3.62084e-05 3.61919e-05 0.101301)
(-3.7311e-05 -3.72829e-05 0.101302)
(6.3375e-07 5.6265e-07 0.101309)
(-6.43771e-07 5.74022e-07 0.101309)
(4.63942e-07 2.96875e-07 0.101309)
(-4.77723e-07 3.08022e-07 0.101309)
(-3.62122e-05 3.61955e-05 0.101301)
(3.73066e-05 -3.72721e-05 0.101302)
(5.56095e-07 6.27338e-07 0.101309)
(5.64152e-07 -6.36329e-07 0.101309)
(2.83362e-07 4.60818e-07 0.101309)
(2.95637e-07 -4.66431e-07 0.101309)
(-5.64031e-07 -6.32788e-07 0.101309)
(-2.84313e-07 4.67501e-07 0.101309)
(-2.95483e-07 -4.63047e-07 0.101309)
(3.61901e-05 -3.62244e-05 0.101301)
(-3.72835e-05 3.73158e-05 0.101302)
(-6.24659e-07 -5.52258e-07 0.101309)
(4.55461e-07 -2.83234e-07 0.101309)
(-4.56205e-07 -2.82698e-07 0.101309)
(3.72871e-05 3.73079e-05 0.101302)
(3.60486e-05 3.60381e-05 0.101301)
(-3.73172e-05 -3.72901e-05 0.101302)
(4.55871e-07 2.8661e-07 0.101309)
(-4.69617e-07 2.98892e-07 0.101309)
(4.51453e-07 2.78364e-07 0.101309)
(-4.52652e-07 2.78005e-07 0.101309)
(-3.60573e-05 3.60458e-05 0.101301)
(3.7318e-05 -3.72917e-05 0.101302)
(2.74641e-07 4.52889e-07 0.101309)
(2.84148e-07 -4.57846e-07 0.101309)
(2.65013e-07 4.46978e-07 0.101309)
(2.772e-07 -4.51132e-07 0.101309)
(-2.83331e-07 -4.53495e-07 0.101309)
(-2.63696e-07 4.45455e-07 0.101309)
(-2.76409e-07 -4.49247e-07 0.101309)
(3.60325e-05 -3.60646e-05 0.101301)
(-3.72918e-05 3.73252e-05 0.101302)
(-4.47088e-07 -2.70737e-07 0.101309)
(4.41293e-07 -2.63733e-07 0.101309)
(-4.41185e-07 -2.64344e-07 0.101309)
(3.72959e-05 3.73158e-05 0.101302)
(3.6048e-05 3.60339e-05 0.101301)
(-3.73162e-05 -3.72846e-05 0.101302)
(4.55691e-07 2.79526e-07 0.101309)
(-4.55504e-07 2.82598e-07 0.101309)
(4.60044e-07 2.813e-07 0.101309)
(-4.53097e-07 2.79992e-07 0.101309)
(-3.60462e-05 3.60253e-05 0.101301)
(3.732e-05 -3.72928e-05 0.101302)
(2.68223e-07 4.48886e-07 0.101309)
(2.76618e-07 -4.50968e-07 0.101309)
(2.64299e-07 4.48698e-07 0.101309)
(2.76033e-07 -4.50109e-07 0.101309)
(-2.74638e-07 -4.48855e-07 0.101309)
(-2.62988e-07 4.44825e-07 0.101309)
(-2.74342e-07 -4.49755e-07 0.101309)
(3.60274e-05 -3.60586e-05 0.101301)
(-3.72924e-05 3.7326e-05 0.101302)
(-4.40241e-07 -2.63118e-07 0.101309)
(4.40828e-07 -2.62561e-07 0.101309)
(-4.39404e-07 -2.63273e-07 0.101309)
(3.72976e-05 3.73159e-05 0.101302)
(3.60463e-05 3.60322e-05 0.101301)
(-3.73175e-05 -3.7295e-05 0.101302)
(4.54419e-07 2.7688e-07 0.101309)
(-4.52747e-07 2.78058e-07 0.101309)
(4.53806e-07 2.74631e-07 0.101309)
(-4.53174e-07 2.75423e-07 0.101309)
(-3.60453e-05 3.60251e-05 0.101301)
(3.73198e-05 -3.72952e-05 0.101302)
(2.66501e-07 4.4539e-07 0.101309)
(2.75391e-07 -4.50364e-07 0.101309)
(2.63694e-07 4.43303e-07 0.101309)
(2.75062e-07 -4.50456e-07 0.101309)
(-2.73146e-07 -4.49182e-07 0.101309)
(-2.62581e-07 4.42833e-07 0.101309)
(-2.73182e-07 -4.49921e-07 0.101309)
(3.60265e-05 -3.60578e-05 0.101301)
(-3.7293e-05 3.73257e-05 0.101302)
(-4.38973e-07 -2.62597e-07 0.101309)
(4.39948e-07 -2.61738e-07 0.101309)
(-4.38886e-07 -2.62729e-07 0.101309)
(3.7298e-05 3.73158e-05 0.101302)
(3.60456e-05 3.60253e-05 0.101301)
(-3.7317e-05 -3.72927e-05 0.101302)
(4.52237e-07 2.73885e-07 0.101309)
(-4.52999e-07 2.76957e-07 0.101309)
(4.55526e-07 2.76671e-07 0.101309)
(-4.53791e-07 2.73865e-07 0.101309)
(-3.60454e-05 3.6023e-05 0.101301)
(3.73216e-05 -3.72936e-05 0.101302)
(2.66454e-07 4.43507e-07 0.101309)
(2.7521e-07 -4.50779e-07 0.101309)
(2.64582e-07 4.44602e-07 0.101309)
(2.76523e-07 -4.50946e-07 0.101309)
(-2.72189e-07 -4.4899e-07 0.101309)
(-2.63643e-07 4.44417e-07 0.101309)
(-2.74086e-07 -4.50414e-07 0.101309)
(3.6026e-05 -3.6058e-05 0.101301)
(-3.72919e-05 3.73252e-05 0.101302)
(-4.38099e-07 -2.61822e-07 0.101309)
(4.40898e-07 -2.62716e-07 0.101309)
(-4.39204e-07 -2.63719e-07 0.101309)
(3.72976e-05 3.73153e-05 0.101302)
(3.60474e-05 3.60289e-05 0.101301)
(-3.7313e-05 -3.72751e-05 0.101302)
(4.56704e-07 2.78495e-07 0.101309)
(-4.5326e-07 2.83264e-07 0.101309)
(4.64685e-07 2.88252e-07 0.101309)
(-4.52964e-07 2.74578e-07 0.101309)
(-3.60451e-05 3.60248e-05 0.101301)
(3.73275e-05 -3.72933e-05 0.101302)
(2.68236e-07 4.47136e-07 0.101309)
(2.7671e-07 -4.5116e-07 0.101309)
(2.65365e-07 4.53273e-07 0.101309)
(2.76527e-07 -4.4946e-07 0.101309)
(-2.72831e-07 -4.49659e-07 0.101309)
(-2.61989e-07 4.44424e-07 0.101309)
(-2.7338e-07 -4.50352e-07 0.101309)
(3.60276e-05 -3.60588e-05 0.101301)
(-3.72925e-05 3.73267e-05 0.101302)
(-4.38816e-07 -2.62899e-07 0.101309)
(4.40742e-07 -2.61815e-07 0.101309)
(-4.39018e-07 -2.63483e-07 0.101309)
(3.72982e-05 3.73155e-05 0.101302)
(3.60504e-05 3.60455e-05 0.101301)
(-3.73124e-05 -3.72909e-05 0.101302)
(4.64563e-07 2.87209e-07 0.101309)
(-4.52912e-07 2.84627e-07 0.101309)
(4.57643e-07 2.76725e-07 0.101309)
(-4.54581e-07 2.70358e-07 0.101309)
(-3.6042e-05 3.60226e-05 0.101301)
(3.73239e-05 -3.72936e-05 0.101302)
(2.67234e-07 4.51668e-07 0.101309)
(2.75891e-07 -4.49385e-07 0.101309)
(2.64865e-07 4.4368e-07 0.101309)
(2.75195e-07 -4.50341e-07 0.101309)
(-2.71833e-07 -4.49027e-07 0.101309)
(-2.61718e-07 4.42022e-07 0.101309)
(-2.72284e-07 -4.50923e-07 0.101309)
(3.60261e-05 -3.60568e-05 0.101301)
(-3.72916e-05 3.73242e-05 0.101302)
(-4.37583e-07 -2.6183e-07 0.101309)
(4.4007e-07 -2.62104e-07 0.101309)
(-4.37743e-07 -2.6332e-07 0.101309)
(3.72976e-05 3.73134e-05 0.101302)
(3.60445e-05 3.60219e-05 0.101301)
(-3.73081e-05 -3.72903e-05 0.101302)
(4.54117e-07 2.71786e-07 0.101309)
(-4.4904e-07 2.74365e-07 0.101309)
(4.46596e-07 2.49908e-07 0.101309)
(-3.60352e-05 3.6011e-05 0.101301)
(2.66576e-07 4.4215e-07 0.101309)
(2.74004e-07 -4.50829e-07 0.101309)
(2.46496e-07 4.30102e-07 0.101309)
(2.56751e-07 -4.42111e-07 0.101309)
(-2.69939e-07 -4.50143e-07 0.101309)
(-2.53823e-07 -4.43179e-07 0.101309)
(3.60221e-05 -3.60541e-05 0.101301)
(-3.72868e-05 3.73186e-05 0.101302)
(-4.3639e-07 -2.6197e-07 0.101309)
(4.30579e-07 -2.44305e-07 0.101309)
(-4.27325e-07 -2.47496e-07 0.101309)
(3.72924e-05 3.73071e-05 0.101302)
(-4.0441e-07 -4.06914e-07 0.0999986)
(1.67737e-05 1.6769e-05 0.100003)
(-4.89681e-07 1.37217e-05 0.1)
(1.37296e-05 -4.92029e-07 0.1)
(-4.71868e-05 5.70463e-06 0.100008)
(-1.5433e-05 1.58282e-05 0.0999999)
(-0.000128209 6.04967e-05 0.100057)
(-1.31229e-05 -8.87074e-07 0.0999956)
(5.6987e-06 -4.71727e-05 0.100008)
(1.58333e-05 -1.54342e-05 0.0999999)
(-8.84217e-07 -1.3122e-05 0.0999956)
(6.0511e-05 -0.000128139 0.100057)
(-1.9418e-05 -1.94211e-05 0.100003)
(-0.000135173 -8.11094e-05 0.100054)
(-8.11177e-05 -0.000135153 0.100054)
(-3.47086e-05 0.000137987 0.100716)
(0.000176327 0.000385462 0.0994269)
(2.57495e-06 0.000302883 0.100524)
(-8.62064e-05 0.000250141 0.0991291)
(-0.000301932 0.000835184 0.097786)
(-0.000136102 0.000311939 0.0957046)
(0.000137712 -3.48437e-05 0.100716)
(0.000386078 0.000175276 0.0994277)
(0.000303622 2.436e-06 0.100524)
(0.000250277 -8.61077e-05 0.0991297)
(-0.000108287 0.000108238 0.1003)
(0.000108274 -0.000108282 0.1003)
(-0.000108267 -0.00010829 0.1003)
(8.78487e-05 8.77981e-05 0.100732)
(-8.78098e-05 8.78102e-05 0.100732)
(8.78487e-05 -8.78508e-05 0.100732)
(-8.78308e-05 -8.78583e-05 0.100732)
(-0.000283682 6.66186e-06 0.100751)
(-0.000393274 0.000228378 0.100534)
(-0.000174997 3.75227e-05 0.100333)
(-0.000154247 9.52883e-05 0.100556)
(-0.00035602 1.5715e-05 0.100481)
(-0.000154911 0.000200304 0.10073)
(-0.000150591 3.26535e-05 0.100496)
(0.000834165 -0.00030008 0.0977851)
(0.000311919 -0.000135673 0.0957048)
(6.61482e-06 -0.000283607 0.100751)
(3.75556e-05 -0.00017498 0.100333)
(0.000228457 -0.000393245 0.100534)
(9.52013e-05 -0.000154219 0.100556)
(1.57126e-05 -0.000355895 0.100481)
(3.27128e-05 -0.000150569 0.100496)
(0.000200374 -0.00015495 0.10073)
(-0.000369809 -0.000140167 0.100376)
(-0.000140367 -0.000370062 0.100377)
(-0.000114929 -0.000115031 0.100655)
(5.46282e-06 -8.19273e-05 0.100575)
(-8.21916e-05 5.47124e-06 0.100575)
(-2.23373e-05 0.000200427 0.100882)
(-5.64335e-05 0.000300391 0.0983664)
(-1.93751e-05 0.000209955 0.100778)
(-5.23358e-05 0.0002571 0.0979176)
(-0.00015868 0.000326149 0.0926858)
(-0.000131307 0.000255653 0.0908835)
(0.000200379 -2.25155e-05 0.100882)
(0.00030063 -5.63074e-05 0.0983667)
(0.000209959 -1.95084e-05 0.100778)
(0.000257223 -5.22554e-05 0.0979179)
(-9.7101e-05 9.71219e-05 0.100852)
(9.71555e-05 -9.71455e-05 0.100852)
(-9.71333e-05 -9.71428e-05 0.100852)
(6.32876e-05 6.32395e-05 0.101188)
(-6.32647e-05 6.32566e-05 0.101188)
(6.32876e-05 -6.32912e-05 0.101188)
(-6.32794e-05 -6.32911e-05 0.101188)
(-0.000256635 1.07579e-05 0.101157)
(-0.000224093 0.000220933 0.100839)
(-0.000178112 3.23398e-05 0.10089)
(-0.00014819 8.97186e-05 0.101068)
(-0.000303715 1.44057e-05 0.100974)
(-0.000169669 0.000185724 0.100942)
(-0.000164306 3.19061e-05 0.10102)
(0.000326163 -0.000158434 0.0926854)
(0.000255735 -0.000131151 0.0908838)
(1.083e-05 -0.000256599 0.101157)
(3.24101e-05 -0.000178113 0.10089)
(0.000220979 -0.00022415 0.100839)
(8.97303e-05 -0.000148191 0.101068)
(1.4491e-05 -0.00030369 0.100974)
(3.19767e-05 -0.000164298 0.10102)
(0.000185699 -0.000169628 0.100942)
(-9.11316e-05 -0.000100333 0.10047)
(-0.000100427 -9.11427e-05 0.10047)
(-0.000107511 -0.000107519 0.101148)
(-7.82832e-05 -7.50479e-05 0.100432)
(-7.51815e-05 -7.83586e-05 0.100432)
(-6.24021e-06 -1.89885e-06 0.10076)
(-2.86149e-05 9.36227e-05 0.0975369)
(-1.62344e-05 4.5113e-05 0.100821)
(-1.27192e-05 1.61483e-05 0.0975094)
(-3.08196e-05 2.56851e-05 0.0897593)
(-1.00187e-05 -4.5893e-06 0.0897599)
(-1.91941e-06 -6.27392e-06 0.100759)
(9.37602e-05 -2.86381e-05 0.0975369)
(4.51965e-05 -1.63075e-05 0.100821)
(1.6202e-05 -1.27737e-05 0.0975092)
(-4.3856e-05 4.38402e-05 0.101244)
(4.38727e-05 -4.388e-05 0.101244)
(-4.38661e-05 -4.38811e-05 0.101244)
(8.96054e-06 8.94499e-06 0.101304)
(-8.95558e-06 8.94471e-06 0.101304)
(8.96052e-06 -8.96354e-06 0.101304)
(-8.96021e-06 -8.96717e-06 0.101304)
(-1.12466e-05 1.51713e-06 0.101236)
(-4.79563e-05 4.63573e-05 0.100928)
(-6.3455e-05 1.58164e-05 0.101265)
(-3.40285e-05 2.20244e-05 0.101302)
(-8.71337e-05 3.37877e-06 0.101253)
(-2.21518e-06 8.42152e-06 0.100885)
(-3.85504e-05 1.03602e-05 0.10129)
(2.56364e-05 -3.06797e-05 0.0897579)
(-4.52008e-06 -1.00532e-05 0.0897597)
(1.55757e-06 -1.12329e-05 0.101236)
(1.58616e-05 -6.34507e-05 0.101265)
(4.64087e-05 -4.79165e-05 0.100928)
(2.20439e-05 -3.40212e-05 0.101302)
(3.4194e-06 -8.70843e-05 0.101253)
(1.03938e-05 -3.85443e-05 0.10129)
(8.4216e-06 -2.17469e-06 0.100884)
(1.68959e-06 3.26406e-07 0.100249)
(2.86885e-07 1.65928e-06 0.100248)
(1.34147e-05 1.34311e-05 0.101311)
(5.67218e-06 7.37805e-06 0.100156)
(7.37189e-06 5.65915e-06 0.100156)
(-7.15432e-08 -6.12004e-06 0.100726)
(-1.23678e-08 5.34722e-06 0.0975033)
(-4.63919e-07 6.74681e-06 0.100728)
(-8.40645e-07 -5.23035e-06 0.0975063)
(-2.98173e-06 5.93406e-07 0.0897781)
(7.84434e-07 -1.82669e-06 0.0897816)
(-6.15984e-06 -7.45438e-08 0.100726)
(5.36061e-06 -3.88745e-08 0.0975032)
(6.78089e-06 -4.63305e-07 0.100728)
(-5.22678e-06 -8.3073e-07 0.0975061)
(-4.61178e-06 4.60501e-06 0.101309)
(4.6153e-06 -4.61754e-06 0.101309)
(-4.61445e-06 -4.62101e-06 0.101309)
(2.63598e-07 2.65692e-07 0.101313)
(-2.66946e-07 2.66898e-07 0.101313)
(2.67152e-07 -2.65748e-07 0.101313)
(-2.69159e-07 -2.67946e-07 0.101313)
(9.83943e-06 4.05648e-08 0.101217)
(-1.18518e-05 4.44005e-06 0.100848)
(-6.27892e-06 1.68017e-06 0.101311)
(-2.98881e-06 2.24667e-06 0.10131)
(-1.41513e-05 2.85619e-07 0.101219)
(8.77758e-06 -2.6866e-06 0.100846)
(-3.28539e-06 7.73267e-07 0.101312)
(5.26081e-07 -2.92544e-06 0.0897765)
(-1.73095e-06 7.34308e-07 0.0897811)
(5.16309e-08 9.84397e-06 0.101217)
(1.68931e-06 -6.27855e-06 0.101311)
(4.48108e-06 -1.18789e-05 0.100848)
(2.24828e-06 -2.98694e-06 0.10131)
(2.86888e-07 -1.41549e-05 0.101219)
(7.77505e-07 -3.2818e-06 0.101312)
(-2.70463e-06 8.80292e-06 0.100846)
(-3.63531e-06 -4.33843e-06 0.100101)
(-4.32566e-06 -3.62968e-06 0.100101)
(3.59919e-05 3.60086e-05 0.101303)
(2.81899e-06 3.32709e-06 0.100099)
(3.32273e-06 2.81438e-06 0.100098)
(-1.16726e-08 -6.39536e-06 0.100725)
(7.03748e-07 5.19452e-06 0.0975024)
(-1.66116e-08 6.3445e-06 0.100724)
(-8.28722e-07 -5.11906e-06 0.0975056)
(-1.3619e-06 1.5396e-06 0.0897781)
(1.106e-06 -1.50648e-06 0.0897812)
(-6.43435e-06 -5.20907e-09 0.100725)
(5.17241e-06 6.83332e-07 0.0975022)
(6.38025e-06 1.49849e-10 0.100724)
(-5.09959e-06 -7.92145e-07 0.0975056)
(6.86521e-08 -6.61703e-08 0.101313)
(-6.95673e-08 7.10473e-08 0.101313)
(6.72221e-08 6.94835e-08 0.101313)
(-3.63938e-07 -3.55594e-07 0.101313)
(3.55361e-07 -3.50369e-07 0.101313)
(-3.59217e-07 3.61538e-07 0.101313)
(3.56609e-07 3.60649e-07 0.101313)
(1.08991e-05 -2.80234e-08 0.101216)
(-9.98735e-06 3.02914e-06 0.100843)
(-6.34747e-07 -3.82408e-08 0.101313)
(-3.89341e-07 5.33288e-07 0.101309)
(-1.11999e-05 3.83385e-08 0.101216)
(9.50216e-06 -3.09123e-06 0.100845)
(-4.66529e-07 -9.01635e-08 0.101313)
(1.47601e-06 -1.30714e-06 0.0897765)
(-1.50041e-06 1.14934e-06 0.0897807)
(-2.46557e-08 1.0904e-05 0.101216)
(-4.30266e-08 -6.34745e-07 0.101313)
(3.05026e-06 -1.00157e-05 0.100843)
(5.21312e-07 -3.85682e-07 0.101309)
(3.00029e-08 -1.12055e-05 0.101216)
(-9.75777e-08 -4.61034e-07 0.101313)
(-3.12413e-06 9.52746e-06 0.100845)
(-3.2172e-06 -3.84093e-06 0.100094)
(-3.83223e-06 -3.21102e-06 0.100094)
(3.72493e-05 3.72701e-05 0.101302)
(3.06581e-06 3.65403e-06 0.100097)
(3.64526e-06 3.06384e-06 0.100097)
(-1.36243e-08 -6.40958e-06 0.100725)
(7.00387e-07 5.23768e-06 0.0975025)
(-1.83994e-08 6.29282e-06 0.100723)
(-8.43328e-07 -5.12128e-06 0.0975055)
(-1.35487e-06 1.61208e-06 0.0897779)
(1.08079e-06 -1.45543e-06 0.0897813)
(-6.44902e-06 -3.61068e-09 0.100725)
(5.19685e-06 6.71871e-07 0.0975021)
(6.32848e-06 4.13899e-09 0.100724)
(-5.09016e-06 -7.95445e-07 0.0975056)
(3.73455e-07 -3.68918e-07 0.101313)
(-3.77498e-07 3.80013e-07 0.101313)
(3.75029e-07 3.79367e-07 0.101313)
(-3.94512e-07 -3.87821e-07 0.101313)
(3.89649e-07 -3.86966e-07 0.101313)
(-3.91405e-07 3.94652e-07 0.101313)
(3.89461e-07 3.92916e-07 0.101313)
(1.09446e-05 -2.92225e-08 0.101216)
(-9.87179e-06 2.98743e-06 0.100842)
(-3.4114e-07 -1.23532e-07 0.101313)
(-2.68528e-07 4.57727e-07 0.101309)
(-1.1044e-05 3.35003e-08 0.101216)
(9.53847e-06 -3.10293e-06 0.100845)
(-3.33639e-07 -1.25457e-07 0.101313)
(1.504e-06 -1.25802e-06 0.0897764)
(-1.49006e-06 1.16451e-06 0.0897807)
(-2.63808e-08 1.09502e-05 0.101216)
(-1.33313e-07 -3.38511e-07 0.101313)
(3.0007e-06 -9.90229e-06 0.100842)
(4.42765e-07 -2.66552e-07 0.101309)
(2.12971e-08 -1.10501e-05 0.101216)
(-1.34534e-07 -3.26704e-07 0.101313)
(-3.13707e-06 9.56144e-06 0.100845)
(-3.17936e-06 -3.78054e-06 0.100094)
(-3.77456e-06 -3.1726e-06 0.100094)
(3.72962e-05 3.7317e-05 0.101302)
(3.07669e-06 3.67502e-06 0.100097)
(3.66559e-06 3.07433e-06 0.100096)
(4.4434e-09 -6.41073e-06 0.100725)
(7.08696e-07 5.23639e-06 0.0975025)
(-3.4548e-09 6.28997e-06 0.100723)
(-7.9799e-07 -5.11822e-06 0.0975054)
(-1.33572e-06 1.61632e-06 0.089778)
(1.21448e-06 -1.58432e-06 0.0897811)
(-6.44953e-06 -2.59784e-09 0.100725)
(5.19845e-06 6.71774e-07 0.0975021)
(6.32625e-06 5.26947e-09 0.100724)
(-5.08994e-06 -7.92444e-07 0.0975056)
(3.92654e-07 -3.90828e-07 0.101313)
(-3.91878e-07 3.95635e-07 0.101313)
(3.90761e-07 3.9366e-07 0.101313)
(-3.93139e-07 -3.88521e-07 0.101313)
(3.95176e-07 -3.92369e-07 0.101313)
(-3.92604e-07 3.9628e-07 0.101313)
(3.92139e-07 3.93908e-07 0.101313)
(1.09467e-05 -3.27937e-08 0.101216)
(-9.86922e-06 2.97696e-06 0.100842)
(-3.28437e-07 -1.3065e-07 0.101313)
(-2.64271e-07 4.46675e-07 0.101309)
(-1.10384e-05 3.02793e-08 0.101216)
(9.53777e-06 -3.11067e-06 0.100845)
(-3.27279e-07 -1.31738e-07 0.101313)
(1.505e-06 -1.25475e-06 0.0897764)
(-1.48965e-06 1.1656e-06 0.0897807)
(-2.57738e-08 1.0952e-05 0.101216)
(-1.34473e-07 -3.27428e-07 0.101313)
(2.99927e-06 -9.89816e-06 0.100842)
(4.40473e-07 -2.62453e-07 0.101309)
(2.18834e-08 -1.10445e-05 0.101216)
(-1.34529e-07 -3.2188e-07 0.101313)
(-3.13757e-06 9.56321e-06 0.100845)
(-3.17698e-06 -3.77653e-06 0.100094)
(-3.76976e-06 -3.17113e-06 0.100094)
(3.72986e-05 3.73174e-05 0.101302)
(3.07826e-06 3.67597e-06 0.100097)
(3.66791e-06 3.07495e-06 0.100096)
(-2.95271e-09 -6.41352e-06 0.100725)
(6.98267e-07 5.23421e-06 0.0975025)
(-1.01597e-09 6.28918e-06 0.100723)
(-8.27144e-07 -5.11902e-06 0.0975055)
(-1.30887e-06 1.58633e-06 0.089778)
(1.2208e-06 -1.59106e-06 0.0897811)
(-6.45034e-06 -4.53546e-09 0.100725)
(5.19437e-06 6.70505e-07 0.0975021)
(6.32503e-06 4.65965e-09 0.100724)
(-5.08571e-06 -7.96704e-07 0.0975056)
(3.95602e-07 -3.93311e-07 0.101313)
(-3.92814e-07 3.96418e-07 0.101313)
(3.92515e-07 3.94081e-07 0.101313)
(-3.95684e-07 -3.93233e-07 0.101313)
(3.95971e-07 -3.94173e-07 0.101313)
(-3.9277e-07 3.957e-07 0.101313)
(3.92383e-07 3.93399e-07 0.101313)
(1.0948e-05 -3.37809e-08 0.101216)
(-9.8685e-06 2.97566e-06 0.100842)
(-3.27041e-07 -1.32348e-07 0.101313)
(-2.62379e-07 4.43257e-07 0.101309)
(-1.10374e-05 2.84372e-08 0.101216)
(9.53794e-06 -3.1132e-06 0.100845)
(-3.25279e-07 -1.32835e-07 0.101313)
(1.50544e-06 -1.25473e-06 0.0897764)
(-1.48972e-06 1.16561e-06 0.0897807)
(-2.59593e-08 1.09543e-05 0.101216)
(-1.34069e-07 -3.26813e-07 0.101313)
(2.99902e-06 -9.89723e-06 0.100842)
(4.40014e-07 -2.62171e-07 0.101309)
(2.22645e-08 -1.10443e-05 0.101216)
(-1.34351e-07 -3.21632e-07 0.101313)
(-3.13739e-06 9.56395e-06 0.100845)
(-3.17538e-06 -3.77823e-06 0.100094)
(-3.76996e-06 -3.17068e-06 0.100094)
(3.72998e-05 3.73179e-05 0.101302)
(3.07912e-06 3.67487e-06 0.100097)
(3.668e-06 3.07524e-06 0.100096)
(-6.49526e-10 -6.41143e-06 0.100725)
(7.05509e-07 5.22694e-06 0.0975025)
(-5.63697e-09 6.28971e-06 0.100723)
(-8.39412e-07 -5.11369e-06 0.0975055)
(-1.30864e-06 1.59282e-06 0.089778)
(1.22017e-06 -1.5885e-06 0.0897811)
(-6.44808e-06 -4.53607e-09 0.100725)
(5.19043e-06 6.65887e-07 0.0975021)
(6.32723e-06 3.46058e-09 0.100724)
(-5.0763e-06 -7.92244e-07 0.0975056)
(3.95636e-07 -3.94105e-07 0.101313)
(-3.9263e-07 3.95689e-07 0.101313)
(3.92471e-07 3.93537e-07 0.101313)
(-3.94748e-07 -3.91575e-07 0.101313)
(3.95801e-07 -3.92518e-07 0.101313)
(-3.91951e-07 3.95338e-07 0.101313)
(3.92227e-07 3.9317e-07 0.101313)
(1.09466e-05 -3.38899e-08 0.101216)
(-9.87006e-06 2.97589e-06 0.100842)
(-3.25897e-07 -1.32881e-07 0.101313)
(-2.63063e-07 4.4286e-07 0.101309)
(-1.10379e-05 2.81391e-08 0.101216)
(9.53616e-06 -3.11325e-06 0.100845)
(-3.25023e-07 -1.32957e-07 0.101313)
(1.50542e-06 -1.25515e-06 0.0897764)
(-1.48967e-06 1.16536e-06 0.0897807)
(-2.70323e-08 1.09549e-05 0.101216)
(-1.34076e-07 -3.25691e-07 0.101313)
(2.99925e-06 -9.8988e-06 0.100842)
(4.39446e-07 -2.62131e-07 0.101309)
(2.37153e-08 -1.10475e-05 0.101216)
(-1.34274e-07 -3.20689e-07 0.101313)
(-3.13706e-06 9.56257e-06 0.100845)
(-3.17661e-06 -3.77924e-06 0.100094)
(-3.77057e-06 -3.17199e-06 0.100094)
(3.72998e-05 3.73176e-05 0.101302)
(3.07786e-06 3.67413e-06 0.100097)
(3.66724e-06 3.07386e-06 0.100096)
(6.80852e-09 -6.4115e-06 0.100725)
(7.06305e-07 5.21827e-06 0.0975025)
(-2.58219e-09 6.29027e-06 0.100723)
(-8.10448e-07 -5.11662e-06 0.0975055)
(-1.30899e-06 1.59456e-06 0.089778)
(1.22683e-06 -1.60134e-06 0.0897811)
(-6.45011e-06 -2.67955e-09 0.100725)
(5.1839e-06 6.65288e-07 0.097502)
(6.32686e-06 4.68427e-09 0.100724)
(-5.07531e-06 -7.84147e-07 0.0975056)
(3.95541e-07 -3.91531e-07 0.101313)
(-3.91703e-07 3.95639e-07 0.101313)
(3.92401e-07 3.93474e-07 0.101313)
(-3.91598e-07 -3.8567e-07 0.101313)
(3.97544e-07 -3.89198e-07 0.101313)
(-3.91869e-07 3.96648e-07 0.101313)
(3.92677e-07 3.93722e-07 0.101313)
(1.09485e-05 -3.39339e-08 0.101216)
(-9.87001e-06 2.97729e-06 0.100842)
(-3.26294e-07 -1.32218e-07 0.101313)
(-2.63177e-07 4.45222e-07 0.101309)
(-1.10377e-05 2.84465e-08 0.101216)
(9.53949e-06 -3.1155e-06 0.100845)
(-3.25157e-07 -1.32393e-07 0.101313)
(1.50552e-06 -1.25499e-06 0.0897764)
(-1.49329e-06 1.16713e-06 0.0897807)
(-2.70066e-08 1.09566e-05 0.101216)
(-1.33693e-07 -3.26727e-07 0.101313)
(2.99972e-06 -9.89882e-06 0.100842)
(4.40505e-07 -2.62216e-07 0.101309)
(2.32937e-08 -1.10466e-05 0.101216)
(-1.3381e-07 -3.21058e-07 0.101313)
(-3.13779e-06 9.56426e-06 0.100845)
(-3.17618e-06 -3.77903e-06 0.100094)
(-3.77082e-06 -3.17155e-06 0.100094)
(3.72997e-05 3.73172e-05 0.101302)
(3.07791e-06 3.67562e-06 0.100097)
(3.66832e-06 3.074e-06 0.100096)
(4.99651e-09 -6.40538e-06 0.100725)
(8.02065e-07 5.27112e-06 0.0975026)
(1.34632e-08 6.2937e-06 0.100723)
(-8.69042e-07 -5.12644e-06 0.0975054)
(-1.31886e-06 1.6217e-06 0.0897782)
(1.21836e-06 -1.5889e-06 0.0897809)
(-6.4445e-06 -1.79786e-09 0.100725)
(5.1983e-06 6.65702e-07 0.0975021)
(6.3286e-06 7.63149e-09 0.100724)
(-5.0709e-06 -8.0029e-07 0.0975056)
(3.97448e-07 -3.89408e-07 0.101313)
(-3.91857e-07 3.96641e-07 0.101313)
(3.92771e-07 3.93844e-07 0.101313)
(-3.95397e-07 -3.94762e-07 0.101313)
(3.98613e-07 -3.91989e-07 0.101313)
(-3.92909e-07 3.96413e-07 0.101313)
(3.93709e-07 3.93103e-07 0.101313)
(1.09426e-05 -3.4178e-08 0.101216)
(-9.86869e-06 2.97563e-06 0.100842)
(-3.24909e-07 -1.32452e-07 0.101313)
(-2.61338e-07 4.42864e-07 0.101309)
(-1.1039e-05 2.7723e-08 0.101216)
(9.52558e-06 -3.10465e-06 0.100845)
(-3.23491e-07 -1.33204e-07 0.101313)
(1.53607e-06 -1.27231e-06 0.0897766)
(-1.50577e-06 1.17402e-06 0.0897805)
(-2.61825e-08 1.09511e-05 0.101216)
(-1.33611e-07 -3.25718e-07 0.101313)
(3.00322e-06 -9.9006e-06 0.100842)
(4.40011e-07 -2.61671e-07 0.101309)
(2.37656e-08 -1.10481e-05 0.101216)
(-1.33793e-07 -3.20507e-07 0.101313)
(-3.13211e-06 9.55678e-06 0.100845)
(-3.17166e-06 -3.78387e-06 0.100094)
(-3.77519e-06 -3.16728e-06 0.100094)
(3.72983e-05 3.73151e-05 0.101302)
(3.06967e-06 3.6695e-06 0.100097)
(3.66333e-06 3.06515e-06 0.100096)
(1.11825e-08 -6.40851e-06 0.100725)
(7.10276e-07 5.24401e-06 0.0975026)
(4.61635e-09 6.28417e-06 0.100723)
(-8.25463e-07 -5.11844e-06 0.0975054)
(-1.28802e-06 1.57707e-06 0.0897782)
(1.21494e-06 -1.56916e-06 0.089781)
(-6.43918e-06 -3.67317e-09 0.100725)
(5.19398e-06 6.70861e-07 0.0975021)
(6.32456e-06 4.29699e-09 0.100724)
(-5.06569e-06 -7.9065e-07 0.0975056)
(4.01722e-07 -3.93955e-07 0.101313)
(-3.94412e-07 3.97429e-07 0.101313)
(3.95877e-07 3.93165e-07 0.101313)
(-4.03808e-07 -4.09708e-07 0.101313)
(4.22656e-07 -4.05554e-07 0.101313)
(-4.0405e-07 4.0717e-07 0.101313)
(4.07298e-07 3.99542e-07 0.101313)
(1.09466e-05 -3.97477e-08 0.101216)
(-9.86148e-06 2.96305e-06 0.100842)
(-3.22598e-07 -1.36537e-07 0.101313)
(-2.57567e-07 4.36659e-07 0.101309)
(-1.1035e-05 2.5368e-08 0.101216)
(9.53123e-06 -3.12561e-06 0.100845)
(-3.15268e-07 -1.37797e-07 0.101313)
(1.53449e-06 -1.27852e-06 0.0897766)
(-1.45663e-06 1.13856e-06 0.0897806)
(-2.53931e-08 1.09535e-05 0.101216)
(-1.34e-07 -3.24368e-07 0.101313)
(3.00206e-06 -9.89886e-06 0.100842)
(4.34526e-07 -2.54549e-07 0.101309)
(2.46544e-08 -1.10449e-05 0.101216)
(-1.34009e-07 -3.11613e-07 0.101313)
(-3.12571e-06 9.5503e-06 0.100845)
(-3.19063e-06 -3.78182e-06 0.100094)
(-3.77096e-06 -3.18812e-06 0.100094)
(3.72943e-05 3.73094e-05 0.101302)
(3.07013e-06 3.66338e-06 0.100097)
(3.65979e-06 3.06415e-06 0.100096)
(1.94237e-05 1.94118e-05 0.100003)
(8.10945e-05 0.000135152 0.100054)
(0.000135212 8.1107e-05 0.100054)
(0.000414907 0.00104453 0.0978719)
(0.000115172 0.000204399 0.100125)
(0.00104364 0.000412307 0.0978721)
(0.000204546 0.000115199 0.100125)
(0.000101319 0.000101283 0.100042)
(0.00012018 0.000518823 0.100267)
(0.000517708 0.000119818 0.100267)
(0.000117173 0.000180155 0.100097)
(0.000180295 0.000117192 0.100097)
(5.7021e-06 4.71563e-05 0.100008)
(1.58363e-05 1.54321e-05 0.0999999)
(6.05003e-05 0.000128144 0.100057)
(-8.82962e-07 1.31136e-05 0.0999956)
(-5.71442e-06 4.71656e-05 0.100008)
(-1.58336e-05 1.54275e-05 0.0999999)
(-6.0473e-05 0.000128133 0.100057)
(8.83218e-07 1.31148e-05 0.0999956)
(4.59813e-06 0.000154679 0.100054)
(0.000326899 0.000320594 0.0993437)
(9.83144e-05 0.000167522 0.100057)
(6.8212e-06 0.000331564 0.100415)
(-4.63729e-06 0.000154694 0.100054)
(-0.000326369 0.000321329 0.099344)
(-9.82554e-05 0.000167481 0.100057)
(-6.81684e-06 0.000331669 0.100415)