/*--------------------------------*- C++ -*----------------------------------*\
| =========                 |                                                 |
| \\      /  F ield         | OpenFOAM: The Open Source CFD Toolbox           |
|  \\    /   O peration     | Version:  2206                                  |
|   \\  /    A nd           | Website:  www.openfoam.com                      |
|    \\/     M anipulation  |                                                 |
\*---------------------------------------------------------------------------*/
FoamFile
{
    version     2.0;
    format      ascii;
    arch        "LSB;label=32;scalar=64";
    class       volScalarField;
    location    "17";
    object      epsilon;
}
// * * * * * * * * * * * * * * * * * * * * * * * * * * * * * * * * * * * * * //

dimensions      [0 2 -3 0 0 0 0];

internalField   nonuniform List<scalar> 
28897
(
3.55854e-07
3.72692e-07
3.72693e-07
3.97005e-07
3.55856e-07
3.72694e-07
3.72696e-07
3.97014e-07
3.55851e-07
3.72695e-07
3.72693e-07
3.9702e-07
3.55813e-07
3.72677e-07
3.72663e-07
3.97013e-07
3.55672e-07
3.72542e-07
3.7254e-07
3.9689e-07
3.55662e-07
3.72527e-07
3.72533e-07
3.96888e-07
3.55662e-07
3.72526e-07
3.72532e-07
3.96887e-07
3.55662e-07
3.72526e-07
3.72532e-07
3.9689e-07
3.55662e-07
3.72526e-07
3.72532e-07
3.9689e-07
3.55662e-07
3.72526e-07
3.72532e-07
3.96889e-07
3.55662e-07
3.72526e-07
3.72533e-07
3.96889e-07
3.55662e-07
3.72526e-07
3.72533e-07
3.96889e-07
3.55662e-07
3.72526e-07
3.72533e-07
3.96889e-07
3.55662e-07
3.72526e-07
3.72533e-07
3.96889e-07
3.55662e-07
3.72526e-07
3.72533e-07
3.96889e-07
3.55662e-07
3.72526e-07
3.72533e-07
3.96889e-07
3.55662e-07
3.72526e-07
3.72533e-07
3.96889e-07
3.55665e-07
3.72529e-07
3.72536e-07
3.96889e-07
3.96802e-07
3.72701e-07
3.72703e-07
3.96801e-07
3.7269e-07
3.7271e-07
3.72692e-07
3.72702e-07
3.96809e-07
3.72693e-07
3.72693e-07
3.96806e-07
3.97003e-07
3.96812e-07
3.72705e-07
3.72707e-07
3.72704e-07
3.72707e-07
3.97006e-07
3.96814e-07
3.72694e-07
3.72714e-07
3.72694e-07
3.72713e-07
3.72706e-07
3.72694e-07
3.72705e-07
3.9701e-07
3.9682e-07
3.72697e-07
3.72696e-07
3.72696e-07
3.96817e-07
3.97013e-07
3.96818e-07
3.72707e-07
3.72711e-07
3.72705e-07
3.72709e-07
3.97015e-07
3.96817e-07
3.72697e-07
3.72717e-07
3.72694e-07
3.72714e-07
3.72708e-07
3.72696e-07
3.72706e-07
3.97019e-07
3.96824e-07
3.727e-07
3.72693e-07
3.72697e-07
3.96823e-07
3.97018e-07
3.96815e-07
3.72705e-07
3.72711e-07
3.72694e-07
3.72699e-07
3.97017e-07
3.96814e-07
3.72694e-07
3.72713e-07
3.72683e-07
3.72703e-07
3.72705e-07
3.72689e-07
3.72695e-07
3.97023e-07
3.96821e-07
3.72697e-07
3.72684e-07
3.72686e-07
3.9682e-07
3.9701e-07
3.96699e-07
3.72673e-07
3.7268e-07
3.72564e-07
3.7257e-07
3.97012e-07
3.9671e-07
3.72662e-07
3.72682e-07
3.72553e-07
3.72573e-07
3.72677e-07
3.72566e-07
3.72566e-07
3.97016e-07
3.96706e-07
3.72665e-07
3.72556e-07
3.72555e-07
3.96704e-07
3.96889e-07
3.96683e-07
3.72549e-07
3.72554e-07
3.7254e-07
3.72543e-07
3.96896e-07
3.96674e-07
3.72539e-07
3.72559e-07
3.7253e-07
3.7255e-07
3.72551e-07
3.72527e-07
3.72542e-07
3.96895e-07
3.96691e-07
3.72541e-07
3.72533e-07
3.72532e-07
3.96688e-07
3.96886e-07
3.96689e-07
3.72543e-07
3.72546e-07
3.7254e-07
3.72543e-07
3.96877e-07
3.96685e-07
3.72533e-07
3.72553e-07
3.7253e-07
3.7255e-07
3.72545e-07
3.72527e-07
3.72542e-07
3.96893e-07
3.96696e-07
3.72535e-07
3.72532e-07
3.72532e-07
3.96692e-07
3.96888e-07
3.96689e-07
3.72542e-07
3.72545e-07
3.7254e-07
3.72542e-07
3.96885e-07
3.96681e-07
3.72532e-07
3.72552e-07
3.7253e-07
3.72549e-07
3.72544e-07
3.72526e-07
3.72541e-07
3.96894e-07
3.96696e-07
3.72534e-07
3.72532e-07
3.72532e-07
3.96694e-07
3.9689e-07
3.96686e-07
3.72542e-07
3.72545e-07
3.7254e-07
3.72542e-07
3.96883e-07
3.9668e-07
3.72532e-07
3.72552e-07
3.72529e-07
3.72549e-07
3.72544e-07
3.72526e-07
3.72541e-07
3.96896e-07
3.96694e-07
3.72534e-07
3.72532e-07
3.72532e-07
3.96693e-07
3.96887e-07
3.96687e-07
3.72542e-07
3.72544e-07
3.7254e-07
3.72542e-07
3.96881e-07
3.96681e-07
3.72532e-07
3.72551e-07
3.72529e-07
3.72549e-07
3.72544e-07
3.72526e-07
3.72541e-07
3.96893e-07
3.96694e-07
3.72534e-07
3.72532e-07
3.72532e-07
3.96692e-07
3.96887e-07
3.96687e-07
3.72542e-07
3.72545e-07
3.72539e-07
3.72542e-07
3.96881e-07
3.96681e-07
3.72532e-07
3.72551e-07
3.72529e-07
3.72549e-07
3.72544e-07
3.72526e-07
3.72541e-07
3.96893e-07
3.96694e-07
3.72534e-07
3.72533e-07
3.72532e-07
3.96692e-07
3.96886e-07
3.96687e-07
3.72542e-07
3.72544e-07
3.7254e-07
3.72542e-07
3.96881e-07
3.96682e-07
3.72532e-07
3.72552e-07
3.7253e-07
3.72549e-07
3.72544e-07
3.72526e-07
3.72541e-07
3.96893e-07
3.96695e-07
3.72534e-07
3.72533e-07
3.72532e-07
3.96692e-07
3.96886e-07
3.96687e-07
3.72542e-07
3.72544e-07
3.7254e-07
3.72542e-07
3.96881e-07
3.96682e-07
3.72532e-07
3.72552e-07
3.7253e-07
3.72549e-07
3.72544e-07
3.72526e-07
3.72541e-07
3.96893e-07
3.96694e-07
3.72534e-07
3.72533e-07
3.72532e-07
3.96692e-07
3.96886e-07
3.96687e-07
3.72542e-07
3.72544e-07
3.7254e-07
3.72542e-07
3.96881e-07
3.96682e-07
3.72532e-07
3.72552e-07
3.7253e-07
3.72549e-07
3.72544e-07
3.72526e-07
3.72541e-07
3.96893e-07
3.96694e-07
3.72534e-07
3.72533e-07
3.72532e-07
3.96692e-07
3.96886e-07
3.96687e-07
3.72542e-07
3.72544e-07
3.72539e-07
3.72542e-07
3.96881e-07
3.96681e-07
3.72532e-07
3.72552e-07
3.7253e-07
3.72549e-07
3.72544e-07
3.72526e-07
3.72541e-07
3.96893e-07
3.96694e-07
3.72534e-07
3.72533e-07
3.72532e-07
3.96692e-07
3.96886e-07
3.96687e-07
3.72542e-07
3.72544e-07
3.72539e-07
3.72542e-07
3.9688e-07
3.96681e-07
3.72533e-07
3.72551e-07
3.7253e-07
3.72549e-07
3.72544e-07
3.72526e-07
3.72541e-07
3.96893e-07
3.96695e-07
3.72534e-07
3.72533e-07
3.72532e-07
3.96692e-07
3.96886e-07
3.96687e-07
3.72541e-07
3.72544e-07
3.72539e-07
3.72542e-07
3.96881e-07
3.96682e-07
3.72532e-07
3.72552e-07
3.7253e-07
3.72549e-07
3.72544e-07
3.72526e-07
3.72542e-07
3.96893e-07
3.96694e-07
3.72534e-07
3.72533e-07
3.72532e-07
3.96692e-07
3.96886e-07
3.96687e-07
3.72541e-07
3.72544e-07
3.72539e-07
3.72542e-07
3.96881e-07
3.96681e-07
3.72532e-07
3.72552e-07
3.7253e-07
3.72549e-07
3.72544e-07
3.72527e-07
3.72542e-07
3.96893e-07
3.96695e-07
3.72534e-07
3.72534e-07
3.72532e-07
3.96692e-07
3.96886e-07
3.72542e-07
3.72545e-07
3.96881e-07
3.72533e-07
3.72552e-07
3.72544e-07
3.96893e-07
3.72534e-07
3.55854e-07
3.55856e-07
3.55858e-07
3.55857e-07
1.59566e-06
8.23273e-06
1.59611e-06
8.23217e-06
2.47455e-05
2.47429e-05
1.59553e-06
8.23438e-06
1.596e-06
8.23384e-06
3.55861e-07
3.55862e-07
3.55861e-07
3.55857e-07
3.5586e-07
3.55861e-07
3.5586e-07
5.85308e-07
1.28628e-06
3.60725e-07
3.72695e-07
5.85426e-07
1.28575e-06
3.60729e-07
2.47458e-05
2.4743e-05
5.85332e-07
3.60727e-07
1.28626e-06
3.72697e-07
5.85447e-07
3.6073e-07
1.28576e-06
2.65609e-06
2.65694e-06
3.96812e-07
2.65587e-06
2.65659e-06
1.59559e-06
8.23237e-06
1.59604e-06
8.23187e-06
2.4741e-05
2.47398e-05
1.59544e-06
8.23402e-06
1.59584e-06
8.23353e-06
3.5586e-07
3.55861e-07
3.5586e-07
3.55852e-07
3.55857e-07
3.55857e-07
3.55856e-07
5.8533e-07
1.28638e-06
3.60728e-07
3.72697e-07
5.85442e-07
1.28582e-06
3.60732e-07
2.47419e-05
2.47408e-05
5.85342e-07
3.60729e-07
1.28633e-06
3.72697e-07
5.85469e-07
3.6073e-07
1.28578e-06
2.65649e-06
2.6571e-06
3.96821e-07
2.65612e-06
2.65671e-06
1.59558e-06
8.23223e-06
1.59601e-06
8.23204e-06
2.474e-05
2.47399e-05
1.59542e-06
8.23387e-06
1.5958e-06
8.23369e-06
3.55856e-07
3.55856e-07
3.55855e-07
3.55838e-07
3.55843e-07
3.55841e-07
3.55841e-07
5.85342e-07
1.28639e-06
3.60728e-07
3.72695e-07
5.85463e-07
1.28581e-06
3.60727e-07
2.47415e-05
2.47419e-05
5.85337e-07
3.60725e-07
1.2863e-06
3.72693e-07
5.85455e-07
3.60724e-07
1.2858e-06
2.65656e-06
2.6571e-06
3.96821e-07
2.65611e-06
2.6567e-06
1.59616e-06
8.23462e-06
1.59648e-06
8.23569e-06
2.47438e-05
2.47451e-05
1.596e-06
8.23625e-06
1.59628e-06
8.23733e-06
3.55821e-07
3.55817e-07
3.55816e-07
3.55691e-07
3.55695e-07
3.55692e-07
3.55691e-07
5.85367e-07
1.28657e-06
3.60696e-07
3.72645e-07
5.85498e-07
1.28612e-06
3.60655e-07
2.47463e-05
2.47465e-05
5.8535e-07
3.6069e-07
1.2866e-06
3.72624e-07
5.85495e-07
3.60648e-07
1.28611e-06
2.65702e-06
2.65761e-06
3.96776e-07
2.65669e-06
2.65718e-06
1.59602e-06
8.23618e-06
1.59649e-06
8.23572e-06
2.47455e-05
2.47449e-05
1.59587e-06
8.2378e-06
1.59629e-06
8.23737e-06
3.55676e-07
3.55676e-07
3.55675e-07
3.55662e-07
3.55663e-07
3.55665e-07
3.55664e-07
5.85311e-07
1.28668e-06
3.60557e-07
3.72534e-07
5.85443e-07
1.28606e-06
3.60551e-07
2.47469e-05
2.47461e-05
5.85303e-07
3.60555e-07
1.28658e-06
3.72536e-07
5.85433e-07
3.60552e-07
1.28601e-06
2.65681e-06
2.65733e-06
3.9668e-07
2.65631e-06
2.65687e-06
1.59601e-06
8.23607e-06
1.59645e-06
8.23567e-06
2.47454e-05
2.47449e-05
1.59586e-06
8.23771e-06
1.59625e-06
8.23732e-06
3.55667e-07
3.55668e-07
3.55667e-07
3.55662e-07
3.55663e-07
3.55665e-07
3.55664e-07
5.8531e-07
1.28662e-06
3.60547e-07
3.7253e-07
5.85431e-07
1.28604e-06
3.60549e-07
2.47467e-05
2.4746e-05
5.85303e-07
3.60548e-07
1.28654e-06
3.72535e-07
5.85425e-07
3.6055e-07
1.286e-06
2.65671e-06
2.65727e-06
3.96697e-07
2.65628e-06
2.65685e-06
1.59601e-06
8.23606e-06
1.59645e-06
8.23567e-06
2.47454e-05
2.47449e-05
1.59586e-06
8.2377e-06
1.59625e-06
8.23732e-06
3.55665e-07
3.55667e-07
3.55666e-07
3.55662e-07
3.55663e-07
3.55665e-07
3.55664e-07
5.85309e-07
1.28661e-06
3.60546e-07
3.72528e-07
5.85432e-07
1.28604e-06
3.60548e-07
2.47467e-05
2.4746e-05
5.85302e-07
3.60547e-07
1.28654e-06
3.72534e-07
5.85426e-07
3.60549e-07
1.286e-06
2.65671e-06
2.65727e-06
3.9669e-07
2.65628e-06
2.65685e-06
1.59601e-06
8.23606e-06
1.59645e-06
8.23567e-06
2.47454e-05
2.47449e-05
1.59586e-06
8.2377e-06
1.59625e-06
8.23732e-06
3.55666e-07
3.55667e-07
3.55666e-07
3.55662e-07
3.55663e-07
3.55665e-07
3.55664e-07
5.8531e-07
1.28661e-06
3.60546e-07
3.72528e-07
5.85432e-07
1.28604e-06
3.60548e-07
2.47467e-05
2.4746e-05
5.85303e-07
3.60547e-07
1.28654e-06
3.72534e-07
5.85426e-07
3.60549e-07
1.286e-06
2.65671e-06
2.65727e-06
3.96691e-07
2.65628e-06
2.65685e-06
1.59601e-06
8.23606e-06
1.59645e-06
8.23566e-06
2.47454e-05
2.47449e-05
1.59586e-06
8.2377e-06
1.59625e-06
8.23732e-06
3.55666e-07
3.55667e-07
3.55666e-07
3.55662e-07
3.55663e-07
3.55665e-07
3.55664e-07
5.8531e-07
1.28661e-06
3.60546e-07
3.72528e-07
5.85432e-07
1.28604e-06
3.60548e-07
2.47467e-05
2.4746e-05
5.85303e-07
3.60547e-07
1.28654e-06
3.72534e-07
5.85426e-07
3.60549e-07
1.286e-06
2.65671e-06
2.65727e-06
3.96692e-07
2.65628e-06
2.65685e-06
1.59601e-06
8.23606e-06
1.59645e-06
8.23565e-06
2.47454e-05
2.47449e-05
1.59586e-06
8.2377e-06
1.59625e-06
8.23732e-06
3.55666e-07
3.55667e-07
3.55666e-07
3.55662e-07
3.55663e-07
3.55665e-07
3.55664e-07
5.8531e-07
1.28661e-06
3.60546e-07
3.72528e-07
5.85432e-07
1.28604e-06
3.60548e-07
2.47467e-05
2.4746e-05
5.85303e-07
3.60547e-07
1.28655e-06
3.72535e-07
5.85426e-07
3.60549e-07
1.286e-06
2.65671e-06
2.65727e-06
3.96692e-07
2.65628e-06
2.65685e-06
1.59601e-06
8.23611e-06
1.59645e-06
8.23572e-06
2.4746e-05
2.47454e-05
1.59586e-06
8.23768e-06
1.59625e-06
8.23719e-06
3.55666e-07
3.55667e-07
3.55666e-07
3.55662e-07
3.55663e-07
3.55665e-07
3.55664e-07
5.8531e-07
1.28661e-06
3.60546e-07
3.72528e-07
5.85432e-07
1.28604e-06
3.60548e-07
2.47467e-05
2.4746e-05
5.85303e-07
3.60547e-07
1.28654e-06
3.72535e-07
5.85426e-07
3.60549e-07
1.286e-06
2.65671e-06
2.65727e-06
3.96692e-07
2.65628e-06
2.65685e-06
1.59601e-06
8.2361e-06
1.59645e-06
8.23577e-06
2.4746e-05
2.47457e-05
1.59586e-06
8.23758e-06
1.59625e-06
8.23719e-06
3.55666e-07
3.55667e-07
3.55666e-07
3.55662e-07
3.55663e-07
3.55665e-07
3.55664e-07
5.8531e-07
1.28661e-06
3.60546e-07
3.72528e-07
5.85432e-07
1.28604e-06
3.60548e-07
2.47467e-05
2.4746e-05
5.85307e-07
3.60547e-07
1.28654e-06
3.72535e-07
5.8543e-07
3.60549e-07
1.286e-06
2.65671e-06
2.65727e-06
3.96692e-07
2.65628e-06
2.65685e-06
1.59601e-06
8.23617e-06
1.59645e-06
8.23582e-06
2.47462e-05
2.47457e-05
1.59586e-06
8.23755e-06
1.59625e-06
8.23716e-06
3.55666e-07
3.55667e-07
3.55666e-07
3.55662e-07
3.55663e-07
3.55665e-07
3.55664e-07
5.8531e-07
1.28661e-06
3.60546e-07
3.72528e-07
5.85432e-07
1.28604e-06
3.60549e-07
2.47467e-05
2.4746e-05
5.85311e-07
3.60547e-07
1.28654e-06
3.72535e-07
5.85436e-07
3.60549e-07
1.286e-06
2.65671e-06
2.65727e-06
3.96692e-07
2.65628e-06
2.65685e-06
1.59601e-06
8.2362e-06
1.59645e-06
8.23584e-06
2.47462e-05
2.47457e-05
1.59586e-06
8.23754e-06
1.59625e-06
8.23716e-06
3.55666e-07
3.55667e-07
3.55666e-07
3.55662e-07
3.55663e-07
3.55665e-07
3.55664e-07
5.8531e-07
1.28661e-06
3.60546e-07
3.72528e-07
5.85432e-07
1.28604e-06
3.60548e-07
2.47467e-05
2.4746e-05
5.85313e-07
3.60547e-07
1.28654e-06
3.72535e-07
5.85439e-07
3.60549e-07
1.286e-06
2.65671e-06
2.65727e-06
3.96692e-07
2.65628e-06
2.65685e-06
1.59601e-06
8.2362e-06
1.59645e-06
8.23584e-06
2.47461e-05
2.47456e-05
1.59586e-06
8.23755e-06
1.59625e-06
8.23718e-06
3.55666e-07
3.55667e-07
3.55666e-07
3.55662e-07
3.55663e-07
3.55665e-07
3.55664e-07
5.8531e-07
1.28661e-06
3.60546e-07
3.72528e-07
5.85432e-07
1.28604e-06
3.60548e-07
2.47467e-05
2.4746e-05
5.85313e-07
3.60547e-07
1.28654e-06
3.72535e-07
5.8544e-07
3.60549e-07
1.286e-06
2.65671e-06
2.65727e-06
3.96692e-07
2.65628e-06
2.65685e-06
1.59601e-06
8.23621e-06
1.59645e-06
8.23584e-06
2.47461e-05
2.47456e-05
1.59586e-06
8.23756e-06
1.59625e-06
8.23718e-06
3.55665e-07
3.55667e-07
3.55666e-07
3.55662e-07
3.55663e-07
3.55665e-07
3.55664e-07
5.8531e-07
1.28661e-06
3.60546e-07
3.72528e-07
5.85432e-07
1.28604e-06
3.60548e-07
2.47467e-05
2.4746e-05
5.85312e-07
3.60547e-07
1.28654e-06
3.72535e-07
5.8544e-07
3.60549e-07
1.286e-06
2.65671e-06
2.65727e-06
3.96692e-07
2.65628e-06
2.65685e-06
1.59601e-06
8.23621e-06
1.59645e-06
8.23584e-06
2.47461e-05
2.47456e-05
1.59586e-06
8.23756e-06
1.59625e-06
8.23718e-06
3.55666e-07
3.55667e-07
3.55666e-07
3.55663e-07
3.55663e-07
3.55665e-07
3.55664e-07
5.8531e-07
1.28661e-06
3.60546e-07
3.72528e-07
5.85432e-07
1.28604e-06
3.60548e-07
2.47467e-05
2.4746e-05
5.85313e-07
3.60547e-07
1.28654e-06
3.72535e-07
5.8544e-07
3.60549e-07
1.286e-06
2.65671e-06
2.65727e-06
3.96692e-07
2.65628e-06
2.65685e-06
8.23621e-06
1.59645e-06
2.47461e-05
8.23756e-06
1.59625e-06
3.55666e-07
3.55668e-07
3.55667e-07
1.28661e-06
3.60549e-07
5.85432e-07
2.47467e-05
3.6055e-07
1.28654e-06
5.85439e-07
2.6567e-06
2.65727e-06
2.47426e-05
2.47458e-05
2.47461e-05
2.47491e-05
3.96987e-07
2.65589e-06
2.65643e-06
2.65663e-06
2.65696e-06
1.59603e-06
8.23239e-06
8.23318e-06
1.59565e-06
1.59605e-06
8.23314e-06
8.23385e-06
1.59574e-06
5.85433e-07
3.72701e-07
1.28575e-06
3.60728e-07
1.28627e-06
3.60728e-07
5.85326e-07
5.85431e-07
3.72703e-07
1.28577e-06
3.60728e-07
1.28623e-06
3.60729e-07
5.85327e-07
2.47457e-05
2.65627e-06
2.65572e-06
2.47436e-05
1.59593e-06
8.23406e-06
8.23482e-06
1.59563e-06
5.85436e-07
3.72691e-07
1.28581e-06
3.60727e-07
1.28628e-06
3.60727e-07
5.85334e-07
1.59598e-06
8.23399e-06
8.23478e-06
1.59566e-06
5.85437e-07
3.7271e-07
3.6073e-07
1.28599e-06
3.6073e-07
1.28651e-06
5.85333e-07
1.28569e-06
3.60725e-07
3.60726e-07
5.85303e-07
8.23292e-06
1.59548e-06
3.72702e-07
3.60727e-07
1.28562e-06
3.60728e-07
5.85307e-07
8.23342e-06
1.59548e-06
2.47456e-05
2.47488e-05
3.96994e-07
2.65663e-06
2.65593e-06
2.65744e-06
2.65647e-06
2.47451e-05
2.47481e-05
5.85426e-07
3.72693e-07
3.60727e-07
1.28571e-06
3.60728e-07
1.28617e-06
5.85322e-07
5.85438e-07
3.72693e-07
3.60728e-07
1.28582e-06
3.60728e-07
1.2863e-06
5.85328e-07
1.59598e-06
8.23386e-06
8.23459e-06
1.59565e-06
1.59595e-06
8.23422e-06
8.23495e-06
1.59563e-06
3.96991e-07
2.65558e-06
2.65651e-06
2.65705e-06
2.47456e-05
2.47464e-05
2.47493e-05
2.47428e-05
2.47399e-05
2.4746e-05
2.47434e-05
2.65642e-06
2.65681e-06
3.96809e-07
2.65609e-06
2.6565e-06
2.47385e-05
2.47403e-05
2.4742e-05
2.47435e-05
3.9701e-07
2.65621e-06
2.65657e-06
2.65659e-06
2.65688e-06
1.59567e-06
8.23331e-06
1.59615e-06
8.23294e-06
5.8534e-07
1.28632e-06
3.60732e-07
3.72705e-07
5.85452e-07
1.2858e-06
3.60732e-07
5.85338e-07
1.2863e-06
3.60733e-07
3.72707e-07
5.85453e-07
1.28583e-06
3.60733e-07
1.59605e-06
8.232e-06
8.23238e-06
1.59561e-06
1.59606e-06
8.23277e-06
8.23312e-06
1.59562e-06
5.85465e-07
3.72704e-07
1.28583e-06
3.60731e-07
1.28637e-06
3.60731e-07
5.85353e-07
5.85464e-07
3.72706e-07
1.28586e-06
3.60731e-07
1.28636e-06
3.60731e-07
5.85351e-07
2.65665e-06
2.65623e-06
3.96811e-07
2.65633e-06
2.65595e-06
2.47438e-05
2.47406e-05
2.47407e-05
2.47428e-05
3.97012e-07
2.65642e-06
2.65611e-06
2.65672e-06
2.65646e-06
2.47384e-05
2.47408e-05
5.85344e-07
1.28635e-06
3.60731e-07
3.72694e-07
5.85456e-07
1.28586e-06
3.60731e-07
1.59554e-06
8.23418e-06
1.59599e-06
8.23376e-06
5.85344e-07
3.60734e-07
1.28656e-06
3.72714e-07
5.85457e-07
3.60734e-07
1.28603e-06
1.59586e-06
8.23367e-06
8.23403e-06
1.59546e-06
5.85467e-07
3.72693e-07
1.28589e-06
3.6073e-07
1.2864e-06
3.6073e-07
5.85358e-07
1.59588e-06
8.23359e-06
8.23397e-06
1.59548e-06
5.85468e-07
3.72713e-07
3.60733e-07
1.28606e-06
3.60733e-07
1.2866e-06
5.85357e-07
1.59554e-06
8.23317e-06
1.59591e-06
8.23273e-06
5.85314e-07
3.60731e-07
1.28617e-06
3.72706e-07
5.85429e-07
3.60731e-07
1.28567e-06
1.59554e-06
8.23359e-06
1.59591e-06
8.23321e-06
5.85431e-07
3.72695e-07
1.2858e-06
3.60728e-07
1.28632e-06
3.60728e-07
5.85318e-07
1.59596e-06
8.23255e-06
8.23293e-06
1.59557e-06
5.85436e-07
3.72705e-07
3.60729e-07
1.28571e-06
3.60729e-07
1.28621e-06
5.85323e-07
1.59596e-06
8.23306e-06
8.23339e-06
1.59557e-06
2.65713e-06
2.65631e-06
3.96816e-07
2.6568e-06
2.65601e-06
2.4745e-05
2.47424e-05
2.47414e-05
2.47433e-05
3.97017e-07
2.65691e-06
2.65608e-06
2.65729e-06
2.6564e-06
2.4741e-05
2.47425e-05
5.8534e-07
3.60732e-07
1.28637e-06
3.72697e-07
5.8546e-07
3.60732e-07
1.28588e-06
1.59553e-06
8.23402e-06
1.59598e-06
8.23364e-06
1.59552e-06
8.23438e-06
1.59597e-06
8.23399e-06
5.85457e-07
3.72696e-07
3.60729e-07
1.28579e-06
3.60729e-07
1.2863e-06
5.85345e-07
5.8547e-07
3.72696e-07
3.60731e-07
1.28591e-06
3.60731e-07
1.28642e-06
5.85354e-07
1.59587e-06
8.23347e-06
8.23382e-06
1.59547e-06
1.59587e-06
8.23382e-06
8.23417e-06
1.59547e-06
2.47455e-05
2.47428e-05
2.47463e-05
2.47437e-05
3.97013e-07
2.65604e-06
2.65667e-06
2.6563e-06
2.65699e-06
2.47413e-05
2.47429e-05
2.47423e-05
2.47438e-05
2.4739e-05
2.47378e-05
2.47423e-05
2.47414e-05
2.65669e-06
2.65695e-06
3.96816e-07
2.65626e-06
2.65661e-06
2.47377e-05
2.47385e-05
2.47413e-05
2.47419e-05
3.97017e-07
2.65629e-06
2.65662e-06
2.65673e-06
2.65697e-06
1.5956e-06
8.23296e-06
1.59602e-06
8.23262e-06
5.85353e-07
1.28639e-06
3.60733e-07
3.72707e-07
5.85477e-07
1.28583e-06
3.60733e-07
5.85351e-07
1.28638e-06
3.60734e-07
3.72711e-07
5.85475e-07
1.28585e-06
3.60733e-07
1.59599e-06
8.23183e-06
8.23211e-06
1.59558e-06
1.596e-06
8.23254e-06
8.23281e-06
1.59559e-06
5.85472e-07
3.72706e-07
1.28583e-06
3.60727e-07
1.28639e-06
3.60729e-07
5.85344e-07
5.8547e-07
3.72709e-07
1.28584e-06
3.60728e-07
1.28637e-06
3.60729e-07
5.85341e-07
2.65681e-06
2.65659e-06
3.96816e-07
2.65649e-06
2.6562e-06
2.47389e-05
2.47373e-05
2.47395e-05
2.47403e-05
3.97017e-07
2.65651e-06
2.65623e-06
2.65686e-06
2.65665e-06
2.47371e-05
2.4738e-05
5.85357e-07
1.28642e-06
3.60733e-07
3.72697e-07
5.85479e-07
1.28588e-06
3.60733e-07
1.59546e-06
8.23381e-06
1.59583e-06
8.23347e-06
5.85356e-07
3.60735e-07
1.28663e-06
3.72717e-07
5.85479e-07
3.60735e-07
1.28607e-06
1.59579e-06
8.23348e-06
8.23376e-06
1.59543e-06
5.85474e-07
3.72696e-07
1.28588e-06
3.60727e-07
1.28641e-06
3.60729e-07
5.85346e-07
1.59581e-06
8.23341e-06
8.2337e-06
1.59545e-06
5.85474e-07
3.72715e-07
3.60729e-07
1.28607e-06
3.60731e-07
1.28663e-06
5.85346e-07
1.59559e-06
8.23277e-06
1.59599e-06
8.23241e-06
5.85336e-07
3.60733e-07
1.28624e-06
3.72708e-07
5.85447e-07
3.60733e-07
1.28573e-06
1.59559e-06
8.23326e-06
1.59599e-06
8.23298e-06
5.85454e-07
3.72697e-07
1.28582e-06
3.60729e-07
1.28638e-06
3.60731e-07
5.8534e-07
1.59599e-06
8.2323e-06
8.23263e-06
1.59559e-06
5.85459e-07
3.72707e-07
3.6073e-07
1.28575e-06
3.60732e-07
1.28626e-06
5.85345e-07
1.59599e-06
8.23297e-06
8.2332e-06
1.59559e-06
2.65738e-06
2.65647e-06
3.96823e-07
2.65695e-06
2.65611e-06
2.47414e-05
2.47403e-05
2.47407e-05
2.47415e-05
3.97023e-07
2.65697e-06
2.65613e-06
2.65741e-06
2.65649e-06
2.47403e-05
2.47409e-05
5.85355e-07
3.60733e-07
1.28644e-06
3.727e-07
5.85484e-07
3.60733e-07
1.2859e-06
1.59545e-06
8.23366e-06
1.59582e-06
8.23333e-06
1.59544e-06
8.23401e-06
1.59583e-06
8.23368e-06
5.85461e-07
3.72695e-07
3.60727e-07
1.28577e-06
3.60728e-07
1.2863e-06
5.85334e-07
5.85479e-07
3.72698e-07
3.60727e-07
1.28589e-06
3.60729e-07
1.28643e-06
5.85341e-07
1.59579e-06
8.23326e-06
8.23353e-06
1.59543e-06
1.59579e-06
8.23361e-06
8.23389e-06
1.59543e-06
2.47416e-05
2.47405e-05
2.47427e-05
2.47416e-05
3.97021e-07
2.65616e-06
2.65673e-06
2.65649e-06
2.65708e-06
2.47404e-05
2.4741e-05
2.47415e-05
2.47422e-05
2.47386e-05
2.47388e-05
2.47419e-05
2.47423e-05
2.65672e-06
2.65695e-06
3.96819e-07
2.65627e-06
2.6566e-06
2.47417e-05
2.47403e-05
2.47453e-05
2.47434e-05
3.97019e-07
2.65665e-06
2.65698e-06
2.65682e-06
2.65705e-06
1.59558e-06
8.23275e-06
1.59599e-06
8.2325e-06
5.85346e-07
1.28638e-06
3.60727e-07
3.72703e-07
5.85464e-07
1.28586e-06
3.60726e-07
5.85342e-07
1.28636e-06
3.60728e-07
3.72709e-07
5.85461e-07
1.28585e-06
3.60726e-07
1.59603e-06
8.23331e-06
8.23247e-06
1.5959e-06
1.59603e-06
8.23342e-06
8.23279e-06
1.59589e-06
5.85475e-07
3.727e-07
1.28606e-06
3.60715e-07
1.28646e-06
3.60722e-07
5.85378e-07
5.85471e-07
3.72706e-07
1.28601e-06
3.60716e-07
1.28639e-06
3.60723e-07
5.85373e-07
2.65688e-06
2.65669e-06
3.96818e-07
2.65648e-06
2.6562e-06
2.47379e-05
2.47374e-05
2.47422e-05
2.4741e-05
3.97018e-07
2.65666e-06
2.6564e-06
2.65686e-06
2.65666e-06
2.47397e-05
2.47386e-05
5.85348e-07
1.2864e-06
3.60726e-07
3.72693e-07
5.85463e-07
1.28591e-06
3.60725e-07
1.59544e-06
8.23367e-06
1.5958e-06
8.23359e-06
5.85347e-07
3.60729e-07
1.28662e-06
3.72712e-07
5.85465e-07
3.60727e-07
1.2861e-06
1.59583e-06
8.23497e-06
8.23409e-06
1.59575e-06
5.85474e-07
3.7269e-07
1.28611e-06
3.60714e-07
1.28648e-06
3.60722e-07
5.85381e-07
1.59584e-06
8.23479e-06
8.234e-06
1.59575e-06
5.85474e-07
3.72709e-07
3.60717e-07
1.2863e-06
3.60724e-07
1.2867e-06
5.85378e-07
1.59559e-06
8.23255e-06
1.596e-06
8.23226e-06
5.85346e-07
3.6073e-07
1.28628e-06
3.72704e-07
5.85465e-07
3.60727e-07
1.28577e-06
1.59558e-06
8.2332e-06
1.596e-06
8.23309e-06
5.85467e-07
3.72693e-07
1.28593e-06
3.60716e-07
1.28638e-06
3.60723e-07
5.85367e-07
1.596e-06
8.23278e-06
8.23255e-06
1.5958e-06
5.85469e-07
3.72701e-07
3.60716e-07
1.28594e-06
3.60724e-07
1.28632e-06
5.85371e-07
1.596e-06
8.23391e-06
8.23342e-06
1.5958e-06
2.6574e-06
2.65647e-06
3.96824e-07
2.65696e-06
2.65611e-06
2.4741e-05
2.47413e-05
2.47448e-05
2.47434e-05
3.97024e-07
2.65734e-06
2.65649e-06
2.6575e-06
2.65657e-06
2.47442e-05
2.47424e-05
5.85337e-07
3.60727e-07
1.28642e-06
3.72696e-07
5.85465e-07
3.60725e-07
1.28592e-06
1.59542e-06
8.23348e-06
1.59578e-06
8.23342e-06
1.59542e-06
8.23384e-06
1.59578e-06
8.23377e-06
5.85465e-07
3.7269e-07
3.60714e-07
1.286e-06
3.60721e-07
1.28636e-06
5.85368e-07
5.85473e-07
3.72693e-07
3.60715e-07
1.28611e-06
3.60722e-07
1.28649e-06
5.85372e-07
1.59582e-06
8.23462e-06
8.23378e-06
1.59574e-06
1.59582e-06
8.23495e-06
8.23412e-06
1.59573e-06
2.4741e-05
2.47409e-05
2.47422e-05
2.47426e-05
3.97021e-07
2.65645e-06
2.65708e-06
2.65653e-06
2.65716e-06
2.47435e-05
2.47419e-05
2.47455e-05
2.47437e-05
2.47434e-05
2.47434e-05
2.47468e-05
2.47469e-05
2.65724e-06
2.65746e-06
3.96771e-07
2.65678e-06
2.65708e-06
2.47432e-05
2.47441e-05
2.47467e-05
2.47474e-05
3.96951e-07
2.65652e-06
2.65685e-06
2.6572e-06
2.65739e-06
1.59616e-06
8.23453e-06
1.59645e-06
8.23629e-06
5.8536e-07
1.28669e-06
3.60693e-07
3.72631e-07
5.85504e-07
1.28618e-06
3.60647e-07
5.85356e-07
1.28661e-06
3.60694e-07
3.7264e-07
5.855e-07
1.28619e-06
3.60648e-07
1.59657e-06
8.23581e-06
8.23604e-06
1.59607e-06
1.59657e-06
8.23652e-06
8.23674e-06
1.59608e-06
5.85472e-07
3.72592e-07
1.28611e-06
3.60574e-07
1.28674e-06
3.60605e-07
5.85324e-07
5.85468e-07
3.726e-07
1.28614e-06
3.60574e-07
1.28672e-06
3.60606e-07
5.85321e-07
2.65716e-06
2.657e-06
3.96787e-07
2.65698e-06
2.65675e-06
2.47414e-05
2.47425e-05
2.47451e-05
2.47458e-05
3.9697e-07
2.65679e-06
2.6566e-06
2.65736e-06
2.65723e-06
2.47428e-05
2.47435e-05
5.85362e-07
1.28671e-06
3.60692e-07
3.72621e-07
5.85504e-07
1.28622e-06
3.60647e-07
1.59601e-06
8.23603e-06
1.59625e-06
8.23732e-06
5.85361e-07
3.60694e-07
1.28693e-06
3.72641e-07
5.85503e-07
3.60649e-07
1.28642e-06
1.59636e-06
8.23744e-06
8.23765e-06
1.59592e-06
5.85474e-07
3.72582e-07
1.28616e-06
3.60573e-07
1.28674e-06
3.60604e-07
5.85326e-07
1.59637e-06
8.2374e-06
8.23767e-06
1.59593e-06
5.85473e-07
3.72602e-07
3.60575e-07
1.28635e-06
3.60607e-07
1.28698e-06
5.85326e-07
1.59616e-06
8.23347e-06
1.59636e-06
8.23518e-06
5.8537e-07
3.60695e-07
1.28654e-06
3.72635e-07
5.855e-07
3.6065e-07
1.28611e-06
1.59616e-06
8.23483e-06
1.59635e-06
8.23663e-06
5.8548e-07
3.726e-07
1.28612e-06
3.60578e-07
1.28671e-06
3.6061e-07
5.85327e-07
1.5966e-06
8.23633e-06
8.23625e-06
1.59612e-06
5.85482e-07
3.72596e-07
3.60575e-07
1.28607e-06
3.60608e-07
1.28665e-06
5.85332e-07
1.5966e-06
8.23707e-06
8.23726e-06
1.59612e-06
2.65791e-06
2.65697e-06
3.96778e-07
2.65746e-06
2.65659e-06
2.47457e-05
2.47458e-05
2.47462e-05
2.47472e-05
3.96958e-07
2.6572e-06
2.65635e-06
2.65787e-06
2.6569e-06
2.47456e-05
2.47464e-05
5.85357e-07
3.60692e-07
1.28671e-06
3.72623e-07
5.85506e-07
3.60647e-07
1.28623e-06
1.59599e-06
8.23582e-06
1.59624e-06
8.23715e-06
1.59599e-06
8.23613e-06
1.59624e-06
8.2375e-06
5.85462e-07
3.72584e-07
3.60574e-07
1.28605e-06
3.60604e-07
1.28663e-06
5.85315e-07
5.85475e-07
3.72584e-07
3.60573e-07
1.28617e-06
3.60605e-07
1.28676e-06
5.8532e-07
1.59635e-06
8.23721e-06
8.23744e-06
1.59592e-06
1.59635e-06
8.23758e-06
8.2378e-06
1.59591e-06
2.47452e-05
2.4746e-05
2.4747e-05
2.47471e-05
3.96957e-07
2.65643e-06
2.65694e-06
2.65703e-06
2.65749e-06
2.47459e-05
2.47466e-05
2.47469e-05
2.47476e-05
2.47439e-05
2.47431e-05
2.47472e-05
2.47466e-05
2.65694e-06
2.65719e-06
3.96676e-07
2.6564e-06
2.65678e-06
2.4743e-05
2.47438e-05
2.47465e-05
2.47471e-05
3.96877e-07
2.65639e-06
2.65676e-06
2.65686e-06
2.65714e-06
1.59603e-06
8.23671e-06
1.59647e-06
8.23643e-06
5.85312e-07
1.28666e-06
3.60558e-07
3.72544e-07
5.85442e-07
1.28607e-06
3.60552e-07
5.85309e-07
1.28665e-06
3.60558e-07
3.72547e-07
5.85439e-07
1.28609e-06
3.60552e-07
1.59643e-06
8.23568e-06
8.23596e-06
1.59601e-06
1.59644e-06
8.23638e-06
8.23663e-06
1.59602e-06
5.85433e-07
3.7254e-07
1.28606e-06
3.60548e-07
1.28662e-06
3.60548e-07
5.85311e-07
5.85431e-07
3.72543e-07
1.28607e-06
3.60548e-07
1.28661e-06
3.60548e-07
5.85308e-07
2.65712e-06
2.657e-06
3.96672e-07
2.65666e-06
2.65639e-06
2.47435e-05
2.47426e-05
2.47449e-05
2.47455e-05
3.96871e-07
2.65663e-06
2.65635e-06
2.65702e-06
2.65683e-06
2.47425e-05
2.47433e-05
5.85314e-07
1.28668e-06
3.60557e-07
3.72534e-07
5.85442e-07
1.28612e-06
3.60551e-07
1.59589e-06
8.23763e-06
1.59628e-06
8.23732e-06
5.85315e-07
3.60559e-07
1.2869e-06
3.72553e-07
5.85443e-07
3.60553e-07
1.28631e-06
1.59623e-06
8.23733e-06
8.2376e-06
1.59586e-06
5.85433e-07
3.7253e-07
1.28611e-06
3.60547e-07
1.28665e-06
3.60547e-07
5.85313e-07
1.59625e-06
8.23727e-06
8.23755e-06
1.59588e-06
5.85435e-07
3.7255e-07
3.6055e-07
1.2863e-06
3.6055e-07
1.28687e-06
5.85313e-07
1.59605e-06
8.23658e-06
1.59651e-06
8.23627e-06
5.85316e-07
3.60559e-07
1.28659e-06
3.72546e-07
5.85446e-07
3.60552e-07
1.28602e-06
1.59605e-06
8.23728e-06
1.59651e-06
8.23701e-06
5.85431e-07
3.72528e-07
1.28604e-06
3.60547e-07
1.28661e-06
3.60548e-07
5.85309e-07
1.59646e-06
8.23622e-06
8.23651e-06
1.59604e-06
5.85435e-07
3.72542e-07
3.60548e-07
1.28601e-06
3.60548e-07
1.28655e-06
5.85314e-07
1.59646e-06
8.23697e-06
8.23722e-06
1.59604e-06
2.65762e-06
2.6567e-06
3.96684e-07
2.65711e-06
2.65628e-06
2.47462e-05
2.47455e-05
2.4746e-05
2.47468e-05
3.96884e-07
2.65709e-06
2.65627e-06
2.65756e-06
2.65665e-06
2.47455e-05
2.47461e-05
5.8531e-07
3.60558e-07
1.28669e-06
3.72536e-07
5.85442e-07
3.60551e-07
1.28613e-06
1.59588e-06
8.23741e-06
1.59627e-06
8.23714e-06
1.59587e-06
8.23778e-06
1.59627e-06
8.23751e-06
5.85425e-07
3.72534e-07
3.60548e-07
1.286e-06
3.60549e-07
1.28653e-06
5.85303e-07
5.85435e-07
3.72532e-07
3.60548e-07
1.28612e-06
3.60548e-07
1.28667e-06
5.85309e-07
1.59623e-06
8.23711e-06
8.23735e-06
1.59586e-06
1.59624e-06
8.23747e-06
8.23772e-06
1.59586e-06
2.47465e-05
2.47457e-05
2.47475e-05
2.47468e-05
3.96881e-07
2.65629e-06
2.65686e-06
2.65668e-06
2.65724e-06
2.47457e-05
2.47463e-05
2.47467e-05
2.47474e-05
2.47438e-05
2.4743e-05
2.47471e-05
2.47465e-05
2.65686e-06
2.65713e-06
3.96692e-07
2.65639e-06
2.65676e-06
2.4743e-05
2.47438e-05
2.47465e-05
2.4747e-05
3.96893e-07
2.65639e-06
2.65676e-06
2.65686e-06
2.65713e-06
1.59602e-06
8.2366e-06
1.59643e-06
8.23637e-06
5.85312e-07
1.28662e-06
3.60551e-07
3.72543e-07
5.85434e-07
1.28605e-06
3.60551e-07
5.85309e-07
1.2866e-06
3.60552e-07
3.72546e-07
5.85431e-07
1.28607e-06
3.60552e-07
1.59643e-06
8.23567e-06
8.23592e-06
1.59601e-06
1.59643e-06
8.23637e-06
8.23659e-06
1.59602e-06
5.85435e-07
3.72541e-07
1.28605e-06
3.60548e-07
1.28661e-06
3.60549e-07
5.85312e-07
5.85432e-07
3.72544e-07
1.28607e-06
3.60548e-07
1.2866e-06
3.60549e-07
5.85309e-07
2.65701e-06
2.65681e-06
3.96683e-07
2.65663e-06
2.65634e-06
2.47433e-05
2.47425e-05
2.47449e-05
2.47455e-05
3.96885e-07
2.65663e-06
2.65634e-06
2.65701e-06
2.6568e-06
2.47425e-05
2.47433e-05
5.85315e-07
1.28664e-06
3.60551e-07
3.72533e-07
5.85433e-07
1.28611e-06
3.60551e-07
1.59587e-06
8.23752e-06
1.59624e-06
8.23726e-06
5.85314e-07
3.60553e-07
1.28686e-06
3.72553e-07
5.85434e-07
3.60553e-07
1.2863e-06
1.59623e-06
8.23732e-06
8.23756e-06
1.59586e-06
5.85435e-07
3.72531e-07
1.2861e-06
3.60547e-07
1.28664e-06
3.60548e-07
5.85315e-07
1.59624e-06
8.23726e-06
8.23751e-06
1.59587e-06
5.85436e-07
3.72551e-07
3.60549e-07
1.28629e-06
3.6055e-07
1.28686e-06
5.85314e-07
1.59603e-06
8.23647e-06
1.59645e-06
8.23621e-06
5.85315e-07
3.60551e-07
1.28654e-06
3.72545e-07
5.85434e-07
3.60551e-07
1.286e-06
1.59603e-06
8.23719e-06
1.59645e-06
8.23696e-06
5.85431e-07
3.72529e-07
1.28604e-06
3.60546e-07
1.2866e-06
3.60548e-07
5.8531e-07
1.59645e-06