/*--------------------------------*- C++ -*----------------------------------*\
| =========                 |                                                 |
| \\      /  F ield         | OpenFOAM: The Open Source CFD Toolbox           |
|  \\    /   O peration     | Version:  2206                                  |
|   \\  /    A nd           | Website:  www.openfoam.com                      |
|    \\/     M anipulation  |                                                 |
\*---------------------------------------------------------------------------*/
FoamFile
{
    version     2.0;
    format      ascii;
    arch        "LSB;label=32;scalar=64";
    class       volScalarField;
    location    "19.5";
    object      Uy;
}
// * * * * * * * * * * * * * * * * * * * * * * * * * * * * * * * * * * * * * //

dimensions      [0 1 -1 0 0 0 0];

internalField   nonuniform List<scalar> 
171728
(
0.000107906
0.000119272
-0.000190375
-0.000238969
9.34342e-05
9.50267e-05
-0.000156565
-0.000199735
9.31071e-05
8.95709e-05
-0.000150295
-0.000198662
8.68901e-05
8.16766e-05
-0.000140604
-0.00018677
3.8097e-05
3.14251e-05
-5.03708e-05
-8.80464e-05
6.23459e-06
6.34202e-06
-8.40687e-06
-4.7388e-05
-2.54724e-08
9.89336e-07
-9.33417e-07
-4.11257e-05
-5.5049e-07
6.15872e-07
-4.04134e-07
-4.07954e-05
-5.78167e-07
6.03235e-07
-3.909e-07
-4.07862e-05
-5.76809e-07
6.04304e-07
-3.91934e-07
-4.07868e-05
-5.71774e-07
6.04566e-07
-3.91441e-07
-4.07872e-05
-5.79319e-07
6.03124e-07
-3.92226e-07
-4.07875e-05
-5.8063e-07
6.00717e-07
-3.91428e-07
-4.07868e-05
-5.80596e-07
6.00292e-07
-3.90211e-07
-4.07854e-05
-5.79736e-07
6.05333e-07
-3.90221e-07
-4.07847e-05
-5.77471e-07
6.08704e-07
-3.90144e-07
-4.07841e-05
-5.7825e-07
6.05954e-07
-3.91313e-07
-4.07862e-05
-5.75929e-07
6.07222e-07
-3.90735e-07
-4.07855e-05
-5.67831e-07
6.20823e-07
-3.90198e-07
-4.07855e-05
-5.7087e-07
5.94092e-07
-3.88962e-07
-4.0785e-05
-5.74005e-07
6.07063e-07
-3.91194e-07
-4.07866e-05
-5.80431e-07
6.02344e-07
-3.907e-07
-4.07858e-05
-5.80465e-07
6.01214e-07
-3.91008e-07
-4.07857e-05
-5.80822e-07
6.00557e-07
-3.91043e-07
-4.0786e-05
-5.7999e-07
6.0133e-07
-3.92266e-07
-4.07869e-05
-5.79396e-07
6.02067e-07
-3.92114e-07
-4.07869e-05
-5.78365e-07
6.02443e-07
-3.93518e-07
-4.0788e-05
-5.78775e-07
6.0216e-07
-3.9257e-07
-4.07874e-05
-5.79265e-07
6.01811e-07
-3.92322e-07
-4.07869e-05
-5.79364e-07
6.01916e-07
-3.91898e-07
-4.0787e-05
-5.80448e-07
6.02007e-07
-3.91002e-07
-4.07859e-05
-5.79428e-07
6.01851e-07
-3.91373e-07
-4.07861e-05
-5.79375e-07
6.01373e-07
-3.91663e-07
-4.07867e-05
-5.78833e-07
6.01825e-07
-3.92585e-07
-4.07874e-05
-5.78601e-07
6.02014e-07
-3.92477e-07
-4.07877e-05
-5.78617e-07
6.0178e-07
-3.92757e-07
-4.07877e-05
-5.79416e-07
6.01395e-07
-3.91543e-07
-4.07869e-05
-5.79735e-07
6.0087e-07
-3.915e-07
-4.07869e-05
-5.79942e-07
6.00938e-07
-3.91542e-07
-4.07865e-05
-5.79559e-07
6.01065e-07
-3.91515e-07
-4.0788e-05
-5.7424e-07
6.00263e-07
-3.91873e-07
-4.07879e-05
-5.76916e-07
6.12622e-07
-3.90333e-07
-4.07853e-05
-5.76716e-07
6.03546e-07
-3.91481e-07
-4.07865e-05
-5.78536e-07
6.03414e-07
-3.90684e-07
-4.07866e-05
-5.7978e-07
6.03002e-07
-3.90637e-07
-4.07871e-05
-5.80321e-07
6.02168e-07
-3.89388e-07
-4.07862e-05
-5.80355e-07
6.01956e-07
-3.89392e-07
-4.0786e-05
-5.80443e-07
6.02206e-07
-3.89617e-07
-4.07861e-05
-5.79957e-07
6.02521e-07
-3.89937e-07
-4.07862e-05
-5.78941e-07
6.03301e-07
-3.91279e-07
-4.07872e-05
-5.79276e-07
6.02923e-07
-3.90464e-07
-4.07867e-05
-5.79194e-07
6.03341e-07
-3.91271e-07
-4.07876e-05
-5.80233e-07
6.02192e-07
-3.90687e-07
-4.07874e-05
-5.81696e-07
5.98153e-07
-3.90378e-07
-4.07871e-05
-5.83017e-07
5.92228e-07
-3.90601e-07
-4.0788e-05
-5.81734e-07
6.00247e-07
-3.89474e-07
-4.07865e-05
-5.81472e-07
6.00922e-07
-3.88484e-07
-4.07851e-05
-5.81553e-07
6.00294e-07
-3.88009e-07
-4.07845e-05
-5.81279e-07
6.01167e-07
-3.88544e-07
-4.07849e-05
-5.81796e-07
6.00364e-07
-3.88091e-07
-4.07844e-05
-5.81653e-07
5.99924e-07
-3.87169e-07
-4.07837e-05
-5.82389e-07
5.99467e-07
-3.86489e-07
-4.07834e-05
-5.82978e-07
5.99301e-07
-3.86186e-07
-4.07825e-05
-5.81915e-07
5.99855e-07
-3.86852e-07
-4.07834e-05
-5.82088e-07
5.99566e-07
-3.86706e-07
-4.07834e-05
-5.81484e-07
6.00526e-07
-3.88535e-07
-4.07844e-05
-5.81245e-07
6.00688e-07
-3.88008e-07
-4.07844e-05
-5.81032e-07
6.0065e-07
-3.87847e-07
-4.07835e-05
-5.80159e-07
6.01295e-07
-3.83006e-07
-4.07805e-05
-5.79186e-07
6.02222e-07
-3.72177e-07
-4.07731e-05
-5.80355e-07
6.01503e-07
-3.83181e-07
-4.07782e-05
-5.81835e-07
5.99797e-07
-3.85261e-07
-4.07821e-05
-5.81568e-07
6.00264e-07
-3.87292e-07
-4.07839e-05
-5.81758e-07
6.0007e-07
-3.87447e-07
-4.07842e-05
-5.81197e-07
6.00641e-07
-3.88442e-07
-4.07842e-05
-5.81585e-07
6.00543e-07
-3.87672e-07
-4.07843e-05
-5.82217e-07
5.99499e-07
-3.86282e-07
-4.07832e-05
-5.82313e-07
5.99529e-07
-3.86812e-07
-4.07832e-05
-5.82664e-07
5.99491e-07
-3.86055e-07
-4.07826e-05
-5.82335e-07
5.99552e-07
-3.86717e-07
-4.07831e-05
-5.81933e-07
6.0006e-07
-3.87242e-07
-4.07838e-05
-5.81273e-07
6.00524e-07
-3.88103e-07
-4.07842e-05
-5.81585e-07
6.0026e-07
-3.88047e-07
-4.07843e-05
-5.81681e-07
6.00398e-07
-3.87827e-07
-4.07843e-05
-5.8235e-07
5.99512e-07
-3.87009e-07
-4.07834e-05
-5.82475e-07
5.9945e-07
-3.8639e-07
-4.07829e-05
-5.82647e-07
5.99195e-07
-3.86509e-07
-4.07832e-05
-5.82843e-07
5.99098e-07
-3.85981e-07
-4.07833e-05
-5.87309e-07
5.96051e-07
-3.82939e-07
-4.07819e-05
-5.97441e-07
6.0088e-07
-3.97225e-07
-4.07337e-05
-5.84361e-07
7.16478e-07
-6.39408e-07
-4.03095e-05
-5.80071e-07
1.25295e-06
-1.31242e-06
-3.9796e-05
-1.66836e-07
2.61899e-06
-3.20032e-06
-3.69001e-05
-5.38201e-06
3.19066e-06
-2.26308e-06
-2.57633e-05
-4.2365e-05
-3.461e-05
4.13839e-05
4.87695e-05
0.000135228
0.000152535
0.000152515
0.000135195
0.000124039
-0.000124055
9.05601e-05
9.05569e-05
-9.06054e-05
-9.06033e-05
0.000124035
-0.000124052
-0.000135249
-0.000152565
-0.000152547
-0.000135222
0.000238973
0.000112469
0.000190275
0.000190317
0.000146981
0.000146978
0.000238923
0.000112437
0.000119291
-0.000119358
8.9228e-05
-8.92478e-05
-0.00011936
8.92295e-05
-8.92402e-05
-0.000239014
-0.000112566
-0.000190406
-0.000146927
-0.00014695
-0.000112569
0.000199603
0.00010919
0.00015662
0.000156618
0.000155106
0.000155106
0.00019957
0.000109181
9.50231e-05
-9.50345e-05
9.32375e-05
-9.32371e-05
-9.50307e-05
9.32501e-05
-9.32297e-05
-0.000199744
-0.000109246
-0.000156591
-0.000155058
-0.000155082
-0.000109254
0.000198554
0.000104285
0.000150333
0.000150329
0.000155493
0.000155487
0.000198536
0.000104277
8.9567e-05
-8.95616e-05
9.25353e-05
-9.25045e-05
-8.95564e-05
9.25306e-05
-9.25145e-05
-0.000198668
-0.00010433
-0.000150315
-0.000155429
-0.00015544
-0.00010435
0.000186675
1.40003e-05
0.000140673
0.000140649
6.92544e-05
6.9265e-05
0.000186652
1.39759e-05
8.16902e-05
-8.16433e-05
4.11076e-05
-4.1155e-05
-8.16583e-05
4.11002e-05
-4.11416e-05
-0.000186772
-1.39965e-05
-0.000140608
-6.92585e-05
-6.92508e-05
-1.39612e-05
8.80221e-05
-3.35088e-05
5.03552e-05
5.03694e-05
1.42163e-05
1.42412e-05
8.79966e-05
-3.34934e-05
3.1421e-05
-3.14733e-05
1.03057e-05
-1.03357e-05
-3.14604e-05
1.03125e-05
-1.03316e-05
-8.8079e-05
3.35219e-05
-5.03699e-05
-1.42138e-05
-1.42193e-05
3.3515e-05
4.73509e-05
-4.19188e-05
8.41146e-06
8.43838e-06
1.54818e-06
1.55931e-06
4.73607e-05
-4.19166e-05
6.33639e-06
-6.3595e-06
1.42415e-06
-1.4386e-06
-6.35616e-06
1.42304e-06
-1.43497e-06
-4.73963e-05
4.19506e-05
-8.4065e-06
-1.53365e-06
-1.53172e-06
4.19407e-05
4.11029e-05
-4.24167e-05
9.48443e-07
9.53975e-07
4.46419e-07
4.46411e-07
4.10937e-05
-4.24261e-05
9.95503e-07
-1.00547e-06
6.41953e-07
-6.49509e-07
-1.00322e-06
6.36083e-07
-6.47389e-07
-4.11316e-05
4.24599e-05
-9.29275e-07
-4.22661e-07
-4.21251e-07
4.24486e-05
4.0776e-05
-4.24417e-05
4.2117e-07
4.25272e-07
4.07319e-07
4.09233e-07
4.07635e-05
-4.24417e-05
6.20125e-07
-6.29584e-07
6.05406e-07
-6.17492e-07
-6.28311e-07
6.03828e-07
-6.154e-07
-4.07998e-05
4.24756e-05
-4.00316e-07
-3.87647e-07
-3.86684e-07
4.2464e-05
4.07593e-05
-4.24421e-05
4.06735e-07
4.12999e-07
4.07633e-07
4.07613e-07
4.07543e-05
-4.24404e-05
6.06175e-07
-6.17017e-07
6.05758e-07
-6.17618e-07
-6.15632e-07
6.04462e-07
-6.15189e-07
-4.07903e-05
4.24749e-05
-3.87598e-07
-3.88331e-07
-3.87135e-07
4.24637e-05
4.07608e-05
-4.24244e-05
4.09072e-07
4.17214e-07
4.21174e-07
4.09132e-07
4.0756e-05
-4.24396e-05
6.08177e-07
-6.17408e-07
6.14502e-07
-6.16467e-07
-6.15719e-07
6.05058e-07
-6.15217e-07
-4.07915e-05
4.24756e-05
-3.88076e-07
-3.88005e-07
-3.87199e-07
4.24634e-05
4.0778e-05
-4.24417e-05
4.18664e-07
4.18051e-07
4.06437e-07
4.06639e-07
4.07566e-05
-4.24414e-05
6.14314e-07
-6.16246e-07
6.04286e-07
-6.17922e-07
-6.15975e-07
6.03856e-07
-6.15881e-07
-4.07907e-05
4.24743e-05
-3.8826e-07
-3.888e-07
-3.87816e-07
4.24627e-05
4.07591e-05
-4.24422e-05
4.0853e-07
4.15102e-07
4.04167e-07
4.15191e-07
4.07546e-05
-4.24438e-05
6.06162e-07
-6.18067e-07
6.03842e-07
-6.18587e-07
-6.16449e-07
6.01653e-07
-6.15403e-07
-4.07918e-05
4.24741e-05
-3.89015e-07
-3.88282e-07
-3.89452e-07
4.24632e-05
4.07593e-05
-4.24437e-05
4.05156e-07
4.20094e-07
4.01083e-07
4.18711e-07
4.07519e-05
-4.2445e-05
6.06172e-07
-6.18429e-07
6.03085e-07
-6.18783e-07
-6.15467e-07
6.00378e-07
-6.13578e-07
-4.07918e-05
4.24741e-05
-3.90814e-07
-3.87295e-07
-3.89733e-07
4.24648e-05
4.07617e-05
-4.2443e-05
4.06299e-07
4.18281e-07
4.03492e-07
4.12184e-07
4.07518e-05
-4.24418e-05
6.08261e-07
-6.18388e-07
6.05528e-07
-6.18201e-07
-6.13862e-07
6.03554e-07
-6.12533e-07
-4.07919e-05
4.24748e-05
-3.90138e-07
-3.86774e-07
-3.86865e-07
4.24658e-05
4.07644e-05
-4.24434e-05
4.07759e-07
4.13317e-07
4.05297e-07
4.23263e-07
4.07578e-05
-4.24246e-05
6.05675e-07
-6.17849e-07
6.0513e-07
-6.17245e-07
-6.13018e-07
6.12832e-07
-6.1177e-07
-4.07913e-05
4.24757e-05
-3.87331e-07
-3.86668e-07
-3.85184e-07
4.24666e-05
4.07639e-05
-4.24427e-05
4.08807e-07
4.16696e-07
4.03594e-07
4.09884e-07
4.07703e-05
-4.24447e-05
6.06106e-07
-6.17086e-07
6.05196e-07
-6.17794e-07
-6.12521e-07
6.04497e-07
-6.14105e-07
-4.07905e-05
4.2475e-05
-3.86187e-07
-3.87828e-07
-3.86741e-07
4.24644e-05
4.07641e-05
-4.24415e-05
4.10589e-07
4.11625e-07
4.04331e-07
4.10001e-07
4.07543e-05
-4.24437e-05
6.06185e-07
-6.17674e-07
6.05959e-07
-6.17052e-07
-6.14985e-07
6.05809e-07
-6.1342e-07
-4.07913e-05
4.24757e-05
-3.87837e-07
-3.87355e-07
-3.85985e-07
4.24653e-05
4.0764e-05
-4.24283e-05
4.11325e-07
4.11267e-07
4.16227e-07
4.21968e-07
4.0757e-05
-4.24249e-05
6.07845e-07
-6.16626e-07
6.13792e-07
-6.15742e-07
-6.13864e-07
6.16572e-07
-6.12508e-07
-4.07907e-05
4.24764e-05
-3.87218e-07
-3.87231e-07
-3.86627e-07
4.24656e-05
4.07816e-05
-4.24292e-05
4.26117e-07
4.29284e-07
4.10713e-07
4.16124e-07
4.07772e-05
-4.24373e-05
6.17747e-07
-6.15133e-07
6.13219e-07
-6.15161e-07
-6.12724e-07
6.04861e-07
-6.12496e-07
-4.07906e-05
4.24767e-05
-3.88725e-07
-3.8566e-07
-3.93784e-07
4.24656e-05
4.07723e-05
-4.2433e-05
4.10649e-07
4.06472e-07
4.19615e-07
4.18585e-07
4.0748e-05
-4.24406e-05
6.10395e-07
-6.15436e-07
6.03928e-07
-6.17092e-07
-6.13887e-07
6.0628e-07
-6.15072e-07
-4.079e-05
4.24749e-05
-3.95822e-07
-3.87538e-07
-3.89361e-07
4.24636e-05
4.07658e-05
-4.24361e-05
4.18014e-07
4.08033e-07
4.07534e-07
4.08797e-07
4.07555e-05
-4.24426e-05
6.0485e-07
-6.16912e-07
6.04287e-07
-6.17524e-07
-6.15205e-07
6.01397e-07
-6.14045e-07
-4.07911e-05
4.2475e-05
-3.89273e-07
-3.87187e-07
-3.88e-07
4.24644e-05
4.07588e-05
-4.24391e-05
4.02439e-07
4.10371e-07
4.05175e-07
4.08717e-07
4.0756e-05
-4.24439e-05
6.03336e-07
-6.17556e-07
6.01457e-07
-6.17717e-07
-6.15e-07
6.01028e-07
-6.14463e-07
-4.07909e-05
4.2475e-05
-3.88244e-07
-3.87378e-07
-3.86783e-07
4.24644e-05
4.07575e-05
-4.24392e-05
4.03453e-07
4.07839e-07
4.05812e-07
4.08323e-07
4.07536e-05
-4.2444e-05
6.02495e-07
-6.1758e-07
6.0075e-07
-6.17968e-07
-6.15382e-07
6.00924e-07
-6.14615e-07
-4.07908e-05
4.24747e-05
-3.87384e-07
-3.87781e-07
-3.85499e-07
4.24643e-05
4.0757e-05
-4.2439e-05
4.02478e-07
4.07922e-07
4.06359e-07
4.09309e-07
4.07535e-05
-4.24428e-05
6.01106e-07
-6.17524e-07
6.00596e-07
-6.18377e-07
-6.15224e-07
6.01465e-07
-6.15415e-07
-4.07911e-05
4.2474e-05
-3.87783e-07
-3.88724e-07
-3.88361e-07
4.24634e-05
4.07578e-05
-4.24384e-05
4.03741e-07
4.09163e-07
4.0698e-07
4.0991e-07
4.07548e-05
-4.24421e-05
6.01567e-07
-6.18275e-07
6.01111e-07
-6.18519e-07
-6.16149e-07
6.02231e-07
-6.15343e-07
-4.07919e-05
4.24739e-05
-3.89641e-07
-3.88673e-07
-3.88728e-07
4.24632e-05
4.07585e-05
-4.24366e-05
4.04454e-07
4.09639e-07
4.08817e-07
4.11124e-07
4.07555e-05
-4.24415e-05
6.02099e-07
-6.18231e-07
6.02092e-07
-6.18839e-07
-6.16074e-07
6.02372e-07
-6.16176e-07
-4.0792e-05
4.24733e-05
-3.90032e-07
-3.89952e-07
-3.90349e-07
4.24621e-05
4.07602e-05
-4.24367e-05
4.06065e-07
4.10834e-07
4.08508e-07
4.10687e-07
4.07562e-05
-4.24419e-05
6.03143e-07
-6.188e-07
6.01876e-07
-6.18137e-07
-6.16901e-07
6.02577e-07
-6.15887e-07
-4.07926e-05
4.24741e-05
-3.91526e-07
-3.89238e-07
-3.90068e-07
4.24625e-05
4.07599e-05
-4.24378e-05
4.05477e-07
4.10146e-07
4.07915e-07
4.10504e-07
4.07557e-05
-4.2442e-05
6.02655e-07
-6.17868e-07
6.0144e-07
-6.18712e-07
-6.16265e-07
6.02245e-07
-6.15286e-07
-4.07916e-05
4.24735e-05
-3.90743e-07
-3.89325e-07
-3.89356e-07
4.24631e-05
4.07589e-05
-4.24372e-05
4.04837e-07
4.09814e-07
4.07947e-07
4.09714e-07
4.07555e-05
-4.24427e-05
6.02048e-07
-6.18107e-07
6.01531e-07
-6.17911e-07
-6.15651e-07
6.01506e-07
-6.15483e-07
-4.07922e-05
4.24746e-05
-3.90128e-07
-3.8862e-07
-3.89469e-07
4.24631e-05
4.07595e-05
-4.24391e-05
4.04844e-07
4.09505e-07
4.06142e-07
4.08641e-07
4.07548e-05
-4.24426e-05
6.0236e-07
-6.17724e-07
6.00242e-07
-6.17294e-07
-6.16146e-07
6.00298e-07
-6.14548e-07
-4.07912e-05
4.24752e-05
-3.90334e-07
-3.87753e-07
-3.88313e-07
4.24641e-05
4.07575e-05
-4.24374e-05
4.03147e-07
4.08687e-07
4.07506e-07
4.09672e-07
4.07538e-05
-4.2443e-05
6.01028e-07
-6.17018e-07
6.01406e-07
-6.17797e-07
-6.152e-07
6.00877e-07
-6.14641e-07
-4.07905e-05
4.24747e-05
-3.89248e-07
-3.88322e-07
-3.88654e-07
4.24638e-05
4.07592e-05
-4.24377e-05
4.04577e-07
4.09662e-07
4.0724e-07
4.09923e-07
4.07528e-05
-4.2442e-05
6.023e-07
-6.17557e-07
6.00956e-07
-6.17434e-07
-6.15203e-07
6.01289e-07
-6.1491e-07
-4.07911e-05
4.24749e-05
-3.89322e-07
-3.88283e-07
-3.89027e-07
4.24633e-05
4.07589e-05
-4.24372e-05
4.04483e-07
4.09796e-07
4.08208e-07
4.11221e-07
4.07522e-05
-4.24411e-05
6.01979e-07
-6.17556e-07
6.01761e-07
-6.18538e-07
-6.15862e-07
6.0169e-07
-6.15584e-07
-4.07909e-05
4.24736e-05
-3.8999e-07
-3.89616e-07
-3.90102e-07
4.24625e-05
4.07597e-05
-4.24373e-05
4.05401e-07
4.10953e-07
4.08281e-07
4.11413e-07
4.0753e-05
-4.24413e-05
6.0272e-07
-6.18453e-07
6.01604e-07
-6.18411e-07
-6.1647e-07
6.02197e-07
-6.15821e-07
-4.07921e-05
4.24738e-05
-3.90789e-07
-3.89517e-07
-3.90273e-07
4.24623e-05
4.07595e-05
-4.24369e-05
4.05779e-07
4.11256e-07
4.08411e-07
4.11639e-07
4.07528e-05
-4.24409e-05
6.02797e-07
-6.18395e-07
6.01845e-07
-6.18637e-07
-6.16401e-07
6.01867e-07
-6.15872e-07
-4.0792e-05
4.24734e-05
-3.90663e-07
-3.89876e-07
-3.90408e-07
4.24623e-05
4.07597e-05
-4.24379e-05
4.0576e-07
4.11317e-07
4.07754e-07
4.11062e-07
4.07531e-05
-4.24415e-05
6.02786e-07
-6.18454e-07
6.01418e-07
-6.18144e-07
-6.165e-07
6.02025e-07
-6.15458e-07
-4.07923e-05
4.2474e-05
-3.90857e-07
-3.89097e-07
-3.89748e-07
4.24629e-05
4.07591e-05
-4.24381e-05
4.04562e-07
4.10633e-07
4.07126e-07
4.10181e-07
4.07525e-05
-4.2442e-05
6.01978e-07
-6.17504e-07
6.01153e-07
-6.17636e-07
-6.15605e-07
6.00925e-07
-6.1531e-07
-4.07914e-05
4.24747e-05
-3.89599e-07
-3.88621e-07
-3.89492e-07
4.24633e-05
4.07595e-05
-4.24387e-05
4.04297e-07
4.09709e-07
4.07041e-07
4.1046e-07
4.07516e-05
-4.24423e-05
6.01825e-07
-6.17364e-07
6.01315e-07
-6.18297e-07
-6.15857e-07
6.01639e-07
-6.1516e-07
-4.07911e-05
4.2474e-05
-3.89753e-07
-3.88916e-07
-3.89446e-07
4.24635e-05
4.076e-05
-4.24416e-05
4.04561e-07
4.09609e-07
4.05174e-07
4.10893e-07
4.07518e-05
-4.2442e-05
6.01328e-07
-6.17713e-07
5.99873e-07
-6.17828e-07
-6.15398e-07
6.01396e-07
-6.15236e-07
-4.07916e-05
4.24745e-05
-3.89379e-07
-3.88183e-07
-3.9161e-07
4.24624e-05
4.07576e-05
-4.2447e-05
4.04363e-07
4.12973e-07
4.07336e-07
4.15317e-07
4.07534e-05
-4.24383e-05
6.00394e-07
-6.17854e-07
6.02667e-07
-6.17845e-07
-6.16796e-07
5.9875e-07
-6.16772e-07
-4.07915e-05
4.24746e-05
-3.94718e-07
-3.89667e-07
-3.94958e-07
4.24617e-05
4.07608e-05
-4.24456e-05
4.15112e-07
4.10599e-07
4.01023e-07
4.24126e-07
4.07525e-05
-4.24308e-05
6.04859e-07
-6.17298e-07
5.99686e-07
-6.17141e-07
-6.16172e-07
6.0998e-07
-6.13369e-07
-4.07914e-05
4.24753e-05
-3.91831e-07
-3.88046e-07
-3.88322e-07
4.24652e-05
4.07635e-05
-4.2439e-05
4.10271e-07
4.25219e-07
4.05191e-07
4.11451e-07
4.07686e-05
-4.24417e-05
6.03533e-07
-6.1732e-07
6.04072e-07
-6.18562e-07
-6.13845e-07
6.03968e-07
-6.14534e-07
-4.07909e-05
4.2474e-05
-3.88717e-07
-3.8915e-07
-3.89739e-07
4.24637e-05
4.0767e-05
-4.24392e-05
4.10802e-07
4.12754e-07
4.04869e-07
4.1001e-07
4.07522e-05
-4.24429e-05
6.05388e-07
-6.18515e-07
6.04013e-07
-6.18483e-07
-6.15537e-07
6.0339e-07
-6.15246e-07
-4.0792e-05
4.24742e-05
-3.89932e-07
-3.89063e-07
-3.89862e-07
4.24634e-05
4.07663e-05
-4.24408e-05
4.08679e-07
4.11377e-07
4.03228e-07
4.10253e-07
4.07518e-05
-4.2443e-05
6.04475e-07
-6.18259e-07
6.03324e-07
-6.18587e-07
-6.15827e-07
6.03218e-07
-6.15663e-07
-4.07915e-05
4.24741e-05
-3.89508e-07
-3.8937e-07
-3.90491e-07
4.24629e-05
4.07644e-05
-4.24425e-05
4.0764e-07
4.10515e-07
4.01678e-07
4.08829e-07
4.07518e-05
-4.24444e-05
6.03834e-07
-6.18464e-07
6.02492e-07
-6.17953e-07
-6.16297e-07
6.02695e-07
-6.14988e-07
-4.07917e-05
4.24748e-05
-3.89807e-07
-3.88467e-07
-3.89915e-07
4.24636e-05
4.07628e-05
-4.2443e-05
4.06274e-07
4.09115e-07
4.01333e-07
4.08257e-07
4.07503e-05
-4.24447e-05
6.03183e-07
-6.17621e-07
6.02177e-07
-6.1785e-07
-6.15242e-07
6.01811e-07
-6.14604e-07
-4.07909e-05
4.24748e-05
-3.88245e-07
-3.87955e-07
-3.89383e-07
4.24641e-05
4.07625e-05
-4.2443e-05
4.0611e-07
4.08885e-07
4.01568e-07
4.0835e-07
4.07502e-05
-4.24445e-05
6.02922e-07
-6.17771e-07
6.02159e-07
-6.18212e-07
-6.15364e-07
6.02675e-07
-6.1481e-07
-4.0791e-05
4.24746e-05
-3.88087e-07
-3.88376e-07
-3.89569e-07
4.24639e-05
4.07625e-05
-4.24427e-05
4.06258e-07
4.08797e-07
4.01693e-07
4.08512e-07
4.07503e-05
-4.24442e-05
6.02896e-07
-6.17975e-07
6.02347e-07
-6.182e-07
-6.15372e-07
6.02417e-07
-6.14801e-07
-4.07911e-05
4.24745e-05
-3.88045e-07
-3.88445e-07
-3.89413e-07
4.24638e-05
4.0763e-05
-4.24414e-05
4.06821e-07
4.0934e-07
4.03335e-07
4.09867e-07
4.07508e-05
-4.24432e-05
6.03434e-07
-6.18211e-07
6.03467e-07
-6.18932e-07
-6.15407e-07
6.03363e-07
-6.15538e-07
-4.07914e-05
4.24737e-05
-3.88018e-07
-3.89669e-07
-3.90755e-07
4.24628e-05
4.07641e-05
-4.24415e-05
4.08247e-07
4.10613e-07
4.03137e-07
4.0966e-07
4.07516e-05
-4.24433e-05
6.04294e-07
-6.18927e-07
6.03302e-07
-6.18698e-07
-6.16099e-07
6.03107e-07
-6.15255e-07
-4.07921e-05
4.24739e-05
-3.89805e-07
-3.89224e-07
-3.89826e-07
4.24632e-05
4.07638e-05
-4.24412e-05
4.07672e-07
4.10108e-07
4.03283e-07
4.09858e-07
4.07513e-05
-4.2443e-05
6.03972e-07
-6.18462e-07
6.03631e-07
-6.18883e-07
-6.15622e-07
6.03707e-07
-6.15751e-07
-4.07917e-05
4.24738e-05
-3.88966e-07
-3.8943e-07
-3.90755e-07
4.24626e-05
4.07643e-05
-4.24423e-05
4.08062e-07
4.10387e-07
4.0246e-07
4.09459e-07
4.07518e-05
-4.24436e-05
6.04376e-07
-6.18977e-07
6.02627e-07
-6.1892e-07
-6.16574e-07
6.02806e-07
-6.15893e-07
-4.0792e-05
4.24737e-05
-3.90808e-07
-3.89401e-07
-3.91011e-07
4.24622e-05
4.07627e-05
-4.24435e-05
4.0677e-07
4.09369e-07
4.0067e-07
4.06467e-07
4.07507e-05
-4.24469e-05
6.0304e-07
-6.18641e-07
6.01411e-07
-6.1877e-07
-6.16272e-07
5.99787e-07
-6.16009e-07
-4.07917e-05
4.2474e-05
-3.90453e-07
-3.88391e-07
-3.90085e-07
4.24625e-05
4.07614e-05
-4.24444e-05
4.0502e-07
4.0586e-07
3.98858e-07
3.93652e-07
4.0746e-05
-4.24638e-05
6.01991e-07
-6.18849e-07
6.00364e-07
-6.18868e-07
-6.16829e-07
5.91007e-07
-6.17375e-07
-4.07914e-05
4.2474e-05
-3.90201e-07
-3.88589e-07
-3.90905e-07
4.24614e-05
4.07606e-05
-4.24436e-05
4.03563e-07
3.96504e-07
4.00214e-07
4.07912e-07
4.07292e-05
-4.2446e-05
6.0108e-07
-6.18677e-07
6.01253e-07
-6.18659e-07
-6.17921e-07
6.01013e-07
-6.15759e-07
-4.07913e-05
4.24745e-05
-3.91144e-07
-3.87666e-07
-3.90961e-07
4.2463e-05
4.07622e-05
-4.24419e-05
4.05311e-07
4.07112e-07
4.01364e-07
4.10659e-07
4.07482e-05
-4.24452e-05
6.02468e-07
-6.18498e-07
6.02815e-07
-6.19338e-07
-6.15575e-07
6.0118e-07
-6.13666e-07
-4.07913e-05
4.24735e-05
-3.92704e-07
-3.86572e-07
-3.99689e-07
4.24647e-05
4.07638e-05
-4.24415e-05
4.06153e-07
4.12376e-07
4.0119e-07
4.12327e-07
4.07494e-05
-4.24455e-05
6.04061e-07
-6.1948e-07
6.03754e-07
-6.19894e-07
-6.13811e-07
6.0053e-07
-6.12391e-07
-4.07924e-05
4.24731e-05
-4.01635e-07
-3.85898e-07
-4.00656e-07
4.24654e-05
4.07642e-05
-4.24409e-05
4.0582e-07
4.12845e-07
4.01405e-07
4.134e-07
4.07492e-05
-4.24445e-05
6.04582e-07
-6.19773e-07
6.04158e-07
-6.20306e-07
-6.13047e-07
6.01227e-07
-6.1251e-07
-4.07927e-05
4.24726e-05
-4.02097e-07
-3.8632e-07
-4.01904e-07
4.2465e-05
4.07647e-05
-4.24411e-05
4.06221e-07
4.14293e-07
4.00924e-07
4.13718e-07
4.07504e-05
-4.24448e-05
6.05051e-07
-6.20296e-07
6.04005e-07
-6.20671e-07
-6.1302e-07
6.00799e-07
-6.1195e-07
-4.07933e-05
4.24723e-05
-4.03104e-07
-3.86158e-07
-4.01587e-07
4.24655e-05
4.07643e-05
-4.24409e-05
4.05446e-07
4.14033e-07
4.0083e-07
4.13118e-07
4.07498e-05
-4.24456e-05
6.04572e-07
-6.20379e-07
6.04318e-07
-6.1984e-07
-6.12484e-07
6.00067e-07
-6.11255e-07
-4.07935e-05
4.24734e-05
-4.02658e-07
-3.85183e-07
-4.00769e-07
4.24663e-05
4.07647e-05
-4.24418e-05
4.05371e-07
4.13628e-07
4.0017e-07
4.12879e-07
4.07493e-05
-4.24457e-05
6.05039e-07
-6.19648e-07
6.0373e-07
-6.19595e-07
-6.11808e-07
5.99942e-07
-6.11239e-07
-4.07925e-05
4.24736e-05
-4.0191e-07
-3.84789e-07
-4.00695e-07
4.24664e-05
4.07636e-05
-4.24428e-05
4.04452e-07
4.12942e-07
3.98711e-07
4.11498e-07
4.07489e-05
-4.24466e-05
6.04161e-07
-6.19151e-07
6.02754e-07
-6.18868e-07
-6.11436e-07
5.9921e-07
-6.10056e-07
-4.0792e-05
4.24745e-05
-4.0118e-07
-3.835e-07
-3.99271e-07
4.24674e-05
4.07629e-05
-4.24415e-05
4.03834e-07
4.12464e-07
4.00262e-07
4.1296e-07
4.07483e-05
-4.24455e-05
6.03728e-07
-6.19024e-07
6.03788e-07
-6.19659e-07
-6.1083e-07
6.00029e-07
-6.10978e-07
-4.07915e-05
4.24734e-05
-4.00804e-07
-3.84661e-07
-4.00261e-07
4.24666e-05
4.07641e-05
-4.24418e-05
4.04958e-07
4.13509e-07
4.00048e-07
4.12692e-07
4.07492e-05
-4.24461e-05
6.04698e-07
-6.19521e-07
6.03615e-07
-6.19614e-07
-6.1164e-07
5.99703e-07
-6.10986e-07
-4.07924e-05
4.24737e-05
-4.01343e-07
-3.845e-07
-4.00321e-07
4.24665e-05
4.07638e-05
-4.24409e-05
4.04818e-07
4.13249e-07
4.00978e-07
4.13618e-07
4.07488e-05
-4.24448e-05
6.04725e-07
-6.19433e-07
6.04117e-07
-6.20585e-07
-6.11546e-07
6.00499e-07
-6.11673e-07
-4.07922e-05
4.24723e-05
-4.01473e-07
-3.85917e-07
-4.01608e-07
4.24657e-05
4.07648e-05
-4.24407e-05
4.05963e-07
4.14527e-07
4.01271e-07
4.14092e-07
4.075e-05
-4.24445e-05
6.05381e-07
-6.2066e-07
6.04203e-07
-6.20564e-07
-6.12411e-07
6.01009e-07
-6.12068e-07
-4.07937e-05
4.24726e-05
-4.03082e-07
-3.86099e-07
-4.02104e-07
4.24655e-05
4.07649e-05
-4.24403e-05
4.06083e-07
4.14586e-07
4.01294e-07
4.13897e-07
4.07501e-05
-4.24446e-05
6.05418e-07
-6.20346e-07
6.04398e-07
-6.19761e-07
-6.12429e-07
6.00461e-07
-6.11099e-07
-4.07932e-05
4.24732e-05
-4.02703e-07
-3.85524e-07
-4.01438e-07
4.24662e-05
4.0765e-05
-4.24398e-05
4.06007e-07
4.14493e-07
4.01473e-07
4.1399e-07
4.075e-05
-4.24443e-05
6.05569e-07
-6.19436e-07
6.05083e-07
-6.17804e-07
-6.11617e-07
6.01486e-07
-6.09229e-07
-4.07925e-05
4.24754e-05
-4.0234e-07
-3.82686e-07
-3.99201e-07
4.24681e-05
4.07652e-05
-4.244e-05
4.0617e-07
4.1448e-07
4.00988e-07
4.14024e-07
4.07497e-05
-4.24437e-05
6.06412e-07
-6.16337e-07
6.05452e-07
-6.12033e-07
-6.08702e-07
6.0201e-07
-6.03981e-07
-4.07888e-05
4.24832e-05
-3.98147e-07
-3.70552e-07
-3.90114e-07
4.24749e-05
4.07649e-05
-4.24402e-05
4.05967e-07
4.14635e-07
4.00947e-07
4.14104e-07
4.07504e-05
-4.24442e-05
6.06855e-07
-6.11545e-07
6.05105e-07
-6.14621e-07
-6.0369e-07
6.02424e-07
-6.05018e-07
-4.07812e-05
4.24783e-05
-3.86728e-07
-3.79272e-07
-3.94714e-07
4.24729e-05
4.07647e-05
-4.24414e-05
4.05439e-07
4.14297e-07
3.99875e-07
4.12699e-07
4.075e-05
-4.24458e-05
6.05856e-07
-6.15727e-07
6.03722e-07
-6.18358e-07
-6.07165e-07
5.99721e-07
-6.0947e-07
-4.0788e-05
4.24747e-05
-3.97222e-07
-3.82682e-07
-4.00209e-07
4.24681e-05
4.0764e-05
-4.24411e-05
4.04703e-07
4.13238e-07
4.00523e-07
4.13325e-07
4.07489e-05
-4.2445e-05
6.04828e-07
-6.18412e-07
6.03771e-07
-6.19671e-07
-6.10074e-07
6.00701e-07
-6.1091e-07
-4.07912e-05
4.24734e-05
-3.98145e-07
-3.84907e-07
-4.02072e-07
4.24663e-05
4.07646e-05
-4.24411e-05
4.0565e-07
4.14016e-07
4.00591e-07
4.13295e-07
4.07497e-05
-4.24451e-05
6.05102e-07
-6.19837e-07
6.03696e-07
-6.19895e-07
-6.11812e-07
6.00118e-07
-6.11513e-07
-4.07927e-05
4.2473e-05
-4.01499e-07
-3.85116e-07
-4.01446e-07
4.24657e-05
4.07643e-05
-4.24406e-05
4.05461e-07
4.13991e-07
4.01207e-07
4.1391e-07
4.07496e-05
-4.24447e-05
6.04867e-07
-6.1977e-07
6.04131e-07
-6.20882e-07
-6.12343e-07
6.00545e-07
-6.11653e-07
-4.07927e-05
4.2472e-05
-4.03021e-07
-3.86019e-07
-4.02098e-07
4.24655e-05
4.0765e-05
-4.24407e-05
4.06182e-07
4.14614e-07
4.011e-07
4.14287e-07
4.075e-05
-4.24442e-05
6.05383e-07
-6.2096e-07
6.04021e-07
-6.20545e-07
-6.12219e-07
6.00873e-07
-6.11611e-07
-4.07939e-05
4.24724e-05
-4.03212e-07
-3.85824e-07
-4.02243e-07
4.24654e-05
4.07647e-05
-4.24415e-05
4.05784e-07
4.14551e-07
4.00162e-07
4.12703e-07
4.07504e-05
-4.2446e-05
6.05059e-07
-6.20015e-07
6.03499e-07
-6.19399e-07
-6.1211e-07
5.99907e-07
-6.10794e-07
-4.07931e-05
4.2474e-05
-4.03307e-07
-3.84255e-07
-4.00861e-07
4.24664e-05
4.07639e-05
-4.24415e-05
4.04641e-07
4.12959e-07
4.00082e-07
4.12673e-07
4.07487e-05
-4.24458e-05
6.04459e-07
-6.19162e-07
6.03382e-07
-6.19487e-07
-6.11311e-07
5.9973e-07
-6.10786e-07
-4.07918e-05
4.24736e-05
-4.01839e-07
-3.84621e-07
-4.01102e-07
4.24665e-05
4.07638e-05
-4.24421e-05
4.04786e-07
4.13206e-07
3.99363e-07
4.12316e-07
4.07488e-05
-4.24458e-05
6.04387e-07
-6.19425e-07
6.02953e-07
-6.19126e-07
-6.11214e-07
5.99699e-07
-6.10035e-07
-4.07921e-05
4.24741e-05
-4.02061e-07
-3.83632e-07
-3.9996e-07
4.24672e-05
4.07634e-05
-4.24419e-05
4.04269e-07
4.12919e-07
3.99825e-07
4.12463e-07
4.07488e-05
-4.2446e-05
6.04159e-07
-6.19034e-07
6.03077e-07
-6.19478e-07
-6.1072e-07
5.99784e-07
-6.10541e-07
-4.07916e-05
4.24737e-05
-4.0127e-07
-3.84624e-07
-4.00855e-07
4.24666e-05
4.07636e-05
-4.2441e-05
4.04679e-07
4.12998e-07
4.00231e-07
4.12997e-07
4.07487e-05
-4.24453e-05
6.04264e-07
-6.1938e-07
6.03624e-07
-6.19568e-07
-6.11142e-07
5.99808e-07
-6.11029e-07
-4.0792e-05
4.24734e-05
-4.02028e-07
-3.84613e-07
-4.01209e-07
4.2466e-05
4.07645e-05
-4.24405e-05
4.0525e-07
4.13843e-07
4.01236e-07
4.13875e-07
4.07495e-05
-4.24448e-05
6.04919e-07
-6.19726e-07
6.04227e-07
-6.20358e-07
-6.11789e-07
6.00629e-07
-6.11597e-07
-4.07924e-05
4.24726e-05
-4.02666e-07
-3.85643e-07
-4.02188e-07
4.24654e-05
4.0765e-05
-4.24409e-05
4.06157e-07
4.1456e-07
4.01098e-07
4.13709e-07
4.07498e-05
-4.24448e-05
6.05425e-07
-6.20433e-07
6.03899e-07
-6.20261e-07
-6.12205e-07
6.00511e-07
-6.11577e-07
-4.07931e-05
4.24725e-05
-4.03441e-07
-3.85756e-07
-4.02201e-07
4.24654e-05
4.07646e-05
-4.2441e-05
4.05882e-07
4.14328e-07
4.00925e-07
4.1373e-07
4.07498e-05
-4.24448e-05
6.0503e-07
-6.20417e-07
6.0386e-07
-6.20157e-07
-6.12116e-07
6.00732e-07
-6.11872e-07
-4.07932e-05
4.24726e-05
-4.03354e-07
-3.85717e-07
-4.025e-07
4.24653e-05
4.07643e-05
-4.24416e-05
4.05729e-07
4.14193e-07
4.00271e-07
4.12905e-07
4.07497e-05
-4.24456e-05
6.05023e-07
-6.20577e-07
6.03272e-07
-6.19016e-07
-6.12259e-07
5.99494e-07
-6.10879e-07
-4.0793e-05
4.24734e-05
-4.03362e-07
-3.84868e-07
-4.01319e-07
4.24662e-05
4.07636e-05
-4.24421e-05
4.04881e-07
4.13217e-07
3.99762e-07
4.12364e-07
4.07489e-05
-4.2446e-05
6.04235e-07
-6.20418e-07
6.0304e-07
-6.17606e-07
-6.11508e-07
5.997e-07
-6.10644e-07
-4.07921e-05
4.24734e-05
-4.02454e-07
-3.84245e-07
-4.00729e-07
4.24666e-05
4.07632e-05
-4.2442e-05
4.04614e-07
4.1298e-07
3.99747e-07
4.12045e-07
4.07485e-05
-4.24461e-05
6.04182e-07
-6.21044e-07
6.03059e-07
-6.17112e-07
-6.10921e-07
5.99481e-07
-6.10804e-07
-4.0791e-05
4.24718e-05
-4.0165e-07
-3.84566e-07
-4.00915e-07
4.24665e-05
4.07632e-05
-4.24419e-05
4.0432e-07
4.12538e-07
4.0002e-07
4.12818e-07
4.07484e-05
-4.24457e-05
6.04032e-07
-6.21635e-07
6.03239e-07
-6.17695e-07
-6.11264e-07
5.99907e-07
-6.11098e-07
-4.07912e-05
4.24721e-05
-4.01915e-07
-3.8459e-07
-4.01261e-07
4.24664e-05
4.07635e-05
-4.24398e-05
4.0438e-07
4.12587e-07
4.03537e-07
4.16136e-07
4.07488e-05
-4.2444e-05
6.03776e-07
-6.21036e-07
6.06226e-07
-6.21249e-07
-6.10971e-07
6.02613e-07
-6.1409e-07
-4.07908e-05
4.24699e-05
-4.01795e-07
-3.88356e-07
-4.04883e-07
4.24644e-05
4.07622e-05
-4.24154e-05
4.00874e-07
4.091e-07
4.0487e-07
4.17701e-07
4.07473e-05
-4.2419e-05
6.00575e-07
-6.17615e-07
6.07043e-07
-6.23097e-07
-6.07501e-07
6.03405e-07
-6.15238e-07
-4.07893e-05
4.24444e-05
-3.98098e-07
-3.89917e-07
-4.06351e-07
4.244e-05
4.07137e-05
-4.21887e-05
4.15359e-07
4.22662e-07
2.50072e-07
2.64415e-07
4.06983e-05
-4.21927e-05
6.05385e-07
-6.20349e-07
5.09316e-07
-5.25775e-07
-6.12348e-07
5.05738e-07
-5.18114e-07
-4.07403e-05
4.22189e-05
-4.11974e-07
-2.36375e-07
-2.50461e-07
4.22128e-05
4.02882e-05
-4.12667e-05
6.58087e-07
6.6324e-07
-2.48422e-07
-2.37283e-07
4.02732e-05
-4.12683e-05
7.19636e-07
-7.35406e-07
2.09543e-07
-2.24741e-07
-7.26351e-07
2.06774e-07
-2.19884e-07
-4.03147e-05
4.12982e-05
-6.52612e-07
2.64574e-07
2.6139e-07
4.12911e-05
3.9778e-05
-3.95613e-05
1.33217e-06
1.33598e-06
-1.88573e-06
-1.87987e-06
3.97592e-05
-3.95597e-05
1.25573e-06
-1.26572e-06
-1.15174e-06
1.14755e-06
-1.2578e-06
-1.14506e-06
1.13537e-06
-3.98009e-05
3.95926e-05
-1.31734e-06
1.90784e-06
1.90603e-06
3.95902e-05
3.68929e-05
-3.44446e-05
3.21935e-06
3.24466e-06
-6.45626e-06
-6.45076e-06
3.6886e-05
-3.44584e-05
2.61866e-06
-2.62395e-06
-4.79808e-06
4.80548e-06
-2.61332e-06
-4.78179e-06
4.81019e-06
-3.69147e-05
3.44766e-05
-3.21506e-06
6.47177e-06