/*--------------------------------*- C++ -*----------------------------------*\
| =========                 |                                                 |
| \\      /  F ield         | OpenFOAM: The Open Source CFD Toolbox           |
|  \\    /   O peration     | Version:  2206                                  |
|   \\  /    A nd           | Website:  www.openfoam.com                      |
|    \\/     M anipulation  |                                                 |
\*---------------------------------------------------------------------------*/
FoamFile
{
    version     2.0;
    format      ascii;
    arch        "LSB;label=32;scalar=64";
    class       volScalarField;
    location    "14";
    object      p;
}
// * * * * * * * * * * * * * * * * * * * * * * * * * * * * * * * * * * * * * //

dimensions      [0 2 -2 0 0 0 0];

internalField   nonuniform List<scalar> 
171728
(
0.00430494
0.00430529
0.00430529
0.00430836
0.00424972
0.00425015
0.00425015
0.00425304
0.00419913
0.00419901
0.00419901
0.00420147
0.004151
0.00415091
0.00415091
0.00415355
0.00410516
0.00410512
0.00410512
0.00410779
0.00405954
0.00405952
0.00405952
0.00406218
0.00401396
0.00401393
0.00401393
0.00401659
0.00396837
0.00396834
0.00396834
0.00397101
0.00392279
0.00392276
0.00392276
0.00392542
0.0038772
0.00387717
0.00387717
0.00387984
0.00383161
0.00383159
0.00383159
0.00383425
0.00378603
0.003786
0.003786
0.00378867
0.00374044
0.00374041
0.00374041
0.00374308
0.00369486
0.00369483
0.00369483
0.0036975
0.00364929
0.00364926
0.00364926
0.00365192
0.0036037
0.00360367
0.00360367
0.00360633
0.0035581
0.00355808
0.00355808
0.00356074
0.00351251
0.00351249
0.00351249
0.00351515
0.00346692
0.0034669
0.00346689
0.00346956
0.00342133
0.0034213
0.0034213
0.00342397
0.00337574
0.00337571
0.00337571
0.00337838
0.00333015
0.00333012
0.00333012
0.00333279
0.00328456
0.00328453
0.00328453
0.0032872
0.00323897
0.00323895
0.00323895
0.00324161
0.00319338
0.00319336
0.00319336
0.00319602
0.0031478
0.00314777
0.00314777
0.00315044
0.00310221
0.00310218
0.00310218
0.00310485
0.00305662
0.0030566
0.0030566
0.00305926
0.00301104
0.00301101
0.00301101
0.00301368
0.00296545
0.00296542
0.00296542
0.00296809
0.00291987
0.00291984
0.00291984
0.00292251
0.00287429
0.00287427
0.00287427
0.00287693
0.00282872
0.00282869
0.00282869
0.00283136
0.00278312
0.0027831
0.0027831
0.00278576
0.00273754
0.00273751
0.00273751
0.00274018
0.00269195
0.00269193
0.00269193
0.00269459
0.00264637
0.00264634
0.00264634
0.00264901
0.00260078
0.00260076
0.00260076
0.00260342
0.0025552
0.00255517
0.00255517
0.00255783
0.00250961
0.00250958
0.00250958
0.00251225
0.00246402
0.00246399
0.00246399
0.00246666
0.00241843
0.0024184
0.0024184
0.00242107
0.00237284
0.00237282
0.00237282
0.00237548
0.00232726
0.00232723
0.00232723
0.0023299
0.00228167
0.00228164
0.00228164
0.00228431
0.00223609
0.00223606
0.00223606
0.00223872
0.0021905
0.00219047
0.00219047
0.00219314
0.00214491
0.00214489
0.00214489
0.00214755
0.00209933
0.0020993
0.0020993
0.00210197
0.00205375
0.00205373
0.00205373
0.00205639
0.00200817
0.00200814
0.00200814
0.00201081
0.00196258
0.00196255
0.00196255
0.00196522
0.00191699
0.00191696
0.00191696
0.00191963
0.0018714
0.00187138
0.00187138
0.00187404
0.00182582
0.00182579
0.00182579
0.00182846
0.00178023
0.0017802
0.0017802
0.00178287
0.00173464
0.00173462
0.00173462
0.00173728
0.00168906
0.00168903
0.00168903
0.00169169
0.00164347
0.00164344
0.00164344
0.00164611
0.00159788
0.00159785
0.00159785
0.00160052
0.00155229
0.00155226
0.00155226
0.00155493
0.0015067
0.00150667
0.00150667
0.00150934
0.00146111
0.00146109
0.00146109
0.00146375
0.00141553
0.0014155
0.0014155
0.00141816
0.00136994
0.00136991
0.00136991
0.00137258
0.00132436
0.00132433
0.00132433
0.001327
0.00127878
0.00127876
0.00127876
0.00128142
0.00123321
0.00123318
0.00123318
0.00123585
0.00118761
0.00118759
0.00118759
0.00119025
0.00114202
0.001142
0.001142
0.00114466
0.00109644
0.00109641
0.00109641
0.00109907
0.00105084
0.00105082
0.00105082
0.00105348
0.00100525
0.00100523
0.00100523
0.00100789
0.000959665
0.000959638
0.000959638
0.000962304
0.000914076
0.000914049
0.000914049
0.000916714
0.000868487
0.00086846
0.00086846
0.000871126
0.0008229
0.000822873
0.000822873
0.000825538
0.000777313
0.000777286
0.000777286
0.000779951
0.000731726
0.000731699
0.000731699
0.000734364
0.00068614
0.000686113
0.000686113
0.000688779
0.000640554
0.000640528
0.000640528
0.000643193
0.000594968
0.000594941
0.000594941
0.000597607
0.000549381
0.000549354
0.000549354
0.00055202
0.000503799
0.000503773
0.000503771
0.000506438
0.00045822
0.000458193
0.000458193
0.000460859
0.00041263
0.000412601
0.000412604
0.000415267
0.000367036
0.000367009
0.000367009
0.000369674
0.000321445
0.000321419
0.000321419
0.000324084
0.000275855
0.000275828
0.000275828
0.000278494
0.000230265
0.000230238
0.000230238
0.000232904
0.000184675
0.000184651
0.00018465
0.000187314
0.000139071
0.000139051
0.000139051
0.000141699
9.35207e-05
9.34737e-05
9.34726e-05
9.60988e-05
4.85524e-05
4.79936e-05
4.79904e-05
5.04559e-05
1.10656e-05
1.14479e-05
1.14459e-05
1.106e-05
0.00431838
0.0043186
0.0043186
0.00431838
0.0043186
0.0043186
0.00431934
0.00431934
0.00431935
0.00431935
0.0043186
0.0043186
0.00431838
0.00431861
0.00431861
0.00431838
0.00430836
0.00425971
0.00430529
0.00430529
0.00426182
0.00426182
0.00430836
0.00425971
0.00430529
0.00430529
0.00426181
0.00426182
0.00430529
0.00426181
0.00426181
0.00430836
0.00425971
0.0043053
0.00426181
0.00426181
0.00425971
0.00425304
0.00420849
0.00425015
0.00425016
0.00421185
0.00421185
0.00425304
0.0042085
0.00425015
0.00425015
0.00421185
0.00421185
0.00425015
0.00421185
0.00421185
0.00425304
0.00420849
0.00425015
0.00421185
0.00421185
0.00420849
0.00420147
0.00415962
0.00419901
0.00419901
0.00416251
0.00416251
0.00420147
0.00415962
0.00419901
0.00419901
0.00416251
0.00416251
0.00419901
0.00416251
0.00416251
0.00420147
0.00415962
0.00419901
0.00416251
0.00416251
0.00415962
0.00415355
0.00411386
0.00415091
0.00415091
0.00411653
0.00411653
0.00415355
0.00411386
0.00415091
0.00415091
0.00411653
0.00411653
0.00415091
0.00411653
0.00411653
0.00415355
0.00411386
0.00415091
0.00411653
0.00411653
0.00411386
0.00410779
0.00406825
0.00410512
0.00410512
0.00407091
0.00407091
0.00410779
0.00406825
0.00410512
0.00410512
0.00407091
0.00407091
0.00410512
0.00407091
0.00407091
0.00410779
0.00406825
0.00410512
0.00407091
0.00407091
0.00406825
0.00406218
0.00402267
0.00405952
0.00405952
0.00402533
0.00402533
0.00406218
0.00402266
0.00405952
0.00405952
0.00402533
0.00402533
0.00405952
0.00402533
0.00402533
0.00406218
0.00402267
0.00405952
0.00402533
0.00402533
0.00402267
0.0040166
0.00397708
0.00401393
0.00401393
0.00397974
0.00397974
0.00401659
0.00397708
0.00401393
0.00401393
0.00397974
0.00397974
0.00401393
0.00397974
0.00397974
0.00401659
0.00397708
0.00401393
0.00397974
0.00397974
0.00397708
0.00397101
0.00393149
0.00396834
0.00396834
0.00393415
0.00393415
0.00397101
0.00393149
0.00396834
0.00396834
0.00393415
0.00393415
0.00396834
0.00393415
0.00393415
0.00397101
0.00393149
0.00396834
0.00393415
0.00393415
0.00393149
0.00392542
0.00388591
0.00392276
0.00392276
0.00388857
0.00388857
0.00392542
0.00388591
0.00392276
0.00392276
0.00388857
0.00388857
0.00392276
0.00388857
0.00388857
0.00392542
0.00388591
0.00392276
0.00388857
0.00388857
0.00388591
0.00387984
0.00384032
0.00387717
0.00387717
0.00384298
0.00384298
0.00387984
0.00384032
0.00387717
0.00387717
0.00384298
0.00384298
0.00387717
0.00384298
0.00384298
0.00387984
0.00384032
0.00387717
0.00384298
0.00384298
0.00384032
0.00383425
0.00379474
0.00383159
0.00383159
0.0037974
0.0037974
0.00383425
0.00379474
0.00383159
0.00383159
0.0037974
0.0037974
0.00383159
0.0037974
0.0037974
0.00383425
0.00379474
0.00383159
0.0037974
0.0037974
0.00379474
0.00378867
0.00374915
0.003786
0.003786
0.00375181
0.00375181
0.00378866
0.00374915
0.003786
0.003786
0.00375181
0.00375181
0.003786
0.00375181
0.00375181
0.00378867
0.00374915
0.003786
0.00375181
0.00375181
0.00374915
0.00374308
0.00370357
0.00374041
0.00374041
0.00370623
0.00370623
0.00374308
0.00370357
0.00374041
0.00374041
0.00370623
0.00370623
0.00374041
0.00370623
0.00370623
0.00374308
0.00370357
0.00374041
0.00370623
0.00370623
0.00370357
0.0036975
0.00365799
0.00369483
0.00369483
0.00366065
0.00366065
0.0036975
0.00365799
0.00369483
0.00369483
0.00366065
0.00366065
0.00369483
0.00366065
0.00366065
0.0036975
0.00365799
0.00369483
0.00366065
0.00366065
0.00365799
0.00365192
0.00361241
0.00364926
0.00364926
0.00361507
0.00361507
0.00365193
0.0036124
0.00364926
0.00364926
0.00361507
0.00361507
0.00364926
0.00361507
0.00361507
0.00365192
0.00361241
0.00364926
0.00361507
0.00361507
0.00361241
0.00360633
0.00356681
0.00360367
0.00360367
0.00356947
0.00356947
0.00360633
0.00356681
0.00360367
0.00360367
0.00356947
0.00356947
0.00360367
0.00356947
0.00356947
0.00360633
0.00356681
0.00360367
0.00356947
0.00356947
0.00356681
0.00356074
0.00352122
0.00355808
0.00355808
0.00352388
0.00352388
0.00356074
0.00352122
0.00355808
0.00355808
0.00352388
0.00352388
0.00355808
0.00352388
0.00352388
0.00356074
0.00352122
0.00355808
0.00352388
0.00352388
0.00352122
0.00351515
0.00347563
0.00351249
0.00351249
0.00347829
0.00347829
0.00351515
0.00347563
0.00351249
0.00351249
0.00347829
0.00347829
0.00351249
0.00347829
0.00347829
0.00351515
0.00347563
0.00351249
0.00347829
0.00347829
0.00347563
0.00346956
0.00343004
0.0034669
0.0034669
0.0034327
0.0034327
0.00346956
0.00343004
0.0034669
0.00346689
0.0034327
0.0034327
0.00346689
0.0034327
0.0034327
0.00346956
0.00343004
0.00346689
0.0034327
0.0034327
0.00343004
0.00342397
0.00338445
0.0034213
0.0034213
0.00338711
0.00338711
0.00342397
0.00338445
0.0034213
0.0034213
0.00338711
0.00338711
0.0034213
0.00338711
0.00338711
0.00342397
0.00338445
0.0034213
0.00338711
0.00338711
0.00338445
0.00337838
0.00333886
0.00337571
0.00337571
0.00334152
0.00334152
0.00337838
0.00333886
0.00337571
0.00337571
0.00334152
0.00334152
0.00337571
0.00334152
0.00334152
0.00337838
0.00333886
0.00337571
0.00334152
0.00334152
0.00333886
0.00333279
0.00329327
0.00333012
0.00333012
0.00329593
0.00329593
0.00333279
0.00329327
0.00333012
0.00333012
0.00329593
0.00329593
0.00333012
0.00329593
0.00329593
0.00333279
0.00329327
0.00333012
0.00329593
0.00329593
0.00329327
0.0032872
0.00324768
0.00328453
0.00328453
0.00325034
0.00325034
0.0032872
0.00324768
0.00328453
0.00328453
0.00325034
0.00325034
0.00328453
0.00325034
0.00325034
0.0032872
0.00324768
0.00328453
0.00325034
0.00325034
0.00324768
0.00324161
0.00320209
0.00323895
0.00323895
0.00320475
0.00320475
0.00324161
0.00320209
0.00323895
0.00323895
0.00320475
0.00320475
0.00323895
0.00320475
0.00320475
0.00324161
0.00320209
0.00323895
0.00320475
0.00320475
0.00320209
0.00319602
0.00315651
0.00319336
0.00319336
0.00315917
0.00315917
0.00319602
0.00315651
0.00319336
0.00319336
0.00315917
0.00315917
0.00319336
0.00315917
0.00315917
0.00319602
0.00315651
0.00319336
0.00315917
0.00315917
0.00315651
0.00315043
0.00311092
0.00314777
0.00314777
0.00311358
0.00311358
0.00315043
0.00311092
0.00314777
0.00314777
0.00311358
0.00311358
0.00314777
0.00311358
0.00311358
0.00315044
0.00311092
0.00314777
0.00311358
0.00311358
0.00311092
0.00310485
0.00306533
0.00310218
0.00310218
0.00306799
0.00306799
0.00310485
0.00306533
0.00310218
0.00310218
0.00306799
0.00306799
0.00310218
0.00306799
0.00306799
0.00310485
0.00306533
0.00310218
0.00306799
0.00306799
0.00306533
0.00305926
0.00301975
0.0030566
0.0030566
0.00302241
0.00302241
0.00305926
0.00301975
0.0030566
0.0030566
0.00302241
0.00302241
0.0030566
0.00302241
0.00302241
0.00305926
0.00301975
0.0030566
0.00302241
0.00302241
0.00301975
0.00301368
0.00297416
0.00301101
0.00301101
0.00297682
0.00297682
0.00301368
0.00297416
0.00301101
0.00301101
0.00297682
0.00297682
0.00301101
0.00297682
0.00297682
0.00301368
0.00297416
0.00301101
0.00297682
0.00297682
0.00297416
0.00296809
0.00292858
0.00296542
0.00296542
0.00293124
0.00293124
0.00296809
0.00292858
0.00296542
0.00296542
0.00293124
0.00293124
0.00296542
0.00293124
0.00293124
0.00296809
0.00292858
0.00296542
0.00293124
0.00293124
0.00292858
0.00292251
0.002883
0.00291984
0.00291984
0.00288566
0.00288566
0.00292251
0.002883
0.00291984
0.00291984
0.00288566
0.00288566
0.00291984
0.00288566
0.00288566
0.00292251
0.002883
0.00291984
0.00288566
0.00288566
0.002883
0.00287693
0.00283743
0.00287427
0.00287427
0.00284008
0.00284008
0.00287693
0.00283742
0.00287427
0.00287427
0.00284008
0.00284008
0.00287427
0.00284008
0.00284008
0.00287693
0.00283743
0.00287427
0.00284008
0.00284008
0.00283743
0.00283135
0.00279183
0.00282869
0.00282869
0.00279449
0.0027945
0.00283135
0.00279183
0.00282869
0.00282869
0.00279449
0.00279449
0.00282869
0.0027945
0.00279449
0.00283135
0.00279183
0.00282869
0.00279449
0.00279449
0.00279183
0.00278576
0.00274625
0.0027831
0.0027831
0.00274891
0.00274891
0.00278576
0.00274625
0.0027831
0.0027831
0.00274891
0.00274891
0.0027831
0.00274891
0.00274891
0.00278576
0.00274625
0.0027831
0.00274891
0.00274891
0.00274625
0.00274018
0.00270066
0.00273751
0.00273751
0.00270332
0.00270332
0.00274018
0.00270066
0.00273751
0.00273751
0.00270332
0.00270332
0.00273751
0.00270332
0.00270332
0.00274018
0.00270066
0.00273751
0.00270332
0.00270332
0.00270066
0.00269459
0.00265508
0.00269193
0.00269193
0.00265774
0.00265774
0.00269459
0.00265508
0.00269193
0.00269193
0.00265774
0.00265774
0.00269193
0.00265774
0.00265774
0.00269459
0.00265508
0.00269193
0.00265774
0.00265774
0.00265508
0.00264901
0.00260949
0.00264634
0.00264634
0.00261215
0.00261215
0.00264901
0.00260949
0.00264634
0.00264634
0.00261215
0.00261215
0.00264634
0.00261215
0.00261215
0.00264901
0.00260949
0.00264634
0.00261215
0.00261215
0.00260949
0.00260342
0.00256391
0.00260076
0.00260076
0.00256657
0.00256657
0.00260342
0.00256391
0.00260076
0.00260076
0.00256657
0.00256657
0.00260076
0.00256657
0.00256657
0.00260342
0.00256391
0.00260076
0.00256657
0.00256657
0.00256391
0.00255783
0.00251832
0.00255517
0.00255517
0.00252098
0.00252098
0.00255783
0.00251832
0.00255517
0.00255517
0.00252098
0.00252098
0.00255517
0.00252098
0.00252098
0.00255783
0.00251832
0.00255517
0.00252098
0.00252098
0.00251832
0.00251225
0.00247273
0.00250958
0.00250958
0.00247539
0.00247539
0.00251225
0.00247273
0.00250958
0.00250958
0.00247539
0.00247539
0.00250958
0.00247539
0.00247539
0.00251225
0.00247273
0.00250958
0.00247539
0.00247539
0.00247273
0.00246666
0.00242714
0.00246399
0.00246399
0.0024298
0.0024298
0.00246666
0.00242714
0.00246399
0.00246399
0.0024298
0.0024298
0.00246399
0.0024298
0.0024298
0.00246666
0.00242714
0.00246399
0.0024298
0.0024298
0.00242714
0.00242107
0.00238155
0.0024184
0.0024184
0.00238421
0.00238421
0.00242107
0.00238155
0.0024184
0.0024184
0.00238421
0.00238421
0.0024184
0.00238421
0.00238421
0.00242107
0.00238155
0.0024184
0.00238421
0.00238421
0.00238155
0.00237548
0.00233597
0.00237282
0.00237282
0.00233863
0.00233863
0.00237548
0.00233597
0.00237282
0.00237282
0.00233863
0.00233863
0.00237282
0.00233863
0.00233863
0.00237548
0.00233597
0.00237282
0.00233863
0.00233863
0.00233597
0.0023299
0.00229038
0.00232723
0.00232723
0.00229304
0.00229304
0.0023299
0.00229038
0.00232723
0.00232723
0.00229304
0.00229304
0.00232723
0.00229304
0.00229304
0.0023299
0.00229038
0.00232723
0.00229304
0.00229304
0.00229038
0.00228431
0.00224479
0.00228164
0.00228164
0.00224746
0.00224746
0.00228431
0.00224479
0.00228164
0.00228164
0.00224746
0.00224746
0.00228164
0.00224746
0.00224746
0.00228431
0.00224479
0.00228164
0.00224746
0.00224746
0.00224479
0.00223872
0.00219921
0.00223606
0.00223606
0.00220187
0.00220187
0.00223872
0.00219921
0.00223606
0.00223606
0.00220187
0.00220187
0.00223606
0.00220187
0.00220187
0.00223872
0.00219921
0.00223606
0.00220187
0.00220187
0.00219921
0.00219314
0.00215362
0.00219047
0.00219047
0.00215628
0.00215628
0.00219314
0.00215362
0.00219047
0.00219047
0.00215628
0.00215628
0.00219047
0.00215628
0.00215628
0.00219314
0.00215362
0.00219047
0.00215628
0.00215628
0.00215362
0.00214755
0.00210804
0.00214489
0.00214489
0.0021107
0.0021107
0.00214755
0.00210804
0.00214489
0.00214489
0.0021107
0.0021107
0.00214489
0.0021107
0.0021107
0.00214755
0.00210804
0.00214489
0.0021107
0.0021107
0.00210804
0.00210197
0.00206246
0.0020993
0.0020993
0.00206512
0.00206512
0.00210197
0.00206246
0.0020993
0.0020993
0.00206512
0.00206512
0.0020993
0.00206512
0.00206512
0.00210197
0.00206246
0.0020993
0.00206512
0.00206512
0.00206246
0.00205639
0.00201688
0.00205373
0.00205373
0.00201954
0.00201954
0.00205639
0.00201688
0.00205373
0.00205373
0.00201954
0.00201954
0.00205373
0.00201954
0.00201954
0.00205639
0.00201688
0.00205373
0.00201954
0.00201954
0.00201688
0.00201081
0.00197129
0.00200814
0.00200814
0.00197395
0.00197395
0.00201081
0.00197129
0.00200814
0.00200814
0.00197395
0.00197395
0.00200814
0.00197395
0.00197395
0.00201081
0.00197129
0.00200814
0.00197395
0.00197395
0.00197129
0.00196522
0.0019257
0.00196255
0.00196255
0.00192836
0.00192836
0.00196522
0.0019257
0.00196255
0.00196255
0.00192836
0.00192836
0.00196255
0.00192836
0.00192836
0.00196522
0.0019257
0.00196255
0.00192836
0.00192836
0.0019257
0.00191963
0.00188011
0.00191696
0.00191696
0.00188277
0.00188277
0.00191963
0.00188011
0.00191696
0.00191696
0.00188277
0.00188277
0.00191696
0.00188277
0.00188277
0.00191963
0.00188011
0.00191696
0.00188277
0.00188277
0.00188011
0.00187404
0.00183453
0.00187138
0.00187138
0.00183719
0.00183719
0.00187404
0.00183453
0.00187138
0.00187138
0.00183719
0.00183719
0.00187138
0.00183719
0.00183719
0.00187404
0.00183453
0.00187138
0.00183719
0.00183719
0.00183453
0.00182846
0.00178894
0.00182579
0.00182579
0.0017916
0.0017916
0.00182846
0.00178894
0.00182579
0.00182579
0.0017916
0.0017916
0.00182579
0.0017916
0.0017916
0.00182846
0.00178894
0.00182579
0.0017916
0.0017916
0.00178894
0.00178287
0.00174335
0.0017802
0.0017802
0.00174601
0.00174601
0.00178287
0.00174335
0.0017802
0.0017802
0.00174601
0.00174601
0.0017802
0.00174601
0.00174601
0.00178287
0.00174335
0.0017802
0.00174601
0.00174601
0.00174335
0.00173728
0.00169776
0.00173462
0.00173462
0.00170043
0.00170043
0.00173728
0.00169777
0.00173462
0.00173462
0.00170043
0.00170043
0.00173462
0.00170043
0.00170043
0.00173728
0.00169776
0.00173462
0.00170043
0.00170043
0.00169776
0.00169169
0.00165218
0.00168903
0.00168903
0.00165484
0.00165484
0.00169169
0.00165218
0.00168903
0.00168903
0.00165484
0.00165484
0.00168903
0.00165484
0.00165484
0.00169169
0.00165218
0.00168903
0.00165484
0.00165484
0.00165218
0.00164611
0.00160659
0.00164344
0.00164344
0.00160925
0.00160925
0.00164611
0.00160659
0.00164344
0.00164344
0.00160925
0.00160925
0.00164344
0.00160925
0.00160925
0.00164611
0.00160659
0.00164344
0.00160925
0.00160925
0.00160659
0.00160052
0.001561
0.00159785
0.00159785
0.00156366
0.00156366
0.00160052
0.001561
0.00159785
0.00159785
0.00156366
0.00156366
0.00159785
0.00156366
0.00156366
0.00160052
0.001561
0.00159785
0.00156366
0.00156366
0.001561
0.00155493
0.00151541
0.00155226
0.00155226
0.00151807
0.00151807
0.00155493
0.00151541
0.00155226
0.00155226
0.00151807
0.00151807
0.00155226
0.00151807
0.00151807
0.00155493
0.00151541
0.00155226
0.00151807
0.00151807
0.00151541
0.00150934
0.00146982
0.00150667
0.00150667
0.00147248
0.00147248
0.00150934
0.00146982
0.00150667
0.00150667
0.00147248
0.00147248
0.00150667
0.00147248
0.00147248
0.00150934
0.00146982
0.00150667
0.00147248
0.00147248
0.00146982
0.00146375
0.00142423
0.00146109
0.00146109
0.0014269
0.0014269
0.00146375
0.00142423
0.00146109
0.00146109
0.0014269
0.0014269
0.00146109
0.0014269
0.0014269
0.00146375
0.00142423
0.00146109
0.0014269
0.0014269
0.00142423
0.00141816
0.00137865
0.0014155
0.0014155
0.00138131
0.00138131
0.00141816
0.00137865
0.0014155
0.0014155
0.00138131
0.00138131
0.0014155
0.00138131
0.00138131
0.00141816
0.00137865
0.0014155
0.00138131
0.00138131
0.00137865
0.00137258
0.00133307
0.00136991
0.00136991
0.00133573
0.00133573
0.00137258
0.00133307
0.00136991
0.00136991
0.00133573
0.00133573
0.00136991
0.00133573
0.00133573
0.00137258
0.00133307
0.00136991
0.00133573
0.00133573
0.00133307
0.001327
0.00128749
0.00132433
0.00132433
0.00129015
0.00129015
0.001327
0.00128749
0.00132433
0.00132433
0.00129015
0.00129015
0.00132433
0.00129015
0.00129015
0.001327
0.00128749
0.00132433
0.00129015
0.00129015
0.00128749
0.00128142
0.00124191
0.00127876
0.00127876
0.00124457
0.00124457
0.00128142
0.00124192
0.00127876
0.00127876
0.00124457
0.00124457
0.00127876
0.00124457
0.00124457
0.00128142
0.00124192
0.00127876
0.00124457
0.00124457
0.00124192
0.00123585
0.00119632
0.00123318
0.00123318
0.00119899
0.00119899
0.00123585
0.00119632
0.00123318
0.00123318
0.00119899
0.00119898
0.00123318
0.00119899
0.00119898
0.00123585
0.00119632
0.00123318
0.00119898
0.00119898
0.00119632
0.00119025
0.00115073
0.00118759
0.00118759
0.00115339
0.00115339
0.00119025
0.00115073
0.00118759
0.00118759
0.00115339
0.00115339
0.00118759
0.00115339
0.00115339
0.00119025
0.00115073
0.00118759
0.00115339
0.00115339
0.00115073
0.00114466
0.00110514
0.001142
0.001142
0.00110781
0.00110781
0.00114466
0.00110515
0.001142
0.001142
0.00110781
0.00110781
0.001142
0.00110781
0.00110781
0.00114466
0.00110515
0.001142
0.00110781
0.00110781
0.00110515
0.00109907
0.00105955
0.00109641
0.00109641
0.00106222
0.00106222
0.00109907
0.00105955
0.00109641
0.00109641
0.00106222
0.00106222
0.00109641
0.00106222
0.00106222
0.00109907
0.00105955
0.00109641
0.00106222
0.00106222
0.00105955
0.00105348
0.00101396
0.00105082
0.00105082
0.00101663
0.00101663
0.00105348
0.00101396
0.00105082
0.00105082
0.00101663
0.00101663
0.00105082
0.00101663
0.00101663
0.00105348
0.00101396
0.00105082
0.00101663
0.00101663
0.00101396
0.00100789
0.000968375
0.00100523
0.00100523
0.000971036
0.000971035
0.00100789
0.000968375
0.00100523
0.00100523
0.000971035
0.000971036
0.00100523
0.000971036
0.000971036
0.00100789
0.000968375
0.00100523
0.000971036
0.000971036
0.000968375
0.000962304
0.000922785
0.000959638
0.000959638
0.000925446
0.000925446
0.000962303
0.000922785
0.000959638
0.000959638
0.000925446
0.000925446
0.000959638
0.000925446
0.000925446
0.000962304
0.000922785
0.000959638
0.000925446
0.000925446
0.000922785
0.000916714
0.000877197
0.000914049
0.000914049
0.000879858
0.000879857
0.000916714
0.000877197
0.000914049
0.000914049
0.000879857
0.000879857
0.000914049
0.000879857
0.000879858
0.000916714
0.000877197
0.000914049
0.000879858
0.000879857
0.000877197
0.000871126
0.000831609
0.00086846
0.00086846
0.00083427
0.00083427
0.000871126
0.000831609
0.00086846
0.00086846
0.00083427
0.00083427
0.000868461
0.00083427
0.00083427
0.000871126
0.000831609
0.00086846
0.00083427
0.00083427
0.000831609
0.000825538
0.000786022
0.000822873
0.000822873
0.000788682
0.000788682
0.000825538
0.000786022
0.000822873
0.000822873
0.000788682
0.000788682
0.000822873
0.000788682
0.000788683
0.000825538
0.000786021
0.000822873
0.000788682
0.000788682
0.000786021
0.000779951
0.000740435
0.000777286
0.000777286
0.000743096
0.000743096
0.000779951
0.000740435
0.000777286
0.000777286
0.000743096
0.000743096
0.000777286
0.000743096
0.000743096
0.000779951
0.000740435
0.000777286
0.000743096
0.000743096
0.000740435
0.000734364
0.000694849
0.000731699
0.000731699
0.00069751
0.00069751
0.000734364
0.000694849
0.000731699
0.000731699
0.00069751
0.00069751
0.000731699
0.00069751
0.00069751
0.000734364
0.000694849
0.000731699
0.00069751
0.00069751
0.000694849
0.000688779
0.000649263
0.000686113
0.000686113
0.000651924
0.000651924
0.000688778
0.000649263
0.000686113
0.000686113
0.000651924
0.000651924
0.000686113
0.000651924
0.000651924
0.000688779
0.000649263
0.000686113
0.000651924
0.000651924
0.000649263
0.000643193
0.000603677
0.000640528
0.000640528
0.000606338
0.000606338
0.000643193
0.000603677
0.000640527
0.000640528
0.000606338
0.000606338
0.000640528
0.000606338
0.000606338
0.000643193
0.000603677
0.000640528
0.000606338
0.000606338
0.000603677
0.000597606
0.00055809
0.000594941
0.000594941
0.000560751
0.000560751
0.000597606
0.00055809
0.000594941
0.000594941
0.000560751
0.000560751
0.000594941
0.000560751
0.000560751
0.000597607
0.00055809
0.000594941
0.000560751
0.000560751
0.00055809
0.000552019
0.000512506
0.000549354
0.000549354
0.000515166
0.000515167
0.000552019
0.000512508
0.000549354
0.000549354
0.000515166
0.000515166
0.000549354
0.000515167
0.000515167
0.00055202
0.000512506
0.000549354
0.000515166
0.000515166
0.000512507
0.000506437
0.000466928
0.000503772
0.000503772
0.000469589
0.000469589
0.000506437
0.00046693
0.000503771
0.000503771
0.000469588
0.000469588
0.000503773
0.000469589
0.00046959
0.000506437
0.000466928
0.000503772
0.000469588
0.000469589
0.000466928
0.000460859
0.000421341
0.000458193
0.000458193
0.000424003
0.000424002
0.00046086
0.000421338
0.000458193
0.000458193
0.000424003
0.000424004
0.000458193
0.000424002
0.000424003
0.000460858
0.000421343
0.000458193
0.000424003
0.000424003
0.00042134
0.000415268
0.000375745
0.000412603
0.000412601
0.000378407
0.000378406
0.000415266
0.000375746
0.000412604
0.000412605
0.000378406
0.000378406
0.000412603
0.000378407
0.000378407
0.00041527
0.000375745
0.000412603
0.000378406
0.000378406
0.000375745
0.000369674
0.000330155
0.000367009
0.000367009
0.000332816
0.000332816
0.000369674
0.000330155
0.000367009
0.000367008
0.000332816
0.000332816
0.000367009
0.000332816
0.000332816
0.000369674
0.000330155
0.000367009
0.000332816
0.000332816
0.000330155
0.000324084
0.000284565
0.000321419
0.000321419
0.000287226
0.000287226
0.000324084
0.000284565
0.000321418
0.000321419
0.000287226
0.000287226
0.000321419
0.000287226
0.000287226
0.000324084
0.000284565
0.000321419
0.000287226
0.000287226
0.000284565
0.000278494
0.000238974
0.000275828
0.000275828
0.000241635
0.000241635
0.000278494
0.000238975
0.000275828
0.000275828
0.000241635
0.000241635
0.000275828
0.000241636
0.000241636
0.000278494
0.000238974
0.000275828
0.000241636
0.000241636
0.000238975
0.000232903
0.000193385
0.000230238
0.000230238
0.000196046
0.000196047
0.000232903
0.000193386
0.000230238
0.000230238
0.000196046
0.000196047
0.000230238
0.000196047
0.000196047
0.000232904
0.000193385
0.000230238
0.000196047
0.000196047
0.000193386
0.000187313
0.000147791
0.00018465
0.000184651
0.000150458
0.000150458
0.000187314
0.000147792
0.00018465
0.00018465
0.000150457
0.000150457
0.000184651
0.000150458
0.000150458
0.000187314
0.000147791
0.000184651
0.000150458
0.000150458
0.000147792
0.000141699
0.000102212
0.000139051
0.000139051
0.000104837
0.000104837
0.000141699
0.000102213
0.00013905
0.00013905
0.000104837
0.000104836
0.000139051
0.000104837
0.000104836
0.000141698
0.000102211
0.000139051
0.000104836
0.000104836
0.000102211
9.60998e-05
5.66613e-05
9.3473e-05
9.34737e-05
5.92953e-05
5.92963e-05
9.60997e-05
5.66625e-05
9.34736e-05
9.3472e-05
5.92931e-05
5.92931e-05
9.3473e-05
5.9295e-05
5.92928e-05
9.60992e-05
5.66589e-05
9.34723e-05
5.92922e-05
5.9291e-05
5.66584e-05
5.046e-05
1.50615e-05
4.79956e-05
4.79955e-05
1.7339e-05
1.73381e-05
5.04603e-05
1.50612e-05
4.7993e-05
4.79919e-05
1.73372e-05
1.73333e-05
4.79909e-05
1.73355e-05
1.73315e-05
5.04567e-05
1.50568e-05
4.79895e-05
1.73336e-05
1.73328e-05
1.50555e-05
1.1064e-05
1.14493e-05
1.14494e-05
1.10649e-05
1.14479e-05
1.14454e-05
1.10652e-05
1.10634e-05
1.10629e-05
1.14443e-05
1.10612e-05
1.14449e-05
0.00432675
0.00433651
0.00433131
0.00433131
0.00435368
0.00434047
0.00436907
0.00433452
0.00435368
0.00434048
0.00433452
0.00436907
0.00434504
0.0043728
0.00437281
0.00428215
0.00430118
0.00431043
0.00427409
0.0042749
0.00427775
0.00428213
0.00430116
0.00431042
0.00427407
0.00430494
0.00430494
0.00430494
0.00426143
0.00426143
0.00426142
0.00426142
0.00427962
0.00430542
0.00430536
0.00428841
0.00430845
0.00427852
0.00428929
0.004275
0.00427774
0.00427963
0.00430536
0.00430543
0.00428842
0.00430845
0.00428929
0.00427852
0.00431128
0.00431126
0.0042828
0.00427809
0.00427808
0.0042347
0.00425456
0.00425619
0.00423345
0.00425382
0.00423278
0.00423469
0.00425455
0.00425619
0.00423344
0.00424972
0.00424972
0.00424971
0.0042121
0.0042121
0.0042121
0.0042121
0.00423365
0.00425475
0.00424969
0.00423789
0.00425358
0.00423405
0.0042377
0.00425382
0.00423277
0.00423365
0.00424969
0.00425475
0.00423789
0.00425358
0.00423769
0.00423404
0.0042558
0.0042558
0.00423411
0.00423416
0.00423416
0.00418279
0.00420089
0.00420238
0.00418192
0.00420033
0.00418145
0.0041828
0.00420089
0.00420238
0.00418193
0.00419914
0.00419913
0.00419913
0.00416263
0.00416263
0.00416263
0.00416263
0.00418278
0.00420156
0.00419898
0.0041864
0.00420144
0.00418279
0.00418646
0.00420033
0.00418145
0.00418278
0.00419898
0.00420156
0.0041864
0.00420144
0.00418646
0.00418279
0.00420134
0.00420134
0.00418318
0.00418207
0.00418207
0.0041364
0.00415314
0.00415333
0.00413633
0.00415313
0.00413636
0.0041364
0.00415314
0.00415333
0.00413632
0.004151
0.004151
0.004151
0.00411658
0.00411658
0.00411658
0.00411658
0.00413654
0.0041535
0.00415093
0.00413941
0.00415349
0.00413649
0.00413942
0.00415313
0.00413637
0.00413654
0.00415093
0.0041535
0.00413941
0.00415349
0.00413942
0.00413649
0.00415337
0.00415336
0.00413672
0.00413644
0.00413644
0.00409088
0.00410793
0.00410795
0.00409088
0.00410795
0.00409088
0.00409088
0.00410793
0.00410795
0.00409088
0.00410516
0.00410516
0.00410516
0.00407094
0.00407094
0.00407094
0.00407094
0.00409094
0.00410791
0.00410513
0.00409371
0.0041079
0.00409091
0.00409372
0.00410794
0.00409088
0.00409094
0.00410513
0.00410791
0.00409371
0.0041079
0.00409372
0.00409091
0.00410795
0.00410795
0.00409105
0.00409088
0.00409088
0.0040453
0.00406236
0.00406236
0.0040453
0.00406237
0.00404529
0.0040453
0.00406236
0.00406236
0.0040453
0.00405954
0.00405954
0.00405954
0.00402535
0.00402535
0.00402535
0.00402535
0.00404536
0.00406233
0.00405952
0.00404812
0.00406231
0.00404533
0.00404813
0.00406236
0.0040453
0.00404536
0.00405952
0.00406233
0.00404812
0.00406231
0.00404813
0.00404533
0.00406237