/*--------------------------------*- C++ -*----------------------------------*\
| =========                 |                                                 |
| \\      /  F ield         | OpenFOAM: The Open Source CFD Toolbox           |
|  \\    /   O peration     | Version:  2206                                  |
|   \\  /    A nd           | Website:  www.openfoam.com                      |
|    \\/     M anipulation  |                                                 |
\*---------------------------------------------------------------------------*/
FoamFile
{
    version     2.0;
    format      ascii;
    arch        "LSB;label=32;scalar=64";
    class       volScalarField;
    location    "14";
    object      p;
}
// * * * * * * * * * * * * * * * * * * * * * * * * * * * * * * * * * * * * * //

dimensions      [0 2 -2 0 0 0 0];

internalField   nonuniform List<scalar> 
171728
(
0.0043059
0.00430625
0.00430625
0.00430932
0.00425068
0.00425112
0.00425112
0.004254
0.00420011
0.00419999
0.00419999
0.00420245
0.00415198
0.00415189
0.00415189
0.00415452
0.00410613
0.00410609
0.00410609
0.00410876
0.00406051
0.00406048
0.00406048
0.00406315
0.00401492
0.00401489
0.00401489
0.00401755
0.00396932
0.0039693
0.0039693
0.00397196
0.00392373
0.00392371
0.00392371
0.00392637
0.00387814
0.00387811
0.00387811
0.00388078
0.00383254
0.00383252
0.00383252
0.00383518
0.00378695
0.00378692
0.00378692
0.00378959
0.00374135
0.00374132
0.00374132
0.00374399
0.00369576
0.00369573
0.00369573
0.00369839
0.00365016
0.00365013
0.00365013
0.0036528
0.00360456
0.00360453
0.00360453
0.0036072
0.00355896
0.00355893
0.00355893
0.0035616
0.00351336
0.00351334
0.00351334
0.003516
0.00346777
0.00346774
0.00346774
0.00347041
0.00342217
0.00342215
0.00342215
0.00342481
0.00337658
0.00337655
0.00337655
0.00337922
0.00333099
0.00333096
0.00333096
0.00333363
0.0032854
0.00328537
0.00328537
0.00328804
0.00323981
0.00323978
0.00323978
0.00324245
0.00319421
0.00319419
0.00319419
0.00319685
0.00314862
0.00314859
0.00314859
0.00315126
0.00310303
0.003103
0.003103
0.00310567
0.00305744
0.00305741
0.00305741
0.00306007
0.00301184
0.00301181
0.00301181
0.00301448
0.00296624
0.00296622
0.00296622
0.00296888
0.00292064
0.00292062
0.00292062
0.00292328
0.00287504
0.00287502
0.00287502
0.00287768
0.00282944
0.00282941
0.00282941
0.00283208
0.00278384
0.00278381
0.00278381
0.00278648
0.00273824
0.00273821
0.00273821
0.00274088
0.00269264
0.00269261
0.00269261
0.00269528
0.00264704
0.00264701
0.00264701
0.00264968
0.00260144
0.00260141
0.00260141
0.00260408
0.00255584
0.00255581
0.00255581
0.00255848
0.00251024
0.00251021
0.00251021
0.00251288
0.00246464
0.00246462
0.00246461
0.00246728
0.00241904
0.00241902
0.00241902
0.00242168
0.00237345
0.00237342
0.00237342
0.00237609
0.00232785
0.00232783
0.00232783
0.00233049
0.00228225
0.00228223
0.00228223
0.00228489
0.00223666
0.00223663
0.00223663
0.0022393
0.00219106
0.00219103
0.00219103
0.0021937
0.00214545
0.00214543
0.00214543
0.00214809
0.00209985
0.00209983
0.00209983
0.00210249
0.00205425
0.00205423
0.00205423
0.00205689
0.00200865
0.00200862
0.00200862
0.00201129
0.00196305
0.00196302
0.00196302
0.00196569
0.00191744
0.00191742
0.00191742
0.00192008
0.00187184
0.00187181
0.00187181
0.00187448
0.00182624
0.00182621
0.00182621
0.00182888
0.00178063
0.00178061
0.00178061
0.00178327
0.00173503
0.00173501
0.00173501
0.00173767
0.00168943
0.0016894
0.0016894
0.00169207
0.00164383
0.0016438
0.0016438
0.00164647
0.00159823
0.0015982
0.0015982
0.00160087
0.00155263
0.0015526
0.0015526
0.00155527
0.00150703
0.001507
0.001507
0.00150967
0.00146143
0.0014614
0.0014614
0.00146407
0.00141583
0.00141581
0.00141581
0.00141847
0.00137024
0.00137021
0.00137021
0.00137287
0.00132464
0.00132461
0.00132461
0.00132728
0.00127904
0.00127901
0.00127901
0.00128168
0.00123344
0.00123342
0.00123342
0.00123608
0.00118784
0.00118782
0.00118782
0.00119048
0.00114225
0.00114222
0.00114222
0.00114489
0.00109665
0.00109662
0.00109662
0.00109929
0.00105105
0.00105102
0.00105102
0.00105369
0.00100545
0.00100542
0.00100542
0.00100809
0.000959853
0.000959826
0.000959826
0.000962492
0.000914253
0.000914226
0.000914226
0.000916892
0.000868653
0.000868626
0.000868626
0.000871292
0.000823052
0.000823025
0.000823025
0.000825691
0.00077745
0.000777423
0.000777423
0.000780089
0.000731848
0.000731821
0.000731821
0.000734488
0.000686247
0.00068622
0.00068622
0.000688886
0.000640647
0.00064062
0.00064062
0.000643286
0.000595047
0.00059502
0.00059502
0.000597686
0.000549449
0.000549422
0.000549422
0.000552088
0.000503851
0.000503824
0.000503824
0.000506491
0.000458253
0.000458226
0.000458226
0.000460892
0.000412655
0.000412628
0.000412628
0.000415294
0.000367059
0.000367032
0.000367032
0.000369698
0.000321465
0.000321438
0.000321438
0.000324104
0.000275871
0.000275844
0.000275844
0.00027851
0.00023028
0.000230253
0.000230253
0.000232919
0.000184688
0.000184664
0.000184664
0.000187328
0.000139082
0.000139061
0.000139061
0.00014171
9.3527e-05
9.348e-05
9.3479e-05
9.61052e-05
4.85562e-05
4.79973e-05
4.79943e-05
5.04599e-05
1.1067e-05
1.14495e-05
1.14476e-05
1.10618e-05
0.00431934
0.00431956
0.00431956
0.00431934
0.00431956
0.00431956
0.0043203
0.0043203
0.00432031
0.00432031
0.00431956
0.00431956
0.00431934
0.00431956
0.00431956
0.00431934
0.00430932
0.00426068
0.00430625
0.00430625
0.00426278
0.00426278
0.00430932
0.00426068
0.00430625
0.00430625
0.00426278
0.00426278
0.00430625
0.00426278
0.00426278
0.00430932
0.00426068
0.00430626
0.00426278
0.00426277
0.00426068
0.004254
0.00420947
0.00425112
0.00425112
0.00421282
0.00421282
0.00425401
0.00420947
0.00425112
0.00425112
0.00421282
0.00421282
0.00425112
0.00421282
0.00421282
0.004254
0.00420947
0.00425112
0.00421282
0.00421282
0.00420947
0.00420245
0.0041606
0.00419998
0.00419999
0.00416348
0.00416349
0.00420245
0.0041606
0.00419998
0.00419999
0.00416349
0.00416348
0.00419999
0.00416349
0.00416349
0.00420245
0.0041606
0.00419998
0.00416349
0.00416349
0.0041606
0.00415452
0.00411484
0.00415189
0.00415189
0.0041175
0.0041175
0.00415452
0.00411484
0.00415189
0.00415189
0.0041175
0.0041175
0.00415189
0.0041175
0.0041175
0.00415452
0.00411484
0.00415189
0.0041175
0.0041175
0.00411484
0.00410876
0.00406922
0.00410609
0.00410609
0.00407188
0.00407188
0.00410877
0.00406922
0.00410609
0.00410609
0.00407188
0.00407188
0.00410609
0.00407188
0.00407188
0.00410877
0.00406922
0.00410609
0.00407188
0.00407188
0.00406922
0.00406315
0.00402363
0.00406048
0.00406048
0.00402629
0.00402629
0.00406315
0.00402363
0.00406048
0.00406048
0.00402629
0.00402629
0.00406048
0.00402629
0.00402629
0.00406315
0.00402363
0.00406048
0.00402629
0.00402629
0.00402363
0.00401755
0.00397803
0.00401489
0.00401489
0.00398069
0.00398069
0.00401755
0.00397803
0.00401489
0.00401489
0.00398069
0.00398069
0.00401489
0.00398069
0.00398069
0.00401755
0.00397803
0.00401489
0.00398069
0.00398069
0.00397803
0.00397196
0.00393244
0.0039693
0.0039693
0.0039351
0.0039351
0.00397196
0.00393244
0.0039693
0.0039693
0.0039351
0.0039351
0.0039693
0.0039351
0.0039351
0.00397196
0.00393244
0.0039693
0.0039351
0.0039351
0.00393244
0.00392637
0.00388685
0.00392371
0.00392371
0.00388951
0.00388951
0.00392637
0.00388685
0.00392371
0.00392371
0.00388951
0.00388951
0.00392371
0.00388951
0.00388951
0.00392637
0.00388685
0.00392371
0.00388951
0.00388951
0.00388685
0.00388078
0.00384126
0.00387811
0.00387811
0.00384392
0.00384392
0.00388078
0.00384126
0.00387811
0.00387811
0.00384392
0.00384392
0.00387811
0.00384392
0.00384392
0.00388078
0.00384126
0.00387811
0.00384392
0.00384392
0.00384125
0.00383518
0.00379566
0.00383252
0.00383252
0.00379832
0.00379832
0.00383518
0.00379566
0.00383252
0.00383252
0.00379832
0.00379832
0.00383252
0.00379832
0.00379832
0.00383518
0.00379566
0.00383252
0.00379832
0.00379832
0.00379566
0.00378959
0.00375006
0.00378692
0.00378692
0.00375272
0.00375272
0.00378959
0.00375006
0.00378692
0.00378692
0.00375272
0.00375272
0.00378692
0.00375272
0.00375272
0.00378959
0.00375006
0.00378692
0.00375272
0.00375272
0.00375006
0.00374399
0.00370447
0.00374132
0.00374132
0.00370713
0.00370713
0.00374399
0.00370447
0.00374132
0.00374132
0.00370713
0.00370713
0.00374132
0.00370713
0.00370713
0.00374399
0.00370447
0.00374132
0.00370713
0.00370713
0.00370447
0.00369839
0.00365887
0.00369573
0.00369573
0.00366153
0.00366153
0.00369839
0.00365887
0.00369573
0.00369573
0.00366153
0.00366153
0.00369573
0.00366153
0.00366153
0.00369839
0.00365887
0.00369573
0.00366153
0.00366153
0.00365887
0.0036528
0.00361327
0.00365013
0.00365013
0.00361593
0.00361593
0.0036528
0.00361327
0.00365013
0.00365013
0.00361593
0.00361593
0.00365013
0.00361593
0.00361593
0.0036528
0.00361327
0.00365013
0.00361593
0.00361593
0.00361327
0.0036072
0.00356767
0.00360453
0.00360453
0.00357033
0.00357033
0.0036072
0.00356767
0.00360453
0.00360453
0.00357033
0.00357033
0.00360453
0.00357033
0.00357033
0.0036072
0.00356767
0.00360453
0.00357033
0.00357033
0.00356767
0.0035616
0.00352207
0.00355893
0.00355893
0.00352474
0.00352474
0.0035616
0.00352207
0.00355893
0.00355893
0.00352474
0.00352474
0.00355893
0.00352474
0.00352474
0.0035616
0.00352207
0.00355893
0.00352474
0.00352474
0.00352207
0.003516
0.00347648
0.00351334
0.00351334
0.00347914
0.00347914
0.003516
0.00347648
0.00351334
0.00351334
0.00347914
0.00347914
0.00351334
0.00347914
0.00347914
0.003516
0.00347648
0.00351334
0.00347914
0.00347914
0.00347648
0.00347041
0.00343088
0.00346774
0.00346774
0.00343354
0.00343354
0.00347041
0.00343088
0.00346774
0.00346774
0.00343354
0.00343354
0.00346774
0.00343354
0.00343355
0.00347041
0.00343088
0.00346774
0.00343354
0.00343354
0.00343088
0.00342481
0.00338529
0.00342215
0.00342214
0.00338795
0.00338795
0.00342481
0.00338529
0.00342215
0.00342215
0.00338795
0.00338795
0.00342215
0.00338795
0.00338795
0.00342481
0.00338529
0.00342215
0.00338795
0.00338795
0.00338529
0.00337922
0.0033397
0.00337655
0.00337656
0.00334236
0.00334236
0.00337922
0.0033397
0.00337655
0.00337655
0.00334236
0.00334236
0.00337655
0.00334236
0.00334236
0.00337922
0.0033397
0.00337655
0.00334236
0.00334236
0.0033397
0.00333363
0.00329411
0.00333096
0.00333096
0.00329677
0.00329677
0.00333363
0.00329411
0.00333096
0.00333096
0.00329677
0.00329677
0.00333096
0.00329677
0.00329677
0.00333363
0.00329411
0.00333096
0.00329677
0.00329677
0.00329411
0.00328804
0.00324852
0.00328537
0.00328537
0.00325118
0.00325118
0.00328804
0.00324852
0.00328537
0.00328537
0.00325118
0.00325118
0.00328537
0.00325118
0.00325118
0.00328804
0.00324852
0.00328537
0.00325118
0.00325118
0.00324852
0.00324245
0.00320293
0.00323978
0.00323978
0.00320559
0.00320559
0.00324245
0.00320293
0.00323978
0.00323978
0.00320559
0.00320559
0.00323978
0.00320559
0.00320559
0.00324245
0.00320293
0.00323978
0.00320559
0.00320559
0.00320293
0.00319685
0.00315733
0.00319419
0.00319419
0.00315999
0.00315999
0.00319685
0.00315733
0.00319419
0.00319419
0.00315999
0.00315999
0.00319419
0.00315999
0.00315999
0.00319685
0.00315733
0.00319419
0.00315999
0.00315999
0.00315733
0.00315126
0.00311174
0.00314859
0.00314859
0.0031144
0.0031144
0.00315126
0.00311174
0.00314859
0.00314859
0.0031144
0.0031144
0.0031486
0.0031144
0.0031144
0.00315126
0.00311174
0.00314859
0.0031144
0.0031144
0.00311174
0.00310567
0.00306615
0.003103
0.003103
0.00306881
0.00306881
0.00310567
0.00306615
0.003103
0.003103
0.00306881
0.00306881
0.003103
0.00306881
0.00306881
0.00310567
0.00306615
0.003103
0.00306881
0.00306881
0.00306615
0.00306007
0.00302055
0.00305741
0.00305741
0.00302321
0.00302321
0.00306007
0.00302055
0.00305741
0.00305741
0.00302321
0.00302321
0.00305741
0.00302321
0.00302321
0.00306007
0.00302055
0.00305741
0.00302321
0.00302321
0.00302055
0.00301448
0.00297495
0.00301181
0.00301181
0.00297762
0.00297762
0.00301448
0.00297495
0.00301181
0.00301181
0.00297762
0.00297762
0.00301181
0.00297762
0.00297762
0.00301448
0.00297495
0.00301181
0.00297762
0.00297762
0.00297495
0.00296888
0.00292935
0.00296622
0.00296622
0.00293202
0.00293202
0.00296888
0.00292936
0.00296622
0.00296622
0.00293202
0.00293202
0.00296622
0.00293202
0.00293202
0.00296888
0.00292935
0.00296622
0.00293202
0.00293202
0.00292935
0.00292328
0.00288375
0.00292062
0.00292062
0.00288642
0.00288642
0.00292328
0.00288375
0.00292062
0.00292062
0.00288642
0.00288642
0.00292062
0.00288642
0.00288642
0.00292328
0.00288375
0.00292062
0.00288642
0.00288642
0.00288375
0.00287768
0.00283815
0.00287502
0.00287502
0.00284081
0.00284081
0.00287768
0.00283815
0.00287502
0.00287502
0.00284081
0.00284081
0.00287502
0.00284081
0.00284081
0.00287768
0.00283815
0.00287502
0.00284081
0.00284081
0.00283815
0.00283208
0.00279255
0.00282941
0.00282941
0.00279521
0.00279521
0.00283208
0.00279255
0.00282941
0.00282941
0.00279521
0.00279521
0.00282941
0.00279521
0.00279521
0.00283208
0.00279255
0.00282941
0.00279521
0.00279521
0.00279255
0.00278648
0.00274695
0.00278381
0.00278381
0.00274961
0.00274961
0.00278648
0.00274695
0.00278381
0.00278381
0.00274961
0.00274961
0.00278381
0.00274961
0.00274961
0.00278648
0.00274695
0.00278381
0.00274961
0.00274961
0.00274695
0.00274088
0.00270135
0.00273821
0.00273821
0.00270401
0.00270401
0.00274088
0.00270135
0.00273821
0.00273821
0.00270401
0.00270401
0.00273821
0.00270401
0.00270401
0.00274088
0.00270135
0.00273821
0.00270401
0.00270401
0.00270135
0.00269528
0.00265575
0.00269261
0.00269261
0.00265841
0.00265841
0.00269528
0.00265575
0.00269261
0.00269261
0.00265841
0.00265841
0.00269261
0.00265841
0.00265841
0.00269528
0.00265575
0.00269261
0.00265841
0.00265841
0.00265575
0.00264968
0.00261015
0.00264701
0.00264701
0.00261281
0.00261281
0.00264968
0.00261015
0.00264701
0.00264701
0.00261281
0.00261281
0.00264701
0.00261281
0.00261281
0.00264968
0.00261015
0.00264701
0.00261281
0.00261281
0.00261015
0.00260408
0.00256455
0.00260141
0.00260141
0.00256721
0.00256721
0.00260408
0.00256455
0.00260141
0.00260141
0.00256721
0.00256721
0.00260141
0.00256721
0.00256721
0.00260408
0.00256455
0.00260141
0.00256721
0.00256721
0.00256455
0.00255848
0.00251895
0.00255581
0.00255581
0.00252161
0.00252161
0.00255848
0.00251895
0.00255581
0.00255581
0.00252161
0.00252161
0.00255581
0.00252161
0.00252161
0.00255848
0.00251895
0.00255581
0.00252161
0.00252161
0.00251895
0.00251288
0.00247335
0.00251021
0.00251021
0.00247601
0.00247601
0.00251288
0.00247335
0.00251021
0.00251021
0.00247601
0.00247601
0.00251021
0.00247601
0.00247601
0.00251288
0.00247335
0.00251021
0.00247601
0.00247601
0.00247335
0.00246728
0.00242776
0.00246462
0.00246461
0.00243042
0.00243042
0.00246728
0.00242776
0.00246462
0.00246461
0.00243042
0.00243042
0.00246462
0.00243042
0.00243042
0.00246728
0.00242776
0.00246461
0.00243042
0.00243042
0.00242776
0.00242168
0.00238216
0.00241902
0.00241902
0.00238482
0.00238482
0.00242168
0.00238216
0.00241902
0.00241902
0.00238482
0.00238482
0.00241902
0.00238482
0.00238482
0.00242168
0.00238216
0.00241902
0.00238482
0.00238482
0.00238216
0.00237609
0.00233656
0.00237342
0.00237342
0.00233922
0.00233922
0.00237609
0.00233656
0.00237342
0.00237342
0.00233922
0.00233922
0.00237342
0.00233922
0.00233922
0.00237609
0.00233656
0.00237342
0.00233922
0.00233922
0.00233656
0.00233049
0.00229097
0.00232783
0.00232783
0.00229363
0.00229363
0.00233049
0.00229097
0.00232783
0.00232783
0.00229363
0.00229363
0.00232783
0.00229363
0.00229363
0.00233049
0.00229097
0.00232783
0.00229363
0.00229363
0.00229097
0.00228489
0.00224537
0.00228223
0.00228223
0.00224803
0.00224803
0.00228489
0.00224537
0.00228223
0.00228223
0.00224803
0.00224803
0.00228223
0.00224803
0.00224803
0.00228489
0.00224537
0.00228223
0.00224803
0.00224803
0.00224537
0.0022393
0.00219977
0.00223663
0.00223663
0.00220243
0.00220243
0.00223929
0.00219977
0.00223663
0.00223663
0.00220243
0.00220243
0.00223663
0.00220243
0.00220243
0.0022393
0.00219977
0.00223663
0.00220243
0.00220243
0.00219977
0.00219369
0.00215417
0.00219103
0.00219103
0.00215683
0.00215683
0.00219369
0.00215417
0.00219103
0.00219103
0.00215683
0.00215683
0.00219103
0.00215683
0.00215683
0.0021937
0.00215417
0.00219103
0.00215683
0.00215683
0.00215417
0.00214809
0.00210857
0.00214543
0.00214543
0.00211123
0.00211123
0.00214809
0.00210857
0.00214543
0.00214543
0.00211123
0.00211123
0.00214543
0.00211123
0.00211123
0.00214809
0.00210857
0.00214543
0.00211123
0.00211123
0.00210857
0.00210249
0.00206297
0.00209983
0.00209983
0.00206563
0.00206563
0.00210249
0.00206297
0.00209983
0.00209983
0.00206563
0.00206563
0.00209983
0.00206563
0.00206563
0.00210249
0.00206297
0.00209983
0.00206563
0.00206563
0.00206297
0.00205689
0.00201736
0.00205423
0.00205423
0.00202003
0.00202003
0.00205689
0.00201736
0.00205423
0.00205423
0.00202003
0.00202003
0.00205423
0.00202003
0.00202003
0.00205689
0.00201736
0.00205423
0.00202003
0.00202003
0.00201736
0.00201129
0.00197176
0.00200862
0.00200862
0.00197442
0.00197442
0.00201129
0.00197176
0.00200862
0.00200862
0.00197442
0.00197442
0.00200862
0.00197442
0.00197442
0.00201129
0.00197176
0.00200862
0.00197442
0.00197442
0.00197176
0.00196569
0.00192616
0.00196302
0.00196302
0.00192882
0.00192882
0.00196569
0.00192616
0.00196302
0.00196302
0.00192882
0.00192882
0.00196302
0.00192882
0.00192882
0.00196569
0.00192616
0.00196302
0.00192882
0.00192882
0.00192616
0.00192008
0.00188055
0.00191742
0.00191742
0.00188321
0.00188321
0.00192008
0.00188055
0.00191742
0.00191742
0.00188321
0.00188322
0.00191742
0.00188321
0.00188322
0.00192008
0.00188055
0.00191742
0.00188322
0.00188322
0.00188055
0.00187448
0.00183495
0.00187181
0.00187181
0.00183761
0.00183761
0.00187448
0.00183495
0.00187181
0.00187181
0.00183761
0.00183761
0.00187181
0.00183761
0.00183761
0.00187448
0.00183495
0.00187181
0.00183761
0.00183761
0.00183495
0.00182888
0.00178935
0.00182621
0.00182621
0.00179201
0.00179201
0.00182888
0.00178935
0.00182621
0.00182621
0.00179201
0.00179201
0.00182621
0.00179201
0.00179201
0.00182888
0.00178935
0.00182621
0.00179201
0.00179201
0.00178935
0.00178327
0.00174374
0.00178061
0.00178061
0.00174641
0.00174641
0.00178327
0.00174374
0.00178061
0.00178061
0.00174641
0.00174641
0.00178061
0.00174641
0.00174641
0.00178327
0.00174374
0.00178061
0.00174641
0.00174641
0.00174374
0.00173767
0.00169814
0.00173501
0.00173501
0.00170081
0.0017008
0.00173767
0.00169814
0.00173501
0.00173501
0.0017008
0.0017008
0.00173501
0.00170081
0.00170081
0.00173767
0.00169814
0.00173501
0.00170081
0.0017008
0.00169814
0.00169207
0.00165254
0.0016894
0.0016894
0.0016552
0.0016552
0.00169207
0.00165254
0.0016894
0.0016894
0.0016552
0.0016552
0.0016894
0.0016552
0.0016552
0.00169207
0.00165254
0.0016894
0.0016552
0.0016552
0.00165254
0.00164647
0.00160694
0.0016438
0.0016438
0.0016096
0.0016096
0.00164647
0.00160694
0.0016438
0.0016438
0.0016096
0.0016096
0.0016438
0.0016096
0.0016096
0.00164647
0.00160694
0.0016438
0.0016096
0.0016096
0.00160694
0.00160087
0.00156134
0.0015982
0.0015982
0.001564
0.001564
0.00160087
0.00156134
0.0015982
0.0015982
0.001564
0.001564
0.0015982
0.001564
0.001564
0.00160087
0.00156134
0.0015982
0.001564
0.001564
0.00156134
0.00155527
0.00151574
0.0015526
0.0015526
0.0015184
0.0015184
0.00155527
0.00151574
0.0015526
0.0015526
0.0015184
0.0015184
0.0015526
0.0015184
0.0015184
0.00155527
0.00151574
0.0015526
0.0015184
0.0015184
0.00151574
0.00150967
0.00147014
0.001507
0.001507
0.0014728
0.0014728
0.00150967
0.00147014
0.001507
0.001507
0.0014728
0.0014728
0.001507
0.0014728
0.0014728
0.00150967
0.00147014
0.001507
0.0014728
0.0014728
0.00147014
0.00146407
0.00142454
0.0014614
0.0014614
0.00142721
0.00142721
0.00146407
0.00142454
0.0014614
0.0014614
0.00142721
0.00142721
0.0014614
0.00142721
0.00142721
0.00146407
0.00142454
0.0014614
0.00142721
0.00142721
0.00142454
0.00141847
0.00137895
0.00141581
0.00141581
0.00138161
0.00138161
0.00141847
0.00137895
0.00141581
0.00141581
0.00138161
0.00138161
0.00141581
0.00138161
0.00138161
0.00141847
0.00137895
0.00141581
0.00138161
0.00138161
0.00137895
0.00137287
0.00133335
0.00137021
0.00137021
0.00133601
0.00133601
0.00137287
0.00133335
0.00137021
0.00137021
0.00133601
0.00133601
0.00137021
0.00133601
0.00133601
0.00137287
0.00133335
0.00137021
0.00133601
0.00133601
0.00133335
0.00132728
0.00128775
0.00132461
0.00132461
0.00129041
0.00129041
0.00132728
0.00128775
0.00132461
0.00132461
0.00129041
0.00129041
0.00132461
0.00129041
0.00129041
0.00132728
0.00128775
0.00132461
0.00129041
0.00129041
0.00128775
0.00128168
0.00124215
0.00127901
0.00127901
0.00124482
0.00124482
0.00128168
0.00124215
0.00127901
0.00127901
0.00124482
0.00124482
0.00127901
0.00124482
0.00124482
0.00128168
0.00124215
0.00127901
0.00124482
0.00124482
0.00124215
0.00123608
0.00119656
0.00123342
0.00123342
0.00119922
0.00119922
0.00123608
0.00119656
0.00123342
0.00123342
0.00119922
0.00119922
0.00123342
0.00119922
0.00119922
0.00123608
0.00119656
0.00123342
0.00119922
0.00119922
0.00119656
0.00119048
0.00115096
0.00118782
0.00118782
0.00115362
0.00115362
0.00119048
0.00115096
0.00118782
0.00118782
0.00115362
0.00115362
0.00118782
0.00115362
0.00115362
0.00119048
0.00115096
0.00118782
0.00115362
0.00115362
0.00115096
0.00114489
0.00110536
0.00114222
0.00114222
0.00110802
0.00110802
0.00114489
0.00110536
0.00114222
0.00114222
0.00110802
0.00110802
0.00114222
0.00110802
0.00110802
0.00114489
0.00110536
0.00114222
0.00110802
0.00110802
0.00110536
0.00109929
0.00105976
0.00109662
0.00109662
0.00106242
0.00106242
0.00109929
0.00105976
0.00109662
0.00109662
0.00106242
0.00106242
0.00109662
0.00106242
0.00106242
0.00109929
0.00105976
0.00109662
0.00106242
0.00106242
0.00105976
0.00105369
0.00101416
0.00105102
0.00105102
0.00101682
0.00101682
0.00105369
0.00101416
0.00105102
0.00105102
0.00101682
0.00101682
0.00105102
0.00101682
0.00101682
0.00105369
0.00101416
0.00105102
0.00101682
0.00101682
0.00101416
0.00100809
0.000968564
0.00100542
0.00100542
0.000971226
0.000971225
0.00100809
0.000968564
0.00100542
0.00100542
0.000971225
0.000971225
0.00100542
0.000971225
0.000971226
0.00100809
0.000968564
0.00100542
0.000971225
0.000971225
0.000968564
0.000962492
0.000922965
0.000959826
0.000959826
0.000925626
0.000925626
0.000962492
0.000922965
0.000959826
0.000959826
0.000925626
0.000925626
0.000959826
0.000925626
0.000925626
0.000962492
0.000922965
0.000959826
0.000925626
0.000925626
0.000922965
0.000916892
0.000877365
0.000914226
0.000914226
0.000880026
0.000880026
0.000916892
0.000877365
0.000914226
0.000914226
0.000880026
0.000880026
0.000914226
0.000880026
0.000880026
0.000916892
0.000877364
0.000914226
0.000880026
0.000880026
0.000877365
0.000871292
0.000831764
0.000868626
0.000868626
0.000834425
0.000834425
0.000871292
0.000831764
0.000868626
0.000868626
0.000834425
0.000834425
0.000868626
0.000834425
0.000834425
0.000871292
0.000831764
0.000868626
0.000834425
0.000834425
0.000831764
0.000825691
0.000786162
0.000823025
0.000823025
0.000788824
0.000788824
0.000825691
0.000786162
0.000823025
0.000823025
0.000788824
0.000788824
0.000823025
0.000788824
0.000788824
0.000825691
0.000786162
0.000823025
0.000788824
0.000788824
0.000786162
0.000780089
0.00074056
0.000777423
0.000777423
0.000743222
0.000743222
0.000780089
0.00074056
0.000777423
0.000777423
0.000743222
0.000743222
0.000777423
0.000743222
0.000743222
0.000780089
0.00074056
0.000777423
0.000743222
0.000743222
0.00074056
0.000734487
0.000694959
0.000731821
0.000731821
0.00069762
0.00069762
0.000734487
0.000694959
0.000731821
0.000731821
0.00069762
0.00069762
0.000731822
0.00069762
0.00069762
0.000734487
0.000694959
0.000731821
0.00069762
0.00069762
0.000694959
0.000688886
0.000649358
0.00068622
0.00068622
0.00065202
0.00065202
0.000688886
0.000649358
0.00068622
0.00068622
0.00065202
0.00065202
0.00068622
0.00065202
0.00065202
0.000688886
0.000649358
0.00068622
0.00065202
0.00065202
0.000649358
0.000643286
0.000603759
0.00064062
0.00064062
0.00060642
0.00060642
0.000643286
0.000603759
0.00064062
0.00064062
0.00060642
0.00060642
0.00064062
0.00060642
0.00060642
0.000643286
0.000603759
0.00064062
0.00060642
0.00060642
0.000603759
0.000597686
0.00055816
0.00059502
0.00059502
0.000560822
0.000560822
0.000597686
0.00055816
0.00059502
0.00059502
0.000560822
0.000560822
0.000595021
0.000560822
0.000560822
0.000597686
0.00055816
0.00059502
0.000560822
0.000560822
0.00055816
0.000552088
0.000512563
0.000549422
0.000549422
0.000515224
0.000515224
0.000552088
0.000512563
0.000549422
0.000549422
0.000515224
0.000515224
0.000549422
0.000515224
0.000515224
0.000552088
0.000512562
0.000549422
0.000515224
0.000515224
0.000512563
0.00050649
0.000466965
0.000503825
0.000503824
0.000469626
0.000469626
0.00050649
0.000466965
0.000503824
0.000503824
0.000469626
0.000469626
0.000503825
0.000469626
0.000469626
0.00050649
0.000466965
0.000503824
0.000469626
0.000469626
0.000466965
0.000460892
0.000421366
0.000458226
0.000458226
0.000424028
0.000424028
0.000460892
0.000421366
0.000458226
0.000458226
0.000424028
0.000424028
0.000458227
0.000424028
0.000424028
0.000460892
0.000421366
0.000458226
0.000424028
0.000424028
0.000421366
0.000415294
0.00037577
0.000412628
0.000412628
0.000378431
0.000378431
0.000415294
0.00037577
0.000412628
0.000412628
0.000378431
0.000378431
0.000412629
0.000378431
0.000378431
0.000415294
0.00037577
0.000412628
0.000378431
0.000378431
0.00037577
0.000369698
0.000330175
0.000367032
0.000367032
0.000332836
0.000332836
0.000369698
0.000330175
0.000367032
0.000367032
0.000332836
0.000332836
0.000367033
0.000332836
0.000332837
0.000369698
0.000330175
0.000367032
0.000332836
0.000332836
0.000330175
0.000324103
0.000284581
0.000321438
0.000321438
0.000287242
0.000287242
0.000324103
0.000284581
0.000321438
0.000321438
0.000287242
0.000287242
0.000321438
0.000287242
0.000287243
0.000324104
0.000284581
0.000321438
0.000287242
0.000287242
0.000284581
0.00027851
0.000238989
0.000275844
0.000275844
0.000241651
0.00024165
0.00027851
0.00023899
0.000275844
0.000275844
0.00024165
0.000241651
0.000275844
0.000241651
0.000241651
0.00027851
0.000238989
0.000275844
0.000241651
0.000241651
0.00023899
0.000232918
0.000193399
0.000230253
0.000230253
0.000196061
0.000196061
0.000232918
0.0001934
0.000230253
0.000230253
0.00019606
0.000196061
0.000230253
0.000196061
0.000196061
0.000232919
0.000193399
0.000230253
0.000196061
0.000196061
0.0001934
0.000187327
0.000147803
0.000184664
0.000184664
0.000150469
0.00015047
0.000187327
0.000147803
0.000184664
0.000184664
0.000150469
0.000150469
0.000184664
0.000150469
0.00015047
0.000187328
0.000147803
0.000184664
0.00015047
0.00015047
0.000147803
0.00014171
0.000102219
0.000139061
0.000139061
0.000104844
0.000104844
0.00014171
0.00010222
0.00013906
0.000139061
0.000104844
0.000104843
0.000139062
0.000104844
0.000104843
0.000141709
0.000102218
0.000139062
0.000104843
0.000104843
0.000102218
9.61061e-05
5.66653e-05
9.34792e-05
9.34799e-05
5.92995e-05
5.93004e-05
9.6106e-05
5.66665e-05
9.34798e-05
9.34784e-05
5.92973e-05
5.92974e-05
9.34794e-05
5.92992e-05
5.92972e-05
9.61057e-05
5.66631e-05
9.34787e-05
5.92966e-05
5.92953e-05
5.66627e-05
5.04638e-05
1.50636e-05
4.79994e-05
4.79992e-05
1.73411e-05
1.73402e-05
5.04641e-05
1.50633e-05
4.79968e-05
4.79957e-05
1.73394e-05
1.73355e-05
4.79948e-05
1.73376e-05
1.73337e-05
5.04607e-05
1.5059e-05
4.79934e-05
1.73358e-05
1.73351e-05
1.50578e-05
1.10658e-05
1.14509e-05
1.1451e-05
1.10666e-05
1.14495e-05
1.14471e-05
1.10667e-05
1.10649e-05
1.10644e-05
1.14461e-05
1.1063e-05
1.14466e-05
0.00432771
0.00433747
0.00433227
0.00433227
0.00435463
0.00434143
0.00437002
0.00433548
0.00435463
0.00434144
0.00433548
0.00437002
0.004346
0.00437376
0.00437376
0.00428311
0.00430214
0.00431139
0.00427505
0.00427586
0.00427871
0.00428309
0.00430212
0.00431138
0.00427503
0.0043059
0.0043059
0.0043059
0.00426239
0.00426239
0.00426239
0.00426239
0.00428058
0.00430638
0.00430632
0.00428938
0.00430941
0.00427948
0.00429025
0.00427596
0.00427871
0.00428059
0.00430632
0.00430639
0.00428938
0.00430941
0.00429025
0.00427948
0.00431224
0.00431222
0.00428376
0.00427905
0.00427904
0.00423567
0.00425553
0.00425716
0.00423442
0.00425479
0.00423375
0.00423566
0.00425552
0.00425716
0.00423441
0.00425069
0.00425068
0.00425068
0.00421307
0.00421307
0.00421307
0.00421307
0.00423462
0.00425572
0.00425066
0.00423886
0.00425455
0.00423502
0.00423867
0.00425479
0.00423374
0.00423463
0.00425066
0.00425571
0.00423886
0.00425455
0.00423866
0.00423501
0.00425677
0.00425677
0.00423508
0.00423513
0.00423513
0.00418377
0.00420186
0.00420335
0.0041829
0.00420131
0.00418243
0.00418377
0.00420186
0.00420336
0.0041829
0.00420011
0.00420011
0.00420011
0.00416361
0.00416361
0.00416361
0.00416361
0.00418376
0.00420253
0.00419996
0.00418738
0.00420242
0.00418377
0.00418743
0.00420131
0.00418243
0.00418376
0.00419996
0.00420253
0.00418738
0.00420242
0.00418743
0.00418377
0.00420231
0.00420231
0.00418416
0.00418304
0.00418304
0.00413738
0.00415412
0.00415431
0.0041373
0.00415411
0.00413734
0.00413738
0.00415411
0.00415431
0.0041373
0.00415198
0.00415198
0.00415198
0.00411755
0.00411755
0.00411755
0.00411755
0.00413752
0.00415447
0.00415191
0.00414038
0.00415447
0.00413747
0.0041404
0.0041541
0.00413734
0.00413751
0.00415191
0.00415448
0.00414038
0.00415447
0.0041404
0.00413747
0.00415434
0.00415434
0.00413769
0.00413742
0.00413742
0.00409186
0.00410891
0.00410892
0.00409185
0.00410892
0.00409185
0.00409186
0.00410891
0.00410892
0.00409185
0.00410613
0.00410613
0.00410613
0.00407191
0.00407191
0.00407191
0.00407191
0.00409192
0.00410889
0.00410611
0.00409469
0.00410888
0.00409189
0.0040947
0.00410892
0.00409185
0.00409192
0.0041061
0.00410889
0.00409469
0.00410888
0.0040947
0.00409189
0.00410893
0.00410893
0.00409202
0.00409185
0.00409185
0.00404626
0.00406333
0.00406333
0.00404626
0.00406334
0.00404625
0.00404626
0.00406333
0.00406333
0.00404626
0.00406051
0.00406051
0.00406051
0.00402631
0.00402631
0.00402631
0.00402631
0.00404632
0.0040633
0.00406049
0.00404908
0.00406328
0.00404629
0.00404909
0.00406333
0.00404626
0.00404632
0.00406049
0.0040633
0.00404908
0.00406328
0.00404909
0.00404629
0.00406333
0.00406333
0.00404642