/*--------------------------------*- C++ -*----------------------------------*\
| =========                 |                                                 |
| \\      /  F ield         | OpenFOAM: The Open Source CFD Toolbox           |
|  \\    /   O peration     | Version:  2206                                  |
|   \\  /    A nd           | Website:  www.openfoam.com                      |
|    \\/     M anipulation  |                                                 |
\*---------------------------------------------------------------------------*/
FoamFile
{
    version     2.0;
    format      ascii;
    arch        "LSB;label=32;scalar=64";
    class       volScalarField;
    location    "27";
    object      k;
}
// * * * * * * * * * * * * * * * * * * * * * * * * * * * * * * * * * * * * * //

dimensions      [0 2 -2 0 0 0 0];

internalField   nonuniform List<scalar> 
28673
(
2.62133e-05
2.56498e-05
2.67213e-05
2.62135e-05
2.62132e-05
2.56523e-05
2.67213e-05
2.62135e-05
2.62132e-05
2.56524e-05
2.67213e-05
2.62135e-05
2.62133e-05
2.56526e-05
2.67212e-05
2.62135e-05
2.62134e-05
2.56528e-05
2.6721e-05
2.62131e-05
2.62131e-05
2.56525e-05
2.67178e-05
2.62076e-05
2.62097e-05
2.56474e-05
2.67135e-05
2.62048e-05
2.62048e-05
2.56432e-05
2.67134e-05
2.62048e-05
2.62047e-05
2.56432e-05
2.67134e-05
2.62048e-05
2.62047e-05
2.56432e-05
2.67134e-05
2.62049e-05
2.62047e-05
2.56431e-05
2.67135e-05
2.6205e-05
2.62049e-05
2.56434e-05
2.6731e-05
2.62473e-05
2.62472e-05
2.57262e-05
2.6213e-05
2.56561e-05
2.62133e-05
2.56562e-05
2.6213e-05
2.6213e-05
2.6213e-05
2.6213e-05
2.56526e-05
2.56562e-05
2.62133e-05
2.62126e-05
2.6213e-05
2.62135e-05
2.62129e-05
2.56558e-05
2.62133e-05
2.62132e-05
2.62132e-05
2.56561e-05
2.56528e-05
2.56564e-05
2.62132e-05
2.62132e-05
2.62132e-05
2.62131e-05
2.56526e-05
2.56563e-05
2.62135e-05
2.62127e-05
2.62134e-05
2.62127e-05
2.62131e-05
2.62135e-05
2.6213e-05
2.56523e-05
2.56559e-05
2.62133e-05
2.62132e-05
2.62132e-05
2.56562e-05
2.5653e-05
2.56567e-05
2.62133e-05
2.62132e-05
2.62133e-05
2.62132e-05
2.56528e-05
2.56565e-05
2.62136e-05
2.62129e-05
2.62136e-05
2.62128e-05
2.62131e-05
2.62135e-05
2.6213e-05
2.56524e-05
2.56561e-05
2.62134e-05
2.62133e-05
2.62133e-05
2.56563e-05
2.56532e-05
2.56569e-05
2.62135e-05
2.62134e-05
2.62135e-05
2.62134e-05
2.5653e-05
2.56568e-05
2.62137e-05
2.6213e-05
2.62137e-05
2.6213e-05
2.62131e-05
2.62135e-05
2.62132e-05
2.56526e-05
2.56563e-05
2.62134e-05
2.62134e-05
2.62134e-05
2.56565e-05
2.56534e-05
2.5657e-05
2.62136e-05
2.62134e-05
2.62132e-05
2.6213e-05
2.56533e-05
2.56564e-05
2.62139e-05
2.62132e-05
2.62137e-05
2.62129e-05
2.62133e-05
2.62133e-05
2.6213e-05
2.56528e-05
2.56565e-05
2.62135e-05
2.62132e-05
2.62133e-05
2.56565e-05
2.56534e-05
2.56538e-05
2.62131e-05
2.62128e-05
2.62107e-05
2.6209e-05
2.56527e-05
2.56514e-05
2.62136e-05
2.62128e-05
2.62121e-05
2.62115e-05
2.62128e-05
2.62096e-05
2.62101e-05
2.56529e-05
2.56541e-05
2.62131e-05
2.62117e-05
2.62103e-05
2.56527e-05
2.5649e-05
2.56474e-05
2.62086e-05
2.62071e-05
2.62048e-05
2.62044e-05
2.56465e-05
2.56469e-05
2.62101e-05
2.62097e-05
2.62054e-05
2.62048e-05
2.6208e-05
2.62049e-05
2.62046e-05
2.56494e-05
2.56473e-05
2.62083e-05
2.62052e-05
2.62049e-05
2.56472e-05
2.56436e-05
2.5647e-05
2.62046e-05
2.62045e-05
2.62044e-05
2.62044e-05
2.56434e-05
2.5647e-05
2.6205e-05
2.62044e-05
2.62047e-05
2.62041e-05
2.62046e-05
2.62048e-05
2.62044e-05
2.56435e-05
2.56466e-05
2.62049e-05
2.62047e-05
2.62047e-05
2.5647e-05
2.56435e-05
2.56469e-05
2.62046e-05
2.62045e-05
2.62045e-05
2.62044e-05
2.56435e-05
2.56469e-05
2.62049e-05
2.62042e-05
2.62048e-05
2.62041e-05
2.62046e-05
2.62048e-05
2.62045e-05
2.56432e-05
2.56465e-05
2.62048e-05
2.62047e-05
2.62047e-05
2.56469e-05
2.56433e-05
2.56469e-05
2.62046e-05
2.62045e-05
2.62045e-05
2.62045e-05
2.56434e-05
2.56468e-05
2.62049e-05
2.62043e-05
2.62048e-05
2.62042e-05
2.62046e-05
2.62049e-05
2.62045e-05
2.5643e-05
2.56466e-05
2.62049e-05
2.62048e-05
2.62048e-05
2.56469e-05
2.56434e-05
2.56471e-05
2.62046e-05
2.62046e-05
2.6205e-05
2.62049e-05
2.56433e-05
2.56471e-05
2.6205e-05
2.62043e-05
2.62053e-05
2.62047e-05
2.62047e-05
2.62054e-05
2.6205e-05
2.56431e-05
2.56467e-05
2.62049e-05
2.62052e-05
2.62053e-05
2.56471e-05
2.56436e-05
2.56811e-05
2.62047e-05
2.62047e-05
2.62367e-05
2.62366e-05
2.56436e-05
2.56811e-05
2.6205e-05
2.62044e-05
2.62369e-05
2.62365e-05
2.62047e-05
2.62369e-05
2.62367e-05
2.56433e-05
2.56809e-05
2.6205e-05
2.62368e-05
2.62369e-05
2.56811e-05
2.57263e-05
2.62472e-05
2.62471e-05
2.57262e-05
2.62473e-05
2.6247e-05
2.6731e-05
2.6731e-05
2.6731e-05
2.62472e-05
2.5726e-05
2.62474e-05
2.86315e-05
6.98303e-05
2.86326e-05
6.98285e-05
7.99419e-05
7.99376e-05
2.8632e-05
6.98298e-05
2.67215e-05
2.67213e-05
2.67213e-05
2.67214e-05
2.67213e-05
2.67212e-05
2.47438e-05
2.82112e-05
2.65098e-05
2.62135e-05
2.47438e-05
2.82081e-05
2.65098e-05
7.99381e-05
2.4743e-05
2.65096e-05
2.62133e-05
2.47431e-05
2.65096e-05
2.82075e-05
3.41524e-05
3.4154e-05
2.56561e-05
3.41519e-05
3.41535e-05
2.86341e-05
6.98287e-05
2.86356e-05
6.98259e-05
7.99346e-05
7.99331e-05
2.86351e-05
6.98317e-05
2.86362e-05
6.98286e-05
2.67214e-05
2.67212e-05
2.67212e-05
2.67213e-05
2.67213e-05
2.67211e-05
2.67211e-05
2.47443e-05
2.82135e-05
2.65097e-05
2.62136e-05
2.47442e-05
2.82099e-05
2.65097e-05
7.99341e-05
7.99308e-05
2.47436e-05
2.65095e-05
2.82132e-05
2.62133e-05
2.47436e-05
2.65095e-05
2.821e-05
3.41549e-05
3.41565e-05
2.56561e-05
3.41532e-05
3.41548e-05
2.86353e-05
6.98271e-05
2.86373e-05
6.98247e-05
7.99325e-05
7.9932e-05
2.86363e-05
6.98297e-05
2.86381e-05
6.98273e-05
2.67214e-05
2.67211e-05
2.67211e-05
2.67213e-05
2.67212e-05
2.67211e-05
2.6721e-05
2.47447e-05
2.82148e-05
2.65097e-05
2.62136e-05
2.47446e-05
2.82111e-05
2.65098e-05
7.99296e-05
7.99281e-05
2.4744e-05
2.65095e-05
2.82147e-05
2.62133e-05
2.47441e-05
2.65096e-05
2.82113e-05
3.41567e-05
3.41583e-05
2.56562e-05
3.4156e-05
3.41577e-05
2.86361e-05
6.98264e-05
2.8638e-05
6.98244e-05
7.99326e-05
7.99328e-05
2.86368e-05
6.98291e-05
2.86385e-05
6.98269e-05
2.67212e-05
2.67212e-05
2.67211e-05
2.67213e-05
2.67211e-05
2.67212e-05
2.67211e-05
2.4745e-05
2.82156e-05
2.65097e-05
2.62136e-05
2.4745e-05
2.82118e-05
2.65098e-05
7.99286e-05
7.99281e-05
2.47442e-05
2.65095e-05
2.82157e-05
2.62135e-05
2.47442e-05
2.65097e-05
2.82121e-05
3.41603e-05
3.4162e-05
2.56564e-05
3.41593e-05
3.41611e-05
2.86368e-05
6.98266e-05
2.8639e-05
6.98247e-05
7.99343e-05
7.9935e-05
2.8638e-05
6.98293e-05
2.86397e-05
6.98273e-05
2.67211e-05
2.67211e-05
2.67212e-05
2.67211e-05
2.6721e-05
2.67208e-05
2.67209e-05
2.47456e-05
2.82161e-05
2.65097e-05
2.62135e-05
2.47456e-05
2.82121e-05
2.65097e-05
7.99296e-05
7.99295e-05
2.47449e-05
2.65095e-05
2.82162e-05
2.62134e-05
2.4745e-05
2.65095e-05
2.82124e-05
3.41625e-05
3.41642e-05
2.56567e-05
3.41605e-05
3.41623e-05
2.86353e-05
6.98286e-05
2.86383e-05
6.98288e-05
7.9936e-05
7.99352e-05
2.8637e-05
6.98308e-05
2.86397e-05
6.98304e-05
2.67209e-05
2.67208e-05
2.67208e-05
2.67197e-05
2.67182e-05
2.67198e-05
2.67187e-05
2.47437e-05
2.8216e-05
2.65094e-05
2.62127e-05
2.47449e-05
2.82109e-05
2.65091e-05
7.99322e-05
7.99323e-05
2.47431e-05
2.65093e-05
2.82161e-05
2.6213e-05
2.47443e-05
2.65091e-05
2.82116e-05
3.4162e-05
3.41638e-05
2.56555e-05
3.41596e-05
3.41614e-05
2.86299e-05
6.98325e-05
2.86348e-05
6.98332e-05
7.99339e-05
7.99357e-05
2.86327e-05
6.98348e-05
2.86374e-05
6.98358e-05
2.67164e-05
2.67181e-05
2.67168e-05
2.6714e-05
2.67136e-05
2.6714e-05
2.67137e-05
2.47348e-05
2.82108e-05
2.65047e-05
2.62062e-05
2.47391e-05
2.82035e-05
2.65033e-05
7.99312e-05
7.99322e-05
2.47343e-05
2.65054e-05
2.82128e-05
2.62078e-05
2.4739e-05
2.65038e-05
2.82057e-05
3.41594e-05
3.41611e-05
2.5649e-05
3.41548e-05
3.41565e-05
2.8626e-05
6.98346e-05
2.86295e-05
6.98378e-05
7.99311e-05
7.99398e-05
2.86275e-05
6.98378e-05
2.86311e-05
6.9841e-05
2.67136e-05
2.67136e-05
2.67136e-05
2.67134e-05
2.67135e-05
2.67134e-05
2.67135e-05
2.47341e-05
2.82046e-05
2.65015e-05
2.62049e-05
2.47344e-05
2.81973e-05
2.65016e-05
7.99288e-05
7.99381e-05
2.47332e-05
2.65015e-05
2.82057e-05
2.62048e-05
2.47334e-05
2.65015e-05
2.81982e-05
3.41556e-05
3.41573e-05
2.5647e-05
3.41516e-05
3.41533e-05
2.86281e-05
6.98315e-05
2.86322e-05
6.98418e-05
7.99279e-05
7.99433e-05
2.86294e-05
6.98347e-05
2.86332e-05
6.98449e-05
2.67136e-05
2.67135e-05
2.67136e-05
2.67134e-05
2.67135e-05
2.67134e-05
2.67134e-05
2.47344e-05
2.82056e-05
2.65015e-05
2.62049e-05
2.47348e-05
2.81947e-05
2.65016e-05
7.9927e-05
7.99429e-05
2.47336e-05
2.65014e-05
2.82059e-05
2.62047e-05
2.47339e-05
2.65015e-05
2.81951e-05
3.41559e-05
3.41574e-05
2.56469e-05
3.41504e-05
3.4152e-05
2.86287e-05
6.98311e-05
2.86319e-05
6.98524e-05
7.99136e-05
7.99327e-05
2.86299e-05
6.98342e-05
2.86329e-05
6.9856e-05
2.67136e-05
2.67135e-05
2.67135e-05
2.67134e-05
2.67135e-05
2.67134e-05
2.67134e-05
2.47344e-05
2.82036e-05
2.65016e-05
2.62049e-05
2.47351e-05
2.81882e-05
2.65017e-05
7.99143e-05
7.99334e-05
2.47337e-05
2.65015e-05
2.82041e-05
2.62048e-05
2.47343e-05
2.65016e-05
2.81894e-05
3.41569e-05
3.41582e-05
2.56469e-05
3.41559e-05
3.41572e-05
2.86322e-05
6.98188e-05
2.86331e-05
6.98542e-05
7.98723e-05
7.98969e-05
2.86333e-05
6.98224e-05
2.8634e-05
6.98579e-05
2.67136e-05
2.67135e-05
2.67136e-05
2.67136e-05
2.67137e-05
2.67136e-05
2.67137e-05
2.4734e-05
2.82126e-05
2.65017e-05
2.6205e-05
2.4736e-05
2.81913e-05
2.65017e-05
7.98741e-05
7.98977e-05
2.47335e-05
2.65016e-05
2.82141e-05
2.62049e-05
2.47354e-05
2.65016e-05
2.81928e-05
3.41565e-05
3.41576e-05
2.56468e-05
3.41595e-05
3.41605e-05
2.86394e-05
6.97792e-05
2.86322e-05
6.9837e-05
7.97789e-05
7.98013e-05
2.86409e-05
6.97831e-05
2.86334e-05
6.98406e-05
2.67137e-05
2.67136e-05
2.67137e-05
2.67187e-05
2.67187e-05
2.67187e-05
2.67187e-05
2.47326e-05
2.82388e-05
2.65024e-05
2.62085e-05
2.47368e-05
2.81778e-05
2.65016e-05
7.97793e-05
7.98012e-05
2.47322e-05
2.65023e-05
2.82399e-05
2.62084e-05
2.47363e-05
2.65015e-05
2.81783e-05
3.41433e-05
3.41443e-05
2.56517e-05
3.41523e-05
3.4153e-05
2.6335e-05
6.78381e-05
2.85617e-05
5.75145e-05
7.51625e-05
4.77512e-05
2.63359e-05
6.78461e-05
2.85634e-05
5.75214e-05
2.6902e-05
2.68435e-05
2.68435e-05
2.66744e-05
2.68993e-05
2.68276e-05
2.68277e-05
2.47679e-05
2.80048e-05
2.65339e-05
2.62849e-05
2.47566e-05
3.05568e-05
2.65902e-05
7.51619e-05
4.77497e-05
2.47675e-05
2.65339e-05
2.80046e-05
2.62848e-05
2.47562e-05
2.65902e-05
3.05555e-05
3.43843e-05
3.43853e-05
2.58276e-05
3.32058e-05
3.32048e-05
6.98313e-05
2.82084e-05
7.99425e-05
3.41518e-05
3.41448e-05
7.99386e-05
2.82067e-05
6.98283e-05
7.99444e-05
7.994e-05
7.99418e-05
3.41523e-05
2.56561e-05
3.41518e-05
3.41514e-05
7.99361e-05
7.99397e-05
7.9937e-05
7.99413e-05
2.56526e-05
3.41528e-05
3.41535e-05
3.4154e-05
3.41541e-05
2.86319e-05
6.98334e-05
2.8633e-05
6.98309e-05
2.47436e-05
2.82108e-05
2.65097e-05
2.6213e-05
2.47437e-05
2.82079e-05
2.65097e-05
2.47438e-05
2.82129e-05
2.65098e-05
2.6213e-05
2.47439e-05
2.82098e-05
2.65098e-05
2.86344e-05
6.98271e-05
6.98302e-05
2.8633e-05
2.86348e-05
6.98293e-05
6.98324e-05
2.86334e-05
2.47442e-05
2.6213e-05
2.82091e-05
2.65097e-05
2.82123e-05
2.65097e-05
2.47438e-05
2.47443e-05
2.6213e-05
2.82108e-05
2.65097e-05
2.82142e-05
2.65098e-05
2.47439e-05
3.41545e-05
3.41475e-05
2.56561e-05
3.41539e-05
3.41465e-05
7.99389e-05
7.99342e-05
7.99347e-05
7.99374e-05
2.56526e-05
3.41549e-05
3.41483e-05
3.4156e-05
3.4149e-05
7.99312e-05
7.99346e-05
2.4744e-05
2.62133e-05
2.82084e-05
2.65097e-05
2.86316e-05
6.98271e-05
2.47437e-05
2.62126e-05
2.65096e-05
2.82071e-05
2.86348e-05
6.98299e-05
6.9832e-05
2.86338e-05
2.47445e-05
2.62133e-05
2.82097e-05
2.65096e-05
2.82128e-05
2.65097e-05
2.47442e-05
2.86343e-05
6.98268e-05
6.98292e-05
2.86333e-05
2.47442e-05
2.62126e-05
2.65095e-05
2.82085e-05
2.65095e-05
2.82118e-05
2.47439e-05
2.86318e-05
6.98306e-05
2.86329e-05
6.98279e-05
2.47437e-05
2.65097e-05
2.82106e-05
2.6213e-05
2.47437e-05
2.65097e-05
2.82077e-05
2.86316e-05
6.9832e-05
2.86327e-05
6.98302e-05
2.47444e-05
2.62135e-05
2.82092e-05
2.65098e-05
2.82127e-05
2.65098e-05
2.47442e-05
2.86347e-05
6.98262e-05
6.98295e-05
2.86333e-05
2.47442e-05
2.6213e-05
2.65097e-05
2.82089e-05
2.65097e-05
2.82121e-05
2.47438e-05
2.86345e-05
6.98287e-05
6.98319e-05
2.86331e-05
2.56558e-05
3.41469e-05
3.41503e-05
7.99426e-05
7.99338e-05
7.99384e-05
2.56523e-05
3.41485e-05
3.41524e-05
3.41496e-05
3.4153e-05
7.99377e-05
7.99421e-05
2.47429e-05
2.65096e-05
2.82112e-05
2.62133e-05
2.4743e-05
2.65096e-05
2.82083e-05
2.86307e-05
2.8632e-05
6.98298e-05
2.86305e-05
6.98343e-05
2.86319e-05
6.98325e-05
2.47436e-05
2.62133e-05
2.65096e-05
2.8209e-05
2.65096e-05
2.8212e-05
2.47435e-05
2.47435e-05
2.62132e-05
2.65096e-05
2.82095e-05
2.65096e-05
2.82128e-05
2.47431e-05
2.86338e-05
6.98298e-05
6.98319e-05
2.86321e-05
2.86336e-05
6.9831e-05
6.98341e-05
2.86319e-05
7.99441e-05
7.99398e-05
7.99436e-05
7.99393e-05
2.56526e-05
3.41528e-05
3.41545e-05
3.41542e-05
3.41557e-05
7.99358e-05
7.99394e-05
7.99353e-05
7.99389e-05
7.99362e-05
7.99339e-05
7.99368e-05
7.99341e-05
3.41546e-05
3.41554e-05
2.56564e-05
3.41531e-05
3.41538e-05
7.99329e-05
7.99344e-05
7.99324e-05
7.99343e-05
2.56529e-05
3.41542e-05
3.41544e-05
3.4155e-05
3.41557e-05
2.86344e-05
6.98308e-05
2.86361e-05
6.98282e-05
2.47442e-05
2.82133e-05
2.65098e-05
2.62132e-05
2.47441e-05
2.82099e-05
2.65098e-05
2.47444e-05
2.82151e-05
2.65097e-05
2.62132e-05
2.47443e-05
2.82116e-05
2.65097e-05
2.86368e-05
6.98252e-05
6.98276e-05
2.86349e-05
2.86371e-05
6.98275e-05
6.98299e-05
2.86352e-05
2.47448e-05
2.62132e-05
2.82105e-05
2.65097e-05
2.82141e-05
2.65097e-05
2.47447e-05
2.47449e-05
2.62131e-05
2.82121e-05
2.65096e-05
2.82158e-05
2.65096e-05
2.47448e-05
3.41571e-05
3.41508e-05
2.56563e-05
3.41561e-05
3.41498e-05
7.99318e-05
7.99293e-05
7.99323e-05
7.99337e-05
2.56527e-05
3.41575e-05
3.41511e-05
3.41583e-05
3.41522e-05
7.99284e-05
7.993e-05
2.47446e-05
2.8214e-05
2.65097e-05
2.62135e-05
2.47446e-05
2.82106e-05
2.65097e-05
2.86346e-05
6.98285e-05
2.86359e-05
6.98254e-05
2.47444e-05
2.65096e-05
2.82131e-05
2.62127e-05
2.47443e-05
2.65096e-05
2.82096e-05
2.86376e-05
6.98277e-05
6.98303e-05
2.8636e-05
2.4745e-05
2.62135e-05
2.82112e-05
2.65097e-05
2.82147e-05
2.65097e-05
2.47452e-05
2.86371e-05
6.98244e-05
6.98271e-05
2.86355e-05
2.47449e-05
2.62127e-05
2.65095e-05
2.82104e-05
2.65095e-05
2.82141e-05
2.47446e-05
2.86343e-05
6.9828e-05
2.8636e-05
6.98252e-05
2.47442e-05
2.65097e-05
2.82132e-05
2.62131e-05
2.47442e-05
2.65097e-05
2.82097e-05
2.86342e-05
6.98302e-05
2.86358e-05
6.98274e-05
2.47449e-05
2.62136e-05
2.82106e-05
2.65097e-05
2.82144e-05
2.65097e-05
2.47446e-05
2.8637e-05
6.98246e-05
6.98271e-05
2.86351e-05
2.47446e-05
2.6213e-05
2.65096e-05
2.82103e-05
2.65096e-05
2.82139e-05
2.47448e-05
2.86369e-05
6.98266e-05
6.9829e-05
2.86349e-05
3.41509e-05
3.41544e-05
2.56558e-05
3.415e-05
3.41529e-05
7.99375e-05
7.99348e-05
7.99291e-05
7.99314e-05
2.56523e-05
3.4152e-05
3.41537e-05
3.41526e-05
3.41548e-05
7.99331e-05
7.9935e-05
2.47434e-05
2.65096e-05
2.82138e-05
2.62133e-05
2.47436e-05
2.65095e-05
2.82103e-05
2.86332e-05
6.98314e-05
2.86351e-05
6.98283e-05
2.8633e-05
6.98326e-05
2.86349e-05
6.98297e-05
2.47442e-05
2.62132e-05
2.65095e-05
2.82107e-05
2.65095e-05
2.82143e-05
2.4744e-05
2.47439e-05
2.62133e-05
2.65094e-05
2.82109e-05
2.65094e-05
2.82146e-05
2.47439e-05
2.86362e-05
6.98273e-05
6.98299e-05
2.8634e-05
2.8636e-05
6.9829e-05
6.98314e-05
2.86338e-05
7.9936e-05
7.99337e-05
7.99355e-05
7.99332e-05
2.56526e-05
3.41543e-05
3.4156e-05
3.41552e-05
3.41568e-05
7.99326e-05
7.99342e-05
7.99321e-05
7.99337e-05
7.99335e-05
7.99323e-05
7.99329e-05
7.99315e-05
3.41564e-05
3.41565e-05
2.56566e-05
3.4156e-05
3.41559e-05
7.99323e-05
7.99331e-05
7.99312e-05
7.99322e-05
2.56531e-05
3.4158e-05
3.41578e-05
3.41583e-05
3.41581e-05
2.86356e-05
6.98293e-05
2.86378e-05
6.98272e-05
2.47452e-05
2.82147e-05
2.65098e-05
2.62133e-05
2.47453e-05
2.82111e-05
2.65098e-05
2.47452e-05
2.82164e-05
2.65097e-05
2.62132e-05
2.47453e-05
2.82126e-05
2.65097e-05
2.86379e-05
6.98244e-05
6.98266e-05
2.86357e-05
2.86381e-05
6.9827e-05
6.9829e-05
2.86359e-05
2.47457e-05
2.62133e-05
2.82116e-05
2.65098e-05
2.82153e-05
2.65098e-05
2.47454e-05
2.47458e-05
2.62132e-05
2.8213e-05
2.65097e-05
2.82168e-05
2.65097e-05
2.47454e-05
3.41598e-05
3.41537e-05
2.56564e-05
3.41593e-05
3.41532e-05
7.99293e-05
7.99282e-05
7.99321e-05
7.99328e-05
2.56529e-05
3.41609e-05
3.4155e-05
3.41616e-05
3.41558e-05
7.99285e-05
7.99293e-05
2.47455e-05
2.82154e-05
2.65098e-05
2.62136e-05
2.47457e-05
2.82118e-05
2.65098e-05
2.86359e-05
6.98263e-05
2.86378e-05
6.98238e-05
2.47451e-05
2.65096e-05
2.82149e-05
2.62129e-05
2.4745e-05
2.65096e-05
2.82111e-05
2.86385e-05
6.9827e-05
6.98292e-05
2.86364e-05
2.4746e-05
2.62136e-05
2.82123e-05
2.65097e-05
2.8216e-05
2.65097e-05
2.47456e-05
2.86381e-05
6.98234e-05
6.98257e-05
2.86361e-05
2.47457e-05
2.62129e-05
2.65096e-05
2.82116e-05
2.65096e-05
2.82155e-05
2.47453e-05
2.86355e-05
6.98265e-05
2.86377e-05
6.98242e-05
2.4745e-05
2.65096e-05
2.82145e-05
2.62131e-05
2.47453e-05
2.65096e-05
2.82109e-05
2.86353e-05
6.98283e-05
2.86375e-05
6.98261e-05
2.47452e-05
2.62136e-05
2.82115e-05
2.65097e-05
2.82155e-05
2.65097e-05
2.47449e-05
2.8638e-05
6.98241e-05
6.98262e-05
2.86358e-05
2.47455e-05
2.6213e-05
2.65096e-05
2.82113e-05
2.65096e-05
2.8215e-05
2.4745e-05
2.86378e-05
6.98259e-05
6.98279e-05
2.86356e-05
3.41545e-05
3.41558e-05
2.5656e-05
3.41537e-05
3.41552e-05
7.99336e-05
7.99322e-05
7.99279e-05
7.9929e-05
2.56525e-05
3.41552e-05
3.41572e-05
3.41562e-05
3.41575e-05
7.99319e-05
7.99329e-05
2.47442e-05
2.65095e-05
2.82151e-05
2.62134e-05
2.47445e-05
2.65095e-05
2.82115e-05
2.86343e-05
6.9829e-05
2.86368e-05
6.98267e-05
2.86342e-05
6.98307e-05
2.86367e-05
6.98285e-05
2.47445e-05
2.62133e-05
2.65095e-05
2.82118e-05
2.65095e-05
2.82155e-05
2.47442e-05
2.47447e-05
2.62133e-05
2.65095e-05
2.82119e-05
2.65095e-05
2.82157e-05
2.47442e-05
2.86371e-05
6.98263e-05
6.98285e-05
2.86345e-05
2.86369e-05
6.98282e-05
6.98303e-05
2.86345e-05
7.99332e-05
7.9932e-05
7.99327e-05
7.99315e-05
2.56528e-05
3.41578e-05
3.41596e-05
3.41582e-05
3.416e-05
7.9932e-05
7.99328e-05
7.99315e-05
7.99323e-05
7.99331e-05
7.99326e-05
7.9932e-05
7.99314e-05
3.41602e-05
3.416e-05
2.56568e-05
3.41596e-05
3.41596e-05
7.99335e-05
7.99336e-05
7.9932e-05
7.99323e-05
2.56533e-05
3.41606e-05
3.41608e-05
3.41616e-05
3.41617e-05
2.86364e-05
6.98289e-05
2.86384e-05
6.98271e-05
2.47456e-05
2.82157e-05
2.651e-05
2.62135e-05
2.47458e-05
2.82119e-05
2.651e-05
2.47456e-05
2.82171e-05
2.65099e-05
2.62134e-05
2.47457e-05
2.82133e-05
2.65099e-05
2.86387e-05
6.98245e-05
6.98263e-05
2.86366e-05
2.8639e-05
6.98273e-05
6.98291e-05
2.86369e-05
2.47462e-05
2.62135e-05
2.82122e-05
2.65099e-05
2.8216e-05
2.65099e-05
2.47461e-05
2.47461e-05
2.62134e-05
2.82135e-05
2.65098e-05
2.82174e-05
2.65098e-05
2.47462e-05
3.41632e-05
3.41575e-05
2.56567e-05
3.41622e-05
3.41562e-05
7.99296e-05
7.99291e-05
7.99336e-05
7.99338e-05
2.56532e-05
3.41629e-05
3.41568e-05
3.41643e-05
3.41585e-05
7.99299e-05
7.99304e-05
2.47457e-05
2.82164e-05
2.65098e-05
2.62137e-05
2.47459e-05
2.82127e-05
2.65098e-05
2.86365e-05
6.98254e-05
2.86384e-05
6.98233e-05
2.47456e-05
2.65097e-05
2.8216e-05
2.6213e-05
2.47457e-05
2.65097e-05
2.8212e-05
2.86392e-05
6.98271e-05
6.9829e-05
2.86375e-05
2.47463e-05
2.62137e-05
2.8213e-05
2.65098e-05
2.82168e-05
2.65098e-05
2.47463e-05
2.86389e-05
6.98234e-05
6.98254e-05
2.86372e-05
2.4746e-05
2.6213e-05
2.65096e-05
2.82123e-05
2.65096e-05
2.82164e-05
2.47462e-05
2.86362e-05
6.98261e-05
2.86383e-05
6.98241e-05
2.47454e-05
2.65097e-05
2.82154e-05
2.62131e-05
2.47454e-05
2.65097e-05
2.82116e-05
2.86361e-05
6.98278e-05
2.86381e-05
6.98258e-05
2.47456e-05
2.62136e-05
2.8212e-05
2.65097e-05
2.82161e-05
2.65098e-05
2.47456e-05
2.86388e-05
6.98244e-05
6.98263e-05
2.86367e-05
2.4746e-05
2.62131e-05
2.65097e-05
2.82119e-05
2.65097e-05
2.82157e-05
2.47459e-05
2.86387e-05
6.9826e-05
6.98278e-05
2.86366e-05
3.41576e-05
3.41594e-05
2.56562e-05
3.41566e-05
3.4159e-05
7.99328e-05
7.99321e-05
7.99287e-05
7.99293e-05
2.56527e-05
3.41576e-05
3.41602e-05
3.41589e-05
3.41611e-05
7.99328e-05
7.9933e-05
2.47445e-05
2.65096e-05
2.82161e-05
2.62134e-05
2.47445e-05
2.65096e-05
2.82123e-05
2.8635e-05
6.98282e-05
2.86373e-05
6.98263e-05
2.8635e-05
6.98302e-05
2.86373e-05
6.98282e-05
2.47448e-05
2.62134e-05
2.65096e-05
2.82123e-05
2.65097e-05
2.82162e-05
2.47449e-05
2.47451e-05
2.62134e-05
2.65095e-05
2.82126e-05
2.65095e-05
2.82164e-05
2.47451e-05
2.86379e-05
6.98263e-05
6.98282e-05
2.86356e-05
2.86379e-05
6.98284e-05
6.98302e-05
2.86356e-05
7.99329e-05
7.99323e-05
7.99323e-05
7.99318e-05
2.56529e-05
3.41603e-05
3.41621e-05
3.41614e-05
3.41632e-05
7.99331e-05
7.99334e-05
7.99326e-05
7.99328e-05
7.99345e-05
7.99346e-05
7.9933e-05
7.99327e-05
3.41625e-05
3.41629e-05
2.56571e-05
3.41608e-05
3.41617e-05
7.99363e-05
7.99359e-05
7.99344e-05
7.99338e-05
2.56536e-05
3.41603e-05
3.41617e-05
3.41624e-05
3.41636e-05
2.86372e-05
6.98294e-05
2.86395e-05
6.98283e-05
2.47459e-05
2.82163e-05
2.65098e-05
2.62135e-05
2.47466e-05
2.82124e-05
2.65097e-05
2.47461e-05
2.82177e-05
2.65098e-05
2.62134e-05
2.47467e-05
2.82137e-05
2.65097e-05
2.86392e-05
6.98261e-05
6.98268e-05
2.86362e-05
2.86396e-05
6.98305e-05
6.98307e-05
2.86366e-05
2.47458e-05
2.62134e-05
2.82123e-05
2.65095e-05
2.82165e-05
2.65096e-05
2.47448e-05
2.47461e-05
2.62132e-05
2.82135e-05
2.65096e-05
2.82178e-05
2.65096e-05
2.4745e-05
3.41647e-05
3.41589e-05
2.56569e-05
3.41627e-05
3.41566e-05
7.99313e-05
7.99313e-05
7.99358e-05
7.99362e-05
2.56533e-05
3.41625e-05
3.41564e-05
3.41645e-05
3.41586e-05
7.99322e-05
7.99328e-05
2.47467e-05
2.82171e-05
2.65099e-05
2.62139e-05
2.47469e-05
2.82133e-05
2.65099e-05
2.86376e-05
6.98256e-05
2.86395e-05
6.98236e-05
2.47464e-05
2.65096e-05
2.82166e-05
2.62131e-05
2.47467e-05
2.65096e-05
2.82124e-05
2.86403e-05
6.98282e-05
6.98295e-05
2.86379e-05
2.4747e-05
2.62138e-05
2.82134e-05
2.65098e-05
2.82174e-05
2.65099e-05
2.4746e-05
2.86399e-05
6.98243e-05
6.98258e-05
2.86376e-05
2.47468e-05
2.62131e-05
2.65095e-05
2.82124e-05
2.65096e-05
2.82168e-05
2.47458e-05
2.8637e-05
6.98266e-05
2.86392e-05
6.98253e-05
2.47458e-05
2.65098e-05
2.8216e-05
2.62132e-05
2.47463e-05
2.65098e-05
2.82121e-05
2.86369e-05
6.9828e-05
2.86392e-05
6.98262e-05
2.47461e-05
2.62134e-05
2.8212e-05
2.65095e-05
2.82164e-05
2.65096e-05
2.47451e-05
2.86394e-05
6.98276e-05
6.98279e-05
2.86365e-05
2.47458e-05
2.62131e-05
2.65095e-05
2.8212e-05
2.65096e-05
2.82161e-05
2.47449e-05
2.86393e-05
6.98276e-05
6.98283e-05
2.86363e-05
3.41598e-05
3.41622e-05
2.56565e-05
3.41581e-05
3.41609e-05
7.99338e-05
7.99336e-05
7.99309e-05
7.99309e-05
2.5653e-05
3.41578e-05
3.41604e-05
3.41602e-05
3.41626e-05
7.99356e-05
7.99348e-05
2.4745e-05
2.65096e-05
2.82167e-05
2.62135e-05
2.47456e-05
2.65095e-05
2.82128e-05
2.8636e-05
6.98282e-05
2.86384e-05
6.98263e-05
2.86359e-05
6.98304e-05
2.86384e-05
6.98287e-05
2.47454e-05
2.62133e-05
2.65093e-05
2.82123e-05
2.65094e-05
2.82164e-05
2.47445e-05
2.47453e-05
2.62134e-05
2.65094e-05
2.82126e-05
2.65095e-05
2.82169e-05
2.47442e-05
2.86386e-05
6.98267e-05
6.98282e-05
2.86355e-05
2.86385e-05
6.98301e-05
6.98308e-05
2.86353e-05
7.99342e-05
7.99343e-05
7.99336e-05
7.99337e-05
2.56532e-05
3.41601e-05
3.41619e-05
3.41622e-05
3.4164e-05
7.99359e-05
7.99355e-05
7.99353e-05
7.9935e-05
7.99372e-05
7.99361e-05
7.99357e-05
7.99358e-05
3.41619e-05
3.41635e-05
2.56563e-05
3.41598e-05
3.41614e-05
7.9935e-05
7.99364e-05
7.99351e-05
7.99364e-05
2.56522e-05
3.41583e-05
3.41604e-05
3.41614e-05
3.41631e-05
2.86356e-05
6.98329e-05
2.86389e-05
6.98328e-05
2.47438e-05
2.82163e-05
2.65094e-05
2.62128e-05
2.47447e-05
2.82115e-05
2.65092e-05
2.47439e-05
2.82175e-05
2.65095e-05
2.62123e-05
2.47449e-05
2.82124e-05
2.65092e-05
2.86375e-05
6.98312e-05
6.9831e-05
2.86332e-05
2.86379e-05
6.98346e-05
6.98349e-05
2.86335e-05
2.47436e-05
2.62122e-05
2.8209e-05
2.65071e-05
2.82152e-05
2.65086e-05
2.47404e-05
2.47437e-05
2.62111e-05
2.82092e-05
2.65066e-05
2.8216e-05
2.65084e-05
2.47404e-05
3.41643e-05
3.41585e-05
2.56549e-05
3.41617e-05
3.41556e-05
7.9933e-05
7.99314e-05
7.99345e-05
7.99355e-05
2.56504e-05
3.41589e-05
3.4153e-05
3.41631e-05
3.41573e-05
7.99306e-05
7.9932e-05
2.47448e-05
2.82173e-05
2.65097e-05
2.62134e-05
2.47458e-05
2.8213e-05
2.65095e-05
2.86366e-05
6.98267e-05
2.86396e-05
6.98265e-05
2.47446e-05
2.65094e-05
2.82166e-05
2.62126e-05
2.47457e-05
2.65092e-05
2.82119e-05
2.86391e-05
6.98331e-05
6.98327e-05
2.86357e-05
2.47447e-05
2.6213e-05
2.82114e-05
2.65084e-05
2.82168e-05
2.65092e-05
2.47433e-05
2.86388e-05
6.98295e-05
6.98289e-05
2.86353e-05
2.47445e-05
2.62122e-05
2.65083e-05
2.82104e-05
2.65089e-05
2.82161e-05
2.47431e-05
2.86354e-05
6.98301e-05
2.86387e-05
6.98299e-05
2.47437e-05
2.65094e-05
2.82159e-05
2.62125e-05
2.47448e-05
2.65091e-05
2.82112e-05
2.86353e-05
6.983e-05
2.86385e-05
6.98302e-05
2.47435e-05
2.62116e-05
2.82077e-05
2.65067e-05
2.82147e-05
2.65084e-05
2.47402e-05
2.86377e-05
6.98317e-05
6.98321e-05
2.86334e-05
2.47435e-05
2.62118e-05
2.65068e-05
2.82087e-05
2.65084e-05
2.82149e-05
2.47403e-05
2.86376e-05
6.98327e-05
6.98325e-05
2.86332e-05
3.41597e-05
3.4162e-05
2.5656e-05
3.41573e-05
3.41598e-05
7.99369e-05
7.99366e-05
7.99315e-05
7.99331e-05
2.56521e-05
3.41564e-05
3.41591e-05
3.41592e-05
3.41615e-05
7.99354e-05
7.99369e-05
2.47431e-05
2.65093e-05
2.82166e-05
2.62128e-05
2.47441e-05
2.6509e-05
2.82118e-05
2.86346e-05
6.98289e-05
2.8638e-05
6.9829e-05
2.86344e-05
6.98325e-05
2.86378e-05
6.98326e-05
2.47429e-05
2.62126e-05
2.65074e-05
2.82097e-05
2.65086e-05
2.82154e-05
2.474e-05
2.47429e-05
2.6212e-05
2.6507e-05
2.82093e-05
2.65084e-05
2.82156e-05
2.47399e-05
2.86371e-05
6.98322e-05
6.98315e-05
2.86326e-05
2.86369e-05
6.9835e-05
6.98348e-05
2.86324e-05
7.99368e-05
7.99358e-05
7.99362e-05
7.99353e-05
2.56513e-05
3.4158e-05
3.41597e-05
3.41613e-05
3.4163e-05
7.99347e-05
7.99361e-05
7.99343e-05
7.99356e-05
7.99347e-05
7.99362e-05
7.99345e-05
7.99358e-05
3.41595e-05
3.41617e-05
2.56498e-05
3.41551e-05
3.41575e-05
7.99391e-05
7.99344e-05
7.99383e-05
7.99338e-05
2.56452e-05
3.41528e-05
3.41548e-05
3.41564e-05
3.41588e-05
2.86303e-05
6.98358e-05
2.86353e-05
6.98363e-05
2.47348e-05
2.82121e-05
2.65052e-05
2.62069e-05
2.47394e-05
2.82048e-05
2.65036e-05
2.47349e-05
2.82123e-05
2.65047e-05
2.62058e-05
2.47393e-05
2.8205e-05
2.65033e-05
2.86319e-05
6.98356e-05
6.9833e-05
2.86276e-05
2.86322e-05
6.98387e-05
6.98361e-05
2.8628e-05
2.47349e-05
2.62055e-05
2.82009e-05
2.65017e-05
2.82081e-05
2.65024e-05
2.47341e-05
2.4735e-05
2.62048e-05
2.82015e-05
2.65017e-05
2.82085e-05
2.65022e-05
2.47343e-05
3.416e-05
3.41542e-05
2.56481e-05
3.41554e-05
3.41492e-05
7.99308e-05
7.9932e-05
7.99387e-05
7.99339e-05
2.5644e-05
3.41538e-05
3.41471e-05
3.4157e-05
3.41509e-05
7.9936e-05
7.99304e-05
2.47375e-05
2.82146e-05
2.65067e-05
2.62081e-05
2.47427e-05
2.82074e-05
2.65049e-05
2.86324e-05
6.98312e-05
2.86372e-05
6.98322e-05
2.47374e-05
2.65067e-05
2.8214e-05
2.62077e-05
2.47425e-05
2.65048e-05
2.82064e-05
2.86343e-05
6.98387e-05
6.98361e-05
2.86297e-05
2.47366e-05
2.62065e-05
2.82027e-05
2.65022e-05
2.82105e-05
2.65033e-05
2.47348e-05
2.86339e-05
6.98351e-05
6.98326e-05
2.86293e-05
2.47364e-05
2.6206e-05
2.65021e-05
2.82016e-05
2.65032e-05
2.82098e-05
2.47345e-05
2.86302e-05
6.9833e-05
2.86352e-05
6.98332e-05
2.47348e-05
2.65049e-05
2.82118e-05
2.62065e-05
2.47393e-05
2.65034e-05
2.82045e-05
2.863e-05
6.9834e-05
2.8635e-05
6.98347e-05
2.47349e-05
2.62053e-05
2.81998e-05
2.65017e-05
2.82071e-05
2.65023e-05
2.47343e-05
2.86321e-05
6.98358e-05
6.98334e-05
2.86278e-05
2.47349e-05
2.62052e-05
2.65017e-05
2.82006e-05
2.65023e-05
2.82079e-05
2.47341e-05
2.8632e-05
6.98372e-05
6.98346e-05
2.86277e-05
3.41581e-05
3.41605e-05
2.56503e-05
3.41537e-05
3.41565e-05
7.99349e-05
7.99362e-05
7.99359e-05
7.99305e-05
2.56456e-05
3.41505e-05
3.41537e-05
3.41552e-05
3.41578e-05
7.99389e-05
7.99343e-05
2.47341e-05
2.6505e-05
2.82125e-05
2.62067e-05
2.47389e-05
2.65035e-05
2.82052e-05
2.86291e-05
6.98337e-05
2.86343e-05
6.98349e-05
2.86291e-05
6.98363e-05
2.86345e-05
6.98371e-05
2.47342e-05
2.62062e-05
2.65018e-05
2.82013e-05
2.65026e-05
2.82089e-05
2.47334e-05
2.47341e-05
2.62055e-05
2.65016e-05
2.82013e-05
2.65023e-05
2.82085e-05
2.47333e-05
2.86309e-05
6.98376e-05
6.98349e-05
2.86262e-05
2.86312e-05
6.98395e-05
6.9837e-05
2.86266e-05
7.99345e-05
7.9936e-05
7.9934e-05
7.99355e-05
2.56446e-05
3.41527e-05
3.41543e-05
3.41562e-05
3.41578e-05
7.99388e-05
7.99341e-05
7.99383e-05
7.99336e-05
7.99319e-05
7.99402e-05
7.99311e-05
7.99393e-05
3.41555e-05
3.41573e-05
2.56469e-05
3.41517e-05
3.41531e-05
7.99429e-05
7.99301e-05
7.9942e-05
7.99292e-05
2.56434e-05
3.41502e-05
3.41513e-05
3.41555e-05
3.41569e-05
2.86264e-05
6.98376e-05
2.863e-05
6.9841e-05
2.4734e-05
2.82055e-05
2.65017e-05
2.62045e-05
2.47344e-05
2.81981e-05
2.65016e-05
2.47341e-05
2.82063e-05
2.65017e-05
2.62045e-05
2.47346e-05
2.8199e-05
2.65016e-05
2.86297e-05
6.98398e-05
6.98344e-05
2.86263e-05
2.86301e-05
6.98431e-05
6.98376e-05
2.86267e-05
2.47347e-05
2.62044e-05
2.81968e-05
2.65015e-05
2.82053e-05
2.65015e-05
2.47342e-05
2.47348e-05
2.62044e-05
2.81977e-05
2.65015e-05
2.82062e-05
2.65015e-05
2.47343e-05
3.41568e-05
3.41502e-05
2.56469e-05
3.41532e-05
3.41465e-05
7.99293e-05
7.99383e-05
7.99425e-05
7.99297e-05
2.56434e-05
3.41516e-05
3.41453e-05
3.41572e-05
3.41508e-05
7.99412e-05
7.99286e-05
2.47345e-05
2.82071e-05
2.65018e-05
2.62049e-05
2.4735e-05
2.81994e-05
2.65016e-05
2.86271e-05
6.98342e-05
2.86309e-05
6.98373e-05
2.47343e-05
2.65017e-05
2.82063e-05
2.62042e-05
2.47348e-05
2.65015e-05
2.81983e-05
2.86309e-05
6.98429e-05
6.98376e-05
2.86276e-05
2.47352e-05
2.62047e-05
2.81979e-05
2.65015e-05
2.82064e-05
2.65015e-05
2.47347e-05
2.86305e-05
6.98392e-05
6.9834e-05
2.86272e-05
2.47349e-05
2.62041e-05
2.65014e-05
2.81967e-05
2.65014e-05
2.82056e-05
2.47345e-05
2.86263e-05
6.98349e-05
2.86299e-05
6.98381e-05
2.4734e-05
2.65017e-05
2.82053e-05
2.62046e-05
2.47345e-05
2.65016e-05
2.81979e-05
2.86261e-05
6.98361e-05
2.86298e-05
6.98395e-05