/*--------------------------------*- C++ -*----------------------------------*\
| =========                 |                                                 |
| \\      /  F ield         | OpenFOAM: The Open Source CFD Toolbox           |
|  \\    /   O peration     | Version:  2206                                  |
|   \\  /    A nd           | Website:  www.openfoam.com                      |
|    \\/     M anipulation  |                                                 |
\*---------------------------------------------------------------------------*/
FoamFile
{
    version     2.0;
    format      ascii;
    arch        "LSB;label=32;scalar=64";
    class       volScalarField;
    location    "8.5";
    object      k;
}
// * * * * * * * * * * * * * * * * * * * * * * * * * * * * * * * * * * * * * //

dimensions      [0 2 -2 0 0 0 0];

internalField   nonuniform List<scalar> 
28897
(
3.3411e-05
3.33846e-05
3.33841e-05
3.33391e-05
3.34082e-05
3.33833e-05
3.33814e-05
3.33373e-05
3.34002e-05
3.33734e-05
3.33731e-05
3.33277e-05
3.34e-05
3.33729e-05
3.33729e-05
3.33276e-05
3.34e-05
3.3373e-05
3.3373e-05
3.33276e-05
3.34e-05
3.3373e-05
3.3373e-05
3.33276e-05
3.34e-05
3.3373e-05
3.3373e-05
3.33276e-05
3.34e-05
3.3373e-05
3.3373e-05
3.33276e-05
3.34e-05
3.3373e-05
3.33729e-05
3.33276e-05
3.34e-05
3.3373e-05
3.33729e-05
3.33277e-05
3.34e-05
3.3373e-05
3.33729e-05
3.33276e-05
3.34e-05
3.3373e-05
3.33729e-05
3.33276e-05
3.34e-05
3.3373e-05
3.3373e-05
3.33276e-05
3.34e-05
3.3373e-05
3.3373e-05
3.33276e-05
3.34e-05
3.3373e-05
3.33729e-05
3.33277e-05
3.34e-05
3.3373e-05
3.3373e-05
3.33277e-05
3.34e-05
3.3373e-05
3.3373e-05
3.33276e-05
3.34003e-05
3.33732e-05
3.33731e-05
3.33277e-05
3.33395e-05
3.33842e-05
3.33842e-05
3.33406e-05
3.33842e-05
3.33841e-05
3.33846e-05
3.33842e-05
3.33395e-05
3.33842e-05
3.33842e-05
3.33395e-05
3.33397e-05
3.33387e-05
3.33843e-05
3.33844e-05
3.33834e-05
3.33836e-05
3.33403e-05
3.33396e-05
3.33843e-05
3.33843e-05
3.33834e-05
3.33834e-05
3.33844e-05
3.33841e-05
3.33835e-05
3.33392e-05
3.33387e-05
3.33843e-05
3.33833e-05
3.33834e-05
3.33388e-05
3.33375e-05
3.33282e-05
3.33816e-05
3.33821e-05
3.33736e-05
3.33738e-05
3.33389e-05
3.33285e-05
3.33816e-05
3.33816e-05
3.33736e-05
3.33735e-05
3.33819e-05
3.33746e-05
3.33736e-05
3.33375e-05
3.33281e-05
3.33816e-05
3.33736e-05
3.33736e-05
3.33283e-05
3.33283e-05
3.33281e-05
3.33732e-05
3.33732e-05
3.33729e-05
3.33729e-05
3.33281e-05
3.33281e-05
3.33732e-05
3.33732e-05
3.33729e-05
3.33729e-05
3.33732e-05
3.33729e-05
3.33729e-05
3.33283e-05
3.33281e-05
3.33732e-05
3.3373e-05
3.33729e-05
3.33281e-05
3.33283e-05
3.33281e-05
3.33731e-05
3.33731e-05
3.33729e-05
3.33729e-05
3.33283e-05
3.33281e-05
3.33731e-05
3.33731e-05
3.3373e-05
3.33729e-05
3.33731e-05
3.3373e-05
3.3373e-05
3.33282e-05
3.33281e-05
3.33731e-05
3.3373e-05
3.3373e-05
3.33281e-05
3.33283e-05
3.33281e-05
3.33731e-05
3.33731e-05
3.33729e-05
3.33729e-05
3.33283e-05
3.33281e-05
3.33731e-05
3.33731e-05
3.3373e-05
3.33729e-05
3.33731e-05
3.3373e-05
3.33729e-05
3.33282e-05
3.33281e-05
3.33731e-05
3.3373e-05
3.3373e-05
3.33281e-05
3.33283e-05
3.33281e-05
3.33731e-05
3.33731e-05
3.33729e-05
3.33729e-05
3.33283e-05
3.33281e-05
3.33731e-05
3.33731e-05
3.3373e-05
3.33729e-05
3.33731e-05
3.3373e-05
3.33729e-05
3.33282e-05
3.33281e-05
3.33731e-05
3.3373e-05
3.3373e-05
3.33282e-05
3.33283e-05
3.33281e-05
3.33731e-05
3.33731e-05
3.33729e-05
3.33729e-05
3.33283e-05
3.33281e-05
3.33731e-05
3.33731e-05
3.3373e-05
3.33729e-05
3.33731e-05
3.3373e-05
3.33729e-05
3.33282e-05
3.33281e-05
3.33731e-05
3.3373e-05
3.3373e-05
3.33281e-05
3.33283e-05
3.33281e-05
3.33731e-05
3.33731e-05
3.33729e-05
3.33729e-05
3.33283e-05
3.33281e-05
3.33731e-05
3.33731e-05
3.3373e-05
3.33729e-05
3.33731e-05
3.3373e-05
3.33729e-05
3.33282e-05
3.33281e-05
3.33731e-05
3.3373e-05
3.3373e-05
3.33281e-05
3.33283e-05
3.33281e-05
3.33731e-05
3.33731e-05
3.33729e-05
3.33729e-05
3.33283e-05
3.33281e-05
3.33731e-05
3.33731e-05
3.3373e-05
3.33729e-05
3.33731e-05
3.3373e-05
3.33729e-05
3.33282e-05
3.33281e-05
3.33731e-05
3.3373e-05
3.3373e-05
3.33282e-05
3.33283e-05
3.33281e-05
3.33731e-05
3.33731e-05
3.33729e-05
3.33729e-05
3.33283e-05
3.33281e-05
3.33731e-05
3.33731e-05
3.3373e-05
3.33729e-05
3.33731e-05
3.3373e-05
3.33729e-05
3.33282e-05
3.33281e-05
3.33731e-05
3.3373e-05
3.3373e-05
3.33282e-05
3.33283e-05
3.33281e-05
3.33731e-05
3.33731e-05
3.33729e-05
3.33729e-05
3.33283e-05
3.33281e-05
3.33731e-05
3.33731e-05
3.3373e-05
3.33729e-05
3.33731e-05
3.3373e-05
3.33729e-05
3.33282e-05
3.33281e-05
3.33731e-05
3.3373e-05
3.3373e-05
3.33282e-05
3.33283e-05
3.33281e-05
3.33731e-05
3.33731e-05
3.33729e-05
3.33729e-05
3.33283e-05
3.33281e-05
3.33731e-05
3.33731e-05
3.3373e-05
3.33729e-05
3.33731e-05
3.3373e-05
3.33729e-05
3.33282e-05
3.33281e-05
3.33731e-05
3.3373e-05
3.3373e-05
3.33281e-05
3.33283e-05
3.33281e-05
3.33731e-05
3.33731e-05
3.33729e-05
3.33729e-05
3.33283e-05
3.33281e-05
3.33731e-05
3.33731e-05
3.3373e-05
3.33729e-05
3.33731e-05
3.3373e-05
3.33729e-05
3.33282e-05
3.33281e-05
3.33731e-05
3.3373e-05
3.3373e-05
3.33281e-05
3.33283e-05
3.33281e-05
3.33731e-05
3.33731e-05
3.33729e-05
3.33729e-05
3.33283e-05
3.33281e-05
3.33731e-05
3.33731e-05
3.3373e-05
3.33729e-05
3.33731e-05
3.3373e-05
3.33729e-05
3.33282e-05
3.33281e-05
3.33731e-05
3.3373e-05
3.3373e-05
3.33282e-05
3.33283e-05
3.33281e-05
3.33731e-05
3.33731e-05
3.33729e-05
3.33729e-05
3.33283e-05
3.33281e-05
3.33731e-05
3.33731e-05
3.3373e-05
3.33729e-05
3.33731e-05
3.3373e-05
3.33729e-05
3.33282e-05
3.33281e-05
3.33731e-05
3.3373e-05
3.3373e-05
3.33282e-05
3.33283e-05
3.33281e-05
3.33731e-05
3.33731e-05
3.33729e-05
3.33729e-05
3.33283e-05
3.33281e-05
3.33731e-05
3.33731e-05
3.3373e-05
3.33729e-05
3.33731e-05
3.3373e-05
3.33729e-05
3.33282e-05
3.33281e-05
3.33731e-05
3.3373e-05
3.3373e-05
3.33281e-05
3.33283e-05
3.33281e-05
3.33731e-05
3.33731e-05
3.33729e-05
3.33729e-05
3.33283e-05
3.33281e-05
3.33731e-05
3.33731e-05
3.3373e-05
3.33729e-05
3.33731e-05
3.3373e-05
3.33729e-05
3.33282e-05
3.33281e-05
3.33731e-05
3.3373e-05
3.3373e-05
3.33281e-05
3.3328e-05
3.33732e-05
3.33731e-05
3.3328e-05
3.33732e-05
3.33731e-05
3.33732e-05
3.3328e-05
3.33732e-05
3.3411e-05
3.34111e-05
3.3411e-05
3.3411e-05
3.3887e-05
5.63526e-05
3.38871e-05
5.63502e-05
7.95818e-05
7.95741e-05
3.38874e-05
5.63557e-05
3.38873e-05
5.63532e-05
3.34112e-05
3.34111e-05
3.34111e-05
3.34101e-05
3.34103e-05
3.34102e-05
3.34102e-05
3.3136e-05
3.37179e-05
3.34044e-05
3.33846e-05
3.31357e-05
3.37177e-05
3.34043e-05
7.95803e-05
7.95741e-05
3.31359e-05
3.34043e-05
3.37176e-05
3.33841e-05
3.31356e-05
3.34042e-05
3.37174e-05
3.45799e-05
3.4581e-05
3.33397e-05
3.45819e-05
3.45828e-05
3.38813e-05
5.63575e-05
3.38871e-05
5.6386e-05
7.95721e-05
7.96011e-05
3.38813e-05
5.63604e-05
3.38873e-05
5.63888e-05
3.34088e-05
3.34084e-05
3.34084e-05
3.34008e-05
3.3401e-05
3.34008e-05
3.34008e-05
3.31297e-05
3.37186e-05
3.34022e-05
3.33808e-05
3.31351e-05
3.3715e-05
3.33989e-05
7.9587e-05
7.96347e-05
3.31268e-05
3.34016e-05
3.37173e-05
3.33778e-05
3.31346e-05
3.33982e-05
3.37111e-05
3.45838e-05
3.45836e-05
3.33317e-05
3.45811e-05
3.45768e-05
3.38757e-05
5.63964e-05
3.38762e-05
5.63939e-05
7.96442e-05
7.96421e-05
3.38762e-05
5.63992e-05
3.38766e-05
5.63968e-05
3.34004e-05
3.34003e-05
3.34003e-05
3.34e-05
3.34e-05
3.34e-05
3.34e-05
3.31229e-05
3.37075e-05
3.33935e-05
3.33732e-05
3.31227e-05
3.3706e-05
3.33935e-05
7.96459e-05
7.96427e-05
3.31229e-05
3.33934e-05
3.37069e-05
3.33731e-05
3.31227e-05
3.33935e-05
3.37061e-05
3.45693e-05
3.45692e-05
3.33282e-05
3.45687e-05
3.45687e-05
3.38758e-05
5.63955e-05
3.38763e-05
5.63935e-05
7.96442e-05
7.9642e-05
3.38763e-05
5.63984e-05
3.38767e-05
5.63964e-05
3.34002e-05
3.34002e-05
3.34002e-05
3.34e-05
3.34001e-05
3.34001e-05
3.34e-05
3.31229e-05
3.37068e-05
3.33933e-05
3.33731e-05
3.31227e-05
3.37059e-05
3.33935e-05
7.9645e-05
7.96424e-05
3.31229e-05
3.33933e-05
3.37068e-05
3.33731e-05
3.31228e-05
3.33935e-05
3.37061e-05
3.45691e-05
3.45692e-05
3.33282e-05
3.45687e-05
3.45688e-05
3.38758e-05
5.63954e-05
3.38764e-05
5.63935e-05
7.96442e-05
7.9642e-05
3.38763e-05
5.63984e-05
3.38767e-05
5.63964e-05
3.34002e-05
3.34002e-05
3.34002e-05
3.34e-05
3.34001e-05
3.34001e-05
3.34e-05
3.31229e-05
3.37068e-05
3.33933e-05
3.33731e-05
3.31227e-05
3.37059e-05
3.33935e-05
7.9645e-05
7.96424e-05
3.31229e-05
3.33933e-05
3.37068e-05
3.33731e-05
3.31228e-05
3.33935e-05
3.37061e-05
3.45691e-05
3.45692e-05
3.33282e-05
3.45687e-05
3.45688e-05
3.38758e-05
5.63955e-05
3.38764e-05
5.63935e-05
7.96442e-05
7.9642e-05
3.38763e-05
5.63984e-05
3.38767e-05
5.63964e-05
3.34002e-05
3.34002e-05
3.34002e-05
3.34e-05
3.34001e-05
3.34001e-05
3.34e-05
3.31229e-05
3.37068e-05
3.33933e-05
3.33731e-05
3.31227e-05
3.37059e-05
3.33935e-05
7.9645e-05
7.96424e-05
3.31229e-05
3.33933e-05
3.37068e-05
3.33731e-05
3.31228e-05
3.33934e-05
3.37061e-05
3.45691e-05
3.45692e-05
3.33282e-05
3.45687e-05
3.45688e-05
3.38758e-05
5.63955e-05
3.38764e-05
5.63935e-05
7.96442e-05
7.9642e-05
3.38763e-05
5.63984e-05
3.38767e-05
5.63964e-05
3.34002e-05
3.34002e-05
3.34002e-05
3.34e-05
3.34001e-05
3.34001e-05
3.34e-05
3.31229e-05
3.37068e-05
3.33933e-05
3.33731e-05
3.31227e-05
3.37059e-05
3.33935e-05
7.9645e-05
7.96424e-05
3.31229e-05
3.33933e-05
3.37068e-05
3.33731e-05
3.31228e-05
3.33934e-05
3.37061e-05
3.45691e-05
3.45692e-05
3.33282e-05
3.45687e-05
3.45688e-05
3.38758e-05
5.63955e-05
3.38764e-05
5.63935e-05
7.96442e-05
7.9642e-05
3.38763e-05
5.63984e-05
3.38767e-05
5.63964e-05
3.34002e-05
3.34002e-05
3.34002e-05
3.34e-05
3.34001e-05
3.34001e-05
3.34e-05
3.31229e-05
3.37068e-05
3.33933e-05
3.33731e-05
3.31227e-05
3.37059e-05
3.33935e-05
7.9645e-05
7.96424e-05
3.31229e-05
3.33933e-05
3.37068e-05
3.33731e-05
3.31228e-05
3.33934e-05
3.37061e-05
3.45691e-05
3.45692e-05
3.33282e-05
3.45687e-05
3.45688e-05
3.38758e-05
5.63954e-05
3.38764e-05
5.63935e-05
7.96442e-05
7.9642e-05
3.38763e-05
5.63984e-05
3.38767e-05
5.63964e-05
3.34002e-05
3.34002e-05
3.34002e-05
3.34e-05
3.34001e-05
3.34001e-05
3.34e-05
3.31229e-05
3.37068e-05
3.33933e-05
3.33731e-05
3.31227e-05
3.37059e-05
3.33935e-05
7.9645e-05
7.96424e-05
3.31229e-05
3.33933e-05
3.37068e-05
3.33731e-05
3.31228e-05
3.33934e-05
3.37061e-05
3.45691e-05
3.45692e-05
3.33282e-05
3.45687e-05
3.45688e-05
3.38758e-05
5.63954e-05
3.38764e-05
5.63935e-05
7.96441e-05
7.96421e-05
3.38763e-05
5.63984e-05
3.38767e-05
5.63964e-05
3.34002e-05
3.34002e-05
3.34002e-05
3.34e-05
3.34001e-05
3.34001e-05
3.34e-05
3.31229e-05
3.37068e-05
3.33933e-05
3.33731e-05
3.31227e-05
3.37059e-05
3.33935e-05
7.9645e-05
7.96424e-05
3.31229e-05
3.33933e-05
3.37069e-05
3.33731e-05
3.31228e-05
3.33934e-05
3.37061e-05
3.45691e-05
3.45692e-05
3.33282e-05
3.45687e-05
3.45688e-05
3.38758e-05
5.63956e-05
3.38763e-05
5.63939e-05
7.96448e-05
7.96427e-05
3.38763e-05
5.6398e-05
3.38767e-05
5.63957e-05
3.34002e-05
3.34002e-05
3.34002e-05
3.34e-05
3.34001e-05
3.34001e-05
3.34e-05
3.31229e-05
3.37068e-05
3.33933e-05
3.33731e-05
3.31227e-05
3.37059e-05
3.33935e-05
7.9645e-05
7.96424e-05
3.31229e-05
3.33933e-05
3.37069e-05
3.33731e-05
3.31228e-05
3.33935e-05
3.37061e-05
3.45691e-05
3.45692e-05
3.33282e-05
3.45687e-05
3.45688e-05
3.38758e-05
5.63958e-05
3.38763e-05
5.63939e-05
7.96448e-05
7.9643e-05
3.38763e-05
5.63977e-05
3.38767e-05
5.63959e-05
3.34002e-05
3.34002e-05
3.34002e-05
3.34e-05
3.34001e-05
3.34001e-05
3.34e-05
3.31229e-05
3.37068e-05
3.33933e-05
3.33731e-05
3.31227e-05
3.37059e-05
3.33935e-05
7.9645e-05
7.96424e-05
3.31229e-05
3.33933e-05
3.37069e-05
3.33731e-05
3.31228e-05
3.33934e-05
3.37061e-05
3.45691e-05
3.45692e-05
3.33282e-05
3.45687e-05
3.45688e-05
3.38758e-05
5.63957e-05
3.38764e-05
5.63939e-05
7.96447e-05
7.96426e-05
3.38763e-05
5.6398e-05
3.38767e-05
5.63962e-05
3.34002e-05
3.34002e-05
3.34002e-05
3.34e-05
3.34001e-05
3.34001e-05
3.34e-05
3.31229e-05
3.37068e-05
3.33933e-05
3.33731e-05
3.31227e-05
3.37059e-05
3.33935e-05
7.9645e-05
7.96424e-05
3.3123e-05
3.33933e-05
3.37069e-05
3.33731e-05
3.31228e-05
3.33934e-05
3.37061e-05
3.45691e-05
3.45692e-05
3.33282e-05
3.45687e-05
3.45688e-05
3.38758e-05
5.63957e-05
3.38763e-05
5.63939e-05
7.9645e-05
7.96427e-05
3.38763e-05
5.63981e-05
3.38767e-05
5.63961e-05
3.34002e-05
3.34002e-05
3.34002e-05
3.34e-05
3.34001e-05
3.34001e-05
3.34e-05
3.31229e-05
3.37068e-05
3.33933e-05
3.33731e-05
3.31227e-05
3.37059e-05
3.33935e-05
7.9645e-05
7.96424e-05
3.3123e-05
3.33933e-05
3.37069e-05
3.33731e-05
3.31228e-05
3.33935e-05
3.37061e-05
3.45691e-05
3.45692e-05
3.33282e-05
3.45687e-05
3.45688e-05
3.38758e-05
5.63957e-05
3.38764e-05
5.63939e-05
7.96451e-05
7.96429e-05
3.38763e-05
5.63981e-05
3.38767e-05
5.63961e-05
3.34002e-05
3.34002e-05
3.34002e-05
3.34e-05
3.34001e-05
3.34001e-05
3.34e-05
3.31229e-05
3.37068e-05
3.33933e-05
3.33731e-05
3.31227e-05
3.37059e-05
3.33935e-05
7.9645e-05
7.96424e-05
3.31229e-05
3.33933e-05
3.37069e-05
3.33731e-05
3.31228e-05
3.33934e-05
3.37061e-05
3.45691e-05
3.45692e-05
3.33282e-05
3.45687e-05
3.45688e-05
3.38758e-05
5.63957e-05
3.38764e-05
5.63939e-05
7.96451e-05
7.96429e-05
3.38763e-05
5.63981e-05
3.38767e-05
5.63961e-05
3.34002e-05
3.34002e-05
3.34002e-05
3.34e-05
3.34001e-05
3.34001e-05
3.34e-05
3.31229e-05
3.37068e-05
3.33933e-05
3.33731e-05
3.31227e-05
3.37059e-05
3.33935e-05
7.9645e-05
7.96424e-05
3.31229e-05
3.33933e-05
3.37069e-05
3.33731e-05
3.31228e-05
3.33935e-05
3.37061e-05
3.45691e-05
3.45692e-05
3.33282e-05
3.45687e-05
3.45688e-05
3.38758e-05
5.63957e-05
3.38764e-05
5.63939e-05
7.96451e-05
7.96428e-05
3.38763e-05
5.63981e-05
3.38767e-05
5.63961e-05
3.34002e-05
3.34002e-05
3.34002e-05
3.34001e-05
3.34001e-05
3.34001e-05
3.34001e-05
3.31229e-05
3.37068e-05
3.33933e-05
3.33731e-05
3.31227e-05
3.37059e-05
3.33935e-05
7.9645e-05
7.96423e-05
3.31229e-05
3.33933e-05
3.37069e-05
3.33731e-05
3.31228e-05
3.33934e-05
3.37061e-05
3.45691e-05
3.45692e-05
3.33282e-05
3.45687e-05
3.45688e-05
5.63957e-05
3.38763e-05
7.96451e-05
5.63981e-05
3.38767e-05
3.34003e-05
3.34003e-05
3.34003e-05
3.37068e-05
3.33935e-05
3.31227e-05
7.96449e-05
3.33935e-05
3.37069e-05
3.31228e-05
3.45691e-05
3.45692e-05
7.9577e-05
7.9587e-05
7.95826e-05
7.95904e-05
3.33397e-05
3.45776e-05
3.45794e-05
3.45751e-05
3.45767e-05
3.38863e-05
5.63512e-05
5.63519e-05
3.38863e-05
3.38863e-05
5.63528e-05
5.6354e-05
3.38862e-05
3.3136e-05
3.33842e-05
3.37164e-05
3.34044e-05
3.37171e-05
3.34044e-05
3.31358e-05
3.3136e-05
3.33842e-05
3.37169e-05
3.34044e-05
3.37176e-05
3.34044e-05
3.31359e-05
7.95829e-05
3.45779e-05
3.4575e-05
7.95784e-05
3.38867e-05
5.63542e-05
5.63549e-05
3.38867e-05
3.31361e-05
3.33842e-05
3.37168e-05
3.34044e-05
3.37174e-05
3.34044e-05
3.31359e-05
3.38863e-05
5.63538e-05
5.63553e-05
3.38863e-05
3.3136e-05
3.33842e-05
3.34044e-05
3.37166e-05
3.34044e-05
3.37173e-05
3.31359e-05
3.37169e-05
3.34044e-05
3.34044e-05
3.31357e-05
5.63514e-05
3.38862e-05
3.33842e-05
3.34044e-05
3.37165e-05
3.34044e-05
3.31359e-05
5.63521e-05
3.38861e-05
7.95797e-05
7.95898e-05
3.33396e-05
3.4578e-05
3.45793e-05
3.45754e-05
3.45766e-05
7.95813e-05
7.95896e-05
3.3136e-05
3.33842e-05
3.34044e-05
3.37167e-05
3.34044e-05
3.37173e-05
3.31356e-05
3.31361e-05
3.33842e-05
3.34044e-05
3.37168e-05
3.34044e-05
3.37175e-05
3.31359e-05
3.38863e-05
5.63537e-05
5.63551e-05
3.38863e-05
3.38864e-05
5.63542e-05
5.63556e-05
3.38864e-05
3.33396e-05
3.45781e-05
3.45795e-05
3.45768e-05
7.9582e-05
7.95826e-05
7.9591e-05
7.9577e-05
7.95713e-05
7.95821e-05
7.95766e-05
3.458e-05
3.4581e-05
3.33398e-05
3.45811e-05
3.45827e-05
7.95728e-05
7.95713e-05
7.9578e-05
7.95764e-05
3.33394e-05
3.45819e-05
3.45833e-05
3.45827e-05
3.45837e-05
3.38871e-05
5.63528e-05
3.38874e-05
5.63523e-05
3.3136e-05
3.3718e-05
3.34045e-05
3.33842e-05
3.31363e-05
3.37173e-05
3.34044e-05
3.3136e-05
3.37184e-05
3.34045e-05
3.33843e-05
3.31364e-05
3.37177e-05
3.34044e-05
3.38881e-05
5.6352e-05
5.63502e-05
3.38868e-05
3.38881e-05
5.63529e-05
5.63523e-05
3.38868e-05
3.31359e-05
3.3384e-05
3.37169e-05
3.34036e-05
3.37187e-05
3.34041e-05
3.31352e-05
3.31359e-05
3.33841e-05
3.37175e-05
3.34036e-05
3.37191e-05
3.34041e-05
3.31352e-05
3.458e-05
3.45778e-05
3.33403e-05
3.45819e-05
3.45793e-05
7.9578e-05
7.95709e-05
7.95707e-05
7.95734e-05
3.334e-05
3.45839e-05
3.4582e-05
3.45833e-05
3.45815e-05
7.95689e-05
7.95709e-05
3.31361e-05
3.37183e-05
3.34045e-05
3.33842e-05
3.31364e-05
3.37176e-05
3.34044e-05
3.38872e-05
5.63538e-05
3.38874e-05
5.63536e-05
3.3136e-05
3.34045e-05
3.37182e-05
3.33842e-05
3.31364e-05
3.34043e-05
3.37174e-05
3.38883e-05
5.63549e-05
5.63532e-05
3.38872e-05
3.31361e-05
3.3384e-05
3.37172e-05
3.34036e-05
3.3719e-05
3.34041e-05
3.31354e-05
3.38881e-05
5.63547e-05
5.63536e-05
3.38869e-05
3.3136e-05
3.33839e-05
3.34035e-05
3.3717e-05
3.34041e-05
3.37189e-05
3.31352e-05
3.38872e-05
5.63517e-05
3.38874e-05
5.63506e-05
3.31361e-05
3.34045e-05
3.3718e-05
3.33843e-05
3.31364e-05
3.34044e-05
3.37175e-05
3.38871e-05
5.63521e-05
3.38873e-05
5.63519e-05
3.3136e-05
3.33844e-05
3.37179e-05
3.34036e-05
3.37192e-05
3.34041e-05
3.31354e-05
3.38883e-05
5.6351e-05
5.63507e-05
3.38873e-05
3.31361e-05
3.3384e-05
3.34036e-05
3.37175e-05
3.34042e-05
3.37188e-05
3.31355e-05
3.38882e-05
5.63528e-05
5.63519e-05
3.38872e-05
3.45801e-05
3.45809e-05
3.33395e-05
3.45813e-05
3.45826e-05
7.95807e-05
7.95756e-05
7.95762e-05
7.95741e-05
3.33392e-05
3.4582e-05
3.45832e-05
3.45827e-05
3.45837e-05
7.9577e-05
7.95752e-05
3.31361e-05
3.34045e-05
3.37183e-05
3.33842e-05
3.31363e-05
3.34044e-05
3.37176e-05
3.38872e-05
5.63537e-05
3.38874e-05
5.63533e-05
3.38873e-05
5.63542e-05
3.38875e-05
5.63538e-05
3.31363e-05
3.33838e-05
3.34034e-05
3.3717e-05
3.3404e-05
3.37188e-05
3.31353e-05
3.3136e-05
3.3384e-05
3.34036e-05
3.37172e-05
3.34041e-05
3.37189e-05
3.31354e-05
3.38881e-05
5.63545e-05
5.63533e-05
3.3887e-05
3.38882e-05
5.6355e-05
5.63538e-05
3.3887e-05
7.95811e-05
7.95758e-05
7.9582e-05
7.95769e-05
3.33395e-05
3.45834e-05
3.45834e-05
3.45833e-05
3.45839e-05
7.95744e-05
7.95753e-05
7.95781e-05
7.95765e-05
7.95814e-05
7.9631e-05
7.95854e-05
7.96367e-05
3.45826e-05
3.45837e-05
3.33314e-05
3.45765e-05
3.45768e-05
7.96406e-05
7.96401e-05
7.96454e-05
7.96444e-05
3.33291e-05
3.4567e-05
3.45688e-05
3.45751e-05
3.45744e-05
3.38812e-05
5.63545e-05
3.38874e-05
5.63824e-05
3.31267e-05
3.37177e-05
3.34018e-05
3.33778e-05
3.31346e-05
3.37112e-05
3.33982e-05
3.31267e-05
3.37184e-05
3.34018e-05
3.33786e-05
3.31346e-05
3.37132e-05
3.33983e-05
3.38803e-05
5.6395e-05
5.6394e-05
3.38757e-05
3.38802e-05
5.63965e-05
5.63927e-05
3.38757e-05
3.31247e-05
3.33751e-05
3.37061e-05
3.3394e-05
3.37107e-05
3.33955e-05
3.31229e-05
3.31247e-05
3.33755e-05
3.37069e-05
3.3394e-05
3.37126e-05
3.33955e-05
3.3123e-05
3.45845e-05
3.4583e-05
3.33357e-05
3.45822e-05
3.4581e-05
7.95696e-05
7.95948e-05
7.96429e-05
7.96229e-05
3.33323e-05
3.45697e-05
3.45694e-05
3.45809e-05
3.45809e-05
7.96395e-05
7.96194e-05
3.31267e-05
3.37179e-05
3.34018e-05
3.33779e-05
3.31347e-05
3.37113e-05
3.33982e-05
3.38811e-05
5.63583e-05
3.38873e-05
5.63884e-05
3.31266e-05
3.34017e-05
3.37179e-05
3.33778e-05
3.31346e-05
3.33982e-05
3.37114e-05
3.38801e-05
5.63979e-05
5.63969e-05
3.38762e-05
3.31247e-05
3.33751e-05
3.37065e-05
3.3394e-05
3.37106e-05
3.33955e-05
3.31231e-05
3.38798e-05
5.63976e-05
5.63966e-05
3.38759e-05
3.31246e-05
3.3375e-05
3.3394e-05
3.37062e-05
3.33955e-05
3.37109e-05
3.3123e-05
3.38838e-05
5.63511e-05
3.3888e-05
5.6362e-05
3.31296e-05
3.34021e-05
3.37184e-05
3.33782e-05
3.31352e-05
3.33986e-05
3.37137e-05
3.38838e-05
5.63533e-05
3.38879e-05
5.63774e-05
3.31268e-05
3.33771e-05
3.37072e-05
3.33942e-05
3.37148e-05
3.33959e-05
3.31228e-05
3.38829e-05
5.6395e-05
5.63788e-05
3.38759e-05
3.31267e-05
3.33753e-05
3.33941e-05
3.37065e-05
3.33957e-05
3.3713e-05
3.3123e-05
3.38828e-05
5.6397e-05
5.63904e-05
3.38758e-05
3.45826e-05
3.45836e-05
3.33314e-05
3.45765e-05
3.45765e-05
7.95842e-05
7.96355e-05
7.96444e-05
7.96438e-05
3.3329e-05
3.45672e-05
3.45686e-05
3.45748e-05
3.45742e-05
7.96442e-05
7.96433e-05
3.31267e-05
3.34017e-05
3.37178e-05
3.33779e-05
3.31347e-05
3.33982e-05
3.37113e-05
3.38812e-05
5.63578e-05
3.38873e-05
5.63886e-05
3.38812e-05
5.63581e-05
3.38874e-05
5.63885e-05
3.31248e-05
3.3375e-05
3.3394e-05
3.37063e-05
3.33954e-05
3.37104e-05
3.31227e-05
3.31247e-05
3.33751e-05
3.3394e-05
3.37065e-05
3.33955e-05
3.37106e-05
3.3123e-05
3.38799e-05
5.63973e-05
5.63963e-05
3.38759e-05
3.38798e-05
5.63979e-05
5.63965e-05
3.38759e-05
7.9576e-05
7.96209e-05
7.95848e-05
7.96364e-05
3.33292e-05
3.45693e-05
3.45689e-05
3.4579e-05
3.45746e-05
7.96446e-05
7.96368e-05
7.96455e-05
7.96445e-05
7.96406e-05
7.96398e-05
7.96452e-05
7.96448e-05
3.45676e-05
3.45694e-05
3.33282e-05
3.45663e-05
3.45687e-05
7.964e-05
7.96399e-05
7.96448e-05
7.9644e-05
3.33284e-05
3.45667e-05
3.45687e-05
3.45673e-05
3.45694e-05
3.38757e-05
5.63965e-05
3.38766e-05
5.63958e-05
3.3123e-05
3.37073e-05
3.33936e-05
3.33731e-05
3.31233e-05
3.37058e-05
3.33934e-05
3.3123e-05
3.37079e-05
3.33936e-05
3.33731e-05
3.31234e-05
3.37064e-05
3.33934e-05
3.38767e-05
5.6394e-05
5.63939e-05
3.38758e-05
3.38767e-05
5.63956e-05
5.63958e-05
3.38758e-05
3.31233e-05
3.33729e-05
3.37058e-05
3.33933e-05
3.37072e-05
3.33933e-05
3.3123e-05
3.31233e-05
3.33729e-05
3.37064e-05
3.33933e-05
3.37077e-05
3.33933e-05
3.3123e-05
3.45694e-05
3.45693e-05
3.33282e-05
3.45683e-05
3.45663e-05
7.96408e-05
7.96394e-05
7.96432e-05
7.96421e-05
3.33283e-05
3.45685e-05
3.45663e-05
3.4569e-05
3.45671e-05
7.96394e-05
7.96395e-05
3.31231e-05
3.37077e-05
3.33936e-05
3.33731e-05
3.31235e-05
3.37063e-05
3.33935e-05
3.38758e-05
5.63976e-05
3.38767e-05
5.6397e-05
3.3123e-05
3.33936e-05
3.37075e-05
3.3373e-05
3.31234e-05
3.33934e-05
3.3706e-05
3.38771e-05
5.63969e-05
5.63968e-05
3.38763e-05
3.31235e-05
3.33729e-05
3.37062e-05
3.33933e-05
3.37075e-05
3.33933e-05
3.31232e-05
3.38767e-05
5.63967e-05
5.63969e-05
3.38759e-05
3.31233e-05
3.33729e-05
3.33933e-05
3.3706e-05
3.33933e-05
3.37074e-05
3.3123e-05
3.38757e-05
5.6396e-05
3.38766e-05
5.63954e-05
3.3123e-05
3.33936e-05
3.37075e-05
3.33731e-05
3.31232e-05
3.33935e-05
3.37061e-05
3.38756e-05
5.63969e-05
3.38765e-05
5.63966e-05
3.31233e-05
3.3373e-05
3.37059e-05
3.33933e-05
3.37073e-05
3.33934e-05
3.31228e-05
3.38767e-05
5.6395e-05
5.63954e-05
3.38757e-05
3.31233e-05
3.33729e-05
3.33933e-05
3.3706e-05
3.33933e-05
3.37073e-05
3.3123e-05
3.38766e-05
5.63963e-05
5.63966e-05
3.38756e-05
3.45677e-05
3.45692e-05
3.33282e-05
3.4567e-05
3.45685e-05
7.96442e-05
7.9644e-05
7.96431e-05
7.96427e-05
3.33283e-05
3.45672e-05
3.45686e-05
3.45679e-05
3.45692e-05
7.96434e-05
7.96439e-05
3.31231e-05
3.33936e-05
3.37076e-05
3.33731e-05
3.31234e-05
3.33935e-05
3.37062e-05
3.38759e-05
5.63973e-05
3.38767e-05
5.63969e-05
3.3876e-05
5.63979e-05
3.38767e-05
5.63974e-05
3.31233e-05
3.33731e-05
3.33933e-05
3.37061e-05
3.33934e-05
3.37074e-05
3.31228e-05
3.31234e-05
3.33729e-05
3.33933e-05
3.37062e-05
3.33933e-05
3.37075e-05
3.31231e-05
3.38767e-05
5.63966e-05
5.63969e-05
3.38759e-05
3.38768e-05
5.63972e-05
5.63974e-05
3.3876e-05
7.96446e-05
7.96443e-05
7.96455e-05
7.96453e-05
3.33283e-05
3.45688e-05
3.45688e-05
3.45694e-05
3.45694e-05
7.96436e-05
7.96443e-05
7.96447e-05
7.96454e-05
7.96402e-05
7.96398e-05
7.96443e-05
7.96446e-05
3.45676e-05
3.45694e-05
3.33282e-05
3.45666e-05
3.45687e-05
7.964e-05
7.96399e-05
7.96447e-05
7.96438e-05
3.33284e-05
3.45667e-05
3.45687e-05
3.45674e-05
3.45693e-05
3.38758e-05
5.63957e-05
3.38767e-05
5.63956e-05
3.3123e-05
3.37071e-05
3.33935e-05
3.33731e-05
3.31233e-05
3.37058e-05
3.33935e-05
3.3123e-05
3.37076e-05
3.33935e-05
3.33731e-05
3.31233e-05
3.37064e-05
3.33935e-05
3.38768e-05
5.63939e-05
5.63935e-05
3.38758e-05
3.38767e-05
5.63956e-05
5.63956e-05
3.38758e-05
3.31233e-05
3.3373e-05
3.37058e-05
3.33933e-05
3.37072e-05
3.33934e-05
3.3123e-05
3.31233e-05
3.3373e-05
3.37064e-05
3.33933e-05
3.37077e-05
3.33933e-05
3.3123e-05
3.45692e-05
3.45671e-05
3.33282e-05
3.45685e-05
3.45662e-05
7.96396e-05
7.96392e-05
7.96431e-05
7.9642e-05
3.33283e-05
3.45686e-05
3.45665e-05
3.45692e-05
3.45671e-05
7.96395e-05
7.96393e-05
3.31232e-05
3.37075e-05
3.33935e-05
3.33731e-05
3.31235e-05
3.37062e-05
3.33935e-05
3.38759e-05
5.63967e-05
3.38767e-05
5.63967e-05
3.3123e-05
3.33935e-05
3.37074e-05
3.3373e-05
3.31233e-05
3.33935e-05
3.3706e-05
3.38771e-05
5.63968e-05
5.63964e-05
3.38763e-05
3.31235e-05
3.3373e-05
3.37062e-05
3.33933e-05
3.37075e-05
3.33934e-05
3.31232e-05
3.38767e-05
5.63967e-05
5.63967e-05
3.38758e-05
3.31233e-05
3.3373e-05
3.33933e-05
3.3706e-05
3.33933e-05
3.37074e-05
3.3123e-05
3.38758e-05
5.6395e-05
3.38767e-05
5.63949e-05
3.3123e-05
3.33935e-05
3.37072e-05
3.33731e-05
3.31233e-05
3.33935e-05
3.3706e-05
3.38757e-05
5.63964e-05
3.38766e-05
5.63963e-05
3.31232e-05
3.33731e-05
3.37059e-05
3.33933e-05
3.37073e-05
3.33934e-05
3.31228e-05
3.38767e-05
5.63949e-05
5.6395e-05
3.38757e-05
3.31233e-05
3.3373e-05
3.33933e-05
3.3706e-05
3.33933e-05
3.37073e-05
3.3123e-05
3.38766e-05
5.63963e-05
5.63963e-05
3.38756e-05
3.45679e-05
3.45692e-05
3.33282e-05
3.4567e-05
3.45685e-05
7.96434e-05
7.96436e-05
7.96431e-05
7.96425e-05
3.33283e-05
3.45671e-05
3.45686e-05
3.45678e-05
3.45692e-05
7.96432e-05
7.96435e-05
3.31231e-05
3.33935e-05
3.37075e-05
3.33731e-05
3.31234e-05
3.33935e-05
3.37062e-05
3.38759e-05
5.63966e-05
3.38767e-05
5.63966e-05
3.3876e-05
5.63972e-05
3.38768e-05
5.63971e-05
3.31233e-05
3.33731e-05
3.33933e-05
3.37061e-05
3.33934e-05
3.37074e-05
3.31228e-05
3.31234e-05
3.3373e-05
3.33933e-05
3.37062e-05
3.33933e-05
3.37075e-05
3.31231e-05
3.38767e-05
5.63966e-05
5.63966e-05
3.38759e-05
3.38768e-05
5.63971e-05
5.63971e-05
3.3876e-05
7.96436e-05
7.96439e-05
7.96447e-05
7.9645e-05
3.33283e-05
3.45688e-05
3.45688e-05
3.45694e-05
3.45695e-05
7.96435e-05
7.96439e-05
7.96446e-05
7.9645e-05
7.96401e-05
7.96398e-05
7.96442e-05
7.96445e-05
3.45676e-05
3.45694e-05
3.33282e-05
3.45665e-05
3.45686e-05
7.96401e-05
7.96399e-05
7.96447e-05
7.96437e-05
3.33284e-05
3.45667e-05
3.45687e-05
3.45675e-05
3.45693e-05
3.38758e-05
5.63956e-05
3.38767e-05
5.63956e-05
3.3123e-05
3.37071e-05
3.33935e-05
3.33731e-05
3.31233e-05
3.37058e-05
3.33934e-05
3.3123e-05
3.37076e-05
3.33934e-05
3.33731e-05
3.31233e-05
3.37064e-05
3.33934e-05
3.38768e-05
5.63939e-05
5.63935e-05
3.38758e-05
3.38767e-05
5.63956e-05
5.63956e-05
3.38757e-05
3.31233e-05
3.3373e-05
3.37058e-05
3.33933e-05
3.37072e-05
3.33934e-05
3.3123e-05
3.31233e-05
3.3373e-05
3.37064e-05
3.33933e-05
3.37077e-05
3.33934e-05
3.3123e-05
3.45692e-05
3.45673e-05
3.33282e-05
3.45685e-05
3.45661e-05
7.96396e-05
7.96392e-05
7.96432e-05
7.9642e-05
3.33283e-05
3.45686e-05
3.45665e-05
3.45692e-05
3.45671e-05
7.96395e-05
7.96393e-05
3.31232e-05
3.37075e-05
3.33935e-05
3.33731e-05
3.31235e-05
3.37062e-05
3.33935e-05
3.38759e-05
5.63967e-05
3.38767e-05
5.63967e-05
3.3123e-05
3.33934e-05
3.37074e-05
3.3373e-05
3.31233e-05
3.33934e-05
3.3706e-05
3.38771e-05
5.63968e-05
5.63964e-05
3.38763e-05
3.31235e-05
3.3373e-05
3.37062e-05
3.33933e-05
3.37075e-05
3.33934e-05
3.31232e-05
3.38767e-05
5.63967e-05
5.63968e-05
3.38758e-05
3.31233e-05
3.3373e-05
3.33933e-05
3.3706e-05
3.33933e-05
3.37074e-05
3.3123e-05
3.38758e-05
5.63949e-05
3.38767e-05
5.6395e-05
3.3123e-05
3.33935e-05
3.37072e-05
3.33731e-05
3.31233e-05
3.33934e-05
3.3706e-05
3.38757e-05
5.63963e-05
3.38766e-05
5.63963e-05
3.31232e-05
3.33731e-05
3.37059e-05
3.33933e-05
3.37073e-05
3.33934e-05
3.31228e-05
3.38767e-05
5.63949e-05
5.6395e-05
3.38757e-05
3.31233e-05
3.3373e-05
3.33933e-05
3.3706e-05
3.33934e-05
3.37073e-05
3.3123e-05
3.38766e-05
5.63963e-05
5.63963e-05
3.38756e-05
3.45679e-05
3.45692e-05
3.33282e-05
3.4567e-05
3.45685e-05
7.96432e-05
7.96435e-05
7.96431e-05
7.96425e-05
3.33283e-05
3.45671e-05
3.45686e-05
3.45678e-05
3.45692e-05
7.96432e-05
7.96434e-05
3.31231e-05
3.33935e-05
3.37075e-05
3.33731e-05
3.31234e-05
3.33934e-05
3.37062e-05
3.38759e-05
5.63967e-05
3.38767e-05
5.63967e-05
3.3876e-05
5.63972e-05
3.38768e-05
5.63971e-05
3.31233e-05
3.33731e-05
3.33933e-05
3.37061e-05
3.33934e-05
3.37074e-05
3.31228e-05
3.31234e-05
3.3373e-05
3.33933e-05
3.37062e-05
3.33934e-05
3.37075e-05
3.31231e-05
3.38767e-05
5.63967e-05
5.63967e-05
3.38759e-05
3.38768e-05
5.63971e-05
5.63972e-05
3.3876e-05
7.96435e-05
7.96438e-05
7.96446e-05
7.96449e-05
3.33283e-05
3.45688e-05
3.45688e-05
3.45694e-05
3.45695e-05
7.96434e-05
7.96438e-05
7.96446e-05
7.96449e-05
7.96402e-05
7.96398e-05
7.96442e-05
7.96445e-05
3.45676e-05
3.45694e-05
3.33282e-05
3.45665e-05
3.45686e-05
7.96401e-05
7.96399e-05
7.96447e-05
7.96437e-05
3.33284e-05
3.45667e-05
3.45687e-05
3.45675e-05
3.45693e-05
3.38758e-05
5.63956e-05
3.38767e-05
5.63956e-05
3.3123e-05
3.37071e-05
3.33935e-05
3.33731e-05
3.31233e-05
3.37058e-05
3.33935e-05
3.3123e-05
3.37076e-05
3.33934e-05
3.33731e-05
3.31233e-05
3.37064e-05
3.33934e-05
3.38768e-05
5.63939e-05
5.63935e-05
3.38758e-05
3.38767e-05
5.63956e-05
5.63956e-05
3.38757e-05
3.31233e-05
3.3373e-05
3.37058e-05
3.33933e-05
3.37072e-05
3.33934e-05
3.3123e-05
3.31233e-05
3.3373e-05
3.37064e-05
3.33933e-05
3.37077e-05
3.33933e-05
3.3123e-05
3.45692e-05
3.45673e-05
3.33282e-05
3.45685e-05
3.45662e-05
7.96396e-05
7.96392e-05
7.96431e-05
7.9642e-05
3.33283e-05
3.45686e-05
3.45664e-05
3.45692e-05
3.45671e-05
7.96395e-05
7.96393e-05
3.31232e-05
3.37075e-05
3.33935e-05
3.33731e-05
3.31235e-05
3.37062e-05
3.33935e-05
3.38759e-05
5.63967e-05
3.38767e-05
5.63967e-05
3.3123e-05
3.33934e-05
3.37074e-05
3.3373e-05
3.31233e-05
3.33934e-05
3.3706e-05
3.38771e-05
5.63968e-05
5.63964e-05
3.38763e-05
3.31235e-05
3.3373e-05
3.37062e-05
3.33933e-05
3.37075e-05
3.33934e-05
3.31232e-05
3.38767e-05
5.63967e-05
5.63968e-05
3.38759e-05
3.31233e-05
3.3373e-05
3.33933e-05
3.3706e-05
3.33933e-05
3.37074e-05
3.3123e-05
3.38758e-05
5.63949e-05
3.38767e-05
5.6395e-05
3.3123e-05
3.33935e-05
3.37072e-05
3.33731e-05
3.31233e-05
3.33934e-05
3.3706e-05
3.38757e-05
5.63963e-05
3.38766e-05
5.63963e-05
3.31232e-05
3.33731e-05
3.37059e-05
3.33933e-05
3.37073e-05
3.33934e-05
3.31228e-05
3.38767e-05
5.63949e-05
5.6395e-05
3.38757e-05
3.31233e-05
3.3373e-05
3.33933e-05
3.3706e-05
3.33934e-05
3.37073e-05
3.3123e-05
3.38766e-05
5.63963e-05
5.63963e-05