/*--------------------------------*- C++ -*----------------------------------*\
| =========                 |                                                 |
| \\      /  F ield         | OpenFOAM: The Open Source CFD Toolbox           |
|  \\    /   O peration     | Version:  2206                                  |
|   \\  /    A nd           | Website:  www.openfoam.com                      |
|    \\/     M anipulation  |                                                 |
\*---------------------------------------------------------------------------*/
FoamFile
{
    version     2.0;
    format      ascii;
    arch        "LSB;label=32;scalar=64";
    class       volScalarField;
    location    "25.5";
    object      k;
}
// * * * * * * * * * * * * * * * * * * * * * * * * * * * * * * * * * * * * * //

dimensions      [0 2 -2 0 0 0 0];

internalField   nonuniform List<scalar> 
28673
(
2.67242e-05
2.61967e-05
2.71862e-05
2.67244e-05
2.67241e-05
2.61989e-05
2.71862e-05
2.67244e-05
2.67241e-05
2.6199e-05
2.71862e-05
2.67244e-05
2.67242e-05
2.61992e-05
2.7186e-05
2.67243e-05
2.67242e-05
2.61995e-05
2.71857e-05
2.67233e-05
2.67237e-05
2.61982e-05
2.71803e-05
2.67164e-05
2.67178e-05
2.61913e-05
2.71781e-05
2.67155e-05
2.67153e-05
2.61896e-05
2.71781e-05
2.67155e-05
2.67154e-05
2.61896e-05
2.71781e-05
2.67155e-05
2.67154e-05
2.61896e-05
2.71781e-05
2.67156e-05
2.67154e-05
2.61895e-05
2.71781e-05
2.67157e-05
2.67156e-05
2.61898e-05
2.71936e-05
2.6756e-05
2.6756e-05
2.62688e-05
2.67239e-05
2.62026e-05
2.67242e-05
2.62028e-05
2.67239e-05
2.67239e-05
2.67239e-05
2.67239e-05
2.61993e-05
2.62026e-05
2.67242e-05
2.67235e-05
2.67239e-05
2.67244e-05
2.67239e-05
2.62023e-05
2.67242e-05
2.67242e-05
2.67241e-05
2.62025e-05
2.61995e-05
2.62029e-05
2.67241e-05
2.67241e-05
2.67241e-05
2.6724e-05
2.61993e-05
2.62027e-05
2.67244e-05
2.67237e-05
2.67243e-05
2.67236e-05
2.6724e-05
2.67244e-05
2.67239e-05
2.6199e-05
2.62023e-05
2.67242e-05
2.67241e-05
2.67241e-05
2.62026e-05
2.61996e-05
2.62031e-05
2.67242e-05
2.67242e-05
2.67242e-05
2.67241e-05
2.61995e-05
2.6203e-05
2.67245e-05
2.67239e-05
2.67245e-05
2.67238e-05
2.6724e-05
2.67244e-05
2.67239e-05
2.61991e-05
2.62025e-05
2.67242e-05
2.67242e-05
2.67241e-05
2.62027e-05
2.61998e-05
2.62034e-05
2.67244e-05
2.67244e-05
2.67244e-05
2.67243e-05
2.61997e-05
2.62032e-05
2.67247e-05
2.67239e-05
2.67246e-05
2.67239e-05
2.67241e-05
2.67244e-05
2.67241e-05
2.61993e-05
2.62028e-05
2.67243e-05
2.67243e-05
2.67243e-05
2.6203e-05
2.62001e-05
2.6203e-05
2.67244e-05
2.67242e-05
2.67239e-05
2.67236e-05
2.61999e-05
2.6202e-05
2.67248e-05
2.6724e-05
2.67244e-05
2.67236e-05
2.67241e-05
2.67239e-05
2.67236e-05
2.61995e-05
2.62026e-05
2.67244e-05
2.67239e-05
2.67239e-05
2.62023e-05
2.61994e-05
2.61972e-05
2.67236e-05
2.67229e-05
2.67187e-05
2.67172e-05
2.6198e-05
2.6195e-05
2.67242e-05
2.67234e-05
2.67201e-05
2.67198e-05
2.67232e-05
2.67177e-05
2.67181e-05
2.61991e-05
2.61979e-05
2.67235e-05
2.67198e-05
2.67183e-05
2.61961e-05
2.61926e-05
2.61931e-05
2.6717e-05
2.67161e-05
2.67152e-05
2.6715e-05
2.61908e-05
2.61931e-05
2.67181e-05
2.67178e-05
2.67155e-05
2.67149e-05
2.67166e-05
2.67155e-05
2.67151e-05
2.61931e-05
2.61928e-05
2.67169e-05
2.67154e-05
2.67154e-05
2.61931e-05
2.61897e-05
2.61932e-05
2.67153e-05
2.67152e-05
2.67152e-05
2.67151e-05
2.61898e-05
2.61931e-05
2.67155e-05
2.6715e-05
2.67155e-05
2.67149e-05
2.67152e-05
2.67155e-05
2.67152e-05
2.61895e-05
2.61929e-05
2.67155e-05
2.67154e-05
2.67154e-05
2.61932e-05
2.61899e-05
2.61931e-05
2.67153e-05
2.67152e-05
2.67152e-05
2.67151e-05
2.61898e-05
2.61931e-05
2.67156e-05
2.6715e-05
2.67155e-05
2.67149e-05
2.67153e-05
2.67155e-05
2.67152e-05
2.61896e-05
2.61928e-05
2.67156e-05
2.67154e-05
2.67154e-05
2.61931e-05
2.61898e-05
2.6193e-05
2.67153e-05
2.67152e-05
2.67152e-05
2.67152e-05
2.61898e-05
2.6193e-05
2.67156e-05
2.6715e-05
2.67155e-05
2.67149e-05
2.67153e-05
2.67156e-05
2.67152e-05
2.61895e-05
2.61927e-05
2.67156e-05
2.67154e-05
2.67155e-05
2.6193e-05
2.61897e-05
2.61932e-05
2.67154e-05
2.67153e-05
2.67157e-05
2.67156e-05
2.61897e-05
2.61932e-05
2.67156e-05
2.67151e-05
2.6716e-05
2.67154e-05
2.67154e-05
2.6716e-05
2.67157e-05
2.61894e-05
2.61929e-05
2.67156e-05
2.67159e-05
2.6716e-05
2.61933e-05
2.619e-05
2.62259e-05
2.67154e-05
2.67153e-05
2.67456e-05
2.67455e-05
2.61899e-05
2.62258e-05
2.67157e-05
2.67151e-05
2.67458e-05
2.67454e-05
2.67154e-05
2.67457e-05
2.67456e-05
2.61897e-05
2.62256e-05
2.67157e-05
2.67457e-05
2.67458e-05
2.62259e-05
2.62689e-05
2.67559e-05
2.67559e-05
2.62689e-05
2.67561e-05
2.67558e-05
2.71936e-05
2.71936e-05
2.71936e-05
2.6756e-05
2.62687e-05
2.67561e-05
2.88716e-05
6.96677e-05
2.88726e-05
6.96636e-05
8.06952e-05
8.06904e-05
2.88721e-05
6.96665e-05
2.71864e-05
2.71861e-05
2.71862e-05
2.71863e-05
2.71861e-05
2.71861e-05
2.53079e-05
2.84584e-05
2.69981e-05
2.67244e-05
2.53079e-05
2.84555e-05
2.69981e-05
8.06915e-05
2.53071e-05
2.69979e-05
2.67242e-05
2.53071e-05
2.69979e-05
2.8455e-05
3.38468e-05
3.38481e-05
2.62025e-05
3.3846e-05
3.38473e-05
2.8874e-05
6.96634e-05
2.88755e-05
6.96607e-05
8.06874e-05
8.06858e-05
2.8875e-05
6.96662e-05
2.88761e-05
6.96633e-05
2.71863e-05
2.71861e-05
2.71861e-05
2.71862e-05
2.71862e-05
2.7186e-05
2.7186e-05
2.53083e-05
2.84605e-05
2.6998e-05
2.67245e-05
2.53082e-05
2.84572e-05
2.6998e-05
8.06871e-05
8.06836e-05
2.53077e-05
2.69978e-05
2.84602e-05
2.67241e-05
2.53075e-05
2.69978e-05
2.84573e-05
3.38485e-05
3.38498e-05
2.62025e-05
3.38474e-05
3.38488e-05
2.8875e-05
6.96619e-05
2.88769e-05
6.96595e-05
8.06852e-05
8.06846e-05
2.88757e-05
6.96645e-05
2.88776e-05
6.96621e-05
2.71862e-05
2.7186e-05
2.71859e-05
2.71862e-05
2.71861e-05
2.71859e-05
2.71858e-05
2.53086e-05
2.84618e-05
2.6998e-05
2.67245e-05
2.53085e-05
2.84584e-05
2.6998e-05
8.06823e-05
8.06808e-05
2.53077e-05
2.69977e-05
2.84618e-05
2.67242e-05
2.53079e-05
2.69978e-05
2.84586e-05
3.38516e-05
3.3853e-05
2.62027e-05
3.38513e-05
3.38527e-05
2.88761e-05
6.96613e-05
2.88778e-05
6.96593e-05
8.06855e-05
8.06855e-05
2.88768e-05
6.96639e-05
2.88781e-05
6.96618e-05
2.71861e-05
2.71861e-05
2.7186e-05
2.71861e-05
2.7186e-05
2.7186e-05
2.71859e-05
2.5309e-05
2.84626e-05
2.6998e-05
2.67244e-05
2.53088e-05
2.84589e-05
2.69981e-05
8.06814e-05
8.06808e-05
2.53083e-05
2.69978e-05
2.84626e-05
2.67243e-05
2.53081e-05
2.6998e-05
2.84592e-05
3.38554e-05
3.38569e-05
2.62028e-05
3.38545e-05
3.3856e-05
2.88763e-05
6.96615e-05
2.88788e-05
6.96601e-05
8.06877e-05
8.06883e-05
2.88778e-05
6.96642e-05
2.88795e-05
6.96624e-05
2.71859e-05
2.71859e-05
2.71859e-05
2.71858e-05
2.71856e-05
2.71856e-05
2.71855e-05
2.53094e-05
2.84631e-05
2.69979e-05
2.67243e-05
2.53096e-05
2.84592e-05
2.69979e-05
8.06826e-05
8.06826e-05
2.53086e-05
2.69978e-05
2.8463e-05
2.67242e-05
2.53089e-05
2.69977e-05
2.84594e-05
3.38571e-05
3.38586e-05
2.6203e-05
3.38549e-05
3.38565e-05
2.88738e-05
6.96653e-05
2.88774e-05
6.96656e-05
8.06886e-05
8.06875e-05
2.8876e-05
6.96668e-05
2.88788e-05
6.96669e-05
2.71853e-05
2.71855e-05
2.71853e-05
2.7182e-05
2.71806e-05
2.71822e-05
2.71809e-05
2.5306e-05
2.84622e-05
2.69972e-05
2.67218e-05
2.53079e-05
2.84562e-05
2.69962e-05
8.06857e-05
8.06847e-05
2.53056e-05
2.69972e-05
2.84625e-05
2.67233e-05
2.53073e-05
2.69966e-05
2.84577e-05
3.38562e-05
3.38577e-05
2.62002e-05
3.38533e-05
3.38548e-05
2.88675e-05
6.96689e-05
2.88717e-05
6.96681e-05
8.06867e-05
8.06871e-05
2.88698e-05
6.96715e-05
2.88744e-05
6.9671e-05
2.71793e-05
2.71805e-05
2.71796e-05
2.71781e-05
2.71782e-05
2.71782e-05
2.71781e-05
2.52979e-05
2.84552e-05
2.69909e-05
2.67158e-05
2.52992e-05
2.84493e-05
2.69902e-05
8.06838e-05
8.06833e-05
2.5297e-05
2.69913e-05
2.84574e-05
2.67165e-05
2.52988e-05
2.69904e-05
2.84511e-05
3.38513e-05
3.38527e-05
2.61936e-05
3.38471e-05
3.38485e-05
2.88656e-05
6.96697e-05
2.88684e-05
6.96732e-05
8.06855e-05
8.06921e-05
2.88668e-05
6.96728e-05
2.88696e-05
6.96762e-05
2.71783e-05
2.71782e-05
2.71782e-05
2.71781e-05
2.71782e-05
2.71781e-05
2.71781e-05
2.52977e-05
2.84509e-05
2.69896e-05
2.67156e-05
2.52979e-05
2.84444e-05
2.69897e-05
8.06826e-05
8.06899e-05
2.52968e-05
2.69895e-05
2.84515e-05
2.67154e-05
2.5297e-05
2.69896e-05
2.8445e-05
3.38479e-05
3.38493e-05
2.61932e-05
3.38456e-05
3.3847e-05
2.88669e-05
6.96696e-05
2.88702e-05
6.96782e-05
8.06801e-05
8.06958e-05
2.8868e-05
6.96727e-05
2.88712e-05
6.96812e-05
2.71783e-05
2.71782e-05
2.71782e-05
2.71781e-05
2.71782e-05
2.71781e-05
2.71781e-05
2.52978e-05
2.84511e-05
2.69896e-05
2.67156e-05
2.52981e-05
2.84414e-05
2.69897e-05
8.06794e-05
8.06953e-05
2.5297e-05
2.69895e-05
2.84513e-05
2.67155e-05
2.52973e-05
2.69896e-05
2.84418e-05
3.38495e-05
3.38508e-05
2.61931e-05
3.3844e-05
3.38453e-05
2.88684e-05
6.96673e-05
2.88719e-05
6.96878e-05
8.06683e-05
8.06867e-05
2.88696e-05
6.967e-05
2.88728e-05
6.96912e-05
2.71783e-05
2.71782e-05
2.71782e-05
2.71781e-05
2.71782e-05
2.71781e-05
2.71781e-05
2.52981e-05
2.84503e-05
2.69897e-05
2.67156e-05
2.52985e-05
2.84359e-05
2.69898e-05
8.0669e-05
8.06873e-05
2.52975e-05
2.69896e-05
2.84505e-05
2.67155e-05
2.52979e-05
2.69897e-05
2.84369e-05
3.38498e-05
3.38509e-05
2.61931e-05
3.38488e-05
3.38499e-05
2.8871e-05
6.96552e-05
2.88723e-05
6.969e-05
8.06263e-05
8.06505e-05
2.8872e-05
6.96587e-05
2.88731e-05
6.96937e-05
2.71783e-05
2.71782e-05
2.71782e-05
2.71783e-05
2.71784e-05
2.71783e-05
2.71783e-05
2.52979e-05
2.84582e-05
2.69897e-05
2.67157e-05
2.52994e-05
2.84383e-05
2.69898e-05
8.0628e-05
8.06513e-05
2.52973e-05
2.69897e-05
2.84596e-05
2.67156e-05
2.52989e-05
2.69897e-05
2.84397e-05
3.38501e-05
3.38509e-05
2.6193e-05
3.38534e-05
3.38542e-05
2.88788e-05
6.96164e-05
2.88715e-05
6.96743e-05
8.05326e-05
8.05534e-05
2.88801e-05
6.96204e-05
2.88725e-05
6.96779e-05
2.71784e-05
2.71783e-05
2.71783e-05
2.71827e-05
2.71827e-05
2.71827e-05
2.71827e-05
2.52967e-05
2.84839e-05
2.69904e-05
2.67189e-05
2.53002e-05
2.84257e-05
2.69897e-05
8.05331e-05
8.05534e-05
2.52963e-05
2.69903e-05
2.84849e-05
2.67189e-05
2.52997e-05
2.69896e-05
2.84262e-05
3.38384e-05
3.38392e-05
2.61977e-05
3.3849e-05
3.38495e-05
2.66955e-05
6.76742e-05
2.88146e-05
5.68033e-05
7.5746e-05
4.74215e-05
2.66963e-05
6.76823e-05
2.88162e-05
5.68101e-05
2.73395e-05
2.7291e-05
2.7291e-05
2.71425e-05
2.73372e-05
2.72772e-05
2.72772e-05
2.53319e-05
2.82797e-05
2.70189e-05
2.67914e-05
2.53203e-05
3.07279e-05
2.70703e-05
7.57453e-05
4.74198e-05
2.53316e-05
2.70188e-05
2.82795e-05
2.67913e-05
2.53199e-05
2.70702e-05
3.07267e-05
3.40968e-05
3.40977e-05
2.63654e-05
3.30593e-05
3.30581e-05
6.96677e-05
2.84557e-05
8.06958e-05
3.3846e-05
3.38386e-05
8.06919e-05
2.84542e-05
6.96648e-05
8.06978e-05
8.0693e-05
8.06952e-05
3.38467e-05
2.62027e-05
3.3846e-05
3.3846e-05
8.06888e-05
8.06927e-05
8.06899e-05
8.06947e-05
2.61994e-05
3.38463e-05
3.38468e-05
3.38478e-05
3.38481e-05
2.88719e-05
6.96689e-05
2.8873e-05
6.96653e-05
2.53075e-05
2.84579e-05
2.6998e-05
2.67239e-05
2.53076e-05
2.84552e-05
2.6998e-05
2.53076e-05
2.846e-05
2.69981e-05
2.67239e-05
2.53078e-05
2.8457e-05
2.69981e-05
2.88744e-05
6.96617e-05
6.96648e-05
2.8873e-05
2.88747e-05
6.96638e-05
6.96667e-05
2.88734e-05
2.5308e-05
2.67239e-05
2.84562e-05
2.69979e-05
2.84593e-05
2.6998e-05
2.53078e-05
2.53081e-05
2.67239e-05
2.8458e-05
2.6998e-05
2.84612e-05
2.69981e-05
2.53079e-05
3.38482e-05
3.38412e-05
2.62026e-05
3.38474e-05
3.38409e-05
8.06921e-05
8.0687e-05
8.06874e-05
8.06904e-05
2.61993e-05
3.38489e-05
3.3843e-05
3.38495e-05
3.38436e-05
8.06839e-05
8.06875e-05
2.53079e-05
2.67242e-05
2.84558e-05
2.6998e-05
2.88716e-05
6.96636e-05
2.53077e-05
2.67236e-05
2.69979e-05
2.84544e-05
2.88747e-05
6.96645e-05
6.9668e-05
2.88738e-05
2.53084e-05
2.67242e-05
2.84569e-05
2.69979e-05
2.84599e-05
2.69979e-05
2.53082e-05
2.88742e-05
6.96617e-05
6.96653e-05
2.88733e-05
2.5308e-05
2.67236e-05
2.69978e-05
2.84558e-05
2.69978e-05
2.84589e-05
2.5308e-05
2.88718e-05
6.96661e-05
2.88729e-05
6.96623e-05
2.53075e-05
2.6998e-05
2.84577e-05
2.67239e-05
2.53077e-05
2.6998e-05
2.8455e-05
2.88717e-05
6.96693e-05
2.88727e-05
6.96653e-05
2.53085e-05
2.67244e-05
2.84565e-05
2.6998e-05
2.84599e-05
2.69981e-05
2.53081e-05
2.88746e-05
6.96609e-05
6.96639e-05
2.88733e-05
2.5308e-05
2.67239e-05
2.6998e-05
2.84561e-05
2.6998e-05
2.84592e-05
2.53078e-05
2.88744e-05
6.96634e-05
6.96666e-05
2.88731e-05
2.62023e-05
3.38407e-05
3.38452e-05
8.06958e-05
8.06868e-05
8.06918e-05
2.6199e-05
3.38425e-05
3.38461e-05
3.38431e-05
3.38473e-05
8.06905e-05
8.06954e-05
2.53069e-05
2.69979e-05
2.84583e-05
2.67242e-05
2.5307e-05
2.69979e-05
2.84556e-05
2.88708e-05
2.88721e-05
6.96667e-05
2.88706e-05
6.96716e-05
2.88719e-05
6.96675e-05
2.53076e-05
2.67242e-05
2.69979e-05
2.84564e-05
2.69979e-05
2.84592e-05
2.53075e-05
2.53074e-05
2.67241e-05
2.69979e-05
2.84567e-05
2.69979e-05
2.84598e-05
2.5307e-05
2.88738e-05
6.96645e-05
6.96681e-05
2.88722e-05
2.88736e-05
6.96656e-05
6.96688e-05
2.8872e-05
8.06976e-05
8.06928e-05
8.06972e-05
8.06924e-05
2.61992e-05
3.38464e-05
3.38478e-05
3.38478e-05
3.38492e-05
8.06886e-05
8.06925e-05
8.06882e-05
8.0692e-05
8.06891e-05
8.06866e-05
8.06899e-05
8.06868e-05
3.38481e-05
3.38486e-05
2.62028e-05
3.38473e-05
3.38473e-05
8.06854e-05
8.06872e-05
8.06851e-05
8.06872e-05
2.61996e-05
3.38492e-05
3.38487e-05
3.38494e-05
3.38493e-05
2.88744e-05
6.96654e-05
2.8876e-05
6.96628e-05
2.53082e-05
2.84603e-05
2.6998e-05
2.67241e-05
2.53082e-05
2.84571e-05
2.6998e-05
2.53084e-05
2.84621e-05
2.6998e-05
2.67241e-05
2.53084e-05
2.84587e-05
2.6998e-05
2.88766e-05
6.966e-05
6.96624e-05
2.88747e-05
2.88769e-05
6.96622e-05
6.96645e-05
2.88749e-05
2.53087e-05
2.67241e-05
2.84577e-05
2.6998e-05
2.84611e-05
2.6998e-05
2.53087e-05
2.53088e-05
2.6724e-05
2.84593e-05
2.69979e-05
2.84627e-05
2.69979e-05
2.53087e-05
3.38511e-05
3.38454e-05
2.62027e-05
3.38504e-05
3.38444e-05
8.06845e-05
8.0682e-05
8.06848e-05
8.06864e-05
2.61994e-05
3.38523e-05
3.38465e-05
3.38526e-05
3.38468e-05
8.0681e-05
8.06828e-05
2.53088e-05
2.84609e-05
2.6998e-05
2.67244e-05
2.53087e-05
2.84577e-05
2.6998e-05
2.88745e-05
6.96633e-05
2.88758e-05
6.96603e-05
2.53085e-05
2.69979e-05
2.84602e-05
2.67237e-05
2.53085e-05
2.69979e-05
2.84569e-05
2.88774e-05
6.96625e-05
6.9665e-05
2.88756e-05
2.53094e-05
2.67244e-05
2.84584e-05
2.6998e-05
2.84617e-05
2.6998e-05
2.53092e-05
2.88769e-05
6.96594e-05
6.9662e-05
2.88751e-05
2.53088e-05
2.67237e-05
2.69978e-05
2.84577e-05
2.69978e-05
2.84612e-05
2.53087e-05
2.88743e-05
6.96626e-05
2.88759e-05
6.96599e-05
2.53084e-05
2.6998e-05
2.84601e-05
2.6724e-05
2.53083e-05
2.69979e-05
2.84569e-05
2.88741e-05
6.96649e-05
2.88757e-05
6.96622e-05
2.53088e-05
2.67245e-05
2.84579e-05
2.6998e-05
2.84615e-05
2.6998e-05
2.53085e-05
2.88768e-05
6.96593e-05
6.96618e-05
2.88748e-05
2.5309e-05
2.67239e-05
2.69978e-05
2.84575e-05
2.69979e-05
2.84609e-05
2.53087e-05
2.88766e-05
6.96615e-05
6.96639e-05
2.88746e-05
3.3845e-05
3.38479e-05
2.62023e-05
3.38449e-05
3.38468e-05
8.06906e-05
8.06874e-05
8.06817e-05
8.06843e-05
2.6199e-05
3.38469e-05
3.38483e-05
3.38474e-05
3.38488e-05
8.06857e-05
8.06878e-05
2.53075e-05
2.69979e-05
2.84607e-05
2.67242e-05
2.53074e-05
2.69978e-05
2.84575e-05
2.88732e-05
6.96659e-05
2.88751e-05
6.9663e-05
2.8873e-05
6.96671e-05
2.88749e-05
6.96645e-05
2.53082e-05
2.67241e-05
2.69978e-05
2.8458e-05
2.69978e-05
2.84613e-05
2.53079e-05
2.5308e-05
2.67242e-05
2.69977e-05
2.84581e-05
2.69977e-05
2.84615e-05
2.5308e-05
2.8876e-05
6.96621e-05
6.96646e-05
2.88737e-05
2.88758e-05
6.96637e-05
6.96661e-05
2.88736e-05
8.06889e-05
8.06865e-05
8.06884e-05
8.0686e-05
2.61993e-05
3.38492e-05
3.38506e-05
3.38495e-05
3.38509e-05
8.06852e-05
8.0687e-05
8.06847e-05
8.06866e-05
8.06862e-05
8.06848e-05
8.06858e-05
8.06842e-05
3.38514e-05
3.38509e-05
2.6203e-05
3.38514e-05
3.38508e-05
8.06848e-05
8.06857e-05
8.06839e-05
8.0685e-05
2.61997e-05
3.38534e-05
3.38529e-05
3.38536e-05
3.3853e-05
2.88752e-05
6.9664e-05
2.88773e-05
6.96618e-05
2.53092e-05
2.84617e-05
2.69981e-05
2.67242e-05
2.53092e-05
2.84583e-05
2.69981e-05
2.53092e-05
2.84633e-05
2.6998e-05
2.67242e-05
2.53093e-05
2.84597e-05
2.6998e-05
2.88775e-05
6.96593e-05
6.96613e-05
2.88755e-05
2.88776e-05
6.96617e-05
6.96637e-05
2.88757e-05
2.53097e-05
2.67242e-05
2.84587e-05
2.69981e-05
2.84622e-05
2.69981e-05
2.53093e-05
2.53097e-05
2.67242e-05
2.846e-05
2.6998e-05
2.84637e-05
2.6998e-05
2.53093e-05
3.38546e-05
3.38491e-05
2.62029e-05
3.38543e-05
3.38488e-05
8.06821e-05
8.06809e-05
8.06848e-05
8.06856e-05
2.61996e-05
3.38559e-05
3.38504e-05
3.38565e-05
3.38513e-05
8.06811e-05
8.06821e-05
2.53094e-05
2.84623e-05
2.69981e-05
2.67245e-05
2.53095e-05
2.8459e-05
2.69981e-05
2.88753e-05
6.96612e-05
2.88773e-05
6.96588e-05
2.53091e-05
2.69979e-05
2.84619e-05
2.67239e-05
2.53092e-05
2.69979e-05
2.84583e-05
2.88779e-05
6.96618e-05
6.96639e-05
2.88761e-05
2.53099e-05
2.67245e-05
2.84594e-05
2.6998e-05
2.84629e-05
2.6998e-05
2.53095e-05
2.88775e-05
6.96585e-05
6.96607e-05
2.88757e-05
2.53096e-05
2.67238e-05
2.69979e-05
2.84587e-05
2.69979e-05
2.84625e-05
2.53093e-05
2.88751e-05
6.96612e-05
2.88773e-05
6.9659e-05
2.53089e-05
2.69979e-05
2.84615e-05
2.6724e-05
2.53091e-05
2.69979e-05
2.8458e-05
2.88749e-05
6.96632e-05
2.88771e-05
6.9661e-05
2.53092e-05
2.67245e-05
2.84587e-05
2.6998e-05
2.84625e-05
2.6998e-05
2.53088e-05
2.88776e-05
6.96588e-05
6.9661e-05
2.88755e-05
2.53094e-05
2.67239e-05
2.69979e-05
2.84584e-05
2.69979e-05
2.8462e-05
2.53091e-05
2.88774e-05
6.96608e-05
6.96628e-05
2.88754e-05
3.38493e-05
3.38505e-05
2.62024e-05
3.38487e-05
3.38505e-05
8.06864e-05
8.06848e-05
8.06806e-05
8.06819e-05
2.61992e-05
3.38503e-05
3.38526e-05
3.3851e-05
3.38527e-05
8.06845e-05
8.06856e-05
2.5308e-05
2.69978e-05
2.84621e-05
2.67242e-05
2.53084e-05
2.69978e-05
2.84586e-05
2.88739e-05
6.96638e-05
2.88764e-05
6.96616e-05
2.88738e-05
6.96655e-05
2.88763e-05
6.96633e-05
2.53082e-05
2.67242e-05
2.69978e-05
2.8459e-05
2.69978e-05
2.84625e-05
2.5308e-05
2.53085e-05
2.67242e-05
2.69977e-05
2.8459e-05
2.69978e-05
2.84626e-05
2.53082e-05
2.88766e-05
6.96613e-05
6.96633e-05
2.88744e-05
2.88766e-05
6.96631e-05
6.96651e-05
2.88744e-05
8.06859e-05
8.06846e-05
8.06855e-05
8.06842e-05
2.61994e-05
3.38532e-05
3.38547e-05
3.38535e-05
3.38549e-05
8.06846e-05
8.06855e-05
8.06842e-05
8.06851e-05
8.06859e-05
8.06854e-05
8.06849e-05
8.0684e-05
3.38555e-05
3.3855e-05
2.62032e-05
3.38547e-05
3.38546e-05
8.06862e-05
8.06866e-05
8.06848e-05
8.06852e-05
2.62e-05
3.38555e-05
3.38557e-05
3.38566e-05
3.38566e-05
2.88764e-05
6.96636e-05
2.88782e-05
6.96619e-05
2.53097e-05
2.84626e-05
2.69983e-05
2.67244e-05
2.53097e-05
2.8459e-05
2.69982e-05
2.53099e-05
2.8464e-05
2.69981e-05
2.67244e-05
2.53098e-05
2.84603e-05
2.69981e-05
2.88786e-05
6.96594e-05
6.96612e-05
2.88765e-05
2.88789e-05
6.96622e-05
6.96638e-05
2.88769e-05
2.53103e-05
2.67244e-05
2.84593e-05
2.6998e-05
2.84629e-05
2.69982e-05
2.53101e-05
2.53104e-05
2.67243e-05
2.84606e-05
2.6998e-05
2.84643e-05
2.69981e-05
2.53103e-05
3.3858e-05
3.38527e-05
2.62031e-05
3.3857e-05
3.38513e-05
8.06825e-05
8.06819e-05
8.06867e-05
8.06867e-05
2.61998e-05
3.38572e-05
3.38515e-05
3.38589e-05
3.38535e-05
8.0683e-05
8.06833e-05
2.531e-05
2.84633e-05
2.69981e-05
2.67247e-05
2.53099e-05
2.84598e-05
2.69981e-05
2.88765e-05
6.96605e-05
2.8878e-05
6.96584e-05
2.53099e-05
2.6998e-05
2.84629e-05
2.67239e-05
2.53097e-05
2.6998e-05
2.84591e-05
2.88791e-05
6.9662e-05
6.96638e-05
2.88775e-05
2.53104e-05
2.67246e-05
2.84601e-05
2.69981e-05
2.84636e-05
2.69981e-05
2.53105e-05
2.88788e-05
6.96586e-05
6.96605e-05
2.88771e-05
2.53104e-05
2.67239e-05
2.69979e-05
2.84593e-05
2.69979e-05
2.84632e-05
2.53103e-05
2.88762e-05
6.96609e-05
2.88781e-05
6.9659e-05
2.53097e-05
2.6998e-05
2.84623e-05
2.67241e-05
2.53095e-05
2.6998e-05
2.84587e-05
2.88761e-05
6.96627e-05
2.88779e-05
6.96608e-05
2.53095e-05
2.67244e-05
2.84592e-05
2.6998e-05
2.84631e-05
2.69981e-05
2.53096e-05
2.88786e-05
6.96594e-05
6.96611e-05
2.88766e-05
2.53102e-05
2.67241e-05
2.6998e-05
2.8459e-05
2.6998e-05
2.84626e-05
2.53099e-05
2.88786e-05
6.96609e-05
6.96627e-05
2.88766e-05
3.38526e-05
3.38548e-05
2.62027e-05
3.38517e-05
3.38543e-05
8.06855e-05
8.06847e-05
8.06816e-05
8.06822e-05
2.61994e-05
3.38526e-05
3.38553e-05
3.38539e-05
3.38562e-05
8.06856e-05
8.06859e-05
2.53088e-05
2.69979e-05
2.8463e-05
2.67243e-05
2.53086e-05
2.69978e-05
2.84594e-05
2.88752e-05
6.96631e-05
2.88772e-05
6.96612e-05
2.88752e-05
6.9665e-05
2.88772e-05
6.96632e-05
2.5309e-05
2.67243e-05
2.69978e-05
2.84594e-05
2.69979e-05
2.84631e-05
2.53088e-05
2.53094e-05
2.67243e-05
2.69978e-05
2.84596e-05
2.69978e-05
2.84633e-05
2.53091e-05
2.88779e-05
6.96612e-05
6.9663e-05
2.88756e-05
2.88779e-05
6.96633e-05
6.96651e-05
2.88756e-05
8.06856e-05
8.06851e-05
8.06852e-05
8.06847e-05
2.61996e-05
3.38552e-05
3.38567e-05
3.38564e-05
3.38579e-05
8.0686e-05
8.06863e-05
8.06855e-05
8.06859e-05
8.06875e-05
8.0688e-05
8.06859e-05
8.06858e-05
3.38572e-05
3.38576e-05
2.62035e-05
3.38551e-05
3.38562e-05
8.06891e-05
8.06895e-05
8.06881e-05
8.06874e-05
2.62001e-05
3.38546e-05
3.3856e-05
3.38567e-05
3.38579e-05
2.88767e-05
6.96645e-05
2.88793e-05
6.96641e-05
2.53091e-05
2.84632e-05
2.6998e-05
2.67243e-05
2.53101e-05
2.84594e-05
2.69979e-05
2.53094e-05
2.84645e-05
2.6998e-05
2.67241e-05
2.53103e-05
2.84606e-05
2.69979e-05
2.88785e-05
6.96626e-05
6.96624e-05
2.88754e-05
2.88788e-05
6.9667e-05
6.96667e-05
2.88757e-05
2.5309e-05
2.67241e-05
2.8459e-05
2.69976e-05
2.84632e-05
2.69977e-05
2.53082e-05
2.53092e-05
2.67239e-05
2.846e-05
2.69976e-05
2.84644e-05
2.69978e-05
2.53084e-05
3.38589e-05
3.38535e-05
2.6203e-05
3.38569e-05
3.38512e-05
8.06847e-05
8.06846e-05
8.06883e-05
8.06894e-05
2.61996e-05
3.38564e-05
3.38508e-05
3.38586e-05
3.38532e-05
8.06847e-05
8.0686e-05
2.53102e-05
2.84639e-05
2.69982e-05
2.67247e-05
2.5311e-05
2.84604e-05
2.69981e-05
2.88774e-05
6.96606e-05
2.88794e-05
6.96588e-05
2.53101e-05
2.69979e-05
2.84635e-05
2.6724e-05
2.53106e-05
2.69979e-05
2.84595e-05
2.88798e-05
6.96641e-05
6.96647e-05
2.88771e-05
2.53101e-05
2.67246e-05
2.84602e-05
2.69979e-05
2.84642e-05
2.69981e-05
2.53091e-05
2.88795e-05
6.96604e-05
6.96611e-05
2.88767e-05
2.531e-05
2.67238e-05
2.69976e-05
2.84592e-05
2.69977e-05
2.84635e-05
2.53089e-05
2.88765e-05
6.96618e-05
2.88791e-05
6.96613e-05
2.53091e-05
2.6998e-05
2.84629e-05
2.6724e-05
2.531e-05
2.69979e-05
2.84591e-05
2.88764e-05
6.96629e-05
2.8879e-05
6.96616e-05
2.53093e-05
2.67241e-05
2.84587e-05
2.69976e-05
2.84633e-05
2.69978e-05
2.53081e-05
2.88787e-05
6.96642e-05
6.9664e-05
2.88756e-05
2.5309e-05
2.67238e-05
2.69975e-05
2.84587e-05
2.69977e-05
2.84629e-05
2.53082e-05
2.88785e-05
6.96641e-05
6.96639e-05
2.88754e-05
3.38547e-05
3.38572e-05
2.62029e-05
3.38527e-05
3.38554e-05
8.06867e-05
8.06869e-05
8.06846e-05
8.06844e-05
2.61996e-05
3.38521e-05
3.38546e-05
3.38545e-05
3.38569e-05
8.06891e-05
8.06885e-05
2.53084e-05
2.69978e-05
2.84635e-05
2.67243e-05
2.53093e-05
2.69977e-05
2.84597e-05
2.88756e-05
6.96631e-05
2.88783e-05
6.96611e-05
2.88754e-05
6.96653e-05
2.88783e-05
6.96641e-05
2.53089e-05
2.6724e-05
2.69975e-05
2.84591e-05
2.69976e-05
2.84632e-05
2.53076e-05
2.53084e-05
2.67241e-05
2.69975e-05
2.84593e-05
2.69976e-05
2.84635e-05
2.53076e-05
2.8878e-05
6.96626e-05
6.96631e-05
2.88747e-05
2.88779e-05
6.96664e-05
6.96664e-05
2.88746e-05
8.06873e-05
8.06877e-05
8.06868e-05
8.06872e-05
2.61996e-05
3.38545e-05
3.3856e-05
3.38565e-05
3.3858e-05
8.06888e-05
8.06892e-05
8.06884e-05
8.06886e-05
8.06898e-05
8.0688e-05
8.06893e-05
8.06883e-05
3.38562e-05
3.38576e-05
2.62012e-05
3.38536e-05
3.38553e-05
8.0687e-05
8.06886e-05
8.06869e-05
8.06888e-05
2.61968e-05
3.38505e-05
3.3853e-05
3.38547e-05
3.38566e-05
2.88741e-05
6.96695e-05
2.88779e-05
6.96694e-05
2.53061e-05
2.84626e-05
2.69973e-05
2.67227e-05
2.53081e-05
2.84573e-05
2.69964e-05
2.53062e-05
2.84636e-05
2.69972e-05
2.67212e-05
2.53082e-05
2.84576e-05
2.69961e-05
2.88755e-05
6.96672e-05
6.96679e-05
2.88703e-05
2.88758e-05
6.96704e-05
6.96715e-05
2.88707e-05
2.53052e-05
2.67208e-05
2.84537e-05
2.69926e-05
2.84604e-05
2.69945e-05
2.52997e-05
2.53052e-05
2.67191e-05
2.84537e-05
2.69922e-05
2.84605e-05
2.69941e-05
2.52997e-05
3.38579e-05
3.38525e-05
2.6199e-05
3.38542e-05
3.38487e-05
8.06856e-05
8.06837e-05
8.06866e-05
8.0688e-05
2.61941e-05
3.38503e-05
3.38446e-05
3.38551e-05
3.38499e-05
8.06828e-05
8.06845e-05
2.5308e-05
2.84639e-05
2.69977e-05
2.67237e-05
2.5309e-05
2.84593e-05
2.69973e-05
2.88756e-05
6.9663e-05
2.88786e-05
6.96634e-05
2.53079e-05
2.69975e-05
2.84632e-05
2.6723e-05
2.53088e-05
2.69971e-05
2.84583e-05
2.88778e-05
6.96695e-05
6.96694e-05
2.88733e-05
2.53077e-05
2.67223e-05
2.84564e-05
2.69942e-05
2.84626e-05
2.69962e-05
2.53035e-05
2.88774e-05
6.96662e-05
6.96661e-05
2.88729e-05
2.53075e-05
2.67219e-05
2.69942e-05
2.84555e-05
2.69961e-05
2.8462e-05
2.53033e-05
2.8874e-05
6.96668e-05
2.88778e-05
6.96666e-05
2.53061e-05
2.69972e-05
2.84623e-05
2.67222e-05
2.5308e-05
2.69962e-05
2.8457e-05
2.88738e-05
6.96666e-05
2.88776e-05
6.96672e-05
2.53051e-05
2.67195e-05
2.84523e-05
2.69923e-05
2.84594e-05
2.69941e-05
2.52998e-05
2.88757e-05
6.96676e-05
6.96689e-05
2.88706e-05
2.53051e-05
2.67201e-05
2.69924e-05
2.84534e-05
2.69943e-05
2.84601e-05
2.52997e-05
2.88755e-05
6.96689e-05
6.96695e-05
2.88704e-05
3.38539e-05
3.38562e-05
2.62013e-05
3.38514e-05
3.38541e-05
8.06901e-05
8.06886e-05
8.06834e-05
8.06855e-05
2.61971e-05
3.38494e-05
3.38521e-05
3.38531e-05
3.38555e-05
8.06872e-05
8.0689e-05
2.53055e-05
2.69972e-05
2.84629e-05
2.67224e-05
2.53074e-05
2.69963e-05
2.84576e-05
2.88732e-05
6.96651e-05
2.88772e-05
6.9666e-05
2.8873e-05
6.9669e-05
2.88771e-05
6.96694e-05
2.53048e-05
2.67219e-05
2.69929e-05
2.84547e-05
2.69948e-05
2.84611e-05
2.52994e-05
2.53047e-05
2.67204e-05
2.69925e-05
2.8454e-05
2.69944e-05
2.84607e-05
2.52992e-05
2.88752e-05
6.96686e-05
6.96686e-05
2.88698e-05
2.88751e-05
6.96711e-05
6.96717e-05
2.88696e-05
8.06896e-05
8.06879e-05
8.06891e-05
8.06874e-05
2.61956e-05
3.38503e-05
3.38517e-05
3.38545e-05
3.38559e-05
8.06868e-05
8.06884e-05
8.06864e-05
8.0688e-05
8.06875e-05
8.06874e-05
8.06873e-05
8.06869e-05
3.38513e-05
3.38538e-05
2.6194e-05
3.38473e-05
3.38494e-05
8.06906e-05
8.06871e-05
8.06899e-05
8.06865e-05
2.61903e-05
3.38456e-05
3.38468e-05
3.38485e-05
3.38504e-05
2.88678e-05
6.96718e-05
2.88723e-05
6.96711e-05
2.52979e-05
2.84566e-05
2.69912e-05
2.6716e-05
2.52991e-05
2.84504e-05
2.69903e-05
2.5298e-05
2.84567e-05
2.69909e-05
2.67155e-05
2.52992e-05
2.84508e-05
2.69902e-05
2.88696e-05
6.96703e-05
6.96684e-05
2.88662e-05
2.887e-05
6.96733e-05
6.96714e-05
2.88666e-05
2.52982e-05
2.67153e-05
2.84478e-05
2.69896e-05
2.84536e-05
2.69897e-05
2.52976e-05
2.52984e-05
2.67151e-05
2.84485e-05
2.69896e-05
2.84542e-05
2.69897e-05
2.52977e-05
3.38513e-05
3.38457e-05
2.61932e-05
3.38477e-05
3.38417e-05
8.06836e-05
8.06833e-05
8.06903e-05
8.06868e-05
2.61898e-05
3.38467e-05
3.38404e-05
3.38493e-05
3.38434e-05
8.0687e-05
8.0683e-05
2.52986e-05
2.84592e-05
2.69924e-05
2.67168e-05
2.53023e-05
2.84525e-05
2.69911e-05
2.88694e-05
6.96682e-05
2.88742e-05
6.96678e-05
2.52984e-05
2.69923e-05
2.84586e-05
2.67164e-05
2.53021e-05
2.6991e-05
2.84515e-05
2.88715e-05
6.96733e-05
6.96716e-05
2.88678e-05
2.52988e-05
2.67158e-05
2.84491e-05
2.69897e-05
2.84554e-05
2.69901e-05
2.52981e-05
2.88711e-05
6.967e-05
6.96684e-05
2.88674e-05
2.52985e-05
2.67153e-05
2.69896e-05
2.8448e-05
2.699e-05
2.84547e-05
2.52979e-05
2.88677e-05
6.96692e-05
2.88722e-05
6.96683e-05
2.52979e-05
2.6991e-05
2.84563e-05
2.67158e-05
2.52991e-05
2.69902e-05
2.84502e-05
2.88676e-05
6.96704e-05
2.8872e-05
6.96698e-05
2.52984e-05
2.67155e-05
2.8447e-05
2.69896e-05
2.84529e-05
2.69898e-05
2.52978e-05
2.88699e-05
6.96705e-05
6.96688e-05
2.88665e-05
2.52982e-05
2.67152e-05
2.69896e-05
2.84476e-05
2.69897e-05
2.84534e-05
2.52976e-05
2.88697e-05
6.9672e-05
6.96701e-05
2.88663e-05
3.38505e-05
3.3853e-05
2.61942e-05
3.38457e-05
3.38486e-05
8.06876e-05
8.06874e-05
8.06869e-05
8.0683e-05
2.61902e-05
3.38427e-05
3.3846e-05
3.38469e-05
3.38496e-05
8.06905e-05
8.0687e-05
2.52971e-05
2.69911e-05
2.84569e-05
2.67161e-05
2.52985e-05
2.69902e-05
2.84508e-05
2.88666e-05
6.96704e-05
2.88712e-05
6.96701e-05
2.88665e-05
6.96727e-05
2.88714e-05
6.9672e-05
2.52974e-05
2.67157e-05
2.69895e-05
2.8448e-05
2.69898e-05
2.84542e-05
2.5297e-05
2.52975e-05
2.67155e-05
2.69895e-05
2.84481e-05
2.69896e-05
2.8454e-05
2.52968e-05
2.88686e-05
6.96724e-05
6.96705e-05
2.88649e-05
2.88689e-05
6.96743e-05
6.96724e-05
2.88652e-05
8.06873e-05
8.06872e-05
8.06869e-05
8.06868e-05
2.61901e-05
3.38454e-05
3.38468e-05
3.38484e-05
3.38498e-05
8.06904e-05
8.06869e-05
8.069e-05
8.06864e-05
8.06862e-05
8.06923e-05
8.06855e-05
8.06916e-05
3.38478e-05
3.3849e-05
2.61932e-05
3.38457e-05
3.38466e-05
8.06933e-05
8.06821e-05
8.06925e-05
8.06814e-05
2.61899e-05
3.38446e-05
3.38455e-05
3.38491e-05
3.385e-05
2.88659e-05
6.96725e-05
2.8869e-05
6.96763e-05
2.52976e-05
2.84516e-05
2.69897e-05
2.67152e-05
2.52979e-05
2.84451e-05
2.69897e-05
2.52978e-05
2.84524e-05
2.69897e-05
2.67152e-05
2.5298e-05
2.8446e-05
2.69897e-05
2.88682e-05
6.96766e-05
6.96712e-05
2.88652e-05
2.88685e-05
6.96796e-05
6.96743e-05
2.88656e-05
2.52982e-05
2.67152e-05
2.84431e-05
2.69896e-05
2.84507e-05
2.69897e-05
2.52978e-05
2.52984e-05
2.67152e-05
2.84441e-05
2.69896e-05
2.84517e-05
2.69897e-05
2.52979e-05
3.38491e-05
3.3843e-05
2.61932e-05
3.38471e-05
3.38407e-05
8.06832e-05
8.069e-05
8.06929e-05
8.06819e-05
2.61899e-05
3.3846e-05
3.38397e-05
3.38506e-05
3.38444e-05
8.06919e-05
8.06804e-05
2.52982e-05
2.84528e-05
2.69897e-05
2.67155e-05
2.52984e-05
2.84461e-05
2.69897e-05
2.88664e-05
6.96694e-05
2.88694e-05
6.96728e-05
2.52979e-05
2.69896e-05
2.8452e-05
2.67149e-05
2.52981e-05
2.69896e-05
2.8445e-05
2.88691e-05
6.96796e-05
6.96743e-05
2.88664e-05
2.52987e-05
2.67155e-05
2.84441e-05
2.69896e-05
2.84517e-05
2.69897e-05
2.52982e-05
2.88687e-05
6.96761e-05
6.9671e-05
2.88659e-05
2.52985e-05
2.67149e-05
2.69895e-05
2.84429e-05
2.69896e-05
2.84508e-05
2.5298e-05
2.88658e-05
6.96699e-05
2.88689e-05
6.96735e-05
2.52977e-05
2.69897e-05
2.84514e-05
2.67152e-05
2.52979e-05
2.69897e-05
2.84449e-05
2.88657e-05
6.96712e-05
2.88687e-05
6.96749e-05
2.52982e-05
2.67156e-05
2.84426e-05
2.69896e-05