/*--------------------------------*- C++ -*----------------------------------*\
| =========                 |                                                 |
| \\      /  F ield         | OpenFOAM: The Open Source CFD Toolbox           |
|  \\    /   O peration     | Version:  2206                                  |
|   \\  /    A nd           | Website:  www.openfoam.com                      |
|    \\/     M anipulation  |                                                 |
\*---------------------------------------------------------------------------*/
FoamFile
{
    version     2.0;
    format      ascii;
    arch        "LSB;label=32;scalar=64";
    class       surfaceScalarField;
    location    "25.5";
    object      phi;
}
// * * * * * * * * * * * * * * * * * * * * * * * * * * * * * * * * * * * * * //

dimensions      [0 3 -1 0 0 0 0];

oriented        oriented;

internalField   nonuniform List<scalar> 
83378
(
-0.0010832
-1.19966e-06
-1.51711e-09
2.61337e-09
0.0010832
-2.48711e-07
1.20216e-06
2.47667e-07
8.84666e-07
-2.47882e-07
-8.8441e-07
2.45076e-07
1.22786e-06
1.1944e-06
-2.27721e-07
-2.32988e-07
0.000264239
1.50122e-09
1.53193e-09
-0.00108306
-1.44395e-09
-1.5347e-09
0.00108306
-0.0010832
-1.19964e-06
-1.64817e-09
2.53165e-09
0.00108319
-2.48671e-07
1.20217e-06
2.47694e-07
8.84694e-07
-2.47808e-07
-8.84364e-07
2.45134e-07
-0.00108285
-1.19427e-06
-1.61086e-09
2.63041e-09
0.00108285
-2.48688e-07
1.19675e-06
2.47684e-07
8.8452e-07
-2.50473e-07
-8.84244e-07
2.47805e-07
-0.000266201
1.22785e-06
1.19438e-06
-2.27692e-07
-2.32967e-07
0.000264239
1.60678e-09
1.6516e-09
-0.00108306
-1.49312e-09
-1.58033e-09
0.00108306
-0.00108319
-1.19961e-06
-1.7476e-09
2.50314e-09
0.00108319
-2.48634e-07
1.20221e-06
2.47741e-07
8.84744e-07
-2.47762e-07
-8.84328e-07
2.45195e-07
-0.00108285
-1.19425e-06
-1.73833e-09
2.57114e-09
0.00108285
-2.48653e-07
1.19678e-06
2.47723e-07
8.84572e-07
-2.50411e-07
-8.84205e-07
2.47877e-07
-0.000266201
1.22782e-06
1.19435e-06
-2.27656e-07
-2.32927e-07
0.000264239
1.73358e-09
1.94608e-09
-0.00108306
-1.6547e-09
-1.62885e-09
0.00108306
-0.00108319
-1.19957e-06
-1.77706e-09
2.52016e-09
0.00108319
-2.48605e-07
1.20224e-06
2.4777e-07
8.84798e-07
-2.47714e-07
-8.84291e-07
2.45257e-07
-0.00108285
-1.19419e-06
-1.95571e-09
2.40305e-09
0.00108285
-2.48594e-07
1.19685e-06
2.47803e-07
8.84644e-07
-2.50361e-07
-8.84165e-07
2.47966e-07
-0.0002662
1.22776e-06
1.1943e-06
-2.27605e-07
-2.32872e-07
0.000264239
2.11449e-09
2.42973e-09
-0.00108306
-1.95144e-09
-1.71059e-09
0.00108306
-0.00108319
-1.19948e-06
-1.96656e-09
2.50024e-09
0.00108319
-2.4856e-07
1.20232e-06
2.4781e-07
8.84936e-07
-2.4765e-07
-8.84194e-07
2.45348e-07
-0.00108285
-1.19414e-06
-2.36726e-09
2.12335e-09
0.00108285
-2.48498e-07
1.19696e-06
2.47928e-07
8.84793e-07
-2.50289e-07
-8.84084e-07
2.48105e-07
-0.0002662
1.22763e-06
1.19422e-06
-2.27518e-07
-2.32747e-07
0.000264238
-2.4314e-11
3.47866e-10
-0.00108306
-9.49768e-10
-7.99149e-10
0.00108306
-0.00108319
-1.19995e-06
-3.86432e-10
2.87607e-09
0.00108319
-2.49038e-07
1.202e-06
2.47499e-07
8.84186e-07
-2.48563e-07
-8.85005e-07
2.44505e-07
-0.00108285
-1.19455e-06
-2.58432e-10
3.01041e-09
0.00108285
-2.48983e-07
1.19646e-06
2.47349e-07
8.84033e-07
-2.51085e-07
-8.84801e-07
2.47167e-07
-0.000266199
1.22823e-06
1.19481e-06
-2.28246e-07
-2.33472e-07
0.000264238
1.71903e-09
1.45324e-09
-0.00108306
-1.40279e-09
-1.70008e-09
0.00108306
-0.0010832
-1.19952e-06
-1.84793e-09
2.19175e-09
0.0010832
-2.48546e-07
1.20219e-06
2.47719e-07
8.84341e-07
-2.47246e-07
-8.83997e-07
2.44299e-07
-0.00108285
-1.19423e-06
-1.64376e-09
2.49341e-09
0.00108286
-2.4861e-07
1.19673e-06
2.47679e-07
8.84093e-07
-2.50015e-07
-8.83958e-07
2.46893e-07
-0.000266201
1.22774e-06
1.19423e-06
-2.27502e-07
-2.32812e-07
0.000264239
1.28297e-09
1.39044e-09
-0.00108306
-1.66336e-09
-1.68103e-09
0.00108306
-0.0010832
-1.19889e-06
-1.40516e-09
2.21129e-09
0.0010832
-2.47765e-07
1.20131e-06
2.4643e-07
8.8196e-07
-2.43704e-07
-8.81975e-07
2.40669e-07
-0.00108286
-1.1935e-06
-1.43741e-09
2.1953e-09
0.00108286
-2.4771e-07
1.19591e-06
2.46425e-07
8.81791e-07
-2.46342e-07
-8.81853e-07
2.43357e-07
-0.000266202
1.2271e-06
1.19363e-06
-2.2626e-07
-2.31535e-07
0.000264239
-2.1184e-09
-2.01863e-09
-0.00108306
-3.4208e-10
-3.32268e-10
0.00108307
-0.0010832
-1.19913e-06
2.00536e-09
3.9144e-09
0.00108319
-2.47129e-07
1.20104e-06
2.45804e-07
8.84857e-07
-2.46339e-07
-8.85547e-07
2.42085e-07
-0.00108285
-1.19375e-06
1.98719e-09
3.91703e-09
0.00108285
-2.47088e-07
1.19564e-06
2.45783e-07
8.84667e-07
-2.48974e-07
-8.85405e-07
2.44759e-07
-0.000266202
1.22733e-06
1.19387e-06
-2.26186e-07
-2.31455e-07
0.000264238
-6.97589e-09
-6.88445e-09
-0.00108306
9.22438e-10
9.6301e-10
0.00108307
-0.0010832
-1.19669e-06
6.88407e-09
6.1622e-09
0.0010832
-2.433e-07
1.19788e-06
2.40704e-07
8.77148e-07
-2.36256e-07
-8.79073e-07
2.30827e-07
-0.00108286
-1.19131e-06
6.85461e-09
6.15682e-09
0.00108285
-2.43302e-07
1.19248e-06
2.40721e-07
8.76966e-07
-2.38919e-07
-8.78892e-07
2.33534e-07
-0.000266206
1.2249e-06
1.19143e-06
-2.20809e-07
-2.26073e-07
0.000264236
-1.12751e-09
-9.69893e-10
-0.00108306
-3.03848e-09
-8.03976e-09
0.00108307
-0.0010832
-1.1926e-06
6.05314e-09
2.71392e-09
0.00108321
-2.3807e-07
1.19397e-06
2.37939e-07
8.70334e-07
-2.27935e-07
-8.73609e-07
2.17982e-07
-0.00108287
-1.18454e-06
9.53192e-10
7.7372e-09
0.00108288
-2.38001e-07
1.18591e-06
2.35228e-07
8.67485e-07
-2.27874e-07
-8.70737e-07
2.20689e-07
-0.000266215
1.22344e-06
1.18732e-06
-2.11164e-07
-2.16372e-07
0.000264232
8.21359e-07
8.2833e-07
-0.00108292
-7.04973e-07
-6.94869e-07
0.00108267
-0.00108347
-1.09681e-06
-8.22534e-07
-3.61935e-07
0.00108378
-1.55064e-07
1.35194e-06
3.28984e-07
1.01309e-06
-1.1799e-07
-7.62251e-07
3.14774e-07
-0.00108314
-1.08863e-06
-8.33194e-07
-3.72807e-07
0.00108347
-1.54922e-07
1.34667e-06
3.31834e-07
1.01015e-06
-1.23401e-07
-7.59371e-07
3.17497e-07
-0.000266292
1.13032e-06
1.0888e-06
-1.22055e-07
-1.24571e-07
0.000264319
4.95919e-06
4.95255e-06
-0.00106899
-1.05689e-05
-1.0472e-05
0.000259485
0.000262876
0.000261954
0.000261954
4.02141e-06
6.30302e-06
6.59864e-06
4.02514e-06
6.30377e-06
6.60199e-06
-0.000267971
5.12198e-06
-4.94992e-06
5.71537e-06
-3.25166e-06
0.000265336
-0.000267948
-4.95213e-06
5.1272e-06
-3.25955e-06
5.71242e-06
0.00026532
-0.000266736
-5.119e-06
-5.13001e-06
5.73471e-06
5.72286e-06
0.000265528
1.24108e-06
0.00108285
-1.23863e-06
2.55801e-07
-2.5691e-07
2.47745e-07
-2.50706e-07
-1.20216e-06
0.000266246
-0.000264265
2.30417e-07
2.32703e-07
-1.19966e-06
2.47669e-07
-2.48704e-07
2.45062e-07
-2.47888e-07
-1.23563e-06
-1.19952e-06
0.000266217
-0.000264245
2.27662e-07
2.35423e-07
2.7619e-09
0.00108241
-2.54135e-07
2.53001e-07
8.84568e-07
-2.47857e-07
-8.84379e-07
2.44968e-07
-1.23863e-06
-1.30449e-09
2.75267e-09
0.00108285
-2.56917e-07
1.24108e-06
2.558e-07
8.90144e-07
-2.507e-07
-8.89988e-07
2.4776e-07
0.00108241
-1.52866e-09
-0.00108241
2.76927e-09
-1.23319e-06
2.53009e-07
-2.54126e-07
-8.84321e-07
2.45035e-07
-2.47784e-07
8.84613e-07
1.24109e-06
0.00108285
-1.40388e-09
-0.00108285
2.67611e-09
-1.23861e-06
2.55827e-07
-2.56881e-07
-8.89942e-07
2.4781e-07
-2.50635e-07
8.90175e-07
-2.27935e-07
-2.30238e-07
0.000264265
-1.20217e-06
0.000266246
-0.000264265
2.30442e-07
2.32729e-07
0.00108346
-1.52844e-09
-0.00108346
2.55358e-09
-1.19703e-06
2.50479e-07
-2.51475e-07
-8.87101e-07
2.47862e-07
-2.50621e-07
8.87448e-07
1.23569e-06
0.00108253
-1.37549e-09
-0.00108253
2.76171e-09
-1.23325e-06
2.55781e-07
-2.56899e-07
-8.87095e-07
2.47769e-07
-2.50584e-07
8.87297e-07
-1.39643e-09
2.75078e-09
0.00108232
-2.51344e-07
1.2303e-06
2.50271e-07
8.84583e-07
-2.47865e-07
2.44962e-07
-8.84427e-07
-1.62755e-09
-0.0010832
2.54244e-09
-1.19964e-06
2.47693e-07
-2.48676e-07
-8.84363e-07
2.45127e-07
8.84698e-07
-2.47819e-07
1.23031e-06
0.00108232
-1.49129e-09
-0.00108232
2.73635e-09
-1.22785e-06
2.50283e-07
-2.51331e-07
-8.84379e-07
2.4502e-07
-2.47801e-07
8.8462e-07
-1.19674e-06
0.000266196
-0.000264226
2.27835e-07
2.35221e-07
-1.35553e-09
2.59017e-09
0.00108337
-2.48767e-07
1.19684e-06
2.47722e-07
8.84766e-07
-2.50672e-07
2.47787e-07
-8.84532e-07
-1.61291e-09
-0.00108285
2.64054e-09
-1.19428e-06
2.47677e-07
-2.48697e-07
-8.84194e-07
2.47776e-07
8.84582e-07
-2.50507e-07
1.19686e-06
0.00108337
-1.42751e-09
-0.00108337
2.53577e-09
-1.19439e-06
2.47741e-07
-2.48748e-07
-8.84491e-07
2.4784e-07
-2.50612e-07
8.84796e-07
-0.000264239
2.30171e-07
2.35458e-07
1.23318e-06
1.19703e-06
-2.25175e-07
-2.32934e-07
0.000264244
-1.23565e-06
-1.19955e-06
0.000266216
-0.000264244
2.27696e-07
2.35458e-07
2.76706e-09
0.00108241
-2.54117e-07
1.23563e-06
2.53017e-07
8.84589e-07
-2.47783e-07
-8.84343e-07
2.45032e-07
-1.2386e-06
-1.42407e-09
2.66026e-09
0.00108285
-2.56875e-07
1.2411e-06
2.5583e-07
8.90169e-07
-2.50628e-07
-8.89945e-07
2.47814e-07
0.00108241
-1.65636e-09
-0.00108241
2.70685e-09
-1.23316e-06
2.53046e-07
-2.5409e-07
-8.84287e-07
2.45097e-07
-2.47729e-07
8.84663e-07
1.24112e-06
0.00108285
-1.50731e-09
-0.00108285
2.62294e-09
-1.23858e-06
2.5587e-07
-2.56842e-07
-8.89915e-07
2.47868e-07
-2.50587e-07
8.90213e-07
-2.27902e-07
-2.302e-07
0.000264265
-1.2022e-06
0.000266245
-0.000264265
2.30484e-07
2.32768e-07
2.54956e-09
0.00108346
-2.51466e-07
1.19952e-06
2.50482e-07
8.87448e-07
-2.50611e-07
-8.87091e-07
2.47873e-07
-1.23325e-06
-1.39266e-09
2.76127e-09
0.00108253
-2.56888e-07
1.23569e-06
2.55786e-07
8.87296e-07
-2.50568e-07
-8.87086e-07
2.47777e-07
0.00108346
-1.64645e-09
-0.00108346
2.49941e-09
-1.19701e-06
2.50516e-07
-2.5144e-07
-8.87084e-07
2.47916e-07
-2.50571e-07
8.87469e-07
1.23571e-06
0.00108252
-1.49015e-09
-0.00108252
2.70236e-09
-1.23323e-06
2.55814e-07
-2.56868e-07
-8.87072e-07
2.47821e-07
-2.50539e-07
8.87328e-07
-1.50423e-09
2.73585e-09
0.00108232
-2.51324e-07
1.23031e-06
2.50287e-07
8.84614e-07
-2.47791e-07
2.45027e-07
-8.84381e-07
-1.73809e-09
-0.00108319
2.49886e-09
-1.19961e-06
2.47735e-07
-2.48639e-07
-8.84334e-07
2.45185e-07
8.84739e-07
-2.4777e-07
1.23034e-06
0.00108232
-1.61755e-09
-0.00108232
2.67058e-09
-1.22783e-06
2.50325e-07
-2.51293e-07
-8.84349e-07
2.45086e-07
-2.47743e-07
8.8466e-07
-2.25372e-07
-2.32739e-07
0.000264226
-1.19676e-06
0.000266195
-0.000264226
2.27866e-07
2.35255e-07
-1.42138e-09
2.52675e-09
0.00108337
-2.48739e-07
1.19686e-06
2.47747e-07
8.84786e-07
-2.50606e-07
2.47842e-07
-8.84496e-07
-1.74546e-09
-0.00108285
2.59137e-09
-1.19426e-06
2.47709e-07
-2.48666e-07
-8.84169e-07
2.47843e-07
8.84617e-07
-2.5045e-07
1.19689e-06
0.00108337
-1.57664e-09
-0.00108337
2.47004e-09
-1.19436e-06
2.47782e-07
-2.48709e-07
-8.84445e-07
2.47908e-07
-2.50553e-07
8.84853e-07
-0.000264239
2.30211e-07
2.355e-07
1.23316e-06
1.197e-06
-2.2514e-07
-2.32901e-07
0.000264244
-1.23572e-06
-1.1996e-06
0.000266216
-0.000264244
2.27756e-07
2.35528e-07
2.72003e-09
0.00108241
-2.54086e-07
1.23566e-06
2.53053e-07
8.84654e-07
-2.4773e-07
-8.8429e-07
2.45096e-07
-1.23857e-06
-1.52709e-09
2.62892e-09
0.00108285
-2.56838e-07
1.24112e-06
2.55876e-07
8.9022e-07
-2.50578e-07
-8.89908e-07
2.47878e-07
0.00108241
-1.92649e-09
-0.00108241
2.55953e-09
-1.23312e-06
2.53116e-07
-2.54042e-07
-8.8423e-07
2.4519e-07
-2.4766e-07
8.84734e-07
1.24119e-06
0.00108285
-1.73144e-09
-0.00108285
2.54457e-09
-1.23853e-06
2.55935e-07
-2.56797e-07
-8.89852e-07
2.47972e-07
-2.50507e-07
8.90297e-07
-2.27865e-07
-2.30171e-07
0.000264265
-1.20227e-06
0.000266245
-0.000264265
2.30557e-07
2.32845e-07
2.50068e-09
0.00108346
-2.51426e-07
1.19956e-06
2.50531e-07
8.8749e-07
-2.50565e-07
-8.87066e-07
2.47931e-07
-1.23321e-06
-1.54386e-09
2.6915e-09
0.00108252
-2.5685e-07
1.23572e-06
2.55829e-07
8.87355e-07
-2.5051e-07
-8.87042e-07
2.47849e-07
0.00108346
-1.91689e-09
-0.00108346
2.38662e-09
-1.19696e-06
2.50577e-07
-2.51387e-07
-8.87022e-07
2.48008e-07
-2.5051e-07
8.8755e-07
1.23575e-06
0.00108252
-1.72554e-09
-0.00108252
2.60374e-09
-1.23318e-06
2.55868e-07
-2.56815e-07
-8.8702e-07
2.47902e-07
-2.50469e-07
8.87387e-07
-1.59609e-09
2.69007e-09
0.00108232
-2.51289e-07
1.23034e-06
2.50328e-07
8.84659e-07
-2.4774e-07
2.45089e-07
-8.84346e-07
-1.94639e-09
-0.00108319
2.40329e-09
-1.19956e-06
2.47802e-07
-2.48592e-07
-8.84274e-07
2.4529e-07
8.8482e-07
-2.4769e-07
1.2304e-06
0.00108232
-1.87267e-09
-0.00108232
2.53476e-09
-1.22778e-06
2.5039e-07
-2.51248e-07
-8.84297e-07
2.45175e-07
-2.47683e-07
8.84729e-07
-2.25339e-07
-2.32703e-07
0.000264226
-1.19681e-06
0.000266195
-0.000264226
2.27932e-07
2.35313e-07
-1.54216e-09
2.49021e-09
0.00108337
-2.48706e-07
1.19689e-06
2.47786e-07
8.84845e-07
-2.50551e-07
2.47908e-07
-8.84445e-07
-1.989e-09
-0.00108285
2.48102e-09
-1.19422e-06
2.4777e-07
-2.48616e-07
-8.84117e-07
2.47918e-07
8.84678e-07
-2.50385e-07
1.19694e-06
0.00108336
-1.85259e-09
-0.00108336
2.35211e-09
-1.19432e-06
2.47848e-07
-2.48663e-07
-8.84405e-07
2.47997e-07
-2.50494e-07
8.84914e-07
-0.000264239
2.30268e-07
2.35559e-07
1.2331e-06
1.19696e-06
-2.25096e-07
-2.32835e-07
0.000264244
-1.23581e-06
-1.19962e-06
0.000266215
-0.000264243
2.27791e-07
2.35617e-07
2.56335e-09
0.00108241
-2.54021e-07
1.23574e-06
2.53136e-07
8.84724e-07
-2.47673e-07
-8.84252e-07
2.45184e-07
-1.23853e-06
-1.57726e-09
2.67232e-09
0.00108285
-2.56811e-07
1.24116e-06
2.55902e-07
8.90277e-07
-2.50531e-07
-8.89868e-07
2.47941e-07
0.00108241
-2.12176e-09
-0.00108241
2.35438e-09
-1.23307e-06
2.53231e-07
-2.53989e-07
-8.84233e-07
2.45263e-07
-2.47653e-07
8.84805e-07
1.24133e-06
0.00108285
-2.11682e-09
-0.00108285
2.34776e-09
-1.23845e-06
2.56062e-07
-2.56724e-07
-8.89784e-07
2.48111e-07
-2.50439e-07
8.90441e-07
-2.27803e-07
-2.30103e-07
0.000264265
-1.20242e-06
0.000266244
-0.000264264
2.30711e-07
2.32986e-07
2.41541e-09
0.00108346
-2.51385e-07
1.19961e-06
2.5059e-07
8.87578e-07
-2.50475e-07
-8.86997e-07
2.48048e-07
-1.23317e-06
-1.84804e-09
2.56203e-09
0.00108252
-2.56804e-07
1.23578e-06
2.55898e-07
8.87423e-07
-2.50446e-07
-8.86998e-07
2.47945e-07
0.00108346
-2.07207e-09
-0.00108346
2.3914e-09
-1.19699e-06
2.50598e-07
-2.51417e-07
-8.86991e-07
2.48108e-07
-2.50455e-07
8.87617e-07
1.23575e-06
0.00108252
-1.74257e-09
-0.00108252
2.62428e-09
-1.2332e-06
2.5587e-07
-2.56844e-07
-8.87015e-07
2.47945e-07
-2.50463e-07
8.87416e-07
-1.71425e-09
2.5691e-09
0.00108232
-2.51234e-07
1.23042e-06
2.50407e-07
8.84735e-07
-2.47681e-07
2.45182e-07
-8.84304e-07
-2.29115e-09
-0.00108319
2.18302e-09
-1.19947e-06
2.47936e-07
-2.48513e-07
-8.84215e-07
2.45416e-07
8.84954e-07
-2.47632e-07
1.2305e-06
0.00108232
-2.06666e-09
-0.00108232
2.33024e-09
-1.22775e-06
2.50502e-07
-2.51207e-07
-8.8429e-07
2.45264e-07
-2.47663e-07
8.84815e-07
-2.2528e-07
-2.32657e-07
0.000264226
-1.19685e-06
0.000266197
-0.000264225
2.27975e-07
2.32778e-07
-1.73813e-09
2.43566e-09
0.00108336
-2.48654e-07
1.19695e-06
2.47858e-07
8.84932e-07
-2.50484e-07
2.48014e-07
-8.844e-07
-2.09154e-09
-0.00108285
2.41608e-09
-1.1942e-06
2.47787e-07
-2.48607e-07
-8.84124e-07
2.47973e-07
8.84729e-07
-2.50386e-07
1.19701e-06
0.00108336
-2.1677e-09
-0.00108336
2.2749e-09
-1.19431e-06
2.47921e-07
-2.48658e-07
-8.84363e-07
2.48116e-07
-2.50447e-07
8.85035e-07
-0.000264238
2.30334e-07
2.3566e-07
1.23298e-06
1.1969e-06
-2.25031e-07
-2.32746e-07
0.000264243
-1.23545e-06
-1.1991e-06
0.000266215
-0.000264243
2.27158e-07
2.35185e-07
2.09973e-09
0.00108241
-2.53898e-07
1.23591e-06
2.53307e-07
8.84878e-07
-2.47597e-07
-8.84161e-07
2.4533e-07
-1.23846e-06
-1.8116e-09
2.68991e-09
0.00108284
-2.56775e-07
1.24123e-06
2.55934e-07
8.90426e-07
-2.50453e-07
-8.89761e-07
2.48047e-07
0.00108241
1.4866e-10
-0.00108241
3.08936e-09
-1.23334e-06
2.5277e-07
-2.54376e-07
-8.84894e-07
2.44378e-07
-2.48393e-07
8.84047e-07
1.24074e-06
0.00108285
1.87518e-10
-0.00108284
3.62655e-09
-1.23904e-06
2.55418e-07
-2.57406e-07
-8.90546e-07
2.47135e-07
-2.5135e-07
8.89607e-07
-2.27695e-07
-2.30008e-07
0.000264264
-1.20183e-06
0.000266244
-0.000264264
2.29972e-07
2.32254e-07
2.28802e-09
0.00108346
-2.51344e-07
1.19973e-06
2.50692e-07
8.87727e-07
-2.50388e-07
-8.86917e-07
2.48179e-07
-1.23314e-06
-2.20124e-09
2.35623e-09
0.00108252
-2.56772e-07
1.23588e-06
2.56002e-07
8.87547e-07
-2.50392e-07
-8.86951e-07
2.4807e-07
0.00108346
-8.54608e-10
-0.00108346
3.53755e-09
-1.19743e-06
2.49997e-07
-2.51941e-07
-8.87268e-07
2.47655e-07
-2.50789e-07
8.87222e-07
1.23547e-06
0.00108252
-9.21128e-10
-0.00108252
3.17728e-09
-1.2334e-06
2.55543e-07
-2.57078e-07
-8.87216e-07
2.47593e-07
-2.50682e-07
8.87101e-07
-2.07518e-09
2.1471e-09
0.00108232
-2.51115e-07
1.2306e-06
2.5057e-07
8.8489e-07
-2.47597e-07
2.45321e-07
-8.84205e-07
8.55562e-11
-0.00108319
3.40695e-09
-1.20006e-06
2.4729e-07
-2.49192e-07
-8.84978e-07
2.44443e-07
8.84118e-07
-2.48539e-07
1.23e-06
0.00108232
1.50268e-10
-0.00108232
3.32637e-09
-1.22816e-06
2.49924e-07
-2.5171e-07
-8.84938e-07
2.444e-07
-2.48389e-07
8.8407e-07
-2.25238e-07
-2.30102e-07
0.000264225
-1.19667e-06
0.000266197
-0.000264225
2.27719e-07
2.32403e-07
-2.32506e-09
2.27415e-09
0.00108336
-2.48583e-07
1.19708e-06
2.4797e-07
8.85132e-07
-2.50364e-07
2.48191e-07
-8.84259e-07
-5.40522e-10
-0.00108285
2.67772e-09
-1.1943e-06
2.47536e-07
-2.48769e-07
-8.84592e-07
2.47397e-07
8.84169e-07
-2.50822e-07
1.19646e-06
0.00108336
-5.37702e-11
-0.00108336
3.54882e-09
-1.19478e-06
2.47298e-07
-2.49212e-07
-8.84972e-07
2.47283e-07
-2.51131e-07
8.84313e-07
-0.000264238
2.29686e-07
2.35038e-07
1.23349e-06
1.1975e-06
-2.25758e-07
-2.33337e-07
0.000264243
-1.23556e-06
-1.19959e-06
0.000266217
-0.000264244
2.27639e-07
2.35263e-07
3.20925e-09
0.00108241
-2.54481e-07
1.23536e-06
2.52718e-07
8.84057e-07
-2.48585e-07
-8.84984e-07
2.4429e-07
-1.23892e-06
-1.83017e-10
3.03184e-09
0.00108285
-2.57248e-07
1.24091e-06
2.55626e-07
8.89671e-07
-2.51373e-07
-8.90573e-07
2.47195e-07
0.00108241
-1.21577e-09
-0.00108241
3.16208e-09
-1.23327e-06
2.52942e-07
-2.54184e-07
-8.84242e-07
2.44533e-07
-2.4771e-07
8.84394e-07
1.24112e-06
0.00108285
-1.12651e-09
-0.00108285
2.69369e-09
-1.23854e-06
2.55863e-07
-2.56801e-07
-8.89841e-07
2.4733e-07
-2.50515e-07
8.89966e-07
-2.28359e-07
-2.30668e-07
0.000264265
-1.20219e-06
0.000266246
-0.000264265
2.30389e-07
2.32689e-07
3.29216e-09
0.00108346
-2.5203e-07
1.19914e-06
2.5003e-07
8.8697e-07
-2.51076e-07
-8.8755e-07
2.47348e-07
-1.23362e-06
-2.18676e-10
3.37656e-09
0.00108252
-2.57314e-07
1.23534e-06
2.55376e-07
8.86817e-07
-2.51045e-07
-8.87539e-07
2.47224e-07
0.00108346
-7.26178e-10
-0.00108346
2.57394e-09
-1.19696e-06
2.50556e-07
-2.51381e-07
-8.87237e-07
2.47143e-07
-2.50784e-07
8.87042e-07
1.23565e-06
0.00108253
-4.21309e-10
-0.00108253
3.09607e-09
-1.2333e-06
2.55724e-07
-2.56969e-07
-8.87236e-07
2.4703e-07
-2.50778e-07
8.86887e-07
-1.6188e-11
3.24766e-09
0.00108232
-2.51761e-07
1.23002e-06
2.49953e-07
8.84086e-07
-2.48553e-07
2.44322e-07
-8.85013e-07
-1.38556e-09
-0.0010832
2.6129e-09
-1.19958e-06
2.47719e-07
-2.48604e-07
-8.8426e-07
2.44659e-07
8.84498e-07
-2.47696e-07
1.2303e-06
0.00108232
-1.18433e-09
-0.00108232
2.99688e-09
-1.22785e-06
2.50282e-07
-2.51313e-07
-8.84308e-07
2.44505e-07
-2.47736e-07
8.84382e-07
-2.2569e-07
-2.30646e-07
0.000264225
-1.19663e-06
0.000266198
-0.000264226
2.27609e-07
2.32543e-07
-4.98337e-11
3.19142e-09
0.00108336
-2.49233e-07
1.19653e-06
2.47369e-07
8.84286e-07
-2.51326e-07
2.47172e-07
-8.85089e-07
-9.77099e-10
-0.00108285
3.18854e-09
-1.19442e-06
2.47508e-07
-2.48857e-07
-8.84191e-07
2.47149e-07
8.84277e-07
-2.50571e-07
1.19689e-06
0.00108337
-9.58351e-10
-0.00108337
2.54838e-09
-1.19433e-06
2.47786e-07
-2.48685e-07
-8.8446e-07
2.47293e-07
-2.50581e-07
8.84531e-07
-0.000264239
2.3013e-07
2.3538e-07
1.23311e-06
1.19686e-06
-2.24978e-07
-2.32826e-07
0.000264245
-1.23521e-06
-1.19908e-06
0.000266217
-0.000264244
2.26652e-07
2.34444e-07
2.55081e-09
0.00108242
-2.54042e-07
1.23563e-06
2.53014e-07
8.84238e-07
-2.47232e-07
-8.83976e-07
2.44192e-07
-1.23848e-06
-1.5994e-09
2.27927e-09
0.00108285
-2.56741e-07
1.24112e-06
2.55864e-07
8.89809e-07
-2.50069e-07
-8.89577e-07
2.4697e-07
0.00108241
-1.28688e-09
-0.00108242
3.12618e-09
-1.23266e-06
2.52496e-07
-2.53599e-07
-8.82435e-07
2.41353e-07
-2.44432e-07
8.82584e-07
1.24064e-06
0.00108285
-1.13274e-09
-0.00108285
3.12704e-09
-1.23811e-06
2.55281e-07
-2.56383e-07
-8.88057e-07
2.44119e-07
-2.473e-07
8.88148e-07
-2.27743e-07
-2.30034e-07
0.000264265
-1.20172e-06
0.000266246
-0.000264265
2.29427e-07
2.31714e-07
2.09416e-09
0.00108346
-2.51279e-07
1.19959e-06
2.50572e-07
8.86995e-07
-2.50225e-07
-8.86864e-07
2.46905e-07
-1.23314e-06
-1.25931e-09
2.48236e-09
0.00108253
-2.56781e-07
1.23572e-06
2.55826e-07
8.86842e-07
-2.50198e-07
-8.8686e-07
2.4681e-07
0.00108346
-1.33421e-09
-0.00108346
2.95613e-09
-1.19652e-06
2.49953e-07
-2.50954e-07
-8.85199e-07
2.44208e-07
-2.47253e-07
8.85438e-07
1.23526e-06
0.00108253
-1.19086e-09
-0.00108253
3.11657e-09
-1.23272e-06
2.55273e-07
-2.56354e-07
-8.85173e-07
2.44123e-07
-2.47221e-07
8.85289e-07
-1.71485e-09
2.4495e-09
0.00108232
-2.51199e-07
1.23033e-06
2.50322e-07
8.84237e-07
-2.47252e-07
2.44175e-07
-8.84033e-07
-1.34926e-09
-0.0010832
2.99218e-09
-1.19914e-06
2.47148e-07
-2.48178e-07
-8.82489e-07
2.41441e-07
8.82671e-07
-2.44481e-07
1.22986e-06
0.00108232
-1.21902e-09
-0.00108232
3.13163e-09
-1.22734e-06
2.49756e-07
-2.50817e-07
-8.82494e-07
2.41337e-07
-2.44455e-07
8.82589e-07
-2.25302e-07
-2.3006e-07
0.000264226
-1.19634e-06
0.000266199
-0.000264226
2.26865e-07
2.31678e-07
-1.53383e-09
2.07159e-09
0.00108337
-2.48574e-07
1.19691e-06
2.47816e-07
8.84401e-07
-2.50092e-07
2.4697e-07
-8.84174e-07
-1.38186e-09
-0.00108286
2.97277e-09
-1.19373e-06
2.47153e-07
-2.48144e-07
-8.82314e-07
2.44102e-07
8.8254e-07
-2.47146e-07
1.19641e-06
0.00108337
-1.1937e-09
-0.00108337
2.94224e-09
-1.19387e-06
2.47218e-07
-2.48225e-07
-8.82614e-07
2.44162e-07
-2.47262e-07
8.82778e-07
-0.000264239
2.29167e-07
2.34455e-07
1.23242e-06
1.19628e-06
-2.23749e-07
-2.31483e-07
0.000264244
-1.23501e-06
-1.19888e-06
0.000266218
-0.000264244
2.26066e-07
2.33846e-07
2.3395e-09
0.00108242
-2.53187e-07
1.23479e-06
2.5178e-07
8.81873e-07
-2.43665e-07
-8.81945e-07
2.40575e-07
-1.23786e-06
-1.1933e-09
2.34745e-09
0.00108285
-2.55971e-07
1.24023e-06
2.54565e-07
8.8744e-07
-2.46522e-07
-8.87543e-07
2.4335e-07
0.00108241
-3.51628e-09
-0.00108241
2.17372e-09
-1.23217e-06
2.51168e-07
-2.51708e-07
-8.84004e-07
2.43582e-07
-2.45534e-07
8.85503e-07
1.24045e-06
0.00108285
-3.41009e-09
-0.00108285
2.19688e-09
-1.23761e-06
2.53958e-07
-2.5449e-07
-8.89605e-07
2.46348e-07
-2.4837e-07
8.91053e-07
-2.26478e-07
-2.28784e-07
0.000264265
-1.20153e-06
0.000266247
-0.000264265
2.28845e-07
2.31128e-07
2.19785e-09
0.00108346
-2.50552e-07
1.19866e-06
2.49229e-07
8.84726e-07
-2.46476e-07
-8.84679e-07
2.43441e-07
-1.23248e-06
-1.27752e-09
2.34882e-09
0.00108253
-2.55953e-07
1.23483e-06
2.54549e-07
8.84591e-07
-2.46435e-07
-8.84657e-07
2.43344e-07
0.00108346
-3.60733e-09
-0.00108346
2.04715e-09
-1.19604e-06
2.48615e-07
-2.49075e-07
-8.86742e-07
2.46444e-07
-2.48333e-07
8.88336e-07
1.23506e-06
0.00108253
-3.44576e-09
-0.00108253
2.20511e-09
-1.23224e-06
2.53929e-07
-2.54483e-07
-8.86744e-07
2.46352e-07
-2.48301e-07
8.88193e-07
-1.27955e-09
2.33935e-09
0.00108232
-2.50405e-07
1.22945e-06
2.49039e-07
8.81884e-07
-2.43678e-07
2.40566e-07
-8.81981e-07
-3.59903e-09
-0.0010832
2.04386e-09
-1.19864e-06
2.45826e-07
-2.46283e-07
-8.84046e-07
2.43668e-07
8.85584e-07
-2.45572e-07
1.22968e-06
0.00108232
-3.46921e-09
-0.00108232
2.18572e-09
-1.22685e-06
2.48428e-07
-2.48924e-07
-8.84045e-07
2.43559e-07
-2.45533e-07
8.85489e-07
-2.23908e-07
-2.28755e-07
0.000264226
-1.19613e-06
0.000266199
-0.000264226
2.26265e-07
2.31085e-07
-1.24578e-09
2.18617e-09
0.00108337
-2.4782e-07
1.19599e-06
2.46491e-07
8.8207e-07
-2.46484e-07
2.43392e-07
-8.82097e-07
-3.6289e-09
-0.00108285
2.0409e-09
-1.19326e-06
2.45803e-07
-2.46246e-07
-8.83859e-07
2.46326e-07
8.85458e-07
-2.4823e-07
1.19622e-06
0.00108337
-3.49809e-09
-0.00108337
2.04794e-09
-1.19338e-06
2.45876e-07
-2.46342e-07
-8.84158e-07
2.46398e-07
-2.48333e-07
8.85701e-07
-0.000264239
2.28571e-07
2.3387e-07
1.23265e-06
1.19652e-06
-2.23683e-07
-2.31413e-07
0.000264244
-1.23324e-06
-1.1971e-06
0.000266221
-0.000264242
2.21755e-07
2.29531e-07
4.03853e-09
0.00108241
-2.52549e-07
1.23452e-06
2.51153e-07
8.84757e-07
-2.4631e-07
-8.85515e-07
2.4199e-07
-1.23809e-06
2.16829e-09
4.05545e-09
0.00108285
-2.55331e-07
1.23996e-06
2.53937e-07
8.90323e-07
-2.49146e-07
-8.91101e-07
2.44772e-07
0.00108242
-8.05152e-09
-0.00108241
3.5171e-10
-1.22961e-06
2.4849e-07
-2.48814e-07
-8.77798e-07
2.34375e-07
-2.36109e-07
8.79802e-07
1.23868e-06
0.00108285
-8.00464e-09
-0.00108285
3.93801e-10
-1.23505e-06
2.51276e-07
-2.51601e-07
-8.83395e-07
2.37153e-07
-2.3894e-07
8.85367e-07
-2.26401e-07
-2.28706e-07
0.000264265
-1.19975e-06
0.00026625
-0.000264263
2.24529e-07
2.26812e-07
3.91939e-09
0.00108346
-2.49921e-07
1.19838e-06
2.48598e-07
8.87617e-07
-2.49104e-07
-8.8827e-07
2.44844e-07
-1.23272e-06
2.12437e-09
4.0746e-09
0.00108252
-2.5532e-07
1.23456e-06
2.53915e-07
8.87469e-07
-2.49069e-07
-8.88256e-07
2.44754e-07
0.00108347
-8.20253e-09
-0.00108346
2.44303e-10
-1.19348e-06
2.45933e-07
-2.46184e-07
-8.80529e-07
2.37228e-07
-2.38896e-07
8.82632e-07
1.23329e-06
0.00108253
-8.01691e-09
-0.00108253
3.8255e-10
-1.22968e-06
2.51253e-07
-2.51586e-07
-8.80539e-07
2.37147e-07
-2.38884e-07
8.825e-07
2.11744e-09
4.03369e-09
0.00108232
-2.49761e-07
1.22919e-06
2.48413e-07
8.84748e-07
-2.46305e-07
2.41977e-07
-8.85539e-07
-8.18255e-09
-0.0010832
2.54313e-10
-1.19608e-06
2.43139e-07
-2.43395e-07
-8.77812e-07
2.34463e-07
8.79873e-07
-2.36137e-07
1.2279e-06
0.00108233
-8.04608e-09
-0.00108232
3.76292e-10
-1.22429e-06
2.45745e-07
-2.46038e-07
-8.77832e-07
2.34367e-07
-2.3611e-07
8.79802e-07
-2.23848e-07
-2.28681e-07
0.000264226
-1.19434e-06
0.000266201
-0.000264224
2.21953e-07
2.29309e-07
2.09997e-09
3.91883e-09
0.00108336
-2.47182e-07
1.19572e-06
2.45858e-07
8.84975e-07
-2.49108e-07
2.44818e-07
-8.85667e-07
-8.21702e-09
-0.00108285
2.39097e-10
-1.1907e-06
2.43147e-07
-2.43385e-07
-8.77623e-07
2.3714e-07
8.79705e-07
-2.38795e-07
1.19444e-06
0.00108337
-8.16715e-09
-0.00108337
2.58934e-10
-1.19082e-06
2.43194e-07
-2.43442e-07
-8.77927e-07
2.37202e-07
-2.38885e-07
8.80008e-07
-0.000264237
2.24256e-07
2.2955e-07
1.23022e-06
1.19409e-06
-2.18308e-07
-2.26036e-07
0.000264241
-1.23366e-06
-1.19756e-06
0.000266228
-0.000264241
2.19475e-07
2.24798e-07
6.27331e-09
0.00108241
-2.48725e-07
1.23136e-06
2.46061e-07
8.77068e-07
-2.36239e-07
-8.79053e-07
2.30768e-07
-1.23565e-06
7.06665e-09
6.30074e-09
0.00108285
-2.51498e-07
1.23682e-06
2.48851e-07
8.82637e-07
-2.39076e-07
-8.84642e-07
2.3355e-07
0.00108242
-1.3859e-08
-0.0010824
-1.03315e-08
-1.22864e-06
2.4829e-07
-2.443e-07
-8.7278e-07
2.29055e-07
-2.29032e-07
8.7657e-07
1.23909e-06
0.00108287
-2.4326e-08
-0.00108285
-5.05822e-09
-1.23142e-06
2.48336e-07
-2.47081e-07
-8.73027e-07
2.26426e-07
-2.26472e-07
8.76781e-07
-2.21026e-07
-2.23327e-07
0.000264262
-1.20017e-06
0.000266252
-0.00026426
2.19744e-07
2.27098e-07
6.14832e-09
0.00108346
-2.46098e-07
1.19791e-06
2.46236e-07
8.79914e-07
-2.39026e-07
-8.81789e-07
2.33594e-07
-1.23028e-06
6.99691e-09
6.30441e-09
0.00108253
-2.51495e-07
1.23143e-06
2.4883e-07
8.79771e-07
-2.38999e-07
-8.81781e-07
2.33513e-07
0.00108347
-1.40942e-08
-0.00108346
-5.21999e-09
-1.19255e-06
2.45729e-07
-2.44404e-07
-8.75494e-07
2.29227e-07
-2.2912e-07
8.79424e-07
1.2284e-06
0.00108254
-1.38993e-08
-0.00108252
-1.03043e-08
-1.22338e-06
2.48329e-07
-2.47063e-07
-8.72886e-07
2.29122e-07
-2.29105e-07
8.76634e-07
7.00996e-09
6.25652e-09
0.00108232
-2.45942e-07
1.22604e-06
2.43322e-07
8.77069e-07
-2.36239e-07
2.30756e-07
-8.79073e-07
-1.92529e-08
-0.0010832
-5.17342e-09
-1.19249e-06
2.40212e-07
-2.38895e-07
-8.72813e-07
2.29141e-07
8.79325e-07
-2.26374e-07
1.22837e-06
0.00108233
-1.9155e-08
-0.00108232
-5.11113e-09
-1.22069e-06
2.45571e-07
-2.41529e-07
-8.7281e-07
2.29046e-07
-2.26351e-07
8.76572e-07
-2.1848e-07
-2.2584e-07
0.000264223
-1.19214e-06
0.000266202
-0.000264226
2.19703e-07
2.24526e-07
6.92198e-09
6.16836e-09
0.00108337
-2.43351e-07
1.19258e-06
2.40766e-07
8.77288e-07
-2.39015e-07
2.33597e-07
-8.79184e-07
-1.40753e-08
-0.00108286
-1.04348e-08
-1.18708e-06
2.40218e-07
-2.38874e-07
-8.69942e-07
2.29124e-07
8.73792e-07
-2.29028e-07
1.1922e-06
0.00108337
-1.40517e-08
-0.00108337
-1.03697e-08
-1.18189e-06
2.4025e-07
-2.36195e-07
-8.67555e-07
2.26484e-07
-2.26407e-07
8.74086e-07
-0.000264241
2.1951e-07
2.27298e-07
1.22611e-06
1.18734e-06
-2.13682e-07
-2.16358e-07
0.000264245
-1.28248e-06
-1.24632e-06
0.000266305
-0.000264269
2.44138e-07
2.49525e-07
1.29957e-08
0.00108241
-2.43427e-07
1.23017e-06
2.40601e-07
8.70228e-07
-2.27907e-07
-8.73562e-07
2.17945e-07
-1.2315e-06
1.13169e-08
7.94671e-09
0.00108286
-2.46211e-07
1.23291e-06
2.43367e-07
8.73225e-07
-2.25318e-07
-8.73885e-07
2.20671e-07
0.00108269
-3.39804e-07
-0.00108251
-1.62483e-07
-1.18769e-06
2.71379e-07
-2.08631e-07
-8.18036e-07
2.44364e-07
-1.74061e-07
9.11445e-07
1.28784e-06
0.00108312
-3.39826e-07
-0.00108295
-1.5698e-07
-1.19318e-06
2.71343e-07
-2.08746e-07
-8.26371e-07
2.47094e-07
-1.74156e-07
9.19727e-07
-2.13901e-07
-2.18715e-07
0.000264261
-1.2463e-06
0.000266328
-0.00026429
2.46946e-07
2.49196e-07
7.7697e-09
0.00108348
-2.4078e-07
1.18868e-06
2.35255e-07
8.70467e-07
-2.27975e-07
-8.73685e-07
2.20788e-07
-1.22085e-06
1.08495e-09
7.82949e-09
0.00108254
-2.43418e-07
1.22487e-06
2.40609e-07
8.70364e-07
-2.2524e-07
-8.73712e-07
2.17982e-07
0.00108373
-3.4589e-07
-0.00108356
-1.56929e-07
-1.14893e-06
2.68723e-07
-2.03305e-07
-8.23376e-07
2.47297e-07
-1.7405e-07
9.17055e-07
1.2798e-06
0.00108281
-3.45202e-07
-0.00108263
-1.62413e-07
-1.18513e-06
2.71403e-07
-2.05955e-07
-8.20762e-07
2.47182e-07
-1.76725e-07
9.14235e-07
6.14784e-09
7.82139e-09
0.00108232
-2.43368e-07
1.22483e-06
2.406e-07
8.70306e-07
-2.25182e-07
2.1792e-07
-8.70945e-07
-3.40366e-07
-0.00108329
-1.6209e-07
-1.15155e-06
2.65928e-07
-2.00605e-07
-8.20785e-07
2.44411e-07
9.14244e-07
-1.74074e-07
1.27978e-06
0.00108259
-3.39825e-07
-0.00108242
-1.62497e-07
-1.18241e-06
2.71356e-07
-2.03162e-07
-8.2072e-07
2.47098e-07
-1.7674e-07
9.14151e-07