/*--------------------------------*- C++ -*----------------------------------*\
| =========                 |                                                 |
| \\      /  F ield         | OpenFOAM: The Open Source CFD Toolbox           |
|  \\    /   O peration     | Version:  2206                                  |
|   \\  /    A nd           | Website:  www.openfoam.com                      |
|    \\/     M anipulation  |                                                 |
\*---------------------------------------------------------------------------*/
FoamFile
{
    version     2.0;
    format      ascii;
    arch        "LSB;label=32;scalar=64";
    class       volScalarField;
    location    "9";
    object      epsilon;
}
// * * * * * * * * * * * * * * * * * * * * * * * * * * * * * * * * * * * * * //

dimensions      [0 2 -3 0 0 0 0];

internalField   nonuniform List<scalar> 
28687
(
4.26999e-07
4.3267e-07
4.32673e-07
4.41558e-07
4.26994e-07
4.32667e-07
4.32669e-07
4.41574e-07
4.26845e-07
4.32502e-07
4.32539e-07
4.41499e-07
4.26735e-07
4.3244e-07
4.32442e-07
4.4139e-07
4.26734e-07
4.3244e-07
4.32442e-07
4.414e-07
4.26734e-07
4.32439e-07
4.32441e-07
4.414e-07
4.26734e-07
4.32439e-07
4.32442e-07
4.414e-07
4.26734e-07
4.32439e-07
4.32442e-07
4.414e-07
4.26734e-07
4.32439e-07
4.32441e-07
4.414e-07
4.26734e-07
4.32439e-07
4.32441e-07
4.414e-07
4.26734e-07
4.32439e-07
4.32442e-07
4.414e-07
4.26734e-07
4.32439e-07
4.32441e-07
4.414e-07
4.26734e-07
4.32439e-07
4.32441e-07
4.414e-07
4.26734e-07
4.32439e-07
4.32441e-07
4.414e-07
4.26734e-07
4.32439e-07
4.32441e-07
4.414e-07
4.26734e-07
4.32439e-07
4.32441e-07
4.414e-07
4.26734e-07
4.32439e-07
4.32442e-07
4.414e-07
4.26734e-07
4.32439e-07
4.32441e-07
4.414e-07
4.32676e-07
4.41478e-07
4.32669e-07
4.41555e-07
4.41487e-07
4.32674e-07
4.32676e-07
4.32673e-07
4.32673e-07
4.4157e-07
4.41491e-07
4.32672e-07
4.32678e-07
4.3267e-07
4.32677e-07
4.32675e-07
4.32671e-07
4.32674e-07
4.41559e-07
4.4149e-07
4.32672e-07
4.3267e-07
4.3267e-07
4.41489e-07
4.41574e-07
4.41435e-07
4.32672e-07
4.3267e-07
4.32612e-07
4.3256e-07
4.41578e-07
4.41387e-07
4.32669e-07
4.32676e-07
4.32609e-07
4.32615e-07
4.32673e-07
4.32561e-07
4.32612e-07
4.41578e-07
4.41438e-07
4.32669e-07
4.3261e-07
4.32609e-07
4.41435e-07
4.41503e-07
4.41306e-07
4.32543e-07
4.32505e-07
4.32448e-07
4.32445e-07
4.41457e-07
4.41301e-07
4.32541e-07
4.32547e-07
4.32445e-07
4.32452e-07
4.32543e-07
4.3244e-07
4.32448e-07
4.41505e-07
4.4131e-07
4.3254e-07
4.32445e-07
4.32445e-07
4.41307e-07
4.41392e-07
4.41315e-07
4.32449e-07
4.32448e-07
4.32445e-07
4.32445e-07
4.41391e-07
4.41312e-07
4.32446e-07
4.32452e-07
4.32442e-07
4.32449e-07
4.32448e-07
4.3244e-07
4.32445e-07
4.41395e-07
4.41318e-07
4.32445e-07
4.32443e-07
4.32442e-07
4.41317e-07
4.41402e-07
4.41314e-07
4.32448e-07
4.32448e-07
4.32445e-07
4.32445e-07
4.41398e-07
4.41311e-07
4.32445e-07
4.32451e-07
4.32442e-07
4.32449e-07
4.32448e-07
4.32439e-07
4.32445e-07
4.41405e-07
4.41317e-07
4.32445e-07
4.32442e-07
4.32442e-07
4.41315e-07
4.41401e-07
4.41314e-07
4.32448e-07
4.32447e-07
4.32445e-07
4.32445e-07
4.41398e-07
4.41311e-07
4.32445e-07
4.32451e-07
4.32442e-07
4.32449e-07
4.32448e-07
4.32439e-07
4.32445e-07
4.41404e-07
4.41317e-07
4.32445e-07
4.32442e-07
4.32442e-07
4.41315e-07
4.41401e-07
4.41314e-07
4.32448e-07
4.32447e-07
4.32445e-07
4.32446e-07
4.41398e-07
4.41311e-07
4.32445e-07
4.32451e-07
4.32442e-07
4.32449e-07
4.32448e-07
4.32439e-07
4.32445e-07
4.41404e-07
4.41317e-07
4.32445e-07
4.32442e-07
4.32442e-07
4.41315e-07
4.41402e-07
4.41314e-07
4.32448e-07
4.32448e-07
4.32445e-07
4.32445e-07
4.41398e-07
4.41311e-07
4.32445e-07
4.32451e-07
4.32442e-07
4.32449e-07
4.32448e-07
4.32439e-07
4.32445e-07
4.41404e-07
4.41318e-07
4.32445e-07
4.32442e-07
4.32442e-07
4.41315e-07
4.41401e-07
4.41314e-07
4.32447e-07
4.32448e-07
4.32444e-07
4.32445e-07
4.41398e-07
4.41311e-07
4.32445e-07
4.32451e-07
4.32442e-07
4.32449e-07
4.32448e-07
4.3244e-07
4.32445e-07
4.41404e-07
4.41317e-07
4.32445e-07
4.32442e-07
4.32442e-07
4.41315e-07
4.41401e-07
4.41314e-07
4.32447e-07
4.32448e-07
4.32445e-07
4.32445e-07
4.41398e-07
4.41311e-07
4.32444e-07
4.32451e-07
4.32442e-07
4.32449e-07
4.32448e-07
4.3244e-07
4.32445e-07
4.41404e-07
4.41317e-07
4.32445e-07
4.32442e-07
4.32442e-07
4.41315e-07
4.41401e-07
4.41314e-07
4.32447e-07
4.32448e-07
4.32445e-07
4.32445e-07
4.41399e-07
4.41312e-07
4.32444e-07
4.32451e-07
4.32441e-07
4.32449e-07
4.32448e-07
4.3244e-07
4.32445e-07
4.41404e-07
4.41317e-07
4.32445e-07
4.32442e-07
4.32442e-07
4.41315e-07
4.41402e-07
4.41314e-07
4.32447e-07
4.32448e-07
4.32445e-07
4.32445e-07
4.41399e-07
4.41311e-07
4.32444e-07
4.32451e-07
4.32441e-07
4.32449e-07
4.32448e-07
4.3244e-07
4.32445e-07
4.41404e-07
4.41317e-07
4.32445e-07
4.32442e-07
4.32442e-07
4.41315e-07
4.41401e-07
4.41314e-07
4.32447e-07
4.32448e-07
4.32445e-07
4.32445e-07
4.41399e-07
4.41312e-07
4.32444e-07
4.32451e-07
4.32441e-07
4.32449e-07
4.32448e-07
4.3244e-07
4.32445e-07
4.41404e-07
4.41317e-07
4.32445e-07
4.32442e-07
4.32442e-07
4.41315e-07
4.41401e-07
4.41314e-07
4.32447e-07
4.32448e-07
4.32445e-07
4.32445e-07
4.41399e-07
4.41311e-07
4.32444e-07
4.32451e-07
4.32441e-07
4.32449e-07
4.32448e-07
4.3244e-07
4.32445e-07
4.41404e-07
4.41317e-07
4.32445e-07
4.32442e-07
4.32442e-07
4.41315e-07
4.41401e-07
4.41314e-07
4.32447e-07
4.32448e-07
4.32445e-07
4.32445e-07
4.41399e-07
4.41311e-07
4.32444e-07
4.32451e-07
4.32441e-07
4.32449e-07
4.32448e-07
4.3244e-07
4.32445e-07
4.41404e-07
4.41317e-07
4.32445e-07
4.32442e-07
4.32442e-07
4.41315e-07
4.41401e-07
4.41314e-07
4.32447e-07
4.32448e-07
4.32445e-07
4.32445e-07
4.41399e-07
4.41312e-07
4.32444e-07
4.32451e-07
4.32441e-07
4.32449e-07
4.32448e-07
4.3244e-07
4.32445e-07
4.41404e-07
4.41317e-07
4.32445e-07
4.32442e-07
4.32442e-07
4.41315e-07
4.41401e-07
4.41314e-07
4.32447e-07
4.32448e-07
4.32445e-07
4.32445e-07
4.41399e-07
4.41312e-07
4.32444e-07
4.32451e-07
4.32441e-07
4.32449e-07
4.32448e-07
4.3244e-07
4.32445e-07
4.41404e-07
4.41317e-07
4.32445e-07
4.32442e-07
4.32442e-07
4.41315e-07
4.41401e-07
4.32446e-07
4.32447e-07
4.41399e-07
4.32443e-07
4.3245e-07
4.32447e-07
4.41404e-07
4.32444e-07
1.28884e-06
6.56836e-06
1.28924e-06
6.56813e-06
2.2973e-05
2.29697e-05
1.28874e-06
6.56929e-06
1.28909e-06
6.56907e-06
4.27003e-07
4.26998e-07
4.26998e-07
4.26996e-07
4.27e-07
4.26996e-07
4.26996e-07
5.61575e-07
1.07938e-06
4.28217e-07
4.32674e-07
5.61704e-07
1.07901e-06
4.28217e-07
2.29781e-05
2.29732e-05
5.61569e-07
4.28215e-07
1.07967e-06
4.32673e-07
5.61698e-07
4.28215e-07
1.07903e-06
2.12311e-06
2.12353e-06
4.41484e-07
2.12302e-06
2.12346e-06
1.28888e-06
6.5683e-06
1.28907e-06
6.5681e-06
2.29682e-05
2.29724e-05
1.28876e-06
6.56924e-06
1.28892e-06
6.56902e-06
4.26997e-07
4.26994e-07
4.26994e-07
4.26925e-07
4.26911e-07
4.26924e-07
4.26924e-07
5.61591e-07
1.07936e-06
4.28211e-07
4.32657e-07
5.61661e-07
1.07924e-06
4.28206e-07
2.29712e-05
2.29706e-05
5.61584e-07
4.28209e-07
1.07932e-06
4.32665e-07
5.61656e-07
4.28205e-07
1.07906e-06
2.12333e-06
2.12376e-06
4.41488e-07
2.12315e-06
2.12358e-06
1.29004e-06
6.57477e-06
1.2901e-06
6.57521e-06
2.29965e-05
2.29955e-05
1.28992e-06
6.5757e-06
1.28996e-06
6.57614e-06
4.26836e-07
4.26847e-07
4.26846e-07
4.26739e-07
4.26738e-07
4.26739e-07
4.26739e-07
5.61706e-07
1.08015e-06
4.28061e-07
4.32469e-07
5.61759e-07
1.07987e-06
4.28011e-07
2.29967e-05
2.29977e-05
5.617e-07
4.28066e-07
1.07996e-06
4.32492e-07
5.61755e-07
4.28014e-07
1.0798e-06
2.12535e-06
2.12578e-06
4.41343e-07
2.12521e-06
2.12565e-06
1.29007e-06
6.57547e-06
1.29034e-06
6.57515e-06
2.29966e-05
2.29957e-05
1.28995e-06
6.57643e-06
1.29019e-06
6.57609e-06
4.26739e-07
4.26739e-07
4.26739e-07
4.26735e-07
4.26735e-07
4.26736e-07
4.26735e-07
5.61709e-07
1.08022e-06
4.2796e-07
4.32443e-07
5.61791e-07
1.07988e-06
4.27963e-07
2.29984e-05
2.29973e-05
5.61701e-07
4.2796e-07
1.08016e-06
4.32445e-07
5.61785e-07
4.27963e-07
1.07985e-06
2.12546e-06
2.12589e-06
4.41312e-07
2.12518e-06
2.12562e-06
1.29007e-06
6.57547e-06
1.29034e-06
6.57514e-06
2.29968e-05
2.29958e-05
1.28995e-06
6.57642e-06
1.29018e-06
6.57608e-06
4.26738e-07
4.26738e-07
4.26738e-07
4.26734e-07
4.26735e-07
4.26735e-07
4.26735e-07
5.61712e-07
1.08022e-06
4.27959e-07
4.32442e-07
5.6179e-07
1.07988e-06
4.27962e-07
2.29984e-05
2.29973e-05
5.61703e-07
4.27959e-07
1.08016e-06
4.32444e-07
5.61784e-07
4.27962e-07
1.07985e-06
2.12546e-06
2.12589e-06
4.41313e-07
2.12518e-06
2.12562e-06
1.29007e-06
6.57547e-06
1.29034e-06
6.57514e-06
2.29968e-05
2.29948e-05
1.28995e-06
6.57642e-06
1.29018e-06
6.57608e-06
4.26738e-07
4.26738e-07
4.26738e-07
4.26734e-07
4.26735e-07
4.26735e-07
4.26735e-07
5.61711e-07
1.08022e-06
4.27959e-07
4.32442e-07
5.61788e-07
1.07988e-06
4.27962e-07
2.29984e-05
2.29973e-05
5.61704e-07
4.27959e-07
1.08016e-06
4.32444e-07
5.61782e-07
4.27963e-07
1.07985e-06
2.12546e-06
2.12589e-06
4.41313e-07
2.12518e-06
2.12562e-06
1.29007e-06
6.57541e-06
1.29034e-06
6.57511e-06
2.29957e-05
2.29955e-05
1.28995e-06
6.57642e-06
1.29018e-06
6.57608e-06
4.26738e-07
4.26738e-07
4.26738e-07
4.26734e-07
4.26735e-07
4.26735e-07
4.26735e-07
5.61711e-07
1.08022e-06
4.27959e-07
4.32442e-07
5.61788e-07
1.07988e-06
4.27962e-07
2.29984e-05
2.29973e-05
5.61704e-07
4.27959e-07
1.08016e-06
4.32444e-07
5.61782e-07
4.27962e-07
1.07985e-06
2.12546e-06
2.12589e-06
4.41313e-07
2.12518e-06
2.12562e-06
1.29007e-06
6.57544e-06
1.29034e-06
6.57513e-06
2.29971e-05
2.29959e-05
1.28994e-06
6.57642e-06
1.29018e-06
6.57608e-06
4.26738e-07
4.26738e-07
4.26738e-07
4.26734e-07
4.26735e-07
4.26735e-07
4.26735e-07
5.61711e-07
1.08022e-06
4.27959e-07
4.32442e-07
5.61789e-07
1.07988e-06
4.27962e-07
2.29984e-05
2.29973e-05
5.61703e-07
4.27959e-07
1.08016e-06
4.32444e-07
5.61782e-07
4.27962e-07
1.07985e-06
2.12546e-06
2.12589e-06
4.41313e-07
2.12518e-06
2.12562e-06
1.29007e-06
6.5755e-06
1.29034e-06
6.5752e-06
2.29965e-05
2.29952e-05
1.28994e-06
6.57639e-06
1.29018e-06
6.57611e-06
4.26738e-07
4.26738e-07
4.26738e-07
4.26734e-07
4.26735e-07
4.26735e-07
4.26735e-07
5.61711e-07
1.08022e-06
4.27959e-07
4.32442e-07
5.61788e-07
1.07988e-06
4.27962e-07
2.29984e-05
2.29973e-05
5.61704e-07
4.27959e-07
1.08016e-06
4.32444e-07
5.61782e-07
4.27962e-07
1.07985e-06
2.12546e-06
2.12589e-06
4.41313e-07
2.12518e-06
2.12562e-06
1.29007e-06
6.57547e-06
1.29034e-06
6.5751e-06
2.29959e-05
2.29949e-05
1.28994e-06
6.57642e-06
1.29018e-06
6.57611e-06
4.26738e-07
4.26738e-07
4.26738e-07
4.26734e-07
4.26735e-07
4.26735e-07
4.26735e-07
5.61711e-07
1.08022e-06
4.27959e-07
4.32442e-07
5.61788e-07
1.07988e-06
4.27962e-07
2.29984e-05
2.29973e-05
5.61704e-07
4.27959e-07
1.08017e-06
4.32444e-07
5.61782e-07
4.27962e-07
1.07985e-06
2.12546e-06
2.12589e-06
4.41313e-07
2.12518e-06
2.12562e-06
1.29007e-06
6.57546e-06
1.29034e-06
6.57513e-06
2.29959e-05
2.2995e-05
1.28994e-06
6.57647e-06
1.29018e-06
6.57614e-06
4.26738e-07
4.26738e-07
4.26738e-07
4.26734e-07
4.26735e-07
4.26735e-07
4.26735e-07
5.6171e-07
1.08022e-06
4.27959e-07
4.32442e-07
5.61788e-07
1.07988e-06
4.27962e-07
2.29984e-05
2.29973e-05
5.61704e-07
4.27959e-07
1.08017e-06
4.32444e-07
5.61782e-07
4.27962e-07
1.07985e-06
2.12546e-06
2.12589e-06
4.41313e-07
2.12518e-06
2.12562e-06
1.29007e-06
6.57545e-06
1.29034e-06
6.57511e-06
2.2996e-05
2.2995e-05
1.28994e-06
6.57649e-06
1.29018e-06
6.57615e-06
4.26738e-07
4.26738e-07
4.26738e-07
4.26734e-07
4.26735e-07
4.26735e-07
4.26735e-07
5.61711e-07
1.08022e-06
4.27959e-07
4.32442e-07
5.61789e-07
1.07988e-06
4.27962e-07
2.29984e-05
2.29973e-05
5.61704e-07
4.27959e-07
1.08017e-06
4.32444e-07
5.61782e-07
4.27962e-07
1.07985e-06
2.12546e-06
2.12589e-06
4.41313e-07
2.12518e-06
2.12562e-06
1.29007e-06
6.57544e-06
1.29034e-06
6.57511e-06
2.2996e-05
2.2995e-05
1.28994e-06
6.57649e-06
1.29018e-06
6.57615e-06
4.26738e-07
4.26738e-07
4.26738e-07
4.26734e-07
4.26735e-07
4.26735e-07
4.26735e-07
5.61711e-07
1.08022e-06
4.27959e-07
4.32442e-07
5.61788e-07
1.07988e-06
4.27962e-07
2.29984e-05
2.29973e-05
5.61704e-07
4.27959e-07
1.08017e-06
4.32444e-07
5.61782e-07
4.27962e-07
1.07985e-06
2.12546e-06
2.12589e-06
4.41313e-07
2.12518e-06
2.12562e-06
1.29007e-06
6.57545e-06
1.29034e-06
6.57511e-06
2.2996e-05
2.2995e-05
1.28994e-06
6.57649e-06
1.29018e-06
6.57615e-06
4.26738e-07
4.26738e-07
4.26738e-07
4.26734e-07
4.26735e-07
4.26735e-07
4.26735e-07
5.61711e-07
1.08022e-06
4.27959e-07
4.32442e-07
5.61788e-07
1.07988e-06
4.27962e-07
2.29984e-05
2.29973e-05
5.61705e-07
4.27959e-07
1.08016e-06
4.32444e-07
5.61782e-07
4.27962e-07
1.07985e-06
2.12546e-06
2.12589e-06
4.41313e-07
2.12518e-06
2.12562e-06
1.29007e-06
6.57545e-06
1.29034e-06
6.57511e-06
2.2996e-05
2.2995e-05
1.28994e-06
6.57649e-06
1.29018e-06
6.57615e-06
4.26738e-07
4.26738e-07
4.26738e-07
4.26734e-07
4.26735e-07
4.26735e-07
4.26735e-07
5.61711e-07
1.08022e-06
4.27959e-07
4.32442e-07
5.61788e-07
1.07988e-06
4.27962e-07
2.29984e-05
2.29973e-05
5.61705e-07
4.27959e-07
1.08016e-06
4.32444e-07
5.61783e-07
4.27962e-07
1.07985e-06
2.12546e-06
2.12589e-06
4.41313e-07
2.12518e-06
2.12562e-06
1.29007e-06
6.57545e-06
1.29034e-06
6.57511e-06
2.2996e-05
2.2995e-05
1.28994e-06
6.57649e-06
1.29018e-06
6.57615e-06
4.26738e-07
4.26738e-07
4.26738e-07
4.26734e-07
4.26735e-07
4.26735e-07
4.26735e-07
5.61711e-07
1.08022e-06
4.27959e-07
4.32442e-07
5.61788e-07
1.07988e-06
4.27962e-07
2.29984e-05
2.29973e-05
5.61705e-07
4.27959e-07
1.08016e-06
4.32444e-07
5.61782e-07
4.27962e-07
1.07985e-06
2.12546e-06
2.12589e-06
4.41313e-07
2.12518e-06
2.12562e-06
1.29007e-06
6.57545e-06
1.29034e-06
6.57511e-06
2.2996e-05
2.29949e-05
1.28995e-06
6.57649e-06
1.29018e-06
6.57615e-06
4.26738e-07
4.26738e-07
4.26738e-07
4.26734e-07
4.26735e-07
4.26736e-07
4.26735e-07
5.61711e-07
1.08022e-06
4.27959e-07
4.32442e-07
5.61788e-07
1.07988e-06
4.27962e-07
2.29984e-05
2.29973e-05
5.61705e-07
4.27959e-07
1.08017e-06
4.32445e-07
5.61782e-07
4.27963e-07
1.07985e-06
2.12546e-06
2.1259e-06
4.41313e-07
2.12518e-06
2.12563e-06
1.29014e-06
6.57545e-06
1.29034e-06
6.57511e-06
2.2996e-05
2.2995e-05
1.29004e-06
6.57649e-06
1.29018e-06
6.57616e-06
4.26737e-07
4.26737e-07
4.26737e-07
5.6171e-07
1.08022e-06
4.27959e-07
4.32441e-07
5.61788e-07
1.07988e-06
4.27963e-07
2.29983e-05
2.29973e-05
5.61704e-07
4.27959e-07
1.08016e-06
4.32445e-07
5.61782e-07
4.27963e-07
1.07999e-06
2.12546e-06
2.12589e-06
4.41314e-07
2.12518e-06
2.12573e-06
6.56842e-06
1.07908e-06
2.29734e-05
2.12319e-06
2.12293e-06
2.29699e-05
1.07905e-06
6.56832e-06
2.29741e-05
2.29696e-05
2.29774e-05
2.2973e-05
2.123e-06
2.12347e-06
4.41481e-07
2.12292e-06
2.1234e-06
2.29674e-05
2.29693e-05
2.29708e-05
2.29727e-05
4.4157e-07
2.12299e-06
2.12345e-06
2.12308e-06
2.12354e-06
1.28883e-06
6.56844e-06
1.28923e-06
6.56825e-06
5.61578e-07
1.07963e-06
4.28214e-07
4.32674e-07
5.6171e-07
1.07899e-06
4.28214e-07
5.61576e-07
1.07937e-06
4.28216e-07
4.32676e-07
5.61707e-07
1.07905e-06
4.28216e-07
1.28903e-06
6.56807e-06
6.56814e-06
1.28882e-06
1.28903e-06
6.56823e-06
6.56826e-06
1.28882e-06
5.61653e-07
4.32673e-07
1.07896e-06
4.28211e-07
1.07925e-06
4.28212e-07
5.61582e-07
5.61652e-07
4.32674e-07
1.07903e-06
4.28213e-07
1.07932e-06
4.28214e-07
5.6158e-07
2.12348e-06
2.1233e-06
4.41488e-07
2.12338e-06
2.12313e-06
2.29698e-05
2.29666e-05
2.29677e-05
2.29694e-05
4.41576e-07
2.12336e-06
2.1232e-06
2.12355e-06
2.12346e-06
2.29653e-05
2.29666e-05
5.61572e-07
1.07986e-06
4.28214e-07
4.32672e-07
5.61699e-07
1.07919e-06
4.28214e-07
1.28876e-06
6.56966e-06
1.2891e-06
6.56936e-06
5.61579e-07
4.28214e-07
1.07994e-06
4.32678e-07
5.61706e-07
4.28214e-07
1.07927e-06
1.28889e-06
6.56896e-06
6.56908e-06
1.2887e-06
5.61647e-07
4.3267e-07
1.07917e-06
4.28211e-07
1.07948e-06
4.28212e-07
5.61577e-07
1.28891e-06
6.5693e-06
6.56936e-06
1.28873e-06
5.61655e-07
4.32677e-07
4.28212e-07
1.07925e-06
4.28212e-07
1.07956e-06
5.61585e-07
1.28885e-06
6.56837e-06
1.28924e-06
6.56813e-06
5.61578e-07
4.28214e-07
1.07967e-06
4.32675e-07
5.61705e-07
4.28213e-07
1.07903e-06
1.28885e-06
6.56923e-06
1.28925e-06
6.56891e-06
5.61651e-07
4.32673e-07
1.07901e-06
4.28213e-07
1.0793e-06
4.28214e-07
5.61582e-07
1.28905e-06
6.56812e-06
6.56814e-06
1.28884e-06
5.61654e-07
4.32674e-07
4.28211e-07
1.07901e-06
4.28212e-07
1.0793e-06
5.61585e-07
1.28905e-06
6.56888e-06
6.56891e-06
1.28884e-06
2.12396e-06
2.12309e-06
4.41484e-07
2.12377e-06
2.12301e-06
2.29762e-05
2.29716e-05
2.29708e-05
2.29732e-05
4.41573e-07
2.12388e-06
2.12307e-06
2.12406e-06
2.12316e-06
2.29695e-05
2.29713e-05
5.61566e-07
4.28213e-07
1.07977e-06
4.32672e-07
5.61695e-07
4.28213e-07
1.07912e-06
1.28874e-06
6.56935e-06
1.28908e-06
6.56903e-06
1.28874e-06
6.56953e-06
1.28908e-06
6.56922e-06
5.61645e-07
4.32671e-07
4.28211e-07
1.07901e-06
4.28212e-07
1.07929e-06
5.61576e-07
5.61643e-07
4.3267e-07
4.28211e-07
1.0791e-06
4.28212e-07
1.07939e-06
5.61572e-07
1.2889e-06
6.56898e-06
6.56903e-06
1.28872e-06
1.28889e-06
6.56919e-06
6.56922e-06
1.28871e-06
2.29765e-05
2.29719e-05
2.29778e-05
2.29733e-05
4.41573e-07
2.12309e-06
2.12353e-06
2.12318e-06
2.12362e-06
2.29698e-05
2.29716e-05
2.29711e-05
2.2973e-05
2.29673e-05
2.29671e-05
2.29707e-05
2.29706e-05
2.12311e-06
2.12356e-06
4.41485e-07
2.12304e-06
2.12351e-06
2.29864e-05
2.29681e-05
2.29901e-05
2.29717e-05
4.4157e-07
2.12448e-06
2.12499e-06
2.12335e-06
2.12381e-06
1.28888e-06
6.56823e-06
1.28902e-06
6.56896e-06
5.61594e-07
1.07924e-06
4.2821e-07
4.32667e-07
5.61659e-07
1.07902e-06
4.28205e-07
5.61592e-07
1.07933e-06
4.28211e-07
4.3266e-07
5.61657e-07
1.07926e-06
4.28205e-07
1.28921e-06
6.57275e-06
6.5683e-06
1.28957e-06
1.2892e-06
6.57526e-06
6.57082e-06
1.28956e-06
5.61685e-07
4.32653e-07
1.07947e-06
4.28143e-07
1.07938e-06
4.2819e-07
5.6166e-07
5.61684e-07
4.32627e-07
1.07976e-06
4.28137e-07
1.0797e-06
4.28188e-07
5.61659e-07
2.12351e-06
2.12348e-06
4.4148e-07
2.12385e-06
2.12361e-06
2.29655e-05
2.29694e-05
2.29953e-05
2.2981e-05
4.41556e-07
2.12557e-06
2.1253e-06
2.1247e-06
2.12459e-06
2.29923e-05
2.29785e-05
5.61587e-07
1.07947e-06
4.2821e-07
4.32665e-07
5.61652e-07
1.07923e-06
4.28205e-07
1.28878e-06
6.56931e-06
1.28889e-06
6.56947e-06
5.61594e-07
4.2821e-07
1.07955e-06
4.32671e-07
5.61661e-07
4.28205e-07
1.07931e-06
1.28905e-06
6.57357e-06
6.56928e-06
1.2895e-06
5.61678e-07
4.32651e-07
1.07969e-06
4.28144e-07
1.07961e-06
4.2819e-07
5.61658e-07
1.28906e-06
6.57362e-06
6.56963e-06
1.2895e-06
5.61684e-07
4.32658e-07
4.28144e-07
1.07976e-06
4.2819e-07
1.07969e-06
5.61662e-07
1.28889e-06
6.56816e-06
1.28904e-06
6.5691e-06
5.61593e-07
4.28209e-07
1.07928e-06
4.32668e-07
5.61659e-07
4.28204e-07
1.07907e-06
1.28889e-06
6.56889e-06
1.28904e-06
6.56903e-06
5.61679e-07
4.32626e-07
1.07975e-06
4.28138e-07
1.07969e-06
4.28189e-07
5.61654e-07
1.28921e-06
6.57513e-06
6.57091e-06
1.28956e-06
5.61681e-07
4.32654e-07
4.28143e-07
1.07952e-06
4.28189e-07
1.07943e-06
5.61657e-07
1.28921e-06
6.57319e-06
6.56913e-06
1.28957e-06
2.12415e-06
2.12319e-06
4.41488e-07
2.12393e-06
2.12313e-06
2.29694e-05
2.29693e-05
2.29907e-05
2.29722e-05
4.41573e-07
2.12532e-06
2.12459e-06
2.12448e-06
2.12345e-06
2.29888e-05
2.29703e-05
5.61581e-07
4.28209e-07
1.07938e-06
4.32665e-07
5.61649e-07
4.28204e-07
1.07916e-06
1.28877e-06
6.56899e-06
1.28887e-06
6.56913e-06
1.28876e-06
6.5692e-06
1.28887e-06
6.56935e-06
5.61673e-07
4.32652e-07
4.28144e-07
1.07952e-06
4.2819e-07
1.07942e-06
5.61649e-07
5.6167e-07
4.32651e-07
4.28143e-07
1.07961e-06
4.28189e-07
1.07952e-06
5.61646e-07
1.28904e-06
6.57339e-06
6.56924e-06
1.28948e-06
1.28904e-06
6.57356e-06
6.56945e-06
1.28948e-06
2.29697e-05
2.29696e-05
2.2971e-05
2.29709e-05
4.41572e-07
2.12463e-06
2.12505e-06
2.12348e-06
2.1239e-06
2.29891e-05
2.29706e-05
2.29901e-05
2.29718e-05
2.29921e-05
2.29942e-05
2.29956e-05
2.29976e-05
2.12519e-06
2.12566e-06
4.41343e-07
2.12513e-06
2.1256e-06
2.29939e-05
2.29942e-05
2.29974e-05
2.29976e-05
4.41419e-07
2.12511e-06
2.12558e-06
2.12528e-06
2.12573e-06
1.29004e-06
6.57581e-06
1.29005e-06
6.5757e-06
5.6171e-07
1.07988e-06
4.28068e-07
4.32495e-07
5.61759e-07
1.07975e-06
4.28014e-07
5.61709e-07
1.08011e-06
4.28062e-07
4.32473e-07
5.61759e-07
1.07989e-06
4.28011e-07
1.29026e-06
6.57523e-06
6.57521e-06
1.29007e-06
1.29026e-06
6.57569e-06
6.57571e-06
1.29006e-06
5.61789e-07
4.32461e-07
1.07979e-06
4.27963e-07
1.08005e-06
4.27977e-07
5.61718e-07
5.61789e-07
4.32451e-07
1.0799e-06
4.27963e-07
1.08018e-06
4.27975e-07
5.61717e-07
2.12578e-06
2.12577e-06
4.41321e-07
2.12557e-06
2.12545e-06
2.2994e-05
2.29933e-05
2.2996e-05
2.29955e-05
4.414e-07
2.12562e-06
2.12536e-06
2.12575e-06
2.12572e-06
2.29931e-05
2.29933e-05
5.61707e-07
1.08012e-06
4.28068e-07
4.32492e-07
5.61756e-07
1.07998e-06
4.28015e-07
1.28995e-06
6.57579e-06
1.28994e-06
6.57667e-06
5.61713e-07
4.28069e-07
1.0802e-06
4.32499e-07
5.61762e-07
4.28015e-07
1.08006e-06
1.29011e-06
6.57613e-06
6.57616e-06
1.28995e-06
5.61785e-07
4.32458e-07
1.08002e-06
4.27963e-07
1.0803e-06
4.27977e-07
5.61713e-07
1.29013e-06
6.57655e-06
6.57668e-06
1.28997e-06
5.61791e-07
4.32465e-07
4.27964e-07
1.0801e-06
4.27978e-07
1.08039e-06
5.6172e-07
1.29005e-06
6.57575e-06
1.29006e-06
6.57559e-06
5.61709e-07
4.28067e-07
1.07993e-06
4.32495e-07
5.61755e-07
4.28014e-07
1.07981e-06
1.29005e-06
6.5753e-06
1.29006e-06
6.57621e-06
5.61784e-07
4.32448e-07
1.07988e-06
4.27962e-07
1.08018e-06
4.27977e-07
5.61715e-07
1.29028e-06
6.57552e-06
6.5756e-06
1.29008e-06
5.61787e-07
4.32461e-07
4.27963e-07
1.07985e-06
4.27977e-07
1.08011e-06
5.61719e-07
1.29028e-06
6.57613e-06
6.57621e-06
1.29008e-06
2.12616e-06
2.12529e-06
4.41346e-07
2.12609e-06
2.12522e-06
2.29943e-05
2.29964e-05
2.29976e-05
2.29978e-05
4.41421e-07
2.12603e-06
2.12519e-06
2.12635e-06
2.12537e-06
2.2996e-05
2.29964e-05
5.61698e-07
4.28068e-07
1.08002e-06
4.32492e-07
5.61747e-07
4.28014e-07
1.0799e-06
1.28993e-06
6.57546e-06
1.28992e-06
6.57633e-06
1.28993e-06
6.57564e-06
1.28992e-06
6.57652e-06
5.61779e-07
4.3246e-07
4.27963e-07
1.07985e-06
4.27978e-07
1.0801e-06
5.61708e-07
5.61778e-07
4.32458e-07
4.27963e-07
1.07994e-06
4.27977e-07
1.08021e-06
5.61706e-07
1.29012e-06
6.57624e-06
6.57633e-06
1.28996e-06
1.29011e-06
6.57644e-06
6.57652e-06
1.28995e-06
2.29946e-05
2.29966e-05
2.29958e-05
2.2998e-05
4.41418e-07
2.1252e-06
2.12563e-06
2.12537e-06
2.1258e-06
2.29963e-05
2.29966e-05
2.29977e-05
2.2998e-05
2.29939e-05
2.29939e-05
2.29974e-05
2.29973e-05
2.12526e-06
2.12571e-06
4.4131e-07
2.1251e-06
2.12556e-06
2.29938e-05
2.29939e-05
2.29973e-05
2.29972e-05
4.41401e-07
2.1251e-06
2.12557e-06
2.12525e-06
2.12571e-06
1.29006e-06
6.57569e-06
1.29027e-06
6.57565e-06
5.61709e-07
1.08008e-06
4.27963e-07
4.32448e-07
5.61792e-07
1.07979e-06
4.27963e-07
5.61707e-07
1.08019e-06
4.27963e-07
4.32448e-07
5.61791e-07
1.0799e-06
4.27963e-07
1.29028e-06
6.57523e-06
6.57515e-06
1.29007e-06
1.29027e-06
6.57566e-06
6.57566e-06
1.29006e-06
5.61783e-07
4.32446e-07
1.07979e-06
4.2796e-07
1.08008e-06
4.27961e-07
5.61716e-07
5.61782e-07
4.32446e-07
1.0799e-06
4.2796e-07
1.08018e-06
4.2796e-07
5.61714e-07
2.12579e-06
2.12567e-06
4.41312e-07
2.12559e-06
2.1254e-06
2.29932e-05
2.2993e-05
2.29963e-05
2.29957e-05
4.41402e-07
2.12556e-06
2.12537e-06
2.12573e-06
2.12568e-06
2.29931e-05
2.29931e-05
5.61701e-07
1.08033e-06
4.27963e-07
4.32445e-07
5.61784e-07
1.08002e-06
4.27963e-07
1.28997e-06
6.57655e-06
1.29014e-06
6.57651e-06
5.61709e-07
4.27964e-07
1.08041e-06
4.32451e-07
5.61792e-07
4.27963e-07
1.0801e-06
1.29012e-06
6.57613e-06
6.57611e-06
1.28995e-06
5.61775e-07
4.32443e-07
1.08002e-06
4.2796e-07
1.08033e-06
4.2796e-07
5.61708e-07
1.29014e-06
6.5765e-06
6.57652e-06
1.28997e-06
5.61784e-07
4.32449e-07
4.27961e-07
1.0801e-06
4.27961e-07
1.08041e-06
5.61716e-07
1.29008e-06
6.57552e-06
1.29029e-06
6.57551e-06
5.61711e-07
4.27963e-07
1.08013e-06
4.32448e-07
5.61791e-07
4.27963e-07
1.07985e-06
1.29008e-06
6.57613e-06
1.29029e-06
6.57609e-06
5.61782e-07
4.32443e-07
1.07988e-06
4.2796e-07
1.08018e-06
4.27963e-07
5.61711e-07
1.29028e-06
6.5755e-06
6.57552e-06
1.29007e-06
5.61784e-07
4.32446e-07
4.2796e-07
1.07985e-06
4.2796e-07
1.08013e-06
5.61714e-07
1.29028e-06
6.57608e-06
6.57609e-06
1.29008e-06
2.1263e-06
2.12534e-06
4.41313e-07
2.12603e-06
2.12518e-06
2.2996e-05
2.2996e-05
2.29975e-05
2.29974e-05
4.41403e-07
2.12602e-06
2.12519e-06
2.12629e-06
2.12534e-06
2.2996e-05
2.2996e-05
5.61697e-07
4.27963e-07
1.08023e-06
4.32445e-07
5.6178e-07
4.27963e-07
1.07994e-06
1.28995e-06
6.57625e-06
1.29013e-06
6.5762e-06
1.28995e-06
6.57644e-06
1.29012e-06
6.57639e-06
5.61776e-07
4.32445e-07
4.2796e-07
1.07985e-06
4.27963e-07
1.08012e-06
5.61704e-07
5.61772e-07
4.32442e-07
4.2796e-07
1.07994e-06
4.2796e-07
1.08023e-06
5.61701e-07
1.29012e-06
6.57619e-06
6.5762e-06
1.28995e-06
1.29012e-06
6.57638e-06
6.5764e-06
1.28995e-06
2.29963e-05
2.29963e-05
2.29976e-05
2.29976e-05
4.41403e-07
2.12519e-06
2.12563e-06
2.12535e-06
2.12578e-06
2.29962e-05
2.29963e-05
2.29976e-05
2.29976e-05
2.29939e-05
2.29939e-05
2.29973e-05
2.29973e-05
2.12524e-06
2.12571e-06
4.41311e-07
2.1251e-06
2.12556e-06
2.29939e-05
2.29939e-05
2.29973e-05
2.29973e-05
4.414e-07
2.12509e-06
2.12557e-06
2.12525e-06
2.12571e-06
1.29006e-06
6.57566e-06
1.29027e-06
6.57565e-06
5.61712e-07
1.08008e-06
4.27963e-07
4.32448e-07
5.61792e-07
1.0798e-06
4.27963e-07
5.61711e-07
1.08018e-06
4.27963e-07
4.32448e-07
5.61791e-07
1.07989e-06
4.27962e-07
1.29028e-06
6.57523e-06
6.57514e-06
1.29007e-06
1.29027e-06
6.57565e-06
6.57566e-06
1.29006e-06
5.61785e-07
4.32446e-07
1.0798e-06
4.2796e-07
1.08008e-06
4.2796e-07
5.61713e-07
5.61785e-07
4.32445e-07
1.07989e-06
4.2796e-07
1.08018e-06
4.2796e-07
5.61711e-07
2.12572e-06
2.12568e-06
4.41309e-07
2.12553e-06
2.12539e-06
2.29932e-05
2.2993e-05
2.29963e-05
2.29958e-05
4.41398e-07
2.12554e-06
2.12539e-06
2.12569e-06
2.12568e-06
2.29931e-05
2.29932e-05
5.61706e-07
1.08033e-06
4.27963e-07
4.32445e-07
5.61784e-07
1.08002e-06
4.27963e-07
1.28997e-06
6.57651e-06
1.29014e-06
6.57651e-06
5.61714e-07
4.27963e-07
1.08041e-06
4.32451e-07
5.61792e-07
4.27963e-07
1.0801e-06
1.29012e-06
6.57612e-06
6.5761e-06
1.28995e-06
5.61779e-07
4.32443e-07
1.08002e-06
4.2796e-07
1.08032e-06
4.2796e-07
5.61705e-07
1.29013e-06
6.5765e-06
6.57653e-06
1.28996e-06
5.61787e-07
4.32449e-07
4.2796e-07
1.0801e-06
4.27961e-07
1.08041e-06
5.61713e-07
1.29008e-06
6.5755e-06
1.29028e-06
6.57551e-06
5.61715e-07
4.27963e-07
1.08013e-06
4.32448e-07
5.61789e-07
4.27962e-07
1.07985e-06
1.29008e-06
6.57608e-06
1.29029e-06
6.57608e-06
5.61785e-07
4.32442e-07
1.07988e-06
4.27959e-07
1.08018e-06
4.27961e-07
5.6171e-07
1.29029e-06
6.5755e-06
6.57552e-06
1.29007e-06
5.61788e-07
4.32446e-07
4.2796e-07
1.07985e-06
4.2796e-07
1.08013e-06
5.61714e-07
1.29029e-06
6.57608e-06
6.57609e-06
1.29008e-06
2.12629e-06
2.12534e-06
4.41315e-07
2.12603e-06
2.12518e-06
2.2996e-05
2.2996e-05
2.29975e-05
2.29974e-05
4.41403e-07
2.12602e-06
2.12518e-06
2.1263e-06
2.12534e-06
2.2996e-05
2.2996e-05
5.617e-07
4.27963e-07
1.08023e-06
4.32445e-07
5.61778e-07
4.27962e-07
1.07994e-06
1.28995e-06
6.57619e-06
1.29012e-06
6.5762e-06
1.28995e-06
6.57638e-06
1.29012e-06
6.57639e-06
5.61777e-07
4.32444e-07
4.27959e-07
1.07985e-06
4.27962e-07
1.08012e-06
5.61703e-07
5.61774e-07
4.32442e-07
4.27959e-07
1.07994e-06
4.2796e-07
1.08023e-06
5.617e-07
1.29012e-06
6.5762e-06
6.57621e-06
1.28995e-06
1.29012e-06
6.57639e-06
6.57639e-06
1.28994e-06
2.29962e-05
2.29963e-05
2.29976e-05
2.29976e-05
4.41401e-07
2.12519e-06
2.12563e-06
2.12535e-06
2.12578e-06
2.29962e-05
2.29963e-05
2.29976e-05
2.29977e-05
2.29939e-05
2.29939e-05
2.29973e-05
2.29973e-05
2.12524e-06
2.12571e-06
4.41312e-07
2.12507e-06
2.12556e-06
2.29939e-05
2.29939e-05
2.29973e-05
2.29972e-05
4.414e-07
2.12507e-06
2.12557e-06
2.12522e-06
2.12571e-06
1.29006e-06
6.57566e-06
1.29027e-06
6.57553e-06
5.61714e-07
1.08008e-06
4.27963e-07
4.32448e-07
5.6179e-07
1.0798e-06
4.27963e-07
5.61712e-07
1.08018e-06
4.27962e-07
4.32447e-07
5.61788e-07
1.07991e-06
4.27962e-07
1.29028e-06
6.57517e-06
6.57515e-06
1.29007e-06
1.29027e-06
6.5755e-06
6.57554e-06
1.29006e-06
5.61786e-07
4.32446e-07
1.07979e-06
4.2796e-07
1.08008e-06
4.2796e-07
5.61712e-07
5.61787e-07
4.32445e-07
1.07996e-06
4.27959e-07
1.08024e-06
4.2796e-07
5.61711e-07
2.12569e-06
2.1257e-06
4.41308e-07
2.12561e-06
2.1254e-06
2.29933e-05
2.29931e-05
2.29948e-05
2.29948e-05
4.41397e-07
2.12579e-06
2.12539e-06
2.12593e-06
2.1257e-06
2.29931e-05
2.29932e-05
5.61707e-07
1.08033e-06
4.27963e-07
4.32445e-07
5.6178e-07
1.08002e-06
4.27963e-07
1.28996e-06
6.57651e-06
1.29014e-06
6.57651e-06
5.61714e-07
4.27963e-07
1.08041e-06
4.32451e-07
5.61788e-07
4.27963e-07
1.0801e-06
1.29012e-06
6.57612e-06
6.5761e-06
1.28995e-06
5.61781e-07
4.32443e-07
1.08002e-06
4.2796e-07
1.08032e-06
4.2796e-07
5.61704e-07
1.29013e-06
6.5765e-06
6.57652e-06
1.28996e-06
5.61788e-07
4.32449e-07
4.2796e-07
1.0801e-06
4.27961e-07
1.08041e-06
5.61711e-07
1.29008e-06
6.5755e-06
1.29028e-06
6.57551e-06
5.61713e-07
4.27962e-07
1.08013e-06
4.32448e-07
5.61788e-07
4.27962e-07
1.07985e-06
1.29008e-06
6.57609e-06
1.29029e-06
6.57609e-06
5.61785e-07
4.32442e-07
1.07988e-06
4.27959e-07
1.08018e-06
4.27961e-07
5.61711e-07
1.29029e-06
6.5755e-06
6.57552e-06
1.29007e-06
5.61788e-07
4.32446e-07
4.2796e-07
1.07985e-06
4.2796e-07
1.08013e-06
5.61715e-07
1.29029e-06
6.57608e-06
6.57609e-06
1.29008e-06
2.12629e-06
2.12534e-06
4.41314e-07
2.12603e-06
2.12518e-06
2.2996e-05
2.2996e-05
2.29975e-05
2.29974e-05
4.41402e-07
2.12602e-06
2.12518e-06
2.12629e-06
2.12534e-06
2.2996e-05
2.2996e-05
5.617e-07
4.27962e-07
1.08023e-06
4.32445e-07
5.61776e-07
4.27962e-07
1.07994e-06
1.28995e-06
6.57621e-06
1.29012e-06
6.57621e-06
1.28995e-06
6.57639e-06
1.29012e-06
6.57639e-06
5.61778e-07
4.32444e-07
4.27959e-07
1.07985e-06
4.27962e-07
1.08012e-06
5.61703e-07
5.61776e-07
4.32442e-07
4.2796e-07
1.07994e-06
4.2796e-07
1.08023e-06
5.61701e-07
1.29012e-06
6.5762e-06
6.57621e-06
1.28995e-06
1.29012e-06
6.57639e-06
6.5764e-06
1.28994e-06
2.29962e-05
2.29963e-05
2.29976e-05
2.29976e-05
4.41401e-07
2.12519e-06
2.12563e-06
2.12535e-06
2.12578e-06
2.29962e-05
2.29963e-05
2.29976e-05
2.29976e-05
2.29939e-05
2.29944e-05
2.29973e-05
2.29973e-05
2.12523e-06
2.12571e-06
4.41312e-07
2.12511e-06
2.12556e-06
2.29944e-05
2.29944e-05
2.29973e-05
2.29972e-05
4.414e-07