/*--------------------------------*- C++ -*----------------------------------*\
| =========                 |                                                 |
| \\      /  F ield         | OpenFOAM: The Open Source CFD Toolbox           |
|  \\    /   O peration     | Version:  2206                                  |
|   \\  /    A nd           | Website:  www.openfoam.com                      |
|    \\/     M anipulation  |                                                 |
\*---------------------------------------------------------------------------*/
FoamFile
{
    version     2.0;
    format      ascii;
    arch        "LSB;label=32;scalar=64";
    class       volScalarField;
    location    "30";
    object      k;
}
// * * * * * * * * * * * * * * * * * * * * * * * * * * * * * * * * * * * * * //

dimensions      [0 2 -2 0 0 0 0];

internalField   nonuniform List<scalar> 
28687
(
2.58239e-05
2.52293e-05
2.52292e-05
2.46045e-05
2.58238e-05
2.52295e-05
2.52292e-05
2.46077e-05
2.58238e-05
2.52296e-05
2.52292e-05
2.46079e-05
2.58237e-05
2.52296e-05
2.52293e-05
2.4608e-05
2.58238e-05
2.52297e-05
2.52294e-05
2.46082e-05
2.58236e-05
2.52296e-05
2.52292e-05
2.46084e-05
2.58231e-05
2.52286e-05
2.52287e-05
2.46072e-05
2.5818e-05
2.52224e-05
2.52227e-05
2.46012e-05
2.58164e-05
2.52213e-05
2.52211e-05
2.45992e-05
2.58164e-05
2.52213e-05
2.52212e-05
2.45992e-05
2.58164e-05
2.52213e-05
2.52212e-05
2.45992e-05
2.58164e-05
2.52213e-05
2.52212e-05
2.45992e-05
2.58164e-05
2.52213e-05
2.52212e-05
2.45992e-05
2.58164e-05
2.52213e-05
2.52212e-05
2.45992e-05
2.58164e-05
2.52213e-05
2.52212e-05
2.45992e-05
2.58164e-05
2.52213e-05
2.52212e-05
2.45992e-05
2.58164e-05
2.52213e-05
2.52212e-05
2.45992e-05
2.58164e-05
2.52213e-05
2.52212e-05
2.45992e-05
2.52289e-05
2.46118e-05
2.52292e-05
2.46044e-05
2.46119e-05
2.5229e-05
2.52289e-05
2.5229e-05
2.52289e-05
2.46078e-05
2.46119e-05
2.52293e-05
2.52286e-05
2.52293e-05
2.52286e-05
2.5229e-05
2.52294e-05
2.5229e-05
2.46041e-05
2.46116e-05
2.52294e-05
2.52292e-05
2.52294e-05
2.46119e-05
2.46081e-05
2.46121e-05
2.52291e-05
2.5229e-05
2.5229e-05
2.5229e-05
2.4608e-05
2.46121e-05
2.52295e-05
2.52287e-05
2.52294e-05
2.52286e-05
2.52291e-05
2.52296e-05
2.5229e-05
2.46077e-05
2.46117e-05
2.52295e-05
2.52293e-05
2.52295e-05
2.4612e-05
2.46082e-05
2.46122e-05
2.52292e-05
2.52291e-05
2.52291e-05
2.52291e-05
2.46082e-05
2.46123e-05
2.52295e-05
2.52288e-05
2.52295e-05
2.52287e-05
2.52292e-05
2.52296e-05
2.52291e-05
2.46078e-05
2.46118e-05
2.52296e-05
2.52293e-05
2.52295e-05
2.46122e-05
2.46084e-05
2.46124e-05
2.52292e-05
2.52293e-05
2.52292e-05
2.52293e-05
2.46084e-05
2.46125e-05
2.52296e-05
2.52288e-05
2.52296e-05
2.52288e-05
2.52292e-05
2.52297e-05
2.52292e-05
2.4608e-05
2.46121e-05
2.52296e-05
2.52294e-05
2.52296e-05
2.46123e-05
2.46086e-05
2.46127e-05
2.52294e-05
2.52295e-05
2.52292e-05
2.52295e-05
2.46086e-05
2.46128e-05
2.52298e-05
2.5229e-05
2.52296e-05
2.5229e-05
2.52294e-05
2.52297e-05
2.52293e-05
2.46082e-05
2.46122e-05
2.52298e-05
2.52293e-05
2.52298e-05
2.46126e-05
2.46088e-05
2.46119e-05
2.52292e-05
2.52295e-05
2.52288e-05
2.52287e-05
2.46089e-05
2.46115e-05
2.52296e-05
2.52289e-05
2.52291e-05
2.52284e-05
2.52293e-05
2.52292e-05
2.52289e-05
2.46084e-05
2.46116e-05
2.52297e-05
2.5229e-05
2.52293e-05
2.46119e-05
2.46076e-05
2.46067e-05
2.52284e-05
2.52281e-05
2.52239e-05
2.5223e-05
2.4607e-05
2.46055e-05
2.52288e-05
2.52281e-05
2.52244e-05
2.52236e-05
2.52286e-05
2.52237e-05
2.52239e-05
2.46073e-05
2.46063e-05
2.52289e-05
2.52243e-05
2.52244e-05
2.46066e-05
2.46016e-05
2.46033e-05
2.52225e-05
2.52219e-05
2.52209e-05
2.52208e-05
2.46007e-05
2.46032e-05
2.52229e-05
2.52222e-05
2.52212e-05
2.52205e-05
2.52225e-05
2.52213e-05
2.52209e-05
2.46013e-05
2.46029e-05
2.52229e-05
2.52211e-05
2.52213e-05
2.46034e-05
2.45994e-05
2.46034e-05
2.52209e-05
2.52209e-05
2.52209e-05
2.52208e-05
2.45994e-05
2.46033e-05
2.52213e-05
2.52206e-05
2.52213e-05
2.52205e-05
2.5221e-05
2.52213e-05
2.52209e-05
2.4599e-05
2.4603e-05
2.52214e-05
2.52212e-05
2.52214e-05
2.46034e-05
2.45995e-05
2.46034e-05
2.5221e-05
2.52209e-05
2.52209e-05
2.52208e-05
2.45994e-05
2.46034e-05
2.52214e-05
2.52206e-05
2.52213e-05
2.52206e-05
2.5221e-05
2.52214e-05
2.5221e-05
2.45991e-05
2.4603e-05
2.52215e-05
2.52212e-05
2.52214e-05
2.46034e-05
2.45995e-05
2.46034e-05
2.5221e-05
2.52209e-05
2.52209e-05
2.52208e-05
2.45995e-05
2.46033e-05
2.52214e-05
2.52207e-05
2.52213e-05
2.52206e-05
2.52211e-05
2.52214e-05
2.5221e-05
2.45991e-05
2.4603e-05
2.52215e-05
2.52212e-05
2.52214e-05
2.46034e-05
2.45995e-05
2.46034e-05
2.5221e-05
2.52209e-05
2.52209e-05
2.52208e-05
2.45994e-05
2.46034e-05
2.52214e-05
2.52207e-05
2.52213e-05
2.52206e-05
2.52211e-05
2.52214e-05
2.5221e-05
2.45991e-05
2.4603e-05
2.52215e-05
2.52212e-05
2.52214e-05
2.46034e-05
2.45995e-05
2.46034e-05
2.5221e-05
2.52209e-05
2.52209e-05
2.52209e-05
2.45995e-05
2.46034e-05
2.52214e-05
2.52207e-05
2.52213e-05
2.52206e-05
2.52211e-05
2.52214e-05
2.5221e-05
2.45992e-05
2.4603e-05
2.52215e-05
2.52212e-05
2.52214e-05
2.46034e-05
2.45995e-05
2.46033e-05
2.5221e-05
2.52209e-05
2.52209e-05
2.52209e-05
2.45995e-05
2.46033e-05
2.52214e-05
2.52207e-05
2.52213e-05
2.52206e-05
2.52211e-05
2.52214e-05
2.5221e-05
2.45992e-05
2.4603e-05
2.52214e-05
2.52212e-05
2.52213e-05
2.46034e-05
2.45995e-05
2.46033e-05
2.5221e-05
2.52209e-05
2.52209e-05
2.52209e-05
2.45995e-05
2.46033e-05
2.52214e-05
2.52207e-05
2.52213e-05
2.52206e-05
2.52211e-05
2.52214e-05
2.5221e-05
2.45992e-05
2.4603e-05
2.52214e-05
2.52212e-05
2.52214e-05
2.46034e-05
2.45994e-05
2.46033e-05
2.5221e-05
2.52209e-05
2.52209e-05
2.52208e-05
2.45994e-05
2.46033e-05
2.52214e-05
2.52207e-05
2.52213e-05
2.52206e-05
2.52211e-05
2.52214e-05
2.5221e-05
2.45992e-05
2.4603e-05
2.52214e-05
2.52212e-05
2.52214e-05
2.46034e-05
2.45994e-05
2.46033e-05
2.52209e-05
2.52209e-05
2.52209e-05
2.52209e-05
2.45994e-05
2.46033e-05
2.52214e-05
2.52207e-05
2.52213e-05
2.52206e-05
2.52211e-05
2.52214e-05
2.5221e-05
2.45992e-05
2.4603e-05
2.52214e-05
2.52212e-05
2.52214e-05
2.46034e-05
2.45994e-05
2.52209e-05
2.52209e-05
2.45994e-05
2.52214e-05
2.52206e-05
2.5221e-05
2.45991e-05
2.52214e-05
2.82734e-05
6.99634e-05
2.82747e-05
6.99608e-05
7.85179e-05
7.85143e-05
2.82748e-05
6.99656e-05
2.82758e-05
6.99628e-05
2.58241e-05
2.58238e-05
2.58239e-05
2.58238e-05
2.58241e-05
2.58238e-05
2.58239e-05
2.36974e-05
2.78377e-05
2.5566e-05
2.52294e-05
2.36974e-05
2.78342e-05
2.5566e-05
7.85155e-05
7.85117e-05
2.36979e-05
2.55658e-05
2.78371e-05
2.52292e-05
2.36979e-05
2.55658e-05
2.78339e-05
3.49038e-05
3.4906e-05
2.46119e-05
3.49027e-05
3.4905e-05
2.82761e-05
6.99624e-05
2.82778e-05
6.996e-05
7.85113e-05
7.851e-05
2.82775e-05
6.99641e-05
2.82789e-05
6.99616e-05
2.5824e-05
2.58238e-05
2.58239e-05
2.58238e-05
2.58239e-05
2.58237e-05
2.58238e-05
2.36983e-05
2.78401e-05
2.55659e-05
2.52296e-05
2.36982e-05
2.78361e-05
2.5566e-05
7.8509e-05
7.85069e-05
2.36986e-05
2.55658e-05
2.78398e-05
2.52293e-05
2.36986e-05
2.55658e-05
2.78362e-05
3.49076e-05
3.49097e-05
2.4612e-05
3.4906e-05
3.49082e-05
2.82778e-05
6.99612e-05
2.82798e-05
6.9959e-05
7.85095e-05
7.85093e-05
2.8279e-05
6.99627e-05
2.82808e-05
6.99603e-05
2.5824e-05
2.58237e-05
2.58238e-05
2.58238e-05
2.58239e-05
2.58236e-05
2.58237e-05
2.36988e-05
2.78416e-05
2.55659e-05
2.52297e-05
2.36988e-05
2.78374e-05
2.5566e-05
7.8506e-05
7.85049e-05
2.36991e-05
2.55657e-05
2.78413e-05
2.52293e-05
2.36991e-05
2.55657e-05
2.78373e-05
3.49086e-05
3.49109e-05
2.46121e-05
3.49068e-05
3.49092e-05
2.82785e-05
6.99606e-05
2.82809e-05
6.99586e-05
7.85091e-05
7.85094e-05
2.82794e-05
6.99621e-05
2.82816e-05
6.996e-05
2.5824e-05
2.58237e-05
2.58238e-05
2.58238e-05
2.58239e-05
2.58237e-05
2.58237e-05
2.36992e-05
2.78426e-05
2.55659e-05
2.52297e-05
2.36993e-05
2.78382e-05
2.5566e-05
7.85054e-05
7.85051e-05
2.36992e-05
2.55657e-05
2.78422e-05
2.52294e-05
2.36994e-05
2.55658e-05
2.78382e-05
3.49106e-05
3.4913e-05
2.46123e-05
3.49094e-05
3.49118e-05
2.82792e-05
6.99605e-05
2.82814e-05
6.99588e-05
7.85106e-05
7.85109e-05
2.82803e-05
6.99622e-05
2.82822e-05
6.99604e-05
2.58241e-05
2.58237e-05
2.58239e-05
2.58236e-05
2.58239e-05
2.58235e-05
2.58238e-05
2.36996e-05
2.78431e-05
2.5566e-05
2.52298e-05
2.36996e-05
2.78386e-05
2.5566e-05
7.85064e-05
7.85065e-05
2.36998e-05
2.55658e-05
2.78429e-05
2.52294e-05
2.36997e-05
2.55658e-05
2.78387e-05
3.49131e-05
3.49156e-05
2.46125e-05
3.49114e-05
3.49139e-05
2.8279e-05
6.99611e-05
2.8282e-05
6.99601e-05
7.85126e-05
7.85115e-05
2.82802e-05
6.99629e-05
2.82829e-05
6.99617e-05
2.58238e-05
2.58235e-05
2.58238e-05
2.58233e-05
2.58234e-05
2.58232e-05
2.58234e-05
2.36995e-05
2.78433e-05
2.55659e-05
2.52296e-05
2.37e-05
2.78386e-05
2.55659e-05
7.85084e-05
7.85088e-05
2.36997e-05
2.55656e-05
2.78432e-05
2.52292e-05
2.37002e-05
2.55656e-05
2.78388e-05
3.49138e-05
3.49162e-05
2.46126e-05
3.49113e-05
3.49137e-05
2.82766e-05
6.99641e-05
2.82805e-05
6.99631e-05
7.85101e-05
7.85096e-05
2.82779e-05
6.99659e-05
2.82815e-05
6.99646e-05
2.58231e-05
2.5823e-05
2.58232e-05
2.58194e-05
2.58189e-05
2.58193e-05
2.58193e-05
2.36961e-05
2.78424e-05
2.55652e-05
2.52274e-05
2.3698e-05
2.7836e-05
2.55643e-05
7.8509e-05
7.8507e-05
2.36966e-05
2.55651e-05
2.78425e-05
2.5228e-05
2.36983e-05
2.55645e-05
2.78369e-05
3.49133e-05
3.49156e-05
2.461e-05
3.49103e-05
3.49127e-05
2.82714e-05
6.9965e-05
2.82757e-05
6.99628e-05
7.85095e-05
7.85092e-05
2.82726e-05
6.99668e-05
2.82766e-05
6.99644e-05
2.58178e-05
2.5818e-05
2.5818e-05
2.58164e-05
2.58165e-05
2.58164e-05
2.58165e-05
2.36889e-05
2.78368e-05
2.55595e-05
2.52218e-05
2.36902e-05
2.78307e-05
2.55587e-05
7.85062e-05
7.85053e-05
2.36895e-05
2.55596e-05
2.78377e-05
2.52219e-05
2.36906e-05
2.55588e-05
2.78317e-05
3.49099e-05
3.49122e-05
2.46041e-05
3.49059e-05
3.49083e-05
2.82695e-05
6.99644e-05
2.82724e-05
6.9962e-05
7.8509e-05
7.85086e-05
2.82708e-05
6.99662e-05
2.82734e-05
6.99647e-05
2.58166e-05
2.58165e-05
2.58166e-05
2.58164e-05
2.58165e-05
2.58164e-05
2.58165e-05
2.36888e-05
2.78342e-05
2.55581e-05
2.52214e-05
2.3689e-05
2.78294e-05
2.55582e-05
7.85057e-05
7.8505e-05
2.36893e-05
2.5558e-05
2.78347e-05
2.52212e-05
2.36895e-05
2.55581e-05
2.783e-05
3.49067e-05
3.4909e-05
2.46034e-05
3.49041e-05
3.49064e-05
2.82693e-05
6.99633e-05
2.82718e-05
6.99608e-05
7.85088e-05
7.85087e-05
2.82706e-05
6.99671e-05
2.82729e-05
6.99655e-05
2.58166e-05
2.58165e-05
2.58166e-05
2.58164e-05
2.58165e-05
2.58164e-05
2.58165e-05
2.36888e-05
2.78339e-05
2.55581e-05
2.52214e-05
2.3689e-05
2.78293e-05
2.55582e-05
7.85057e-05
7.8505e-05
2.36891e-05
2.5558e-05
2.78342e-05
2.52213e-05
2.36892e-05
2.55581e-05
2.78298e-05
3.49062e-05
3.49085e-05
2.46034e-05
3.49039e-05
3.49063e-05
2.82693e-05
6.99624e-05
2.82718e-05
6.99601e-05
7.85089e-05
7.85088e-05
2.82706e-05
6.99678e-05
2.82729e-05
6.99661e-05
2.58166e-05
2.58165e-05
2.58166e-05
2.58164e-05
2.58165e-05
2.58164e-05
2.58165e-05
2.36887e-05
2.78339e-05
2.55581e-05
2.52214e-05
2.3689e-05
2.78292e-05
2.55582e-05
7.85057e-05
7.8505e-05
2.36891e-05
2.5558e-05
2.78342e-05
2.52213e-05
2.36893e-05
2.55581e-05
2.78298e-05
3.49062e-05
3.49085e-05
2.46034e-05
3.49039e-05
3.49063e-05
2.82693e-05
6.99619e-05
2.82718e-05
6.99597e-05
7.8509e-05
7.8509e-05
2.82706e-05
6.99682e-05
2.82729e-05
6.99664e-05
2.58166e-05
2.58165e-05
2.58166e-05
2.58164e-05
2.58165e-05
2.58164e-05
2.58165e-05
2.36887e-05
2.78338e-05
2.55581e-05
2.52214e-05
2.36889e-05
2.78293e-05
2.55582e-05
7.85056e-05
7.8505e-05
2.36891e-05
2.5558e-05
2.78342e-05
2.52213e-05
2.36892e-05
2.55581e-05
2.78298e-05
3.49062e-05
3.49085e-05
2.46034e-05
3.49039e-05
3.49063e-05
2.82693e-05
6.99616e-05
2.82718e-05
6.99595e-05
7.85092e-05
7.85091e-05
2.82706e-05
6.99684e-05
2.82729e-05
6.99665e-05
2.58166e-05
2.58165e-05
2.58166e-05
2.58164e-05
2.58165e-05
2.58164e-05
2.58165e-05
2.36888e-05
2.78339e-05
2.55581e-05
2.52214e-05
2.3689e-05
2.78293e-05
2.55582e-05
7.85057e-05
7.8505e-05
2.36892e-05
2.5558e-05
2.78342e-05
2.52213e-05
2.36893e-05
2.55581e-05
2.78298e-05
3.49062e-05
3.49085e-05
2.46034e-05
3.49039e-05
3.49063e-05
2.82693e-05
6.99614e-05
2.82718e-05
6.99593e-05
7.85093e-05
7.85092e-05
2.82706e-05
6.99685e-05
2.82729e-05
6.99666e-05
2.58166e-05
2.58165e-05
2.58166e-05
2.58164e-05
2.58165e-05
2.58164e-05
2.58165e-05
2.36888e-05
2.78339e-05
2.55581e-05
2.52214e-05
2.36889e-05
2.78293e-05
2.55582e-05
7.85057e-05
7.8505e-05
2.36891e-05
2.5558e-05
2.78342e-05
2.52213e-05
2.36893e-05
2.55581e-05
2.78298e-05
3.49062e-05
3.49085e-05
2.46034e-05
3.49039e-05
3.49063e-05
2.82693e-05
6.99613e-05
2.82718e-05
6.99592e-05
7.85094e-05
7.85093e-05
2.82706e-05
6.99686e-05
2.82729e-05
6.99667e-05
2.58166e-05
2.58165e-05
2.58166e-05
2.58164e-05
2.58165e-05
2.58164e-05
2.58165e-05
2.36889e-05
2.78339e-05
2.55581e-05
2.52214e-05
2.3689e-05
2.78293e-05
2.55582e-05
7.85057e-05
7.8505e-05
2.36892e-05
2.5558e-05
2.78342e-05
2.52213e-05
2.36894e-05
2.55581e-05
2.78298e-05
3.49062e-05
3.49085e-05
2.46034e-05
3.49039e-05
3.49063e-05
2.82693e-05
6.99612e-05
2.82718e-05
6.99591e-05
7.85094e-05
7.85093e-05
2.82706e-05
6.99686e-05
2.82729e-05
6.99667e-05
2.58166e-05
2.58165e-05
2.58166e-05
2.58164e-05
2.58165e-05
2.58164e-05
2.58165e-05
2.36887e-05
2.78339e-05
2.55581e-05
2.52214e-05
2.3689e-05
2.78293e-05
2.55582e-05
7.85057e-05
7.8505e-05
2.36892e-05
2.5558e-05
2.78342e-05
2.52213e-05
2.36893e-05
2.55581e-05
2.78298e-05
3.49062e-05
3.49085e-05
2.46034e-05
3.49039e-05
3.49063e-05
2.82693e-05
6.99612e-05
2.82718e-05
6.99591e-05
7.85094e-05
7.85093e-05
2.82706e-05
6.99686e-05
2.82729e-05
6.99667e-05
2.58166e-05
2.58165e-05
2.58166e-05
2.58164e-05
2.58165e-05
2.58164e-05
2.58165e-05
2.36888e-05
2.78339e-05
2.55581e-05
2.52214e-05
2.36889e-05
2.78293e-05
2.55582e-05
7.85057e-05
7.8505e-05
2.36891e-05
2.5558e-05
2.78342e-05
2.52213e-05
2.36892e-05
2.55581e-05
2.78298e-05
3.49062e-05
3.49085e-05
2.46034e-05
3.49039e-05
3.49063e-05
2.82693e-05
6.99612e-05
2.82718e-05
6.99591e-05
7.85094e-05
7.85093e-05
2.82707e-05
6.99686e-05
2.82729e-05
6.99667e-05
2.58166e-05
2.58165e-05
2.58165e-05
2.36887e-05
2.78339e-05
2.55581e-05
2.52214e-05
2.3689e-05
2.78293e-05
2.55582e-05
7.85057e-05
7.8505e-05
2.36894e-05
2.5558e-05
2.78342e-05
2.52213e-05
2.36894e-05
2.55581e-05
2.78299e-05
3.49062e-05
3.49085e-05
2.46035e-05
3.49039e-05
3.49078e-05
6.99648e-05
2.78346e-05
7.85186e-05
3.49028e-05
3.48999e-05
7.85145e-05
2.78327e-05
6.99613e-05
7.85201e-05
7.85166e-05
7.8519e-05
7.8516e-05
3.49033e-05
3.49069e-05
2.46119e-05
3.49026e-05
3.49054e-05
7.85133e-05
7.85161e-05
7.85126e-05
7.85153e-05
2.4608e-05
3.49058e-05
3.49074e-05
3.49055e-05
3.4908e-05
2.82738e-05
6.99665e-05
2.82751e-05
6.99641e-05
2.36975e-05
2.78373e-05
2.55659e-05
2.5229e-05
2.36976e-05
2.7834e-05
2.55659e-05
2.36977e-05
2.78395e-05
2.5566e-05
2.52289e-05
2.36977e-05
2.78361e-05
2.5566e-05
2.82764e-05
6.99605e-05
6.99626e-05
2.82749e-05
2.82768e-05
6.99637e-05
6.99659e-05
2.82753e-05
2.36981e-05
2.5229e-05
2.78354e-05
2.55658e-05
2.78389e-05
2.55658e-05
2.3698e-05
2.36983e-05
2.52289e-05
2.78373e-05
2.55659e-05
2.7841e-05
2.5566e-05
2.36982e-05
3.49058e-05
3.49027e-05
2.46118e-05
3.49058e-05
3.49007e-05
7.85146e-05
7.85108e-05
7.85115e-05
7.8514e-05
2.46079e-05
3.49076e-05
3.48999e-05
3.49084e-05
3.49028e-05
7.85083e-05
7.85111e-05
2.3698e-05
2.78391e-05
2.55659e-05
2.52293e-05
2.3698e-05
2.78355e-05
2.55659e-05
2.82743e-05
6.99623e-05
2.82753e-05
6.99596e-05
2.36977e-05
2.55657e-05
2.78374e-05
2.52286e-05
2.36978e-05
2.55657e-05
2.78338e-05
2.82776e-05
6.99622e-05
6.99646e-05
2.82763e-05
2.36985e-05
2.52293e-05
2.78368e-05
2.55658e-05
2.78406e-05
2.55659e-05
2.36984e-05
2.82771e-05
6.99592e-05
6.99615e-05
2.82758e-05
2.36983e-05
2.52286e-05
2.55657e-05
2.78351e-05
2.55657e-05
2.7839e-05
2.36982e-05
2.82737e-05
6.99632e-05
2.82749e-05
6.99607e-05
2.36975e-05
2.55659e-05
2.78372e-05
2.5229e-05
2.36975e-05
2.55659e-05
2.78339e-05
2.82735e-05
6.99649e-05
2.82748e-05
6.99623e-05
2.3698e-05
2.52294e-05
2.78353e-05
2.55659e-05
2.78393e-05
2.5566e-05
2.3698e-05
2.82767e-05
6.99603e-05
6.99627e-05
2.82752e-05
2.36981e-05
2.5229e-05
2.55658e-05
2.78352e-05
2.55658e-05
2.78388e-05
2.3698e-05
2.82766e-05
6.99619e-05
6.9964e-05
2.82751e-05
3.4901e-05
3.49037e-05
2.46115e-05
3.48996e-05
3.49025e-05
7.85197e-05
7.85162e-05
7.85088e-05
7.85119e-05
2.46076e-05
3.49016e-05
3.49047e-05
3.49025e-05
3.49051e-05
7.85128e-05
7.85157e-05
2.3698e-05
2.55659e-05
2.78383e-05
2.52294e-05
2.3698e-05
2.55659e-05
2.7835e-05
2.82745e-05
6.99653e-05
2.82755e-05
6.99627e-05
2.82746e-05
6.99677e-05
2.82757e-05
6.99651e-05
2.36985e-05
2.52292e-05
2.55658e-05
2.78352e-05
2.55658e-05
2.78387e-05
2.36984e-05
2.36986e-05
2.52294e-05
2.55659e-05
2.78363e-05
2.55659e-05
2.78398e-05
2.36985e-05
2.82773e-05
6.99623e-05
6.99644e-05
2.8276e-05
2.82774e-05
6.99647e-05
6.99669e-05
2.82762e-05
7.85197e-05
7.85162e-05
7.85191e-05
7.85156e-05
2.4608e-05
3.49049e-05
3.49071e-05
3.49053e-05
3.49075e-05
7.85128e-05
7.85157e-05
7.85123e-05
7.85151e-05
7.8513e-05
7.85113e-05
7.85121e-05
7.85103e-05
3.49082e-05
3.49098e-05
2.4612e-05
3.49065e-05
3.49083e-05
7.85102e-05
7.85114e-05
7.85089e-05
7.85099e-05
2.46081e-05
3.49064e-05
3.49085e-05
3.49084e-05
3.49104e-05
2.82765e-05
6.99655e-05
2.82783e-05
6.99629e-05
2.36983e-05
2.78402e-05
2.55659e-05
2.52291e-05
2.36986e-05
2.78363e-05
2.55659e-05
2.36984e-05
2.78421e-05
2.55659e-05
2.5229e-05
2.36987e-05
2.78382e-05
2.55659e-05
2.8279e-05
6.99594e-05
6.99618e-05
2.82771e-05
2.82794e-05
6.99622e-05
6.99646e-05
2.82775e-05
2.36988e-05
2.52291e-05
2.78369e-05
2.55659e-05
2.7841e-05
2.55659e-05
2.36986e-05
2.3699e-05
2.5229e-05
2.78388e-05
2.55658e-05
2.78429e-05
2.55658e-05
2.36988e-05
3.49099e-05
3.49022e-05
2.4612e-05
3.49085e-05
3.49005e-05
7.85086e-05
7.85066e-05
7.85095e-05
7.85102e-05
2.46081e-05
3.49093e-05
3.4902e-05
3.49107e-05
3.49032e-05
7.85057e-05
7.85071e-05
2.36987e-05
2.78418e-05
2.55659e-05
2.52294e-05
2.3699e-05
2.78377e-05
2.55659e-05
2.8277e-05
6.99612e-05
2.82785e-05
6.99586e-05
2.36984e-05
2.55657e-05
2.78402e-05
2.52287e-05
2.36987e-05
2.55657e-05
2.78361e-05
2.82801e-05
6.99608e-05
6.99634e-05
2.82784e-05
2.36992e-05
2.52294e-05
2.78383e-05
2.55659e-05
2.78426e-05
2.55659e-05
2.3699e-05
2.82796e-05
6.99578e-05
6.99605e-05
2.82779e-05
2.36989e-05
2.52287e-05
2.55656e-05
2.78368e-05
2.55656e-05
2.78411e-05
2.36988e-05
2.82764e-05
6.99621e-05
2.82782e-05
6.99594e-05
2.36983e-05
2.55659e-05
2.784e-05
2.52291e-05
2.36986e-05
2.55659e-05
2.78362e-05
2.82763e-05
6.99637e-05
2.8278e-05
6.99613e-05
2.36988e-05
2.52296e-05
2.78368e-05
2.5566e-05
2.7841e-05
2.5566e-05
2.36986e-05
2.82793e-05
6.99586e-05
6.99612e-05
2.82773e-05
2.36989e-05
2.52291e-05
2.55658e-05
2.78368e-05
2.55659e-05
2.78409e-05
2.36986e-05
2.82791e-05
6.99604e-05
6.9963e-05
2.82772e-05
3.49041e-05
3.4907e-05
2.46116e-05
3.49025e-05
3.49058e-05
7.85126e-05
7.85109e-05
7.85056e-05
7.85073e-05
2.46077e-05
3.49034e-05
3.49061e-05
3.4905e-05
3.49078e-05
7.85098e-05
7.8511e-05
2.36987e-05
2.55659e-05
2.78411e-05
2.52295e-05
2.3699e-05
2.55658e-05
2.78372e-05
2.82772e-05
6.99641e-05
2.82787e-05
6.99617e-05
2.82774e-05
6.99666e-05
2.82789e-05
6.99641e-05
2.36991e-05
2.52293e-05
2.55657e-05
2.78368e-05
2.55658e-05
2.78408e-05
2.3699e-05
2.36992e-05
2.52295e-05
2.55658e-05
2.78379e-05
2.55658e-05
2.7842e-05
2.36992e-05
2.82798e-05
6.99608e-05
6.99634e-05
2.82781e-05
2.828e-05
6.99633e-05
6.99658e-05
2.82783e-05
7.85126e-05
7.85109e-05
7.8512e-05
7.85103e-05
2.46081e-05
3.49063e-05
3.49086e-05
3.4908e-05
3.49103e-05
7.85098e-05
7.8511e-05
7.85092e-05
7.85104e-05
7.85105e-05
7.85097e-05
7.8509e-05
7.85085e-05
3.49084e-05
3.49106e-05
2.46121e-05
3.49069e-05
3.49091e-05
7.85096e-05
7.85102e-05
7.85086e-05
7.85086e-05
2.46083e-05
3.49081e-05
3.49104e-05
3.49091e-05
3.49114e-05
2.82782e-05
6.9964e-05
2.82803e-05
6.99619e-05
2.3699e-05
2.78416e-05
2.5566e-05
2.52292e-05
2.36992e-05
2.78375e-05
2.55659e-05
2.36992e-05
2.78435e-05
2.55659e-05
2.52291e-05
2.36994e-05
2.78393e-05
2.55659e-05
2.82806e-05
6.99587e-05
6.99608e-05
2.82783e-05
2.8281e-05
6.99618e-05
6.99637e-05
2.82786e-05
2.36996e-05
2.52291e-05
2.7838e-05
2.55659e-05
2.78421e-05
2.55659e-05
2.36994e-05
2.36998e-05
2.52291e-05
2.78397e-05
2.55659e-05
2.78439e-05
2.55659e-05
2.36996e-05
3.49116e-05
3.49047e-05
2.46122e-05
3.49104e-05
3.49036e-05
7.85063e-05
7.85054e-05
7.85089e-05
7.85097e-05
2.46083e-05
3.49117e-05
3.49049e-05
3.49128e-05
3.49062e-05
7.85054e-05
7.8506e-05
2.36995e-05
2.78432e-05
2.5566e-05
2.52295e-05
2.36996e-05
2.78388e-05
2.55659e-05
2.82785e-05
6.99598e-05
2.82805e-05
6.99573e-05
2.36993e-05
2.55657e-05
2.78418e-05
2.52288e-05
2.36993e-05
2.55657e-05
2.78374e-05
2.82815e-05
6.996e-05
6.99622e-05
2.82793e-05
2.37e-05
2.52295e-05
2.78393e-05
2.55659e-05
2.78437e-05
2.55659e-05
2.36997e-05
2.8281e-05
6.9957e-05
6.99593e-05
2.82788e-05
2.36998e-05
2.52287e-05
2.55656e-05
2.78379e-05
2.55656e-05
2.78423e-05
2.36995e-05
2.8278e-05
6.99606e-05
2.82802e-05
6.99583e-05
2.3699e-05
2.55659e-05
2.78415e-05
2.52292e-05
2.36992e-05
2.55659e-05
2.78374e-05
2.82779e-05
6.99622e-05
2.828e-05
6.99599e-05
2.36994e-05
2.52297e-05
2.78379e-05
2.55659e-05
2.78423e-05
2.5566e-05
2.36992e-05
2.82808e-05
6.99581e-05
6.99603e-05
2.82784e-05
2.36996e-05
2.52291e-05
2.55658e-05
2.78378e-05
2.55658e-05
2.7842e-05
2.36993e-05
2.82806e-05
6.99596e-05
6.99617e-05
2.82783e-05
3.49059e-05
3.49081e-05
2.46117e-05
3.49045e-05
3.49067e-05
7.85101e-05
7.85094e-05
7.85048e-05
7.85055e-05
2.46079e-05
3.49056e-05
3.49078e-05
3.49069e-05
3.49088e-05
7.85092e-05
7.85098e-05
2.36995e-05
2.55658e-05
2.78426e-05
2.52296e-05
2.36997e-05
2.55658e-05
2.78384e-05
2.82787e-05
6.99626e-05
2.82807e-05
6.99603e-05
2.82789e-05
6.9965e-05
2.82808e-05
6.99627e-05
2.36996e-05
2.52293e-05
2.55657e-05
2.78378e-05
2.55657e-05
2.78419e-05
2.36993e-05
2.37001e-05
2.52295e-05
2.55657e-05
2.78389e-05
2.55657e-05
2.78431e-05
2.36997e-05
2.82811e-05
6.996e-05
6.99621e-05
2.82789e-05
2.82813e-05
6.99625e-05
6.99646e-05
2.82791e-05
7.85101e-05
7.85094e-05
7.85095e-05
7.85088e-05
2.46083e-05
3.4908e-05
3.49104e-05
3.49091e-05
3.49114e-05
7.85092e-05
7.85098e-05
7.85086e-05
7.85092e-05
7.85101e-05
7.85098e-05
7.85089e-05
7.8509e-05
3.49104e-05
3.49128e-05
2.46124e-05
3.49095e-05
3.49119e-05
7.85104e-05
7.85104e-05
7.85095e-05
7.85093e-05
2.46085e-05
3.49108e-05
3.49133e-05
3.49118e-05
3.49143e-05
2.82789e-05
6.99637e-05
2.82814e-05
6.99618e-05
2.36996e-05
2.78426e-05
2.5566e-05
2.52292e-05
2.37e-05
2.78384e-05
2.5566e-05
2.36998e-05
2.78443e-05
2.55661e-05
2.52293e-05
2.37001e-05
2.784e-05
2.55661e-05
2.82812e-05
6.99585e-05
6.99605e-05
2.82788e-05
2.82816e-05
6.9962e-05
6.99637e-05
2.82793e-05
2.37001e-05
2.52292e-05
2.78387e-05
2.5566e-05
2.7843e-05
2.5566e-05
2.36998e-05
2.37003e-05
2.52293e-05
2.78403e-05
2.55661e-05
2.78446e-05
2.55661e-05
2.37001e-05
3.49141e-05
3.49075e-05
2.46124e-05
3.4913e-05
3.4906e-05
7.85062e-05
7.85058e-05
7.85103e-05
7.85101e-05
2.46085e-05
3.49137e-05
3.49068e-05
3.49151e-05
3.49085e-05
7.85066e-05
7.85067e-05
2.36998e-05
2.78441e-05
2.5566e-05
2.52296e-05
2.37002e-05
2.78397e-05
2.5566e-05
2.8279e-05
6.9959e-05
2.82812e-05
6.99569e-05
2.36995e-05
2.55657e-05
2.78427e-05
2.52288e-05
2.36999e-05
2.55657e-05
2.78383e-05
2.82819e-05
6.99601e-05
6.99621e-05
2.82798e-05
2.37003e-05
2.52296e-05
2.78401e-05
2.55659e-05
2.78446e-05
2.55659e-05
2.37001e-05
2.82814e-05
6.9957e-05
6.9959e-05
2.82794e-05
2.37e-05
2.52288e-05
2.55656e-05
2.78387e-05
2.55656e-05
2.78431e-05
2.36998e-05
2.82786e-05
6.99602e-05
2.82811e-05
6.99581e-05
2.36994e-05
2.55659e-05
2.78424e-05
2.52292e-05
2.36998e-05
2.55659e-05
2.78382e-05
2.82785e-05
6.99615e-05
2.8281e-05
6.99596e-05
2.36997e-05
2.52297e-05
2.78385e-05
2.5566e-05
2.7843e-05
2.5566e-05
2.36995e-05
2.82813e-05
6.99583e-05
6.99602e-05
2.82789e-05
2.36999e-05
2.52292e-05
2.55659e-05
2.78386e-05
2.55659e-05
2.78428e-05
2.36996e-05
2.82812e-05
6.99596e-05
6.99615e-05
2.82788e-05
3.49081e-05
3.49101e-05
2.4612e-05
3.49069e-05
3.49093e-05
7.85097e-05
7.85095e-05
7.85057e-05
7.8506e-05
2.46081e-05
3.49081e-05
3.49106e-05
3.49095e-05
3.49116e-05
7.851e-05
7.85101e-05
2.36997e-05
2.55658e-05
2.78435e-05
2.52296e-05
2.37001e-05
2.55658e-05
2.78393e-05
2.82791e-05
6.99619e-05
2.82813e-05
6.996e-05
2.82793e-05
6.99644e-05
2.82815e-05
6.99624e-05
2.36997e-05
2.52294e-05
2.55658e-05
2.78385e-05
2.55658e-05
2.78427e-05
2.36996e-05
2.37002e-05
2.52296e-05
2.55658e-05
2.78397e-05
2.55658e-05
2.78439e-05
2.37e-05
2.82815e-05
6.99601e-05
6.99619e-05
2.82794e-05
2.82817e-05
6.99625e-05
6.99644e-05
2.82797e-05
7.85097e-05
7.85095e-05
7.85091e-05
7.85089e-05
2.46084e-05
3.49107e-05
3.49131e-05
3.49117e-05
3.49141e-05
7.851e-05
7.85101e-05
7.85094e-05
7.85095e-05
7.8511e-05
7.85112e-05
7.85098e-05
7.85101e-05
3.4913e-05
3.49155e-05
2.46126e-05
3.49117e-05
3.49142e-05
7.85122e-05
7.85118e-05
7.85111e-05
7.85105e-05
2.46087e-05
3.49117e-05
3.49144e-05
3.49137e-05
3.49163e-05
2.82796e-05
6.9964e-05
2.8282e-05
6.99622e-05
2.37002e-05
2.78433e-05
2.55661e-05
2.52294e-05
2.37004e-05
2.7839e-05
2.55661e-05
2.37005e-05
2.78449e-05
2.55662e-05
2.52295e-05
2.37006e-05
2.78404e-05
2.55662e-05
2.82819e-05
6.9959e-05
6.99607e-05
2.82795e-05
2.82823e-05
6.99628e-05
6.99642e-05
2.828e-05
2.37008e-05
2.52293e-05
2.78391e-05
2.55659e-05
2.78436e-05
2.5566e-05
2.37004e-05
2.3701e-05
2.52295e-05
2.78405e-05
2.55661e-05
2.7845e-05
2.55662e-05
2.37006e-05
3.49158e-05
3.49093e-05
2.46127e-05
3.49141e-05
3.49074e-05
7.85076e-05
7.85073e-05
7.85121e-05
7.85114e-05
2.46088e-05
3.49137e-05
3.49073e-05
3.4916e-05
3.49097e-05
7.85086e-05
7.85084e-05
2.37005e-05
2.78449e-05
2.55659e-05
2.52298e-05
2.37006e-05
2.78404e-05
2.55658e-05
2.82799e-05
6.99592e-05
2.82819e-05
6.99573e-05
2.37003e-05
2.55658e-05
2.78435e-05
2.5229e-05
2.37004e-05
2.55658e-05
2.78389e-05
2.82828e-05
6.99607e-05
6.99625e-05
2.82806e-05
2.37011e-05
2.52297e-05
2.78405e-05
2.55657e-05
2.78451e-05
2.55657e-05
2.37006e-05
2.82823e-05
6.99576e-05
6.99594e-05
2.82802e-05
2.37009e-05
2.5229e-05
2.55658e-05
2.78391e-05
2.55658e-05
2.78437e-05
2.37004e-05
2.82792e-05
6.99605e-05
2.82816e-05
6.99586e-05
2.37e-05
2.5566e-05
2.78431e-05
2.52294e-05
2.37002e-05
2.5566e-05
2.78388e-05
2.82792e-05
6.99616e-05
2.82815e-05
6.99599e-05
2.37002e-05
2.52297e-05
2.78387e-05
2.55659e-05
2.78434e-05
2.5566e-05
2.36999e-05
2.82819e-05
6.99594e-05
6.99608e-05
2.82795e-05
2.37006e-05
2.52294e-05
2.5566e-05
2.78389e-05
2.5566e-05
2.78433e-05
2.37001e-05
2.82819e-05
6.99602e-05
6.99619e-05
2.82795e-05
3.49106e-05
3.49128e-05
2.46122e-05
3.49089e-05
3.49115e-05
7.85107e-05
7.85108e-05
7.85074e-05
7.85075e-05
2.46083e-05
3.49091e-05
3.49117e-05
3.49113e-05
3.49135e-05
7.85118e-05
7.85115e-05
2.37004e-05
2.5566e-05
2.78443e-05
2.52298e-05
2.37006e-05
2.5566e-05
2.78399e-05
2.82799e-05
6.9962e-05
2.82819e-05
6.99603e-05
2.82801e-05
6.99645e-05
2.82822e-05
6.99628e-05
2.37003e-05
2.52293e-05
2.55656e-05
2.78388e-05
2.55657e-05
2.78432e-05
2.37002e-05
2.3701e-05
2.52298e-05
2.55659e-05
2.784e-05
2.5566e-05
2.78445e-05
2.37005e-05
2.82823e-05
6.99606e-05
6.99623e-05
2.82802e-05
2.82826e-05
6.99631e-05
6.99648e-05
2.82805e-05
7.85107e-05
7.85108e-05
7.85101e-05
7.85102e-05
2.46086e-05
3.49117e-05
3.49141e-05
3.49136e-05
3.4916e-05
7.85118e-05
7.85115e-05
7.85112e-05
7.85109e-05
7.85128e-05
7.85135e-05
7.85116e-05
7.85124e-05
3.49135e-05
3.49163e-05
2.46126e-05
3.49112e-05
3.4914e-05
7.85134e-05
7.8514e-05
7.85125e-05
7.85126e-05
2.46087e-05
3.49109e-05
3.49137e-05
3.49131e-05
3.49159e-05
2.82795e-05
6.99651e-05
2.82826e-05
6.99637e-05
2.36993e-05
2.78437e-05
2.55659e-05
2.52292e-05
2.37006e-05
2.7839e-05
2.55658e-05
2.36995e-05
2.7845e-05
2.5566e-05
2.52294e-05
2.37009e-05
2.78405e-05
2.55658e-05
2.82814e-05
6.99619e-05
6.99624e-05
2.82781e-05
2.82819e-05
6.99646e-05
6.99661e-05
2.82785e-05
2.36992e-05
2.5229e-05
2.78385e-05
2.55654e-05
2.78435e-05
2.55656e-05
2.36981e-05
2.36994e-05
2.52291e-05
2.78401e-05
2.55655e-05
2.78453e-05
2.55656e-05
2.36982e-05
3.49157e-05
3.49095e-05
2.46126e-05
3.49136e-05
3.49073e-05
7.85097e-05
7.85093e-05
7.85098e-05
7.85121e-05
2.46085e-05
3.49131e-05
3.4907e-05
3.49157e-05
3.49096e-05
7.85084e-05
7.85099e-05
2.36995e-05
2.78452e-05
2.55657e-05
2.52294e-05
2.37008e-05
2.78404e-05
2.55657e-05
2.82797e-05
6.99598e-05
2.82826e-05
6.99586e-05
2.36993e-05
2.55658e-05
2.78438e-05
2.52288e-05
2.37006e-05
2.55658e-05
2.7839e-05
2.82824e-05
6.99635e-05
6.99642e-05
2.82794e-05
2.36995e-05
2.52292e-05
2.78399e-05
2.55655e-05
2.78451e-05
2.55656e-05
2.36985e-05
2.82819e-05
6.99604e-05
6.99611e-05
2.82789e-05
2.36993e-05
2.52286e-05
2.55654e-05
2.78385e-05
2.55656e-05
2.78437e-05
2.36983e-05
2.82792e-05
6.99619e-05
2.82822e-05
6.99611e-05
2.36992e-05
2.5566e-05
2.78434e-05
2.52292e-05
2.37004e-05
2.55659e-05
2.78389e-05
2.8279e-05
6.99623e-05
2.82821e-05
6.99612e-05
2.36995e-05
2.52294e-05
2.78381e-05
2.55656e-05
2.78433e-05
2.55657e-05
2.36981e-05
2.82816e-05
6.99626e-05
6.99635e-05
2.82783e-05
2.36992e-05
2.52291e-05
2.55656e-05
2.78384e-05
2.55658e-05
2.78433e-05
2.36981e-05
2.82814e-05
6.9963e-05
6.99635e-05
2.82782e-05
3.49112e-05
3.49135e-05
2.46122e-05
3.49087e-05
3.49113e-05
7.85126e-05
7.85131e-05
7.85088e-05
7.85097e-05
2.46083e-05
3.49084e-05
3.49111e-05
3.49108e-05
3.49132e-05
7.85128e-05
7.85137e-05
2.36996e-05
2.55658e-05
2.78446e-05
2.52297e-05
2.37008e-05
2.55657e-05
2.78399e-05
2.82799e-05
6.99627e-05
2.82826e-05
6.99616e-05
2.828e-05
6.99652e-05
2.82828e-05
6.99641e-05
2.36997e-05
2.52291e-05
2.55654e-05
2.78384e-05
2.55655e-05
2.78432e-05
2.36984e-05
2.36996e-05
2.52295e-05
2.55654e-05
2.78394e-05
2.55656e-05
2.78444e-05
2.36986e-05
2.82821e-05
6.99634e-05
6.9964e-05
2.82791e-05
2.82822e-05
6.99659e-05
6.99664e-05
2.82792e-05
7.85126e-05
7.85131e-05
7.8512e-05
7.85125e-05
2.46086e-05
3.49111e-05
3.49135e-05
3.49132e-05
3.49156e-05
7.85128e-05
7.85137e-05
7.85122e-05
7.85131e-05
7.85131e-05
7.85119e-05
7.8512e-05
7.85106e-05
3.49128e-05
3.49157e-05
2.46101e-05
3.49101e-05
3.49129e-05
7.85108e-05
7.85118e-05
7.85095e-05
7.85102e-05
2.46051e-05
3.49081e-05
3.49108e-05
3.49118e-05
3.49145e-05