/*--------------------------------*- C++ -*----------------------------------*\
| =========                 |                                                 |
| \\      /  F ield         | OpenFOAM: The Open Source CFD Toolbox           |
|  \\    /   O peration     | Version:  2206                                  |
|   \\  /    A nd           | Website:  www.openfoam.com                      |
|    \\/     M anipulation  |                                                 |
\*---------------------------------------------------------------------------*/
FoamFile
{
    version     2.0;
    format      ascii;
    arch        "LSB;label=32;scalar=64";
    class       volScalarField;
    location    "27";
    object      k;
}
// * * * * * * * * * * * * * * * * * * * * * * * * * * * * * * * * * * * * * //

dimensions      [0 2 -2 0 0 0 0];

internalField   nonuniform List<scalar> 
28897
(
2.67211e-05
2.62135e-05
2.62131e-05
2.56523e-05
2.67212e-05
2.62136e-05
2.62132e-05
2.56524e-05
2.67213e-05
2.62136e-05
2.62132e-05
2.56527e-05
2.67211e-05
2.62136e-05
2.62131e-05
2.56529e-05
2.67209e-05
2.62135e-05
2.62132e-05
2.5653e-05
2.67201e-05
2.62128e-05
2.62121e-05
2.56512e-05
2.67143e-05
2.62062e-05
2.62054e-05
2.56444e-05
2.67134e-05
2.62047e-05
2.62046e-05
2.56432e-05
2.67134e-05
2.62048e-05
2.62047e-05
2.56432e-05
2.67134e-05
2.62048e-05
2.62047e-05
2.56433e-05
2.67134e-05
2.62048e-05
2.62047e-05
2.56433e-05
2.67134e-05
2.62048e-05
2.62047e-05
2.56432e-05
2.67134e-05
2.62048e-05
2.62047e-05
2.56433e-05
2.67134e-05
2.62048e-05
2.62047e-05
2.56433e-05
2.67134e-05
2.62048e-05
2.62047e-05
2.56433e-05
2.67134e-05
2.62048e-05
2.62047e-05
2.56433e-05
2.67134e-05
2.62048e-05
2.62047e-05
2.56433e-05
2.67136e-05
2.62049e-05
2.62048e-05
2.56433e-05
2.5656e-05
2.62129e-05
2.62129e-05
2.56561e-05
2.62133e-05
2.62126e-05
2.62136e-05
2.6213e-05
2.56558e-05
2.62131e-05
2.62133e-05
2.56561e-05
2.56525e-05
2.56561e-05
2.62131e-05
2.62131e-05
2.6213e-05
2.62131e-05
2.56526e-05
2.56563e-05
2.62135e-05
2.62129e-05
2.62134e-05
2.62128e-05
2.62132e-05
2.62137e-05
2.62131e-05
2.56523e-05
2.56558e-05
2.62135e-05
2.62132e-05
2.62134e-05
2.56562e-05
2.56526e-05
2.56563e-05
2.62131e-05
2.62132e-05
2.62131e-05
2.62132e-05
2.56528e-05
2.56564e-05
2.62135e-05
2.62129e-05
2.62135e-05
2.62129e-05
2.62133e-05
2.62136e-05
2.62132e-05
2.56523e-05
2.5656e-05
2.62135e-05
2.62132e-05
2.62135e-05
2.56564e-05
2.56528e-05
2.56565e-05
2.62133e-05
2.62134e-05
2.6213e-05
2.62133e-05
2.56529e-05
2.56567e-05
2.62137e-05
2.62131e-05
2.62134e-05
2.6213e-05
2.62135e-05
2.62137e-05
2.62135e-05
2.56525e-05
2.56562e-05
2.62136e-05
2.62131e-05
2.62136e-05
2.56566e-05
2.5653e-05
2.56567e-05
2.62131e-05
2.62134e-05
2.62131e-05
2.62133e-05
2.56532e-05
2.56569e-05
2.62135e-05
2.6213e-05
2.62136e-05
2.62127e-05
2.62136e-05
2.62135e-05
2.62134e-05
2.56527e-05
2.56564e-05
2.62137e-05
2.62132e-05
2.62134e-05
2.56568e-05
2.56532e-05
2.56557e-05
2.62131e-05
2.62133e-05
2.62126e-05
2.62127e-05
2.56534e-05
2.56562e-05
2.62136e-05
2.62126e-05
2.6213e-05
2.62122e-05
2.62133e-05
2.62132e-05
2.62127e-05
2.56529e-05
2.56553e-05
2.62134e-05
2.62127e-05
2.62129e-05
2.56557e-05
2.56515e-05
2.5649e-05
2.62119e-05
2.62122e-05
2.62063e-05
2.62068e-05
2.56522e-05
2.56502e-05
2.62123e-05
2.62116e-05
2.62067e-05
2.62061e-05
2.62121e-05
2.62077e-05
2.62066e-05
2.56512e-05
2.56487e-05
2.62123e-05
2.62066e-05
2.62068e-05
2.56491e-05
2.56446e-05
2.56469e-05
2.62052e-05
2.62055e-05
2.62043e-05
2.62043e-05
2.56455e-05
2.56469e-05
2.62056e-05
2.6205e-05
2.62047e-05
2.62041e-05
2.62054e-05
2.62047e-05
2.62044e-05
2.56443e-05
2.56466e-05
2.62056e-05
2.62046e-05
2.62047e-05
2.5647e-05
2.56434e-05
2.56469e-05
2.62044e-05
2.62044e-05
2.62044e-05
2.62044e-05
2.56433e-05
2.5647e-05
2.62049e-05
2.62042e-05
2.62048e-05
2.62041e-05
2.62045e-05
2.62048e-05
2.62045e-05
2.56431e-05
2.56467e-05
2.62049e-05
2.62047e-05
2.62048e-05
2.5647e-05
2.56434e-05
2.5647e-05
2.62045e-05
2.62045e-05
2.62044e-05
2.62044e-05
2.56435e-05
2.5647e-05
2.62049e-05
2.62042e-05
2.62048e-05
2.62042e-05
2.62046e-05
2.62048e-05
2.62045e-05
2.56431e-05
2.56467e-05
2.62049e-05
2.62047e-05
2.62048e-05
2.56471e-05
2.56435e-05
2.56469e-05
2.62045e-05
2.62045e-05
2.62044e-05
2.62044e-05
2.56435e-05
2.5647e-05
2.62049e-05
2.62043e-05
2.62048e-05
2.62041e-05
2.62046e-05
2.62048e-05
2.62045e-05
2.56432e-05
2.56467e-05
2.62049e-05
2.62047e-05
2.62048e-05
2.5647e-05
2.56434e-05
2.5647e-05
2.62045e-05
2.62045e-05
2.62044e-05
2.62044e-05
2.56434e-05
2.5647e-05
2.62049e-05
2.62042e-05
2.62048e-05
2.62041e-05
2.62046e-05
2.62048e-05
2.62045e-05
2.56432e-05
2.56467e-05
2.62049e-05
2.62047e-05
2.62048e-05
2.5647e-05
2.56434e-05
2.56469e-05
2.62045e-05
2.62045e-05
2.62044e-05
2.62044e-05
2.56435e-05
2.5647e-05
2.62049e-05
2.62042e-05
2.62048e-05
2.62041e-05
2.62046e-05
2.62048e-05
2.62045e-05
2.56432e-05
2.56467e-05
2.62049e-05
2.62047e-05
2.62048e-05
2.5647e-05
2.56434e-05
2.56469e-05
2.62045e-05
2.62045e-05
2.62044e-05
2.62044e-05
2.56435e-05
2.5647e-05
2.62049e-05
2.62042e-05
2.62048e-05
2.62041e-05
2.62046e-05
2.62048e-05
2.62045e-05
2.56432e-05
2.56467e-05
2.62049e-05
2.62047e-05
2.62048e-05
2.5647e-05
2.56434e-05
2.5647e-05
2.62045e-05
2.62045e-05
2.62045e-05
2.62044e-05
2.56434e-05
2.56469e-05
2.62049e-05
2.62042e-05
2.62048e-05
2.62041e-05
2.62046e-05
2.62048e-05
2.62045e-05
2.56432e-05
2.56467e-05
2.62049e-05
2.62047e-05
2.62048e-05
2.5647e-05
2.56435e-05
2.5647e-05
2.62046e-05
2.62045e-05
2.62045e-05
2.62044e-05
2.56434e-05
2.5647e-05
2.62049e-05
2.62042e-05
2.62048e-05
2.62041e-05
2.62046e-05
2.62048e-05
2.62045e-05
2.56432e-05
2.56467e-05
2.62049e-05
2.62047e-05
2.62048e-05
2.5647e-05
2.56435e-05
2.5647e-05
2.62046e-05
2.62045e-05
2.62045e-05
2.62044e-05
2.56434e-05
2.5647e-05
2.62049e-05
2.62042e-05
2.62048e-05
2.62041e-05
2.62046e-05
2.62048e-05
2.62045e-05
2.56432e-05
2.56467e-05
2.62049e-05
2.62047e-05
2.62048e-05
2.5647e-05
2.56435e-05
2.5647e-05
2.62046e-05
2.62045e-05
2.62045e-05
2.62044e-05
2.56435e-05
2.5647e-05
2.62049e-05
2.62042e-05
2.62048e-05
2.62042e-05
2.62046e-05
2.62048e-05
2.62045e-05
2.56432e-05
2.56467e-05
2.62049e-05
2.62047e-05
2.62048e-05
2.5647e-05
2.56435e-05
2.62046e-05
2.62045e-05
2.56435e-05
2.62049e-05
2.62043e-05
2.62046e-05
2.56432e-05
2.62049e-05
2.67212e-05
2.67213e-05
2.67212e-05
2.67212e-05
2.86329e-05
6.98277e-05
2.86342e-05
6.98243e-05
7.99417e-05
7.99373e-05
2.86342e-05
6.98348e-05
2.86352e-05
6.98316e-05
2.67215e-05
2.67214e-05
2.67214e-05
2.67212e-05
2.67214e-05
2.67213e-05
2.67213e-05
2.47435e-05
2.82113e-05
2.65097e-05
2.62137e-05
2.47433e-05
2.82083e-05
2.65099e-05
7.99358e-05
7.9932e-05
2.4744e-05
2.65096e-05
2.82119e-05
2.62132e-05
2.47438e-05
2.65097e-05
2.82088e-05
3.4151e-05
3.4156e-05
2.56561e-05
3.4151e-05
3.41545e-05
2.86349e-05
6.9825e-05
2.86366e-05
6.98223e-05
7.99344e-05
7.99329e-05
2.86359e-05
6.98321e-05
2.86375e-05
6.98295e-05
2.67214e-05
2.67213e-05
2.67214e-05
2.67213e-05
2.67213e-05
2.67212e-05
2.67214e-05
2.4744e-05
2.82137e-05
2.65098e-05
2.62136e-05
2.47438e-05
2.82101e-05
2.65099e-05
7.99302e-05
7.99284e-05
2.47444e-05
2.65096e-05
2.82136e-05
2.62133e-05
2.47443e-05
2.65096e-05
2.82103e-05
3.41558e-05
3.41571e-05
2.56563e-05
3.41552e-05
3.4156e-05
2.86356e-05
6.98239e-05
2.86377e-05
6.98216e-05
7.99323e-05
7.99318e-05
2.86364e-05
6.9831e-05
2.86382e-05
6.98288e-05
2.67214e-05
2.67212e-05
2.67215e-05
2.67211e-05
2.67214e-05
2.67211e-05
2.67213e-05
2.4745e-05
2.8215e-05
2.65099e-05
2.62137e-05
2.47446e-05
2.82113e-05
2.651e-05
7.99286e-05
7.9928e-05
2.47448e-05
2.65096e-05
2.82148e-05
2.62132e-05
2.47447e-05
2.65096e-05
2.82112e-05
3.41593e-05
3.41602e-05
2.56565e-05
3.41585e-05
3.41596e-05
2.86365e-05
6.98238e-05
2.86385e-05
6.98218e-05
7.99325e-05
7.99327e-05
2.86376e-05
6.98308e-05
2.86393e-05
6.9829e-05
2.67213e-05
2.6721e-05
2.67213e-05
2.6721e-05
2.67211e-05
2.67209e-05
2.67211e-05
2.47458e-05
2.82159e-05
2.65098e-05
2.62136e-05
2.47456e-05
2.8212e-05
2.65098e-05
7.99292e-05
7.99291e-05
2.47454e-05
2.65094e-05
2.82154e-05
2.62133e-05
2.47453e-05
2.65095e-05
2.82118e-05
3.41622e-05
3.41634e-05
2.56567e-05
3.41609e-05
3.41621e-05
2.86362e-05
6.98245e-05
2.8639e-05
6.98235e-05
7.99344e-05
7.99354e-05
2.86374e-05
6.98315e-05
2.86399e-05
6.98306e-05
2.67211e-05
2.67208e-05
2.6721e-05
2.67206e-05
2.67208e-05
2.67205e-05
2.67207e-05
2.47455e-05
2.82163e-05
2.65096e-05
2.62135e-05
2.4746e-05
2.82122e-05
2.65096e-05
7.99313e-05
7.99318e-05
2.47456e-05
2.65094e-05
2.82159e-05
2.62131e-05
2.47458e-05
2.65094e-05
2.8212e-05
3.41633e-05
3.41643e-05
2.56567e-05
3.41608e-05
3.41619e-05
2.86331e-05
6.98286e-05
2.86374e-05
6.98278e-05
7.99364e-05
7.99347e-05
2.86342e-05
6.98356e-05
2.86382e-05
6.9835e-05
2.67204e-05
2.67201e-05
2.67202e-05
2.67154e-05
2.67157e-05
2.67153e-05
2.67154e-05
2.47419e-05
2.82155e-05
2.65088e-05
2.62118e-05
2.47439e-05
2.821e-05
2.65077e-05
7.99322e-05
7.99301e-05
2.47409e-05
2.65085e-05
2.82149e-05
2.62106e-05
2.47439e-05
2.65071e-05
2.82091e-05
3.41621e-05
3.41633e-05
2.56531e-05
3.41588e-05
3.41599e-05
2.86274e-05
6.98303e-05
2.86314e-05
6.98279e-05
7.99336e-05
7.99328e-05
2.86286e-05
6.98374e-05
2.86322e-05
6.98351e-05
2.67146e-05
2.67143e-05
2.67143e-05
2.67134e-05
2.67135e-05
2.67134e-05
2.67135e-05
2.47343e-05
2.82101e-05
2.65027e-05
2.62054e-05
2.47354e-05
2.8204e-05
2.6502e-05
7.99297e-05
7.99287e-05
2.47346e-05
2.65023e-05
2.82089e-05
2.6205e-05
2.4735e-05
2.65018e-05
2.82036e-05
3.41572e-05
3.41582e-05
2.56473e-05
3.41532e-05
3.41545e-05
2.86261e-05
6.98297e-05
2.86286e-05
6.98275e-05
7.9933e-05
7.99326e-05
2.86273e-05
6.98368e-05
2.86295e-05
6.98347e-05
2.67136e-05
2.67135e-05
2.67136e-05
2.67134e-05
2.67135e-05
2.67134e-05
2.67135e-05
2.47342e-05
2.82065e-05
2.65015e-05
2.62049e-05
2.47343e-05
2.82021e-05
2.65016e-05
7.99293e-05
7.99286e-05
2.47345e-05
2.65015e-05
2.82064e-05
2.62047e-05
2.47346e-05
2.65016e-05
2.82024e-05
3.41538e-05
3.41554e-05
2.5647e-05
3.41515e-05
3.41532e-05
2.8626e-05
6.98296e-05
2.86283e-05
6.98274e-05
7.99329e-05
7.99325e-05
2.86272e-05
6.98367e-05
2.86293e-05
6.98347e-05
2.67136e-05
2.67135e-05
2.67136e-05
2.67134e-05
2.67135e-05
2.67134e-05
2.67135e-05
2.4734e-05
2.8206e-05
2.65015e-05
2.62049e-05
2.47341e-05
2.82019e-05
2.65016e-05
7.99293e-05
7.99286e-05
2.47343e-05
2.65015e-05
2.82062e-05
2.62048e-05
2.47345e-05
2.65016e-05
2.82023e-05
3.41534e-05
3.41552e-05
2.5647e-05
3.41514e-05
3.41531e-05
2.8626e-05
6.98296e-05
2.86283e-05
6.98273e-05
7.99329e-05
7.99327e-05
2.86272e-05
6.98367e-05
2.86293e-05
6.98347e-05
2.67136e-05
2.67135e-05
2.67136e-05
2.67134e-05
2.67135e-05
2.67134e-05
2.67135e-05
2.47341e-05
2.8206e-05
2.65015e-05
2.62049e-05
2.47342e-05
2.82019e-05
2.65016e-05
7.99293e-05
7.99286e-05
2.47343e-05
2.65015e-05
2.82062e-05
2.62048e-05
2.47344e-05
2.65016e-05
2.82023e-05
3.41534e-05
3.41552e-05
2.5647e-05
3.41514e-05
3.41531e-05
2.8626e-05
6.98302e-05
2.86283e-05
6.98283e-05
7.99333e-05
7.99328e-05
2.86272e-05
6.98365e-05
2.86293e-05
6.98338e-05
2.67136e-05
2.67135e-05
2.67136e-05
2.67134e-05
2.67135e-05
2.67134e-05
2.67135e-05
2.47341e-05
2.8206e-05
2.65015e-05
2.62049e-05
2.47342e-05
2.82019e-05
2.65016e-05
7.99293e-05
7.99286e-05
2.47344e-05
2.65015e-05
2.82062e-05
2.62048e-05
2.47344e-05
2.65016e-05
2.82023e-05
3.41534e-05
3.41552e-05
2.5647e-05
3.41514e-05
3.41532e-05
2.8626e-05
6.98308e-05
2.86283e-05
6.9829e-05
7.9933e-05
7.99329e-05
2.86272e-05
6.98356e-05
2.86293e-05
6.98334e-05
2.67136e-05
2.67135e-05
2.67136e-05
2.67134e-05
2.67135e-05
2.67134e-05
2.67135e-05
2.47341e-05
2.8206e-05
2.65015e-05
2.62049e-05
2.47342e-05
2.82019e-05
2.65016e-05
7.99293e-05
7.99286e-05
2.47344e-05
2.65015e-05
2.82062e-05
2.62048e-05
2.47345e-05
2.65016e-05
2.82023e-05
3.41534e-05
3.41552e-05
2.5647e-05
3.41514e-05
3.41532e-05
2.8626e-05
6.98313e-05
2.86283e-05
6.98295e-05
7.99333e-05
7.99329e-05
2.86272e-05
6.98354e-05
2.86293e-05
6.98332e-05
2.67136e-05
2.67135e-05
2.67136e-05
2.67134e-05
2.67135e-05
2.67134e-05
2.67135e-05
2.4734e-05
2.8206e-05
2.65015e-05
2.62049e-05
2.47341e-05
2.82019e-05
2.65016e-05
7.99293e-05
7.99286e-05
2.47344e-05
2.65015e-05
2.82062e-05
2.62048e-05
2.47345e-05
2.65016e-05
2.82024e-05
3.41534e-05
3.41552e-05
2.5647e-05
3.41514e-05
3.41532e-05
2.8626e-05
6.98317e-05
2.86283e-05
6.98298e-05
7.99332e-05
7.99329e-05
2.86272e-05
6.98353e-05
2.86293e-05
6.98331e-05
2.67136e-05
2.67135e-05
2.67136e-05
2.67134e-05
2.67135e-05
2.67134e-05
2.67135e-05
2.47341e-05
2.8206e-05
2.65015e-05
2.62049e-05
2.47341e-05
2.82019e-05
2.65016e-05
7.99293e-05
7.99286e-05
2.47342e-05
2.65015e-05
2.82062e-05
2.62048e-05
2.47343e-05
2.65015e-05
2.82023e-05
3.41534e-05
3.41552e-05
2.5647e-05
3.41514e-05
3.41532e-05
2.8626e-05
6.98319e-05
2.86283e-05
6.983e-05
7.99332e-05
7.99328e-05
2.86272e-05
6.98352e-05
2.86293e-05
6.98331e-05
2.67136e-05
2.67135e-05
2.67136e-05
2.67134e-05
2.67135e-05
2.67134e-05
2.67135e-05
2.47338e-05
2.8206e-05
2.65015e-05
2.62049e-05
2.47339e-05
2.82019e-05
2.65016e-05
7.99293e-05
7.99286e-05
2.47343e-05
2.65014e-05
2.82062e-05
2.62048e-05
2.47344e-05
2.65016e-05
2.82023e-05
3.41534e-05
3.41552e-05
2.5647e-05
3.41514e-05
3.41532e-05
2.8626e-05
6.9832e-05
2.86283e-05
6.98301e-05
7.99331e-05
7.99327e-05
2.86272e-05
6.98351e-05
2.86293e-05
6.9833e-05
2.67136e-05
2.67135e-05
2.67136e-05
2.67134e-05
2.67135e-05
2.67134e-05
2.67135e-05
2.4734e-05
2.8206e-05
2.65015e-05
2.62049e-05
2.47341e-05
2.82019e-05
2.65016e-05
7.99293e-05
7.99286e-05
2.47342e-05
2.65015e-05
2.82062e-05
2.62048e-05
2.47343e-05
2.65016e-05
2.82024e-05
3.41534e-05
3.41552e-05
2.5647e-05
3.41514e-05
3.41532e-05
2.8626e-05
6.98321e-05
2.86283e-05
6.98301e-05
7.99331e-05
7.99327e-05
2.86272e-05
6.98351e-05
2.86293e-05
6.9833e-05
2.67136e-05
2.67135e-05
2.67136e-05
2.67134e-05
2.67135e-05
2.67134e-05
2.67135e-05
2.4734e-05
2.8206e-05
2.65015e-05
2.62049e-05
2.47341e-05
2.82019e-05
2.65016e-05
7.99293e-05
7.99286e-05
2.47342e-05
2.65015e-05
2.82062e-05
2.62048e-05
2.47343e-05
2.65016e-05
2.82024e-05
3.41534e-05
3.41552e-05
2.5647e-05
3.41514e-05
3.41532e-05
6.98321e-05
2.86283e-05
7.99331e-05
6.98352e-05
2.86293e-05
2.67136e-05
2.67135e-05
2.67136e-05
2.8206e-05
2.65017e-05
2.4734e-05
7.99293e-05
2.65016e-05
2.82062e-05
2.47342e-05
3.41534e-05
3.41552e-05
7.99363e-05
7.9941e-05
7.99398e-05
7.99439e-05
2.56498e-05
3.41474e-05
3.41539e-05
3.41507e-05
3.41545e-05
2.86326e-05
6.98258e-05
6.9828e-05
2.86315e-05
2.8633e-05
6.98317e-05
6.98334e-05
2.86319e-05
2.47434e-05
2.62129e-05
2.82072e-05
2.65096e-05
2.82104e-05
2.65097e-05
2.47434e-05
2.47436e-05
2.62129e-05
2.8209e-05
2.65097e-05
2.82119e-05
2.65097e-05
2.47436e-05
7.99423e-05
3.4151e-05
3.41448e-05
7.99386e-05
2.86335e-05
6.9833e-05
6.98349e-05
2.86327e-05
2.47439e-05
2.62133e-05
2.82088e-05
2.65097e-05
2.82117e-05
2.65097e-05
2.47439e-05
2.8633e-05
6.98273e-05
6.98298e-05
2.86322e-05
2.47436e-05
2.62127e-05
2.65096e-05
2.82076e-05
2.65096e-05
2.82108e-05
2.47435e-05
2.82068e-05
2.65097e-05
2.65097e-05
2.47432e-05
6.98278e-05
2.86285e-05
2.6213e-05
2.65097e-05
2.82069e-05
2.65097e-05
2.47433e-05
6.98285e-05
2.86283e-05
7.99356e-05
7.99403e-05
2.56495e-05
3.4148e-05
3.41518e-05
3.41493e-05
3.41522e-05
7.99398e-05
7.99441e-05
2.47438e-05
2.62132e-05
2.65096e-05
2.82077e-05
2.65096e-05
2.82105e-05
2.47438e-05
2.47439e-05
2.62133e-05
2.65097e-05
2.82087e-05
2.65097e-05
2.82116e-05
2.47437e-05
2.86332e-05
6.98306e-05
6.98324e-05
2.86324e-05
2.86334e-05
6.98328e-05
6.98346e-05
2.86326e-05
2.56498e-05
3.41483e-05
3.41536e-05
3.4154e-05
7.99406e-05
7.99393e-05
7.99436e-05
7.99366e-05
7.99327e-05
7.99393e-05
7.99358e-05
3.41494e-05
3.4156e-05
2.56561e-05
3.41481e-05
3.41545e-05
7.99305e-05
7.99332e-05
7.99334e-05
7.99355e-05
2.56526e-05
3.41498e-05
3.41547e-05
3.41507e-05
3.41563e-05
2.86334e-05
6.98334e-05
2.86348e-05
6.98303e-05
2.47439e-05
2.82118e-05
2.65098e-05
2.62131e-05
2.4744e-05
2.82084e-05
2.65098e-05
2.47441e-05
2.82134e-05
2.65098e-05
2.62131e-05
2.47441e-05
2.82103e-05
2.65098e-05
2.86357e-05
6.9823e-05
6.9826e-05
2.86341e-05
2.86361e-05
6.9829e-05
6.98318e-05
2.86345e-05
2.47444e-05
2.6213e-05
2.82092e-05
2.65098e-05
2.82129e-05
2.65098e-05
2.47441e-05
2.47446e-05
2.62131e-05
2.82111e-05
2.65098e-05
2.82145e-05
2.65098e-05
2.47443e-05
3.41537e-05
3.41475e-05
2.56562e-05
3.41533e-05
3.41465e-05
7.99389e-05
7.99342e-05
7.99344e-05
7.99371e-05
2.56527e-05
3.41538e-05
3.41483e-05
3.41553e-05
3.4149e-05
7.99312e-05
7.99346e-05
2.47443e-05
2.82132e-05
2.65099e-05
2.62135e-05
2.47444e-05
2.82099e-05
2.65099e-05
2.86337e-05
6.98292e-05
2.86349e-05
6.98262e-05
2.4744e-05
2.65097e-05
2.82123e-05
2.62128e-05
2.47441e-05
2.65097e-05
2.82088e-05
2.86367e-05
6.98303e-05
6.98331e-05
2.86353e-05
2.47448e-05
2.62134e-05
2.82107e-05
2.65098e-05
2.82142e-05
2.65098e-05
2.47448e-05
2.86362e-05
6.9825e-05
6.98279e-05
2.86348e-05
2.47445e-05
2.62128e-05
2.65097e-05
2.82097e-05
2.65097e-05
2.82134e-05
2.47443e-05
2.86305e-05
6.983e-05
2.86313e-05
6.98279e-05
2.47438e-05
2.65099e-05
2.8211e-05
2.62132e-05
2.47438e-05
2.65099e-05
2.82067e-05
2.86304e-05
6.98301e-05
2.86312e-05
6.98274e-05
2.47441e-05
2.62137e-05
2.82094e-05
2.65098e-05
2.82129e-05
2.65099e-05
2.47437e-05
2.86335e-05
6.98265e-05
6.98296e-05
2.86325e-05
2.47443e-05
2.62132e-05
2.65098e-05
2.8207e-05
2.65098e-05
2.82107e-05
2.47439e-05
2.86334e-05
6.98265e-05
6.9829e-05
2.86324e-05
3.41504e-05
3.4154e-05
2.56558e-05
3.41491e-05
3.41527e-05
7.99395e-05
7.99359e-05
7.99298e-05
7.99325e-05
2.56523e-05
3.41506e-05
3.4153e-05
3.41515e-05
3.41545e-05
7.99338e-05
7.9936e-05
2.47444e-05
2.65099e-05
2.82131e-05
2.62135e-05
2.47442e-05
2.65098e-05
2.82099e-05
2.86338e-05
6.98323e-05
2.8635e-05
6.98291e-05
2.8634e-05
6.98345e-05
2.86352e-05
6.98313e-05
2.47446e-05
2.62132e-05
2.65097e-05
2.82096e-05
2.65097e-05
2.82131e-05
2.47443e-05
2.4745e-05
2.62135e-05
2.65098e-05
2.82107e-05
2.65098e-05
2.82142e-05
2.47448e-05
2.86364e-05
6.98278e-05
6.98306e-05
2.86349e-05
2.86366e-05
6.983e-05
6.98329e-05
2.86351e-05
7.99402e-05
7.99362e-05
7.9939e-05
7.99353e-05
2.56526e-05
3.41533e-05
3.41549e-05
3.41534e-05
3.41563e-05
7.99339e-05
7.99363e-05
7.99333e-05
7.99355e-05
7.99311e-05
7.99292e-05
7.99337e-05
7.99323e-05
3.41523e-05
3.41568e-05
2.56562e-05
3.41511e-05
3.41559e-05
7.99286e-05
7.993e-05
7.99319e-05
7.99327e-05
2.56527e-05
3.41528e-05
3.41577e-05
3.41536e-05
3.41581e-05
2.86352e-05
6.98307e-05
2.86372e-05
6.98282e-05
2.47446e-05
2.82137e-05
2.65098e-05
2.62131e-05
2.47445e-05
2.82099e-05
2.65097e-05
2.47449e-05
2.82153e-05
2.65098e-05
2.62132e-05
2.47447e-05
2.82117e-05
2.65097e-05
2.86375e-05
6.98218e-05
6.98242e-05
2.86353e-05
2.86378e-05
6.98277e-05
6.983e-05
2.86356e-05
2.47453e-05
2.62131e-05
2.82105e-05
2.65097e-05
2.82144e-05
2.65097e-05
2.47451e-05
2.47455e-05
2.62132e-05
2.82122e-05
2.65097e-05
2.82159e-05
2.65097e-05
2.47453e-05
3.41557e-05
3.41509e-05
2.56564e-05
3.41546e-05
3.41498e-05
7.99318e-05
7.99293e-05
7.9932e-05
7.99334e-05
2.56529e-05
3.41561e-05
3.41512e-05
3.41567e-05
3.41523e-05
7.99284e-05
7.993e-05
2.47454e-05
2.8215e-05
2.65099e-05
2.62135e-05
2.47454e-05
2.82114e-05
2.65099e-05
2.86354e-05
6.98268e-05
2.86372e-05
6.98242e-05
2.47449e-05
2.65097e-05
2.82142e-05
2.62129e-05
2.47449e-05
2.65097e-05
2.82104e-05
2.86382e-05
6.9829e-05
6.98313e-05
2.86362e-05
2.47459e-05
2.62135e-05
2.82119e-05
2.65098e-05
2.82156e-05
2.65099e-05
2.47455e-05
2.86377e-05
6.98237e-05
6.98261e-05
2.86356e-05
2.47455e-05
2.62129e-05
2.65096e-05
2.82109e-05
2.65096e-05
2.82148e-05
2.47452e-05
2.8634e-05
6.98282e-05
2.86354e-05
6.98255e-05
2.47444e-05
2.65099e-05
2.82113e-05
2.62133e-05
2.47444e-05
2.65099e-05
2.82083e-05
2.8634e-05
6.98282e-05
2.86353e-05
6.98259e-05
2.47444e-05
2.62136e-05
2.82108e-05
2.65099e-05
2.82146e-05
2.65099e-05
2.47445e-05
2.86368e-05
6.98249e-05
6.98274e-05
2.86353e-05
2.4745e-05
2.62133e-05
2.65099e-05
2.82098e-05
2.65099e-05
2.82128e-05
2.47447e-05
2.86368e-05
6.98255e-05
6.98277e-05
2.86352e-05
3.4153e-05
3.4155e-05
2.56559e-05
3.41519e-05
3.41541e-05
7.99343e-05
7.99326e-05
7.99279e-05
7.99292e-05
2.56524e-05
3.41534e-05
3.41558e-05
3.41543e-05
3.41563e-05
7.9932e-05
7.99332e-05
2.47451e-05
2.65098e-05
2.82149e-05
2.62135e-05
2.47452e-05
2.65097e-05
2.82113e-05
2.86354e-05
6.98295e-05
2.86373e-05
6.9827e-05
2.86357e-05
6.98317e-05
2.86376e-05
6.98292e-05
2.4745e-05
2.62132e-05
2.65096e-05
2.82108e-05
2.65096e-05
2.82144e-05
2.47447e-05
2.47456e-05
2.62135e-05
2.65097e-05
2.82119e-05
2.65097e-05
2.82156e-05
2.47452e-05
2.86377e-05
6.98265e-05
6.98288e-05
2.86356e-05
2.86381e-05
6.98287e-05
6.9831e-05
2.8636e-05
7.99343e-05
7.99327e-05
7.99337e-05
7.99321e-05
2.56528e-05
3.41569e-05
3.41577e-05
3.41574e-05
3.41581e-05
7.9932e-05
7.99333e-05
7.99315e-05
7.99327e-05
7.99296e-05
7.99287e-05
7.99325e-05
7.99319e-05
3.41555e-05
3.41601e-05
2.56564e-05
3.41549e-05
3.41597e-05
7.99291e-05
7.99298e-05
7.99323e-05
7.99326e-05
2.56529e-05
3.41564e-05
3.41613e-05
3.41574e-05
3.4162e-05
2.86359e-05
6.98296e-05
2.86381e-05
6.98275e-05
2.47453e-05
2.82149e-05
2.65096e-05
2.62132e-05
2.47456e-05
2.8211e-05
2.65096e-05
2.47454e-05
2.82164e-05
2.65097e-05
2.62134e-05
2.47457e-05
2.82127e-05
2.65097e-05
2.86382e-05
6.98216e-05
6.98237e-05
2.86361e-05
2.86384e-05
6.98274e-05
6.98294e-05
2.86364e-05
2.47459e-05
2.6213e-05
2.82114e-05
2.65095e-05
2.82154e-05
2.65095e-05
2.47456e-05
2.47459e-05
2.62133e-05
2.8213e-05
2.65097e-05
2.82168e-05
2.65097e-05
2.47458e-05
3.41584e-05
3.41538e-05
2.56566e-05
3.4158e-05
3.41532e-05
7.99293e-05
7.99282e-05
7.9932e-05
7.99326e-05
2.56531e-05
3.41598e-05
3.41551e-05
3.41603e-05
3.41559e-05
7.99284e-05
7.99293e-05
2.47455e-05
2.82162e-05
2.65098e-05
2.62136e-05
2.47458e-05
2.82124e-05
2.65097e-05
2.86359e-05
6.98257e-05
2.86379e-05
6.98235e-05
2.47453e-05
2.65096e-05
2.82154e-05
2.62131e-05
2.47456e-05
2.65095e-05
2.82115e-05
2.86388e-05
6.98288e-05
6.98307e-05
2.86371e-05
2.4746e-05
2.62134e-05
2.82127e-05
2.65095e-05
2.82166e-05
2.65096e-05
2.47461e-05
2.86383e-05
6.98235e-05
6.98256e-05
2.86366e-05
2.47458e-05
2.6213e-05
2.65095e-05
2.82119e-05
2.65095e-05
2.82159e-05
2.47458e-05
2.86362e-05
6.98269e-05
2.8638e-05
6.98246e-05
2.47453e-05
2.651e-05
2.82142e-05
2.62135e-05
2.47453e-05
2.651e-05
2.8211e-05
2.86361e-05
6.98274e-05
2.86379e-05
6.98254e-05
2.47456e-05
2.62137e-05
2.82118e-05
2.65099e-05
2.82157e-05
2.65099e-05
2.47454e-05
2.86388e-05
6.98245e-05
6.98267e-05
2.86369e-05
2.47458e-05
2.62135e-05
2.65099e-05
2.82118e-05
2.651e-05
2.82153e-05
2.47458e-05
2.86388e-05
6.98254e-05
6.98273e-05
2.86368e-05
3.41559e-05
3.41581e-05
2.56561e-05
3.41553e-05
3.41577e-05
7.99328e-05
7.9932e-05
7.99284e-05
7.99291e-05
2.56526e-05
3.41568e-05
3.41593e-05
3.41578e-05
3.416e-05
7.99324e-05
7.99329e-05
2.47454e-05
2.65098e-05
2.82161e-05
2.62136e-05
2.47455e-05
2.65098e-05
2.82123e-05
2.86359e-05
6.98284e-05
2.86379e-05
6.98263e-05
2.86363e-05
6.98306e-05
2.86382e-05
6.98285e-05
2.47454e-05
2.62132e-05
2.65094e-05
2.82115e-05
2.65096e-05
2.82153e-05
2.47453e-05
2.47459e-05
2.62136e-05
2.65097e-05
2.82127e-05
2.65097e-05
2.82165e-05
2.47459e-05
2.86382e-05
6.98263e-05
6.98282e-05
2.86365e-05
2.86386e-05
6.98285e-05
6.98304e-05
2.86369e-05
7.99328e-05
7.99319e-05
7.99323e-05
7.99315e-05
2.5653e-05
3.41599e-05
3.41612e-05
3.41606e-05
3.41618e-05
7.99322e-05
7.99328e-05
7.99319e-05
7.99324e-05
7.99303e-05
7.99299e-05
7.99331e-05
7.99331e-05
3.41588e-05
3.41635e-05
2.56566e-05
3.41572e-05
3.41624e-05
7.99309e-05
7.99311e-05
7.99342e-05
7.99339e-05
2.56531e-05
3.41574e-05
3.41626e-05
3.41595e-05
3.41644e-05
2.86369e-05
6.98294e-05
2.8639e-05
6.98275e-05
2.47457e-05
2.82158e-05
2.65096e-05
2.62131e-05
2.4746e-05
2.82117e-05
2.65096e-05
2.47462e-05
2.82171e-05
2.65098e-05
2.62134e-05
2.47464e-05
2.82134e-05
2.65097e-05
2.86391e-05
6.98221e-05
6.98239e-05
2.86368e-05
2.86394e-05
6.98276e-05
6.98294e-05
2.86371e-05
2.47462e-05
2.62131e-05
2.82119e-05
2.65095e-05
2.8216e-05
2.65095e-05
2.47456e-05
2.47466e-05
2.62134e-05
2.82136e-05
2.65097e-05
2.82175e-05
2.65097e-05
2.47457e-05
3.4162e-05
3.41576e-05
2.56568e-05
3.41611e-05
3.41563e-05
7.99296e-05
7.9929e-05
7.99336e-05
7.99337e-05
2.56533e-05
3.41617e-05
3.41569e-05
3.41631e-05
3.41586e-05
7.99299e-05
7.99304e-05
2.47464e-05
2.82169e-05
2.65096e-05
2.62136e-05
2.47466e-05
2.8213e-05
2.65096e-05
2.86372e-05
6.98256e-05
2.8639e-05
6.98237e-05
2.47462e-05
2.65095e-05
2.82163e-05
2.62129e-05
2.47463e-05
2.65095e-05
2.82122e-05
2.86399e-05
6.98292e-05
6.98309e-05
2.86379e-05
2.47468e-05
2.62136e-05
2.82132e-05
2.65096e-05
2.82172e-05
2.65096e-05
2.4746e-05
2.86395e-05
6.98239e-05
6.98258e-05
2.86374e-05
2.47466e-05
2.62127e-05
2.65094e-05
2.82123e-05
2.65094e-05
2.82165e-05
2.47457e-05
2.86373e-05
6.98266e-05
2.86395e-05
6.98246e-05
2.47464e-05
2.65099e-05
2.8216e-05
2.62136e-05
2.47464e-05
2.65098e-05
2.82124e-05
2.86373e-05
6.98274e-05
2.86395e-05
6.98256e-05
2.47464e-05
2.62136e-05
2.82122e-05
2.65096e-05
2.82164e-05
2.65097e-05
2.4746e-05
2.86398e-05
6.98247e-05
6.98267e-05
2.86375e-05
2.47468e-05
2.62135e-05
2.65096e-05
2.82127e-05
2.65097e-05
2.82165e-05
2.47461e-05
2.86398e-05
6.9826e-05
6.98277e-05
2.86374e-05
3.41591e-05
3.41614e-05
2.56563e-05
3.41577e-05
3.41603e-05
7.99334e-05
7.99331e-05
7.99301e-05
7.99304e-05
2.56528e-05
3.41579e-05
3.41606e-05
3.41599e-05
3.41623e-05
7.99342e-05
7.99342e-05
2.47463e-05
2.65097e-05
2.82168e-05
2.62137e-05
2.47465e-05
2.65096e-05
2.82129e-05
2.86371e-05
6.98282e-05
2.86389e-05
6.98264e-05
2.86375e-05
6.98304e-05
2.86393e-05
6.98286e-05
2.4746e-05
2.62132e-05
2.65095e-05
2.8212e-05
2.65095e-05
2.82159e-05
2.47458e-05
2.47468e-05
2.62135e-05
2.65095e-05
2.82131e-05
2.65095e-05
2.82171e-05
2.47463e-05
2.86394e-05
6.98267e-05
6.98284e-05
2.86375e-05
2.86398e-05
6.98289e-05
6.98306e-05
2.86378e-05
7.99332e-05
7.9933e-05
7.99329e-05
7.99327e-05
2.56533e-05
3.41613e-05
3.41624e-05
3.41629e-05
3.41641e-05
7.99338e-05
7.9934e-05
7.99338e-05
7.99337e-05
7.99324e-05
7.99326e-05
7.99353e-05
7.99359e-05
3.41595e-05
3.41644e-05
2.56567e-05
3.4157e-05
3.41622e-05
7.99325e-05
7.99338e-05
7.99356e-05
7.99366e-05
2.5653e-05
3.41565e-05
3.41617e-05
3.4159e-05
3.41639e-05
2.86366e-05
6.98295e-05
2.86396e-05
6.98282e-05
2.4745e-05
2.82162e-05
2.65095e-05
2.62131e-05
2.47458e-05
2.82118e-05
2.65094e-05
2.47452e-05
2.82177e-05
2.65096e-05
2.62131e-05
2.47459e-05
2.82135e-05
2.65095e-05
2.86385e-05
6.98259e-05
6.98261e-05
2.86353e-05
2.86389e-05
6.9831e-05
6.98306e-05
2.86357e-05
2.4745e-05
2.62129e-05
2.8211e-05
2.65091e-05
2.8216e-05
2.65093e-05
2.47439e-05
2.47452e-05
2.62129e-05
2.82129e-05
2.65091e-05
2.82175e-05
2.65093e-05
2.47441e-05
3.41635e-05
3.4159e-05
2.56569e-05
3.41611e-05
3.41564e-05
7.99313e-05
7.99315e-05
7.99363e-05
7.99367e-05
2.56533e-05
3.41605e-05
3.41559e-05
3.41627e-05
3.41584e-05
7.99328e-05
7.99332e-05
2.47456e-05
2.82173e-05
2.65096e-05
2.62135e-05
2.47463e-05
2.82131e-05
2.65096e-05
2.86369e-05
6.98262e-05
2.86396e-05
6.98253e-05
2.4745e-05
2.65094e-05
2.82166e-05
2.62126e-05
2.47457e-05
2.65094e-05
2.82122e-05
2.86394e-05
6.98331e-05
6.98331e-05
2.86364e-05
2.47455e-05
2.62133e-05
2.82124e-05
2.65092e-05
2.82172e-05
2.65094e-05
2.47442e-05
2.86389e-05
6.98277e-05
6.98279e-05
2.86359e-05
2.4745e-05
2.62125e-05
2.6509e-05
2.82114e-05
2.65093e-05
2.82164e-05
2.4744e-05
2.8637e-05
6.98268e-05
2.864e-05
6.98252e-05
2.47453e-05
2.65096e-05
2.82167e-05
2.62132e-05
2.4746e-05
2.65095e-05
2.82125e-05
2.86369e-05
6.98281e-05
2.86398e-05
6.98271e-05
2.47454e-05
2.62134e-05
2.82116e-05
2.65093e-05
2.82164e-05
2.65095e-05
2.47441e-05
2.86392e-05
6.98273e-05
6.98276e-05
2.8636e-05
2.47452e-05
2.6213e-05
2.65092e-05
2.82118e-05
2.65094e-05
2.82164e-05
2.47441e-05
2.86391e-05
6.98294e-05
6.98295e-05
2.86358e-05
3.41599e-05
3.41623e-05
2.56563e-05
3.41574e-05
3.41601e-05
7.99355e-05
7.99359e-05
7.99317e-05
7.99331e-05
2.56526e-05
3.41569e-05
3.41597e-05
3.41593e-05
3.41619e-05
7.99357e-05
7.99369e-05
2.47454e-05
2.65096e-05
2.82172e-05
2.62133e-05
2.47463e-05
2.65095e-05
2.8213e-05
2.86371e-05
6.98288e-05
2.86397e-05
6.9828e-05
2.86372e-05
6.9831e-05
2.864e-05
6.98302e-05
2.47455e-05
2.6213e-05
2.6509e-05
2.82114e-05
2.65093e-05
2.8216e-05
2.47442e-05
2.47453e-05
2.62132e-05
2.65092e-05
2.82123e-05
2.65094e-05
2.8217e-05
2.47443e-05
2.86391e-05
6.98305e-05
6.98304e-05
2.86361e-05
2.86393e-05
6.98327e-05
6.98326e-05
2.86363e-05
7.99351e-05
7.99356e-05
7.99351e-05
7.99355e-05
2.56531e-05
3.41603e-05
3.41615e-05
3.41625e-05
3.41636e-05
7.99362e-05
7.99368e-05
7.99352e-05
7.99364e-05
7.99331e-05
7.9931e-05
7.99357e-05
7.9934e-05
3.41585e-05
3.41634e-05
2.56529e-05
3.4155e-05
3.41601e-05
7.99299e-05
7.99316e-05
7.99332e-05
7.99342e-05
2.5648e-05
3.41518e-05
3.41571e-05
3.41565e-05
3.41613e-05
2.86335e-05
6.98337e-05
2.86379e-05
6.98336e-05
2.47406e-05
2.8215e-05
2.65085e-05
2.62102e-05
2.47436e-05
2.82088e-05
2.6507e-05
2.47408e-05
2.82167e-05
2.65086e-05
2.62107e-05
2.47438e-05
2.8211e-05
2.65071e-05
2.86349e-05
6.98282e-05
6.98301e-05
2.86298e-05
2.86352e-05
6.98342e-05
6.98358e-05
2.86302e-05
2.47395e-05
2.62081e-05
2.82054e-05
2.65034e-05
2.82123e-05
2.65051e-05
2.47349e-05
2.47396e-05
2.62087e-05
2.82077e-05
2.65035e-05
2.82143e-05
2.65052e-05
2.47351e-05
3.41622e-05
3.41579e-05
2.5654e-05
3.41597e-05
3.41552e-05
7.99336e-05
7.99313e-05
7.99335e-05
7.99351e-05
2.56493e-05
3.41571e-05
3.41528e-05
3.4161e-05
3.41569e-05
7.99298e-05
7.99318e-05
2.4741e-05
2.82162e-05
2.65086e-05
2.62106e-05
2.4744e-05
2.82101e-05
2.6507e-05
2.86337e-05
6.98303e-05
2.86379e-05
6.98297e-05
2.47407e-05
2.65085e-05
2.82154e-05
2.621e-05
2.47437e-05
2.65069e-05
2.82091e-05
2.86356e-05
6.98354e-05
6.98371e-05
2.86308e-05
2.47397e-05
2.62085e-05
2.82068e-05
2.65034e-05
2.82134e-05
2.65051e-05
2.47353e-05
2.86352e-05
6.98301e-05
6.98319e-05
2.86304e-05
2.47394e-05
2.62079e-05
2.65033e-05
2.82058e-05
2.65049e-05
2.82127e-05
2.47351e-05
2.86342e-05
6.983e-05
2.86383e-05
6.98299e-05
2.47418e-05
2.65087e-05
2.82156e-05
2.62105e-05
2.47439e-05
2.65074e-05
2.82098e-05
2.8634e-05
6.98319e-05
2.86381e-05
6.98316e-05
2.47411e-05
2.62096e-05
2.82068e-05
2.6504e-05
2.82137e-05
2.65057e-05