/*--------------------------------*- C++ -*----------------------------------*\
| =========                 |                                                 |
| \\      /  F ield         | OpenFOAM: The Open Source CFD Toolbox           |
|  \\    /   O peration     | Version:  2206                                  |
|   \\  /    A nd           | Website:  www.openfoam.com                      |
|    \\/     M anipulation  |                                                 |
\*---------------------------------------------------------------------------*/
FoamFile
{
    version     2.0;
    format      ascii;
    arch        "LSB;label=32;scalar=64";
    class       volScalarField;
    location    "38";
    object      nut;
}
// * * * * * * * * * * * * * * * * * * * * * * * * * * * * * * * * * * * * * //

dimensions      [0 2 -1 0 0 0 0];

internalField   nonuniform List<scalar> 
28335
(
0.000209327
0.000174312
0.000174302
0.000144933
0.000209326
0.000174312
0.000174302
0.000144968
0.000209326
0.000174311
0.0001743
0.000144979
0.000209326
0.00017431
0.000174299
0.000144978
0.000209327
0.000174309
0.000174299
0.000144978
0.000209326
0.00017431
0.000174299
0.000144978
0.000209326
0.000174306
0.000174295
0.000144977
0.000209321
0.000174298
0.000174288
0.000144965
0.000209294
0.000174269
0.000174259
0.000144929
0.000209299
0.000174269
0.000174259
0.000144938
0.0002093
0.00017427
0.00017426
0.000144931
0.0002093
0.000174271
0.000174261
0.000144933
0.0002093
0.000174271
0.000174261
0.000144932
0.0002093
0.000174271
0.000174261
0.000144932
0.0002093
0.000174271
0.000174261
0.000144933
0.0002093
0.000174271
0.000174261
0.000144934
0.0002093
0.000174271
0.000174261
0.000144933
0.000145127
0.000174288
0.000174282
0.00014513
0.000174307
0.000174273
0.000174312
0.000174285
0.000145126
0.000174302
0.000174304
0.000145115
0.000144949
0.000145173
0.000174289
0.000174282
0.000174289
0.000174282
0.000144951
0.000145178
0.000174307
0.000174273
0.000174307
0.000174273
0.000174285
0.000174312
0.000174284
0.000144949
0.000145164
0.000174304
0.000174302
0.000174304
0.00014515
0.000144988
0.000145171
0.000174289
0.000174282
0.000174288
0.000174281
0.000144993
0.000145175
0.000174307
0.000174273
0.000174306
0.000174272
0.000174285
0.000174311
0.000174285
0.000144978
0.000145161
0.000174304
0.000174301
0.000174304
0.000145165
0.000144986
0.00014517
0.000174288
0.000174282
0.000174288
0.000174281
0.00014499
0.000145174
0.000174306
0.000174272
0.000174306
0.000174272
0.000174285
0.00017431
0.000174284
0.000144977
0.00014516
0.000174304
0.000174299
0.000174303
0.000145164
0.000144985
0.000145169
0.000174288
0.000174281
0.000174287
0.00017428
0.000144989
0.000145173
0.000174306
0.000174272
0.000174305
0.000174271
0.000174284
0.00017431
0.000174284
0.000144976
0.00014516
0.000174303
0.000174299
0.000174303
0.000145164
0.000144984
0.000145169
0.000174287
0.00017428
0.000174288
0.000174281
0.000144988
0.000145173
0.000174305
0.000174272
0.000174305
0.000174271
0.000174284
0.00017431
0.000174285
0.000144975
0.000145159
0.000174303
0.000174299
0.000174304
0.000145164
0.000144984
0.000145168
0.000174288
0.00017428
0.000174288
0.000174281
0.000144987
0.000145172
0.000174306
0.000174271
0.000174306
0.000174271
0.000174285
0.000174307
0.000174285
0.000144975
0.000145159
0.000174304
0.000174296
0.000174305
0.000145163
0.000144984
0.000145161
0.000174286
0.00017428
0.000174278
0.000174273
0.000144987
0.000145165
0.000174305
0.000174269
0.000174299
0.000174262
0.000174283
0.000174301
0.000174276
0.000144974
0.000145151
0.000174303
0.00017429
0.000174296
0.000145155
0.000144973
0.000145127
0.000174275
0.000174269
0.000174251
0.000174244
0.000144977
0.000145132
0.000174295
0.000174259
0.000174269
0.000174234
0.000174273
0.000174276
0.000174248
0.000144964
0.000145119
0.000174292
0.000174265
0.000174266
0.000145122
0.000144937
0.000145128
0.000174245
0.000174238
0.000174244
0.000174237
0.000144942
0.000145132
0.000174263
0.000174228
0.000174262
0.000174227
0.000174242
0.000174268
0.000174241
0.000144929
0.000145119
0.000174261
0.000174258
0.00017426
0.000145123
0.000144943
0.000145123
0.000174246
0.000174239
0.000174246
0.000174239
0.000144947
0.000145128
0.000174264
0.000174229
0.000174264
0.000174229
0.000174243
0.00017427
0.000174243
0.000144934
0.000145114
0.000174262
0.00017426
0.000174262
0.000145118
0.000144938
0.000145122
0.000174246
0.000174239
0.000174247
0.00017424
0.000144942
0.000145127
0.000174264
0.000174229
0.000174265
0.000174231
0.000174243
0.000174271
0.000174244
0.000144929
0.000145113
0.000174262
0.000174261
0.000174263
0.000145118
0.000144938
0.000145123
0.000174247
0.000174241
0.000174247
0.00017424
0.000144942
0.000145128
0.000174265
0.000174231
0.000174265
0.000174231
0.000174245
0.000174271
0.000174244
0.000144929
0.000145115
0.000174264
0.000174261
0.000174263
0.000145119
0.000144938
0.000145123
0.000174247
0.00017424
0.000174247
0.00017424
0.000144943
0.000145128
0.000174265
0.000174231
0.000174265
0.000174231
0.000174244
0.000174271
0.000174245
0.000144929
0.000145115
0.000174263
0.000174261
0.000174263
0.000145118
0.000144938
0.000145124
0.000174247
0.00017424
0.000174247
0.00017424
0.000144943
0.000145129
0.000174265
0.000174231
0.000174265
0.000174231
0.000174245
0.000174271
0.000174244
0.00014493
0.000145115
0.000174264
0.000174261
0.000174263
0.00014512
0.000144939
0.000145124
0.000174247
0.000174241
0.000174247
0.00017424
0.000144943
0.000145129
0.000174265
0.000174231
0.000174265
0.000174231
0.000174245
0.000174271
0.000174245
0.00014493
0.000145116
0.000174264
0.000174261
0.000174264
0.00014512
0.00014494
0.000145123
0.000174247
0.00017424
0.000174247
0.00017424
0.000144944
0.000145128
0.000174265
0.000174231
0.000174265
0.000174231
0.000174245
0.000174271
0.000174245
0.000144931
0.000145115
0.000174264
0.000174261
0.000174264
0.000145118
0.000144939
0.000174247
0.000174241
0.000144943
0.000174265
0.000174231
0.000174245
0.00014493
0.000174264
3.87321e-05
4.9423e-05
2.45862e-05
3.87386e-05
4.94191e-05
0.000209327
0.000209328
0.000209322
0.000209326
7.77896e-05
0.000174313
4.64192e-05
0.000194462
2.45837e-05
7.7789e-05
0.000174303
0.000194458
4.64229e-05
0.000145099
3.81597e-05
3.81561e-05
3.87358e-05
4.94232e-05
3.87299e-05
4.94224e-05
2.45857e-05
2.45856e-05
3.87422e-05
4.94193e-05
3.87367e-05
4.94185e-05
0.000209327
0.000209321
0.000209325
0.000209326
0.000209327
0.00020932
0.000209324
7.77903e-05
4.64126e-05
0.000194461
0.000174313
7.77663e-05
4.64227e-05
0.000194461
2.45832e-05
2.45832e-05
7.77896e-05
0.000194458
4.64165e-05
0.000174303
7.7765e-05
0.000194457
4.64263e-05
3.81615e-05
3.8158e-05
0.000145132
3.81646e-05
3.81612e-05
3.87394e-05
4.94228e-05
3.87336e-05
4.94221e-05
2.45853e-05
2.45854e-05
3.87458e-05
4.94189e-05
3.87403e-05
4.94182e-05
0.000209327
0.00020932
0.000209326
0.000209326
0.000209326
0.000209319
0.000209324
7.77906e-05
4.64158e-05
0.00019446
0.000174312
7.77667e-05
4.64256e-05
0.00019446
2.45829e-05
2.45829e-05
7.77901e-05
0.000194457
4.64198e-05
0.000174301
7.77654e-05
0.000194456
4.64295e-05
3.8166e-05
3.81627e-05
0.000145163
3.81687e-05
3.81655e-05
3.87426e-05
4.94228e-05
3.8737e-05
4.94222e-05
2.45852e-05
2.45853e-05
3.87489e-05
4.94188e-05
3.87437e-05
4.94182e-05
0.000209326
0.000209319
0.000209324
0.000209326
0.000209325
0.000209319
0.000209323
7.77911e-05
4.64184e-05
0.000194459
0.000174311
7.77671e-05
4.64279e-05
0.000194458
2.45827e-05
2.45828e-05
7.77906e-05
0.000194455
4.64225e-05
0.0001743
7.77659e-05
0.000194455
4.64318e-05
3.81689e-05
3.81658e-05
0.000145164
3.81708e-05
3.81677e-05
3.8745e-05
4.94229e-05
3.87397e-05
4.94223e-05
2.45852e-05
2.45853e-05
3.87512e-05
4.94189e-05
3.87463e-05
4.94183e-05
0.000209325
0.000209319
0.000209324
0.000209327
0.000209325
0.000209319
0.000209324
7.77921e-05
4.64203e-05
0.000194458
0.00017431
7.77678e-05
4.64297e-05
0.000194458
2.45827e-05
2.45828e-05
7.77913e-05
0.000194454
4.64243e-05
0.0001743
7.77665e-05
0.000194454
4.64334e-05
3.817e-05
3.81669e-05
0.000145164
3.81718e-05
3.81687e-05
3.87465e-05
4.9423e-05
3.87415e-05
4.94224e-05
2.45853e-05
2.45855e-05
3.87524e-05
4.9419e-05
3.87479e-05
4.94184e-05
0.000209328
0.000209322
0.000209326
0.000209326
0.00020933
0.000209322
0.000209327
7.77934e-05
4.64217e-05
0.000194459
0.00017431
7.7769e-05
4.6431e-05
0.000194459
2.45828e-05
2.4583e-05
7.77924e-05
0.000194455
4.64257e-05
0.000174299
7.77675e-05
0.000194456
4.64347e-05
3.81713e-05
3.81682e-05
0.000145164
3.81732e-05
3.81702e-05
3.87472e-05
4.94231e-05
3.87425e-05
4.94225e-05
2.45855e-05
2.45857e-05
3.87533e-05
4.94193e-05
3.87489e-05
4.94186e-05
0.00020933
0.000209322
0.000209327
0.000209327
0.000209328
0.00020932
0.000209326
7.77945e-05
4.64228e-05
0.000194458
0.000174309
7.77702e-05
4.64318e-05
0.000194457
2.4583e-05
2.45832e-05
7.77936e-05
0.000194456
4.64266e-05
0.000174297
7.77686e-05
0.000194455
4.64354e-05
3.81725e-05
3.81695e-05
0.000145163
3.8174e-05
3.8171e-05
3.8745e-05
4.94234e-05
3.8742e-05
4.9423e-05
2.45859e-05
2.4586e-05
3.87512e-05
4.94194e-05
3.87486e-05
4.9419e-05
0.000209327
0.000209319
0.000209324
0.000209323
0.000209324
0.000209315
0.00020932
7.7792e-05
4.64225e-05
0.000194457
0.000174304
7.77704e-05
4.64301e-05
0.000194455
2.45832e-05
2.45834e-05
7.77909e-05
0.000194454
4.64264e-05
0.000174293
7.77688e-05
0.000194452
4.64338e-05
3.81722e-05
3.81692e-05
0.000145162
3.81731e-05
3.81701e-05
3.87375e-05
4.94239e-05
3.87355e-05
4.94233e-05
2.45857e-05
2.45856e-05
3.87438e-05
4.94199e-05
3.87421e-05
4.94192e-05
0.000209322
0.000209314
0.000209319
0.000209298
0.000209297
0.000209291
0.000209294
7.77714e-05
4.64176e-05
0.000194451
0.000174294
7.77572e-05
4.64237e-05
0.000194447
2.45831e-05
2.4583e-05
7.77701e-05
0.000194448
4.64216e-05
0.000174284
7.77556e-05
0.000194444
4.64275e-05
3.81708e-05
3.81677e-05
0.000145141
3.81717e-05
3.81686e-05
3.87321e-05
4.94236e-05
3.87293e-05
4.94229e-05
2.45854e-05
2.45854e-05
3.87384e-05
4.94195e-05
3.87359e-05
4.94187e-05
0.000209294
0.000209288
0.000209291
0.000209297
0.000209298
0.000209292
0.000209295
7.77508e-05
4.641e-05
0.000194422
0.000174267
7.77296e-05
4.64164e-05
0.00019442
2.45827e-05
2.45828e-05
7.77489e-05
0.000194418
4.6414e-05
0.000174257
7.7728e-05
0.000194417
4.64203e-05
3.81686e-05
3.81655e-05
0.000145118
3.81688e-05
3.81657e-05
3.873e-05
4.94233e-05
3.8726e-05
4.94226e-05
2.45853e-05
2.45854e-05
3.87364e-05
4.94192e-05
3.87327e-05
4.94185e-05
0.0002093
0.000209294
0.000209298
0.0002093
0.000209301
0.000209294
0.000209298
7.77562e-05
4.64055e-05
0.000194424
0.00017427
7.77311e-05
4.64137e-05
0.000194425
2.45826e-05
2.45827e-05
7.77547e-05
0.000194421
4.64097e-05
0.00017426
7.77291e-05
0.000194422
4.64177e-05
3.81661e-05
3.8163e-05
0.000145122
3.8167e-05
3.81639e-05
3.87295e-05
4.94232e-05
3.87251e-05
4.94226e-05
2.45853e-05
2.45854e-05
3.87359e-05
4.94191e-05
3.87318e-05
4.94184e-05
0.000209301
0.000209295
0.000209298
0.0002093
0.000209301
0.000209295
0.000209298
7.77558e-05
4.64045e-05
0.000194424
0.00017427
7.77322e-05
4.64133e-05
0.000194425
2.45826e-05
2.45827e-05
7.77543e-05
0.000194421
4.64087e-05
0.00017426
7.77303e-05
0.000194422
4.64172e-05
3.81653e-05
3.81622e-05
0.000145116
3.81666e-05
3.81635e-05
3.87295e-05
4.94232e-05
3.87249e-05
4.94226e-05
2.45853e-05
2.45854e-05
3.87359e-05
4.9419e-05
3.87317e-05
4.94184e-05
0.000209301
0.000209295
0.000209299
0.0002093
0.000209301
0.000209295
0.000209298
7.77562e-05
4.64044e-05
0.000194425
0.000174271
7.7732e-05
4.64132e-05
0.000194426
2.45826e-05
2.45827e-05
7.77544e-05
0.000194422
4.64086e-05
0.000174261
7.77301e-05
0.000194423
4.64172e-05
3.81652e-05
3.81622e-05
0.00014512
3.81666e-05
3.81635e-05
3.87294e-05
4.94232e-05
3.87249e-05
4.94226e-05
2.45853e-05
2.45854e-05
3.87359e-05
4.9419e-05
3.87317e-05
4.94184e-05
0.000209301
0.000209295
0.000209299
0.0002093
0.000209301
0.000209295
0.000209299
7.77558e-05
4.64044e-05
0.000194425
0.000174271
7.7732e-05
4.64132e-05
0.000194425
2.45826e-05
2.45827e-05
7.7753e-05
0.000194422
4.64086e-05
0.000174261
7.77291e-05
0.000194422
4.64172e-05
3.81652e-05
3.81621e-05
0.000145119
3.81666e-05
3.81635e-05
3.87294e-05
4.94232e-05
3.87249e-05
4.94226e-05
2.45853e-05
2.45854e-05
3.87359e-05
4.9419e-05
3.87317e-05
4.94184e-05
0.000209301
0.000209295
0.000209299
0.0002093
0.000209301
0.000209295
0.000209298
7.77561e-05
4.64044e-05
0.000194425
0.000174271
7.77321e-05
4.64132e-05
0.000194426
2.45826e-05
2.45827e-05
7.77522e-05
0.000194422
4.64086e-05
0.000174261
7.77281e-05
0.000194422
4.64172e-05
3.81652e-05
3.81622e-05
0.000145119
3.81666e-05
3.81635e-05
3.87294e-05
4.94232e-05
3.87249e-05
4.94226e-05
2.45853e-05
2.45854e-05
3.87358e-05
4.9419e-05
3.87317e-05
4.94184e-05
0.000209301
0.000209295
0.000209299
0.0002093
0.000209301
0.000209295
0.000209299
7.77558e-05
4.64044e-05
0.000194426
0.000174271
7.7732e-05
4.64132e-05
0.000194426
2.45826e-05
2.45827e-05
7.77514e-05
0.000194422
4.64086e-05
0.000174261
7.77273e-05
0.000194422
4.64172e-05
3.81652e-05
3.81622e-05
0.000145117
3.81666e-05
3.81635e-05
3.87294e-05
4.94232e-05
3.87249e-05
4.94226e-05
2.45853e-05
2.45854e-05
3.87358e-05
4.9419e-05
3.87317e-05
4.94184e-05
0.000209301
0.000209295
0.000209299
0.0002093
0.000209301
0.000209295
0.000209299
7.77559e-05
4.64044e-05
0.000194425
0.000174271
7.77319e-05
4.64132e-05
0.000194426
2.45826e-05
2.45827e-05
7.77511e-05
0.000194422
4.64086e-05
0.000174261
7.77268e-05
0.000194422
4.64172e-05
3.81652e-05
3.81622e-05
0.000145119
3.81666e-05
3.81635e-05
3.87294e-05
4.94232e-05
3.87249e-05
4.94226e-05
2.45853e-05
2.45854e-05
3.87359e-05
4.9419e-05
3.87317e-05
4.94184e-05
0.000209301
0.000209295
0.000209299
7.77572e-05
4.64044e-05
0.000194425
0.000174271
7.7732e-05
4.64132e-05
0.000194426
2.45826e-05
2.45826e-05
7.77518e-05
0.000194421
4.64086e-05
0.000174261
7.77263e-05
0.000194422
4.64172e-05
3.81652e-05
3.81622e-05
0.000145121
3.81671e-05
3.8164e-05
2.45875e-05
2.45855e-05
0.000145102
3.81585e-05
3.81545e-05
2.45871e-05
2.45873e-05
2.45851e-05
2.45853e-05
0.00014492
3.81615e-05
3.81573e-05
3.81578e-05
3.81537e-05
3.8733e-05
4.94232e-05
7.77915e-05
0.000174289
4.64253e-05
0.000194461
7.77919e-05
0.000174283
4.6424e-05
0.00019446
3.87282e-05
4.94226e-05
4.94235e-05
3.87339e-05
3.87291e-05
4.94229e-05
4.94237e-05
3.87348e-05
7.77691e-05
0.000174288
4.64271e-05
0.000194461
4.64175e-05
0.000194461
7.77921e-05
7.77694e-05
0.000174282
4.64257e-05
0.000194459
4.6416e-05
0.000194459
7.77925e-05
0.000145107
3.81581e-05
3.81542e-05
2.45869e-05
2.45859e-05
2.45861e-05
0.000144924
3.81604e-05
3.81557e-05
3.81572e-05
3.81528e-05
2.45865e-05
2.45867e-05
7.77913e-05
0.000174308
4.64196e-05
0.000194459
3.87376e-05
4.94153e-05
7.77916e-05
0.000174273
0.000194453
4.64135e-05
3.8735e-05
4.94188e-05
4.94197e-05
3.87404e-05
7.77693e-05
0.000174307
4.64212e-05
0.000194459
4.64118e-05
0.000194459
7.7792e-05
3.8734e-05
4.94149e-05
4.94159e-05
3.87394e-05
7.77693e-05
0.000174273
0.000194453
4.64155e-05
0.000194453
4.64053e-05
7.77922e-05
3.87323e-05
4.94214e-05
7.77898e-05
0.000174287
0.000194459
4.64229e-05
3.87322e-05
4.94192e-05
7.77674e-05
0.000174312
4.6421e-05
0.000194461
4.64111e-05
0.000194462
7.77903e-05
3.87283e-05
4.94211e-05
4.9422e-05
3.87341e-05
7.77678e-05
0.000174286
0.000194459
4.64246e-05
0.000194459
4.6415e-05
7.77905e-05
3.87282e-05
4.94189e-05
4.94198e-05
3.8734e-05
0.000145094
3.81471e-05
3.81581e-05
2.45864e-05
2.45834e-05
2.45835e-05
0.000144912
3.81523e-05
3.8161e-05
3.81459e-05
3.81574e-05
2.4586e-05
2.45862e-05
7.77905e-05
0.000174307
0.00019446
4.64215e-05
3.87384e-05
4.94189e-05
3.87385e-05
4.94193e-05
7.77661e-05
0.000174302
0.000194458
4.64246e-05
0.000194459
4.6415e-05
7.77896e-05
7.77675e-05
0.000174306
0.000194459
4.64232e-05
0.00019446
4.64135e-05
7.77909e-05
3.87347e-05
4.94186e-05
4.94195e-05
3.87402e-05
3.87348e-05
4.94189e-05
4.94198e-05
3.87402e-05
2.45862e-05
2.45852e-05
0.000144917
3.81623e-05
3.81588e-05
3.81588e-05
3.81553e-05
2.45858e-05
2.4586e-05
2.45848e-05
2.4585e-05
2.4587e-05
2.45868e-05
2.4585e-05
2.45849e-05
3.81604e-05
3.81561e-05
0.000145163
3.81642e-05
3.81597e-05
2.45867e-05
2.45867e-05
2.45847e-05
2.45847e-05
0.000144982
3.81666e-05
3.81622e-05
3.8163e-05
3.81586e-05
3.87366e-05
4.94234e-05
3.87308e-05
4.94226e-05
7.77923e-05
4.64193e-05
0.000194461
0.000174289
7.77696e-05
4.64289e-05
0.000194461
7.77927e-05
4.64177e-05
0.000194459
0.000174282
7.77699e-05
4.64275e-05
0.000194459
3.87318e-05
4.94222e-05
4.94229e-05
3.87377e-05
3.87326e-05
4.94224e-05
4.94231e-05
3.87385e-05
7.77698e-05
0.000174289
4.64306e-05
0.000194461
4.64211e-05
0.000194461
7.77927e-05
7.77701e-05
0.000174282
4.64295e-05
0.000194459
4.64196e-05
0.000194459
7.7793e-05
3.81593e-05
3.8154e-05
0.000145165
3.81636e-05
3.81571e-05
2.45864e-05
2.45863e-05
2.45855e-05
2.45855e-05
0.000144984
3.81681e-05
3.81587e-05
3.8163e-05
3.81555e-05
2.45861e-05
2.45862e-05
7.77922e-05
4.64134e-05
0.000194458
0.000174307
7.77699e-05
4.6423e-05
0.000194458
3.87413e-05
4.94155e-05
3.87358e-05
4.94147e-05
7.77924e-05
0.000194453
4.64075e-05
0.000174273
7.77698e-05
0.000194453
4.64177e-05
3.87386e-05
4.94183e-05
4.94191e-05
3.8744e-05
7.77701e-05
0.000174307
4.64246e-05
0.000194459
4.64152e-05
0.000194459
7.77926e-05
3.87377e-05
4.94145e-05
4.94153e-05
3.87431e-05
7.777e-05
0.000174273
0.000194453
4.64194e-05
0.000194453
4.64096e-05
7.77928e-05
3.87358e-05
4.94217e-05
3.873e-05
4.94208e-05
7.77906e-05
0.000194459
4.64167e-05
0.000174285
7.77683e-05
0.000194459
4.64264e-05
3.87358e-05
4.94194e-05
3.873e-05
4.94186e-05
7.7768e-05
0.000174313
4.64243e-05
0.00019446
4.64145e-05
0.000194461
7.77907e-05
3.87318e-05
4.94206e-05
4.94214e-05
3.87376e-05
7.77684e-05
0.000174285
0.000194459
4.6428e-05
0.000194459
4.64184e-05
7.77908e-05
3.87318e-05
4.94184e-05
4.94192e-05
3.87376e-05
3.81521e-05
3.81598e-05
0.00014516
3.81578e-05
3.81635e-05
2.45858e-05
2.45857e-05
2.4583e-05
2.45831e-05
0.000144978
3.81583e-05
3.81659e-05
3.81561e-05
3.81623e-05
2.45855e-05
2.45856e-05
7.77908e-05
0.00019446
4.64152e-05
0.000174304
7.77678e-05
0.000194459
4.64249e-05
3.87419e-05
4.94191e-05
3.87365e-05
4.94183e-05
3.8742e-05
4.94195e-05
3.87365e-05
4.94186e-05
7.77666e-05
0.000174303
0.000194457
4.6428e-05
0.000194458
4.64184e-05
7.779e-05
7.77678e-05
0.000174304
0.000194459
4.64266e-05
0.000194459
4.64169e-05
7.77909e-05
3.87383e-05
4.94181e-05
4.94189e-05
3.87437e-05
3.87383e-05
4.94185e-05
4.94192e-05
3.87438e-05
2.45856e-05
2.45855e-05
2.45846e-05
2.45845e-05
0.000144951
3.81669e-05
3.81635e-05
3.81634e-05
3.816e-05
2.45854e-05
2.45854e-05
2.45843e-05
2.45844e-05
2.45866e-05
2.45866e-05
2.45846e-05
2.45846e-05
3.81655e-05
3.8161e-05
0.000145169
3.81689e-05
3.81643e-05
2.45865e-05
2.45865e-05
2.45845e-05
2.45845e-05
0.000144984
3.81708e-05
3.81659e-05
3.81677e-05
3.8163e-05
3.87402e-05
4.9423e-05
3.87345e-05
4.94223e-05
7.77928e-05
4.64228e-05
0.00019446
0.000174289
7.77701e-05
4.64322e-05
0.00019446
7.77931e-05
4.64216e-05
0.000194459
0.000174282
7.77704e-05
4.64312e-05
0.000194459
3.87355e-05
4.94222e-05
4.94228e-05
3.87411e-05
3.87362e-05
4.94223e-05
4.94229e-05
3.87419e-05
7.77703e-05
0.000174289
4.64335e-05
0.00019446
4.64243e-05
0.00019446
7.77931e-05
7.77705e-05
0.000174281
4.64323e-05
0.000194458
4.64231e-05
0.000194459
7.77934e-05
3.81673e-05
3.81571e-05
0.000145175
3.81705e-05
3.81602e-05
2.4586e-05
2.4586e-05
2.45853e-05
2.45853e-05
0.000144988
3.81709e-05
3.81615e-05
3.8169e-05
3.81586e-05
2.4586e-05
2.4586e-05
7.77927e-05
4.64168e-05
0.000194458
0.000174307
7.77704e-05
4.64262e-05
0.000194458
3.87449e-05
4.94151e-05
3.87395e-05
4.94145e-05
7.77929e-05
0.000194453
4.64111e-05
0.000174273
7.77703e-05
0.000194452
4.64207e-05
3.87421e-05
4.94182e-05
4.94188e-05
3.87474e-05
7.77706e-05
0.000174306
4.64275e-05
0.000194458
4.64183e-05
0.000194459
7.77931e-05
3.87413e-05
4.94145e-05
4.94151e-05
3.87465e-05
7.77705e-05
0.000174272
0.000194452
4.64218e-05
0.000194453
4.64124e-05
7.77932e-05
3.87393e-05
4.94213e-05
3.87336e-05
4.94205e-05
7.77908e-05
0.000194458
4.64201e-05
0.000174285
7.77686e-05
0.000194458
4.64296e-05
3.87394e-05
4.9419e-05
3.87336e-05
4.94183e-05
7.77683e-05
0.000174312
4.64269e-05
0.000194459
4.64174e-05
0.00019446
7.77911e-05
3.87353e-05
4.94205e-05
4.94212e-05
3.8741e-05
7.77686e-05
0.000174285
0.000194458
4.64308e-05
0.000194458
4.64215e-05
7.77911e-05
3.87353e-05
4.94183e-05
4.94189e-05
3.8741e-05
3.81562e-05
3.81647e-05
0.000145161
3.81579e-05
3.8168e-05
2.45854e-05
2.45854e-05
2.45828e-05
2.45828e-05
0.000144976
3.81573e-05
3.81696e-05
3.81557e-05
3.81667e-05
2.45854e-05
2.45853e-05
7.77909e-05
0.000194459
4.64186e-05
0.000174304
7.77678e-05
0.000194459
4.64281e-05
3.87455e-05
4.94187e-05
3.87401e-05
4.9418e-05
3.87455e-05
4.9419e-05
3.87401e-05
4.94184e-05
7.77671e-05
0.000174301
0.000194455
4.64308e-05
0.000194456
4.64215e-05
7.77906e-05
7.77678e-05
0.000174304
0.000194458
4.64293e-05
0.000194459
4.642e-05
7.77911e-05
3.87418e-05
4.9418e-05
4.94186e-05
3.87471e-05
3.87418e-05
4.94184e-05
4.9419e-05
3.87471e-05
2.45852e-05
2.45853e-05
2.45842e-05
2.45842e-05
0.000144979
3.81701e-05
3.81669e-05
3.81674e-05
3.81641e-05
2.45852e-05
2.45852e-05
2.45842e-05
2.45841e-05
2.45865e-05
2.45865e-05
2.45845e-05
2.45845e-05
3.81694e-05
3.81645e-05
0.00014517
3.81719e-05
3.8167e-05
2.45865e-05
2.45864e-05
2.45845e-05
2.45844e-05
0.000144985
3.81725e-05
3.81677e-05
3.81703e-05
3.81654e-05
3.87434e-05
4.94229e-05
3.87378e-05
4.94223e-05
7.77933e-05
4.64256e-05
0.000194459
0.000174288
7.77705e-05
4.64347e-05
0.000194459
7.77936e-05
4.64241e-05
0.000194458
0.000174282
7.77708e-05
4.64332e-05
0.000194457
3.87385e-05
4.94222e-05
4.94228e-05
3.87439e-05
3.87393e-05
4.94223e-05
4.94229e-05
3.87447e-05
7.77708e-05
0.000174288
4.64355e-05
0.000194459
4.64267e-05
0.000194459
7.77937e-05
7.7771e-05
0.000174281
4.64339e-05
0.000194457
4.6425e-05
0.000194457
7.7794e-05
3.81691e-05
3.81597e-05
0.000145175
3.81706e-05
3.81625e-05
2.45859e-05
2.4586e-05
2.45853e-05
2.45852e-05
0.000144989
3.81706e-05
3.81634e-05
3.81689e-05
3.81607e-05
2.4586e-05
2.45859e-05
7.77932e-05
4.64196e-05
0.000194458
0.000174306
7.77709e-05
4.64286e-05
0.000194458
3.87481e-05
4.94151e-05
3.87429e-05
4.94145e-05
7.77933e-05
0.000194451
4.64134e-05
0.000174272
7.77707e-05
0.000194451
4.64227e-05
3.87452e-05
4.94182e-05
4.94188e-05
3.87502e-05
7.77712e-05
0.000174306
4.64295e-05
0.000194458
4.64207e-05
0.000194458
7.77938e-05
3.87444e-05
4.94145e-05
4.94152e-05
3.87493e-05
7.7771e-05
0.000174272
0.000194451
4.64235e-05
0.000194451
4.64142e-05
7.77938e-05
3.87425e-05
4.94212e-05
3.87369e-05
4.94205e-05
7.77913e-05
0.000194457
4.64227e-05
0.000174285
7.77689e-05
0.000194457
4.64318e-05
3.87425e-05
4.94189e-05
3.8737e-05
4.94183e-05
7.77689e-05
0.00017431
4.64289e-05
0.000194458
4.64196e-05
0.000194458
7.77917e-05
3.87384e-05
4.94205e-05
4.94212e-05
3.87438e-05
7.77691e-05
0.000174284
0.000194457
4.64327e-05
0.000194457
4.64237e-05
7.77918e-05
3.87384e-05
4.94183e-05
4.94189e-05
3.87438e-05
3.81552e-05
3.81682e-05
0.000145162
3.8157e-05
3.81707e-05
2.45853e-05
2.45854e-05
2.45828e-05
2.45827e-05
0.000144976
3.81572e-05
3.81713e-05
3.81549e-05
3.81691e-05
2.45854e-05
2.45853e-05
7.7791e-05
0.000194458
4.64212e-05
0.000174304
7.77681e-05
0.000194457
4.64303e-05
3.87486e-05
4.94186e-05
3.87434e-05
4.9418e-05
3.87486e-05
4.9419e-05
3.87434e-05
4.94184e-05
7.77676e-05
0.0001743
0.000194454
4.64327e-05
0.000194455
4.64238e-05
7.77911e-05
7.77682e-05
0.000174303
0.000194457
4.64311e-05
0.000194457
4.64222e-05
7.77913e-05
3.87448e-05
4.9418e-05
4.94186e-05
3.87498e-05
3.87448e-05
4.94184e-05
4.9419e-05
3.87498e-05
2.45851e-05
2.45852e-05
2.45841e-05
2.45842e-05
0.000144979
3.81713e-05
3.81682e-05
3.81692e-05
3.81661e-05
2.45852e-05
2.45851e-05
2.45842e-05
2.45841e-05
2.45865e-05
2.45866e-05
2.45845e-05
2.45846e-05
3.81708e-05
3.8166e-05
0.00014517
3.8173e-05
3.81683e-05
2.45866e-05
2.45865e-05
2.45846e-05
2.45845e-05
0.000144984
3.81737e-05
3.8169e-05
3.81714e-05
3.81667e-05
3.87457e-05
4.9423e-05
3.87405e-05
4.94224e-05
7.77943e-05
4.64275e-05
0.000194458
0.000174288
7.77713e-05
4.64363e-05
0.000194458
7.77945e-05
4.64257e-05
0.000194457
0.000174281
7.77714e-05
4.64347e-05
0.000194457
3.87408e-05
4.94223e-05
4.94229e-05
3.87458e-05
3.87415e-05
4.94225e-05
4.9423e-05
3.87465e-05
7.77719e-05
0.000174287
4.6437e-05
0.000194459
4.64282e-05
0.000194459
7.77951e-05
7.7772e-05
0.00017428
4.64354e-05
0.000194457
4.64265e-05
0.000194457
7.77953e-05
3.8169e-05
3.81616e-05
0.000145174
3.8171e-05
3.81643e-05
2.45859e-05
2.4586e-05
2.45854e-05
2.45853e-05
0.000144989
3.81717e-05
3.81651e-05
3.81695e-05
3.81625e-05
2.45861e-05
2.4586e-05
7.77943e-05
4.64215e-05
0.000194457
0.000174306
7.77717e-05
4.64303e-05
0.000194457
3.87503e-05
4.94152e-05
3.87456e-05
4.94145e-05
7.77943e-05
0.000194452
4.6415e-05
0.000174272
7.77715e-05
0.000194452
4.64242e-05
3.87473e-05
4.94184e-05
4.94189e-05
3.87519e-05
7.77723e-05
0.000174305
4.6431e-05
0.000194457
4.64223e-05
0.000194458
7.77951e-05
3.87465e-05
4.94146e-05
4.94152e-05
3.8751e-05
7.7772e-05
0.000174271
0.000194452
4.6425e-05
0.000194452
4.64158e-05
7.77951e-05
3.87448e-05
4.94212e-05
3.87396e-05
4.94206e-05
7.77923e-05
0.000194456
4.64245e-05
0.000174284
7.77697e-05
0.000194456
4.64334e-05
3.87449e-05
4.9419e-05
3.87397e-05
4.94184e-05
7.77699e-05
0.00017431
4.64304e-05
0.000194459
4.64213e-05
0.000194458
7.77929e-05
3.87406e-05
4.94207e-05
4.94213e-05
3.87456e-05
7.77703e-05
0.000174284
0.000194456
4.64341e-05
0.000194456
4.64252e-05
7.77931e-05
3.87407e-05
4.94185e-05
4.9419e-05
3.87457e-05
3.81552e-05
3.81697e-05
0.000145161
3.81578e-05
3.81719e-05
2.45853e-05
2.45854e-05
2.45829e-05
2.45828e-05
0.000144975
3.81586e-05
3.81726e-05
3.8156e-05
3.81703e-05
2.45855e-05
2.45853e-05
7.77915e-05
0.000194456
4.64229e-05
0.000174303
7.77685e-05
0.000194456
4.64318e-05
3.87508e-05
4.94187e-05
3.8746e-05
4.94181e-05
3.87507e-05
4.94191e-05
3.8746e-05
4.94185e-05
7.77684e-05
0.000174299
0.000194455
4.64341e-05
0.000194454
4.64253e-05
7.7792e-05
7.77687e-05
0.000174303
0.000194456
4.64324e-05
0.000194456
4.64236e-05
7.77919e-05
3.87468e-05
4.94182e-05
4.94187e-05
3.87514e-05
3.87469e-05
4.94185e-05
4.94191e-05
3.87514e-05
2.45851e-05
2.45852e-05
2.45841e-05
2.45842e-05
0.000144979
3.81724e-05
3.81694e-05
3.81702e-05
3.81671e-05
2.45853e-05
2.45852e-05
2.45843e-05
2.45841e-05
2.45866e-05
2.45867e-05
2.45846e-05
2.45847e-05
3.81722e-05
3.81675e-05
0.000145169
3.81745e-05
3.81699e-05
2.45868e-05
2.45867e-05
2.45848e-05
2.45847e-05
0.000144984
3.81752e-05
3.81705e-05
3.8173e-05
3.81683e-05
3.87472e-05
4.94231e-05
3.87423e-05
4.94225e-05
7.77959e-05
4.64289e-05
0.000194459
0.000174287
7.77727e-05
4.64376e-05
0.000194459
7.77961e-05
4.64271e-05
0.000194458
0.00017428
7.77729e-05
4.6436e-05
0.000194458
3.87422e-05
4.94225e-05
4.9423e-05
3.87469e-05
3.87429e-05
4.94226e-05
4.94232e-05
3.87476e-05
7.77735e-05
0.000174287
4.6438e-05
0.00019446
4.64295e-05
0.00019446
7.77966e-05
7.77737e-05
0.00017428
4.64365e-05
0.000194458
4.64278e-05
0.000194458
7.77969e-05
3.81702e-05
3.81634e-05
0.000145173
3.81725e-05
3.8166e-05
2.4586e-05
2.45862e-05
2.45856e-05
2.45854e-05
0.000144988
3.8173e-05
3.81666e-05
3.81709e-05
3.81641e-05
2.45863e-05
2.45861e-05
7.77956e-05
4.6423e-05
0.000194457
0.000174305
7.7773e-05
4.64316e-05
0.000194457
3.87516e-05
4.94153e-05
3.87472e-05
4.94146e-05
7.77958e-05
0.000194452
4.64165e-05
0.000174271
7.77728e-05
0.000194452
4.64256e-05
3.87485e-05
4.94187e-05
4.94191e-05
3.87529e-05
7.77736e-05
0.000174305
4.64322e-05
0.000194457
4.64236e-05
0.000194457
7.77964e-05
3.87477e-05
4.94148e-05
4.94153e-05
3.87521e-05
7.77735e-05
0.000174271
0.000194453
4.64261e-05
0.000194453
4.64171e-05
7.77966e-05
3.87462e-05
4.94214e-05
3.87413e-05
4.94208e-05
7.77937e-05
0.000194457
4.64259e-05
0.000174284
7.7771e-05
0.000194457
4.64347e-05
3.87464e-05
4.94191e-05
3.87415e-05
4.94185e-05
7.77712e-05
0.00017431
4.64315e-05
0.000194458
4.64226e-05
0.000194458
7.77941e-05
3.87419e-05
4.94209e-05
4.94215e-05
3.87466e-05
7.77716e-05
0.000174285
0.000194458
4.64351e-05
0.000194458
4.64265e-05
7.77943e-05
3.87421e-05
4.94187e-05
4.94192e-05
3.87468e-05
3.81567e-05
3.81711e-05
0.00014516
3.81594e-05
3.81734e-05
2.45854e-05
2.45856e-05
2.45831e-05
2.45829e-05
0.000144975
3.81599e-05
3.81741e-05
3.81574e-05
3.81719e-05
2.45857e-05
2.45855e-05
7.77922e-05
0.000194456
4.64242e-05
0.000174303
7.7769e-05
0.000194456
4.6433e-05
3.87519e-05
4.94188e-05
3.87475e-05
4.94182e-05
3.87519e-05
4.94192e-05
3.87474e-05
4.94185e-05
7.77695e-05
0.000174299
0.000194456
4.64351e-05
0.000194456
4.64265e-05
7.77931e-05
7.77694e-05
0.000174303
0.000194457
4.64333e-05
0.000194457
4.64247e-05
7.77929e-05
3.8748e-05
4.94184e-05
4.94189e-05
3.87523e-05
3.87479e-05
4.94186e-05
4.94192e-05
3.87523e-05
2.45852e-05
2.45854e-05
2.45842e-05
2.45844e-05
0.000144979
3.81738e-05
3.81708e-05
3.81716e-05
3.81686e-05
2.45855e-05
2.45853e-05
2.45844e-05
2.45843e-05
2.45868e-05
2.45869e-05
2.45848e-05
2.45849e-05
3.81736e-05
3.81688e-05
0.000145168
3.81755e-05
3.81708e-05
2.45871e-05
2.45869e-05
2.45851e-05
2.45849e-05
0.000144983
3.81752e-05
3.81704e-05
3.81737e-05
3.8169e-05
3.8748e-05
4.94233e-05
3.87434e-05
4.94227e-05
7.7797e-05
4.64299e-05
0.00019446
0.000174288
7.77742e-05
4.64383e-05
0.000194459
7.77974e-05
4.64282e-05
0.000194457
0.00017428
7.77744e-05
4.64368e-05
0.000194456
3.87427e-05
4.94227e-05
4.94232e-05
3.87467e-05
3.87435e-05
4.94229e-05
4.94234e-05
3.87476e-05
7.77744e-05
0.000174288
4.6438e-05
0.000194459
4.64301e-05
0.00019446
7.77962e-05
7.77747e-05
0.000174281
4.64365e-05
0.000194455
4.64284e-05
0.000194455
7.77966e-05
3.81715e-05
3.81647e-05
0.000145173
3.81733e-05
3.81668e-05
2.45862e-05
2.45864e-05
2.4586e-05
2.45856e-05
0.000144987
3.81722e-05
3.81664e-05
3.81716e-05
3.81647e-05
2.45865e-05
2.45864e-05
7.77969e-05
4.64236e-05
0.000194458
0.000174306
7.77744e-05
4.64322e-05
0.000194458
3.87525e-05
4.94155e-05
3.87482e-05
4.94148e-05
7.77971e-05
0.000194452
4.64176e-05
0.000174271
7.77743e-05
0.00019445
4.64264e-05
3.87492e-05
4.94187e-05
4.94193e-05
3.87529e-05
7.77747e-05
0.000174306
4.64317e-05