/*--------------------------------*- C++ -*----------------------------------*\
| =========                 |                                                 |
| \\      /  F ield         | OpenFOAM: The Open Source CFD Toolbox           |
|  \\    /   O peration     | Version:  2206                                  |
|   \\  /    A nd           | Website:  www.openfoam.com                      |
|    \\/     M anipulation  |                                                 |
\*---------------------------------------------------------------------------*/
FoamFile
{
    version     2.0;
    format      ascii;
    arch        "LSB;label=32;scalar=64";
    class       volScalarField;
    location    "35";
    object      nut;
}
// * * * * * * * * * * * * * * * * * * * * * * * * * * * * * * * * * * * * * //

dimensions      [0 2 -1 0 0 0 0];

internalField   nonuniform List<scalar> 
28687
(
0.00021249
0.000179609
0.0001796
0.00015081
0.000212492
0.00017961
0.000179602
0.00015084
0.000212491
0.000179611
0.000179602
0.000150842
0.00021249
0.000179611
0.000179602
0.00015084
0.000212489
0.000179611
0.000179601
0.000150839
0.000212492
0.000179611
0.000179601
0.000150838
0.000212489
0.000179608
0.000179597
0.000150838
0.000212485
0.000179599
0.00017959
0.000150826
0.000212459
0.000179567
0.00017956
0.000150786
0.000212464
0.000179568
0.000179559
0.000150794
0.000212465
0.000179569
0.00017956
0.000150788
0.000212466
0.000179569
0.000179561
0.00015079
0.000212466
0.00017957
0.000179561
0.00015079
0.000212466
0.00017957
0.000179561
0.000150789
0.000212466
0.00017957
0.000179561
0.000150789
0.000212466
0.00017957
0.000179561
0.00015079
0.000212466
0.00017957
0.000179561
0.00015079
0.000212466
0.00017957
0.000179561
0.00015079
0.000179578
0.000150974
0.000179608
0.000150815
0.000151031
0.000179585
0.000179579
0.000179588
0.000179582
0.0001508
0.000151032
0.000179603
0.000179571
0.000179606
0.000179573
0.000179584
0.00017961
0.000179586
0.000150806
0.000151022
0.000179605
0.000179601
0.000179608
0.000151026
0.000150846
0.000151032
0.000179588
0.000179582
0.000179589
0.000179584
0.000150846
0.000151034
0.000179606
0.000179574
0.000179607
0.000179575
0.000179587
0.000179611
0.000179588
0.000150837
0.000151022
0.000179608
0.000179602
0.00017961
0.000151027
0.000150848
0.00015103
0.00017959
0.000179584
0.000179589
0.000179583
0.000150849
0.000151033
0.000179608
0.000179575
0.000179607
0.000179575
0.000179588
0.000179611
0.000179588
0.000150839
0.000151021
0.00017961
0.000179602
0.00017961
0.000151026
0.000150846
0.00015103
0.000179589
0.000179583
0.000179587
0.000179584
0.000150848
0.000151033
0.000179607
0.000179575
0.000179606
0.000179574
0.000179588
0.000179611
0.000179587
0.000150837
0.00015102
0.000179609
0.000179601
0.000179609
0.000151024
0.000150845
0.000151029
0.000179588
0.000179584
0.000179586
0.000179585
0.000150847
0.000151032
0.000179606
0.000179574
0.000179605
0.000179574
0.000179588
0.000179611
0.000179587
0.000150835
0.000151019
0.000179609
0.000179601
0.000179609
0.000151024
0.000150844
0.000151028
0.000179587
0.000179585
0.000179586
0.000179586
0.000150847
0.000151032
0.000179605
0.000179574
0.000179605
0.000179575
0.000179587
0.000179608
0.000179588
0.000150835
0.000151018
0.000179609
0.000179597
0.000179609
0.000151023
0.000150843
0.00015102
0.000179583
0.000179585
0.000179578
0.00017958
0.000150847
0.000151021
0.000179604
0.000179574
0.000179597
0.000179567
0.000179587
0.000179602
0.000179581
0.000150834
0.000151011
0.000179609
0.000179592
0.000179603
0.000151016
0.000150833
0.000150984
0.000179575
0.000179574
0.00017955
0.000179544
0.000150832
0.000150986
0.000179594
0.000179564
0.00017957
0.000179538
0.000179578
0.000179573
0.000179551
0.000150824
0.000150976
0.0001796
0.000179568
0.000179572
0.00015098
0.000150793
0.000150983
0.000179544
0.000179539
0.000179542
0.000179539
0.000150797
0.000150988
0.000179563
0.000179531
0.000179561
0.000179529
0.000179544
0.000179567
0.000179542
0.000150785
0.000150974
0.000179565
0.000179558
0.000179563
0.000150979
0.000150799
0.000150979
0.000179545
0.00017954
0.000179545
0.00017954
0.000150803
0.000150983
0.000179563
0.000179531
0.000179563
0.000179531
0.000179544
0.000179569
0.000179544
0.000150791
0.000150971
0.000179566
0.00017956
0.000179565
0.000150975
0.000150794
0.000150979
0.000179546
0.000179541
0.000179547
0.000179541
0.000150797
0.000150984
0.000179564
0.000179531
0.000179565
0.000179532
0.000179544
0.00017957
0.000179545
0.000150786
0.00015097
0.000179565
0.000179561
0.000179566
0.000150975
0.000150795
0.000150979
0.000179547
0.000179542
0.000179547
0.000179541
0.0001508
0.000150984
0.000179565
0.000179533
0.000179565
0.000179533
0.000179546
0.00017957
0.000179546
0.000150787
0.000150971
0.000179566
0.000179561
0.000179565
0.000150975
0.000150795
0.000150979
0.000179548
0.000179541
0.000179547
0.000179542
0.000150799
0.000150983
0.000179566
0.000179532
0.000179566
0.000179533
0.000179546
0.00017957
0.000179546
0.000150787
0.00015097
0.000179564
0.000179561
0.000179564
0.000150974
0.000150794
0.00015098
0.000179547
0.000179542
0.000179547
0.000179542
0.000150799
0.000150983
0.000179566
0.000179533
0.000179566
0.000179532
0.000179546
0.00017957
0.000179545
0.000150786
0.000150971
0.000179564
0.000179561
0.000179564
0.000150975
0.000150794
0.000150981
0.000179547
0.000179542
0.000179547
0.000179542
0.000150797
0.000150984
0.000179566
0.000179533
0.000179566
0.000179533
0.000179546
0.00017957
0.000179546
0.000150786
0.000150972
0.000179564
0.000179561
0.000179564
0.000150976
0.000150796
0.00015098
0.000179547
0.000179542
0.000179547
0.000179542
0.000150798
0.000150985
0.000179566
0.000179533
0.000179566
0.000179533
0.000179546
0.00017957
0.000179546
0.000150787
0.000150971
0.000179564
0.000179561
0.000179564
0.000150976
0.000150796
0.000150979
0.000179547
0.000179542
0.000179547
0.000179542
0.000150799
0.000150984
0.000179566
0.000179533
0.000179566
0.000179533
0.000179546
0.00017957
0.000179546
0.000150788
0.00015097
0.000179564
0.000179561
0.000179564
0.000150975
0.000150795
0.000179547
0.000179542
0.000150799
0.000179566
0.000179533
0.000179546
0.000150787
0.000179564
3.91241e-05
4.94825e-05
3.91179e-05
4.94816e-05
2.47551e-05
2.47549e-05
3.91304e-05
4.94788e-05
3.91246e-05
4.94778e-05
0.000212492
0.000212485
0.000212489
0.000212491
0.000212493
0.000212486
0.000212489
8.21044e-05
4.71976e-05
0.000198837
0.00017961
8.20808e-05
4.72093e-05
0.000198837
2.47525e-05
2.47522e-05
8.21079e-05
0.000198833
4.72e-05
0.000179601
8.20836e-05
0.000198834
4.72107e-05
3.71268e-05
3.71235e-05
0.000151031
3.71282e-05
3.71241e-05
3.91279e-05
4.94819e-05
3.91215e-05
4.94811e-05
2.47543e-05
2.47543e-05
3.91342e-05
4.94781e-05
3.91281e-05
4.94772e-05
0.000212495
0.000212488
0.000212492
0.000212491
0.000212492
0.000212487
0.000212491
8.21051e-05
4.72014e-05
0.000198839
0.00017961
8.20802e-05
4.72125e-05
0.000198839
2.47518e-05
2.47516e-05
8.21085e-05
0.000198836
4.72031e-05
0.000179602
8.20836e-05
0.000198837
4.72141e-05
3.713e-05
3.71259e-05
0.000151026
3.71333e-05
3.71293e-05
3.91315e-05
4.94817e-05
3.91252e-05
4.94811e-05
2.47541e-05
2.47541e-05
3.91376e-05
4.94778e-05
3.91318e-05
4.9477e-05
0.000212492
0.000212485
0.000212489
0.00021249
0.000212492
0.000212483
0.000212488
8.21064e-05
4.72037e-05
0.000198839
0.000179611
8.20817e-05
4.72146e-05
0.000198839
2.47514e-05
2.47514e-05
8.21093e-05
0.000198838
4.72062e-05
0.000179602
8.20847e-05
0.000198837
4.72168e-05
3.71341e-05
3.71303e-05
0.000151026
3.71365e-05
3.71326e-05
3.91343e-05
4.94817e-05
3.91284e-05
4.94811e-05
2.47538e-05
2.4754e-05
3.91403e-05
4.94777e-05
3.91348e-05
4.9477e-05
0.000212492
0.000212484
0.000212488
0.000212489
0.000212491
0.000212484
0.000212488
8.21072e-05
4.72059e-05
0.000198838
0.000179611
8.20824e-05
4.72167e-05
0.000198838
2.47513e-05
2.47513e-05
8.21099e-05
0.000198835
4.72085e-05
0.000179602
8.2085e-05
0.000198837
4.72189e-05
3.71357e-05
3.7132e-05
0.000151026
3.71377e-05
3.7134e-05
3.91362e-05
4.94817e-05
3.91306e-05
4.94811e-05
2.4754e-05
2.47541e-05
3.91419e-05
4.94777e-05
3.91368e-05
4.94771e-05
0.000212493
0.000212486
0.00021249
0.000212492
0.000212493
0.000212486
0.000212491
8.21082e-05
4.72078e-05
0.000198838
0.000179611
8.20832e-05
4.72184e-05
0.000198839
2.47513e-05
2.47515e-05
8.21104e-05
0.000198836
4.72102e-05
0.000179602
8.20854e-05
0.000198838
4.72205e-05
3.71374e-05
3.71338e-05
0.000151024
3.71398e-05
3.71362e-05
3.91376e-05
4.94818e-05
3.91321e-05
4.94813e-05
2.47542e-05
2.47543e-05
3.91434e-05
4.94779e-05
3.91381e-05
4.94773e-05
0.000212493
0.000212486
0.000212489
0.00021249
0.000212493
0.000212483
0.000212491
8.21093e-05
4.72089e-05
0.000198839
0.00017961
8.20843e-05
4.72192e-05
0.000198839
2.47516e-05
2.47517e-05
8.21114e-05
0.000198837
4.72115e-05
0.0001796
8.20861e-05
0.000198835
4.72216e-05
3.71396e-05
3.7136e-05
0.000151023
3.71415e-05
3.7138e-05
3.91363e-05
4.94824e-05
3.91324e-05
4.94819e-05
2.47544e-05
2.47542e-05
3.91425e-05
4.94781e-05
3.91388e-05
4.94777e-05
0.000212493
0.000212483
0.000212491
0.000212487
0.00021249
0.000212481
0.000212489
8.21068e-05
4.72087e-05
0.000198839
0.000179606
8.20849e-05
4.72175e-05
0.000198837
2.47518e-05
2.4752e-05
8.21093e-05
0.000198832
4.72119e-05
0.000179595
8.2087e-05
0.000198831
4.72207e-05
3.71399e-05
3.71365e-05
0.000151022
3.71409e-05
3.71374e-05
3.91277e-05
4.94828e-05
3.91259e-05
4.9482e-05
2.47542e-05
2.47543e-05
3.91338e-05
4.94788e-05
3.91324e-05
4.94783e-05
0.000212487
0.00021248
0.000212487
0.000212463
0.000212462
0.00021246
0.000212461
8.20856e-05
4.72028e-05
0.000198833
0.000179594
8.20705e-05
4.72094e-05
0.000198828
2.47518e-05
2.47517e-05
8.20889e-05
0.000198828
4.7207e-05
0.000179587
8.20731e-05
0.000198824
4.72136e-05
3.71382e-05
3.71345e-05
0.000151002
3.71389e-05
3.71352e-05
3.91208e-05
4.94825e-05
3.91178e-05
4.94813e-05
2.47541e-05
2.47543e-05
3.9127e-05
4.9479e-05
3.91244e-05
4.94784e-05
0.000212459
0.000212455
0.000212458
0.000212461
0.000212464
0.000212458
0.000212462
8.20582e-05
4.7193e-05
0.000198799
0.000179566
8.20406e-05
4.72005e-05
0.000198798
2.47514e-05
2.47514e-05
8.2062e-05
0.000198798
4.71977e-05
0.000179557
8.20436e-05
0.000198795
4.72046e-05
3.71352e-05
3.71315e-05
0.000150975
3.71353e-05
3.71316e-05
3.91183e-05
4.94815e-05
3.91138e-05
4.94807e-05
2.47542e-05
2.47543e-05
3.91246e-05
4.94791e-05
3.91205e-05
4.94785e-05
0.000212466
0.00021246
0.000212464
0.000212465
0.000212466
0.000212461
0.000212464
8.20657e-05
4.71885e-05
0.000198803
0.000179569
8.20398e-05
4.71981e-05
0.000198803
2.47513e-05
2.47513e-05
8.20692e-05
0.0001988
4.71925e-05
0.00017956
8.20433e-05
0.0001988
4.72017e-05
3.71321e-05
3.71285e-05
0.000150979
3.71331e-05
3.71295e-05
3.91178e-05
4.94811e-05
3.91128e-05
4.94804e-05
2.47542e-05
2.47543e-05
3.91241e-05
4.94793e-05
3.91196e-05
4.94787e-05
0.000212467
0.000212461
0.000212464
0.000212466
0.000212466
0.000212461
0.000212465
8.20659e-05
4.71877e-05
0.000198803
0.000179569
8.20416e-05
4.71978e-05
0.000198804
2.47513e-05
2.47513e-05
8.20686e-05
0.0001988
4.71915e-05
0.00017956
8.20442e-05
0.0001988
4.72012e-05
3.71313e-05
3.71277e-05
0.000150973
3.71327e-05
3.71291e-05
3.91177e-05
4.94809e-05
3.91127e-05
4.94802e-05
2.47543e-05
2.47543e-05
3.91241e-05
4.94794e-05
3.91195e-05
4.94788e-05
0.000212467
0.000212461
0.000212465
0.000212466
0.000212466
0.000212461
0.000212465
8.20662e-05
4.71877e-05
0.000198804
0.00017957
8.20417e-05
4.71978e-05
0.000198804
2.47513e-05
2.47513e-05
8.20691e-05
0.000198801
4.71914e-05
0.000179561
8.20443e-05
0.000198801
4.72011e-05
3.71312e-05
3.71276e-05
0.000150976
3.71327e-05
3.71291e-05
3.91177e-05
4.94808e-05
3.91127e-05
4.94801e-05
2.47543e-05
2.47544e-05
3.91241e-05
4.94795e-05
3.91194e-05
4.94789e-05
0.000212467
0.000212461
0.000212465
0.000212466
0.000212467
0.000212461
0.000212464
8.20658e-05
4.71877e-05
0.000198804
0.00017957
8.20414e-05
4.71978e-05
0.000198804
2.47513e-05
2.47513e-05
8.20686e-05
0.000198801
4.71914e-05
0.000179561
8.2044e-05
0.000198801
4.72011e-05
3.71312e-05
3.71276e-05
0.000150975
3.71327e-05
3.71291e-05
3.91177e-05
4.94807e-05
3.91127e-05
4.948e-05
2.47543e-05
2.47544e-05
3.91241e-05
4.94795e-05
3.91195e-05
4.94789e-05
0.000212467
0.000212461
0.000212465
0.000212466
0.000212467
0.000212461
0.000212464
8.20662e-05
4.71877e-05
0.000198804
0.00017957
8.20416e-05
4.71978e-05
0.000198804
2.47513e-05
2.47513e-05
8.20691e-05
0.000198801
4.71914e-05
0.000179561
8.20443e-05
0.000198801
4.72012e-05
3.71312e-05
3.71276e-05
0.000150976
3.71327e-05
3.71291e-05
3.91178e-05
4.94807e-05
3.91127e-05
4.948e-05
2.47543e-05
2.47544e-05
3.91241e-05
4.94796e-05
3.91195e-05
4.94789e-05
0.000212467
0.000212461
0.000212465
0.000212466
0.000212466
0.000212461
0.000212464
8.2066e-05
4.71877e-05
0.000198804
0.00017957
8.20415e-05
4.71978e-05
0.000198804
2.47513e-05
2.47513e-05
8.20687e-05
0.0001988
4.71914e-05
0.000179561
8.20441e-05
0.000198801
4.72011e-05
3.71312e-05
3.71276e-05
0.000150974
3.71327e-05
3.71291e-05
3.91178e-05
4.94807e-05
3.91127e-05
4.948e-05
2.47543e-05
2.47544e-05
3.91242e-05
4.94796e-05
3.91195e-05
4.94789e-05
0.000212467
0.000212461
0.000212465
0.000212466
0.000212467
0.000212461
0.000212464
8.20662e-05
4.71877e-05
0.000198804
0.00017957
8.20417e-05
4.71978e-05
0.000198804
2.47513e-05
2.47513e-05
8.20689e-05
0.000198801
4.71914e-05
0.000179561
8.20442e-05
0.000198801
4.72012e-05
3.71312e-05
3.71276e-05
0.000150974
3.71327e-05
3.71291e-05
3.91178e-05
4.94806e-05
3.91127e-05
4.94799e-05
2.47543e-05
2.47544e-05
3.91242e-05
4.94796e-05
3.91195e-05
4.9479e-05
0.000212467
0.000212461
0.000212465
0.000212466
0.000212466
0.000212461
0.000212464
8.2066e-05
4.71877e-05
0.000198804
0.00017957
8.20417e-05
4.71978e-05
0.000198804
2.47513e-05
2.47513e-05
8.20687e-05
0.000198801
4.71914e-05
0.000179561
8.20442e-05
0.000198801
4.72012e-05
3.71312e-05
3.71276e-05
0.000150975
3.71327e-05
3.71291e-05
3.91178e-05
4.94806e-05
3.91127e-05
4.948e-05
2.47543e-05
2.47544e-05
3.91242e-05
4.94796e-05
3.91195e-05
4.9479e-05
0.000212467
0.000212461
0.000212464
8.20658e-05
4.71877e-05
0.000198804
0.00017957
8.20414e-05
4.71978e-05
0.000198804
2.47513e-05
2.47512e-05
8.20697e-05
0.0001988
4.71914e-05
0.000179561
8.20438e-05
0.000198801
4.72013e-05
3.71312e-05
3.71276e-05
0.000150977
3.71327e-05
3.71302e-05
4.94821e-05
4.72108e-05
2.47553e-05
3.71248e-05
3.7133e-05
2.47557e-05
4.7207e-05
4.94804e-05
2.47567e-05
2.47564e-05
2.47542e-05
2.47539e-05
3.71276e-05
3.71252e-05
0.000151035
3.71292e-05
3.71258e-05
2.4756e-05
2.47562e-05
2.47536e-05
2.47538e-05
0.00015085
3.71317e-05
3.71284e-05
3.7128e-05
3.71248e-05
3.91249e-05
4.94826e-05
3.91187e-05
4.94817e-05
8.21054e-05
4.72023e-05
0.000198835
0.000179587
8.20819e-05
4.72133e-05
0.000198836
8.21064e-05
4.72018e-05
0.000198834
0.000179581
8.20824e-05
4.72129e-05
0.000198835
3.91198e-05
4.94813e-05
4.94822e-05
3.9126e-05
3.91205e-05
4.94814e-05
4.94823e-05
3.91268e-05
8.20825e-05
0.000179587
4.72152e-05
0.000198837
4.72043e-05
0.000198837
8.21058e-05
8.20835e-05
0.000179581
4.72148e-05
0.000198836
4.72039e-05
0.000198836
8.21066e-05
3.7124e-05
3.71306e-05
0.000151033
3.71277e-05
3.71317e-05
2.47556e-05
2.47553e-05
2.47545e-05
2.47547e-05
0.000150849
3.71301e-05
3.71307e-05
3.71265e-05
3.71293e-05
2.4755e-05
2.47552e-05
8.2107e-05
4.71953e-05
0.000198834
0.000179605
8.20833e-05
4.72064e-05
0.000198834
3.91295e-05
4.94752e-05
3.91237e-05
4.94742e-05
8.21058e-05
0.000198828
4.71897e-05
0.000179572
8.20822e-05
0.000198829
4.7201e-05
3.91265e-05
4.94775e-05
4.94784e-05
3.91323e-05
8.20845e-05
0.000179605
4.72081e-05
0.000198836
4.71971e-05
0.000198835
8.21072e-05
3.91255e-05
4.94739e-05
4.94748e-05
3.91314e-05
8.20831e-05
0.000179573
0.00019883
4.72028e-05
0.00019883
4.71917e-05
8.21062e-05
3.91242e-05
4.9481e-05
3.9118e-05
4.94801e-05
8.21039e-05
0.000198834
4.71998e-05
0.000179586
8.20807e-05
0.000198835
4.72107e-05
3.91241e-05
4.94791e-05
3.91179e-05
4.94781e-05
8.20817e-05
0.00017961
4.72111e-05
0.000198839
4.72001e-05
0.000198838
8.21047e-05
3.91198e-05
4.94798e-05
4.94807e-05
3.91261e-05
8.20814e-05
0.000179586
0.000198836
4.72125e-05
0.000198835
4.72018e-05
8.21041e-05
3.91197e-05
4.94778e-05
4.94787e-05
3.91259e-05
3.7114e-05
3.71274e-05
0.000151026
3.71159e-05
3.7128e-05
2.47552e-05
2.47549e-05
2.47518e-05
2.47522e-05
0.000150841
3.71175e-05
3.71306e-05
3.71141e-05
3.71268e-05
2.47545e-05
2.47548e-05
8.21089e-05
0.000198835
4.71981e-05
0.000179607
8.20851e-05
0.000198836
4.72091e-05
3.91303e-05
4.94788e-05
3.91244e-05
4.94779e-05
3.91305e-05
4.94791e-05
3.91246e-05
4.94781e-05
8.20851e-05
0.000179601
0.000198836
4.72125e-05
0.000198835
4.72018e-05
8.21083e-05
8.2086e-05
0.000179607
0.000198837
4.72109e-05
0.000198837
4.72e-05
8.21094e-05
3.91263e-05
4.94775e-05
4.94784e-05
3.91321e-05
3.91265e-05
4.94778e-05
4.94787e-05
3.91323e-05
2.4755e-05
2.47547e-05
2.4754e-05
2.47537e-05
0.000150846
3.71309e-05
3.71268e-05
3.7127e-05
3.71229e-05
2.47543e-05
2.47546e-05
2.47533e-05
2.47535e-05
2.47558e-05
2.47557e-05
2.47534e-05
2.47533e-05
3.71305e-05
3.71274e-05
0.00015103
3.71343e-05
3.71307e-05
2.47555e-05
2.47556e-05
2.47532e-05
2.47532e-05
0.000150846
3.71369e-05
3.71326e-05
3.71331e-05
3.71296e-05
3.91287e-05
4.9482e-05
3.91224e-05
4.94813e-05
8.21066e-05
4.72062e-05
0.000198838
0.000179589
8.2083e-05
4.7217e-05
0.000198838
8.21073e-05
4.72057e-05
0.000198837
0.000179583
8.20837e-05
4.72164e-05
0.000198837
3.91236e-05
4.94811e-05
4.94818e-05
3.91298e-05
3.91243e-05
4.94812e-05
4.94819e-05
3.91305e-05
8.2084e-05
0.000179589
4.72187e-05
0.000198839
4.7208e-05
0.000198839
8.21077e-05
8.20846e-05
0.000179583
4.72177e-05
0.000198838
4.72072e-05
0.000198838
8.21083e-05
3.71289e-05
3.71284e-05
0.000151032
3.71321e-05
3.71296e-05
2.4755e-05
2.47548e-05
2.47542e-05
2.47542e-05
0.000150848
3.71336e-05
3.71286e-05
3.71308e-05
3.71273e-05
2.47547e-05
2.47548e-05
8.21078e-05
4.71988e-05
0.000198837
0.000179607
8.20847e-05
4.72097e-05
0.000198837
3.91333e-05
4.94746e-05
3.91274e-05
4.94737e-05
8.21069e-05
0.000198831
4.71935e-05
0.000179574
8.20835e-05
0.000198831
4.72045e-05
3.91302e-05
4.94771e-05
4.94779e-05
3.9136e-05
8.20855e-05
0.000179607
4.72111e-05
0.000198838
4.72003e-05
0.000198838
8.21087e-05
3.91293e-05
4.94737e-05
4.94744e-05
3.91351e-05
8.20844e-05
0.000179575
0.000198832
4.72059e-05
0.000198832
4.71951e-05
8.21079e-05
3.91279e-05
4.94804e-05
3.91217e-05
4.94796e-05
8.21049e-05
0.000198836
4.72035e-05
0.000179588
8.20817e-05
0.000198837
4.72142e-05
3.91278e-05
4.94784e-05
3.91216e-05
4.94776e-05
8.20826e-05
0.00017961
4.72136e-05
0.000198839
4.72031e-05
0.000198839
8.21061e-05
3.91235e-05
4.94795e-05
4.94803e-05
3.91298e-05
8.20826e-05
0.000179588
0.000198838
4.72157e-05
0.000198837
4.72052e-05
8.2106e-05
3.91234e-05
4.94775e-05
4.94782e-05
3.91297e-05
3.71158e-05
3.71295e-05
0.000151021
3.71192e-05
3.71332e-05
2.47544e-05
2.47542e-05
2.47515e-05
2.47516e-05
0.000150837
3.71206e-05
3.71352e-05
3.71174e-05
3.71319e-05
2.47541e-05
2.47542e-05
8.21101e-05
0.000198838
4.72018e-05
0.000179609
8.20865e-05
0.000198838
4.72126e-05
3.9134e-05
4.94781e-05
3.91282e-05
4.94773e-05
3.91342e-05
4.94784e-05
3.91284e-05
4.94776e-05
8.20857e-05
0.000179602
0.000198837
4.72156e-05
0.000198837
4.72052e-05
8.21094e-05
8.20874e-05
0.000179609
0.000198839
4.7214e-05
0.000198839
4.72034e-05
8.2111e-05
3.913e-05
4.94772e-05
4.94779e-05
3.91358e-05
3.91302e-05
4.94775e-05
4.94782e-05
3.9136e-05
2.47542e-05
2.4754e-05
2.47531e-05
2.4753e-05
0.000150842
3.71353e-05
3.71314e-05
3.7132e-05
3.71281e-05
2.47539e-05
2.4754e-05
2.47528e-05
2.47529e-05
2.47555e-05
2.47555e-05
2.47531e-05
2.47531e-05
3.71355e-05
3.71314e-05
0.000151032
3.71382e-05
3.71339e-05
2.47554e-05
2.47554e-05
2.4753e-05
2.4753e-05
0.000150846
3.71386e-05
3.71345e-05
3.71366e-05
3.71324e-05
3.91322e-05
4.94818e-05
3.91261e-05
4.94811e-05
8.21079e-05
4.72095e-05
0.000198839
0.00017959
8.20849e-05
4.72201e-05
0.000198839
8.21085e-05
4.72085e-05
0.000198838
0.000179584
8.20855e-05
4.72189e-05
0.000198838
3.91271e-05
4.94811e-05
4.94817e-05
3.91331e-05
3.91278e-05
4.94811e-05
4.94818e-05
3.91338e-05
8.2085e-05
0.000179589
4.72212e-05
0.000198838
4.72108e-05
0.000198839
8.21082e-05
8.20855e-05
0.000179583
4.72199e-05
0.000198837
4.72097e-05
0.000198837
8.21088e-05
3.71321e-05
3.71264e-05
0.000151033
3.71346e-05
3.71285e-05
2.47546e-05
2.47546e-05
2.47539e-05
2.47541e-05
0.000150848
3.71353e-05
3.71295e-05
3.7133e-05
3.71266e-05
2.47545e-05
2.47546e-05
8.21087e-05
4.72017e-05
0.000198838
0.000179608
8.20862e-05
4.72123e-05
0.000198838
3.91368e-05
4.94744e-05
3.91311e-05
4.94736e-05
8.21079e-05
0.000198832
4.71965e-05
0.000179575
8.20852e-05
0.000198832
4.72072e-05
3.91336e-05
4.9477e-05
4.94777e-05
3.91391e-05
8.20861e-05
0.000179607
4.72133e-05
0.000198837
4.72028e-05
0.000198838
8.2109e-05
3.91328e-05
4.94736e-05
4.94743e-05
3.91383e-05
8.20851e-05
0.000179575
0.00019883
4.72083e-05
0.000198831
4.71977e-05
8.21081e-05
3.91315e-05
4.94802e-05
3.91254e-05
4.94795e-05
8.21063e-05
0.000198837
4.72065e-05
0.000179588
8.20836e-05
0.000198837
4.72169e-05
3.91314e-05
4.94781e-05
3.91253e-05
4.94774e-05
8.20837e-05
0.000179611
4.72157e-05
0.000198839
4.72052e-05
0.00019884
8.21068e-05
3.91271e-05
4.94794e-05
4.94801e-05
3.9133e-05
8.20838e-05
0.000179588
0.000198837
4.7218e-05
0.000198837
4.72077e-05
8.21066e-05
3.91269e-05
4.94774e-05
4.94781e-05
3.91329e-05
3.71188e-05
3.71337e-05
0.000151022
3.71216e-05
3.71364e-05
2.4754e-05
2.4754e-05
2.47513e-05
2.47514e-05
0.000150837
3.71225e-05
3.71371e-05
3.71197e-05
3.71348e-05
2.4754e-05
2.4754e-05
8.21111e-05
0.000198839
4.72048e-05
0.00017961
8.20881e-05
0.000198839
4.72152e-05
3.91375e-05
4.94779e-05
3.91318e-05
4.94772e-05
3.91377e-05
4.94781e-05
3.9132e-05
4.94774e-05
8.20864e-05
0.000179602
0.000198835
4.72179e-05
0.000198836
4.72078e-05
8.21097e-05
8.20881e-05
0.00017961
0.000198837
4.72163e-05
0.000198838
4.7206e-05
8.21115e-05
3.91335e-05
4.94771e-05
4.94778e-05
3.9139e-05
3.91337e-05
4.94774e-05
4.94781e-05
3.91392e-05
2.47538e-05
2.47538e-05
2.47528e-05
2.47528e-05
0.000150842
3.71371e-05
3.71334e-05
3.71348e-05
3.7131e-05
2.47538e-05
2.47538e-05
2.47527e-05
2.47528e-05
2.47554e-05
2.47555e-05
2.4753e-05
2.4753e-05
3.71368e-05
3.7133e-05
0.000151031
3.7139e-05
3.71352e-05
2.47555e-05
2.47554e-05
2.47531e-05
2.4753e-05
0.000150846
3.714e-05
3.71362e-05
3.71374e-05
3.71338e-05
3.91351e-05
4.94818e-05
3.91293e-05
4.94811e-05
8.21088e-05
4.72119e-05
0.000198838
0.000179588
8.20855e-05
4.72221e-05
0.000198838
8.21095e-05
4.72106e-05
0.000198837
0.000179583
8.2086e-05
4.72209e-05
0.000198837
3.91298e-05
4.94811e-05
4.94817e-05
3.91354e-05
3.91306e-05
4.94812e-05
4.94818e-05
3.91362e-05
8.20861e-05
0.000179588
4.72231e-05
0.000198838
4.72129e-05
0.000198838
8.21096e-05
8.20867e-05
0.000179584
4.72217e-05
0.000198837
4.72116e-05
0.000198837
8.21102e-05
3.71337e-05
3.71278e-05
0.000151033
3.71362e-05
3.71309e-05
2.47545e-05
2.47546e-05
2.4754e-05
2.47539e-05
0.000150848
3.71372e-05
3.71322e-05
3.71347e-05
3.71292e-05
2.47546e-05
2.47546e-05
8.21097e-05
4.72038e-05
0.000198837
0.000179607
8.20866e-05
4.72142e-05
0.000198837
3.91395e-05
4.94743e-05
3.91342e-05
4.94736e-05
8.21089e-05
0.00019883
4.71988e-05
0.000179575
8.20855e-05
0.00019883
4.72093e-05
3.91362e-05
4.9477e-05
4.94777e-05
3.91412e-05
8.20873e-05
0.000179606
4.72151e-05
0.000198837
4.72047e-05
0.000198837
8.21104e-05
3.91354e-05
4.94735e-05
4.94743e-05
3.91404e-05
8.20863e-05
0.000179574
0.000198829
4.72102e-05
0.00019883
4.71998e-05
8.21095e-05
3.91342e-05
4.94801e-05
3.91285e-05
4.94794e-05
8.21071e-05
0.000198836
4.72088e-05
0.000179588
8.20842e-05
0.000198836
4.72189e-05
3.91341e-05
4.9478e-05
3.91284e-05
4.94774e-05
8.20845e-05
0.000179611
4.72177e-05
0.000198838
4.72073e-05
0.000198837
8.21076e-05
3.91297e-05
4.94795e-05
4.94801e-05
3.91352e-05
8.20847e-05
0.000179588
0.000198835
4.72198e-05
0.000198836
4.72097e-05
8.21076e-05
3.91296e-05
4.94774e-05
4.9478e-05
3.91351e-05
3.71206e-05
3.71354e-05
0.000151021
3.71234e-05
3.71378e-05
2.47539e-05
2.4754e-05
2.47513e-05
2.47513e-05
0.000150836
3.71245e-05
3.71388e-05
3.71216e-05
3.71362e-05
2.4754e-05
2.4754e-05
8.21121e-05
0.000198837
4.72071e-05
0.000179609
8.20887e-05
0.000198836
4.72173e-05
3.91401e-05
4.94778e-05
3.91349e-05
4.94771e-05
3.91404e-05
4.9478e-05
3.91351e-05
4.94773e-05
8.2087e-05
0.000179601
0.000198836
4.72197e-05
0.000198836
4.72098e-05
8.21102e-05
8.20892e-05
0.000179609
0.000198836
4.72182e-05
0.000198836
4.7208e-05
8.21123e-05
3.91359e-05
4.94771e-05
4.94777e-05
3.91409e-05
3.91362e-05
4.94774e-05
4.9478e-05
3.91412e-05
2.47538e-05
2.47538e-05
2.47527e-05
2.47528e-05
0.000150841
3.71387e-05
3.7135e-05
3.71361e-05
3.71324e-05
2.47538e-05
2.47538e-05
2.47528e-05
2.47528e-05
2.47555e-05
2.47556e-05
2.4753e-05
2.47531e-05
3.71385e-05
3.71349e-05
0.000151029
3.71412e-05
3.71375e-05
2.47557e-05
2.47556e-05
2.47533e-05
2.47531e-05
0.000150844
3.71423e-05
3.71387e-05
3.71398e-05
3.71362e-05
3.9137e-05
4.94818e-05
3.91316e-05
4.94812e-05
8.21105e-05
4.72139e-05
0.000198838
0.000179587
8.20869e-05
4.72239e-05
0.000198838
8.21111e-05
4.72124e-05
0.000198837
0.000179584
8.20875e-05
4.72225e-05
0.000198837
3.91316e-05
4.94812e-05
4.94818e-05
3.91369e-05
3.91324e-05
4.94814e-05
4.94819e-05
3.91377e-05
8.20878e-05
0.000179587
4.72246e-05
0.000198839
4.72147e-05
0.000198839
8.21112e-05
8.20884e-05
0.000179585
4.72231e-05
0.000198839
4.72132e-05
0.000198838
8.21119e-05
3.71357e-05
3.71304e-05
0.000151032
3.71382e-05
3.71333e-05
2.47546e-05
2.47547e-05
2.47542e-05
2.47541e-05
0.000150847
3.7139e-05
3.7134e-05
3.71367e-05
3.71314e-05
2.47548e-05
2.47548e-05
8.21108e-05
4.72056e-05
0.000198836
0.000179606
8.20879e-05
4.7216e-05
0.000198836
3.91411e-05
4.94743e-05
3.91362e-05
4.94736e-05
8.211e-05
0.000198829
4.72007e-05
0.000179574
8.20868e-05
0.000198829
4.7211e-05
3.91377e-05
4.94771e-05
4.94778e-05
3.91426e-05
8.20884e-05
0.000179606
4.72167e-05
0.000198835
4.72064e-05
0.000198836
8.21114e-05
3.91369e-05
4.94737e-05
4.94743e-05
3.91418e-05
8.20873e-05
0.000179574
0.00019883
4.72117e-05
0.000198829
4.72015e-05
8.21105e-05
3.91359e-05
4.94802e-05
3.91306e-05
4.94795e-05
8.21083e-05
0.000198836
4.72106e-05
0.000179588
8.20852e-05
0.000198836
4.72206e-05
3.91359e-05
4.94781e-05
3.91305e-05
4.94774e-05
8.20856e-05
0.000179611
4.72189e-05
0.000198839
4.72089e-05
0.000198838
8.21088e-05
3.91313e-05
4.94797e-05
4.94803e-05
3.91366e-05
8.20859e-05
0.000179587
0.000198837
4.72213e-05
0.000198837
4.72114e-05
8.21088e-05
3.91313e-05
4.94775e-05
4.94781e-05
3.91365e-05
3.71227e-05
3.71372e-05
0.000151019
3.71256e-05
3.714e-05
2.4754e-05
2.47541e-05
2.47516e-05
2.47515e-05
0.000150835
3.71266e-05
3.71411e-05
3.71238e-05
3.71385e-05
2.47542e-05
2.47541e-05
8.21126e-05
0.000198836
4.72089e-05
0.000179609
8.20894e-05
0.000198837
4.72191e-05
3.91414e-05
4.94778e-05
3.91366e-05
4.94772e-05
3.91418e-05
4.9478e-05
3.9137e-05
4.94774e-05
8.20875e-05
0.000179602
0.000198837
4.72211e-05
0.000198837
4.72114e-05
8.21108e-05
8.20898e-05
0.000179609
0.000198837
4.72198e-05
0.000198837
4.72098e-05
8.21131e-05
3.91372e-05
4.94772e-05
4.94778e-05
3.91421e-05
3.91376e-05
4.94775e-05
4.94781e-05
3.91425e-05
2.47538e-05
2.47539e-05
2.47528e-05
2.47529e-05
0.00015084
3.71408e-05
3.71373e-05
3.71383e-05
3.71347e-05
2.4754e-05
2.47539e-05
2.4753e-05
2.47529e-05
2.47557e-05
2.47558e-05
2.47532e-05
2.47533e-05
3.71408e-05
3.71372e-05
0.000151028
3.7143e-05
3.71395e-05
2.47559e-05
2.47558e-05
2.47535e-05
2.47533e-05
0.000150843
3.7143e-05
3.71396e-05
3.71413e-05
3.71379e-05
3.91384e-05
4.9482e-05
3.91331e-05
4.94814e-05
8.2112e-05
4.72153e-05
0.00019884
0.000179587
8.20884e-05
4.72251e-05
0.00019884
8.21128e-05
4.72137e-05
0.000198841
0.000179585
8.20891e-05
4.72232e-05
0.000198841
3.91329e-05
4.94815e-05
4.94819e-05
3.91376e-05
3.91337e-05
4.94814e-05
4.94821e-05
3.91384e-05
8.20893e-05
0.000179587
4.72253e-05
0.000198839
4.72158e-05
0.00019884
8.21118e-05
8.20901e-05
0.000179586
4.7222e-05
0.00019884
4.72131e-05
0.000198842
8.21125e-05
3.71374e-05
3.71321e-05
0.000151032
3.71386e-05
3.71344e-05
2.47549e-05
2.4755e-05
2.47544e-05
2.47544e-05
0.000150847
3.71368e-05
3.71342e-05
3.7136e-05
3.71323e-05
2.47551e-05
2.4755e-05
8.21123e-05
4.72071e-05
0.000198834
0.000179605
8.2089e-05
4.72173e-05
0.000198834
3.91426e-05
4.94744e-05
3.91376e-05
4.94738e-05
8.21116e-05
0.000198831
4.72021e-05
0.000179574
8.20879e-05
0.000198831
4.72123e-05
3.91391e-05
4.94774e-05
4.9478e-05
3.91436e-05
8.209e-05
0.000179606
4.72174e-05
0.000198834
4.72076e-05
0.000198834
8.21123e-05
3.91383e-05
4.94739e-05
4.94745e-05
3.91427e-05
8.2089e-05
0.000179575
0.000198833
4.72124e-05
0.000198832
4.72026e-05
8.21116e-05
3.91372e-05
4.94804e-05
3.91319e-05
4.94798e-05
8.21096e-05
0.000198838
4.7212e-05
0.000179587
8.20864e-05
0.000198838
4.72218e-05
3.91372e-05
4.94782e-05
3.91319e-05
4.94776e-05
8.20868e-05
0.000179609
4.7219e-05
0.000198839
4.72096e-05
0.000198838
8.21097e-05
3.91325e-05
4.94801e-05
4.94805e-05
3.91373e-05
8.20872e-05
0.000179588
0.000198838
4.72219e-05
0.000198838
4.72124e-05
8.21096e-05
3.91325e-05
4.94777e-05
4.94783e-05
3.91373e-05
3.71247e-05
3.71395e-05
0.000151018
3.71273e-05
3.71418e-05
2.47542e-05
2.47543e-05
2.47518e-05
2.47517e-05
0.000150834
3.71273e-05
3.71419e-05
3.71252e-05
3.71401e-05
2.47544e-05
2.47543e-05
8.21141e-05
0.000198838
4.72104e-05
0.000179608
8.20903e-05
0.000198838
4.72203e-05
3.91428e-05
4.94779e-05
3.91379e-05
4.94774e-05
3.91433e-05
4.94782e-05
3.91383e-05
4.94776e-05
8.20887e-05
0.000179599
0.000198832
4.72217e-05
0.000198833
4.72124e-05
8.2112e-05
8.20914e-05
0.000179609
0.00019884
4.72204e-05
0.00019884
4.72109e-05
8.21142e-05
3.91386e-05
4.94775e-05
4.9478e-05
3.91431e-05
3.91391e-05
4.94778e-05
4.94783e-05
3.91435e-05
2.4754e-05
2.47541e-05
2.4753e-05
2.47531e-05
0.000150839
3.71415e-05
3.71381e-05
3.71398e-05
3.71363e-05
2.47542e-05
2.47541e-05
2.47532e-05
2.47531e-05
2.47559e-05
2.47558e-05
2.47535e-05
2.47536e-05
3.71411e-05
3.71378e-05
0.000151026
3.71418e-05
3.71389e-05
2.47557e-05
2.47558e-05
2.47535e-05
2.47536e-05
0.00015084
3.7141e-05