/*--------------------------------*- C++ -*----------------------------------*\
| =========                 |                                                 |
| \\      /  F ield         | OpenFOAM: The Open Source CFD Toolbox           |
|  \\    /   O peration     | Version:  2206                                  |
|   \\  /    A nd           | Website:  www.openfoam.com                      |
|    \\/     M anipulation  |                                                 |
\*---------------------------------------------------------------------------*/
FoamFile
{
    version     2.0;
    format      ascii;
    arch        "LSB;label=32;scalar=64";
    class       surfaceScalarField;
    location    "35";
    object      phi;
}
// * * * * * * * * * * * * * * * * * * * * * * * * * * * * * * * * * * * * * //

dimensions      [0 3 -1 0 0 0 0];

oriented        oriented;

internalField   nonuniform List<scalar> 
82717
(
1.72125e-09
1.88246e-09
-1.85479e-09
-1.80207e-09
0.00109272
-0.00109226
-1.21521e-06
-1.89333e-09
3.38347e-09
0.00109226
-2.60453e-07
1.2182e-06
2.5913e-07
9.04194e-07
-2.65131e-07
-9.03696e-07
2.61473e-07
-1.20977e-06
-1.89461e-09
3.35144e-09
0.00109192
-2.60434e-07
1.21273e-06
2.59107e-07
9.04026e-07
-2.67786e-07
-9.03563e-07
2.64173e-07
1.24362e-06
1.20989e-06
-2.35785e-07
-2.41107e-07
0.00026627
1.79954e-09
1.94367e-09
-0.00109272
-1.88166e-09
-1.84394e-09
0.00109272
-0.00109226
-1.21519e-06
-1.96392e-09
3.33661e-09
0.00109226
-2.60433e-07
1.21821e-06
2.59144e-07
9.04215e-07
-2.65095e-07
-9.03661e-07
2.61499e-07
-0.00109192
-1.20976e-06
-1.96017e-09
3.32781e-09
0.00109192
-2.60418e-07
1.21273e-06
2.59116e-07
9.04054e-07
-2.67743e-07
-9.03523e-07
2.64206e-07
-0.000268247
1.24361e-06
1.20988e-06
-2.35772e-07
-2.41092e-07
0.00026627
1.80748e-09
1.99639e-09
-0.00109272
-1.88681e-09
-1.84033e-09
0.00109272
-0.00109226
-1.21519e-06
-2.03221e-09
3.34486e-09
0.00109226
-2.60441e-07
1.21821e-06
2.59138e-07
9.04242e-07
-2.65053e-07
-9.0364e-07
2.61549e-07
-0.00109192
-1.20975e-06
-2.00348e-09
3.31369e-09
0.00109192
-2.60408e-07
1.21274e-06
2.59125e-07
9.04062e-07
-2.67722e-07
-9.03517e-07
2.64229e-07
-0.000268247
1.2436e-06
1.20987e-06
-2.35759e-07
-2.4108e-07
0.00026627
1.82994e-09
2.0627e-09
-0.00109272
-1.92482e-09
-1.85334e-09
0.00109272
-0.00109226
-1.21521e-06
-2.07877e-09
3.36114e-09
0.00109226
-2.60461e-07
1.2182e-06
2.59134e-07
9.04252e-07
-2.65031e-07
-9.03633e-07
2.61572e-07
-0.00109192
-1.20974e-06
-2.07035e-09
3.28976e-09
0.00109192
-2.60399e-07
1.21275e-06
2.59137e-07
9.04075e-07
-2.67687e-07
-9.03508e-07
2.64268e-07
-0.000268247
1.24359e-06
1.20985e-06
-2.3574e-07
-2.41058e-07
0.00026627
1.90498e-09
2.08139e-09
-0.00109272
-1.91132e-09
-1.89714e-09
0.00109272
-0.00109226
-1.21514e-06
-2.21046e-09
3.25609e-09
0.00109226
-2.60387e-07
1.21824e-06
2.59165e-07
9.04304e-07
-2.65013e-07
-9.03605e-07
2.61617e-07
-0.00109192
-1.20972e-06
-2.10229e-09
3.29663e-09
0.00109192
-2.60393e-07
1.21277e-06
2.59151e-07
9.0412e-07
-2.67671e-07
-9.03484e-07
2.64298e-07
-0.000268246
1.24358e-06
1.20985e-06
-2.35731e-07
-2.4105e-07
0.00026627
1.87507e-09
2.10403e-09
-0.00109272
-1.93225e-09
-1.86019e-09
0.00109272
-0.00109226
-1.21514e-06
-2.13233e-09
3.37728e-09
0.00109226
-2.60389e-07
1.21824e-06
2.59167e-07
9.04339e-07
-2.65002e-07
-9.03589e-07
2.61658e-07
-0.00109192
-1.2097e-06
-2.12636e-09
3.28834e-09
0.00109192
-2.60372e-07
1.2128e-06
2.59191e-07
9.04171e-07
-2.67655e-07
-9.03452e-07
2.64341e-07
-0.000268246
1.24354e-06
1.20982e-06
-2.3569e-07
-2.41004e-07
0.000266269
1.91608e-09
2.46961e-09
-0.00109272
-2.09997e-09
-1.78823e-09
0.00109271
-0.00109226
-1.21518e-06
-2.06643e-09
3.6075e-09
0.00109226
-2.6049e-07
1.21819e-06
2.59062e-07
9.04364e-07
-2.65045e-07
-9.03584e-07
2.61625e-07
-0.00109192
-1.20964e-06
-2.45306e-09
3.09168e-09
0.00109191
-2.6034e-07
1.2129e-06
2.59254e-07
9.04258e-07
-2.67624e-07
-9.03406e-07
2.64412e-07
-0.000268246
1.24347e-06
1.20977e-06
-2.35659e-07
-2.40951e-07
0.000266269
2.32941e-10
3.69426e-10
-0.00109272
-1.04945e-09
-1.08064e-09
0.00109272
-0.00109226
-1.2155e-06
-6.82052e-10
3.69697e-09
0.00109226
-2.6077e-07
1.21801e-06
2.58937e-07
9.03736e-07
-2.65739e-07
-9.04277e-07
2.61002e-07
-0.00109192
-1.21015e-06
-5.02659e-10
3.93716e-09
0.00109192
-2.60858e-07
1.21242e-06
2.58781e-07
9.03558e-07
-2.68415e-07
-9.04141e-07
2.63646e-07
-0.000268246
1.244e-06
1.21027e-06
-2.36267e-07
-2.4158e-07
0.000266269
1.8524e-09
1.92474e-09
-0.00109271
-1.84848e-09
-1.94602e-09
0.00109271
-0.00109226
-1.21514e-06
-2.1477e-09
3.14802e-09
0.00109226
-2.63138e-07
1.21831e-06
2.61969e-07
9.04315e-07
-2.65211e-07
-9.0371e-07
2.61591e-07
-0.00109192
-1.20974e-06
-2.07336e-09
3.19956e-09
0.00109192
-2.60401e-07
1.21285e-06
2.59242e-07
9.0412e-07
-2.6786e-07
-9.03601e-07
2.64245e-07
-0.000268247
1.2436e-06
1.20984e-06
-2.35753e-07
-2.41094e-07
0.00026627
1.90163e-09
2.05329e-09
-0.00109271
-1.92796e-09
-1.90013e-09
0.00109271
-0.00109226
-1.21519e-06
-2.04133e-09
3.33537e-09
0.00109226
-2.6323e-07
1.21823e-06
2.6193e-07
9.04288e-07
-2.6516e-07
-9.03692e-07
2.61593e-07
-0.00109192
-1.20975e-06
-2.07332e-09
3.25375e-09
0.00109192
-2.60422e-07
1.2128e-06
2.59189e-07
9.0412e-07
-2.6778e-07
-9.03559e-07
2.64276e-07
-0.000268247
1.24361e-06
1.20987e-06
-2.35763e-07
-2.41082e-07
0.00026627
1.76035e-09
1.92388e-09
-0.00109271
-1.85704e-09
-1.82313e-09
0.00109271
-0.00109226
-1.21521e-06
-1.92793e-09
3.37711e-09
0.00109226
-2.63245e-07
1.21821e-06
2.61921e-07
9.04255e-07
-2.65199e-07
-9.03734e-07
2.61561e-07
-0.00109192
-1.20979e-06
-1.92946e-09
3.33063e-09
0.00109192
-2.60465e-07
1.21277e-06
2.59154e-07
9.04085e-07
-2.67821e-07
-9.03603e-07
2.64241e-07
-0.000268247
1.24364e-06
1.20991e-06
-2.35805e-07
-2.41124e-07
0.00026627
1.74798e-09
1.90899e-09
-0.00109271
-1.8446e-09
-1.81548e-09
0.00109271
-0.00109226
-1.21521e-06
-1.92258e-09
3.37071e-09
0.00109226
-2.63244e-07
1.21821e-06
2.61921e-07
9.04253e-07
-2.652e-07
-9.03736e-07
2.6156e-07
-0.00109192
-1.20979e-06
-1.90894e-09
3.33831e-09
0.00109192
-2.60467e-07
1.21277e-06
2.5915e-07
9.04079e-07
-2.67823e-07
-9.03606e-07
2.64235e-07
-0.000268247
1.24365e-06
1.20991e-06
-2.35806e-07
-2.41125e-07
0.00026627
1.75379e-09
1.91709e-09
-0.00109271
-1.84902e-09
-1.82079e-09
0.00109271
-0.00109226
-1.21521e-06
-1.92727e-09
3.36613e-09
0.00109226
-2.63241e-07
1.21822e-06
2.61926e-07
9.04253e-07
-2.652e-07
-9.03736e-07
2.61559e-07
-0.00109192
-1.20979e-06
-1.91377e-09
3.33631e-09
0.00109192
-2.60468e-07
1.21277e-06
2.59153e-07
9.04081e-07
-2.67825e-07
-9.03607e-07
2.64239e-07
-0.000268247
1.24365e-06
1.20991e-06
-2.35807e-07
-2.41128e-07
0.00026627
1.75122e-09
1.92236e-09
-0.00109271
-1.85371e-09
-1.82044e-09
0.00109271
-0.00109226
-1.21521e-06
-1.92533e-09
3.36846e-09
0.00109226
-2.63241e-07
1.21821e-06
2.61922e-07
9.04252e-07
-2.65198e-07
-9.03735e-07
2.61557e-07
-0.00109192
-1.20979e-06
-1.91212e-09
3.33713e-09
0.00109192
-2.60466e-07
1.21277e-06
2.59151e-07
9.0408e-07
-2.67823e-07
-9.03606e-07
2.64236e-07
-0.000268247
1.24365e-06
1.20991e-06
-2.35806e-07
-2.41126e-07
0.00026627
1.75431e-09
1.92962e-09
-0.00109271
-1.85801e-09
-1.82384e-09
0.00109271
-0.00109226
-1.21521e-06
-1.92966e-09
3.36892e-09
0.00109226
-2.63241e-07
1.21821e-06
2.61923e-07
9.04253e-07
-2.65196e-07
-9.03733e-07
2.61558e-07
-0.00109192
-1.20979e-06
-1.91429e-09
3.3371e-09
0.00109192
-2.60465e-07
1.21277e-06
2.59151e-07
9.04079e-07
-2.67821e-07
-9.03604e-07
2.64235e-07
-0.000268247
1.24365e-06
1.20991e-06
-2.35806e-07
-2.41126e-07
0.00026627
1.75273e-09
1.92812e-09
-0.00109271
-1.85799e-09
-1.82319e-09
0.00109271
-0.00109226
-1.21521e-06
-1.9237e-09
3.36966e-09
0.00109226
-2.63241e-07
1.21821e-06
2.61922e-07
9.04248e-07
-2.65195e-07
-9.03731e-07
2.61553e-07
-0.00109192
-1.20979e-06
-1.91008e-09
3.34075e-09
0.00109192
-2.60465e-07
1.21277e-06
2.59148e-07
9.04075e-07
-2.67818e-07
-9.03601e-07
2.6423e-07
-0.000268247
1.24365e-06
1.20991e-06
-2.35805e-07
-2.41125e-07
0.00026627
1.74723e-09
1.91819e-09
-0.00109271
-1.85112e-09
-1.81956e-09
0.00109271
-0.00109226
-1.21521e-06
-1.92076e-09
3.37119e-09
0.00109226
-2.63238e-07
1.21821e-06
2.61918e-07
9.0424e-07
-2.65187e-07
-9.03724e-07
2.61544e-07
-0.00109192
-1.20979e-06
-1.9034e-09
3.34508e-09
0.00109192
-2.60462e-07
1.21276e-06
2.59142e-07
9.04065e-07
-2.6781e-07
-9.03594e-07
2.64218e-07
-0.000268247
1.24364e-06
1.20991e-06
-2.35802e-07
-2.41123e-07
0.00026627
1.72968e-09
1.91058e-09
-0.00109271
-1.83826e-09
-1.80593e-09
0.00109271
-0.00109226
-1.2152e-06
-1.92439e-09
3.37177e-09
0.00109226
-2.63227e-07
1.2182e-06
2.61905e-07
9.0422e-07
-2.65166e-07
-9.03703e-07
2.61525e-07
-0.00109192
-1.20978e-06
-1.89884e-09
3.34718e-09
0.00109192
-2.60445e-07
1.21275e-06
2.59125e-07
9.04041e-07
-2.67788e-07
-9.03572e-07
2.64195e-07
-0.000268247
1.24363e-06
1.2099e-06
-2.3579e-07
-2.41112e-07
0.00026627
1.2574e-06
0.00109191
-1.25447e-06
2.67263e-07
-2.68701e-07
-9.09323e-07
2.6416e-07
-2.6799e-07
9.09727e-07
-1.2182e-06
0.000268292
-0.000266299
2.38987e-07
2.43845e-07
-1.21521e-06
2.5913e-07
-2.60458e-07
2.6147e-07
-2.65135e-07
1.24898e-06
1.21256e-06
-2.33235e-07
-2.38501e-07
0.000266276
-1.25192e-06
-1.21553e-06
0.000268265
-0.000266276
2.36198e-07
2.41474e-07
3.56398e-09
0.00109148
-2.6865e-07
1.25192e-06
2.6721e-07
9.04074e-07
-2.65143e-07
-9.03681e-07
2.61385e-07
-1.25448e-06
-1.51877e-09
-1.69381e-09
0.00109192
-2.68703e-07
1.25739e-06
2.67257e-07
9.09701e-07
-2.6799e-07
-9.09355e-07
2.64158e-07
0.00109148
-1.79906e-09
-0.00109148
3.55011e-09
-1.24897e-06
2.67215e-07
-2.68642e-07
-9.03637e-07
2.6142e-07
-2.65102e-07
9.04106e-07
1.2574e-06
0.00109192
-1.61701e-09
-0.00109192
3.51274e-09
-1.25447e-06
2.67263e-07
-2.68697e-07
-9.09286e-07
2.64187e-07
-2.67958e-07
9.09719e-07
-2.36017e-07
-2.40893e-07
0.000266299
-1.21821e-06
0.000268292
-0.000266299
2.39e-07
2.43849e-07
3.36558e-09
0.00109253
-2.63233e-07
1.21552e-06
2.61866e-07
9.06991e-07
-2.67922e-07
-9.0642e-07
2.64252e-07
-1.24905e-06
-1.67949e-09
3.57324e-09
0.00109159
-2.68704e-07
1.25196e-06
2.67241e-07
9.06813e-07
-2.67895e-07
-9.06434e-07
2.64145e-07
0.00109253
-1.93608e-09
-0.00109253
3.33646e-09
-1.21256e-06
2.61875e-07
-2.63225e-07
-9.06382e-07
2.64277e-07
-2.6789e-07
9.07018e-07
1.25197e-06
0.00109159
-1.72206e-09
-0.00109159
3.56331e-09
-1.24905e-06
2.67243e-07
-2.68698e-07
-9.06394e-07
2.64172e-07
-2.67861e-07
9.0684e-07
-1.67332e-09
3.56252e-09
0.00109138
-2.63121e-07
1.24653e-06
2.6169e-07
9.04099e-07
-2.65125e-07
2.61351e-07
-9.03719e-07
-1.94678e-09
-0.00109226
3.34462e-09
-1.2152e-06
2.59142e-07
-2.60438e-07
-9.03663e-07
2.61494e-07
9.04214e-07
-2.65103e-07
1.24653e-06
0.00109138
-1.70718e-09
-0.00109138
3.55081e-09
-1.24362e-06
2.61697e-07
-2.63111e-07
-9.03685e-07
2.61374e-07
-2.65095e-07
9.04121e-07
-2.33439e-07
-2.40866e-07
0.000266257
-1.21273e-06
0.000268242
-0.000266257
2.36389e-07
2.43808e-07
-1.85212e-09
3.37694e-09
0.00109244
-2.60495e-07
1.21283e-06
2.5916e-07
9.01638e-07
-2.65209e-07
2.61528e-07
-9.0112e-07
-1.94904e-09
-0.00109192
3.33439e-09
-1.20976e-06
2.59113e-07
-2.60424e-07
-9.03475e-07
2.64176e-07
9.04105e-07
-2.67774e-07
1.21284e-06
0.00109244
-1.88416e-09
-0.00109244
3.3632e-09
-1.20988e-06
2.59166e-07
-2.60486e-07
-9.01087e-07
2.6155e-07
-2.6518e-07
9.0166e-07
-0.00026627
2.38712e-07
2.44053e-07
1.24897e-06
1.21256e-06
-2.3322e-07
-2.38489e-07
0.000266276
-1.25191e-06
-1.21821e-06
0.000268263
-0.000266275
2.3876e-07
2.44109e-07
3.5451e-09
0.00109148
-2.68635e-07
1.25191e-06
2.67221e-07
9.04099e-07
-2.65095e-07
-9.03643e-07
2.61426e-07
-1.25446e-06
-1.64661e-09
3.51275e-09
0.00109192
-2.68692e-07
1.2574e-06
2.67266e-07
9.09724e-07
-2.67947e-07
-9.0928e-07
2.64195e-07
0.00109148
-1.79439e-09
-0.00109147
3.53365e-09
-1.24896e-06
2.67224e-07
-2.68627e-07
-9.06338e-07
2.61429e-07
-2.67796e-07
9.04096e-07
1.25742e-06
0.00109192
-1.74162e-09
-0.00109192
3.52642e-09
-1.25444e-06
2.67277e-07
-2.68682e-07
-9.09272e-07
2.64216e-07
-2.67929e-07
9.0973e-07
-2.35995e-07
-2.40879e-07
0.000266299
-1.21821e-06
0.000268292
-0.000266299
2.39002e-07
2.43881e-07
3.3438e-09
0.00109253
-2.63223e-07
1.21552e-06
2.6191e-07
9.07018e-07
-2.67882e-07
-9.06381e-07
2.64283e-07
-1.24904e-06
-1.74806e-09
3.56119e-09
0.00109159
-2.6869e-07
1.25197e-06
2.67248e-07
9.06836e-07
-2.6785e-07
-9.06396e-07
2.64181e-07
0.00109253
-1.98252e-09
-0.00109253
3.3393e-09
-1.21524e-06
2.64657e-07
-2.65995e-07
-9.06377e-07
2.64296e-07
-2.67868e-07
9.0702e-07
1.25197e-06
0.00109159
-1.75193e-09
-0.00109159
3.54767e-09
-1.24904e-06
2.67254e-07
-2.68681e-07
-9.06401e-07
2.64189e-07
-2.6784e-07
9.06832e-07
-1.74066e-09
3.53687e-09
0.00109138
-2.63104e-07
1.24654e-06
2.61701e-07
9.04125e-07
-2.65084e-07
2.61384e-07
-9.0368e-07
-2.00862e-09
-0.00109226
3.34688e-09
-1.21519e-06
2.59138e-07
-2.60438e-07
-9.03646e-07
2.61533e-07
9.04232e-07
-2.65066e-07
1.24654e-06
0.00109138
-1.75389e-09
-0.00109138
3.5346e-09
-1.24361e-06
2.61705e-07
-2.63096e-07
-9.03677e-07
2.61395e-07
-2.6507e-07
9.04125e-07
-2.33423e-07
-2.40854e-07
0.000266257
-1.21274e-06
0.000268242
-0.000266257
2.364e-07
2.43821e-07
-1.91836e-09
3.35744e-09
0.00109244
-2.60479e-07
1.21284e-06
2.59169e-07
9.01665e-07
-2.65168e-07
2.6156e-07
-9.01081e-07
-1.98818e-09
-0.00109192
3.32342e-09
-1.20975e-06
2.5912e-07
-2.60412e-07
-9.03467e-07
2.64195e-07
9.04109e-07
-2.6775e-07
1.21284e-06
0.00109244
-1.95731e-09
-0.00109244
3.35777e-09
-1.20987e-06
2.59175e-07
-2.60471e-07
-9.01076e-07
2.61573e-07
-2.65153e-07
9.01668e-07
-0.00026627
2.38725e-07
2.44066e-07
1.24896e-06
1.21524e-06
-2.35792e-07
-2.41109e-07
0.000266275
-1.25193e-06
-1.21822e-06
0.000268263
-0.000266275
2.38783e-07
2.44133e-07
3.50889e-09
0.00109147
-2.6862e-07
1.25192e-06
2.67232e-07
9.06793e-07
-2.65089e-07
-9.03652e-07
2.64145e-07
-1.25444e-06
-1.75472e-09
3.52285e-09
0.00109192
-2.68679e-07
1.25742e-06
2.67281e-07
9.09735e-07
-2.67925e-07
-9.09268e-07
2.64223e-07
0.00109147
-1.80041e-09
-0.00109147
3.48424e-09
-1.24894e-06
2.67241e-07
-2.68612e-07
-9.0634e-07
2.64168e-07
-2.67768e-07
9.06794e-07
1.25741e-06
0.00109192
-1.70322e-09
-0.00109192
3.57805e-09
-1.25445e-06
2.67261e-07
-2.68699e-07
-9.09301e-07
2.64211e-07
-2.67948e-07
9.09709e-07
-2.35998e-07
-2.4085e-07
0.000266299
-1.21818e-06
0.000268292
-0.000266299
2.38968e-07
2.43885e-07
3.33377e-09
0.00109253
-2.65989e-07
1.21822e-06
2.64664e-07
9.07027e-07
-2.67863e-07
-9.06377e-07
2.64307e-07
-1.24903e-06
-1.7895e-09
3.53564e-09
0.00109159
-2.68676e-07
1.25198e-06
2.67261e-07
9.06844e-07
-2.67831e-07
-9.06395e-07
2.64204e-07
0.00109253
-2.01873e-09
-0.00109253
3.32783e-09
-1.21522e-06
2.64672e-07
-2.65979e-07
-9.06369e-07
2.64337e-07
-2.67836e-07
9.07036e-07
1.25199e-06
0.00109159
-1.76449e-09
-0.00109159
3.52557e-09
-1.24902e-06
2.67267e-07
-2.68672e-07
-9.06398e-07
2.64216e-07
-2.67816e-07
9.06839e-07
-1.78879e-09
3.52009e-09
0.00109138
-2.63094e-07
1.24654e-06
2.6171e-07
9.04133e-07
-2.65061e-07
2.61409e-07
-9.03674e-07
-2.02862e-09
-0.00109226
3.41022e-09
-1.21522e-06
2.59111e-07
-2.60472e-07
-9.03638e-07
2.61564e-07
9.04245e-07
-2.6504e-07
1.24655e-06
0.00109138
-1.78563e-09
-0.00109138
3.50067e-09
-1.24359e-06
2.6172e-07
-2.63085e-07
-9.03673e-07
2.61434e-07
-2.65037e-07
9.04136e-07
-2.33412e-07
-2.40841e-07
0.000266257
-1.21274e-06
0.000268241
-0.000266257
2.36411e-07
2.43844e-07
-1.99979e-09
3.35123e-09
0.00109244
-2.60468e-07
1.21285e-06
2.5918e-07
9.01678e-07
-2.65144e-07
2.61587e-07
-9.01071e-07
-2.02495e-09
-0.00109192
3.31173e-09
-1.20974e-06
2.5913e-07
-2.60405e-07
-9.03461e-07
2.64235e-07
9.04121e-07
-2.67717e-07
1.21286e-06
0.00109244
-2.00865e-09
-0.00109244
3.33683e-09
-1.20986e-06
2.59189e-07
-2.60461e-07
-9.01065e-07
2.61616e-07
-2.65116e-07
9.01684e-07
-0.00026627
2.38746e-07
2.44088e-07
1.24893e-06
1.21522e-06
-2.3577e-07
-2.41086e-07
0.000266275
-1.25194e-06
-1.21824e-06
0.000268262
-0.000266275
2.38802e-07
2.44152e-07
3.46316e-09
0.00109147
-2.686e-07
1.25194e-06
2.67251e-07
9.06793e-07
-2.67767e-07
-9.06345e-07
2.64171e-07
-1.25443e-06
-1.79141e-09
3.52199e-09
0.00109192
-2.68682e-07
1.25742e-06
2.67285e-07
9.0974e-07
-2.6791e-07
-9.09282e-07
2.64257e-07
0.00109147
-1.85315e-09
-0.00109147
3.50338e-09
-1.24893e-06
2.67252e-07
-2.68598e-07
-9.06301e-07
2.64201e-07
-2.67738e-07
9.06843e-07
1.25742e-06
0.00109192
-1.87533e-09
-0.00109192
3.50107e-09
-1.25442e-06
2.67331e-07
-2.68659e-07
-9.06543e-07
2.61578e-07
-2.65156e-07
9.07086e-07
-2.36019e-07
-2.40845e-07
0.000266299
-1.21821e-06
0.000268289
-0.000266296
2.41611e-07
2.41344e-07
3.31245e-09
0.00109253
-2.65974e-07
1.21823e-06
2.64677e-07
9.07041e-07
-2.67829e-07
-9.06366e-07
2.64345e-07
-1.24902e-06
-1.83597e-09
3.50273e-09
0.00109159
-2.68663e-07
1.25199e-06
2.67277e-07
9.06851e-07
-2.6781e-07
-9.06392e-07
2.64229e-07
0.00109253
-2.04941e-09
-0.00109253
3.33185e-09
-1.21521e-06
2.64688e-07
-2.65965e-07
-9.06342e-07
2.64372e-07
-2.67812e-07
9.07074e-07
1.252e-06
0.00109159
-1.84583e-09
-0.00109159
3.50649e-09
-1.24901e-06
2.67282e-07
-2.68659e-07
-9.06346e-07
2.64271e-07
-2.67774e-07
9.06903e-07
-1.84941e-09
3.47675e-09
0.00109138
-2.63079e-07
1.24656e-06
2.61726e-07
9.04145e-07
-2.65027e-07
2.61446e-07
-9.03666e-07
-2.07101e-09
-0.00109226
3.33608e-09
-1.21516e-06
2.59132e-07
-2.604e-07
-9.03622e-07
2.61585e-07
9.04269e-07
-2.65024e-07
1.24657e-06
0.00109138
-1.81513e-09
-0.00109138
3.51131e-09
-1.24358e-06
2.61734e-07
-2.63074e-07
-9.03648e-07
2.61467e-07
-2.65015e-07
9.04171e-07
-2.33404e-07
-2.40819e-07
0.000266257
-1.21277e-06
0.000268241
-0.000266257
2.3645e-07
2.43865e-07
-2.07243e-09
3.32064e-09
0.00109244
-2.60455e-07
1.21286e-06
2.59194e-07
9.01692e-07
-2.65107e-07
2.61627e-07
-9.0106e-07
-2.05908e-09
-0.00109192
3.29259e-09
-1.20972e-06
2.59153e-07
-2.60385e-07
-9.03436e-07
2.64269e-07
9.04157e-07
-2.67694e-07
1.21287e-06
0.00109244
-2.04242e-09
-0.00109244
3.33797e-09
-1.20984e-06
2.59204e-07
-2.60448e-07
-9.0104e-07
2.61651e-07
-2.65092e-07
9.01719e-07
-0.00026627
2.38769e-07
2.44111e-07
1.24894e-06
1.21521e-06
-2.35756e-07
-2.41081e-07
0.000266275
-1.252e-06
-1.21829e-06
0.000268262
-0.000266275
2.38855e-07
2.44209e-07
3.50274e-09
0.00109147
-2.68602e-07
1.25194e-06
2.67256e-07
9.06861e-07
-2.67734e-07
-9.063e-07
2.64212e-07
-1.2544e-06
-2.01728e-09
3.42195e-09
0.00109192
-2.68673e-07
1.25745e-06
2.67366e-07
9.07123e-07
-2.65145e-07
-9.06524e-07
2.61614e-07
0.00109147
-2.03792e-09
-0.00109147
3.36976e-09
-1.24889e-06
2.67314e-07
-2.68563e-07
-9.06253e-07
2.6427e-07
-2.67684e-07
9.06915e-07
1.25746e-06
0.00109191
-1.91379e-09
-0.00109192
3.48297e-09
-1.25436e-06
2.64612e-07
-2.6589e-07
-9.06515e-07
2.6162e-07
-2.65113e-07
9.07147e-07
-2.38502e-07
-2.38257e-07
0.000266296
-1.21826e-06
0.000268288
-0.000266293
2.39102e-07
2.41403e-07
3.32197e-09
0.00109252
-2.65967e-07
1.21824e-06
2.64692e-07
9.07087e-07
-2.67815e-07
-9.06341e-07
2.64376e-07
-1.24901e-06
-1.90084e-09
3.51349e-09
0.00109159
-2.68666e-07
1.252e-06
2.67283e-07
9.06915e-07
-2.67775e-07
-9.06343e-07
2.64275e-07
0.00109252
-2.27489e-09
-0.00109252
3.23057e-09
-1.21517e-06
2.64748e-07
-2.65925e-07
-9.06297e-07
2.64445e-07
-2.6777e-07
9.07151e-07
1.25207e-06
0.00109158
-2.02997e-09
-0.00109159
3.39577e-09
-1.24897e-06
2.67345e-07
-2.68621e-07
-9.06316e-07
2.64332e-07
-2.67739e-07
9.06961e-07
-1.88963e-09
3.51784e-09
0.00109138
-2.63081e-07
1.24657e-06
2.61735e-07
9.0419e-07
-2.65012e-07
2.61477e-07
-9.03642e-07
-2.17475e-09
-0.00109226
3.32393e-09
-1.21512e-06
2.59181e-07
-2.60383e-07
-9.03579e-07
2.61648e-07
9.04338e-07
-2.64994e-07
1.24663e-06
0.00109138
-2.01429e-09
-0.00109138
3.37778e-09
-1.24354e-06
2.61797e-07
-2.63036e-07
-9.03602e-07
2.61536e-07
-2.64971e-07
9.04244e-07
-2.3338e-07
-2.40813e-07
0.000266257
-1.21282e-06
0.000268241
-0.000266256
2.36497e-07
2.43924e-07
-2.09352e-09
3.33563e-09
0.00109244
-2.60455e-07
1.21287e-06
2.59205e-07
9.01736e-07
-2.65091e-07
2.61659e-07
-9.01036e-07
-2.27996e-09
-0.00109192
3.1922e-09
-1.20968e-06
2.59208e-07
-2.60355e-07
-9.03385e-07
2.64342e-07
9.04236e-07
-2.67646e-07
1.21293e-06
0.00109244
-2.27677e-09
-0.00109244
3.23227e-09
-1.2098e-06
2.59265e-07
-2.60412e-07
-9.00992e-07
2.61725e-07
-2.65045e-07
9.01797e-07
-0.000266269
2.38823e-07
2.44168e-07
1.2489e-06
1.21518e-06
-2.35714e-07
-2.41037e-07
0.000266275
-1.25209e-06
-1.21832e-06
0.000268261
-0.000266274
2.38856e-07
2.44277e-07
3.45445e-09
0.00109147
-2.68578e-07
1.25199e-06
2.67305e-07
9.06897e-07
-2.67717e-07
-9.0628e-07
2.64242e-07
-1.25438e-06
-1.88543e-09
3.51801e-09
0.00109191
-2.65902e-07
1.25744e-06
2.646e-07
9.07142e-07
-2.65122e-07
-9.06525e-07
2.61629e-07
0.00109147
-2.10742e-09
-0.00109147
3.16587e-09
-1.24887e-06
2.67375e-07
-2.68553e-07
-9.06299e-07
2.64263e-07
-2.6772e-07
9.06921e-07
1.25754e-06
0.00109191
-2.02274e-09
-0.00109191
3.36381e-09
-1.25433e-06
2.64639e-07
-2.65899e-07
-9.0654e-07
2.61635e-07
-2.65152e-07
9.07178e-07
-2.35915e-07
-2.38224e-07
0.000266293
-1.21831e-06
0.000268288
-0.000266293
2.39099e-07
2.41454e-07
3.33803e-09
0.00109252
-2.65948e-07
1.21827e-06
2.64727e-07
9.0714e-07
-2.67802e-07
-9.06313e-07
2.64422e-07
-1.24898e-06
-1.89169e-09
3.48711e-09
0.00109158
-2.68636e-07
1.25204e-06
2.67331e-07
9.06951e-07
-2.67769e-07
-9.0633e-07
2.6431e-07
0.00109252
-2.55128e-09
-0.00109252
3.18015e-09
-1.21519e-06
2.64766e-07
-2.65953e-07
-9.06283e-07
2.64516e-07
-2.67764e-07
9.07232e-07
1.25214e-06
0.00109158
-2.27912e-09
-0.00109158
3.19309e-09
-1.24895e-06
2.67407e-07
-2.68607e-07
-9.06306e-07
2.64393e-07
-2.67733e-07
9.0703e-07
-1.88101e-09
3.4657e-09
0.00109138
-2.63051e-07
1.24661e-06
2.61784e-07
9.04235e-07
-2.65e-07
2.61516e-07
-9.03617e-07
-2.41039e-09
-0.00109226
3.27613e-09
-1.21512e-06
2.59188e-07
-2.60412e-07
-9.03553e-07
2.617e-07
9.04423e-07
-2.64995e-07
1.24671e-06
0.00109138
-2.20217e-09
-0.00109138
3.14012e-09
-1.24351e-06
2.61866e-07
-2.63017e-07
-9.03606e-07
2.61583e-07
-2.64977e-07
9.04297e-07
-2.33344e-07
-2.40767e-07
0.000266256
-1.2129e-06
0.00026824
-0.000266256
2.36553e-07
2.43982e-07
-2.13105e-09
3.33097e-09
0.00109244
-2.60431e-07
1.21291e-06
2.59247e-07
9.01789e-07
-2.65073e-07
2.61704e-07
-9.01004e-07
-2.54711e-09
-0.00109192
3.02347e-09
-1.20967e-06
2.59266e-07
-2.60345e-07
-9.03375e-07
2.64402e-07
9.04304e-07
-2.67639e-07
1.21299e-06
0.00109244
-2.56063e-09
-0.00109244
3.10632e-09
-1.2098e-06
2.59309e-07
-2.60417e-07
-9.00977e-07
2.6179e-07
-2.65034e-07
9.01872e-07
-0.000266269
2.38865e-07
2.44232e-07
1.24884e-06
1.21518e-06
-2.35733e-07
-2.40982e-07
0.000266274
-1.25161e-06
-1.21517e-06
0.000268259
-0.000266274
2.38311e-07
2.43668e-07
3.18517e-09
0.00109147
-2.6855e-07
1.25209e-06
2.67366e-07
9.06897e-07
-2.67767e-07
-9.06316e-07
2.64209e-07
-1.25439e-06
-1.57812e-09
3.67521e-09
0.00109191
-2.65986e-07
1.25743e-06
2.64513e-07
9.07076e-07
-2.65236e-07
-9.06608e-07
2.61516e-07
0.00109147
-2.3034e-10
-0.00109147
4.15531e-09
-1.2493e-06
2.66878e-07
-2.6901e-07
-9.06867e-07
2.60869e-07
-2.68338e-07
9.0361e-07
1.25708e-06
0.00109191
-1.49872e-10
-0.00109191
4.2014e-09
-1.25485e-06
2.66935e-07
-2.6914e-07
-9.09903e-07
2.6367e-07
-2.68591e-07
9.09213e-07
-2.35981e-07
-2.38233e-07
0.000266293
-1.21784e-06
0.000268291
-0.000266296
2.38546e-07
2.40872e-07
3.28868e-09
0.00109252
-2.65962e-07
1.21831e-06
2.64738e-07
9.0724e-07
-2.67769e-07
-9.06262e-07
2.64506e-07
-1.24891e-06
-2.19416e-09
3.25418e-09
0.00109158
-2.68602e-07
1.25215e-06
2.67397e-07
9.07036e-07
-2.67741e-07
-9.06285e-07
2.64377e-07
0.00109253
-5.57898e-10
-0.00109252
4.09843e-09
-1.21561e-06
2.61528e-07
-2.66411e-07
-9.06883e-07
2.63809e-07
-2.6841e-07
9.06572e-07
1.25166e-06
0.00109158
-3.31239e-10
-0.00109158
4.12754e-09
-1.24937e-06
2.66912e-07
-2.69065e-07
-9.06903e-07
2.63683e-07
-2.68377e-07
9.06371e-07
-2.08528e-09
3.13865e-09
0.00109138
-2.63006e-07
1.24672e-06
2.61861e-07
9.04298e-07
-2.6499e-07
2.61563e-07
-9.03593e-07
-4.9159e-10
-0.00109226
4.1427e-09
-1.21562e-06
2.58732e-07
-2.60922e-07
-9.04213e-07
2.60984e-07
9.03722e-07
-2.65684e-07
1.24623e-06
0.00109138
-3.12164e-10
-0.00109138
4.1019e-09
-1.24393e-06
2.61373e-07
-2.63471e-07
-9.04199e-07
2.60874e-07
-2.65623e-07
9.03648e-07
-2.33299e-07
-2.40719e-07
0.000266256
-1.21242e-06
0.000268241
-0.000266256
2.35993e-07
2.43418e-07
-2.49764e-09
3.18208e-09
0.00109244
-2.60414e-07
1.21299e-06
2.59296e-07
9.01881e-07
-2.65039e-07
2.61779e-07
-9.00952e-07
-6.35467e-10
-0.00109192
3.97635e-09
-1.21009e-06
2.58773e-07
-2.60803e-07
-9.03972e-07
2.63695e-07
9.03644e-07
-2.68282e-07
1.21252e-06
0.00109244
-5.31858e-10
-0.00109244
3.98981e-09
-1.21022e-06
2.5882e-07
-2.60873e-07
-9.01584e-07
2.61068e-07
-2.65686e-07
9.01197e-07
-0.000266269
2.38311e-07
2.43668e-07
1.24937e-06
1.21296e-06
-2.36307e-07
-2.41589e-07
0.000266275
-1.25462e-06
-1.2156e-06
0.000268266
-0.000266276
2.36191e-07
2.4406e-07
4.22434e-09
0.00109147
-2.66337e-07
1.25159e-06
2.64117e-07
9.03592e-07
-2.65741e-07
-9.04268e-07
2.60784e-07
-1.25477e-06
-5.59206e-10
3.78315e-09
0.00109191
-2.69016e-07
1.25721e-06
2.67105e-07
9.09317e-07
-2.68537e-07
-9.09868e-07
2.63792e-07
0.00109147
-1.54375e-09
-0.00109147
3.65299e-09
-1.24906e-06
2.67255e-07
-2.6873e-07
-9.03841e-07
2.58585e-07
-2.65346e-07
9.04064e-07
1.2575e-06
0.00109192
-1.79058e-09
-0.00109192
3.23781e-09
-1.25444e-06
2.67384e-07
-2.68678e-07
-9.1216e-07
2.64218e-07
-2.68107e-07
9.12483e-07
-2.36434e-07
-2.38746e-07
0.000266296
-1.21831e-06
0.00026829
-0.000266297
2.3912e-07
2.43909e-07
3.98184e-09
0.00109253
-2.63702e-07
1.21519e-06
2.61543e-07
9.06531e-07
-2.68568e-07
-9.07008e-07
2.63734e-07
-1.24944e-06
-1.97072e-10
4.10618e-09
0.00109159
-2.69126e-07
1.25166e-06
2.66916e-07
9.06333e-07
-2.68532e-07
-9.07023e-07
2.6361e-07
0.00109254
-1.28915e-08
-0.00109253
3.30614e-09
-1.2126e-06
2.62006e-07
-2.63288e-07
-9.06587e-07
2.64231e-07
-2.68148e-07
9.07008e-07
1.25203e-06
0.00109159
-1.54669e-09
-0.00109159
3.49007e-09
-1.2491e-06
2.67321e-07
-2.68752e-07
-9.06604e-07
2.64102e-07
-2.68118e-07
9.06807e-07
-2.7309e-10
4.15151e-09
0.00109138
-2.63535e-07
1.24623e-06
2.61372e-07
9.03627e-07
-2.65766e-07
2.60817e-07
-9.04304e-07
-2.00394e-09
-0.00109226
3.08273e-09
-1.21514e-06
2.61983e-07
-2.63133e-07
-9.03825e-07
2.61503e-07
9.0423e-07
-2.65324e-07
1.24658e-06
0.00109138
-1.6536e-09
-0.00109138
3.60026e-09
-1.24368e-06
2.61756e-07
-2.63182e-07
-9.03863e-07
2.6133e-07
-2.65324e-07
9.04114e-07
-2.3392e-07
-2.41346e-07
0.000266256
-1.21279e-06
0.000268242
-0.000266257
2.36405e-07
2.43836e-07
-3.66625e-10
3.90768e-09
0.00109244
-2.60918e-07
1.21253e-06
2.58839e-07
9.01157e-07
-2.65847e-07
2.60992e-07
-9.01709e-07
-1.81244e-09
-0.00109192
3.29989e-09
-1.20982e-06
2.5918e-07
-2.6049e-07
-9.03668e-07
2.64119e-07
9.04083e-07
-2.68016e-07
1.21292e-06
0.00109244
-1.71712e-09
-0.00109244
3.26267e-09
-1.20992e-06
2.59252e-07
-2.60532e-07
-9.01288e-07
2.61484e-07
-2.65432e-07
9.01632e-07
-0.00026627
2.38749e-07
2.44067e-07
1.25163e-06
1.21254e-06
-2.33226e-07
-2.41047e-07
0.000266276
-1.25467e-06
-1.21561e-06
0.000268263
-0.000266276
2.36284e-07
2.46683e-07
3.49976e-09
0.00109147
-2.68601e-07
1.25469e-06
2.67325e-07
9.04139e-07
-2.62476e-07
-9.03753e-07
2.58703e-07
-1.25441e-06
-1.9322e-09
3.2936e-09
0.00109192
-2.68659e-07
1.25752e-06
2.67398e-07
9.12559e-07
-2.68009e-07
-9.12064e-07
2.64301e-07
0.00109147
-1.94062e-09
-0.00109147
3.40085e-09
-1.25161e-06
2.67299e-07
-2.68595e-07
-9.06316e-07
2.58765e-07
-2.62388e-07
9.06866e-07
1.25748e-06
0.00109192
-1.84018e-09
-0.00109192
3.46826e-09
-1.25443e-06
2.67351e-07
-2.68687e-07
-9.12042e-07
2.64279e-07
-2.67988e-07
9.12535e-07
-2.35949e-07
-2.3829e-07
0.000266294
-1.21825e-06
0.000268287
-0.000266294
2.39053e-07
2.43927e-07
3.20775e-09
0.00109254
-2.63191e-07
1.21564e-06
2.62058e-07
9.0709e-07
-2.68011e-07
-9.06467e-07
2.64327e-07
-1.24902e-06
-1.84396e-09
3.39428e-09
0.00109159
-2.68665e-07
1.25209e-06
2.67381e-07
9.06905e-07
-2.67975e-07
-9.06478e-07
2.64216e-07
0.00109254
-2.12274e-09
-0.00109254
3.23491e-09
-1.21254e-06
2.62007e-07
-2.63217e-07
-9.06412e-07
2.64373e-07
-2.67918e-07
9.07102e-07
1.25206e-06
0.00109159
-1.92745e-09
-0.00109159
3.42376e-09
-1.24902e-06
2.67346e-07
-2.68668e-07
-9.06409e-07
2.64269e-07
-2.6787e-07
9.06927e-07
-1.9175e-09
3.46362e-09
0.00109138
-2.63095e-07
1.24664e-06
2.61818e-07
9.04204e-07
-2.65188e-07
2.61435e-07
-9.03744e-07
-2.1083e-09
-0.00109226
3.30024e-09
-1.21517e-06
2.61948e-07
-2.6321e-07
-9.03668e-07
2.61615e-07
9.04309e-07
-2.65139e-07
1.24662e-06
0.00109138
-1.91894e-09
-0.00109138
3.42381e-09
-1.24359e-06
2.61795e-07
-2.63086e-07
-9.03698e-07
2.61472e-07
-2.65103e-07
9.04208e-07
-2.33421e-07
-2.40844e-07
0.000266257
-1.21282e-06
0.000268242
-0.000266257
2.36474e-07
2.43892e-07
-2.01565e-09
3.18356e-09
0.00109244
-2.60448e-07
1.21296e-06
2.59308e-07
9.01727e-07
-2.65293e-07
2.61595e-07
-9.01164e-07
-2.15197e-09
-0.00109192
3.20987e-09
-1.20973e-06
2.59213e-07
-2.60397e-07
-9.03489e-07
2.64272e-07
9.0419e-07
-2.67785e-07
1.21293e-06
0.00109244
-2.10873e-09
-0.00109244
3.24531e-09
-1.20985e-06
2.59265e-07
-2.60459e-07
-9.01098e-07
2.61649e-07
-2.6519e-07
9.0175e-07
-0.00026627
2.38794e-07
2.44135e-07
1.25163e-06
1.21256e-06
-2.33246e-07
-2.43612e-07
0.000266276
-1.25463e-06
-1.21557e-06
0.000268263
-0.000266276
2.36234e-07
2.46635e-07
3.4362e-09
0.00109147
-2.68616e-07
1.25466e-06
2.67278e-07
9.06849e-07
-2.62408e-07
-9.06335e-07
2.58746e-07
-1.25445e-06
-1.79769e-09
3.51311e-09
0.00109192
-2.68707e-07
1.25746e-06
2.67328e-07
9.12521e-07
-2.67997e-07
-9.1206e-07
2.64269e-07
0.00109147
-1.75277e-09
-0.00109147
3.5197e-09
-1.25167e-06
2.67238e-07
-2.68663e-07
-9.06372e-07
2.58711e-07
-2.62452e-07
9.06818e-07
1.25744e-06
0.00109192
-1.71611e-09
-0.00109192
3.56228e-09
-1.25448e-06
2.67307e-07
-2.68736e-07
-9.12085e-07
2.64248e-07
-2.68018e-07
9.12497e-07
-2.36011e-07
-2.40865e-07
0.000266294
-1.21822e-06
0.000268287
-0.000266294
2.39018e-07
2.43879e-07
3.27287e-09
0.00109254
-2.63237e-07
1.21559e-06
2.61988e-07
9.07085e-07
-2.67934e-07
-9.06429e-07
2.64356e-07
-1.24904e-06
-1.86515e-09
3.47249e-09
0.00109159
-2.68692e-07
1.25204e-06
2.67323e-07
9.0691e-07
-2.67888e-07
-9.06428e-07
2.64251e-07
0.00109254
-1.9625e-09
-0.00109254
3.3344e-09