/*--------------------------------*- C++ -*----------------------------------*\
| =========                 |                                                 |
| \\      /  F ield         | OpenFOAM: The Open Source CFD Toolbox           |
|  \\    /   O peration     | Version:  2206                                  |
|   \\  /    A nd           | Website:  www.openfoam.com                      |
|    \\/     M anipulation  |                                                 |
\*---------------------------------------------------------------------------*/
FoamFile
{
    version     2.0;
    format      ascii;
    arch        "LSB;label=32;scalar=64";
    class       volVectorField;
    location    "35";
    object      U;
}
// * * * * * * * * * * * * * * * * * * * * * * * * * * * * * * * * * * * * * //

dimensions      [0 1 -1 0 0 0 0];

internalField   nonuniform List<vector> 
28687
(
(-8.66944e-07 -8.62533e-07 0.103809)
(-5.90674e-07 8.95906e-07 0.103699)
(8.93614e-07 -5.84683e-07 0.103699)
(-4.72362e-05 -4.72523e-05 0.103548)
(-8.71203e-07 -8.68291e-07 0.103809)
(-5.83489e-07 8.90045e-07 0.103699)
(8.90468e-07 -5.7813e-07 0.103699)
(-4.72341e-05 -4.72496e-05 0.103548)
(-8.75349e-07 -8.67104e-07 0.103809)
(-5.67565e-07 8.90955e-07 0.103699)
(8.88648e-07 -5.72255e-07 0.103699)
(-4.72293e-05 -4.72451e-05 0.103548)
(-8.80878e-07 -8.68738e-07 0.103809)
(-5.62055e-07 8.91324e-07 0.103699)
(8.85811e-07 -5.66512e-07 0.103699)
(-4.72231e-05 -4.72386e-05 0.103548)
(-8.81974e-07 -8.75484e-07 0.103809)
(-5.51241e-07 8.81334e-07 0.103699)
(8.88881e-07 -5.64352e-07 0.103698)
(-4.72196e-05 -4.72355e-05 0.103548)
(-8.86025e-07 -8.73915e-07 0.103809)
(-5.61228e-07 9.00738e-07 0.103698)
(8.90257e-07 -5.63757e-07 0.103698)
(-4.72033e-05 -4.7217e-05 0.103548)
(-9.01669e-07 -8.64901e-07 0.103808)
(-5.53614e-07 9.2167e-07 0.103698)
(8.55332e-07 -5.20306e-07 0.103698)
(-4.71942e-05 -4.71986e-05 0.103548)
(-7.63417e-07 -7.6272e-07 0.103809)
(-7.02836e-07 9.349e-07 0.103699)
(9.74091e-07 -7.17911e-07 0.103698)
(-4.74123e-05 -4.74245e-05 0.103548)
(-8.65276e-07 -8.73527e-07 0.103809)
(-5.63168e-07 8.66284e-07 0.103699)
(8.66892e-07 -5.65413e-07 0.103699)
(-4.72277e-05 -4.72516e-05 0.103548)
(-8.8079e-07 -8.75385e-07 0.103809)
(-5.69075e-07 8.89296e-07 0.103699)
(8.79874e-07 -5.67603e-07 0.103699)
(-4.72348e-05 -4.72502e-05 0.103548)
(-8.70842e-07 -8.64239e-07 0.103809)
(-5.78247e-07 8.94296e-07 0.103699)
(8.90574e-07 -5.80344e-07 0.103699)
(-4.72499e-05 -4.72656e-05 0.103548)
(-8.69614e-07 -8.63136e-07 0.103809)
(-5.78549e-07 8.93789e-07 0.103699)
(8.91541e-07 -5.82132e-07 0.103699)
(-4.72504e-05 -4.72665e-05 0.103548)
(-8.70252e-07 -8.63712e-07 0.103809)
(-5.78064e-07 8.93016e-07 0.103699)
(8.91149e-07 -5.81703e-07 0.103699)
(-4.7251e-05 -4.72671e-05 0.103548)
(-8.70743e-07 -8.63507e-07 0.103809)
(-5.77795e-07 8.93166e-07 0.103699)
(8.91257e-07 -5.81919e-07 0.103699)
(-4.72512e-05 -4.72667e-05 0.103548)
(-8.71322e-07 -8.63794e-07 0.103809)
(-5.77173e-07 8.9307e-07 0.103699)
(8.91161e-07 -5.81699e-07 0.103699)
(-4.7251e-05 -4.72664e-05 0.103548)
(-8.71296e-07 -8.63646e-07 0.103809)
(-5.77652e-07 8.93195e-07 0.103699)
(8.91621e-07 -5.82028e-07 0.103699)
(-4.72507e-05 -4.72661e-05 0.103548)
(-8.70455e-07 -8.63115e-07 0.103809)
(-5.77897e-07 8.93377e-07 0.103699)
(8.92166e-07 -5.82611e-07 0.103699)
(-4.72494e-05 -4.72649e-05 0.103548)
(-8.69017e-07 -8.61372e-07 0.103809)
(-5.77375e-07 8.93481e-07 0.103699)
(8.92147e-07 -5.82575e-07 0.103699)
(-4.7243e-05 -4.72589e-05 0.103548)
(-9.25931e-07 6.24557e-07 0.103699)
(4.96241e-05 -4.95976e-05 0.103556)
(-5.86962e-07 8.96678e-07 0.103699)
(4.72379e-05 4.72188e-05 0.103548)
(-4.96198e-05 -4.95977e-05 0.103556)
(9.23457e-07 6.08293e-07 0.103699)
(-9.25779e-07 6.29856e-07 0.103699)
(9.21784e-07 5.98854e-07 0.103699)
(-9.22368e-07 6.19466e-07 0.103699)
(-4.72478e-05 4.72152e-05 0.103548)
(4.96207e-05 -4.9599e-05 0.103556)
(5.87016e-07 9.01012e-07 0.103699)
(6.11982e-07 -9.23765e-07 0.103699)
(5.80387e-07 8.96563e-07 0.103699)
(6.07133e-07 -9.22297e-07 0.103699)
(-6.14353e-07 -9.18943e-07 0.103699)
(-5.85478e-07 8.91357e-07 0.103699)
(-6.11829e-07 -9.1663e-07 0.103699)
(4.7223e-05 -4.72584e-05 0.103548)
(-4.95928e-05 4.96258e-05 0.103556)
(-8.9097e-07 -5.82784e-07 0.103699)
(8.91152e-07 -5.78386e-07 0.103699)
(-8.89091e-07 -5.80166e-07 0.103699)
(4.95937e-05 4.9614e-05 0.103556)
(4.72353e-05 4.72178e-05 0.103548)
(-4.96188e-05 -4.95959e-05 0.103556)
(9.21778e-07 6.00776e-07 0.103699)
(-9.21726e-07 6.16381e-07 0.103699)
(9.20867e-07 5.99519e-07 0.103699)
(-9.20846e-07 6.08104e-07 0.103699)
(-4.72423e-05 4.72061e-05 0.103548)
(4.96315e-05 -4.95982e-05 0.103556)
(5.80753e-07 8.99327e-07 0.103699)
(6.04382e-07 -9.21208e-07 0.103699)
(5.76901e-07 8.99089e-07 0.103699)
(6.03825e-07 -9.20333e-07 0.103699)
(-6.08035e-07 -9.14952e-07 0.103699)
(-5.72051e-07 8.91772e-07 0.103699)
(-6.05363e-07 -9.15475e-07 0.103699)
(4.72201e-05 -4.72567e-05 0.103548)
(-4.95951e-05 4.96302e-05 0.103556)
(-8.87791e-07 -5.76682e-07 0.103699)
(8.90403e-07 -5.7399e-07 0.103699)
(-8.88343e-07 -5.73424e-07 0.103699)
(4.95977e-05 4.96177e-05 0.103556)
(4.72332e-05 4.72198e-05 0.103548)
(-4.96274e-05 -4.96035e-05 0.103556)
(9.16921e-07 5.98232e-07 0.103699)
(-9.19877e-07 6.05576e-07 0.103699)
(9.14488e-07 5.98224e-07 0.103699)
(-9.28733e-07 6.1364e-07 0.103699)
(-4.72316e-05 4.72077e-05 0.103548)
(4.96315e-05 -4.9588e-05 0.103556)
(5.75694e-07 8.96925e-07 0.103699)
(5.9903e-07 -9.18159e-07 0.103699)
(5.73891e-07 8.96052e-07 0.103699)
(6.0391e-07 -9.18613e-07 0.103698)
(-6.00024e-07 -9.1331e-07 0.103699)
(-5.6933e-07 9.01267e-07 0.103699)
(-6.01642e-07 -9.12335e-07 0.103698)
(4.72165e-05 -4.72515e-05 0.103548)
(-4.95991e-05 4.96374e-05 0.103556)
(-8.86507e-07 -5.67992e-07 0.103699)
(8.88912e-07 -5.70401e-07 0.103699)
(-8.85908e-07 -5.68354e-07 0.103699)
(4.96048e-05 4.96252e-05 0.103556)
(4.72257e-05 4.72134e-05 0.103548)
(-4.96339e-05 -4.96114e-05 0.103556)
(9.1005e-07 5.96157e-07 0.103698)
(-9.19483e-07 6.00714e-07 0.103699)
(9.16575e-07 5.93001e-07 0.103698)
(-9.21473e-07 5.95826e-07 0.103698)
(-4.72295e-05 4.72158e-05 0.103548)
(4.96398e-05 -4.96162e-05 0.103556)
(5.70427e-07 8.93902e-07 0.103699)
(5.96379e-07 -9.14932e-07 0.103698)
(5.70642e-07 8.9707e-07 0.103699)
(5.95854e-07 -9.18229e-07 0.103698)
(-5.9443e-07 -9.09024e-07 0.103698)
(-5.66819e-07 8.93568e-07 0.103699)
(-5.9863e-07 -9.1357e-07 0.103698)
(4.72139e-05 -4.72451e-05 0.103548)
(-4.9613e-05 4.96455e-05 0.103556)
(-8.83121e-07 -5.61683e-07 0.103699)
(8.87482e-07 -5.67458e-07 0.103699)
(-8.86822e-07 -5.64438e-07 0.103699)
(4.96136e-05 4.96335e-05 0.103556)
(4.72242e-05 4.72084e-05 0.103548)
(-4.96599e-05 -4.96356e-05 0.103556)
(9.15861e-07 5.90559e-07 0.103698)
(-9.08988e-07 5.79598e-07 0.103698)
(8.99047e-07 5.70291e-07 0.103698)
(-9.16954e-07 5.88124e-07 0.103698)
(-4.72208e-05 4.71911e-05 0.103548)
(4.96667e-05 -4.964e-05 0.103556)
(5.68473e-07 8.96842e-07 0.103699)
(5.90807e-07 -9.1908e-07 0.103698)
(5.45358e-07 8.80815e-07 0.103698)
(5.73954e-07 -9.00504e-07 0.103698)
(-5.91367e-07 -9.14011e-07 0.103698)
(-5.52688e-07 8.90177e-07 0.103698)
(-5.74569e-07 -8.95543e-07 0.103698)
(4.72058e-05 -4.72429e-05 0.103548)
(-4.96351e-05 4.96722e-05 0.103556)
(-8.8701e-07 -5.59214e-07 0.103698)
(8.71756e-07 -5.4156e-07 0.103698)
(-8.6982e-07 -5.38215e-07 0.103698)
(4.96385e-05 4.96598e-05 0.103556)
(4.72066e-05 4.71921e-05 0.103548)
(-4.96892e-05 -4.96417e-05 0.103556)
(9.13805e-07 5.93764e-07 0.103698)
(-9.24787e-07 5.9445e-07 0.103698)
(8.68276e-07 5.55348e-07 0.103698)
(-8.91466e-07 5.6632e-07 0.103698)
(-4.72097e-05 4.71836e-05 0.103548)
(4.9694e-05 -4.96509e-05 0.103556)
(5.68483e-07 9.00722e-07 0.103698)
(5.93295e-07 -9.17939e-07 0.103698)
(5.10759e-07 8.65102e-07 0.103698)
(5.42246e-07 -8.6936e-07 0.103698)
(-5.93525e-07 -9.12309e-07 0.103698)
(-5.18497e-07 8.72184e-07 0.103698)
(-5.47839e-07 -8.61904e-07 0.103698)
(4.71911e-05 -4.72241e-05 0.103548)
(-4.96593e-05 4.96972e-05 0.103556)
(-8.88229e-07 -5.57843e-07 0.103698)
(8.43192e-07 -5.09048e-07 0.103698)
(-8.46123e-07 -5.04537e-07 0.103698)
(4.96568e-05 4.9687e-05 0.103556)
(4.71899e-05 4.72e-05 0.103548)
(-4.94936e-05 -4.9453e-05 0.103556)
(8.78356e-07 5.77484e-07 0.103698)
(-9.38238e-07 6.13467e-07 0.103698)
(1.01215e-06 7.47525e-07 0.103698)
(-1.01537e-06 7.53263e-07 0.103698)
(-4.72105e-05 4.71995e-05 0.103548)
(4.94903e-05 -4.94523e-05 0.103556)
(5.21798e-07 8.82407e-07 0.103698)
(5.51414e-07 -8.80725e-07 0.103698)
(7.15876e-07 1.00189e-06 0.103698)
(7.44063e-07 -1.01163e-06 0.103698)
(-5.60925e-07 -8.69833e-07 0.103698)
(-7.17689e-07 9.94396e-07 0.103698)
(-7.54691e-07 -1.00359e-06 0.103698)
(4.71761e-05 -4.72085e-05 0.103548)
(-4.94657e-05 4.95011e-05 0.103556)
(-8.58934e-07 -5.13286e-07 0.103698)
(9.85927e-07 -7.11563e-07 0.103698)
(-9.83301e-07 -7.16995e-07 0.103698)
(4.94642e-05 4.94916e-05 0.103556)
(4.74197e-05 4.74063e-05 0.103548)
(-4.96411e-05 -4.96145e-05 0.103556)
(1.00646e-06 7.43782e-07 0.103698)
(-9.61782e-07 7.17953e-07 0.103698)
(9.20494e-07 6.22708e-07 0.103699)
(-8.91442e-07 6.11672e-07 0.103699)
(-4.73894e-05 4.73634e-05 0.103548)
(4.96578e-05 -4.9645e-05 0.103557)
(7.25771e-07 9.82145e-07 0.103698)
(7.48599e-07 -1.00041e-06 0.103698)
(6.02055e-07 8.79096e-07 0.103699)
(6.20182e-07 -9.05883e-07 0.103699)
(-7.53215e-07 -9.96363e-07 0.103698)
(-5.80223e-07 8.59928e-07 0.103699)
(-6.13566e-07 -9.09409e-07 0.103699)
(4.73979e-05 -4.74338e-05 0.103548)
(-4.96146e-05 4.96522e-05 0.103556)
(-9.66542e-07 -7.23585e-07 0.103698)
(8.78532e-07 -5.87531e-07 0.103699)
(-8.69716e-07 -5.91024e-07 0.103699)
(4.96236e-05 4.96343e-05 0.103556)
(4.72421e-05 4.72178e-05 0.103548)
(-4.96596e-05 -4.96255e-05 0.103556)
(9.07331e-07 5.9713e-07 0.103699)
(-8.92428e-07 5.93339e-07 0.103699)
(9.01547e-07 5.87523e-07 0.103699)
(-9.11762e-07 5.9926e-07 0.103699)
(-4.72294e-05 4.71947e-05 0.103549)
(4.96597e-05 -4.96256e-05 0.103557)
(5.77968e-07 8.6897e-07 0.103699)
(5.93926e-07 -8.94439e-07 0.103699)
(5.64064e-07 8.7999e-07 0.103699)
(5.88607e-07 -9.02585e-07 0.103699)
(-5.88844e-07 -8.95778e-07 0.103699)
(-5.62662e-07 8.84293e-07 0.103699)
(-5.90219e-07 -8.98922e-07 0.103699)
(4.72198e-05 -4.72534e-05 0.103548)
(-4.96318e-05 4.96653e-05 0.103556)
(-8.59484e-07 -5.64167e-07 0.103699)
(8.73115e-07 -5.59209e-07 0.103699)
(-8.71283e-07 -5.58529e-07 0.103699)
(4.96326e-05 4.96526e-05 0.103556)
(4.72422e-05 4.72199e-05 0.103548)
(-4.96417e-05 -4.96092e-05 0.103556)
(9.06924e-07 5.90838e-07 0.103699)
(-9.18711e-07 6.04631e-07 0.103699)
(9.18276e-07 6.04585e-07 0.103699)
(-9.25663e-07 6.12921e-07 0.103699)
(-4.72373e-05 4.72188e-05 0.103549)
(4.96419e-05 -4.96147e-05 0.103557)
(5.71732e-07 8.85868e-07 0.103699)
(5.94616e-07 -9.09326e-07 0.103699)
(5.79052e-07 8.94359e-07 0.103699)
(6.05871e-07 -9.18745e-07 0.103699)
(-5.95679e-07 -9.0445e-07 0.103699)
(-5.76599e-07 8.94321e-07 0.103699)
(-6.07226e-07 -9.14683e-07 0.103699)
(4.72205e-05 -4.72567e-05 0.103548)
(-4.96127e-05 4.96474e-05 0.103556)
(-8.7797e-07 -5.63123e-07 0.103699)
(8.88944e-07 -5.76176e-07 0.103699)
(-8.87967e-07 -5.73786e-07 0.103699)
(4.96148e-05 4.96349e-05 0.103556)
(4.72585e-05 4.72345e-05 0.103548)
(-4.96391e-05 -4.96077e-05 0.103556)
(9.19106e-07 6.0322e-07 0.103699)
(-9.26623e-07 6.13161e-07 0.103699)
(9.21286e-07 6.07112e-07 0.103699)
(-9.26658e-07 6.1549e-07 0.103699)
(-4.72517e-05 4.72271e-05 0.103549)
(4.96408e-05 -4.96128e-05 0.103556)
(5.83502e-07 8.95254e-07 0.103699)
(6.07431e-07 -9.2016e-07 0.103699)
(5.81515e-07 8.94941e-07 0.103699)
(6.08701e-07 -9.20519e-07 0.103699)
(-6.07902e-07 -9.15806e-07 0.103699)
(-5.77745e-07 8.94191e-07 0.103699)
(-6.0965e-07 -9.16978e-07 0.103699)
(4.72369e-05 -4.72722e-05 0.103548)
(-4.96103e-05 4.96452e-05 0.103556)
(-8.89038e-07 -5.74428e-07 0.103699)
(8.90659e-07 -5.79384e-07 0.103699)
(-8.89214e-07 -5.7548e-07 0.103699)
(4.96132e-05 4.96324e-05 0.103556)
(4.72596e-05 4.72344e-05 0.103548)
(-4.964e-05 -4.96087e-05 0.103556)
(9.2135e-07 6.04217e-07 0.103699)
(-9.27012e-07 6.15114e-07 0.103699)
(9.21728e-07 6.06454e-07 0.103699)
(-9.26848e-07 6.15097e-07 0.103699)
(-4.72519e-05 4.7228e-05 0.103549)
(4.96403e-05 -4.96134e-05 0.103556)
(5.84798e-07 8.95279e-07 0.103699)
(6.08918e-07 -9.21098e-07 0.103699)
(5.80796e-07 8.93895e-07 0.103699)
(6.08283e-07 -9.20328e-07 0.103699)
(-6.08896e-07 -9.17217e-07 0.103699)
(-5.77373e-07 8.93593e-07 0.103699)
(-6.08639e-07 -9.16973e-07 0.103699)
(4.72376e-05 -4.72727e-05 0.103548)
(-4.96112e-05 4.96461e-05 0.103556)
(-8.89641e-07 -5.76543e-07 0.103699)
(8.90491e-07 -5.79099e-07 0.103699)
(-8.89224e-07 -5.7733e-07 0.103699)
(4.9613e-05 4.96329e-05 0.103556)
(4.72598e-05 4.72347e-05 0.103548)
(-4.96396e-05 -4.96081e-05 0.103556)
(9.21765e-07 6.03808e-07 0.103699)
(-9.26997e-07 6.13981e-07 0.103699)
(9.21908e-07 6.06431e-07 0.103699)
(-9.27223e-07 6.15556e-07 0.103699)
(-4.72526e-05 4.72277e-05 0.103549)
(4.96399e-05 -4.96124e-05 0.103557)
(5.84079e-07 8.94186e-07 0.103699)
(6.08276e-07 -9.20767e-07 0.103699)
(5.80405e-07 8.93393e-07 0.103699)
(6.08033e-07 -9.20268e-07 0.103699)
(-6.07764e-07 -9.16907e-07 0.103699)
(-5.76927e-07 8.93333e-07 0.103699)
(-6.08307e-07 -9.16849e-07 0.103699)
(4.7238e-05 -4.72732e-05 0.103548)
(-4.96107e-05 4.96455e-05 0.103556)
(-8.89361e-07 -5.77209e-07 0.103699)
(8.90353e-07 -5.79086e-07 0.103699)
(-8.89344e-07 -5.78016e-07 0.103699)
(4.96123e-05 4.96321e-05 0.103556)
(4.7259e-05 4.72343e-05 0.103548)
(-4.964e-05 -4.9608e-05 0.103556)
(9.21819e-07 6.04032e-07 0.103699)
(-9.27822e-07 6.1511e-07 0.103699)
(9.21939e-07 6.06429e-07 0.103699)
(-9.27755e-07 6.1601e-07 0.103699)
(-4.72518e-05 4.72278e-05 0.103549)
(4.96401e-05 -4.96117e-05 0.103557)
(5.83696e-07 8.93928e-07 0.103699)
(6.08301e-07 -9.20865e-07 0.103699)
(5.79681e-07 8.93065e-07 0.103699)
(6.07668e-07 -9.20175e-07 0.103699)
(-6.07601e-07 -9.16814e-07 0.103699)
(-5.76646e-07 8.93801e-07 0.103699)
(-6.07902e-07 -9.16712e-07 0.103699)
(4.72374e-05 -4.72726e-05 0.103548)
(-4.96107e-05 4.96456e-05 0.103556)
(-8.89665e-07 -5.78071e-07 0.103699)
(8.90415e-07 -5.78912e-07 0.103699)
(-8.89517e-07 -5.78298e-07 0.103699)
(4.96122e-05 4.96323e-05 0.103556)
(4.72583e-05 4.72339e-05 0.103548)
(-4.964e-05 -4.96084e-05 0.103556)
(9.21714e-07 6.03801e-07 0.103699)
(-9.28024e-07 6.15119e-07 0.103699)
(9.21548e-07 6.06123e-07 0.103699)
(-9.27451e-07 6.15905e-07 0.103699)
(-4.72519e-05 4.72286e-05 0.103549)
(4.964e-05 -4.96118e-05 0.103557)
(5.8306e-07 8.93471e-07 0.103699)
(6.07887e-07 -9.20772e-07 0.103699)
(5.79643e-07 8.92204e-07 0.103699)
(6.07727e-07 -9.20377e-07 0.103699)
(-6.07098e-07 -9.16641e-07 0.103699)
(-5.76719e-07 8.93447e-07 0.103699)
(-6.07812e-07 -9.16641e-07 0.103699)
(4.72369e-05 -4.72722e-05 0.103548)
(-4.96101e-05 4.9645e-05 0.103556)
(-8.89736e-07 -5.78153e-07 0.103699)
(8.90532e-07 -5.7909e-07 0.103699)
(-8.89463e-07 -5.78519e-07 0.103699)
(4.96116e-05 4.96318e-05 0.103556)
(4.72576e-05 4.72327e-05 0.103548)
(-4.96377e-05 -4.96063e-05 0.103556)
(9.21771e-07 6.03911e-07 0.103699)
(-9.28388e-07 6.15427e-07 0.103699)
(9.22333e-07 6.06449e-07 0.103699)
(-9.27315e-07 6.16099e-07 0.103699)
(-4.72519e-05 4.72283e-05 0.103549)
(4.96384e-05 -4.96103e-05 0.103557)
(5.83282e-07 8.92992e-07 0.103699)
(6.08157e-07 -9.21194e-07 0.103699)
(5.80224e-07 8.92422e-07 0.103699)
(6.08201e-07 -9.20702e-07 0.103699)
(-6.0717e-07 -9.16843e-07 0.103699)
(-5.77214e-07 8.93676e-07 0.103699)
(-6.08282e-07 -9.17146e-07 0.103699)
(4.72368e-05 -4.7272e-05 0.103548)
(-4.96081e-05 4.96429e-05 0.103556)
(-8.89883e-07 -5.78617e-07 0.103699)
(8.91034e-07 -5.79602e-07 0.103699)
(-8.89714e-07 -5.79319e-07 0.103699)
(4.96096e-05 4.96297e-05 0.103556)
(4.72566e-05 4.72316e-05 0.103548)
(-4.96327e-05 -4.96002e-05 0.103556)
(9.22737e-07 6.04287e-07 0.103699)
(-9.28603e-07 6.15585e-07 0.103699)
(9.23193e-07 6.07425e-07 0.103699)
(-9.26118e-07 6.16377e-07 0.103699)
(-4.7251e-05 4.72272e-05 0.103549)
(4.96362e-05 -4.96073e-05 0.103557)
(5.84094e-07 8.93411e-07 0.103699)
(6.08871e-07 -9.21474e-07 0.103699)
(5.80232e-07 8.93053e-07 0.103699)
(6.08406e-07 -9.20157e-07 0.103699)
(-6.07502e-07 -9.17177e-07 0.103699)
(-5.76887e-07 8.93661e-07 0.103699)
(-6.08003e-07 -9.16955e-07 0.103699)
(4.72355e-05 -4.72707e-05 0.103548)
(-4.96033e-05 4.96386e-05 0.103556)
(-8.9009e-07 -5.79346e-07 0.103699)
(8.90924e-07 -5.7953e-07 0.103699)
(-8.89179e-07 -5.79307e-07 0.103699)
(4.96052e-05 4.96249e-05 0.103556)
(4.72508e-05 4.72271e-05 0.103548)
(9.23742e-07 6.05498e-07 0.103699)
(-9.28248e-07 6.16043e-07 0.103699)
(-4.72473e-05 4.7224e-05 0.103549)
(5.83945e-07 8.9413e-07 0.103699)
(6.09124e-07 -9.21076e-07 0.103699)
(-6.06831e-07 -9.17261e-07 0.103699)
(4.72295e-05 -4.72644e-05 0.103548)
(-8.89793e-07 -5.7966e-07 0.103699)
(8.94303e-08 -1.02057e-05 0.100073)
(6.29381e-07 7.2696e-06 0.0911405)
(-1.17511e-07 9.84041e-06 0.10005)
(-1.20138e-06 -6.95516e-06 0.0911693)
(-2.13918e-06 3.22175e-06 0.078448)
(2.13884e-06 -3.11089e-06 0.0784766)
(-1.02829e-05 7.81379e-08 0.100072)
(7.21292e-06 5.89496e-07 0.0911393)
(9.92262e-06 -9.85456e-08 0.100051)
(-6.89612e-06 -1.16531e-06 0.0911703)
(8.73582e-07 -8.4999e-07 0.103809)
(-8.58881e-07 8.67124e-07 0.103809)
(8.60887e-07 8.58272e-07 0.103809)
(-8.69552e-07 -8.66264e-07 0.103809)
(8.76811e-07 -8.56112e-07 0.103809)
(-8.61356e-07 8.70143e-07 0.103809)
(8.63992e-07 8.61141e-07 0.103809)
(1.69026e-05 1.38001e-07 0.102897)
(-1.63312e-05 4.57097e-06 0.100575)
(-7.58908e-07 -2.1747e-07 0.103773)
(-5.8894e-07 8.94267e-07 0.103699)
(-1.70939e-05 -1.58706e-07 0.102885)
(1.55388e-05 -5.11186e-06 0.10061)
(-7.584e-07 -2.18549e-07 0.103773)
(3.12804e-06 -2.08487e-06 0.0784448)
(-2.98202e-06 2.07605e-06 0.0784777)
(1.49224e-07 1.69149e-05 0.102897)
(-2.21019e-07 -7.45663e-07 0.103773)
(4.6183e-06 -1.64004e-05 0.100575)
(8.93725e-07 -5.82746e-07 0.103699)
(-1.60776e-07 -1.71112e-05 0.102885)
(-2.21437e-07 -7.41917e-07 0.103773)
(-5.15453e-06 1.55968e-05 0.100609)
(-4.81965e-06 -5.87082e-06 0.0968304)
(-5.85719e-06 -4.81416e-06 0.0968294)
(4.95916e-05 4.96118e-05 0.103556)
(4.39647e-06 5.69907e-06 0.0968625)
(5.6954e-06 4.38883e-06 0.0968611)
(8.95744e-08 -1.02221e-05 0.100073)
(6.32195e-07 7.23921e-06 0.0911405)
(-1.15018e-07 9.82514e-06 0.10005)
(-1.19251e-06 -6.98878e-06 0.0911694)
(-2.1178e-06 3.17641e-06 0.078448)
(2.13872e-06 -3.12571e-06 0.0784768)
(-1.0295e-05 7.92781e-08 0.100072)
(7.18932e-06 5.8891e-07 0.0911394)
(9.91169e-06 -9.57311e-08 0.100051)
(-6.92751e-06 -1.15419e-06 0.0911705)
(8.77571e-07 -8.58026e-07 0.103809)
(-8.63026e-07 8.71775e-07 0.103809)
(8.6575e-07 8.63404e-07 0.103809)
(-8.74149e-07 -8.66301e-07 0.103809)
(8.73491e-07 -8.65571e-07 0.103809)
(-8.63202e-07 8.72454e-07 0.103809)
(8.65249e-07 8.66697e-07 0.103809)
(1.69215e-05 1.40433e-07 0.102897)
(-1.63266e-05 4.56557e-06 0.100575)
(-7.51156e-07 -2.20391e-07 0.103773)
(-5.78857e-07 8.9029e-07 0.103699)
(-1.7075e-05 -1.58291e-07 0.102885)
(1.55511e-05 -5.12632e-06 0.10061)
(-7.43588e-07 -2.20383e-07 0.103773)
(3.07262e-06 -2.06247e-06 0.0784448)
(-3.01283e-06 2.0841e-06 0.0784778)
(1.49585e-07 1.69351e-05 0.102897)
(-2.22534e-07 -7.40433e-07 0.103773)
(4.61267e-06 -1.63852e-05 0.100575)
(8.89221e-07 -5.73866e-07 0.103699)
(-1.60571e-07 -1.70907e-05 0.102885)
(-2.23269e-07 -7.32329e-07 0.103773)
(-5.17311e-06 1.56167e-05 0.100609)
(-4.82746e-06 -5.86826e-06 0.0968305)
(-5.85504e-06 -4.82299e-06 0.0968295)
(4.95957e-05 4.96158e-05 0.103556)
(4.3851e-06 5.70771e-06 0.0968626)
(5.70378e-06 4.37714e-06 0.0968611)
(8.63777e-08 -1.02378e-05 0.100073)
(6.40303e-07 7.2324e-06 0.0911407)
(-1.15636e-07 9.80981e-06 0.10005)
(-1.17085e-06 -6.99475e-06 0.0911696)
(-2.12361e-06 3.16079e-06 0.0784481)
(2.10724e-06 -3.09872e-06 0.0784771)
(-1.03136e-05 8.57541e-08 0.100072)
(7.176e-06 6.05185e-07 0.0911395)
(9.8938e-06 -9.60038e-08 0.100051)
(-6.94002e-06 -1.14136e-06 0.0911706)
(8.73208e-07 -8.65282e-07 0.103809)
(-8.64727e-07 8.73299e-07 0.103809)
(8.65788e-07 8.68415e-07 0.103809)
(-8.77099e-07 -8.65966e-07 0.103809)
(8.7448e-07 -8.64738e-07 0.103809)
(-8.65302e-07 8.74983e-07 0.103809)
(8.66865e-07 8.70205e-07 0.103809)
(1.69448e-05 1.41233e-07 0.102897)
(-1.63028e-05 4.54654e-06 0.100575)
(-7.30196e-07 -2.19803e-07 0.103773)
(-5.66338e-07 8.94898e-07 0.103699)
(-1.70563e-05 -1.58144e-07 0.102885)
(1.55819e-05 -5.13998e-06 0.10061)
(-7.25479e-07 -2.18664e-07 0.103773)
(3.06073e-06 -2.06159e-06 0.0784449)
(-3.0214e-06 2.08169e-06 0.0784779)
(1.50507e-07 1.69552e-05 0.102896)
(-2.23496e-07 -7.30092e-07 0.103773)
(4.59845e-06 -1.63707e-05 0.100575)
(8.85487e-07 -5.66281e-07 0.103699)
(-1.60242e-07 -1.70743e-05 0.102885)
(-2.23905e-07 -7.1988e-07 0.103773)
(-5.18792e-06 1.56313e-05 0.100609)
(-4.82352e-06 -5.86157e-06 0.0968305)
(-5.84933e-06 -4.81889e-06 0.0968296)
(4.96022e-05 4.96222e-05 0.103556)
(4.39011e-06 5.71229e-06 0.0968626)
(5.70691e-06 4.38256e-06 0.0968612)
(9.96505e-08 -1.02486e-05 0.100073)
(6.12596e-07 7.21445e-06 0.091141)
(-1.16334e-07 9.79655e-06 0.10005)
(-1.20585e-06 -6.9939e-06 0.09117)
(-2.17355e-06 3.21337e-06 0.0784485)
(2.13085e-06 -3.12743e-06 0.0784776)
(-1.03265e-05 8.40172e-08 0.100072)
(7.15751e-06 5.88047e-07 0.0911398)
(9.8795e-06 -9.49761e-08 0.100051)
(-6.95151e-06 -1.16449e-06 0.0911709)
(8.75655e-07 -8.66723e-07 0.103809)
(-8.69637e-07 8.78618e-07 0.103809)
(8.70238e-07 8.74155e-07 0.103809)
(-8.7892e-07 -8.69359e-07 0.103809)
(8.78835e-07 -8.75446e-07 0.103809)
(-8.7079e-07 8.77719e-07 0.103809)
(8.6871e-07 8.71899e-07 0.103809)
(1.69558e-05 1.42438e-07 0.102897)
(-1.62829e-05 4.53877e-06 0.100575)
(-7.21968e-07 -2.17525e-07 0.103773)
(-5.57577e-07 8.85325e-07 0.103699)
(-1.70375e-05 -1.55631e-07 0.102885)
(1.55879e-05 -5.16405e-06 0.10061)
(-7.1468e-07 -2.18743e-07 0.103773)
(3.05682e-06 -2.05211e-06 0.0784452)
(-3.02384e-06 2.0926e-06 0.0784783)
(1.49816e-07 1.69668e-05 0.102896)
(-2.25171e-07 -7.21417e-07 0.103773)
(4.57579e-06 -1.63544e-05 0.100575)
(8.7731e-07 -5.55924e-07 0.103699)
(-1.61798e-07 -1.70575e-05 0.102885)
(-2.26214e-07 -7.06522e-07 0.103773)
(-5.21069e-06 1.56487e-05 0.100609)
(-4.81479e-06 -5.85751e-06 0.0968306)
(-5.84645e-06 -4.8085e-06 0.0968296)
(4.96102e-05 4.96305e-05 0.103556)
(4.40266e-06 5.71713e-06 0.0968627)
(5.71152e-06 4.39655e-06 0.0968613)
(9.17506e-08 -1.02795e-05 0.100073)
(6.19502e-07 7.18473e-06 0.0911413)
(-1.0848e-07 9.77967e-06 0.10005)
(-1.17528e-06 -7.02304e-06 0.0911704)
(-2.11704e-06 3.13299e-06 0.0784488)
(2.14731e-06 -3.12532e-06 0.0784786)
(-1.03585e-05 8.20394e-08 0.100072)
(7.13856e-06 5.83718e-07 0.0911402)
(9.85741e-06 -8.99555e-08 0.100051)
(-6.98069e-06 -1.14967e-06 0.0911712)
(8.86928e-07 -8.83323e-07 0.103809)
(-8.74841e-07 8.81729e-07 0.103809)
(8.73808e-07 8.75137e-07 0.103809)
(-8.9187e-07 -8.77969e-07 0.103809)
(8.82598e-07 -8.74535e-07 0.103809)
(-8.80054e-07 8.89331e-07 0.103809)
(8.78332e-07 8.85466e-07 0.103809)
(1.69999e-05 1.36082e-07 0.102896)
(-1.62781e-05 4.52425e-06 0.100575)
(-7.09633e-07 -2.27435e-07 0.103773)
(-5.35711e-07 8.73083e-07 0.103699)
(-1.7022e-05 -1.56982e-07 0.102885)
(1.56291e-05 -5.16344e-06 0.10061)
(-6.92342e-07 -2.28384e-07 0.103773)
(3.04087e-06 -2.03842e-06 0.0784458)
(-3.03989e-06 2.07501e-06 0.078479)
(1.49529e-07 1.70106e-05 0.102896)
(-2.26911e-07 -7.14017e-07 0.103773)
(4.57211e-06 -1.63345e-05 0.100575)
(8.75683e-07 -5.41867e-07 0.103698)
(-1.60409e-07 -1.70388e-05 0.102885)
(-2.28161e-07 -6.89122e-07 0.103773)
(-5.20614e-06 1.56723e-05 0.100609)
(-4.80397e-06 -5.85825e-06 0.0968307)
(-5.84781e-06 -4.79874e-06 0.0968298)
(4.96225e-05 4.96421e-05 0.103556)
(4.40976e-06 5.71117e-06 0.0968628)
(5.7042e-06 4.40284e-06 0.0968614)
(8.42271e-08 -1.03196e-05 0.100073)
(6.17734e-07 7.17806e-06 0.0911416)
(-1.08909e-07 9.76733e-06 0.10005)
(-1.20191e-06 -7.00872e-06 0.0911709)
(-2.12005e-06 3.09771e-06 0.0784491)
(2.19115e-06 -3.11731e-06 0.0784797)
(-1.03988e-05 8.85042e-08 0.100072)
(7.14574e-06 5.89206e-07 0.0911406)
(9.8479e-06 -9.42525e-08 0.100051)
(-6.98593e-06 -1.16525e-06 0.0911716)
(8.83713e-07 -8.75807e-07 0.103809)
(-8.76043e-07 8.85447e-07 0.103809)
(8.74786e-07 8.80372e-07 0.103809)
(-9.0409e-07 -8.74656e-07 0.103809)
(8.88637e-07 -8.71339e-07 0.103808)
(-8.90465e-07 9.02211e-07 0.103809)
(8.83608e-07 9.00072e-07 0.103809)
(1.70242e-05 1.40889e-07 0.102896)
(-1.62712e-05 4.50132e-06 0.100575)
(-7.09061e-07 -2.23031e-07 0.103773)
(-5.49902e-07 8.92944e-07 0.103698)
(-1.70125e-05 -1.57961e-07 0.102885)
(1.56575e-05 -5.16788e-06 0.10061)
(-7.13843e-07 -2.20325e-07 0.103773)
(3.04783e-06 -2.05879e-06 0.0784466)
(-3.0333e-06 2.08745e-06 0.0784798)
(1.44426e-07 1.70316e-05 0.102896)
(-2.29804e-07 -7.07466e-07 0.103773)
(4.56092e-06 -1.63305e-05 0.100575)
(8.9465e-07 -5.63887e-07 0.103698)
(-1.61793e-07 -1.70288e-05 0.102885)
(-2.28302e-07 -7.15168e-07 0.103773)
(-5.225e-06 1.5689e-05 0.100609)
(-4.80481e-06 -5.84986e-06 0.0968308)
(-5.84173e-06 -4.79614e-06 0.0968298)
(4.96228e-05 4.96477e-05 0.103556)
(4.4301e-06 5.73959e-06 0.0968629)
(5.72702e-06 4.42778e-06 0.0968615)
(9.28228e-08 -1.02691e-05 0.100073)
(6.18403e-07 7.22377e-06 0.091142)
(-1.51031e-07 9.81248e-06 0.10005)
(-1.05018e-06 -6.89528e-06 0.0911716)
(-2.34006e-06 3.24821e-06 0.0784509)
(1.94195e-06 -3.04898e-06 0.0784788)
(-1.037e-05 1.17193e-07 0.100072)
(7.16218e-06 5.8195e-07 0.0911413)
(9.86833e-06 -1.04383e-07 0.100051)
(-6.92981e-06 -1.12794e-06 0.091172)
(8.65586e-07 -8.4408e-07 0.103808)
(-8.85557e-07 8.97806e-07 0.103808)
(8.775e-07 8.98541e-07 0.103808)
(-7.81857e-07 -7.66724e-07 0.103809)
(7.73827e-07 -7.61561e-07 0.103809)
(-7.76773e-07 7.89417e-07 0.103809)
(7.85259e-07 7.79169e-07 0.103809)
(1.69647e-05 1.80822e-07 0.102896)
(-1.62925e-05 4.56831e-06 0.100575)
(-6.91256e-07 -1.99296e-07 0.103773)
(-6.22731e-07 9.8708e-07 0.103698)
(-1.70342e-05 -1.32176e-07 0.102885)
(1.55411e-05 -5.02339e-06 0.10061)
(-7.5276e-07 -1.74914e-07 0.103773)
(3.0551e-06 -2.0611e-06 0.0784477)
(-2.96672e-06 1.94262e-06 0.0784806)
(1.5798e-07 1.69968e-05 0.102896)
(-2.33331e-07 -6.60286e-07 0.103773)
(4.5579e-06 -1.633e-05 0.100575)
(9.06872e-07 -5.78062e-07 0.103698)
(-1.62693e-07 -1.70395e-05 0.102885)
(-2.21706e-07 -7.14175e-07 0.103773)
(-5.17432e-06 1.562e-05 0.100609)
(-4.7827e-06 -5.84213e-06 0.096831)
(-5.84462e-06 -4.7668e-06 0.09683)
(4.96106e-05 4.96447e-05 0.103556)
(4.39254e-06 5.67281e-06 0.0968632)
(5.6591e-06 4.3933e-06 0.0968618)
(1.07692e-07 -9.93046e-06 0.100073)
(7.00891e-07 7.44232e-06 0.091142)
(-1.2741e-07 1.00809e-05 0.10005)
(-1.10413e-06 -6.67443e-06 0.0911711)
(-2.02169e-06 3.27792e-06 0.0784491)
(2.34475e-06 -3.11766e-06 0.0784768)
(-9.9999e-06 4.03934e-08 0.100072)
(7.45484e-06 6.5574e-07 0.0911415)
(1.01606e-05 -1.10996e-07 0.100051)
(-6.68342e-06 -1.13747e-06 0.091171)
(7.8816e-07 -7.84304e-07 0.103809)
(-7.62593e-07 7.75249e-07 0.103809)
(7.77698e-07 7.60837e-07 0.103809)
(-8.41591e-07 -8.51126e-07 0.103809)
(8.80802e-07 -8.7721e-07 0.103809)
(-8.45284e-07 8.56423e-07 0.103809)
(8.56376e-07 8.43876e-07 0.103809)
(1.65993e-05 1.24014e-07 0.102896)
(-1.6557e-05 4.65174e-06 0.100575)
(-9.07275e-07 -1.97209e-07 0.103773)
(-6.59875e-07 8.81814e-07 0.103699)
(-1.74168e-05 -1.2868e-07 0.102885)
(1.53142e-05 -5.06169e-06 0.10061)
(-8.62109e-07 -2.24014e-07 0.103773)
(3.16021e-06 -2.03711e-06 0.0784465)
(-2.93876e-06 2.1379e-06 0.0784787)
(1.60611e-07 1.66089e-05 0.102896)
(-1.88978e-07 -9.15498e-07 0.103773)
(4.70195e-06 -1.66003e-05 0.100575)
(9.39549e-07 -6.79882e-07 0.103699)
(-1.46858e-07 -1.74316e-05 0.102885)
(-1.94939e-07 -8.74199e-07 0.103773)
(-5.04298e-06 1.53737e-05 0.100609)
(-4.99227e-06 -5.92079e-06 0.0968309)
(-5.90171e-06 -4.99151e-06 0.09683)
(4.95116e-05 4.95257e-05 0.103556)
(4.23112e-06 5.68244e-06 0.0968626)
(5.68766e-06 4.2159e-06 0.0968612)
(1.05547e-07 -1.01855e-05 0.100073)
(6.92381e-07 7.34691e-06 0.0911402)
(-8.30647e-08 9.94292e-06 0.10005)
(-1.13774e-06 -6.8427e-06 0.0911703)
(-2.06031e-06 3.05072e-06 0.0784483)
(2.13702e-06 -3.19587e-06 0.0784765)
(-1.02575e-05 7.71321e-08 0.100072)
(7.36379e-06 6.14155e-07 0.0911404)
(1.00222e-05 -1.09717e-07 0.10005)
(-6.91471e-06 -1.16194e-06 0.0911697)
(8.88083e-07 -8.83183e-07 0.103809)
(-8.68668e-07 8.78104e-07 0.103809)
(8.7609e-07 8.67064e-07 0.103809)
(-8.84532e-07 -8.7856e-07 0.103809)
(8.81266e-07 -8.73065e-07 0.103809)
(-8.77387e-07 8.85251e-07 0.103809)
(8.77862e-07 8.77375e-07 0.103809)
(1.69208e-05 1.32509e-07 0.102897)
(-1.64064e-05 4.60778e-06 0.100575)
(-7.34618e-07 -2.33689e-07 0.103773)
(-5.5645e-07 8.72377e-07 0.103699)
(-1.71482e-05 -1.82316e-07 0.102885)
(1.5538e-05 -5.10239e-06 0.10061)
(-7.23719e-07 -2.28089e-07 0.103773)
(3.09888e-06 -2.03837e-06 0.0784451)
(-2.99018e-06 2.08652e-06 0.0784779)
(1.46795e-07 1.69267e-05 0.102897)
(-2.24047e-07 -7.38436e-07 0.103773)
(4.68955e-06 -1.64879e-05 0.100575)
(8.63884e-07 -5.53615e-07 0.103699)
(-1.60597e-07 -1.71731e-05 0.102885)
(-2.28234e-07 -7.18184e-07 0.103773)
(-5.14414e-06 1.55825e-05 0.100609)
(-4.87859e-06 -5.87502e-06 0.0968302)
(-5.85656e-06 -4.87842e-06 0.0968293)
(4.96483e-05 4.96643e-05 0.103556)
(4.37283e-06 5.70053e-06 0.0968623)
(5.69854e-06 4.36481e-06 0.0968609)
(8.70194e-08 -1.02106e-05 0.100073)
(6.26609e-07 7.20226e-06 0.0911398)
(-1.20013e-07 9.83925e-06 0.10005)
(-1.16633e-06 -6.89311e-06 0.0911702)
(-2.14231e-06 3.19024e-06 0.0784482)
(2.14499e-06 -3.13409e-06 0.0784767)
(-1.02858e-05 7.78803e-08 0.100072)
(7.26732e-06 6.20207e-07 0.0911401)
(9.91663e-06 -9.60353e-08 0.100051)
(-6.94519e-06 -1.16547e-06 0.0911698)
(8.7635e-07 -8.71307e-07 0.103809)
(-8.72955e-07 8.80371e-07 0.103809)
(8.72528e-07 8.74513e-07 0.103809)
(-8.72902e-07 -8.64349e-07 0.103809)
(8.67932e-07 -8.65973e-07 0.103809)
(-8.63512e-07 8.70472e-07 0.103809)
(8.62557e-07 8.66114e-07 0.103809)
(1.69186e-05 1.44057e-07 0.102897)
(-1.6327e-05 4.56737e-06 0.100575)
(-7.30863e-07 -2.20147e-07 0.103773)
(-5.72595e-07 8.92795e-07 0.103699)
(-1.70753e-05 -1.54533e-07 0.102885)
(1.555e-05 -5.12106e-06 0.10061)
(-7.32348e-07 -2.18922e-07 0.103773)
(3.07989e-06 -2.0585e-06 0.0784449)
(-3.00002e-06 2.08194e-06 0.0784778)