/*--------------------------------*- C++ -*----------------------------------*\
| =========                 |                                                 |
| \\      /  F ield         | OpenFOAM: The Open Source CFD Toolbox           |
|  \\    /   O peration     | Version:  2206                                  |
|   \\  /    A nd           | Website:  www.openfoam.com                      |
|    \\/     M anipulation  |                                                 |
\*---------------------------------------------------------------------------*/
FoamFile
{
    version     2.0;
    format      ascii;
    arch        "LSB;label=32;scalar=64";
    class       volScalarField;
    location    "2";
    object      p;
}
// * * * * * * * * * * * * * * * * * * * * * * * * * * * * * * * * * * * * * //

dimensions      [0 2 -2 0 0 0 0];

internalField   nonuniform List<scalar> 
171728
(
0.00386591
0.00386604
0.00386605
0.00386896
0.00381776
0.00381765
0.00381765
0.00382003
0.00377658
0.00377656
0.00377656
0.00377894
0.00373554
0.00373551
0.00373551
0.0037379
0.00369449
0.00369447
0.00369447
0.00369686
0.00365345
0.00365343
0.00365343
0.00365581
0.0036124
0.00361238
0.00361238
0.00361477
0.00357136
0.00357134
0.00357134
0.00357373
0.00353032
0.0035303
0.0035303
0.00353268
0.00348927
0.00348925
0.00348925
0.00349164
0.00344823
0.00344821
0.00344821
0.00345059
0.00340719
0.00340716
0.00340716
0.00340955
0.00336614
0.00336612
0.00336612
0.00336851
0.0033251
0.00332508
0.00332508
0.00332746
0.00328406
0.00328404
0.00328403
0.00328642
0.00324301
0.00324299
0.00324299
0.00324538
0.00320197
0.00320195
0.00320195
0.00320433
0.00316092
0.0031609
0.0031609
0.00316329
0.00311988
0.00311986
0.00311986
0.00312225
0.00307884
0.00307881
0.00307882
0.0030812
0.00303779
0.00303777
0.00303777
0.00304016
0.00299675
0.00299673
0.00299673
0.00299911
0.00295571
0.00295568
0.00295568
0.00295807
0.00291466
0.00291464
0.00291464
0.00291703
0.00287362
0.0028736
0.0028736
0.00287598
0.00283257
0.00283255
0.00283255
0.00283494
0.00279153
0.00279151
0.00279151
0.0027939
0.00275049
0.00275047
0.00275047
0.00275285
0.00270944
0.00270942
0.00270942
0.00271181
0.0026684
0.00266838
0.00266838
0.00267077
0.00262736
0.00262734
0.00262734
0.00262972
0.00258631
0.00258629
0.00258629
0.00258868
0.00254527
0.00254525
0.00254525
0.00254764
0.00250423
0.00250421
0.00250421
0.00250659
0.00246318
0.00246316
0.00246316
0.00246555
0.00242214
0.00242212
0.00242212
0.0024245
0.0023811
0.00238108
0.00238108
0.00238346
0.00234005
0.00234003
0.00234003
0.00234242
0.00229901
0.00229899
0.00229899
0.00230137
0.00225797
0.00225794
0.00225794
0.00226033
0.00221692
0.0022169
0.0022169
0.00221929
0.00217588
0.00217586
0.00217586
0.00217824
0.00213483
0.00213481
0.00213481
0.0021372
0.00209379
0.00209377
0.00209377
0.00209616
0.00205275
0.00205273
0.00205273
0.00205511
0.0020117
0.00201168
0.00201168
0.00201407
0.00197066
0.00197064
0.00197064
0.00197303
0.00192962
0.0019296
0.0019296
0.00193198
0.00188857
0.00188855
0.00188855
0.00189094
0.00184753
0.00184751
0.00184751
0.0018499
0.00180649
0.00180647
0.00180647
0.00180885
0.00176544
0.00176542
0.00176542
0.00176781
0.0017244
0.00172438
0.00172438
0.00172676
0.00168336
0.00168333
0.00168334
0.00168572
0.00164231
0.00164229
0.00164229
0.00164468
0.00160127
0.00160125
0.00160125
0.00160363
0.00156023
0.0015602
0.0015602
0.00156259
0.00151918
0.00151916
0.00151916
0.00152155
0.00147814
0.00147812
0.00147812
0.0014805
0.0014371
0.00143707
0.00143707
0.00143946
0.00139605
0.00139603
0.00139603
0.00139842
0.00135501
0.00135499
0.00135499
0.00135737
0.00131397
0.00131394
0.00131394
0.00131633
0.00127292
0.0012729
0.0012729
0.00127529
0.00123188
0.00123186
0.00123186
0.00123424
0.00119083
0.00119081
0.00119081
0.0011932
0.00114979
0.00114977
0.00114977
0.00115216
0.00110875
0.00110873
0.00110873
0.00111111
0.0010677
0.00106768
0.00106768
0.00107007
0.00102666
0.00102664
0.00102664
0.00102903
0.000985618
0.000985597
0.000985597
0.000987983
0.000944575
0.000944554
0.000944554
0.00094694
0.000903532
0.000903511
0.000903511
0.000905897
0.000862488
0.000862467
0.000862467
0.000864853
0.000821444
0.000821423
0.000821423
0.000823809
0.000780401
0.000780379
0.000780379
0.000782765
0.000739358
0.000739336
0.000739336
0.000741722
0.000698314
0.000698293
0.000698293
0.000700679
0.00065727
0.000657249
0.000657249
0.000659635
0.000616227
0.000616205
0.000616205
0.000618591
0.000575184
0.000575162
0.000575162
0.000577548
0.00053414
0.000534119
0.000534119
0.000536505
0.000493096
0.000493075
0.000493075
0.000495461
0.000452053
0.000452031
0.000452032
0.000454417
0.00041101
0.000410988
0.000410988
0.000413374
0.000369966
0.000369945
0.000369945
0.000372331
0.000328923
0.000328901
0.000328901
0.000331287
0.000287879
0.000287858
0.000287858
0.000290243
0.000246835
0.000246814
0.000246814
0.0002492
0.000205792
0.000205771
0.000205771
0.000208157
0.000164748
0.000164727
0.000164727
0.000167114
0.000123704
0.000123684
0.000123684
0.000126069
8.26736e-05
8.26448e-05
8.26435e-05
8.50252e-05
4.22236e-05
4.17156e-05
4.17131e-05
4.40046e-05
1.01002e-05
1.01941e-05
1.01914e-05
9.74325e-06
0.00387827
0.00387852
0.00387852
0.00387827
0.00387852
0.00387852
0.00387962
0.00387962
0.00387962
0.00387962
0.00387852
0.00387852
0.00387827
0.00387852
0.00387852
0.00387827
0.00386895
0.00382553
0.00386604
0.00386604
0.00382799
0.00382799
0.00386895
0.00382553
0.00386604
0.00386604
0.00382799
0.00382799
0.00386604
0.00382799
0.00382799
0.00386896
0.00382553
0.00386605
0.00382799
0.00382799
0.00382553
0.00382003
0.00378445
0.00381765
0.00381765
0.00378682
0.00378682
0.00382003
0.00378445
0.00381765
0.00381765
0.00378682
0.00378682
0.00381765
0.00378682
0.00378682
0.00382003
0.00378445
0.00381765
0.00378682
0.00378682
0.00378445
0.00377894
0.0037434
0.00377656
0.00377656
0.00374578
0.00374578
0.00377894
0.0037434
0.00377656
0.00377656
0.00374578
0.00374578
0.00377656
0.00374578
0.00374578
0.00377894
0.0037434
0.00377656
0.00374578
0.00374578
0.0037434
0.0037379
0.00370236
0.00373551
0.00373551
0.00370473
0.00370473
0.0037379
0.00370236
0.00373551
0.00373551
0.00370473
0.00370473
0.00373551
0.00370473
0.00370473
0.0037379
0.00370236
0.00373551
0.00370473
0.00370473
0.00370236
0.00369686
0.00366132
0.00369447
0.00369447
0.00366369
0.00366369
0.00369686
0.00366132
0.00369447
0.00369447
0.00366369
0.00366369
0.00369447
0.00366369
0.00366369
0.00369686
0.00366132
0.00369447
0.00366369
0.00366369
0.00366132
0.00365581
0.00362027
0.00365343
0.00365343
0.00362264
0.00362264
0.00365581
0.00362027
0.00365343
0.00365343
0.00362264
0.00362264
0.00365343
0.00362264
0.00362264
0.00365581
0.00362027
0.00365343
0.00362264
0.00362264
0.00362027
0.00361477
0.00357923
0.00361238
0.00361238
0.0035816
0.0035816
0.00361477
0.00357923
0.00361238
0.00361238
0.0035816
0.0035816
0.00361238
0.0035816
0.0035816
0.00361477
0.00357923
0.00361238
0.0035816
0.0035816
0.00357923
0.00357373
0.00353819
0.00357134
0.00357134
0.00354056
0.00354056
0.00357373
0.00353819
0.00357134
0.00357134
0.00354056
0.00354056
0.00357134
0.00354056
0.00354056
0.00357373
0.00353819
0.00357134
0.00354056
0.00354056
0.00353819
0.00353268
0.00349714
0.0035303
0.0035303
0.00349951
0.00349951
0.00353268
0.00349714
0.0035303
0.0035303
0.00349951
0.00349951
0.0035303
0.00349951
0.00349951
0.00353268
0.00349714
0.0035303
0.00349951
0.00349951
0.00349714
0.00349164
0.0034561
0.00348925
0.00348925
0.00345847
0.00345847
0.00349164
0.0034561
0.00348925
0.00348925
0.00345847
0.00345847
0.00348925
0.00345847
0.00345847
0.00349164
0.0034561
0.00348925
0.00345847
0.00345847
0.0034561
0.00345059
0.00341505
0.00344821
0.00344821
0.00341743
0.00341743
0.00345059
0.00341505
0.00344821
0.00344821
0.00341743
0.00341743
0.00344821
0.00341743
0.00341743
0.00345059
0.00341505
0.00344821
0.00341743
0.00341743
0.00341505
0.00340955
0.00337401
0.00340716
0.00340716
0.00337638
0.00337638
0.00340955
0.00337401
0.00340716
0.00340716
0.00337638
0.00337638
0.00340716
0.00337638
0.00337638
0.00340955
0.00337401
0.00340716
0.00337638
0.00337638
0.00337401
0.00336851
0.00333297
0.00336612
0.00336612
0.00333534
0.00333534
0.00336851
0.00333297
0.00336612
0.00336612
0.00333534
0.00333534
0.00336612
0.00333534
0.00333534
0.00336851
0.00333297
0.00336612
0.00333534
0.00333534
0.00333297
0.00332746
0.00329192
0.00332508
0.00332508
0.0032943
0.0032943
0.00332746
0.00329192
0.00332508
0.00332508
0.0032943
0.0032943
0.00332508
0.0032943
0.0032943
0.00332746
0.00329192
0.00332508
0.0032943
0.0032943
0.00329192
0.00328642
0.00325088
0.00328403
0.00328404
0.00325325
0.00325325
0.00328642
0.00325088
0.00328403
0.00328403
0.00325325
0.00325325
0.00328403
0.00325325
0.00325325
0.00328642
0.00325088
0.00328403
0.00325325
0.00325325
0.00325088
0.00324538
0.00320984
0.00324299
0.00324299
0.00321221
0.00321221
0.00324538
0.00320984
0.00324299
0.00324299
0.00321221
0.00321221
0.00324299
0.00321221
0.00321221
0.00324538
0.00320984
0.00324299
0.00321221
0.00321221
0.00320984
0.00320433
0.00316879
0.00320195
0.00320195
0.00317116
0.00317116
0.00320433
0.00316879
0.00320195
0.00320195
0.00317116
0.00317116
0.00320195
0.00317116
0.00317116
0.00320433
0.00316879
0.00320195
0.00317116
0.00317116
0.00316879
0.00316329
0.00312775
0.0031609
0.0031609
0.00313012
0.00313012
0.00316329
0.00312775
0.0031609
0.0031609
0.00313012
0.00313012
0.0031609
0.00313012
0.00313012
0.00316329
0.00312775
0.0031609
0.00313012
0.00313012
0.00312775
0.00312225
0.0030867
0.00311986
0.00311986
0.00308908
0.00308907
0.00312225
0.0030867
0.00311986
0.00311986
0.00308908
0.00308908
0.00311986
0.00308907
0.00308908
0.00312225
0.0030867
0.00311986
0.00308908
0.00308908
0.0030867
0.0030812
0.00304566
0.00307881
0.00307881
0.00304803
0.00304803
0.0030812
0.00304566
0.00307881
0.00307882
0.00304803
0.00304803
0.00307882
0.00304803
0.00304803
0.0030812
0.00304566
0.00307882
0.00304803
0.00304803
0.00304566
0.00304016
0.00300462
0.00303777
0.00303777
0.00300699
0.00300699
0.00304016
0.00300462
0.00303777
0.00303777
0.00300699
0.00300699
0.00303777
0.00300699
0.00300699
0.00304016
0.00300462
0.00303777
0.00300699
0.00300699
0.00300462
0.00299911
0.00296357
0.00299673
0.00299673
0.00296595
0.00296595
0.00299911
0.00296357
0.00299673
0.00299673
0.00296595
0.00296595
0.00299673
0.00296595
0.00296595
0.00299911
0.00296357
0.00299673
0.00296595
0.00296595
0.00296357
0.00295807
0.00292253
0.00295568
0.00295568
0.0029249
0.0029249
0.00295807
0.00292253
0.00295568
0.00295568
0.0029249
0.0029249
0.00295568
0.0029249
0.0029249
0.00295807
0.00292253
0.00295568
0.0029249
0.0029249
0.00292253
0.00291703
0.00288149
0.00291464
0.00291464
0.00288386
0.00288386
0.00291703
0.00288149
0.00291464
0.00291464
0.00288386
0.00288386
0.00291464
0.00288386
0.00288386
0.00291703
0.00288149
0.00291464
0.00288386
0.00288386
0.00288149
0.00287598
0.00284044
0.0028736
0.0028736
0.00284281
0.00284281
0.00287598
0.00284044
0.0028736
0.0028736
0.00284281
0.00284281
0.0028736
0.00284281
0.00284281
0.00287598
0.00284044
0.0028736
0.00284281
0.00284281
0.00284044
0.00283494
0.0027994
0.00283255
0.00283255
0.00280177
0.00280177
0.00283494
0.0027994
0.00283255
0.00283255
0.00280177
0.00280177
0.00283255
0.00280177
0.00280177
0.00283494
0.0027994
0.00283255
0.00280177
0.00280177
0.0027994
0.0027939
0.00275836
0.00279151
0.00279151
0.00276073
0.00276073
0.0027939
0.00275836
0.00279151
0.00279151
0.00276073
0.00276073
0.00279151
0.00276073
0.00276073
0.0027939
0.00275836
0.00279151
0.00276073
0.00276073
0.00275836
0.00275285
0.00271731
0.00275047
0.00275047
0.00271968
0.00271968
0.00275285
0.00271731
0.00275047
0.00275047
0.00271968
0.00271968
0.00275047
0.00271968
0.00271968
0.00275285
0.00271731
0.00275047
0.00271968
0.00271968
0.00271731
0.00271181
0.00267627
0.00270942
0.00270942
0.00267864
0.00267864
0.00271181
0.00267627
0.00270942
0.00270942
0.00267864
0.00267864
0.00270942
0.00267864
0.00267864
0.00271181
0.00267627
0.00270942
0.00267864
0.00267864
0.00267627
0.00267077
0.00263523
0.00266838
0.00266838
0.0026376
0.0026376
0.00267077
0.00263523
0.00266838
0.00266838
0.0026376
0.0026376
0.00266838
0.0026376
0.0026376
0.00267077
0.00263523
0.00266838
0.0026376
0.0026376
0.00263523
0.00262972
0.00259418
0.00262734
0.00262734
0.00259655
0.00259655
0.00262972
0.00259418
0.00262734
0.00262734
0.00259655
0.00259655
0.00262734
0.00259655
0.00259655
0.00262972
0.00259418
0.00262734
0.00259655
0.00259655
0.00259418
0.00258868
0.00255314
0.00258629
0.00258629
0.00255551
0.00255551
0.00258868
0.00255314
0.00258629
0.00258629
0.00255551
0.00255551
0.00258629
0.00255551
0.00255551
0.00258868
0.00255314
0.00258629
0.00255551
0.00255551
0.00255314
0.00254764
0.00251209
0.00254525
0.00254525
0.00251447
0.00251447
0.00254763
0.0025121
0.00254525
0.00254525
0.00251447
0.00251447
0.00254525
0.00251447
0.00251447
0.00254764
0.00251209
0.00254525
0.00251447
0.00251447
0.00251209
0.00250659
0.00247105
0.00250421
0.00250421
0.00247342
0.00247342
0.00250659
0.00247105
0.00250421
0.00250421
0.00247342
0.00247342
0.00250421
0.00247342
0.00247342
0.00250659
0.00247105
0.00250421
0.00247342
0.00247342
0.00247105
0.00246555
0.00243001
0.00246316
0.00246316
0.00243238
0.00243238
0.00246555
0.00243001
0.00246316
0.00246316
0.00243238
0.00243238
0.00246316
0.00243238
0.00243238
0.00246555
0.00243001
0.00246316
0.00243238
0.00243238
0.00243001
0.0024245
0.00238896
0.00242212
0.00242212
0.00239134
0.00239134
0.0024245
0.00238896
0.00242212
0.00242212
0.00239134
0.00239134
0.00242212
0.00239134
0.00239134
0.0024245
0.00238896
0.00242212
0.00239134
0.00239134
0.00238896
0.00238346
0.00234792
0.00238108
0.00238108
0.00235029
0.00235029
0.00238346
0.00234792
0.00238108
0.00238108
0.00235029
0.00235029
0.00238108
0.00235029
0.00235029
0.00238346
0.00234792
0.00238108
0.00235029
0.00235029
0.00234792
0.00234242
0.00230688
0.00234003
0.00234003
0.00230925
0.00230925
0.00234242
0.00230688
0.00234003
0.00234003
0.00230925
0.00230925
0.00234003
0.00230925
0.00230925
0.00234242
0.00230688
0.00234003
0.00230925
0.00230925
0.00230688
0.00230137
0.00226583
0.00229899
0.00229899
0.00226821
0.00226821
0.00230137
0.00226583
0.00229899
0.00229899
0.00226821
0.00226821
0.00229899
0.00226821
0.00226821
0.00230137
0.00226583
0.00229899
0.00226821
0.00226821
0.00226583
0.00226033
0.00222479
0.00225794
0.00225794
0.00222716
0.00222716
0.00226033
0.00222479
0.00225794
0.00225794
0.00222716
0.00222716
0.00225794
0.00222716
0.00222716
0.00226033
0.00222479
0.00225795
0.00222716
0.00222716
0.00222479
0.00221929
0.00218375
0.0022169
0.0022169
0.00218612
0.00218612
0.00221929
0.00218375
0.0022169
0.0022169
0.00218612
0.00218612
0.0022169
0.00218612
0.00218612
0.00221929
0.00218375
0.0022169
0.00218612
0.00218612
0.00218375
0.00217824
0.0021427
0.00217586
0.00217586
0.00214507
0.00214507
0.00217824
0.0021427
0.00217586
0.00217586
0.00214507
0.00214507
0.00217586
0.00214507
0.00214507
0.00217824
0.0021427
0.00217586
0.00214507
0.00214507
0.0021427
0.0021372
0.00210166
0.00213481
0.00213481
0.00210403
0.00210403
0.0021372
0.00210166
0.00213481
0.00213481
0.00210403
0.00210403
0.00213481
0.00210403
0.00210403
0.0021372
0.00210166
0.00213481
0.00210403
0.00210403
0.00210166
0.00209616
0.00206062
0.00209377
0.00209377
0.00206299
0.00206299
0.00209616
0.00206062
0.00209377
0.00209377
0.00206299
0.00206299
0.00209377
0.00206299
0.00206299
0.00209616
0.00206062
0.00209377
0.00206299
0.00206299
0.00206062
0.00205511
0.00201957
0.00205273
0.00205273
0.00202194
0.00202194
0.00205511
0.00201957
0.00205273
0.00205273
0.00202194
0.00202194
0.00205273
0.00202194
0.00202194
0.00205511
0.00201957
0.00205273
0.00202194
0.00202194
0.00201957
0.00201407
0.00197853
0.00201168
0.00201168
0.0019809
0.0019809
0.00201407
0.00197853
0.00201168
0.00201168
0.0019809
0.0019809
0.00201168
0.0019809
0.0019809
0.00201407
0.00197853
0.00201168
0.0019809
0.0019809
0.00197853
0.00197303
0.00193749
0.00197064
0.00197064
0.00193986
0.00193986
0.00197303
0.00193749
0.00197064
0.00197064
0.00193986
0.00193986
0.00197064
0.00193986
0.00193986
0.00197303
0.00193749
0.00197064
0.00193986
0.00193986
0.00193749
0.00193198
0.00189644
0.0019296
0.0019296
0.00189881
0.00189881
0.00193198
0.00189644
0.0019296
0.0019296
0.00189881
0.00189881
0.0019296
0.00189881
0.00189881
0.00193198
0.00189644
0.0019296
0.00189881
0.00189881
0.00189644
0.00189094
0.0018554
0.00188855
0.00188855
0.00185777
0.00185777
0.00189094
0.0018554
0.00188855
0.00188855
0.00185777
0.00185777
0.00188855
0.00185777
0.00185777
0.00189094
0.0018554
0.00188855
0.00185777
0.00185777
0.0018554
0.0018499
0.00181435
0.00184751
0.00184751
0.00181673
0.00181673
0.0018499
0.00181435
0.00184751
0.00184751
0.00181673
0.00181673
0.00184751
0.00181673
0.00181673
0.0018499
0.00181435
0.00184751
0.00181673
0.00181673
0.00181436
0.00180885
0.00177331
0.00180647
0.00180647
0.00177568
0.00177568
0.00180885
0.00177331
0.00180647
0.00180647
0.00177568
0.00177568
0.00180647
0.00177568
0.00177568
0.00180885
0.00177331
0.00180647
0.00177568
0.00177568
0.00177331
0.00176781
0.00173227
0.00176542
0.00176542
0.00173464
0.00173464
0.00176781
0.00173227
0.00176542
0.00176542
0.00173464
0.00173464
0.00176542
0.00173464
0.00173464
0.00176781
0.00173227
0.00176542
0.00173464
0.00173464
0.00173227
0.00172676
0.00169122
0.00172438
0.00172438
0.0016936
0.0016936
0.00172676
0.00169122
0.00172438
0.00172438
0.0016936
0.0016936
0.00172438
0.0016936
0.0016936
0.00172676
0.00169122
0.00172438
0.0016936
0.0016936
0.00169122
0.00168572
0.00165018
0.00168334
0.00168333
0.00165255
0.00165255
0.00168572
0.00165018
0.00168334
0.00168334
0.00165255
0.00165255
0.00168334
0.00165255
0.00165255
0.00168572
0.00165018
0.00168334
0.00165255
0.00165255
0.00165018
0.00164468
0.00160914
0.00164229
0.00164229
0.00161151
0.00161151
0.00164468
0.00160914
0.00164229
0.00164229
0.00161151
0.00161151
0.00164229
0.00161151
0.00161151
0.00164468
0.00160914
0.00164229
0.00161151
0.00161151
0.00160914
0.00160363
0.00156809
0.00160125
0.00160125
0.00157047
0.00157047
0.00160363
0.00156809
0.00160125
0.00160125
0.00157047
0.00157047
0.00160125
0.00157047
0.00157047
0.00160363
0.00156809
0.00160125
0.00157047
0.00157047
0.00156809
0.00156259
0.00152705
0.0015602
0.0015602
0.00152942
0.00152942
0.00156259
0.00152705
0.0015602
0.0015602
0.00152942
0.00152942
0.00156021
0.00152942
0.00152942
0.00156259
0.00152705
0.0015602
0.00152942
0.00152942
0.00152705
0.00152155
0.00148601
0.00151916
0.00151916
0.00148838
0.00148838
0.00152155
0.00148601
0.00151916
0.00151916
0.00148838
0.00148838
0.00151916
0.00148838
0.00148838
0.00152155
0.00148601
0.00151916
0.00148838
0.00148838
0.00148601
0.0014805
0.00144496
0.00147812
0.00147812
0.00144734
0.00144734
0.0014805
0.00144496
0.00147812
0.00147812
0.00144734
0.00144734
0.00147812
0.00144734
0.00144734
0.0014805
0.00144496
0.00147812
0.00144734
0.00144734
0.00144496
0.00143946
0.00140392
0.00143707
0.00143707
0.00140629
0.00140629
0.00143946
0.00140392
0.00143707
0.00143707
0.00140629
0.00140629
0.00143707
0.00140629
0.00140629
0.00143946
0.00140392
0.00143707
0.00140629
0.00140629
0.00140392
0.00139842
0.00136288
0.00139603
0.00139603
0.00136525
0.00136525
0.00139842
0.00136288
0.00139603
0.00139603
0.00136525
0.00136525
0.00139603
0.00136525
0.00136525
0.00139842
0.00136288
0.00139603
0.00136525
0.00136525
0.00136288
0.00135737
0.00132183
0.00135499
0.00135499
0.0013242
0.0013242
0.00135737
0.00132183
0.00135499
0.00135499
0.0013242
0.0013242
0.00135499
0.0013242
0.00132421
0.00135737
0.00132183
0.00135499
0.00132421
0.0013242
0.00132183
0.00131633
0.00128079
0.00131394
0.00131394
0.00128316
0.00128316
0.00131633
0.00128079
0.00131394
0.00131394
0.00128316
0.00128316
0.00131394
0.00128316
0.00128316
0.00131633
0.00128079
0.00131394
0.00128316
0.00128316
0.00128079
0.00127529
0.00123975
0.0012729
0.0012729
0.00124212
0.00124212
0.00127529
0.00123975
0.0012729
0.0012729
0.00124212
0.00124212
0.0012729
0.00124212
0.00124212
0.00127529
0.00123975
0.0012729
0.00124212
0.00124212
0.00123975
0.00123424
0.0011987
0.00123186
0.00123186
0.00120107
0.00120107
0.00123424
0.0011987
0.00123186
0.00123186
0.00120107
0.00120107
0.00123186
0.00120107
0.00120107
0.00123424
0.0011987
0.00123186
0.00120107
0.00120107
0.0011987
0.0011932
0.00115766
0.00119081
0.00119081
0.00116003
0.00116003
0.0011932
0.00115766
0.00119081
0.00119081
0.00116003
0.00116003
0.00119081
0.00116003
0.00116003
0.0011932
0.00115766
0.00119081
0.00116003
0.00116003
0.00115766
0.00115216
0.00111662
0.00114977
0.00114977
0.00111899
0.00111899
0.00115216
0.00111662
0.00114977
0.00114977
0.00111899
0.00111899
0.00114977
0.00111899
0.00111899
0.00115216
0.00111662
0.00114977
0.00111899
0.00111899
0.00111662
0.00111111
0.00107557
0.00110873
0.00110873
0.00107794
0.00107794
0.00111111
0.00107557
0.00110873
0.00110873
0.00107794
0.00107794
0.00110873
0.00107794
0.00107794
0.00111111
0.00107557
0.00110873
0.00107794
0.00107794
0.00107557
0.00107007
0.00103453
0.00106768
0.00106768
0.0010369
0.0010369
0.00107007
0.00103453
0.00106768
0.00106768
0.0010369
0.0010369
0.00106768
0.0010369
0.0010369
0.00107007
0.00103453
0.00106768
0.0010369
0.0010369
0.00103453
0.00102903
0.000993486
0.00102664
0.00102664
0.000995857
0.000995857
0.00102903
0.000993486
0.00102664
0.00102664
0.000995857
0.000995858
0.00102664
0.000995857
0.000995858
0.00102903
0.000993486
0.00102664
0.000995858
0.000995858
0.000993486
0.000987983
0.000952443
0.000985597
0.000985596
0.000954814
0.000954814
0.000987982
0.000952443
0.000985597
0.000985597
0.000954814
0.000954814
0.000985597
0.000954814
0.000954815
0.000987983
0.000952443
0.000985597
0.000954815
0.000954814
0.000952443
0.000946939
0.0009114
0.000944554
0.000944553
0.000913771
0.000913771
0.000946939
0.0009114
0.000944554
0.000944554
0.000913771
0.000913771
0.000944554
0.000913771
0.000913772
0.00094694
0.0009114
0.000944553
0.000913771
0.000913771
0.0009114
0.000905896
0.000870356
0.00090351
0.00090351
0.000872728
0.000872728
0.000905896
0.000870356
0.00090351
0.00090351
0.000872728
0.000872728
0.000903511
0.000872728
0.000872728
0.000905896
0.000870356
0.000903511
0.000872728
0.000872728
0.000870356
0.000864853
0.000829312
0.000862467
0.000862466
0.000831684
0.000831684
0.000864852
0.000829312
0.000862466
0.000862467
0.000831684
0.000831684
0.000862467
0.000831684
0.000831684
0.000864853
0.000829312
0.000862467
0.000831684
0.000831684
0.000829312
0.000823809
0.000788268
0.000821423
0.000821423
0.00079064
0.00079064
0.000823809
0.000788269
0.000821423
0.000821423
0.00079064
0.00079064
0.000821423
0.00079064
0.000790641
0.000823809
0.000788269
0.000821423
0.00079064
0.00079064
0.000788269
0.000782765
0.000747226
0.000780379
0.000780379
0.000749597
0.000749597
0.000782765
0.000747226
0.000780379
0.000780379
0.000749597
0.000749597
0.00078038
0.000749597
0.000749597
0.000782765
0.000747226
0.000780379
0.000749597
0.000749597
0.000747226
0.000741722
0.000706182
0.000739336
0.000739336
0.000708554
0.000708554
0.000741722
0.000706182
0.000739336
0.000739336
0.000708554
0.000708554
0.000739337
0.000708554
0.000708554
0.000741722
0.000706182
0.000739336
0.000708554
0.000708554
0.000706182
0.000700679
0.000665139
0.000698293
0.000698293
0.00066751
0.00066751
0.000700679
0.000665139
0.000698293
0.000698293
0.00066751
0.00066751
0.000698293
0.00066751
0.00066751
0.000700679
0.000665138
0.000698293
0.00066751
0.00066751
0.000665138
0.000659635
0.000624095
0.000657249
0.000657249
0.000626466
0.000626466
0.000659635
0.000624095
0.000657249
0.000657249
0.000626466
0.000626466
0.000657249
0.000626466
0.000626467
0.000659635
0.000624095
0.000657249
0.000626466
0.000626466
0.000624095
0.000618591
0.000583052
0.000616205
0.000616205
0.000585423
0.000585423
0.000618591
0.000583052
0.000616205
0.000616205
0.000585423
0.000585423
0.000616206
0.000585423
0.000585423
0.000618591
0.000583051
0.000616205
0.000585423
0.000585423
0.000583052
0.000577548
0.000542008
0.000575162
0.000575162
0.00054438
0.00054438
0.000577548
0.000542008
0.000575162
0.000575162
0.00054438
0.00054438
0.000575163
0.00054438
0.00054438
0.000577548
0.000542008
0.000575162
0.00054438
0.00054438
0.000542008
0.000536505
0.000500964
0.000534119
0.000534119
0.000503336
0.000503336
0.000536505
0.000500965
0.000534119
0.000534119
0.000503336
0.000503336
0.000534119
0.000503336
0.000503336
0.000536505
0.000500964
0.000534119
0.000503336
0.000503336
0.000500965
0.000495461
0.000459921
0.000493075
0.000493075
0.000462292
0.000462292
0.000495461
0.000459921
0.000493075
0.000493075
0.000462292
0.000462292
0.000493076
0.000462292
0.000462293
0.000495461
0.000459921
0.000493075
0.000462292
0.000462292
0.000459921
0.000454417
0.000418877
0.000452031
0.000452031
0.000421249
0.000421249
0.000454417
0.000418878
0.000452031
0.000452031
0.000421249
0.000421249
0.000452032
0.000421249
0.000421249
0.000454417
0.000418877
0.000452031
0.000421249
0.000421249
0.000418877
0.000413374
0.000377834
0.000410988
0.000410988
0.000380206
0.000380206
0.000413374
0.000377834
0.000410988
0.000410988
0.000380206
0.000380206
0.000410989
0.000380206
0.000380206
0.000413374
0.000377834
0.000410988
0.000380206
0.000380206
0.000377834
0.000372331
0.000336791
0.000369945
0.000369945
0.000339162
0.000339162
0.000372331
0.000336791
0.000369945
0.000369945
0.000339162
0.000339162
0.000369945
0.000339162
0.000339162
0.000372331
0.00033679
0.000369945
0.000339162
0.000339162
0.000336791
0.000331287
0.000295747
0.000328901
0.000328901
0.000298118
0.000298118
0.000331287
0.000295747
0.000328901
0.000328901
0.000298118
0.000298118
0.000328901
0.000298118
0.000298119
0.000331287
0.000295747
0.000328901
0.000298118
0.000298118
0.000295747
0.000290243
0.000254703
0.000287858
0.000287857
0.000257075
0.000257075
0.000290243
0.000254704
0.000287857
0.000287857
0.000257075
0.000257075
0.000287858
0.000257075
0.000257075
0.000290244
0.000254703
0.000287857
0.000257075
0.000257075
0.000254704
0.0002492
0.00021366
0.000246814
0.000246814
0.000216032
0.000216032
0.0002492
0.00021366
0.000246814
0.000246814
0.000216032
0.000216032
0.000246815
0.000216032
0.000216032
0.0002492
0.00021366
0.000246814
0.000216032
0.000216032
0.000213661
0.000208157
0.000172617
0.000205771
0.000205771
0.000174988
0.000174988
0.000208157
0.000172617
0.000205771
0.000205771
0.000174988
0.000174988
0.000205771
0.000174988
0.000174989
0.000208157
0.000172617
0.000205771
0.000174988
0.000174988
0.000172617
0.000167113
0.000131573
0.000164727
0.000164727
0.000133944
0.000133945
0.000167113
0.000131573
0.000164727
0.000164727
0.000133944
0.000133944
0.000164728
0.000133945
0.000133945
0.000167113
0.000131573
0.000164728
0.000133944
0.000133945
0.000131573
0.00012607
9.053e-05
0.000123684
0.000123684
9.29037e-05
9.2904e-05
0.00012607
9.05306e-05
0.000123684
0.000123683
9.29031e-05
9.29029e-05
0.000123684
9.29037e-05
9.29029e-05
0.000126069
9.0529e-05
0.000123684
9.29027e-05
9.29027e-05
9.05292e-05
8.50266e-05
4.95009e-05
8.26451e-05
8.26447e-05
5.19005e-05
5.19014e-05
8.50259e-05
4.95027e-05
8.26446e-05
8.26438e-05
5.18985e-05
5.18981e-05
8.26442e-05
5.18998e-05
5.18975e-05
8.50257e-05
4.94985e-05
8.26441e-05
5.18974e-05
5.18962e-05
4.94978e-05
4.40085e-05
1.26163e-05
4.17177e-05
4.17171e-05
1.4448e-05
1.44477e-05
4.40096e-05
1.26169e-05
4.17153e-05
4.17141e-05
1.44458e-05
1.44423e-05
4.17132e-05
1.4445e-05
1.44405e-05
4.40053e-05
1.26118e-05
4.17119e-05
1.44426e-05
1.44415e-05
1.26103e-05
9.7474e-06
1.01951e-05
1.01954e-05
9.7487e-06
1.01932e-05
1.01907e-05
1.01005e-05
1.00981e-05
1.00978e-05
1.01902e-05
9.7443e-06
1.01901e-05
0.00388689
0.00389635
0.00389127
0.00389128
0.00391301
0.00390019
0.00392801
0.00389438
0.00391301
0.0039002
0.00389438
0.00392801
0.0039046
0.00393185
0.00393186
0.00384458
0.00385532
0.00386684
0.00384344
0.00383137
0.00384445
0.00384457
0.0038553
0.00386683
0.00384342
0.00386591
0.00386591
0.00386591
0.00382818
0.00382818
0.00382818
0.00382818
0.00384485
0.0038651
0.0038661
0.00385018
0.00386793
0.00384455
0.00385094
0.00383149
0.00384446
0.00384485
0.0038661
0.00386511
0.00385018
0.00386793
0.00385094
0.00384455
0.00386626
0.00386625
0.00384578
0.0038441
0.00384411
0.00380477
0.00381993
0.00381999
0.00380474
0.00381993
0.00380473
0.00380476
0.00381991
0.00381999
0.00380474
0.00381776
0.00381776
0.00381776
0.00378685
0.00378685
0.00378685
0.00378685
0.00380485
0.00381998
0.00381771
0.00380736
0.00382003
0.00380478
0.0038074
0.00381994
0.00380473
0.00380485
0.00381771
0.00381997
0.00380736
0.00382002
0.0038074
0.00380478
0.00381996
0.00381996
0.00380497
0.00380474
0.00380474
0.00376376
0.00377911
0.00377911
0.00376376
0.00377911
0.00376375
0.00376376
0.00377911
0.00377911
0.00376376
0.00377658
0.00377658
0.00377658
0.0037458
0.0037458
0.0037458
0.0037458
0.00376383
0.00377908
0.00377657
0.0037663
0.00377905
0.00376379
0.00376631
0.00377911
0.00376375
0.00376383
0.00377657
0.00377908
0.0037663
0.00377905
0.00376631
0.00376379
0.00377911
0.00377911
0.00376393
0.00376376
0.00376376
0.00372272
0.00373808
0.00373807
0.00372271
0.00373808
0.00372271
0.00372272
0.00373808
0.00373807
0.00372271
0.00373554
0.00373554
0.00373554
0.00370475
0.00370475
0.00370475
0.00370475
0.00372279
0.00373804
0.00373552
0.00372525
0.00373801
0.00372275
0.00372526
0.00373808
0.00372271
0.00372279
0.00373552
0.00373804
0.00372525
0.00373801
0.00372526
0.00372275
0.00373808
0.00373808
0.00372288
0.00372272
0.00372272
0.00368168
0.00369703
0.00369703
0.00368167
0.00369704
0.00368166
0.00368168
0.00369703
0.00369703
0.00368167
0.00369449
0.00369449
0.00369449
0.00366371
0.00366371
0.00366371
0.00366371
0.00368174
0.003697
0.00369448
0.00368421
0.00369697
0.0036817
0.00368422
0.00369704
0.00368167
0.00368174
0.00369448
0.003697
0.00368421
0.00369697
0.00368422
0.0036817
0.00369703
0.00369703
0.00368184
0.00368167
0.00368167
0.00364063
0.00365599
0.00365598
0.00364063
0.00365601
0.0036406
0.00364063
0.00365599
0.00365598
0.00364063
0.00365345
0.00365345
0.00365345
0.00362267
0.00362266
0.00362267
0.00362267
0.0036407
0.00365596
0.00365343
0.00364317
0.00365592
0.00364066
0.00364317
0.00365599
0.00364062