/*--------------------------------*- C++ -*----------------------------------*\
| =========                 |                                                 |
| \\      /  F ield         | OpenFOAM: The Open Source CFD Toolbox           |
|  \\    /   O peration     | Version:  2206                                  |
|   \\  /    A nd           | Website:  www.openfoam.com                      |
|    \\/     M anipulation  |                                                 |
\*---------------------------------------------------------------------------*/
FoamFile
{
    version     2.0;
    format      ascii;
    arch        "LSB;label=32;scalar=64";
    class       volScalarField;
    location    "7";
    object      p;
}
// * * * * * * * * * * * * * * * * * * * * * * * * * * * * * * * * * * * * * //

dimensions      [0 2 -2 0 0 0 0];

internalField   nonuniform List<scalar> 
171728
(
0.00428521
0.00428547
0.00428547
0.00428842
0.00423158
0.00423174
0.00423175
0.00423379
0.00418539
0.00418534
0.00418534
0.00418799
0.00413987
0.00413984
0.00413984
0.00414248
0.00409439
0.00409437
0.00409437
0.00409701
0.00404892
0.0040489
0.0040489
0.00405154
0.00400345
0.00400342
0.00400342
0.00400606
0.00395798
0.00395795
0.00395795
0.00396059
0.00391251
0.00391248
0.00391248
0.00391512
0.00386704
0.00386701
0.00386701
0.00386965
0.00382157
0.00382154
0.00382154
0.00382418
0.0037761
0.00377607
0.00377607
0.00377871
0.00373063
0.00373061
0.00373061
0.00373325
0.00368518
0.00368516
0.00368516
0.0036878
0.00363971
0.00363969
0.00363969
0.00364233
0.00359424
0.00359422
0.00359422
0.00359686
0.00354877
0.00354875
0.00354875
0.00355139
0.0035033
0.00350327
0.00350327
0.00350591
0.00345782
0.0034578
0.0034578
0.00346044
0.00341235
0.00341233
0.00341233
0.00341497
0.00336688
0.00336686
0.00336686
0.00336949
0.00332141
0.00332139
0.00332139
0.00332403
0.00327594
0.00327592
0.00327592
0.00327856
0.00323047
0.00323044
0.00323044
0.00323308
0.003185
0.00318497
0.00318497
0.00318761
0.00313952
0.0031395
0.0031395
0.00314214
0.00309405
0.00309403
0.00309403
0.00309667
0.00304858
0.00304856
0.00304856
0.0030512
0.00300311
0.00300309
0.00300309
0.00300573
0.00295765
0.00295762
0.00295762
0.00296026
0.00291219
0.00291216
0.00291217
0.0029148
0.00286673
0.00286671
0.00286671
0.00286935
0.00282127
0.00282124
0.00282124
0.00282388
0.0027758
0.00277577
0.00277577
0.00277841
0.00273033
0.00273031
0.00273031
0.00273295
0.00268486
0.00268484
0.00268484
0.00268748
0.00263939
0.00263937
0.00263937
0.00264201
0.00259392
0.0025939
0.0025939
0.00259654
0.00254846
0.00254843
0.00254843
0.00255107
0.00250299
0.00250297
0.00250297
0.00250561
0.00245752
0.0024575
0.0024575
0.00246014
0.00241206
0.00241204
0.00241204
0.00241468
0.00236659
0.00236657
0.00236657
0.00236921
0.00232113
0.00232111
0.00232111
0.00232375
0.00227566
0.00227564
0.00227564
0.00227828
0.0022302
0.00223018
0.00223018
0.00223282
0.00218474
0.00218471
0.00218471
0.00218735
0.00213927
0.00213925
0.00213925
0.00214189
0.00209382
0.0020938
0.0020938
0.00209644
0.00204837
0.00204835
0.00204835
0.00205098
0.0020029
0.00200288
0.00200288
0.00200552
0.00195744
0.00195742
0.00195742
0.00196006
0.00191198
0.00191195
0.00191195
0.00191459
0.00186651
0.00186649
0.00186649
0.00186913
0.00182105
0.00182103
0.00182103
0.00182367
0.00177559
0.00177557
0.00177557
0.00177821
0.00173013
0.0017301
0.0017301
0.00173274
0.00168466
0.00168464
0.00168464
0.00168728
0.0016392
0.00163918
0.00163918
0.00164182
0.00159374
0.00159371
0.00159371
0.00159635
0.00154827
0.00154825
0.00154825
0.00155089
0.00150281
0.00150279
0.00150279
0.00150542
0.00145734
0.00145732
0.00145732
0.00145996
0.00141188
0.00141186
0.00141186
0.0014145
0.00136642
0.00136639
0.00136639
0.00136903
0.00132096
0.00132094
0.00132094
0.00132358
0.00127552
0.0012755
0.00127549
0.00127813
0.00123005
0.00123003
0.00123003
0.00123267
0.00118459
0.00118457
0.00118457
0.00118721
0.00113914
0.00113911
0.00113911
0.00114175
0.00109368
0.00109366
0.00109366
0.00109629
0.00104822
0.0010482
0.0010482
0.00105084
0.00100276
0.00100274
0.00100274
0.00100538
0.0009573
0.000957278
0.000957278
0.000959917
0.000911839
0.000911816
0.000911816
0.000914456
0.000866375
0.000866353
0.000866353
0.000868993
0.000820911
0.000820888
0.000820888
0.000823527
0.000775446
0.000775424
0.000775424
0.000778063
0.000729983
0.00072996
0.00072996
0.0007326
0.000684518
0.000684496
0.000684496
0.000687135
0.000639054
0.000639032
0.000639032
0.000641671
0.00059359
0.000593566
0.000593567
0.000596206
0.000548128
0.000548105
0.000548105
0.000550743
0.00050268
0.00050266
0.000502656
0.000505299
0.000457215
0.000457192
0.000457194
0.000459832
0.000411748
0.000411725
0.000411725
0.000414365
0.000366281
0.000366259
0.000366259
0.000368898
0.000320813
0.000320791
0.000320791
0.00032343
0.000275342
0.00027532
0.00027532
0.00027796
0.00022987
0.000229847
0.000229847
0.000232487
0.000184397
0.000184375
0.000184374
0.000187014
0.000138923
0.000138902
0.000138902
0.000141541
9.346e-05
9.34385e-05
9.34374e-05
9.60507e-05
4.85888e-05
4.79435e-05
4.79403e-05
5.03971e-05
1.13071e-05
1.17301e-05
1.1728e-05
1.13942e-05
0.00429856
0.0042988
0.0042988
0.00429856
0.0042988
0.0042988
0.00429958
0.00429958
0.00429958
0.00429958
0.0042988
0.0042988
0.00429856
0.0042988
0.00429881
0.00429856
0.00428841
0.00424053
0.00428547
0.00428547
0.00424307
0.00424307
0.00428841
0.00424053
0.00428547
0.00428547
0.00424307
0.00424307
0.00428547
0.00424307
0.00424307
0.00428841
0.00424054
0.00428547
0.00424308
0.00424308
0.00424054
0.00423376
0.00419408
0.00423172
0.00423173
0.00419675
0.00419675
0.00423377
0.00419408
0.00423174
0.00423173
0.00419675
0.00419675
0.00423173
0.00419675
0.00419675
0.00423379
0.00419408
0.00423175
0.00419676
0.00419676
0.00419408
0.00418799
0.00414857
0.00418534
0.00418534
0.00415121
0.00415121
0.00418799
0.00414857
0.00418534
0.00418534
0.00415121
0.00415121
0.00418534
0.00415121
0.00415121
0.00418799
0.00414857
0.00418534
0.00415121
0.00415121
0.00414857
0.00414248
0.0041031
0.00413984
0.00413984
0.00410573
0.00410573
0.00414248
0.0041031
0.00413984
0.00413984
0.00410573
0.00410573
0.00413984
0.00410573
0.00410573
0.00414248
0.0041031
0.00413984
0.00410573
0.00410573
0.0041031
0.00409701
0.00405763
0.00409437
0.00409437
0.00406026
0.00406026
0.00409701
0.00405763
0.00409437
0.00409437
0.00406026
0.00406026
0.00409437
0.00406026
0.00406026
0.00409701
0.00405763
0.00409437
0.00406026
0.00406026
0.00405763
0.00405154
0.00401216
0.0040489
0.0040489
0.00401479
0.00401479
0.00405153
0.00401216
0.0040489
0.0040489
0.00401479
0.00401479
0.0040489
0.00401479
0.00401479
0.00405153
0.00401216
0.0040489
0.00401479
0.00401479
0.00401216
0.00400606
0.00396669
0.00400342
0.00400342
0.00396932
0.00396932
0.00400606
0.00396669
0.00400342
0.00400342
0.00396932
0.00396932
0.00400342
0.00396932
0.00396932
0.00400606
0.00396669
0.00400342
0.00396932
0.00396932
0.00396669
0.00396059
0.00392122
0.00395795
0.00395795
0.00392385
0.00392385
0.00396059
0.00392122
0.00395795
0.00395795
0.00392385
0.00392385
0.00395795
0.00392385
0.00392385
0.00396059
0.00392122
0.00395795
0.00392385
0.00392385
0.00392122
0.00391512
0.00387575
0.00391248
0.00391248
0.00387838
0.00387838
0.00391512
0.00387575
0.00391248
0.00391248
0.00387838
0.00387838
0.00391248
0.00387838
0.00387838
0.00391512
0.00387575
0.00391248
0.00387838
0.00387838
0.00387575
0.00386965
0.00383028
0.00386701
0.00386701
0.00383291
0.00383291
0.00386965
0.00383028
0.00386701
0.00386701
0.00383291
0.00383291
0.00386701
0.00383291
0.00383291
0.00386965
0.00383028
0.00386701
0.00383291
0.00383291
0.00383028
0.00382418
0.00378481
0.00382154
0.00382154
0.00378744
0.00378744
0.00382418
0.00378481
0.00382154
0.00382154
0.00378744
0.00378744
0.00382154
0.00378744
0.00378744
0.00382418
0.00378481
0.00382154
0.00378744
0.00378744
0.00378481
0.00377871
0.00373934
0.00377607
0.00377607
0.00374197
0.00374197
0.00377871
0.00373934
0.00377607
0.00377607
0.00374197
0.00374197
0.00377607
0.00374197
0.00374197
0.00377871
0.00373934
0.00377607
0.00374197
0.00374197
0.00373934
0.00373325
0.00369389
0.00373061
0.00373061
0.00369652
0.00369652
0.00373325
0.00369389
0.00373061
0.00373061
0.00369652
0.00369652
0.00373061
0.00369652
0.00369652
0.00373325
0.00369389
0.00373061
0.00369652
0.00369652
0.00369389
0.0036878
0.00364842
0.00368516
0.00368516
0.00365106
0.00365106
0.0036878
0.00364842
0.00368516
0.00368516
0.00365106
0.00365106
0.00368516
0.00365106
0.00365106
0.0036878
0.00364842
0.00368516
0.00365106
0.00365106
0.00364842
0.00364233
0.00360295
0.00363969
0.00363969
0.00360559
0.00360559
0.00364233
0.00360295
0.00363969
0.00363969
0.00360559
0.00360559
0.00363969
0.00360559
0.00360559
0.00364233
0.00360295
0.00363969
0.00360559
0.00360559
0.00360295
0.00359686
0.00355748
0.00359422
0.00359422
0.00356011
0.00356011
0.00359686
0.00355748
0.00359422
0.00359422
0.00356011
0.00356011
0.00359422
0.00356011
0.00356011
0.00359686
0.00355748
0.00359422
0.00356011
0.00356011
0.00355748
0.00355139
0.00351201
0.00354875
0.00354875
0.00351464
0.00351464
0.00355139
0.00351201
0.00354875
0.00354875
0.00351464
0.00351464
0.00354875
0.00351464
0.00351464
0.00355139
0.00351201
0.00354875
0.00351464
0.00351464
0.00351201
0.00350591
0.00346654
0.00350327
0.00350327
0.00346917
0.00346917
0.00350591
0.00346653
0.00350327
0.00350327
0.00346917
0.00346917
0.00350327
0.00346917
0.00346917
0.00350591
0.00346653
0.00350327
0.00346917
0.00346917
0.00346653
0.00346044
0.00342106
0.0034578
0.0034578
0.0034237
0.00342369
0.00346044
0.00342106
0.0034578
0.0034578
0.0034237
0.0034237
0.0034578
0.00342369
0.0034237
0.00346044
0.00342106
0.0034578
0.0034237
0.0034237
0.00342106
0.00341497
0.00337559
0.00341233
0.00341233
0.00337822
0.00337822
0.00341497
0.00337559
0.00341233
0.00341233
0.00337822
0.00337822
0.00341233
0.00337822
0.00337822
0.00341497
0.00337559
0.00341233
0.00337822
0.00337822
0.00337559
0.0033695
0.00333012
0.00336686
0.00336686
0.00333275
0.00333275
0.00336949
0.00333012
0.00336685
0.00336686
0.00333275
0.00333275
0.00336686
0.00333275
0.00333275
0.00336949
0.00333012
0.00336686
0.00333275
0.00333275
0.00333012
0.00332402
0.00328465
0.00332139
0.00332139
0.00328728
0.00328728
0.00332402
0.00328465
0.00332139
0.00332139
0.00328728
0.00328728
0.00332139
0.00328728
0.00328728
0.00332403
0.00328465
0.00332139
0.00328728
0.00328728
0.00328465
0.00327855
0.00323918
0.00327592
0.00327592
0.00324181
0.00324181
0.00327855
0.00323918
0.00327592
0.00327592
0.00324181
0.00324181
0.00327592
0.00324181
0.00324181
0.00327856
0.00323918
0.00327592
0.00324181
0.00324181
0.00323918
0.00323308
0.00319371
0.00323044
0.00323044
0.00319634
0.00319634
0.00323308
0.00319371
0.00323044
0.00323044
0.00319634
0.00319634
0.00323044
0.00319634
0.00319634
0.00323308
0.00319371
0.00323044
0.00319634
0.00319634
0.00319371
0.00318761
0.00314824
0.00318497
0.00318497
0.00315087
0.00315087
0.00318761
0.00314824
0.00318497
0.00318497
0.00315087
0.00315087
0.00318497
0.00315087
0.00315087
0.00318761
0.00314824
0.00318497
0.00315087
0.00315087
0.00314824
0.00314214
0.00310277
0.0031395
0.0031395
0.0031054
0.0031054
0.00314214
0.00310277
0.0031395
0.0031395
0.0031054
0.0031054
0.0031395
0.0031054
0.0031054
0.00314214
0.00310277
0.0031395
0.0031054
0.0031054
0.00310277
0.00309667
0.0030573
0.00309403
0.00309403
0.00305993
0.00305993
0.00309667
0.0030573
0.00309403
0.00309403
0.00305993
0.00305993
0.00309403
0.00305993
0.00305993
0.00309667
0.0030573
0.00309403
0.00305993
0.00305993
0.0030573
0.0030512
0.00301183
0.00304856
0.00304856
0.00301446
0.00301446
0.0030512
0.00301183
0.00304856
0.00304856
0.00301446
0.00301446
0.00304856
0.00301446
0.00301446
0.0030512
0.00301183
0.00304856
0.00301446
0.00301446
0.00301183
0.00300573
0.00296636
0.00300309
0.00300309
0.00296899
0.00296899
0.00300573
0.00296636
0.00300309
0.00300309
0.00296899
0.00296899
0.00300309
0.00296899
0.00296899
0.00300573
0.00296636
0.00300309
0.00296899
0.00296899
0.00296636
0.00296026
0.0029209
0.00295762
0.00295762
0.00292353
0.00292353
0.00296026
0.00292089
0.00295762
0.00295762
0.00292353
0.00292353
0.00295762
0.00292353
0.00292353
0.00296026
0.0029209
0.00295762
0.00292353
0.00292353
0.0029209
0.0029148
0.00287545
0.00291217
0.00291216
0.00287808
0.00287808
0.0029148
0.00287545
0.00291217
0.00291217
0.00287808
0.00287808
0.00291217
0.00287808
0.00287808
0.00291481
0.00287545
0.00291217
0.00287808
0.00287808
0.00287545
0.00286935
0.00282998
0.00286671
0.00286671
0.00283261
0.00283261
0.00286935
0.00282998
0.00286671
0.00286671
0.00283261
0.00283261
0.00286671
0.00283261
0.00283261
0.00286935
0.00282998
0.00286671
0.00283261
0.00283261
0.00282998
0.00282388
0.00278451
0.00282124
0.00282124
0.00278714
0.00278714
0.00282388
0.00278451
0.00282124
0.00282124
0.00278714
0.00278714
0.00282124
0.00278714
0.00278714
0.00282388
0.00278451
0.00282124
0.00278714
0.00278714
0.00278451
0.00277841
0.00273904
0.00277577
0.00277577
0.00274167
0.00274167
0.00277841
0.00273904
0.00277577
0.00277577
0.00274167
0.00274167
0.00277577
0.00274167
0.00274167
0.00277841
0.00273904
0.00277577
0.00274167
0.00274167
0.00273904
0.00273295
0.00269357
0.00273031
0.00273031
0.0026962
0.0026962
0.00273295
0.00269357
0.00273031
0.00273031
0.0026962
0.0026962
0.00273031
0.0026962
0.0026962
0.00273295
0.00269357
0.00273031
0.0026962
0.0026962
0.00269357
0.00268748
0.0026481
0.00268484
0.00268484
0.00265074
0.00265074
0.00268748
0.0026481
0.00268484
0.00268484
0.00265074
0.00265074
0.00268484
0.00265074
0.00265074
0.00268748
0.0026481
0.00268484
0.00265074
0.00265074
0.0026481
0.00264201
0.00260263
0.00263937
0.00263937
0.00260527
0.00260527
0.00264201
0.00260264
0.00263937
0.00263937
0.00260527
0.00260527
0.00263937
0.00260527
0.00260527
0.00264201
0.00260263
0.00263937
0.00260527
0.00260527
0.00260263
0.00259654
0.00255717
0.0025939
0.0025939
0.0025598
0.0025598
0.00259654
0.00255717
0.0025939
0.0025939
0.0025598
0.0025598
0.0025939
0.0025598
0.0025598
0.00259654
0.00255717
0.0025939
0.0025598
0.0025598
0.00255717
0.00255107
0.0025117
0.00254843
0.00254843
0.00251433
0.00251433
0.00255107
0.0025117
0.00254843
0.00254843
0.00251433
0.00251433
0.00254843
0.00251433
0.00251433
0.00255107
0.0025117
0.00254843
0.00251433
0.00251434
0.0025117
0.00250561
0.00246624
0.00250297
0.00250297
0.00246887
0.00246887
0.00250561
0.00246624
0.00250297
0.00250297
0.00246887
0.00246887
0.00250297
0.00246887
0.00246887
0.00250561
0.00246624
0.00250297
0.00246887
0.00246887
0.00246623
0.00246014
0.00242077
0.0024575
0.0024575
0.0024234
0.0024234
0.00246014
0.00242077
0.0024575
0.0024575
0.0024234
0.0024234
0.0024575
0.0024234
0.0024234
0.00246014
0.00242077
0.0024575
0.0024234
0.0024234
0.00242077
0.00241468
0.0023753
0.00241204
0.00241204
0.00237794
0.00237794
0.00241468
0.0023753
0.00241204
0.00241204
0.00237794
0.00237794
0.00241204
0.00237794
0.00237794
0.00241468
0.0023753
0.00241204
0.00237794
0.00237794
0.0023753
0.00236921
0.00232984
0.00236657
0.00236657
0.00233247
0.00233247
0.00236921
0.00232984
0.00236657
0.00236657
0.00233247
0.00233247
0.00236657
0.00233247
0.00233247
0.00236921
0.00232984
0.00236657
0.00233247
0.00233247
0.00232984
0.00232375
0.00228437
0.00232111
0.00232111
0.00228701
0.00228701
0.00232375
0.00228438
0.00232111
0.00232111
0.00228701
0.00228701
0.00232111
0.00228701
0.00228701
0.00232375
0.00228437
0.00232111
0.00228701
0.00228701
0.00228437
0.00227828
0.00223891
0.00227564
0.00227564
0.00224154
0.00224154
0.00227828
0.00223891
0.00227564
0.00227564
0.00224154
0.00224154
0.00227564
0.00224154
0.00224154
0.00227828
0.00223891
0.00227564
0.00224154
0.00224154
0.00223891
0.00223282
0.00219345
0.00223018
0.00223018
0.00219608
0.00219608
0.00223282
0.00219345
0.00223018
0.00223018
0.00219608
0.00219608
0.00223018
0.00219608
0.00219608
0.00223282
0.00219345
0.00223018
0.00219608
0.00219608
0.00219345
0.00218735
0.00214798
0.00218471
0.00218471
0.00215061
0.00215061
0.00218735
0.00214798
0.00218471
0.00218471
0.00215061
0.00215061
0.00218471
0.00215061
0.00215061
0.00218735
0.00214798
0.00218471
0.00215061
0.00215061
0.00214798
0.00214189
0.00210253
0.00213925
0.00213925
0.00210516
0.00210516
0.00214189
0.00210253
0.00213925
0.00213925
0.00210516
0.00210516
0.00213925
0.00210516
0.00210516
0.00214189
0.00210253
0.00213925
0.00210516
0.00210516
0.00210253
0.00209644
0.00205708
0.0020938
0.0020938
0.00205971
0.00205971
0.00209644
0.00205708
0.0020938
0.0020938
0.00205971
0.00205971
0.0020938
0.00205971
0.00205971
0.00209644
0.00205708
0.0020938
0.00205971
0.00205971
0.00205708
0.00205098
0.00201161
0.00204835
0.00204835
0.00201425
0.00201425
0.00205098
0.00201161
0.00204835
0.00204835
0.00201425
0.00201425
0.00204835
0.00201425
0.00201425
0.00205098
0.00201161
0.00204835
0.00201425
0.00201425
0.00201161
0.00200552
0.00196615
0.00200288
0.00200288
0.00196878
0.00196878
0.00200552
0.00196615
0.00200288
0.00200288
0.00196878
0.00196878
0.00200288
0.00196878
0.00196878
0.00200552
0.00196615
0.00200288
0.00196878
0.00196878
0.00196615
0.00196006
0.00192069
0.00195742
0.00195742
0.00192332
0.00192332
0.00196006
0.00192069
0.00195742
0.00195742
0.00192332
0.00192332
0.00195742
0.00192332
0.00192332
0.00196006
0.00192069
0.00195742
0.00192332
0.00192332
0.00192069
0.00191459
0.00187522
0.00191195
0.00191195
0.00187786
0.00187786
0.00191459
0.00187522
0.00191195
0.00191195
0.00187786
0.00187786
0.00191195
0.00187786
0.00187786
0.00191459
0.00187522
0.00191195
0.00187786
0.00187786
0.00187522
0.00186913
0.00182976
0.00186649
0.00186649
0.00183239
0.00183239
0.00186913
0.00182976
0.00186649
0.00186649
0.00183239
0.00183239
0.00186649
0.00183239
0.00183239
0.00186913
0.00182976
0.00186649
0.00183239
0.00183239
0.00182976
0.00182367
0.0017843
0.00182103
0.00182103
0.00178693
0.00178693
0.00182367
0.0017843
0.00182103
0.00182103
0.00178693
0.00178693
0.00182103
0.00178693
0.00178693
0.00182367
0.0017843
0.00182103
0.00178693
0.00178693
0.0017843
0.00177821
0.00173884
0.00177557
0.00177557
0.00174147
0.00174147
0.00177821
0.00173884
0.00177557
0.00177557
0.00174147
0.00174147
0.00177557
0.00174147
0.00174147
0.00177821
0.00173884
0.00177557
0.00174147
0.00174147
0.00173884
0.00173274
0.00169337
0.0017301
0.0017301
0.00169601
0.00169601
0.00173274
0.00169337
0.0017301
0.0017301
0.00169601
0.00169601
0.0017301
0.00169601
0.00169601
0.00173274
0.00169337
0.0017301
0.00169601
0.00169601
0.00169337
0.00168728
0.00164791
0.00168464
0.00168464
0.00165054
0.00165054
0.00168728
0.00164791
0.00168464
0.00168464
0.00165054
0.00165054
0.00168464
0.00165054
0.00165054
0.00168728
0.00164791
0.00168464
0.00165054
0.00165054
0.00164791
0.00164182
0.00160245
0.00163918
0.00163918
0.00160508
0.00160508
0.00164182
0.00160245
0.00163918
0.00163918
0.00160508
0.00160508
0.00163918
0.00160508
0.00160508
0.00164182
0.00160245
0.00163918
0.00160508
0.00160508
0.00160245
0.00159635
0.00155698
0.00159371
0.00159371
0.00155962
0.00155962
0.00159635
0.00155698
0.00159371
0.00159371
0.00155962
0.00155962
0.00159371
0.00155962
0.00155962
0.00159635
0.00155698
0.00159371
0.00155962
0.00155962
0.00155698
0.00155089
0.00151152
0.00154825
0.00154825
0.00151415
0.00151415
0.00155089
0.00151152
0.00154825
0.00154825
0.00151415
0.00151415
0.00154825
0.00151415
0.00151415
0.00155089
0.00151152
0.00154825
0.00151415
0.00151415
0.00151152
0.00150542
0.00146605
0.00150279
0.00150279
0.00146869
0.00146869
0.00150542
0.00146605
0.00150279
0.00150279
0.00146869
0.00146869
0.00150279
0.00146869
0.00146869
0.00150542
0.00146605
0.00150279
0.00146869
0.00146869
0.00146605
0.00145996
0.00142059
0.00145732
0.00145732
0.00142322
0.00142322
0.00145996
0.00142059
0.00145732
0.00145732
0.00142322
0.00142322
0.00145732
0.00142322
0.00142322
0.00145996
0.00142059
0.00145732
0.00142322
0.00142322
0.00142059
0.0014145
0.00137513
0.00141186
0.00141186
0.00137776
0.00137776
0.0014145
0.00137513
0.00141186
0.00141186
0.00137776
0.00137776
0.00141186
0.00137776
0.00137776
0.0014145
0.00137513
0.00141186
0.00137776
0.00137776
0.00137513
0.00136903
0.00132967
0.00136639
0.00136639
0.0013323
0.0013323
0.00136903
0.00132967
0.00136639
0.00136639
0.0013323
0.0013323
0.00136639
0.0013323
0.0013323
0.00136903
0.00132967
0.00136639
0.0013323
0.0013323
0.00132967
0.00132358
0.00128423
0.00132094
0.00132094
0.00128686
0.00128686
0.00132358
0.00128423
0.00132094
0.00132094
0.00128686
0.00128686
0.00132094
0.00128686
0.00128686
0.00132358
0.00128423
0.00132094
0.00128686
0.00128686
0.00128423
0.00127813
0.00123876
0.0012755
0.0012755
0.0012414
0.0012414
0.00127813
0.00123876
0.0012755
0.00127549
0.0012414
0.0012414
0.00127549
0.0012414
0.0012414
0.00127813
0.00123876
0.00127549
0.0012414
0.0012414
0.00123876
0.00123267
0.0011933
0.00123003
0.00123003
0.00119594
0.00119594
0.00123267
0.0011933
0.00123003
0.00123003
0.00119594
0.00119594
0.00123003
0.00119594
0.00119594
0.00123267
0.0011933
0.00123003
0.00119594
0.00119594
0.0011933
0.00118721
0.00114785
0.00118457
0.00118457
0.00115048
0.00115048
0.00118721
0.00114785
0.00118457
0.00118457
0.00115048
0.00115048
0.00118457
0.00115048
0.00115048
0.00118721
0.00114785
0.00118457
0.00115048
0.00115048
0.00114785
0.00114175
0.00110239
0.00113911
0.00113911
0.00110502
0.00110502
0.00114175
0.00110239
0.00113911
0.00113911
0.00110502
0.00110502
0.00113911
0.00110502
0.00110502
0.00114175
0.00110239
0.00113911
0.00110502
0.00110502
0.00110239
0.00109629
0.00105693
0.00109366
0.00109366
0.00105956
0.00105956
0.00109629
0.00105693
0.00109366
0.00109366
0.00105956
0.00105956
0.00109366
0.00105956
0.00105956
0.00109629
0.00105693
0.00109366
0.00105956
0.00105956
0.00105693
0.00105084
0.00101147
0.0010482
0.0010482
0.0010141
0.0010141
0.00105084
0.00101147
0.0010482
0.0010482
0.0010141
0.0010141
0.0010482
0.0010141
0.0010141
0.00105084
0.00101147
0.0010482
0.0010141
0.0010141
0.00101147
0.00100538
0.00096601
0.00100274
0.00100274
0.000968643
0.000968643
0.00100538
0.00096601
0.00100274
0.00100274
0.000968643
0.000968643
0.00100274
0.000968643
0.000968643
0.00100538
0.00096601
0.00100274
0.000968643
0.000968643
0.00096601
0.000959917
0.000920549
0.000957278
0.000957278
0.000923182
0.000923182
0.000959917
0.000920549
0.000957278
0.000957278
0.000923182
0.000923182
0.000957278
0.000923182
0.000923182
0.000959917
0.000920549
0.000957278
0.000923182
0.000923182
0.000920549
0.000914456
0.000875086
0.000911816
0.000911816
0.000877719
0.000877719
0.000914455
0.000875086
0.000911816
0.000911816
0.000877719
0.000877719
0.000911817
0.000877719
0.000877719
0.000914456
0.000875086
0.000911816
0.000877719
0.000877719
0.000875086
0.000868992
0.000829621
0.000866353
0.000866353
0.000832254
0.000832254
0.000868992
0.000829621
0.000866353
0.000866353
0.000832254
0.000832254
0.000866353
0.000832254
0.000832255
0.000868992
0.000829621
0.000866353
0.000832254
0.000832254
0.000829621
0.000823527
0.000784157
0.000820888
0.000820888
0.00078679
0.00078679
0.000823527
0.000784157
0.000820888
0.000820888
0.00078679
0.00078679
0.000820888
0.00078679
0.00078679
0.000823527
0.000784156
0.000820888
0.00078679
0.00078679
0.000784157
0.000778063
0.000738693
0.000775424
0.000775424
0.000741326
0.000741326
0.000778063
0.000738693
0.000775424
0.000775424
0.000741326
0.000741326
0.000775424
0.000741326
0.000741326
0.000778063
0.000738693
0.000775424
0.000741326
0.000741326
0.000738693
0.000732599
0.000693229
0.00072996
0.00072996
0.000695862
0.000695862
0.000732599
0.000693229
0.00072996
0.00072996
0.000695862
0.000695862
0.00072996
0.000695862
0.000695862
0.000732599
0.000693229
0.00072996
0.000695862
0.000695862
0.000693229
0.000687135
0.000647765
0.000684496
0.000684496
0.000650398
0.000650398
0.000687135
0.000647765
0.000684496
0.000684496
0.000650398
0.000650398
0.000684496
0.000650398
0.000650398
0.000687135
0.000647765
0.000684496
0.000650398
0.000650398
0.000647765
0.000641671
0.0006023
0.000639032
0.000639032
0.000604933
0.000604933
0.000641671
0.000602299
0.000639032
0.000639032
0.000604933
0.000604933
0.000639032
0.000604933
0.000604933
0.000641671
0.0006023
0.000639032
0.000604933
0.000604933
0.0006023
0.000596206
0.000556836
0.000593567
0.000593566
0.00055947
0.000559469
0.000596205
0.000556836
0.000593567
0.000593567
0.00055947
0.00055947
0.000593567
0.000559469
0.00055947
0.000596207
0.000556836
0.000593567
0.00055947
0.000559469
0.000556836
0.000550743
0.000511389
0.000548105
0.000548105
0.00051402
0.000514022
0.000550744
0.000511391
0.000548105
0.000548105
0.000514019
0.000514018
0.000548105
0.000514022
0.000514021
0.000550743
0.000511387
0.000548105
0.000514018
0.00051402
0.00051139
0.000505297
0.000465926
0.000502658
0.00050266
0.00046856
0.000468559
0.000505298
0.000465926
0.000502657
0.000502656
0.000468561
0.000468562
0.000502659
0.000468559
0.00046856
0.000505296
0.000465927
0.000502658
0.000468562
0.00046856
0.000465926
0.000459832
0.000420459
0.000457193
0.000457192
0.000423092
0.000423092
0.000459831
0.000420459
0.000457193
0.000457193
0.000423092
0.000423092
0.000457192
0.000423092
0.000423092
0.000459832
0.000420459
0.000457192
0.000423092
0.000423092
0.000420458
0.000414365
0.000374992
0.000411725
0.000411725
0.000377625
0.000377625
0.000414364
0.000374992
0.000411725
0.000411725
0.000377625
0.000377625
0.000411725
0.000377625
0.000377626
0.000414365
0.000374992
0.000411725
0.000377625
0.000377625
0.000374992
0.000368898
0.000329524
0.000366259
0.000366259
0.000332158
0.000332158
0.000368898
0.000329525
0.000366259
0.000366259
0.000332158
0.000332158
0.000366259
0.000332158
0.000332158
0.000368898
0.000329524
0.000366259
0.000332158
0.000332158
0.000329524
0.00032343
0.000284054
0.000320791
0.00032079
0.000286688
0.000286687
0.00032343
0.000284054
0.00032079
0.000320791
0.000286688
0.000286688
0.000320791
0.000286688
0.000286688
0.00032343
0.000284054
0.00032079
0.000286688
0.000286688
0.000284054
0.000277959
0.000238582
0.00027532
0.00027532
0.000241215
0.000241215
0.000277959
0.000238582
0.00027532
0.00027532
0.000241215
0.000241215
0.00027532
0.000241216
0.000241216
0.00027796
0.000238582
0.00027532
0.000241215
0.000241215
0.000238582
0.000232487
0.000193109
0.000229847
0.000229847
0.000195743
0.000195743
0.000232487
0.000193109
0.000229847
0.000229847
0.000195743
0.000195743
0.000229848
0.000195743
0.000195743
0.000232487
0.000193109
0.000229847
0.000195743
0.000195743
0.000193109
0.000187014
0.000147636
0.000184374
0.000184374
0.00015027
0.00015027
0.000187014
0.000147636
0.000184374
0.000184374
0.00015027
0.000150269
0.000184375
0.00015027
0.00015027
0.000187014
0.000147636
0.000184375
0.000150269
0.00015027
0.000147636
0.000141541
0.000102164
0.000138902
0.000138902
0.000104807
0.000104807
0.000141541
0.000102164
0.000138902
0.000138901
0.000104807
0.000104806
0.000138902
0.000104807
0.000104806
0.000141541
0.000102162
0.000138902
0.000104806
0.000104806
0.000102162
9.60525e-05
5.66885e-05
9.34393e-05
9.34388e-05
5.92752e-05
5.92722e-05
9.60518e-05
5.66809e-05
9.34386e-05
9.34378e-05
5.92736e-05
5.92698e-05
9.34378e-05
5.92706e-05
5.92731e-05
9.60516e-05
5.66796e-05
9.34377e-05
5.92694e-05
5.92703e-05
5.66858e-05
5.04009e-05
1.52544e-05
4.7947e-05
4.7945e-05
1.74455e-05
1.74447e-05
5.0396e-05
1.52545e-05
4.79459e-05
4.79435e-05
1.7444e-05
1.744e-05
4.7944e-05
1.74424e-05
1.74378e-05
5.03938e-05
1.52498e-05
4.7941e-05
1.74401e-05
1.74396e-05
1.52486e-05
1.13982e-05
1.17312e-05
1.17316e-05
1.13994e-05
1.17299e-05
1.17275e-05
1.13069e-05
1.13051e-05
1.13045e-05
1.17262e-05
1.13954e-05
1.1727e-05
0.00430694
0.00431666
0.00431149
0.0043115
0.00433381
0.00432063
0.00434921
0.0043147
0.00433381
0.00432063
0.0043147
0.00434921
0.00432519
0.00435295
0.00435295
0.0042622
0.00428064
0.00429023
0.00425439
0.0042544
0.00425839
0.00426219
0.00428062
0.00429022
0.00425437
0.00428521
0.00428521
0.00428521
0.0042428
0.0042428
0.0042428
0.0042428
0.00425967
0.0042851
0.0042856
0.00426811
0.00428838
0.00425839
0.00426908
0.0042545
0.00425838
0.00425968
0.0042856
0.00428512
0.00426811
0.00428838
0.00426908
0.00425839
0.004291
0.00429099
0.00426287
0.00425759
0.00425759
0.00421682
0.00423166
0.00423362
0.00421634
0.00423139
0.00421625
0.00421682
0.00423165
0.00423362
0.00421634
0.00423158
0.00423158
0.00423158
0.00419683
0.00419683
0.00419683
0.00419683
0.00421684
0.00423318
0.00423153
0.00421997
0.00423323
0.00421704
0.0042199
0.00423138
0.00421624
0.00421685
0.00423153
0.00423319
0.00421997
0.00423323
0.0042199
0.00421705
0.00423245
0.00423246
0.00421705
0.00421672
0.00421674
0.00417112
0.00418808
0.00418813
0.0041711
0.00418809
0.0041711
0.00417112
0.00418808
0.00418813
0.0041711
0.00418539
0.00418539
0.00418539
0.00415124
0.00415124
0.00415124
0.00415124
0.00417119
0.00418811
0.00418535
0.00417395
0.00418809
0.00417115
0.00417397
0.00418809
0.0041711
0.00417119
0.00418535
0.00418811
0.00417396
0.00418809
0.00417397
0.00417115
0.00418813
0.00418813
0.00417131
0.00417111
0.00417111
0.00412566
0.00414267
0.00414267
0.00412565
0.00414267
0.00412565
0.00412565
0.00414267
0.00414267
0.00412565
0.00413987
0.00413987
0.00413987
0.00410576
0.00410576
0.00410576
0.00410576
0.00412572
0.00414264
0.00413985
0.00412847
0.00414261
0.00412568
0.00412848
0.00414267
0.00412565
0.00412572
0.00413985
0.00414264
0.00412847
0.00414261
0.00412848
0.00412568
0.00414268
0.00414268
0.00412584
0.00412565
0.00412565
0.00408019
0.00409721
0.0040972
0.00408018
0.00409721
0.00408018
0.00408019
0.00409721
0.0040972
0.00408018
0.00409439
0.00409439
0.00409439
0.00406029
0.00406029
0.00406029
0.00406029
0.00408025
0.00409717
0.00409437
0.004083
0.00409714
0.00408022
0.00408301
0.00409721
0.00408018
0.00408025
0.00409437
0.00409717
0.004083
0.00409714
0.004083
0.00408021
0.00409721
0.00409721
0.00408037
0.00408018
0.00408018
0.00403471
0.00405173
0.00405173
0.00403471
0.00405175
0.00403469
0.00403471
0.00405173
0.00405173
0.00403471
0.00404892
0.00404892
0.00404892
0.00401481
0.00401481
0.00401481
0.00401481
0.00403478
0.0040517
0.0040489
0.00403753
0.00405167
0.00403474
0.00403753
0.00405174
0.00403471
0.00403478
0.0040489
0.0040517
0.00403753
0.00405167
0.00403753
0.00403474
0.00405174
0.00405174
0.00403489