/*--------------------------------*- C++ -*----------------------------------*\
| =========                 |                                                 |
| \\      /  F ield         | OpenFOAM: The Open Source CFD Toolbox           |
|  \\    /   O peration     | Version:  2206                                  |
|   \\  /    A nd           | Website:  www.openfoam.com                      |
|    \\/     M anipulation  |                                                 |
\*---------------------------------------------------------------------------*/
FoamFile
{
    version     2.0;
    format      ascii;
    arch        "LSB;label=32;scalar=64";
    class       volScalarField;
    location    "7";
    object      Ux;
}
// * * * * * * * * * * * * * * * * * * * * * * * * * * * * * * * * * * * * * //

dimensions      [0 1 -1 0 0 0 0];

internalField   nonuniform List<scalar> 
171728
(
0.000103213
-0.000190328
0.00011827
-0.000233188
6.69643e-05
-8.61874e-05
5.29972e-05
-0.000137668
7.72443e-06
-8.66888e-06
5.69536e-06
-4.03597e-05
2.32948e-07
-7.05345e-07
6.46168e-07
-3.39286e-05
-2.7808e-07
-2.24349e-07
3.75429e-07
-3.36576e-05
-3.07241e-07
-2.06557e-07
3.64702e-07
-3.36455e-05
-3.05546e-07
-2.05551e-07
3.65415e-07
-3.36444e-05
-3.03504e-07
-2.04684e-07
3.65348e-07
-3.36437e-05
-3.05593e-07
-2.05974e-07
3.65044e-07
-3.36444e-05
-3.04827e-07
-2.04863e-07
3.65086e-07
-3.3644e-05
-3.01999e-07
-2.03326e-07
3.64841e-07
-3.36424e-05
-3.06864e-07
-2.04489e-07
3.63439e-07
-3.36425e-05
-3.06006e-07
-2.13324e-07
3.6391e-07
-3.3643e-05
-3.05204e-07
-2.11284e-07
3.63798e-07
-3.36443e-05
-3.08075e-07
-2.05715e-07
3.64299e-07
-3.36445e-05
-3.08286e-07
-2.06177e-07
3.65217e-07
-3.3646e-05
-3.0723e-07
-2.05837e-07
3.64634e-07
-3.3645e-05
-3.07028e-07
-2.05661e-07
3.64697e-07
-3.36448e-05
-3.04564e-07
-2.04395e-07
3.64274e-07
-3.36441e-05
-2.98882e-07
-2.01503e-07
3.64621e-07
-3.36437e-05
-2.95613e-07
-2.04389e-07
3.64943e-07
-3.36428e-05
-3.04494e-07
-2.06241e-07
3.6484e-07
-3.36432e-05
-3.06075e-07
-2.0533e-07
3.64961e-07
-3.36437e-05
-3.05856e-07
-2.06475e-07
3.65349e-07
-3.36448e-05
-3.06173e-07
-2.05924e-07
3.64904e-07
-3.36448e-05
-3.0618e-07
-2.05352e-07
3.64683e-07
-3.36441e-05
-3.06681e-07
-2.04621e-07
3.63923e-07
-3.36434e-05
-3.07357e-07
-2.04014e-07
3.6328e-07
-3.36428e-05
-3.06709e-07
-2.04572e-07
3.63961e-07
-3.36433e-05
-3.06746e-07
-2.04669e-07
3.63956e-07
-3.36436e-05
-3.06156e-07
-2.06058e-07
3.65191e-07
-3.36448e-05
-3.06211e-07
-2.06056e-07
3.65115e-07
-3.3645e-05
-3.06054e-07
-2.06427e-07
3.65518e-07
-3.36449e-05
-3.06272e-07
-2.05163e-07
3.64744e-07
-3.36436e-05
-3.07076e-07
-2.0451e-07
3.63578e-07
-3.36426e-05
-3.0665e-07
-2.03768e-07
3.63626e-07
-3.36433e-05
-3.07209e-07
-2.02878e-07
3.62904e-07
-3.36425e-05
-3.06588e-07
-2.05748e-07
3.64905e-07
-3.36449e-05
-3.063e-07
-2.05129e-07
3.64517e-07
-3.36445e-05
-3.05554e-07
-2.06084e-07
3.64429e-07
-3.36413e-05
-3.01207e-07
-2.03059e-07
3.63819e-07
-3.36427e-05
-3.09109e-07
-2.05122e-07
3.63944e-07
-3.36455e-05
-3.07773e-07
-2.04443e-07
3.62954e-07
-3.3644e-05
-3.07004e-07
-2.03895e-07
3.633e-07
-3.3643e-05
-3.06899e-07
-2.0464e-07
3.62694e-07
-3.36437e-05
-3.06585e-07
-2.0469e-07
3.6329e-07
-3.3644e-05
-3.05387e-07
-2.06595e-07
3.64905e-07
-3.36452e-05
-3.05885e-07
-2.06211e-07
3.64381e-07
-3.36453e-05
-3.06041e-07
-2.06392e-07
3.64536e-07
-3.36451e-05
-3.0614e-07
-2.05429e-07
3.63881e-07
-3.3645e-05
-3.06594e-07
-2.04092e-07
3.63165e-07
-3.36432e-05
-3.06686e-07
-2.04547e-07
3.63042e-07
-3.36436e-05
-3.06528e-07
-2.04432e-07
3.62889e-07
-3.36431e-05
-3.04694e-07
-2.05551e-07
3.64438e-07
-3.36435e-05
-3.03263e-07
-2.06323e-07
3.64775e-07
-3.36438e-05
-3.05007e-07
-2.07206e-07
3.64929e-07
-3.36459e-05
-3.04981e-07
-2.07144e-07
3.6494e-07
-3.36475e-05
-3.04785e-07
-2.07008e-07
3.64778e-07
-3.36464e-05
-3.05455e-07
-2.06137e-07
3.63972e-07
-3.36461e-05
-3.06155e-07
-2.0507e-07
3.63352e-07
-3.36448e-05
-3.04604e-07
-2.06724e-07
3.65036e-07
-3.36463e-05
-3.05064e-07
-2.0609e-07
3.64226e-07
-3.36461e-05
-3.04553e-07
-2.07951e-07
3.65485e-07
-3.36475e-05
-3.04351e-07
-2.08263e-07
3.66076e-07
-3.36475e-05
-3.04412e-07
-2.07279e-07
3.65047e-07
-3.36473e-05
-3.04789e-07
-2.06913e-07
3.65132e-07
-3.3647e-05
-3.058e-07
-2.0566e-07
3.63722e-07
-3.36458e-05
-3.05172e-07
-2.0601e-07
3.64008e-07
-3.3646e-05
-3.04851e-07
-2.05137e-07
3.65785e-07
-3.36467e-05
-3.04008e-07
-2.07371e-07
3.7361e-07
-3.36521e-05
-3.03912e-07
-2.07494e-07
3.68649e-07
-3.36506e-05
-3.03807e-07
-2.07842e-07
3.66444e-07
-3.36478e-05
-3.04535e-07
-2.07792e-07
3.65558e-07
-3.36477e-05
-3.05157e-07
-2.05802e-07
3.63926e-07
-3.3646e-05
-3.05118e-07
-2.06168e-07
3.64369e-07
-3.36459e-05
-3.05798e-07
-2.05041e-07
3.6371e-07
-3.36454e-05
-3.05244e-07
-2.06853e-07
3.64355e-07
-3.36463e-05
-3.05004e-07
-2.06283e-07
3.64704e-07
-3.36463e-05
-3.04265e-07
-2.08137e-07
3.65902e-07
-3.36481e-05
-3.04521e-07
-2.07772e-07
3.65451e-07
-3.36473e-05
-3.04526e-07
-2.07932e-07
3.65477e-07
-3.36477e-05
-3.05144e-07
-2.06432e-07
3.64598e-07
-3.36461e-05
-3.05331e-07
-2.05869e-07
3.64031e-07
-3.36462e-05
-3.05395e-07
-2.05908e-07
3.64166e-07
-3.36456e-05
-3.05296e-07
-2.05453e-07
3.63935e-07
-3.36459e-05
-3.04608e-07
-2.07421e-07
3.65112e-07
-3.36473e-05
-3.0426e-07
-2.07341e-07
3.65388e-07
-3.36478e-05
-3.0419e-07
-2.0792e-07
3.659e-07
-3.36477e-05
-3.0487e-07
-2.07488e-07
3.65298e-07
-3.36472e-05
-3.05032e-07
-2.06544e-07
3.64457e-07
-3.36467e-05
-3.05916e-07
-2.05285e-07
3.64018e-07
-3.36459e-05
-3.14024e-07
-2.10145e-07
3.66078e-07
-3.36346e-05
-3.54137e-07
-6.27659e-07
7.46851e-07
-3.29704e-05
-6.179e-06
-3.15464e-06
3.01378e-06
-2.14275e-05
-4.14573e-05
4.59863e-05
-3.73747e-05
5.32444e-05
0.000140003
0.000122081
-0.000122075
-0.000139995
0.000148696
0.000148678
8.89045e-05
-8.88976e-05
8.88818e-05
-8.88809e-05
-0.00014869
-0.000148687
0.000139996
0.00012205
-0.000122044
-0.000140004
0.000233212
9.47386e-05
0.000118335
-0.000118282
8.0578e-05
-8.05173e-05
-0.000233226
-9.46941e-05
0.000190359
0.000190301
0.00013084
0.00013084
-0.000190277
-0.000130798
-0.000130773
0.000233167
9.46762e-05
-0.000118251
8.06024e-05
-8.05767e-05
-9.46553e-05
0.0001378
-2.48157e-05
5.30088e-05
-5.29699e-05
1.05587e-05
-1.05482e-05
-0.00013777
2.48351e-05
8.62405e-05
8.62201e-05
1.63349e-05
1.63359e-05
-8.62115e-05
-1.63271e-05
-1.63325e-05
0.000137682
-2.48122e-05
-5.29681e-05
1.05371e-05
-1.0536e-05
2.48178e-05
4.03859e-05
-3.42968e-05
5.70869e-06
-5.70521e-06
9.79005e-07
-9.79982e-07
-4.03803e-05
3.43001e-05
8.67645e-06
8.68105e-06
1.24127e-06
1.24749e-06
-8.67174e-06
-1.24025e-06
-1.24855e-06
4.03573e-05
-3.4274e-05
-5.68516e-06
9.66796e-07
-9.66029e-07
3.42812e-05
3.39372e-05
-3.47163e-05
6.54795e-07
-6.56734e-07
3.97023e-07
-4.041e-07
-3.39385e-05
3.4715e-05
7.05357e-07
7.10152e-07
2.45343e-07
2.53944e-07
-7.13561e-07
-2.46117e-07
-2.53869e-07
3.3917e-05
-3.46904e-05
-6.45147e-07
3.88876e-07
-3.89194e-07
3.46969e-05
3.36637e-05
-3.47376e-05
3.81804e-07
-3.90565e-07
3.69036e-07
-3.81468e-07
-3.367e-05
3.47331e-05
2.25089e-07
2.31132e-07
2.04355e-07
2.13613e-07
-2.32152e-07
-2.05541e-07
-2.14276e-07
3.36451e-05
-3.47103e-05
-3.75095e-07
3.63233e-07
-3.63478e-07
3.47158e-05
3.36504e-05
-3.4736e-05
3.69728e-07
-3.82608e-07
3.70249e-07
-3.73662e-07
-3.36589e-05
3.47362e-05
2.06302e-07
2.13393e-07
2.04305e-07
2.13337e-07
-2.14881e-07
-2.03728e-07
-2.13539e-07
3.36327e-05
-3.47102e-05
-3.64451e-07
3.63784e-07
-3.62645e-07
3.47171e-05
3.36542e-05
-3.47338e-05
3.778e-07
-3.75798e-07
3.81565e-07
-3.7194e-07
-3.36548e-05
3.47371e-05
2.07818e-07
2.13925e-07
2.04922e-07
2.13597e-07
-2.13859e-07
-2.03831e-07
-2.12083e-07
3.36332e-05
-3.47098e-05
-3.63619e-07
3.63568e-07
-3.61435e-07
3.47177e-05
3.36547e-05
-3.47354e-05
3.74051e-07
-3.72612e-07
3.7396e-07
-3.73439e-07
-3.36534e-05
3.47359e-05
2.07416e-07
2.14154e-07
2.04727e-07
2.13507e-07
-2.1356e-07
-2.05183e-07
-2.12697e-07
3.36332e-05
-3.47094e-05
-3.63483e-07
3.63749e-07
-3.62236e-07
3.47169e-05
3.36535e-05
-3.47349e-05
3.74472e-07
-3.73361e-07
3.76397e-07
-3.73426e-07
-3.36545e-05
3.47388e-05
2.08851e-07
2.14591e-07
2.05625e-07
2.1371e-07
-2.1367e-07
-2.05062e-07
-2.12337e-07
3.36338e-05
-3.47094e-05
-3.62978e-07
3.63927e-07
-3.61777e-07
3.47173e-05
3.36546e-05
-3.47316e-05
3.7494e-07
-3.72771e-07
3.8459e-07
-3.73034e-07
-3.36524e-05
3.47452e-05
2.08132e-07
2.1371e-07
2.0455e-07
2.13432e-07
-2.12808e-07
-2.02696e-07
-2.10924e-07
3.36336e-05
-3.47101e-05
-3.62897e-07
3.63161e-07
-3.60439e-07
3.47187e-05
3.36562e-05
-3.47343e-05
3.86341e-07
-3.72781e-07
3.74305e-07
-3.75022e-07
-3.36511e-05
3.47441e-05
2.07013e-07
2.135e-07
2.03592e-07
2.12055e-07
-2.11596e-07
-2.03445e-07
-2.10589e-07
3.36328e-05
-3.47109e-05
-3.61699e-07
3.62526e-07
-3.60087e-07
3.47186e-05
3.36523e-05
-3.47359e-05
3.72512e-07
-3.74587e-07
3.71423e-07
-3.73886e-07
-3.36526e-05
3.47412e-05
2.05669e-07
2.12197e-07
2.01412e-07
2.10966e-07
-2.11255e-07
-2.1042e-07
-2.10942e-07
3.36316e-05
-3.47116e-05
-3.61003e-07
3.61811e-07
-3.59686e-07
3.4718e-05
3.3652e-05
-3.47367e-05
3.71938e-07
-3.73917e-07
3.71155e-07
-3.71995e-07
-3.36556e-05
3.47367e-05
2.04616e-07
2.11799e-07
2.01868e-07
2.1156e-07
-2.13112e-07
-2.11269e-07
-2.13026e-07
3.36311e-05
-3.47112e-05
-3.61693e-07
3.627e-07
-3.61252e-07
3.47173e-05
3.36523e-05
-3.47324e-05
3.73702e-07
-3.72571e-07
3.71191e-07
-3.74645e-07
-3.36588e-05
3.4739e-05
2.05678e-07
2.11878e-07
2.03393e-07
2.11923e-07
-2.14118e-07
-2.04274e-07
-2.12564e-07
3.36318e-05
-3.4711e-05
-3.6275e-07
3.62546e-07
-3.62142e-07
3.47173e-05
3.36532e-05
-3.47344e-05
3.70404e-07
-3.76855e-07
3.69117e-07
-3.88918e-07
-3.36585e-05
3.47353e-05
2.06728e-07
2.12678e-07
2.04461e-07
2.13408e-07
-2.13662e-07
-2.05866e-07
-2.14043e-07
3.36323e-05
-3.471e-05
-3.63506e-07
3.63266e-07
-3.63224e-07
3.47161e-05
3.36516e-05
-3.47321e-05
3.68882e-07
-3.80274e-07
3.71901e-07
-3.75304e-07
-3.36596e-05
3.47376e-05
2.07476e-07
2.14135e-07
2.04882e-07
2.12995e-07
-2.15065e-07
-2.05817e-07
-2.1337e-07
3.36335e-05
-3.471e-05
-3.64833e-07
3.63183e-07
-3.62567e-07
3.47167e-05
3.36528e-05
-3.47333e-05
3.71524e-07
-3.75272e-07
3.71953e-07
-3.73899e-07
-3.36548e-05
3.47387e-05
2.08106e-07
2.13455e-07
2.04568e-07
2.1322e-07
-2.14099e-07
-2.05147e-07
-2.12734e-07
3.36331e-05
-3.471e-05
-3.63795e-07
3.63434e-07
-3.6222e-07
3.47173e-05
3.36521e-05
-3.47353e-05
3.69846e-07
-3.7418e-07
3.7619e-07
-3.76421e-07
-3.3654e-05
3.47387e-05
2.06971e-07
2.13365e-07
2.0256e-07
2.12419e-07
-2.13761e-07
-2.03783e-07
-2.1194e-07
3.36335e-05
-3.47107e-05
-3.63407e-07
3.62582e-07
-3.6094e-07
3.47179e-05
3.36538e-05
-3.47395e-05
3.75479e-07
-3.83817e-07
3.73696e-07
-3.69958e-07
-3.36596e-05
3.47453e-05
2.05874e-07
2.1337e-07
2.03182e-07
2.11736e-07
-2.14087e-07
-2.01341e-07
-2.17347e-07
3.36329e-05
-3.47109e-05
-3.61625e-07
3.62808e-07
-3.59078e-07
3.47175e-05
3.36551e-05
-3.47448e-05
3.8068e-07
-3.57962e-07
3.75657e-07
-3.76337e-07
-3.36398e-05
3.47343e-05
2.07953e-07
2.11623e-07
2.06915e-07
2.12189e-07
-2.17442e-07
-2.07608e-07
-2.09652e-07
3.36325e-05
-3.47102e-05
-3.59943e-07
3.63721e-07
-3.59702e-07
3.47188e-05
3.36534e-05
-3.47414e-05
3.80981e-07
-3.65842e-07
3.73163e-07
-3.71503e-07
-3.3653e-05
3.4739e-05
2.12015e-07
2.13162e-07
2.05139e-07
2.12636e-07
-2.11204e-07
-2.05983e-07
-2.10919e-07
3.36326e-05
-3.47107e-05
-3.6102e-07
3.6341e-07
-3.60515e-07
3.47183e-05
3.36583e-05
-3.47407e-05
3.73237e-07
-3.72691e-07
3.72495e-07
-3.73056e-07
-3.36534e-05
3.47371e-05
2.07044e-07
2.12437e-07
2.04073e-07
2.12085e-07
-2.12607e-07
-2.0408e-07
-2.11286e-07
3.36324e-05
-3.47106e-05
-3.62884e-07
3.62634e-07
-3.61234e-07
3.47179e-05
3.36591e-05
-3.47394e-05
3.73914e-07
-3.74387e-07
3.74226e-07
-3.75058e-07
-3.36544e-05
3.47363e-05
2.08507e-07
2.13345e-07
2.06178e-07
2.14014e-07
-2.1244e-07
-2.06227e-07
-2.13431e-07
3.36326e-05
-3.47094e-05
-3.6289e-07
3.64179e-07
-3.62423e-07
3.47171e-05
3.36602e-05
-3.47396e-05
3.74243e-07
-3.7509e-07
3.73662e-07
-3.7449e-07
-3.36555e-05
3.47361e-05
2.08965e-07
2.14378e-07
2.04843e-07
2.13414e-07
-2.14804e-07
-2.05156e-07
-2.12548e-07
3.36338e-05
-3.47097e-05
-3.6426e-07
3.63516e-07
-3.62399e-07
3.47168e-05
3.36598e-05
-3.47398e-05
3.73786e-07
-3.74575e-07
3.73399e-07
-3.74233e-07
-3.36553e-05
3.47363e-05
2.08217e-07
2.13286e-07
2.04881e-07
2.1283e-07
-2.13173e-07
-2.04759e-07
-2.11647e-07
3.36332e-05
-3.471e-05
-3.63626e-07
3.63209e-07
-3.61792e-07
3.47174e-05
3.36596e-05
-3.47409e-05
3.73611e-07
-3.74234e-07
3.72769e-07
-3.73609e-07
-3.36551e-05
3.47376e-05
2.08168e-07
2.13452e-07
2.03891e-07
2.11996e-07
-2.1178e-07
-2.04149e-07
-2.10808e-07
3.36329e-05
-3.47112e-05
-3.62204e-07
3.62777e-07
-3.61013e-07
3.47181e-05
3.36585e-05
-3.47409e-05
3.72724e-07
-3.73505e-07
3.71867e-07
-3.72596e-07
-3.36538e-05
3.47377e-05
2.07014e-07
2.11776e-07
2.02938e-07
2.10956e-07
-2.12522e-07
-2.02921e-07
-2.10356e-07
3.36318e-05
-3.47112e-05
-3.63087e-07
3.61798e-07
-3.6062e-07
3.47182e-05
3.3658e-05
-3.47408e-05
3.7168e-07
-3.72935e-07
3.72854e-07
-3.73691e-07
-3.36533e-05
3.47375e-05
2.05979e-07
2.11302e-07
2.03517e-07
2.11715e-07
-2.10822e-07
-2.0399e-07
-2.10792e-07
3.36313e-05
-3.4711e-05
-3.61604e-07
3.62738e-07
-3.61232e-07
3.47183e-05
3.36587e-05
-3.47404e-05
3.72992e-07
-3.73723e-07
3.72335e-07
-3.71956e-07
-3.3654e-05
3.47377e-05
2.07175e-07
2.12063e-07
2.03475e-07
2.11323e-07
-2.1158e-07
-2.03263e-07
-2.10212e-07
3.36319e-05
-3.47109e-05
-3.62211e-07
3.62015e-07
-3.6068e-07
3.47183e-05
3.36589e-05
-3.47393e-05
3.7253e-07
-3.74892e-07
3.7393e-07
-3.71648e-07
-3.36541e-05
3.47362e-05
2.06767e-07
2.12091e-07
2.05552e-07
2.13623e-07
-2.1219e-07
-2.05804e-07
-2.12777e-07
3.36321e-05
-3.47095e-05
-3.62977e-07
3.64049e-07
-3.62511e-07
3.47171e-05
3.36604e-05
-3.47397e-05
3.73841e-07
-3.80106e-07
3.7339e-07
-3.72428e-07
-3.36565e-05
3.47375e-05
2.08554e-07
2.13541e-07
2.04799e-07
2.12755e-07
-2.13497e-07
-2.04956e-07
-2.12051e-07
3.36337e-05
-3.471e-05
-3.63712e-07
3.63211e-07
-3.62268e-07
3.4717e-05
3.36601e-05
-3.47388e-05
3.73716e-07
-3.76777e-07
3.74046e-07
-3.75978e-07
-3.36562e-05
3.47374e-05
2.08406e-07
2.13757e-07
2.05694e-07
2.14003e-07
-2.13643e-07
-2.05432e-07
-2.12489e-07
3.36333e-05
-3.47093e-05
-3.63987e-07
3.64051e-07
-3.62327e-07
3.47171e-05
3.36607e-05
-3.47402e-05
3.74267e-07
-3.76231e-07
3.73252e-07
-3.75079e-07
-3.36557e-05
3.47383e-05
2.08975e-07
2.14099e-07
2.04789e-07
2.12884e-07
-2.13909e-07
-2.04376e-07
-2.11177e-07
3.36339e-05
-3.47106e-05
-3.63967e-07
3.63106e-07
-3.61392e-07
3.47178e-05
3.36593e-05
-3.47414e-05
3.73538e-07
-3.75447e-07
3.7206e-07
-3.73637e-07
-3.36545e-05
3.47397e-05
2.0811e-07
2.13333e-07
2.02965e-07
2.11084e-07
-2.12592e-07
-2.02991e-07
-2.10173e-07
3.36324e-05
-3.47115e-05
-3.63141e-07
3.61744e-07
-3.60347e-07
3.47185e-05
3.3658e-05
-3.47406e-05
3.72345e-07
-3.74234e-07
3.72686e-07
-3.74393e-07
-3.3653e-05
3.47387e-05
2.06591e-07
2.11757e-07
2.03678e-07
2.11606e-07
-2.11727e-07
-2.03955e-07
-2.10948e-07
3.36312e-05
-3.47109e-05
-3.62086e-07
3.62562e-07
-3.61429e-07
3.47174e-05
3.36584e-05
-3.47415e-05
3.72712e-07
-3.74165e-07
3.71335e-07
-3.73047e-07
-3.36537e-05
3.47398e-05
2.06845e-07
2.11697e-07
2.0227e-07
2.10165e-07
-2.10709e-07
-2.02058e-07
-2.0908e-07
3.36316e-05
-3.47115e-05
-3.61706e-07
3.61429e-07
-3.5979e-07
3.47186e-05
3.36578e-05
-3.47401e-05
3.717e-07
-3.73224e-07
3.72971e-07
-3.75043e-07
-3.36528e-05
3.4738e-05
2.05912e-07
2.11077e-07
2.04275e-07
2.12339e-07
-2.09955e-07
-2.04934e-07
-2.11962e-07
3.36311e-05
-3.47099e-05
-3.60782e-07
3.63224e-07
-3.62145e-07
3.47166e-05
3.36592e-05
-3.47398e-05
3.73213e-07
-3.75423e-07
3.72985e-07
-3.75924e-07
-3.36546e-05
3.47376e-05
2.07589e-07
2.1299e-07
2.0485e-07
2.12912e-07
-2.13215e-07
-2.04855e-07
-2.1206e-07
3.3633e-05
-3.47098e-05
-3.63723e-07
3.63405e-07
-3.62491e-07
3.47165e-05
3.36596e-05
-3.47398e-05
3.73901e-07
-3.74686e-07
3.71292e-07
-3.76168e-07
-3.3655e-05
3.47389e-05
2.0811e-07
2.13403e-07
2.06626e-07
2.14086e-07
-2.12986e-07
-2.05504e-07
-2.15651e-07
3.3633e-05
-3.47108e-05
-3.62929e-07
3.62976e-07
-3.61711e-07
3.472e-05
3.36574e-05
-3.47295e-05
3.72256e-07
-3.76434e-07
3.73607e-07
-3.75448e-07
-3.36534e-05
3.47372e-05
2.11536e-07
2.15352e-07
2.12733e-07
2.14613e-07
-2.20582e-07
-2.00967e-07
-2.18793e-07
3.36328e-05
-3.47108e-05
-3.61053e-07
3.62117e-07
-3.57483e-07
3.47201e-05
3.36655e-05
-3.47413e-05
3.77321e-07
-3.72139e-07
3.66973e-07
-3.79109e-07
-3.36575e-05
3.4734e-05
2.15163e-07
2.14393e-07
2.0274e-07
2.12697e-07
-2.1492e-07
-2.05572e-07
-2.13636e-07
3.36327e-05
-3.47105e-05
-3.60589e-07
3.62746e-07
-3.6225e-07
3.47167e-05
3.36558e-05
-3.47383e-05
3.71441e-07
-3.84751e-07
3.69781e-07
-3.7499e-07
-3.36622e-05
3.4737e-05
2.07183e-07
2.12988e-07
2.0319e-07
2.11566e-07
-2.13797e-07
-2.03854e-07
-2.11462e-07
3.36327e-05
-3.47114e-05
-3.63254e-07
3.61776e-07
-3.61416e-07
3.47174e-05
3.36543e-05
-3.47376e-05
3.70276e-07
-3.74148e-07
3.70828e-07
-3.724e-07
-3.36558e-05
3.47398e-05
2.06383e-07
2.11786e-07
2.03533e-07
2.1111e-07
-2.12075e-07
-2.02725e-07
-2.09845e-07
3.36315e-05
-3.47116e-05
-3.62342e-07
3.61772e-07
-3.60413e-07
3.47184e-05
3.36548e-05
-3.47374e-05
3.70741e-07
-3.72936e-07
3.71179e-07
-3.73101e-07
-3.36532e-05
3.47392e-05
2.06438e-07
2.11971e-07
2.03887e-07
2.11777e-07
-2.11196e-07
-2.04123e-07
-2.11069e-07
3.36312e-05
-3.47113e-05
-3.62084e-07
3.62673e-07
-3.6147e-07
3.47178e-05
3.3655e-05
-3.47373e-05
3.70917e-07
-3.7302e-07
3.70867e-07
-3.72653e-07
-3.36537e-05
3.47397e-05
2.06715e-07
2.11997e-07
2.03492e-07
2.11159e-07
-2.11882e-07
-2.03875e-07
-2.11001e-07
3.36316e-05
-3.47113e-05
-3.62297e-07
3.62486e-07
-3.61792e-07
3.47178e-05
3.36554e-05
-3.47353e-05
3.71205e-07
-3.73166e-07
3.73186e-07
-3.74205e-07
-3.36536e-05
3.47382e-05
2.06968e-07
2.1238e-07
2.06547e-07
2.13445e-07
-2.11795e-07
-2.05595e-07
-2.12097e-07
3.36319e-05
-3.47097e-05
-3.62425e-07
3.64062e-07
-3.62185e-07
3.47168e-05
3.36574e-05
-3.4736e-05
3.73348e-07
-3.74669e-07
3.72728e-07
-3.74107e-07
-3.36552e-05
3.47385e-05
2.09721e-07
2.14538e-07
2.05847e-07
2.13416e-07
-2.13648e-07
-2.05785e-07
-2.12256e-07
3.36335e-05
-3.471e-05
-3.6343e-07
3.63971e-07
-3.6238e-07
3.47165e-05
3.36567e-05
-3.47361e-05
3.72377e-07
-3.74126e-07
3.72598e-07
-3.74096e-07
-3.36549e-05
3.47383e-05
2.08345e-07
2.13442e-07
2.05665e-07
2.13186e-07
-2.13437e-07
-2.0568e-07
-2.12566e-07
3.36331e-05
-3.471e-05
-3.63781e-07
3.6415e-07
-3.62854e-07
3.47168e-05
3.36568e-05
-3.47364e-05
3.72394e-07
-3.74316e-07
3.72165e-07
-3.73869e-07
-3.3655e-05
3.47383e-05
2.08504e-07
2.13786e-07
2.05261e-07
2.13011e-07
-2.13707e-07
-2.05545e-07
-2.12587e-07
3.36333e-05
-3.47101e-05
-3.63959e-07
3.63659e-07
-3.62826e-07
3.47165e-05
3.36562e-05
-3.47376e-05
3.72033e-07
-3.73759e-07
3.71491e-07
-3.72661e-07
-3.36548e-05
3.47397e-05
2.07974e-07
2.1318e-07
2.04035e-07
2.11563e-07
-2.12334e-07
-2.03266e-07
-2.096e-07
3.36328e-05
-3.47116e-05
-3.62846e-07
3.6256e-07
-3.60543e-07
3.47185e-05
3.36551e-05
-3.47377e-05
3.71508e-07
-3.72817e-07
3.7152e-07
-3.72755e-07
-3.36533e-05
3.47398e-05
2.07067e-07
2.12221e-07
2.04123e-07
2.11674e-07
-2.11185e-07
-2.03839e-07
-2.10397e-07
3.36313e-05
-3.47114e-05
-3.61863e-07
3.62746e-07
-3.609e-07
3.47182e-05
3.3655e-05
-3.47378e-05
3.71198e-07
-3.72843e-07
3.71026e-07
-3.72324e-07
-3.36535e-05
3.47403e-05
2.06617e-07
2.11557e-07
2.03593e-07
2.1084e-07
-2.11633e-07
-2.03644e-07
-2.10123e-07
3.36315e-05
-3.47115e-05
-3.62379e-07
3.62391e-07
-3.61092e-07
3.47184e-05
3.36551e-05
-3.47353e-05
3.7107e-07
-3.72468e-07
3.72979e-07
-3.71111e-07
-3.36532e-05
3.47388e-05
2.0665e-07
2.11515e-07
2.05362e-07
2.12087e-07
-2.11139e-07
-2.04519e-07
-2.10629e-07
3.36314e-05
-3.47104e-05
-3.62036e-07
3.63145e-07
-3.6127e-07
3.4718e-05
3.36573e-05
-3.47335e-05
3.74074e-07
-3.73074e-07
3.75945e-07
-3.6278e-07
-3.36535e-05
3.47417e-05
2.09634e-07
2.13423e-07
2.07177e-07
2.13405e-07
-2.11906e-07
-2.04654e-07
-2.10705e-07
3.36325e-05
-3.471e-05
-3.62556e-07
3.6401e-07
-3.61191e-07
3.47179e-05
3.36584e-05
-3.47354e-05
3.76097e-07
-3.61098e-07
3.73763e-07
-3.72391e-07
-3.36514e-05
3.47394e-05
2.1051e-07
2.13909e-07
2.06736e-07
2.13668e-07
-2.12011e-07
-2.05886e-07
-2.13369e-07
3.36326e-05
-3.47096e-05
-3.62587e-07
3.64431e-07
-3.62359e-07
3.47162e-05
3.36573e-05
-3.47361e-05
3.73425e-07
-3.73596e-07
3.73032e-07
-3.73591e-07
-3.36552e-05
3.47373e-05
2.09321e-07
2.13574e-07
2.053e-07
2.11636e-07
-2.15767e-07
-2.07007e-07
-2.2036e-07
3.36334e-05
-3.47103e-05
-3.63099e-07
3.64629e-07
-3.61146e-07
3.47142e-05
3.36564e-05
-3.47369e-05
3.72515e-07
-3.73336e-07
3.72477e-07
-3.72607e-07
-3.36559e-05
3.47379e-05
2.07939e-07
2.11359e-07
2.04328e-07
2.10067e-07
-2.21061e-07
-2.05719e-07
-2.18102e-07
3.36326e-05
-3.47116e-05
-3.61776e-07
3.63948e-07
-3.60037e-07
3.4715e-05
3.36555e-05
-3.47375e-05
3.72724e-07
-3.73031e-07
3.72157e-07
-3.7267e-07
-3.3655e-05
3.47382e-05
2.076e-07
2.10457e-07
2.04e-07
2.09876e-07
-2.20629e-07
-2.06092e-07
-2.18795e-07
3.36312e-05
-3.4712e-05
-3.62037e-07
3.64036e-07
-3.60732e-07
3.47151e-05
3.36547e-05
-3.47386e-05
3.71515e-07
-3.72403e-07
3.70799e-07
-3.71282e-07
-3.36547e-05
3.47393e-05
2.06412e-07
2.09635e-07
2.02005e-07
2.0786e-07
-2.19678e-07
-2.04323e-07
-2.16897e-07
3.36307e-05
-3.47129e-05
-3.61332e-07
3.62781e-07
-3.59317e-07
3.47166e-05
3.36536e-05
-3.47371e-05
3.70473e-07
-3.71542e-07
3.71907e-07
-3.72475e-07
-3.36537e-05
3.47378e-05
2.04945e-07
2.08266e-07
2.03845e-07
2.099e-07
-2.18568e-07
-2.05744e-07
-2.18412e-07
3.36299e-05
-3.47115e-05
-3.60516e-07
3.63914e-07
-3.60201e-07
3.47153e-05
3.36555e-05
-3.47376e-05
3.72551e-07
-3.73105e-07
3.72293e-07
-3.72531e-07
-3.36553e-05
3.47383e-05
2.07577e-07
2.10751e-07
2.03792e-07
2.09641e-07
-2.20274e-07
-2.05659e-07
-2.18555e-07
3.36314e-05
-3.47125e-05
-3.6174e-07
3.63749e-07
-3.60594e-07
3.47156e-05
3.36548e-05
-3.47366e-05
3.71755e-07
-3.72447e-07
3.72751e-07
-3.73461e-07
-3.36549e-05
3.47373e-05
2.06567e-07
2.09941e-07
2.04605e-07
2.10556e-07
-2.19795e-07
-2.06786e-07
-2.1955e-07
3.36306e-05
-3.47112e-05
-3.61174e-07
3.64667e-07
-3.61243e-07
3.47146e-05
3.36562e-05
-3.47363e-05
3.72747e-07
-3.73893e-07
3.73101e-07
-3.73695e-07
-3.36561e-05
3.47369e-05
2.07941e-07
2.11265e-07
2.05295e-07
2.11197e-07
-2.21901e-07
-2.07363e-07
-2.20005e-07
3.36321e-05
-3.47105e-05
-3.62986e-07
3.65166e-07
-3.61641e-07
3.47141e-05
3.36564e-05
-3.4736e-05
3.73343e-07
-3.74201e-07
3.73593e-07
-3.73538e-07
-3.36563e-05
3.47374e-05
2.08529e-07
2.11839e-07
2.05797e-07
2.11008e-07
-2.21806e-07
-2.07189e-07
-2.1998e-07
3.36325e-05
-3.47112e-05
-3.62986e-07
3.65024e-07
-3.61761e-07
3.47144e-05
3.36564e-05
-3.47372e-05
3.72851e-07
-3.73258e-07
3.72884e-07
-3.73173e-07
-3.36558e-05
3.47379e-05
2.07383e-07
2.10756e-07
2.05075e-07
2.10237e-07
-2.20501e-07
-2.0652e-07
-2.19224e-07
3.36319e-05
-3.47115e-05
-3.61951e-07
3.64687e-07
-3.61485e-07
3.47148e-05
3.36553e-05
-3.47382e-05
3.7257e-07
-3.73143e-07
3.71088e-07
-3.71526e-07
-3.36552e-05
3.4739e-05
2.07029e-07
2.10594e-07
2.03091e-07
2.08447e-07
-2.2083e-07
-2.04973e-07
-2.18004e-07
3.36315e-05
-3.47125e-05
-3.62634e-07
3.63118e-07
-3.60418e-07
3.47156e-05
3.36542e-05
-3.47375e-05
3.70907e-07
-3.7182e-07
3.71882e-07
-3.72073e-07
-3.36539e-05
3.47382e-05
2.05262e-07
2.09098e-07
2.04197e-07
2.09614e-07
-2.19401e-07
-2.04994e-07
-2.17803e-07
3.36304e-05
-3.47122e-05
-3.61167e-07
3.6359e-07
-3.5997e-07
3.47158e-05
3.36546e-05
-3.47383e-05
3.7169e-07
-3.72197e-07
3.71491e-07
-3.71362e-07
-3.36544e-05
3.47392e-05
2.05972e-07
2.09621e-07
2.03101e-07
2.09533e-07
-2.2004e-07
-2.04008e-07
-2.17987e-07
3.36307e-05
-3.47111e-05
-3.61724e-07
3.63851e-07
-3.60769e-07
3.47147e-05
3.36538e-05
-3.47371e-05
3.71858e-07
-3.71971e-07
3.72191e-07
-3.73262e-07
-3.36535e-05
3.4737e-05
2.05835e-07
2.10679e-07
2.04158e-07
2.13624e-07
-2.20324e-07
-2.0704e-07
-2.2335e-07
3.36317e-05
-3.47038e-05
-3.63069e-07
3.71321e-07
-3.68003e-07
3.47081e-05
3.36549e-05
-3.47366e-05
3.72327e-07
-3.73421e-07
3.72831e-07
-3.72866e-07
-3.36552e-05
3.47378e-05
2.06581e-07
2.14981e-07
2.05136e-07
2.12843e-07
-2.25242e-07
-2.0619e-07
-2.21779e-07
3.36376e-05
-3.47077e-05
-3.69533e-07
3.69799e-07
-3.67548e-07
3.47104e-05
3.36556e-05
-3.47365e-05
3.72825e-07
-3.73258e-07
3.72852e-07
-3.73296e-07
-3.36551e-05
3.47372e-05
2.07295e-07
2.1249e-07
2.05168e-07
2.11292e-07
-2.23183e-07
-2.06956e-07
-2.20402e-07
3.36347e-05
-3.47103e-05
-3.67461e-07
3.6555e-07
-3.62541e-07
3.47138e-05
3.36561e-05
-3.47364e-05
3.73485e-07
-3.73801e-07
3.73144e-07
-3.73737e-07
-3.36559e-05
3.47367e-05
2.08314e-07
2.12065e-07
2.05561e-07
2.11294e-07
-2.21769e-07
-2.07191e-07
-2.19747e-07
3.36328e-05
-3.47103e-05
-3.63445e-07
3.65256e-07
-3.61793e-07
3.4714e-05
3.36559e-05
-3.47375e-05
3.72604e-07
-3.73954e-07
3.72171e-07
-3.72691e-07
-3.36563e-05
3.47385e-05
2.07169e-07
2.11545e-07
2.04241e-07
2.09598e-07
-2.21616e-07
-2.05763e-07
-2.18832e-07
3.36324e-05
-3.47121e-05
-3.63066e-07
3.64129e-07
-3.61339e-07
3.47152e-05
3.36547e-05
-3.47378e-05
3.71878e-07
-3.72024e-07
3.71929e-07
-3.7209e-07
-3.36542e-05
3.47383e-05
2.06174e-07
2.09471e-07
2.03873e-07
2.09609e-07
-2.19733e-07
-2.05105e-07
-2.17693e-07
3.36304e-05
-3.47121e-05
-3.61937e-07
3.63477e-07
-3.60131e-07
3.47156e-05
3.36545e-05
-3.47385e-05
3.72063e-07
-3.72637e-07
3.71097e-07
-3.71943e-07
-3.36546e-05
3.47385e-05
2.06251e-07
2.09819e-07
2.0321e-07
2.08829e-07
-2.20426e-07
-2.04712e-07
-2.17536e-07
3.36307e-05
-3.4712e-05
-3.62342e-07
3.63537e-07
-3.60629e-07
3.47158e-05
3.36535e-05
-3.47378e-05
3.71061e-07
-3.71851e-07
3.71684e-07
-3.71969e-07
-3.36541e-05
3.47384e-05
2.05259e-07
2.09172e-07
2.03906e-07
2.08968e-07
-2.17943e-07
-2.05508e-07
-2.1792e-07
3.36303e-05
-3.4712e-05
-3.60364e-07
3.63437e-07
-3.60407e-07
3.47156e-05
3.36547e-05
-3.47372e-05
3.71808e-07
-3.72501e-07
3.72263e-07
-3.72794e-07
-3.36547e-05
3.47382e-05
2.06317e-07
2.09515e-07
2.04352e-07
2.10047e-07
-2.20712e-07
-2.05843e-07
-2.18462e-07
3.36309e-05
-3.47115e-05
-3.62693e-07
3.64313e-07
-3.61128e-07
3.47153e-05
3.36553e-05
-3.47367e-05
3.72036e-07
-3.72844e-07
3.72824e-07
-3.7374e-07
-3.3655e-05
3.4737e-05
2.06349e-07
2.10021e-07
2.0543e-07
2.10708e-07
-2.20195e-07
-2.07468e-07
-2.20005e-07
3.36315e-05
-3.47107e-05
-3.62442e-07
3.65086e-07
-3.62246e-07
3.47138e-05
3.3656e-05
-3.47368e-05
3.73625e-07
-3.73958e-07
3.73043e-07
-3.73365e-07
-3.36563e-05
3.47371e-05
2.08468e-07
2.11881e-07
2.05629e-07
2.10974e-07
-2.21802e-07
-2.07454e-07
-2.19784e-07
3.36326e-05
-3.47109e-05
-3.63409e-07
3.64733e-07
-3.61665e-07
3.47145e-05
3.36556e-05
-3.47365e-05
3.72575e-07
-3.7357e-07
3.73065e-07
-3.73757e-07
-3.3656e-05
3.47367e-05
2.07465e-07
2.11152e-07
2.05649e-07
2.10845e-07
-2.21202e-07
-2.07292e-07
-2.19797e-07
3.36322e-05
-3.47106e-05
-3.62824e-07
3.65212e-07
-3.62198e-07
3.47138e-05
3.36561e-05
-3.47376e-05
3.72937e-07
-3.73654e-07
3.72032e-07
-3.71909e-07
-3.36562e-05
3.47388e-05
2.07665e-07
2.10859e-07
2.04443e-07
2.0918e-07
-2.21663e-07
-2.05745e-07
-2.1879e-07
3.36322e-05
-3.47121e-05
-3.63445e-07
3.63454e-07
-3.61007e-07
3.47151e-05
3.36547e-05
-3.4738e-05
3.72174e-07
-3.7275e-07
3.71674e-07
-3.7231e-07
-3.36541e-05
3.47383e-05
2.06678e-07
2.10059e-07
2.0379e-07
2.09157e-07
-2.19363e-07
-2.05465e-07
-2.17551e-07
3.36307e-05
-3.4712e-05
-3.61647e-07
3.63686e-07
-3.60326e-07
3.47151e-05
3.36544e-05
-3.47382e-05
3.71641e-07
-3.72014e-07
3.71703e-07
-3.71967e-07
-3.36544e-05
3.47385e-05
2.059e-07
2.08932e-07
2.03578e-07
2.08526e-07
-2.19508e-07
-2.05381e-07
-2.17614e-07
3.36306e-05
-3.47124e-05
-3.62058e-07
3.63518e-07
-3.60622e-07
3.4716e-05
3.36541e-05
-3.47383e-05
3.71712e-07
-3.72352e-07
3.71334e-07
-3.71675e-07
-3.36544e-05
3.47387e-05
2.05758e-07
2.09224e-07
2.03685e-07
2.0899e-07
-2.19168e-07
-2.04761e-07
-2.17917e-07
3.36304e-05
-3.47124e-05
-3.6131e-07
3.63095e-07
-3.60257e-07
3.47154e-05
3.36541e-05
-3.47372e-05
3.71274e-07
-3.72036e-07
3.72333e-07
-3.72623e-07
-3.36543e-05
3.47375e-05
2.05626e-07
2.09461e-07
2.04657e-07
2.09906e-07
-2.19559e-07
-2.06038e-07
-2.19071e-07
3.36303e-05
-3.47113e-05
-3.61927e-07
3.64152e-07
-3.61732e-07
3.47141e-05
3.36555e-05
-3.47366e-05
3.72938e-07
-3.73355e-07
3.731e-07
-3.73761e-07
-3.36555e-05
3.4737e-05
2.07149e-07
2.10789e-07
2.05747e-07
2.11233e-07
-2.20619e-07
-2.07387e-07
-2.19879e-07
3.36314e-05
-3.47105e-05
-3.62713e-07
3.65327e-07
-3.62293e-07
3.47139e-05
3.36562e-05
-3.47366e-05
3.73246e-07
-3.73437e-07
3.73155e-07
-3.73346e-07
-3.36562e-05
3.47369e-05
2.07648e-07
2.11377e-07
2.0576e-07
2.11029e-07
-2.21604e-07
-2.06975e-07
-2.20073e-07
3.36315e-05
-3.47106e-05
-3.63074e-07
3.64839e-07
-3.62078e-07
3.47139e-05
3.36562e-05
-3.47371e-05
3.7319e-07
-3.73904e-07
3.7284e-07
-3.73391e-07
-3.36563e-05
3.47373e-05
2.08009e-07
2.11481e-07
2.05128e-07
2.104e-07
-2.21338e-07
-2.06896e-07
-2.19556e-07
3.36317e-05
-3.47109e-05
-3.62951e-07
3.65149e-07
-3.61699e-07
3.47144e-05
3.36557e-05
-3.47374e-05
3.72099e-07
-3.73302e-07
3.71923e-07
-3.72669e-07
-3.36556e-05
3.47377e-05
2.06946e-07
2.10366e-07
2.04768e-07
2.10072e-07
-2.20954e-07
-2.06576e-07
-2.18949e-07
3.36308e-05
-3.47116e-05
-3.62649e-07
3.63792e-07
-3.61478e-07
3.47146e-05
3.36549e-05
-3.47379e-05
3.72638e-07
-3.7276e-07
3.71491e-07
-3.72659e-07
-3.36549e-05
3.47382e-05
2.06383e-07
2.10205e-07
2.03679e-07
2.09165e-07
-2.20017e-07
-2.04849e-07
-2.17569e-07
3.36298e-05
-3.47124e-05
-3.61819e-07
3.63323e-07
-3.6127e-07
3.47147e-05
3.3654e-05
-3.47326e-05
3.71265e-07
-3.71684e-07
3.7138e-07
-3.74308e-07
-3.3654e-05
3.47353e-05
2.05301e-07
2.09827e-07
2.06476e-07
2.12891e-07
-2.17103e-07
-2.07872e-07
-2.15725e-07
3.3629e-05
-3.47103e-05
-3.62407e-07
3.62018e-07
-3.63225e-07
3.47137e-05
3.36446e-05
-3.45276e-05
3.73038e-07
-3.74068e-07
1.61007e-07
-1.69802e-07
-3.36454e-05
3.45324e-05
2.13062e-07
2.15522e-07
2.85302e-08
4.224e-08
-2.18714e-07
-3.77712e-08
-3.76704e-08
3.36215e-05
-3.45127e-05
-3.64307e-07
1.50707e-07
-1.59371e-07
3.45017e-05
3.29708e-05
-2.89083e-05
7.51825e-07
-7.59802e-07
-4.43842e-06
4.41065e-06
-3.29732e-05
2.88648e-05
6.22156e-07
6.30425e-07
-6.11084e-06
-6.11436e-06
-6.34914e-07
6.07887e-06
6.09775e-06
3.29586e-05
-2.88854e-05
-7.49051e-07