/*--------------------------------*- C++ -*----------------------------------*\
| =========                 |                                                 |
| \\      /  F ield         | OpenFOAM: The Open Source CFD Toolbox           |
|  \\    /   O peration     | Version:  2206                                  |
|   \\  /    A nd           | Website:  www.openfoam.com                      |
|    \\/     M anipulation  |                                                 |
\*---------------------------------------------------------------------------*/
FoamFile
{
    version     2.0;
    format      ascii;
    arch        "LSB;label=32;scalar=64";
    class       volVectorField;
    location    "15.5";
    object      U;
}
// * * * * * * * * * * * * * * * * * * * * * * * * * * * * * * * * * * * * * //

dimensions      [0 1 -1 0 0 0 0];

internalField   nonuniform List<vector> 
28335
(
(-5.27881e-07 -5.25848e-07 0.101856)
(-2.96949e-07 5.12393e-07 0.101841)
(5.10365e-07 -2.97006e-07 0.101841)
(-3.88029e-05 -3.88174e-05 0.101817)
(-5.37973e-07 -5.35886e-07 0.101855)
(-2.5878e-07 4.86155e-07 0.101841)
(4.84314e-07 -2.58933e-07 0.101841)
(-3.87963e-05 -3.88105e-05 0.101817)
(-4.35471e-07 -4.32871e-07 0.101855)
(-4.55689e-07 6.1635e-07 0.10184)
(6.14165e-07 -4.56127e-07 0.10184)
(-3.8952e-05 -3.89661e-05 0.101817)
(-4.89753e-07 -4.88222e-07 0.101856)
(-3.56939e-07 5.33468e-07 0.101841)
(5.31522e-07 -3.58088e-07 0.101841)
(-3.88621e-05 -3.88784e-05 0.101817)
(-5.03513e-07 -5.02297e-07 0.101856)
(-3.37125e-07 5.31963e-07 0.101841)
(5.30213e-07 -3.3759e-07 0.101841)
(-3.88444e-05 -3.88606e-05 0.101817)
(-5.02861e-07 -5.03833e-07 0.101856)
(-3.35789e-07 5.28676e-07 0.101841)
(5.30278e-07 -3.36682e-07 0.101841)
(-3.88435e-05 -3.88606e-05 0.101817)
(-5.01453e-07 -5.04723e-07 0.101856)
(-3.35636e-07 5.22857e-07 0.101841)
(5.30606e-07 -3.36714e-07 0.101841)
(-3.88433e-05 -3.88608e-05 0.101817)
(-5.03122e-07 -5.02644e-07 0.101856)
(-3.36293e-07 5.30536e-07 0.101841)
(5.30849e-07 -3.36616e-07 0.101841)
(-3.8845e-05 -3.88602e-05 0.101817)
(-5.0239e-07 -5.03307e-07 0.101856)
(-3.3843e-07 5.31291e-07 0.101841)
(5.31255e-07 -3.34727e-07 0.101841)
(-3.88471e-05 -3.88582e-05 0.101817)
(-5.01575e-07 -5.03157e-07 0.101856)
(-3.39473e-07 5.315e-07 0.101841)
(5.32373e-07 -3.3511e-07 0.101841)
(-3.8848e-05 -3.88581e-05 0.101817)
(-5.01854e-07 -5.03587e-07 0.101856)
(-3.38876e-07 5.31016e-07 0.101841)
(5.32018e-07 -3.344e-07 0.101841)
(-3.88473e-05 -3.88574e-05 0.101817)
(-5.01875e-07 -5.03587e-07 0.101856)
(-3.38277e-07 5.30601e-07 0.101841)
(5.31686e-07 -3.33665e-07 0.101841)
(-3.88466e-05 -3.88567e-05 0.101817)
(-5.02241e-07 -5.03929e-07 0.101856)
(-3.3783e-07 5.30137e-07 0.101841)
(5.31422e-07 -3.33206e-07 0.101841)
(-3.88465e-05 -3.88564e-05 0.101817)
(-5.02875e-07 -5.04465e-07 0.101856)
(-3.37399e-07 5.29868e-07 0.101841)
(5.31166e-07 -3.32551e-07 0.101841)
(-3.88464e-05 -3.88562e-05 0.101817)
(-5.02128e-07 -5.03706e-07 0.101856)
(-3.37815e-07 5.30285e-07 0.101841)
(5.31246e-07 -3.32789e-07 0.101841)
(-3.88448e-05 -3.88547e-05 0.101817)
(-5.01838e-07 -5.03228e-07 0.101856)
(-3.37081e-07 5.3022e-07 0.101841)
(5.32041e-07 -3.33854e-07 0.101841)
(-3.88418e-05 -3.88516e-05 0.101817)
(-5.03104e-07 -5.01949e-07 0.101856)
(-3.36597e-07 5.32645e-07 0.101841)
(5.32803e-07 -3.30893e-07 0.101841)
(-3.88354e-05 -3.88441e-05 0.101817)
(-4.03522e-05 -4.03288e-05 0.101818)
(5.37358e-07 3.26512e-07 0.101841)
(-5.40338e-07 3.32916e-07 0.101841)
(4.03562e-05 -4.03303e-05 0.101818)
(3.16861e-07 5.24556e-07 0.101841)
(3.31489e-07 -5.37317e-07 0.101841)
(-3.15679e-07 5.24823e-07 0.101841)
(-3.28917e-07 -5.35501e-07 0.101841)
(-4.0327e-05 4.03594e-05 0.101818)
(5.22445e-07 -3.15476e-07 0.101841)
(-5.21781e-07 -3.17748e-07 0.101841)
(4.03296e-05 4.0349e-05 0.101818)
(3.88112e-05 3.87933e-05 0.101817)
(-4.0385e-05 -4.03613e-05 0.101818)
(5.2464e-07 3.12254e-07 0.101841)
(-5.27908e-07 3.13892e-07 0.101841)
(5.33298e-07 3.13413e-07 0.101841)
(-5.35864e-07 3.20252e-07 0.101841)
(-3.88074e-05 3.87823e-05 0.101817)
(4.0389e-05 -4.03625e-05 0.101818)
(3.00989e-07 5.12828e-07 0.101841)
(3.12259e-07 -5.25307e-07 0.101841)
(3.03848e-07 5.20246e-07 0.101841)
(3.18155e-07 -5.32721e-07 0.101841)
(-3.08838e-07 -5.22702e-07 0.101841)
(-3.02477e-07 5.20755e-07 0.101841)
(-3.16476e-07 -5.31644e-07 0.101841)
(3.87892e-05 -3.88225e-05 0.101817)
(-4.03595e-05 4.03928e-05 0.101818)
(-5.08927e-07 -2.95793e-07 0.101841)
(5.18198e-07 -3.02501e-07 0.101841)
(-5.18252e-07 -3.04591e-07 0.101841)
(4.03614e-05 4.03812e-05 0.101818)
(3.88037e-05 3.87858e-05 0.101817)
(-4.0304e-05 -4.02818e-05 0.101817)
(4.98717e-07 2.73907e-07 0.10184)
(-5.01841e-07 2.75868e-07 0.10184)
(5.99107e-07 4.01723e-07 0.10184)
(-6.02088e-07 4.0819e-07 0.10184)
(-3.88004e-05 3.87754e-05 0.101817)
(4.03085e-05 -4.02816e-05 0.101817)
(2.62652e-07 4.86679e-07 0.101841)
(2.7429e-07 -4.99239e-07 0.10184)
(3.91837e-07 5.86739e-07 0.10184)
(4.06447e-07 -5.98889e-07 0.10184)
(-2.7106e-07 -4.97537e-07 0.10184)
(-3.90557e-07 5.86695e-07 0.10184)
(-4.04087e-07 -5.95745e-07 0.10184)
(3.87823e-05 -3.88142e-05 0.101817)
(-4.02783e-05 4.03136e-05 0.101817)
(-4.84236e-07 -2.58417e-07 0.101841)
(5.8345e-07 -3.89816e-07 0.10184)
(-5.82066e-07 -3.90522e-07 0.10184)
(4.02835e-05 4.03034e-05 0.101817)
(3.89631e-05 3.89439e-05 0.101817)
(-4.03333e-05 -4.03092e-05 0.101818)
(6.29201e-07 4.69918e-07 0.10184)
(-6.32171e-07 4.70936e-07 0.10184)
(5.55637e-07 3.88291e-07 0.101841)
(-5.58865e-07 3.93575e-07 0.101841)
(-3.89582e-05 3.89336e-05 0.101817)
(4.03365e-05 -4.03107e-05 0.101818)
(4.57674e-07 6.181e-07 0.10184)
(4.70065e-07 -6.3059e-07 0.10184)
(3.78006e-07 5.42426e-07 0.101841)
(3.9285e-07 -5.5686e-07 0.101841)
(-4.66142e-07 -6.25359e-07 0.10184)
(-3.77415e-07 5.42573e-07 0.101841)
(-3.88694e-07 -5.53608e-07 0.101841)
(3.89409e-05 -3.89723e-05 0.101817)
(-4.0307e-05 4.03395e-05 0.101818)
(-6.11428e-07 -4.54359e-07 0.10184)
(5.40418e-07 -3.78042e-07 0.101841)
(-5.38892e-07 -3.79721e-07 0.101841)
(4.03118e-05 4.03288e-05 0.101818)
(3.88718e-05 3.88538e-05 0.101817)
(-4.03582e-05 -4.03356e-05 0.101818)
(5.46641e-07 3.71483e-07 0.101841)
(-5.4992e-07 3.73101e-07 0.101841)
(5.45771e-07 3.48283e-07 0.101841)
(-5.48429e-07 3.54486e-07 0.101841)
(-3.8868e-05 3.88429e-05 0.101817)
(4.03629e-05 -4.03371e-05 0.101818)
(3.60242e-07 5.34294e-07 0.101841)
(3.71069e-07 -5.47744e-07 0.101841)
(3.39341e-07 5.32185e-07 0.101841)
(3.53308e-07 -5.46168e-07 0.101841)
(-3.67473e-07 -5.44789e-07 0.101841)
(-3.37773e-07 5.32157e-07 0.101841)
(-3.50261e-07 -5.43979e-07 0.101841)
(3.88499e-05 -3.88838e-05 0.101817)
(-4.03332e-05 4.03655e-05 0.101818)
(-5.30307e-07 -3.5684e-07 0.101841)
(5.29859e-07 -3.37869e-07 0.101841)
(-5.29542e-07 -3.39767e-07 0.101841)
(4.03365e-05 4.03545e-05 0.101818)
(3.88544e-05 3.88356e-05 0.101817)
(-4.03588e-05 -4.03375e-05 0.101818)
(5.45622e-07 3.51724e-07 0.101841)
(-5.48017e-07 3.52864e-07 0.101841)
(5.4654e-07 3.45111e-07 0.101841)
(-5.47642e-07 3.51083e-07 0.101841)
(-3.88504e-05 3.88247e-05 0.101817)
(4.03639e-05 -4.03399e-05 0.101818)
(3.40999e-07 5.33052e-07 0.101841)
(3.51817e-07 -5.46476e-07 0.101841)
(3.37383e-07 5.31346e-07 0.101841)
(3.51324e-07 -5.46564e-07 0.101841)
(-3.47503e-07 -5.43426e-07 0.101841)
(-3.353e-07 5.30394e-07 0.101841)
(-3.47646e-07 -5.44941e-07 0.101841)
(3.88324e-05 -3.88653e-05 0.101817)
(-4.03339e-05 4.03664e-05 0.101818)
(-5.28618e-07 -3.36906e-07 0.101841)
(5.30326e-07 -3.35684e-07 0.101841)
(-5.2926e-07 -3.37977e-07 0.101841)
(4.03378e-05 4.03548e-05 0.101818)
(3.8854e-05 3.88336e-05 0.101817)
(-4.03575e-05 -4.03385e-05 0.101818)
(5.46498e-07 3.49158e-07 0.101841)
(-5.45896e-07 3.48792e-07 0.101841)
(5.48565e-07 3.43183e-07 0.101841)
(-5.36709e-07 3.36502e-07 0.101841)
(-3.88489e-05 3.88206e-05 0.101817)
(4.03677e-05 -4.03578e-05 0.101818)
(3.40312e-07 5.31652e-07 0.101841)
(3.50757e-07 -5.4652e-07 0.101841)
(3.37958e-07 5.30345e-07 0.101841)
(3.51157e-07 -5.46669e-07 0.101841)
(-3.46079e-07 -5.44327e-07 0.101841)
(-3.34621e-07 5.20669e-07 0.101841)
(-3.46784e-07 -5.45709e-07 0.101841)
(3.88319e-05 -3.88647e-05 0.101817)
(-4.03338e-05 4.03666e-05 0.101818)
(-5.28148e-07 -3.36342e-07 0.101841)
(5.30374e-07 -3.35254e-07 0.101841)
(-5.28623e-07 -3.37921e-07 0.101841)
(4.03383e-05 4.03544e-05 0.101818)
(3.88551e-05 3.88331e-05 0.101817)
(-4.03586e-05 -4.03364e-05 0.101818)
(5.4824e-07 3.48151e-07 0.101841)
(-5.3815e-07 3.4063e-07 0.101841)
(5.46828e-07 3.45904e-07 0.101841)
(-5.48103e-07 3.52267e-07 0.101841)
(-3.88452e-05 3.88028e-05 0.101817)
(4.03653e-05 -4.03391e-05 0.101818)
(3.41046e-07 5.31319e-07 0.101841)
(3.50836e-07 -5.46732e-07 0.101841)
(3.38007e-07 5.32097e-07 0.101841)
(3.51704e-07 -5.47082e-07 0.101841)
(-3.45748e-07 -5.4495e-07 0.101841)
(-3.36521e-07 5.32239e-07 0.101841)
(-3.48852e-07 -5.44757e-07 0.101841)
(3.88321e-05 -3.88646e-05 0.101817)
(-4.03334e-05 4.03661e-05 0.101818)
(-5.27777e-07 -3.36872e-07 0.101841)
(5.30773e-07 -3.35351e-07 0.101841)
(-5.29072e-07 -3.39099e-07 0.101841)
(4.03372e-05 4.03551e-05 0.101818)
(3.88543e-05 3.88355e-05 0.101817)
(-4.03593e-05 -4.03358e-05 0.101818)
(5.45753e-07 3.50695e-07 0.101841)
(-5.45859e-07 3.50345e-07 0.101841)
(5.46475e-07 3.45937e-07 0.101841)
(-5.47966e-07 3.547e-07 0.101841)
(-3.88488e-05 3.88225e-05 0.101817)
(4.03631e-05 -4.03388e-05 0.101818)
(3.40524e-07 5.33166e-07 0.101841)
(3.51023e-07 -5.47171e-07 0.101841)
(3.37097e-07 5.33022e-07 0.101841)
(3.50118e-07 -5.4723e-07 0.101841)
(-3.4924e-07 -5.43562e-07 0.101841)
(-3.37487e-07 5.31391e-07 0.101841)
(-3.56238e-07 -5.42402e-07 0.101841)
(3.88325e-05 -3.88654e-05 0.101817)
(-4.03343e-05 4.03659e-05 0.101818)
(-5.2807e-07 -3.39523e-07 0.101841)
(5.30849e-07 -3.33499e-07 0.101841)
(-5.28305e-07 -3.47308e-07 0.101841)
(4.03347e-05 4.03572e-05 0.101818)
(3.88537e-05 3.88361e-05 0.101817)
(-4.03593e-05 -4.03348e-05 0.101818)
(5.45983e-07 3.5051e-07 0.101841)
(-5.4771e-07 3.55239e-07 0.101841)
(5.4674e-07 3.46103e-07 0.101841)
(-5.48434e-07 3.5647e-07 0.101841)
(-3.88508e-05 3.88236e-05 0.101817)
(4.03618e-05 -4.0338e-05 0.101818)
(3.39888e-07 5.34006e-07 0.101841)
(3.49388e-07 -5.47355e-07 0.101841)
(3.3726e-07 5.34035e-07 0.101841)
(3.50458e-07 -5.48022e-07 0.101841)
(-3.56133e-07 -5.41228e-07 0.101841)
(-3.38753e-07 5.31528e-07 0.101841)
(-3.56939e-07 -5.41544e-07 0.101841)
(3.88318e-05 -3.88656e-05 0.101817)
(-4.03337e-05 4.0365e-05 0.101818)
(-5.27436e-07 -3.47678e-07 0.101841)
(5.32164e-07 -3.33544e-07 0.101841)
(-5.29249e-07 -3.48957e-07 0.101841)
(4.03338e-05 4.03575e-05 0.101818)
(3.88538e-05 3.8837e-05 0.101817)
(-4.03598e-05 -4.03352e-05 0.101818)
(5.46338e-07 3.50838e-07 0.101841)
(-5.48171e-07 3.567e-07 0.101841)
(5.46488e-07 3.45549e-07 0.101841)
(-5.48785e-07 3.57099e-07 0.101841)
(-3.88519e-05 3.88242e-05 0.101817)
(4.0362e-05 -4.0338e-05 0.101818)
(3.40316e-07 5.34913e-07 0.101841)
(3.50101e-07 -5.48185e-07 0.101841)
(3.36793e-07 5.33933e-07 0.101841)
(3.49968e-07 -5.48058e-07 0.101841)
(-3.56648e-07 -5.4092e-07 0.101841)
(-3.38517e-07 5.31296e-07 0.101841)
(-3.56587e-07 -5.4096e-07 0.101841)
(3.88325e-05 -3.88665e-05 0.101817)
(-4.03342e-05 4.03652e-05 0.101818)
(-5.28488e-07 -3.48847e-07 0.101841)
(5.31927e-07 -3.33012e-07 0.101841)
(-5.29333e-07 -3.49027e-07 0.101841)
(4.03343e-05 4.03581e-05 0.101818)
(3.88533e-05 3.88366e-05 0.101817)
(-4.03597e-05 -4.03351e-05 0.101818)
(5.46116e-07 3.50169e-07 0.101841)
(-5.48385e-07 3.56947e-07 0.101841)
(5.46549e-07 3.4545e-07 0.101841)
(-5.48446e-07 3.57006e-07 0.101841)
(-3.88515e-05 3.8824e-05 0.101817)
(4.03625e-05 -4.03385e-05 0.101818)
(3.39756e-07 5.34759e-07 0.101841)
(3.49451e-07 -5.48115e-07 0.101841)
(3.36704e-07 5.34065e-07 0.101841)
(3.49629e-07 -5.4768e-07 0.101841)
(-3.55843e-07 -5.40226e-07 0.101841)
(-3.37764e-07 5.3082e-07 0.101841)
(-3.55521e-07 -5.40165e-07 0.101841)
(3.88319e-05 -3.88662e-05 0.101817)
(-4.03345e-05 4.03656e-05 0.101818)
(-5.28403e-07 -3.48489e-07 0.101841)
(5.31681e-07 -3.32229e-07 0.101841)
(-5.28969e-07 -3.4828e-07 0.101841)
(4.03351e-05 4.03587e-05 0.101818)
(3.88534e-05 3.88368e-05 0.101817)
(-4.03602e-05 -4.03355e-05 0.101818)
(5.45998e-07 3.49957e-07 0.101841)
(-5.4801e-07 3.56775e-07 0.101841)
(5.46103e-07 3.4489e-07 0.101841)
(-5.48257e-07 3.56614e-07 0.101841)
(-3.88511e-05 3.88236e-05 0.101817)
(4.03626e-05 -4.03388e-05 0.101818)
(3.39489e-07 5.34769e-07 0.101841)
(3.48945e-07 -5.47576e-07 0.101841)
(3.36217e-07 5.3377e-07 0.101841)
(3.49304e-07 -5.47528e-07 0.101841)
(-3.55016e-07 -5.39487e-07 0.101841)
(-3.37463e-07 5.30422e-07 0.101841)
(-3.55376e-07 -5.39873e-07 0.101841)
(3.88316e-05 -3.88658e-05 0.101817)
(-4.03346e-05 4.03657e-05 0.101818)
(-5.28084e-07 -3.47876e-07 0.101841)
(5.31482e-07 -3.31845e-07 0.101841)
(-5.28871e-07 -3.47992e-07 0.101841)
(4.0335e-05 4.03589e-05 0.101818)
(3.88529e-05 3.88362e-05 0.101817)
(-4.03609e-05 -4.03362e-05 0.101818)
(5.45567e-07 3.49456e-07 0.101841)
(-5.47765e-07 3.56379e-07 0.101841)
(5.45439e-07 3.4418e-07 0.101841)
(-5.4784e-07 3.56033e-07 0.101841)
(-3.88509e-05 3.88232e-05 0.101817)
(4.03631e-05 -4.03392e-05 0.101818)
(3.39038e-07 5.34449e-07 0.101841)
(3.48708e-07 -5.47351e-07 0.101841)
(3.35377e-07 5.33199e-07 0.101841)
(3.48731e-07 -5.47027e-07 0.101841)
(-3.54612e-07 -5.38965e-07 0.101841)
(-3.36906e-07 5.30082e-07 0.101841)
(-3.54943e-07 -5.39384e-07 0.101841)
(3.88314e-05 -3.88657e-05 0.101817)
(-4.03351e-05 4.03665e-05 0.101818)
(-5.27731e-07 -3.4735e-07 0.101841)
(5.31134e-07 -3.31105e-07 0.101841)
(-5.28571e-07 -3.4739e-07 0.101841)
(4.03356e-05 4.03596e-05 0.101818)
(3.88523e-05 3.88359e-05 0.101817)
(-4.03602e-05 -4.03355e-05 0.101818)
(5.45044e-07 3.48798e-07 0.101841)
(-5.47455e-07 3.55753e-07 0.101841)
(5.4568e-07 3.44385e-07 0.101841)
(-5.47779e-07 3.56118e-07 0.101841)
(-3.88505e-05 3.88231e-05 0.101817)
(4.03629e-05 -4.03387e-05 0.101818)
(3.38283e-07 5.34032e-07 0.101841)
(3.48125e-07 -5.46965e-07 0.101841)
(3.35843e-07 5.33496e-07 0.101841)
(3.49297e-07 -5.47306e-07 0.101841)
(-3.543e-07 -5.38638e-07 0.101841)
(-3.36896e-07 5.30153e-07 0.101841)
(-3.55154e-07 -5.39557e-07 0.101841)
(3.88314e-05 -3.88653e-05 0.101817)
(-4.03338e-05 4.0365e-05 0.101818)
(-5.27561e-07 -3.46891e-07 0.101841)
(5.3136e-07 -3.31471e-07 0.101841)
(-5.28546e-07 -3.47599e-07 0.101841)
(4.03344e-05 4.03583e-05 0.101818)
(3.88517e-05 3.88352e-05 0.101817)
(-4.03606e-05 -4.03355e-05 0.101818)
(5.45594e-07 3.49529e-07 0.101841)
(-5.47669e-07 3.56437e-07 0.101841)
(5.46522e-07 3.45636e-07 0.101841)
(-5.48451e-07 3.57534e-07 0.101841)
(-3.88498e-05 3.88221e-05 0.101817)
(4.03633e-05 -4.03388e-05 0.101818)
(3.38983e-07 5.34643e-07 0.101841)
(3.48533e-07 -5.4708e-07 0.101841)
(3.3673e-07 5.34446e-07 0.101841)
(3.48392e-07 -5.46355e-07 0.101841)
(-3.54623e-07 -5.38863e-07 0.101841)
(-3.37084e-07 5.31048e-07 0.101841)
(-3.54336e-07 -5.38781e-07 0.101841)
(3.88298e-05 -3.88639e-05 0.101817)
(-4.03318e-05 4.03634e-05 0.101818)
(-5.27657e-07 -3.47073e-07 0.101841)
(5.30729e-07 -3.3027e-07 0.101841)
(-5.2806e-07 -3.46399e-07 0.101841)
(4.03326e-05 4.03565e-05 0.101818)
(3.88516e-05 3.88355e-05 0.101817)
(-4.03553e-05 -4.03288e-05 0.101818)
(5.44892e-07 3.48774e-07 0.101841)
(-5.46864e-07 3.55868e-07 0.101841)
(5.45404e-07 3.4515e-07 0.101841)
(-5.47089e-07 3.573e-07 0.101841)
(-3.88497e-05 3.88222e-05 0.101817)
(4.03587e-05 -4.03316e-05 0.101818)
(3.37638e-07 5.34345e-07 0.101841)
(3.50181e-07 -5.4751e-07 0.101841)
(3.35481e-07 5.34787e-07 0.101841)
(3.49265e-07 -5.45455e-07 0.101841)
(-3.55682e-07 -5.39142e-07 0.101841)
(-3.36014e-07 5.32143e-07 0.101841)
(-3.54683e-07 -5.38014e-07 0.101841)
(3.88271e-05 -3.88608e-05 0.101817)
(-4.03269e-05 4.03604e-05 0.101818)
(-5.28125e-07 -3.47715e-07 0.101841)
(5.31332e-07 -3.29956e-07 0.101841)
(-5.28298e-07 -3.46144e-07 0.101841)
(4.03282e-05 4.03532e-05 0.101818)
(3.88439e-05 3.88293e-05 0.101817)
(5.44591e-07 3.49847e-07 0.101841)
(-5.46353e-07 3.57183e-07 0.101841)
(-3.88412e-05 3.88168e-05 0.101817)
(3.36432e-07 5.36678e-07 0.101841)
(3.48704e-07 -5.45552e-07 0.101841)
(-3.54176e-07 -5.37671e-07 0.101841)
(3.88215e-05 -3.88532e-05 0.101817)
(-5.28755e-07 -3.45205e-07 0.101841)
(2.67893e-08 -7.68556e-06 0.100777)
(-1.03191e-06 -5.97635e-06 0.0960931)
(1.49294e-06 -2.09258e-06 0.0861706)
(-7.73245e-06 2.03944e-08 0.100777)
(-5.96559e-06 -1.01287e-06 0.0960928)
(-5.19629e-07 -5.1658e-07 0.101856)
(5.1858e-07 -5.17694e-07 0.101856)
(-5.15749e-07 5.18199e-07 0.101856)
(5.1516e-07 5.16914e-07 0.101856)
(1.26543e-05 2.74537e-09 0.101647)
(-3.27599e-07 5.30866e-07 0.101841)
(1.1461e-05 -3.72156e-06 0.100974)
(-4.04894e-07 -1.52948e-07 0.101852)
(-1.98541e-06 1.43669e-06 0.0861707)
(9.35189e-09 1.26605e-05 0.101647)
(5.27587e-07 -3.27102e-07 0.101841)
(-1.53182e-07 -4.07933e-07 0.101852)
(-3.75021e-06 1.15028e-05 0.100974)
(4.03206e-05 4.03393e-05 0.101818)
(3.64457e-06 4.43905e-06 0.0996509)
(4.43153e-06 3.63985e-06 0.0996504)
(1.98597e-08 -7.76071e-06 0.100777)
(7.32738e-07 5.8304e-06 0.0960868)
(-2.44101e-08 7.4694e-06 0.100773)
(-9.71577e-07 -6.03465e-06 0.0960937)
(-1.50299e-06 1.95141e-06 0.086164)
(1.51745e-06 -2.19807e-06 0.0861719)
(-7.80912e-06 1.34031e-08 0.100776)
(5.81639e-06 7.16117e-07 0.0960865)
(7.51889e-06 -1.26303e-08 0.100773)
(-6.02475e-06 -9.51443e-07 0.0960935)
(5.27702e-07 -5.26655e-07 0.101856)
(-5.2396e-07 5.27528e-07 0.101856)
(5.23618e-07 5.2647e-07 0.101856)
(-5.37577e-07 -5.34634e-07 0.101855)
(5.37134e-07 -5.35785e-07 0.101855)
(-5.34045e-07 5.36767e-07 0.101855)
(5.33057e-07 5.35466e-07 0.101855)
(1.27336e-05 -4.95251e-09 0.101647)
(-1.1826e-05 3.43803e-06 0.100968)
(-3.67425e-07 -1.62137e-07 0.101852)
(-2.93355e-07 5.08538e-07 0.101841)
(-1.26172e-05 -1.10337e-08 0.101646)
(1.15504e-05 -3.80751e-06 0.100974)
(-3.57795e-07 -1.6416e-07 0.101852)
(1.84457e-06 -1.44515e-06 0.0861621)
(-2.09484e-06 1.46166e-06 0.0861721)
(1.62036e-09 1.27395e-05 0.101647)
(-1.62228e-07 -3.57608e-07 0.101852)
(3.46459e-06 -1.18676e-05 0.100968)
(5.05763e-07 -2.93509e-07 0.101841)
(-1.3404e-08 -1.26229e-05 0.101646)
(-1.64423e-07 -3.6063e-07 0.101852)
(-3.83744e-06 1.15928e-05 0.100973)
(-3.83678e-06 -4.57927e-06 0.0996444)
(-4.57012e-06 -3.83122e-06 0.0996441)
(4.03457e-05 4.03652e-05 0.101818)
(3.62122e-06 4.47414e-06 0.0996507)
(4.46834e-06 3.61555e-06 0.0996503)
(-9.79106e-09 -7.80431e-06 0.100777)
(7.60163e-07 5.74918e-06 0.0960876)
(-3.58797e-08 7.38489e-06 0.100772)
(-9.41274e-07 -6.00779e-06 0.0960946)
(-1.51366e-06 1.8591e-06 0.0861664)
(1.63336e-06 -2.22005e-06 0.0861741)
(-7.85183e-06 -1.51452e-08 0.100776)
(5.7356e-06 7.41664e-07 0.0960873)
(7.433e-06 -2.60293e-08 0.100773)
(-6.00078e-06 -9.2495e-07 0.0960944)
(5.37719e-07 -5.36547e-07 0.101855)
(-5.34219e-07 5.37626e-07 0.101855)
(5.33195e-07 5.36393e-07 0.101855)
(-4.89536e-07 -4.86971e-07 0.101855)
(4.8818e-07 -4.87875e-07 0.101855)
(-4.86471e-07 4.88841e-07 0.101855)
(4.86093e-07 4.88225e-07 0.101855)
(1.27851e-05 -1.70224e-08 0.101647)
(-1.17716e-05 3.36898e-06 0.100968)
(-3.28223e-07 -1.67541e-07 0.101852)
(-2.21405e-07 4.57667e-07 0.10184)
(-1.25643e-05 -1.96689e-08 0.101646)
(1.16349e-05 -3.87184e-06 0.100974)
(-2.92475e-07 -1.75925e-07 0.101852)
(1.75433e-06 -1.45234e-06 0.0861644)
(-2.11913e-06 1.58253e-06 0.0861743)
(-1.10211e-08 1.27913e-05 0.101647)
(-1.6775e-07 -3.18704e-07 0.101852)
(3.39578e-06 -1.18136e-05 0.100968)
(4.5497e-07 -2.2023e-07 0.10184)
(-2.13525e-08 -1.25695e-05 0.101645)
(-1.76298e-07 -2.94318e-07 0.101852)
(-3.8966e-06 1.16768e-05 0.100973)
(-3.81277e-06 -4.55677e-06 0.0996443)
(-4.54878e-06 -3.80518e-06 0.0996439)
(4.0437e-05 4.0456e-05 0.101818)
(3.69874e-06 4.55419e-06 0.0996507)
(4.54854e-06 3.69513e-06 0.0996503)
(3.12259e-08 -7.42004e-06 0.100776)
(7.35795e-07 5.96534e-06 0.0960885)
(1.4182e-08 7.53946e-06 0.100772)
(-9.41662e-07 -5.08387e-06 0.0960948)
(-1.78766e-06 2.23936e-06 0.0861694)
(1.16537e-06 -1.45638e-06 0.0861737)
(-7.46898e-06 2.00653e-08 0.100776)
(5.95864e-06 7.15524e-07 0.0960882)
(7.58883e-06 2.84096e-08 0.100772)
(-5.07568e-06 -9.22444e-07 0.0960945)
(4.33542e-07 -4.33666e-07 0.101855)
(-4.31522e-07 4.33737e-07 0.101855)
(4.31304e-07 4.33386e-07 0.101855)
(-4.72802e-07 -4.70095e-07 0.101856)
(4.71335e-07 -4.71474e-07 0.101856)
(-4.6886e-07 4.69903e-07 0.101856)
(4.68779e-07 4.69672e-07 0.101856)
(1.2178e-05 3.09204e-08 0.101647)
(-1.20304e-05 3.55319e-06 0.100967)
(-5.52107e-07 -1.23912e-07 0.101852)
(-4.50404e-07 5.96133e-07 0.101841)
(-1.2835e-05 6.25018e-09 0.101645)
(1.10985e-05 -3.35374e-06 0.100973)
(-5.78323e-07 -1.15884e-07 0.101852)
(2.14739e-06 -1.72861e-06 0.0861675)
(-1.35942e-06 1.11411e-06 0.0861739)
(3.3561e-08 1.21814e-05 0.101647)
(-1.24343e-07 -5.43412e-07 0.101852)
(3.57559e-06 -1.20673e-05 0.100967)
(5.93783e-07 -4.50577e-07 0.101841)
(4.86101e-09 -1.28375e-05 0.101645)
(-1.16074e-07 -5.8153e-07 0.101852)
(-3.37806e-06 1.1142e-05 0.100973)
(-3.93421e-06 -4.71237e-06 0.0996441)
(-4.70464e-06 -3.92721e-06 0.0996437)
(4.02194e-05 4.02374e-05 0.101818)
(3.66887e-06 4.35228e-06 0.0996505)
(4.34789e-06 3.65876e-06 0.09965)
(1.71847e-08 -7.65928e-06 0.100777)
(7.6411e-07 6.1797e-06 0.0960866)
(-3.31048e-08 7.61824e-06 0.100773)
(-9.71883e-07 -5.81588e-06 0.0960931)
(-1.55282e-06 2.1691e-06 0.0861635)
(1.49955e-06 -2.0463e-06 0.0861705)
(-7.70823e-06 9.90964e-09 0.100777)
(6.16181e-06 7.46602e-07 0.0960863)
(7.66726e-06 -2.45732e-08 0.100773)
(-5.79941e-06 -9.53579e-07 0.0960928)
(4.8915e-07 -4.89214e-07 0.101856)
(-4.8643e-07 4.88038e-07 0.101856)
(4.86124e-07 4.88005e-07 0.101856)
(-5.03909e-07 -5.01482e-07 0.101856)
(5.02887e-07 -5.02698e-07 0.101856)
(-5.00583e-07 5.01959e-07 0.101856)
(4.99608e-07 5.00962e-07 0.101856)
(1.2589e-05 7.12965e-11 0.101647)
(-1.20129e-05 3.60774e-06 0.100968)
(-4.69003e-07 -1.44774e-07 0.101852)
(-3.45386e-07 5.31439e-07 0.101841)
(-1.28457e-05 -2.52673e-09 0.101646)
(1.14368e-05 -3.71572e-06 0.100974)
(-4.43842e-07 -1.49817e-07 0.101852)
(2.07915e-06 -1.50354e-06 0.0861616)
(-1.9436e-06 1.44828e-06 0.0861706)
(5.62893e-09 1.2594e-05 0.101647)
(-1.44387e-07 -4.61184e-07 0.101852)
(3.63738e-06 -1.20556e-05 0.100968)
(5.28886e-07 -3.45917e-07 0.101841)
(-3.39021e-09 -1.28518e-05 0.101646)
(-1.49455e-07 -4.46894e-07 0.101852)
(-3.74033e-06 1.14791e-05 0.100974)
(-3.7996e-06 -4.58244e-06 0.0996444)
(-4.57314e-06 -3.79571e-06 0.099644)
(4.03344e-05 4.03527e-05 0.101818)
(3.64181e-06 4.46919e-06 0.0996508)
(4.46417e-06 3.63554e-06 0.0996504)
(1.7861e-08 -7.68803e-06 0.100777)
(7.54063e-07 5.98608e-06 0.0960863)
(-2.75153e-08 7.51371e-06 0.100773)
(-9.69403e-07 -5.84443e-06 0.096093)
(-1.55692e-06 2.05182e-06 0.0861633)
(1.47929e-06 -2.05466e-06 0.0861705)
(-7.73647e-06 9.95916e-09 0.100777)
(5.96047e-06 7.31111e-07 0.0960859)
(7.56345e-06 -1.55685e-08 0.100773)
(-5.81803e-06 -9.44524e-07 0.0960928)
(5.03372e-07 -5.03359e-07 0.101856)
(-5.00398e-07 5.02465e-07 0.101856)
(5.00248e-07 5.01558e-07 0.101856)
(-5.03709e-07 -5.03069e-07 0.101856)
(5.04246e-07 -5.05049e-07 0.101856)
(-5.00664e-07 5.02135e-07 0.101856)
(5.00513e-07 5.00427e-07 0.101856)
(1.26162e-05 -5.92211e-10 0.101647)
(-1.19129e-05 3.50459e-06 0.100968)
(-4.23245e-07 -1.52105e-07 0.101852)
(-3.35738e-07 5.32041e-07 0.101841)
(-1.27268e-05 -8.64942e-09 0.101646)
(1.14601e-05 -3.72523e-06 0.100974)
(-4.19782e-07 -1.52945e-07 0.101852)
(1.96312e-06 -1.50676e-06 0.0861614)
(-1.95816e-06 1.42928e-06 0.0861706)
(4.14017e-09 1.26214e-05 0.101647)
(-1.51621e-07 -4.15387e-07 0.101852)
(3.53069e-06 -1.19533e-05 0.100968)
(5.30041e-07 -3.35966e-07 0.101841)
(-1.04368e-08 -1.27318e-05 0.101646)
(-1.5234e-07 -4.22688e-07 0.101852)
(-3.75297e-06 1.1504e-05 0.100974)
(-3.81537e-06 -4.59236e-06 0.0996445)
(-4.58283e-06 -3.81027e-06 0.0996441)
(4.03395e-05 4.03569e-05 0.101818)
(3.64971e-06 4.46406e-06 0.0996508)
(4.46009e-06 3.64211e-06 0.0996504)
(2.38056e-08 -7.68998e-06 0.100777)
(7.57024e-07 5.9868e-06 0.0960863)
(-2.5337e-08 7.5119e-06 0.100773)
(-9.66468e-07 -5.84514e-06 0.096093)
(-1.55703e-06 2.05044e-06 0.0861632)
(1.48278e-06 -2.04795e-06 0.0861706)
(-7.73668e-06 8.9195e-09 0.100777)
(5.95546e-06 7.28983e-07 0.0960859)
(7.56248e-06 -1.68666e-08 0.100773)
(-5.81176e-06 -9.42481e-07 0.0960928)
(5.04816e-07 -5.06742e-07 0.101856)
(-5.00301e-07 5.02063e-07 0.101856)
(5.00754e-07 5.00534e-07 0.101856)
(-5.0232e-07 -5.04556e-07 0.101856)
(5.07539e-07 -5.11696e-07 0.101856)
(-5.00568e-07 5.01935e-07 0.101856)
(5.0108e-07 4.99458e-07 0.101856)
(1.26163e-05 -3.34641e-09 0.101647)
(-1.19113e-05 3.50323e-06 0.100968)
(-4.20372e-07 -1.55e-07 0.101852)
(-3.34883e-07 5.26283e-07 0.101841)
(-1.27258e-05 -1.02953e-08 0.101646)
(1.14596e-05 -3.73012e-06 0.100974)
(-4.18096e-07 -1.56913e-07 0.101852)
(1.96322e-06 -1.50962e-06 0.0861614)
(-1.95805e-06 1.42893e-06 0.0861706)
(4.56155e-09 1.26215e-05 0.101647)
(-1.51582e-07 -4.13758e-07 0.101852)
(3.53339e-06 -1.19523e-05 0.100968)
(5.30032e-07 -3.35407e-07 0.101841)
(-9.74735e-09 -1.27305e-05 0.101646)
(-1.52141e-07 -4.21306e-07 0.101852)
(-3.75195e-06 1.15043e-05 0.100974)
(-3.81344e-06 -4.59305e-06 0.0996445)
(-4.58275e-06 -3.80886e-06 0.0996441)
(4.03397e-05 4.03559e-05 0.101818)
(3.65088e-06 4.46313e-06 0.0996508)
(4.45991e-06 3.64282e-06 0.0996504)
(2.34551e-08 -7.69045e-06 0.100777)
(7.59122e-07 5.98599e-06 0.0960863)
(-1.64524e-08 7.50989e-06 0.100773)
(-9.6728e-07 -5.84513e-06 0.096093)
(-1.43957e-06 1.9448e-06 0.0861632)
(1.49405e-06 -2.06739e-06 0.0861705)
(-7.73678e-06 8.87152e-09 0.100777)
(5.95605e-06 7.28645e-07 0.0960859)
(7.56209e-06 -1.71731e-08 0.100773)
(-5.81111e-06 -9.42692e-07 0.0960928)
(5.07756e-07 -5.11113e-07 0.101856)
(-5.00133e-07 5.01881e-07 0.101856)
(5.01488e-07 4.99707e-07 0.101856)
(-5.03238e-07 -5.02669e-07 0.101856)
(5.04485e-07 -5.02383e-07 0.101856)
(-5.00018e-07 5.02146e-07 0.101856)
(5.0117e-07 4.99269e-07 0.101856)
(1.26158e-05 -2.66803e-09 0.101647)
(-1.19139e-05 3.49713e-06 0.100968)
(-4.19673e-07 -1.58967e-07 0.101852)
(-3.36163e-07 5.28309e-07 0.101841)
(-1.27258e-05 -1.24651e-08 0.101646)
(1.14592e-05 -3.72863e-06 0.100974)
(-4.18551e-07 -1.58037e-07 0.101852)
(1.96344e-06 -1.50951e-06 0.0861614)
(-1.95809e-06 1.42883e-06 0.0861706)
(4.54246e-09 1.26211e-05 0.101647)
(-1.51177e-07 -4.14856e-07 0.101852)
(3.53342e-06 -1.1952e-05 0.100968)
(5.30416e-07 -3.35327e-07 0.101841)
(-9.36736e-09 -1.27299e-05 0.101646)
(-1.51714e-07 -4.19999e-07 0.101852)
(-3.75211e-06 1.15045e-05 0.100974)
(-3.81326e-06 -4.59388e-06 0.0996445)
(-4.58255e-06 -3.80895e-06 0.0996441)
(4.03398e-05 4.03563e-05 0.101818)
(3.65068e-06 4.46347e-06 0.0996508)
(4.46058e-06 3.64294e-06 0.0996504)
(1.78417e-08 -7.68967e-06 0.100777)
(7.55331e-07 5.98723e-06 0.0960863)
(-2.70679e-08 7.51287e-06 0.100773)
(-9.69688e-07 -5.84394e-06 0.096093)
(-1.55744e-06 2.06233e-06 0.0861633)
(1.49163e-06 -2.06836e-06 0.0861706)
(-7.73706e-06 9.11697e-09 0.100777)
(5.95451e-06 7.28826e-07 0.0960859)
(7.56181e-06 -1.71512e-08 0.100773)
(-5.81189e-06 -9.42573e-07 0.0960928)
(5.04187e-07 -5.016e-07 0.101856)
(-4.99626e-07 5.02514e-07 0.101856)
(5.02928e-07 4.98985e-07 0.101856)
(-5.03173e-07 -5.02859e-07 0.101856)
(5.05256e-07 -4.9925e-07 0.101856)
(-4.98528e-07 5.03977e-07 0.101856)
(5.09035e-07 4.92772e-07 0.101856)
(1.26158e-05 -2.88126e-10 0.101647)
(-1.19117e-05 3.50613e-06 0.100968)
(-4.22302e-07 -1.52185e-07 0.101852)
(-3.36807e-07 5.32263e-07 0.101841)
(-1.27257e-05 -8.73785e-09 0.101646)
(1.14606e-05 -3.7247e-06 0.100974)
(-4.21255e-07 -1.52964e-07 0.101852)
(1.96342e-06 -1.50971e-06 0.0861614)
(-1.95783e-06 1.42911e-06 0.0861706)
(3.29567e-09 1.26187e-05 0.101647)
(-1.51214e-07 -4.17029e-07 0.101852)
(3.53334e-06 -1.19521e-05 0.100968)
(5.30442e-07 -3.34624e-07 0.101841)
(-8.92961e-09 -1.273e-05 0.101646)
(-1.51812e-07 -4.19348e-07 0.101852)
(-3.75194e-06 1.15043e-05 0.100974)
(-3.81369e-06 -4.59269e-06 0.0996445)
(-4.58283e-06 -3.80882e-06 0.0996441)
(4.03375e-05 4.03575e-05 0.101818)
(3.65017e-06 4.46415e-06 0.0996508)
(4.45947e-06 3.64316e-06 0.0996504)
(1.73226e-08 -7.68842e-06 0.100777)
(7.54657e-07 5.98699e-06 0.0960863)
(-2.78738e-08 7.5125e-06 0.100773)
(-9.70563e-07 -5.84433e-06 0.096093)
(-1.56135e-06 2.06144e-06 0.0861634)
(1.48929e-06 -2.06664e-06 0.0861706)
(-7.73721e-06 9.61481e-09 0.100777)
(5.95536e-06 7.30365e-07 0.0960859)
(7.56191e-06 -1.67854e-08 0.100773)
(-5.81093e-06 -9.42044e-07 0.0960928)
(5.05373e-07 -4.98814e-07 0.101856)
(-4.97869e-07 5.04202e-07 0.101856)
(5.1066e-07 4.92447e-07 0.101856)
(-5.02239e-07 -5.02861e-07 0.101856)
(5.04852e-07 -4.98136e-07 0.101856)
(-4.97268e-07 5.03963e-07 0.101856)
(5.08784e-07 4.91644e-07 0.101856)
(1.26147e-05 8.79695e-10 0.101647)
(-1.19114e-05 3.5065e-06 0.100968)
(-4.24946e-07 -1.52704e-07 0.101852)
(-3.38204e-07 5.31409e-07 0.101841)
(-1.27267e-05 -7.88051e-09 0.101646)
(1.14602e-05 -3.72371e-06 0.100974)
(-4.23436e-07 -1.53339e-07 0.101852)
(1.96339e-06 -1.5091e-06 0.0861614)
(-1.9579e-06 1.42929e-06 0.0861706)
(2.96304e-09 1.26168e-05 0.101647)
(-1.52126e-07 -4.19458e-07 0.101852)
(3.53329e-06 -1.19514e-05 0.100968)
(5.31355e-07 -3.33196e-07 0.101841)
(-9.61086e-09 -1.27292e-05 0.101646)
(-1.52674e-07 -4.22273e-07 0.101852)
(-3.75238e-06 1.15049e-05 0.100974)
(-3.81426e-06 -4.59211e-06 0.0996445)
(-4.58338e-06 -3.80859e-06 0.0996441)
(4.03357e-05 4.03593e-05 0.101818)
(3.64951e-06 4.4651e-06 0.0996508)
(4.45964e-06 3.64319e-06 0.0996504)
(1.74232e-08 -7.68828e-06 0.100777)
(7.55374e-07 5.98787e-06 0.0960863)
(-2.79581e-08 7.51362e-06 0.100773)
(-9.70137e-07 -5.84387e-06 0.096093)
(-1.56385e-06 2.06146e-06 0.0861634)
(1.48757e-06 -2.06822e-06 0.0861706)
(-7.73706e-06 9.46364e-09 0.100777)
(5.95614e-06 7.2998e-07 0.0960859)
(7.56244e-06 -1.64376e-08 0.100773)
(-5.81067e-06 -9.41991e-07 0.0960928)
(5.04736e-07 -4.98012e-07 0.101856)
(-4.97082e-07 5.03916e-07 0.101856)
(5.09872e-07 4.91615e-07 0.101856)
(-5.02446e-07 -5.03218e-07 0.101856)
(5.04796e-07 -4.97856e-07 0.101856)
(-4.97456e-07 5.04237e-07 0.101856)
(5.0898e-07 4.91775e-07 0.101856)
(1.26145e-05 1.24334e-09 0.101647)
(-1.19118e-05 3.50701e-06 0.100968)
(-4.25868e-07 -1.52821e-07 0.101852)
(-3.38927e-07 5.31741e-07 0.101841)