/*--------------------------------*- C++ -*----------------------------------*\
| =========                 |                                                 |
| \\      /  F ield         | OpenFOAM: The Open Source CFD Toolbox           |
|  \\    /   O peration     | Version:  2206                                  |
|   \\  /    A nd           | Website:  www.openfoam.com                      |
|    \\/     M anipulation  |                                                 |
\*---------------------------------------------------------------------------*/
FoamFile
{
    version     2.0;
    format      ascii;
    arch        "LSB;label=32;scalar=64";
    class       volScalarField;
    location    "2.5";
    object      epsilon;
}
// * * * * * * * * * * * * * * * * * * * * * * * * * * * * * * * * * * * * * //

dimensions      [0 2 -3 0 0 0 0];

internalField   nonuniform List<scalar> 
28755
(
5.039e-07
5.07516e-07
5.07518e-07
5.50014e-07
5.039e-07
5.07515e-07
5.07517e-07
5.50002e-07
5.039e-07
5.07508e-07
5.07515e-07
5.49967e-07
5.03899e-07
5.07508e-07
5.07513e-07
5.4998e-07
5.03899e-07
5.07514e-07
5.07514e-07
5.49993e-07
5.039e-07
5.07514e-07
5.07514e-07
5.50016e-07
5.039e-07
5.07507e-07
5.07516e-07
5.4998e-07
5.039e-07
5.07509e-07
5.07511e-07
5.49983e-07
5.039e-07
5.07515e-07
5.07517e-07
5.50006e-07
5.03901e-07
5.07509e-07
5.07518e-07
5.50016e-07
5.04616e-07
5.07909e-07
5.07911e-07
5.51985e-07
7.30969e-07
7.60799e-07
7.60846e-07
6.81524e-07
5.48605e-07
5.07511e-07
5.07517e-07
5.48611e-07
5.07511e-07
5.07515e-07
5.07518e-07
5.07516e-07
5.48632e-07
5.07518e-07
5.07519e-07
5.4862e-07
5.4998e-07
5.48593e-07
5.07513e-07
5.07516e-07
5.07511e-07
5.0752e-07
5.49987e-07
5.48583e-07
5.07519e-07
5.07518e-07
5.07512e-07
5.07519e-07
5.07513e-07
5.07514e-07
5.07515e-07
5.5001e-07
5.48611e-07
5.07512e-07
5.07512e-07
5.07518e-07
5.48604e-07
5.49969e-07
5.48579e-07
5.07513e-07
5.07515e-07
5.07514e-07
5.07519e-07
5.49968e-07
5.48573e-07
5.07519e-07
5.07518e-07
5.07514e-07
5.07516e-07
5.07512e-07
5.07514e-07
5.07517e-07
5.5e-07
5.48595e-07
5.07511e-07
5.07514e-07
5.07516e-07
5.48587e-07
5.4996e-07
5.48588e-07
5.07516e-07
5.07516e-07
5.07514e-07
5.07519e-07
5.4998e-07
5.48578e-07
5.07515e-07
5.07521e-07
5.07513e-07
5.07515e-07
5.07516e-07
5.07515e-07
5.07517e-07
5.49989e-07
5.48605e-07
5.07513e-07
5.07515e-07
5.07516e-07
5.48597e-07
5.49981e-07
5.48608e-07
5.07513e-07
5.07514e-07
5.07511e-07
5.07516e-07
5.49984e-07
5.48597e-07
5.07515e-07
5.07515e-07
5.07511e-07
5.07515e-07
5.07516e-07
5.07517e-07
5.07513e-07
5.50008e-07
5.4863e-07
5.07512e-07
5.07515e-07
5.07518e-07
5.48609e-07
5.49974e-07
5.48607e-07
5.07515e-07
5.07516e-07
5.07512e-07
5.07519e-07
5.49979e-07
5.48596e-07
5.07517e-07
5.07515e-07
5.07511e-07
5.07515e-07
5.07512e-07
5.07516e-07
5.07516e-07
5.50017e-07
5.48626e-07
5.07515e-07
5.07517e-07
5.07514e-07
5.48619e-07
5.49979e-07
5.48596e-07
5.07514e-07
5.07517e-07
5.07512e-07
5.07516e-07
5.49981e-07
5.48595e-07
5.07519e-07
5.07516e-07
5.07514e-07
5.07516e-07
5.07514e-07
5.07516e-07
5.0752e-07
5.50024e-07
5.48611e-07
5.07511e-07
5.07517e-07
5.07516e-07
5.48603e-07
5.49974e-07
5.486e-07
5.07516e-07
5.07517e-07
5.07512e-07
5.07516e-07
5.49996e-07
5.48584e-07
5.07516e-07
5.07519e-07
5.07514e-07
5.07515e-07
5.07517e-07
5.07516e-07
5.07518e-07
5.50014e-07
5.48606e-07
5.07514e-07
5.07516e-07
5.07513e-07
5.48591e-07
5.49985e-07
5.48603e-07
5.07513e-07
5.07518e-07
5.07511e-07
5.07517e-07
5.49973e-07
5.48598e-07
5.07511e-07
5.07516e-07
5.07514e-07
5.07514e-07
5.07515e-07
5.07517e-07
5.07511e-07
5.50013e-07
5.48614e-07
5.07513e-07
5.0752e-07
5.07518e-07
5.48612e-07
5.49985e-07
5.48596e-07
5.07513e-07
5.07515e-07
5.07514e-07
5.07514e-07
5.49974e-07
5.48595e-07
5.07515e-07
5.07517e-07
5.07511e-07
5.07518e-07
5.07512e-07
5.07513e-07
5.07518e-07
5.49999e-07
5.48611e-07
5.07511e-07
5.07516e-07
5.07516e-07
5.48616e-07
5.50015e-07
5.48839e-07
5.07511e-07
5.07515e-07
5.07609e-07
5.07606e-07
5.49982e-07
5.48831e-07
5.07513e-07
5.07519e-07
5.07604e-07
5.07613e-07
5.07517e-07
5.07603e-07
5.07612e-07
5.50009e-07
5.48843e-07
5.07508e-07
5.07609e-07
5.07604e-07
5.48841e-07
5.51982e-07
6.3294e-07
5.07909e-07
5.07913e-07
6.25093e-07
6.25068e-07
5.51974e-07
6.32946e-07
5.07911e-07
5.07916e-07
6.2509e-07
6.2507e-07
5.07915e-07
6.25095e-07
6.25081e-07
5.51989e-07
6.32975e-07
5.07911e-07
6.25098e-07
6.25065e-07
6.32956e-07
6.81499e-07
7.60819e-07
7.60842e-07
6.81513e-07
7.60792e-07
7.60889e-07
7.30929e-07
7.30971e-07
7.30989e-07
7.60804e-07
6.8157e-07
7.60793e-07
4.05815e-06
5.03899e-07
5.039e-07
5.03899e-07
5.039e-07
5.64703e-07
5.07526e-07
8.1043e-07
5.04037e-07
5.48625e-07
9.73175e-07
9.73229e-07
7.97487e-07
2.64485e-06
7.37361e-07
2.62025e-06
4.09705e-06
4.05816e-06
7.97436e-07
2.64506e-06
7.37384e-07
2.62045e-06
5.039e-07
5.039e-07
5.039e-07
5.039e-07
5.039e-07
5.039e-07
5.039e-07
5.6471e-07
7.23834e-07
5.04023e-07
5.07516e-07
5.53756e-07
8.10506e-07
5.04023e-07
4.09717e-06
4.05835e-06
5.64716e-07
5.04023e-07
7.23858e-07
5.07512e-07
5.53754e-07
5.04023e-07
8.10561e-07
9.19442e-07
9.19518e-07
5.48606e-07
9.73232e-07
9.73296e-07
7.97562e-07
2.64487e-06
7.37365e-07
2.62025e-06
4.09719e-06
4.05822e-06
7.9759e-07
2.6451e-06
7.37364e-07
2.62046e-06
5.039e-07
5.039e-07
5.039e-07
5.039e-07
5.039e-07
5.039e-07
5.039e-07
5.64696e-07
7.23819e-07
5.04023e-07
5.07515e-07
5.53724e-07
8.10556e-07
5.04023e-07
4.09732e-06
4.05843e-06
5.64704e-07
5.04023e-07
7.23852e-07
5.07511e-07
5.53739e-07
5.04023e-07
8.10595e-07
9.1946e-07
9.19532e-07
5.48604e-07
9.73389e-07
9.73409e-07
7.97577e-07
2.6449e-06
7.37362e-07
2.62027e-06
4.09718e-06
4.05826e-06
7.97756e-07
2.64513e-06
7.37389e-07
2.62041e-06
5.03899e-07
5.039e-07
5.039e-07
5.039e-07
5.039e-07
5.03899e-07
5.039e-07
5.64691e-07
7.23818e-07
5.04022e-07
5.07513e-07
5.53738e-07
8.10567e-07
5.04023e-07
4.09749e-06
4.05844e-06
5.64695e-07
5.04023e-07
7.23836e-07
5.07511e-07
5.5373e-07
5.04023e-07
8.10629e-07
9.19455e-07
9.19525e-07
5.48597e-07
9.73365e-07
9.73406e-07
7.97649e-07
2.6449e-06
7.3736e-07
2.62025e-06
4.09718e-06
4.05823e-06
7.97527e-07
2.6451e-06
7.37391e-07
2.62044e-06
5.03899e-07
5.03899e-07
5.039e-07
5.03899e-07
5.03899e-07
5.03899e-07
5.03899e-07
5.64691e-07
7.23833e-07
5.04023e-07
5.07514e-07
5.53737e-07
8.10522e-07
5.04023e-07
4.09722e-06
4.05838e-06
5.64705e-07
5.04023e-07
7.23863e-07
5.07511e-07
5.53748e-07
5.04023e-07
8.10563e-07
9.19467e-07
9.19534e-07
5.48602e-07
9.73392e-07
9.73377e-07
7.97451e-07
2.64484e-06
7.3738e-07
2.62025e-06
4.09703e-06
4.05817e-06
7.97563e-07
2.64509e-06
7.37378e-07
2.62043e-06
5.03899e-07
5.03899e-07
5.03899e-07
5.03899e-07
5.039e-07
5.03899e-07
5.03899e-07
5.64702e-07
7.23834e-07
5.04023e-07
5.07515e-07
5.53754e-07
8.105e-07
5.04023e-07
4.09724e-06
4.05837e-06
5.64706e-07
5.04023e-07
7.23857e-07
5.07511e-07
5.53776e-07
5.04022e-07
8.10535e-07
9.19457e-07
9.19527e-07
5.48617e-07
9.73245e-07
9.73234e-07
7.9752e-07
2.64486e-06
7.37357e-07
2.62026e-06
4.09708e-06
4.0582e-06
7.97473e-07
2.64508e-06
7.37381e-07
2.62045e-06
5.03899e-07
5.03899e-07
5.03899e-07
5.039e-07
5.039e-07
5.039e-07
5.039e-07
5.64707e-07
7.23842e-07
5.04023e-07
5.07518e-07
5.53761e-07
8.10492e-07
5.04023e-07
4.09715e-06
4.05834e-06
5.64717e-07
5.04023e-07
7.23867e-07
5.07511e-07
5.53764e-07
5.04023e-07
8.10533e-07
9.19452e-07
9.19522e-07
5.48616e-07
9.73179e-07
9.73239e-07
7.97558e-07
2.64487e-06
7.37365e-07
2.62026e-06
4.0971e-06
4.05821e-06
7.97592e-07
2.64511e-06
7.3737e-07
2.62045e-06
5.03899e-07
5.039e-07
5.039e-07
5.039e-07
5.039e-07
5.039e-07
5.039e-07
5.647e-07
7.23837e-07
5.04022e-07
5.07516e-07
5.53732e-07
8.10542e-07
5.04023e-07
4.09734e-06
4.05843e-06
5.64708e-07
5.04023e-07
7.23846e-07
5.07511e-07
5.53736e-07
5.04023e-07
8.10612e-07
9.19452e-07
9.19527e-07
5.48598e-07
9.73356e-07
9.73384e-07
7.97588e-07
2.64488e-06
7.37361e-07
2.62025e-06
4.09712e-06
4.05821e-06
7.97627e-07
2.6451e-06
7.37387e-07
2.62043e-06
5.039e-07
5.03899e-07
5.039e-07
5.039e-07
5.039e-07
5.039e-07
5.03899e-07
5.64699e-07
7.23831e-07
5.04022e-07
5.07516e-07
5.53738e-07
8.10554e-07
5.04023e-07
4.09729e-06
4.05839e-06
5.64704e-07
5.04023e-07
7.23862e-07
5.0751e-07
5.53746e-07
5.04023e-07
8.10569e-07
9.19467e-07
9.19534e-07
5.48603e-07
9.73368e-07
9.73372e-07
7.97472e-07
2.64485e-06
7.37369e-07
2.62025e-06
4.09706e-06
4.05821e-06
7.97535e-07
2.64508e-06
7.37381e-07
2.62043e-06
5.039e-07
5.039e-07
5.03899e-07
5.03901e-07
5.03901e-07
5.03901e-07
5.03901e-07
5.64697e-07
7.23831e-07
5.04023e-07
5.07515e-07
5.53744e-07
8.10513e-07
5.04023e-07
4.09726e-06
4.05839e-06
5.6471e-07
5.04023e-07
7.23855e-07
5.07512e-07
5.53757e-07
5.04022e-07
8.10569e-07
9.19463e-07
9.19532e-07
5.48609e-07
9.73293e-07
9.73338e-07
7.97671e-07
2.64495e-06
7.37353e-07
2.62031e-06
4.09722e-06
4.05865e-06
7.97639e-07
2.64515e-06
7.37365e-07
2.62048e-06
5.03901e-07
5.03902e-07
5.03901e-07
5.04032e-07
5.04032e-07
5.04033e-07
5.04032e-07
5.6468e-07
7.23812e-07
5.04022e-07
5.07522e-07
5.53754e-07
8.10654e-07
5.04023e-07
4.09733e-06
4.05881e-06
5.64689e-07
5.04022e-07
7.2384e-07
5.07521e-07
5.53763e-07
5.04024e-07
8.10674e-07
9.19453e-07
9.19518e-07
5.48629e-07
9.73494e-07
9.73495e-07
7.99894e-07
2.64594e-06
7.37295e-07
2.62189e-06
4.09917e-06
4.0763e-06
7.99914e-07
2.6462e-06
7.37339e-07
2.62203e-06
5.04622e-07
5.04615e-07
5.04616e-07
5.90401e-07
5.90403e-07
5.90415e-07
5.90368e-07
5.63731e-07
7.23918e-07
5.04583e-07
5.09624e-07
5.53705e-07
8.14098e-07
5.06207e-07
4.09943e-06
4.07649e-06
5.63616e-07
5.04591e-07
7.23942e-07
5.09637e-07
5.53825e-07
5.06218e-07
8.14085e-07
9.19603e-07
9.19676e-07
5.52919e-07
9.76833e-07
9.76848e-07
7.20829e-06
7.30478e-06
8.45809e-07
5.18094e-06
6.01213e-06
5.53919e-06
7.2063e-06
7.30548e-06
8.45658e-07
5.17461e-06
7.94594e-07
6.16493e-07
6.16496e-07
1.02076e-06
5.67138e-07
7.97807e-07
7.97802e-07
4.52797e-06
1.15837e-06
7.14789e-07
1.781e-06
6.21003e-07
6.63608e-06
8.2425e-07
6.01129e-06
5.54457e-06
4.52776e-06
7.14834e-07
1.15834e-06
1.7812e-06
6.21016e-07
8.2424e-07
6.64258e-06
1.58294e-06
1.58215e-06
2.64502e-06
5.7768e-06
5.77787e-06
4.05804e-06
4.09699e-06
4.05821e-06
4.09711e-06
5.49979e-07
9.73199e-07
9.73209e-07
9.19436e-07
9.19507e-07
2.62028e-06
5.07528e-07
8.10564e-07
7.3737e-07
2.62024e-06
2.64483e-06
7.97441e-07
7.37372e-07
2.62028e-06
2.64492e-06
7.97455e-07
5.53765e-07
5.07517e-07
8.10532e-07
5.04023e-07
7.23855e-07
5.04023e-07
5.64701e-07
5.53765e-07
5.0752e-07
8.10572e-07
5.04023e-07
7.23906e-07
5.04023e-07
5.64702e-07
5.48621e-07
9.73161e-07
9.73087e-07
4.05804e-06
4.05814e-06
4.09696e-06
5.49996e-07
9.73143e-07
9.73081e-07
9.19501e-07
9.19395e-07
4.05803e-06
4.09684e-06
7.37387e-07
2.62043e-06
2.64505e-06
7.97488e-07
5.53768e-07
5.07517e-07
8.10588e-07
5.04023e-07
7.239e-07
5.04023e-07
5.64714e-07
7.3739e-07
2.62054e-06
2.64517e-06
7.97492e-07
5.53772e-07
5.0752e-07
5.04023e-07
8.10632e-07
5.04023e-07
7.23948e-07
5.64714e-07
7.97463e-07
2.6203e-06
5.64704e-07
5.07515e-07
5.04038e-07
8.10521e-07
7.97452e-07
2.62042e-06
5.53778e-07
5.0751e-07
8.10455e-07
5.04023e-07
7.23846e-07
5.04023e-07
5.6471e-07
7.37377e-07
2.62031e-06
2.64488e-06
7.97397e-07
5.53779e-07
5.07522e-07
5.04023e-07
8.10538e-07
5.04023e-07
7.2388e-07
5.64709e-07
7.37376e-07
2.62042e-06
2.64501e-06
7.97407e-07
4.05833e-06
4.09715e-06
5.50011e-07
9.73272e-07
9.73235e-07
9.19572e-07
9.1945e-07
4.05818e-06
4.09696e-06
5.53766e-07
5.07513e-07
5.04023e-07
8.10513e-07
5.04023e-07
7.23878e-07
5.64716e-07
5.53765e-07
5.07511e-07
5.04023e-07
8.1063e-07
5.04023e-07
7.23917e-07
5.64717e-07
7.37377e-07
2.62046e-06
2.64504e-06
7.97434e-07
7.37376e-07
2.62047e-06
2.64508e-06
7.97441e-07
4.05814e-06
4.05828e-06
5.50002e-07
9.73149e-07
9.73248e-07
9.19446e-07
9.19518e-07
4.05814e-06
4.09702e-06
4.05828e-06
4.09708e-06
4.09699e-06
4.05809e-06
4.09711e-06
4.05827e-06
9.19434e-07
9.19503e-07
5.48608e-07
9.73242e-07
9.73279e-07
4.05811e-06
4.09704e-06
4.0583e-06
4.09714e-06
5.49976e-07
9.73298e-07
9.73377e-07
9.19439e-07
9.19513e-07
7.97499e-07
2.64492e-06
7.37362e-07
2.62028e-06
5.64703e-07
7.23855e-07
5.04023e-07
5.07511e-07
5.53754e-07
8.10557e-07
5.04023e-07
5.64702e-07
7.23893e-07
5.04023e-07
5.07518e-07
5.53755e-07
8.10628e-07
5.04023e-07
7.3736e-07
2.62025e-06
2.64486e-06
7.97556e-07
7.37361e-07
2.62029e-06
2.64493e-06
7.97554e-07
5.5374e-07
5.07517e-07
8.10564e-07
5.04023e-07
7.23846e-07
5.04023e-07
5.64695e-07
5.53741e-07
5.07515e-07
8.10644e-07
5.04023e-07
7.23889e-07
5.04023e-07
5.64695e-07
9.19494e-07
9.1939e-07
5.48607e-07
9.732e-07
9.73149e-07
4.09691e-06
4.05807e-06
4.0582e-06
4.09715e-06
5.49995e-07
9.73291e-07
9.73275e-07
9.19499e-07
9.19397e-07
4.05812e-06
4.09702e-06
5.6471e-07
7.23894e-07
5.04023e-07
5.07512e-07
5.53765e-07
8.10612e-07
5.04023e-07
7.97448e-07
2.64517e-06
7.37386e-07
2.62055e-06
5.64711e-07
5.04023e-07
7.23937e-07
5.07518e-07
5.5377e-07
5.04023e-07
8.10656e-07
7.37364e-07
2.62045e-06
2.64509e-06
7.975e-07
5.53739e-07
5.07517e-07
8.10654e-07
5.04023e-07
7.23893e-07
5.04023e-07
5.64707e-07
7.37367e-07
2.62056e-06
2.64518e-06
7.97478e-07
5.53743e-07
5.07522e-07
5.04023e-07
8.10659e-07
5.04023e-07
7.23934e-07
5.64704e-07
7.97449e-07
2.6449e-06
7.37359e-07
2.62031e-06
5.64711e-07
5.04023e-07
7.23868e-07
5.07516e-07
5.5376e-07
5.04023e-07
8.10582e-07
7.97453e-07
2.64501e-06
7.37362e-07
2.62043e-06
5.53732e-07
5.07512e-07
8.10537e-07
5.04023e-07
7.23825e-07
5.04023e-07
5.64697e-07
7.37353e-07
2.62032e-06
2.64492e-06
7.97545e-07
5.53735e-07
5.0752e-07
5.04023e-07
8.106e-07
5.04023e-07
7.23862e-07
5.64696e-07
7.37356e-07
2.62044e-06
2.64504e-06
7.97552e-07
9.19567e-07
9.19441e-07
5.48629e-07
9.73288e-07
9.7327e-07
4.09704e-06
4.05821e-06
4.0584e-06
4.09722e-06
5.5e-07
9.73355e-07
9.73337e-07
9.19567e-07
9.19444e-07
4.05822e-06
4.09714e-06
5.64717e-07
5.04023e-07
7.23906e-07
5.07516e-07
5.53755e-07
5.04023e-07
8.10661e-07
7.97476e-07
2.64504e-06
7.37372e-07
2.62045e-06
7.97491e-07
2.64509e-06
7.37371e-07
2.62047e-06
5.5374e-07
5.07513e-07
5.04023e-07
8.10586e-07
5.04023e-07
7.23854e-07
5.64705e-07
5.53738e-07
5.07511e-07
5.04023e-07
8.10677e-07
5.04023e-07
7.23899e-07
5.64701e-07
7.37369e-07
2.62044e-06
2.64506e-06
7.97566e-07
7.37369e-07
2.62047e-06
2.64511e-06
7.97571e-07
4.0971e-06
4.0582e-06
4.09716e-06
4.05831e-06
5.49987e-07
9.73344e-07
9.73381e-07
9.19448e-07
9.19521e-07
4.05825e-06
4.09718e-06
4.05834e-06
4.09726e-06
4.09707e-06
4.05812e-06
4.09717e-06
4.05832e-06
9.19442e-07
9.19518e-07
5.48596e-07
9.7332e-07
9.73374e-07
4.05816e-06
4.09708e-06
4.05831e-06
4.0973e-06
5.49969e-07
9.73366e-07
9.73407e-07
9.19444e-07
9.19518e-07
7.97568e-07
2.64496e-06
7.37361e-07
2.62029e-06
5.64689e-07
7.23847e-07
5.04023e-07
5.07512e-07
5.53737e-07
8.10576e-07
5.04023e-07
5.64691e-07
7.23884e-07
5.04023e-07
5.07515e-07
5.53735e-07
8.1068e-07
5.04023e-07
7.37362e-07
2.62026e-06
2.64487e-06
7.97584e-07
7.37361e-07
2.62029e-06
2.64495e-06
7.9761e-07
5.53729e-07
5.07515e-07
8.10565e-07
5.04023e-07
7.23842e-07
5.04023e-07
5.64685e-07
5.53727e-07
5.07518e-07
8.10637e-07
5.04023e-07
7.23891e-07
5.04023e-07
5.64685e-07
9.19507e-07
9.19404e-07
5.48582e-07
9.73371e-07
9.73287e-07
4.09707e-06
4.05813e-06
4.05823e-06
4.09716e-06
5.49967e-07
9.73325e-07
9.73285e-07
9.19513e-07
9.19405e-07
4.05811e-06
4.09713e-06
5.64704e-07
7.23892e-07
5.04023e-07
5.0751e-07
5.53724e-07
8.10657e-07
5.04023e-07
7.97601e-07
2.64522e-06
7.37361e-07
2.62056e-06
5.64706e-07
5.04023e-07
7.23915e-07
5.07518e-07
5.53723e-07
5.04023e-07
8.10742e-07
7.37367e-07
2.62043e-06
2.64514e-06
7.9775e-07
5.53711e-07
5.07513e-07
8.10686e-07
5.04023e-07
7.23878e-07
5.04023e-07
5.64701e-07
7.37368e-07
2.62053e-06
2.64523e-06
7.97762e-07
5.53714e-07
5.07516e-07
5.04023e-07
8.10751e-07
5.04023e-07
7.23917e-07
5.647e-07
7.97611e-07
2.64494e-06
7.37359e-07
2.6203e-06
5.64697e-07
5.04023e-07
7.2386e-07
5.07512e-07
5.53728e-07
5.04023e-07
8.10638e-07
7.97606e-07
2.64506e-06
7.3736e-07
2.62043e-06
5.53717e-07
5.07511e-07
8.10559e-07
5.04023e-07
7.23819e-07
5.04023e-07
5.64695e-07
7.37362e-07
2.62028e-06
2.64494e-06
7.97741e-07
5.5372e-07
5.07513e-07
5.04023e-07
8.10614e-07
5.04023e-07
7.23859e-07
5.64695e-07
7.37363e-07
2.62041e-06
2.64506e-06
7.97737e-07
9.19572e-07
9.19449e-07
5.48612e-07
9.73452e-07
9.73333e-07
4.09718e-06
4.05822e-06
4.05843e-06
4.09742e-06
5.49996e-07
9.73455e-07
9.73382e-07
9.19578e-07
9.19446e-07
4.05826e-06
4.09725e-06
5.64704e-07
5.04023e-07
7.23903e-07
5.07513e-07
5.53736e-07
5.04023e-07
8.10698e-07
7.97586e-07
2.64506e-06
7.37375e-07
2.62044e-06
7.97584e-07
2.64512e-06
7.37372e-07
2.62046e-06
5.53723e-07
5.07519e-07
5.04023e-07
8.10612e-07
5.04024e-07
7.23839e-07
5.64703e-07
5.53723e-07
5.07517e-07
5.04023e-07
8.10676e-07
5.04023e-07
7.239e-07
5.64702e-07
7.37367e-07
2.62044e-06
2.64507e-06
7.97696e-07
7.37368e-07
2.62044e-06
2.64512e-06
7.97713e-07
4.09722e-06
4.05825e-06
4.09727e-06
4.05834e-06
5.49982e-07
9.73322e-07
9.73345e-07
9.19459e-07
9.19528e-07
4.05824e-06
4.09725e-06
4.05834e-06
4.09729e-06
4.09711e-06
4.05818e-06
4.09733e-06
4.05829e-06
9.19448e-07
9.1952e-07
5.48582e-07
9.73423e-07
9.73403e-07
4.05817e-06
4.09707e-06
4.05828e-06
4.09724e-06
5.49961e-07
9.73414e-07
9.73351e-07
9.19457e-07
9.19522e-07
7.97572e-07
2.64496e-06
7.37364e-07
2.6203e-06
5.64686e-07
7.2384e-07
5.04023e-07
5.07512e-07
5.53727e-07
8.10595e-07
5.04023e-07
5.64687e-07
7.23886e-07
5.04023e-07
5.07519e-07
5.53728e-07
8.10659e-07
5.04023e-07
7.37357e-07
2.62027e-06
2.64489e-06
7.97596e-07
7.37354e-07
2.6203e-06
2.64497e-06
7.97611e-07
5.53719e-07
5.07515e-07
8.10589e-07
5.04023e-07
7.23855e-07
5.04023e-07
5.64687e-07
5.53716e-07
5.0752e-07
8.10678e-07
5.04023e-07
7.2389e-07
5.04023e-07
5.64687e-07
9.19509e-07
9.19407e-07
5.48581e-07
9.73378e-07
9.73304e-07
4.09714e-06
4.0581e-06
4.05826e-06
4.09717e-06
5.49956e-07
9.73425e-07
9.73283e-07
9.19516e-07
9.19409e-07
4.0581e-06
4.09707e-06
5.64696e-07
7.23879e-07
5.04023e-07
5.07511e-07
5.53728e-07
8.10684e-07
5.04023e-07
7.97754e-07
2.64523e-06
7.3739e-07
2.62053e-06
5.64695e-07
5.04023e-07
7.23911e-07
5.07516e-07
5.53732e-07
5.04023e-07
8.10758e-07
7.37395e-07
2.62043e-06
2.6451e-06
7.97643e-07
5.53743e-07
5.07513e-07
8.10638e-07
5.04023e-07
7.23895e-07
5.04023e-07
5.64698e-07
7.37394e-07
2.62054e-06
2.64522e-06
7.97642e-07
5.53743e-07
5.07516e-07
5.04023e-07
8.10708e-07
5.04023e-07
7.23933e-07
5.64698e-07
7.97662e-07
2.64494e-06
7.37383e-07
2.62028e-06
5.6469e-07
5.04023e-07
7.23851e-07
5.07518e-07
5.53739e-07
5.04023e-07
8.10614e-07
7.97637e-07
2.64505e-06
7.37382e-07
2.62042e-06
5.53736e-07
5.07513e-07
8.10557e-07
5.04023e-07
7.23831e-07
5.04023e-07
5.64692e-07
7.37374e-07
2.6203e-06
2.64493e-06
7.97622e-07
5.53733e-07
5.07513e-07
5.04023e-07
8.10612e-07
5.04023e-07
7.23855e-07
5.64689e-07
7.37369e-07
2.62043e-06
2.64506e-06
7.97619e-07
9.19578e-07
9.19452e-07
5.48601e-07
9.73495e-07
9.73458e-07
4.09732e-06
4.05828e-06
4.05841e-06
4.09738e-06
5.49991e-07
9.73495e-07
9.7341e-07
9.19589e-07
9.19463e-07
4.05824e-06
4.09725e-06
5.64695e-07
5.04023e-07
7.23887e-07
5.07515e-07
5.53732e-07
5.04023e-07
8.10701e-07
7.97693e-07
2.64509e-06
7.37382e-07
2.62043e-06
7.97694e-07
2.64513e-06
7.37385e-07
2.62044e-06
5.53731e-07
5.07515e-07
5.04023e-07
8.10608e-07
5.04023e-07
7.23853e-07
5.64697e-07
5.53728e-07
5.07517e-07
5.04023e-07
8.10693e-07
5.04023e-07
7.23894e-07
5.64693e-07
7.37383e-07
2.62043e-06
2.64509e-06
7.97695e-07
7.3738e-07
2.62045e-06
2.64514e-06
7.97691e-07
4.09731e-06
4.05826e-06
4.0974e-06
4.05836e-06
5.49982e-07
9.73389e-07
9.73422e-07
9.19463e-07
9.19532e-07
4.05827e-06
4.09726e-06
4.05835e-06
4.09737e-06
4.09706e-06
4.05813e-06
4.09719e-06
4.05827e-06
9.19458e-07
9.1952e-07
5.48599e-07
9.73371e-07
9.73349e-07
4.05807e-06
4.09701e-06
4.05826e-06
4.09711e-06
5.49974e-07
9.73236e-07
9.73271e-07
9.19452e-07
9.19518e-07
7.97652e-07
2.64497e-06
7.37361e-07
2.62029e-06
5.64691e-07
7.23854e-07
5.04023e-07
5.07511e-07
5.53719e-07
8.10588e-07
5.04023e-07
5.6469e-07
7.23893e-07
5.04023e-07
5.07519e-07
5.5372e-07
8.10664e-07
5.04023e-07
7.37377e-07
2.62023e-06
2.64487e-06
7.97597e-07
7.37376e-07
2.62027e-06
2.64495e-06
7.9761e-07
5.53745e-07
5.07514e-07
8.10528e-07
5.04023e-07
7.23861e-07
5.04022e-07
5.64692e-07
5.53742e-07
5.07519e-07
8.10606e-07
5.04022e-07
7.23902e-07
5.04023e-07
5.64693e-07
9.1952e-07
9.19408e-07
5.48585e-07
9.73382e-07
9.7328e-07
4.09704e-06
4.0581e-06
4.05818e-06
4.09711e-06
5.4996e-07
9.73278e-07
9.73192e-07
9.19517e-07
9.19408e-07
4.05809e-06
4.09697e-06
5.64702e-07
7.23899e-07
5.04023e-07
5.07512e-07
5.53752e-07
8.1063e-07
5.04023e-07
7.97518e-07
2.6452e-06
7.37389e-07
2.62055e-06
5.64703e-07
5.04023e-07
7.23949e-07
5.07516e-07
5.53752e-07
5.04023e-07
8.10652e-07
7.37374e-07
2.62044e-06
2.64509e-06
7.97529e-07
5.53742e-07
5.07514e-07
8.10594e-07
5.04023e-07
7.23904e-07
5.04023e-07
5.64705e-07
7.37374e-07
2.62054e-06
2.6452e-06
7.9753e-07
5.53743e-07
5.07516e-07
5.04023e-07
8.10649e-07
5.04023e-07
7.23936e-07
5.64706e-07
7.97582e-07
2.64492e-06
7.3737e-07
2.6203e-06
5.64691e-07
5.04023e-07
7.23866e-07
5.07517e-07
5.53737e-07
5.04023e-07
8.10596e-07
7.97585e-07
2.64506e-06
7.3737e-07
2.62043e-06
5.53739e-07
5.07513e-07
8.10488e-07
5.04023e-07
7.23833e-07
5.04022e-07
5.64697e-07
7.37369e-07
2.6203e-06
2.64493e-06
7.97577e-07
5.53741e-07
5.07511e-07
5.04022e-07
8.10552e-07
5.04022e-07
7.2388e-07
5.64696e-07
7.3737e-07
2.62041e-06
2.64506e-06
7.97595e-07
9.19589e-07
9.19458e-07
5.48617e-07
9.73363e-07
9.73298e-07
4.09715e-06
4.05819e-06
4.05837e-06
4.09721e-06
5.50006e-07
9.7331e-07
9.7319e-07
9.19575e-07
9.19449e-07
4.05815e-06
4.09711e-06
5.64701e-07
5.04023e-07
7.23901e-07
5.07514e-07
5.53743e-07
5.04023e-07
8.10664e-07
7.97646e-07
2.64506e-06
7.37391e-07
2.62042e-06
7.97662e-07
2.64513e-06
7.37387e-07
2.62044e-06
5.53763e-07
5.07516e-07
5.04023e-07
8.10533e-07
5.04023e-07
7.2386e-07
5.6471e-07
5.5376e-07
5.07516e-07
5.04023e-07
8.10621e-07
5.04023e-07
7.23916e-07
5.6471e-07
7.37394e-07
2.62042e-06
2.64504e-06
7.97588e-07
7.37394e-07
2.62043e-06
2.64512e-06
7.97614e-07
4.09721e-06
4.05826e-06
4.09732e-06
4.05832e-06
5.49987e-07
9.73267e-07
9.73269e-07
9.19468e-07
9.19531e-07
4.05821e-06
4.09711e-06
4.05827e-06
4.09723e-06
4.09697e-06
4.05807e-06
4.09713e-06
4.05825e-06
9.19439e-07
9.19511e-07
5.48609e-07
9.73209e-07
9.73253e-07
4.0581e-06
4.09694e-06
4.05825e-06
4.09711e-06
5.49975e-07
9.73233e-07
9.73272e-07
9.19437e-07
9.19511e-07
7.9746e-07
2.64493e-06
7.37378e-07
2.62028e-06
5.64696e-07
7.23857e-07
5.04022e-07
5.07511e-07
5.53763e-07
8.10513e-07
5.04023e-07
5.64699e-07
7.23905e-07
5.04023e-07
5.07517e-07
5.53762e-07
8.10584e-07
5.04022e-07
7.37362e-07
2.62026e-06
2.64485e-06
7.9743e-07
7.37361e-07
2.6203e-06
2.64493e-06
7.97443e-07
5.53754e-07
5.0752e-07
8.10519e-07
5.04022e-07
7.23856e-07
5.04023e-07
5.647e-07
5.53752e-07
5.0752e-07
8.10571e-07
5.04022e-07
7.23902e-07
5.04023e-07
5.647e-07
9.19509e-07
9.19403e-07
5.4861e-07
9.73228e-07
9.73159e-07
4.09698e-06
4.05805e-06
4.05821e-06
4.097e-06
5.49984e-07
9.73229e-07
9.7319e-07
9.19503e-07
9.19401e-07
4.05806e-06
4.09695e-06
5.64709e-07
7.23896e-07
5.04023e-07
5.07511e-07
5.53746e-07
8.10604e-07
5.04023e-07
7.97559e-07
2.64519e-06
7.37377e-07
2.62054e-06
5.6471e-07
5.04023e-07
7.23933e-07
5.07515e-07
5.53748e-07
5.04023e-07
8.1067e-07
7.37388e-07
2.62044e-06
2.64508e-06
7.97501e-07
5.5376e-07
5.07516e-07
8.10595e-07
5.04023e-07
7.239e-07
5.04023e-07
5.64709e-07
7.37387e-07
2.62054e-06
2.64518e-06
7.97519e-07
5.5376e-07
5.07522e-07
5.04023e-07
8.10638e-07
5.04023e-07
7.23939e-07
5.64708e-07
7.97548e-07
2.64491e-06
7.37377e-07
2.62029e-06
5.64701e-07
5.04022e-07
7.23879e-07
5.07517e-07
5.53758e-07
5.04022e-07
8.10542e-07
7.97544e-07
2.64504e-06
7.37379e-07
2.62042e-06
5.53769e-07
5.07509e-07
8.10483e-07
5.04023e-07
7.23841e-07
5.04023e-07
5.64706e-07
7.3738e-07
2.62031e-06
2.6449e-06
7.97458e-07
5.53769e-07
5.07519e-07
5.04023e-07
8.10521e-07
5.04023e-07
7.23878e-07
5.64705e-07
7.3738e-07
2.62043e-06
2.64502e-06
7.97456e-07
9.19569e-07
9.19439e-07
5.48629e-07
9.73326e-07
9.73223e-07
4.09711e-06
4.05816e-06
4.05836e-06
4.09722e-06
5.50006e-07
9.73327e-07
9.7324e-07
9.19573e-07
9.19443e-07
4.05818e-06
4.09703e-06
5.64704e-07
5.04023e-07
7.2392e-07
5.07515e-07
5.53777e-07
5.04022e-07
8.1058e-07
7.97437e-07
2.64502e-06
7.37392e-07
2.62043e-06
7.97453e-07
2.64509e-06
7.37396e-07
2.62045e-06
5.53772e-07
5.07515e-07
5.04023e-07
8.10505e-07
5.04023e-07
7.23868e-07
5.64713e-07
5.53771e-07
5.07511e-07
5.04023e-07
8.10584e-07
5.04023e-07
7.23921e-07
5.64711e-07
7.37379e-07
2.62045e-06
2.64502e-06
7.97401e-07
7.3738e-07
2.62046e-06
2.64509e-06
7.97407e-07
4.0971e-06
4.05819e-06
4.09714e-06
4.05827e-06
5.49999e-07
9.73201e-07
9.73227e-07
9.19453e-07
9.19522e-07
4.05818e-06
4.09703e-06
4.05827e-06
4.09707e-06
4.09699e-06
4.05811e-06
4.0971e-06
4.05827e-06
9.19439e-07
9.19514e-07
5.48605e-07
9.73272e-07
9.7329e-07
4.0581e-06
4.09701e-06
4.05828e-06
4.09711e-06
5.4998e-07
9.73271e-07
9.73321e-07
9.19442e-07
9.19514e-07
7.9754e-07
2.64496e-06
7.37355e-07
2.62029e-06
5.64699e-07
7.23851e-07
5.04022e-07
5.07512e-07
5.53741e-07
8.10547e-07
5.04023e-07
5.647e-07
7.23891e-07
5.04023e-07
5.07518e-07
5.53739e-07
8.1064e-07
5.04023e-07
7.37364e-07
2.62025e-06
2.64486e-06
7.97533e-07
7.37367e-07
2.62029e-06
2.64494e-06
7.9755e-07
5.53744e-07
5.07515e-07
8.10551e-07
5.04023e-07
7.23852e-07
5.04022e-07
5.64698e-07
5.53745e-07
5.07519e-07
8.10633e-07
5.04022e-07
7.23899e-07
5.04023e-07
5.647e-07
9.19506e-07
9.19401e-07
5.486e-07
9.73284e-07
9.73192e-07
4.09689e-06
4.05809e-06
4.05819e-06
4.09709e-06
5.49983e-07
9.7329e-07
9.73225e-07
9.19508e-07
9.19404e-07
4.0581e-06
4.09695e-06
5.64712e-07
7.23901e-07
5.04023e-07
5.07511e-07
5.53758e-07
8.10603e-07
5.04023e-07
7.97469e-07
2.64518e-06
7.37383e-07
2.62055e-06
5.64712e-07
5.04022e-07
7.23944e-07
5.07518e-07
5.53763e-07
5.04023e-07
8.10657e-07
7.37369e-07
2.62045e-06
2.6451e-06
7.975e-07
5.53745e-07
5.07513e-07
8.10632e-07
5.04023e-07
7.23897e-07
5.04023e-07
5.64711e-07
7.3737e-07
2.62056e-06
2.64518e-06
7.97486e-07
5.53749e-07
5.07524e-07
5.04023e-07
8.10678e-07
5.04023e-07
7.2393e-07
5.64711e-07
7.97446e-07
2.64491e-06
7.37367e-07
2.62032e-06
5.64709e-07
5.04023e-07
7.23883e-07
5.07522e-07
5.53764e-07
5.04023e-07
8.1054e-07
7.97427e-07
2.64501e-06
7.37368e-07
2.62044e-06
5.53747e-07
5.07512e-07
8.1052e-07
5.04023e-07
7.23841e-07
5.04023e-07
5.64705e-07
7.3736e-07
2.62032e-06
2.64492e-06
7.97476e-07
5.53748e-07
5.07513e-07
5.04023e-07
8.10579e-07
5.04023e-07
7.23861e-07
5.64705e-07
7.37358e-07
2.62044e-06
2.64503e-06
7.97473e-07
9.19574e-07
9.19443e-07
5.48629e-07
9.73302e-07
9.73239e-07
4.09698e-06
4.0582e-06
4.05839e-06
4.09719e-06
5.49996e-07
9.73337e-07
9.73282e-07
9.19566e-07
9.19442e-07
4.05823e-06
4.09705e-06
5.64715e-07
5.04023e-07
7.23921e-07
5.07517e-07
5.53763e-07
5.04023e-07
8.10617e-07
7.97416e-07
2.64503e-06
7.37371e-07
2.62046e-06
7.97401e-07
2.64508e-06
7.3737e-07
2.62047e-06
5.53746e-07
5.0752e-07
5.04023e-07
8.10577e-07
5.04023e-07
7.2386e-07
5.64716e-07
5.53742e-07
5.07518e-07
5.04023e-07
8.10659e-07
5.04023e-07
7.23904e-07
5.64713e-07
7.37363e-07
2.62045e-06
2.64504e-06
7.97504e-07
7.3736e-07
2.62047e-06
2.6451e-06
7.9751e-07
4.09702e-06
4.05817e-06
4.09707e-06
4.05829e-06
5.49998e-07
9.73264e-07
9.73335e-07
9.19443e-07
9.19517e-07
4.05822e-06
4.09711e-06
4.05833e-06
4.09718e-06
4.09704e-06
4.05812e-06
4.09717e-06
4.05829e-06
9.19442e-07
9.19516e-07
5.48594e-07
9.73313e-07
9.73354e-07
4.05813e-06
4.09703e-06
4.05828e-06
4.0972e-06
5.49971e-07
9.73334e-07
9.73354e-07
9.19446e-07
9.19519e-07
7.97563e-07
2.64494e-06
7.37366e-07
2.6203e-06
5.64698e-07
7.2385e-07
5.04023e-07
5.07515e-07
5.53745e-07
8.10585e-07
5.04023e-07
5.64699e-07
7.23896e-07
5.04023e-07
5.07518e-07
5.53745e-07
8.10637e-07
5.04023e-07
7.37363e-07
2.62027e-06
2.64486e-06
7.97528e-07
7.37364e-07
2.6203e-06
2.64495e-06
7.97545e-07
5.53739e-07
5.07514e-07
8.10557e-07
5.04023e-07
7.23853e-07
5.04023e-07
5.6469e-07
5.53739e-07
5.07519e-07
8.10651e-07
5.04023e-07
7.23889e-07
5.04023e-07
5.64691e-07
9.19509e-07
9.19406e-07
5.48594e-07
9.73289e-07
9.73273e-07
4.09698e-06
4.05812e-06
4.05823e-06
4.09716e-06
5.49975e-07
9.73366e-07
9.73275e-07
9.19508e-07
9.19409e-07
4.05811e-06
4.09704e-06
5.64708e-07
7.23895e-07
5.04023e-07
5.07512e-07
5.53733e-07
8.10664e-07
5.04023e-07
7.97596e-07
2.6452e-06
7.37368e-07
2.62055e-06
5.64709e-07
5.04023e-07
7.23917e-07
5.07518e-07
5.53734e-07
5.04023e-07
8.10725e-07
7.37374e-07
2.62044e-06
2.64511e-06
7.97647e-07
5.5373e-07
5.07513e-07
8.10644e-07
5.04023e-07
7.23893e-07
5.04023e-07
5.64703e-07
7.37377e-07
2.62054e-06
2.64521e-06
7.97649e-07
5.53734e-07
5.07523e-07
5.04023e-07
8.10708e-07
5.04023e-07
7.23924e-07
5.64701e-07
7.97513e-07
2.64493e-06
7.37355e-07
2.62032e-06
5.64702e-07
5.04023e-07
7.23862e-07
5.07522e-07
5.53736e-07
5.04023e-07
8.1062e-07
7.97521e-07
2.64504e-06
7.37357e-07
2.62045e-06
5.53718e-07
5.07511e-07
8.10558e-07
5.04023e-07
7.23832e-07
5.04023e-07
5.64697e-07
7.37351e-07
2.6203e-06
2.64494e-06
7.97627e-07
5.53721e-07
5.07512e-07
5.04023e-07
8.10626e-07
5.04023e-07
7.23863e-07
5.64695e-07
7.37353e-07
2.62043e-06
2.64507e-06
7.97623e-07
9.19569e-07
9.19446e-07
5.48614e-07
9.73428e-07
9.73402e-07
4.09719e-06
4.05826e-06
4.05841e-06
4.09738e-06
5.49994e-07
9.73455e-07
9.73387e-07
9.19579e-07
9.19458e-07
4.05822e-06
4.09722e-06
5.64707e-07
5.04023e-07
7.23899e-07
5.07516e-07
5.53736e-07
5.04023e-07
8.10693e-07
7.97577e-07
2.64506e-06
7.37368e-07
2.62046e-06
7.97603e-07
2.64512e-06
7.37369e-07
2.62047e-06
5.53727e-07
5.07515e-07
5.04023e-07
8.10614e-07
5.04023e-07
7.23853e-07
5.64703e-07
5.53729e-07
5.07517e-07
5.04023e-07
8.10702e-07
5.04023e-07
7.239e-07
5.64699e-07
7.37369e-07
2.62043e-06
2.64508e-06
7.97644e-07
7.37373e-07
2.62045e-06
2.64514e-06
7.97641e-07
4.0972e-06
4.05826e-06
4.09727e-06
4.05836e-06
5.49984e-07
9.73389e-07
9.73417e-07
9.19462e-07
9.19532e-07
4.05826e-06
4.09725e-06
4.05833e-06
4.09734e-06
4.09705e-06
4.05811e-06
4.09719e-06
4.05826e-06
9.19448e-07
9.19516e-07
5.4859e-07
9.73302e-07
9.73305e-07
4.05808e-06
4.09704e-06
4.05826e-06
4.09717e-06
5.49972e-07
9.73294e-07
9.73301e-07
9.19446e-07
9.19513e-07
7.97592e-07