/*--------------------------------*- C++ -*----------------------------------*\
| =========                 |                                                 |
| \\      /  F ield         | OpenFOAM: The Open Source CFD Toolbox           |
|  \\    /   O peration     | Version:  2206                                  |
|   \\  /    A nd           | Website:  www.openfoam.com                      |
|    \\/     M anipulation  |                                                 |
\*---------------------------------------------------------------------------*/
FoamFile
{
    version     2.0;
    format      ascii;
    arch        "LSB;label=32;scalar=64";
    class       volScalarField;
    location    "2.5";
    object      p;
}
// * * * * * * * * * * * * * * * * * * * * * * * * * * * * * * * * * * * * * //

dimensions      [0 2 -2 0 0 0 0];

internalField   nonuniform List<scalar> 
28673
(
0.000502082
0.000504498
0.000460347
0.000460325
0.000460327
0.000462746
0.00041858
0.000418558
0.000418559
0.000420979
0.000376812
0.000376791
0.000376792
0.000379211
0.000335046
0.000335024
0.000335025
0.000337444
0.000293279
0.000293257
0.000293258
0.000295677
0.000251512
0.000251491
0.000251491
0.00025391
0.000209744
0.000209723
0.000209723
0.000212143
0.000167976
0.000167955
0.000167955
0.000170375
0.000126209
0.000126189
0.000126188
0.000128608
8.44562e-05
8.44272e-05
8.4426e-05
8.68414e-05
4.32951e-05
4.2788e-05
4.27858e-05
4.50891e-05
1.04648e-05
1.06998e-05
1.06972e-05
1.0348e-05
0.000512518
0.000510113
0.000512518
0.00046836
0.000502079
0.000502081
0.000470767
0.000470766
0.000504501
0.00046836
0.000470768
0.000470768
0.000502079
0.000470766
0.000470767
0.000468361
0.000502079
0.000470768
0.000470767
0.00046836
0.000462746
0.000426594
0.000460326
0.000460325
0.000429001
0.000429
0.000462745
0.000426593
0.000460326
0.000460327
0.000429001
0.000429001
0.000460326
0.000429
0.000429001
0.000462746
0.000426594
0.000460326
0.000429001
0.000429001
0.000426594
0.000420979
0.000384826
0.000418559
0.000418558
0.000387233
0.000387233
0.000420978
0.000384826
0.000418559
0.000418559
0.000387233
0.000387233
0.000418559
0.000387233
0.000387233
0.000420979
0.000384826
0.000418559
0.000387233
0.000387233
0.000384826
0.000379211
0.000343059
0.000376791
0.000376791
0.000345466
0.000345466
0.000379211
0.000343059
0.000376791
0.000376792
0.000345466
0.000345466
0.000376792
0.000345466
0.000345467
0.000379211
0.000343059
0.000376791
0.000345466
0.000345466
0.000343059
0.000337444
0.000301292
0.000335024
0.000335024
0.000303699
0.000303699
0.000337444
0.000301292
0.000335025
0.000335025
0.000303699
0.000303699
0.000335025
0.000303699
0.0003037
0.000337445
0.000301292
0.000335024
0.0003037
0.000303699
0.000301292
0.000295677
0.000259526
0.000293258
0.000293257
0.000261933
0.000261932
0.000295677
0.000259526
0.000293258
0.000293258
0.000261933
0.000261932
0.000293258
0.000261933
0.000261933
0.000295678
0.000259525
0.000293258
0.000261933
0.000261932
0.000259525
0.000253911
0.000217758
0.000251491
0.000251491
0.000220165
0.000220165
0.00025391
0.000217758
0.000251491
0.000251491
0.000220165
0.000220165
0.000251491
0.000220165
0.000220165
0.000253911
0.000217758
0.000251491
0.000220165
0.000220165
0.000217758
0.000212143
0.00017599
0.000209723
0.000209723
0.000178397
0.000178397
0.000212143
0.00017599
0.000209723
0.000209723
0.000178397
0.000178397
0.000209723
0.000178397
0.000178397
0.000212143
0.00017599
0.000209723
0.000178397
0.000178397
0.00017599
0.000170375
0.000134223
0.000167955
0.000167955
0.00013663
0.00013663
0.000170375
0.000134224
0.000167955
0.000167955
0.00013663
0.00013663
0.000167955
0.00013663
0.00013663
0.000170375
0.000134223
0.000167955
0.00013663
0.00013663
0.000134223
0.000128608
9.24576e-05
0.000126188
0.000126189
9.48666e-05
9.48669e-05
0.000128608
9.24582e-05
0.000126189
0.000126188
9.48662e-05
9.48661e-05
0.000126189
9.48667e-05
9.48659e-05
0.000128608
9.24568e-05
0.000126189
9.48659e-05
9.48658e-05
9.24569e-05
8.68426e-05
5.07072e-05
8.44274e-05
8.44271e-05
5.31475e-05
5.31486e-05
8.6842e-05
5.07087e-05
8.44269e-05
8.44264e-05
5.31455e-05
5.31454e-05
8.44267e-05
5.31468e-05
5.31446e-05
8.6842e-05
5.07051e-05
8.44267e-05
5.31447e-05
5.31434e-05
5.07041e-05
4.50928e-05
1.33105e-05
4.27898e-05
4.27902e-05
1.51624e-05
1.51627e-05
4.50934e-05
1.33113e-05
4.27874e-05
4.27868e-05
1.51602e-05
1.51569e-05
4.27855e-05
1.51595e-05
1.51548e-05
4.50904e-05
1.33063e-05
4.27844e-05
1.51572e-05
1.51558e-05
1.33045e-05
1.03522e-05
1.07003e-05
1.07012e-05
1.03539e-05
1.06986e-05
1.06963e-05
1.04653e-05
1.04629e-05
1.04624e-05
1.06956e-05
1.03496e-05
1.06957e-05
0.00048908
0.000504672
0.000504667
0.000489072
0.000504682
0.00048906
0.000489057
0.000489052
0.000502103
0.000502101
0.000470787
0.000470787
0.000470788
0.000470787
0.000489135
0.000504657
0.000502087
0.000491647
0.000504619
0.000489101
0.000491651
0.000489056
0.000489133
0.000502086
0.000491641
0.000504617
0.000491649
0.000489087
0.000504667
0.000504666
0.00048924
0.000489077
0.000489078
0.000447307
0.000462934
0.000462928
0.000447299
0.000462936
0.000447296
0.000447308
0.000462937
0.000462932
0.0004473
0.000460346
0.000460347
0.000460346
0.000429022
0.000429021
0.000429022
0.000429021
0.00044737
0.000462899
0.000460331
0.000449883
0.000462866
0.000447332
0.00044989
0.000462939
0.000447298
0.000447371
0.000460332
0.000462903
0.000449885
0.000462867
0.000449891
0.000447333
0.000462935
0.000462935
0.000447477
0.0004473
0.0004473
0.000405539
0.000421166
0.00042116
0.000405532
0.000421169
0.000405529
0.00040554
0.000421167
0.000421161
0.000405532
0.000418579
0.00041858
0.000418579
0.000387254
0.000387254
0.000387255
0.000387254
0.000405603
0.000421132
0.000418565
0.000408117
0.000421099
0.000405565
0.000408123
0.00042117
0.00040553
0.000405603
0.000418565
0.000421133
0.000408117
0.0004211
0.000408123
0.000405565
0.000421167
0.000421167
0.00040571
0.000405532
0.000405532
0.000363772
0.000379399
0.000379393
0.000363764
0.000379401
0.000363762
0.000363772
0.000379399
0.000379393
0.000363765
0.000376812
0.000376813
0.000376812
0.000345487
0.000345487
0.000345488
0.000345487
0.000363835
0.000379365
0.000376798
0.000366349
0.000379332
0.000363798
0.000366356
0.000379402
0.000363762
0.000363836
0.000376798
0.000379365
0.00036635
0.000379332
0.000366356
0.000363798
0.000379399
0.0003794
0.000363943
0.000363765
0.000363765
0.000322005
0.000337632
0.000337626
0.000321998
0.000337635
0.000321995
0.000322006
0.000337632
0.000337627
0.000321998
0.000335045
0.000335046
0.000335045
0.000303721
0.00030372
0.000303721
0.00030372
0.000322069
0.000337598
0.000335031
0.000324583
0.000337565
0.000322031
0.000324589
0.000337635
0.000321996
0.000322069
0.000335031
0.000337598
0.000324583
0.000337565
0.000324589
0.000322031
0.000337632
0.000337632
0.000322176
0.000321998
0.000321998
0.000280239
0.000295865
0.000295859
0.000280231
0.000295868
0.000280229
0.000280239
0.000295865
0.00029586
0.000280231
0.000293279
0.000293279
0.000293278
0.000261954
0.000261953
0.000261954
0.000261953
0.000280302
0.000295831
0.000293264
0.000282816
0.000295798
0.000280264
0.000282822
0.000295868
0.000280229
0.000280302
0.000293264
0.000295832
0.000282816
0.000295798
0.000282822
0.000280264
0.000295866
0.000295866
0.000280409
0.000280231
0.000280231
0.000238472
0.000254098
0.000254093
0.000238464
0.000254101
0.000238461
0.000238472
0.000254098
0.000254093
0.000238464
0.000251512
0.000251512
0.000251511
0.000220186
0.000220186
0.000220186
0.000220186
0.000238535
0.000254064
0.000251497
0.000241049
0.000254031
0.000238497
0.000241055
0.000254101
0.000238461
0.000238535
0.000251497
0.000254065
0.000241049
0.000254031
0.000241055
0.000238497
0.000254099
0.000254099
0.000238642
0.000238464
0.000238464
0.000196704
0.000212331
0.000212325
0.000196696
0.000212333
0.000196694
0.000196704
0.000212331
0.000212325
0.000196696
0.000209744
0.000209744
0.000209744
0.000178418
0.000178418
0.000178418
0.000178418
0.000196767
0.000212297
0.000209729
0.000199281
0.000212264
0.000196729
0.000199287
0.000212334
0.000196693
0.000196767
0.000209729
0.000212297
0.000199281
0.000212263
0.000199287
0.000196729
0.000212331
0.000212331
0.000196874
0.000196696
0.000196696
0.000154936
0.000170563
0.000170557
0.000154929
0.000170566
0.000154926
0.000154936
0.000170563
0.000170557
0.000154928
0.000167976
0.000167976
0.000167976
0.000136651
0.000136651
0.000136651
0.000136651
0.000154999
0.000170529
0.000167962
0.000157514
0.000170496
0.000154962
0.00015752
0.000170566
0.000154926
0.000154999
0.000167961
0.000170529
0.000157513
0.000170496
0.00015752
0.000154961
0.000170563
0.000170563
0.000155107
0.000154929
0.000154929
0.000113169
0.000128796
0.00012879
0.000113161
0.000128799
0.000113159
0.000113169
0.000128795
0.00012879
0.000113161
0.000126209
0.000126209
0.000126208
9.48881e-05
9.48881e-05
9.48872e-05
9.4888e-05
0.000113232
0.000128762
0.000126195
0.000115748
0.000128729
0.000113195
0.000115755
0.000128798
0.000113158
0.000113232
0.000126195
0.000128762
0.000115747
0.000128729
0.000115754
0.000113194
0.000128796
0.000128796
0.00011334
0.000113161
0.000113161
7.13666e-05
8.70192e-05
8.70152e-05
7.13538e-05
8.70304e-05
7.1343e-05
7.13648e-05
8.70187e-05
8.70143e-05
7.13525e-05
8.44569e-05
8.44553e-05
8.44556e-05
5.33639e-05
5.33643e-05
5.33621e-05
5.33618e-05
7.14389e-05
8.69871e-05
8.44406e-05
7.39917e-05
8.69566e-05
7.13928e-05
7.40138e-05
8.70214e-05
7.13487e-05
7.14378e-05
8.44403e-05
8.69864e-05
7.39901e-05
8.69562e-05
7.4013e-05
7.13906e-05
8.70194e-05
8.70191e-05
7.15726e-05
7.13536e-05
7.13538e-05
2.84316e-05
4.48184e-05
4.48787e-05
2.76103e-05
4.48546e-05
2.71756e-05
2.84175e-05
4.48068e-05
4.4872e-05
2.75437e-05
4.32954e-05
4.32926e-05
4.3292e-05
1.67496e-05
1.67494e-05
1.67465e-05
1.67457e-05
2.90688e-05
4.48056e-05
4.30204e-05
3.26678e-05
4.49391e-05
2.86335e-05
3.30536e-05
4.4836e-05
2.71891e-05
2.90695e-05
4.30177e-05
4.48045e-05
3.26651e-05
4.49401e-05
3.30517e-05
2.86344e-05
4.48029e-05
4.48004e-05
3.00154e-05
2.8008e-05
2.79921e-05
9.08125e-06
7.40858e-06
6.85357e-06
1.72626e-06
-1.74858e-06
2.09467e-06
9.09744e-06
7.38897e-06
6.82997e-06
1.73309e-06
3.37848e-06
1.06031e-05
1.06012e-05
4.36419e-06
1.07413e-05
3.64076e-06
3.64082e-06
7.53428e-06
6.67043e-06
1.03188e-05
4.97934e-06
8.83927e-06
5.99127e-06
3.95923e-06
-1.80231e-06
2.10395e-06
7.53937e-06
1.03177e-05
6.66352e-06
4.9799e-06
8.8385e-06
3.95992e-06
5.99662e-06
1.81407e-06
1.81068e-06
5.59204e-06
5.0234e-06
5.02973e-06
0.000509926
0.000509961
0.000509933
0.000509926
0.000509926
0.000509936
0.000509961
0.000509927
0.000504701
0.000489053
0.000489058
0.000504666
0.000489238
0.000489077
0.000489053
0.000468181
0.000483815
0.000468179
0.000483811
0.000483626
0.000468184
0.000468189
0.000483828
0.000483821
0.00048908
0.000504688
0.000504668
0.00048907
0.000489135
0.000504641
0.000502087
0.000491643
0.000504618
0.000489103
0.00049165
0.000489135
0.000504657
0.000502087
0.000491646
0.000504619
0.000489101
0.000491651
0.000483819
0.000468184
0.000483824
0.000468192
0.000483819
0.000468183
0.000483821
0.000468192
0.000483749
0.000481207
0.000468217
0.000470773
0.000483789
0.000481213
0.000468253
0.000483749
0.000481207
0.000468215
0.000470772
0.000483784
0.000481213
0.000468253
0.000504696
0.000504695
0.00048924
0.000489071
0.000489071
0.000504684
0.000489061
0.00046818
0.000483821
0.000483626
0.000468183
0.000468183
0.00048382
0.00048382
0.000468181
0.000483821
0.00048913
0.000491641
0.000489088
0.000491648
0.000489056
0.00048905
0.000489129
0.00049164
0.000491647
0.000489084
0.000483809
0.000468189
0.000483817
0.000468198
0.000483747
0.000481206
0.000468221
0.000470773
0.000483783
0.000481211
0.000468255
0.000483809
0.00046819
0.000483815
0.000468198
0.000483747
0.000481205
0.000470773
0.000468222
0.000481211
0.00048378
0.000468255
0.00048908
0.000504689
0.000504669
0.00048907
0.000489135
0.000502087
0.000504641
0.000491644
0.000504618
0.000491651
0.000489104
0.00048908
0.000504672
0.000504668
0.000489072
0.000483749
0.000481207
0.000468215
0.000470772
0.000483784
0.000481213
0.000468253
0.000483819
0.000468183
0.000483821
0.000468192
0.000483749
0.000481208
0.000470773
0.000468217
0.000481213
0.000483789
0.000468253
0.000483819
0.000468184
0.000483825
0.000468192
0.000489235
0.000489047
0.000489051
0.000489062
0.00046818
0.000483811
0.000483624
0.000468191
0.000468191
0.000483819
0.000483822
0.000468179
0.000483813
0.000489134
0.000502086
0.000504641
0.000491644
0.000504617
0.00049165
0.000489103
0.000489078
0.000504666
0.000489057
0.000489079
0.000504672
0.000504667
0.000489072
0.000483747
0.000481205
0.000470773
0.000468221
0.000481212
0.000483783
0.000468254
0.000483748
0.000481207
0.000470773
0.000468217
0.000481212
0.000483789
0.000468254
0.000483817
0.000468189
0.000483819
0.000468193
0.000483818
0.000468184
0.000483824
0.000468193
0.000504701
0.000489053
0.000504701
0.000489053
0.000483627
0.000468184
0.000468184
0.000483828
0.000483828
0.000468182
0.000483816
0.000468182
0.000483816
0.000462937
0.000447297
0.000462938
0.000447298
0.000462935
0.000462938
0.000447477
0.0004473
0.0004473
0.000426413
0.000442053
0.000426414
0.000442054
0.000441862
0.000426415
0.000426416
0.000442051
0.000442052
0.000447307
0.000462933
0.000462928
0.000447299
0.00044737
0.0004629
0.000460331
0.000449884
0.000462866
0.000447332
0.00044989
0.00044737
0.000462899
0.000460331
0.000449883
0.000462866
0.000447332
0.00044989
0.000442044
0.000426415
0.00044205
0.000426424
0.000442044
0.000426415
0.00044205
0.000426423
0.000441983
0.000439442
0.000426449
0.000429007
0.000442016
0.000439448
0.000426486
0.000441983
0.000439442
0.000426448
0.000429007
0.000442016
0.000439448
0.000426486
0.000462934
0.000462933
0.000447477
0.000447299
0.000447299
0.000462937
0.000447296
0.000426413
0.000442053
0.000441861
0.000426415
0.000426415
0.00044205
0.00044205
0.000426413
0.000442053
0.000447371
0.000462903
0.000460332
0.000449884
0.000462867
0.000447333
0.000449891
0.000447308
0.000462938
0.000462932
0.000447301
0.000447371
0.000460332
0.000462903
0.000449885
0.000462868
0.000449891
0.000447334
0.000442045
0.000426415
0.000442051
0.000426424
0.000441983
0.000439442
0.000426449
0.000429007
0.000442017
0.000439449
0.000426487
0.000442045
0.000426416
0.000442051
0.000426424
0.000441984
0.000439443
0.000429007
0.00042645
0.000439449
0.000442017
0.000426487
0.000447307
0.000462933
0.000462928
0.000447299
0.00044737
0.000460332
0.0004629
0.000449884
0.000462866
0.00044989
0.000447332
0.000447307
0.000462934
0.000462928
0.000447299
0.000441983
0.000439442
0.000426448
0.000429007
0.000442016
0.000439448
0.000426486
0.000442044
0.000426415
0.00044205
0.000426423
0.000441983
0.000439442
0.000429007
0.000426448
0.000439448
0.000442016
0.000426486
0.000442044
0.000426415
0.00044205
0.000426423
0.000462939
0.000462939
0.000447478
0.000447301
0.0004473
0.000462938
0.000447298
0.000426414
0.000442055
0.000441863
0.000426417
0.000426416
0.000442052
0.000442052
0.000426414
0.000442054
0.000447371
0.000460332
0.000462901
0.000449884
0.000462867
0.00044989
0.000447333
0.000447308
0.000462937
0.000462929
0.0004473
0.000447308
0.000462935
0.000462928
0.0004473
0.000441983
0.000439443
0.000429007
0.000426449
0.000439449
0.000442017
0.000426487
0.000441983
0.000439442
0.000429007
0.000426449
0.000439449
0.000442017
0.000426487
0.000442044
0.000426416
0.000442051
0.000426424
0.000442044
0.000426415
0.00044205
0.000426424
0.000462938
0.000447297
0.000462938
0.000447297
0.000441862
0.000426415
0.000426416
0.000442051
0.000442051
0.000426413
0.000442053
0.000426414
0.000442053
0.000421169
0.000405529
0.00042117
0.00040553
0.000421167
0.000421167
0.00040571
0.000405532
0.000405532
0.000384646
0.000400285
0.000384646
0.000400286
0.000400095
0.000384648
0.000384648
0.000400283
0.000400284
0.000405539
0.000421166
0.00042116
0.000405531
0.000405602
0.000421132
0.000418565
0.000408117
0.000421099
0.000405565
0.000408123
0.000405602
0.000421132
0.000418565
0.000408116
0.000421099
0.000405564
0.000408123
0.000400276
0.000384648
0.000400282
0.000384656
0.000400276
0.000384648
0.000400282
0.000384656
0.000400215
0.000397675
0.000384681
0.000387239
0.000400249
0.000397681
0.000384719
0.000400215
0.000397675
0.000384681
0.000387239
0.000400249
0.000397681
0.000384719
0.000421167
0.000421166
0.00040571
0.000405532
0.000405532
0.000421169
0.000405529
0.000384645
0.000400285
0.000400094
0.000384648
0.000384648
0.000400283
0.000400283
0.000384645
0.000400285
0.000405603
0.000421133
0.000418565
0.000408117
0.000421099
0.000405565
0.000408123
0.00040554
0.000421167
0.000421161
0.000405532
0.000405603
0.000418565
0.000421133
0.000408117
0.0004211
0.000408123
0.000405566
0.000400277
0.000384648
0.000400283
0.000384656
0.000400215
0.000397675
0.000384681
0.00038724
0.000400249
0.000397681
0.000384719
0.000400277
0.000384648
0.000400283
0.000384656
0.000400216
0.000397675
0.00038724
0.000384682
0.000397681
0.000400249
0.000384719
0.000405539
0.000421166
0.00042116
0.000405531
0.000405603
0.000418565
0.000421132
0.000408117
0.000421099
0.000408123
0.000405565
0.000405539
0.000421166
0.00042116
0.000405532
0.000400215
0.000397675
0.000384681
0.000387239
0.000400248
0.000397681
0.000384719
0.000400276
0.000384648
0.000400282
0.000384656
0.000400215
0.000397675
0.00038724
0.000384681
0.000397681
0.000400249
0.000384719
0.000400276
0.000384648
0.000400283
0.000384656
0.000421168
0.000421168
0.00040571
0.000405532
0.000405532
0.00042117
0.00040553
0.000384646
0.000400286
0.000400095
0.000384649
0.000384648
0.000400284
0.000400284
0.000384646
0.000400286
0.000405603
0.000418565
0.000421133
0.000408117
0.000421099
0.000408123
0.000405565
0.00040554
0.000421167
0.000421161
0.000405532
0.00040554
0.000421166
0.00042116
0.000405532
0.000400216
0.000397675
0.00038724
0.000384681
0.000397682
0.000400249
0.000384719
0.000400216
0.000397675
0.00038724
0.000384681
0.000397682
0.000400249
0.00038472
0.000400277
0.000384648
0.000400283
0.000384657
0.000400277
0.000384648
0.000400283
0.000384657
0.00042117
0.000405529
0.00042117
0.00040553
0.000400095
0.000384648
0.000384648
0.000400284
0.000400284
0.000384646
0.000400286
0.000384646
0.000400286
0.000379402
0.000363762
0.000379402
0.000363762
0.000379399
0.000379399
0.000363943
0.000363765
0.000363765
0.000342879
0.000358518
0.000342879
0.000358519
0.000358328
0.000342881
0.000342881
0.000358516
0.000358517
0.000363772
0.000379399
0.000379393
0.000363764
0.000363835
0.000379365
0.000376798
0.00036635
0.000379332
0.000363798
0.000366356
0.000363835
0.000379365
0.000376798
0.000366349
0.000379332
0.000363797
0.000366356
0.000358509
0.000342881
0.000358515
0.000342889
0.000358509
0.000342881
0.000358515
0.000342889
0.000358448
0.000355908
0.000342914
0.000345472
0.000358482
0.000355914
0.000342952
0.000358448
0.000355908
0.000342914
0.000345472
0.000358482
0.000355914
0.000342952
0.000379399
0.000379399
0.000363943
0.000363764
0.000363765
0.000379402
0.000363762
0.000342878
0.000358518
0.000358327
0.000342881
0.000342881
0.000358516
0.000358516
0.000342879
0.000358518
0.000363836
0.000379365
0.000376798
0.00036635
0.000379332
0.000363798
0.000366356
0.000363773
0.000379399
0.000379393
0.000363765
0.000363836
0.000376798
0.000379365
0.00036635
0.000379332
0.000366356
0.000363798
0.00035851
0.000342881
0.000358516
0.000342889
0.000358448
0.000355908
0.000342915
0.000345473
0.000358482
0.000355914
0.000342953
0.00035851
0.000342881
0.000358516
0.000342889
0.000358448
0.000355908
0.000345473
0.000342915
0.000355914
0.000358482
0.000342953
0.000363772
0.000379399
0.000379393
0.000363764
0.000363836
0.000376798
0.000379365
0.00036635
0.000379331
0.000366356
0.000363798
0.000363772
0.000379399
0.000379393
0.000363765
0.000358448
0.000355908
0.000342914
0.000345473
0.000358481
0.000355914
0.000342952
0.000358509
0.000342881
0.000358515
0.000342889
0.000358448
0.000355908
0.000345473
0.000342914
0.000355914
0.000358482
0.000342952
0.000358509
0.000342881
0.000358515
0.000342889
0.0003794
0.0003794
0.000363943
0.000363765
0.000363765
0.000379403
0.000363762
0.000342879
0.000358519
0.000358328
0.000342882
0.000342881
0.000358516
0.000358517
0.000342879
0.000358519
0.000363836
0.000376798
0.000379365
0.00036635
0.000379332
0.000366356
0.000363798
0.000363773
0.000379399
0.000379393
0.000363765
0.000363773
0.000379399
0.000379393
0.000363765
0.000358448
0.000355908
0.000345473
0.000342914
0.000355914
0.000358482
0.000342953
0.000358448
0.000355908
0.000345473
0.000342914
0.000355914
0.000358482
0.000342953
0.000358509
0.000342881
0.000358516
0.00034289
0.000358509
0.000342881
0.000358516
0.00034289
0.000379402
0.000363762
0.000379402
0.000363762
0.000358328
0.000342881
0.000342881
0.000358516
0.000358517
0.000342879
0.000358518
0.000342879
0.000358519
0.000337635
0.000321995
0.000337635
0.000321995
0.000337632
0.000337632
0.000322176
0.000321998
0.000321998
0.000301112
0.000316751
0.000301112
0.000316752
0.000316561
0.000301114
0.000301114
0.000316749
0.00031675
0.000322005
0.000337632
0.000337626
0.000321997
0.000322069
0.000337598
0.000335031
0.000324583
0.000337565
0.000322031
0.000324589
0.000322068
0.000337598
0.000335031
0.000324583
0.000337565
0.000322031
0.000324589
0.000316742
0.000301114
0.000316749
0.000301123
0.000316742
0.000301114
0.000316749
0.000301122
0.000316681
0.000314141
0.000301147
0.000303706
0.000316715
0.000314147
0.000301185
0.000316681
0.000314141
0.000301147
0.000303706
0.000316715
0.000314147
0.000301185
0.000337632
0.000337632
0.000322176
0.000321998
0.000321998
0.000337635
0.000321995
0.000301112
0.000316751
0.00031656
0.000301114
0.000301114
0.000316749
0.000316749
0.000301112
0.000316752
0.000322069
0.000337598
0.000335031
0.000324583
0.000337565
0.000322031
0.000324589
0.000322006
0.000337632
0.000337626
0.000321998
0.000322069
0.000335031
0.000337598
0.000324583
0.000337565
0.000324589
0.000322032
0.000316743
0.000301114
0.000316749
0.000301123
0.000316682
0.000314141
0.000301148
0.000303706
0.000316715
0.000314147
0.000301186
0.000316743
0.000301115
0.000316749
0.000301123
0.000316682
0.000314141
0.000303706
0.000301148
0.000314148
0.000316715
0.000301186
0.000322005
0.000337632
0.000337626
0.000321997
0.000322069
0.000335031
0.000337598
0.000324583
0.000337565
0.000324589
0.000322031
0.000322005
0.000337632
0.000337626
0.000321998
0.000316681
0.000314141
0.000301147
0.000303706
0.000316715
0.000314147
0.000301185
0.000316742
0.000301114
0.000316748
0.000301122
0.000316681
0.000314141
0.000303706
0.000301147
0.000314147
0.000316715
0.000301185
0.000316742
0.000301114
0.000316749
0.000301122
0.000337633
0.000337633
0.000322176
0.000321998
0.000321998
0.000337635
0.000321996
0.000301112
0.000316752
0.000316561
0.000301115
0.000301114
0.00031675
0.00031675
0.000301112
0.000316752
0.000322069
0.000335031
0.000337598
0.000324583
0.000337565
0.000324589
0.000322031
0.000322006
0.000337632
0.000337626
0.000321998
0.000322006
0.000337632
0.000337626
0.000321998
0.000316682
0.000314141
0.000303706
0.000301147
0.000314148
0.000316715
0.000301186
0.000316681
0.000314141
0.000303706
0.000301147
0.000314148
0.000316715
0.000301186
0.000316742
0.000301114
0.000316749
0.000301123
0.000316742
0.000301114
0.000316749
0.000301123
0.000337635
0.000321995
0.000337635
0.000321995
0.000316561
0.000301114
0.000301114
0.00031675
0.00031675
0.000301112
0.000316752
0.000301112
0.000316752
0.000295868
0.000280229
0.000295868
0.000280229
0.000295866
0.000295866
0.000280409
0.000280231
0.000280232
0.000259346
0.000274985
0.000259346
0.000274985
0.000274794
0.000259348
0.000259348
0.000274983
0.000274983
0.000280239
0.000295865
0.000295859
0.000280231
0.000280302
0.000295831
0.000293264
0.000282816
0.000295798
0.000280264
0.000282822
0.000280302
0.000295831
0.000293264
0.000282816
0.000295798
0.000280264
0.000282822
0.000274976
0.000259347
0.000274982
0.000259356
0.000274976
0.000259348
0.000274982
0.000259356
0.000274915
0.000272375
0.000259381
0.000261939
0.000274948
0.000272381
0.000259419
0.000274915
0.000272374
0.00025938
0.000261939
0.000274948
0.000272381
0.000259419
0.000295866
0.000295865
0.000280409
0.000280231
0.000280231
0.000295868
0.000280228
0.000259345
0.000274985
0.000274794
0.000259348
0.000259348
0.000274983
0.000274982
0.000259345
0.000274985
0.000280303
0.000295831
0.000293264
0.000282816
0.000295798
0.000280265
0.000282822
0.000280239
0.000295866
0.00029586
0.000280231
0.000280302
0.000293264
0.000295831
0.000282816
0.000295798
0.000282822
0.000280264
0.000274976
0.000259347
0.000274982
0.000259356
0.000274915
0.000272374
0.000259381
0.000261939
0.000274948
0.000272381
0.000259419
0.000274976
0.000259347
0.000274982
0.000259356
0.000274915
0.000272374
0.000261939
0.000259381
0.000272381
0.000274948
0.000259419
0.000280239
0.000295865
0.000295859
0.000280231
0.000280302
0.000293264
0.000295831
0.000282816
0.000295798
0.000282822
0.000280264
0.000280239
0.000295865
0.000295859
0.000280231
0.000274915
0.000272374
0.000259381
0.000261939
0.000274948
0.000272381
0.000259418
0.000274975
0.000259347
0.000274982
0.000259356
0.000274915
0.000272374
0.000261939
0.00025938
0.000272381
0.000274948
0.000259419
0.000274975
0.000259347
0.000274982
0.000259356
0.000295866
0.000295866
0.000280409
0.000280231
0.000280231
0.000295869
0.000280229
0.000259345
0.000274985
0.000274794
0.000259348
0.000259347
0.000274983
0.000274983
0.000259346
0.000274985
0.000280302
0.000293264
0.000295831
0.000282816
0.000295798
0.000282822
0.000280264
0.000280239
0.000295865
0.000295859
0.000280231
0.000280239
0.000295865
0.000295859
0.000280231
0.000274915
0.000272374
0.000261939
0.00025938
0.000272381
0.000274948
0.000259419
0.000274915
0.000272374
0.000261939
0.00025938
0.000272381
0.000274948
0.000259419
0.000274976
0.000259347
0.000274982
0.000259356
0.000274976
0.000259347
0.000274982
0.000259356
0.000295868
0.000280228
0.000295869
0.000280229
0.000274794
0.000259347
0.000259347
0.000274983
0.000274983
0.000259345
0.000274985
0.000259345
0.000274985
0.000254102
0.000238462
0.000254102
0.000238461
0.000254099
0.000254099
0.000238642
0.000238464
0.000238464
0.000217578
0.000233218
0.000217578
0.000233218
0.000233027
0.00021758
0.00021758
0.000233216
0.000233216
0.000238472
0.000254098
0.000254093
0.000238464
0.000238535
0.000254065
0.000251497
0.000241049
0.000254032
0.000238497
0.000241055
0.000238535
0.000254065
0.000251497
0.000241049
0.000254032
0.000238497
0.000241055
0.000233209
0.00021758
0.000233215
0.000217588
0.000233209
0.00021758
0.000233215
0.000217588
0.000233148
0.000230607
0.000217613
0.000220171
0.000233181
0.000230613
0.000217651
0.000233148
0.000230607
0.000217613
0.000220172
0.000233181
0.000230613
0.000217651
0.000254099
0.000254099
0.000238642
0.000238464
0.000238464
0.000254102
0.000238461
0.000217577
0.000233218
0.000233027
0.00021758
0.00021758
0.000233216
0.000233215
0.000217578
0.000233218
0.000238535
0.000254065
0.000251497
0.000241049
0.000254031
0.000238497
0.000241055
0.000238472
0.000254098
0.000254093
0.000238464
0.000238535
0.000251497
0.000254064
0.000241049
0.000254031
0.000241055
0.000238497
0.000233209
0.000217579
0.000233215
0.000217588
0.000233147
0.000230607
0.000217613
0.000220171
0.000233181
0.000230613
0.000217651
0.000233209
0.00021758
0.000233215
0.000217588
0.000233148
0.000230607
0.000220171
0.000217613
0.000230613
0.000233181
0.000217651
0.000238472
0.000254098
0.000254092
0.000238464
0.000238535
0.000251497
0.000254064
0.000241049
0.000254031
0.000241055
0.000238497
0.000238472
0.000254098
0.000254092
0.000238464
0.000233148
0.000230607
0.000217613
0.000220171
0.000233181
0.000230613
0.000217651
0.000233208
0.00021758
0.000233215
0.000217588
0.000233147
0.000230607
0.000220172
0.000217613
0.000230613
0.000233181
0.000217651
0.000233208
0.00021758
0.000233215
0.000217588
0.000254099
0.000254099
0.000238642
0.000238464
0.000238464
0.000254102
0.000238461
0.000217577
0.000233218
0.000233027
0.00021758
0.00021758
0.000233215
0.000233215
0.000217578
0.000233217
0.000238535
0.000251497
0.000254064
0.000241049
0.000254031
0.000241055
0.000238497
0.000238472
0.000254098
0.000254092
0.000238464
0.000238472
0.000254098
0.000254092
0.000238464
0.000233148
0.000230607
0.000220171
0.000217613
0.000230613
0.000233181
0.000217651
0.000233147
0.000230607
0.000220171
0.000217613
0.000230613
0.000233181
0.000217651
0.000233209
0.00021758
0.000233215
0.000217588
0.000233208
0.00021758
0.000233215
0.000217588
0.000254102
0.000238461
0.000254102
0.000238461
0.000233027
0.00021758
0.00021758
0.000233216
0.000233215
0.000217578
0.000233218
0.000217578
0.000233218
0.000212334
0.000196694
0.000212334
0.000196694
0.000212331
0.000212331
0.000196874
0.000196696
0.000196696
0.00017581
0.00019145
0.00017581
0.00019145
0.000191259
0.000175812
0.000175812
0.000191448
0.000191448
0.000196704
0.000212331
0.000212325
0.000196696
0.000196767
0.000212297
0.00020973
0.000199281
0.000212264
0.000196729
0.000199287
0.000196767
0.000212297
0.00020973
0.000199281
0.000212264
0.000196729
0.000199288
0.000191441
0.000175812
0.000191447
0.00017582
0.000191441
0.000175812
0.000191447
0.00017582
0.00019138
0.000188839
0.000175845
0.000178404
0.000191413
0.000188845
0.000175883
0.00019138
0.000188839
0.000175845
0.000178404
0.000191413
0.000188846
0.000175883
0.000212331
0.000212331
0.000196874
0.000196696
0.000196696
0.000212334
0.000196693
0.00017581
0.00019145
0.000191259
0.000175812
0.000175812
0.000191448
0.000191447
0.00017581
0.00019145
0.000196767
0.000212297
0.000209729
0.000199281
0.000212263
0.000196729
0.000199287
0.000196704
0.000212331
0.000212325
0.000196696
0.000196767
0.000209729
0.000212297
0.000199281
0.000212264
0.000199287
0.000196729
0.000191441
0.000175812
0.000191447
0.00017582
0.000191379
0.000188839
0.000175845
0.000178404
0.000191413
0.000188845
0.000175883
0.000191441
0.000175812
0.000191447
0.00017582
0.00019138
0.000188839
0.000178404
0.000175845
0.000188845
0.000191413
0.000175883
0.000196704
0.000212331
0.000212325
0.000196696
0.000196767
0.000209729
0.000212297
0.000199281
0.000212263
0.000199287
0.000196729
0.000196704