/*--------------------------------*- C++ -*----------------------------------*\
| =========                 |                                                 |
| \\      /  F ield         | OpenFOAM: The Open Source CFD Toolbox           |
|  \\    /   O peration     | Version:  2206                                  |
|   \\  /    A nd           | Website:  www.openfoam.com                      |
|    \\/     M anipulation  |                                                 |
\*---------------------------------------------------------------------------*/
FoamFile
{
    version     2.0;
    format      ascii;
    arch        "LSB;label=32;scalar=64";
    class       volScalarField;
    location    "9";
    object      epsilon;
}
// * * * * * * * * * * * * * * * * * * * * * * * * * * * * * * * * * * * * * //

dimensions      [0 2 -3 0 0 0 0];

internalField   nonuniform List<scalar> 
28448
(
4.26997e-07
4.32672e-07
4.32671e-07
4.41569e-07
4.2699e-07
4.32666e-07
4.32651e-07
4.4157e-07
4.26789e-07
4.32483e-07
4.32458e-07
4.41417e-07
4.26734e-07
4.32439e-07
4.32442e-07
4.414e-07
4.26734e-07
4.32439e-07
4.32442e-07
4.414e-07
4.26734e-07
4.32439e-07
4.32442e-07
4.414e-07
4.26734e-07
4.32439e-07
4.32442e-07
4.414e-07
4.26734e-07
4.32439e-07
4.32442e-07
4.414e-07
4.26734e-07
4.32439e-07
4.32442e-07
4.414e-07
4.26734e-07
4.32439e-07
4.32442e-07
4.414e-07
4.26734e-07
4.32439e-07
4.32442e-07
4.414e-07
4.26734e-07
4.32439e-07
4.32442e-07
4.414e-07
4.26734e-07
4.32439e-07
4.32442e-07
4.414e-07
4.26734e-07
4.32439e-07
4.32442e-07
4.414e-07
4.26734e-07
4.32439e-07
4.32442e-07
4.414e-07
4.26734e-07
4.32439e-07
4.32442e-07
4.414e-07
4.26734e-07
4.32439e-07
4.32442e-07
4.414e-07
4.26745e-07
4.32449e-07
4.4148e-07
4.32675e-07
4.32676e-07
4.41477e-07
4.32673e-07
4.32678e-07
4.32672e-07
4.32674e-07
4.41485e-07
4.32671e-07
4.32672e-07
4.41483e-07
4.41571e-07
4.41492e-07
4.32675e-07
4.32676e-07
4.32672e-07
4.32672e-07
4.41569e-07
4.4149e-07
4.32673e-07
4.32682e-07
4.32669e-07
4.32673e-07
4.32679e-07
4.32672e-07
4.3267e-07
4.41574e-07
4.41489e-07
4.32676e-07
4.32663e-07
4.32667e-07
4.41488e-07
4.41579e-07
4.41385e-07
4.32668e-07
4.32669e-07
4.32544e-07
4.32544e-07
4.41576e-07
4.41381e-07
4.32666e-07
4.3266e-07
4.32541e-07
4.32497e-07
4.32657e-07
4.32534e-07
4.32493e-07
4.41574e-07
4.41346e-07
4.32655e-07
4.3249e-07
4.32491e-07
4.41345e-07
4.41455e-07
4.41304e-07
4.32493e-07
4.32493e-07
4.32444e-07
4.32445e-07
4.41451e-07
4.41301e-07
4.3249e-07
4.32468e-07
4.32442e-07
4.32448e-07
4.32464e-07
4.3244e-07
4.32444e-07
4.41421e-07
4.41312e-07
4.32462e-07
4.32442e-07
4.32442e-07
4.41313e-07
4.41394e-07
4.41314e-07
4.32447e-07
4.32448e-07
4.32445e-07
4.32445e-07
4.41391e-07
4.41311e-07
4.32444e-07
4.32452e-07
4.32442e-07
4.32449e-07
4.32448e-07
4.3244e-07
4.32445e-07
4.41402e-07
4.41315e-07
4.32445e-07
4.32442e-07
4.32442e-07
4.41314e-07
4.414e-07
4.41314e-07
4.32447e-07
4.32448e-07
4.32444e-07
4.32445e-07
4.41397e-07
4.41311e-07
4.32445e-07
4.32451e-07
4.32442e-07
4.32449e-07
4.32448e-07
4.32439e-07
4.32445e-07
4.41402e-07
4.41317e-07
4.32445e-07
4.32442e-07
4.32443e-07
4.41315e-07
4.41401e-07
4.41314e-07
4.32447e-07
4.32448e-07
4.32444e-07
4.32445e-07
4.41398e-07
4.41311e-07
4.32445e-07
4.32451e-07
4.32442e-07
4.32449e-07
4.32448e-07
4.32439e-07
4.32445e-07
4.41404e-07
4.41317e-07
4.32445e-07
4.32442e-07
4.32443e-07
4.41315e-07
4.41401e-07
4.41314e-07
4.32447e-07
4.32448e-07
4.32444e-07
4.32445e-07
4.41398e-07
4.41311e-07
4.32445e-07
4.32451e-07
4.32442e-07
4.32449e-07
4.32448e-07
4.32439e-07
4.32445e-07
4.41404e-07
4.41317e-07
4.32445e-07
4.32442e-07
4.32443e-07
4.41315e-07
4.41401e-07
4.41314e-07
4.32447e-07
4.32448e-07
4.32444e-07
4.32445e-07
4.41398e-07
4.41311e-07
4.32445e-07
4.32451e-07
4.32442e-07
4.32449e-07
4.32448e-07
4.32439e-07
4.32445e-07
4.41404e-07
4.41317e-07
4.32445e-07
4.32442e-07
4.32443e-07
4.41315e-07
4.41401e-07
4.41314e-07
4.32447e-07
4.32448e-07
4.32444e-07
4.32445e-07
4.41398e-07
4.41311e-07
4.32445e-07
4.32451e-07
4.32442e-07
4.32449e-07
4.32448e-07
4.32439e-07
4.32445e-07
4.41404e-07
4.41317e-07
4.32445e-07
4.32442e-07
4.32443e-07
4.41315e-07
4.41401e-07
4.41314e-07
4.32447e-07
4.32448e-07
4.32444e-07
4.32445e-07
4.41398e-07
4.41311e-07
4.32445e-07
4.32451e-07
4.32442e-07
4.32449e-07
4.32448e-07
4.32439e-07
4.32445e-07
4.41404e-07
4.41317e-07
4.32445e-07
4.32442e-07
4.32443e-07
4.41315e-07
4.41401e-07
4.41314e-07
4.32447e-07
4.32448e-07
4.32444e-07
4.32445e-07
4.41398e-07
4.41311e-07
4.32445e-07
4.32451e-07
4.32442e-07
4.32449e-07
4.32448e-07
4.32439e-07
4.32445e-07
4.41404e-07
4.41317e-07
4.32445e-07
4.32442e-07
4.32443e-07
4.41315e-07
4.41401e-07
4.41314e-07
4.32447e-07
4.32448e-07
4.32444e-07
4.32445e-07
4.41398e-07
4.41311e-07
4.32445e-07
4.32451e-07
4.32442e-07
4.32449e-07
4.32448e-07
4.32439e-07
4.32445e-07
4.41404e-07
4.41317e-07
4.32445e-07
4.32442e-07
4.32443e-07
4.41315e-07
4.41401e-07
4.41314e-07
4.32447e-07
4.32448e-07
4.32444e-07
4.32445e-07
4.41398e-07
4.41311e-07
4.32445e-07
4.32451e-07
4.32442e-07
4.32449e-07
4.32448e-07
4.32439e-07
4.32445e-07
4.41404e-07
4.41317e-07
4.32445e-07
4.32442e-07
4.32443e-07
4.41315e-07
4.41401e-07
4.41314e-07
4.32447e-07
4.32448e-07
4.32444e-07
4.32445e-07
4.41398e-07
4.41311e-07
4.32445e-07
4.32451e-07
4.32442e-07
4.32449e-07
4.32448e-07
4.32439e-07
4.32445e-07
4.41404e-07
4.41317e-07
4.32445e-07
4.32442e-07
4.32443e-07
4.41315e-07
4.41401e-07
4.41314e-07
4.32447e-07
4.32448e-07
4.32444e-07
4.32445e-07
4.41398e-07
4.41311e-07
4.32445e-07
4.32451e-07
4.32442e-07
4.32449e-07
4.32448e-07
4.32439e-07
4.32445e-07
4.41404e-07
4.41317e-07
4.32445e-07
4.32442e-07
4.32443e-07
4.41315e-07
4.41401e-07
4.41314e-07
4.32447e-07
4.32448e-07
4.32444e-07
4.32445e-07
4.41398e-07
4.41311e-07
4.32445e-07
4.32451e-07
4.32442e-07
4.32449e-07
4.32448e-07
4.32439e-07
4.32445e-07
4.41404e-07
4.41317e-07
4.32445e-07
4.32442e-07
4.32443e-07
4.41315e-07
4.41401e-07
4.41314e-07
4.32447e-07
4.32448e-07
4.32449e-07
4.41398e-07
4.32445e-07
4.32451e-07
4.32442e-07
4.32449e-07
4.32448e-07
4.32449e-07
4.41404e-07
4.41317e-07
4.32445e-07
4.32443e-07
4.32447e-07
4.41316e-07
4.41407e-07
4.32446e-07
4.32452e-07
4.41404e-07
4.26998e-07
4.26999e-07
4.26998e-07
4.26998e-07
1.28877e-06
6.56813e-06
1.28905e-06
6.56763e-06
2.29732e-05
2.29698e-05
1.28865e-06
6.56902e-06
1.28889e-06
6.56853e-06
4.26999e-07
4.27002e-07
4.27002e-07
4.26996e-07
4.26994e-07
4.2699e-07
4.2699e-07
5.61579e-07
1.07937e-06
4.28212e-07
4.32677e-07
5.61654e-07
1.079e-06
4.28212e-07
2.29732e-05
2.29706e-05
5.61596e-07
4.28212e-07
1.07933e-06
4.32671e-07
5.61674e-07
4.28212e-07
1.079e-06
2.1233e-06
2.12374e-06
4.41487e-07
2.12308e-06
2.12351e-06
1.28909e-06
6.56789e-06
1.28905e-06
6.56872e-06
2.29683e-05
2.29726e-05
1.28905e-06
6.5688e-06
1.28891e-06
6.56962e-06
4.26989e-07
4.26976e-07
4.26976e-07
4.26851e-07
4.26845e-07
4.2679e-07
4.2679e-07
5.61652e-07
1.07937e-06
4.28194e-07
4.32651e-07
5.61685e-07
1.07925e-06
4.2816e-07
2.29727e-05
2.29901e-05
5.6167e-07
4.2819e-07
1.07945e-06
4.32612e-07
5.61707e-07
4.28148e-07
1.07951e-06
2.1236e-06
2.12404e-06
4.41437e-07
2.12459e-06
2.12506e-06
1.29006e-06
6.57557e-06
1.29028e-06
6.57518e-06
2.29966e-05
2.29956e-05
1.28994e-06
6.57649e-06
1.29013e-06
6.57609e-06
4.26789e-07
4.26757e-07
4.26757e-07
4.26735e-07
4.26735e-07
4.26735e-07
4.26735e-07
5.61714e-07
1.08014e-06
4.27984e-07
4.32458e-07
5.6179e-07
1.07987e-06
4.27969e-07
2.29989e-05
2.29975e-05
5.61734e-07
4.27978e-07
1.08014e-06
4.32449e-07
5.61813e-07
4.27967e-07
1.07984e-06
2.12549e-06
2.12592e-06
4.41308e-07
2.1252e-06
2.12563e-06
1.29007e-06
6.57542e-06
1.29034e-06
6.57508e-06
2.29966e-05
2.29956e-05
1.28994e-06
6.57634e-06
1.29018e-06
6.576e-06
4.26738e-07
4.26739e-07
4.26739e-07
4.26735e-07
4.26735e-07
4.26735e-07
4.26735e-07
5.61711e-07
1.08022e-06
4.27959e-07
4.32443e-07
5.61786e-07
1.07988e-06
4.27963e-07
2.29984e-05
2.29973e-05
5.61728e-07
4.27959e-07
1.08016e-06
4.32446e-07
5.61807e-07
4.27963e-07
1.07984e-06
2.12546e-06
2.12589e-06
4.41315e-07
2.12519e-06
2.12562e-06
1.29007e-06
6.57541e-06
1.29034e-06
6.57508e-06
2.29966e-05
2.29956e-05
1.28994e-06
6.57633e-06
1.29018e-06
6.576e-06
4.26738e-07
4.26738e-07
4.26738e-07
4.26734e-07
4.26735e-07
4.26735e-07
4.26735e-07
5.61711e-07
1.08022e-06
4.27959e-07
4.32442e-07
5.61788e-07
1.07988e-06
4.27962e-07
2.29984e-05
2.29973e-05
5.61726e-07
4.27959e-07
1.08016e-06
4.32444e-07
5.61808e-07
4.27963e-07
1.07984e-06
2.12546e-06
2.12589e-06
4.41313e-07
2.12518e-06
2.12562e-06
1.29007e-06
6.57541e-06
1.29034e-06
6.57508e-06
2.29966e-05
2.29956e-05
1.28994e-06
6.57633e-06
1.29018e-06
6.576e-06
4.26738e-07
4.26738e-07
4.26738e-07
4.26734e-07
4.26735e-07
4.26735e-07
4.26735e-07
5.6171e-07
1.08022e-06
4.27959e-07
4.32442e-07
5.61788e-07
1.07988e-06
4.27963e-07
2.29984e-05
2.29973e-05
5.61727e-07
4.27959e-07
1.08016e-06
4.32444e-07
5.61807e-07
4.27962e-07
1.07984e-06
2.12546e-06
2.12589e-06
4.41314e-07
2.12518e-06
2.12562e-06
1.29007e-06
6.57541e-06
1.29034e-06
6.57508e-06
2.29966e-05
2.29956e-05
1.28994e-06
6.57633e-06
1.29018e-06
6.576e-06
4.26738e-07
4.26738e-07
4.26738e-07
4.26734e-07
4.26735e-07
4.26735e-07
4.26735e-07
5.6171e-07
1.08022e-06
4.27959e-07
4.32442e-07
5.61788e-07
1.07988e-06
4.27962e-07
2.29984e-05
2.29973e-05
5.6173e-07
4.27959e-07
1.08016e-06
4.32444e-07
5.61808e-07
4.27962e-07
1.07984e-06
2.12546e-06
2.12589e-06
4.41313e-07
2.12518e-06
2.12562e-06
1.29007e-06
6.57541e-06
1.29034e-06
6.57508e-06
2.29966e-05
2.29956e-05
1.28994e-06
6.57633e-06
1.29018e-06
6.576e-06
4.26738e-07
4.26738e-07
4.26738e-07
4.26734e-07
4.26735e-07
4.26735e-07
4.26735e-07
5.61711e-07
1.08022e-06
4.27959e-07
4.32442e-07
5.61788e-07
1.07988e-06
4.27963e-07
2.29984e-05
2.29973e-05
5.61728e-07
4.27959e-07
1.08016e-06
4.32444e-07
5.61804e-07
4.27962e-07
1.07984e-06
2.12546e-06
2.12589e-06
4.41313e-07
2.12518e-06
2.12562e-06
1.29007e-06
6.57541e-06
1.29034e-06
6.57508e-06
2.29966e-05
2.29956e-05
1.28994e-06
6.57633e-06
1.29018e-06
6.576e-06
4.26738e-07
4.26738e-07
4.26738e-07
4.26734e-07
4.26735e-07
4.26735e-07
4.26735e-07
5.6171e-07
1.08022e-06
4.27959e-07
4.32442e-07
5.61788e-07
1.07988e-06
4.27962e-07
2.29984e-05
2.29973e-05
5.61728e-07
4.27959e-07
1.08016e-06
4.32444e-07
5.61802e-07
4.27962e-07
1.07984e-06
2.12546e-06
2.12589e-06
4.41313e-07
2.12518e-06
2.12562e-06
1.29007e-06
6.57541e-06
1.29034e-06
6.57508e-06
2.29966e-05
2.29956e-05
1.28994e-06
6.57633e-06
1.29018e-06
6.576e-06
4.26738e-07
4.26738e-07
4.26738e-07
4.26734e-07
4.26735e-07
4.26735e-07
4.26735e-07
5.61711e-07
1.08022e-06
4.27959e-07
4.32442e-07
5.61788e-07
1.07988e-06
4.27962e-07
2.29984e-05
2.29973e-05
5.61737e-07
4.27959e-07
1.08016e-06
4.32445e-07
5.61809e-07
4.27962e-07
1.07984e-06
2.12546e-06
2.12589e-06
4.41313e-07
2.12518e-06
2.12562e-06
1.29007e-06
6.57541e-06
1.29034e-06
6.57508e-06
2.29966e-05
2.29956e-05
1.28994e-06
6.57633e-06
1.29018e-06
6.57599e-06
4.26738e-07
4.26738e-07
4.26738e-07
4.26734e-07
4.26735e-07
4.26735e-07
4.26735e-07
5.61711e-07
1.08022e-06
4.27959e-07
4.32442e-07
5.61788e-07
1.07988e-06
4.27962e-07
2.29984e-05
2.29973e-05
5.61745e-07
4.27959e-07
1.08016e-06
4.32444e-07
5.61819e-07
4.27962e-07
1.07984e-06
2.12546e-06
2.12589e-06
4.41313e-07
2.12518e-06
2.12562e-06
1.29007e-06
6.57541e-06
1.29034e-06
6.57508e-06
2.29966e-05
2.29956e-05
1.28994e-06
6.57633e-06
1.29018e-06
6.576e-06
4.26738e-07
4.26738e-07
4.26738e-07
4.26734e-07
4.26735e-07
4.26735e-07
4.26735e-07
5.61711e-07
1.08022e-06
4.27959e-07
4.32442e-07
5.61788e-07
1.07988e-06
4.27962e-07
2.29983e-05
2.29973e-05
5.61746e-07
4.27959e-07
1.08016e-06
4.32444e-07
5.61822e-07
4.27962e-07
1.07984e-06
2.12546e-06
2.12589e-06
4.41313e-07
2.12518e-06
2.12562e-06
1.29007e-06
6.57541e-06
1.29034e-06
6.57508e-06
2.29966e-05
2.29956e-05
1.28994e-06
6.57633e-06
1.29018e-06
6.576e-06
4.26738e-07
4.26738e-07
4.26738e-07
4.26734e-07
4.26735e-07
4.26735e-07
4.26735e-07
5.61711e-07
1.08022e-06
4.27959e-07
4.32442e-07
5.61788e-07
1.07988e-06
4.27962e-07
2.29983e-05
2.29973e-05
5.61745e-07
4.27959e-07
1.08016e-06
4.32444e-07
5.61821e-07
4.27962e-07
1.07984e-06
2.12546e-06
2.12589e-06
4.41313e-07
2.12518e-06
2.12562e-06
1.29007e-06
6.57541e-06
1.29034e-06
6.57508e-06
2.29966e-05
2.29956e-05
1.28994e-06
6.57633e-06
1.29018e-06
6.57599e-06
4.26738e-07
4.26738e-07
4.26738e-07
4.26734e-07
4.26735e-07
4.26735e-07
4.26735e-07
5.6171e-07
1.08022e-06
4.27959e-07
4.32442e-07
5.61789e-07
1.07988e-06
4.27963e-07
2.29983e-05
2.29973e-05
5.61744e-07
4.27959e-07
1.08016e-06
4.32444e-07
5.6182e-07
4.27962e-07
1.07984e-06
2.12546e-06
2.12589e-06
4.41313e-07
2.12518e-06
2.12562e-06
1.29007e-06
6.57541e-06
1.29034e-06
6.57508e-06
2.29966e-05
2.29956e-05
1.28994e-06
6.57633e-06
1.29018e-06
6.57599e-06
4.26738e-07
4.26738e-07
4.26738e-07
4.26734e-07
4.26735e-07
4.26735e-07
4.26735e-07
5.61711e-07
1.08022e-06
4.27959e-07
4.32442e-07
5.61788e-07
1.07988e-06
4.27962e-07
2.29984e-05
2.29973e-05
5.61743e-07
4.27959e-07
1.08016e-06
4.32444e-07
5.61818e-07
4.27963e-07
1.07984e-06
2.12546e-06
2.12589e-06
4.41313e-07
2.12518e-06
2.12562e-06
1.29007e-06
6.57541e-06
1.29034e-06
6.57508e-06
2.29966e-05
2.29956e-05
1.28994e-06
6.57633e-06
1.29018e-06
6.57599e-06
4.26738e-07
4.26738e-07
4.26738e-07
4.26734e-07
4.26735e-07
4.26736e-07
4.26735e-07
5.6171e-07
1.08022e-06
4.27959e-07
4.32442e-07
5.61788e-07
1.07988e-06
4.27962e-07
2.29984e-05
2.29973e-05
5.61744e-07
4.27959e-07
1.08016e-06
4.32445e-07
5.61818e-07
4.27963e-07
1.07984e-06
2.12546e-06
2.12589e-06
4.41313e-07
2.12519e-06
2.12562e-06
1.29007e-06
6.57541e-06
1.29034e-06
6.57508e-06
2.29966e-05
2.29956e-05
1.28994e-06
6.57633e-06
1.29018e-06
6.57599e-06
4.26738e-07
4.26738e-07
4.26738e-07
4.26737e-07
4.26745e-07
4.26735e-07
4.2674e-07
5.61711e-07
1.08022e-06
4.27959e-07
4.32441e-07
5.61788e-07
1.07988e-06
4.27962e-07
2.29984e-05
2.29973e-05
5.61745e-07
4.27959e-07
1.08016e-06
4.32444e-07
5.61819e-07
4.27962e-07
1.07984e-06
2.12546e-06
2.1259e-06
4.41313e-07
2.12519e-06
2.12563e-06
6.57633e-06
1.29018e-06
4.26743e-07
2.29983e-05
1.08015e-06
2.29715e-05
2.29742e-05
2.12275e-06
2.12324e-06
6.56793e-06
1.28879e-06
6.56837e-06
1.28877e-06
1.079e-06
4.28214e-07
5.61572e-07
1.07908e-06
4.28214e-07
5.61569e-07
2.29736e-05
2.12318e-06
2.12294e-06
2.29699e-05
6.56881e-06
1.28866e-06
1.07918e-06
4.28217e-07
5.61565e-07
1.2891e-06
6.56936e-06
6.56968e-06
1.28874e-06
5.61705e-07
4.32678e-07
4.28213e-07
1.07927e-06
4.28214e-07
1.07994e-06
5.61578e-07
5.61704e-07
1.07905e-06
4.28212e-07
4.28212e-07
5.61575e-07
1.28925e-06
6.56828e-06
1.28884e-06
5.61707e-07
4.32675e-07
4.28213e-07
1.07903e-06
4.28213e-07
1.07968e-06
5.61578e-07
1.28925e-06
6.56893e-06
6.56922e-06
1.28884e-06
2.2973e-05
2.29778e-05
4.41557e-07
2.12376e-06
2.12303e-06
2.12397e-06
2.12308e-06
2.29721e-05
2.29759e-05
5.61727e-07
4.32671e-07
4.28213e-07
1.07903e-06
4.28213e-07
1.07967e-06
5.61591e-07
5.61705e-07
4.32672e-07
4.28213e-07
1.07913e-06
4.28214e-07
1.07978e-06
5.61577e-07
1.28928e-06
6.56904e-06
6.56934e-06
1.28886e-06
1.28911e-06
6.56925e-06
6.56955e-06
1.28875e-06
4.41556e-07
2.12303e-06
2.12347e-06
2.12309e-06
2.12352e-06
2.29723e-05
2.29762e-05
2.29736e-05
2.29775e-05
2.2971e-05
2.29682e-05
2.29737e-05
2.29708e-05
2.12302e-06
2.12351e-06
4.41489e-07
2.12293e-06
2.12341e-06
2.29665e-05
2.2968e-05
2.29692e-05
2.29706e-05
4.41577e-07
2.12293e-06
2.12341e-06
2.12309e-06
2.12358e-06
1.2888e-06
6.56839e-06
1.28901e-06
6.5682e-06
5.61576e-07
1.07927e-06
4.28214e-07
4.32674e-07
5.61648e-07
1.07896e-06
4.28213e-07
5.61574e-07
1.07936e-06
4.28214e-07
4.32675e-07
5.61646e-07
1.07904e-06
4.28213e-07
1.28897e-06
6.56762e-06
6.56763e-06
1.28877e-06
1.28901e-06
6.56818e-06
6.5682e-06
1.2888e-06
5.61651e-07
4.32673e-07
1.07894e-06
4.28209e-07
1.07922e-06
4.28211e-07
5.6158e-07
5.61652e-07
4.32674e-07
1.07903e-06
4.28209e-07
1.07932e-06
4.2821e-07
5.61582e-07
2.12347e-06
2.1233e-06
4.41487e-07
2.12336e-06
2.12314e-06
2.29698e-05
2.29665e-05
2.29678e-05
2.29696e-05
4.41575e-07
2.12335e-06
2.12321e-06
2.12354e-06
2.12347e-06
2.29653e-05
2.29665e-05
5.61573e-07
1.07949e-06
4.28217e-07
4.32672e-07
5.61641e-07
1.07915e-06
4.28216e-07
1.28872e-06
6.56936e-06
1.2889e-06
6.5693e-06
5.61584e-07
4.28218e-07
1.07956e-06
4.32681e-07
5.61654e-07
4.28217e-07
1.07925e-06
1.28881e-06
6.5685e-06
6.56853e-06
1.28866e-06
5.61649e-07
4.3267e-07
1.07914e-06
4.28212e-07
1.07944e-06
4.28214e-07
5.61581e-07
1.28888e-06
6.56941e-06
6.56931e-06
1.28877e-06
5.6166e-07
4.32678e-07
4.28208e-07
1.0793e-06
4.28213e-07
1.07955e-06
5.61594e-07
1.28883e-06
6.56834e-06
1.28903e-06
6.56812e-06
5.61583e-07
4.28217e-07
1.0793e-06
4.32678e-07
5.61653e-07
4.28216e-07
1.079e-06
1.28883e-06
6.56893e-06
1.28903e-06
6.56884e-06
5.61655e-07
4.32675e-07
1.07901e-06
4.28205e-07
1.0793e-06
4.28209e-07
5.61591e-07
1.28903e-06
6.56812e-06
6.56813e-06
1.28888e-06
5.61658e-07
4.32675e-07
4.28207e-07
1.07906e-06
4.28212e-07
1.07928e-06
5.61594e-07
1.28903e-06
6.56895e-06
6.56884e-06
1.28888e-06
2.12406e-06
2.12318e-06
4.41489e-07
2.1239e-06
2.12308e-06
2.29718e-05
2.29697e-05
2.29706e-05
2.29707e-05
4.41576e-07
2.12391e-06
2.12312e-06
2.12416e-06
2.12319e-06
2.29693e-05
2.29696e-05
5.61582e-07
4.28217e-07
1.0794e-06
4.32675e-07
5.61652e-07
4.28216e-07
1.0791e-06
1.28885e-06
6.56904e-06
1.28906e-06
6.56895e-06
1.28873e-06
6.56925e-06
1.2889e-06
6.56916e-06
5.61677e-07
4.32668e-07
4.28203e-07
1.07905e-06
4.28209e-07
1.07927e-06
5.61606e-07
5.61657e-07
4.32672e-07
4.28207e-07
1.07916e-06
4.28212e-07
1.07938e-06
5.61593e-07
1.28905e-06
6.56905e-06
6.56896e-06
1.28891e-06
1.28889e-06
6.56928e-06
6.56917e-06
1.28879e-06
2.2972e-05
2.297e-05
2.29734e-05
2.29713e-05
4.41575e-07
2.12314e-06
2.12358e-06
2.1232e-06
2.12363e-06
2.29696e-05
2.29698e-05
2.2971e-05
2.29712e-05
2.29665e-05
2.29709e-05
2.29692e-05
2.29738e-05
2.12306e-06
2.12356e-06
4.4148e-07
2.12343e-06
2.12393e-06
2.29938e-05
2.29794e-05
2.29965e-05
2.29826e-05
4.41555e-07
2.12513e-06
2.12561e-06
2.12423e-06
2.12474e-06
1.28908e-06
6.56818e-06
1.28901e-06
6.56892e-06
5.61616e-07
1.07923e-06
4.28205e-07
4.32655e-07
5.61658e-07
1.07919e-06
4.28191e-07
5.61615e-07
1.07933e-06
4.28204e-07
4.32656e-07
5.6166e-07
1.07926e-06
4.2819e-07
1.28959e-06
6.575e-06
6.57067e-06
1.28994e-06
1.28956e-06
6.57524e-06
6.57084e-06
1.28993e-06
5.61719e-07
4.32613e-07
1.07968e-06
4.28068e-07
1.07962e-06
4.28145e-07
5.61691e-07
5.61717e-07
4.32614e-07
1.07976e-06
4.28067e-07
1.0797e-06
4.28144e-07
5.61689e-07
2.1235e-06
2.12351e-06
4.41478e-07
2.12385e-06
2.12369e-06
2.29655e-05
2.29698e-05
2.29954e-05
2.29813e-05
4.41552e-07
2.12556e-06
2.12528e-06
2.12471e-06
2.12463e-06
2.29923e-05
2.29789e-05
5.61623e-07
1.07946e-06
4.28206e-07
4.32653e-07
5.61659e-07
1.07939e-06
4.2819e-07
1.28944e-06
6.56958e-06
1.28903e-06
6.57362e-06
5.61658e-07
4.28196e-07
1.07969e-06
4.32621e-07
5.61682e-07
4.28157e-07
1.07976e-06
1.2895e-06
6.57589e-06
6.57163e-06
1.28984e-06
5.61722e-07
4.3261e-07
1.07989e-06
4.28061e-07
1.07985e-06
4.28137e-07
5.61694e-07
1.28989e-06
6.57669e-06
6.57579e-06
1.28993e-06
5.61759e-07
4.32552e-07
4.28019e-07
1.08006e-06
4.28081e-07
1.0802e-06
5.61712e-07
1.28956e-06
6.56812e-06
1.2892e-06
6.56891e-06
5.61657e-07
4.28193e-07
1.07942e-06
4.32618e-07
5.61682e-07
4.2815e-07
1.07952e-06
1.28957e-06
6.56907e-06
1.2892e-06
6.57323e-06
5.61751e-07
4.32601e-07
1.07974e-06
4.28024e-07
1.0797e-06
4.28083e-07
5.61706e-07
1.29005e-06
6.57515e-06
6.57084e-06
1.29005e-06
5.61755e-07
4.32548e-07
4.28013e-07
1.07981e-06
4.28073e-07
1.07993e-06
5.6171e-07
1.29006e-06
6.57623e-06
6.5753e-06
1.29005e-06
2.12446e-06
2.12344e-06
4.41438e-07
2.1253e-06
2.12457e-06
2.29703e-05
2.29886e-05
2.29982e-05
2.29964e-05
4.41505e-07
2.12612e-06
2.12522e-06
2.12615e-06
2.12528e-06
2.29964e-05
2.29942e-05
5.61657e-07
4.28193e-07
1.07952e-06
4.32615e-07
5.61681e-07
4.28149e-07
1.07962e-06
1.28959e-06
6.56918e-06
1.28923e-06
6.5734e-06
1.28951e-06
6.56941e-06
1.28906e-06
6.57363e-06
5.61774e-07
4.32541e-07
4.28012e-07
1.0798e-06
4.28069e-07
1.07992e-06
5.61724e-07
5.61755e-07
4.32545e-07
4.28012e-07
1.07991e-06
4.28072e-07
1.08003e-06
5.6171e-07
1.29009e-06
6.57633e-06
6.57546e-06
1.29007e-06
1.28994e-06
6.57656e-06
6.57569e-06
1.28995e-06
2.29707e-05
2.29892e-05
2.2972e-05
2.29906e-05
4.41505e-07
2.12523e-06
2.12566e-06
2.12529e-06
2.12574e-06
2.29967e-05
2.29947e-05
2.2998e-05
2.29961e-05
2.29951e-05
2.29947e-05
2.29978e-05
2.29974e-05
2.12532e-06
2.12581e-06
4.41321e-07
2.12514e-06
2.12563e-06
2.29944e-05
2.29947e-05
2.29971e-05
2.29973e-05
4.414e-07
2.12513e-06
2.12562e-06
2.12529e-06
2.12578e-06
1.29006e-06
6.57577e-06
1.29021e-06
6.57565e-06
5.61716e-07
1.08002e-06
4.28012e-07
4.32465e-07
5.61779e-07
1.0798e-06
4.27982e-07
5.61715e-07
1.0801e-06
4.28012e-07
4.32466e-07
5.61778e-07
1.07988e-06
4.27981e-07
1.29027e-06
6.57519e-06
6.57518e-06
1.29007e-06
1.29027e-06
6.57562e-06
6.57566e-06
1.29006e-06
5.61792e-07
4.32447e-07
1.07981e-06
4.27959e-07
1.08009e-06
4.27963e-07
5.61715e-07
5.61792e-07
4.32448e-07
1.0799e-06
4.27959e-07
1.08018e-06
4.27962e-07
5.61712e-07
2.12577e-06
2.12575e-06
4.41318e-07
2.12557e-06
2.12545e-06
2.29939e-05
2.29933e-05
2.29961e-05
2.29956e-05
4.41397e-07
2.12557e-06
2.12539e-06
2.12573e-06
2.12573e-06
2.29931e-05
2.29933e-05
5.61716e-07
1.08025e-06
4.28008e-07
4.32462e-07
5.61778e-07
1.08001e-06
4.2798e-07
1.28997e-06
6.5767e-06
1.29012e-06
6.57656e-06
5.6172e-07
4.27985e-07
1.08039e-06
4.32456e-07
5.6179e-07
4.27969e-07
1.0801e-06
1.29011e-06
6.57609e-06
6.57609e-06
1.28995e-06
5.61791e-07
4.32445e-07
1.08002e-06
4.27959e-07
1.08032e-06
4.27962e-07
5.61709e-07
1.29014e-06
6.57651e-06
6.57657e-06
1.28997e-06
5.61793e-07
4.32448e-07
4.2796e-07
1.0801e-06
4.2796e-07
1.08041e-06
5.61711e-07
1.29008e-06
6.57576e-06
1.29027e-06
6.5756e-06
5.61719e-07
4.27981e-07
1.08011e-06
4.32452e-07
5.61788e-07
4.27967e-07
1.07985e-06
1.29008e-06
6.57624e-06
1.29027e-06
6.57614e-06
5.61788e-07
4.32444e-07
1.07988e-06
4.27959e-07
1.08018e-06
4.27961e-07
5.61709e-07
1.29028e-06
6.57553e-06
6.57561e-06
1.29008e-06
5.61791e-07
4.32445e-07
4.27959e-07
1.07985e-06
4.27959e-07
1.08014e-06
5.61711e-07
1.29029e-06
6.57609e-06
6.57614e-06
1.29008e-06
2.12638e-06
2.12537e-06
4.4131e-07
2.12604e-06
2.1252e-06
2.29964e-05
2.29962e-05
2.29975e-05
2.29975e-05
4.41395e-07
2.12603e-06
2.12519e-06
2.1263e-06
2.12535e-06
2.29961e-05
2.29962e-05
5.61718e-07
4.27981e-07
1.08021e-06
4.3245e-07
5.61788e-07
4.27967e-07
1.07995e-06
1.2901e-06
6.57633e-06
1.2903e-06
6.57626e-06
1.28998e-06
6.57656e-06
1.29014e-06
6.57647e-06
5.61812e-07
4.32443e-07
4.27959e-07
1.07984e-06
4.27961e-07
1.08012e-06
5.61725e-07
5.6179e-07
4.32442e-07
4.27959e-07
1.07995e-06
4.27959e-07
1.08023e-06
5.61709e-07
1.29031e-06
6.5762e-06
6.57626e-06
1.2901e-06
1.29015e-06
6.57642e-06
6.57647e-06
1.28997e-06
2.29967e-05
2.29965e-05
2.2998e-05
2.29978e-05
4.41394e-07
2.1252e-06
2.12563e-06
2.12536e-06
2.12579e-06
2.29963e-05
2.29965e-05
2.29977e-05
2.29978e-05
2.29944e-05
2.29944e-05
2.29971e-05
2.2997e-05
2.12527e-06
2.12577e-06
4.41315e-07
2.12511e-06
2.12561e-06
2.29944e-05
2.29944e-05
2.2997e-05
2.29971e-05
4.41404e-07
2.12512e-06
2.12561e-06
2.12526e-06
2.12576e-06
1.29006e-06
6.57562e-06
1.29027e-06
6.57559e-06
5.6171e-07
1.08009e-06
4.27962e-07
4.32447e-07
5.61788e-07
1.07981e-06
4.27962e-07
5.61709e-07
1.08018e-06
4.27962e-07
4.32448e-07
5.61786e-07
1.0799e-06
4.27962e-07
1.29028e-06
6.57517e-06
6.57508e-06
1.29007e-06
1.29027e-06
6.5756e-06
6.5756e-06
1.29006e-06
5.61787e-07
4.32445e-07
1.07981e-06
4.2796e-07
1.08009e-06
4.27961e-07
5.61715e-07
5.61787e-07
4.32446e-07
1.0799e-06
4.27959e-07
1.08018e-06
4.27961e-07
5.61713e-07
2.12574e-06
2.12569e-06
4.41312e-07
2.12555e-06
2.12539e-06
2.29932e-05
2.29931e-05
2.29961e-05
2.29956e-05
4.41401e-07
2.12556e-06
2.12541e-06
2.12572e-06
2.12569e-06
2.29931e-05
2.29932e-05
5.61708e-07
1.08033e-06
4.27963e-07
4.32444e-07
5.61781e-07
1.08002e-06
4.27963e-07
1.28997e-06
6.57651e-06
1.29014e-06
6.57651e-06
5.61714e-07
4.27964e-07
1.08041e-06
4.32452e-07
5.61784e-07
4.27964e-07
1.0801e-06
1.29011e-06
6.57607e-06
6.576e-06
1.28995e-06
5.61785e-07
4.32443e-07
1.08002e-06
4.2796e-07
1.08032e-06
4.27961e-07
5.61711e-07
1.29014e-06
6.5765e-06
6.57651e-06
1.28996e-06
5.6179e-07
4.3245e-07
4.2796e-07
1.0801e-06
4.27962e-07
1.08041e-06
5.61714e-07
1.29008e-06
6.57553e-06
1.29028e-06
6.57552e-06
5.61715e-07
4.27964e-07
1.08013e-06
4.32448e-07
5.61784e-07
4.27964e-07
1.07985e-06
1.29008e-06
6.5761e-06
1.29029e-06
6.57608e-06
5.61786e-07
4.32443e-07
1.07988e-06
4.27959e-07
1.08018e-06
4.27963e-07
5.61711e-07
1.29029e-06
6.5755e-06
6.57552e-06
1.29008e-06
5.6179e-07
4.32446e-07
4.2796e-07
1.07985e-06
4.27961e-07
1.08013e-06
5.61714e-07
1.29029e-06
6.57608e-06
6.57608e-06
1.29008e-06
2.1263e-06
2.12534e-06
4.41318e-07
2.12604e-06
2.12518e-06
2.29961e-05
2.29961e-05
2.29975e-05
2.29974e-05
4.41405e-07
2.12602e-06
2.12518e-06
2.1263e-06
2.12534e-06
2.2996e-05
2.29961e-05
5.61713e-07
4.27964e-07
1.08023e-06
4.32445e-07
5.61782e-07
4.27964e-07
1.07995e-06
1.2901e-06
6.57621e-06
1.29031e-06
6.57619e-06
1.28998e-06
6.57642e-06
1.29015e-06
6.57641e-06
5.61809e-07
4.32445e-07
4.27959e-07
1.07984e-06
4.27962e-07
1.08012e-06
5.61726e-07
5.61788e-07
4.32443e-07
4.2796e-07
1.07995e-06
4.27961e-07
1.08023e-06
5.61712e-07
1.29031e-06
6.5762e-06
6.57619e-06
1.29008e-06
1.29014e-06
6.57641e-06
6.57642e-06
1.28997e-06
2.29963e-05
2.29963e-05
2.29977e-05
2.29977e-05
4.41401e-07
2.1252e-06
2.12563e-06
2.12535e-06
2.12578e-06
2.29962e-05
2.29963e-05
2.29976e-05
2.29977e-05
2.29944e-05
2.29944e-05
2.2997e-05
2.2997e-05
2.12526e-06
2.12576e-06
4.41312e-07
2.12511e-06
2.1256e-06
2.29944e-05
2.29944e-05
2.2997e-05
2.2997e-05
4.414e-07
2.12512e-06
2.12561e-06
2.12526e-06
2.12576e-06
1.29006e-06
6.5756e-06
1.29027e-06
6.57559e-06
5.61713e-07
1.08009e-06
4.27962e-07
4.32447e-07
5.6179e-07
1.07981e-06
4.27962e-07
5.61711e-07
1.08018e-06
4.27962e-07
4.32448e-07
5.61787e-07
1.0799e-06
4.27962e-07
1.29027e-06
6.57517e-06
6.57508e-06
1.29007e-06
1.29027e-06
6.5756e-06
6.5756e-06
1.29006e-06
5.61787e-07
4.32445e-07
1.07981e-06
4.2796e-07
1.08009e-06
4.2796e-07
5.61712e-07
5.61788e-07
4.32446e-07
1.0799e-06
4.27959e-07
1.08018e-06
4.2796e-07
5.61711e-07
2.12574e-06
2.12571e-06
4.41309e-07
2.12555e-06
2.12539e-06
2.29933e-05
2.29931e-05
2.29961e-05
2.29956e-05
4.41397e-07
2.12556e-06
2.1254e-06
2.12572e-06
2.12569e-06
2.29931e-05
2.29932e-05
5.6171e-07
1.08033e-06
4.27963e-07
4.32445e-07
5.61784e-07
1.08002e-06
4.27963e-07
1.28997e-06
6.57651e-06
1.29014e-06
6.57651e-06
5.61714e-07
4.27963e-07
1.08041e-06
4.32451e-07
5.61787e-07
4.27963e-07
1.0801e-06
1.29011e-06
6.57607e-06
6.576e-06
1.28995e-06
5.61785e-07
4.32443e-07
1.08002e-06
4.2796e-07
1.08032e-06
4.2796e-07
5.61709e-07
1.29013e-06
6.5765e-06
6.57652e-06
1.28996e-06
5.61789e-07
4.32449e-07
4.2796e-07
1.0801e-06
4.27961e-07
1.08041e-06
5.61713e-07
1.29008e-06
6.5755e-06
1.29028e-06
6.57551e-06
5.61713e-07
4.27962e-07
1.08013e-06
4.32448e-07
5.61786e-07
4.27962e-07
1.07985e-06
1.29008e-06
6.57608e-06
1.29029e-06
6.57608e-06
5.61785e-07
4.32442e-07
1.07988e-06
4.27959e-07
1.08018e-06
4.27961e-07
5.61711e-07
1.29029e-06
6.5755e-06
6.57552e-06
1.29008e-06
5.61789e-07
4.32446e-07
4.2796e-07
1.07985e-06
4.2796e-07
1.08013e-06
5.61715e-07
1.29029e-06
6.57608e-06
6.57608e-06
1.29008e-06
2.1263e-06
2.12533e-06
4.41315e-07
2.12604e-06
2.12518e-06
2.2996e-05
2.2996e-05
2.29975e-05
2.29974e-05
4.41403e-07
2.12602e-06
2.12518e-06
2.1263e-06
2.12534e-06
2.29959e-05
2.2996e-05
5.61711e-07
4.27963e-07
1.08023e-06
4.32445e-07
5.61784e-07
4.27963e-07
1.07995e-06
1.29009e-06
6.5762e-06
1.29029e-06
6.57621e-06
1.28996e-06
6.57642e-06
1.29014e-06
6.57641e-06
5.61806e-07
4.32444e-07
4.27959e-07
1.07984e-06
4.27962e-07
1.08012e-06
5.61724e-07
5.61785e-07
4.32443e-07
4.2796e-07
1.07995e-06
4.27961e-07
1.08023e-06
5.6171e-07
1.2903e-06
6.57621e-06
6.57621e-06
1.29008e-06
1.29012e-06
6.57641e-06
6.57641e-06
1.28995e-06
2.29962e-05
2.29963e-05
2.29976e-05
2.29976e-05
4.41401e-07
2.1252e-06
2.12563e-06
2.12535e-06
2.12578e-06
2.29962e-05
2.29963e-05
2.29976e-05
2.29977e-05
2.29944e-05
2.29944e-05
2.2997e-05
2.2997e-05
2.12526e-06
2.12576e-06
4.41312e-07
2.12511e-06
2.1256e-06
2.29944e-05
2.29944e-05
2.2997e-05
2.29971e-05
4.414e-07
2.12512e-06
2.12561e-06
2.12526e-06
2.12576e-06
1.29006e-06
6.57561e-06
1.29027e-06
6.57559e-06
5.61714e-07
1.08009e-06
4.27963e-07
4.32447e-07
5.61789e-07
1.07981e-06
4.27963e-07
5.61712e-07
1.08018e-06
4.27962e-07
4.32448e-07
5.61787e-07
1.0799e-06
4.27962e-07
1.29027e-06
6.57517e-06
6.57508e-06
1.29007e-06
1.29027e-06
6.5756e-06
6.57559e-06
1.29006e-06
5.61787e-07
4.32445e-07
1.07981e-06
4.2796e-07
1.08009e-06
4.2796e-07
5.61712e-07
5.61788e-07
4.32446e-07
1.0799e-06
4.27959e-07
1.08018e-06
4.2796e-07
5.61711e-07
2.12574e-06
2.1257e-06
4.41309e-07
2.12555e-06
2.1254e-06
2.29933e-05
2.29931e-05
2.29961e-05
2.29956e-05
4.41397e-07
2.12556e-06
2.1254e-06
2.12572e-06
2.1257e-06
2.29931e-05
2.29932e-05
5.61711e-07
1.08033e-06
4.27962e-07
4.32445e-07
5.61784e-07
1.08002e-06
4.27962e-07
1.28997e-06
6.57651e-06
1.29014e-06
6.57651e-06
5.61715e-07
4.27963e-07
1.08041e-06
4.32451e-07
5.61787e-07
4.27963e-07
1.0801e-06
1.29011e-06
6.57607e-06
6.576e-06
1.28995e-06
5.61786e-07
4.32443e-07
1.08002e-06
4.2796e-07
1.08032e-06
4.2796e-07
5.61708e-07
1.29013e-06
6.5765e-06
6.57652e-06
1.28996e-06
5.61789e-07
4.32449e-07
4.2796e-07
1.0801e-06
4.27961e-07
1.08041e-06
5.61712e-07
1.29008e-06
6.5755e-06
1.29028e-06
6.57551e-06
5.61712e-07
4.27962e-07
1.08013e-06
4.32448e-07
5.61787e-07
4.27962e-07
1.07985e-06
1.29008e-06
6.57608e-06
1.29029e-06
6.57608e-06
5.61785e-07
4.32442e-07
1.07988e-06
4.27959e-07
1.08018e-06
4.27962e-07
5.61711e-07
1.29029e-06
6.5755e-06
6.57552e-06
1.29007e-06
5.61788e-07
4.32446e-07
4.27959e-07
1.07985e-06
4.2796e-07
1.08013e-06
5.61715e-07
1.29029e-06
6.57608e-06
6.57609e-06
1.29008e-06
2.1263e-06
2.12534e-06
4.41315e-07
2.12604e-06
2.12518e-06
2.29959e-05
2.2996e-05
2.29975e-05
2.29974e-05
4.41402e-07
2.12602e-06
2.12518e-06
2.1263e-06
2.12534e-06
2.2996e-05
2.2996e-05
5.61711e-07
4.27963e-07
1.08023e-06
4.32445e-07
5.61783e-07
4.27963e-07