/*--------------------------------*- C++ -*----------------------------------*\
| =========                 |                                                 |
| \\      /  F ield         | OpenFOAM: The Open Source CFD Toolbox           |
|  \\    /   O peration     | Version:  2206                                  |
|   \\  /    A nd           | Website:  www.openfoam.com                      |
|    \\/     M anipulation  |                                                 |
\*---------------------------------------------------------------------------*/
FoamFile
{
    version     2.0;
    format      ascii;
    arch        "LSB;label=32;scalar=64";
    class       volScalarField;
    location    "16.5";
    object      Uy;
}
// * * * * * * * * * * * * * * * * * * * * * * * * * * * * * * * * * * * * * //

dimensions      [0 1 -1 0 0 0 0];

internalField   nonuniform List<scalar> 
171728
(
0.000107997
0.000120153
-0.00019084
-0.000238482
9.61338e-05
0.0001006
-0.00016478
-0.000199941
9.18706e-05
9.66422e-05
-0.000159693
-0.000195671
5.9898e-05
4.86458e-05
-8.24148e-05
-0.000125372
1.22594e-05
1.10523e-05
-1.5569e-05
-5.24849e-05
6.24002e-07
1.39108e-06
-1.53579e-06
-4.01497e-05
-4.58072e-07
5.83384e-07
-3.88664e-07
-3.93868e-05
-5.16529e-07
5.52167e-07
-3.51476e-07
-3.93605e-05
-5.20937e-07
5.51248e-07
-3.51962e-07
-3.93607e-05
-5.18653e-07
5.51736e-07
-3.51728e-07
-3.93611e-05
-5.13864e-07
5.5248e-07
-3.51659e-07
-3.93614e-05
-5.21468e-07
5.50816e-07
-3.52093e-07
-3.9361e-05
-5.2297e-07
5.48739e-07
-3.51154e-07
-3.93601e-05
-5.23451e-07
5.47496e-07
-3.49889e-07
-3.93593e-05
-5.21925e-07
5.53137e-07
-3.49982e-07
-3.93587e-05
-5.19101e-07
5.56288e-07
-3.51103e-07
-3.93591e-05
-5.20453e-07
5.53667e-07
-3.51147e-07
-3.93602e-05
-5.17681e-07
5.56058e-07
-3.51857e-07
-3.93607e-05
-5.09753e-07
5.68438e-07
-3.50203e-07
-3.93596e-05
-5.13519e-07
5.418e-07
-3.49211e-07
-3.93593e-05
-5.16099e-07
5.54408e-07
-3.50325e-07
-3.93601e-05
-5.23191e-07
5.49233e-07
-3.50104e-07
-3.93597e-05
-5.22719e-07
5.48728e-07
-3.51167e-07
-3.93602e-05
-5.22384e-07
5.49161e-07
-3.52115e-07
-3.93605e-05
-5.21739e-07
5.4979e-07
-3.52101e-07
-3.93611e-05
-5.20731e-07
5.50036e-07
-3.53392e-07
-3.93619e-05
-5.20886e-07
5.50205e-07
-3.52736e-07
-3.9362e-05
-5.21226e-07
5.49935e-07
-3.52805e-07
-3.93612e-05
-5.21506e-07
5.49298e-07
-3.51859e-07
-3.93609e-05
-5.22374e-07
5.49031e-07
-3.51033e-07
-3.93604e-05
-5.21747e-07
5.50432e-07
-3.51596e-07
-3.93605e-05
-5.21757e-07
5.49437e-07
-3.5124e-07
-3.93607e-05
-5.21091e-07
5.49537e-07
-3.52531e-07
-3.93617e-05
-5.21053e-07
5.49939e-07
-3.52324e-07
-3.9362e-05
-5.2078e-07
5.4984e-07
-3.52943e-07
-3.93619e-05
-5.21143e-07
5.50065e-07
-3.52419e-07
-3.93614e-05
-5.22033e-07
5.4868e-07
-3.51612e-07
-3.93603e-05
-5.2183e-07
5.49206e-07
-3.51856e-07
-3.93605e-05
-5.22642e-07
5.48125e-07
-3.50922e-07
-3.93598e-05
-5.21569e-07
5.49569e-07
-3.52604e-07
-3.93634e-05
-5.15949e-07
5.48206e-07
-3.51719e-07
-3.93619e-05
-5.18328e-07
5.61129e-07
-3.51677e-07
-3.93602e-05
-5.19428e-07
5.51102e-07
-3.5118e-07
-3.93602e-05
-5.21248e-07
5.51001e-07
-3.51018e-07
-3.93611e-05
-5.22285e-07
5.50318e-07
-3.50065e-07
-3.93609e-05
-5.22398e-07
5.49257e-07
-3.49449e-07
-3.936e-05
-5.22368e-07
5.50114e-07
-3.49975e-07
-3.93606e-05
-5.22349e-07
5.49645e-07
-3.49943e-07
-3.93605e-05
-5.21086e-07
5.50937e-07
-3.51359e-07
-3.93612e-05
-5.21201e-07
5.50742e-07
-3.5116e-07
-3.9361e-05
-5.21258e-07
5.51185e-07
-3.51088e-07
-3.93609e-05
-5.21621e-07
5.50592e-07
-3.51212e-07
-3.93617e-05
-5.22667e-07
5.49084e-07
-3.50118e-07
-3.93606e-05
-5.23962e-07
5.4608e-07
-3.50455e-07
-3.93613e-05
-5.25154e-07
5.39648e-07
-3.50588e-07
-3.93617e-05
-5.22942e-07
5.48123e-07
-3.50692e-07
-3.93609e-05
-5.23335e-07
5.48707e-07
-3.48746e-07
-3.93591e-05
-5.23277e-07
5.48878e-07
-3.48831e-07
-3.93591e-05
-5.23498e-07
5.48627e-07
-3.48699e-07
-3.93586e-05
-5.23684e-07
5.47777e-07
-3.47686e-07
-3.93577e-05
-5.24073e-07
5.47601e-07
-3.47155e-07
-3.93575e-05
-5.25123e-07
5.46761e-07
-3.45805e-07
-3.93564e-05
-5.23983e-07
5.47706e-07
-3.47103e-07
-3.93572e-05
-5.24079e-07
5.47322e-07
-3.46782e-07
-3.93574e-05
-5.23543e-07
5.4808e-07
-3.48175e-07
-3.93581e-05
-5.23345e-07
5.48689e-07
-3.48532e-07
-3.93583e-05
-5.23278e-07
5.47925e-07
-3.48001e-07
-3.93581e-05
-5.23092e-07
5.48644e-07
-3.47133e-07
-3.93574e-05
-5.22917e-07
5.48607e-07
-3.42672e-07
-3.93535e-05
-5.20984e-07
5.50407e-07
-3.32909e-07
-3.93471e-05
-5.22367e-07
5.48545e-07
-3.41612e-07
-3.93517e-05
-5.23404e-07
5.48693e-07
-3.47294e-07
-3.93563e-05
-5.23473e-07
5.47864e-07
-3.47465e-07
-3.9358e-05
-5.23265e-07
5.48302e-07
-3.48411e-07
-3.93584e-05
-5.23404e-07
5.48632e-07
-3.4845e-07
-3.93584e-05
-5.24052e-07
5.47674e-07
-3.4672e-07
-3.93575e-05
-5.24134e-07
5.4736e-07
-3.46872e-07
-3.93572e-05
-5.24709e-07
5.4727e-07
-3.46027e-07
-3.93566e-05
-5.24399e-07
5.47367e-07
-3.46946e-07
-3.93571e-05
-5.24045e-07
5.47374e-07
-3.46875e-07
-3.93575e-05
-5.23409e-07
5.48372e-07
-3.48004e-07
-3.93584e-05
-5.23555e-07
5.48213e-07
-3.48133e-07
-3.93582e-05
-5.23574e-07
5.48462e-07
-3.48238e-07
-3.93584e-05
-5.24112e-07
5.47203e-07
-3.47299e-07
-3.93575e-05
-5.24428e-07
5.47404e-07
-3.46584e-07
-3.93572e-05
-5.24557e-07
5.4721e-07
-3.46842e-07
-3.93569e-05
-5.24584e-07
5.47239e-07
-3.46357e-07
-3.93569e-05
-5.23934e-07
5.47667e-07
-3.47205e-07
-3.93576e-05
-5.24608e-07
5.47381e-07
-3.47217e-07
-3.93581e-05
-5.34737e-07
5.44249e-07
-3.43421e-07
-3.93504e-05
-5.2205e-07
6.16559e-07
-4.62402e-07
-3.92055e-05
-5.92233e-07
1.04721e-06
-1.18465e-06
-3.78925e-05
-7.41292e-08
2.42461e-06
-2.82595e-06
-3.70914e-05
-5.71691e-06
2.84807e-06
-2.14881e-06
-2.63811e-05
-4.29898e-05
-3.4522e-05
4.10962e-05
4.95542e-05
0.000135566
0.000152649
0.00015263
0.000135535
0.000123874
-0.000123891
9.09219e-05
9.09193e-05
-9.09691e-05
-9.09672e-05
0.00012387
-0.000123887
-0.000135588
-0.000152678
-0.000152661
-0.000135562
0.000238487
0.000113396
0.000190735
0.000190778
0.000147834
0.000147833
0.000238435
0.000113362
0.000120169
-0.000120233
8.96687e-05
-8.9693e-05
-0.000120236
8.96695e-05
-8.96882e-05
-0.000238528
-0.000113493
-0.000190869
-0.000147777
-0.000147801
-0.000113495
0.000199809
0.000105595
0.000164839
0.000164837
0.000154002
0.000154004
0.000199776
0.000105583
0.000100592
-0.000100602
9.21749e-05
-9.21828e-05
-0.000100595
9.21815e-05
-9.21669e-05
-0.000199949
-0.000105658
-0.000164812
-0.000153959
-0.000153978
-0.000105665
0.000195564
5.84902e-05
0.000159745
0.000159746
0.000110201
0.000110172
0.000195548
5.85466e-05
9.66366e-05
-9.66344e-05
6.37622e-05
-6.38005e-05
-9.66238e-05
6.37481e-05
-6.37507e-05
-0.000195678
-5.84999e-05
-0.000159713
-0.000110146
-0.000110142
-5.84794e-05
0.000125324
-2.34921e-05
8.24353e-05
8.24166e-05
2.56343e-05
2.5651e-05
0.000125342
-2.34845e-05
4.86561e-05
-4.87056e-05
1.74188e-05
-1.74588e-05
-4.86785e-05
1.74234e-05
-1.7453e-05
-0.000125396
2.34993e-05
-8.24059e-05
-2.56457e-05
-2.56506e-05
2.3488e-05
5.24371e-05
-3.96933e-05
1.55631e-05
1.55828e-05
2.76028e-06
2.78183e-06
5.244e-05
-3.96785e-05
1.10485e-05
-1.10801e-05
2.25321e-06
-2.26932e-06
-1.10754e-05
2.25934e-06
-2.26581e-06
-5.2492e-05
3.97202e-05
-1.55705e-05
-2.75014e-06
-2.74974e-06
3.97115e-05
4.01234e-05
-4.08364e-05
1.54612e-06
1.5675e-06
4.61944e-07
4.678e-07
4.0133e-05
-4.0838e-05
1.38487e-06
-1.3987e-06
6.31767e-07
-6.40991e-07
-1.39379e-06
6.30357e-07
-6.38688e-07
-4.01569e-05
4.0872e-05
-1.53131e-06
-4.45705e-07
-4.45341e-07
4.08612e-05
3.93655e-05
-4.08711e-05
4.06078e-07
4.0625e-07
3.72025e-07
3.70957e-07
3.93543e-05
-4.0881e-05
5.89854e-07
-5.96705e-07
5.59072e-07
-5.63845e-07
-5.93466e-07
5.5325e-07
-5.63247e-07
-3.93918e-05
4.09141e-05
-3.84827e-07
-3.49947e-07
-3.50029e-07
4.09023e-05
3.93404e-05
-4.08818e-05
3.68272e-07
3.709e-07
3.66152e-07
3.67605e-07
3.93293e-05
-4.08808e-05
5.55413e-07
-5.63694e-07
5.52572e-07
-5.63356e-07
-5.61635e-07
5.51677e-07
-5.61994e-07
-3.93647e-05
4.09136e-05
-3.4814e-07
-3.48955e-07
-3.49143e-07
4.09025e-05
3.9332e-05
-4.08809e-05
3.65726e-07
3.70929e-07
3.66475e-07
3.65321e-07
3.93292e-05
-4.08805e-05
5.53125e-07
-5.64797e-07
5.53937e-07
-5.63448e-07
-5.61938e-07
5.52196e-07
-5.62181e-07
-3.93657e-05
4.09135e-05
-3.48694e-07
-3.49401e-07
-3.49479e-07
4.09022e-05
3.93351e-05
-4.08637e-05
3.69149e-07
3.75627e-07
3.80448e-07
3.66729e-07
3.93297e-05
-4.08796e-05
5.5603e-07
-5.64005e-07
5.62328e-07
-5.62132e-07
-5.61794e-07
5.52811e-07
-5.62193e-07
-3.93657e-05
4.09141e-05
-3.48662e-07
-3.48888e-07
-3.495e-07
4.09017e-05
3.93517e-05
-4.08812e-05
3.77723e-07
3.76589e-07
3.64622e-07
3.63956e-07
3.93304e-05
-4.08817e-05
5.61713e-07
-5.63211e-07
5.51596e-07
-5.63402e-07
-5.61921e-07
5.51623e-07
-5.62525e-07
-3.93653e-05
4.0913e-05
-3.48766e-07
-3.49634e-07
-3.49569e-07
4.09017e-05
3.93319e-05
-4.08821e-05
3.69001e-07
3.73212e-07
3.62347e-07
3.72944e-07
3.93282e-05
-4.08838e-05
5.54449e-07
-5.64604e-07
5.51245e-07
-5.64024e-07
-5.62271e-07
5.49585e-07
-5.61646e-07
-3.93658e-05
4.0913e-05
-3.49151e-07
-3.48842e-07
-3.50787e-07
4.09026e-05
3.93315e-05
-4.08841e-05
3.64415e-07
3.77947e-07
3.58932e-07
3.77028e-07
3.93256e-05
-4.08858e-05
5.5322e-07
-5.65038e-07
5.50104e-07
-5.64023e-07
-5.60813e-07
5.47484e-07
-5.60078e-07
-3.93659e-05
4.09132e-05
-3.50348e-07
-3.47338e-07
-3.51083e-07
4.09036e-05
3.9334e-05
-4.08837e-05
3.64905e-07
3.75556e-07
3.61366e-07
3.70125e-07
3.93248e-05
-4.0882e-05
5.55274e-07
-5.64948e-07
5.52814e-07
-5.6358e-07
-5.59283e-07
5.51002e-07
-5.59119e-07
-3.93657e-05
4.09137e-05
-3.49754e-07
-3.47434e-07
-3.48585e-07
4.09047e-05
3.93373e-05
-4.08833e-05
3.66968e-07
3.71599e-07
3.64125e-07
3.82397e-07
3.93314e-05
-4.08638e-05
5.53388e-07
-5.64341e-07
5.53131e-07
-5.63246e-07
-5.58614e-07
5.61031e-07
-5.59119e-07
-3.93654e-05
4.09139e-05
-3.47196e-07
-3.47937e-07
-3.4796e-07
4.09046e-05
3.93376e-05
-4.08829e-05
3.69177e-07
3.74978e-07
3.62231e-07
3.69456e-07
3.93447e-05
-4.08844e-05
5.54238e-07
-5.643e-07
5.52616e-07
-5.63499e-07
-5.59177e-07
5.52757e-07
-5.60892e-07
-3.93655e-05
4.09134e-05
-3.4756e-07
-3.48696e-07
-3.48618e-07
4.0903e-05
3.9337e-05
-4.08812e-05
3.69792e-07
3.70037e-07
3.63455e-07
3.69318e-07
3.93292e-05
-4.0883e-05
5.53383e-07
-5.64389e-07
5.5395e-07
-5.63407e-07
-5.60434e-07
5.5386e-07
-5.61066e-07
-3.93658e-05
4.09137e-05
-3.47769e-07
-3.49218e-07
-3.49007e-07
4.09032e-05
3.93379e-05
-4.08683e-05
3.7225e-07
3.7063e-07
3.73983e-07
3.81786e-07
3.9332e-05
-4.08645e-05
5.55809e-07
-5.64086e-07
5.61376e-07
-5.61342e-07
-5.60634e-07
5.64201e-07
-5.59252e-07
-3.9366e-05
4.09152e-05
-3.48384e-07
-3.48034e-07
-3.48639e-07
4.09043e-05
3.93556e-05
-4.08706e-05
3.86483e-07
3.87157e-07
3.69065e-07
3.7359e-07
3.93515e-05
-4.08777e-05
5.65871e-07
-5.6181e-07
5.60567e-07
-5.60837e-07
-5.58384e-07
5.52125e-07
-5.5948e-07
-3.93647e-05
4.09155e-05
-3.48842e-07
-3.46425e-07
-3.55899e-07
4.09044e-05
3.93448e-05
-4.08734e-05
3.68996e-07
3.66222e-07
3.76552e-07
3.75891e-07
3.93215e-05
-4.08815e-05
5.57245e-07
-5.62329e-07
5.50915e-07
-5.62264e-07
-5.59868e-07
5.53832e-07
-5.6129e-07
-3.93645e-05
4.09143e-05
-3.56317e-07
-3.47473e-07
-3.50555e-07
4.09031e-05
3.93387e-05
-4.08774e-05
3.78224e-07
3.64217e-07
3.63757e-07
3.69199e-07
3.93287e-05
-4.0881e-05
5.52676e-07
-5.63104e-07
5.50608e-07
-5.628e-07
-5.60579e-07
5.49742e-07
-5.60645e-07
-3.93649e-05
4.09141e-05
-3.48779e-07
-3.47778e-07
-3.49593e-07
4.09035e-05
3.93304e-05
-4.08795e-05
3.62188e-07
3.66019e-07
3.63922e-07
3.66109e-07
3.93306e-05
-4.0884e-05
5.50694e-07
-5.64076e-07
5.4904e-07
-5.63612e-07
-5.60459e-07
5.49084e-07
-5.61623e-07
-3.9365e-05
4.09136e-05
-3.47895e-07
-3.48465e-07
-3.48938e-07
4.0903e-05
3.93304e-05
-4.08797e-05
3.62286e-07
3.6543e-07
3.63921e-07
3.66852e-07
3.93276e-05
-4.08839e-05
5.49844e-07
-5.64481e-07
5.48502e-07
-5.63743e-07
-5.61212e-07
5.49071e-07
-5.61705e-07
-3.93654e-05
4.09134e-05
-3.47577e-07
-3.49001e-07
-3.47788e-07
4.09029e-05
3.933e-05
-4.08786e-05
3.6258e-07
3.6658e-07
3.64707e-07
3.67624e-07
3.93281e-05
-4.08829e-05
5.49398e-07
-5.64961e-07
5.48815e-07
-5.63992e-07
-5.6167e-07
5.49573e-07
-5.62176e-07
-3.93658e-05
4.0913e-05
-3.48674e-07
-3.4939e-07
-3.50164e-07
4.09019e-05
3.9331e-05
-4.08766e-05
3.63187e-07
3.67142e-07
3.66495e-07
3.68685e-07
3.93291e-05
-4.08819e-05
5.49866e-07
-5.65136e-07
5.49754e-07
-5.64324e-07
-5.61913e-07
5.50156e-07
-5.62883e-07
-3.93661e-05
4.09124e-05
-3.4971e-07
-3.503e-07
-3.51787e-07
4.09013e-05
3.93329e-05
-4.08765e-05
3.64917e-07
3.68366e-07
3.66689e-07
3.68919e-07
3.93299e-05
-4.08817e-05
5.50669e-07
-5.65483e-07
5.49981e-07
-5.64398e-07
-5.62629e-07
5.50746e-07
-5.63017e-07
-3.93667e-05
4.09122e-05
-3.51234e-07
-3.50613e-07
-3.52217e-07
4.0901e-05
3.93328e-05
-4.08773e-05
3.64693e-07
3.67964e-07
3.66083e-07
3.68438e-07
3.93299e-05
-4.08822e-05
5.50569e-07
-5.6499e-07
5.49518e-07
-5.64048e-07
-5.62425e-07
5.5013e-07
-5.62305e-07
-3.93666e-05
4.09126e-05
-3.51046e-07
-3.50036e-07
-3.51207e-07
4.09017e-05
3.9332e-05
-4.08774e-05
3.64198e-07
3.67846e-07
3.65665e-07
3.6757e-07
3.93295e-05
-4.0883e-05
5.50181e-07
-5.65327e-07
5.49066e-07
-5.63474e-07
-5.619e-07
5.49596e-07
-5.6197e-07
-3.93665e-05
4.09134e-05
-3.50515e-07
-3.49297e-07
-3.50901e-07
4.09023e-05
3.9332e-05
-4.08783e-05
3.63921e-07
3.66911e-07
3.6474e-07
3.67052e-07
3.93287e-05
-4.0883e-05
5.49994e-07
-5.64396e-07
5.48532e-07
-5.63083e-07
-5.6173e-07
5.49093e-07
-5.61708e-07
-3.93654e-05
4.09136e-05
-3.50167e-07
-3.48721e-07
-3.504e-07
4.09024e-05
3.93308e-05
-4.08779e-05
3.62401e-07
3.66155e-07
3.64745e-07
3.6672e-07
3.93285e-05
-4.08825e-05
5.48923e-07
-5.63884e-07
5.48637e-07
-5.63181e-07
-5.60871e-07
5.48443e-07
-5.6161e-07
-3.93652e-05
4.09139e-05
-3.49016e-07
-3.48788e-07
-3.50318e-07
4.09025e-05
3.93317e-05
-4.08777e-05
3.63577e-07
3.67224e-07
3.65179e-07
3.67419e-07
3.93283e-05
-4.08834e-05
5.49903e-07
-5.64379e-07
5.48906e-07
-5.63073e-07
-5.61178e-07
5.48519e-07
-5.61592e-07
-3.93653e-05
4.09136e-05
-3.49544e-07
-3.48684e-07
-3.50364e-07
4.09025e-05
3.93316e-05
-4.08775e-05
3.63244e-07
3.66895e-07
3.65886e-07
3.68873e-07
3.93267e-05
-4.08811e-05
5.49536e-07
-5.64022e-07
5.49451e-07
-5.64145e-07
-5.61348e-07
5.49787e-07
-5.62686e-07
-3.93654e-05
4.09126e-05
-3.49523e-07
-3.50266e-07
-3.51964e-07
4.09014e-05
3.9332e-05
-4.0877e-05
3.64305e-07
3.68327e-07
3.6603e-07
3.69032e-07
3.93273e-05
-4.08813e-05
5.50367e-07
-5.65187e-07
5.4951e-07
-5.64163e-07
-5.62118e-07
5.50229e-07
-5.62929e-07
-3.93665e-05
4.09125e-05
-3.50581e-07
-3.50556e-07
-3.52353e-07
4.09012e-05
3.93321e-05
-4.08763e-05
3.64239e-07
3.68409e-07
3.66724e-07
3.69744e-07
3.93269e-05
-4.08809e-05
5.50153e-07
-5.64963e-07
5.50025e-07
-5.64525e-07
-5.62465e-07
5.50093e-07
-5.62863e-07
-3.93664e-05
4.0912e-05
-3.50759e-07
-3.50809e-07
-3.52347e-07
4.09011e-05
3.93329e-05
-4.08767e-05
3.64818e-07
3.69082e-07
3.66549e-07
3.69491e-07
3.93273e-05
-4.08816e-05
5.50694e-07
-5.6549e-07
5.49852e-07
-5.64345e-07
-5.62606e-07
5.50182e-07
-5.62672e-07
-3.9367e-05
4.09125e-05
-3.51085e-07
-3.50604e-07
-3.52163e-07
4.09015e-05
3.93324e-05
-4.08776e-05
3.6431e-07
3.68707e-07
3.65208e-07
3.68127e-07
3.93266e-05
-4.08826e-05
5.50328e-07
-5.65139e-07
5.48976e-07
-5.63196e-07
-5.62321e-07
5.4878e-07
-5.61542e-07
-3.93664e-05
4.09138e-05
-3.50628e-07
-3.49278e-07
-3.50774e-07
4.09027e-05
3.93319e-05
-4.08782e-05
3.63326e-07
3.67437e-07
3.65483e-07
3.6787e-07
3.93256e-05
-4.08827e-05
5.49732e-07
-5.64337e-07
5.49175e-07
-5.63549e-07
-5.61669e-07
5.49339e-07
-5.61881e-07
-3.93652e-05
4.09134e-05
-3.49838e-07
-3.49489e-07
-3.51032e-07
4.09022e-05
3.93321e-05
-4.08803e-05
3.63536e-07
3.67765e-07
3.6393e-07
3.67521e-07
3.93259e-05
-4.08832e-05
5.49815e-07
-5.64722e-07
5.48128e-07
-5.62768e-07
-5.61509e-07
5.48161e-07
-5.60856e-07
-3.93657e-05
4.09141e-05
-3.49646e-07
-3.4812e-07
-3.49678e-07
4.09032e-05
3.93314e-05
-4.08805e-05
3.62767e-07
3.66373e-07
3.63837e-07
3.69691e-07
3.93254e-05
-4.08812e-05
5.4858e-07
-5.63797e-07
5.48201e-07
-5.63998e-07
-5.60537e-07
5.50485e-07
-5.62981e-07
-3.93648e-05
4.09125e-05
-3.48622e-07
-3.49952e-07
-3.54561e-07
4.09e-05
3.93305e-05
-4.08859e-05
3.63753e-07
3.70653e-07
3.65813e-07
3.72968e-07
3.9328e-05
-4.08784e-05
5.48147e-07
-5.65076e-07
5.51076e-07
-5.63804e-07
-5.6359e-07
5.46445e-07
-5.63502e-07
-3.93666e-05
4.09127e-05
-3.56177e-07
-3.5041e-07
-3.56507e-07
4.09003e-05
3.93347e-05
-4.0884e-05
3.74543e-07
3.69166e-07
3.6095e-07
3.8307e-07
3.93259e-05
-4.08699e-05
5.53062e-07
-5.64072e-07
5.48183e-07
-5.63315e-07
-5.61791e-07
5.58721e-07
-5.60777e-07
-3.93663e-05
4.09135e-05
-3.51501e-07
-3.49509e-07
-3.50835e-07
4.09035e-05
3.93379e-05
-4.08795e-05
3.70041e-07
3.83634e-07
3.62968e-07
3.69684e-07
3.93439e-05
-4.08823e-05
5.52e-07
-5.64957e-07
5.51302e-07
-5.64032e-07
-5.60635e-07
5.51705e-07
-5.61123e-07
-3.93661e-05
4.09129e-05
-3.50069e-07
-3.49906e-07
-3.51011e-07
4.09029e-05
3.93397e-05
-4.08801e-05
3.70226e-07
3.70389e-07
3.62411e-07
3.68637e-07
3.93269e-05
-4.08831e-05
5.53217e-07
-5.64835e-07
5.51469e-07
-5.64124e-07
-5.60973e-07
5.50866e-07
-5.62241e-07
-3.93662e-05
4.09131e-05
-3.49288e-07
-3.49925e-07
-3.51646e-07
4.0902e-05
3.93384e-05
-4.08825e-05
3.67759e-07
3.69465e-07
3.60613e-07
3.6804e-07
3.93267e-05
-4.08837e-05
5.52139e-07
-5.65218e-07
5.5027e-07
-5.63904e-07
-5.61809e-07
5.50805e-07
-5.62093e-07
-3.9366e-05
4.09134e-05
-3.498e-07
-3.4976e-07
-3.51693e-07
4.0902e-05
3.93362e-05
-4.08832e-05
3.66042e-07
3.67907e-07
3.59872e-07
3.6688e-07
3.93252e-05
-4.08848e-05
5.51177e-07
-5.64836e-07
5.50005e-07
-5.63419e-07
-5.61469e-07
5.49486e-07
-5.61151e-07
-3.93656e-05
4.0914e-05
-3.49143e-07
-3.48717e-07
-3.50704e-07
4.0903e-05
3.93357e-05
-4.08835e-05
3.65593e-07
3.67058e-07
3.59895e-07
3.66992e-07
3.93245e-05
-4.08846e-05
5.50816e-07
-5.64553e-07
5.49821e-07
-5.63684e-07
-5.60957e-07
5.50331e-07
-5.61783e-07
-3.93652e-05
4.09137e-05
-3.48174e-07
-3.49264e-07
-3.51651e-07
4.09024e-05
3.93354e-05
-4.08833e-05
3.65757e-07
3.67182e-07
3.59706e-07
3.6672e-07
3.93247e-05
-4.08846e-05
5.50724e-07
-5.64838e-07
5.49581e-07
-5.63543e-07
-5.61274e-07
5.49699e-07
-5.61704e-07
-3.93656e-05
4.09137e-05
-3.48442e-07
-3.49024e-07
-3.5134e-07
4.09026e-05
3.93357e-05
-4.08819e-05
3.6585e-07
3.67238e-07
3.61374e-07
3.68098e-07
3.93248e-05
-4.08835e-05
5.50822e-07
-5.64801e-07
5.50927e-07
-5.6435e-07
-5.61149e-07
5.5091e-07
-5.62081e-07
-3.93654e-05
4.09128e-05
-3.48357e-07
-3.5e-07
-3.51789e-07
4.0902e-05
3.9337e-05
-4.08816e-05
3.67597e-07
3.68787e-07
3.61819e-07
3.68596e-07
3.93259e-05
-4.08832e-05
5.52104e-07
-5.65715e-07
5.51101e-07
-5.64672e-07
-5.62099e-07
5.51142e-07
-5.62282e-07
-3.93665e-05
4.09124e-05
-3.50255e-07
-3.50639e-07
-3.52194e-07
4.09019e-05
3.93372e-05
-4.0882e-05
3.6729e-07
3.68577e-07
3.61355e-07
3.68129e-07
3.9326e-05
-4.08835e-05
5.5186e-07
-5.65493e-07
5.50935e-07
-5.64283e-07
-5.61927e-07
5.51265e-07
-5.62119e-07
-3.93666e-05
4.09129e-05
-3.5016e-07
-3.49934e-07
-3.51553e-07
4.09023e-05
3.9337e-05
-4.08819e-05
3.67339e-07
3.68643e-07
3.61401e-07
3.68187e-07
3.93259e-05
-4.0883e-05
5.52038e-07
-5.65499e-07
5.50777e-07
-5.64686e-07
-5.62041e-07
5.5107e-07
-5.62905e-07
-3.93663e-05
4.09122e-05
-3.5074e-07
-3.50597e-07
-3.52625e-07
4.09012e-05
3.93367e-05
-4.08832e-05
3.66982e-07
3.68602e-07
3.60101e-07
3.66997e-07
3.93256e-05
-4.08849e-05
5.51462e-07
-5.65612e-07
5.49822e-07
-5.64014e-07
-5.62218e-07
5.49762e-07
-5.6189e-07
-3.93667e-05
4.09133e-05
-3.51195e-07
-3.49116e-07
-3.51017e-07
4.09024e-05
3.93354e-05
-4.08838e-05
3.65585e-07
3.66523e-07
3.59147e-07
3.65328e-07
3.9324e-05
-4.08867e-05
5.50551e-07
-5.65145e-07
5.49099e-07
-5.64425e-07
-5.61814e-07
5.47641e-07
-5.62827e-07
-3.93657e-05
4.0913e-05
-3.50483e-07
-3.49364e-07
-3.51531e-07
4.09016e-05
3.93345e-05
-4.08852e-05
3.64028e-07
3.63779e-07
3.56739e-07
3.51101e-07
3.93208e-05
-4.09043e-05
5.49458e-07
-5.65311e-07
5.47704e-07
-5.6436e-07
-5.62826e-07
5.3793e-07
-5.6397e-07
-3.93658e-05
4.09132e-05
-3.50986e-07
-3.49182e-07
-3.51877e-07
4.09008e-05
3.93334e-05
-4.08831e-05
3.62716e-07
3.55222e-07
3.59311e-07
3.66738e-07
3.93032e-05
-4.0886e-05
5.48668e-07
-5.65487e-07
5.4928e-07
-5.64516e-07
-5.6357e-07
5.49756e-07
-5.62683e-07
-3.93657e-05
4.09129e-05
-3.51491e-07
-3.48949e-07
-3.52637e-07
4.09018e-05
3.93362e-05
-4.08821e-05
3.65804e-07
3.65166e-07
3.60119e-07
3.69471e-07
3.93228e-05
-4.08852e-05
5.50852e-07
-5.65911e-07
5.50744e-07
-5.65115e-07
-5.62102e-07
5.48886e-07
-5.60696e-07
-3.93663e-05
4.09122e-05
-3.54289e-07
-3.47656e-07
-3.61422e-07
4.09036e-05
3.93369e-05
-4.08813e-05
3.6571e-07
3.70512e-07
3.59939e-07
3.71021e-07
3.93242e-05
-4.08848e-05
5.51932e-07
-5.66391e-07
5.51518e-07
-5.65632e-07
-5.59854e-07
5.48873e-07
-5.59829e-07
-3.9367e-05
4.09117e-05
-3.62385e-07
-3.47243e-07
-3.62796e-07
4.09039e-05
3.93376e-05
-4.08812e-05
3.65667e-07
3.71638e-07
3.59862e-07
3.72161e-07
3.93246e-05
-4.08842e-05
5.52433e-07
-5.66825e-07
5.51803e-07
-5.66144e-07
-5.59535e-07
5.49088e-07
-5.59318e-07
-3.93675e-05
4.09113e-05
-3.63517e-07
-3.47325e-07
-3.63187e-07
4.09042e-05
3.93376e-05
-4.08817e-05
3.65471e-07
3.72419e-07
3.59185e-07
3.71468e-07
3.93248e-05
-4.08853e-05
5.52616e-07
-5.67269e-07
5.51486e-07
-5.65579e-07
-5.58795e-07
5.48041e-07
-5.58429e-07
-3.93678e-05
4.0912e-05
-3.63401e-07
-3.46336e-07
-3.62306e-07
4.09051e-05
3.93373e-05
-4.08818e-05
3.6507e-07
3.717e-07
3.58959e-07
3.7142e-07
3.93237e-05
-4.08854e-05
5.5267e-07
-5.66467e-07
5.51596e-07
-5.65388e-07
-5.58026e-07
5.47977e-07
-5.58173e-07
-3.9367e-05
4.09123e-05
-3.62642e-07
-3.45891e-07
-3.62108e-07
4.09052e-05
3.93369e-05
-4.08832e-05
3.64386e-07
3.71456e-07
3.57252e-07
3.69791e-07
3.93237e-05
-4.08865e-05
5.52115e-07
-5.66183e-07
5.50325e-07
-5.64378e-07
-5.57986e-07
5.46983e-07
-5.57311e-07
-3.93668e-05
4.09134e-05
-3.62581e-07
-3.44386e-07
-3.60686e-07
4.09065e-05
3.93356e-05
-4.08822e-05
3.63029e-07
3.70028e-07
3.58474e-07
3.7114e-07
3.93226e-05
-4.08855e-05
5.51245e-07
-5.65445e-07
5.51036e-07
-5.65195e-07
-5.56737e-07
5.47824e-07
-5.57735e-07
-3.93657e-05
4.09123e-05
-3.60867e-07
-3.45644e-07
-3.61657e-07
4.09059e-05
3.93369e-05
-4.08821e-05
3.64605e-07
3.71618e-07
3.58458e-07
3.71052e-07
3.93237e-05
-4.08858e-05
5.52325e-07
-5.6635e-07
5.51185e-07
-5.65148e-07
-5.57719e-07
5.47602e-07
-5.57953e-07
-3.93669e-05
4.09124e-05
-3.62094e-07
-3.45482e-07
-3.61586e-07
4.09054e-05
3.93367e-05
-4.08816e-05
3.64246e-07
3.7125e-07
3.58931e-07
3.71603e-07
3.93233e-05
-4.08851e-05
5.52123e-07
-5.66162e-07
5.51395e-07
-5.65659e-07
-5.57727e-07
5.48072e-07
-5.58466e-07
-3.93667e-05
4.09118e-05
-3.61876e-07
-3.46243e-07
-3.6252e-07
4.0905e-05
3.93375e-05
-4.08809e-05
3.65219e-07
3.72216e-07
3.59669e-07
3.7244e-07
3.93242e-05
-4.08844e-05
5.52929e-07
-5.67026e-07
5.51704e-07
-5.66247e-07
-5.58352e-07
5.48679e-07
-5.58825e-07
-3.93675e-05
4.09112e-05
-3.63252e-07
-3.47152e-07
-3.63301e-07
4.09045e-05
3.93378e-05
-4.08807e-05
3.65525e-07
3.72742e-07
3.59787e-07
3.7233e-07
3.93247e-05
-4.08846e-05
5.53052e-07
-5.67325e-07
5.51894e-07
-5.65963e-07
-5.58859e-07
5.48291e-07
-5.58624e-07
-3.93678e-05
4.09114e-05
-3.63789e-07
-3.46605e-07
-3.62806e-07
4.09046e-05
3.9338e-05
-4.0881e-05
3.65527e-07
3.72447e-07
3.59634e-07
3.72172e-07
3.93244e-05
-4.08847e-05
5.53149e-07
-5.66774e-07
5.51924e-07
-5.65486e-07
-5.58066e-07
5.4892e-07
-5.5825e-07
-3.93675e-05
4.0912e-05
-3.63077e-07
-3.46578e-07
-3.62893e-07
4.09052e-05
3.93377e-05
-4.08812e-05
3.65301e-07
3.72356e-07
3.58687e-07
3.71457e-07
3.93242e-05
-4.08849e-05
5.53147e-07
-5.66227e-07
5.51678e-07
-5.62627e-07
-5.57489e-07
5.48301e-07
-5.55618e-07
-3.93668e-05
4.09148e-05
-3.62136e-07
-3.42818e-07
-3.59703e-07
4.09077e-05
3.93371e-05
-4.08797e-05
3.64599e-07
3.71977e-07
3.59793e-07
3.72447e-07
3.93238e-05
-4.08838e-05
5.53189e-07
-5.62466e-07
5.53247e-07
-5.57708e-07
-5.54363e-07
5.50307e-07
-5.5106e-07
-3.93623e-05
4.09218e-05
-3.5833e-07
-3.31085e-07
-3.5128e-07
4.09137e-05
3.93382e-05
-4.08807e-05
3.65632e-07
3.72957e-07
3.59156e-07
3.71906e-07
3.93245e-05
-4.08847e-05
5.54594e-07
-5.58181e-07
5.52689e-07
-5.59947e-07
-5.4992e-07
5.49158e-07
-5.51537e-07
-3.93558e-05
4.09176e-05
-3.47936e-07
-3.40377e-07
-3.56229e-07
4.09122e-05
3.93376e-05
-4.08811e-05
3.64587e-07
3.71993e-07
3.58827e-07
3.71687e-07
3.93238e-05
-4.08847e-05
5.53562e-07
-5.62528e-07
5.51684e-07
-5.64506e-07
-5.53231e-07
5.48964e-07
-5.5686e-07
-3.93621e-05
4.09129e-05
-3.56096e-07
-3.4382e-07
-3.61935e-07
4.09064e-05
3.93376e-05
-4.08808e-05
3.64983e-07
3.72179e-07
3.5956e-07
3.71978e-07
3.93243e-05
-4.08849e-05
5.52966e-07
-5.65739e-07
5.51705e-07
-5.65432e-07
-5.56994e-07
5.47968e-07
-5.58176e-07
-3.93661e-05
4.09117e-05
-3.60749e-07
-3.46156e-07
-3.63644e-07
4.09048e-05
3.93378e-05
-4.08811e-05
3.65181e-07
3.72099e-07
3.59619e-07
3.72168e-07
3.93241e-05
-4.08848e-05
5.52828e-07
-5.6658e-07
5.51651e-07
-5.65964e-07
-5.58134e-07
5.48337e-07
-5.5888e-07
-3.93673e-05
4.09114e-05
-3.62227e-07
-3.46696e-07
-3.63457e-07
4.09042e-05
3.93378e-05
-4.08807e-05
3.65554e-07
3.72709e-07
3.59918e-07
3.72794e-07
3.93244e-05
-4.08842e-05
5.5307e-07
-5.67433e-07
5.51819e-07
-5.6662e-07
-5.58368e-07
5.48927e-07
-5.5867e-07
-3.93678e-05
4.09107e-05
-3.63618e-07
-3.4735e-07
-3.63468e-07
4.09044e-05
3.93379e-05
-4.08817e-05
3.65519e-07
3.72988e-07
3.58881e-07
3.71394e-07
3.93249e-05
-4.08855e-05
5.52952e-07
-5.67357e-07
5.51132e-07
-5.65139e-07
-5.58521e-07
5.48123e-07
-5.5836e-07
-3.93681e-05
4.09125e-05
-3.64056e-07
-3.45774e-07
-3.62992e-07
4.09051e-05
3.93369e-05
-4.08819e-05
3.6462e-07
3.71351e-07
3.5843e-07
3.70849e-07
3.93232e-05
-4.08858e-05
5.52426e-07
-5.66065e-07
5.50971e-07
-5.6498e-07
-5.57698e-07
5.47524e-07
-5.57748e-07
-3.93663e-05
4.09125e-05
-3.62651e-07
-3.45236e-07
-3.62229e-07
4.09057e-05
3.93369e-05
-4.08827e-05
3.6449e-07
3.71375e-07
3.58039e-07
3.70791e-07
3.93233e-05
-4.08858e-05
5.52342e-07
-5.66116e-07
5.50489e-07
-5.64954e-07
-5.57489e-07
5.47466e-07
-5.57237e-07
-3.93666e-05
4.09126e-05
-3.62673e-07
-3.44953e-07
-3.61512e-07
4.09059e-05
3.93361e-05
-4.08823e-05
3.63573e-07
3.70876e-07
3.58133e-07
3.70592e-07
3.93232e-05
-4.0886e-05
5.51703e-07
-5.65742e-07
5.50551e-07
-5.64822e-07
-5.56896e-07
5.47335e-07
-5.57609e-07
-3.93662e-05
4.09127e-05
-3.61726e-07
-3.4525e-07
-3.62104e-07
4.09058e-05
3.93365e-05
-4.08818e-05
3.64101e-07
3.70947e-07
3.58544e-07
3.71067e-07
3.93231e-05
-4.08854e-05
5.51938e-07
-5.66e-07
5.50992e-07
-5.65132e-07
-5.57442e-07
5.47501e-07
-5.57876e-07
-3.93664e-05
4.09122e-05
-3.62546e-07
-3.45366e-07
-3.62323e-07
4.09053e-05
3.93371e-05
-4.08812e-05
3.64599e-07
3.71675e-07
3.59416e-07
3.7211e-07
3.93237e-05
-4.08847e-05
5.5253e-07
-5.66276e-07
5.51593e-07
-5.65909e-07
-5.57734e-07
5.48623e-07
-5.58648e-07
-3.93667e-05
4.09115e-05
-3.62699e-07
-3.46467e-07
-3.63476e-07
4.09044e-05
3.93377e-05
-4.0881e-05
3.65562e-07
3.72545e-07
3.59651e-07
3.72263e-07
3.93243e-05
-4.08846e-05
5.53091e-07
-5.6711e-07
5.51597e-07
-5.66066e-07
-5.58564e-07
5.48476e-07
-5.58622e-07
-3.93675e-05
4.09112e-05
-3.63961e-07
-3.46876e-07
-3.6365e-07
4.09045e-05
3.93376e-05
-4.08809e-05
3.65417e-07
3.72424e-07
3.59579e-07
3.72315e-07
3.93243e-05
-4.08844e-05
5.52785e-07
-5.67018e-07
5.51566e-07
-5.66108e-07
-5.58334e-07
5.48542e-07
-5.58759e-07
-3.93676e-05
4.09111e-05
-3.639e-07
-3.46803e-07
-3.63728e-07
4.09042e-05
3.93376e-05
-4.08815e-05
3.65302e-07
3.72602e-07
3.59088e-07
3.71595e-07
3.93245e-05
-4.08853e-05
5.52815e-07
-5.67328e-07
5.51287e-07
-5.6531e-07
-5.58721e-07
5.47747e-07
-5.58369e-07
-3.93677e-05
4.09121e-05
-3.64174e-07
-3.46135e-07
-3.63093e-07
4.0905e-05
3.9337e-05
-4.08823e-05
3.64638e-07
3.71612e-07
3.58287e-07
3.70714e-07
3.93236e-05
-4.08857e-05
5.52242e-07
-5.66681e-07
5.50596e-07
-5.64403e-07
-5.5758e-07
5.47736e-07
-5.57779e-07
-3.93667e-05
4.09123e-05
-3.62896e-07
-3.45485e-07
-3.62254e-07
4.09055e-05
3.93363e-05
-4.08823e-05
3.64053e-07
3.70975e-07
3.58239e-07
3.70558e-07
3.93231e-05
-4.08858e-05
5.51879e-07
-5.66736e-07
5.50667e-07
-5.6338e-07
-5.5757e-07
5.47466e-07
-5.57446e-07
-3.93663e-05
4.09121e-05
-3.62543e-07
-3.45368e-07
-3.61904e-07
4.09058e-05
3.93363e-05
-4.08825e-05
3.63933e-07
3.70677e-07
3.57908e-07
3.70414e-07
3.9323e-05
-4.08859e-05
5.51853e-07
-5.67997e-07
5.50419e-07
-5.62412e-07
-5.57427e-07
5.47278e-07
-5.57541e-07
-3.93656e-05
4.09108e-05
-3.62403e-07
-3.45186e-07
-3.62042e-07
4.09057e-05
3.93361e-05
-4.08816e-05
3.63901e-07
3.71156e-07
3.58676e-07
3.71114e-07
3.9323e-05
-4.08854e-05
5.51632e-07
-5.68326e-07
5.5097e-07
-5.63257e-07
-5.57267e-07
5.47701e-07
-5.58007e-07
-3.93653e-05
4.09104e-05
-3.62281e-07
-3.458e-07
-3.62568e-07
4.09049e-05
3.9337e-05
-4.08809e-05
3.64752e-07
3.7155e-07
3.5988e-07
3.7265e-07
3.93236e-05
-4.08845e-05
5.52441e-07
-5.68713e-07
5.52036e-07
-5.65069e-07
-5.57899e-07
5.48758e-07
-5.59185e-07
-3.93658e-05
4.09092e-05
-3.63075e-07
-3.47325e-07
-3.64001e-07
4.09042e-05
3.93375e-05
-4.08766e-05
3.64529e-07
3.71541e-07
3.64524e-07
3.7711e-07
3.93241e-05
-4.08801e-05
5.51935e-07
-5.67863e-07
5.55609e-07
-5.69468e-07
-5.57427e-07
5.51915e-07
-5.62861e-07
-3.93663e-05
4.09041e-05
-3.63042e-07
-3.51845e-07
-3.68931e-07
4.09e-05
3.93299e-05
-4.08135e-05
3.60541e-07
3.67239e-07
3.1735e-07
3.30344e-07
3.93162e-05
-4.08167e-05
5.48524e-07
-5.62941e-07
5.16549e-07
-5.3092e-07
-5.5376e-07
5.13279e-07
-5.24361e-07
-3.93578e-05
4.08421e-05
-3.58662e-07
-3.05599e-07
-3.20464e-07
4.08372e-05
3.91841e-05
-3.98728e-05
4.79926e-07
4.83724e-07
-2.02111e-07
-1.88532e-07
3.91711e-05
-3.9875e-05
6.20173e-07
-6.34591e-07
1.8994e-07
-2.02884e-07
-6.25004e-07
1.87427e-07
-1.98902e-07
-3.92114e-05
3.99049e-05
-4.73578e-07
2.15565e-07
2.0945e-07
3.98971e-05
3.78745e-05
-3.95923e-05
1.20229e-06
1.20729e-06
-1.5144e-06
-1.50879e-06
3.78586e-05
-3.9594e-05
1.05071e-06
-1.06099e-06
-9.16983e-07
9.12386e-07
-1.05088e-06
-9.187e-07
9.10694e-07
-3.78973e-05
3.96278e-05
-1.19519e-06
1.53294e-06
1.52224e-06
3.96203e-05
3.70856e-05
-3.40313e-05
2.85106e-06
2.86171e-06
-6.51434e-06
-6.50986e-06
3.70779e-05
-3.40382e-05
2.42484e-06
-2.42937e-06
-4.75565e-06
4.76636e-06
-2.41532e-06
-4.7375e-06
4.76775e-06
-3.70936e-05
3.4062e-05