/*--------------------------------*- C++ -*----------------------------------*\
| =========                 |                                                 |
| \\      /  F ield         | OpenFOAM: The Open Source CFD Toolbox           |
|  \\    /   O peration     | Version:  2206                                  |
|   \\  /    A nd           | Website:  www.openfoam.com                      |
|    \\/     M anipulation  |                                                 |
\*---------------------------------------------------------------------------*/
FoamFile
{
    version     2.0;
    format      ascii;
    arch        "LSB;label=32;scalar=64";
    class       volScalarField;
    location    "19.5";
    object      k;
}
// * * * * * * * * * * * * * * * * * * * * * * * * * * * * * * * * * * * * * //

dimensions      [0 2 -2 0 0 0 0];

internalField   nonuniform List<scalar> 
28687
(
2.91639e-05
2.8891e-05
2.8891e-05
2.8538e-05
2.91638e-05
2.88911e-05
2.88909e-05
2.85391e-05
2.91637e-05
2.88911e-05
2.88907e-05
2.85393e-05
2.91636e-05
2.8891e-05
2.88907e-05
2.85394e-05
2.91613e-05
2.88868e-05
2.88881e-05
2.85362e-05
2.91553e-05
2.88815e-05
2.88815e-05
2.8529e-05
2.9155e-05
2.88814e-05
2.88813e-05
2.85289e-05
2.9155e-05
2.88814e-05
2.88814e-05
2.85289e-05
2.9155e-05
2.88814e-05
2.88814e-05
2.85289e-05
2.9155e-05
2.88814e-05
2.88814e-05
2.85289e-05
2.9155e-05
2.88814e-05
2.88814e-05
2.85289e-05
2.9155e-05
2.88814e-05
2.88814e-05
2.85289e-05
2.9155e-05
2.88814e-05
2.88814e-05
2.85289e-05
2.9155e-05
2.88814e-05
2.88814e-05
2.85289e-05
2.9155e-05
2.88814e-05
2.88814e-05
2.85289e-05
2.9155e-05
2.88814e-05
2.88814e-05
2.85289e-05
2.9155e-05
2.88814e-05
2.88814e-05
2.85289e-05
2.9155e-05
2.88814e-05
2.88814e-05
2.85289e-05
2.88908e-05
2.85417e-05
2.8891e-05
2.85379e-05
2.85417e-05
2.88908e-05
2.88908e-05
2.88908e-05
2.88908e-05
2.85395e-05
2.85418e-05
2.8891e-05
2.88906e-05
2.88909e-05
2.88906e-05
2.88908e-05
2.88912e-05
2.88908e-05
2.85377e-05
2.85415e-05
2.8891e-05
2.88909e-05
2.8891e-05
2.85417e-05
2.85395e-05
2.85418e-05
2.88908e-05
2.88909e-05
2.88907e-05
2.88909e-05
2.85395e-05
2.85419e-05
2.88909e-05
2.88907e-05
2.88909e-05
2.88905e-05
2.88908e-05
2.88911e-05
2.88907e-05
2.85392e-05
2.85416e-05
2.8891e-05
2.88907e-05
2.88909e-05
2.85417e-05
2.85396e-05
2.85419e-05
2.88908e-05
2.88911e-05
2.88908e-05
2.8891e-05
2.85397e-05
2.8542e-05
2.8891e-05
2.88906e-05
2.88908e-05
2.88905e-05
2.88908e-05
2.8891e-05
2.88908e-05
2.85393e-05
2.85417e-05
2.8891e-05
2.88907e-05
2.8891e-05
2.8542e-05
2.85396e-05
2.85401e-05
2.88907e-05
2.88909e-05
2.88897e-05
2.88888e-05
2.85397e-05
2.85387e-05
2.88908e-05
2.88904e-05
2.88899e-05
2.88896e-05
2.88907e-05
2.88893e-05
2.88897e-05
2.85394e-05
2.85399e-05
2.88909e-05
2.88898e-05
2.88898e-05
2.85401e-05
2.85367e-05
2.8532e-05
2.8888e-05
2.88863e-05
2.8882e-05
2.88816e-05
2.85347e-05
2.85315e-05
2.88882e-05
2.88879e-05
2.88822e-05
2.88818e-05
2.8888e-05
2.88818e-05
2.8882e-05
2.85365e-05
2.85317e-05
2.88882e-05
2.88821e-05
2.88822e-05
2.8532e-05
2.85293e-05
2.85315e-05
2.88815e-05
2.88814e-05
2.88812e-05
2.88812e-05
2.85291e-05
2.85314e-05
2.88817e-05
2.88813e-05
2.88814e-05
2.8881e-05
2.88815e-05
2.88814e-05
2.88812e-05
2.85291e-05
2.85312e-05
2.88817e-05
2.88813e-05
2.88814e-05
2.85315e-05
2.85292e-05
2.85314e-05
2.88813e-05
2.88813e-05
2.88812e-05
2.88812e-05
2.85291e-05
2.85314e-05
2.88815e-05
2.88812e-05
2.88814e-05
2.88811e-05
2.88814e-05
2.88815e-05
2.88813e-05
2.8529e-05
2.85311e-05
2.88816e-05
2.88814e-05
2.88815e-05
2.85314e-05
2.85291e-05
2.85314e-05
2.88813e-05
2.88814e-05
2.88812e-05
2.88812e-05
2.85291e-05
2.85313e-05
2.88815e-05
2.88812e-05
2.88814e-05
2.88811e-05
2.88814e-05
2.88815e-05
2.88813e-05
2.85289e-05
2.85312e-05
2.88816e-05
2.88814e-05
2.88815e-05
2.85314e-05
2.85291e-05
2.85314e-05
2.88813e-05
2.88813e-05
2.88812e-05
2.88812e-05
2.85291e-05
2.85314e-05
2.88815e-05
2.88812e-05
2.88814e-05
2.88811e-05
2.88814e-05
2.88815e-05
2.88813e-05
2.85289e-05
2.85312e-05
2.88816e-05
2.88814e-05
2.88815e-05
2.85314e-05
2.85291e-05
2.85314e-05
2.88813e-05
2.88813e-05
2.88812e-05
2.88812e-05
2.85291e-05
2.85314e-05
2.88815e-05
2.88812e-05
2.88814e-05
2.88811e-05
2.88814e-05
2.88815e-05
2.88813e-05
2.85289e-05
2.85312e-05
2.88816e-05
2.88814e-05
2.88815e-05
2.85314e-05
2.85291e-05
2.85314e-05
2.88814e-05
2.88813e-05
2.88812e-05
2.88812e-05
2.85291e-05
2.85314e-05
2.88815e-05
2.88812e-05
2.88814e-05
2.88811e-05
2.88814e-05
2.88815e-05
2.88813e-05
2.85289e-05
2.85312e-05
2.88816e-05
2.88814e-05
2.88815e-05
2.85314e-05
2.85291e-05
2.85314e-05
2.88813e-05
2.88813e-05
2.88812e-05
2.88812e-05
2.85291e-05
2.85314e-05
2.88815e-05
2.88812e-05
2.88814e-05
2.88811e-05
2.88814e-05
2.88815e-05
2.88813e-05
2.85289e-05
2.85312e-05
2.88816e-05
2.88814e-05
2.88814e-05
2.85314e-05
2.85291e-05
2.85314e-05
2.88813e-05
2.88813e-05
2.88812e-05
2.88812e-05
2.85291e-05
2.85314e-05
2.88815e-05
2.88812e-05
2.88814e-05
2.88811e-05
2.88814e-05
2.88815e-05
2.88813e-05
2.85289e-05
2.85312e-05
2.88815e-05
2.88814e-05
2.88814e-05
2.85314e-05
2.85291e-05
2.85314e-05
2.88813e-05
2.88813e-05
2.88812e-05
2.88812e-05
2.85291e-05
2.85314e-05
2.88815e-05
2.88812e-05
2.88814e-05
2.88811e-05
2.88814e-05
2.88815e-05
2.88813e-05
2.85289e-05
2.85312e-05
2.88815e-05
2.88814e-05
2.88814e-05
2.85314e-05
2.85291e-05
2.85314e-05
2.88813e-05
2.88813e-05
2.88812e-05
2.88812e-05
2.85291e-05
2.85314e-05
2.88815e-05
2.88812e-05
2.88814e-05
2.88811e-05
2.88814e-05
2.88815e-05
2.88813e-05
2.85289e-05
2.85312e-05
2.88815e-05
2.88814e-05
2.88814e-05
2.85314e-05
2.85291e-05
2.85314e-05
2.88813e-05
2.88813e-05
2.88812e-05
2.88812e-05
2.85291e-05
2.85314e-05
2.88815e-05
2.88812e-05
2.88814e-05
2.88811e-05
2.88814e-05
2.88815e-05
2.88813e-05
2.85289e-05
2.85312e-05
2.88816e-05
2.88814e-05
2.88814e-05
2.85314e-05
2.85291e-05
2.85314e-05
2.88813e-05
2.88813e-05
2.88812e-05
2.88812e-05
2.85291e-05
2.85314e-05
2.88815e-05
2.88812e-05
2.88814e-05
2.88811e-05
2.88814e-05
2.88815e-05
2.88813e-05
2.85289e-05
2.85312e-05
2.88815e-05
2.88814e-05
2.88814e-05
2.85314e-05
2.85291e-05
2.88813e-05
2.88813e-05
2.85291e-05
2.88815e-05
2.88811e-05
2.88813e-05
2.85289e-05
2.88815e-05
3.02135e-05
6.79337e-05
3.02143e-05
6.79292e-05
8.36915e-05
8.36855e-05
3.0214e-05
6.79358e-05
3.0215e-05
6.79309e-05
2.91642e-05
2.91639e-05
2.91639e-05
2.91638e-05
2.91641e-05
2.91639e-05
2.91639e-05
2.78134e-05
2.98413e-05
2.90644e-05
2.88912e-05
2.78135e-05
2.98394e-05
2.90644e-05
8.36918e-05
8.36848e-05
2.78136e-05
2.90642e-05
2.98406e-05
2.8891e-05
2.78137e-05
2.90642e-05
2.98386e-05
3.31801e-05
3.31807e-05
2.85417e-05
3.31806e-05
3.31812e-05
3.02149e-05
6.79297e-05
3.02159e-05
6.7927e-05
8.36818e-05
8.36793e-05
3.02154e-05
6.79316e-05
3.0216e-05
6.79287e-05
2.91641e-05
2.91638e-05
2.91639e-05
2.91637e-05
2.91639e-05
2.91637e-05
2.91637e-05
2.78138e-05
2.98431e-05
2.90643e-05
2.88912e-05
2.78135e-05
2.98405e-05
2.90643e-05
8.36805e-05
8.36767e-05
2.78139e-05
2.90641e-05
2.98423e-05
2.88908e-05
2.78136e-05
2.90641e-05
2.984e-05
3.3186e-05
3.31866e-05
2.85417e-05
3.31868e-05
3.31875e-05
3.0217e-05
6.79285e-05
3.0218e-05
6.79261e-05
8.36792e-05
8.36785e-05
3.02177e-05
6.79303e-05
3.02184e-05
6.79278e-05
2.91639e-05
2.91637e-05
2.91637e-05
2.91636e-05
2.91638e-05
2.91636e-05
2.91636e-05
2.78143e-05
2.98438e-05
2.90641e-05
2.88912e-05
2.78141e-05
2.98415e-05
2.90643e-05
8.36763e-05
8.36748e-05
2.78145e-05
2.9064e-05
2.9843e-05
2.88909e-05
2.78142e-05
2.9064e-05
2.98409e-05
3.3191e-05
3.31917e-05
2.85419e-05
3.31909e-05
3.31916e-05
3.02169e-05
6.7928e-05
3.02191e-05
6.79272e-05
8.36811e-05
8.36829e-05
3.02176e-05
6.793e-05
3.02195e-05
6.7929e-05
2.91638e-05
2.91635e-05
2.91636e-05
2.91628e-05
2.91626e-05
2.91628e-05
2.91628e-05
2.78139e-05
2.98448e-05
2.90641e-05
2.88908e-05
2.78144e-05
2.98418e-05
2.9064e-05
8.36771e-05
8.3678e-05
2.7814e-05
2.90639e-05
2.98441e-05
2.88906e-05
2.78145e-05
2.90639e-05
2.98415e-05
3.31933e-05
3.3194e-05
2.85417e-05
3.31915e-05
3.31921e-05
3.02118e-05
6.79378e-05
3.02166e-05
6.7941e-05
8.36866e-05
8.36857e-05
3.02122e-05
6.79394e-05
3.02171e-05
6.79425e-05
2.91607e-05
2.91614e-05
2.91614e-05
2.9156e-05
2.91558e-05
2.9156e-05
2.9156e-05
2.78059e-05
2.98419e-05
2.90611e-05
2.88846e-05
2.78117e-05
2.98352e-05
2.90589e-05
8.36833e-05
8.36824e-05
2.78061e-05
2.90614e-05
2.98423e-05
2.88857e-05
2.78119e-05
2.90592e-05
2.98365e-05
3.31913e-05
3.31919e-05
2.85357e-05
3.31869e-05
3.31876e-05
3.02057e-05
6.79438e-05
3.02083e-05
6.79415e-05
8.3686e-05
8.36833e-05
3.02065e-05
6.79457e-05
3.02089e-05
6.79433e-05
2.91554e-05
2.91554e-05
2.91554e-05
2.9155e-05
2.91551e-05
2.91551e-05
2.91551e-05
2.78019e-05
2.9834e-05
2.90552e-05
2.88815e-05
2.7802e-05
2.98304e-05
2.90552e-05
8.3683e-05
8.36814e-05
2.78023e-05
2.90553e-05
2.98345e-05
2.88815e-05
2.78021e-05
2.90552e-05
2.98309e-05
3.31815e-05
3.31821e-05
2.85314e-05
3.31793e-05
3.31799e-05
3.02053e-05
6.79432e-05
3.0207e-05
6.79413e-05
8.3684e-05
8.36838e-05
3.02061e-05
6.79454e-05
3.02076e-05
6.79431e-05
2.91553e-05
2.91552e-05
2.91553e-05
2.9155e-05
2.91551e-05
2.91551e-05
2.91551e-05
2.78019e-05
2.9833e-05
2.90551e-05
2.88815e-05
2.78017e-05
2.98302e-05
2.90552e-05
8.36827e-05
8.36814e-05
2.78022e-05
2.9055e-05
2.9833e-05
2.88815e-05
2.78021e-05
2.90551e-05
2.98304e-05
3.31803e-05
3.31809e-05
2.85314e-05
3.3179e-05
3.31796e-05
3.02053e-05
6.79432e-05
3.02069e-05
6.79412e-05
8.36855e-05
8.36849e-05
3.02061e-05
6.79453e-05
3.02076e-05
6.79431e-05
2.91552e-05
2.91552e-05
2.91552e-05
2.9155e-05
2.91551e-05
2.91551e-05
2.91551e-05
2.78019e-05
2.9833e-05
2.90551e-05
2.88815e-05
2.78017e-05
2.98302e-05
2.90552e-05
8.36827e-05
8.36814e-05
2.78022e-05
2.9055e-05
2.9833e-05
2.88815e-05
2.7802e-05
2.90551e-05
2.98304e-05
3.31804e-05
3.3181e-05
2.85315e-05
3.3179e-05
3.31796e-05
3.02052e-05
6.79433e-05
3.02069e-05
6.7941e-05
8.36855e-05
8.36841e-05
3.02061e-05
6.79454e-05
3.02076e-05
6.79438e-05
2.91552e-05
2.91552e-05
2.91552e-05
2.9155e-05
2.91551e-05
2.91551e-05
2.91551e-05
2.78019e-05
2.9833e-05
2.90551e-05
2.88815e-05
2.78018e-05
2.98301e-05
2.90552e-05
8.36827e-05
8.36814e-05
2.78022e-05
2.9055e-05
2.9833e-05
2.88815e-05
2.7802e-05
2.90551e-05
2.98304e-05
3.31804e-05
3.3181e-05
2.85315e-05
3.3179e-05
3.31796e-05
3.02052e-05
6.79426e-05
3.02069e-05
6.79401e-05
8.36852e-05
8.36843e-05
3.02061e-05
6.79462e-05
3.02076e-05
6.79445e-05
2.91552e-05
2.91552e-05
2.91552e-05
2.9155e-05
2.91551e-05
2.91551e-05
2.91551e-05
2.78019e-05
2.9833e-05
2.90551e-05
2.88815e-05
2.78017e-05
2.98302e-05
2.90552e-05
8.36827e-05
8.36814e-05
2.78022e-05
2.9055e-05
2.9833e-05
2.88815e-05
2.7802e-05
2.90551e-05
2.98304e-05
3.31804e-05
3.3181e-05
2.85315e-05
3.3179e-05
3.31796e-05
3.02053e-05
6.79419e-05
3.02069e-05
6.79396e-05
8.36854e-05
8.36845e-05
3.02062e-05
6.79468e-05
3.02076e-05
6.79449e-05
2.91552e-05
2.91552e-05
2.91552e-05
2.9155e-05
2.91551e-05
2.91551e-05
2.91551e-05
2.78019e-05
2.9833e-05
2.90551e-05
2.88815e-05
2.78017e-05
2.98302e-05
2.90552e-05
8.36827e-05
8.36814e-05
2.78022e-05
2.9055e-05
2.9833e-05
2.88815e-05
2.7802e-05
2.90551e-05
2.98304e-05
3.31804e-05
3.3181e-05
2.85315e-05
3.3179e-05
3.31796e-05
3.02053e-05
6.79416e-05
3.02069e-05
6.79393e-05
8.36855e-05
8.36846e-05
3.02062e-05
6.79471e-05
3.02076e-05
6.79451e-05
2.91552e-05
2.91552e-05
2.91552e-05
2.9155e-05
2.91551e-05
2.91551e-05
2.91551e-05
2.78019e-05
2.9833e-05
2.90551e-05
2.88815e-05
2.78018e-05
2.98302e-05
2.90552e-05
8.36827e-05
8.36814e-05
2.78022e-05
2.9055e-05
2.9833e-05
2.88815e-05
2.7802e-05
2.90551e-05
2.98304e-05
3.31804e-05
3.3181e-05
2.85315e-05
3.3179e-05
3.31796e-05
3.02053e-05
6.79414e-05
3.02069e-05
6.79392e-05
8.36856e-05
8.36847e-05
3.02062e-05
6.79472e-05
3.02076e-05
6.79451e-05
2.91552e-05
2.91552e-05
2.91552e-05
2.9155e-05
2.91551e-05
2.91551e-05
2.91551e-05
2.78019e-05
2.9833e-05
2.90551e-05
2.88815e-05
2.78017e-05
2.98302e-05
2.90552e-05
8.36827e-05
8.36814e-05
2.78022e-05
2.9055e-05
2.9833e-05
2.88815e-05
2.7802e-05
2.90551e-05
2.98304e-05
3.31804e-05
3.3181e-05
2.85315e-05
3.3179e-05
3.31796e-05
3.02053e-05
6.79413e-05
3.02069e-05
6.79392e-05
8.36856e-05
8.36847e-05
3.02062e-05
6.79472e-05
3.02076e-05
6.79452e-05
2.91552e-05
2.91552e-05
2.91552e-05
2.9155e-05
2.91551e-05
2.91551e-05
2.91551e-05
2.78019e-05
2.9833e-05
2.90551e-05
2.88815e-05
2.78018e-05
2.98302e-05
2.90552e-05
8.36827e-05
8.36814e-05
2.78021e-05
2.9055e-05
2.9833e-05
2.88815e-05
2.7802e-05
2.90551e-05
2.98304e-05
3.31804e-05
3.3181e-05
2.85315e-05
3.3179e-05
3.31796e-05
3.02053e-05
6.79413e-05
3.02069e-05
6.79391e-05
8.36856e-05
8.36847e-05
3.02062e-05
6.79473e-05
3.02076e-05
6.79452e-05
2.91552e-05
2.91552e-05
2.91552e-05
2.9155e-05
2.91551e-05
2.91551e-05
2.91551e-05
2.78019e-05
2.9833e-05
2.90551e-05
2.88815e-05
2.78017e-05
2.98302e-05
2.90552e-05
8.36827e-05
8.36814e-05
2.78022e-05
2.9055e-05
2.9833e-05
2.88815e-05
2.7802e-05
2.90551e-05
2.98304e-05
3.31804e-05
3.3181e-05
2.85315e-05
3.3179e-05
3.31796e-05
3.02053e-05
6.79413e-05
3.02069e-05
6.79392e-05
8.36856e-05
8.36847e-05
3.02061e-05
6.79473e-05
3.02076e-05
6.79452e-05
2.91552e-05
2.91552e-05
2.91552e-05
2.9155e-05
2.91551e-05
2.91551e-05
2.91551e-05
2.78019e-05
2.9833e-05
2.90551e-05
2.88815e-05
2.78017e-05
2.98302e-05
2.90552e-05
8.36827e-05
8.36813e-05
2.78022e-05
2.9055e-05
2.9833e-05
2.88815e-05
2.7802e-05
2.90551e-05
2.98304e-05
3.31804e-05
3.3181e-05
2.85315e-05
3.3179e-05
3.31796e-05
3.02053e-05
6.79413e-05
3.02069e-05
6.79392e-05
8.36856e-05
8.36847e-05
3.02061e-05
6.79473e-05
3.02076e-05
6.79452e-05
2.91552e-05
2.91552e-05
2.91552e-05
2.9155e-05
2.91551e-05
2.91551e-05
2.91551e-05
2.78019e-05
2.9833e-05
2.90551e-05
2.88815e-05
2.78017e-05
2.98302e-05
2.90552e-05
8.36827e-05
8.36814e-05
2.78021e-05
2.9055e-05
2.9833e-05
2.88815e-05
2.7802e-05
2.90551e-05
2.98304e-05
3.31804e-05
3.3181e-05
2.85315e-05
3.3179e-05
3.31796e-05
3.02054e-05
6.79413e-05
3.02069e-05
6.79399e-05
8.36856e-05
8.36847e-05
3.02063e-05
6.79473e-05
3.02076e-05
6.7946e-05
2.91552e-05
2.91551e-05
2.91552e-05
2.78019e-05
2.9833e-05
2.90551e-05
2.88815e-05
2.78017e-05
2.98302e-05
2.90552e-05
8.36827e-05
8.36815e-05
2.78024e-05
2.9055e-05
2.9833e-05
2.88815e-05
2.7802e-05
2.90552e-05
2.98306e-05
3.31804e-05
3.3181e-05
2.85317e-05
3.3179e-05
3.31794e-05
6.79321e-05
2.98392e-05
8.36921e-05
3.31803e-05
3.31758e-05
8.36879e-05
2.98382e-05
6.79293e-05
8.36946e-05
8.3688e-05
8.36949e-05
8.36884e-05
3.31802e-05
3.31808e-05
2.85417e-05
3.31807e-05
3.31812e-05
8.3683e-05
8.36878e-05
8.36833e-05
8.36882e-05
2.85394e-05
3.3184e-05
3.31845e-05
3.31828e-05
3.31833e-05
3.02137e-05
6.79334e-05
3.02146e-05
6.79308e-05
2.78133e-05
2.98406e-05
2.90642e-05
2.88908e-05
2.78134e-05
2.98386e-05
2.90642e-05
2.78135e-05
2.98425e-05
2.90644e-05
2.88908e-05
2.78136e-05
2.98404e-05
2.90644e-05
3.02157e-05
6.79279e-05
6.79303e-05
3.02141e-05
3.02159e-05
6.79296e-05
6.7932e-05
3.02144e-05
2.78138e-05
2.88908e-05
2.98395e-05
2.90642e-05
2.98418e-05
2.90642e-05
2.78137e-05
2.7814e-05
2.88908e-05
2.98411e-05
2.90643e-05
2.98436e-05
2.90643e-05
2.78138e-05
3.31823e-05
3.31786e-05
2.85417e-05
3.31831e-05
3.31793e-05
8.36883e-05
8.36817e-05
8.36816e-05
8.36857e-05
2.85395e-05
3.31865e-05
3.31824e-05
3.31854e-05
3.31818e-05
8.36777e-05
8.36823e-05
2.78137e-05
2.98418e-05
2.90643e-05
2.8891e-05
2.78138e-05
2.98396e-05
2.90642e-05
3.02135e-05
6.79345e-05
3.02145e-05
6.79296e-05
2.78135e-05
2.90642e-05
2.98407e-05
2.88906e-05
2.78136e-05
2.90642e-05
2.98384e-05
3.02158e-05
6.79296e-05
6.79323e-05
3.02144e-05
2.78141e-05
2.8891e-05
2.98405e-05
2.90642e-05
2.9843e-05
2.90642e-05
2.7814e-05
3.02154e-05
6.79283e-05
6.79309e-05
3.02139e-05
2.78139e-05
2.88906e-05
2.90641e-05
2.98394e-05
2.90641e-05
2.98419e-05
2.78138e-05
3.02136e-05
6.79308e-05
3.02145e-05
6.7928e-05
2.78133e-05
2.90642e-05
2.98406e-05
2.88908e-05
2.78134e-05
2.90642e-05
2.98386e-05
3.02134e-05
6.79357e-05
3.02143e-05
6.79311e-05
2.78139e-05
2.88912e-05
2.98402e-05
2.90643e-05
2.98427e-05
2.90643e-05
2.78135e-05
3.02158e-05
6.79269e-05
6.79294e-05
3.02143e-05
2.78138e-05
2.88908e-05
2.90642e-05
2.98395e-05
2.90642e-05
2.98418e-05
2.78136e-05
3.02156e-05
6.79298e-05
6.79322e-05
3.02139e-05
3.31774e-05
3.31799e-05
2.85415e-05
3.31775e-05
3.31805e-05
8.36949e-05
8.36883e-05
8.36798e-05
8.36853e-05
2.85392e-05
3.31812e-05
3.31837e-05
3.31799e-05
3.31825e-05
8.36833e-05
8.36881e-05
2.78137e-05
2.90642e-05
2.98413e-05
2.8891e-05
2.78138e-05
2.90642e-05
2.98392e-05
3.02136e-05
6.79361e-05
3.02146e-05
6.79315e-05
3.02138e-05
6.79376e-05
3.02148e-05
6.7933e-05
2.78141e-05
2.88909e-05
2.90641e-05
2.98395e-05
2.90642e-05
2.98418e-05
2.78137e-05
2.78142e-05
2.8891e-05
2.90642e-05
2.98402e-05
2.90642e-05
2.98425e-05
2.7814e-05
3.02155e-05
6.79302e-05
6.79327e-05
3.0214e-05
3.02156e-05
6.79317e-05
6.79342e-05
3.02142e-05
8.3695e-05
8.36884e-05
8.3695e-05
8.36884e-05
2.85395e-05
3.31838e-05
3.31845e-05
3.31827e-05
3.31833e-05
8.36834e-05
8.36882e-05
8.36834e-05
8.36882e-05
8.36835e-05
8.368e-05
8.36836e-05
8.36803e-05
3.31861e-05
3.31866e-05
2.85417e-05
3.3187e-05
3.31875e-05
8.36784e-05
8.36808e-05
8.36788e-05
8.3681e-05
2.85395e-05
3.31894e-05
3.31899e-05
3.3189e-05
3.31895e-05
3.02152e-05
6.79309e-05
3.02165e-05
6.79288e-05
2.78141e-05
2.98426e-05
2.90643e-05
2.88908e-05
2.78142e-05
2.984e-05
2.90643e-05
2.78143e-05
2.98442e-05
2.90643e-05
2.88909e-05
2.78144e-05
2.98414e-05
2.90643e-05
3.02172e-05
6.79265e-05
6.79284e-05
3.0216e-05
3.02174e-05
6.79283e-05
6.79302e-05
3.02163e-05
2.78146e-05
2.88907e-05
2.98404e-05
2.90642e-05
2.98431e-05
2.90643e-05
2.78145e-05
2.78148e-05
2.88909e-05
2.98418e-05
2.90642e-05
2.98445e-05
2.90642e-05
2.78147e-05
3.31887e-05
3.31848e-05
2.85418e-05
3.31892e-05
3.31849e-05
8.36787e-05
8.36753e-05
8.36783e-05
8.36803e-05
2.85396e-05
3.31913e-05
3.31869e-05
3.31912e-05
3.31871e-05
8.36742e-05
8.36767e-05
2.78144e-05
2.98438e-05
2.90643e-05
2.88909e-05
2.78145e-05
2.9841e-05
2.90643e-05
3.0215e-05
6.79297e-05
3.02159e-05
6.79274e-05
2.78142e-05
2.90641e-05
2.98427e-05
2.88906e-05
2.78143e-05
2.90641e-05
2.984e-05
3.02175e-05
6.79282e-05
6.79303e-05
3.02167e-05
2.78149e-05
2.88909e-05
2.98414e-05
2.90642e-05
2.98443e-05
2.90643e-05
2.78147e-05
3.02171e-05
6.79268e-05
6.79289e-05
3.02163e-05
2.78147e-05
2.88905e-05
2.9064e-05
2.98403e-05
2.9064e-05
2.98432e-05
2.78145e-05
3.0215e-05
6.79283e-05
3.02164e-05
6.7926e-05
2.7814e-05
2.90642e-05
2.98426e-05
2.88908e-05
2.78142e-05
2.90642e-05
2.984e-05
3.02148e-05
6.7931e-05
3.0216e-05
6.79288e-05
2.78142e-05
2.88912e-05
2.98409e-05
2.90641e-05
2.98437e-05
2.90642e-05
2.78141e-05
3.02173e-05
6.79254e-05
6.79275e-05
3.02161e-05
2.78145e-05
2.88907e-05
2.9064e-05
2.98403e-05
2.9064e-05
2.9843e-05
2.78144e-05
3.02171e-05
6.79282e-05
6.79302e-05
3.0216e-05
3.31838e-05
3.31859e-05
2.85415e-05
3.31845e-05
3.31868e-05
8.36839e-05
8.36803e-05
8.36751e-05
8.36779e-05
2.85393e-05
3.31868e-05
3.31891e-05
3.31867e-05
3.31887e-05
8.36787e-05
8.36812e-05
2.78144e-05
2.90642e-05
2.98433e-05
2.8891e-05
2.78145e-05
2.90641e-05
2.98407e-05
3.02151e-05
6.79314e-05
3.0216e-05
6.79293e-05
3.02153e-05
6.79329e-05
3.02161e-05
6.79308e-05
2.78144e-05
2.88908e-05
2.9064e-05
2.98403e-05
2.90641e-05
2.9843e-05
2.78142e-05
2.78149e-05
2.88909e-05
2.9064e-05
2.98411e-05
2.90641e-05
2.98438e-05
2.78147e-05
3.02172e-05
6.79287e-05
6.79306e-05
3.02163e-05
3.02173e-05
6.79302e-05
6.79321e-05
3.02165e-05
8.36839e-05
8.36804e-05
8.3684e-05
8.36804e-05
2.85395e-05
3.31892e-05
3.31899e-05
3.31888e-05
3.31895e-05
8.36788e-05
8.36812e-05
8.36788e-05
8.36813e-05
8.36796e-05
8.3678e-05
8.36797e-05
8.36784e-05
3.31912e-05
3.31917e-05
2.85419e-05
3.31911e-05
3.31916e-05
8.36785e-05
8.36795e-05
8.36788e-05
8.36797e-05
2.85397e-05
3.31922e-05
3.31928e-05
3.31927e-05
3.31933e-05
3.02173e-05
6.79297e-05
3.02186e-05
6.79281e-05
2.7815e-05
2.98435e-05
2.90642e-05
2.88908e-05
2.7815e-05
2.9841e-05
2.90642e-05
2.78152e-05
2.98449e-05
2.90644e-05
2.88911e-05
2.78153e-05
2.98424e-05
2.90643e-05
3.02191e-05
6.7926e-05
6.79276e-05
3.02174e-05
3.02194e-05
6.79284e-05
6.79296e-05
3.02178e-05
2.78154e-05
2.88908e-05
2.98416e-05
2.9064e-05
2.98441e-05
2.90641e-05
2.78151e-05
2.78157e-05
2.88911e-05
2.98428e-05
2.90641e-05
2.98455e-05
2.90642e-05
2.78154e-05
3.31931e-05
3.31889e-05
2.8542e-05
3.31928e-05
3.31883e-05
8.3676e-05
8.36744e-05
8.36792e-05
8.368e-05
2.85398e-05
3.31931e-05
3.31887e-05
3.31945e-05
3.31902e-05
8.36756e-05
8.36763e-05
2.78152e-05
2.98446e-05
2.90642e-05
2.88909e-05
2.78153e-05
2.9842e-05
2.90641e-05
3.02172e-05
6.79284e-05
3.02183e-05
6.79264e-05
2.7815e-05
2.9064e-05
2.98436e-05
2.88906e-05
2.78151e-05
2.90639e-05
2.98409e-05
3.02196e-05
6.79277e-05
6.79295e-05
3.02181e-05
2.78157e-05
2.88908e-05
2.98426e-05
2.90639e-05
2.98453e-05
2.90639e-05
2.78152e-05
3.02191e-05
6.79263e-05
6.7928e-05
3.02177e-05
2.78155e-05
2.88905e-05
2.90639e-05
2.98416e-05
2.90639e-05
2.98443e-05
2.78151e-05
3.0217e-05
6.7927e-05
3.02183e-05
6.79252e-05
2.78149e-05
2.90642e-05
2.98434e-05
2.88908e-05
2.78149e-05
2.90642e-05
2.98409e-05
3.02169e-05
6.79296e-05
3.02182e-05
6.79277e-05
2.78148e-05
2.88911e-05
2.9842e-05
2.90642e-05
2.98448e-05
2.90643e-05
2.78145e-05
3.02191e-05
6.79256e-05
6.79269e-05
3.02175e-05
2.78154e-05
2.88908e-05
2.90641e-05
2.98415e-05
2.90642e-05
2.9844e-05
2.78148e-05
3.0219e-05
6.79276e-05
6.79292e-05
3.02174e-05
3.31888e-05
3.31909e-05
2.85416e-05
3.31884e-05
3.31908e-05
8.36799e-05
8.36783e-05
8.36753e-05
8.36766e-05
2.85394e-05
3.31895e-05
3.31919e-05
3.31903e-05
3.31925e-05
8.36788e-05
8.36798e-05
2.78151e-05
2.9064e-05
2.98441e-05
2.8891e-05
2.78152e-05
2.9064e-05
2.98416e-05
3.02173e-05
6.793e-05
3.02183e-05
6.79282e-05
3.02175e-05
6.79315e-05
3.02185e-05
6.79297e-05
2.78149e-05
2.88908e-05
2.9064e-05
2.98415e-05
2.9064e-05
2.9844e-05
2.78146e-05
2.78156e-05
2.8891e-05
2.9064e-05
2.98422e-05
2.9064e-05
2.98447e-05
2.78151e-05
3.02191e-05
6.7928e-05
6.79297e-05
3.02178e-05
3.02194e-05
6.79296e-05
6.79312e-05
3.02179e-05
8.36799e-05
8.36784e-05
8.368e-05
8.36784e-05
2.85397e-05
3.3192e-05
3.31927e-05
3.31926e-05
3.31933e-05
8.36788e-05
8.36799e-05
8.36788e-05
8.36799e-05
8.36803e-05
8.36812e-05
8.36804e-05
8.36814e-05
3.31935e-05
3.31941e-05
2.85416e-05
3.31916e-05
3.31922e-05
8.36847e-05
8.36835e-05
8.3685e-05
8.36835e-05
2.85392e-05
3.31905e-05
3.31911e-05
3.31927e-05
3.31933e-05
3.02172e-05
6.79303e-05
3.02198e-05
6.79314e-05
2.7814e-05
2.98446e-05
2.9064e-05
2.88906e-05
2.78149e-05
2.98416e-05
2.90639e-05
2.78142e-05
2.98457e-05
2.90641e-05
2.88907e-05
2.78152e-05
2.98424e-05
2.9064e-05
3.02186e-05
6.79327e-05
6.79295e-05
3.02154e-05
3.02189e-05
6.79398e-05
6.79342e-05
3.02156e-05
2.78138e-05
2.88903e-05
2.98404e-05
2.90631e-05
2.98445e-05
2.90636e-05
2.78126e-05
2.7814e-05
2.88901e-05
2.98402e-05
2.90629e-05
2.98451e-05
2.90637e-05
2.78125e-05
3.31943e-05
3.31902e-05
2.85414e-05
3.31921e-05
3.31881e-05
8.36782e-05
8.36789e-05
8.36855e-05
8.36849e-05
2.85387e-05
3.31901e-05
3.31864e-05
3.31932e-05
3.31895e-05
8.36818e-05
8.36815e-05
2.78141e-05
2.98458e-05
2.90639e-05
2.88907e-05
2.7815e-05
2.98425e-05
2.90639e-05
3.02172e-05
6.79281e-05
3.02195e-05
6.79275e-05
2.7814e-05
2.9064e-05
2.98448e-05
2.88904e-05
2.78149e-05
2.90639e-05
2.98416e-05
3.02191e-05
6.79343e-05
6.79316e-05
3.02162e-05
2.7814e-05
2.88904e-05
2.98413e-05
2.90631e-05
2.98456e-05
2.90637e-05
2.78129e-05
3.02186e-05
6.79326e-05
6.793e-05
3.02157e-05
2.78138e-05
2.88901e-05
2.90631e-05
2.98404e-05
2.90637e-05
2.98446e-05
2.78127e-05
3.0217e-05
6.79279e-05
3.02195e-05
6.7929e-05
2.78138e-05
2.90641e-05
2.98445e-05
2.88906e-05
2.78146e-05
2.9064e-05
2.98415e-05
3.02168e-05
6.79292e-05
3.02193e-05
6.79287e-05
2.78138e-05
2.88904e-05
2.984e-05
2.9063e-05
2.98448e-05
2.90637e-05
2.78126e-05
3.02186e-05
6.7937e-05
6.79322e-05
3.02155e-05
2.78137e-05
2.88903e-05
2.90631e-05
2.98403e-05
2.90637e-05
2.98443e-05
2.78126e-05
3.02185e-05
6.79338e-05
6.7931e-05
3.02154e-05
3.3191e-05
3.31933e-05
2.85414e-05
3.31889e-05
3.31914e-05
8.36805e-05
8.36814e-05
8.36816e-05
8.36809e-05
2.8539e-05
3.31878e-05
3.31903e-05
3.31902e-05
3.31925e-05
8.36849e-05
8.36837e-05
2.78141e-05
2.9064e-05
2.98452e-05
2.88908e-05
2.78149e-05
2.90639e-05
2.98421e-05
3.02172e-05
6.79296e-05
3.02195e-05
6.79292e-05
3.02174e-05
6.79312e-05
3.02197e-05
6.79307e-05
2.78138e-05
2.88904e-05
2.90631e-05
2.98403e-05
2.90636e-05
2.98443e-05
2.78127e-05
2.78139e-05
2.88905e-05
2.90631e-05
2.98409e-05
2.90637e-05
2.9845e-05
2.78129e-05
3.02187e-05
6.79343e-05
6.79314e-05
3.02158e-05
3.02188e-05
6.79358e-05
6.7933e-05
3.02159e-05
8.36806e-05
8.36815e-05
8.36806e-05
8.36815e-05
2.85393e-05
3.31904e-05
3.3191e-05
3.31926e-05
3.31932e-05
8.3685e-05
8.36838e-05
8.3685e-05
8.36838e-05
8.36864e-05
8.36855e-05
8.36867e-05
8.36859e-05
3.31914e-05
3.3192e-05
2.85357e-05
3.3187e-05
3.31876e-05
8.36849e-05
8.36867e-05
8.36853e-05
8.36869e-05
2.85317e-05
3.31809e-05
3.31817e-05
3.31869e-05
3.31874e-05
3.02119e-05
6.79439e-05
3.02171e-05
6.79443e-05
2.78058e-05
2.98428e-05
2.90615e-05
2.88855e-05
2.78118e-05
2.98366e-05
2.90591e-05
2.78055e-05
2.98422e-05
2.9061e-05
2.88842e-05
2.78116e-05
2.98355e-05
2.90588e-05
3.02125e-05
6.79418e-05
6.7943e-05
3.02073e-05
3.02126e-05
6.79443e-05
6.79458e-05
3.02075e-05
2.78041e-05
2.88834e-05
2.98326e-05
2.90559e-05
2.98384e-05
2.90572e-05
2.78021e-05
2.78039e-05
2.88825e-05
2.98323e-05
2.90557e-05
2.98374e-05
2.90569e-05
2.78023e-05
3.31905e-05
3.31873e-05
2.85337e-05
3.31836e-05
3.31804e-05
8.36837e-05
8.3682e-05
8.36852e-05
8.36868e-05
2.85303e-05
3.31799e-05
3.31757e-05
3.31835e-05
3.31809e-05
8.36813e-05
8.36835e-05
2.78061e-05
2.98439e-05
2.90615e-05
2.88857e-05
2.78121e-05
2.98375e-05
2.90592e-05
3.02119e-05
6.79374e-05
3.0217e-05
6.79415e-05
2.7806e-05
2.90614e-05
2.9843e-05
2.88854e-05
2.78119e-05
2.90591e-05
2.98367e-05
3.02127e-05
6.79435e-05
6.79448e-05
3.0208e-05
2.78043e-05
2.88836e-05
2.98335e-05
2.90559e-05
2.98395e-05
2.90572e-05
2.78025e-05
3.02125e-05
6.79425e-05
6.79437e-05
3.02077e-05
2.78042e-05
2.88832e-05
2.90558e-05
2.98325e-05
2.90571e-05
2.98387e-05
2.78023e-05
3.0212e-05
6.79413e-05
3.0217e-05
6.79419e-05
2.78059e-05
2.90614e-05
2.98426e-05
2.88855e-05
2.78118e-05
2.90591e-05
2.98365e-05
3.02118e-05
6.79385e-05
3.02169e-05
6.79429e-05
2.78042e-05
2.88828e-05
2.98316e-05
2.90558e-05
2.98372e-05
2.9057e-05
2.78022e-05
3.02127e-05
6.79418e-05
6.79437e-05
3.02076e-05
2.78042e-05
2.88834e-05
2.90559e-05
2.98325e-05
2.90571e-05
2.98383e-05
2.78021e-05
3.02125e-05
6.79437e-05
6.79448e-05
3.02074e-05
3.31889e-05
3.31912e-05
2.85355e-05
3.31842e-05
3.31868e-05
8.36867e-05
8.36858e-05
8.36817e-05
8.36839e-05
2.85315e-05
3.3178e-05
3.31808e-05
3.31845e-05
3.31866e-05
8.36852e-05
8.3687e-05
2.78062e-05
2.90615e-05
2.98433e-05
2.88857e-05
2.78121e-05
2.90592e-05
2.98371e-05
3.0212e-05
6.7939e-05
3.02171e-05
6.79433e-05
3.02121e-05
6.79405e-05
3.02172e-05
6.79448e-05
2.78044e-05
2.88835e-05
2.90559e-05
2.98325e-05
2.90572e-05
2.98383e-05
2.78023e-05
2.78044e-05
2.88836e-05
2.90559e-05
2.98331e-05
2.90572e-05
2.98389e-05
2.78025e-05
3.02126e-05
6.79441e-05
6.79453e-05
3.02078e-05
3.02127e-05
6.79456e-05
6.79468e-05
3.02079e-05
8.36867e-05
8.36858e-05
8.36868e-05
8.36859e-05
2.85317e-05
3.31809e-05
3.31814e-05
3.31867e-05
3.31874e-05
8.36852e-05
8.3687e-05
8.36853e-05
8.36871e-05
8.36861e-05
8.36846e-05
8.36863e-05
8.3685e-05
3.31815e-05
3.31824e-05
2.85313e-05
3.31793e-05
3.31801e-05
8.36846e-05
8.36859e-05
8.36849e-05
8.36861e-05
2.85291e-05
3.31789e-05
3.31798e-05
3.31804e-05
3.31813e-05
3.0206e-05
6.79457e-05
3.02089e-05
6.79433e-05
2.7802e-05
2.9835e-05
2.90554e-05
2.88814e-05
2.78024e-05
2.98309e-05
2.90552e-05
2.78021e-05
2.9835e-05
2.90553e-05
2.88813e-05
2.78025e-05
2.98316e-05
2.90552e-05
3.02075e-05
6.79412e-05
6.79429e-05
3.02053e-05
3.02078e-05
6.79427e-05
6.79448e-05
3.02056e-05
2.78023e-05
2.88812e-05
2.98305e-05
2.90551e-05
2.98338e-05
2.90551e-05
2.78019e-05
2.78024e-05
2.88812e-05
2.98317e-05
2.90551e-05
2.98348e-05
2.90551e-05
2.78021e-05
3.3181e-05
3.3177e-05
2.85313e-05
3.31793e-05
3.3175e-05
8.36829e-05
8.3681e-05
8.36825e-05
8.36849e-05
2.85291e-05
3.31792e-05
3.3175e-05
3.31808e-05
3.31766e-05
8.36809e-05
8.36827e-05
2.78023e-05
2.9836e-05
2.90554e-05
2.88815e-05
2.78027e-05
2.98319e-05
2.90552e-05
3.02061e-05
6.7944e-05
3.02089e-05
6.79421e-05
2.78022e-05
2.90553e-05
2.98351e-05
2.88812e-05
2.78025e-05
2.90552e-05
2.98308e-05
3.02082e-05
6.79432e-05
6.79449e-05
3.02062e-05
2.78026e-05
2.88814e-05
2.98314e-05
2.90551e-05
2.98349e-05
2.90551e-05
2.78023e-05
3.02078e-05
6.79419e-05
6.79437e-05
3.02058e-05
2.78025e-05
2.8881e-05
2.9055e-05
2.98303e-05
2.9055e-05
2.98338e-05
2.78021e-05
3.02059e-05
6.79434e-05
3.02089e-05
6.79415e-05
2.78019e-05
2.90554e-05
2.98348e-05
2.88814e-05
2.78024e-05
2.90552e-05
2.98309e-05
3.02057e-05
6.79451e-05
3.02088e-05
6.79434e-05
2.78022e-05
2.88815e-05
2.98302e-05
2.90551e-05
2.98335e-05
2.90552e-05
2.78018e-05
3.02077e-05
6.79414e-05
6.79431e-05
3.02055e-05
2.78022e-05
2.88812e-05
2.90551e-05
2.98304e-05
2.90551e-05
2.98337e-05
2.78019e-05
3.02076e-05
6.79432e-05
6.79448e-05
3.02053e-05
3.31788e-05
3.31815e-05
2.85311e-05
3.31761e-05
3.31792e-05
8.36864e-05
8.36849e-05
8.36813e-05
8.36831e-05
2.85288e-05
3.31759e-05
3.3179e-05
3.31776e-05
3.31804e-05
8.36848e-05
8.36862e-05
2.78024e-05
2.90554e-05
2.98355e-05
2.88816e-05
2.78027e-05
2.90552e-05
2.98316e-05
3.02063e-05
6.79455e-05
3.0209e-05
6.79438e-05
3.02064e-05
6.7947e-05
3.02091e-05
6.79453e-05
2.78028e-05
2.88814e-05
2.9055e-05
2.98305e-05
2.90552e-05
2.98337e-05
2.78022e-05
2.78027e-05
2.88814e-05
2.90551e-05
2.98311e-05
2.90551e-05
2.98344e-05
2.78023e-05
3.02079e-05
6.79436e-05
6.79452e-05
3.02059e-05
3.0208e-05
6.79452e-05
6.79468e-05
3.0206e-05
8.36865e-05
8.3685e-05
8.36865e-05
8.3685e-05
2.85292e-05
3.3179e-05
3.31796e-05
3.31805e-05
3.31811e-05
8.36849e-05
8.36863e-05
8.36849e-05
8.36863e-05
8.36859e-05
8.36849e-05
8.36861e-05
8.36849e-05
3.31802e-05
3.31811e-05
2.85314e-05
3.31788e-05
3.31797e-05
8.36849e-05
8.36862e-05
8.36849e-05
8.36861e-05
2.85291e-05
3.31788e-05
3.31797e-05
3.31803e-05
3.31811e-05
3.02056e-05