/*--------------------------------*- C++ -*----------------------------------*\
| =========                 |                                                 |
| \\      /  F ield         | OpenFOAM: The Open Source CFD Toolbox           |
|  \\    /   O peration     | Version:  2206                                  |
|   \\  /    A nd           | Website:  www.openfoam.com                      |
|    \\/     M anipulation  |                                                 |
\*---------------------------------------------------------------------------*/
FoamFile
{
    version     2.0;
    format      ascii;
    arch        "LSB;label=32;scalar=64";
    class       volScalarField;
    location    "3";
    object      epsilon;
}
// * * * * * * * * * * * * * * * * * * * * * * * * * * * * * * * * * * * * * //

dimensions      [0 2 -3 0 0 0 0];

internalField   nonuniform List<scalar> 
28381
(
5.4071e-07
5.40139e-07
5.01555e-07
5.01549e-07
5.01553e-07
5.40158e-07
5.01548e-07
5.01554e-07
5.01554e-07
4.97327e-07
4.97327e-07
4.97327e-07
9.37662e-07
9.37732e-07
3.6854e-06
3.68556e-06
9.84474e-07
9.84498e-07
2.48728e-06
8.02286e-07
8.02267e-07
8.11755e-07
4.97512e-07
5.61407e-07
4.97539e-07
5.6138e-07
2.48741e-06
8.02317e-07
8.11836e-07
4.9751e-07
5.61425e-07
2.48753e-06
8.02278e-07
4.97511e-07
8.11858e-07
5.61427e-07
3.68565e-06
9.84527e-07
9.84471e-07
3.68551e-06
4.97526e-07
8.11756e-07
5.61394e-07
2.48745e-06
8.02115e-07
7.33871e-07
2.51342e-06
7.33895e-07
2.5135e-06
3.7255e-06
3.72557e-06
8.06353e-07
6.15213e-07
2.56925e-06
9.84378e-07
7.46617e-07
6.28993e-07
2.51948e-06
8.06529e-07
6.15165e-07
2.56973e-06
9.84394e-07
7.46737e-07
6.28947e-07
2.51991e-06
1.08862e-06
3.88971e-06
3.8898e-06
1.08909e-06
3.87783e-06
3.87786e-06
3.72547e-06
3.72561e-06
7.46628e-07
6.28992e-07
9.37646e-07
2.5195e-06
2.56929e-06
6.15191e-07
8.06425e-07
7.46746e-07
6.28947e-07
9.37734e-07
2.51997e-06
2.56982e-06
6.15154e-07
8.06588e-07
1.08909e-06
3.87758e-06
3.87772e-06
3.88974e-06
3.88984e-06
1.08872e-06
3.99474e-06
2.5133e-06
1.01406e-06
3.93595e-06
9.79215e-07
2.96122e-06
7.50029e-07
2.74515e-06
8.33e-07
2.93764e-06
2.76288e-06
7.84009e-07
3.99484e-06
1.01395e-06
9.79127e-07
3.9361e-06
2.96116e-06
7.50027e-07
2.74514e-06
8.32962e-07
2.76287e-06
7.83993e-07
2.93757e-06
3.99462e-06
2.5135e-06
1.01407e-06
3.93583e-06
9.79154e-07
2.96118e-06
7.50039e-07
8.33046e-07
2.74519e-06
2.9376e-06
7.84009e-07
2.76292e-06
3.99481e-06
2.5136e-06
1.01402e-06
9.79244e-07
3.93601e-06
2.96128e-06
7.50035e-07
2.74519e-06
8.32982e-07
2.76292e-06
7.84018e-07
2.93769e-06
3.7257e-06
7.46763e-07
6.28996e-07
9.3778e-07
2.51998e-06
6.15193e-07
2.56984e-06
8.06632e-07
7.46629e-07
6.28983e-07
9.37658e-07
2.5195e-06
2.56926e-06
6.15177e-07
8.06411e-07
1.08913e-06
3.87776e-06
3.87759e-06
3.8899e-06
3.88976e-06
1.08874e-06
3.72552e-06
3.99466e-06
2.51345e-06
1.01409e-06
9.79237e-07
3.93587e-06
2.9612e-06
7.49928e-07
8.32985e-07
2.7455e-06
7.84009e-07
2.7632e-06
2.93764e-06
2.48742e-06
3.9358e-06
9.79149e-07
2.48744e-06
3.99451e-06
1.0139e-06
3.68547e-06
3.68555e-06
5.8675e-07
5.45807e-07
5.45808e-07
5.40142e-07
5.69131e-07
5.49969e-07
5.49973e-07
5.69125e-07
5.40714e-07
5.49948e-07
5.49954e-07
5.45791e-07
5.45795e-07
5.86752e-07
5.69138e-07
5.40738e-07
5.49982e-07
5.49961e-07
5.45825e-07
5.45803e-07
5.86765e-07
4.97066e-07
4.97051e-07
4.97019e-07
4.97051e-07
4.97066e-07
4.97019e-07
5.13586e-07
5.58165e-07
7.3384e-07
6.07224e-07
5.44425e-07
5.88948e-07
5.18783e-07
5.06765e-07
5.50766e-07
5.68347e-07
5.08392e-07
5.56993e-07
5.05618e-07
5.09903e-07
5.13616e-07
6.06995e-07
5.88826e-07
5.18748e-07
5.06766e-07
5.50752e-07
5.68283e-07
5.08383e-07
5.56969e-07
5.05617e-07
5.09883e-07
5.13583e-07
5.58164e-07
7.33893e-07
6.07219e-07
5.44419e-07
5.88945e-07
5.18779e-07
5.06763e-07
5.5076e-07
5.6835e-07
5.08396e-07
5.56991e-07
5.05615e-07
5.09902e-07
5.13589e-07
5.58187e-07
7.33914e-07
6.07247e-07
5.88955e-07
5.44435e-07
5.18794e-07
5.06764e-07
5.50758e-07
5.08397e-07
5.68359e-07
5.05616e-07
5.56986e-07
5.09907e-07
5.13586e-07
5.58159e-07
7.33849e-07
6.07219e-07
5.18782e-07
5.44423e-07
5.88945e-07
5.06771e-07
5.50773e-07
5.08427e-07
5.68346e-07
5.09907e-07
5.05652e-07
5.56995e-07
5.44441e-07
8.11737e-07
5.58167e-07
5.18781e-07
5.44423e-07
5.88945e-07
8.11787e-07
5.58164e-07
5.13585e-07
6.07206e-07
5.01534e-07
5.40698e-07
4.9731e-07
5.01536e-07
5.01534e-07
5.40712e-07
4.9731e-07
5.01533e-07
5.01536e-07
5.40703e-07
4.9731e-07
5.01532e-07
5.01536e-07
5.40695e-07
4.9731e-07
5.01537e-07
5.01536e-07
5.40697e-07
4.9731e-07
5.01531e-07
5.01536e-07
5.40691e-07
4.9731e-07
5.01533e-07
5.01538e-07
5.40698e-07
4.9731e-07
5.01534e-07
5.01538e-07
5.40703e-07
4.9731e-07
5.01532e-07
5.01538e-07
5.40699e-07
4.9731e-07
5.01532e-07
5.01538e-07
5.40701e-07
4.9731e-07
5.01532e-07
5.01538e-07
5.40704e-07
4.9731e-07
5.01533e-07
5.01538e-07
5.40692e-07
4.9731e-07
5.01532e-07
5.01538e-07
5.40697e-07
4.9731e-07
5.01537e-07
5.01537e-07
5.40695e-07
4.9731e-07
5.01532e-07
5.01538e-07
5.40697e-07
4.9731e-07
5.01534e-07
5.01536e-07
5.407e-07
4.97325e-07
5.01548e-07
5.01548e-07
5.40706e-07
5.40718e-07
5.40175e-07
5.01539e-07
5.01534e-07
5.01545e-07
5.4015e-07
5.40713e-07
5.40154e-07
5.01539e-07
5.0154e-07
5.0154e-07
5.01543e-07
5.40712e-07
5.40142e-07
5.01539e-07
5.01541e-07
5.01541e-07
5.0154e-07
5.01537e-07
5.01538e-07
5.01541e-07
5.40739e-07
5.40178e-07
5.0154e-07
5.01535e-07
5.01535e-07
5.40161e-07
5.40723e-07
5.4014e-07
5.01539e-07
5.01539e-07
5.01543e-07
5.01539e-07
5.40714e-07
5.40139e-07
5.01537e-07
5.01543e-07
5.01533e-07
5.01538e-07
5.01543e-07
5.01539e-07
5.0154e-07
5.40728e-07
5.40167e-07
5.01538e-07
5.01534e-07
5.01534e-07
5.40146e-07
5.40712e-07
5.40136e-07
5.0154e-07
5.01538e-07
5.01541e-07
5.01538e-07
5.40711e-07
5.40139e-07
5.01536e-07
5.01545e-07
5.01532e-07
5.01537e-07
5.01543e-07
5.0154e-07
5.01538e-07
5.40719e-07
5.40166e-07
5.01538e-07
5.01534e-07
5.01538e-07
5.40152e-07
5.40698e-07
5.40132e-07
5.01538e-07
5.01539e-07
5.01542e-07
5.01539e-07
5.40697e-07
5.40129e-07
5.01535e-07
5.01539e-07
5.01532e-07
5.01538e-07
5.01542e-07
5.01538e-07
5.01542e-07
5.4073e-07
5.4016e-07
5.01539e-07
5.01535e-07
5.01534e-07
5.40136e-07
5.40708e-07
5.40145e-07
5.0154e-07
5.01539e-07
5.01542e-07
5.01538e-07
5.40705e-07
5.4014e-07
5.01535e-07
5.01544e-07
5.01534e-07
5.01539e-07
5.01543e-07
5.01539e-07
5.01537e-07
5.40713e-07
5.40164e-07
5.01539e-07
5.01535e-07
5.01534e-07
5.4015e-07
5.40706e-07
5.40134e-07
5.01542e-07
5.01539e-07
5.01542e-07
5.01539e-07
5.40712e-07
5.40132e-07
5.01537e-07
5.01539e-07
5.01533e-07
5.01537e-07
5.01541e-07
5.01539e-07
5.0154e-07
5.40735e-07
5.40172e-07
5.01538e-07
5.01535e-07
5.01536e-07
5.40151e-07
5.40699e-07
5.40147e-07
5.01542e-07
5.01541e-07
5.01541e-07
5.01536e-07
5.40696e-07
5.40128e-07
5.01538e-07
5.01541e-07
5.01535e-07
5.01539e-07
5.01542e-07
5.01538e-07
5.01537e-07
5.40725e-07
5.40159e-07
5.01539e-07
5.01535e-07
5.01534e-07
5.4015e-07
5.407e-07
5.40156e-07
5.01542e-07
5.01543e-07
5.01542e-07
5.01537e-07
5.40692e-07
5.40143e-07
5.01536e-07
5.01539e-07
5.01535e-07
5.01538e-07
5.01541e-07
5.01539e-07
5.01544e-07
5.40731e-07
5.40176e-07
5.01538e-07
5.01536e-07
5.01535e-07
5.40153e-07
5.40722e-07
5.40146e-07
5.0154e-07
5.01543e-07
5.01542e-07
5.01536e-07
5.407e-07
5.40135e-07
5.01539e-07
5.0154e-07
5.01535e-07
5.01539e-07
5.01543e-07
5.01539e-07
5.01538e-07
5.40726e-07
5.4016e-07
5.01538e-07
5.01535e-07
5.01535e-07
5.40157e-07
5.40704e-07
5.40149e-07
5.01543e-07
5.01544e-07
5.01542e-07
5.01539e-07
5.40697e-07
5.40131e-07
5.01537e-07
5.01538e-07
5.01533e-07
5.01538e-07
5.01542e-07
5.01539e-07
5.01539e-07
5.40731e-07
5.40171e-07
5.01538e-07
5.01535e-07
5.01536e-07
5.4014e-07
5.40713e-07
5.40148e-07
5.01539e-07
5.01542e-07
5.01542e-07
5.01536e-07
5.40696e-07
5.4013e-07
5.01539e-07
5.01541e-07
5.01535e-07
5.01538e-07
5.01541e-07
5.01539e-07
5.01538e-07
5.40724e-07
5.40171e-07
5.0154e-07
5.01535e-07
5.01536e-07
5.40151e-07
5.40705e-07
5.40135e-07
5.01543e-07
5.01543e-07
5.01545e-07
5.01537e-07
5.40691e-07
5.4013e-07
5.01537e-07
5.01538e-07
5.01534e-07
5.01537e-07
5.01541e-07
5.0154e-07
5.01543e-07
5.4073e-07
5.40168e-07
5.01538e-07
5.01535e-07
5.01537e-07
5.40147e-07
5.40687e-07
5.40144e-07
5.01539e-07
5.0154e-07
5.01541e-07
5.01536e-07
5.40678e-07
5.40128e-07
5.01541e-07
5.01539e-07
5.01535e-07
5.0154e-07
5.01543e-07
5.01538e-07
5.01537e-07
5.4072e-07
5.40155e-07
5.01538e-07
5.01535e-07
5.01534e-07
5.40148e-07
5.40701e-07
5.40148e-07
5.01545e-07
5.01543e-07
5.01541e-07
5.01539e-07
5.40693e-07
5.40133e-07
5.01536e-07
5.01539e-07
5.01538e-07
5.01538e-07
5.01541e-07
5.01539e-07
5.0154e-07
5.40729e-07
5.40171e-07
5.01537e-07
5.01535e-07
5.01536e-07
5.40149e-07
5.40715e-07
5.40152e-07
5.01539e-07
5.01539e-07
5.01536e-07
5.01539e-07
5.40696e-07
5.40142e-07
5.01537e-07
5.01541e-07
5.0154e-07
5.01539e-07
5.01542e-07
5.01537e-07
5.01536e-07
5.4073e-07
5.40168e-07
5.01538e-07
5.01537e-07
5.01537e-07
5.40155e-07
5.0155e-07
5.40685e-07
5.01552e-07
5.01555e-07
5.01552e-07
5.4072e-07
5.01547e-07
3.72517e-06
3.68555e-06
5.61434e-07
4.97494e-07
7.34015e-07
5.01536e-07
8.1171e-07
5.50806e-07
4.97493e-07
9.37872e-07
9.37941e-07
5.40149e-07
9.84306e-07
9.84392e-07
8.02156e-07
2.51299e-06
2.48727e-06
7.50163e-07
3.72501e-06
3.6854e-06
8.02181e-07
2.51318e-06
2.48741e-06
7.50181e-07
4.9731e-07
4.97309e-07
4.97309e-07
4.9731e-07
4.9731e-07
4.9731e-07
4.9731e-07
5.61434e-07
7.33979e-07
4.97494e-07
5.01535e-07
8.11681e-07
4.97493e-07
5.50807e-07
3.72514e-06
3.68553e-06
5.61442e-07
4.97493e-07
7.34012e-07
5.01535e-07
5.50819e-07
4.97494e-07
8.11706e-07
9.3786e-07
9.37944e-07
5.40154e-07
9.84301e-07
9.84327e-07
8.02034e-07
2.51296e-06
7.50161e-07
2.48729e-06
3.72497e-06
3.68546e-06
8.02031e-07
2.51315e-06
7.50177e-07
2.48744e-06
4.9731e-07
4.9731e-07
4.9731e-07
4.9731e-07
4.9731e-07
4.9731e-07
4.97309e-07
5.61431e-07
7.33977e-07
4.97494e-07
5.01537e-07
5.50802e-07
8.11695e-07
4.97494e-07
3.72511e-06
3.6856e-06
5.61442e-07
4.97494e-07
7.33999e-07
5.01537e-07
5.50807e-07
4.97494e-07
8.11738e-07
9.37863e-07
9.37938e-07
5.40156e-07
9.84411e-07
9.84439e-07
8.02249e-07
2.51302e-06
7.50155e-07
2.48728e-06
3.72508e-06
3.68544e-06
8.02273e-07
2.51321e-06
7.5017e-07
2.48742e-06
4.97309e-07
4.9731e-07
4.9731e-07
4.9731e-07
4.9731e-07
4.9731e-07
4.9731e-07
5.61425e-07
7.33975e-07
4.97493e-07
5.01536e-07
5.50797e-07
8.11698e-07
4.97494e-07
3.72523e-06
3.6856e-06
5.61436e-07
4.97494e-07
7.33998e-07
5.01536e-07
5.50806e-07
4.97494e-07
8.11747e-07
9.37878e-07
9.37949e-07
5.40157e-07
9.84401e-07
9.84399e-07
8.02223e-07
2.51299e-06
7.50175e-07
2.48726e-06
3.72505e-06
3.6854e-06
8.02279e-07
2.51319e-06
7.50194e-07
2.48739e-06
4.9731e-07
4.9731e-07
4.9731e-07
4.9731e-07
4.9731e-07
4.9731e-07
4.9731e-07
5.61428e-07
7.33975e-07
4.97494e-07
5.01536e-07
5.50793e-07
8.11699e-07
4.97494e-07
3.72524e-06
3.68557e-06
5.61437e-07
4.97494e-07
7.33995e-07
5.01536e-07
5.508e-07
4.97494e-07
8.11756e-07
9.37853e-07
9.37923e-07
5.40146e-07
9.84372e-07
9.84386e-07
8.0228e-07
2.51301e-06
7.50168e-07
2.48725e-06
3.72513e-06
3.68545e-06
8.02297e-07
2.51321e-06
7.50188e-07
2.4874e-06
4.97309e-07
4.9731e-07
4.9731e-07
4.9731e-07
4.9731e-07
4.97309e-07
4.9731e-07
5.61428e-07
7.33977e-07
4.97493e-07
5.01532e-07
5.50791e-07
8.11727e-07
4.97494e-07
3.72527e-06
3.6856e-06
5.61437e-07
4.97494e-07
7.33997e-07
5.01542e-07
5.50798e-07
4.97494e-07
8.11759e-07
9.37869e-07
9.37938e-07
5.40149e-07
9.84437e-07
9.84443e-07
8.02151e-07
2.513e-06
7.50167e-07
2.48727e-06
3.72503e-06
3.68543e-06
8.02176e-07
2.51318e-06
7.50186e-07
2.48741e-06
4.9731e-07
4.9731e-07
4.9731e-07
4.9731e-07
4.9731e-07
4.9731e-07
4.9731e-07
5.61426e-07
7.3398e-07
4.97494e-07
5.01537e-07
5.50802e-07
8.11697e-07
4.97494e-07
3.72516e-06
3.68558e-06
5.61436e-07
4.97494e-07
7.34011e-07
5.01536e-07
5.5081e-07
4.97494e-07
8.11722e-07
9.37878e-07
9.3795e-07
5.40153e-07
9.8438e-07
9.84396e-07
8.022e-07
2.51303e-06
7.50166e-07
2.48729e-06
3.72505e-06
3.6854e-06
8.02199e-07
2.51319e-06
7.50181e-07
2.48742e-06
4.9731e-07
4.9731e-07
4.9731e-07
4.9731e-07
4.9731e-07
4.9731e-07
4.97309e-07
5.61426e-07
7.33978e-07
4.97494e-07
5.01534e-07
5.50798e-07
8.11716e-07
4.97494e-07
3.72517e-06
3.68558e-06
5.61435e-07
4.97494e-07
7.34001e-07
5.01536e-07
5.50805e-07
4.97494e-07
8.1175e-07
9.37875e-07
9.37943e-07
5.40149e-07
9.84387e-07
9.8442e-07
8.02204e-07
2.51302e-06
7.5018e-07
2.48727e-06
3.72506e-06
3.68539e-06
8.02225e-07
2.51319e-06
7.50192e-07
2.4874e-06
4.9731e-07
4.9731e-07
4.9731e-07
4.97309e-07
4.9731e-07
4.97309e-07
4.9731e-07
5.61429e-07
7.33981e-07
4.97493e-07
5.01539e-07
5.50805e-07
8.11704e-07
4.97494e-07
3.72522e-06
3.68557e-06
5.61441e-07
4.97494e-07
7.34006e-07
5.01535e-07
5.50812e-07
4.97494e-07
8.11752e-07
9.3787e-07
9.37943e-07
5.40152e-07
9.84364e-07
9.84401e-07
8.0208e-07
2.51299e-06
7.50166e-07
2.4873e-06
3.72496e-06
3.68541e-06
8.0212e-07
2.51316e-06
7.50186e-07
2.48742e-06
4.9731e-07
4.9731e-07
4.9731e-07
4.9731e-07
4.9731e-07
4.9731e-07
4.9731e-07
5.61431e-07
7.33988e-07
4.97493e-07
5.01533e-07
5.50795e-07
8.11691e-07
4.97493e-07
3.72514e-06
3.68558e-06
5.6144e-07
4.97494e-07
7.34006e-07
5.01537e-07
5.50803e-07
4.97494e-07
8.11732e-07
9.3786e-07
9.37931e-07
5.4016e-07
9.8442e-07
9.84433e-07
8.0218e-07
2.51301e-06
7.50173e-07
2.48729e-06
3.72502e-06
3.68539e-06
8.02232e-07
2.51318e-06
7.50189e-07
2.48741e-06
4.9731e-07
4.9731e-07
4.9731e-07
4.9731e-07
4.9731e-07
4.9731e-07
4.9731e-07
5.6143e-07
7.3398e-07
4.97494e-07
5.01532e-07
5.50802e-07
8.11695e-07
4.97493e-07
3.72521e-06
3.68557e-06
5.6144e-07
4.97494e-07
7.33999e-07
5.01536e-07
5.50808e-07
4.97494e-07
8.11738e-07
9.37868e-07
9.37939e-07
5.40157e-07
9.84347e-07
9.84371e-07
8.02192e-07
2.51304e-06
7.50161e-07
2.48729e-06
3.72506e-06
3.68542e-06
8.02236e-07
2.5132e-06
7.50181e-07
2.4874e-06
4.9731e-07
4.9731e-07
4.9731e-07
4.9731e-07
4.9731e-07
4.9731e-07
4.9731e-07
5.61428e-07
7.33973e-07
4.97494e-07
5.01532e-07
5.50798e-07
8.11718e-07
4.97494e-07
3.72524e-06
3.68559e-06
5.61436e-07
4.97494e-07
7.33998e-07
5.01536e-07
5.50806e-07
4.97494e-07
8.11754e-07
9.37862e-07
9.37931e-07
5.40153e-07
9.84436e-07
9.84458e-07
8.0216e-07
2.51301e-06
7.50169e-07
2.48729e-06
3.72503e-06
3.68542e-06
8.02173e-07
2.51317e-06
7.50185e-07
2.48742e-06
4.9731e-07
4.9731e-07
4.9731e-07
4.97311e-07
4.9731e-07
4.9731e-07
4.9731e-07
5.61424e-07
7.33976e-07
4.97494e-07
5.01532e-07
5.50787e-07
8.1172e-07
4.97493e-07
3.72518e-06
3.68559e-06
5.61433e-07
4.97494e-07
7.33996e-07
5.01535e-07
5.50796e-07
4.97494e-07
8.11754e-07
9.37861e-07
9.37929e-07
5.40144e-07
9.84428e-07
9.84433e-07
8.02246e-07
2.51303e-06
7.50167e-07
2.48728e-06
3.72506e-06
3.6854e-06
8.02292e-07
2.51321e-06
7.50175e-07
2.4874e-06
4.9731e-07
4.9731e-07
4.9731e-07
4.9731e-07
4.9731e-07
4.9731e-07
4.97309e-07
5.61426e-07
7.33969e-07
4.97494e-07
5.01532e-07
5.50798e-07
8.11715e-07
4.97493e-07
3.72521e-06
3.68558e-06
5.61434e-07
4.97494e-07
7.33991e-07
5.01537e-07
5.50808e-07
4.97494e-07
8.1174e-07
9.37874e-07
9.37945e-07
5.40155e-07
9.84417e-07
9.84442e-07
8.0221e-07
2.51302e-06
7.50173e-07
2.48728e-06
3.72504e-06
3.6854e-06
8.02228e-07
2.51319e-06
7.50193e-07
2.4874e-06
4.9731e-07
4.9731e-07
4.9731e-07
4.9731e-07
4.9731e-07
4.9731e-07
4.9731e-07
5.61427e-07
7.33977e-07
4.97493e-07
5.01532e-07
5.50805e-07
8.11688e-07
4.97493e-07
3.72523e-06
3.68559e-06
5.61438e-07
4.97494e-07
7.33993e-07
5.01535e-07
5.50807e-07
4.97494e-07
8.11746e-07
9.3787e-07
9.37948e-07
5.40158e-07
9.84328e-07
9.8436e-07
8.02123e-07
2.51301e-06
7.50169e-07
2.4873e-06
3.72498e-06
3.68541e-06
8.02171e-07
2.51318e-06
7.50186e-07
2.48741e-06
4.9731e-07
4.9731e-07
4.9731e-07
4.9731e-07
4.9731e-07
4.9731e-07
4.9731e-07
5.61432e-07
7.33981e-07
4.97494e-07
5.01538e-07
5.508e-07
8.11692e-07
4.97494e-07
3.72517e-06
3.68559e-06
5.6144e-07
4.97494e-07
7.34004e-07
5.0154e-07
5.50802e-07
4.97494e-07
8.11736e-07
9.37867e-07
9.37941e-07
5.40158e-07
9.84392e-07
9.84407e-07
3.72496e-06
2.51322e-06
7.50162e-07
4.97324e-07
4.97324e-07
4.97324e-07
7.33965e-07
4.97509e-07
5.50791e-07
3.72513e-06
4.97509e-07
7.33992e-07
5.50802e-07
9.37855e-07
9.37925e-07
9.37989e-07
9.37874e-07
5.40157e-07
9.84379e-07
9.84378e-07
3.72502e-06
3.68543e-06
3.68556e-06
3.72513e-06
5.40719e-07
9.84372e-07
9.84362e-07
9.37865e-07
9.37984e-07
3.68544e-06
3.72498e-06
5.61431e-07
4.97494e-07
7.34066e-07
5.01543e-07
8.11755e-07
5.50805e-07
4.97494e-07
8.02197e-07
2.51317e-06
2.48742e-06
7.50185e-07
8.02199e-07
2.51322e-06
2.48739e-06
7.50187e-07
5.50817e-07
5.01539e-07
4.97493e-07
8.1171e-07
7.3401e-07
5.61443e-07
4.97494e-07
5.50815e-07
5.01542e-07
4.97494e-07
8.1181e-07
7.34031e-07
5.61439e-07
4.97494e-07
7.50185e-07
2.48743e-06
2.51315e-06
8.02157e-07
7.50184e-07
2.48743e-06
2.51313e-06
8.02171e-07
3.72505e-06
3.6855e-06
3.72511e-06
3.68542e-06
5.40712e-07
9.84356e-07
9.84335e-07
9.37864e-07
9.37935e-07
3.68543e-06
3.7251e-06
3.68549e-06
3.72505e-06
3.72489e-06
3.68532e-06
3.72505e-06
3.68547e-06
9.37858e-07
9.37933e-07
5.40158e-07
9.84341e-07
9.84359e-07
3.68531e-06
3.72484e-06
3.68546e-06
3.72497e-06
5.40721e-07
9.84295e-07
9.84331e-07
9.3786e-07
9.37942e-07
8.02166e-07
2.51306e-06
2.48729e-06
7.50163e-07
5.61432e-07
7.34007e-07
4.97494e-07
5.01541e-07
8.11707e-07
4.97493e-07
5.50803e-07
5.61432e-07
7.34045e-07
4.97493e-07
5.01544e-07
8.11785e-07
4.97494e-07
5.50802e-07
7.50176e-07
2.48728e-06
2.51297e-06
8.02069e-07
7.50176e-07
2.48731e-06
2.51305e-06
8.02061e-07
5.50816e-07
5.01541e-07
8.11687e-07
4.97494e-07
7.34011e-07
4.97494e-07
5.6143e-07
5.50816e-07
5.01543e-07
8.11768e-07
4.97494e-07
7.34049e-07
4.97494e-07
5.61427e-07
9.37923e-07
9.37813e-07
5.40143e-07
9.84333e-07
9.84275e-07
3.72491e-06
3.68533e-06
3.68544e-06
3.72496e-06
5.40701e-07
9.84352e-07
9.84274e-07
9.37928e-07
9.37815e-07
3.68532e-06
3.72491e-06
5.6144e-07
7.34051e-07
4.97493e-07
5.01536e-07
8.1178e-07
4.97493e-07
5.50811e-07
8.02172e-07
2.51328e-06
2.48751e-06
7.5018e-07
5.6144e-07
4.97494e-07
7.34083e-07
5.01543e-07
4.97494e-07
8.1184e-07
5.50811e-07
7.50194e-07
2.48742e-06
2.51315e-06
8.02076e-07
5.50828e-07
5.01538e-07
8.11757e-07
4.97494e-07
7.34059e-07
4.97493e-07
5.61441e-07
7.50194e-07
2.48754e-06
2.51325e-06
8.02057e-07
5.50828e-07
5.01543e-07
4.97494e-07
8.11805e-07
4.97494e-07
7.34095e-07
5.6144e-07
8.02161e-07
2.51302e-06
2.4873e-06
7.50173e-07
5.61432e-07
4.97494e-07
7.34012e-07
5.01544e-07
4.97494e-07
8.11733e-07
5.50808e-07
8.02168e-07
2.51312e-06
2.48741e-06
7.50174e-07
5.50807e-07
5.01538e-07
8.11678e-07
4.97494e-07
7.3398e-07
4.97494e-07
5.61431e-07
7.50173e-07
2.48731e-06
2.51302e-06
8.02138e-07
5.50811e-07
5.01537e-07
4.97494e-07
8.11755e-07
4.97494e-07
7.34014e-07
5.61431e-07
7.50175e-07
2.48742e-06
2.51314e-06
8.02142e-07
9.37984e-07
9.37868e-07
5.40166e-07
9.84381e-07
9.84325e-07
3.72496e-06
3.68542e-06
3.68556e-06
3.72508e-06
5.40728e-07
9.84366e-07
9.8432e-07
9.37992e-07
9.37859e-07
3.68541e-06
3.725e-06
5.61439e-07
4.97494e-07
7.3407e-07
5.01536e-07
5.50815e-07
4.97494e-07
8.11783e-07
8.02135e-07
2.51314e-06
7.50186e-07
2.48743e-06
8.02135e-07
2.51321e-06
7.50186e-07
2.48744e-06
5.50814e-07
5.01539e-07
4.97494e-07
8.11725e-07
4.97494e-07
7.34005e-07
5.61443e-07
5.50811e-07
5.01538e-07
4.97493e-07
8.11828e-07
4.97494e-07
7.34047e-07
5.61441e-07
7.50179e-07
2.48743e-06
2.51314e-06
8.02153e-07
7.50177e-07
2.48744e-06
2.51321e-06
8.02167e-07
3.72502e-06
3.68542e-06
3.72508e-06
3.68551e-06
5.40727e-07
9.84362e-07
9.84394e-07
9.37856e-07
9.37931e-07
3.68544e-06
3.72508e-06
3.68553e-06
3.72513e-06
3.72482e-06
3.68533e-06
3.72492e-06
3.68549e-06
9.37852e-07
9.3794e-07
5.40147e-07
9.84297e-07
9.84308e-07
3.68536e-06
3.72492e-06
3.68553e-06
3.72505e-06
5.40694e-07
9.84368e-07
9.84391e-07
9.37842e-07
9.37926e-07
8.02057e-07
2.51306e-06
7.50158e-07
2.48732e-06
5.61425e-07
7.34008e-07
4.97494e-07
5.01541e-07
5.50808e-07
8.11693e-07
4.97494e-07
5.61425e-07
7.34049e-07
4.97494e-07
5.0154e-07
5.50803e-07
8.11785e-07
4.97493e-07
7.50145e-07
2.4873e-06
2.51298e-06
8.02114e-07
7.50148e-07
2.48732e-06
2.51308e-06
8.02137e-07
5.50786e-07
5.0154e-07
8.11734e-07
4.97494e-07
7.33989e-07
4.97494e-07
5.61419e-07
5.50786e-07
5.01543e-07
8.11798e-07
4.97494e-07
7.34042e-07
4.97494e-07
5.6142e-07
9.37935e-07
9.37814e-07
5.40151e-07
9.84383e-07
9.843e-07
3.72491e-06
3.68533e-06
3.68548e-06
3.72501e-06
5.40698e-07
9.84432e-07
9.8429e-07
9.37934e-07
9.37816e-07
3.68533e-06
3.72492e-06
5.61434e-07
7.34056e-07
4.97494e-07
5.01533e-07
5.50815e-07
8.1174e-07
4.97494e-07
8.02036e-07
2.51328e-06
7.50174e-07
2.48756e-06
5.61433e-07
4.97494e-07
7.34086e-07
5.01539e-07
5.50814e-07
4.97494e-07
8.11839e-07
7.50159e-07
2.48744e-06
2.51318e-06
8.02135e-07
5.5079e-07
5.01536e-07
8.11808e-07
4.97494e-07
7.34034e-07
4.97494e-07
5.61432e-07
7.50159e-07
2.48755e-06
2.5133e-06
8.0214e-07
5.5079e-07
5.0154e-07
4.97494e-07
8.11845e-07
4.97494e-07
7.34085e-07
5.61433e-07
8.02172e-07
2.51303e-06
7.50167e-07
2.48731e-06
5.6143e-07
4.97494e-07
7.34015e-07
5.01536e-07
5.50803e-07
4.97494e-07
8.11761e-07
8.0217e-07
2.51315e-06
7.50169e-07
2.48742e-06
5.50802e-07
5.01533e-07
8.11686e-07
4.97494e-07
7.33977e-07
4.97494e-07
5.61426e-07
7.50171e-07
2.48731e-06
2.51302e-06
8.02148e-07
5.50802e-07
5.01535e-07
4.97493e-07
8.11741e-07
4.97493e-07
7.34022e-07
5.61425e-07
7.5017e-07
2.48742e-06
2.51316e-06
8.02145e-07
9.37992e-07
9.37851e-07
5.40165e-07
9.84453e-07
9.8434e-07
3.72504e-06
3.68542e-06
3.68563e-06
3.72514e-06
5.40719e-07
9.84486e-07
9.84381e-07
9.38001e-07
9.37851e-07
3.68544e-06
3.72507e-06
5.61439e-07
4.97494e-07
7.34056e-07
5.01537e-07
5.50807e-07
4.97494e-07
8.11834e-07
8.02197e-07
2.51315e-06
7.50178e-07
2.48742e-06
8.02203e-07
2.51322e-06
7.50179e-07
2.48744e-06
5.50807e-07
5.01539e-07
4.97494e-07
8.11738e-07
4.97494e-07
7.33995e-07
5.61435e-07
5.50803e-07
5.01537e-07
4.97493e-07
8.11812e-07
4.97494e-07
7.34059e-07
5.61436e-07
7.50182e-07
2.48743e-06
2.51315e-06
8.02179e-07
7.50181e-07
2.48744e-06
2.51323e-06
8.02209e-07
3.7251e-06
3.68546e-06
3.72517e-06
3.68553e-06
5.40709e-07
9.84412e-07
9.84426e-07
9.37875e-07
9.3795e-07
3.68546e-06
3.72505e-06
3.68552e-06
3.72513e-06
3.72506e-06
3.68536e-06
3.7252e-06
3.68553e-06
9.37837e-07
9.37925e-07
5.40139e-07
9.84472e-07
9.84488e-07
3.68534e-06
3.725e-06
3.6855e-06
3.72514e-06
5.40686e-07
9.84394e-07
9.84423e-07
9.37855e-07
9.37939e-07
8.02268e-07
2.51311e-06
7.50156e-07
2.48729e-06
5.61429e-07
7.3398e-07
4.97494e-07
5.01536e-07
5.50782e-07
8.11805e-07
4.97494e-07
5.6143e-07
7.3404e-07
4.97494e-07
5.01537e-07
5.50781e-07
8.11847e-07
4.97493e-07
7.50171e-07
2.48727e-06
2.513e-06
8.0222e-07
7.50173e-07
2.48728e-06
2.51307e-06
8.0222e-07
5.50792e-07
5.01541e-07
8.11745e-07
4.97494e-07
7.34004e-07
4.97494e-07
5.61422e-07
5.50792e-07
5.01539e-07
8.11787e-07
4.97494e-07
7.34049e-07
4.97494e-07
5.61421e-07
9.3794e-07
9.37815e-07
5.40151e-07
9.84453e-07
9.84345e-07
3.72494e-06
3.68535e-06
3.68541e-06
3.72503e-06
5.4071e-07
9.84344e-07
9.84301e-07
9.37939e-07
9.3782e-07
3.68533e-06
3.72491e-06
5.61437e-07
7.3403e-07
4.97494e-07
5.01533e-07
5.50782e-07
8.11865e-07
4.97494e-07
8.02286e-07
2.51333e-06
7.50172e-07
2.48752e-06
5.61439e-07
4.97494e-07
7.34072e-07
5.01542e-07
5.50786e-07
4.97494e-07
8.11899e-07
7.50184e-07
2.4874e-06
2.5132e-06
8.02283e-07
5.50791e-07
5.01535e-07
8.1182e-07
4.97493e-07
7.34044e-07
4.97494e-07
5.61435e-07
7.50186e-07
2.48751e-06
2.5133e-06
8.02277e-07
5.50793e-07
5.01541e-07
4.97494e-07
8.11863e-07
4.97494e-07
7.34083e-07
5.61436e-07
8.02133e-07
2.51303e-06
7.50165e-07
2.48732e-06
5.61426e-07
4.97494e-07
7.34022e-07
5.01542e-07
5.50799e-07
4.97494e-07
8.11745e-07
8.02133e-07
2.51315e-06
7.50166e-07
2.48743e-06
5.50795e-07
5.01534e-07
8.117e-07
4.97494e-07
7.3398e-07
4.97494e-07
5.61428e-07
7.50164e-07
2.48731e-06
2.51303e-06
8.02167e-07
5.50798e-07
5.01536e-07
4.97494e-07
8.11714e-07
4.97494e-07
7.34023e-07
5.61427e-07
7.50166e-07
2.48742e-06
2.51314e-06
8.0216e-07
9.37996e-07
9.37857e-07
5.4016e-07
9.84518e-07
9.84418e-07
3.72507e-06
3.68545e-06
3.68557e-06
3.7252e-06
5.40719e-07
9.84451e-07
9.84367e-07
9.38e-07
9.37862e-07
3.68544e-06
3.72504e-06
5.61435e-07
4.97494e-07
7.3406e-07
5.01532e-07
5.50807e-07
4.97493e-07
8.11795e-07
8.02157e-07
2.51316e-06
7.50179e-07
2.48744e-06
8.02166e-07
2.51321e-06
7.50184e-07
2.48744e-06
5.50803e-07
5.01538e-07
4.97494e-07
8.11739e-07
4.97494e-07
7.34004e-07
5.61437e-07
5.50802e-07
5.0154e-07
4.97494e-07
8.11779e-07
4.97494e-07
7.34057e-07
5.61436e-07
7.50177e-07
2.48743e-06
2.51315e-06
8.02199e-07
7.50177e-07
2.48744e-06
2.51321e-06
8.02201e-07
3.72503e-06
3.68545e-06
3.72509e-06
3.68552e-06
5.40712e-07
9.84326e-07
9.84334e-07
9.37876e-07
9.37946e-07
3.68545e-06
3.72499e-06
3.68552e-06
3.72506e-06
3.72499e-06
3.68534e-06
3.72515e-06
3.68549e-06
9.37842e-07
9.37929e-07
5.40141e-07
9.84358e-07
9.84384e-07
3.68535e-06
3.72502e-06
3.68551e-06
3.72517e-06
5.40696e-07
9.84406e-07
9.84415e-07
9.37836e-07
9.37923e-07
8.02224e-07
2.51306e-06
7.50171e-07
2.48727e-06
5.61423e-07
7.33996e-07
4.97493e-07
5.01535e-07
5.50796e-07
8.11729e-07
4.97494e-07
5.61422e-07
7.34032e-07
4.97494e-07
5.01537e-07
5.50794e-07
8.11792e-07
4.97494e-07
7.50171e-07
2.48726e-06
2.51301e-06
8.0222e-07
7.5017e-07
2.48728e-06
2.51306e-06
8.02221e-07
5.50793e-07
5.01536e-07
8.1174e-07
4.97494e-07
7.3399e-07
4.97493e-07
5.6142e-07
5.50792e-07
5.01541e-07
8.11812e-07
4.97494e-07
7.34025e-07
4.97494e-07
5.6142e-07
9.3792e-07
9.37807e-07
5.40142e-07
9.84319e-07
9.84275e-07
3.72494e-06
3.68534e-06
3.68544e-06
3.72511e-06
5.40701e-07
9.84403e-07
9.84375e-07
9.37915e-07
9.37796e-07
3.68535e-06
3.72506e-06
5.61431e-07
7.34038e-07
4.97494e-07
5.01532e-07
5.50799e-07
8.11802e-07
4.97493e-07
8.02276e-07
2.5133e-06
7.50192e-07
2.48751e-06
5.61433e-07
4.97494e-07
7.34072e-07
5.01541e-07
5.50801e-07
4.97494e-07
8.11861e-07
7.50191e-07
2.4874e-06
2.5132e-06
8.02272e-07
5.50798e-07
5.01536e-07
8.11812e-07
4.97493e-07
7.34033e-07
4.97494e-07
5.61433e-07
7.50191e-07
2.48752e-06
2.5133e-06
8.02266e-07
5.50801e-07
5.0154e-07
4.97494e-07
8.11864e-07
4.97494e-07
7.34066e-07
5.61433e-07
8.02236e-07
2.51302e-06
7.50167e-07
2.4873e-06
5.61428e-07
4.97494e-07
7.34003e-07
5.01542e-07
5.50794e-07
4.97494e-07
8.11765e-07
8.02242e-07
2.51316e-06
7.50167e-07
2.48742e-06
5.50791e-07
5.01534e-07
8.11748e-07
4.97494e-07
7.33961e-07
4.97494e-07
5.6143e-07
7.50172e-07
2.48729e-06
2.51305e-06
8.02267e-07
5.50793e-07
5.01537e-07
4.97494e-07
8.11803e-07
4.97494e-07
7.34004e-07
5.6143e-07
7.50173e-07
2.48741e-06
2.51317e-06
8.02274e-07
9.37984e-07
9.37844e-07
5.40154e-07
9.84429e-07
9.84379e-07
3.7251e-06
3.68545e-06
3.6856e-06
3.72527e-06
5.40715e-07
9.84487e-07
9.84428e-07
9.3798e-07
9.37846e-07
3.68546e-06
3.72516e-06
5.61434e-07
4.97494e-07
7.34035e-07
5.01532e-07
5.50799e-07
4.97494e-07
8.11829e-07
8.02266e-07
2.51316e-06
7.50181e-07
2.48742e-06
8.0226e-07
2.51322e-06
7.5018e-07
2.48743e-06
5.50797e-07
5.01539e-07
4.97494e-07
8.11768e-07
4.97494e-07
7.33993e-07
5.61435e-07
5.50794e-07
5.01539e-07
4.97494e-07
8.11871e-07
4.97494e-07
7.34036e-07
5.61435e-07
7.50184e-07
2.48742e-06
2.51317e-06
8.02276e-07
7.50181e-07
2.48742e-06
2.51324e-06
8.02292e-07
3.72512e-06
3.68546e-06
3.7252e-06
3.68553e-06
5.40704e-07
9.8445e-07
9.84454e-07
9.37855e-07
9.37924e-07
3.68547e-06
3.72519e-06
3.68554e-06
3.72527e-06
3.72503e-06
3.68536e-06
3.72518e-06
3.6855e-06
9.37844e-07
9.37931e-07
5.40137e-07
9.84424e-07
9.84422e-07
3.68534e-06
3.72497e-06
3.68548e-06
3.72512e-06
5.40688e-07
9.84362e-07
9.84372e-07
9.37857e-07
9.37937e-07
8.02284e-07
2.51309e-06
7.50166e-07
2.48728e-06
5.61426e-07
7.3399e-07
4.97494e-07
5.0154e-07
5.50788e-07
8.11765e-07
4.97494e-07
5.61425e-07
7.34031e-07
4.97494e-07
5.01538e-07
5.50786e-07
8.11843e-07
4.97494e-07
7.50185e-07
2.48726e-06
2.51298e-06
8.02165e-07
7.50182e-07
2.48728e-06
2.51306e-06
8.02161e-07
5.50806e-07
5.01541e-07
8.11715e-07
4.97494e-07
7.34008e-07
4.97494e-07
5.61425e-07
5.50803e-07
5.01543e-07
8.11792e-07
4.97494e-07
7.34047e-07
4.97494e-07
5.61423e-07
9.37926e-07
9.37817e-07
5.40132e-07
9.84413e-07
9.84357e-07
3.72503e-06
3.68533e-06
3.68543e-06
3.72508e-06
5.40694e-07
9.84371e-07
9.84309e-07
9.37932e-07
9.37821e-07
3.68533e-06
3.72495e-06
5.61434e-07
7.34035e-07
4.97493e-07
5.01532e-07
5.50795e-07
8.1183e-07
4.97493e-07
8.02295e-07
2.51333e-06
7.50187e-07
2.48751e-06
5.61434e-07
4.97494e-07
7.34069e-07
5.01538e-07
5.50797e-07
4.97493e-07
8.1188e-07
7.502e-07
2.4874e-06
2.51318e-06
8.02212e-07
5.50809e-07
5.01535e-07
8.11788e-07
4.97494e-07
7.34049e-07
4.97494e-07
5.61436e-07
7.50199e-07
2.48752e-06
2.5133e-06
8.02206e-07
5.50809e-07
5.01539e-07
4.97494e-07
8.11851e-07
4.97494e-07
7.34085e-07
5.61435e-07
8.02278e-07
2.51305e-06
7.50176e-07
2.48729e-06
5.61427e-07
4.97494e-07
7.34013e-07
5.01536e-07
5.50795e-07
4.97494e-07
8.11785e-07
8.02277e-07
2.51318e-06
7.50179e-07
2.48741e-06
5.50804e-07
5.01532e-07
8.11691e-07
4.97494e-07
7.33982e-07
4.97493e-07
5.61426e-07
7.50183e-07
2.4873e-06
2.51303e-06
8.02182e-07
5.50805e-07
5.01535e-07
4.97493e-07
8.11759e-07
4.97493e-07
7.3402e-07
5.61426e-07
7.50184e-07
2.48741e-06
2.51316e-06
8.02198e-07
9.37991e-07
9.37854e-07
5.40154e-07
9.84492e-07
9.84431e-07
3.72516e-06
3.68544e-06
3.68559e-06
3.72523e-06
5.40715e-07
9.84475e-07
9.84432e-07
9.37999e-07
9.37864e-07
3.68544e-06
3.72509e-06
5.61437e-07
4.97494e-07
7.34048e-07
5.01537e-07
5.50799e-07
4.97494e-07
8.11857e-07
8.02309e-07
2.51318e-06
7.50189e-07
2.48741e-06
8.02314e-07
2.51323e-06
7.5019e-07
2.48742e-06
5.50812e-07
5.01539e-07
4.97494e-07
8.11745e-07
4.97494e-07
7.34008e-07
5.61437e-07
5.50812e-07
5.01537e-07
4.97493e-07
8.11815e-07
4.97494e-07
7.34057e-07
5.61435e-07
7.50195e-07
2.48743e-06
2.51317e-06
8.02201e-07
7.50195e-07
2.48743e-06
2.51321e-06
8.02207e-07
3.72517e-06
3.68545e-06
3.72525e-06
3.68551e-06
5.40707e-07
9.84408e-07
9.84411e-07
9.37868e-07
9.3794e-07
3.68545e-06
3.7251e-06
3.68552e-06
3.72516e-06
3.72494e-06
3.68533e-06
3.72507e-06
3.68548e-06
9.37856e-07
9.37934e-07
5.40144e-07
9.84339e-07
9.84354e-07
3.68536e-06
3.72497e-06
3.6855e-06
3.7251e-06
5.40691e-07
9.84373e-07
9.84385e-07
9.37843e-07
9.37925e-07
8.02143e-07
2.51306e-06
7.50164e-07
2.4873e-06
5.61424e-07