/*--------------------------------*- C++ -*----------------------------------*\
| =========                 |                                                 |
| \\      /  F ield         | OpenFOAM: The Open Source CFD Toolbox           |
|  \\    /   O peration     | Version:  2206                                  |
|   \\  /    A nd           | Website:  www.openfoam.com                      |
|    \\/     M anipulation  |                                                 |
\*---------------------------------------------------------------------------*/
FoamFile
{
    version     2.0;
    format      ascii;
    arch        "LSB;label=32;scalar=64";
    class       surfaceScalarField;
    location    "3";
    object      phi;
}
// * * * * * * * * * * * * * * * * * * * * * * * * * * * * * * * * * * * * * //

dimensions      [0 3 -1 0 0 0 0];

oriented        oriented;

internalField   nonuniform List<scalar> 
81851
(
-1.18285e-06
-1.18232e-06
1.0606e-06
1.0659e-06
-1.34716e-07
1.2745e-06
1.27382e-06
1.39264e-07
-1.15348e-06
-1.15609e-06
-3.78021e-07
-2.41313e-07
4.81965e-07
1.18241e-06
-5.62824e-07
8.29918e-07
1.04346e-06
-1.09456e-06
7.84871e-07
-1.1468e-06
4.29398e-07
-2.39232e-07
4.78771e-07
1.18213e-06
-5.62336e-07
8.27505e-07
1.04354e-06
-1.09468e-06
7.86309e-07
-1.14707e-06
4.05838e-07
-1.2729e-06
-2.34835e-07
4.81626e-07
1.18064e-06
-5.62023e-07
8.26848e-07
1.04122e-06
-1.09609e-06
7.83521e-07
-1.14828e-06
4.35187e-07
1.27661e-06
1.37781e-07
-1.15716e-06
-1.15381e-06
-3.76319e-07
-2.39618e-07
4.83495e-07
1.18157e-06
-5.63916e-07
8.28794e-07
1.04286e-06
-1.09467e-06
-1.14696e-06
7.84465e-07
4.06095e-07
-2.42157e-07
8.30866e-07
-1.27386e-06
-5.62385e-07
7.85316e-07
-1.09463e-06
4.78481e-07
4.29521e-07
-1.14681e-06
1.04451e-06
-2.3995e-07
8.28354e-07
-1.27351e-06
-5.62258e-07
-1.14661e-06
7.86345e-07
-1.09455e-06
1.0442e-06
4.7593e-07
4.0475e-07
-2.34506e-07
-2.42889e-07
1.08992e-06
-2.35706e-07
-2.3703e-07
1.08778e-06
-2.35742e-07
-2.40953e-07
1.07627e-06
-4.15658e-07
-1.01534e-07
1.42804e-07
-6.04069e-09
3.07693e-07
-4.1527e-07
-1.03021e-07
1.42978e-07
-5.01484e-09
3.08161e-07
2.57298e-07
-7.26069e-08
-1.52988e-07
-3.17035e-08
2.55375e-07
-7.09464e-08
-1.5233e-07
-3.20983e-08
3.91907e-07
4.54524e-07
-3.0651e-07
-2.09633e-07
-7.29899e-08
3.93608e-07
4.52537e-07
-3.06011e-07
-2.11465e-07
-7.32939e-08
1.00501e-06
-2.69783e-07
-7.52606e-07
-5.52283e-08
-3.13915e-10
4.02427e-07
-2.26753e-07
-2.51753e-07
1.64444e-07
-8.80507e-08
4.0161e-07
-2.2651e-07
-2.51438e-07
1.6389e-07
-8.78662e-08
8.79668e-07
-1.73046e-07
7.24957e-07
-3.46595e-08
4.47288e-10
2.27893e-07
1.103e-06
-9.3305e-07
1.0719e-06
-9.86189e-07
6.47385e-07
-9.93427e-11
-1.17065e-07
-1.31155e-07
7.50338e-07
-9.95915e-08
1.10394e-06
-9.29822e-07
1.07256e-06
-9.8198e-07
6.53469e-07
-1.16609e-07
-1.30727e-07
7.47858e-07
-9.90124e-08
1.00553e-06
-2.69661e-07
-7.5129e-07
-5.55265e-08
4.02964e-07
1.49134e-09
-2.25645e-07
1.62316e-07
-2.51924e-07
-8.92017e-08
8.79585e-07
-1.72923e-07
7.27237e-07
-3.47588e-08
-9.89323e-10
2.34201e-07
1.10091e-06
-9.35855e-07
1.06909e-06
-9.87592e-07
6.49239e-07
2.23553e-09
-1.17971e-07
-1.33904e-07
7.5254e-07
-9.99363e-08
1.00462e-06
7.13811e-08
-2.68374e-07
-7.52017e-07
-5.56112e-08
4.0243e-07
-2.26365e-07
-2.5091e-07
1.65247e-07
-8.89118e-08
2.36717e-07
1.10008e-06
-9.35877e-07
1.06887e-06
-9.87849e-07
6.48994e-07
-3.91886e-07
8.80047e-07
-1.7339e-07
7.24569e-07
-3.47186e-08
-1.18703e-07
7.52421e-07
-1.29515e-07
-9.95367e-08
2.55229e-07
-1.51606e-07
-3.22421e-08
4.5294e-07
-3.06338e-07
-2.10025e-07
-7.32328e-08
-2.5713e-07
3.91428e-07
4.53776e-07
-3.06419e-07
-2.08806e-07
-7.28491e-08
-7.32053e-08
-1.51092e-07
-3.28325e-08
2.33744e-07
1.10174e-06
-9.34657e-07
-9.86934e-07
1.07028e-06
6.48441e-07
-1.00486e-06
8.79315e-07
-1.7338e-07
7.24602e-07
-3.42516e-08
-4.02289e-07
-1.21477e-07
7.5255e-07
-1.3108e-07
-9.72039e-08
-2.67012e-07
-7.54002e-07
-5.70493e-08
-2.28205e-07
1.65145e-07
-2.51105e-07
-8.71702e-08
9.56036e-07
-7.10279e-07
1.76985e-07
-8.70987e-07
2.84282e-07
2.63315e-07
3.49708e-07
9.58145e-07
-7.12004e-07
-8.70143e-07
1.75908e-07
2.86238e-07
3.48957e-07
2.63968e-07
1.48479e-07
1.48712e-07
-1.92985e-07
-2.80908e-07
-5.97649e-07
2.52375e-07
8.753e-07
-5.61337e-08
-5.81248e-07
1.87697e-07
-2.24214e-07
6.6896e-07
-9.02876e-07
2.19442e-07
6.5325e-07
4.53651e-07
-2.11188e-07
-2.54149e-07
3.91006e-07
-7.1627e-08
-3.4089e-07
-1.39282e-06
5.7224e-07
-1.20907e-07
-9.08923e-08
-5.65547e-07
-2.38487e-08
-1.92575e-07
-2.77407e-07
-5.97341e-07
2.5021e-07
8.73505e-07
-5.63927e-08
-5.79713e-07
1.86219e-07
-2.26273e-07
6.70086e-07
-9.03244e-07
2.19395e-07
6.54925e-07
4.51506e-07
-2.11195e-07
-2.52967e-07
3.92405e-07
-7.15861e-08
-3.38329e-07
-1.39391e-06
5.70253e-07
-1.18113e-07
-9.18227e-08
-5.65248e-07
-2.38927e-08
-2.67177e-07
4.18715e-07
4.18499e-07
-6.74495e-08
5.06577e-07
1.24011e-07
5.08378e-07
1.23802e-07
-2.28199e-08
-2.29469e-08
1.00645e-07
-2.84868e-07
1.02467e-07
-2.86483e-07
9.03923e-07
5.81254e-07
1.87903e-07
-3.40971e-07
-1.39233e-06
-1.80033e-07
2.79136e-07
5.70807e-07
-1.19665e-07
-9.57209e-08
-4.87048e-09
1.41919e-07
-4.16135e-07
-2.24292e-07
5.99329e-07
-5.63824e-07
-2.08445e-08
6.54108e-07
-2.22941e-07
6.69533e-07
2.50412e-07
8.75906e-07
-5.99495e-08
9.04214e-07
5.79795e-07
1.87716e-07
-3.38764e-07
-1.39316e-06
-1.79415e-07
2.75909e-07
5.69181e-07
-1.17015e-07
-9.61232e-08
-4.67844e-09
1.42848e-07
-4.15078e-07
-2.23973e-07
5.98481e-07
-5.64655e-07
-2.13164e-08
6.55135e-07
-2.24466e-07
6.70857e-07
2.48084e-07
8.7411e-07
-6.00875e-08
-5.06609e-07
-5.07839e-07
2.65084e-07
-1.26855e-07
-4.16119e-07
-2.0849e-08
-1.26802e-07
-4.16825e-07
-2.10278e-08
-6.93598e-08
1.29586e-07
-1.48316e-07
-1.05843e-08
3.48989e-07
-9.58206e-07
-2.61416e-07
-3.21981e-07
-3.06685e-07
2.33659e-07
-9.61834e-08
-1.02585e-07
-2.92465e-08
1.28386e-07
-3.4634e-07
2.17389e-07
-4.59742e-09
-2.61653e-07
3.0465e-07
-8.1887e-08
2.67587e-10
-5.38718e-07
4.88695e-08
-2.52515e-07
-5.64653e-10
-4.75427e-08
-2.02186e-07
-2.26658e-07
3.69312e-07
-8.27087e-08
-3.85111e-08
3.39848e-10
-5.25474e-07
-1.48112e-07
1.2969e-07
-1.16841e-08
-3.19056e-07
-2.59829e-07
-3.06036e-07
2.33283e-07
-9.76692e-08
1.26757e-07
-3.4532e-07
-1.0179e-07
-2.83516e-08
-4.6717e-09
-2.61843e-07
2.16908e-07
3.04125e-07
-8.09714e-08
-5.38712e-07
-2.52131e-07
4.76656e-08
-4.75379e-08
-2.2493e-07
-2.01896e-07
3.68148e-07
-8.34693e-08
-5.25644e-07
-3.91116e-08
1.30685e-07
-1.47247e-07
-1.19385e-08
3.48505e-07
-9.58953e-07
-2.6315e-07
-3.19376e-07
-3.04544e-07
2.33928e-07
-9.81479e-08
-1.03727e-07
-2.87393e-08
1.29537e-07
-3.45553e-07
2.18633e-07
-2.61459e-07
-6.69826e-09
-8.34198e-08
3.0544e-07
1.74753e-09
-5.38549e-07
-2.03296e-07
-2.2502e-07
3.70197e-07
-8.41082e-08
5.05939e-08
-2.54002e-07
-2.40634e-09
-4.61085e-08
-3.77949e-08
-5.24689e-07
-2.04351e-09
-1.49188e-07
1.29382e-07
-9.9435e-09
3.48119e-07
2.8651e-07
-9.58777e-07
-3.21434e-07
-2.59285e-07
-3.07261e-07
2.32815e-07
-9.6852e-08
1.27391e-07
-3.46504e-07
-1.0092e-07
-2.89826e-08
-2.68499e-09
-2.63367e-07
2.17584e-07
3.05585e-07
-8.02952e-08
-5.38466e-07
-2.53848e-07
4.65854e-08
-4.60523e-08
-2.26293e-07
-2.00999e-07
3.68774e-07
-8.34947e-08
-5.25593e-07
-3.775e-08
1.02393e-07
5.79341e-07
9.0404e-07
1.87844e-07
-3.38826e-07
-1.39224e-06
-1.79835e-07
2.77245e-07
5.70661e-07
-1.19198e-07
-9.59325e-08
1.43659e-07
-4.16808e-09
-4.16242e-07
-2.23144e-07
5.9944e-07
-5.64456e-07
-2.18653e-08
-2.22757e-07
6.69769e-07
6.55724e-07
2.49086e-07
8.75322e-07
-5.98785e-08
9.03372e-07
5.82117e-07
1.89403e-07
-3.4175e-07
-1.39225e-06
-1.82679e-07
2.78439e-07
5.70513e-07
-1.18326e-07
-9.41703e-08
-4.83501e-09
1.42077e-07
-1.01751e-07
-4.15135e-07
-2.20911e-07
5.98624e-07
-5.63506e-07
-2.30127e-08
6.54363e-07
-2.23684e-07
6.70489e-07
2.50007e-07
8.75252e-07
-5.87924e-08
-5.08279e-07
-5.06952e-07
2.64463e-07
-1.26395e-07
-4.1683e-07
-2.12316e-08
-1.2562e-07
-4.16253e-07
-2.16328e-08
-6.95259e-08
-2.85545e-07
-1.47756e-07
1.29471e-07
-1.05377e-08
3.4902e-07
-9.57727e-07
-3.20764e-07
-2.62114e-07
-3.0759e-07
2.33435e-07
-9.69699e-08
1.28693e-07
-3.45716e-07
-1.02862e-07
-2.97804e-08
-2.60441e-07
-4.43933e-09
2.15572e-07
-8.23272e-08
3.02991e-07
-5.37336e-07
-2.27176e-07
-2.02143e-07
3.69292e-07
-8.24194e-08
-2.49923e-07
4.92631e-08
-4.95578e-08
-5.24328e-07
-4.01711e-08
7.13754e-08
1.00364e-06
-7.52864e-07
-5.88328e-08
-1.2807e-07
2.59498e-07
-1.01389e-07
-3.0039e-08
1.47988e-07
3.21615e-07
-3.46267e-07
1.2882e-07
-7.51459e-07
7.02424e-08
1.00354e-06
-5.83585e-08
-1.06657e-08
2.32257e-07
-3.06228e-07
-9.63757e-08
-3.4294e-08
-3.40127e-08
-9.47039e-08
9.48563e-07
9.51737e-07
-5.67894e-08
1.46966e-06
4.04994e-08
1.46944e-06
4.00694e-08
-1.15412e-06
-1.15625e-06
-3.71712e-07
-1.55208e-07
-1.56449e-07
-1.46753e-06
-1.46752e-06
8.77439e-08
1.05963e-06
1.0648e-06
-3.55796e-08
-9.48142e-07
-1.61773e-07
-3.44667e-08
-9.50811e-07
-1.63964e-07
-6.11939e-08
-1.4675e-06
-1.46662e-06
8.8556e-08
1.06238e-06
1.06052e-06
-3.63e-08
-9.50257e-07
-1.61964e-07
-3.60682e-08
-9.49658e-07
-1.61484e-07
-6.07857e-08
-4.1439e-09
4.23375e-07
-2.78327e-09
-3.44048e-09
4.24955e-07
-8.64011e-10
3.59408e-07
9.9129e-10
4.24447e-07
-5.80858e-10
4.19439e-07
3.57713e-07
-4.80283e-07
9.72947e-07
5.40533e-08
2.79306e-07
-1.63346e-07
-7.29547e-08
-9.82547e-08
-7.11409e-07
-8.71364e-07
-1.32271e-07
8.29023e-07
3.49305e-07
-8.74418e-08
-4.65735e-07
-1.20913e-07
-2.15765e-07
1.01665e-06
1.10161e-07
2.65003e-08
1.84894e-07
-9.41819e-07
3.49374e-10
-1.08224e-07
7.96441e-07
-1.00755e-07
-4.14847e-08
5.66063e-08
-7.12657e-10
-1.97122e-07
5.13405e-10
-2.27555e-07
9.7121e-07
5.31627e-08
2.77947e-07
-1.29308e-07
8.27639e-07
3.48078e-07
-8.87397e-08
-4.68071e-07
-1.19905e-07
-2.18383e-07
1.01669e-06
1.08709e-07
2.60023e-08
1.85846e-07
-9.41754e-07
-1.06313e-07
7.92795e-07
-1.00985e-07
-4.19961e-08
5.49123e-08
-1.95593e-07
-2.28175e-07
-4.82783e-07
9.71938e-07
5.08701e-08
2.81677e-07
-1.60594e-07
-7.14249e-08
-1.00087e-07
-7.12863e-07
-8.6953e-07
-1.29968e-07
8.28582e-07
3.51549e-07
-8.89981e-08
-4.62911e-07
-1.18117e-07
-2.2092e-07
1.01557e-06
1.12276e-07
2.71384e-08
1.81859e-07
-9.40299e-07
2.41871e-09
-1.08592e-07
7.97455e-07
-1.01021e-07
-4.17831e-08
5.39525e-08
2.27221e-09
-1.97756e-07
1.49171e-09
-2.27162e-07
9.71498e-07
-4.80375e-07
5.39975e-08
2.79482e-07
-1.62849e-07
-7.35438e-08
-9.88433e-08
-8.71802e-07
-7.11027e-07
-1.3163e-07
8.29151e-07
3.48258e-07
-8.83942e-08
-4.66532e-07
-1.22087e-07
-2.16584e-07
1.09483e-07
1.01483e-06
2.63118e-08
-9.40287e-07
1.86412e-07
-4.2257e-08
5.78779e-08
-1.96805e-07
-1.07966e-07
7.97104e-07
-1.01622e-07
-2.28642e-07
5.34745e-08
-4.81806e-07
9.72125e-07
2.80739e-07
-7.19684e-08
-1.62786e-07
-9.89221e-08
-7.10785e-07
-8.70212e-07
8.28958e-07
-1.32826e-07
3.4878e-07
-8.6875e-08
-1.20058e-07
-2.16441e-07
-4.64771e-07
2.93354e-08
1.11358e-07
1.01675e-06
-9.41981e-07
1.84072e-07
5.61369e-08
-4.43423e-08
-1.94031e-07
7.97685e-07
-1.12189e-07
-9.85032e-08
-2.23834e-07
1.69674e-07
4.78929e-07
8.79268e-07
7.23793e-07
-3.14332e-08
-7.19957e-08
-9.45964e-08
7.05217e-08
-5.55646e-08
-8.28621e-07
-1.18809e-07
-2.14134e-07
1.67609e-07
4.80107e-07
-9.73497e-07
1.34458e-07
-4.63992e-07
8.78549e-07
7.25834e-07
-3.25267e-08
-9.59818e-08
2.80078e-07
3.49855e-07
-8.5926e-08
1.18341e-06
4.78956e-07
3.91883e-07
8.31052e-07
-1.27634e-06
-5.64457e-07
-1.14794e-06
7.87061e-07
-1.09475e-06
1.04575e-06
-3.95408e-07
-2.39211e-07
-1.1815e-06
1.06066e-06
1.0654e-06
-1.36167e-07
3.74801e-07
-1.1832e-06
2.34285e-07
2.37852e-07
-2.3646e-07
-2.35569e-07
1.06095e-06
-1.06106e-06
1.18261e-06
-2.36354e-07
4.83812e-07
3.88086e-07
8.30758e-07
-1.27873e-06
-5.65987e-07
-1.15023e-06
7.86105e-07
-1.09729e-06
1.04529e-06
-3.88076e-07
-3.87012e-07
1.18232e-06
-2.34746e-07
4.82552e-07
3.87755e-07
8.30888e-07
-1.2784e-06
-5.66087e-07
-1.15067e-06
7.85757e-07
1.04505e-06
-1.09741e-06
3.72875e-07
-1.18231e-06
-1.18175e-06
1.06062e-06
1.06564e-06
-1.35071e-07
2.32479e-07
2.33718e-07
-1.05455e-06
-2.31741e-07
-2.36203e-07
1.05629e-06
-3.8667e-07
1.18268e-06
-2.36712e-07
4.83054e-07
3.87703e-07
8.31173e-07
-1.27819e-06
-5.65306e-07
-1.15047e-06
7.85608e-07
1.04477e-06
-1.09765e-06
-3.87386e-07
1.18151e-06
-2.33576e-07
4.86737e-07
3.88973e-07
8.30463e-07
-1.27831e-06
-5.6562e-07
-1.15147e-06
7.8405e-07
1.04334e-06
-1.09871e-06
3.72012e-07
-1.18052e-06
-1.18032e-06
1.05971e-06
1.06471e-06
-1.35592e-07
2.30734e-07
2.27689e-07
-1.07085e-06
-2.28987e-07
-2.35142e-07
1.07655e-06
-3.91725e-07
1.18225e-06
-2.4048e-07
4.84998e-07
3.92997e-07
8.30811e-07
-1.27814e-06
-5.64858e-07
-1.14931e-06
7.85543e-07
1.04464e-06
-1.09673e-06
-3.92637e-07
1.18197e-06
-2.40827e-07
4.86757e-07
3.9382e-07
8.3087e-07
-1.27764e-06
-5.64334e-07
-1.14931e-06
7.84497e-07
1.0438e-06
-1.09697e-06
3.71065e-07
-1.18255e-06
-1.18247e-06
1.06168e-06
1.06644e-06
-1.3416e-07
2.36615e-07
2.36434e-07
-1.07857e-06
-2.34782e-07
-2.37716e-07
1.07802e-06
-3.95167e-07
1.18127e-06
-2.33382e-07
4.84902e-07
3.95038e-07
8.29465e-07
-1.27762e-06
-5.65105e-07
-1.14999e-06
7.84516e-07
1.0434e-06
-1.09733e-06
-3.96121e-07
1.18097e-06
-2.33697e-07
4.86188e-07
3.96028e-07
8.29291e-07
-1.27741e-06
-5.64871e-07
-1.14965e-06
7.8376e-07
1.04264e-06
-1.09713e-06
3.7079e-07
-1.17983e-06
-1.17989e-06
1.05974e-06
1.06416e-06
-1.34974e-07
2.36282e-07
2.3798e-07
-1.08056e-06
-2.36432e-07
-2.37021e-07
1.07975e-06
-3.99134e-07
1.18229e-06
-2.38027e-07
4.82141e-07
3.99324e-07
8.30089e-07
-1.27696e-06
-5.63822e-07
-1.14847e-06
7.85089e-07
1.04363e-06
-1.09615e-06
-4.0014e-07
1.18225e-06
-2.39013e-07
4.81932e-07
4.00156e-07
8.30107e-07
-1.2764e-06
-5.63564e-07
-1.14783e-06
7.84663e-07
1.04336e-06
-1.09552e-06
3.74847e-07
-1.18093e-06
-1.18111e-06
1.05983e-06
1.0641e-06
-1.3674e-07
2.33747e-07
2.37268e-07
-1.06889e-06
-2.35399e-07
-2.34836e-07
1.06811e-06
-3.9327e-07
1.18205e-06
-2.37291e-07
4.84162e-07
3.92105e-07
8.30404e-07
-1.2778e-06
-5.65161e-07
-1.14905e-06
7.85628e-07
1.0447e-06
-1.09648e-06
-3.94806e-07
1.18222e-06
-2.38973e-07
4.82674e-07
3.94265e-07
8.30584e-07
-1.2772e-06
-5.64788e-07
-1.1486e-06
7.85692e-07
1.04465e-06
-1.09573e-06
3.72119e-07
-1.18205e-06
-1.18212e-06
1.06118e-06
1.06558e-06
-1.34705e-07
2.34789e-07
2.36802e-07
-1.07179e-06
-2.36034e-07
-2.37698e-07
1.07393e-06
-3.92688e-07
1.18125e-06
-2.3453e-07
4.85468e-07
3.94146e-07
8.29413e-07
-1.27846e-06
-5.65631e-07
-1.15005e-06
7.84856e-07
1.04362e-06
-1.09739e-06
-3.92673e-07
1.18127e-06
-2.3488e-07
4.8528e-07
3.9417e-07
8.29615e-07
-1.27814e-06
-5.65695e-07
-1.15007e-06
7.84717e-07
1.0435e-06
-1.0971e-06
3.71518e-07
-1.18066e-06
-1.1805e-06
1.05998e-06
1.06465e-06
-1.34985e-07
2.39451e-07
2.36704e-07
-1.07319e-06
-2.35058e-07
-2.40676e-07
1.07277e-06
-3.94077e-07
1.18223e-06
-2.37654e-07
4.83043e-07
3.9344e-07
8.30444e-07
-1.27754e-06
-5.64707e-07
-1.14921e-06
7.85805e-07
1.0448e-06
-1.09657e-06
-3.9348e-07
1.18152e-06
-2.37406e-07
4.85391e-07
3.93785e-07
8.30232e-07
-1.27778e-06
-5.64895e-07
-1.1496e-06
7.85036e-07
1.04418e-06
-1.09698e-06
3.71647e-07
-1.18258e-06
-1.18244e-06
1.06158e-06
1.06635e-06
-1.34559e-07
2.36721e-07
2.36648e-07
-1.06122e-06
-2.34398e-07
-2.37689e-07
1.05994e-06
-3.89598e-07
1.18273e-06
-2.36647e-07
4.82253e-07
3.88698e-07
8.30956e-07
-1.2779e-06
-5.654e-07
-1.14984e-06
7.86358e-07
1.04518e-06
-1.09679e-06
-3.89888e-07
1.18191e-06
-2.36049e-07
4.83972e-07
3.89521e-07
8.30499e-07
-1.27776e-06
-5.65271e-07
-1.14985e-06
7.85356e-07
1.0444e-06
-1.09684e-06
3.70298e-07
-1.1809e-06
-1.18089e-06
1.06071e-06
1.06532e-06
-1.34536e-07
2.32913e-07
2.3478e-07
-1.06807e-06
-2.33922e-07
-2.35027e-07
1.06933e-06
-3.90048e-07
1.18244e-06
-2.37633e-07
4.83291e-07
3.90492e-07
8.30782e-07
-1.27823e-06
-5.65502e-07
-1.14976e-06
7.85979e-07
1.04509e-06
-1.09691e-06
-3.90244e-07
1.18202e-06
-2.36919e-07
4.84055e-07
3.90848e-07
8.30387e-07
-1.27795e-06
-5.65382e-07
-1.14963e-06
7.85178e-07
1.04436e-06
-1.09672e-06
3.70433e-07
-1.18079e-06
-1.18082e-06
1.06046e-06
1.06497e-06
-1.34256e-07
2.31987e-07
2.35749e-07
-1.07384e-06
-2.35791e-07
-2.35506e-07
1.0774e-06
-3.93528e-07
1.18081e-06
-2.34917e-07
4.87442e-07
3.95271e-07
8.29352e-07
-1.27865e-06
-5.65404e-07
-1.15008e-06
7.84309e-07
1.04326e-06
-1.09788e-06
-3.94181e-07
1.18071e-06
-2.35959e-07
4.86771e-07
3.96322e-07
8.294e-07
-1.27828e-06
-5.65235e-07
-1.14961e-06
7.8416e-07
1.04315e-06
-1.09725e-06
3.7387e-07
-1.18074e-06
-1.18089e-06
1.05993e-06
1.06423e-06
-1.36413e-07
2.37148e-07
2.38465e-07
-1.07405e-06
-2.35719e-07
-2.37392e-07
1.07155e-06
-3.96672e-07
1.18199e-06
-2.36412e-07
4.8297e-07
3.97095e-07
8.29859e-07
-1.27711e-06
-5.64356e-07
-1.14883e-06
7.84646e-07
1.04319e-06
-1.09637e-06
-3.97044e-07
1.18181e-06
-2.36411e-07
4.83084e-07
3.97608e-07
8.29953e-07
-1.27671e-06
-5.64238e-07
-1.14888e-06
7.84204e-07
1.04292e-06
-1.0963e-06
3.72344e-07
-1.18001e-06
-1.18004e-06
1.05952e-06
1.06403e-06
-1.35848e-07
2.3274e-07
2.32223e-07
-1.07968e-06
-2.32073e-07
-2.36161e-07
1.08295e-06
-3.98297e-07
1.18202e-06
-2.39003e-07
4.8368e-07
3.98803e-07
8.30304e-07
-1.27685e-06
-5.63749e-07
-1.14862e-06
7.84581e-07
1.04353e-06
-1.09641e-06
-3.98347e-07
1.1814e-06
-2.38313e-07
4.85592e-07
3.98523e-07
8.30215e-07
-1.27679e-06
-5.63863e-07
-1.1489e-06
7.83894e-07
1.04324e-06
-1.09664e-06
3.73827e-07
-1.18185e-06
-1.18161e-06
1.06032e-06
1.06522e-06
-1.359e-07
2.37834e-07
2.38288e-07
-1.07752e-06
-2.34449e-07
-2.39092e-07
1.07494e-06
-3.97206e-07
1.18263e-06
-2.40002e-07
4.81929e-07
3.95799e-07
8.31035e-07
-1.27667e-06
-5.63675e-07
-1.14833e-06
7.85618e-07
1.04492e-06
-1.09605e-06
-3.96238e-07
1.18081e-06
-2.34178e-07
4.88006e-07
3.95245e-07
8.29448e-07
-1.2777e-06
-5.6476e-07
-1.14961e-06
7.83508e-07
1.04292e-06
-1.09745e-06
3.71606e-07
-1.18288e-06
-1.18256e-06
1.06151e-06
1.06658e-06
-1.34259e-07
2.37461e-07
2.37896e-07
-1.07001e-06
-2.35457e-07
-2.37761e-07
1.06787e-06
-3.9341e-07
1.18284e-06
-2.36785e-07
4.81426e-07
3.92859e-07
8.30945e-07
-1.27712e-06
-5.64641e-07
-1.14955e-06
7.85688e-07
1.04454e-06
-1.09679e-06
-3.95273e-07
1.18284e-06
-2.38402e-07
4.81557e-07
3.94694e-07
8.3089e-07
-1.27678e-06
-5.64242e-07
-1.14865e-06
7.85283e-07
1.04409e-06
-1.09601e-06
3.71673e-07
-1.18081e-06
-1.18085e-06
1.06028e-06
1.06477e-06
-1.35058e-07
2.36092e-07
-1.07001e-06
-2.37765e-07
-2.33706e-07
2.33794e-07
-3.87829e-07
1.1816e-06
-2.33376e-07
4.86203e-07
8.30116e-07
-1.27901e-06
-5.66502e-07
-1.1515e-06
7.84797e-07
1.04393e-06
-1.09852e-06
-3.88631e-07
1.18214e-06
-2.36283e-07
4.83964e-07
8.30873e-07
-1.27813e-06
-5.6559e-07
-1.15059e-06
7.8528e-07
1.0446e-06
-1.09737e-06
3.71495e-07
-1.18169e-06
-1.18192e-06
1.06126e-06
1.06558e-06
-1.34731e-07
1.06481e-06
1.06323e-06
-1.35719e-07
3.73775e-07
-1.18268e-06
1.27833e-06
-3.70854e-07
1.3441e-07
-1.15995e-06
-1.15715e-06
1.27522e-06
4.852e-07
4.00405e-07
8.28592e-07
-1.2736e-06
-5.6244e-07
-1.14936e-06
7.8599e-07
-1.09669e-06
1.04463e-06
-4.1041e-07
-2.33825e-07
-3.86269e-07
4.82193e-07
1.18251e-06
-5.65999e-07
8.31028e-07
1.04543e-06
-1.09717e-06
-1.15048e-06
7.86156e-07
-2.36087e-07
-1.27511e-06
4.07923e-07
-4.12591e-07
4.83741e-07
1.1801e-06
-5.63378e-07
8.28876e-07
1.04553e-06
-1.09737e-06
7.86267e-07
-1.14996e-06
-2.34033e-07
1.35706e-07
-1.15627e-06
-1.15992e-06
1.27826e-06
-1.18155e-06
-1.18144e-06
1.06069e-06
1.06563e-06
-1.35015e-07
3.71688e-07
1.27722e-06
1.27641e-06
-3.69182e-07
1.33117e-07
-1.15737e-06
-1.16019e-06
4.82919e-07
4.14528e-07
8.30613e-07
-1.27783e-06
-5.66103e-07
-1.15119e-06
7.85467e-07
-1.09792e-06
1.04479e-06
-4.1253e-07
1.18141e-06
-2.35164e-07
4.81332e-07
4.16095e-07
8.29128e-07
-1.27551e-06
-5.63978e-07
-1.15118e-06
7.85917e-07
-1.0983e-06
1.04489e-06
-4.14647e-07
4.12502e-07
-2.34746e-07
-4.13364e-07
4.83845e-07
1.18214e-06
-5.65897e-07
8.31195e-07
1.04512e-06
-1.0978e-06
7.85461e-07
-1.15123e-06
-1.27626e-06
4.14047e-07
-2.34613e-07
-4.13746e-07
4.82523e-07
1.18093e-06
-5.64878e-07
8.28592e-07
1.04544e-06
-1.09764e-06
7.8641e-07
-1.15081e-06
1.06423e-06
1.06205e-06
-1.36333e-07
3.74079e-07
1.27796e-06
-3.73366e-07
1.35847e-07
-1.15902e-06
-1.15768e-06
4.82176e-07
3.88719e-07
8.2934e-07
-1.27701e-06
-5.64834e-07
-1.15069e-06
7.87158e-07
-1.09772e-06
1.04592e-06
-3.86647e-07
1.18099e-06
-2.35886e-07
4.81555e-07
4.14619e-07
8.29361e-07
-1.27522e-06
-5.63821e-07
-1.15105e-06
7.85837e-07
-1.09822e-06
1.04505e-06
-4.13208e-07
3.87801e-07
-2.36583e-07
-3.88245e-07
4.81143e-07
1.18198e-06
-5.64853e-07
8.29694e-07
1.04642e-06
-1.09753e-06
7.87474e-07
-1.15089e-06
-1.27655e-06
4.13699e-07
-2.32765e-07
-4.13085e-07
4.86612e-07
1.17955e-06
-5.65246e-07
8.27991e-07
1.04458e-06
-1.09846e-06
7.85201e-07
-1.15152e-06
-2.42222e-07
4.7829e-07
4.08172e-07
8.30919e-07
-1.27744e-06
-5.65453e-07
-1.15059e-06
7.85237e-07
-1.0977e-06
1.04484e-06
-3.9637e-07
-2.36786e-07
-3.86166e-07
4.8167e-07
1.18299e-06
-5.65227e-07
8.31455e-07
1.04519e-06
-1.09742e-06
-1.15033e-06
7.85911e-07
-1.27819e-06
4.12088e-07
-2.327e-07
-4.11592e-07
4.87991e-07
1.18062e-06
-5.65917e-07
8.29903e-07
1.04367e-06
-1.09862e-06
7.83995e-07
-1.15124e-06
1.0644e-06
1.06222e-06
-1.34164e-07
1.27844e-06
-3.70659e-07
1.34033e-07
-1.15984e-06
-1.15852e-06
-2.28573e-07
4.86313e-07
3.92099e-07
8.29645e-07
-1.27535e-06
-5.6352e-07
-1.14998e-06
7.86735e-07
-1.09713e-06
1.04593e-06
-2.32284e-07
-3.85982e-07
4.85981e-07
1.18155e-06
-5.66042e-07
8.30337e-07
1.04375e-06
-1.09885e-06
-1.15177e-06
7.84362e-07
-1.27765e-06
3.87062e-07
-2.33369e-07
-3.85455e-07
4.85503e-07
1.18043e-06
-5.65331e-07
8.27906e-07
1.04444e-06
-1.09834e-06
7.85689e-07
-1.15089e-06
1.34987e-07
-1.15826e-06
-1.16056e-06
-1.18118e-06
-1.18088e-06
1.06057e-06
1.0658e-06
-1.33498e-07
1.27869e-06
1.27877e-06
-3.74918e-07
1.36608e-07
-1.15864e-06
-1.16051e-06
4.86348e-07
4.12824e-07
8.30412e-07
-1.2777e-06
-5.66295e-07
-1.15191e-06
7.84601e-07
1.04419e-06
-1.09866e-06
1.18049e-06
-2.33221e-07
4.82917e-07
4.14785e-07
8.28188e-07
-1.27652e-06
-5.65297e-07
-1.15096e-06
7.86299e-07
1.04509e-06
-1.09773e-06
4.15329e-07
-2.30529e-07
-4.14835e-07
4.92577e-07
1.17946e-06
-5.66222e-07
8.28794e-07
1.04222e-06
-1.09933e-06
7.82767e-07
-1.15154e-06
-1.27614e-06
4.17817e-07
-2.32022e-07
-4.17246e-07
4.81625e-07
1.1805e-06
-5.65097e-07
8.27478e-07
1.04411e-06
-1.09693e-06
7.86011e-07
-1.15011e-06
1.06469e-06
1.06111e-06
-1.35987e-07
1.27771e-06
-3.75317e-07
1.37005e-07
-1.15812e-06
-1.15742e-06
4.844e-07
3.87881e-07
8.28713e-07
-1.27718e-06
-5.65612e-07
-1.15151e-06
7.86693e-07
1.04549e-06
-1.09824e-06
1.17918e-06
-2.30657e-07
4.87045e-07
4.1484e-07
8.27295e-07
-1.27687e-06
-5.65703e-07
-1.15164e-06
7.84895e-07
1.0439e-06
-1.09859e-06
3.90269e-07
-2.26747e-07
-3.89384e-07
4.92016e-07
1.17898e-06
-5.66705e-07
8.26071e-07
1.0424e-06
-1.09985e-06
7.84102e-07
-1.15238e-06
-1.2766e-06
4.18585e-07
-2.28558e-07
-4.17424e-07
4.84616e-07
1.17942e-06
-5.65885e-07
8.26441e-07
1.04275e-06
-1.09743e-06
7.84718e-07
-1.15063e-06
-2.34545e-07
4.86291e-07
4.14531e-07
8.29772e-07
-1.27776e-06
-5.65504e-07
-1.15087e-06
7.84171e-07
-1.09819e-06
1.04366e-06
-2.40417e-07
-3.90651e-07
4.84674e-07
1.18258e-06
-5.6448e-07
8.31159e-07
1.04445e-06
-1.097e-06
-1.14962e-06
7.85289e-07
-1.27534e-06
4.18823e-07
-2.4095e-07
-4.18594e-07
4.78476e-07
1.18285e-06
-5.63737e-07
8.31524e-07
1.04488e-06
-1.09539e-06
7.85932e-07
-1.14848e-06
1.06409e-06
1.06057e-06
-1.34628e-07
1.27742e-06
-3.73896e-07
1.3619e-07
-1.15795e-06
-1.15836e-06
-2.3443e-07
4.84132e-07
3.89924e-07
8.27782e-07
-1.27721e-06
-5.64814e-07
-1.15073e-06
7.85849e-07
-1.09811e-06
1.04435e-06
-2.40063e-07
-3.91667e-07
4.87046e-07
1.18189e-06
-5.64228e-07
8.30882e-07
1.0437e-06
-1.09738e-06
-1.14975e-06
7.84344e-07
-1.27478e-06
3.94667e-07
-2.41491e-07
-3.94323e-07
4.7667e-07
1.1828e-06
-5.62985e-07
8.29661e-07
1.04559e-06
-1.09521e-06
7.87541e-07
-1.14814e-06
1.34581e-07
-1.15565e-06
-1.15799e-06
-1.17905e-06
-1.17861e-06
1.05767e-06
1.06294e-06
-1.37862e-07
1.27579e-06
1.27535e-06
-3.75999e-07
1.37429e-07
-1.15507e-06
-1.15749e-06
4.92365e-07
4.18856e-07
8.28065e-07
-1.27895e-06
-5.66246e-07
-1.1516e-06
7.82429e-07
1.04163e-06
-1.09954e-06
1.18059e-06
-2.315e-07
4.80862e-07
4.19794e-07
8.27623e-07
-1.27599e-06
-5.64989e-07
-1.15057e-06
7.85765e-07
1.04373e-06
-1.09749e-06
4.24503e-07
-2.37056e-07
-4.23967e-07
4.83775e-07
1.18109e-06
-5.63712e-07
8.2942e-07
1.04296e-06
-1.09636e-06
7.8385e-07
-1.14872e-06
-1.27469e-06
4.22674e-07
-2.36335e-07
-4.22872e-07
4.82543e-07
1.18051e-06
-5.63347e-07
8.28293e-07
1.04393e-06
-1.09671e-06
7.85175e-07
-1.14917e-06
1.06407e-06
1.06069e-06
-1.37239e-07
1.27751e-06
-3.74747e-07
1.36504e-07
-1.158e-06
-1.15596e-06
4.9174e-07
3.94217e-07
8.25534e-07
-1.27902e-06
-5.66646e-07
-1.15211e-06
7.83612e-07
1.04175e-06
-1.09973e-06
1.17989e-06
-2.28514e-07
4.83692e-07
4.20985e-07
8.26542e-07
-1.27639e-06
-5.65672e-07
-1.15081e-06
7.84367e-07
1.04222e-06
-1.09773e-06
3.99892e-07
-2.35775e-07
-3.99287e-07
4.82625e-07
1.18088e-06
-5.63426e-07
8.2738e-07
1.04328e-06
-1.09649e-06
7.85187e-07
-1.14891e-06
-1.27458e-06
4.24517e-07
-2.34702e-07
-4.24231e-07
4.84104e-07
1.17983e-06
-5.63327e-07
8.2749e-07
1.04262e-06
-1.09679e-06
7.84223e-07
-1.14915e-06
-2.40155e-07
4.79187e-07
4.18717e-07
8.31344e-07
-1.27539e-06
-5.63927e-07
-1.14883e-06
7.86046e-07
-1.09579e-06
1.04507e-06
-2.35238e-07
-3.94553e-07
4.84221e-07
1.1817e-06
-5.64989e-07
8.29794e-07
1.04374e-06
-1.09718e-06
-1.14995e-06
7.84799e-07
-1.27686e-06
4.18773e-07
-2.34012e-07
-4.18965e-07
4.85624e-07
1.18076e-06
-5.65285e-07
8.29866e-07
1.04332e-06
-1.09722e-06
7.84071e-07
-1.15007e-06
1.06389e-06
1.0605e-06
-1.3642e-07
1.27721e-06
-3.73944e-07
1.36046e-07
-1.15786e-06
-1.15604e-06
-2.41058e-07
4.77379e-07
3.94533e-07
8.29605e-07
-1.27483e-06
-5.63114e-07
-1.14833e-06
7.87608e-07
-1.0954e-06
1.04579e-06
-2.3559e-07
-3.9524e-07
4.85276e-07
1.18123e-06
-5.64605e-07
8.29607e-07
1.04299e-06
-1.09695e-06
-1.14968e-06
7.84047e-07
-1.2762e-06
3.94614e-07
-2.33675e-07
-3.94564e-07
4.84103e-07
1.18078e-06
-5.64506e-07
8.28067e-07
1.04354e-06
-1.09735e-06
7.85191e-07
-1.15e-06
1.33945e-07
-1.15683e-06
-1.15939e-06
-1.18105e-06
-1.18097e-06
1.05927e-06
1.06411e-06
-1.37351e-07
1.27575e-06
1.27486e-06
-3.76129e-07
1.37487e-07
-1.15449e-06
-1.15748e-06
4.82687e-07
4.24157e-07
8.29596e-07
-1.27547e-06
-5.63619e-07
-1.14857e-06
7.84117e-07
1.04323e-06
-1.09607e-06
1.18005e-06
-2.35233e-07
4.83861e-07
4.2219e-07
8.27998e-07
-1.27484e-06
-5.63363e-07
-1.14939e-06
7.84746e-07
1.04376e-06
-1.0971e-06
4.24911e-07
-2.35729e-07
-4.25042e-07
4.82742e-07
1.18105e-06
-5.63863e-07
8.29261e-07
1.04282e-06
-1.09598e-06
7.84082e-07
-1.14851e-06
-1.27534e-06
4.24846e-07
-2.34507e-07
-4.23732e-07
4.84576e-07
1.17984e-06
-5.63561e-07
8.27166e-07
1.04293e-06
-1.09712e-06
7.84227e-07
-1.14932e-06
1.06282e-06
1.06066e-06
-1.36915e-07
1.27754e-06
-3.78023e-07
1.38782e-07
-1.15764e-06
-1.15599e-06
4.81411e-07
3.99728e-07
8.27783e-07
-1.27478e-06
-5.62931e-07
-1.14858e-06
7.85338e-07
1.0436e-06
-1.09622e-06
1.17968e-06
-2.34607e-07
4.85305e-07
4.24229e-07
8.27437e-07
-1.27472e-06
-5.63351e-07
-1.14908e-06
7.83933e-07
1.04269e-06
-1.09701e-06
4.00249e-07
-2.37543e-07
-4.00275e-07
4.81604e-07
1.18114e-06
-5.62765e-07
8.27976e-07
1.04365e-06
-1.09618e-06
7.85454e-07
-1.14845e-06
-1.27474e-06
4.26701e-07
-2.35021e-07
-4.2628e-07
4.84194e-07
1.17977e-06
-5.63278e-07
8.27082e-07
1.04258e-06
-1.09643e-06
7.84006e-07
-1.14859e-06
-2.31895e-07
4.87668e-07
4.19707e-07
8.28922e-07
-1.27743e-06
-5.65691e-07
-1.15048e-06
7.83447e-07
-1.09796e-06
1.04266e-06
-2.348e-07
-3.97131e-07
4.84207e-07
1.1814e-06
-5.64525e-07
8.29032e-07
1.0427e-06
-1.09709e-06
-1.14947e-06
7.84085e-07
-1.27715e-06
4.24602e-07
-2.33102e-07
-4.23136e-07
4.86711e-07
1.18023e-06
-5.65046e-07
8.28525e-07
1.04223e-06
-1.09742e-06
7.83276e-07
-1.14972e-06
1.06269e-06
1.06054e-06
-1.36511e-07
1.27689e-06
-3.7641e-07
1.37856e-07
-1.15731e-06
-1.15576e-06
-2.32404e-07
4.86222e-07
3.95997e-07
8.27303e-07
-1.27667e-06
-5.64677e-07
-1.15023e-06
7.84427e-07
-1.09805e-06
1.04281e-06
-2.36407e-07
-3.99213e-07
4.83814e-07
1.18135e-06
-5.64179e-07
8.29232e-07
1.04274e-06
-1.09617e-06
-1.14852e-06
7.84106e-07
-1.27612e-06
4.00342e-07
-2.361e-07
-3.99079e-07
4.85554e-07
1.18038e-06
-5.6353e-07
8.27383e-07
1.04297e-06
-1.09732e-06
7.84544e-07
-1.14902e-06
1.36798e-07
-1.1561e-06
-1.15913e-06
-1.18139e-06
-1.18142e-06
1.05976e-06
1.06445e-06
-1.37531e-07
1.27596e-06
1.27464e-06
-3.733e-07
1.35883e-07
-1.15482e-06
-1.15836e-06
4.82365e-07
4.2423e-07
8.29621e-07
-1.27582e-06
-5.64027e-07
-1.14844e-06
7.84601e-07
1.04325e-06
-1.09598e-06
1.18082e-06
-2.34904e-07
4.82057e-07
4.25134e-07
8.27843e-07
-1.27475e-06
-5.63191e-07
-1.14927e-06
7.84774e-07
1.04329e-06
-1.09695e-06
4.1955e-07
-2.35763e-07
-4.2231e-07
4.8241e-07
1.18168e-06
-5.6455e-07
8.30133e-07
1.04439e-06
-1.09594e-06
7.85189e-07
-1.14882e-06
-1.27426e-06
4.2105e-07
-2.37173e-07
-4.23911e-07
4.80263e-07
1.18142e-06
-5.63052e-07
8.28983e-07
1.04517e-06
-1.0961e-06
7.8626e-07
-1.14865e-06
1.06299e-06
1.06065e-06
-1.38559e-07
1.27686e-06
-3.74689e-07
1.3678e-07
-1.15769e-06
-1.15552e-06
4.81424e-07
3.99663e-07
8.28401e-07
-1.27494e-06
-5.62929e-07
-1.1484e-06
7.85761e-07
1.04402e-06
-1.0962e-06
1.18075e-06
-2.3555e-07
4.81885e-07
4.26609e-07
8.27651e-07
-1.2743e-06
-5.63097e-07
-1.14846e-06
7.84508e-07
1.0429e-06
-1.09618e-06
3.95283e-07
-2.38978e-07
-3.97873e-07
4.80949e-07
1.18184e-06
-5.62883e-07
8.29146e-07
1.04536e-06
-1.09613e-06
7.86552e-07
-1.14862e-06
-1.27412e-06
4.2193e-07
-2.38474e-07
-4.23975e-07
4.80019e-07
1.18121e-06
-5.62954e-07
8.28847e-07
1.04499e-06
-1.09553e-06
7.86151e-07
-1.14809e-06
-2.34655e-07
4.84463e-07
4.25434e-07
8.29113e-07
-1.27664e-06
-5.64679e-07
-1.14922e-06
7.83921e-07
-1.0969e-06
1.04284e-06
-2.38547e-07
-3.95779e-07
4.81864e-07
1.18276e-06
-5.64355e-07
8.30926e-07
1.04506e-06
-1.09587e-06
-1.14842e-06
7.85938e-07
-1.27601e-06
4.20124e-07
-2.37334e-07
-4.21449e-07
4.82385e-07
1.18164e-06
-5.64341e-07
8.30156e-07
1.04431e-06
-1.09592e-06
7.8497e-07
-1.14852e-06
1.06325e-06
1.06091e-06
-1.37576e-07
1.27667e-06
-3.7301e-07
1.35881e-07
-1.1577e-06
-1.15595e-06
-2.37619e-07
4.83195e-07
4.01133e-07
8.28036e-07