/*--------------------------------*- C++ -*----------------------------------*\
| =========                 |                                                 |
| \\      /  F ield         | OpenFOAM: The Open Source CFD Toolbox           |
|  \\    /   O peration     | Version:  2206                                  |
|   \\  /    A nd           | Website:  www.openfoam.com                      |
|    \\/     M anipulation  |                                                 |
\*---------------------------------------------------------------------------*/
FoamFile
{
    version     2.0;
    format      ascii;
    arch        "LSB;label=32;scalar=64";
    class       volScalarField;
    location    "13";
    object      k;
}
// * * * * * * * * * * * * * * * * * * * * * * * * * * * * * * * * * * * * * //

dimensions      [0 2 -2 0 0 0 0];

internalField   nonuniform List<scalar> 
28673
(
3.14594e-05
3.13104e-05
3.15581e-05
3.14595e-05
3.14595e-05
3.13104e-05
3.15578e-05
3.1459e-05
3.14592e-05
3.13101e-05
3.15518e-05
3.14502e-05
3.14529e-05
3.13013e-05
3.1548e-05
3.14489e-05
3.14489e-05
3.12994e-05
3.15479e-05
3.14489e-05
3.14489e-05
3.12994e-05
3.15479e-05
3.14489e-05
3.14489e-05
3.12994e-05
3.15479e-05
3.14489e-05
3.14489e-05
3.12994e-05
3.15479e-05
3.14489e-05
3.14489e-05
3.12994e-05
3.15479e-05
3.14489e-05
3.14489e-05
3.12994e-05
3.15479e-05
3.14489e-05
3.14489e-05
3.12994e-05
3.15479e-05
3.14489e-05
3.14489e-05
3.12996e-05
3.15504e-05
3.1465e-05
3.1465e-05
3.13258e-05
3.14594e-05
3.13118e-05
3.14594e-05
3.13128e-05
3.14594e-05
3.14594e-05
3.14594e-05
3.14594e-05
3.13109e-05
3.13118e-05
3.14594e-05
3.14592e-05
3.14594e-05
3.14595e-05
3.14593e-05
3.13117e-05
3.14594e-05
3.14595e-05
3.14593e-05
3.13117e-05
3.13118e-05
3.13123e-05
3.14596e-05
3.14596e-05
3.14595e-05
3.14593e-05
3.13109e-05
3.13114e-05
3.14596e-05
3.14593e-05
3.14596e-05
3.14592e-05
3.14593e-05
3.14593e-05
3.14591e-05
3.13108e-05
3.13116e-05
3.14593e-05
3.14593e-05
3.14591e-05
3.13115e-05
3.13113e-05
3.13069e-05
3.14593e-05
3.14589e-05
3.14542e-05
3.1452e-05
3.13102e-05
3.13023e-05
3.14595e-05
3.14591e-05
3.14566e-05
3.14567e-05
3.14589e-05
3.14521e-05
3.14535e-05
3.13106e-05
3.13083e-05
3.1459e-05
3.14561e-05
3.14536e-05
3.13047e-05
3.13033e-05
3.13006e-05
3.14516e-05
3.14502e-05
3.14489e-05
3.14488e-05
3.13003e-05
3.13006e-05
3.14534e-05
3.14535e-05
3.1449e-05
3.14489e-05
3.14511e-05
3.14489e-05
3.14488e-05
3.13049e-05
3.13005e-05
3.14512e-05
3.1449e-05
3.14489e-05
3.13006e-05
3.12997e-05
3.13006e-05
3.1449e-05
3.14489e-05
3.14489e-05
3.14488e-05
3.12997e-05
3.13006e-05
3.14491e-05
3.14489e-05
3.14489e-05
3.14488e-05
3.14489e-05
3.14489e-05
3.14489e-05
3.12995e-05
3.13005e-05
3.1449e-05
3.14489e-05
3.14489e-05
3.13006e-05
3.12997e-05
3.13006e-05
3.1449e-05
3.1449e-05
3.14488e-05
3.14488e-05
3.12997e-05
3.13006e-05
3.1449e-05
3.14489e-05
3.14489e-05
3.14488e-05
3.1449e-05
3.1449e-05
3.14489e-05
3.12996e-05
3.13005e-05
3.1449e-05
3.14489e-05
3.14489e-05
3.13006e-05
3.12997e-05
3.13006e-05
3.1449e-05
3.1449e-05
3.14489e-05
3.14488e-05
3.12996e-05
3.13006e-05
3.1449e-05
3.14489e-05
3.14489e-05
3.14488e-05
3.1449e-05
3.1449e-05
3.14489e-05
3.12996e-05
3.13005e-05
3.1449e-05
3.14489e-05
3.14489e-05
3.13006e-05
3.12997e-05
3.13006e-05
3.1449e-05
3.1449e-05
3.14488e-05
3.14488e-05
3.12997e-05
3.13006e-05
3.1449e-05
3.14489e-05
3.14489e-05
3.14488e-05
3.1449e-05
3.1449e-05
3.14489e-05
3.12996e-05
3.13005e-05
3.1449e-05
3.14489e-05
3.14489e-05
3.13006e-05
3.12997e-05
3.13006e-05
3.1449e-05
3.1449e-05
3.14489e-05
3.14488e-05
3.12997e-05
3.13006e-05
3.1449e-05
3.14489e-05
3.14489e-05
3.14488e-05
3.1449e-05
3.1449e-05
3.14489e-05
3.12996e-05
3.13005e-05
3.1449e-05
3.14489e-05
3.14489e-05
3.13006e-05
3.12997e-05
3.13006e-05
3.1449e-05
3.1449e-05
3.14489e-05
3.14489e-05
3.12996e-05
3.13006e-05
3.1449e-05
3.14489e-05
3.14489e-05
3.14488e-05
3.1449e-05
3.1449e-05
3.14489e-05
3.12996e-05
3.13005e-05
3.1449e-05
3.14489e-05
3.14489e-05
3.13006e-05
3.12997e-05
3.13007e-05
3.1449e-05
3.1449e-05
3.1449e-05
3.1449e-05
3.12996e-05
3.13007e-05
3.14491e-05
3.14489e-05
3.14491e-05
3.1449e-05
3.1449e-05
3.14491e-05
3.1449e-05
3.12995e-05
3.13006e-05
3.1449e-05
3.14491e-05
3.14491e-05
3.13008e-05
3.12998e-05
3.13113e-05
3.1449e-05
3.1449e-05
3.14584e-05
3.14584e-05
3.12998e-05
3.13113e-05
3.14491e-05
3.14489e-05
3.14585e-05
3.14584e-05
3.1449e-05
3.14585e-05
3.14585e-05
3.12997e-05
3.13112e-05
3.1449e-05
3.14585e-05
3.14585e-05
3.13112e-05
3.13261e-05
3.1465e-05
3.1465e-05
3.1326e-05
3.14651e-05
3.1465e-05
3.15505e-05
3.15504e-05
3.15505e-05
3.1465e-05
3.1326e-05
3.14651e-05
3.22426e-05
6.28114e-05
3.22429e-05
6.28091e-05
8.46807e-05
8.46733e-05
3.22428e-05
6.28111e-05
3.15583e-05
3.1558e-05
3.15581e-05
3.15581e-05
3.1558e-05
3.15579e-05
3.08844e-05
3.1969e-05
3.1528e-05
3.14595e-05
3.08846e-05
3.19679e-05
3.1528e-05
8.46791e-05
3.0884e-05
3.15278e-05
3.14596e-05
3.08842e-05
3.15278e-05
3.19685e-05
3.36205e-05
3.36207e-05
3.13117e-05
3.36227e-05
3.36228e-05
3.22448e-05
6.28096e-05
3.22452e-05
6.28071e-05
8.46696e-05
8.46664e-05
3.22451e-05
6.28121e-05
3.22452e-05
6.28093e-05
3.15581e-05
3.1558e-05
3.15579e-05
3.1558e-05
3.15578e-05
3.15579e-05
3.15576e-05
3.08852e-05
3.1971e-05
3.15279e-05
3.14595e-05
3.08847e-05
3.197e-05
3.15279e-05
8.46719e-05
8.46664e-05
3.08847e-05
3.15278e-05
3.19703e-05
3.14595e-05
3.08842e-05
3.15277e-05
3.19695e-05
3.36277e-05
3.36279e-05
3.13118e-05
3.36287e-05
3.36289e-05
3.22439e-05
6.28088e-05
3.22458e-05
6.28103e-05
8.46699e-05
8.46845e-05
3.22454e-05
6.28109e-05
3.22467e-05
6.28099e-05
3.15576e-05
3.15578e-05
3.15575e-05
3.15545e-05
3.1552e-05
3.15549e-05
3.15526e-05
3.08838e-05
3.19716e-05
3.15275e-05
3.14579e-05
3.08845e-05
3.19685e-05
3.15269e-05
8.46659e-05
8.4666e-05
3.08836e-05
3.15274e-05
3.19717e-05
3.1459e-05
3.08842e-05
3.1527e-05
3.19696e-05
3.36306e-05
3.36307e-05
3.13105e-05
3.36289e-05
3.3629e-05
3.22336e-05
6.28392e-05
3.22392e-05
6.28376e-05
8.46975e-05
8.46959e-05
3.22357e-05
6.28326e-05
3.22433e-05
6.28404e-05
3.155e-05
3.15522e-05
3.15504e-05
3.15481e-05
3.1548e-05
3.15481e-05
3.1548e-05
3.08721e-05
3.19626e-05
3.15197e-05
3.14494e-05
3.0874e-05
3.19583e-05
3.15185e-05
8.46924e-05
8.46948e-05
3.08717e-05
3.15202e-05
3.19664e-05
3.14508e-05
3.0874e-05
3.15188e-05
3.19606e-05
3.36226e-05
3.36227e-05
3.1301e-05
3.36151e-05
3.36152e-05
3.2233e-05
6.2839e-05
3.2234e-05
6.28371e-05
8.46968e-05
8.46956e-05
3.22336e-05
6.28418e-05
3.22345e-05
6.28397e-05
3.15481e-05
3.15481e-05
3.15481e-05
3.15479e-05
3.1548e-05
3.1548e-05
3.1548e-05
3.08719e-05
3.19594e-05
3.15176e-05
3.1449e-05
3.08717e-05
3.19577e-05
3.15178e-05
8.46956e-05
8.46936e-05
3.08716e-05
3.15176e-05
3.19598e-05
3.1449e-05
3.08713e-05
3.15178e-05
3.1958e-05
3.36154e-05
3.36155e-05
3.13007e-05
3.36147e-05
3.36148e-05
3.2233e-05
6.28389e-05
3.2234e-05
6.28371e-05
8.46968e-05
8.46956e-05
3.22336e-05
6.28414e-05
3.22345e-05
6.28395e-05
3.15481e-05
3.15481e-05
3.15481e-05
3.15479e-05
3.1548e-05
3.1548e-05
3.1548e-05
3.08719e-05
3.19594e-05
3.15176e-05
3.1449e-05
3.08717e-05
3.19577e-05
3.15178e-05
8.46952e-05
8.46935e-05
3.08716e-05
3.15176e-05
3.19595e-05
3.1449e-05
3.08713e-05
3.15177e-05
3.1958e-05
3.36155e-05
3.36156e-05
3.13007e-05
3.36148e-05
3.36149e-05
3.2233e-05
6.28389e-05
3.2234e-05
6.28371e-05
8.46968e-05
8.46956e-05
3.22336e-05
6.28414e-05
3.22345e-05
6.28395e-05
3.15481e-05
3.15481e-05
3.15481e-05
3.15479e-05
3.1548e-05
3.1548e-05
3.1548e-05
3.08719e-05
3.19594e-05
3.15176e-05
3.1449e-05
3.08717e-05
3.19577e-05
3.15178e-05
8.46952e-05
8.46935e-05
3.08716e-05
3.15176e-05
3.19595e-05
3.1449e-05
3.08714e-05
3.15177e-05
3.1958e-05
3.36155e-05
3.36156e-05
3.13007e-05
3.36148e-05
3.36149e-05
3.2233e-05
6.28389e-05
3.2234e-05
6.28371e-05
8.46967e-05
8.46956e-05
3.22336e-05
6.28414e-05
3.22345e-05
6.28395e-05
3.15481e-05
3.15481e-05
3.15481e-05
3.15479e-05
3.1548e-05
3.1548e-05
3.1548e-05
3.08719e-05
3.19594e-05
3.15176e-05
3.1449e-05
3.08717e-05
3.19577e-05
3.15178e-05
8.46952e-05
8.46935e-05
3.08716e-05
3.15176e-05
3.19595e-05
3.1449e-05
3.08713e-05
3.15177e-05
3.1958e-05
3.36155e-05
3.36156e-05
3.13007e-05
3.36148e-05
3.36149e-05
3.22329e-05
6.28389e-05
3.2234e-05
6.28373e-05
8.46967e-05
8.46958e-05
3.22336e-05
6.28414e-05
3.22345e-05
6.28397e-05
3.15481e-05
3.15481e-05
3.15481e-05
3.15479e-05
3.1548e-05
3.1548e-05
3.1548e-05
3.08719e-05
3.19594e-05
3.15176e-05
3.1449e-05
3.08717e-05
3.19577e-05
3.15178e-05
8.46952e-05
8.46936e-05
3.08717e-05
3.15176e-05
3.19595e-05
3.1449e-05
3.08715e-05
3.15177e-05
3.19579e-05
3.36155e-05
3.36156e-05
3.13007e-05
3.36147e-05
3.36149e-05
3.22333e-05
6.28391e-05
3.22343e-05
6.28433e-05
8.46964e-05
8.47001e-05
3.22339e-05
6.28414e-05
3.22348e-05
6.28457e-05
3.15481e-05
3.15481e-05
3.15481e-05
3.15479e-05
3.1548e-05
3.1548e-05
3.1548e-05
3.08719e-05
3.1958e-05
3.15176e-05
3.1449e-05
3.08717e-05
3.19559e-05
3.15178e-05
8.46951e-05
8.46993e-05
3.08717e-05
3.15176e-05
3.19581e-05
3.1449e-05
3.08716e-05
3.15178e-05
3.19566e-05
3.36153e-05
3.36154e-05
3.13007e-05
3.3615e-05
3.36151e-05
3.22363e-05
6.28307e-05
3.22378e-05
6.28468e-05
8.46634e-05
8.46847e-05
3.22369e-05
6.28333e-05
3.22383e-05
6.28496e-05
3.15481e-05
3.15481e-05
3.15481e-05
3.1548e-05
3.1548e-05
3.1548e-05
3.1548e-05
3.0872e-05
3.19633e-05
3.15177e-05
3.14491e-05
3.08718e-05
3.19574e-05
3.15178e-05
8.46645e-05
8.46852e-05
3.08719e-05
3.15176e-05
3.19642e-05
3.1449e-05
3.08717e-05
3.15178e-05
3.19584e-05
3.36206e-05
3.36207e-05
3.13007e-05
3.36219e-05
3.36219e-05
3.22351e-05
6.2803e-05
3.224e-05
6.2844e-05
8.45773e-05
8.45983e-05
3.22361e-05
6.2806e-05
3.22405e-05
6.2847e-05
3.15481e-05
3.15481e-05
3.15481e-05
3.15486e-05
3.15486e-05
3.15486e-05
3.15486e-05
3.08723e-05
3.19743e-05
3.15178e-05
3.145e-05
3.08723e-05
3.19461e-05
3.15178e-05
8.45782e-05
8.45991e-05
3.08721e-05
3.15178e-05
3.1975e-05
3.145e-05
3.08721e-05
3.15178e-05
3.19465e-05
3.36236e-05
3.36236e-05
3.13022e-05
3.36404e-05
3.364e-05
3.10932e-05
6.11947e-05
3.22226e-05
4.75375e-05
7.82986e-05
4.33958e-05
3.10937e-05
6.12021e-05
3.22234e-05
4.75402e-05
3.15648e-05
3.15615e-05
3.15615e-05
3.1542e-05
3.15646e-05
3.15599e-05
3.15599e-05
3.08871e-05
3.19685e-05
3.15236e-05
3.14773e-05
3.08856e-05
3.30685e-05
3.15351e-05
7.82988e-05
4.3395e-05
3.0887e-05
3.15236e-05
3.19685e-05
3.14773e-05
3.08854e-05
3.15351e-05
3.30683e-05
3.38669e-05
3.38676e-05
3.13594e-05
3.35744e-05
3.35738e-05
6.28107e-05
3.1968e-05
8.46815e-05
3.36208e-05
3.36174e-05
8.46768e-05
3.19674e-05
6.28091e-05
8.46877e-05
8.46765e-05
8.4682e-05
3.36205e-05
3.13131e-05
3.36227e-05
3.36193e-05
8.46704e-05
8.46761e-05
8.46739e-05
8.46812e-05
3.13121e-05
3.36262e-05
3.36233e-05
3.36246e-05
3.36215e-05
3.22427e-05
6.28115e-05
3.2243e-05
6.28098e-05
3.08844e-05
3.19688e-05
3.15279e-05
3.14594e-05
3.08846e-05
3.19671e-05
3.15278e-05
3.08845e-05
3.197e-05
3.1528e-05
3.14594e-05
3.08846e-05
3.19685e-05
3.1528e-05
3.22443e-05
6.2808e-05
6.28094e-05
3.22439e-05
3.22444e-05
6.28085e-05
6.28101e-05
3.2244e-05
3.0885e-05
3.14594e-05
3.19681e-05
3.15278e-05
3.19692e-05
3.15278e-05
3.08848e-05
3.0885e-05
3.14594e-05
3.19696e-05
3.15279e-05
3.19707e-05
3.15279e-05
3.08849e-05
3.36232e-05
3.36204e-05
3.13119e-05
3.36249e-05
3.36218e-05
8.46768e-05
8.46689e-05
8.46689e-05
8.46732e-05
3.13109e-05
3.36282e-05
3.36251e-05
3.3627e-05
3.36243e-05
8.46639e-05
8.46693e-05
3.08849e-05
3.14594e-05
3.19679e-05
3.15278e-05
3.22425e-05
6.28105e-05
3.08848e-05
3.14593e-05
3.15278e-05
3.19675e-05
3.22444e-05
6.28105e-05
6.2812e-05
3.22441e-05
3.08854e-05
3.14594e-05
3.19682e-05
3.15278e-05
3.19697e-05
3.15278e-05
3.0885e-05
3.22441e-05
6.28097e-05
6.28115e-05
3.22438e-05
3.08853e-05
3.14592e-05
3.15277e-05
3.1968e-05
3.15277e-05
3.19697e-05
3.08848e-05
3.22427e-05
6.28101e-05
3.2243e-05
6.28082e-05
3.08844e-05
3.15278e-05
3.19688e-05
3.14594e-05
3.08846e-05
3.15278e-05
3.19671e-05
3.22426e-05
6.2814e-05
3.22429e-05
6.28116e-05
3.0885e-05
3.14595e-05
3.19691e-05
3.15279e-05
3.19703e-05
3.15279e-05
3.08847e-05
3.22444e-05
6.28068e-05
6.28087e-05
3.2244e-05
3.0885e-05
3.14593e-05
3.15278e-05
3.19681e-05
3.15278e-05
3.19692e-05
3.08848e-05
3.22443e-05
6.28101e-05
6.28118e-05
3.22438e-05
3.13118e-05
3.36184e-05
3.36207e-05
8.46815e-05
8.46713e-05
8.46791e-05
3.13108e-05
3.36228e-05
3.36248e-05
3.36212e-05
3.36228e-05
8.46733e-05
8.46806e-05
3.0884e-05
3.15278e-05
3.19691e-05
3.14594e-05
3.08842e-05
3.15278e-05
3.19674e-05
3.22421e-05
3.22425e-05
6.28114e-05
3.2242e-05
6.28153e-05
3.22424e-05
6.28128e-05
3.08846e-05
3.14596e-05
3.15278e-05
3.19687e-05
3.15278e-05
3.19704e-05
3.08843e-05
3.08846e-05
3.14594e-05
3.15278e-05
3.19684e-05
3.15278e-05
3.19695e-05
3.08844e-05
3.2244e-05
6.28107e-05
6.28123e-05
3.22433e-05
3.22439e-05
6.28114e-05
6.28131e-05
3.22432e-05
8.46888e-05
8.46776e-05
8.46896e-05
8.46784e-05
3.13108e-05
3.36263e-05
3.36264e-05
3.36246e-05
3.36248e-05
8.46714e-05
8.46771e-05
8.46722e-05
8.46779e-05
8.46704e-05
8.46672e-05
8.46738e-05
8.46693e-05
3.36279e-05
3.36251e-05
3.13126e-05
3.36287e-05
3.36264e-05
8.4666e-05
8.46676e-05
8.46671e-05
8.46696e-05
3.13116e-05
3.363e-05
3.36288e-05
3.36301e-05
3.3628e-05
3.22449e-05
6.28088e-05
3.22457e-05
6.28078e-05
3.08854e-05
3.19704e-05
3.15278e-05
3.14596e-05
3.08855e-05
3.19692e-05
3.15278e-05
3.08854e-05
3.19718e-05
3.15279e-05
3.14596e-05
3.08855e-05
3.19704e-05
3.15278e-05
3.22463e-05
6.28067e-05
6.28075e-05
3.2245e-05
3.22465e-05
6.28088e-05
6.28082e-05
3.22452e-05
3.08854e-05
3.14596e-05
3.19697e-05
3.15276e-05
3.19713e-05
3.15277e-05
3.08848e-05
3.08857e-05
3.14595e-05
3.19706e-05
3.15277e-05
3.19725e-05
3.15277e-05
3.0885e-05
3.36299e-05
3.36272e-05
3.13118e-05
3.36304e-05
3.36273e-05
8.46647e-05
8.46619e-05
8.46673e-05
8.4667e-05
3.13108e-05
3.36304e-05
3.36278e-05
3.36316e-05
3.3629e-05
8.46633e-05
8.46632e-05
3.08853e-05
3.19704e-05
3.15279e-05
3.14596e-05
3.08853e-05
3.19693e-05
3.15279e-05
3.22449e-05
6.28102e-05
3.22454e-05
6.28086e-05
3.08852e-05
3.15278e-05
3.19703e-05
3.14593e-05
3.08852e-05
3.15278e-05
3.1969e-05
3.22466e-05
6.28089e-05
6.28098e-05
3.22458e-05
3.08859e-05
3.14596e-05
3.19701e-05
3.15277e-05
3.19714e-05
3.15278e-05
3.08856e-05
3.22463e-05
6.28081e-05
6.28092e-05
3.22456e-05
3.08857e-05
3.14593e-05
3.15276e-05
3.19698e-05
3.15277e-05
3.19713e-05
3.08856e-05
3.22449e-05
6.28074e-05
3.22456e-05
6.28062e-05
3.08853e-05
3.15278e-05
3.19703e-05
3.14593e-05
3.08854e-05
3.15277e-05
3.19692e-05
3.22448e-05
6.28104e-05
3.22455e-05
6.28092e-05
3.08854e-05
3.14594e-05
3.19701e-05
3.15277e-05
3.19722e-05
3.15278e-05
3.08846e-05
3.22464e-05
6.28073e-05
6.28068e-05
3.22451e-05
3.08853e-05
3.14592e-05
3.15276e-05
3.19696e-05
3.15276e-05
3.19713e-05
3.08847e-05
3.22463e-05
6.2809e-05
6.28096e-05
3.2245e-05
3.36251e-05
3.36266e-05
3.13118e-05
3.36259e-05
3.3628e-05
8.46732e-05
8.46688e-05
8.46642e-05
8.46672e-05
3.13108e-05
3.36281e-05
3.36302e-05
3.36277e-05
3.36295e-05
8.46666e-05
8.4669e-05
3.08849e-05
3.15277e-05
3.19706e-05
3.14593e-05
3.08851e-05
3.15277e-05
3.19694e-05
3.22442e-05
6.2811e-05
3.22451e-05
6.28095e-05
3.22441e-05
6.28117e-05
3.22451e-05
6.28105e-05
3.08851e-05
3.14594e-05
3.15276e-05
3.19702e-05
3.15277e-05
3.19717e-05
3.08843e-05
3.08848e-05
3.14592e-05
3.15275e-05
3.19699e-05
3.15276e-05
3.19716e-05
3.08843e-05
3.22459e-05
6.28088e-05
6.28098e-05
3.22445e-05
3.22459e-05
6.28104e-05
6.2811e-05
3.22445e-05
8.46714e-05
8.46682e-05
8.46722e-05
8.4669e-05
3.13108e-05
3.363e-05
3.36302e-05
3.36302e-05
3.36304e-05
8.4667e-05
8.46686e-05
8.46678e-05
8.46694e-05
8.46674e-05
8.46722e-05
8.46677e-05
8.46683e-05
3.36309e-05
3.36301e-05
3.13115e-05
3.36291e-05
3.36296e-05
8.46943e-05
8.46801e-05
8.46859e-05
8.46708e-05
3.13097e-05
3.36241e-05
3.36286e-05
3.36296e-05
3.36305e-05
3.2244e-05
6.28102e-05
3.22464e-05
6.28205e-05
3.08838e-05
3.19716e-05
3.15275e-05
3.14588e-05
3.08846e-05
3.19689e-05
3.15269e-05
3.08839e-05
3.19724e-05
3.15274e-05
3.14577e-05
3.08848e-05
3.1969e-05
3.15268e-05
3.22449e-05
6.28338e-05
6.28156e-05
3.22396e-05
3.22449e-05
6.28401e-05
6.28307e-05
3.22397e-05
3.08832e-05
3.14574e-05
3.19643e-05
3.15223e-05
3.19703e-05
3.15253e-05
3.08763e-05
3.08832e-05
3.14548e-05
3.19625e-05
3.15219e-05
3.197e-05
3.15249e-05
3.08762e-05
3.36311e-05
3.36288e-05
3.13089e-05
3.36287e-05
3.36259e-05
8.46666e-05
8.46796e-05
8.46963e-05
8.46939e-05
3.13056e-05
3.36184e-05
3.36165e-05
3.36287e-05
3.36264e-05
8.46928e-05
8.46897e-05
3.08848e-05
3.19721e-05
3.15276e-05
3.14593e-05
3.08854e-05
3.19701e-05
3.15274e-05
3.22452e-05
6.28087e-05
3.22469e-05
6.28087e-05
3.08849e-05
3.15276e-05
3.1972e-05
3.14589e-05
3.08854e-05
3.15274e-05
3.19697e-05
3.22463e-05
6.28214e-05
6.28113e-05
3.22433e-05
3.08846e-05
3.14586e-05
3.19678e-05
3.15252e-05
3.19718e-05
3.15269e-05
3.0882e-05
3.22461e-05
6.28198e-05
6.281e-05
3.2243e-05
3.08847e-05
3.14583e-05
3.15252e-05
3.19675e-05
3.15268e-05
3.19716e-05
3.08818e-05
3.22439e-05
6.28093e-05
3.22463e-05
6.28194e-05
3.08838e-05
3.15274e-05
3.19715e-05
3.14584e-05
3.08846e-05
3.15269e-05
3.19687e-05
3.22438e-05
6.28098e-05
3.22462e-05
6.28121e-05
3.08832e-05
3.1455e-05
3.19623e-05
3.15219e-05
3.19697e-05
3.15249e-05
3.08763e-05
3.22449e-05
6.28387e-05
6.28295e-05
3.22397e-05
3.08832e-05
3.14567e-05
3.15222e-05
3.1964e-05
3.15252e-05
3.19701e-05
3.08763e-05
3.22447e-05
6.2835e-05
6.28171e-05
3.22396e-05
3.36295e-05
3.36313e-05
3.13112e-05
3.36281e-05
3.363e-05
8.46674e-05
8.46683e-05
8.46826e-05
8.46696e-05
3.13099e-05
3.36262e-05
3.3628e-05
3.3629e-05
3.36306e-05
8.46843e-05
8.46707e-05
3.08836e-05
3.15274e-05
3.19717e-05
3.14584e-05
3.08842e-05
3.15269e-05
3.1969e-05
3.22435e-05
6.28092e-05
3.22459e-05
6.28089e-05
3.22434e-05
6.28112e-05
3.22459e-05
6.28135e-05
3.0883e-05
3.14583e-05
3.15227e-05
3.19661e-05
3.15256e-05
3.19711e-05
3.08764e-05
3.08829e-05
3.14568e-05
3.15223e-05
3.19644e-05
3.15253e-05
3.19703e-05
3.08762e-05
3.22447e-05
6.28206e-05
6.28099e-05
3.22394e-05
3.22446e-05
6.28365e-05
6.28186e-05
3.22393e-05
8.46684e-05
8.46734e-05
8.46692e-05
8.46741e-05
3.13083e-05
3.36242e-05
3.36243e-05
3.36295e-05
3.36296e-05
8.46954e-05
8.46813e-05
8.46962e-05
8.46821e-05
8.46964e-05
8.46953e-05
8.46949e-05
8.46974e-05
3.36226e-05
3.36284e-05
3.13013e-05
3.36153e-05
3.3618e-05
8.46948e-05
8.4696e-05
8.46967e-05
8.46981e-05
3.12999e-05
3.36148e-05
3.36148e-05
3.3616e-05
3.36173e-05
3.22338e-05
6.28406e-05
3.22394e-05
6.28396e-05
3.0872e-05
3.19645e-05
3.152e-05
3.14501e-05
3.08743e-05
3.19591e-05
3.15187e-05
3.08721e-05
3.1963e-05
3.15197e-05
3.14494e-05
3.08743e-05
3.1959e-05
3.15185e-05
3.22347e-05
6.28372e-05
6.2838e-05
3.2233e-05
3.22349e-05
6.28393e-05
6.28401e-05
3.22331e-05
3.08723e-05
3.14491e-05
3.1958e-05
3.15177e-05
3.19606e-05
3.15179e-05
3.0872e-05
3.08724e-05
3.14488e-05
3.19585e-05
3.15177e-05
3.19607e-05
3.15178e-05
3.08721e-05
3.36179e-05
3.36163e-05
3.13006e-05
3.36147e-05
3.36113e-05
8.46939e-05
8.46919e-05
8.46955e-05
8.46966e-05
3.12997e-05
3.36147e-05
3.36112e-05
3.36157e-05
3.36124e-05
8.46916e-05
8.46931e-05
3.08729e-05
3.19686e-05
3.15222e-05
3.14512e-05
3.08796e-05
3.19616e-05
3.152e-05
3.22355e-05
6.28308e-05
3.22431e-05
6.28405e-05
3.08728e-05
3.15222e-05
3.19684e-05
3.14512e-05
3.08794e-05
3.152e-05
3.19613e-05
3.2236e-05
6.28401e-05
6.2841e-05
3.22338e-05
3.08728e-05
3.14497e-05
3.19589e-05
3.15178e-05
3.19624e-05
3.15185e-05
3.08723e-05
3.22357e-05
6.284e-05
6.28413e-05
3.22334e-05
3.08726e-05
3.14496e-05
3.15178e-05
3.19583e-05
3.15185e-05
3.19622e-05
3.08721e-05
3.22338e-05
6.28395e-05
3.22394e-05
6.28382e-05
3.0872e-05
3.15199e-05
3.19644e-05
3.14498e-05
3.08743e-05
3.15186e-05
3.19591e-05
3.22337e-05
6.28411e-05
3.22393e-05
6.28404e-05
3.08723e-05
3.1449e-05
3.19578e-05
3.15177e-05
3.19602e-05
3.15179e-05
3.08718e-05
3.22349e-05
6.28378e-05
6.28388e-05
3.22331e-05
3.08723e-05
3.1449e-05
3.15177e-05
3.1958e-05
3.15178e-05
3.19606e-05
3.0872e-05
3.22348e-05
6.28399e-05
6.28407e-05
3.2233e-05
3.36265e-05
3.36276e-05
3.13019e-05
3.36165e-05
3.36178e-05
8.46935e-05
8.46964e-05
8.46939e-05
8.4696e-05
3.13e-05
3.36123e-05
3.36148e-05
3.36162e-05
3.36172e-05
8.4696e-05
8.46972e-05
3.08716e-05
3.15199e-05
3.19647e-05
3.14499e-05
3.08743e-05
3.15187e-05
3.19594e-05
3.22332e-05
6.28315e-05
3.22397e-05
6.28409e-05
3.22331e-05
6.28424e-05
3.22396e-05
6.28417e-05
3.0872e-05
3.14496e-05
3.15177e-05
3.19585e-05
3.1518e-05
3.19617e-05
3.08714e-05
3.08719e-05
3.14491e-05
3.15177e-05
3.19583e-05
3.15178e-05
3.19609e-05
3.08716e-05
3.22343e-05
6.28404e-05
6.28414e-05
3.22323e-05
3.22342e-05
6.28412e-05
6.28421e-05
3.22322e-05
8.46975e-05
8.46964e-05
8.46984e-05
8.46972e-05
3.12999e-05
3.36147e-05
3.36148e-05
3.36158e-05
3.3616e-05
8.46959e-05
8.46971e-05
8.46967e-05
8.46979e-05
8.46956e-05
8.46947e-05
8.46974e-05
8.46963e-05
3.36157e-05
3.36157e-05
3.13007e-05
3.36147e-05
3.36147e-05
8.46947e-05
8.46956e-05
8.46962e-05
8.46971e-05
3.12998e-05
3.36147e-05
3.36147e-05
3.36157e-05
3.36156e-05
3.22331e-05
6.28399e-05
3.22345e-05
6.28393e-05
3.0872e-05
3.19599e-05
3.15178e-05
3.14489e-05
3.08723e-05
3.19579e-05
3.15178e-05
3.08721e-05
3.19604e-05
3.15178e-05
3.14489e-05
3.08724e-05
3.19584e-05
3.15178e-05
3.22344e-05
6.28371e-05
6.28377e-05
3.2233e-05
3.22345e-05
6.28393e-05
6.28398e-05
3.22331e-05
3.08723e-05
3.14489e-05
3.19578e-05
3.15177e-05
3.19598e-05
3.15177e-05
3.0872e-05
3.08724e-05
3.14489e-05
3.19584e-05
3.15177e-05
3.19604e-05
3.15177e-05
3.08721e-05
3.36157e-05
3.36124e-05
3.13006e-05
3.36147e-05
3.36114e-05
8.46929e-05
8.46915e-05
8.46954e-05
8.46964e-05
3.12997e-05
3.36148e-05
3.36115e-05
3.36158e-05
3.36127e-05
8.46915e-05
8.46928e-05
3.08723e-05
3.19606e-05
3.15178e-05
3.1449e-05
3.08726e-05
3.19585e-05
3.15178e-05
3.22332e-05
6.28405e-05
3.22346e-05
6.28395e-05
3.08722e-05
3.15178e-05
3.19602e-05
3.14489e-05
3.08724e-05
3.15178e-05
3.19579e-05
3.22348e-05
6.28395e-05
6.28402e-05
3.22336e-05
3.08726e-05
3.14489e-05
3.19584e-05
3.15177e-05
3.19603e-05
3.15177e-05
3.08723e-05
3.22345e-05
6.28393e-05
6.28401e-05
3.22332e-05
3.08725e-05
3.14488e-05
3.15177e-05
3.19578e-05
3.15177e-05
3.196e-05
3.08721e-05
3.2233e-05
6.28385e-05
3.22345e-05
6.28377e-05
3.0872e-05
3.15178e-05
3.19599e-05
3.14489e-05
3.08723e-05
3.15178e-05
3.19579e-05
3.22329e-05
6.28403e-05
3.22344e-05
6.28396e-05
3.08723e-05
3.1449e-05
3.19577e-05
3.15177e-05
3.19598e-05
3.15178e-05
3.08717e-05
3.22344e-05
6.28377e-05
6.28384e-05
3.2233e-05
3.08723e-05
3.14489e-05
3.15177e-05
3.19579e-05
3.15177e-05
3.19598e-05
3.08719e-05
3.22343e-05
6.28396e-05
6.28401e-05
3.22329e-05
3.36134e-05
3.36157e-05
3.13006e-05
3.36122e-05
3.36146e-05
8.46967e-05
8.46957e-05
8.46934e-05
8.46949e-05
3.12997e-05
3.36123e-05
3.36146e-05
3.36134e-05
3.36156e-05
8.46956e-05
8.46965e-05
3.08716e-05
3.15178e-05
3.19602e-05
3.1449e-05
3.08719e-05
3.15178e-05
3.19581e-05
3.22323e-05
6.28409e-05
3.22339e-05
6.28401e-05
3.22322e-05
6.28416e-05
3.22338e-05
6.2841e-05
3.0872e-05
3.1449e-05
3.15176e-05
3.1958e-05
3.15177e-05
3.196e-05
3.08714e-05
3.0872e-05
3.14489e-05
3.15177e-05
3.19581e-05
3.15177e-05
3.19601e-05
3.08716e-05
3.22339e-05
6.284e-05
6.28406e-05
3.22323e-05
3.22338e-05
6.28409e-05
6.28415e-05
3.22322e-05
8.46967e-05
8.46958e-05
8.46975e-05
8.46966e-05
3.12998e-05
3.36148e-05
3.36149e-05
3.36157e-05
3.36158e-05
8.46957e-05
8.46966e-05
8.46965e-05
8.46974e-05
8.46955e-05
8.46947e-05
8.46971e-05
8.46962e-05
3.36156e-05
3.36156e-05
3.13007e-05
3.36147e-05
3.36147e-05
8.46947e-05
8.46956e-05
8.46961e-05
8.46971e-05
3.12998e-05
3.36147e-05
3.36147e-05
3.36156e-05
3.36157e-05
3.22331e-05
6.28398e-05
3.22345e-05
6.28393e-05
3.0872e-05
3.19598e-05
3.15178e-05
3.1449e-05
3.08723e-05
3.19579e-05
3.15178e-05
3.08721e-05
3.19604e-05
3.15178e-05
3.1449e-05
3.08725e-05
3.19584e-05
3.15178e-05
3.22344e-05
6.2837e-05
6.28376e-05
3.2233e-05
3.22345e-05
6.28393e-05
6.28398e-05
3.22331e-05
3.08724e-05
3.14489e-05
3.19578e-05
3.15177e-05
3.19598e-05
3.15177e-05
3.0872e-05
3.08724e-05
3.14489e-05
3.19584e-05
3.15177e-05
3.19604e-05
3.15177e-05
3.08721e-05
3.36158e-05
3.36127e-05
3.13007e-05
3.36147e-05
3.36114e-05
8.46929e-05
8.46915e-05
8.46954e-05
8.46964e-05
3.12997e-05
3.36148e-05
3.36114e-05
3.36158e-05
3.36126e-05
8.46915e-05
8.46928e-05
3.08723e-05
3.19603e-05
3.15178e-05
3.1449e-05
3.08726e-05
3.19584e-05
3.15178e-05
3.22332e-05
6.284e-05
3.22345e-05
6.28393e-05
3.08722e-05
3.15178e-05
3.19599e-05
3.14489e-05
3.08724e-05
3.15178e-05
3.19578e-05
3.22349e-05
6.28395e-05
6.28402e-05
3.22336e-05
3.08726e-05
3.1449e-05
3.19584e-05
3.15177e-05
3.19603e-05
3.15177e-05
3.08723e-05
3.22345e-05
6.28393e-05
6.284e-05
3.22332e-05
3.08724e-05
3.14488e-05
3.15176e-05
3.19578e-05
3.15177e-05
3.19599e-05
3.08721e-05
3.2233e-05
6.28384e-05
3.22344e-05
6.28377e-05
3.0872e-05
3.15178e-05
3.19598e-05
3.1449e-05
3.08722e-05
3.15178e-05
3.19579e-05
3.22329e-05
6.28401e-05
3.22343e-05
6.28396e-05
3.08724e-05
3.1449e-05
3.19577e-05
3.15177e-05
3.19598e-05
3.15177e-05
3.08718e-05
3.22344e-05
6.28377e-05
6.28384e-05
3.2233e-05
3.08724e-05
3.14489e-05
3.15177e-05
3.19579e-05
3.15177e-05
3.19598e-05
3.0872e-05
3.22343e-05
6.28396e-05
6.28401e-05
3.22329e-05
3.36134e-05
3.36156e-05
3.13006e-05
3.36123e-05
3.36146e-05
8.46965e-05
8.46956e-05
8.46934e-05
8.46948e-05
3.12996e-05
3.36123e-05
3.36146e-05
3.36134e-05
3.36156e-05
8.46956e-05
8.46965e-05
3.08716e-05
3.15178e-05
3.19601e-05
3.1449e-05
3.08719e-05
3.15178e-05
3.19581e-05
3.22323e-05
6.28405e-05
3.22339e-05
6.284e-05
3.22322e-05
6.28414e-05
3.22338e-05
6.28409e-05
3.0872e-05
3.1449e-05
3.15176e-05
3.1958e-05
3.15177e-05
3.19599e-05
3.08714e-05
3.0872e-05
3.1449e-05
3.15177e-05
3.19581e-05
3.15177e-05
3.19601e-05
3.08716e-05
3.22339e-05
6.28399e-05
6.28405e-05
3.22323e-05
3.22338e-05
6.28409e-05
6.28414e-05
3.22322e-05
8.46966e-05
8.46958e-05
8.46974e-05
8.46965e-05
3.12998e-05
3.36148e-05
3.36149e-05
3.36157e-05
3.36158e-05
8.46957e-05
8.46966e-05
8.46965e-05
8.46974e-05
8.46955e-05
8.46947e-05
8.4697e-05
8.46962e-05
3.36156e-05
3.36157e-05
3.13007e-05
3.36147e-05
3.36147e-05
8.46947e-05
8.46956e-05
8.46961e-05
8.46971e-05
3.12998e-05
3.36147e-05
3.36147e-05
3.36156e-05
3.36156e-05
3.22331e-05
6.28398e-05
3.22345e-05
6.28393e-05
3.0872e-05
3.19598e-05
3.15178e-05
3.1449e-05
3.08723e-05
3.19579e-05
3.15178e-05
3.08721e-05
3.19604e-05
3.15178e-05
3.1449e-05
3.08725e-05
3.19584e-05
3.15178e-05
3.22344e-05
6.2837e-05
6.28376e-05
3.2233e-05
3.22345e-05
6.28392e-05
6.28398e-05
3.22331e-05
3.08724e-05
3.14489e-05
3.19578e-05
3.15177e-05
3.19598e-05
3.15177e-05
3.0872e-05
3.08724e-05
3.14489e-05
3.19584e-05
3.15177e-05
3.19604e-05
3.15177e-05
3.08721e-05
3.36158e-05
3.36127e-05
3.13007e-05
3.36147e-05
3.36114e-05
8.46929e-05
8.46915e-05
8.46954e-05
8.46964e-05
3.12997e-05
3.36148e-05
3.36114e-05
3.36158e-05
3.36126e-05
8.46915e-05
8.46928e-05
3.08723e-05
3.19603e-05
3.15178e-05
3.1449e-05
3.08726e-05
3.19584e-05
3.15178e-05
3.22332e-05
6.284e-05
3.22345e-05
6.28393e-05
3.08722e-05
3.15178e-05
3.19599e-05
3.14489e-05
3.08725e-05
3.15178e-05
3.19578e-05
3.22349e-05
6.28395e-05
6.28402e-05
3.22336e-05
3.08726e-05
3.1449e-05
3.19584e-05
3.15177e-05
3.19603e-05
3.15177e-05
3.08723e-05
3.22345e-05
6.28393e-05
6.284e-05
3.22332e-05
3.08724e-05
3.14488e-05
3.15176e-05
3.19578e-05
3.15177e-05
3.19599e-05
3.08721e-05
3.2233e-05
6.28384e-05
3.22344e-05
6.28377e-05
3.0872e-05
3.15178e-05
3.19598e-05
3.1449e-05
3.08723e-05
3.15178e-05
3.19579e-05
3.22329e-05
6.28401e-05
3.22343e-05
6.28396e-05
3.08723e-05
3.1449e-05
3.19577e-05
3.15177e-05
3.19598e-05
3.15177e-05
3.08718e-05
3.22344e-05
6.28377e-05
6.28384e-05
3.2233e-05
3.08724e-05
3.14489e-05
3.15177e-05
3.19579e-05
3.15177e-05
3.19598e-05
3.0872e-05
3.22343e-05
6.28396e-05
6.28401e-05
3.22329e-05
3.36134e-05
3.36156e-05
3.13006e-05
3.36122e-05
3.36146e-05
8.46965e-05
8.46956e-05
8.46934e-05
8.46948e-05
3.12997e-05
3.36123e-05
3.36146e-05
3.36134e-05
3.36156e-05
8.46956e-05
8.46965e-05
3.08716e-05
3.15178e-05
3.19601e-05
3.1449e-05
3.08719e-05
3.15178e-05
3.19581e-05
3.22322e-05
6.28405e-05
3.22336e-05
6.284e-05
3.22322e-05
6.28414e-05
3.22338e-05
6.28409e-05
3.0872e-05
3.1449e-05
3.15176e-05
3.1958e-05
3.15177e-05
3.19599e-05
3.08714e-05
3.0872e-05
3.1449e-05
3.15176e-05
3.19581e-05
3.15177e-05
3.19601e-05
3.08716e-05
3.22335e-05
6.28399e-05
6.28405e-05
3.2232e-05
3.22338e-05
6.28409e-05
6.28414e-05
3.22322e-05
8.46966e-05
8.46958e-05
8.46974e-05
8.46965e-05
3.12998e-05
3.36148e-05
3.36149e-05
3.36157e-05
3.36158e-05
8.46957e-05
8.46966e-05
8.46965e-05
8.46974e-05
8.46955e-05
8.46947e-05
8.4697e-05
8.46962e-05
3.36157e-05
3.36156e-05
3.13007e-05
3.36147e-05
3.36147e-05
8.46947e-05
8.46956e-05
8.46962e-05
8.46971e-05
3.12998e-05
3.36147e-05
3.36147e-05
3.36157e-05
3.36157e-05
3.22331e-05
6.28398e-05
3.22345e-05
6.28393e-05
3.0872e-05
3.19598e-05
3.15178e-05
3.1449e-05
3.08723e-05
3.19579e-05
3.15178e-05
3.08721e-05
3.19604e-05
3.15178e-05
3.1449e-05
3.08725e-05
3.19584e-05
3.15178e-05
3.22344e-05
6.28371e-05
6.28376e-05
3.2233e-05
3.22345e-05
6.28393e-05
6.28398e-05
3.22331e-05
3.08724e-05
3.14489e-05
3.19578e-05
3.15177e-05
3.19598e-05
3.15177e-05
3.0872e-05
3.08724e-05
3.14489e-05
3.19584e-05
3.15177e-05
3.19604e-05
3.15177e-05
3.08721e-05
3.36158e-05
3.36127e-05
3.13007e-05
3.36147e-05
3.36114e-05
8.46929e-05
8.46915e-05
8.46954e-05
8.46964e-05
3.12997e-05
3.36147e-05
3.36114e-05
3.36158e-05
3.36126e-05
8.46915e-05
8.46928e-05
3.08723e-05
3.19603e-05
3.15178e-05
3.1449e-05
3.08726e-05
3.19584e-05
3.15178e-05
3.22332e-05
6.284e-05
3.22345e-05
6.28393e-05
3.08722e-05
3.15178e-05
3.19599e-05
3.14489e-05
3.08725e-05
3.15177e-05
3.19578e-05
3.22349e-05
6.28395e-05
6.28402e-05
3.22336e-05
3.08726e-05
3.1449e-05
3.19584e-05
3.15177e-05
3.19603e-05
3.15177e-05
3.08723e-05
3.22345e-05
6.28393e-05
6.284e-05
3.22332e-05
3.08724e-05
3.14488e-05
3.15176e-05
3.19578e-05
3.15177e-05
3.19599e-05
3.08721e-05
3.2233e-05
6.28384e-05
3.22344e-05
6.28377e-05
3.0872e-05
3.15178e-05
3.19598e-05
3.1449e-05
3.08723e-05
3.15178e-05
3.19579e-05
3.22329e-05
6.28401e-05
3.22343e-05
6.28396e-05
3.08723e-05
3.1449e-05
3.19577e-05
3.15177e-05
3.19598e-05
3.15177e-05
3.08718e-05
3.22344e-05
6.28377e-05