/*--------------------------------*- C++ -*----------------------------------*\
| =========                 |                                                 |
| \\      /  F ield         | OpenFOAM: The Open Source CFD Toolbox           |
|  \\    /   O peration     | Version:  2206                                  |
|   \\  /    A nd           | Website:  www.openfoam.com                      |
|    \\/     M anipulation  |                                                 |
\*---------------------------------------------------------------------------*/
FoamFile
{
    version     2.0;
    format      ascii;
    arch        "LSB;label=32;scalar=64";
    class       surfaceScalarField;
    location    "1";
    object      phi;
}
// * * * * * * * * * * * * * * * * * * * * * * * * * * * * * * * * * * * * * //

dimensions      [0 3 -1 0 0 0 0];

oriented        oriented;

internalField   nonuniform List<scalar> 
83375
(
8.78335e-06
8.7894e-06
-2.8096e-07
-5.57496e-07
-8.35829e-06
-8.37601e-06
-4.64705e-07
-2.32054e-06
1.12739e-06
8.44109e-06
-6.12574e-06
6.57102e-06
8.60353e-06
-8.08647e-06
7.70283e-06
-8.99274e-06
2.32767e-06
-8.77345e-06
-4.66986e-07
-2.32627e-06
1.12394e-06
8.44107e-06
-6.11528e-06
6.56085e-06
8.60714e-06
-8.08948e-06
7.70577e-06
-8.99645e-06
2.32914e-06
8.78291e-06
-5.54763e-07
-8.36615e-06
-8.35305e-06
-2.82392e-07
-4.68261e-07
-2.29819e-06
1.12662e-06
8.44828e-06
-6.1176e-06
6.56283e-06
8.6081e-06
-8.08958e-06
7.70703e-06
-8.99624e-06
2.30641e-06
-8.77392e-06
-4.73753e-07
-2.3168e-06
1.11833e-06
8.44231e-06
-6.11447e-06
6.56107e-06
8.60647e-06
-8.08659e-06
7.70493e-06
-8.99394e-06
2.32635e-06
-4.69773e-07
-2.30281e-06
1.12659e-06
8.44916e-06
-6.12405e-06
6.57149e-06
8.60656e-06
-8.08817e-06
7.70461e-06
-8.99567e-06
2.30497e-06
-8.77556e-06
-4.72446e-07
1.12016e-06
8.44411e-06
-6.12272e-06
6.5718e-06
8.60576e-06
-8.08422e-06
7.70434e-06
-8.9924e-06
2.32435e-06
-2.32318e-06
8.78171e-06
-5.5364e-07
-8.36705e-06
-8.35511e-06
-2.7983e-07
-4.68648e-07
1.12683e-06
8.44542e-06
-6.12245e-06
6.57143e-06
8.60537e-06
-8.08503e-06
7.70393e-06
-8.99245e-06
2.30594e-06
-2.30861e-06
-8.78151e-06
-4.74658e-07
1.1206e-06
8.45104e-06
-6.11466e-06
6.56348e-06
8.60993e-06
-8.08783e-06
7.70925e-06
-8.996e-06
2.30374e-06
-2.30338e-06
-5.62953e-07
-8.35005e-06
-8.36761e-06
-2.76468e-07
8.01808e-06
8.03615e-06
5.51587e-07
-8.43962e-06
-8.44716e-06
-5.62393e-07
-8.35027e-06
-8.36732e-06
8.77537e-06
8.7816e-06
-2.76985e-07
-3.08383e-06
-4.70701e-07
-4.71437e-07
3.09301e-06
-3.08855e-06
-4.70032e-07
-4.69801e-07
3.09162e-06
-4.63747e-07
-4.67601e-07
3.0863e-06
-3.09736e-06
-4.73095e-07
-4.74868e-07
3.08083e-06
-3.07998e-06
1.76719e-06
-2.9863e-07
-3.18408e-07
-1.15015e-06
-1.35156e-06
-1.17022e-07
1.14947e-06
3.19114e-07
1.76444e-06
-2.96005e-07
-3.1822e-07
-1.15021e-06
-1.3488e-06
-1.19748e-07
1.14869e-06
3.19864e-07
-8.4426e-06
-8.45038e-06
5.62385e-07
8.01793e-06
8.03601e-06
2.76656e-07
2.27951e-06
-7.00789e-07
3.32863e-06
-2.59082e-06
-5.49327e-07
2.27871e-06
-7.01568e-07
3.32555e-06
-2.58934e-06
-5.48914e-07
-2.28693e-06
3.47748e-07
-2.70379e-06
2.59104e-06
7.00361e-07
-2.28712e-06
3.48132e-07
-2.70053e-06
2.58984e-06
7.00878e-07
7.08952e-10
-4.87005e-06
2.39038e-06
-1.96248e-08
1.9738e-06
5.2479e-07
3.77381e-06
-1.95706e-06
-1.59289e-06
-5.22491e-07
-3.76308e-06
1.16613e-06
1.95602e-06
5.23911e-07
-3.79713e-10
4.71209e-06
-1.97277e-06
-2.33816e-06
1.25294e-07
-5.26072e-07
-4.87071e-06
2.39082e-06
-1.83874e-08
1.97408e-06
5.24905e-07
3.77561e-06
2.94549e-07
-1.95758e-06
-1.59009e-06
-5.22491e-07
-3.76503e-06
1.18826e-07
1.16593e-06
1.95704e-06
5.23243e-07
4.71287e-06
-1.97313e-06
-2.33866e-06
1.24547e-07
-5.26004e-07
7.42832e-10
3.68159e-07
-7.64247e-06
1.88923e-06
5.14275e-07
1.12343e-06
-4.66714e-07
-8.77616e-06
6.57099e-06
-6.12347e-06
-8.9931e-06
7.70331e-06
-8.08555e-06
8.60423e-06
-2.32011e-06
6.71374e-06
-2.03696e-06
1.89652e-06
-5.19984e-07
-2.55015e-06
4.60603e-10
4.72327e-07
9.19921e-06
-8.98592e-06
9.3318e-06
-8.8953e-06
2.55497e-06
-2.0489e-06
-6.55771e-06
2.03749e-06
5.19111e-07
-1.07716e-09
4.74362e-07
-8.89655e-06
9.3315e-06
9.19856e-06
-8.98733e-06
-2.54619e-06
3.29362e-10
-1.88836e-06
-2.43353e-07
7.35872e-06
-5.15249e-07
3.69603e-07
-7.6435e-06
1.88991e-06
5.1402e-07
1.12546e-06
8.44096e-06
-4.64543e-07
-8.99719e-06
7.70552e-06
8.60675e-06
-8.0902e-06
-8.77381e-06
6.56069e-06
-6.11574e-06
-2.32417e-06
-2.27984e-06
6.71556e-06
-2.03624e-06
1.89638e-06
-5.20256e-07
-2.55463e-06
4.72959e-07
9.20038e-06
-8.98719e-06
9.33278e-06
-8.89748e-06
2.55759e-06
2.28794e-06
-2.05009e-06
-6.5589e-06
2.03751e-06
5.18503e-07
4.76386e-07
-8.89874e-06
9.33245e-06
9.2e-06
-8.9887e-06
-2.55164e-06
-1.88916e-06
-2.42668e-07
7.35974e-06
-5.14707e-07
1.76321e-06
-1.15054e-06
-3.18121e-07
-1.34998e-06
1.15002e-06
3.18791e-07
-8.44904e-06
5.56465e-07
8.03458e-06
8.02036e-06
2.786e-07
3.32384e-06
-2.5889e-06
-5.50314e-07
-7.01269e-07
-1.76583e-06
2.27881e-06
3.3288e-06
-2.59201e-06
-5.49609e-07
-7.00163e-07
3.47773e-07
-2.69966e-06
2.58942e-06
7.00426e-07
1.3526e-06
-2.28777e-06
3.47868e-07
-2.70463e-06
2.59276e-06
6.99178e-07
-2.97468e-07
-1.14977e-06
-3.18593e-07
-1.15948e-07
1.14868e-06
3.19865e-07
-4.87073e-06
-8.02771e-10
-1.84291e-08
2.39116e-06
1.97397e-06
5.24828e-07
3.7755e-06
-1.95817e-06
-1.59152e-06
-5.21812e-07
-3.7655e-06
1.16527e-06
1.95619e-06
5.24286e-07
4.71234e-06
8.75377e-10
-1.97278e-06
1.24143e-07
-2.33847e-06
-5.26114e-07
-5.94354e-10
3.69007e-07
-7.64331e-06
1.89146e-06
5.12703e-07
1.12222e-06
-4.69305e-07
-8.78138e-06
6.56341e-06
-6.11492e-06
-8.9966e-06
7.70834e-06
-8.08883e-06
8.60957e-06
-2.30107e-06
6.71517e-06
-2.03721e-06
1.89646e-06
-5.20207e-07
-2.55378e-06
2.16173e-09
4.74115e-07
9.19977e-06
-8.98724e-06
9.33159e-06
-8.89718e-06
2.55719e-06
-2.04932e-06
-6.56026e-06
2.03908e-06
5.17875e-07
-2.54125e-09
4.77621e-07
-8.89895e-06
9.33122e-06
9.19925e-06
-8.98874e-06
-2.54942e-06
5.61666e-10
-1.89024e-06
-2.43711e-07
7.35991e-06
-5.1418e-07
-4.87015e-06
2.39045e-06
-1.96462e-08
1.97396e-06
5.24576e-07
3.77431e-06
2.9528e-07
-1.95525e-06
-1.59108e-06
-5.23265e-07
-3.76394e-06
1.19024e-07
1.16609e-06
1.95431e-06
5.24516e-07
4.71208e-06
-1.97285e-06
-2.3381e-06
1.25556e-07
-5.25816e-07
-7.64308e-06
3.68316e-07
1.89152e-06
5.12504e-07
1.13022e-06
8.44044e-06
-8.99566e-06
7.70364e-06
8.60506e-06
-8.08804e-06
-8.77442e-06
6.56053e-06
-6.11618e-06
-2.32153e-06
-4.60856e-07
-2.55517e-06
4.71778e-07
9.19892e-06
-8.98668e-06
9.33182e-06
-8.89638e-06
2.55622e-06
-2.27937e-06
6.7137e-06
-2.03722e-06
1.89639e-06
-5.19202e-07
4.75619e-07
-8.89666e-06
9.33195e-06
9.19895e-06
-8.98741e-06
-2.54995e-06
2.28726e-06
-2.04956e-06
-6.55778e-06
2.03862e-06
5.17518e-07
-1.89064e-06
7.35937e-06
-2.42503e-07
-5.13588e-07
4.86963e-06
-2.96338e-09
3.71389e-07
-7.64284e-06
1.89121e-06
5.13577e-07
1.12805e-06
-4.68603e-07
-8.78313e-06
6.57172e-06
-6.12443e-06
-8.99651e-06
7.70475e-06
8.60669e-06
-8.08888e-06
-2.30152e-06
-3.77417e-06
6.7144e-06
-2.037e-06
1.89582e-06
-5.20251e-07
-2.55349e-06
2.67773e-09
4.76227e-07
9.19972e-06
-8.9879e-06
9.33205e-06
-8.89754e-06
2.55484e-06
3.76309e-06
-2.05051e-06
-6.55731e-06
2.03825e-06
5.18706e-07
3.71538e-09
4.77198e-07
-8.89848e-06
9.33202e-06
9.19939e-06
-8.98869e-06
-2.5506e-06
-4.7117e-06
-1.73606e-09
-1.89107e-06
-2.4159e-07
7.35979e-06
-5.1369e-07
-2.71859e-09
-1.71859e-08
2.39022e-06
1.97461e-06
5.2471e-07
-1.95665e-06
-1.59206e-06
-5.22924e-07
1.16715e-06
1.95547e-06
5.24526e-07
-3.56723e-10
-1.97428e-06
1.25364e-07
-2.33725e-06
-5.25181e-07
4.86916e-06
-7.64237e-06
3.65542e-07
1.89211e-06
5.12588e-07
-2.55161e-06
4.70352e-07
9.20058e-06
-8.98654e-06
9.33271e-06
-8.89541e-06
2.55276e-06
-3.77245e-06
-2.2792e-06
6.71194e-06
-2.03883e-06
1.89707e-06
-5.18532e-07
4.71299e-07
-8.89624e-06
9.33198e-06
9.20025e-06
-8.98741e-06
-2.54758e-06
-1.12019e-06
-4.71137e-06
-1.89238e-06
7.35903e-06
-2.44609e-07
-5.12412e-07
2.38904e-06
-2.16517e-08
1.97442e-06
5.24646e-07
2.98393e-07
-1.95379e-06
-1.59304e-06
-5.24004e-07
-1.97436e-06
-2.33729e-06
1.24828e-07
-5.24911e-07
1.76315e-06
-1.14883e-06
-3.19042e-07
-1.34894e-06
1.14799e-06
3.19969e-07
5.54674e-07
8.03496e-06
2.76673e-07
-8.44669e-06
8.02082e-06
3.32367e-06
-2.58969e-06
-5.49499e-07
-7.00699e-07
-1.76646e-06
2.2782e-06
3.32866e-06
-2.59017e-06
-5.49075e-07
-7.0115e-07
-2.69922e-06
2.5904e-06
6.99662e-07
3.47481e-07
-2.98366e-07
-1.14964e-06
-3.18449e-07
3.12652e-09
4.74332e-07
9.19776e-06
-8.98787e-06
9.33056e-06
-8.89659e-06
2.55425e-06
-2.54875e-06
-3.77284e-06
6.71212e-06
-2.03783e-06
1.8959e-06
-5.19153e-07
-1.90178e-09
-4.71111e-06
-1.8917e-06
7.35977e-06
-2.41803e-07
-5.13259e-07
4.72405e-07
9.20093e-06
-8.98804e-06
9.3323e-06
-8.8978e-06
2.55529e-06
-2.55136e-06
-3.77444e-06
-2.27884e-06
6.71369e-06
-2.03869e-06
1.89713e-06
-5.18861e-07
-4.7121e-06
-1.89234e-06
7.36041e-06
-2.45023e-07
-5.12847e-07
-1.95575e-06
-1.59255e-06
-5.22912e-07
-1.57955e-09
-1.97387e-06
1.26324e-07
-2.33666e-06
-5.25317e-07
2.95877e-07
-1.9544e-06
-1.59197e-06
-5.23943e-07
-1.97445e-06
1.23655e-07
-2.33762e-06
-5.25267e-07
-1.76567e-06
3.3261e-06
-2.58935e-06
-5.48876e-07
-7.01405e-07
-1.76317e-06
3.32343e-06
-2.58973e-06
-5.48495e-07
-7.00861e-07
-1.14786e-06
-3.1942e-07
-1.14799e-06
-3.19306e-07
-1.35162e-06
1.14995e-06
-1.16732e-07
1.76776e-06
-3.18921e-07
-1.14948e-06
-2.99352e-07
-1.34918e-06
1.15026e-06
-1.19298e-07
1.76514e-06
-3.18781e-07
-1.14977e-06
-2.96597e-07
-2.70347e-06
3.47851e-07
2.59031e-06
-2.28712e-06
-2.70067e-06
3.4817e-07
2.58874e-06
-2.28699e-06
-2.80781e-07
-5.56046e-07
-8.3492e-06
-8.36667e-06
8.77342e-06
8.77928e-06
-7.00264e-07
-5.49136e-07
-2.5904e-06
3.32774e-06
2.27982e-06
-7.01086e-07
-5.49002e-07
-2.58877e-06
3.32467e-06
2.27933e-06
1.76739e-06
-1.1466e-06
-2.99981e-07
-3.20809e-07
-1.34959e-06
1.14829e-06
-1.17622e-07
1.76466e-06
-1.14667e-06
-2.97232e-07
-3.20762e-07
-1.34729e-06
1.14846e-06
-1.19955e-07
5.59236e-07
8.02044e-06
8.0385e-06
-8.44562e-06
-8.45334e-06
3.32685e-06
-2.59262e-06
-5.48111e-07
2.27958e-06
-6.9831e-07
3.32354e-06
-2.59093e-06
-5.47918e-07
2.27919e-06
-6.99222e-07
3.47593e-07
-2.70272e-06
2.5915e-06
-2.28623e-06
3.4786e-07
-2.70008e-06
2.58983e-06
-2.28599e-06
3.18485e-07
-1.35206e-06
-1.16573e-07
1.76657e-06
-2.9862e-07
3.18593e-07
-1.34971e-06
-1.19095e-07
1.76347e-06
-2.96193e-07
-2.03927e-06
-4.45189e-08
-4.35553e-08
1.31708e-06
1.32575e-06
-5.15486e-07
3.21458e-08
9.91067e-07
-1.2977e-06
2.74488e-07
3.34603e-08
9.90809e-07
-1.2986e-06
2.74335e-07
-1.23828e-06
-1.2501e-06
5.14715e-07
1.21987e-06
-2.73319e-07
1.22056e-06
-2.73302e-07
3.39909e-06
-5.08974e-08
1.80448e-06
4.18311e-07
1.23893e-06
-6.80992e-06
-1.75636e-06
-4.36409e-07
-3.16751e-07
5.58946e-06
2.48691e-07
3.47861e-07
-2.70354e-06
7.00326e-07
-2.28753e-06
-1.91164e-06
3.11896e-06
-1.21982e-06
-5.36817e-07
5.37594e-07
1.29772e-06
3.14716e-07
-5.11755e-06
2.92035e-07
-1.31794e-06
-4.19911e-07
6.22488e-06
3.39914e-06
-5.81827e-08
1.80463e-06
4.18229e-07
1.25069e-06
-6.8145e-06
-1.75568e-06
-4.41495e-07
-3.17145e-07
5.58897e-06
2.50897e-07
3.48279e-07
-2.70076e-06
7.00921e-07
-2.28749e-06
-1.9117e-06
3.11929e-06
-1.22041e-06
-5.36084e-07
5.37055e-07
1.29866e-06
3.14654e-07
-5.11778e-06
2.88501e-07
-1.32698e-06
-4.1966e-07
6.22905e-06
-1.80683e-06
-3.11826e-06
4.3592e-07
6.22456e-06
-3.39869e-06
1.90962e-06
5.39114e-07
5.0583e-08
1.757e-06
-5.11679e-06
2.9236e-07
3.13063e-07
-5.48816e-07
3.32766e-06
2.2791e-06
-6.81006e-06
4.1685e-07
5.58668e-06
2.48611e-07
-1.80642e-06
-3.11859e-06
4.40169e-07
6.22882e-06
-3.39854e-06
1.9092e-06
5.38864e-07
5.78278e-08
1.75689e-06
-5.11683e-06
2.88411e-07
3.13162e-07
-5.48223e-07
3.32454e-06
2.27791e-06
-6.81443e-06
4.17206e-07
5.5864e-06
2.49852e-07
-3.13863e-08
-3.26184e-08
2.03814e-06
-9.93012e-07
4.56912e-08
-2.72501e-07
-9.92738e-07
4.47455e-08
-2.72419e-07
-5.16337e-07
-1.65327e-06
-2.08172e-07
2.20161e-06
1.6154e-07
-5.01708e-07
-1.54936e-07
1.94196e-06
-2.59393e-10
6.03619e-07
2.23828e-06
1.96035e-06
-7.04019e-08
-4.66662e-06
5.18764e-07
-2.33803e-06
1.25467e-07
-5.25644e-07
-4.88952e-10
4.71249e-06
-7.17223e-08
5.01797e-07
-6.03707e-07
-5.3641e-10
3.05063e-07
-5.19788e-07
4.50215e-06
-1.37225e-06
1.00321e-06
2.97278e-07
7.17667e-08
1.16643e-06
5.22566e-07
-3.76263e-06
-2.52854e-06
-1.46241e-06
-3.04686e-07
3.40336e-06
-7.00609e-07
7.00196e-07
7.03592e-08
-3.50492e-06
-1.61657e-07
-2.97548e-07
-1.00308e-06
1.46189e-06
1.37255e-06
2.52905e-06
-3.50571e-06
6.99827e-07
-1.59326e-06
3.77322e-06
2.97753e-07
3.40295e-06
1.54858e-07
-2.23803e-06
1.65323e-06
2.39043e-06
-1.96002e-08
7.68479e-10
-4.87002e-06
-1.9418e-06
2.08456e-07
-7.07776e-10
-6.04115e-07
-1.95912e-06
-2.20219e-06
4.50222e-06
-5.20292e-07
-2.15863e-10
-4.66618e-06
-5.02161e-07
-1.65469e-06
-2.07137e-07
2.20292e-06
1.60592e-07
-5.01689e-07
-1.55431e-07
1.94243e-06
6.03568e-07
2.23927e-06
1.96011e-06
-6.92011e-08
-4.66836e-06
5.19801e-07
-2.33856e-06
1.24659e-07
-5.25694e-07
4.71318e-06
-7.23346e-08
5.01481e-07
-6.038e-07
3.03493e-07
-5.20246e-07
4.50444e-06
-1.37353e-06
1.0044e-06
2.96887e-07
7.22469e-08
1.1658e-06
5.22298e-07
1.18887e-07
-3.76456e-06
-2.52889e-06
-1.46228e-06
-3.03336e-07
3.40543e-06
-7.01016e-07
7.00681e-07
6.9119e-08
-3.50642e-06
-1.6054e-07
-2.97347e-07
-1.00466e-06
1.46215e-06
1.37397e-06
2.52908e-06
-3.50698e-06
7.0066e-07
-1.59014e-06
2.9431e-07
3.77516e-06
2.96968e-07
3.40527e-06
1.55366e-07
-2.23891e-06
1.65411e-06
2.39059e-06
-1.83404e-08
-4.87031e-06
-1.94194e-06
2.07055e-07
-6.04479e-07
-1.95957e-06
-2.20295e-06
4.50419e-06
-5.20464e-07
-4.66794e-06
-5.02326e-07
3.18084e-07
-1.34974e-06
1.76241e-06
-2.03972e-06
-4.28061e-08
-4.42176e-08
1.32556e-06
1.31628e-06
-5.15092e-07
3.29466e-08
9.91801e-07
-1.29835e-06
2.73601e-07
3.15747e-08
9.91642e-07
-1.2972e-06
2.73983e-07
-1.24976e-06
-1.23973e-06
5.14293e-07
1.22181e-06
-2.72821e-07
1.22046e-06
-2.7304e-07
-5.69022e-08
3.39884e-06
1.80596e-06
4.17331e-07
1.2502e-06
-6.81543e-06
-1.75505e-06
-4.40152e-07
5.58467e-06
2.4991e-07
-3.15534e-07
-2.69921e-06
3.47712e-07
7.00984e-07
-2.28812e-06
-1.91159e-06
3.1193e-06
-1.22179e-06
-5.36237e-07
3.14686e-07
-5.11533e-06
2.89481e-07
5.36713e-07
1.29825e-06
-1.3262e-06
6.22959e-06
-4.18294e-07
3.39842e-06
-5.2278e-08
1.8035e-06
4.19109e-07
1.23993e-06
-6.80868e-06
-1.75553e-06
-4.35493e-07
5.58846e-06
2.47381e-07
-3.16026e-07
3.4795e-07
-2.70441e-06
6.99861e-07
1.35246e-06
-2.28787e-06
-1.91169e-06
3.11907e-06
-1.22036e-06
-5.36626e-07
5.37494e-07
1.29719e-06
3.15123e-07
-5.11846e-06
2.91122e-07
-1.31702e-06
6.22408e-06
-4.19995e-07
4.40165e-07
-1.80803e-06
-3.11848e-06
6.22922e-06
-3.39883e-06
1.90993e-06
5.38313e-07
1.75706e-06
5.67815e-08
2.89188e-07
-5.11588e-06
3.13185e-07
3.32336e-06
-5.49978e-07
2.27943e-06
2.50536e-07
5.58473e-06
-6.81586e-06
4.16018e-07
-1.80544e-06
-3.11806e-06
4.35138e-07
6.22375e-06
-3.39818e-06
1.90943e-06
5.39416e-07
5.24674e-08
1.75761e-06
-5.11889e-06
2.90706e-07
3.13469e-07
-5.49319e-07
3.32812e-06
-1.76441e-06
2.27823e-06
-6.80872e-06
4.17829e-07
5.58859e-06
2.47392e-07
-3.24164e-08
-3.09946e-08
2.03845e-06
-9.93004e-07
4.37025e-08
-2.72492e-07
-9.93143e-07
4.52892e-08
-2.7251e-07
-5.15779e-07
3.18829e-07
-1.16134e-07
-2.96899e-07
-1.6538e-06
2.20214e-06
-2.07067e-07
1.60558e-07
-5.01837e-07
2.23952e-06
1.96019e-06
-6.92882e-08
-4.66833e-06
5.19475e-07
-1.54888e-07
1.94198e-06
-5.65557e-11
6.04121e-07
1.24428e-07
-2.33785e-06
-5.25785e-07
7.84548e-10
4.71239e-06
-7.16533e-08
5.02488e-07
3.03901e-07
-5.2045e-07
4.50331e-06
-6.03719e-07
7.79257e-10
-1.37306e-06
1.00443e-06
2.97016e-07
7.16114e-08
1.16581e-06
5.22306e-07
-3.76538e-06
-2.52901e-06
-1.46246e-06
-3.03339e-07
3.40446e-06
-7.01174e-07
7.00888e-07
6.92426e-08
-3.5064e-06
-1.60801e-07
-2.97229e-07
-1.00418e-06
1.46175e-06
1.37339e-06
2.52903e-06
-3.50718e-06
7.00742e-07
-1.59209e-06
3.7744e-06
2.97561e-07
3.40348e-06
-2.23903e-06
1.54706e-07
1.65409e-06
-1.8374e-08
2.39084e-06
-7.64908e-10
-4.87027e-06
-1.95924e-06
-2.20302e-06
4.50365e-06
-5.20596e-07
-1.94216e-06
2.07455e-07
3.84917e-10
-6.04149e-07
-4.66784e-06
-3.34098e-10
-5.02264e-07
-1.65236e-06
-2.08274e-07
2.20157e-06
1.61182e-07
-5.02114e-07
-1.55127e-07
1.94145e-06
6.04071e-07
2.23804e-06
1.96097e-06
-7.05727e-08
-4.66651e-06
5.18429e-07
-2.33768e-06
1.25598e-07
-5.25376e-07
4.7122e-06
-7.16854e-08
5.02233e-07
-6.03729e-07
3.04757e-07
-5.18941e-07
4.50231e-06
-1.37195e-06
1.00241e-06
2.97573e-07
7.196e-08
1.16613e-06
5.23199e-07
1.19138e-07
-3.76371e-06
-2.52868e-06
-1.46141e-06
-3.0448e-07
3.40355e-06
-7.00064e-07
6.99663e-07
7.04212e-08
-3.50458e-06
-1.61008e-07
-2.97991e-07
-1.00261e-06
1.46137e-06
1.37212e-06
2.52911e-06
-3.50508e-06
6.99354e-07
-1.59135e-06
2.94962e-07
3.77389e-06
2.97827e-07
3.40354e-06
1.55407e-07
-2.23759e-06
1.65203e-06
2.38995e-06
-1.95076e-08
-4.86944e-06
-1.94129e-06
2.08e-07
-6.04412e-07
-1.9601e-06
-2.20186e-06
4.50241e-06
-5.19372e-07
-4.66572e-06
-5.0284e-07
-1.65297e-06
2.20169e-06
-2.05078e-07
1.59272e-07
-5.02916e-07
2.23885e-06
1.96038e-06
-6.87295e-08
-4.66737e-06
5.19685e-07
-1.56463e-07
1.94049e-06
1.73374e-09
6.04459e-07
1.2565e-07
-2.33781e-06
-5.24937e-07
-7.58409e-10
4.71246e-06
-7.29269e-08
5.02339e-07
3.04849e-07
-5.20031e-07
4.5029e-06
-6.05287e-07
2.87669e-09
-1.37388e-06
1.00378e-06
2.97421e-07
7.26814e-08
1.16681e-06
5.2314e-07
-3.76274e-06
-2.52911e-06
-1.46089e-06
-3.04612e-07
3.40383e-06
-7.01278e-07
7.01099e-07
6.86517e-08
-3.50594e-06
-1.59544e-07
-2.9756e-07
-1.004e-06
1.46069e-06
1.37448e-06
2.5291e-06
-3.50615e-06
7.00982e-07
-1.59189e-06
3.77361e-06
2.97557e-07
3.40385e-06
-2.23887e-06
1.5611e-07
1.65252e-06
-1.72309e-08
2.39036e-06
-2.4667e-09
-4.86988e-06
-1.9599e-06
-2.20139e-06
4.5024e-06
-5.20356e-07
-1.9397e-06
2.05446e-07
2.48101e-09
-6.05475e-07
-4.66738e-06
1.47882e-09
-5.02967e-07
-1.65212e-06
-2.10269e-07
2.20246e-06
1.62838e-07
-5.0291e-07
-1.53393e-07
1.93999e-06
6.04171e-07
2.23688e-06
1.95987e-06
-7.3085e-08
-4.66508e-06
5.19763e-07
-2.33797e-06
1.24346e-07
-5.2464e-07
4.71192e-06
-7.05159e-08
5.01878e-07
-6.05372e-07
3.03934e-07
-5.19426e-07
4.50217e-06
-1.37067e-06
1.00219e-06
2.97717e-07
7.07579e-08
1.16727e-06
1.16659e-07
-3.76192e-06
5.24191e-07
-2.52781e-06
-1.46261e-06
-3.04657e-07
3.40276e-06
-7.00728e-07
7.00703e-07
7.2676e-08
-3.50458e-06
-1.62365e-07
-2.98057e-07
-1.00317e-06
1.46372e-06
1.37069e-06
2.52777e-06
-3.50491e-06
-1.16734e-06
7.00722e-07
2.97014e-07
3.40342e-06
1.59268e-06
1.53725e-07
-2.23677e-06
1.65089e-06
2.38894e-06
-2.13445e-08
-4.86906e-06
-1.93877e-06
2.09699e-07
-6.05735e-07
-1.96009e-06
-2.20169e-06
4.50147e-06
-5.1952e-07
-4.66493e-06
-5.03471e-07
3.18893e-07
-1.34859e-06
1.76185e-06
-4.25974e-08
-4.38792e-08
1.32517e-06
1.31566e-06
-5.13913e-07
-2.04044e-06
1.22146e-06
-2.73649e-07
-9.90411e-07
1.22024e-06
-2.73445e-07
-9.90674e-07
-5.6145e-08
3.39869e-06
1.80541e-06
4.17378e-07
1.24916e-06
-6.81449e-06
-1.75495e-06
-4.40191e-07
5.58489e-06
2.49664e-07
-3.15744e-07
-2.69824e-06
3.47892e-07
6.99921e-07
-2.28785e-06
-1.91043e-06
3.11905e-06
-1.22141e-06
-5.36712e-07
3.14195e-07
-5.11306e-06
2.89535e-07
5.37506e-07
1.29864e-06
-1.32637e-06
6.22947e-06
-4.18829e-07
3.39805e-06
-5.18649e-08
1.80622e-06
4.1701e-07
1.23888e-06
-6.8083e-06
-1.75736e-06
-4.35357e-07
5.58925e-06
2.47221e-07
-3.151e-07
3.48163e-07
-2.70284e-06
7.00434e-07
1.3517e-06
-2.28763e-06
-1.90997e-06
3.11878e-06
-1.22026e-06
-5.37616e-07
5.38413e-07
1.29782e-06
3.12899e-07
-5.11548e-06
2.90513e-07
-1.31663e-06
6.22456e-06
-4.18284e-07
4.39924e-07
-3.11842e-06
6.22825e-06
-1.80722e-06
1.75672e-06
2.90234e-07
-5.11601e-06
3.13421e-07
5.64133e-08
3.32221e-06
-5.49244e-07
2.2792e-06
2.51161e-07
5.58189e-06
-1.9087e-06
-3.11773e-06
4.3509e-07
6.2238e-06
-1.80849e-06
-5.48815e-07
3.32662e-06
-1.76452e-06
-2.59108e-06
2.27823e-06
-1.90791e-06
5.58555e-06
-1.75941e-06
2.48469e-07
-3.31623e-08
-3.20884e-08
2.03938e-06
-9.91836e-07
4.32534e-08
-2.72833e-07
-9.92289e-07
4.49075e-08
-2.72883e-07
-5.15463e-07
3.18708e-07
-1.16645e-07
-1.14831e-06
-2.97509e-07
-1.37322e-06
1.00286e-06
7.26176e-08
2.97742e-07
1.16648e-06
-3.76238e-06
5.23506e-07
-2.52792e-06
-1.46027e-06
-3.05432e-07
3.40206e-06
-7.00995e-07
6.99275e-08
-3.50521e-06
7.00622e-07
-1.59999e-07
-2.97404e-07
-2.23799e-06
1.5618e-07
1.65141e-06
5.03016e-07
-1.85912e-08
2.39006e-06
-7.53278e-10
-4.86928e-06
5.24688e-07
-1.95961e-06
-2.20048e-06
4.50101e-06
-5.2002e-07
-1.93947e-06
2.06376e-07
1.3852e-09
-6.04952e-07
-4.66542e-06
5.19165e-07
1.4942e-09
6.0528e-07
-5.02701e-07
-1.37159e-06
1.00276e-06
7.09091e-08
2.97919e-07
1.16675e-06
1.19157e-07
-3.76454e-06
5.24241e-07
-2.52958e-06
-1.46246e-06
-3.03386e-07
3.40405e-06
-7.00591e-07
7.13119e-08
-3.50597e-06
7.0024e-07
-1.6152e-07
-2.98179e-07
-2.23793e-06
1.5384e-07
1.65156e-06
5.03429e-07
-1.99391e-08
2.38964e-06
-4.8695e-06
5.24596e-07
-1.96154e-06
-2.20236e-06
4.50351e-06
-5.19347e-07
-1.9395e-06
2.08681e-07
-6.05412e-07
-4.66698e-06
5.18897e-07
6.05474e-07
-5.03628e-07
-5.01007e-08
3.39794e-06
1.80751e-06
1.23754e-06
-6.80964e-06
4.16743e-07
-1.7586e-06
-4.35545e-07
5.58509e-06
2.48768e-07
-3.13608e-07
-2.7029e-06
3.47458e-07
1.35081e-06
-2.28599e-06
7.01273e-07
-1.90867e-06
3.11762e-06
-1.21957e-06
-5.38258e-07
-5.11744e-06
2.93019e-07
3.12814e-07
1.2976e-06
5.39125e-07
-1.31682e-06
6.22378e-06
-4.17388e-07
-5.70916e-08
3.39826e-06
1.80713e-06
1.24923e-06
-6.81437e-06
4.16845e-07
-1.7565e-06
-4.41162e-07
5.58438e-06
2.51308e-07
-3.14594e-07
-2.70029e-06
3.47897e-07
1.34845e-06
-2.28627e-06
7.00476e-07
-1.90866e-06
3.11817e-06
-1.22026e-06
-5.37748e-07
-5.11783e-06
2.90057e-07
3.13882e-07
1.29895e-06
5.38537e-07
-1.32602e-06
6.22774e-06
-4.17584e-07
-3.28152e-08
-3.44094e-08
2.03891e-06
5.1507e-07
-9.90393e-07
4.47315e-08
-2.7391e-07
-9.9029e-07
4.38537e-08
-2.73826e-07
2.74388e-07
2.74252e-07
-5.15334e-07
3.19598e-07
3.19604e-07
-3.18725e-07
1.76779e-06
-2.99115e-07
-1.35095e-06
-1.17263e-07
-3.18463e-07
1.76524e-06
-2.96512e-07
-1.34851e-06
-1.19715e-07
-3.20679e-08
-3.32959e-08
2.03727e-06
5.1657e-07
-1.23847e-06
-1.25001e-06
-9.93042e-07
4.62423e-08
1.21969e-06
-2.72886e-07
-9.92828e-07
4.53788e-08
1.22027e-06
-2.72822e-07
2.72716e-07
-1.29782e-06
2.72632e-07
-1.29875e-06
1.31789e-06
1.32718e-06
-5.16167e-07
-1.803e-06
-3.11965e-06
4.35458e-07
-1.3181e-06
-4.20192e-07
6.22548e-06
5.06383e-08
1.75382e-06
-5.11778e-06
2.93112e-07
-3.39876e-06
1.91202e-06
1.29778e-06
-5.49245e-07
3.32879e-06
-7.00965e-07
2.27952e-06
1.2386e-06
-6.80963e-06
-1.21992e-06
-5.36958e-07
-3.16392e-07
5.58735e-06
2.47098e-07
-1.80327e-06
-3.12001e-06
4.40998e-07
-1.32732e-06
-4.19933e-07
6.22953e-06
5.76425e-08
1.75272e-06
-5.11802e-06
2.89848e-07
-3.39887e-06
1.91229e-06
1.29868e-06
-5.49068e-07
3.32584e-06
-7.01739e-07
2.27894e-06
1.25017e-06
-6.81433e-06
-1.22056e-06
-5.36219e-07
-3.16826e-07
5.58677e-06
2.49614e-07
-2.03747e-06
-4.61547e-08
-4.52161e-08
3.19188e-08
9.93358e-07
3.31119e-08
9.93149e-07
3.3987e-06
1.80323e-06
-5.05574e-08
-6.81003e-06
-1.91175e-06
3.11938e-06
-5.37083e-07
3.47826e-07
-2.70326e-06
-2.28688e-06
-4.35439e-07
-1.7543e-06
-3.1543e-07
5.5852e-06
2.47701e-07
-4.19221e-07
6.22427e-06
-5.11722e-06
2.92704e-07
3.39883e-06
1.80352e-06
-5.74696e-08
-6.81481e-06
-1.91201e-06
3.11968e-06
-5.36413e-07
3.48151e-07
-2.7005e-06
-2.28666e-06
-4.41077e-07
-1.75309e-06
-3.15951e-07
5.58447e-06
2.50307e-07
-4.18957e-07
6.22826e-06
-5.11757e-06
2.8968e-07
3.19967e-07
-1.34872e-06
-1.17844e-07
1.76801e-06
-2.99742e-07
3.19877e-07
-1.34631e-06
-1.20231e-07
1.76526e-06
-2.96917e-07
-2.03822e-06
-4.62899e-08
-4.53975e-08
1.31788e-06
1.32732e-06
-5.15291e-07
3.32566e-08
9.91855e-07
-1.298e-06
3.45692e-08
9.91564e-07
-1.29896e-06
-1.23752e-06
-1.24903e-06
1.21944e-06
-2.73867e-07
1.22001e-06
-2.73843e-07
3.39695e-06
-4.99966e-08
1.80812e-06
4.1747e-07
1.23679e-06
-6.80934e-06
-1.75996e-06
-4.35282e-07
5.58474e-06
-3.10967e-07
2.48329e-07
3.47429e-07
-2.70232e-06
6.99398e-07
-2.28584e-06
-1.90762e-06
3.11853e-06
-1.21908e-06
-5.39935e-07
5.38439e-07
1.29833e-06
3.13362e-07
-5.11816e-06
2.92524e-07
-1.3173e-06
6.22414e-06
-4.15454e-07
3.39729e-06
-5.66087e-08
1.80846e-06
4.17187e-07
1.24812e-06
-6.81445e-06
-1.75871e-06
-4.41373e-07
5.58365e-06
-3.1146e-07
2.51433e-07
3.47757e-07
-2.69978e-06
7.00242e-07
-2.28546e-06
-1.90786e-06
3.11866e-06
-1.21958e-06
-5.39135e-07
5.37826e-07
1.29936e-06
3.13831e-07
-5.11877e-06
2.89845e-07
-1.32685e-06
6.22773e-06
-4.15122e-07
-1.80539e-06
-3.1193e-06
4.35567e-07
6.22448e-06
-3.39774e-06
1.91025e-06
5.02223e-08
1.75699e-06
-5.11804e-06
2.92674e-07
-5.48828e-07
3.32751e-06
2.28022e-06
-6.80965e-06
5.58516e-06
2.48273e-07
-1.80567e-06
-3.1195e-06
4.41452e-07
6.22823e-06
-3.3979e-06
1.91039e-06
5.70453e-08
1.75575e-06
-5.11851e-06
2.89686e-07
-5.48734e-07
3.32434e-06
2.27973e-06
-6.81451e-06
5.58426e-06
2.51113e-07
-3.44141e-08
-3.57218e-08
2.03977e-06
-9.90052e-07
4.55695e-08
-2.746e-07
-9.89798e-07
4.47221e-08
-2.74498e-07
-5.14097e-07
-7.85262e-06
-7.85928e-06
1.72081e-06
3.66678e-07
8.01903e-06
8.03682e-06
2.76011e-07
-1.42104e-06
-7.26868e-06
-2.04853e-07
-1.42248e-06
-7.27552e-06
-2.06642e-07
1.98843e-07
2.00104e-07
-3.69458e-07
-7.85723e-06
-7.85336e-06
1.71766e-06
3.6882e-07
8.03429e-06
8.02021e-06
2.80957e-07
-1.41993e-06
-7.27294e-06
-2.03898e-07
-1.41747e-06
-7.26783e-06
-2.03351e-07
2.02656e-07
2.02412e-07
-3.6945e-07
-7.85656e-06
-7.85329e-06
1.71874e-06
3.68313e-07
8.03172e-06
8.01738e-06
2.85002e-07
-1.42057e-06
-7.27359e-06
-2.02479e-07
-1.41736e-06
-7.26774e-06
-2.03197e-07
2.02603e-07
2.02669e-07
-3.68563e-07
-7.85275e-06
-7.85902e-06
1.72166e-06
3.66098e-07
8.01885e-06
8.03718e-06
2.76166e-07
-1.42014e-06
-7.2668e-06
-2.0074e-07
-1.42311e-06
-7.27345e-06
-2.01338e-07
2.00324e-07
2.00713e-07
-3.67068e-07
-1.71709e-06
7.26726e-06
7.27411e-06
-3.69263e-07
7.85193e-06
1.41416e-06
-6.57064e-06
7.85858e-06
1.4151e-06
-6.56219e-06
-8.35017e-06
-8.36775e-06
-2.84312e-07
8.77399e-06
8.77983e-06
-2.03854e-07
6.12245e-06
-2.0577e-07
6.114e-06
-7.85402e-06
-7.86036e-06
1.72503e-06
3.65562e-07
8.0209e-06
8.03909e-06
2.78713e-07
-8.44674e-06
-8.45435e-06
-1.42327e-06
-7.26625e-06
6.12217e-06
-1.98184e-07
-1.42403e-06
-7.27374e-06
6.11423e-06
-2.00129e-07
2.00217e-07
-6.57477e-06
2.02142e-07
-6.56621e-06
-3.63093e-07
-4.70356e-07
-4.70147e-07
-3.07935e-06
-2.34325e-06
2.81346e-09
2.23349e-11
2.34204e-06
-2.3333e-06
1.66948e-09
-5.91429e-09
2.34022e-06
1.33591e-09
-8.61387e-10
-2.33972e-06
1.06908e-09
4.60881e-09
-2.33151e-06
2.32734e-06
-7.57489e-10
1.0921e-09
-2.32527e-06
1.24264e-10
2.18412e-09
2.32951e-06
-4.69199e-07
-4.68772e-07
-3.08374e-06
-2.33862e-06
1.32175e-09
2.34024e-06
-2.3386e-06
2.25508e-09
3.41086e-09
2.33935e-06
2.25911e-09
-2.33455e-06
2.45278e-09
4.18886e-09
-2.33681e-06
2.32605e-06
2.48196e-09
-2.3246e-06
1.06122e-09
2.3287e-06
-2.33827e-06
1.19305e-11
2.34038e-06
-9.98847e-10
8.29438e-09
2.33868e-06
-2.33924e-06
4.51662e-10
-2.33502e-06
4.76515e-07
2.32734e-06
1.0258e-09
-2.32479e-06
-2.05059e-09
-1.22294e-10
2.32867e-06
-2.33734e-06
5.29055e-10
2.33748e-06
4.91469e-10
2.33939e-06
-2.33405e-06
-1.1691e-09
-2.33407e-06
4.73378e-07
2.32554e-06
-2.32399e-06
7.87923e-10
2.3275e-06
-1.72121e-06
7.26747e-06
7.2738e-06
-8.3507e-06
-8.36845e-06
7.85248e-06
1.42118e-06
1.98478e-07
7.8593e-06
1.42307e-06
2.00222e-07
3.66076e-07
-1.22108e-06
-7.28894e-06
2.24316e-07
-3.95043e-07
-2.15799e-07
-7.56279e-06
1.90224e-06
8.36668e-07
5.25422e-07
2.86116e-07
1.23942e-06
2.12754e-10
1.63287e-07
-2.43226e-07
7.35969e-06
-5.14858e-07
1.12233e-10
4.86197e-07
2.14609e-07
-6.01219e-07
-5.26564e-07
-1.6438e-07
4.75898e-10
2.94936e-07
7.22965e-06
1.31862e-06
2.47927e-07
-4.87595e-07
-1.5618e-06
6.08948e-07
-1.71189e-07
-6.55708e-06
-2.04966e-06
5.1962e-07
-1.97364e-06
7.21158e-06
6.01245e-07
-5.39306e-07
1.70921e-07
5.38503e-07
-8.37085e-07
3.95407e-07
-2.48993e-07
-6.08904e-07
-1.3198e-06
-7.2115e-06
-7.23054e-06
1.97487e-06
5.37741e-07
1.56191e-06
-2.93296e-07
1.6934e-07
6.71301e-06
1.89641e-06
2.46786e-07
7.5626e-06
-2.86859e-07
1.22008e-06
3.68348e-07
-7.64238e-06
8.00796e-10
-1.90111e-06
7.28814e-06
-5.26926e-07
-1.23805e-06
-2.24555e-07
7.84954e-10
-1.65369e-07
1.26888e-10
-2.16229e-07
-1.21943e-06
-7.29141e-06
2.2292e-07
-3.9382e-07
-2.17e-07
-7.56474e-06
1.90195e-06
8.37958e-07
5.2608e-07
2.86081e-07
1.24098e-06
1.62107e-07
-2.42794e-07
7.36069e-06
-5.14705e-07
4.86096e-07
2.15831e-07
-6.00727e-07
-5.27097e-07
-1.63635e-07
7.23108e-06
2.95245e-07
1.31761e-06
2.48983e-07
-4.85784e-07
-1.56066e-06
6.08804e-07
-1.72144e-07
-2.05034e-06
-6.55848e-06
5.19886e-07
-1.97327e-06
7.21393e-06
6.00748e-07
-5.39602e-07
5.3921e-07
-8.38155e-07
1.71362e-07
3.93325e-07
-2.49418e-07
-1.31806e-06
-7.21441e-06
-6.09555e-07
-7.23135e-06
1.97442e-06
5.37815e-07
-2.95699e-07
1.56211e-06
1.69392e-07
1.89624e-06
6.71575e-06
2.47732e-07
7.56464e-06
-2.86366e-07
1.21933e-06
3.69792e-07
-7.64317e-06
-1.90123e-06
7.29065e-06
-5.27153e-07
-1.23974e-06
-2.2284e-07
-1.64094e-07
-2.17025e-07
7.27316e-06
-1.71927e-06
7.2679e-06
-8.36621e-06
-8.35331e-06
1.4214e-06
7.85727e-06
2.00704e-07
7.85396e-06
1.41885e-06
2.00374e-07
3.67374e-07
-1.22459e-06
-7.29126e-06
2.24067e-07
-3.93724e-07
-2.13445e-07
-7.56481e-06
1.9042e-06
8.36866e-07
5.24417e-07
2.85594e-07
1.24155e-06
-5.39686e-10
1.613e-07
-2.43604e-07
7.36068e-06
-5.13417e-07
1.94012e-10
4.8353e-07
2.11915e-07
-6.01674e-07
-5.25674e-07
-1.62725e-07
2.76543e-10
2.95848e-07
7.23101e-06
1.31636e-06
2.49031e-07
-4.84144e-07
-1.56058e-06
6.09885e-07
-1.72821e-07
-6.55928e-06
-2.04978e-06
5.18984e-07
-1.97303e-06
7.2125e-06
6.01542e-07
-5.40101e-07
1.71514e-07
5.38988e-07
-8.3719e-07
3.93391e-07
-2.50877e-07
-6.0947e-07
-1.31954e-06
-7.21228e-06
-7.23231e-06
1.97535e-06
5.37337e-07
1.56271e-06
-2.94941e-07
1.68727e-07
6.71423e-06
1.89614e-06
2.46305e-07
7.56433e-06
-2.85669e-07
1.22353e-06
3.69104e-07
-7.64283e-06
-1.8278e-10
-1.90273e-06
7.29041e-06
-5.26195e-07
-1.24046e-06
-2.24075e-07
7.32226e-10
-1.63533e-07
-9.05085e-11
-2.13922e-07
-1.22094e-06
2.23178e-07
-7.28896e-06
-3.94056e-07
-2.15894e-07
2.85019e-07
1.2416e-06
1.61712e-07
-7.56355e-06
1.9033e-06