/*--------------------------------*- C++ -*----------------------------------*\
| =========                 |                                                 |
| \\      /  F ield         | OpenFOAM: The Open Source CFD Toolbox           |
|  \\    /   O peration     | Version:  2206                                  |
|   \\  /    A nd           | Website:  www.openfoam.com                      |
|    \\/     M anipulation  |                                                 |
\*---------------------------------------------------------------------------*/
FoamFile
{
    version     2.0;
    format      ascii;
    arch        "LSB;label=32;scalar=64";
    class       surfaceScalarField;
    location    "1";
    object      phi;
}
// * * * * * * * * * * * * * * * * * * * * * * * * * * * * * * * * * * * * * //

dimensions      [0 3 -1 0 0 0 0];

oriented        oriented;

internalField   nonuniform List<scalar> 
83348
(
1.25355e-10
1.3177e-10
-0.00105594
-1.38397e-10
-1.36124e-10
0.00105594
-0.00105663
-1.15651e-06
-1.23476e-10
3.39509e-10
0.00105663
-2.13645e-07
1.15703e-06
2.13341e-07
8.20773e-07
-1.87027e-07
-8.20864e-07
1.86652e-07
-0.0010563
-1.15123e-06
-1.34303e-10
3.3372e-10
0.0010563
-2.10935e-07
1.15176e-06
2.10641e-07
8.20595e-07
-1.89578e-07
-8.20729e-07
1.89246e-07
-0.000259871
1.18412e-06
1.15135e-06
-2.01259e-07
-2.06386e-07
0.000257943
1.36829e-10
1.395e-10
-0.00105594
-1.43043e-10
-1.42896e-10
0.00105594
-0.00105663
-1.15651e-06
-1.37013e-10
3.38889e-10
0.00105663
-2.1364e-07
1.15703e-06
2.13343e-07
8.20778e-07
-1.87016e-07
-8.20859e-07
1.86663e-07
-0.0010563
-1.15123e-06
-1.37631e-10
3.36545e-10
0.0010563
-2.10935e-07
1.15176e-06
2.10641e-07
8.20596e-07
-1.89575e-07
-8.20728e-07
1.89247e-07
-0.000259871
1.18412e-06
1.15135e-06
-2.01258e-07
-2.06383e-07
0.000257943
1.46408e-10
1.47107e-10
-0.00105594
-1.45829e-10
-1.47461e-10
0.00105594
-0.00105663
-1.1565e-06
-1.56433e-10
3.24332e-10
0.00105663
-2.13635e-07
1.15704e-06
2.13352e-07
8.20785e-07
-1.87013e-07
-8.20857e-07
1.86671e-07
-0.0010563
-1.15123e-06
-1.51499e-10
3.28106e-10
0.0010563
-2.10933e-07
1.15176e-06
2.10649e-07
8.20603e-07
-1.89574e-07
-8.20728e-07
1.89255e-07
-0.000259871
1.18411e-06
1.15135e-06
-2.01258e-07
-2.06381e-07
0.000257943
1.50842e-10
1.5487e-10
-0.00105594
-1.49704e-10
-1.49145e-10
0.00105594
-0.00105663
-1.1565e-06
-1.52472e-10
3.25144e-10
0.00105663
-2.13634e-07
1.15704e-06
2.13349e-07
8.20782e-07
-1.8701e-07
-8.20855e-07
1.86667e-07
-0.0010563
-1.15123e-06
-1.51062e-10
3.23976e-10
0.0010563
-2.10931e-07
1.15176e-06
2.10647e-07
8.20602e-07
-1.89571e-07
-8.20725e-07
1.89253e-07
-0.000259871
1.18411e-06
1.15134e-06
-2.01256e-07
-2.06381e-07
0.000257943
1.48321e-10
1.52493e-10
-0.00105594
-1.48318e-10
-1.47484e-10
0.00105594
-0.00105663
-1.1565e-06
-1.57246e-10
3.24427e-10
0.00105663
-2.13634e-07
1.15704e-06
2.13352e-07
8.20785e-07
-1.87012e-07
-8.20857e-07
1.86671e-07
-0.0010563
-1.15123e-06
-1.55912e-10
3.25033e-10
0.0010563
-2.10931e-07
1.15176e-06
2.10649e-07
8.20604e-07
-1.89572e-07
-8.20726e-07
1.89256e-07
-0.000259871
1.18411e-06
1.15135e-06
-2.01258e-07
-2.06382e-07
0.000257943
1.45377e-10
1.47398e-10
-0.00105594
-1.46327e-10
-1.46993e-10
0.00105594
-0.00105663
-1.1565e-06
-1.50206e-10
3.29486e-10
0.00105663
-2.13631e-07
1.15703e-06
2.13343e-07
8.20777e-07
-1.87007e-07
-8.20851e-07
1.86661e-07
-0.0010563
-1.15123e-06
-1.49523e-10
3.30218e-10
0.0010563
-2.10927e-07
1.15175e-06
2.1064e-07
8.20594e-07
-1.89566e-07
-8.20719e-07
1.89245e-07
-0.000259871
1.18411e-06
1.15134e-06
-2.01253e-07
-2.06377e-07
0.000257943
1.40076e-10
1.42528e-10
-0.00105594
-1.42963e-10
-1.43495e-10
0.00105594
-0.00105663
-1.1565e-06
-1.4256e-10
3.30275e-10
0.00105663
-2.13636e-07
1.15703e-06
2.13344e-07
8.20777e-07
-1.87014e-07
-8.20858e-07
1.86663e-07
-0.0010563
-1.15123e-06
-1.40805e-10
3.31689e-10
0.0010563
-2.10933e-07
1.15176e-06
2.10642e-07
8.20595e-07
-1.89574e-07
-8.20727e-07
1.89247e-07
-0.000259871
1.18411e-06
1.15135e-06
-2.01259e-07
-2.06382e-07
0.000257943
1.37613e-10
1.40716e-10
-0.00105594
-1.42988e-10
-1.42778e-10
0.00105594
-0.00105663
-1.1565e-06
-1.45403e-10
3.31544e-10
0.00105663
-2.13633e-07
1.15703e-06
2.13342e-07
8.20775e-07
-1.8701e-07
-8.20854e-07
1.86661e-07
-0.0010563
-1.15123e-06
-1.4377e-10
3.32307e-10
0.0010563
-2.1093e-07
1.15175e-06
2.1064e-07
8.20593e-07
-1.8957e-07
-8.20723e-07
1.89245e-07
-0.000259871
1.18411e-06
1.15134e-06
-2.01255e-07
-2.06378e-07
0.000257943
1.29783e-10
1.35126e-10
-0.00105594
-1.42311e-10
-1.4123e-10
0.00105594
-0.00105663
-1.15651e-06
-1.33404e-10
3.38217e-10
0.00105663
-2.13639e-07
1.15703e-06
2.13342e-07
8.20773e-07
-1.87016e-07
-8.2086e-07
1.86659e-07
-0.0010563
-1.15123e-06
-1.27054e-10
3.35894e-10
0.0010563
-2.10935e-07
1.15175e-06
2.1064e-07
8.20593e-07
-1.89577e-07
-8.20729e-07
1.89245e-07
-0.000259871
1.18412e-06
1.15135e-06
-2.01259e-07
-2.06384e-07
0.000257943
1.55169e-10
1.31521e-10
-0.00105594
-1.59133e-10
-1.64964e-10
0.00105594
-0.00105663
-1.15651e-06
-1.55712e-10
3.30955e-10
0.00105663
-2.13641e-07
1.15704e-06
2.13346e-07
8.20785e-07
-1.8701e-07
-8.20854e-07
1.86671e-07
-0.0010563
-1.15123e-06
-1.32571e-10
3.03035e-10
0.0010563
-2.1093e-07
1.15176e-06
2.10649e-07
8.20607e-07
-1.89582e-07
-8.20733e-07
1.8926e-07
-0.000259871
1.18413e-06
1.15132e-06
-2.01247e-07
-2.06385e-07
0.000257943
1.92499e-11
-9.79235e-09
-0.00105593
-1.47661e-10
-1.37824e-10
0.00105594
-0.00105663
-1.15651e-06
-1.62321e-10
3.32308e-10
0.00105663
-2.13604e-07
1.15704e-06
2.13324e-07
8.20783e-07
-1.87011e-07
-8.20855e-07
1.86668e-07
-0.0010563
-1.15123e-06
-1.37041e-10
3.25132e-10
0.0010563
-2.10935e-07
1.15176e-06
2.10647e-07
8.20608e-07
-1.89584e-07
-8.20736e-07
1.89261e-07
-0.000259871
1.18412e-06
1.15135e-06
-2.01257e-07
-2.06384e-07
0.000257943
1.13783e-10
1.72725e-10
-0.00105594
-1.68794e-10
-1.32662e-10
0.00105594
-0.00105663
-1.15656e-06
-1.26861e-10
4.1568e-10
0.00105663
-2.11005e-07
1.157e-06
2.10595e-07
8.20797e-07
-1.86989e-07
-8.20853e-07
1.86656e-07
-0.0010563
-1.15123e-06
-1.6513e-10
3.23567e-10
0.0010563
-2.10934e-07
1.15176e-06
2.10651e-07
8.20616e-07
-1.89582e-07
-8.20732e-07
1.89267e-07
-0.000259871
1.18411e-06
1.15135e-06
-2.01261e-07
-2.0638e-07
0.000257943
1.2678e-10
1.61177e-10
-0.00105594
-1.53008e-10
-1.38628e-10
0.00105594
-0.00105663
-1.15652e-06
-1.50318e-10
3.4202e-10
0.00105663
-2.10944e-07
1.15704e-06
2.10648e-07
8.20782e-07
-1.86986e-07
-8.20853e-07
1.86645e-07
-0.0010563
-1.15123e-06
-1.60242e-10
3.2647e-10
0.0010563
-2.1093e-07
1.15176e-06
2.10646e-07
8.2061e-07
-1.89578e-07
-8.20728e-07
1.89261e-07
-0.000259871
1.18411e-06
1.15134e-06
-2.01257e-07
-2.06378e-07
0.000257943
1.36626e-10
1.52656e-10
-0.00105594
-1.48124e-10
-1.45046e-10
0.00105594
-0.00105663
-1.15651e-06
-1.49895e-10
3.29791e-10
0.00105663
-2.10942e-07
1.15705e-06
2.10651e-07
8.20782e-07
-1.86989e-07
-8.20856e-07
1.86645e-07
-0.0010563
-1.15123e-06
-1.52678e-10
3.27977e-10
0.0010563
-2.10932e-07
1.15176e-06
2.10646e-07
8.20611e-07
-1.8958e-07
-8.20731e-07
1.89261e-07
-0.000259871
1.18411e-06
1.15135e-06
-2.01258e-07
-2.06381e-07
0.000257943
1.30476e-10
1.43351e-10
-0.00105594
-1.4317e-10
-1.42477e-10
0.00105594
-0.00105663
-1.15651e-06
-1.46638e-10
3.30316e-10
0.00105663
-2.1094e-07
1.15704e-06
2.10647e-07
8.20776e-07
-1.86986e-07
-8.20854e-07
1.8664e-07
-0.0010563
-1.15123e-06
-1.47012e-10
3.23242e-10
0.0010563
-2.10929e-07
1.15176e-06
2.10643e-07
8.20603e-07
-1.89578e-07
-8.20729e-07
1.89256e-07
-0.000259871
1.18411e-06
1.15134e-06
-2.01257e-07
-2.0638e-07
0.000257943
1.20509e-10
1.32887e-10
-0.00105594
-1.38349e-10
-1.38531e-10
0.00105594
-0.00105663
-1.15652e-06
-1.40897e-10
3.36742e-10
0.00105663
-2.10944e-07
1.15704e-06
2.10647e-07
8.20777e-07
-1.86992e-07
-8.20859e-07
1.8664e-07
-0.0010563
-1.15123e-06
-1.41411e-10
3.32863e-10
0.0010563
-2.10935e-07
1.15176e-06
2.10642e-07
8.20604e-07
-1.89584e-07
-8.20734e-07
1.89256e-07
-0.000259871
1.18412e-06
1.15135e-06
-2.01259e-07
-2.06383e-07
0.000257943
1.27032e-10
1.34502e-10
-0.00105594
-1.39278e-10
-1.41239e-10
0.00105594
-0.00105663
-1.15651e-06
-1.43746e-10
3.33528e-10
0.00105663
-2.10943e-07
1.15704e-06
2.10647e-07
8.20777e-07
-1.8699e-07
-8.20857e-07
1.86641e-07
-0.0010563
-1.15123e-06
-1.42451e-10
3.31242e-10
0.0010563
-2.10934e-07
1.15176e-06
2.10642e-07
8.20601e-07
-1.89582e-07
-8.20732e-07
1.89256e-07
-0.000259871
1.18411e-06
1.15135e-06
-2.01257e-07
-2.06381e-07
0.000257943
1.48337e-10
1.55172e-10
-0.00105594
-1.47604e-10
-1.50619e-10
-0.00105663
-1.15651e-06
-1.58518e-10
3.26832e-10
-2.10939e-07
1.15705e-06
2.10656e-07
8.20788e-07
-1.86983e-07
-8.20849e-07
1.86656e-07
-0.0010563
-1.15123e-06
-1.60732e-10
3.26803e-10
-2.1093e-07
1.15176e-06
2.10651e-07
8.20613e-07
-1.89574e-07
-8.20723e-07
1.89272e-07
-0.000259871
1.18411e-06
1.15135e-06
-2.01256e-07
-2.0638e-07
0.000257943
-1.19244e-06
-1.15447e-06
0.000259886
-0.000257948
1.9936e-07
2.09362e-07
0.00105586
-1.19921e-10
-0.00105586
3.48048e-10
-1.19193e-06
2.1857e-07
-2.18883e-07
-8.23408e-07
1.83929e-07
-1.84307e-07
8.23322e-07
1.19517e-06
0.0010563
-1.27213e-10
-0.0010563
3.39726e-10
-1.19466e-06
2.18615e-07
-2.18922e-07
-8.28914e-07
1.89286e-07
-1.89653e-07
8.28835e-07
-1.15703e-06
0.000259909
-0.000257966
2.01999e-07
2.06743e-07
0.0010569
-1.35215e-10
-0.0010569
3.2957e-10
-1.15395e-06
2.13368e-07
-2.13665e-07
-8.23509e-07
1.89301e-07
-1.89668e-07
8.23438e-07
1.18991e-06
0.00105598
-1.28877e-10
-0.00105598
3.35275e-10
-1.18939e-06
2.186e-07
-2.18906e-07
-8.23459e-07
1.89267e-07
-1.89633e-07
8.23374e-07
-1.4427e-10
3.4037e-10
-1.1565e-06
2.13336e-07
-2.13633e-07
-8.20856e-07
1.86653e-07
8.20772e-07
-1.87005e-07
1.18463e-06
0.00105578
-1.31122e-10
-0.00105578
3.51757e-10
-1.18412e-06
2.13205e-07
-2.13513e-07
-8.20834e-07
1.86549e-07
-1.86927e-07
8.20736e-07
-1.15176e-06
0.000259866
-0.00025793
1.99505e-07
2.06695e-07
-1.43286e-10
-0.0010563
3.25657e-10
-1.15123e-06
2.10643e-07
-2.10935e-07
-8.20684e-07
1.89216e-07
8.20662e-07
-1.896e-07
1.15187e-06
0.00105681
-1.2465e-10
-0.00105681
3.25645e-10
-1.15135e-06
2.10686e-07
-2.10984e-07
-8.20957e-07
1.89291e-07
-1.89659e-07
8.2088e-07
-0.000257943
2.0178e-07
2.06902e-07
1.19192e-06
1.15395e-06
-1.98838e-07
-2.0884e-07
0.000257948
-1.19245e-06
-1.15447e-06
0.000259886
-0.000257948
1.99363e-07
2.09366e-07
3.43676e-10
0.00105586
-2.18878e-07
1.19245e-06
2.18574e-07
8.23306e-07
-1.84309e-07
-8.23393e-07
1.8395e-07
-1.19465e-06
-1.3472e-10
3.53057e-10
0.0010563
-2.18928e-07
1.19778e-06
2.21285e-07
8.28819e-07
-1.89653e-07
-8.28913e-07
1.89282e-07
0.00105586
-1.29146e-10
-0.00105586
3.41582e-10
-1.19192e-06
2.18577e-07
-2.18878e-07
-8.23408e-07
1.83939e-07
-1.84297e-07
8.23325e-07
1.19518e-06
0.0010563
-1.2879e-10
-0.0010563
3.35658e-10
-1.19726e-06
2.18624e-07
-2.2159e-07
-8.28918e-07
1.89294e-07
-1.89653e-07
8.28831e-07
-2.01487e-07
-2.06211e-07
0.000257966
-1.15704e-06
0.000259909
-0.000257966
2.0201e-07
2.0674e-07
3.37323e-10
0.0010569
-2.13663e-07
1.15447e-06
2.13368e-07
8.23439e-07
-1.89666e-07
-8.23518e-07
1.89306e-07
-1.18939e-06
-1.23404e-10
3.44445e-10
0.00105598
-2.18904e-07
1.18991e-06
2.18601e-07
8.23373e-07
-1.89628e-07
-8.23459e-07
1.8927e-07
0.0010569
-1.49829e-10
-0.0010569
3.2549e-10
-1.15395e-06
2.13373e-07
-2.13661e-07
-8.23511e-07
1.8931e-07
-1.89661e-07
8.2344e-07
1.18991e-06
0.00105598
-1.31694e-10
-0.00105598
3.33218e-10
-1.18938e-06
2.18605e-07
-2.18902e-07
-8.23457e-07
1.89273e-07
-1.89625e-07
8.23374e-07
-1.23352e-10
3.39603e-10
0.00105578
-2.13508e-07
1.18463e-06
2.13208e-07
8.2074e-07
-1.86923e-07
1.86561e-07
-8.20827e-07
-1.43682e-10
-0.00105663
3.31107e-10
-1.15651e-06
2.13345e-07
-2.13638e-07
-8.20854e-07
1.86665e-07
8.20779e-07
-1.87014e-07
1.18463e-06
0.00105578
-1.31075e-10
-0.00105578
3.40399e-10
-1.18411e-06
2.13209e-07
-2.13506e-07
-8.20824e-07
1.86564e-07
-1.86915e-07
8.20741e-07
-1.9898e-07
-2.06173e-07
0.00025793
-1.15176e-06
0.000259866
-0.00025793
1.99506e-07
2.06698e-07
-1.33813e-10
3.37233e-10
0.00105681
-2.10981e-07
1.15187e-06
2.10686e-07
8.20879e-07
-1.89653e-07
1.89296e-07
-8.20959e-07
-1.49308e-10
-0.0010563
3.24108e-10
-1.15123e-06
2.10644e-07
-2.10933e-07
-8.20682e-07
1.89223e-07
8.20663e-07
-1.8959e-07
1.15187e-06
0.00105681
-1.4289e-10
-0.00105681
3.26748e-10
-1.15135e-06
2.10688e-07
-2.10978e-07
-8.20954e-07
1.89299e-07
-1.89648e-07
8.20881e-07
-0.000257943
2.01781e-07
2.06905e-07
1.19192e-06
1.15395e-06
-1.98837e-07
-2.08839e-07
0.000257948
-1.19245e-06
-1.15448e-06
0.000259886
-0.000257948
1.99366e-07
2.09369e-07
3.42107e-10
0.00105586
-2.18877e-07
1.19245e-06
2.18577e-07
8.2331e-07
-1.84305e-07
-8.23392e-07
1.83954e-07
-1.19465e-06
-1.42438e-10
3.48401e-10
0.0010563
-2.18927e-07
1.19778e-06
2.21291e-07
8.28827e-07
-1.89649e-07
-8.28913e-07
1.89291e-07
0.00105586
-1.36749e-10
-0.00105586
3.38619e-10
-1.19193e-06
2.18581e-07
-2.18878e-07
-8.23408e-07
1.83943e-07
-1.84297e-07
8.2333e-07
1.19779e-06
0.0010563
-1.41111e-10
-0.0010563
3.36504e-10
-1.19726e-06
2.213e-07
-2.21595e-07
-8.28914e-07
1.89301e-07
-1.89649e-07
8.28837e-07
-2.01481e-07
-2.06209e-07
0.000257966
-1.15704e-06
0.000259912
-0.000257966
2.02048e-07
2.06746e-07
3.35103e-10
0.0010569
-2.13663e-07
1.15447e-06
2.1337e-07
8.23443e-07
-1.89663e-07
-8.23516e-07
1.8931e-07
-1.18939e-06
-1.30388e-10
3.45766e-10
0.00105598
-2.18902e-07
1.18991e-06
2.18602e-07
8.23374e-07
-1.89626e-07
-8.23459e-07
1.89272e-07
0.0010569
-1.53326e-10
-0.0010569
3.21434e-10
-1.15395e-06
2.13376e-07
-2.13662e-07
-8.23512e-07
1.89314e-07
-1.89661e-07
8.23444e-07
1.18991e-06
0.00105598
-1.35941e-10
-0.00105598
3.30254e-10
-1.18939e-06
2.18608e-07
-2.18904e-07
-8.23459e-07
1.89278e-07
-1.89625e-07
8.23379e-07
-1.27884e-10
3.43475e-10
0.00105578
-2.13507e-07
1.18463e-06
2.13209e-07
8.20741e-07
-1.86917e-07
1.86563e-07
-8.20827e-07
-1.56504e-10
-0.00105663
3.25902e-10
-1.15651e-06
2.13352e-07
-2.13639e-07
-8.20855e-07
1.86671e-07
8.20785e-07
-1.87014e-07
1.18464e-06
0.00105578
-1.45863e-10
-0.00105578
3.31896e-10
-1.18412e-06
2.13217e-07
-2.13505e-07
-8.20825e-07
1.86571e-07
-1.86916e-07
8.20749e-07
-1.9898e-07
-2.06171e-07
0.00025793
-1.15176e-06
0.000259866
-0.00025793
1.9951e-07
2.067e-07
-1.37973e-10
3.38743e-10
0.00105681
-2.1098e-07
1.15187e-06
2.10687e-07
8.20881e-07
-1.8965e-07
1.89298e-07
-8.20958e-07
-1.55546e-10
-0.0010563
3.21331e-10
-1.15123e-06
2.10649e-07
-2.10934e-07
-8.20685e-07
1.89227e-07
8.20667e-07
-1.89592e-07
1.15188e-06
0.00105681
-1.51674e-10
-0.00105681
3.17022e-10
-1.15135e-06
2.10694e-07
-2.1098e-07
-8.20955e-07
1.89307e-07
-1.89648e-07
8.20889e-07
-0.000257943
2.01785e-07
2.0691e-07
1.19192e-06
1.15395e-06
-1.98838e-07
-2.08839e-07
0.000257948
-1.19245e-06
-1.15448e-06
0.000259886
-0.000257948
1.99367e-07
2.0937e-07
3.3722e-10
0.00105586
-2.18876e-07
1.19245e-06
2.18583e-07
8.23315e-07
-1.84305e-07
-8.23393e-07
1.8396e-07
-1.19726e-06
-1.46435e-10
3.34223e-10
0.0010563
-2.21594e-07
1.19779e-06
2.21301e-07
8.28837e-07
-1.89648e-07
-8.28913e-07
1.89302e-07
0.00105586
-1.46102e-10
-0.00105586
3.31031e-10
-1.19192e-06
2.18583e-07
-2.18873e-07
-8.23403e-07
1.83945e-07
-1.84292e-07
8.23331e-07
1.19779e-06
0.0010563
-1.47811e-10
-0.0010563
3.34797e-10
-1.19726e-06
2.213e-07
-2.2159e-07
-8.2891e-07
1.893e-07
-1.89646e-07
8.28836e-07
-2.01514e-07
-2.06216e-07
0.000257966
-1.15704e-06
0.000259912
-0.000257966
2.02046e-07
2.06746e-07
3.29147e-10
0.0010569
-2.13663e-07
1.15448e-06
2.13375e-07
8.23449e-07
-1.89663e-07
-8.23517e-07
1.89316e-07
-1.18939e-06
-1.40798e-10
3.38402e-10
0.00105598
-2.18902e-07
1.18991e-06
2.18608e-07
8.23381e-07
-1.89624e-07
-8.23459e-07
1.89279e-07
0.0010569
-1.64334e-10
-0.0010569
3.14706e-10
-1.15394e-06
2.13379e-07
-2.13657e-07
-8.23507e-07
1.89316e-07
-1.89656e-07
8.23446e-07
1.18991e-06
0.00105598
-1.46119e-10
-0.00105598
3.25573e-10
-1.18938e-06
2.1861e-07
-2.18899e-07
-8.23455e-07
1.89279e-07
-1.89622e-07
8.23381e-07
-1.51447e-10
3.29374e-10
0.00105578
-2.13502e-07
1.18464e-06
2.13218e-07
8.20749e-07
-1.86912e-07
1.86572e-07
-8.20823e-07
-1.56552e-10
-0.00105663
3.24606e-10
-1.1565e-06
2.13349e-07
-2.13636e-07
-8.20852e-07
1.8667e-07
8.20784e-07
-1.87011e-07
1.18464e-06
0.00105578
-1.42769e-10
-0.00105578
3.33815e-10
-1.18411e-06
2.13214e-07
-2.13504e-07
-8.20822e-07
1.86568e-07
-1.86914e-07
8.20746e-07
-1.98979e-07
-2.06173e-07
0.00025793
-1.15176e-06
0.000259866
-0.00025793
1.99509e-07
2.06701e-07
-1.55473e-10
3.23781e-10
0.00105681
-2.10977e-07
1.15188e-06
2.10694e-07
8.20889e-07
-1.89645e-07
1.89307e-07
-8.20954e-07
-1.57884e-10
-0.0010563
3.17273e-10
-1.15123e-06
2.10649e-07
-2.10932e-07
-8.20681e-07
1.89228e-07
8.20668e-07
-1.89589e-07
1.15187e-06
0.00105681
-1.51389e-10
-0.00105681
3.19967e-10
-1.15135e-06
2.10692e-07
-2.10978e-07
-8.20953e-07
1.89303e-07
-1.89647e-07
8.20887e-07
-0.000257943
2.01784e-07
2.06908e-07
1.19192e-06
1.15394e-06
-1.98834e-07
-2.08836e-07
0.000257948
-1.19245e-06
-1.15448e-06
0.000259886
-0.000257948
1.99366e-07
2.09368e-07
3.32088e-10
0.00105586
-2.18871e-07
1.19245e-06
2.18582e-07
8.23314e-07
-1.843e-07
-8.23387e-07
1.83959e-07
-1.19726e-06
-1.49143e-10
3.36403e-10
0.0010563
-2.2159e-07
1.19779e-06
2.21298e-07
8.28834e-07
-1.89644e-07
-8.2891e-07
1.89299e-07
0.00105586
-1.38314e-10
-0.00105586
3.33558e-10
-1.19192e-06
2.1858e-07
-2.18876e-07
-8.23406e-07
1.83944e-07
-1.84294e-07
8.2333e-07
1.19779e-06
0.0010563
-1.41263e-10
-0.0010563
3.35959e-10
-1.19726e-06
2.21299e-07
-2.21594e-07
-8.28913e-07
1.89299e-07
-1.89648e-07
8.28835e-07
-2.01513e-07
-2.06212e-07
0.000257966
-1.15704e-06
0.000259912
-0.000257966
2.02047e-07
2.06745e-07
3.25297e-10
0.0010569
-2.13657e-07
1.15447e-06
2.13375e-07
8.23448e-07
-1.89657e-07
-8.23512e-07
1.89314e-07
-1.18938e-06
-1.47736e-10
3.36123e-10
0.00105598
-2.18898e-07
1.18991e-06
2.18607e-07
8.23381e-07
-1.8962e-07
-8.23455e-07
1.89279e-07
0.0010569
-1.58388e-10
-0.0010569
3.18086e-10
-1.15395e-06
2.13377e-07
-2.13659e-07
-8.2351e-07
1.89314e-07
-1.89658e-07
8.23444e-07
1.18991e-06
0.00105598
-1.40873e-10
-0.00105598
3.25635e-10
-1.18938e-06
2.18608e-07
-2.18901e-07
-8.23457e-07
1.89278e-07
-1.89623e-07
8.2338e-07
-1.44321e-10
3.3289e-10
0.00105578
-2.13502e-07
1.18464e-06
2.13214e-07
8.20745e-07
-1.86912e-07
1.86568e-07
-8.20822e-07
-1.55262e-10
-0.00105663
3.25342e-10
-1.15651e-06
2.1335e-07
-2.13638e-07
-8.20855e-07
1.86669e-07
8.20783e-07
-1.87014e-07
1.18464e-06
0.00105578
-1.40527e-10
-0.00105578
3.31383e-10
-1.18412e-06
2.13215e-07
-2.13506e-07
-8.20826e-07
1.86569e-07
-1.86916e-07
8.20747e-07
-1.98978e-07
-2.0617e-07
0.00025793
-1.15176e-06
0.000259866
-0.00025793
1.99509e-07
2.067e-07
-1.54268e-10
3.27455e-10
0.00105681
-2.10975e-07
1.15187e-06
2.10692e-07
8.20886e-07
-1.89645e-07
1.89302e-07
-8.20954e-07
-1.57563e-10
-0.0010563
3.1599e-10
-1.15123e-06
2.10649e-07
-2.10932e-07
-8.20684e-07
1.89227e-07
8.20667e-07
-1.8959e-07
1.15188e-06
0.00105681
-1.51501e-10
-0.00105681
3.17283e-10
-1.15135e-06
2.10694e-07
-2.10979e-07
-8.20957e-07
1.89304e-07
-1.89649e-07
8.20887e-07
-0.000257943
2.01785e-07
2.06908e-07
1.19192e-06
1.15395e-06
-1.98836e-07
-2.08838e-07
0.000257948
-1.19245e-06
-1.15447e-06
0.000259886
-0.000257948
1.99363e-07
2.09366e-07
3.33492e-10
0.00105586
-2.18874e-07
1.19245e-06
2.18582e-07
8.23315e-07
-1.84302e-07
-8.2339e-07
1.83961e-07
-1.19726e-06
-1.46996e-10
3.34059e-10
0.0010563
-2.21592e-07
1.19779e-06
2.213e-07
8.28837e-07
-1.89646e-07
-8.28912e-07
1.89302e-07
0.00105586
-1.45894e-10
-0.00105586
3.3227e-10
-1.19192e-06
2.18578e-07
-2.18869e-07
-8.23399e-07
1.83941e-07
-1.84288e-07
8.23327e-07
1.19779e-06
0.0010563
-1.47236e-10
-0.0010563
3.33132e-10
-1.19725e-06
2.21297e-07
-2.21586e-07
-8.28906e-07
1.89296e-07
-1.89642e-07
8.28833e-07
-2.01514e-07
-2.06215e-07
0.000257966
-1.15704e-06
0.000259912
-0.000257966
2.02044e-07
2.06744e-07
3.26715e-10
0.0010569
-2.1366e-07
1.15448e-06
2.13376e-07
8.23449e-07
-1.8966e-07
-8.23515e-07
1.89316e-07
-1.18938e-06
-1.43412e-10
3.34623e-10
0.00105598
-2.189e-07
1.18991e-06
2.18608e-07
8.23381e-07
-1.89622e-07
-8.23458e-07
1.8928e-07
0.0010569
-1.63542e-10
-0.0010569
3.15981e-10
-1.15394e-06
2.13374e-07
-2.13653e-07
-8.23502e-07
1.89312e-07
-1.89652e-07
8.23442e-07
1.18991e-06
0.00105598
-1.4555e-10
-0.00105598
3.24094e-10
-1.18938e-06
2.18605e-07
-2.18895e-07
-8.2345e-07
1.89275e-07
-1.89617e-07
8.23377e-07
-1.48139e-10
3.27695e-10
0.00105578
-2.13503e-07
1.18464e-06
2.13217e-07
8.2075e-07
-1.86912e-07
1.86573e-07
-8.20824e-07
-1.6192e-10
-0.00105663
3.24833e-10
-1.1565e-06
2.13346e-07
-2.13631e-07
-8.20847e-07
1.86667e-07
8.20781e-07
-1.87006e-07
1.18464e-06
0.00105578
-1.52446e-10
-0.00105578
3.28286e-10
-1.18411e-06
2.13212e-07
-2.13497e-07
-8.20815e-07
1.86567e-07
-1.86907e-07
8.20745e-07
-1.98979e-07
-2.06172e-07
0.00025793
-1.15176e-06
0.000259866
-0.00025793
1.99507e-07
2.06698e-07
-1.60346e-10
3.23321e-10
0.00105681
-2.10976e-07
1.15188e-06
2.10696e-07
8.2089e-07
-1.89645e-07
1.89308e-07
-8.20954e-07
-1.64032e-10
-0.0010563
3.17127e-10
-1.15122e-06
2.10646e-07
-2.10925e-07
-8.20675e-07
1.89224e-07
8.20665e-07
-1.89583e-07
1.15187e-06
0.00105681
-1.59195e-10
-0.00105681
3.1403e-10
-1.15134e-06
2.1069e-07
-2.1097e-07
-8.20947e-07
1.89302e-07
-1.8964e-07
8.20885e-07
-0.000257943
2.01782e-07
2.06906e-07
1.19192e-06
1.15394e-06
-1.98832e-07
-2.08833e-07
0.000257948
-1.19245e-06
-1.15447e-06
0.000259886
-0.000257948
1.99361e-07
2.09364e-07
3.36616e-10
0.00105586
-2.18869e-07
1.19245e-06
2.18576e-07
8.23308e-07
-1.84298e-07
-8.23385e-07
1.83952e-07
-1.19725e-06
-1.42816e-10
3.38107e-10
0.0010563
-2.21587e-07
1.19778e-06
2.21293e-07
8.28828e-07
-1.89642e-07
-8.28907e-07
1.89292e-07
0.00105586
-1.31211e-10
-0.00105586
3.40412e-10
-1.19192e-06
2.18575e-07
-2.18875e-07
-8.23406e-07
1.83937e-07
-1.84295e-07
8.23323e-07
1.19778e-06
0.0010563
-1.32012e-10
-0.0010563
3.43681e-10
-1.19726e-06
2.21293e-07
-2.21593e-07
-8.28914e-07
1.89292e-07
-1.89649e-07
8.28829e-07
-2.0151e-07
-2.0621e-07
0.000257966
-1.15703e-06
0.000259912
-0.000257966
2.02042e-07
2.06741e-07
3.29484e-10
0.0010569
-2.13656e-07
1.15447e-06
2.13368e-07
8.23441e-07
-1.89655e-07
-8.23509e-07
1.89308e-07
-1.18938e-06
-1.39048e-10
3.39845e-10
0.00105598
-2.18895e-07
1.18991e-06
2.186e-07
8.23373e-07
-1.89617e-07
-8.23451e-07
1.8927e-07
0.0010569
-1.48651e-10
-0.0010569
3.23998e-10
-1.15394e-06
2.1337e-07
-2.1366e-07
-8.23509e-07
1.89308e-07
-1.89658e-07
8.23439e-07
1.18991e-06
0.00105598
-1.30028e-10
-0.00105598
3.35408e-10
-1.18938e-06
2.18602e-07
-2.18902e-07
-8.23458e-07
1.8927e-07
-1.89625e-07
8.23373e-07
-1.4315e-10
3.34036e-10
0.00105578
-2.13498e-07
1.18463e-06
2.13209e-07
8.2074e-07
-1.86907e-07
1.86562e-07
-8.20818e-07
-1.43749e-10
-0.00105663
3.32716e-10
-1.1565e-06
2.13343e-07
-2.13638e-07
-8.20855e-07
1.86662e-07
8.20777e-07
-1.87014e-07
1.18463e-06
0.00105578
-1.30359e-10
-0.00105578
3.42482e-10
-1.18411e-06
2.13207e-07
-2.13505e-07
-8.20825e-07
1.8656e-07
-1.86916e-07
8.20739e-07
-1.98974e-07
-2.06167e-07
0.00025793
-1.15176e-06
0.000259866
-0.00025793
1.99504e-07
2.06696e-07
-1.52098e-10
3.28497e-10
0.00105681
-2.10971e-07
1.15187e-06
2.10686e-07
8.2088e-07
-1.8964e-07
1.89297e-07
-8.20948e-07
-1.43217e-10
-0.0010563
3.26708e-10
-1.15123e-06
2.10641e-07
-2.10934e-07
-8.20685e-07
1.8922e-07
8.2066e-07
-1.89591e-07
1.15187e-06
0.00105681
-1.36089e-10
-0.00105681
3.28844e-10
-1.15135e-06
2.10684e-07
-2.10979e-07
-8.20956e-07
1.89296e-07
-1.89649e-07
8.20879e-07
-0.000257943
2.01778e-07
2.06904e-07
1.19192e-06
1.15395e-06
-1.98836e-07
-2.08837e-07
0.000257948
-1.19245e-06
-1.15447e-06
0.000259886
-0.000257948
1.99361e-07
2.09365e-07
3.37862e-10
0.00105586
-2.18873e-07
1.19245e-06
2.18577e-07
8.23307e-07
-1.84302e-07
-8.23389e-07
1.83953e-07
-1.19726e-06
-1.3801e-10
3.41136e-10
0.0010563
-2.21592e-07
1.19778e-06
2.21293e-07
8.28829e-07
-1.89647e-07
-8.28912e-07
1.89294e-07
0.00105586
-1.32864e-10
-0.00105586
3.4034e-10
-1.19192e-06
2.18575e-07
-2.18874e-07
-8.23404e-07
1.83937e-07
-1.84294e-07
8.23323e-07
1.19778e-06
0.0010563
-1.36148e-10
-0.0010563
3.40547e-10
-1.19726e-06
2.21293e-07
-2.21591e-07
-8.2891e-07
1.89294e-07
-1.89645e-07
8.2883e-07
-2.01514e-07
-2.06214e-07
0.000257966
-1.15703e-06
0.000259912
-0.000257966
2.02043e-07
2.06741e-07
3.30544e-10
0.0010569
-2.13659e-07
1.15447e-06
2.13369e-07
8.23441e-07
-1.89659e-07
-8.23513e-07
1.89309e-07
-1.18938e-06
-1.34337e-10
3.42731e-10
0.00105598
-2.189e-07
1.18991e-06
2.18602e-07
8.23374e-07
-1.89623e-07
-8.23458e-07
1.89272e-07
0.0010569
-1.50877e-10
-0.0010569
3.24555e-10
-1.15394e-06
2.1337e-07
-2.13659e-07
-8.23507e-07
1.89308e-07
-1.89657e-07
8.23438e-07
1.18991e-06
0.00105598
-1.3525e-10
-0.00105598
3.31909e-10
-1.18938e-06
2.18602e-07
-2.189e-07
-8.23454e-07
1.89272e-07
-1.89621e-07
8.23374e-07
-1.32412e-10
3.39873e-10
0.00105578
-2.13504e-07
1.18463e-06
2.13209e-07
8.20739e-07
-1.86915e-07
1.86562e-07
-8.20826e-07
-1.51988e-10
-0.00105663
3.29428e-10
-1.1565e-06
2.13344e-07
-2.13634e-07
-8.20851e-07
1.86664e-07
8.20778e-07
-1.87011e-07
1.18463e-06
0.00105578
-1.39409e-10
-0.00105578
3.36216e-10
-1.18411e-06
2.13209e-07
-2.13502e-07
-8.20821e-07
1.86563e-07
-1.86912e-07
8.20741e-07
-1.98979e-07
-2.06172e-07
0.00025793
-1.15176e-06
0.000259866
-0.00025793
1.99505e-07
2.06696e-07
-1.40319e-10
3.34981e-10
0.00105681
-2.10978e-07
1.15187e-06
2.10686e-07
8.20879e-07
-1.89647e-07
1.89298e-07
-8.20956e-07
-1.51645e-10
-0.0010563
3.22794e-10
-1.15123e-06
2.10643e-07
-2.1093e-07
-8.2068e-07
1.89221e-07
8.20661e-07
-1.89588e-07
1.15187e-06
0.00105681
-1.45664e-10
-0.00105681
3.2286e-10
-1.15134e-06
2.10687e-07
-2.10976e-07
-8.20952e-07
1.89299e-07
-1.89645e-07
8.20882e-07
-0.000257943
2.01779e-07
2.06904e-07
1.19192e-06
1.15394e-06
-1.98834e-07
-2.08835e-07
0.000257948
-1.19244e-06
-1.15447e-06
0.000259886
-0.000257948
1.99359e-07
2.09361e-07
3.40533e-10
0.00105586
-2.18872e-07
1.19245e-06
2.18575e-07
8.23306e-07
-1.84302e-07
-8.23388e-07
1.83951e-07
-1.19726e-06
-1.36084e-10
3.42152e-10
0.0010563
-2.2159e-07
1.19778e-06
2.21291e-07
8.28827e-07
-1.89644e-07
-8.2891e-07
1.89292e-07
0.00105586
-1.23383e-10
-0.00105586
3.43441e-10
-1.19192e-06
2.18571e-07
-2.18877e-07
-8.23407e-07
1.83934e-07
-1.84296e-07
8.2332e-07
1.19778e-06
0.0010563
-1.24371e-10
-0.0010563
3.48666e-10
-1.19726e-06
2.21289e-07
-2.21595e-07
-8.28914e-07
1.89289e-07
-1.8965e-07
8.28825e-07
-2.01511e-07
-2.06212e-07
0.000257966
-1.15703e-06
0.000259912
-0.000257966
2.0204e-07
2.06738e-07
3.34018e-10
0.0010569
-2.13659e-07
1.15447e-06
2.13367e-07
8.2344e-07
-1.89659e-07
-8.23512e-07
1.89307e-07
-1.18938e-06
-1.33013e-10
3.43707e-10
0.00105598
-2.18899e-07
1.18991e-06
2.186e-07
8.23372e-07
-1.89621e-07
-8.23455e-07
1.8927e-07
0.0010569
-1.44206e-10
-0.0010569
3.27849e-10
-1.15395e-06
2.13368e-07
-2.1366e-07
-8.2351e-07
1.89305e-07
-1.8966e-07
8.23435e-07
1.1899e-06
0.00105598
-1.25353e-10
-0.00105598
3.37574e-10
-1.18939e-06
2.18599e-07
-2.18903e-07
-8.23458e-07
1.89269e-07
-1.89625e-07
8.2337e-07
-1.38091e-10
3.36149e-10
0.00105578
-2.135e-07
1.18463e-06
2.13208e-07
8.20739e-07
-1.86909e-07
1.86562e-07
-8.2082e-07
-1.38059e-10
-0.00105663
3.38139e-10
-1.15651e-06
2.1334e-07
-2.13639e-07
-8.20855e-07
1.8666e-07
8.20774e-07
-1.87015e-07
1.18463e-06
0.00105578
-1.24766e-10
-0.00105578
3.43861e-10
-1.18412e-06
2.13205e-07
-2.13508e-07
-8.20826e-07
1.8656e-07
-1.86918e-07
8.20737e-07
-1.98976e-07
-2.0617e-07
0.00025793
-1.15175e-06
0.000259866
-0.00025793
1.99503e-07
2.06694e-07
-1.4742e-10
3.31289e-10
0.00105681
-2.10974e-07
1.15187e-06
2.10686e-07
8.20879e-07
-1.89642e-07
1.89296e-07
-8.2095e-07
-1.39666e-10
-0.0010563
3.28684e-10
-1.15123e-06
2.1064e-07
-2.10934e-07
-8.20685e-07
1.89218e-07
8.20658e-07
-1.89592e-07
1.15187e-06
0.00105681
-1.33326e-10
-0.00105681
3.30155e-10
-1.15135e-06
2.10684e-07
-2.10981e-07
-8.20958e-07
1.89295e-07
-1.89651e-07
8.20878e-07
-0.000257943
2.01778e-07
2.06902e-07
1.19192e-06
1.15395e-06
-1.98836e-07
-2.08838e-07
0.000257948
-1.19245e-06
-1.15448e-06
0.000259886
-0.000257948
1.9937e-07
2.09368e-07
3.41272e-10
0.00105586
-2.18875e-07
1.19245e-06
2.18575e-07
8.23304e-07
-1.84305e-07
-8.23392e-07
1.83951e-07
-1.19726e-06
-1.26328e-10
3.4948e-10
0.0010563
-2.21594e-07
1.19778e-06
2.21291e-07
8.28825e-07
-1.8965e-07
-8.28914e-07
1.8929e-07
0.00105586
-1.35935e-10
-0.00105586
3.22992e-10
-1.19192e-06
2.18584e-07
-2.18874e-07
-8.23405e-07
1.83949e-07
-1.84294e-07
8.23333e-07
1.19779e-06
0.0010563
-1.18241e-10
-0.0010563
3.51011e-10
-1.19726e-06
2.21299e-07
-2.21594e-07
-8.28916e-07
1.89293e-07
-1.89652e-07
8.28832e-07
-2.01515e-07
-2.06215e-07
0.000257966
-1.15704e-06
0.000259912
-0.000257966
2.02042e-07
2.06746e-07
3.35214e-10
0.0010569
-2.13661e-07
1.15447e-06
2.13368e-07
8.23438e-07
-1.89662e-07
-8.23516e-07
1.89306e-07
-1.18939e-06
-1.24871e-10
3.48464e-10
0.00105598
-2.18903e-07
1.18991e-06
2.18599e-07
8.23371e-07
-1.89626e-07
-8.2346e-07
1.8927e-07
0.0010569
-1.43775e-10
-0.0010569
3.10917e-10
-1.15395e-06
2.13378e-07
-2.13661e-07
-8.23514e-07
1.89311e-07
-1.89663e-07
8.23441e-07
1.18991e-06
0.00105598
-1.24564e-10
-0.00105598
3.34629e-10
-1.18939e-06
2.18604e-07
-2.18906e-07
-8.2346e-07
1.89274e-07
-1.89627e-07
8.23376e-07
-1.24422e-10
3.41764e-10
0.00105578
-2.13507e-07
1.18463e-06
2.13208e-07
8.20739e-07
-1.86917e-07
1.86561e-07
-8.20827e-07
-1.49133e-10
-0.00105663
3.35667e-10
-1.15651e-06
2.13344e-07
-2.13644e-07
-8.20856e-07
1.8667e-07
8.20784e-07
-1.87015e-07
1.18463e-06
0.00105578
-1.06437e-10
-0.00105578
3.36252e-10
-1.18412e-06
2.13208e-07
-2.13512e-07
-8.20829e-07
1.86564e-07
-1.86921e-07
8.20743e-07
-1.9898e-07
-2.06173e-07
0.00025793
-1.15176e-06
0.000259866
-0.00025793
1.99508e-07
2.06698e-07
-1.34856e-10
3.36541e-10
0.00105681
-2.10979e-07
1.15187e-06
2.10686e-07
8.20878e-07
-1.8965e-07
1.89296e-07
-8.20957e-07
-1.39486e-10
-0.0010563
3.16165e-10
-1.15123e-06
2.10649e-07
-2.10932e-07
-8.20695e-07
1.89233e-07
8.20673e-07
-1.89604e-07
1.15188e-06
0.00105681
-9.61068e-11
-0.00105681
3.21729e-10
-1.15134e-06
2.10696e-07
-2.10973e-07
-8.20952e-07
1.89303e-07
-1.89646e-07
8.20888e-07
-0.000257943
2.01786e-07
2.06904e-07
1.19191e-06
1.15394e-06
-1.98828e-07
-2.08834e-07