/*--------------------------------*- C++ -*----------------------------------*\
| =========                 |                                                 |
| \\      /  F ield         | OpenFOAM: The Open Source CFD Toolbox           |
|  \\    /   O peration     | Version:  2206                                  |
|   \\  /    A nd           | Website:  www.openfoam.com                      |
|    \\/     M anipulation  |                                                 |
\*---------------------------------------------------------------------------*/
FoamFile
{
    version     2.0;
    format      ascii;
    arch        "LSB;label=32;scalar=64";
    class       volScalarField;
    location    "17.5";
    object      Uy;
}
// * * * * * * * * * * * * * * * * * * * * * * * * * * * * * * * * * * * * * //

dimensions      [0 1 -1 0 0 0 0];

internalField   nonuniform List<scalar> 
171728
(
0.000108173
0.000120018
-0.000191042
-0.00023874
9.57162e-05
9.86691e-05
-0.000162513
-0.000199945
9.03602e-05
9.2815e-05
-0.000154564
-0.000192875
7.13453e-05
5.97337e-05
-0.000103582
-0.000149482
1.93091e-05
1.68723e-05
-2.46439e-05
-6.15633e-05
1.6295e-06
2.26149e-06
-2.72972e-06
-4.15598e-05
-4.08878e-07
6.45129e-07
-4.59854e-07
-3.99087e-05
-5.33364e-07
5.7033e-07
-3.66329e-07
-3.98484e-05
-5.40645e-07
5.68416e-07
-3.65431e-07
-3.98478e-05
-5.38462e-07
5.69202e-07
-3.65776e-07
-3.98483e-05
-5.33672e-07
5.69709e-07
-3.65478e-07
-3.98487e-05
-5.41265e-07
5.6814e-07
-3.66025e-07
-3.98485e-05
-5.42698e-07
5.65958e-07
-3.65146e-07
-3.98475e-05
-5.42933e-07
5.64956e-07
-3.63762e-07
-3.98467e-05
-5.4178e-07
5.70309e-07
-3.63859e-07
-3.9846e-05
-5.39051e-07
5.7367e-07
-3.64635e-07
-3.9846e-05
-5.40238e-07
5.71079e-07
-3.65003e-07
-3.98477e-05
-5.3751e-07
5.72961e-07
-3.65376e-07
-3.98475e-05
-5.29636e-07
5.85867e-07
-3.64071e-07
-3.98469e-05
-5.33206e-07
5.59223e-07
-3.6296e-07
-3.98465e-05
-5.35834e-07
5.71745e-07
-3.64425e-07
-3.98475e-05
-5.42729e-07
5.66942e-07
-3.64221e-07
-3.98471e-05
-5.42485e-07
5.66302e-07
-3.65083e-07
-3.98473e-05
-5.42411e-07
5.66189e-07
-3.65544e-07
-3.98475e-05
-5.41612e-07
5.6681e-07
-3.65964e-07
-3.98484e-05
-5.40706e-07
5.67216e-07
-3.66796e-07
-3.98488e-05
-5.40468e-07
5.67709e-07
-3.66881e-07
-3.98494e-05
-5.4083e-07
5.67276e-07
-3.66636e-07
-3.98486e-05
-5.41218e-07
5.66646e-07
-3.65723e-07
-3.9848e-05
-5.41787e-07
5.66651e-07
-3.65108e-07
-3.98481e-05
-5.41747e-07
5.67566e-07
-3.65272e-07
-3.98477e-05
-5.41433e-07
5.66795e-07
-3.64984e-07
-3.98477e-05
-5.40898e-07
5.66834e-07
-3.66259e-07
-3.98488e-05
-5.4079e-07
5.6733e-07
-3.66364e-07
-3.9849e-05
-5.40409e-07
5.67176e-07
-3.66734e-07
-3.98491e-05
-5.40633e-07
5.67418e-07
-3.66619e-07
-3.98489e-05
-5.41689e-07
5.65959e-07
-3.65312e-07
-3.98477e-05
-5.41504e-07
5.66455e-07
-3.65634e-07
-3.98482e-05
-5.42358e-07
5.65342e-07
-3.64636e-07
-3.98474e-05
-5.41201e-07
5.66799e-07
-3.66044e-07
-3.98503e-05
-5.35714e-07
5.65414e-07
-3.65601e-07
-3.98495e-05
-5.38312e-07
5.78213e-07
-3.65016e-07
-3.98472e-05
-5.38844e-07
5.68552e-07
-3.65186e-07
-3.98478e-05
-5.40812e-07
5.6832e-07
-3.64708e-07
-3.98482e-05
-5.41982e-07
5.67925e-07
-3.64188e-07
-3.98484e-05
-5.42217e-07
5.66624e-07
-3.63141e-07
-3.98473e-05
-5.4217e-07
5.67484e-07
-3.63682e-07
-3.98478e-05
-5.42299e-07
5.66832e-07
-3.63537e-07
-3.98476e-05
-5.41148e-07
5.68075e-07
-3.64604e-07
-3.9848e-05
-5.40921e-07
5.68275e-07
-3.65143e-07
-3.98484e-05
-5.41178e-07
5.68406e-07
-3.64545e-07
-3.98479e-05
-5.41282e-07
5.68138e-07
-3.65281e-07
-3.98492e-05
-5.42416e-07
5.66666e-07
-3.63985e-07
-3.98479e-05
-5.43675e-07
5.6338e-07
-3.64268e-07
-3.98483e-05
-5.45035e-07
5.56932e-07
-3.6435e-07
-3.9849e-05
-5.43091e-07
5.65526e-07
-3.64061e-07
-3.98479e-05
-5.4315e-07
5.66127e-07
-3.62524e-07
-3.98463e-05
-5.43231e-07
5.65913e-07
-3.62368e-07
-3.98461e-05
-5.43143e-07
5.66221e-07
-3.6262e-07
-3.9846e-05
-5.43613e-07
5.65182e-07
-3.61596e-07
-3.98452e-05
-5.43732e-07
5.6511e-07
-3.61072e-07
-3.98449e-05
-5.44811e-07
5.64136e-07
-3.5961e-07
-3.98438e-05
-5.44124e-07
5.64938e-07
-3.60785e-07
-3.9844e-05
-5.43896e-07
5.64748e-07
-3.60652e-07
-3.98447e-05
-5.43605e-07
5.65124e-07
-3.61417e-07
-3.98449e-05
-5.43222e-07
5.65922e-07
-3.62443e-07
-3.98456e-05
-5.43063e-07
5.65376e-07
-3.61818e-07
-3.98455e-05
-5.42865e-07
5.6617e-07
-3.61341e-07
-3.98447e-05
-5.42634e-07
5.65882e-07
-3.56636e-07
-3.98411e-05
-5.4079e-07
5.67754e-07
-3.46496e-07
-3.98343e-05
-5.42258e-07
5.65883e-07
-3.55852e-07
-3.98391e-05
-5.43447e-07
5.65865e-07
-3.60615e-07
-3.98434e-05
-5.43238e-07
5.65056e-07
-3.61237e-07
-3.98453e-05
-5.43312e-07
5.65458e-07
-3.6193e-07
-3.98457e-05
-5.43125e-07
5.66042e-07
-3.62464e-07
-3.98455e-05
-5.43729e-07
5.6532e-07
-3.60891e-07
-3.9845e-05
-5.43995e-07
5.64637e-07
-3.60433e-07
-3.98443e-05
-5.44452e-07
5.64645e-07
-3.60095e-07
-3.98441e-05
-5.44358e-07
5.64589e-07
-3.60524e-07
-3.98441e-05
-5.43966e-07
5.64602e-07
-3.60545e-07
-3.98445e-05
-5.43456e-07
5.65699e-07
-3.61629e-07
-3.98454e-05
-5.43297e-07
5.65621e-07
-3.62016e-07
-3.98454e-05
-5.43413e-07
5.65671e-07
-3.62039e-07
-3.98456e-05
-5.43776e-07
5.64799e-07
-3.61328e-07
-3.98451e-05
-5.44281e-07
5.64892e-07
-3.60623e-07
-3.98445e-05
-5.44356e-07
5.64632e-07
-3.6057e-07
-3.9844e-05
-5.44517e-07
5.64465e-07
-3.60233e-07
-3.98443e-05
-5.44008e-07
5.64754e-07
-3.60657e-07
-3.98449e-05
-5.45463e-07
5.63975e-07
-3.60164e-07
-3.98452e-05
-5.57651e-07
5.61762e-07
-3.5818e-07
-3.98291e-05
-5.32846e-07
6.54586e-07
-5.27627e-07
-3.9624e-05
-6.76385e-07
1.10099e-06
-1.20325e-06
-3.82657e-05
5.51422e-08
2.62543e-06
-3.06242e-06
-3.67466e-05
-5.53737e-06
2.89523e-06
-2.10015e-06
-2.6551e-05
-4.27241e-05
-3.48733e-05
4.12509e-05
4.97084e-05
0.000135534
0.000152273
0.000152253
0.000135502
0.000123743
-0.000123759
9.06638e-05
9.06608e-05
-9.07094e-05
-9.07073e-05
0.000123738
-0.000123755
-0.000135553
-0.000152302
-0.000152285
-0.000135526
0.000238738
0.000112908
0.000190938
0.000190981
0.000146103
0.000146102
0.000238688
0.000112875
0.000120033
-0.000120097
8.83863e-05
-8.84102e-05
-0.000120099
8.83872e-05
-8.84042e-05
-0.000238785
-0.000113003
-0.000191072
-0.000146048
-0.00014607
-0.000113005
0.000199812
0.000103828
0.000162575
0.000162574
0.000149328
0.000149328
0.000199779
0.000103818
9.86651e-05
-9.8676e-05
8.84823e-05
-8.84855e-05
-9.8671e-05
8.84896e-05
-8.84753e-05
-0.000199953
-0.000103892
-0.000162544
-0.000149286
-0.000149308
-0.0001039
0.00019276
8.01598e-05
0.000154609
0.000154608
0.000130865
0.000130837
0.000192743
8.01396e-05
9.28119e-05
-9.28153e-05
7.57955e-05
-7.57673e-05
-9.28022e-05
7.57804e-05
-7.57706e-05
-0.000192882
-8.0224e-05
-0.000154582
-0.000130803
-0.000130807
-8.02435e-05
0.000149365
-1.3826e-05
0.000103622
0.000103598
3.80957e-05
3.8111e-05
0.000149356
-1.38236e-05
5.97518e-05
-5.97701e-05
2.47664e-05
-2.48152e-05
-5.97455e-05
2.47691e-05
-2.48003e-05
-0.00014949
1.38399e-05
-0.000103571
-3.8113e-05
-3.81172e-05
1.38191e-05
6.15114e-05
-3.89157e-05
2.463e-05
2.46546e-05
4.94018e-06
4.96389e-06
6.15101e-05
-3.89003e-05
1.68684e-05
-1.69055e-05
3.83246e-06
-3.85142e-06
-1.68999e-05
3.83829e-06
-3.84866e-06
-6.15648e-05
3.89397e-05
-2.46453e-05
-4.93233e-06
-4.9327e-06
3.8931e-05
4.15311e-05
-4.13158e-05
2.73812e-06
2.76188e-06
6.20357e-07
6.28206e-07
4.15407e-05
-4.13166e-05
2.25602e-06
-2.27208e-06
7.47281e-07
-7.57361e-07
-2.26803e-06
7.46096e-07
-7.55317e-07
-4.15668e-05
4.13511e-05
-2.72613e-06
-6.04894e-07
-6.04175e-07
4.13403e-05
3.98876e-05
-4.14015e-05
4.76532e-07
4.78236e-07
3.88927e-07
3.88146e-07
3.98766e-05
-4.14116e-05
6.51815e-07
-6.59515e-07
5.79713e-07
-5.84613e-07
-6.56847e-07
5.73878e-07
-5.84293e-07
-3.99135e-05
4.14455e-05
-4.56171e-07
-3.66552e-07
-3.66308e-07
4.14332e-05
3.98284e-05
-4.14133e-05
3.82931e-07
3.86393e-07
3.79515e-07
3.81597e-07
3.98163e-05
-4.14128e-05
5.74035e-07
-5.8282e-07
5.70095e-07
-5.80468e-07
-5.81298e-07
5.69111e-07
-5.79687e-07
-3.98521e-05
4.14468e-05
-3.63079e-07
-3.61987e-07
-3.62027e-07
4.14348e-05
3.98195e-05
-4.14128e-05
3.79677e-07
3.85545e-07
3.80018e-07
3.79493e-07
3.98158e-05
-4.14123e-05
5.70794e-07
-5.823e-07
5.71279e-07
-5.81002e-07
-5.80167e-07
5.69833e-07
-5.79987e-07
-3.98519e-05
4.1446e-05
-3.62541e-07
-3.62846e-07
-3.62553e-07
4.14345e-05
3.98221e-05
-4.13956e-05
3.8286e-07
3.90089e-07
3.93704e-07
3.80856e-07
3.98165e-05
-4.14115e-05
5.73667e-07
-5.82092e-07
5.79598e-07
-5.79547e-07
-5.80174e-07
5.70324e-07
-5.80017e-07
-3.98526e-05
4.14469e-05
-3.6269e-07
-3.62207e-07
-3.62532e-07
4.1434e-05
3.98385e-05
-4.14128e-05
3.91663e-07
3.90895e-07
3.78141e-07
3.7835e-07
3.98171e-05
-4.14134e-05
5.79334e-07
-5.81075e-07
5.69116e-07
-5.81042e-07
-5.8035e-07
5.69239e-07
-5.80399e-07
-3.9852e-05
4.14456e-05
-3.62789e-07
-3.63072e-07
-3.62795e-07
4.14337e-05
3.98193e-05
-4.14134e-05
3.82486e-07
3.87689e-07
3.75972e-07
3.87085e-07
3.98152e-05
-4.14158e-05
5.71661e-07
-5.82619e-07
5.68855e-07
-5.81529e-07
-5.80677e-07
5.66959e-07
-5.79665e-07
-3.98528e-05
4.14456e-05
-3.6324e-07
-3.62193e-07
-3.64139e-07
4.14345e-05
3.9819e-05
-4.14154e-05
3.78112e-07
3.92433e-07
3.72852e-07
3.91057e-07
3.98123e-05
-4.14173e-05
5.70857e-07
-5.83023e-07
5.67797e-07
-5.81609e-07
-5.79335e-07
5.65261e-07
-5.78121e-07
-3.98528e-05
4.14458e-05
-3.64607e-07
-3.60948e-07
-3.64554e-07
4.14357e-05
3.98215e-05
-4.14152e-05
3.79029e-07
3.90473e-07
3.75067e-07
3.84214e-07
3.98118e-05
-4.14137e-05
5.73045e-07
-5.82942e-07
5.7025e-07
-5.81159e-07
-5.77849e-07
5.68624e-07
-5.77039e-07
-3.98526e-05
4.14463e-05
-3.63977e-07
-3.60882e-07
-3.61857e-07
4.14369e-05
3.98244e-05
-4.1415e-05
3.80739e-07
3.86017e-07
3.77462e-07
3.96271e-07
3.98182e-05
-4.13959e-05
5.70786e-07
-5.8233e-07
5.70396e-07
-5.80593e-07
-5.77106e-07
5.78509e-07
-5.76722e-07
-3.98523e-05
4.14469e-05
-3.61366e-07
-3.61047e-07
-3.60745e-07
4.14373e-05
3.98244e-05
-4.14142e-05
3.82608e-07
3.89381e-07
3.75916e-07
3.82896e-07
3.98313e-05
-4.14163e-05
5.71556e-07
-5.82126e-07
5.70261e-07
-5.81034e-07
-5.77334e-07
5.70074e-07
-5.78896e-07
-3.98521e-05
4.14461e-05
-3.61264e-07
-3.62121e-07
-3.61939e-07
4.14351e-05
3.98244e-05
-4.14128e-05
3.83554e-07
3.84627e-07
3.7669e-07
3.83017e-07
3.98156e-05
-4.14153e-05
5.70998e-07
-5.82331e-07
5.7129e-07
-5.80581e-07
-5.78976e-07
5.71137e-07
-5.78521e-07
-3.98526e-05
4.14468e-05
-3.61847e-07
-3.6211e-07
-3.61752e-07
4.14359e-05
3.98248e-05
-4.13998e-05
3.85639e-07
3.84682e-07
3.87825e-07
3.95211e-07
3.98183e-05
-4.13964e-05
5.73281e-07
-5.81819e-07
5.78788e-07
-5.78857e-07
-5.78765e-07
5.81793e-07
-5.77201e-07
-3.98524e-05
4.14478e-05
-3.62196e-07
-3.61417e-07
-3.61872e-07
4.14365e-05
3.98424e-05
-4.14018e-05
3.99816e-07
4.02047e-07
3.82576e-07
3.87648e-07
3.98382e-05
-4.14094e-05
5.83213e-07
-5.79813e-07
5.78064e-07
-5.78241e-07
-5.7685e-07
5.69652e-07
-5.77223e-07
-3.98516e-05
4.14483e-05
-3.62945e-07
-3.59689e-07
-3.68889e-07
4.14367e-05
3.9832e-05
-4.14049e-05
3.83108e-07
3.80227e-07
3.90415e-07
3.90389e-07
3.98083e-05
-4.14132e-05
5.75051e-07
-5.80282e-07
5.68515e-07
-5.79891e-07
-5.78326e-07
5.71377e-07
-5.793e-07
-3.98511e-05
4.14467e-05
-3.70361e-07
-3.61173e-07
-3.63951e-07
4.1435e-05
3.9826e-05
-4.14084e-05
3.91883e-07
3.78842e-07
3.78243e-07
3.82804e-07
3.98155e-05
-4.14131e-05
5.70174e-07
-5.81214e-07
5.6865e-07
-5.80354e-07
-5.79123e-07
5.67133e-07
-5.786e-07
-3.98519e-05
4.14467e-05
-3.63054e-07
-3.61243e-07
-3.62938e-07
4.14355e-05
3.98182e-05
-4.14108e-05
3.7571e-07
3.81667e-07
3.77309e-07
3.80416e-07
3.98177e-05
-4.14159e-05
5.68129e-07
-5.8207e-07
5.66524e-07
-5.81011e-07
-5.79028e-07
5.66516e-07
-5.79398e-07
-3.98519e-05
4.14463e-05
-3.62167e-07
-3.61706e-07
-3.62058e-07
4.14354e-05
3.98176e-05
-4.14112e-05
3.76274e-07
3.80137e-07
3.77435e-07
3.80637e-07
3.98145e-05
-4.14161e-05
5.67494e-07
-5.82457e-07
5.65781e-07
-5.81017e-07
-5.79832e-07
5.66256e-07
-5.79295e-07
-3.98521e-05
4.14462e-05
-3.61764e-07
-3.61989e-07
-3.6071e-07
4.14353e-05
3.9817e-05
-4.141e-05
3.75948e-07
3.80864e-07
3.78399e-07
3.81612e-07
3.98145e-05
-4.14147e-05
5.66632e-07
-5.82597e-07
5.66049e-07
-5.81439e-07
-5.79785e-07
5.6687e-07
-5.80141e-07
-3.98522e-05
4.14455e-05
-3.62378e-07
-3.6279e-07
-3.63486e-07
4.1434e-05
3.98183e-05
-4.14084e-05
3.76733e-07
3.81668e-07
3.79852e-07
3.82455e-07
3.98157e-05
-4.14138e-05
5.67116e-07
-5.82968e-07
5.6693e-07
-5.81685e-07
-5.80323e-07
5.67687e-07
-5.80405e-07
-3.98528e-05
4.14452e-05
-3.63796e-07
-3.63235e-07
-3.64464e-07
4.14338e-05
3.98201e-05
-4.14076e-05
3.78329e-07
3.8266e-07
3.80703e-07
3.83231e-07
3.98166e-05
-4.14133e-05
5.67873e-07
-5.83145e-07
5.67564e-07
-5.82053e-07
-5.8081e-07
5.68209e-07
-5.80922e-07
-3.98532e-05
4.14446e-05
-3.65016e-07
-3.64182e-07
-3.65555e-07
4.1433e-05
3.98206e-05
-4.14082e-05
3.78609e-07
3.82811e-07
3.80047e-07
3.82563e-07
3.98169e-05
-4.14138e-05
5.68195e-07
-5.83167e-07
5.67047e-07
-5.81284e-07
-5.80992e-07
5.67685e-07
-5.80312e-07
-3.98537e-05
4.14455e-05
-3.6541e-07
-3.63308e-07
-3.64642e-07
4.14338e-05
3.98198e-05
-4.14086e-05
3.78032e-07
3.82482e-07
3.79566e-07
3.81967e-07
3.98164e-05
-4.14144e-05
5.67735e-07
-5.83061e-07
5.66512e-07
-5.81207e-07
-5.80436e-07
5.67236e-07
-5.79713e-07
-3.98529e-05
4.14456e-05
-3.64732e-07
-3.62885e-07
-3.64103e-07
4.14345e-05
3.98196e-05
-4.14088e-05
3.7763e-07
3.81615e-07
3.79176e-07
3.81569e-07
3.98158e-05
-4.14146e-05
5.67284e-07
-5.82277e-07
5.66478e-07
-5.80851e-07
-5.7995e-07
5.66834e-07
-5.8e-07
-3.98525e-05
4.1446e-05
-3.64178e-07
-3.62445e-07
-3.64189e-07
4.14341e-05
3.98191e-05
-4.14097e-05
3.76611e-07
3.81186e-07
3.78137e-07
3.80571e-07
3.98157e-05
-4.14145e-05
5.66748e-07
-5.8198e-07
5.65725e-07
-5.80476e-07
-5.79642e-07
5.65739e-07
-5.79397e-07
-3.98523e-05
4.14467e-05
-3.63536e-07
-3.61973e-07
-3.63459e-07
4.1435e-05
3.98189e-05
-4.14088e-05
3.76878e-07
3.81502e-07
3.79196e-07
3.81728e-07
3.9815e-05
-4.14151e-05
5.66967e-07
-5.82088e-07
5.66583e-07
-5.80719e-07
-5.79692e-07
5.66135e-07
-5.79307e-07
-3.98518e-05
4.14462e-05
-3.63701e-07
-3.62157e-07
-3.63542e-07
4.1435e-05
3.98194e-05
-4.14088e-05
3.77075e-07
3.81667e-07
3.79449e-07
3.82641e-07
3.98137e-05
-4.14134e-05
5.67123e-07
-5.81964e-07
5.66638e-07
-5.8128e-07
-5.79646e-07
5.67124e-07
-5.80283e-07
-3.98523e-05
4.14458e-05
-3.63507e-07
-3.63312e-07
-3.64927e-07
4.14339e-05
3.98196e-05
-4.14079e-05
3.77817e-07
3.82829e-07
3.80074e-07
3.8327e-07
3.98138e-05
-4.14132e-05
5.67662e-07
-5.82967e-07
5.67143e-07
-5.81755e-07
-5.80591e-07
5.67604e-07
-5.80632e-07
-3.98529e-05
4.14452e-05
-3.6471e-07
-3.63998e-07
-3.65544e-07
4.14336e-05
3.98203e-05
-4.14077e-05
3.77949e-07
3.83061e-07
3.80626e-07
3.83866e-07
3.98138e-05
-4.1413e-05
5.6767e-07
-5.83e-07
5.67424e-07
-5.81898e-07
-5.81033e-07
5.67611e-07
-5.80565e-07
-3.98533e-05
4.14449e-05
-3.65094e-07
-3.64015e-07
-3.6546e-07
4.14335e-05
3.98207e-05
-4.14079e-05
3.78703e-07
3.838e-07
3.80486e-07
3.83631e-07
3.98141e-05
-4.14134e-05
5.6827e-07
-5.83408e-07
5.67318e-07
-5.81796e-07
-5.8095e-07
5.67481e-07
-5.80485e-07
-3.98537e-05
4.14452e-05
-3.65142e-07
-3.64004e-07
-3.65414e-07
4.14336e-05
3.98204e-05
-4.14092e-05
3.78516e-07
3.83622e-07
3.79099e-07
3.82417e-07
3.98135e-05
-4.14142e-05
5.68075e-07
-5.83279e-07
5.6637e-07
-5.80605e-07
-5.80874e-07
5.66469e-07
-5.79325e-07
-3.98533e-05
4.14464e-05
-3.65057e-07
-3.62526e-07
-3.63883e-07
4.14347e-05
3.98196e-05
-4.14095e-05
3.77188e-07
3.82314e-07
3.7915e-07
3.82007e-07
3.98126e-05
-4.14143e-05
5.67197e-07
-5.8213e-07
5.66488e-07
-5.80814e-07
-5.79744e-07
5.6665e-07
-5.79868e-07
-3.9852e-05
4.14462e-05
-3.63667e-07
-3.62755e-07
-3.64379e-07
4.14341e-05
3.98197e-05
-4.1411e-05
3.77315e-07
3.82373e-07
3.77984e-07
3.81931e-07
3.98127e-05
-4.14149e-05
5.67265e-07
-5.82458e-07
5.65852e-07
-5.80609e-07
-5.79959e-07
5.66043e-07
-5.79064e-07
-3.98524e-05
4.14464e-05
-3.63845e-07
-3.61866e-07
-3.63339e-07
4.14351e-05
3.98193e-05
-4.14116e-05
3.76415e-07
3.81053e-07
3.77523e-07
3.83521e-07
3.98124e-05
-4.14133e-05
5.65864e-07
-5.81684e-07
5.6565e-07
-5.81326e-07
-5.78945e-07
5.67697e-07
-5.80483e-07
-3.98519e-05
4.14454e-05
-3.62686e-07
-3.62908e-07
-3.67308e-07
4.14327e-05
3.98186e-05
-4.14174e-05
3.77499e-07
3.85269e-07
3.79732e-07
3.87202e-07
3.98148e-05
-4.141e-05
5.65686e-07
-5.82805e-07
5.68439e-07
-5.8132e-07
-5.81675e-07
5.64053e-07
-5.81554e-07
-3.98533e-05
4.14455e-05
-3.69793e-07
-3.63955e-07
-3.69986e-07
4.14325e-05
3.98223e-05
-4.14158e-05
3.88222e-07
3.8354e-07
3.73932e-07
3.96896e-07
3.98131e-05
-4.14023e-05
5.70416e-07
-5.82048e-07
5.653e-07
-5.80496e-07
-5.80253e-07
5.75835e-07
-5.78244e-07
-3.98531e-05
4.14465e-05
-3.65721e-07
-3.6242e-07
-3.63541e-07
4.14361e-05
3.98252e-05
-4.14104e-05
3.83732e-07
3.97831e-07
3.76833e-07
3.8395e-07
3.98304e-05
-4.14141e-05
5.69199e-07
-5.82551e-07
5.68964e-07
-5.81698e-07
-5.78727e-07
5.69253e-07
-5.7911e-07
-3.98525e-05
4.14454e-05
-3.63758e-07
-3.63387e-07
-3.64506e-07
4.14349e-05
3.98276e-05
-4.14113e-05
3.84285e-07
3.85101e-07
3.76248e-07
3.82228e-07
3.98135e-05
-4.14152e-05
5.70832e-07
-5.82968e-07
5.68859e-07
-5.81487e-07
-5.79536e-07
5.68329e-07
-5.80003e-07
-3.98532e-05
4.14459e-05
-3.63658e-07
-3.63137e-07
-3.64799e-07
4.14344e-05
3.98262e-05
-4.14137e-05
3.81632e-07
3.83945e-07
3.74489e-07
3.82291e-07
3.98131e-05
-4.1415e-05
5.69672e-07
-5.83066e-07
5.67778e-07
-5.81506e-07
-5.80195e-07
5.6853e-07
-5.80191e-07
-3.98527e-05
4.14459e-05
-3.63805e-07
-3.63326e-07
-3.65253e-07
4.14341e-05
3.98238e-05
-4.14147e-05
3.80119e-07
3.82717e-07
3.73412e-07
3.8084e-07
3.98124e-05
-4.14165e-05
5.6873e-07
-5.82953e-07
5.67382e-07
-5.80788e-07
-5.80177e-07
5.67242e-07
-5.7908e-07
-3.98526e-05
4.14467e-05
-3.63572e-07
-3.6203e-07
-3.64024e-07
4.14352e-05
3.98229e-05
-4.1415e-05
3.7936e-07
3.81546e-07
3.73383e-07
3.80857e-07
3.98112e-05
-4.14164e-05
5.68337e-07
-5.82381e-07
5.67165e-07
-5.81049e-07
-5.79235e-07
5.67663e-07
-5.79554e-07
-3.98518e-05
4.14463e-05
-3.62107e-07
-3.62377e-07
-3.64691e-07
4.14347e-05
3.98226e-05
-4.14148e-05
3.79447e-07
3.8167e-07
3.73314e-07
3.80632e-07
3.98114e-05
-4.14164e-05
5.682e-07
-5.8269e-07
5.6699e-07
-5.81066e-07
-5.7971e-07
5.67401e-07
-5.7956e-07
-3.98522e-05
4.14464e-05
-3.62537e-07
-3.62318e-07
-3.64465e-07
4.14349e-05
3.98229e-05
-4.14138e-05
3.79368e-07
3.815e-07
3.74458e-07
3.81586e-07
3.98114e-05
-4.14155e-05
5.68106e-07
-5.82589e-07
5.67972e-07
-5.81583e-07
-5.79577e-07
5.6825e-07
-5.79698e-07
-3.98521e-05
4.14456e-05
-3.6236e-07
-3.62933e-07
-3.64318e-07
4.14346e-05
3.9824e-05
-4.1413e-05
3.80917e-07
3.8286e-07
3.75546e-07
3.82597e-07
3.98124e-05
-4.14149e-05
5.69331e-07
-5.8335e-07
5.68549e-07
-5.8222e-07
-5.80171e-07
5.68771e-07
-5.80148e-07
-3.98529e-05
4.14449e-05
-3.63445e-07
-3.64071e-07
-3.65279e-07
4.14339e-05
3.98245e-05
-4.14136e-05
3.81239e-07
3.83244e-07
3.74923e-07
3.81953e-07
3.98127e-05
-4.14153e-05
5.69439e-07
-5.8356e-07
5.68241e-07
-5.81697e-07
-5.80337e-07
5.68552e-07
-5.79758e-07
-3.98534e-05
4.14456e-05
-3.64126e-07
-3.63111e-07
-3.64156e-07
4.14345e-05
3.9824e-05
-4.14131e-05
3.8084e-07
3.82857e-07
3.75218e-07
3.82255e-07
3.98124e-05
-4.14145e-05
5.69306e-07
-5.83234e-07
5.68461e-07
-5.82238e-07
-5.80094e-07
5.68785e-07
-5.80799e-07
-3.98529e-05
4.14449e-05
-3.63945e-07
-3.63998e-07
-3.65734e-07
4.14331e-05
3.98243e-05
-4.14146e-05
3.80942e-07
3.83173e-07
3.73867e-07
3.8129e-07
3.98126e-05
-4.14161e-05
5.69156e-07
-5.83704e-07
5.67286e-07
-5.81582e-07
-5.8089e-07
5.67549e-07
-5.79862e-07
-3.98536e-05
4.14458e-05
-3.65338e-07
-3.62681e-07
-3.64305e-07
4.14343e-05
3.98227e-05
-4.14153e-05
3.79433e-07
3.81165e-07
3.72781e-07
3.79113e-07
3.98109e-05
-4.14186e-05
5.68038e-07
-5.8308e-07
5.66491e-07
-5.81942e-07
-5.80239e-07
5.65057e-07
-5.80578e-07
-3.98525e-05
4.14456e-05
-3.64292e-07
-3.62655e-07
-3.64457e-07
4.14338e-05
3.98216e-05
-4.14166e-05
3.77985e-07
3.78469e-07
3.70507e-07
3.65365e-07
3.98073e-05
-4.14359e-05
5.67112e-07
-5.83415e-07
5.65191e-07
-5.81838e-07
-5.8111e-07
5.55817e-07
-5.81906e-07
-3.98525e-05
4.14457e-05
-3.64641e-07
-3.62614e-07
-3.65043e-07
4.14327e-05
3.98206e-05
-4.14149e-05
3.76383e-07
3.69363e-07
3.72567e-07
3.80591e-07
3.97901e-05
-4.14177e-05
5.66125e-07
-5.83354e-07
5.66484e-07
-5.81818e-07
-5.81992e-07
5.66996e-07
-5.80338e-07
-3.98523e-05
4.14457e-05
-3.65252e-07
-3.6195e-07
-3.65362e-07
4.1434e-05
3.98231e-05
-4.14135e-05
3.79135e-07
3.79448e-07
3.73675e-07
3.83342e-07
3.98094e-05
-4.14169e-05
5.68053e-07
-5.83551e-07
5.68095e-07
-5.82546e-07
-5.80185e-07
5.66383e-07
-5.78417e-07
-3.98527e-05
4.14448e-05
-3.6768e-07
-3.60889e-07
-3.74274e-07
4.14356e-05
3.98242e-05
-4.14129e-05
3.79441e-07
3.8513e-07
3.734e-07
3.8481e-07
3.98109e-05
-4.14169e-05
5.69394e-07
-5.84274e-07
5.68877e-07
-5.83018e-07
-5.78184e-07
5.66083e-07
-5.77391e-07
-3.98536e-05
4.14444e-05
-3.76141e-07
-3.60315e-07
-3.75464e-07
4.14361e-05
3.98248e-05
-4.14126e-05
3.79189e-07
3.85769e-07
3.73536e-07
3.86175e-07
3.98109e-05
-4.14159e-05
5.69809e-07
-5.84589e-07
5.69283e-07
-5.8358e-07
-5.77793e-07
5.66738e-07
-5.77221e-07
-3.9854e-05
4.14439e-05
-3.77087e-07
-3.60691e-07
-3.76376e-07
4.14361e-05
3.9825e-05
-4.14133e-05
3.79396e-07
3.87076e-07
3.7267e-07
3.85624e-07
3.98117e-05
-4.14169e-05
5.70259e-07
-5.85199e-07
5.68746e-07
-5.8331e-07
-5.77293e-07
5.65675e-07
-5.76354e-07
-3.98545e-05
4.14443e-05
-3.77399e-07
-3.59835e-07
-3.755e-07
4.14369e-05
3.98243e-05
-4.14129e-05
3.78709e-07
3.86267e-07
3.72697e-07
3.85474e-07
3.98106e-05
-4.14171e-05
5.69946e-07
-5.84558e-07
5.6923e-07
-5.82908e-07
-5.76471e-07
5.65488e-07
-5.75921e-07
-3.98539e-05
4.14449e-05
-3.76546e-07
-3.59277e-07
-3.75085e-07
4.14372e-05
3.98245e-05
-4.14144e-05
3.78302e-07
3.86157e-07
3.71235e-07
3.8424e-07
3.98105e-05
-4.1418e-05
5.69864e-07
-5.84286e-07
5.68022e-07
-5.82105e-07
-5.7633e-07
5.64716e-07
-5.75364e-07
-3.98536e-05
4.14458e-05
-3.76462e-07
-3.58135e-07
-3.74075e-07
4.14382e-05
3.98231e-05
-4.14141e-05
3.76867e-07
3.84636e-07
3.71454e-07
3.84625e-07
3.98095e-05
-4.14176e-05
5.68827e-07
-5.83391e-07
5.68062e-07
-5.82399e-07
-5.75205e-07
5.65015e-07
-5.75086e-07
-3.98526e-05
4.14453e-05
-3.74719e-07
-3.58565e-07
-3.74253e-07
4.14383e-05
3.98237e-05
-4.14134e-05
3.78002e-07
3.85903e-07
3.72162e-07
3.85211e-07
3.98102e-05
-4.14173e-05
5.69534e-07
-5.84188e-07
5.68737e-07
-5.82701e-07
-5.75802e-07
5.65252e-07
-5.75792e-07
-3.98533e-05
4.14449e-05
-3.75751e-07
-3.58922e-07
-3.74697e-07
4.14374e-05
3.98241e-05
-4.14133e-05
3.77944e-07
3.85816e-07
3.72261e-07
3.85333e-07
3.98101e-05
-4.14172e-05
5.69669e-07
-5.84129e-07
5.68694e-07
-5.82883e-07
-5.76081e-07
5.65335e-07
-5.75918e-07
-3.98534e-05
4.14448e-05
-3.75736e-07
-3.59124e-07
-3.75062e-07
4.14374e-05
3.98244e-05
-4.14124e-05
3.7853e-07
3.8636e-07
3.73214e-07
3.86346e-07
3.98105e-05
-4.14161e-05
5.70162e-07
-5.84583e-07
5.69174e-07
-5.8378e-07
-5.76345e-07
5.66064e-07
-5.76501e-07
-3.98538e-05
4.14436e-05
-3.76567e-07
-3.60505e-07
-3.7624e-07
4.14365e-05
3.98252e-05
-4.14123e-05
3.79195e-07
3.87281e-07
3.73409e-07
3.86438e-07
3.98114e-05
-4.14163e-05
5.70515e-07
-5.85295e-07
5.69324e-07
-5.8359e-07
-5.77035e-07
5.66049e-07
-5.76623e-07
-3.98547e-05
4.1444e-05
-3.77622e-07
-3.60109e-07
-3.76055e-07
4.14366e-05
3.98253e-05
-4.14125e-05
3.79328e-07
3.87092e-07
3.73259e-07
3.86192e-07
3.98111e-05
-4.14164e-05
5.70695e-07
-5.84869e-07
5.69352e-07
-5.82896e-07
-5.76509e-07
5.66263e-07
-5.75988e-07
-3.98544e-05
4.14446e-05
-3.76878e-07
-3.60075e-07
-3.76058e-07
4.14373e-05
3.98249e-05
-4.14123e-05
3.7914e-07
3.87052e-07
3.727e-07
3.85685e-07
3.98109e-05
-4.14166e-05
5.7072e-07
-5.8424e-07
5.69482e-07
-5.80398e-07
-5.75993e-07
5.6602e-07
-5.73588e-07
-3.98536e-05
4.14471e-05
-3.76308e-07
-3.56354e-07
-3.72968e-07
4.14395e-05
3.98247e-05
-4.14114e-05
3.78498e-07
3.8658e-07
3.73335e-07
3.864e-07
3.98105e-05
-4.14155e-05
5.70859e-07
-5.80515e-07
5.70681e-07
-5.752e-07
-5.72794e-07
5.67699e-07
-5.68692e-07
-3.98495e-05
4.14546e-05
-3.72345e-07
-3.44595e-07
-3.64292e-07
4.1446e-05
3.98256e-05
-4.14123e-05
3.794e-07
3.87418e-07
3.72809e-07
3.86051e-07
3.98113e-05
-4.14163e-05
5.72183e-07
-5.7622e-07
5.70057e-07
-5.77437e-07
-5.68213e-07
5.66982e-07
-5.69395e-07
-3.98427e-05
4.14501e-05
-3.6146e-07
-3.53658e-07
-3.6917e-07
4.14442e-05
3.98249e-05
-4.1413e-05
3.7833e-07
3.86499e-07
3.72179e-07
3.8541e-07
3.98107e-05
-4.14169e-05
5.71021e-07
-5.80405e-07
5.68968e-07
-5.81855e-07
-5.71445e-07
5.66006e-07
-5.74488e-07
-3.98489e-05
4.14457e-05
-3.70366e-07
-3.56965e-07
-3.74503e-07
4.14387e-05
3.98247e-05
-4.14125e-05
3.78357e-07
3.86381e-07
3.73087e-07
3.85972e-07
3.98107e-05
-4.14168e-05
5.70311e-07
-5.83541e-07
5.69076e-07
-5.82897e-07
-5.74997e-07
5.65594e-07
-5.75836e-07
-3.98527e-05
4.14445e-05
-3.74058e-07
-3.59475e-07
-3.76604e-07
4.1437e-05
3.98252e-05
-4.14129e-05
3.79017e-07
3.86628e-07
3.72872e-07
3.85883e-07
3.98108e-05
-4.14168e-05
5.70406e-07
-5.84539e-07
5.6883e-07
-5.83116e-07
-5.76293e-07
5.65716e-07
-5.76602e-07
-3.98541e-05
4.14444e-05
-3.75889e-07
-3.59705e-07
-3.76361e-07
4.14364e-05
3.98248e-05
-4.14122e-05
3.7905e-07
3.87023e-07
3.73533e-07
3.86635e-07
3.98108e-05
-4.14162e-05
5.70376e-07
-5.85009e-07
5.69273e-07
-5.84192e-07
-5.76788e-07
5.66324e-07
-5.76378e-07
-3.98541e-05
4.14432e-05
-3.77545e-07
-3.60659e-07
-3.76407e-07
4.14366e-05
3.98254e-05
-4.1413e-05
3.79391e-07
3.87497e-07
3.72699e-07
3.85889e-07
3.98114e-05
-4.14167e-05
5.70544e-07
-5.85524e-07
5.68717e-07
-5.82925e-07
-5.76778e-07
5.65876e-07
-5.76239e-07
-3.98551e-05
4.14447e-05
-3.77777e-07
-3.59482e-07
-3.7639e-07
4.1437e-05
3.98244e-05
-4.14135e-05
3.78568e-07
3.86244e-07
3.71905e-07
3.84797e-07
3.98105e-05
-4.14176e-05
5.70023e-07
-5.8416e-07
5.68326e-07
-5.82437e-07
-5.76273e-07
5.64973e-07
-5.75366e-07
-3.98534e-05
4.14453e-05
-3.77007e-07
-3.58417e-07
-3.75014e-07
4.14379e-05
3.98241e-05
-4.14139e-05
3.78049e-07
3.85711e-07
3.71837e-07
3.84912e-07
3.981e-05
-4.14176e-05
5.69769e-07
-5.83946e-07
5.68031e-07
-5.82592e-07
-5.7577e-07
5.65011e-07
-5.75262e-07
-3.98533e-05
4.14451e-05
-3.76351e-07
-3.58692e-07
-3.75016e-07
4.14378e-05
3.98236e-05
-4.14139e-05
3.7751e-07
3.85547e-07
3.7154e-07
3.84581e-07
3.981e-05
-4.14178e-05
5.69267e-07
-5.83871e-07
5.67936e-07
-5.82212e-07
-5.75361e-07
5.64815e-07
-5.75035e-07
-3.98533e-05
4.14456e-05
-3.75815e-07
-3.58252e-07
-3.74747e-07
4.14382e-05
3.98238e-05
-4.14136e-05
3.7771e-07
3.85413e-07
3.72054e-07
3.84966e-07
3.98098e-05
-4.14174e-05
5.69376e-07
-5.83839e-07
5.68276e-07
-5.8266e-07
-5.75641e-07
5.65079e-07
-5.75414e-07
-3.9853e-05
4.14451e-05
-3.76216e-07
-3.58822e-07
-3.75304e-07
4.14378e-05
3.98242e-05
-4.14129e-05
3.78188e-07
3.85969e-07
3.72639e-07
3.85821e-07
3.98103e-05
-4.14166e-05
5.69855e-07
-5.84153e-07
5.68787e-07
-5.83111e-07
-5.75891e-07
5.65893e-07
-5.76138e-07
-3.98535e-05
4.14445e-05
-3.76409e-07
-3.59525e-07
-3.76229e-07
4.14369e-05
3.98248e-05
-4.14124e-05
3.78954e-07
3.86866e-07
3.73343e-07
3.86347e-07
3.9811e-05
-4.14164e-05
5.70373e-07
-5.84903e-07
5.69186e-07
-5.83588e-07
-5.76732e-07
5.65994e-07
-5.76312e-07
-3.98541e-05
4.14439e-05
-3.77645e-07
-3.60239e-07
-3.76646e-07
4.14368e-05
3.98251e-05
-4.14126e-05
3.79199e-07
3.87024e-07
3.73171e-07
3.86207e-07
3.98112e-05
-4.14165e-05
5.70373e-07
-5.85035e-07
5.68963e-07
-5.83502e-07
-5.76651e-07
5.65899e-07
-5.7636e-07
-3.98545e-05
4.14439e-05
-3.77798e-07
-3.60102e-07
-3.76612e-07
4.14365e-05
3.9825e-05
-4.1413e-05
3.79041e-07
3.87127e-07
3.72864e-07
3.85776e-07
3.98112e-05
-4.1417e-05
5.70281e-07
-5.85273e-07
5.68864e-07
-5.82976e-07
-5.76869e-07
5.65611e-07
-5.76363e-07
-3.98545e-05
4.14446e-05
-3.77933e-07
-3.59689e-07
-3.76483e-07
4.14369e-05
3.98246e-05
-4.14139e-05
3.78606e-07
3.86379e-07
3.71993e-07
3.84859e-07
3.98105e-05
-4.14175e-05
5.69981e-07
-5.8482e-07
5.68022e-07
-5.81982e-07
-5.7616e-07
5.65145e-07
-5.75461e-07
-3.98537e-05
4.1445e-05
-3.77051e-07
-3.58963e-07
-3.75373e-07
4.14377e-05
3.98237e-05
-4.1414e-05
3.77843e-07
3.85528e-07
3.7185e-07
3.84693e-07
3.981e-05
-4.14177e-05
5.69372e-07
-5.84884e-07
5.68085e-07
-5.8074e-07
-5.76012e-07
5.6498e-07
-5.75123e-07
-3.98533e-05
4.1445e-05
-3.76619e-07
-3.58577e-07
-3.74879e-07
4.14382e-05
3.98236e-05
-4.14142e-05
3.77752e-07
3.85355e-07
3.71558e-07
3.8429e-07
3.98099e-05
-4.14179e-05
5.69398e-07
-5.859e-07
5.6793e-07
-5.79981e-07
-5.75553e-07
5.64704e-07
-5.75362e-07
-3.98524e-05
4.14434e-05
-3.76152e-07
-3.58648e-07
-3.75135e-07
4.14378e-05
3.98234e-05
-4.14135e-05
3.77452e-07
3.85437e-07
3.72115e-07
3.85054e-07
3.98098e-05
-4.14174e-05
5.69097e-07
-5.8625e-07
5.68243e-07
-5.80646e-07
-5.75493e-07
5.65141e-07
-5.75749e-07
-3.98522e-05
4.14434e-05
-3.7608e-07
-3.58907e-07
-3.75577e-07
4.14372e-05
3.98243e-05
-4.14126e-05
3.78193e-07
3.85712e-07
3.73861e-07
3.8699e-07
3.98103e-05
-4.14164e-05
5.69676e-07
-5.86334e-07
5.69768e-07
-5.8298e-07
-5.75974e-07
5.666e-07
-5.77305e-07
-3.98525e-05
4.1442e-05
-3.7667e-07
-3.61061e-07
-3.77444e-07
4.14364e-05
3.98246e-05
-4.14042e-05
3.77313e-07
3.8511e-07
3.79364e-07
3.9227e-07
3.98108e-05
-4.14079e-05
5.68611e-07
-5.85098e-07
5.73753e-07
-5.87645e-07
-5.74839e-07
5.70148e-07
-5.81356e-07
-3.9853e-05
4.14329e-05
-3.75843e-07
-3.66378e-07
-3.83186e-07
4.14281e-05
3.98085e-05
-4.13133e-05
3.75268e-07
3.8252e-07
2.96053e-07
3.10038e-07
3.97941e-05
-4.13171e-05
5.66316e-07
-5.80986e-07
5.12549e-07
-5.27122e-07
-5.72342e-07
5.09276e-07
-5.20923e-07
-3.98359e-05
4.13429e-05
-3.73384e-07
-2.8442e-07
-2.98823e-07
4.13371e-05
3.96022e-05
-4.00724e-05
5.45243e-07
5.49899e-07
-2.16035e-07
-2.04495e-07
3.95889e-05
-4.00742e-05
6.58277e-07
-6.73289e-07
2.17824e-07
-2.31419e-07
-6.6415e-07
2.15456e-07
-2.28372e-07
-3.96293e-05
4.01042e-05
-5.39081e-07
2.31249e-07
2.27122e-07
4.00959e-05
3.82474e-05
-3.97042e-05
1.22049e-06
1.22586e-06
-1.68723e-06
-1.67935e-06
3.82299e-05
-3.97053e-05
1.10333e-06
-1.11444e-06
-1.09646e-06
1.09187e-06
-1.10553e-06
-1.09413e-06
1.08483e-06
-3.82698e-05
3.97301e-05
-1.21163e-06
1.70435e-06
1.6953e-06
3.97295e-05
3.67379e-05
-3.44851e-05
3.08375e-06
3.10545e-06
-6.41949e-06
-6.41476e-06
3.67357e-05
-3.44915e-05
2.62762e-06
-2.63227e-06
-4.65237e-06
4.66373e-06
-2.61958e-06
-4.63568e-06
4.66579e-06
-3.67619e-05
3.45193e-05