/*--------------------------------*- C++ -*----------------------------------*\
| =========                 |                                                 |
| \\      /  F ield         | OpenFOAM: The Open Source CFD Toolbox           |
|  \\    /   O peration     | Version:  2206                                  |
|   \\  /    A nd           | Website:  www.openfoam.com                      |
|    \\/     M anipulation  |                                                 |
\*---------------------------------------------------------------------------*/
FoamFile
{
    version     2.0;
    format      ascii;
    arch        "LSB;label=32;scalar=64";
    class       volScalarField;
    location    "7.5";
    object      epsilon;
}
// * * * * * * * * * * * * * * * * * * * * * * * * * * * * * * * * * * * * * //

dimensions      [0 2 -3 0 0 0 0];

internalField   nonuniform List<scalar> 
28673
(
4.46834e-07
4.52727e-07
4.43018e-07
4.46811e-07
4.46833e-07
4.52738e-07
4.42821e-07
4.46598e-07
4.46658e-07
4.52574e-07
4.42741e-07
4.46583e-07
4.46585e-07
4.52538e-07
4.42741e-07
4.46583e-07
4.46584e-07
4.52538e-07
4.42741e-07
4.46583e-07
4.46585e-07
4.52538e-07
4.42741e-07
4.46583e-07
4.46584e-07
4.52538e-07
4.42741e-07
4.46583e-07
4.46584e-07
4.52539e-07
4.42741e-07
4.46583e-07
4.46584e-07
4.52539e-07
4.42741e-07
4.46583e-07
4.46585e-07
4.52539e-07
4.42741e-07
4.46582e-07
4.46584e-07
4.52538e-07
4.4274e-07
4.46581e-07
4.46582e-07
4.52529e-07
4.42677e-07
4.45157e-07
4.45157e-07
4.51314e-07
4.46839e-07
4.5267e-07
4.46834e-07
4.52695e-07
4.46837e-07
4.46838e-07
4.46834e-07
4.46829e-07
4.52737e-07
4.52678e-07
4.46833e-07
4.46838e-07
4.46837e-07
4.46827e-07
4.46833e-07
4.52683e-07
4.46836e-07
4.46836e-07
4.46831e-07
4.52679e-07
4.52757e-07
4.52581e-07
4.46828e-07
4.46813e-07
4.4668e-07
4.46632e-07
4.52736e-07
4.52497e-07
4.46831e-07
4.46836e-07
4.46741e-07
4.46746e-07
4.46826e-07
4.4663e-07
4.46668e-07
4.52747e-07
4.52594e-07
4.46825e-07
4.46731e-07
4.46666e-07
4.52529e-07
4.52624e-07
4.52471e-07
4.46629e-07
4.46604e-07
4.46586e-07
4.46586e-07
4.52551e-07
4.52476e-07
4.46667e-07
4.46672e-07
4.46586e-07
4.4659e-07
4.46622e-07
4.46583e-07
4.46586e-07
4.52636e-07
4.52474e-07
4.4662e-07
4.46586e-07
4.46585e-07
4.52475e-07
4.52536e-07
4.52478e-07
4.46589e-07
4.46591e-07
4.46586e-07
4.46587e-07
4.52541e-07
4.52475e-07
4.46588e-07
4.46592e-07
4.46585e-07
4.46589e-07
4.4659e-07
4.46583e-07
4.46587e-07
4.52538e-07
4.5248e-07
4.46588e-07
4.46585e-07
4.46585e-07
4.52478e-07
4.52541e-07
4.52477e-07
4.46589e-07
4.4659e-07
4.46586e-07
4.46587e-07
4.52539e-07
4.52475e-07
4.46588e-07
4.46592e-07
4.46585e-07
4.46589e-07
4.4659e-07
4.46583e-07
4.46587e-07
4.52543e-07
4.52479e-07
4.46588e-07
4.46585e-07
4.46585e-07
4.52478e-07
4.52541e-07
4.52477e-07
4.46589e-07
4.4659e-07
4.46586e-07
4.46587e-07
4.52539e-07
4.52475e-07
4.46588e-07
4.46592e-07
4.46585e-07
4.46589e-07
4.4659e-07
4.46583e-07
4.46587e-07
4.52543e-07
4.52479e-07
4.46588e-07
4.46584e-07
4.46585e-07
4.52478e-07
4.52541e-07
4.52477e-07
4.46589e-07
4.4659e-07
4.46586e-07
4.46587e-07
4.52539e-07
4.52475e-07
4.46588e-07
4.46592e-07
4.46585e-07
4.46589e-07
4.4659e-07
4.46583e-07
4.46587e-07
4.52543e-07
4.52479e-07
4.46588e-07
4.46584e-07
4.46585e-07
4.52478e-07
4.52541e-07
4.52477e-07
4.46589e-07
4.4659e-07
4.46586e-07
4.46587e-07
4.52539e-07
4.52475e-07
4.46588e-07
4.46592e-07
4.46585e-07
4.46589e-07
4.4659e-07
4.46583e-07
4.46587e-07
4.52543e-07
4.52479e-07
4.46588e-07
4.46585e-07
4.46585e-07
4.52478e-07
4.52541e-07
4.52477e-07
4.46589e-07
4.4659e-07
4.46586e-07
4.46587e-07
4.52539e-07
4.52475e-07
4.46588e-07
4.46592e-07
4.46585e-07
4.46589e-07
4.4659e-07
4.46583e-07
4.46587e-07
4.52543e-07
4.52479e-07
4.46588e-07
4.46585e-07
4.46585e-07
4.52478e-07
4.52541e-07
4.52477e-07
4.46589e-07
4.4659e-07
4.46586e-07
4.46587e-07
4.52539e-07
4.52475e-07
4.46588e-07
4.46592e-07
4.46585e-07
4.46589e-07
4.4659e-07
4.46583e-07
4.46587e-07
4.52543e-07
4.52479e-07
4.46588e-07
4.46584e-07
4.46585e-07
4.52478e-07
4.52541e-07
4.5247e-07
4.46589e-07
4.46589e-07
4.46575e-07
4.46575e-07
4.52539e-07
4.52467e-07
4.46587e-07
4.46592e-07
4.46573e-07
4.46577e-07
4.46589e-07
4.46574e-07
4.46575e-07
4.52543e-07
4.52471e-07
4.46587e-07
4.46575e-07
4.46572e-07
4.52471e-07
4.52532e-07
4.51947e-07
4.46586e-07
4.46586e-07
4.45775e-07
4.45775e-07
4.5253e-07
4.51945e-07
4.46584e-07
4.46589e-07
4.45774e-07
4.45776e-07
4.46586e-07
4.45773e-07
4.45775e-07
4.52533e-07
4.51948e-07
4.46584e-07
4.45773e-07
4.45774e-07
4.51945e-07
4.51317e-07
4.45163e-07
4.45162e-07
4.51315e-07
4.45162e-07
4.45162e-07
4.42675e-07
4.42675e-07
4.42676e-07
4.45163e-07
4.51316e-07
4.45162e-07
1.20263e-06
6.11799e-06
1.20295e-06
6.11785e-06
2.15072e-05
2.1504e-05
1.20253e-06
6.11877e-06
4.43026e-07
4.43021e-07
4.43022e-07
4.43019e-07
4.43021e-07
4.43015e-07
5.52784e-07
1.01894e-06
4.43764e-07
4.46836e-07
5.52889e-07
1.01863e-06
4.43764e-07
2.15092e-05
5.5281e-07
4.43762e-07
4.46838e-07
5.52921e-07
4.43762e-07
1.01865e-06
1.94939e-06
1.94977e-06
4.52677e-07
1.94939e-06
1.94978e-06
1.20303e-06
6.1181e-06
1.20288e-06
6.11956e-06
2.15062e-05
2.15326e-05
1.20262e-06
6.11909e-06
1.20273e-06
6.1189e-06
4.43009e-07
4.43018e-07
4.43008e-07
4.42899e-07
4.42823e-07
4.42906e-07
4.42831e-07
5.52828e-07
1.01912e-06
4.43749e-07
4.46763e-07
5.52862e-07
1.01929e-06
4.43724e-07
2.15072e-05
2.15066e-05
5.52852e-07
4.43749e-07
1.0189e-06
4.46826e-07
5.52887e-07
4.4373e-07
1.01872e-06
1.94967e-06
1.95005e-06
4.5265e-07
1.95019e-06
1.95058e-06
1.20405e-06
6.12581e-06
1.20426e-06
6.12551e-06
2.15392e-05
2.15388e-05
1.20394e-06
6.12636e-06
1.20399e-06
6.12662e-06
4.42776e-07
4.42827e-07
4.42781e-07
4.42742e-07
4.42741e-07
4.42743e-07
4.42741e-07
5.52939e-07
1.01995e-06
4.43521e-07
4.46589e-07
5.52999e-07
1.01966e-06
4.43501e-07
2.15402e-05
2.15412e-05
5.52965e-07
4.43528e-07
1.01971e-06
4.46618e-07
5.53023e-07
4.43505e-07
1.0196e-06
1.95237e-06
1.95276e-06
4.52478e-07
1.9521e-06
1.9525e-06
1.20406e-06
6.12581e-06
1.20429e-06
6.12552e-06
2.15392e-05
2.15388e-05
1.20394e-06
6.1268e-06
1.20414e-06
6.12649e-06
4.42745e-07
4.42745e-07
4.42745e-07
4.42741e-07
4.42741e-07
4.42742e-07
4.42742e-07
5.52934e-07
1.01996e-06
4.43489e-07
4.46587e-07
5.52998e-07
1.01966e-06
4.43493e-07
2.15415e-05
2.15404e-05
5.5296e-07
4.43489e-07
1.0199e-06
4.46588e-07
5.53029e-07
4.43493e-07
1.01963e-06
1.95232e-06
1.95271e-06
4.52482e-07
1.95209e-06
1.95249e-06
1.20406e-06
6.12579e-06
1.20429e-06
6.12552e-06
2.15392e-05
2.15388e-05
1.20394e-06
6.12681e-06
1.20414e-06
6.12649e-06
4.42745e-07
4.42745e-07
4.42745e-07
4.42741e-07
4.42742e-07
4.42742e-07
4.42742e-07
5.52935e-07
1.01996e-06
4.43488e-07
4.46586e-07
5.53002e-07
1.01966e-06
4.43491e-07
2.15414e-05
2.15404e-05
5.52961e-07
4.43488e-07
1.0199e-06
4.46587e-07
5.53033e-07
4.43492e-07
1.01963e-06
1.95232e-06
1.95271e-06
4.52481e-07
1.95209e-06
1.95249e-06
1.20406e-06
6.12579e-06
1.20429e-06
6.12552e-06
2.15392e-05
2.15388e-05
1.20394e-06
6.12681e-06
1.20414e-06
6.12649e-06
4.42745e-07
4.42745e-07
4.42745e-07
4.42741e-07
4.42742e-07
4.42742e-07
4.42742e-07
5.52934e-07
1.01996e-06
4.43488e-07
4.46586e-07
5.53002e-07
1.01966e-06
4.43491e-07
2.15414e-05
2.15404e-05
5.52961e-07
4.43488e-07
1.0199e-06
4.46588e-07
5.53033e-07
4.43492e-07
1.01963e-06
1.95232e-06
1.95271e-06
4.52481e-07
1.95209e-06
1.95249e-06
1.20406e-06
6.12579e-06
1.20429e-06
6.12552e-06
2.15392e-05
2.15388e-05
1.20394e-06
6.12681e-06
1.20414e-06
6.12649e-06
4.42745e-07
4.42745e-07
4.42745e-07
4.42741e-07
4.42741e-07
4.42742e-07
4.42742e-07
5.52935e-07
1.01996e-06
4.43488e-07
4.46586e-07
5.53001e-07
1.01966e-06
4.43492e-07
2.15414e-05
2.15404e-05
5.5296e-07
4.43488e-07
1.0199e-06
4.46588e-07
5.53032e-07
4.43492e-07
1.01963e-06
1.95232e-06
1.95271e-06
4.52481e-07
1.95209e-06
1.95249e-06
1.20406e-06
6.1258e-06
1.20429e-06
6.12552e-06
2.15392e-05
2.15388e-05
1.20394e-06
6.12681e-06
1.20414e-06
6.12649e-06
4.42745e-07
4.42745e-07
4.42745e-07
4.42741e-07
4.42741e-07
4.42742e-07
4.42742e-07
5.52935e-07
1.01996e-06
4.43488e-07
4.46586e-07
5.53001e-07
1.01966e-06
4.43491e-07
2.15414e-05
2.15404e-05
5.52951e-07
4.43488e-07
1.0199e-06
4.46588e-07
5.53026e-07
4.43492e-07
1.01963e-06
1.95232e-06
1.95271e-06
4.52481e-07
1.95209e-06
1.95249e-06
1.20406e-06
6.12579e-06
1.20429e-06
6.12552e-06
2.15392e-05
2.15388e-05
1.20394e-06
6.12681e-06
1.20414e-06
6.12649e-06
4.42745e-07
4.42745e-07
4.42745e-07
4.42741e-07
4.42741e-07
4.42742e-07
4.42742e-07
5.52935e-07
1.01996e-06
4.43488e-07
4.46586e-07
5.53002e-07
1.01966e-06
4.43492e-07
2.15414e-05
2.15404e-05
5.52946e-07
4.43488e-07
1.0199e-06
4.46588e-07
5.53017e-07
4.43492e-07
1.01963e-06
1.95232e-06
1.95271e-06
4.52481e-07
1.95209e-06
1.95249e-06
1.20405e-06
6.12579e-06
1.20429e-06
6.12552e-06
2.15392e-05
2.15388e-05
1.20394e-06
6.12674e-06
1.20414e-06
6.1264e-06
4.42745e-07
4.42745e-07
4.42745e-07
4.42741e-07
4.42741e-07
4.42742e-07
4.42742e-07
5.52935e-07
1.01996e-06
4.43488e-07
4.46586e-07
5.53001e-07
1.01966e-06
4.43491e-07
2.15414e-05
2.15404e-05
5.52946e-07
4.43488e-07
1.0199e-06
4.46588e-07
5.53015e-07
4.43492e-07
1.01962e-06
1.95232e-06
1.95271e-06
4.52481e-07
1.95209e-06
1.95249e-06
1.20406e-06
6.12583e-06
1.20428e-06
6.12608e-06
2.15392e-05
2.154e-05
1.20394e-06
6.12669e-06
1.20412e-06
6.12698e-06
4.42745e-07
4.42745e-07
4.42745e-07
4.4274e-07
4.42741e-07
4.42741e-07
4.42741e-07
5.52926e-07
1.0198e-06
4.43488e-07
4.46585e-07
5.53e-07
1.01992e-06
4.43491e-07
2.15415e-05
2.15422e-05
5.5294e-07
4.43488e-07
1.01974e-06
4.46586e-07
5.53014e-07
4.43491e-07
1.01993e-06
1.95217e-06
1.95255e-06
4.52479e-07
1.95257e-06
1.95293e-06
1.20309e-06
6.12195e-06
1.20507e-06
6.12259e-06
2.15165e-05
2.15134e-05
1.20309e-06
6.12295e-06
1.20495e-06
6.12349e-06
4.42744e-07
4.42744e-07
4.42744e-07
4.42729e-07
4.42728e-07
4.42728e-07
4.42728e-07
5.52411e-07
1.02063e-06
4.43481e-07
4.4652e-07
5.52955e-07
1.02013e-06
4.43487e-07
2.15193e-05
2.15162e-05
5.52419e-07
4.43481e-07
1.02065e-06
4.46521e-07
5.52968e-07
4.43487e-07
1.02014e-06
1.95501e-06
1.95536e-06
4.52382e-07
1.96748e-06
1.96767e-06
9.06982e-07
5.47566e-06
1.19128e-06
2.39725e-06
1.69866e-05
5.91907e-06
9.06995e-07
5.47695e-06
1.19133e-06
2.39766e-06
4.42496e-07
4.42521e-07
4.42521e-07
4.42804e-07
4.42494e-07
4.42534e-07
4.42534e-07
5.35926e-07
9.82845e-07
4.43282e-07
4.44487e-07
5.47219e-07
9.96519e-07
4.42914e-07
1.69885e-05
5.9189e-06
5.35935e-07
4.43282e-07
9.82822e-07
4.44487e-07
5.47225e-07
4.42914e-07
9.96502e-07
1.92859e-06
1.92916e-06
4.49885e-07
1.64249e-06
1.64251e-06
6.11807e-06
1.01869e-06
2.15077e-05
1.94953e-06
1.94934e-06
2.1504e-05
1.01866e-06
6.11802e-06
2.15082e-05
2.15049e-05
2.15083e-05
1.94932e-06
4.5269e-07
1.94932e-06
1.9495e-06
2.15029e-05
2.15045e-05
2.15056e-05
2.1508e-05
4.52756e-07
1.94935e-06
1.94965e-06
1.94942e-06
1.9497e-06
1.20263e-06
6.11807e-06
1.20295e-06
6.11796e-06
5.52785e-07
1.01912e-06
4.43761e-07
4.46837e-07
5.52893e-07
1.01862e-06
4.4376e-07
5.52784e-07
1.01893e-06
4.43763e-07
4.46837e-07
5.52892e-07
1.01867e-06
4.43762e-07
1.20278e-06
6.11789e-06
6.11785e-06
1.20262e-06
1.20278e-06
6.11821e-06
6.11796e-06
1.20261e-06
5.5285e-07
4.46836e-07
1.01861e-06
4.43756e-07
1.01884e-06
4.43758e-07
5.52791e-07
5.52849e-07
4.46834e-07
1.01874e-06
4.43757e-07
1.0189e-06
4.4376e-07
5.52789e-07
1.94974e-06
1.94964e-06
4.52681e-07
1.94967e-06
1.9495e-06
2.15038e-05
2.15014e-05
2.15038e-05
2.15034e-05
4.52744e-07
1.94974e-06
1.94961e-06
1.94975e-06
1.94978e-06
2.15018e-05
2.15014e-05
5.52777e-07
4.46835e-07
1.01878e-06
4.4376e-07
1.20251e-06
6.11892e-06
5.52781e-07
4.46839e-07
4.4376e-07
1.01885e-06
1.20268e-06
6.11888e-06
6.1188e-06
1.20254e-06
5.52842e-07
4.46834e-07
1.01876e-06
4.43758e-07
1.01901e-06
4.43759e-07
5.52787e-07
1.20265e-06
6.1189e-06
6.11893e-06
1.20252e-06
5.52844e-07
4.46839e-07
4.43758e-07
1.01885e-06
4.43759e-07
1.01911e-06
5.52787e-07
1.20264e-06
6.11803e-06
1.20296e-06
6.11794e-06
5.52786e-07
4.43761e-07
1.01915e-06
4.46837e-07
5.52892e-07
4.4376e-07
1.01866e-06
1.20264e-06
6.11875e-06
1.20297e-06
6.11862e-06
5.52848e-07
4.46833e-07
1.01872e-06
4.43757e-07
1.01888e-06
4.43761e-07
5.5279e-07
1.2028e-06
6.11823e-06
6.11794e-06
1.20263e-06
5.52849e-07
4.46836e-07
4.43755e-07
1.01866e-06
4.43758e-07
1.01888e-06
5.52792e-07
1.2028e-06
6.11873e-06
6.11862e-06
1.20263e-06
4.52675e-07
1.94993e-06
1.94919e-06
2.15073e-05
2.1507e-05
2.15091e-05
4.52742e-07
1.95013e-06
1.94936e-06
1.95021e-06
1.94939e-06
2.15045e-05
2.1507e-05
5.52813e-07
4.43761e-07
1.01925e-06
4.46836e-07
5.52924e-07
4.43761e-07
1.01875e-06
1.20279e-06
1.20317e-06
6.1186e-06
1.20279e-06
6.11903e-06
1.20317e-06
6.11891e-06
5.52874e-07
4.46838e-07
4.43756e-07
1.01863e-06
4.43759e-07
1.01888e-06
5.52816e-07
5.52876e-07
4.46834e-07
4.43756e-07
1.01875e-06
4.43758e-07
1.01897e-06
5.52819e-07
1.20299e-06
6.11858e-06
6.1186e-06
1.20279e-06
1.20299e-06
6.11902e-06
6.11891e-06
1.2028e-06
2.151e-05
2.15067e-05
2.15113e-05
2.1508e-05
4.52742e-07
1.94942e-06
1.94982e-06
1.9495e-06
1.94989e-06
2.15047e-05
2.15063e-05
2.1506e-05
2.15076e-05
2.15029e-05
2.1512e-05
2.15051e-05
2.15053e-05
1.94944e-06
1.9497e-06
4.52685e-07
1.95008e-06
1.94987e-06
2.15374e-05
2.15234e-05
2.15339e-05
2.15072e-05
4.52738e-07
1.95207e-06
1.95207e-06
1.95112e-06
1.95042e-06
1.20301e-06
6.11866e-06
1.2028e-06
6.12404e-06
5.52834e-07
1.01887e-06
4.43749e-07
4.46811e-07
5.52858e-07
1.01894e-06
4.43726e-07
5.52831e-07
1.01907e-06
4.43749e-07
4.46762e-07
5.52856e-07
1.01933e-06
4.43723e-07
1.20359e-06
6.12552e-06
6.12228e-06
1.20398e-06
1.20359e-06
6.12597e-06
6.12558e-06
1.20398e-06
5.52931e-07
4.46756e-07
1.01949e-06
4.43577e-07
1.01935e-06
4.43659e-07
5.52921e-07
5.52929e-07
4.46687e-07
1.01965e-06
4.43572e-07
1.01972e-06
4.4365e-07
5.5292e-07
1.95011e-06
1.95021e-06
4.52597e-07
1.95179e-06
1.95151e-06
2.1504e-05
2.15299e-05
2.15388e-05
2.15375e-05
4.52638e-07
1.95248e-06
1.95238e-06
1.95257e-06
1.95243e-06
2.15365e-05
2.15353e-05
5.528e-07
1.01898e-06
4.43756e-07
4.46824e-07
5.52852e-07
1.01884e-06
4.43748e-07
1.2026e-06
6.1189e-06
1.20264e-06
6.11904e-06
5.528e-07
4.43756e-07
1.01909e-06
4.46829e-07
5.52852e-07
4.43748e-07
1.01892e-06
1.20287e-06
6.12473e-06
6.11929e-06
1.20352e-06
5.5288e-07
4.46804e-07
1.01943e-06
4.43658e-07
1.01917e-06
4.43726e-07
5.52881e-07
1.20286e-06
6.12486e-06
6.11934e-06
1.20354e-06
5.52882e-07
4.46808e-07
4.43659e-07
1.0195e-06
4.43726e-07
1.01928e-06
5.52883e-07
1.20302e-06
6.11871e-06
1.20281e-06
6.124e-06
5.52831e-07
4.43748e-07
1.01891e-06
4.46805e-07
5.52857e-07
4.43725e-07
1.01897e-06
1.20302e-06
6.11873e-06
1.20281e-06
6.12019e-06
5.52923e-07
4.46684e-07
1.01963e-06
4.43573e-07
1.01971e-06
4.4365e-07
5.52916e-07
1.2036e-06
6.12597e-06
6.12558e-06
1.20399e-06
5.52925e-07
4.46743e-07
4.43576e-07
1.01953e-06
4.43657e-07
1.01939e-06
5.52919e-07
1.2036e-06
6.12632e-06
6.12295e-06
1.20399e-06
1.95038e-06
1.94943e-06
4.52682e-07
1.95024e-06
1.94948e-06
2.15041e-05
2.15044e-05
2.15344e-05
2.1509e-05
4.52739e-07
1.95212e-06
1.95144e-06
1.95081e-06
1.9498e-06
2.15323e-05
2.1506e-05
5.52855e-07
4.43749e-07
1.019e-06
4.46804e-07
5.52884e-07
4.43726e-07
1.01906e-06
1.20318e-06
6.11858e-06
1.20301e-06
6.11867e-06
1.20318e-06
6.11901e-06
1.20302e-06
6.12049e-06
5.52946e-07
4.46799e-07
4.43584e-07
1.01929e-06
4.43664e-07
1.01905e-06
5.52938e-07
5.52949e-07
4.46741e-07
4.43577e-07
1.01962e-06
4.43658e-07
1.01948e-06
5.52942e-07
1.20379e-06
6.12463e-06
6.119e-06
1.20413e-06
1.2038e-06
6.12664e-06
6.12324e-06
1.20414e-06
2.15047e-05
2.15145e-05
2.1506e-05
2.15158e-05
4.52695e-07
1.95213e-06
1.95253e-06
1.95123e-06
1.95162e-06
2.15393e-05
2.15258e-05
2.15406e-05
2.15271e-05
2.15373e-05
2.15375e-05
2.15387e-05
2.15404e-05
1.95217e-06
1.95265e-06
4.52492e-07
1.95206e-06
1.95252e-06
2.15372e-05
2.15369e-05
2.15399e-05
2.15398e-05
4.52547e-07
1.95203e-06
1.95248e-06
1.95214e-06
1.9526e-06
1.20405e-06
6.12597e-06
1.20419e-06
6.12592e-06
5.52942e-07
1.01977e-06
4.43527e-07
4.46603e-07
5.52996e-07
1.01959e-06
4.43503e-07
5.52941e-07
1.0199e-06
4.43524e-07
4.46593e-07
5.52996e-07
1.01968e-06
4.43502e-07
1.20422e-06
6.1256e-06
6.12546e-06
1.20406e-06
1.20422e-06
6.1259e-06
6.12592e-06
1.20406e-06
5.53005e-07
4.46588e-07
1.0196e-06
4.43488e-07
1.01983e-06
4.43489e-07
5.52934e-07
5.53005e-07
4.46586e-07
1.01968e-06
4.43488e-07
1.01991e-06
4.43489e-07
5.52932e-07
1.95258e-06
1.95264e-06
4.5247e-07
1.95244e-06
1.95232e-06
2.15362e-05
2.15362e-05
2.15388e-05
2.15388e-05
4.52533e-07
1.95244e-06
1.95231e-06
1.95255e-06
1.95258e-06
2.15362e-05
2.15358e-05
5.52938e-07
1.0198e-06
4.43578e-07
4.46622e-07
5.52972e-07
1.01973e-06
4.43529e-07
1.20396e-06
6.12652e-06
1.20398e-06
6.12694e-06
5.5294e-07
4.43578e-07
1.01993e-06
4.46627e-07
5.52977e-07
4.43529e-07
1.01984e-06
1.20408e-06
6.1266e-06
6.12662e-06
1.20395e-06
5.53003e-07
4.46594e-07
1.01977e-06
4.4349e-07
1.01998e-06
4.43498e-07
5.52934e-07
1.20409e-06
6.12684e-06
6.12695e-06
1.20397e-06
5.53005e-07
4.46599e-07
4.4349e-07
1.01987e-06
4.43498e-07
1.02011e-06
5.52939e-07
1.20407e-06
6.12597e-06
1.2042e-06
6.12591e-06
5.52942e-07
4.43526e-07
1.01981e-06
4.466e-07
5.52995e-07
4.43502e-07
1.01963e-06
1.20407e-06
6.12658e-06
1.2042e-06
6.12643e-06
5.53001e-07
4.46585e-07
1.01966e-06
4.43489e-07
1.01992e-06
4.43491e-07
5.52933e-07
1.20423e-06
6.12588e-06
6.12591e-06
1.20407e-06
5.53004e-07
4.46587e-07
4.43488e-07
1.01963e-06
4.43489e-07
1.01987e-06
5.52935e-07
1.20423e-06
6.12637e-06
6.12643e-06
1.20407e-06
1.953e-06
1.95218e-06
4.52498e-07
1.95296e-06
1.95213e-06
2.15374e-05
2.15393e-05
2.15408e-05
2.15407e-05
4.52552e-07
1.9529e-06
1.9521e-06
1.95318e-06
1.95222e-06
2.15388e-05
2.15387e-05
5.5297e-07
4.43527e-07
1.0199e-06
4.46599e-07
5.5302e-07
4.43503e-07
1.01972e-06
1.20425e-06
6.12619e-06
1.20443e-06
6.12659e-06
1.20425e-06
6.12683e-06
1.20443e-06
6.12672e-06
5.53029e-07
4.46595e-07
4.43489e-07
1.01962e-06
4.43492e-07
1.01984e-06
5.52964e-07
5.53033e-07
4.46586e-07
4.43489e-07
1.01972e-06
4.4349e-07
1.01996e-06
5.52968e-07
1.20444e-06
6.12649e-06
6.12659e-06
1.20424e-06
1.20445e-06
6.12665e-06
6.12672e-06
1.20425e-06
2.15392e-05
2.15393e-05
2.15405e-05
2.15406e-05
4.52538e-07
1.95209e-06
1.95249e-06
1.9522e-06
1.95259e-06
2.1539e-05
2.15387e-05
2.15403e-05
2.154e-05
2.15367e-05
2.15375e-05
2.15394e-05
2.15401e-05
1.95212e-06
1.95257e-06
4.5248e-07
1.95204e-06
1.95248e-06
2.15372e-05
2.15369e-05
2.15398e-05
2.15395e-05
4.52544e-07
1.95203e-06
1.95248e-06
1.95213e-06
1.95258e-06
1.20405e-06
6.1259e-06
1.20422e-06
6.1259e-06
5.52937e-07
1.01983e-06
4.43492e-07
4.4659e-07
5.52995e-07
1.0196e-06
4.43492e-07
5.52936e-07
1.01991e-06
4.43492e-07
4.46591e-07
5.52995e-07
1.01968e-06
4.43492e-07
1.20422e-06
6.12558e-06
6.12551e-06
1.20406e-06
1.20421e-06
6.12591e-06
6.1259e-06
1.20406e-06
5.53003e-07
4.46588e-07
1.0196e-06
4.43489e-07
1.01983e-06
4.4349e-07
5.52937e-07
5.53002e-07
4.46588e-07
1.01968e-06
4.43488e-07
1.01991e-06
4.4349e-07
5.52936e-07
1.95255e-06
1.95257e-06
4.52478e-07
1.95244e-06
1.95231e-06
2.15359e-05
2.15362e-05
2.15388e-05
2.15388e-05
4.5254e-07
1.95244e-06
1.95231e-06
1.95255e-06
1.95259e-06
2.15362e-05
2.15358e-05
5.52927e-07
1.01999e-06
4.43492e-07
4.46587e-07
5.52994e-07
1.01976e-06
4.43492e-07
1.20396e-06
6.12685e-06
1.2041e-06
6.12679e-06
5.52933e-07
4.43492e-07
1.02012e-06
4.46592e-07
5.52998e-07
4.43492e-07
1.01987e-06
1.20408e-06
6.12659e-06
6.12644e-06
1.20395e-06
5.52994e-07
4.46586e-07
1.01977e-06
4.43489e-07
1.01999e-06
4.43489e-07
5.52935e-07
1.20409e-06
6.12682e-06
6.12679e-06
1.20397e-06
5.52999e-07
4.4659e-07
4.43489e-07
1.01987e-06
4.4349e-07
1.02012e-06
5.5294e-07
1.20406e-06
6.12587e-06
1.20423e-06
6.12587e-06
5.52936e-07
4.43492e-07
1.01986e-06
4.4659e-07
5.52996e-07
4.43492e-07
1.01963e-06
1.20406e-06
6.12637e-06
1.20423e-06
6.12636e-06
5.52998e-07
4.46586e-07
1.01966e-06
4.43488e-07
1.01991e-06
4.43492e-07
5.52936e-07
1.20423e-06
6.12588e-06
6.12588e-06
1.20407e-06
5.53e-07
4.46588e-07
4.43488e-07
1.01963e-06
4.4349e-07
1.01987e-06
5.52938e-07
1.20423e-06
6.12636e-06
6.12636e-06
1.20407e-06
1.95313e-06
1.95219e-06
4.52481e-07
1.95288e-06
1.9521e-06
2.15384e-05
2.15391e-05
2.15408e-05
2.154e-05
4.52545e-07
1.9529e-06
1.95209e-06
1.95311e-06
1.9522e-06
2.15388e-05
2.15384e-05
5.52962e-07
4.43493e-07
1.01996e-06
4.46588e-07
5.53028e-07
4.43493e-07
1.01972e-06
1.20424e-06
6.12649e-06
1.20444e-06
6.12647e-06
1.20424e-06
6.12666e-06
1.20445e-06
6.12664e-06
5.53023e-07
4.46587e-07
4.43488e-07
1.01963e-06
4.43492e-07
1.01986e-06
5.52966e-07
5.53025e-07
4.46586e-07
4.43489e-07
1.01972e-06
4.43491e-07
1.01996e-06
5.52969e-07
1.20444e-06
6.12647e-06
6.12648e-06
1.20424e-06
1.20444e-06
6.12665e-06
6.12665e-06
1.20425e-06
2.15386e-05
2.15393e-05
2.154e-05
2.15406e-05
4.52545e-07
1.95209e-06
1.95249e-06
1.95219e-06
1.95259e-06
2.1539e-05
2.15387e-05
2.15403e-05
2.154e-05
2.15368e-05
2.15375e-05
2.15394e-05
2.15401e-05
1.95212e-06
1.95257e-06
4.52479e-07
1.95204e-06
1.95248e-06
2.15372e-05
2.15368e-05
2.15398e-05
2.15394e-05
4.52542e-07
1.95203e-06
1.95247e-06
1.95213e-06
1.95258e-06
1.20405e-06
6.12592e-06
1.20422e-06
6.1259e-06
5.52935e-07
1.01983e-06
4.43492e-07
4.46589e-07
5.52998e-07
1.0196e-06
4.43492e-07
5.52934e-07
1.01991e-06
4.43491e-07
4.4659e-07
5.52999e-07
1.01968e-06
4.43491e-07
1.20422e-06
6.12558e-06
6.12549e-06
1.20406e-06
1.20421e-06
6.12591e-06
6.12591e-06
1.20406e-06
5.53001e-07
4.46587e-07
1.0196e-06
4.43489e-07
1.01983e-06
4.4349e-07
5.52938e-07
5.52999e-07
4.46588e-07
1.01968e-06
4.43488e-07
1.01991e-06
4.43489e-07
5.52936e-07
1.95255e-06
1.95258e-06
4.52478e-07
1.95244e-06
1.9523e-06
2.15359e-05
2.15362e-05
2.15388e-05
2.15388e-05
4.52541e-07
1.95244e-06
1.95232e-06
1.95255e-06
1.95257e-06
2.15362e-05
2.15358e-05
5.52929e-07
1.01999e-06
4.43492e-07
4.46588e-07
5.52996e-07
1.01976e-06
4.43491e-07
1.20396e-06
6.12683e-06
1.2041e-06
6.1268e-06
5.52934e-07
4.43492e-07
1.02012e-06
4.46592e-07
5.53001e-07
4.43492e-07
1.01987e-06
1.20408e-06
6.12659e-06
6.12645e-06
1.20395e-06
5.52994e-07
4.46585e-07
1.01977e-06
4.43489e-07
1.01999e-06
4.43489e-07
5.52934e-07
1.20409e-06
6.12682e-06
6.1268e-06
1.20397e-06
5.52999e-07
4.4659e-07
4.43489e-07
1.01987e-06
4.43489e-07
1.02012e-06
5.52938e-07
1.20407e-06
6.12589e-06
1.20423e-06
6.12588e-06
5.52937e-07
4.43491e-07
1.01986e-06
4.4659e-07
5.53e-07
4.43491e-07
1.01963e-06
1.20406e-06
6.12636e-06
1.20423e-06
6.12637e-06
5.52998e-07
4.46585e-07
1.01966e-06
4.43488e-07
1.01991e-06
4.43491e-07
5.52936e-07
1.20423e-06
6.12588e-06
6.12588e-06
1.20407e-06
5.52999e-07
4.46588e-07
4.43489e-07
1.01963e-06
4.43489e-07
1.01987e-06
5.52937e-07
1.20423e-06
6.12637e-06
6.12637e-06
1.20407e-06
1.95315e-06
1.95219e-06
4.52481e-07
1.95288e-06
1.9521e-06
2.15384e-05
2.15391e-05
2.15407e-05
2.154e-05
4.52544e-07
1.9529e-06
1.95209e-06
1.9531e-06
1.9522e-06
2.15388e-05
2.15384e-05
5.52963e-07
4.43492e-07
1.01996e-06
4.46588e-07
5.53032e-07
4.43492e-07
1.01972e-06
1.20424e-06
6.12648e-06
1.20444e-06
6.12647e-06
1.20424e-06
6.12664e-06
1.20445e-06
6.12665e-06
5.53023e-07
4.46587e-07
4.43488e-07
1.01963e-06
4.43491e-07
1.01986e-06
5.52965e-07
5.53024e-07
4.46586e-07
4.43489e-07
1.01972e-06
4.4349e-07
1.01996e-06
5.52969e-07
1.20444e-06
6.12647e-06
6.12647e-06
1.20424e-06
1.20444e-06
6.12665e-06
6.12665e-06
1.20425e-06
2.15387e-05
2.15393e-05
2.154e-05
2.15406e-05
4.52545e-07
1.95209e-06
1.95249e-06
1.95219e-06
1.95258e-06
2.1539e-05
2.15387e-05
2.15403e-05
2.154e-05
2.15368e-05
2.15375e-05
2.15394e-05
2.15401e-05
1.95212e-06
1.95257e-06
4.5248e-07
1.95204e-06
1.95248e-06
2.15372e-05
2.15369e-05
2.15398e-05
2.15394e-05
4.52542e-07
1.95203e-06
1.95247e-06
1.95213e-06
1.95258e-06
1.20405e-06
6.1259e-06
1.20422e-06
6.1259e-06
5.52934e-07
1.01983e-06
4.43492e-07
4.46589e-07
5.52999e-07
1.0196e-06
4.43492e-07
5.52934e-07
1.01991e-06
4.43491e-07
4.4659e-07
5.53e-07
1.01968e-06
4.43491e-07
1.20422e-06
6.12558e-06
6.12549e-06
1.20406e-06
1.20421e-06
6.12591e-06
6.12591e-06
1.20406e-06
5.53001e-07
4.46587e-07
1.0196e-06
4.43489e-07
1.01983e-06
4.4349e-07
5.52938e-07
5.52999e-07
4.46588e-07
1.01968e-06
4.43488e-07
1.01991e-06
4.43489e-07
5.52936e-07
1.95255e-06
1.95258e-06
4.52477e-07
1.95244e-06
1.9523e-06
2.1536e-05
2.15363e-05
2.15388e-05
2.15388e-05
4.5254e-07
1.95244e-06
1.95232e-06
1.95255e-06
1.95257e-06
2.15363e-05
2.15358e-05
5.52929e-07
1.01999e-06
4.43492e-07
4.46588e-07
5.52996e-07
1.01976e-06
4.43492e-07
1.20396e-06
6.12682e-06
1.2041e-06
6.1268e-06
5.52935e-07
4.43492e-07
1.02012e-06
4.46592e-07
5.53001e-07
4.43492e-07
1.01987e-06
1.20408e-06
6.12659e-06
6.12645e-06
1.20395e-06
5.52994e-07
4.46586e-07
1.01977e-06
4.43489e-07
1.01999e-06
4.43489e-07
5.52934e-07
1.20409e-06
6.12682e-06
6.1268e-06
1.20397e-06
5.52999e-07
4.4659e-07
4.43489e-07
1.01987e-06
4.43489e-07
1.02012e-06
5.52938e-07
1.20407e-06
6.12589e-06
1.20423e-06
6.12588e-06
5.52937e-07
4.43492e-07
1.01986e-06
4.4659e-07
5.53e-07
4.43492e-07
1.01963e-06
1.20406e-06
6.12637e-06
1.20423e-06
6.12637e-06
5.52997e-07
4.46585e-07
1.01966e-06
4.43488e-07
1.01991e-06
4.43491e-07
5.52934e-07
1.20423e-06
6.12588e-06
6.12588e-06
1.20407e-06
5.52998e-07
4.46588e-07
4.43489e-07
1.01963e-06
4.43489e-07
1.01987e-06
5.52936e-07
1.20423e-06
6.12637e-06
6.12638e-06
1.20407e-06
1.95315e-06
1.95219e-06
4.52482e-07
1.95288e-06
1.9521e-06
2.15384e-05
2.15391e-05
2.15407e-05
2.154e-05
4.52544e-07
1.9529e-06
1.95209e-06
1.9531e-06
1.9522e-06
2.15388e-05
2.15384e-05
5.52963e-07
4.43492e-07
1.01996e-06
4.46588e-07
5.53033e-07
4.43492e-07
1.01972e-06
1.20424e-06
6.12646e-06
1.20444e-06
6.12648e-06
1.20424e-06
6.12666e-06
1.20445e-06
6.12665e-06
5.53023e-07
4.46587e-07
4.43488e-07
1.01963e-06
4.43491e-07
1.01986e-06
5.52965e-07
5.53024e-07
4.46586e-07
4.43489e-07
1.01972e-06
4.4349e-07
1.01996e-06
5.52969e-07
1.20444e-06
6.12647e-06
6.12648e-06
1.20425e-06
1.20444e-06
6.12665e-06
6.12665e-06
1.20425e-06
2.15387e-05
2.15393e-05
2.154e-05
2.15406e-05
4.52545e-07
1.95209e-06
1.95249e-06
1.95219e-06
1.95258e-06
2.1539e-05
2.15387e-05
2.15403e-05
2.154e-05
2.15368e-05
2.15375e-05
2.15394e-05
2.15401e-05
1.95213e-06
1.95257e-06
4.5248e-07
1.95204e-06
1.95248e-06
2.15372e-05
2.15369e-05
2.15398e-05
2.15395e-05
4.52543e-07
1.95203e-06
1.95247e-06
1.95214e-06
1.95258e-06
1.20405e-06
6.1259e-06
1.20422e-06
6.1259e-06
5.52934e-07
1.01983e-06
4.43492e-07
4.46589e-07
5.52999e-07
1.0196e-06
4.43492e-07
5.52934e-07
1.01991e-06
4.43491e-07
4.4659e-07
5.53e-07
1.01968e-06
4.43491e-07
1.20422e-06
6.12558e-06
6.12549e-06
1.20406e-06
1.20421e-06
6.12591e-06
6.1259e-06
1.20406e-06
5.53001e-07
4.46587e-07
1.0196e-06
4.43489e-07
1.01983e-06
4.4349e-07
5.52938e-07
5.52999e-07
4.46588e-07
1.01968e-06
4.43488e-07
1.01991e-06
4.43489e-07
5.52936e-07
1.95255e-06
1.95258e-06
4.52478e-07
1.95243e-06
1.9523e-06
2.1536e-05
2.15362e-05
2.15388e-05
2.15388e-05
4.5254e-07
1.95244e-06
1.95232e-06
1.95255e-06
1.95257e-06
2.15363e-05
2.15358e-05
5.52929e-07
1.01999e-06
4.43492e-07
4.46588e-07
5.52997e-07
1.01977e-06
4.43492e-07
1.20396e-06
6.12683e-06
1.2041e-06
6.1268e-06
5.52935e-07
4.43492e-07
1.02012e-06
4.46592e-07
5.53001e-07
4.43492e-07
1.01987e-06
1.20408e-06
6.12659e-06
6.12645e-06
1.20395e-06
5.52994e-07
4.46585e-07
1.01977e-06
4.43488e-07
1.01999e-06
4.43489e-07
5.52934e-07
1.20409e-06
6.12682e-06
6.1268e-06
1.20397e-06
5.52999e-07
4.4659e-07
4.43489e-07
1.01987e-06
4.4349e-07
1.02012e-06
5.52938e-07
1.20406e-06
6.12589e-06
1.20423e-06
6.12588e-06
5.52938e-07
4.43492e-07
1.01986e-06
4.4659e-07
5.53e-07
4.43492e-07
1.01963e-06
1.20406e-06
6.12637e-06
1.20423e-06
6.12637e-06
5.52997e-07
4.46585e-07
1.01966e-06
4.43488e-07
1.01991e-06
4.43491e-07
5.52934e-07
1.20423e-06
6.12588e-06
6.12588e-06
1.20407e-06
5.52999e-07
4.46588e-07
4.43489e-07
1.01963e-06
4.43489e-07
1.01987e-06
5.52936e-07
1.20423e-06
6.12637e-06
6.12637e-06
1.20407e-06
1.95315e-06
1.95219e-06
4.52482e-07
1.95288e-06
1.9521e-06
2.15384e-05
2.15391e-05
2.15407e-05
2.15401e-05
4.52544e-07
1.9529e-06
1.95209e-06
1.9531e-06
1.9522e-06
2.15388e-05
2.15384e-05
5.52963e-07
4.43492e-07
1.01996e-06
4.46588e-07
5.53033e-07
4.43492e-07
1.01972e-06
1.20422e-06
6.12646e-06
1.20439e-06
6.12648e-06
1.20424e-06
6.12664e-06
1.20445e-06
6.12665e-06
5.53021e-07
4.46587e-07
4.43488e-07
1.01963e-06
4.43491e-07
1.01986e-06
5.52959e-07
5.53024e-07
4.46586e-07
4.43489e-07
1.01972e-06
4.4349e-07
1.01996e-06
5.52968e-07
1.20436e-06
6.12647e-06
6.12648e-06
1.20416e-06
1.20444e-06
6.12665e-06
6.12665e-06
1.20424e-06
2.15387e-05
2.15393e-05
2.154e-05
2.15406e-05
4.52545e-07
1.95209e-06
1.95249e-06
1.95219e-06
1.95258e-06
2.1539e-05
2.15387e-05
2.15403e-05
2.154e-05
2.15368e-05
2.15375e-05
2.15394e-05
2.15401e-05
1.95212e-06
1.95257e-06
4.5248e-07
1.95204e-06
1.95248e-06
2.15372e-05
2.15369e-05
2.15398e-05
2.15395e-05
4.52542e-07
1.95203e-06
1.95247e-06
1.95213e-06
1.95258e-06
1.20405e-06
6.1259e-06
1.20422e-06
6.1259e-06
5.52934e-07
1.01983e-06
4.43492e-07
4.46589e-07
5.52999e-07
1.0196e-06
4.43492e-07
5.52934e-07
1.01991e-06
4.43492e-07
4.4659e-07
5.53e-07
1.01968e-06
4.43491e-07
1.20422e-06
6.12558e-06
6.12549e-06
1.20406e-06
1.20421e-06
6.12591e-06
6.1259e-06
1.20406e-06
5.53001e-07
4.46587e-07
1.0196e-06
4.43488e-07
1.01983e-06
4.43489e-07
5.52938e-07
5.52999e-07
4.46588e-07
1.01968e-06
4.43489e-07
1.01991e-06
4.43489e-07
5.52937e-07
1.95255e-06
1.95258e-06
4.52478e-07
1.95244e-06
1.9523e-06
2.15359e-05
2.15363e-05
2.15388e-05
2.15388e-05
4.5254e-07
1.95244e-06
1.95232e-06
1.95255e-06
1.95257e-06
2.15363e-05
2.15358e-05
5.52929e-07
1.01999e-06
4.43492e-07
4.46588e-07
5.52996e-07
1.01976e-06
4.43492e-07
1.20396e-06
6.12683e-06
1.2041e-06
6.1268e-06
5.52935e-07
4.43492e-07
1.02012e-06
4.46592e-07
5.53001e-07
4.43492e-07
1.01987e-06
1.20408e-06
6.12659e-06
6.12645e-06
1.20395e-06
5.52994e-07
4.46585e-07
1.01977e-06
4.43489e-07
1.01999e-06
4.43489e-07
5.52934e-07
1.20409e-06
6.12682e-06
6.1268e-06
1.20397e-06
5.52999e-07
4.4659e-07
4.43489e-07
1.01987e-06
4.4349e-07
1.02012e-06
5.52938e-07
1.20407e-06
6.12589e-06
1.20423e-06
6.12588e-06
5.52938e-07
4.43492e-07
1.01986e-06
4.4659e-07
5.53e-07
4.43491e-07
1.01963e-06
1.20406e-06
6.12636e-06
1.20423e-06
6.12637e-06
5.52997e-07
4.46585e-07
1.01966e-06