/*--------------------------------*- C++ -*----------------------------------*\
| =========                 |                                                 |
| \\      /  F ield         | OpenFOAM: The Open Source CFD Toolbox           |
|  \\    /   O peration     | Version:  2206                                  |
|   \\  /    A nd           | Website:  www.openfoam.com                      |
|    \\/     M anipulation  |                                                 |
\*---------------------------------------------------------------------------*/
FoamFile
{
    version     2.0;
    format      ascii;
    arch        "LSB;label=32;scalar=64";
    class       volScalarField;
    location    "7.5";
    object      k;
}
// * * * * * * * * * * * * * * * * * * * * * * * * * * * * * * * * * * * * * //

dimensions      [0 2 -2 0 0 0 0];

internalField   nonuniform List<scalar> 
28673
(
3.38316e-05
3.38022e-05
3.3849e-05
3.383e-05
3.38314e-05
3.3801e-05
3.38399e-05
3.38204e-05
3.3822e-05
3.37901e-05
3.3838e-05
3.38201e-05
3.38201e-05
3.379e-05
3.38379e-05
3.38201e-05
3.38201e-05
3.379e-05
3.3838e-05
3.38201e-05
3.38201e-05
3.379e-05
3.3838e-05
3.38201e-05
3.38201e-05
3.379e-05
3.3838e-05
3.38201e-05
3.38201e-05
3.379e-05
3.3838e-05
3.38201e-05
3.38201e-05
3.379e-05
3.3838e-05
3.38201e-05
3.38201e-05
3.379e-05
3.3838e-05
3.38201e-05
3.38201e-05
3.379e-05
3.3838e-05
3.38202e-05
3.38202e-05
3.379e-05
3.38386e-05
3.38254e-05
3.38254e-05
3.37958e-05
3.38317e-05
3.38023e-05
3.38316e-05
3.38031e-05
3.38316e-05
3.38317e-05
3.38314e-05
3.38311e-05
3.38023e-05
3.38013e-05
3.38316e-05
3.38315e-05
3.38316e-05
3.38312e-05
3.38313e-05
3.3802e-05
3.38316e-05
3.38317e-05
3.38313e-05
3.38016e-05
3.38027e-05
3.37926e-05
3.3831e-05
3.38298e-05
3.38228e-05
3.38212e-05
3.38005e-05
3.37904e-05
3.38315e-05
3.38313e-05
3.38252e-05
3.38253e-05
3.38308e-05
3.38212e-05
3.38223e-05
3.38019e-05
3.3794e-05
3.38308e-05
3.38248e-05
3.38223e-05
3.37909e-05
3.37909e-05
3.37904e-05
3.38211e-05
3.38205e-05
3.38201e-05
3.38201e-05
3.37907e-05
3.37903e-05
3.38223e-05
3.38224e-05
3.38201e-05
3.38201e-05
3.38209e-05
3.38202e-05
3.38201e-05
3.37916e-05
3.37903e-05
3.38209e-05
3.38201e-05
3.38201e-05
3.37904e-05
3.37907e-05
3.37903e-05
3.38203e-05
3.38203e-05
3.38201e-05
3.38201e-05
3.37906e-05
3.37903e-05
3.38202e-05
3.38202e-05
3.38201e-05
3.38201e-05
3.38203e-05
3.38202e-05
3.38201e-05
3.37906e-05
3.37903e-05
3.38203e-05
3.38202e-05
3.38201e-05
3.37904e-05
3.37906e-05
3.37903e-05
3.38203e-05
3.38203e-05
3.38201e-05
3.38201e-05
3.37906e-05
3.37903e-05
3.38203e-05
3.38203e-05
3.38201e-05
3.38201e-05
3.38203e-05
3.38202e-05
3.38201e-05
3.37906e-05
3.37903e-05
3.38203e-05
3.38202e-05
3.38201e-05
3.37904e-05
3.37906e-05
3.37903e-05
3.38203e-05
3.38203e-05
3.38201e-05
3.38201e-05
3.37906e-05
3.37903e-05
3.38203e-05
3.38202e-05
3.38201e-05
3.38201e-05
3.38203e-05
3.38202e-05
3.38201e-05
3.37906e-05
3.37903e-05
3.38203e-05
3.38202e-05
3.38201e-05
3.37904e-05
3.37906e-05
3.37903e-05
3.38203e-05
3.38203e-05
3.38201e-05
3.38201e-05
3.37906e-05
3.37903e-05
3.38203e-05
3.38202e-05
3.38201e-05
3.38201e-05
3.38203e-05
3.38202e-05
3.38201e-05
3.37906e-05
3.37903e-05
3.38203e-05
3.38202e-05
3.38201e-05
3.37904e-05
3.37906e-05
3.37903e-05
3.38203e-05
3.38203e-05
3.38201e-05
3.38201e-05
3.37906e-05
3.37903e-05
3.38203e-05
3.38203e-05
3.38201e-05
3.38201e-05
3.38203e-05
3.38202e-05
3.38201e-05
3.37906e-05
3.37903e-05
3.38203e-05
3.38202e-05
3.38201e-05
3.37904e-05
3.37906e-05
3.37903e-05
3.38203e-05
3.38203e-05
3.38201e-05
3.38201e-05
3.37906e-05
3.37903e-05
3.38203e-05
3.38203e-05
3.38201e-05
3.38201e-05
3.38203e-05
3.38202e-05
3.38201e-05
3.37906e-05
3.37903e-05
3.38203e-05
3.38202e-05
3.38201e-05
3.37904e-05
3.37906e-05
3.37903e-05
3.38203e-05
3.38203e-05
3.38201e-05
3.38201e-05
3.37906e-05
3.37903e-05
3.38203e-05
3.38202e-05
3.38201e-05
3.38201e-05
3.38203e-05
3.38202e-05
3.38201e-05
3.37906e-05
3.37903e-05
3.38203e-05
3.38202e-05
3.38201e-05
3.37904e-05
3.37906e-05
3.37904e-05
3.38203e-05
3.38203e-05
3.38202e-05
3.38202e-05
3.37906e-05
3.37904e-05
3.38203e-05
3.38203e-05
3.38202e-05
3.38202e-05
3.38203e-05
3.38202e-05
3.38202e-05
3.37906e-05
3.37903e-05
3.38203e-05
3.38202e-05
3.38202e-05
3.37904e-05
3.37907e-05
3.37926e-05
3.38203e-05
3.38203e-05
3.38226e-05
3.38227e-05
3.37907e-05
3.37926e-05
3.38203e-05
3.38203e-05
3.38227e-05
3.38226e-05
3.38203e-05
3.38226e-05
3.38226e-05
3.37907e-05
3.37926e-05
3.38204e-05
3.38226e-05
3.38227e-05
3.37924e-05
3.37962e-05
3.38255e-05
3.38255e-05
3.37961e-05
3.38255e-05
3.38255e-05
3.38386e-05
3.38386e-05
3.38386e-05
3.38255e-05
3.37961e-05
3.38255e-05
3.4271e-05
5.45621e-05
3.4271e-05
5.45612e-05
7.7145e-05
7.71373e-05
3.42711e-05
5.45629e-05
3.38496e-05
3.38492e-05
3.38493e-05
3.38491e-05
3.38492e-05
3.38489e-05
3.36428e-05
3.41274e-05
3.38454e-05
3.38318e-05
3.36429e-05
3.41274e-05
3.38453e-05
7.71456e-05
3.36426e-05
3.38452e-05
3.38318e-05
3.36428e-05
3.38452e-05
3.41272e-05
3.48417e-05
3.48418e-05
3.38021e-05
3.48442e-05
3.48443e-05
3.42702e-05
5.45627e-05
3.4272e-05
5.45709e-05
7.71422e-05
7.72048e-05
3.4272e-05
5.45648e-05
3.42725e-05
5.45637e-05
3.38484e-05
3.3849e-05
3.38484e-05
3.38425e-05
3.384e-05
3.38428e-05
3.38403e-05
3.36401e-05
3.41279e-05
3.38443e-05
3.38266e-05
3.36425e-05
3.41232e-05
3.38425e-05
7.71409e-05
7.71392e-05
3.36401e-05
3.38444e-05
3.41283e-05
3.38308e-05
3.36424e-05
3.3843e-05
3.41269e-05
3.48476e-05
3.48476e-05
3.3799e-05
3.48468e-05
3.48469e-05
3.42602e-05
5.46084e-05
3.42612e-05
5.46066e-05
7.7221e-05
7.722e-05
3.42606e-05
5.46078e-05
3.42647e-05
5.46095e-05
3.38387e-05
3.38402e-05
3.38389e-05
3.3838e-05
3.3838e-05
3.3838e-05
3.38379e-05
3.36298e-05
3.41163e-05
3.38345e-05
3.38203e-05
3.36297e-05
3.41155e-05
3.38341e-05
7.72192e-05
7.72217e-05
3.36296e-05
3.38347e-05
3.41193e-05
3.38209e-05
3.36296e-05
3.38342e-05
3.4116e-05
3.48342e-05
3.48343e-05
3.37903e-05
3.48329e-05
3.4833e-05
3.42604e-05
5.46084e-05
3.42608e-05
5.46067e-05
7.7221e-05
7.72201e-05
3.42608e-05
5.46106e-05
3.42611e-05
5.46087e-05
3.38382e-05
3.38381e-05
3.38381e-05
3.3838e-05
3.3838e-05
3.3838e-05
3.3838e-05
3.36298e-05
3.41163e-05
3.38338e-05
3.38203e-05
3.36296e-05
3.41156e-05
3.3834e-05
7.72223e-05
7.72197e-05
3.36296e-05
3.38338e-05
3.41164e-05
3.38203e-05
3.36295e-05
3.3834e-05
3.41158e-05
3.48335e-05
3.48335e-05
3.37903e-05
3.48332e-05
3.48332e-05
3.42603e-05
5.46083e-05
3.42608e-05
5.46067e-05
7.72211e-05
7.722e-05
3.42608e-05
5.46106e-05
3.42611e-05
5.46087e-05
3.38381e-05
3.38381e-05
3.38381e-05
3.3838e-05
3.3838e-05
3.3838e-05
3.3838e-05
3.36298e-05
3.41163e-05
3.38338e-05
3.38203e-05
3.36296e-05
3.41156e-05
3.3834e-05
7.72222e-05
7.72197e-05
3.36296e-05
3.38338e-05
3.41164e-05
3.38203e-05
3.36295e-05
3.3834e-05
3.41158e-05
3.48335e-05
3.48336e-05
3.37903e-05
3.48332e-05
3.48333e-05
3.42603e-05
5.46083e-05
3.42608e-05
5.46067e-05
7.72211e-05
7.722e-05
3.42608e-05
5.46106e-05
3.42611e-05
5.46087e-05
3.38381e-05
3.38381e-05
3.38381e-05
3.3838e-05
3.3838e-05
3.3838e-05
3.3838e-05
3.36298e-05
3.41163e-05
3.38338e-05
3.38203e-05
3.36296e-05
3.41156e-05
3.3834e-05
7.72222e-05
7.72197e-05
3.36296e-05
3.38338e-05
3.41164e-05
3.38203e-05
3.36295e-05
3.3834e-05
3.41158e-05
3.48335e-05
3.48336e-05
3.37903e-05
3.48332e-05
3.48333e-05
3.42603e-05
5.46083e-05
3.42608e-05
5.46067e-05
7.72211e-05
7.722e-05
3.42608e-05
5.46106e-05
3.42611e-05
5.46087e-05
3.38381e-05
3.38381e-05
3.38381e-05
3.3838e-05
3.3838e-05
3.3838e-05
3.3838e-05
3.36298e-05
3.41163e-05
3.38338e-05
3.38203e-05
3.36296e-05
3.41156e-05
3.3834e-05
7.72222e-05
7.72197e-05
3.36296e-05
3.38338e-05
3.41164e-05
3.38203e-05
3.36295e-05
3.3834e-05
3.41158e-05
3.48335e-05
3.48336e-05
3.37903e-05
3.48332e-05
3.48333e-05
3.42603e-05
5.46083e-05
3.42608e-05
5.46067e-05
7.72211e-05
7.72201e-05
3.42608e-05
5.46106e-05
3.42611e-05
5.46087e-05
3.38381e-05
3.38381e-05
3.38381e-05
3.3838e-05
3.3838e-05
3.3838e-05
3.3838e-05
3.36298e-05
3.41163e-05
3.38338e-05
3.38203e-05
3.36296e-05
3.41156e-05
3.3834e-05
7.72222e-05
7.72197e-05
3.36297e-05
3.38338e-05
3.41164e-05
3.38203e-05
3.36295e-05
3.3834e-05
3.41158e-05
3.48335e-05
3.48336e-05
3.37903e-05
3.48332e-05
3.48333e-05
3.42603e-05
5.46083e-05
3.42608e-05
5.46067e-05
7.72211e-05
7.722e-05
3.42608e-05
5.46106e-05
3.42611e-05
5.46087e-05
3.38381e-05
3.38381e-05
3.38381e-05
3.3838e-05
3.3838e-05
3.3838e-05
3.3838e-05
3.36298e-05
3.41163e-05
3.38338e-05
3.38203e-05
3.36296e-05
3.41156e-05
3.3834e-05
7.72222e-05
7.72197e-05
3.36297e-05
3.38338e-05
3.41164e-05
3.38203e-05
3.36296e-05
3.3834e-05
3.41158e-05
3.48335e-05
3.48336e-05
3.37903e-05
3.48332e-05
3.48333e-05
3.42603e-05
5.46083e-05
3.42608e-05
5.46067e-05
7.72211e-05
7.72202e-05
3.42608e-05
5.46104e-05
3.42611e-05
5.46084e-05
3.38381e-05
3.38381e-05
3.38381e-05
3.3838e-05
3.3838e-05
3.3838e-05
3.3838e-05
3.36298e-05
3.41163e-05
3.38338e-05
3.38203e-05
3.36296e-05
3.41156e-05
3.3834e-05
7.72222e-05
7.72197e-05
3.36297e-05
3.38338e-05
3.41164e-05
3.38203e-05
3.36296e-05
3.3834e-05
3.41158e-05
3.48335e-05
3.48336e-05
3.37903e-05
3.48332e-05
3.48333e-05
3.42603e-05
5.46085e-05
3.42608e-05
5.461e-05
7.7221e-05
7.72231e-05
3.42608e-05
5.46103e-05
3.42611e-05
5.4612e-05
3.38381e-05
3.38381e-05
3.38381e-05
3.3838e-05
3.3838e-05
3.3838e-05
3.3838e-05
3.36298e-05
3.41157e-05
3.38338e-05
3.38203e-05
3.36296e-05
3.41157e-05
3.3834e-05
7.72223e-05
7.7224e-05
3.36297e-05
3.38338e-05
3.41158e-05
3.38203e-05
3.36296e-05
3.3834e-05
3.41161e-05
3.48333e-05
3.48334e-05
3.37903e-05
3.48336e-05
3.48337e-05
3.42607e-05
5.45882e-05
3.42638e-05
5.46069e-05
7.71701e-05
7.71814e-05
3.42614e-05
5.45905e-05
3.42641e-05
5.4609e-05
3.38381e-05
3.38381e-05
3.38381e-05
3.38382e-05
3.38382e-05
3.38382e-05
3.38382e-05
3.36301e-05
3.41245e-05
3.38339e-05
3.38205e-05
3.36296e-05
3.41166e-05
3.3834e-05
7.71724e-05
7.7184e-05
3.363e-05
3.38339e-05
3.41248e-05
3.38205e-05
3.36295e-05
3.3834e-05
3.41167e-05
3.48406e-05
3.48406e-05
3.37906e-05
3.4849e-05
3.48488e-05
3.36072e-05
5.34396e-05
3.42704e-05
4.21706e-05
7.13764e-05
3.99417e-05
3.36071e-05
5.34448e-05
3.42704e-05
4.21722e-05
3.384e-05
3.38396e-05
3.38396e-05
3.38379e-05
3.38399e-05
3.38397e-05
3.38397e-05
3.36306e-05
3.41413e-05
3.38352e-05
3.38285e-05
3.3637e-05
3.46804e-05
3.38372e-05
7.13791e-05
3.99414e-05
3.36306e-05
3.38352e-05
3.41411e-05
3.38285e-05
3.3637e-05
3.38372e-05
3.46801e-05
3.49792e-05
3.49789e-05
3.38035e-05
3.45851e-05
3.4585e-05
5.45617e-05
3.41269e-05
7.71464e-05
3.48422e-05
3.48401e-05
7.71397e-05
3.41265e-05
5.45609e-05
7.71496e-05
7.71416e-05
7.71461e-05
3.48413e-05
3.38042e-05
3.48439e-05
3.48399e-05
7.71368e-05
7.71407e-05
7.71396e-05
7.71454e-05
3.38038e-05
3.48472e-05
3.48442e-05
3.48456e-05
3.4842e-05
3.42709e-05
5.45617e-05
3.42709e-05
5.4561e-05
3.36427e-05
3.4127e-05
3.38452e-05
3.38316e-05
3.36429e-05
3.41264e-05
3.38452e-05
3.36428e-05
3.41282e-05
3.38453e-05
3.38316e-05
3.36429e-05
3.41276e-05
3.38453e-05
3.42721e-05
5.45614e-05
5.45612e-05
3.42716e-05
3.4272e-05
5.45624e-05
5.4561e-05
3.42715e-05
3.36432e-05
3.38316e-05
3.4127e-05
3.38449e-05
3.41278e-05
3.38451e-05
3.36428e-05
3.36433e-05
3.38315e-05
3.41276e-05
3.38449e-05
3.41289e-05
3.38452e-05
3.36428e-05
3.48443e-05
3.48427e-05
3.38023e-05
3.48461e-05
3.48446e-05
7.71393e-05
7.71336e-05
7.71368e-05
7.7136e-05
3.38021e-05
3.48476e-05
3.48463e-05
3.48476e-05
3.48465e-05
7.71344e-05
7.71336e-05
3.36431e-05
3.38317e-05
3.41267e-05
3.38451e-05
3.4271e-05
5.45624e-05
3.36428e-05
3.38316e-05
3.38451e-05
3.41265e-05
3.42721e-05
5.45636e-05
5.45631e-05
3.42721e-05
3.36437e-05
3.38316e-05
3.41272e-05
3.3845e-05
3.41279e-05
3.38451e-05
3.36435e-05
3.4272e-05
5.45623e-05
5.45625e-05
3.42718e-05
3.36431e-05
3.38315e-05
3.3845e-05
3.41272e-05
3.38451e-05
3.41279e-05
3.36431e-05
3.4271e-05
5.4561e-05
3.42709e-05
5.45604e-05
3.36427e-05
3.38452e-05
3.4127e-05
3.38316e-05
3.36429e-05
3.38451e-05
3.41265e-05
3.42709e-05
5.45634e-05
3.42708e-05
5.45627e-05
3.36432e-05
3.38316e-05
3.41274e-05
3.3845e-05
3.41287e-05
3.38452e-05
3.36427e-05
3.42721e-05
5.45621e-05
5.45605e-05
3.42716e-05
3.36432e-05
3.38315e-05
3.38448e-05
3.4127e-05
3.3845e-05
3.41278e-05
3.36428e-05
3.4272e-05
5.45633e-05
5.45627e-05
3.42715e-05
3.38022e-05
3.48408e-05
3.48423e-05
7.71452e-05
7.71403e-05
7.71455e-05
3.38022e-05
3.48453e-05
3.48464e-05
3.48434e-05
3.48443e-05
7.71386e-05
7.71445e-05
3.36425e-05
3.38452e-05
3.41271e-05
3.38316e-05
3.36427e-05
3.38451e-05
3.41266e-05
3.42704e-05
3.42705e-05
5.45623e-05
3.42703e-05
5.45643e-05
3.42704e-05
5.45635e-05
3.3643e-05
3.38318e-05
3.38449e-05
3.41277e-05
3.38451e-05
3.41284e-05
3.36425e-05
3.3643e-05
3.38315e-05
3.38448e-05
3.41271e-05
3.3845e-05
3.41279e-05
3.36426e-05
3.42716e-05
5.45621e-05
5.45623e-05
3.42712e-05
3.42716e-05
5.45642e-05
5.45635e-05
3.42711e-05
7.71513e-05
7.71433e-05
7.71525e-05
7.71445e-05
3.3802e-05
3.48472e-05
3.48473e-05
3.48458e-05
3.48459e-05
7.71386e-05
7.71424e-05
7.71398e-05
7.71436e-05
7.71368e-05
7.71575e-05
7.71385e-05
7.71388e-05
3.4848e-05
3.48456e-05
3.38013e-05
3.4847e-05
3.48473e-05
7.72188e-05
7.71847e-05
7.72061e-05
7.71431e-05
3.37994e-05
3.48347e-05
3.48435e-05
3.48462e-05
3.48485e-05
3.42703e-05
5.45649e-05
3.42723e-05
5.45965e-05
3.36401e-05
3.41281e-05
3.38444e-05
3.38296e-05
3.36426e-05
3.41255e-05
3.38427e-05
3.36401e-05
3.41285e-05
3.38443e-05
3.38264e-05
3.36426e-05
3.41234e-05
3.38424e-05
3.42698e-05
5.46067e-05
5.45868e-05
3.42612e-05
3.42699e-05
5.46085e-05
5.46059e-05
3.42612e-05
3.36371e-05
3.3826e-05
3.41167e-05
3.38361e-05
3.41251e-05
3.3839e-05
3.36303e-05
3.36371e-05
3.38231e-05
3.41161e-05
3.38359e-05
3.41223e-05
3.38386e-05
3.36303e-05
3.48482e-05
3.48471e-05
3.37943e-05
3.48427e-05
3.48418e-05
7.71395e-05
7.72006e-05
7.72201e-05
7.72167e-05
3.37919e-05
3.48329e-05
3.48317e-05
3.484e-05
3.48401e-05
7.72169e-05
7.72138e-05
3.36427e-05
3.41284e-05
3.38449e-05
3.3831e-05
3.36434e-05
3.41272e-05
3.38444e-05
3.42718e-05
5.45623e-05
3.42727e-05
5.45631e-05
3.36429e-05
3.38449e-05
3.41285e-05
3.38308e-05
3.36436e-05
3.38443e-05
3.41271e-05
3.42723e-05
5.45978e-05
5.45659e-05
3.42662e-05
3.36422e-05
3.38292e-05
3.41216e-05
3.38389e-05
3.41279e-05
3.38427e-05
3.36342e-05
3.42722e-05
5.45971e-05
5.45648e-05
3.42663e-05
3.36422e-05
3.38292e-05
3.38389e-05
3.41214e-05
3.38427e-05
3.41278e-05
3.36341e-05
3.42703e-05
5.45648e-05
3.42724e-05
5.45959e-05
3.36402e-05
3.38443e-05
3.4128e-05
3.38291e-05
3.36426e-05
3.38426e-05
3.41254e-05
3.42702e-05
5.45633e-05
3.42723e-05
5.45716e-05
3.36371e-05
3.38232e-05
3.41158e-05
3.38359e-05
3.41223e-05
3.38386e-05
3.36303e-05
3.42699e-05
5.4608e-05
5.46055e-05
3.42613e-05
3.36371e-05
3.38253e-05
3.3836e-05
3.41166e-05
3.38389e-05
3.41249e-05
3.36303e-05
3.42698e-05
5.46083e-05
5.45877e-05
3.42612e-05
3.48469e-05
3.48478e-05
3.38014e-05
3.48468e-05
3.48478e-05
7.71375e-05
7.7138e-05
7.72049e-05
7.71447e-05
3.38005e-05
3.48419e-05
3.4842e-05
3.48475e-05
3.48481e-05
7.72037e-05
7.71418e-05
3.36401e-05
3.38443e-05
3.41282e-05
3.38292e-05
3.36425e-05
3.38427e-05
3.41255e-05
3.427e-05
5.45622e-05
3.42721e-05
5.45627e-05
3.42699e-05
5.45642e-05
3.42721e-05
5.45725e-05
3.36372e-05
3.38286e-05
3.38364e-05
3.41199e-05
3.38393e-05
3.41269e-05
3.36303e-05
3.36371e-05
3.38253e-05
3.38361e-05
3.41168e-05
3.3839e-05
3.41251e-05
3.36303e-05
3.42699e-05
5.45976e-05
5.45644e-05
3.42613e-05
3.42699e-05
5.46093e-05
5.45886e-05
3.42613e-05
7.71386e-05
7.71607e-05
7.71398e-05
7.71619e-05
3.37959e-05
3.48349e-05
3.4835e-05
3.4846e-05
3.4846e-05
7.72206e-05
7.71877e-05
7.72219e-05
7.7189e-05
7.72187e-05
7.72191e-05
7.72181e-05
7.72223e-05
3.48342e-05
3.48402e-05
3.37903e-05
3.48331e-05
3.48331e-05
7.72184e-05
7.72177e-05
7.72211e-05
7.72209e-05
3.37906e-05
3.4833e-05
3.4833e-05
3.48337e-05
3.48336e-05
3.42602e-05
5.46085e-05
3.42613e-05
5.46082e-05
3.36298e-05
3.4117e-05
3.38347e-05
3.38205e-05
3.36303e-05
3.41156e-05
3.38341e-05
3.36299e-05
3.41171e-05
3.38346e-05
3.38203e-05
3.36303e-05
3.41159e-05
3.38341e-05
3.42611e-05
5.46072e-05
5.46064e-05
3.42604e-05
3.42611e-05
5.46081e-05
5.46082e-05
3.42603e-05
3.36301e-05
3.38201e-05
3.41157e-05
3.38338e-05
3.41168e-05
3.38338e-05
3.36299e-05
3.36302e-05
3.38201e-05
3.41159e-05
3.38338e-05
3.41171e-05
3.38338e-05
3.36299e-05
3.48334e-05
3.48321e-05
3.37903e-05
3.48329e-05
3.48307e-05
7.72163e-05
7.72164e-05
7.72201e-05
7.722e-05
3.37906e-05
3.4833e-05
3.4831e-05
3.48336e-05
3.48315e-05
7.72164e-05
7.72153e-05
3.36299e-05
3.41207e-05
3.38361e-05
3.3821e-05
3.36321e-05
3.41161e-05
3.38347e-05
3.42603e-05
5.46073e-05
3.42647e-05
5.461e-05
3.36299e-05
3.38361e-05
3.41207e-05
3.3821e-05
3.3632e-05
3.38347e-05
3.41158e-05
3.42613e-05
5.46094e-05
5.46095e-05
3.42607e-05
3.36303e-05
3.38202e-05
3.41159e-05
3.38338e-05
3.41171e-05
3.38339e-05
3.363e-05
3.42611e-05
5.46094e-05
5.461e-05
3.42604e-05
3.36302e-05
3.38202e-05
3.38338e-05
3.41156e-05
3.38339e-05
3.41169e-05
3.36299e-05
3.42602e-05
5.4608e-05
3.42614e-05
5.46077e-05
3.36298e-05
3.38347e-05
3.4117e-05
3.38204e-05
3.36303e-05
3.38341e-05
3.41156e-05
3.42602e-05
5.46099e-05
3.42613e-05
5.4609e-05
3.36301e-05
3.38203e-05
3.41156e-05
3.38338e-05
3.41167e-05
3.38339e-05
3.36297e-05
3.42611e-05
5.46075e-05
5.46076e-05
3.42603e-05
3.36301e-05
3.38201e-05
3.38338e-05
3.41156e-05
3.38338e-05
3.41168e-05
3.36298e-05
3.4261e-05
5.46086e-05
5.4609e-05
3.42602e-05
3.48398e-05
3.48392e-05
3.37903e-05
3.48321e-05
3.4833e-05
7.72165e-05
7.72213e-05
7.72209e-05
7.72206e-05
3.37906e-05
3.48318e-05
3.4833e-05
3.48325e-05
3.48335e-05
7.72201e-05
7.72198e-05
3.36296e-05
3.38347e-05
3.41172e-05
3.38204e-05
3.36301e-05
3.38341e-05
3.41158e-05
3.42597e-05
5.46071e-05
3.42615e-05
5.46096e-05
3.42596e-05
5.46106e-05
3.42614e-05
5.46099e-05
3.363e-05
3.38203e-05
3.38338e-05
3.41158e-05
3.38339e-05
3.4117e-05
3.36295e-05
3.363e-05
3.38201e-05
3.38338e-05
3.41158e-05
3.38338e-05
3.41169e-05
3.36297e-05
3.42607e-05
5.46091e-05
5.46096e-05
3.42598e-05
3.42606e-05
5.46095e-05
5.46099e-05
3.42598e-05
7.72205e-05
7.72209e-05
7.72217e-05
7.72221e-05
3.37906e-05
3.48332e-05
3.48332e-05
3.48336e-05
3.48337e-05
7.72201e-05
7.72194e-05
7.72213e-05
7.72207e-05
7.72174e-05
7.7219e-05
7.722e-05
7.72215e-05
3.48336e-05
3.48337e-05
3.37903e-05
3.4833e-05
3.48331e-05
7.72184e-05
7.72176e-05
7.72209e-05
7.72201e-05
3.37906e-05
3.4833e-05
3.48331e-05
3.48337e-05
3.48338e-05
3.42603e-05
5.46081e-05
3.42612e-05
5.46081e-05
3.36299e-05
3.41168e-05
3.3834e-05
3.38203e-05
3.36302e-05
3.41157e-05
3.3834e-05
3.36299e-05
3.41171e-05
3.3834e-05
3.38203e-05
3.36302e-05
3.41159e-05
3.3834e-05
3.42612e-05
5.46071e-05
5.46067e-05
3.42604e-05
3.42612e-05
5.46081e-05
5.46081e-05
3.42603e-05
3.36302e-05
3.38202e-05
3.41157e-05
3.38338e-05
3.41168e-05
3.38339e-05
3.36299e-05
3.36301e-05
3.38202e-05
3.41159e-05
3.38338e-05
3.41171e-05
3.38338e-05
3.36298e-05
3.48336e-05
3.4832e-05
3.37903e-05
3.48329e-05
3.48313e-05
7.72157e-05
7.72164e-05
7.72201e-05
7.72201e-05
3.37906e-05
3.4833e-05
3.4831e-05
3.48336e-05
3.4832e-05
7.72164e-05
7.72153e-05
3.363e-05
3.4117e-05
3.3834e-05
3.38202e-05
3.36303e-05
3.41159e-05
3.3834e-05
3.42605e-05
5.46094e-05
3.42612e-05
5.46091e-05
3.36299e-05
3.38339e-05
3.41169e-05
3.38202e-05
3.36302e-05
3.38339e-05
3.41157e-05
3.42616e-05
5.46093e-05
5.46085e-05
3.42608e-05
3.36303e-05
3.38202e-05
3.4116e-05
3.38338e-05
3.41171e-05
3.38339e-05
3.363e-05
3.42612e-05
5.46092e-05
5.46091e-05
3.42605e-05
3.36302e-05
3.38202e-05
3.38338e-05
3.41156e-05
3.38339e-05
3.41169e-05
3.36299e-05
3.42603e-05
5.46075e-05
3.42612e-05
5.46075e-05
3.36298e-05
3.3834e-05
3.41168e-05
3.38203e-05
3.36302e-05
3.3834e-05
3.41157e-05
3.42602e-05
5.46086e-05
3.42611e-05
5.46086e-05
3.36301e-05
3.38203e-05
3.41156e-05
3.38338e-05
3.41168e-05
3.38339e-05
3.36296e-05
3.42611e-05
5.46075e-05
5.46075e-05
3.42603e-05
3.36301e-05
3.38202e-05
3.38338e-05
3.41156e-05
3.38339e-05
3.41168e-05
3.36298e-05
3.4261e-05
5.46086e-05
5.46086e-05
3.42602e-05
3.48325e-05
3.48337e-05
3.37903e-05
3.48318e-05
3.48331e-05
7.72191e-05
7.72206e-05
7.72206e-05
7.72189e-05
3.37906e-05
3.48318e-05
3.48331e-05
3.48326e-05
3.48337e-05
7.722e-05
7.72191e-05
3.36297e-05
3.3834e-05
3.41169e-05
3.38203e-05
3.363e-05
3.3834e-05
3.41158e-05
3.42598e-05
5.46091e-05
3.42608e-05
5.46089e-05
3.42597e-05
5.46095e-05
3.42607e-05
5.46094e-05
3.363e-05
3.38203e-05
3.38338e-05
3.41158e-05
3.38339e-05
3.41169e-05
3.36295e-05
3.363e-05
3.38202e-05
3.38338e-05
3.41158e-05
3.38339e-05
3.41169e-05
3.36297e-05
3.42607e-05
5.46089e-05
5.46089e-05
3.42598e-05
3.42606e-05
5.46094e-05
5.46094e-05
3.42597e-05
7.72192e-05
7.72208e-05
7.72205e-05
7.7222e-05
3.37906e-05
3.48333e-05
3.48333e-05
3.48338e-05
3.48339e-05
7.72202e-05
7.72194e-05
7.72213e-05
7.72206e-05
7.72175e-05
7.7219e-05
7.722e-05
7.72215e-05
3.48336e-05
3.48338e-05
3.37903e-05
3.4833e-05
3.48332e-05
7.72184e-05
7.72176e-05
7.72209e-05
7.722e-05
3.37906e-05
3.4833e-05
3.48331e-05
3.48337e-05
3.48339e-05
3.42603e-05
5.46081e-05
3.42612e-05
5.46081e-05
3.36299e-05
3.41168e-05
3.3834e-05
3.38203e-05
3.36302e-05
3.41156e-05
3.3834e-05
3.36299e-05
3.41171e-05
3.38339e-05
3.38203e-05
3.36302e-05
3.41159e-05
3.38339e-05
3.42612e-05
5.46071e-05
5.46066e-05
3.42604e-05
3.42611e-05
5.46081e-05
5.46081e-05
3.42603e-05
3.36302e-05
3.38202e-05
3.41157e-05
3.38338e-05
3.41168e-05
3.38339e-05
3.36299e-05
3.36301e-05
3.38202e-05
3.41159e-05
3.38338e-05
3.41171e-05
3.38338e-05
3.36298e-05
3.48336e-05
3.48318e-05
3.37903e-05
3.48329e-05
3.48312e-05
7.72157e-05
7.72164e-05
7.72201e-05
7.722e-05
3.37906e-05
3.4833e-05
3.48311e-05
3.48336e-05
3.48321e-05
7.72164e-05
7.72153e-05
3.363e-05
3.4117e-05
3.3834e-05
3.38203e-05
3.36303e-05
3.4116e-05
3.3834e-05
3.42605e-05
5.46093e-05
3.42613e-05
5.46091e-05
3.36299e-05
3.38339e-05
3.41169e-05
3.38202e-05
3.36302e-05
3.38339e-05
3.41157e-05
3.42616e-05
5.46093e-05
5.46085e-05
3.42608e-05
3.36303e-05
3.38202e-05
3.41159e-05
3.38338e-05
3.41171e-05
3.38339e-05
3.363e-05
3.42612e-05
5.46092e-05
5.46092e-05
3.42605e-05
3.36302e-05
3.38202e-05
3.38338e-05
3.41156e-05
3.38338e-05
3.41169e-05
3.36299e-05
3.42603e-05
5.46075e-05
3.42611e-05
5.46075e-05
3.36298e-05
3.3834e-05
3.41168e-05
3.38203e-05
3.36301e-05
3.38339e-05
3.41157e-05
3.42602e-05
5.46086e-05
3.42611e-05
5.46086e-05
3.36301e-05
3.38203e-05
3.41156e-05
3.38339e-05
3.41168e-05
3.38339e-05
3.36296e-05
3.42611e-05
5.46075e-05
5.46075e-05
3.42603e-05
3.36301e-05
3.38202e-05
3.38338e-05
3.41156e-05
3.38339e-05
3.41168e-05
3.36298e-05
3.4261e-05
5.46086e-05
5.46086e-05
3.42602e-05
3.48325e-05
3.48337e-05
3.37903e-05
3.48318e-05
3.4833e-05
7.7219e-05
7.72206e-05
7.72206e-05
7.72189e-05
3.37905e-05
3.48318e-05
3.48331e-05
3.48326e-05
3.48337e-05
7.72199e-05
7.72191e-05
3.36297e-05
3.3834e-05
3.41169e-05
3.38203e-05
3.363e-05
3.38339e-05
3.41158e-05
3.42597e-05
5.46089e-05
3.42607e-05
5.4609e-05
3.42597e-05
5.46095e-05
3.42607e-05
5.46095e-05
3.363e-05
3.38203e-05
3.38339e-05
3.41158e-05
3.38339e-05
3.41169e-05
3.36295e-05
3.363e-05
3.38202e-05
3.38338e-05
3.41158e-05
3.38339e-05
3.41169e-05
3.36297e-05
3.42607e-05
5.46089e-05
5.4609e-05
3.42598e-05
3.42606e-05
5.46095e-05
5.46095e-05
3.42597e-05
7.72194e-05
7.72208e-05
7.72206e-05
7.7222e-05
3.37906e-05
3.48333e-05
3.48333e-05
3.48338e-05
3.48339e-05
7.72201e-05
7.72193e-05
7.72214e-05
7.72206e-05
7.72174e-05
7.7219e-05
7.72199e-05
7.72215e-05
3.48336e-05
3.48337e-05
3.37903e-05
3.4833e-05
3.48331e-05
7.72184e-05
7.72176e-05
7.72209e-05
7.722e-05
3.37906e-05
3.48331e-05
3.48331e-05
3.48337e-05
3.48337e-05
3.42603e-05
5.46081e-05
3.42612e-05
5.46081e-05
3.36299e-05
3.41168e-05
3.3834e-05
3.38203e-05
3.36302e-05
3.41157e-05
3.3834e-05
3.36299e-05
3.41171e-05
3.3834e-05
3.38203e-05
3.36302e-05
3.41159e-05
3.38339e-05
3.42612e-05
5.46071e-05
5.46066e-05
3.42604e-05
3.42612e-05
5.46081e-05
5.46081e-05
3.42603e-05
3.36302e-05
3.38202e-05
3.41157e-05
3.38338e-05
3.41168e-05
3.38339e-05
3.36299e-05
3.36301e-05
3.38202e-05
3.41159e-05
3.38338e-05
3.41171e-05
3.38338e-05
3.36299e-05
3.48336e-05
3.48318e-05
3.37903e-05
3.48329e-05
3.48311e-05
7.72158e-05
7.72164e-05
7.72201e-05
7.722e-05
3.37906e-05
3.4833e-05
3.48311e-05
3.48336e-05
3.4832e-05
7.72164e-05
7.72154e-05
3.363e-05
3.4117e-05
3.3834e-05
3.38203e-05
3.36303e-05
3.41159e-05
3.3834e-05
3.42605e-05
5.46092e-05
3.42613e-05
5.46091e-05
3.36299e-05
3.38339e-05
3.41169e-05
3.38202e-05
3.36302e-05
3.38339e-05
3.41157e-05
3.42616e-05
5.46093e-05
5.46085e-05
3.42608e-05
3.36303e-05
3.38202e-05
3.41159e-05
3.38338e-05
3.4117e-05
3.38339e-05
3.363e-05
3.42612e-05
5.46092e-05
5.46092e-05
3.42605e-05
3.36302e-05
3.38202e-05
3.38338e-05
3.41156e-05
3.38338e-05
3.41169e-05
3.36299e-05
3.42603e-05
5.46075e-05
3.42612e-05
5.46075e-05
3.36299e-05
3.3834e-05
3.41168e-05
3.38203e-05
3.36301e-05
3.3834e-05
3.41157e-05
3.42602e-05
5.46087e-05
3.42611e-05
5.46086e-05
3.36301e-05
3.38203e-05
3.41156e-05
3.38339e-05
3.41168e-05
3.38339e-05
3.36296e-05
3.42611e-05
5.46075e-05
5.46075e-05
3.42603e-05
3.36301e-05
3.38202e-05
3.38338e-05
3.41156e-05
3.38339e-05
3.41168e-05
3.36298e-05
3.42611e-05
5.46086e-05
5.46086e-05
3.42602e-05
3.48325e-05
3.48337e-05
3.37903e-05
3.48318e-05
3.4833e-05
7.7219e-05
7.72206e-05
7.72206e-05
7.72189e-05
3.37906e-05
3.48318e-05
3.48331e-05
3.48326e-05
3.48337e-05
7.72199e-05
7.72191e-05
3.36297e-05
3.3834e-05
3.41169e-05
3.38203e-05
3.363e-05
3.38339e-05
3.41158e-05
3.42597e-05
5.46089e-05
3.42607e-05
5.4609e-05
3.42597e-05
5.46095e-05
3.42607e-05
5.46095e-05
3.363e-05
3.38203e-05
3.38338e-05
3.41158e-05
3.38339e-05
3.41169e-05
3.36295e-05
3.363e-05
3.38202e-05
3.38338e-05
3.41158e-05
3.38338e-05
3.41169e-05
3.36297e-05
3.42607e-05
5.46089e-05
5.4609e-05
3.42598e-05
3.42606e-05
5.46095e-05
5.46095e-05
3.42597e-05
7.72194e-05
7.72208e-05
7.72206e-05
7.7222e-05
3.37906e-05
3.48333e-05
3.48333e-05
3.48338e-05
3.48339e-05
7.72202e-05
7.72194e-05
7.72213e-05
7.72206e-05
7.72174e-05
7.7219e-05
7.72199e-05
7.72215e-05
3.48337e-05
3.48337e-05
3.37903e-05
3.48332e-05
3.48332e-05
7.72185e-05
7.72177e-05
7.72209e-05
7.72201e-05
3.37906e-05
3.4833e-05
3.48331e-05
3.48338e-05
3.48338e-05
3.42603e-05
5.46081e-05
3.42612e-05
5.4608e-05
3.36299e-05
3.41168e-05
3.3834e-05
3.38203e-05
3.36302e-05
3.41157e-05
3.3834e-05
3.36299e-05
3.41171e-05
3.3834e-05
3.38203e-05
3.36302e-05
3.41159e-05
3.38339e-05
3.42612e-05
5.46071e-05
5.46066e-05
3.42604e-05
3.42612e-05
5.46081e-05
5.4608e-05
3.42603e-05
3.36302e-05
3.38202e-05
3.41157e-05
3.38338e-05
3.41168e-05
3.38339e-05
3.36299e-05
3.36301e-05
3.38202e-05
3.41159e-05
3.38338e-05
3.41171e-05
3.38338e-05
3.36298e-05
3.48336e-05
3.48318e-05
3.37903e-05
3.48329e-05
3.48311e-05
7.72158e-05
7.72164e-05
7.72201e-05
7.722e-05
3.37906e-05
3.4833e-05
3.48311e-05
3.48336e-05
3.4832e-05
7.72164e-05
7.72153e-05
3.363e-05
3.4117e-05
3.3834e-05
3.38203e-05
3.36303e-05
3.41159e-05
3.3834e-05
3.42605e-05
5.46093e-05
3.42613e-05
5.46091e-05
3.36299e-05
3.38339e-05
3.41169e-05
3.38202e-05
3.36302e-05
3.38339e-05
3.41157e-05
3.42616e-05
5.46093e-05
5.46085e-05
3.42608e-05
3.36303e-05
3.38202e-05
3.41159e-05
3.38338e-05
3.41171e-05
3.38339e-05
3.363e-05
3.42612e-05
5.46092e-05
5.46092e-05
3.42605e-05
3.36302e-05
3.38202e-05
3.38338e-05
3.41156e-05
3.38338e-05
3.41169e-05
3.36299e-05
3.42603e-05
5.46075e-05
3.42612e-05
5.46075e-05
3.36299e-05
3.3834e-05
3.41168e-05
3.38203e-05
3.36302e-05
3.3834e-05
3.41157e-05
3.42602e-05
5.46087e-05
3.42611e-05
5.46086e-05
3.36301e-05
3.38203e-05
3.41156e-05
3.38339e-05
3.41168e-05
3.38339e-05
3.36296e-05
3.42611e-05
5.46075e-05
5.46075e-05
3.42603e-05
3.36301e-05
3.38202e-05
3.38338e-05
3.41156e-05
3.38339e-05
3.41168e-05
3.36298e-05
3.42611e-05
5.46086e-05
5.46087e-05
3.42602e-05
3.48325e-05
3.48337e-05
3.37903e-05
3.48318e-05
3.48331e-05
7.7219e-05
7.72206e-05
7.72206e-05
7.7219e-05
3.37906e-05
3.48318e-05
3.48331e-05
3.48326e-05
3.48337e-05
7.72199e-05
7.72191e-05
3.36297e-05
3.3834e-05
3.41169e-05
3.38203e-05
3.363e-05
3.38339e-05
3.41158e-05
3.42598e-05
5.46089e-05
3.42606e-05
5.4609e-05
3.42597e-05
5.46095e-05
3.42607e-05
5.46095e-05
3.363e-05
3.38203e-05
3.38339e-05
3.41158e-05
3.38339e-05
3.41169e-05
3.36295e-05
3.363e-05
3.38202e-05
3.38338e-05
3.41158e-05
3.38338e-05
3.41169e-05
3.36297e-05
3.42607e-05
5.46089e-05
5.4609e-05
3.42599e-05
3.42606e-05
5.46095e-05
5.46095e-05
3.42598e-05
7.72194e-05
7.72208e-05
7.72206e-05
7.7222e-05
3.37906e-05
3.48333e-05
3.48333e-05
3.48338e-05
3.48339e-05
7.72202e-05
7.72194e-05
7.72214e-05
7.72206e-05
7.72175e-05
7.72191e-05
7.722e-05
7.72215e-05
3.48336e-05
3.48337e-05
3.37903e-05
3.4833e-05
3.48331e-05
7.72185e-05
7.72176e-05
7.72209e-05
7.72201e-05
3.37906e-05
3.4833e-05
3.4833e-05
3.48337e-05
3.48337e-05
3.42603e-05
5.46081e-05
3.42612e-05
5.46081e-05
3.36299e-05
3.41168e-05
3.3834e-05
3.38203e-05
3.36302e-05
3.41156e-05
3.3834e-05
3.36299e-05
3.41171e-05
3.3834e-05
3.38203e-05
3.36302e-05
3.41159e-05
3.38339e-05
3.42612e-05
5.46071e-05
5.46066e-05
3.42604e-05
3.42611e-05
5.46081e-05
5.46081e-05
3.42603e-05
3.36302e-05
3.38202e-05
3.41157e-05
3.38338e-05
3.41168e-05
3.38339e-05
3.36299e-05
3.36301e-05
3.38202e-05
3.41159e-05
3.38338e-05
3.41171e-05
3.38339e-05
3.36298e-05
3.48336e-05
3.48318e-05
3.37903e-05
3.48329e-05
3.48311e-05
7.72158e-05
7.72164e-05
7.72202e-05
7.722e-05
3.37906e-05
3.4833e-05
3.48311e-05
3.48336e-05
3.4832e-05
7.72164e-05
7.72153e-05
3.363e-05
3.4117e-05
3.3834e-05
3.38203e-05
3.36303e-05
3.41159e-05
3.3834e-05
3.42605e-05
5.46093e-05
3.42612e-05
5.46091e-05
3.36299e-05
3.38339e-05
3.41169e-05
3.38202e-05
3.36302e-05
3.38339e-05
3.41157e-05
3.42616e-05
5.46093e-05
5.46085e-05
3.42608e-05
3.36303e-05
3.38202e-05
3.41159e-05
3.38338e-05
3.4117e-05
3.38339e-05
3.363e-05
3.42612e-05
5.46092e-05
5.46092e-05
3.42605e-05
3.36302e-05
3.38202e-05
3.38338e-05
3.41156e-05
3.38338e-05
3.41169e-05
3.36299e-05
3.42603e-05
5.46075e-05
3.42612e-05
5.46075e-05
3.36298e-05
3.3834e-05
3.41168e-05
3.38203e-05
3.36302e-05
3.3834e-05
3.41157e-05
3.42602e-05
5.46086e-05
3.42611e-05
5.46086e-05
3.36301e-05
3.38203e-05
3.41156e-05
3.38338e-05
3.41168e-05
3.38339e-05
3.36296e-05
3.42611e-05
5.46075e-05
5.46075e-05