/*--------------------------------*- C++ -*----------------------------------*\
| =========                 |                                                 |
| \\      /  F ield         | OpenFOAM: The Open Source CFD Toolbox           |
|  \\    /   O peration     | Version:  2206                                  |
|   \\  /    A nd           | Website:  www.openfoam.com                      |
|    \\/     M anipulation  |                                                 |
\*---------------------------------------------------------------------------*/
FoamFile
{
    version     2.0;
    format      ascii;
    arch        "LSB;label=32;scalar=64";
    class       volVectorField;
    location    "7.5";
    object      U;
}
// * * * * * * * * * * * * * * * * * * * * * * * * * * * * * * * * * * * * * //

dimensions      [0 1 -1 0 0 0 0];

internalField   nonuniform List<vector> 
28673
(
(-1.68985e-07 3.35661e-07 0.100985)
(-3.39604e-05 -3.39744e-05 0.100983)
(-3.63535e-07 -2.96156e-07 0.100986)
(-2.5504e-07 4.30844e-07 0.100985)
(3.22263e-07 -2.08668e-07 0.100985)
(-3.39913e-05 -3.39804e-05 0.100982)
(-2.85599e-07 -3.04467e-07 0.100986)
(-2.40413e-07 3.83361e-07 0.100985)
(4.09065e-07 -2.44549e-07 0.100985)
(-3.404e-05 -3.40545e-05 0.100983)
(-3.13146e-07 -3.2177e-07 0.100986)
(-2.15378e-07 3.74604e-07 0.100985)
(3.82453e-07 -2.14089e-07 0.100985)
(-3.40082e-05 -3.40223e-05 0.100983)
(-3.17374e-07 -3.21328e-07 0.100986)
(-2.16183e-07 3.75706e-07 0.100985)
(3.78448e-07 -2.12475e-07 0.100985)
(-3.40085e-05 -3.40196e-05 0.100983)
(-3.18285e-07 -3.21034e-07 0.100986)
(-2.16642e-07 3.76145e-07 0.100985)
(3.7757e-07 -2.12067e-07 0.100985)
(-3.40093e-05 -3.402e-05 0.100983)
(-3.18649e-07 -3.21482e-07 0.100986)
(-2.16213e-07 3.75879e-07 0.100985)
(3.77666e-07 -2.12154e-07 0.100985)
(-3.4009e-05 -3.40189e-05 0.100983)
(-3.18391e-07 -3.20989e-07 0.100986)
(-2.16594e-07 3.75846e-07 0.100985)
(3.77524e-07 -2.12844e-07 0.100985)
(-3.40096e-05 -3.40194e-05 0.100983)
(-3.20224e-07 -3.21289e-07 0.100986)
(-2.15136e-07 3.75652e-07 0.100985)
(3.76513e-07 -2.12215e-07 0.100985)
(-3.4008e-05 -3.40185e-05 0.100983)
(-3.31704e-07 -3.32554e-07 0.100986)
(-2.21219e-07 3.82227e-07 0.100985)
(3.81073e-07 -2.19892e-07 0.100985)
(-3.39924e-05 -3.40058e-05 0.100983)
(-3.26463e-07 -3.20647e-07 0.100987)
(-8.46511e-07 9.30138e-07 0.100984)
(9.22712e-07 -8.40227e-07 0.100984)
(-3.31535e-05 -3.31604e-05 0.100983)
(-6.56663e-06 -6.50933e-06 0.100983)
(-3.14361e-06 2.91296e-06 0.100982)
(2.88363e-06 -3.12878e-06 0.100982)
(-2.19339e-05 -2.19145e-05 0.100984)
(-4.28545e-05 -4.2726e-05 0.100911)
(4.45932e-05 -3.61096e-05 0.100919)
(-3.62067e-05 4.45757e-05 0.100919)
(5.13219e-05 5.13605e-05 0.100923)
(-3.64741e-07 1.93856e-07 0.100985)
(3.51466e-05 -3.51242e-05 0.100983)
(-1.83112e-07 3.55906e-07 0.100985)
(-3.51965e-05 -3.5144e-05 0.100982)
(3.76586e-07 1.8883e-07 0.100985)
(-3.45338e-07 1.8079e-07 0.100985)
(3.27219e-07 1.75435e-07 0.100985)
(-4.22722e-07 2.09294e-07 0.100985)
(-3.39596e-05 3.39314e-05 0.100983)
(3.51045e-05 -3.50835e-05 0.100982)
(1.28192e-07 3.59151e-07 0.100985)
(1.2493e-07 -3.30196e-07 0.100985)
(-1.96559e-07 -3.65865e-07 0.100985)
(-2.00489e-07 4.09887e-07 0.100985)
(-1.85977e-07 -3.41324e-07 0.100985)
(-3.51724e-05 3.51874e-05 0.100983)
(-3.55371e-07 -1.96523e-07 0.100985)
(3.07779e-07 -1.3589e-07 0.100985)
(-3.58221e-07 -1.65097e-07 0.100985)
(3.51455e-05 3.51869e-05 0.100982)
(3.39474e-05 3.39803e-05 0.100982)
(-3.50727e-05 -3.50747e-05 0.100983)
(3.65613e-07 2.6156e-07 0.100985)
(-4.45217e-07 2.62993e-07 0.100985)
(4.16274e-07 2.64394e-07 0.100985)
(-4.0164e-07 2.6845e-07 0.100985)
(-3.40669e-05 3.40375e-05 0.100982)
(3.50984e-05 -3.50753e-05 0.100983)
(1.68803e-07 4.18325e-07 0.100985)
(1.50496e-07 -3.6022e-07 0.100985)
(2.73237e-07 3.99667e-07 0.100985)
(2.87529e-07 -4.23152e-07 0.100985)
(-2.62648e-07 -3.86056e-07 0.100985)
(-2.58111e-07 3.90959e-07 0.100985)
(-2.76965e-07 -4.07511e-07 0.100985)
(3.38915e-05 -3.39539e-05 0.100982)
(-3.50337e-05 3.50745e-05 0.100983)
(-4.14213e-07 -2.38559e-07 0.100985)
(4.19006e-07 -2.6522e-07 0.100985)
(-3.99288e-07 -2.73314e-07 0.100985)
(3.5065e-05 3.50861e-05 0.100983)
(3.40691e-05 3.40232e-05 0.100983)
(-3.51215e-05 -3.51077e-05 0.100983)
(4.09579e-07 2.47099e-07 0.100985)
(-3.92788e-07 2.51662e-07 0.100985)
(3.92751e-07 2.16929e-07 0.100985)
(-3.84026e-07 2.27943e-07 0.100985)
(-3.40393e-05 3.40125e-05 0.100983)
(3.51303e-05 -3.5107e-05 0.100983)
(2.61975e-07 3.88096e-07 0.100985)
(2.73314e-07 -4.12861e-07 0.100985)
(2.24569e-07 3.75649e-07 0.100985)
(2.30964e-07 -3.89177e-07 0.100985)
(-2.57171e-07 -3.99692e-07 0.100985)
(-2.16119e-07 3.75397e-07 0.100985)
(-2.28813e-07 -3.83303e-07 0.100985)
(3.40551e-05 -3.40805e-05 0.100983)
(-3.50952e-05 3.51297e-05 0.100983)
(-3.85618e-07 -2.5802e-07 0.100985)
(3.85837e-07 -2.14449e-07 0.100985)
(-3.71431e-07 -2.30169e-07 0.100985)
(3.51077e-05 3.51257e-05 0.100983)
(3.40236e-05 3.39976e-05 0.100983)
(-3.51282e-05 -3.51064e-05 0.100983)
(3.89666e-07 2.20474e-07 0.100985)
(-3.83793e-07 2.27635e-07 0.100985)
(3.86519e-07 2.16707e-07 0.100985)
(-3.8498e-07 2.2632e-07 0.100985)
(-3.40172e-05 3.39899e-05 0.100983)
(3.51308e-05 -3.51078e-05 0.100983)
(2.21709e-07 3.76812e-07 0.100985)
(2.26271e-07 -3.89973e-07 0.100985)
(2.15379e-07 3.76766e-07 0.100985)
(2.20922e-07 -3.84042e-07 0.100985)
(-2.28932e-07 -3.82813e-07 0.100985)
(-2.14789e-07 3.75359e-07 0.100985)
(-2.27076e-07 -3.79437e-07 0.100985)
(3.4e-05 -3.40306e-05 0.100983)
(-3.51022e-05 3.51316e-05 0.100983)
(-3.72424e-07 -2.29733e-07 0.100985)
(3.78338e-07 -2.10551e-07 0.100985)
(-3.7235e-07 -2.25004e-07 0.100985)
(3.51081e-05 3.51298e-05 0.100983)
(3.40189e-05 3.39991e-05 0.100983)
(-3.5129e-05 -3.51058e-05 0.100983)
(3.86802e-07 2.21881e-07 0.100985)
(-3.85438e-07 2.27466e-07 0.100985)
(3.85967e-07 2.17766e-07 0.100985)
(-3.86356e-07 2.27195e-07 0.100985)
(-3.40176e-05 3.39899e-05 0.100983)
(3.51294e-05 -3.51068e-05 0.100983)
(2.17007e-07 3.7917e-07 0.100985)
(2.21054e-07 -3.88463e-07 0.100985)
(2.14501e-07 3.77765e-07 0.100985)
(2.20363e-07 -3.83831e-07 0.100985)
(-2.2915e-07 -3.80792e-07 0.100985)
(-2.16356e-07 3.76321e-07 0.100985)
(-2.28505e-07 -3.79602e-07 0.100985)
(3.39945e-05 -3.4028e-05 0.100983)
(-3.51029e-05 3.51317e-05 0.100983)
(-3.74067e-07 -2.26957e-07 0.100985)
(3.77205e-07 -2.10834e-07 0.100985)
(-3.73755e-07 -2.25261e-07 0.100985)
(3.5107e-05 3.51293e-05 0.100983)
(3.40183e-05 3.39997e-05 0.100983)
(-3.51296e-05 -3.51059e-05 0.100983)
(3.85527e-07 2.22202e-07 0.100985)
(-3.86265e-07 2.28127e-07 0.100985)
(3.84901e-07 2.17202e-07 0.100985)
(-3.85308e-07 2.25872e-07 0.100985)
(-3.40187e-05 3.39906e-05 0.100983)
(3.51306e-05 -3.51077e-05 0.100983)
(2.16279e-07 3.78967e-07 0.100985)
(2.20696e-07 -3.8824e-07 0.100985)
(2.13787e-07 3.77256e-07 0.100985)
(2.19369e-07 -3.83732e-07 0.100985)
(-2.29996e-07 -3.80744e-07 0.100985)
(-2.14927e-07 3.7541e-07 0.100985)
(-2.27734e-07 -3.78887e-07 0.100985)
(3.39941e-05 -3.40281e-05 0.100983)
(-3.51036e-05 3.51325e-05 0.100983)
(-3.74824e-07 -2.26802e-07 0.100985)
(3.76634e-07 -2.09912e-07 0.100985)
(-3.73401e-07 -2.24533e-07 0.100985)
(3.51074e-05 3.51304e-05 0.100983)
(3.40177e-05 3.39995e-05 0.100983)
(-3.51287e-05 -3.5105e-05 0.100983)
(3.85361e-07 2.21727e-07 0.100985)
(-3.85962e-07 2.27379e-07 0.100985)
(3.86138e-07 2.18178e-07 0.100985)
(-3.8659e-07 2.26842e-07 0.100985)
(-3.40174e-05 3.39896e-05 0.100983)
(3.51296e-05 -3.51073e-05 0.100983)
(2.1581e-07 3.79235e-07 0.100985)
(2.2039e-07 -3.87756e-07 0.100985)
(2.148e-07 3.78519e-07 0.100985)
(2.20456e-07 -3.85958e-07 0.100985)
(-2.29679e-07 -3.80322e-07 0.100985)
(-2.16044e-07 3.76419e-07 0.100985)
(-2.28695e-07 -3.79353e-07 0.100985)
(3.39932e-05 -3.40269e-05 0.100983)
(-3.51028e-05 3.51306e-05 0.100983)
(-3.74712e-07 -2.2658e-07 0.100985)
(3.77613e-07 -2.11305e-07 0.100985)
(-3.74157e-07 -2.25118e-07 0.100985)
(3.51066e-05 3.51299e-05 0.100983)
(3.40186e-05 3.40005e-05 0.100983)
(-3.51299e-05 -3.51059e-05 0.100983)
(3.85087e-07 2.22229e-07 0.100985)
(-3.86052e-07 2.27612e-07 0.100985)
(3.84314e-07 2.16736e-07 0.100985)
(-3.85807e-07 2.25457e-07 0.100985)
(-3.40184e-05 3.39902e-05 0.100983)
(3.51304e-05 -3.51077e-05 0.100983)
(2.16034e-07 3.79153e-07 0.100985)
(2.20839e-07 -3.86314e-07 0.100985)
(2.13454e-07 3.76996e-07 0.100985)
(2.19379e-07 -3.8442e-07 0.100985)
(-2.3003e-07 -3.80296e-07 0.100985)
(-2.14724e-07 3.75081e-07 0.100985)
(-2.26692e-07 -3.78252e-07 0.100985)
(3.39939e-05 -3.40275e-05 0.100983)
(-3.51046e-05 3.51334e-05 0.100983)
(-3.74982e-07 -2.26677e-07 0.100985)
(3.75879e-07 -2.09441e-07 0.100985)
(-3.73279e-07 -2.2249e-07 0.100985)
(3.51074e-05 3.51305e-05 0.100983)
(3.40167e-05 3.39993e-05 0.100983)
(-3.51231e-05 -3.51017e-05 0.100983)
(3.83898e-07 2.22949e-07 0.100985)
(-3.84911e-07 2.26512e-07 0.100985)
(3.8333e-07 2.18992e-07 0.100985)
(-3.8683e-07 2.26131e-07 0.100985)
(-3.4017e-05 3.3989e-05 0.100983)
(3.5126e-05 -3.51006e-05 0.100983)
(2.14756e-07 3.78522e-07 0.100985)
(2.19883e-07 -3.85296e-07 0.100985)
(2.15717e-07 3.76618e-07 0.100985)
(2.22321e-07 -3.83737e-07 0.100985)
(-2.25929e-07 -3.7883e-07 0.100985)
(-2.17628e-07 3.75127e-07 0.100985)
(-2.24856e-07 -3.81055e-07 0.100985)
(3.39919e-05 -3.4025e-05 0.100983)
(-3.51009e-05 3.51308e-05 0.100983)
(-3.74336e-07 -2.22438e-07 0.100985)
(3.74055e-07 -2.12086e-07 0.100985)
(-3.75143e-07 -2.17539e-07 0.100985)
(3.51046e-05 3.5125e-05 0.100983)
(3.40023e-05 3.39862e-05 0.100983)
(-3.48357e-05 -3.48165e-05 0.100983)
(3.8845e-07 2.31813e-07 0.100985)
(-3.89781e-07 2.32986e-07 0.100985)
(8.74027e-08 -4.0922e-08 0.100985)
(-9.69005e-08 -3.72274e-08 0.100985)
(-3.40035e-05 3.39745e-05 0.100983)
(3.48408e-05 -3.48139e-05 0.100983)
(2.23734e-07 3.83779e-07 0.100985)
(2.26465e-07 -3.88548e-07 0.100985)
(-5.79535e-08 8.67234e-08 0.100985)
(-4.43936e-08 -8.96538e-08 0.100985)
(-2.29402e-07 -3.82288e-07 0.100985)
(5.02202e-08 8.61238e-08 0.100985)
(4.83154e-08 -8.93216e-08 0.100985)
(3.39798e-05 -3.40117e-05 0.100983)
(-3.48212e-05 3.48407e-05 0.100983)
(-3.79224e-07 -2.22289e-07 0.100985)
(7.54016e-08 5.62124e-08 0.100985)
(-8.33413e-08 5.44932e-08 0.100985)
(3.48107e-05 3.48388e-05 0.100983)
(3.31565e-05 3.31471e-05 0.100983)
(-2.88199e-05 -2.8764e-05 0.100983)
(9.28665e-07 8.53181e-07 0.100984)
(-9.35995e-07 8.5798e-07 0.100984)
(-4.50614e-06 -6.37087e-06 0.100987)
(4.47962e-06 -6.36418e-06 0.100987)
(-3.31589e-05 3.31409e-05 0.100983)
(2.87787e-05 -2.87721e-05 0.100983)
(8.41016e-07 9.28421e-07 0.100984)
(8.49857e-07 -9.30152e-07 0.100984)
(-6.40229e-06 -4.48305e-06 0.100987)
(-6.40071e-06 4.49828e-06 0.100987)
(-8.52047e-07 -9.20821e-07 0.100984)
(6.37207e-06 -4.46097e-06 0.100987)
(6.38382e-06 4.49663e-06 0.100987)
(3.31434e-05 -3.31681e-05 0.100983)
(-2.87992e-05 2.8791e-05 0.100983)
(-9.23074e-07 -8.38953e-07 0.100984)
(-4.49051e-06 6.37985e-06 0.100987)
(4.4829e-06 6.39113e-06 0.100987)
(2.8767e-05 2.87987e-05 0.100983)
(2.18845e-05 2.19506e-05 0.100984)
(-4.34694e-05 -4.32957e-05 0.100943)
(2.86719e-06 3.16752e-06 0.100981)
(-2.89286e-06 3.16923e-06 0.100981)
(-3.57744e-05 -5.72983e-05 0.100956)
(3.57708e-05 -5.73458e-05 0.100956)
(-2.19274e-05 2.19538e-05 0.100984)
(4.34603e-05 -4.33099e-05 0.100943)
(3.0949e-06 2.89858e-06 0.100982)
(3.10211e-06 -2.8606e-06 0.100981)
(-5.74946e-05 -3.56651e-05 0.100956)
(-5.74462e-05 3.57759e-05 0.100956)
(-3.13514e-06 -2.86206e-06 0.100982)
(5.74724e-05 -3.56756e-05 0.100956)
(5.74298e-05 3.57841e-05 0.100956)
(2.18797e-05 -2.19326e-05 0.100984)
(-4.3414e-05 4.34555e-05 0.100943)
(-2.88411e-06 -3.12787e-06 0.100982)
(-3.57446e-05 5.74468e-05 0.100956)
(3.57562e-05 5.74984e-05 0.100956)
(4.3415e-05 4.34587e-05 0.100943)
(-5.13765e-05 -5.11913e-05 0.100923)
(-3.62334e-05 -4.44077e-05 0.100919)
(3.6221e-05 -4.44382e-05 0.100919)
(5.13553e-05 -5.11908e-05 0.100923)
(-4.46148e-05 -3.61128e-05 0.100919)
(-4.45727e-05 3.62259e-05 0.100919)
(4.28473e-05 -4.27233e-05 0.100911)
(-4.28319e-05 4.2857e-05 0.100911)
(4.28515e-05 4.28711e-05 0.100911)
(4.45652e-05 3.6237e-05 0.100919)
(-5.13178e-05 5.13559e-05 0.100923)
(3.622e-05 4.4623e-05 0.100919)
(-3.73957e-08 -5.46234e-06 0.100639)
(5.37858e-07 4.26081e-06 0.0983229)
(1.54991e-08 5.35048e-06 0.100639)
(-6.49353e-07 -4.84478e-06 0.0983247)
(-7.8959e-07 8.0135e-07 0.0924193)
(1.16399e-06 -1.55075e-06 0.0924225)
(-5.45586e-06 -2.49669e-08 0.100639)
(-4.77149e-06 -7.54781e-07 0.0983242)
(3.61233e-07 -3.54692e-07 0.100986)
(3.57497e-07 3.36394e-07 0.100986)
(-3.80093e-07 -3.43358e-07 0.100986)
(3.13359e-07 -3.10557e-07 0.100986)
(-3.71544e-07 3.58915e-07 0.100986)
(3.49805e-07 3.5845e-07 0.100986)
(9.91871e-06 -5.42491e-08 0.100938)
(-8.27561e-06 2.41891e-06 0.100715)
(-2.14402e-07 -1.40051e-07 0.100986)
(-1.45731e-07 3.19331e-07 0.100985)
(-9.71918e-06 2.14625e-08 0.100938)
(8.28647e-06 -2.83338e-06 0.100716)
(-1.85566e-07 -1.44286e-07 0.100986)
(-1.63481e-06 1.23035e-06 0.0924198)
(-4.19737e-08 9.90495e-06 0.100938)
(-1.15421e-07 -2.22826e-07 0.100986)
(3.62291e-07 -1.59188e-07 0.100985)
(4.97219e-08 -9.71718e-06 0.100938)
(-1.2108e-07 -1.92724e-07 0.100986)
(-2.78588e-06 8.24904e-06 0.100716)
(-2.73863e-06 -3.14353e-06 0.100264)
(-3.13295e-06 -2.73655e-06 0.100263)
(3.51282e-05 3.51525e-05 0.100983)
(2.43889e-06 3.16706e-06 0.100264)
(3.16038e-06 2.43623e-06 0.100264)
(1.82267e-08 -5.31912e-06 0.100639)
(8.12112e-07 4.09716e-06 0.0983238)
(-7.22503e-08 5.22212e-06 0.100638)
(-9.09824e-07 -3.743e-06 0.0983252)
(-1.55747e-06 1.66753e-06 0.0924246)
(5.48259e-07 -3.5722e-07 0.0924213)
(-5.47797e-06 2.06872e-08 0.100639)
(4.17143e-06 8.30271e-07 0.0983233)
(5.23969e-06 -2.218e-09 0.100639)
(-4.71746e-06 -6.018e-07 0.0983251)
(2.57629e-07 -2.57155e-07 0.100986)
(-3.76176e-07 3.49764e-07 0.100986)
(3.06347e-07 3.18439e-07 0.100986)
(-2.75767e-07 -2.87767e-07 0.100986)
(3.02733e-07 -2.97735e-07 0.100986)
(-2.65917e-07 2.73332e-07 0.100986)
(2.95889e-07 2.77982e-07 0.100986)
(9.42866e-06 -1.04954e-08 0.100938)
(-8.4193e-06 2.69225e-06 0.100714)
(-2.88601e-07 -7.18379e-08 0.100986)
(-2.81376e-07 4.16318e-07 0.100985)
(-9.66727e-06 9.06417e-08 0.100937)
(7.88929e-06 -2.38376e-06 0.100715)
(-3.51826e-07 -8.33696e-08 0.100986)
(6.3489e-07 -7.39667e-07 0.0924201)
(-1.35095e-06 1.02761e-06 0.0924259)
(-9.91234e-08 9.44189e-06 0.100938)
(-1.80199e-07 -2.50266e-07 0.100986)
(2.27555e-06 -8.23433e-06 0.100714)
(3.76504e-07 -2.74881e-07 0.100985)
(-1.50209e-08 -9.63131e-06 0.100937)
(-1.64565e-07 -3.34234e-07 0.100986)
(-2.71512e-06 8.06192e-06 0.100715)
(-2.78104e-06 -3.02377e-06 0.100263)
(-3.03162e-06 -2.76242e-06 0.100263)
(3.50167e-05 3.50588e-05 0.100982)
(2.82091e-06 2.87027e-06 0.100264)
(2.84742e-06 2.82699e-06 0.100264)
(-1.84402e-09 -5.40062e-06 0.10064)
(6.21468e-07 4.65535e-06 0.0983229)
(2.90881e-08 5.37531e-06 0.100639)
(-7.27356e-07 -4.45123e-06 0.0983242)
(-1.04351e-06 1.26858e-06 0.0924181)
(1.00122e-06 -1.20731e-06 0.0924196)
(-5.4052e-06 -1.81816e-08 0.10064)
(5.0215e-06 5.16536e-07 0.098323)
(5.44007e-06 1.46707e-08 0.100639)
(-4.393e-06 -7.43287e-07 0.098324)
(3.14074e-07 -3.07786e-07 0.100986)
(-2.75628e-07 2.84691e-07 0.100986)
(3.12227e-07 2.8931e-07 0.100986)
(-3.09832e-07 -3.20384e-07 0.100986)
(3.23634e-07 -3.15805e-07 0.100986)
(-3.04675e-07 3.14461e-07 0.100986)
(3.29301e-07 3.06341e-07 0.100986)
(9.71179e-06 -5.05999e-08 0.100938)
(-8.43697e-06 2.5993e-06 0.100715)
(-3.05592e-07 -1.21131e-07 0.100986)
(-2.26646e-07 3.78898e-07 0.100985)
(-9.8973e-06 3.2934e-08 0.100938)
(8.11527e-06 -2.66233e-06 0.100716)
(-2.82427e-07 -1.22212e-07 0.100986)
(1.71732e-06 -1.29798e-06 0.0924179)
(-1.11304e-06 9.66164e-07 0.0924193)
(-2.60939e-08 9.69577e-06 0.100938)
(-8.75472e-08 -3.12647e-07 0.100986)
(2.80253e-06 -8.54643e-06 0.100715)
(3.9908e-07 -2.28464e-07 0.100985)
(8.26751e-08 -9.89933e-06 0.100938)
(-9.75422e-08 -2.9311e-07 0.100986)
(-2.63637e-06 8.12433e-06 0.100716)
(-2.63001e-06 -3.17373e-06 0.100264)
(-3.16483e-06 -2.62827e-06 0.100263)
(3.50966e-05 3.51124e-05 0.100983)
(2.58448e-06 3.0565e-06 0.100265)
(3.05818e-06 2.57438e-06 0.100264)
(-7.68598e-09 -5.41579e-06 0.10064)
(6.55181e-07 4.5426e-06 0.0983227)
(8.36831e-09 5.3232e-06 0.100639)
(-7.30586e-07 -4.46592e-06 0.0983242)
(-1.06808e-06 1.22212e-06 0.0924181)
(9.93121e-07 -1.2147e-06 0.0924196)
(-5.44431e-06 -1.47694e-08 0.10064)
(4.53422e-06 6.29252e-07 0.0983225)
(5.35498e-06 5.59994e-09 0.100639)
(-4.45744e-06 -7.21303e-07 0.0983239)
(3.2355e-07 -3.16347e-07 0.100986)
(-3.0909e-07 3.17056e-07 0.100986)
(3.3042e-07 3.07737e-07 0.100986)
(-3.17144e-07 -3.21272e-07 0.100986)
(3.22897e-07 -3.16076e-07 0.100986)
(-3.13748e-07 3.20774e-07 0.100986)
(3.30044e-07 3.10635e-07 0.100986)
(9.73256e-06 -4.53688e-08 0.100938)
(-8.38385e-06 2.56709e-06 0.100715)
(-2.64127e-07 -1.20263e-07 0.100986)
(-2.1409e-07 3.75241e-07 0.100985)
(-9.81017e-06 3.94727e-08 0.100938)
(8.12732e-06 -2.66159e-06 0.100716)
(-2.60941e-07 -1.20427e-07 0.100986)
(1.16002e-06 -1.03304e-06 0.0924169)
(-1.1593e-06 9.66467e-07 0.0924193)
(-4.2933e-08 9.7217e-06 0.100938)
(-1.12724e-07 -2.66124e-07 0.100986)
(2.58787e-06 -8.40858e-06 0.100715)
(3.80627e-07 -2.11246e-07 0.100985)
(4.45989e-08 -9.80139e-06 0.100938)
(-1.1488e-07 -2.65285e-07 0.100986)
(-2.67586e-06 8.15416e-06 0.100716)
(-2.64979e-06 -3.14178e-06 0.100264)
(-3.13156e-06 -2.64704e-06 0.100263)
(3.51057e-05 3.51264e-05 0.100983)
(2.59242e-06 3.06024e-06 0.100265)
(3.05838e-06 2.5857e-06 0.100264)
(-9.03102e-09 -5.41618e-06 0.10064)
(6.52412e-07 4.54377e-06 0.0983227)
(5.6734e-09 5.32161e-06 0.100639)
(-7.33229e-07 -4.46495e-06 0.0983242)
(-1.06834e-06 1.22032e-06 0.0924181)
(9.9186e-07 -1.21532e-06 0.0924196)
(-5.44529e-06 -1.40208e-08 0.100639)
(4.53191e-06 6.32195e-07 0.0983225)
(5.3506e-06 7.84995e-09 0.100639)
(-4.45799e-06 -7.20009e-07 0.0983239)
(3.22098e-07 -3.15886e-07 0.100986)
(-3.14588e-07 3.20452e-07 0.100986)
(3.2966e-07 3.10187e-07 0.100986)
(-3.18124e-07 -3.20427e-07 0.100986)
(3.21427e-07 -3.1529e-07 0.100986)
(-3.15081e-07 3.21072e-07 0.100986)
(3.28577e-07 3.10839e-07 0.100986)
(9.7326e-06 -4.45052e-08 0.100938)
(-8.38307e-06 2.56771e-06 0.100715)
(-2.64455e-07 -1.18953e-07 0.100986)
(-2.15516e-07 3.76525e-07 0.100985)
(-9.80841e-06 4.07908e-08 0.100938)
(8.12707e-06 -2.66156e-06 0.100716)
(-2.6289e-07 -1.19329e-07 0.100986)
(1.16036e-06 -1.03468e-06 0.0924169)
(-1.15876e-06 9.66128e-07 0.0924193)
(-4.42952e-08 9.723e-06 0.100938)
(-1.16649e-07 -2.6236e-07 0.100986)
(2.58428e-06 -8.40702e-06 0.100715)
(3.78148e-07 -2.10341e-07 0.100985)
(4.09084e-08 -9.79777e-06 0.100938)
(-1.17345e-07 -2.635e-07 0.100986)
(-2.67796e-06 8.15422e-06 0.100716)
(-2.64924e-06 -3.13919e-06 0.100264)
(-3.1321e-06 -2.64496e-06 0.100263)
(3.51042e-05 3.51267e-05 0.100983)
(2.59225e-06 3.06136e-06 0.100265)
(3.05733e-06 2.58724e-06 0.100264)
(-9.06905e-09 -5.41519e-06 0.10064)
(6.51395e-07 4.54406e-06 0.0983227)
(5.17213e-09 5.322e-06 0.100639)
(-7.32726e-07 -4.46445e-06 0.0983242)
(-1.06876e-06 1.22091e-06 0.0924181)
(9.91577e-07 -1.2155e-06 0.0924196)
(-5.44515e-06 -1.37098e-08 0.100639)
(4.53196e-06 6.33687e-07 0.0983225)
(5.3515e-06 8.1581e-09 0.100639)
(-4.45822e-06 -7.19004e-07 0.0983239)
(3.21206e-07 -3.15307e-07 0.100986)
(-3.15351e-07 3.20717e-07 0.100986)
(3.28572e-07 3.10354e-07 0.100986)
(-3.18694e-07 -3.20816e-07 0.100986)
(3.2181e-07 -3.15758e-07 0.100986)
(-3.15731e-07 3.21291e-07 0.100986)
(3.28861e-07 3.11088e-07 0.100986)
(9.73242e-06 -4.47049e-08 0.100938)
(-8.38359e-06 2.56793e-06 0.100715)
(-2.64978e-07 -1.18672e-07 0.100986)
(-2.15603e-07 3.7634e-07 0.100985)
(-9.80979e-06 4.07765e-08 0.100938)
(8.12711e-06 -2.66118e-06 0.100716)
(-2.62841e-07 -1.19301e-07 0.100986)
(1.16165e-06 -1.03424e-06 0.0924169)
(-1.15821e-06 9.66221e-07 0.0924193)
(-4.51639e-08 9.72547e-06 0.100938)
(-1.17389e-07 -2.61566e-07 0.100986)
(2.58392e-06 -8.40792e-06 0.100715)
(3.7764e-07 -2.10455e-07 0.100985)
(4.12615e-08 -9.80101e-06 0.100938)
(-1.17798e-07 -2.63097e-07 0.100986)
(-2.67748e-06 8.15406e-06 0.100716)
(-2.65051e-06 -3.13926e-06 0.100264)
(-3.13317e-06 -2.64541e-06 0.100263)
(3.51041e-05 3.51272e-05 0.100983)
(2.5918e-06 3.06126e-06 0.100265)
(3.05697e-06 2.58735e-06 0.100264)
(-9.39695e-09 -5.41621e-06 0.10064)
(6.51318e-07 4.54412e-06 0.0983227)
(4.99858e-09 5.32219e-06 0.100639)
(-7.33424e-07 -4.46513e-06 0.0983242)
(-1.06927e-06 1.2203e-06 0.0924181)
(9.92046e-07 -1.21578e-06 0.0924196)
(-5.44667e-06 -1.35505e-08 0.100639)
(4.5321e-06 6.32512e-07 0.0983225)
(5.35065e-06 8.1598e-09 0.100639)
(-4.45885e-06 -7.20694e-07 0.0983239)
(3.21599e-07 -3.15926e-07 0.100986)
(-3.15926e-07 3.21048e-07 0.100986)
(3.29091e-07 3.10624e-07 0.100986)
(-3.18248e-07 -3.20535e-07 0.100986)
(3.21599e-07 -3.15501e-07 0.100986)
(-3.15293e-07 3.20956e-07 0.100986)
(3.28534e-07 3.10919e-07 0.100986)
(9.7329e-06 -4.41692e-08 0.100938)
(-8.38279e-06 2.56771e-06 0.100715)
(-2.646e-07 -1.18927e-07 0.100986)
(-2.1537e-07 3.76109e-07 0.100985)
(-9.80845e-06 4.11318e-08 0.100938)
(8.12757e-06 -2.6617e-06 0.100716)
(-2.62702e-07 -1.1942e-07 0.100986)
(1.16051e-06 -1.03513e-06 0.0924169)
(-1.15914e-06 9.6604e-07 0.0924193)
(-4.60585e-08 9.72733e-06 0.100938)
(-1.17686e-07 -2.61923e-07 0.100986)
(2.58309e-06 -8.40697e-06 0.100715)
(3.77562e-07 -2.10813e-07 0.100985)
(4.17064e-08 -9.80222e-06 0.100938)
(-1.18026e-07 -2.63844e-07 0.100986)
(-2.67865e-06 8.15496e-06 0.100716)
(-2.65019e-06 -3.13921e-06 0.100264)
(-3.13308e-06 -2.64439e-06 0.100263)
(3.5104e-05 3.51275e-05 0.100983)
(2.59289e-06 3.06202e-06 0.100265)
(3.0575e-06 2.58812e-06 0.100264)
(-9.63039e-09 -5.41468e-06 0.10064)
(6.51305e-07 4.54425e-06 0.0983227)
(4.60271e-09 5.32157e-06 0.100639)
(-7.32832e-07 -4.46432e-06 0.0983242)
(-1.06887e-06 1.22065e-06 0.0924181)
(9.92289e-07 -1.21494e-06 0.0924196)
(-5.44445e-06 -1.35157e-08 0.100639)
(4.53184e-06 6.33019e-07 0.0983225)
(5.35075e-06 8.45617e-09 0.100639)
(-4.45587e-06 -7.1853e-07 0.0983239)
(3.21169e-07 -3.15511e-07 0.100986)
(-3.15663e-07 3.20683e-07 0.100986)
(3.28866e-07 3.10433e-07 0.100986)
(-3.18566e-07 -3.20083e-07 0.100986)
(3.21294e-07 -3.15758e-07 0.100986)
(-3.15553e-07 3.21419e-07 0.100986)
(3.2758e-07 3.12099e-07 0.100986)
(9.73208e-06 -4.44034e-08 0.100938)
(-8.38351e-06 2.5675e-06 0.100715)
(-2.64828e-07 -1.18643e-07 0.100986)
(-2.15711e-07 3.76603e-07 0.100985)
(-9.80913e-06 4.1191e-08 0.100938)
(8.12651e-06 -2.66112e-06 0.100716)
(-2.62498e-07 -1.19177e-07 0.100986)
(1.16065e-06 -1.03505e-06 0.0924169)
(-1.15839e-06 9.66422e-07 0.0924193)
(-4.64922e-08 9.72784e-06 0.100938)
(-1.17657e-07 -2.62244e-07 0.100986)
(2.58294e-06 -8.40778e-06 0.100715)
(3.77757e-07 -2.10809e-07 0.100985)
(4.12203e-08 -9.80467e-06 0.100938)
(-1.18063e-07 -2.634e-07 0.100986)
(-2.67821e-06 8.15389e-06 0.100716)
(-2.64995e-06 -3.13875e-06 0.100264)
(-3.13282e-06 -2.64498e-06 0.100263)
(3.51039e-05 3.51276e-05 0.100983)
(2.59141e-06 3.06105e-06 0.100265)
(3.05641e-06 2.58664e-06 0.100264)
(-9.61589e-09 -5.41337e-06 0.10064)
(6.51929e-07 4.54338e-06 0.0983227)
(4.67125e-09 5.32264e-06 0.100639)
(-7.32053e-07 -4.46172e-06 0.0983242)
(-1.06778e-06 1.22007e-06 0.0924181)
(9.84943e-07 -1.21262e-06 0.0924196)
(-5.44313e-06 -1.26332e-08 0.100639)
(4.52789e-06 6.32575e-07 0.0983225)
(5.35101e-06 8.30413e-09 0.100639)
(-4.45468e-06 -7.17106e-07 0.098324)
(3.21233e-07 -3.17015e-07 0.100986)
(-3.16716e-07 3.21125e-07 0.100986)
(3.27431e-07 3.12854e-07 0.100986)
(-3.06924e-07 -3.06013e-07 0.100986)
(3.06925e-07 -3.04587e-07 0.100986)
(-3.05033e-07 3.08625e-07 0.100986)
(3.04886e-07 3.04908e-07 0.100986)
(9.73145e-06 -4.43971e-08 0.100938)
(-8.38371e-06 2.56785e-06 0.100715)
(-2.63112e-07 -1.18602e-07 0.100986)
(-2.14651e-07 3.75396e-07 0.100985)
(-9.80915e-06 4.10483e-08 0.100938)
(8.12653e-06 -2.66076e-06 0.100716)
(-2.60188e-07 -1.18207e-07 0.100986)
(1.16113e-06 -1.03475e-06 0.0924169)
(-1.1598e-06 9.65958e-07 0.0924193)
(-4.63895e-08 9.72616e-06 0.100938)
(-1.18366e-07 -2.60855e-07 0.100986)
(2.58293e-06 -8.40776e-06 0.100715)
(3.75742e-07 -2.09721e-07 0.100985)
(4.11596e-08 -9.80378e-06 0.100938)
(-1.1751e-07 -2.61675e-07 0.100986)
(-2.67619e-06 8.1527e-06 0.100716)
(-2.65105e-06 -3.13983e-06 0.100264)
(-3.13402e-06 -2.64502e-06 0.100263)
(3.51054e-05 3.51274e-05 0.100983)
(2.59179e-06 3.06124e-06 0.100265)
(3.05547e-06 2.58753e-06 0.100264)
(1.87548e-08 -5.33315e-06 0.10064)
(6.47384e-07 4.52298e-06 0.0983227)
(1.45319e-09 5.30404e-06 0.100639)
(-7.46569e-07 -4.2441e-06 0.0983245)
(-1.0381e-06 1.18571e-06 0.0924181)
(9.5308e-07 -1.09463e-06 0.0924198)
(-5.35401e-06 2.05149e-08 0.10064)
(4.51858e-06 6.35195e-07 0.0983225)
(5.32869e-06 5.96235e-09 0.100639)
(-4.24883e-06 -7.41372e-07 0.0983243)
(3.31006e-07 -3.27799e-07 0.100986)
(-3.30615e-07 3.32418e-07 0.100986)
(3.30202e-07 3.27471e-07 0.100986)
(-1.97565e-07 -2.00147e-07 0.100986)
(1.93947e-07 -1.94209e-07 0.100986)
(-1.99539e-07 2.01623e-07 0.100986)
(1.96109e-07 2.03096e-07 0.100986)
(9.66241e-06 -2.79949e-08 0.100938)
(-8.36712e-06 2.56252e-06 0.100715)
(-2.58411e-07 -1.35716e-07 0.100986)
(-2.07225e-07 3.49203e-07 0.100985)
(-9.78865e-06 3.91332e-08 0.100938)
(8.01973e-06 -2.61392e-06 0.100716)
(-2.89279e-07 -7.32598e-08 0.100986)
(1.1622e-06 -1.03605e-06 0.0924169)
(-1.12562e-06 9.93954e-07 0.0924194)
(-3.0217e-08 9.66059e-06 0.100938)
(-1.36923e-07 -2.52642e-07 0.100986)
(2.5731e-06 -8.38754e-06 0.100715)
(3.44728e-07 -1.99395e-07 0.100985)
(3.77636e-08 -9.78379e-06 0.100938)
(-7.56516e-08 -2.84266e-07 0.100986)
(-2.62629e-06 8.04115e-06 0.100716)
(-2.63992e-06 -3.13695e-06 0.100264)
(-3.13265e-06 -2.63305e-06 0.100263)
(3.50697e-05 3.50919e-05 0.100983)
(2.54996e-06 3.07739e-06 0.100265)
(3.07094e-06 2.54538e-06 0.100265)
(5.88723e-06 -2.2657e-06 0.10064)
(1.53687e-06 -5.14237e-06 0.0983095)
(-1.10849e-06 4.19431e-06 0.100638)
(-3.11387e-06 3.91962e-05 0.0983995)
(-1.84287e-06 -1.35477e-06 0.0924137)
(2.35479e-06 1.28627e-05 0.0924419)
(-2.25326e-06 5.91148e-06 0.10064)
(-5.17648e-06 1.55552e-06 0.0983094)
(4.19449e-06 -1.10286e-06 0.100638)
(3.92122e-05 -3.10292e-06 0.0983993)
(3.19355e-07 -3.19327e-07 0.100987)
(-3.24714e-07 3.28192e-07 0.100987)
(3.20825e-07 3.32184e-07 0.100987)
(-1.80311e-06 -1.76794e-06 0.100982)
(1.78089e-06 -1.76497e-06 0.100982)
(-1.78502e-06 1.79576e-06 0.100982)
(1.77816e-06 1.80058e-06 0.100982)
(7.51022e-06 9.48557e-07 0.100939)
(-5.24289e-06 1.43576e-06 0.100711)
(-6.20342e-08 -3.2402e-07 0.100987)
(1.65583e-06 -1.22517e-06 0.100986)
(-8.72478e-06 -2.15487e-07 0.100938)
(-3.78345e-06 1.67447e-06 0.100725)
(8.44003e-10 3.26166e-07 0.100985)
(-1.43726e-06 -1.80744e-06 0.0924129)
(1.28877e-05 2.31989e-06 0.0924412)
(9.38983e-07 7.51734e-06 0.100939)
(-3.27841e-07 -5.84688e-08 0.100987)
(1.43615e-06 -5.25935e-06 0.100711)
(-1.23914e-06 1.65985e-06 0.100986)
(-2.21063e-07 -8.71979e-06 0.100938)
(3.1232e-07 6.69295e-09 0.100985)
(1.65823e-06 -3.76329e-06 0.100725)
(-3.07528e-06 -4.04324e-06 0.100262)
(-4.04031e-06 -3.06141e-06 0.100261)
(3.33817e-05 3.34071e-05 0.100984)
(5.95587e-06 2.80017e-06 0.100267)
(2.76996e-06 5.93534e-06 0.100267)
(4.13519e-06 -1.85601e-05 0.100664)
(2.35944e-05 -6.69715e-05 0.097968)
(-1.42279e-05 -9.96484e-06 0.100637)
(9.07499e-06 9.31614e-05 0.0989002)
(1.0069e-05 -6.29824e-05 0.0923168)
(-4.57336e-05 0.000129093 0.0926269)
(-1.85521e-05 4.15231e-06 0.100664)
(-6.72706e-05 2.35757e-05 0.0979678)
(-1.00361e-05 -1.42807e-05 0.100637)
(9.33299e-05 9.01018e-06 0.0989002)
(6.54493e-06 -6.50403e-06 0.100983)
(-6.53921e-06 6.56062e-06 0.100983)
(6.53208e-06 6.57148e-06 0.100983)
(-3.14989e-05 -3.13952e-05 0.100922)
(3.14928e-05 -3.14041e-05 0.100922)
(-3.14798e-05 3.15096e-05 0.100922)
(3.14926e-05 3.15201e-05 0.100922)
(2.23897e-05 -2.07696e-06 0.100946)
(1.73275e-05 -1.05418e-05 0.1007)
(6.2025e-06 -3.41759e-06 0.100986)
(1.8759e-05 -1.15375e-05 0.100985)
(-3.0724e-07 -2.9271e-06 0.100942)
(-5.90845e-06 6.45104e-06 0.100739)
(1.0504e-05 -1.20743e-06 0.100971)
(-6.29765e-05 1.01768e-05 0.092316)
(0.000128814 -4.54351e-05 0.0926261)
(-2.10342e-06 2.23636e-05 0.100946)
(-3.44486e-06 6.19113e-06 0.100986)
(-1.06134e-05 1.73251e-05 0.1007)
(-1.15863e-05 1.8761e-05 0.100985)
(-2.95633e-06 -3.07573e-07 0.100942)
(-1.24433e-06 1.04583e-05 0.100971)
(6.32701e-06 -5.8922e-06 0.100739)
(3.92896e-05 4.22563e-05 0.100272)
(4.20208e-05 3.92809e-05 0.100272)
(3.26425e-05 3.27377e-05 0.100982)
(-1.49647e-05 -3.17168e-05 0.100321)
(-3.17739e-05 -1.47488e-05 0.10032)
(-1.16568e-05 -0.000139094 0.100614)
(-0.000128596 -0.00017632 0.097387)
(-2.0904e-05 -8.81597e-05 0.10059)
(-0.00019825 -0.000126745 0.0999268)
(0.000254321 -0.000370341 0.0925939)
(0.000155766 -0.000290843 0.0969665)
(-0.000139297 -1.17369e-05 0.100614)
(-0.00017693 -0.000127791 0.0973865)
(-8.89576e-05 -2.08652e-05 0.10059)
(-0.000127016 -0.000198388 0.0999266)
(-9.27178e-06 -9.17921e-06 0.100843)
(-1.3234e-05 -3.71725e-05 0.100909)
(-3.73116e-05 -1.31417e-05 0.100909)
(-3.78554e-05 -3.76999e-05 0.100834)
(-1.1373e-05 -1.12814e-05 0.100908)
(-1.02771e-05 -3.57997e-05 0.100841)
(-3.5946e-05 -1.01908e-05 0.100841)
(0.00010492 4.32541e-06 0.100765)
(0.000100278 -7.043e-05 0.100773)
(6.16106e-05 -1.70054e-05 0.10091)
(5.2011e-05 -4.05405e-05 0.100826)
(8.60203e-05 -1.63526e-05 0.100896)
(7.80368e-05 -3.33994e-05 0.10067)
(5.32651e-05 -1.04204e-05 0.100834)
(-0.000370306 0.000254064 0.0925935)
(-0.000290957 0.000155754 0.0969663)
(4.31315e-06 0.000104778 0.100765)
(-1.70709e-05 6.15677e-05 0.10091)
(-7.07165e-05 0.000100327 0.100773)
(-4.06602e-05 5.19796e-05 0.100826)
(-1.63525e-05 8.59057e-05 0.100896)
(-1.04869e-05 5.32349e-05 0.100834)
(-3.347e-05 7.78593e-05 0.10067)
(0.000204245 7.36302e-05 0.100242)
(7.36392e-05 0.000204422 0.100243)
(5.31138e-05 5.31214e-05 0.100821)
(8.08209e-06 -8.17733e-05 0.100868)
(-8.18842e-05 8.01727e-06 0.100868)
(8.21595e-07 -4.76782e-06 0.0983243)
(2.7733e-06 -8.19994e-06 0.100716)
(1.30844e-06 -1.69032e-06 0.0924201)
(3.09221e-06 -2.41651e-06 0.100265)
(2.38727e-06 -3.06754e-06 0.100265)
(1.65712e-06 -1.29029e-06 0.0924208)
(8.17616e-06 -2.75543e-06 0.100716)
(4.73498e-06 -8.19005e-07 0.0983244)