/*--------------------------------*- C++ -*----------------------------------*\
| =========                 |                                                 |
| \\      /  F ield         | OpenFOAM: The Open Source CFD Toolbox           |
|  \\    /   O peration     | Version:  2206                                  |
|   \\  /    A nd           | Website:  www.openfoam.com                      |
|    \\/     M anipulation  |                                                 |
\*---------------------------------------------------------------------------*/
FoamFile
{
    version     2.0;
    format      ascii;
    arch        "LSB;label=32;scalar=64";
    class       volScalarField;
    location    "12.5";
    object      k;
}
// * * * * * * * * * * * * * * * * * * * * * * * * * * * * * * * * * * * * * //

dimensions      [0 2 -2 0 0 0 0];

internalField   nonuniform List<scalar> 
28673
(
3.16668e-05
3.15318e-05
3.17552e-05
3.16669e-05
3.16669e-05
3.15318e-05
3.17548e-05
3.16661e-05
3.16666e-05
3.15313e-05
3.17478e-05
3.1657e-05
3.16591e-05
3.15216e-05
3.17449e-05
3.16563e-05
3.16562e-05
3.15207e-05
3.17449e-05
3.16563e-05
3.16562e-05
3.15207e-05
3.17449e-05
3.16563e-05
3.16563e-05
3.15207e-05
3.17449e-05
3.16563e-05
3.16563e-05
3.15207e-05
3.17449e-05
3.16563e-05
3.16563e-05
3.15207e-05
3.17449e-05
3.16563e-05
3.16563e-05
3.15207e-05
3.17449e-05
3.16563e-05
3.16563e-05
3.15207e-05
3.17449e-05
3.16563e-05
3.16563e-05
3.15209e-05
3.17472e-05
3.16713e-05
3.16713e-05
3.15449e-05
3.16668e-05
3.15331e-05
3.16668e-05
3.15341e-05
3.16668e-05
3.16668e-05
3.16668e-05
3.16668e-05
3.15323e-05
3.15331e-05
3.16669e-05
3.16666e-05
3.16668e-05
3.16669e-05
3.16667e-05
3.1533e-05
3.16669e-05
3.16669e-05
3.16668e-05
3.15329e-05
3.15332e-05
3.15335e-05
3.16671e-05
3.1667e-05
3.16668e-05
3.16666e-05
3.15323e-05
3.15325e-05
3.16671e-05
3.16668e-05
3.1667e-05
3.16666e-05
3.16667e-05
3.16666e-05
3.16665e-05
3.15322e-05
3.15328e-05
3.16668e-05
3.16667e-05
3.16665e-05
3.15327e-05
3.15326e-05
3.15264e-05
3.16665e-05
3.16659e-05
3.16603e-05
3.16583e-05
3.15311e-05
3.15227e-05
3.16669e-05
3.16665e-05
3.16625e-05
3.16627e-05
3.16662e-05
3.16585e-05
3.16596e-05
3.15319e-05
3.1528e-05
3.16662e-05
3.1662e-05
3.16597e-05
3.15243e-05
3.15231e-05
3.15219e-05
3.16581e-05
3.16571e-05
3.16562e-05
3.16561e-05
3.15213e-05
3.15219e-05
3.16596e-05
3.16596e-05
3.16563e-05
3.16562e-05
3.16577e-05
3.16563e-05
3.16562e-05
3.15243e-05
3.15217e-05
3.16578e-05
3.16563e-05
3.16562e-05
3.15218e-05
3.1521e-05
3.15218e-05
3.16563e-05
3.16563e-05
3.16562e-05
3.16562e-05
3.1521e-05
3.15218e-05
3.16564e-05
3.16563e-05
3.16563e-05
3.16561e-05
3.16563e-05
3.16563e-05
3.16562e-05
3.15209e-05
3.15217e-05
3.16564e-05
3.16563e-05
3.16563e-05
3.15218e-05
3.1521e-05
3.15219e-05
3.16563e-05
3.16563e-05
3.16562e-05
3.16562e-05
3.1521e-05
3.15218e-05
3.16564e-05
3.16563e-05
3.16563e-05
3.16561e-05
3.16563e-05
3.16563e-05
3.16562e-05
3.15209e-05
3.15217e-05
3.16564e-05
3.16563e-05
3.16563e-05
3.15218e-05
3.1521e-05
3.15218e-05
3.16563e-05
3.16563e-05
3.16562e-05
3.16562e-05
3.1521e-05
3.15218e-05
3.16564e-05
3.16563e-05
3.16563e-05
3.16562e-05
3.16564e-05
3.16563e-05
3.16562e-05
3.15209e-05
3.15218e-05
3.16564e-05
3.16563e-05
3.16563e-05
3.15218e-05
3.1521e-05
3.15218e-05
3.16563e-05
3.16563e-05
3.16562e-05
3.16562e-05
3.1521e-05
3.15218e-05
3.16564e-05
3.16563e-05
3.16563e-05
3.16561e-05
3.16563e-05
3.16563e-05
3.16562e-05
3.15209e-05
3.15218e-05
3.16564e-05
3.16563e-05
3.16563e-05
3.15218e-05
3.1521e-05
3.15218e-05
3.16563e-05
3.16563e-05
3.16562e-05
3.16562e-05
3.1521e-05
3.15218e-05
3.16564e-05
3.16563e-05
3.16563e-05
3.16562e-05
3.16564e-05
3.16563e-05
3.16562e-05
3.15209e-05
3.15218e-05
3.16564e-05
3.16563e-05
3.16563e-05
3.15218e-05
3.1521e-05
3.15218e-05
3.16563e-05
3.16563e-05
3.16562e-05
3.16562e-05
3.1521e-05
3.15218e-05
3.16564e-05
3.16563e-05
3.16563e-05
3.16562e-05
3.16563e-05
3.16563e-05
3.16562e-05
3.15209e-05
3.15217e-05
3.16564e-05
3.16563e-05
3.16563e-05
3.15218e-05
3.1521e-05
3.15219e-05
3.16564e-05
3.16564e-05
3.16564e-05
3.16564e-05
3.1521e-05
3.15219e-05
3.16564e-05
3.16563e-05
3.16564e-05
3.16563e-05
3.16564e-05
3.16564e-05
3.16564e-05
3.15209e-05
3.15218e-05
3.16564e-05
3.16564e-05
3.16564e-05
3.1522e-05
3.15211e-05
3.15316e-05
3.16564e-05
3.16564e-05
3.1665e-05
3.1665e-05
3.15211e-05
3.15316e-05
3.16564e-05
3.16563e-05
3.16651e-05
3.1665e-05
3.16564e-05
3.16651e-05
3.16651e-05
3.1521e-05
3.15315e-05
3.16564e-05
3.16651e-05
3.16651e-05
3.15315e-05
3.15452e-05
3.16713e-05
3.16713e-05
3.15452e-05
3.16713e-05
3.16713e-05
3.17472e-05
3.17472e-05
3.17472e-05
3.16713e-05
3.15451e-05
3.16714e-05
3.24175e-05
6.22227e-05
3.24177e-05
6.22206e-05
8.44684e-05
8.44612e-05
3.24177e-05
6.22225e-05
3.17553e-05
3.17551e-05
3.17552e-05
3.17552e-05
3.17551e-05
3.1755e-05
3.11311e-05
3.21542e-05
3.17287e-05
3.16669e-05
3.11313e-05
3.21535e-05
3.17287e-05
8.44671e-05
3.11308e-05
3.17286e-05
3.1667e-05
3.1131e-05
3.17286e-05
3.21538e-05
3.37041e-05
3.37042e-05
3.1533e-05
3.37063e-05
3.37065e-05
3.24195e-05
6.2221e-05
3.24199e-05
6.22186e-05
8.44574e-05
8.44541e-05
3.24199e-05
6.22234e-05
3.242e-05
6.22208e-05
3.17552e-05
3.17551e-05
3.1755e-05
3.1755e-05
3.17549e-05
3.17549e-05
3.17547e-05
3.11318e-05
3.21564e-05
3.17286e-05
3.16669e-05
3.11315e-05
3.21554e-05
3.17286e-05
8.44599e-05
8.44544e-05
3.11314e-05
3.17285e-05
3.21557e-05
3.16669e-05
3.1131e-05
3.17285e-05
3.2155e-05
3.37113e-05
3.37114e-05
3.1533e-05
3.37123e-05
3.37125e-05
3.24181e-05
6.22207e-05
3.24203e-05
6.22247e-05
8.44606e-05
8.44806e-05
3.24198e-05
6.22225e-05
3.24212e-05
6.22221e-05
3.17545e-05
3.17548e-05
3.17544e-05
3.17503e-05
3.1748e-05
3.17507e-05
3.17485e-05
3.113e-05
3.21566e-05
3.1728e-05
3.16642e-05
3.11311e-05
3.21529e-05
3.1727e-05
8.44541e-05
8.44554e-05
3.11298e-05
3.1728e-05
3.21569e-05
3.16662e-05
3.11308e-05
3.17273e-05
3.21545e-05
3.37137e-05
3.37138e-05
3.15311e-05
3.37119e-05
3.3712e-05
3.2408e-05
6.22525e-05
3.24118e-05
6.22504e-05
8.44886e-05
8.4487e-05
3.24093e-05
6.22509e-05
3.24164e-05
6.22534e-05
3.17463e-05
3.17481e-05
3.17466e-05
3.1745e-05
3.1745e-05
3.1745e-05
3.17449e-05
3.11187e-05
3.21463e-05
3.17196e-05
3.16566e-05
3.11194e-05
3.21433e-05
3.17189e-05
8.44864e-05
8.44862e-05
3.11183e-05
3.172e-05
3.21503e-05
3.16575e-05
3.11193e-05
3.1719e-05
3.2145e-05
3.37028e-05
3.3703e-05
3.1522e-05
3.36981e-05
3.36982e-05
3.24077e-05
6.22519e-05
3.24086e-05
6.22501e-05
8.4488e-05
8.44868e-05
3.24083e-05
6.22546e-05
3.24091e-05
6.22526e-05
3.17451e-05
3.17451e-05
3.17451e-05
3.17449e-05
3.1745e-05
3.1745e-05
3.1745e-05
3.11186e-05
3.21446e-05
3.17183e-05
3.16564e-05
3.11184e-05
3.2143e-05
3.17184e-05
8.44869e-05
8.44849e-05
3.11183e-05
3.17183e-05
3.21449e-05
3.16564e-05
3.1118e-05
3.17184e-05
3.21433e-05
3.36986e-05
3.36987e-05
3.15219e-05
3.3698e-05
3.36981e-05
3.24077e-05
6.22518e-05
3.24087e-05
6.225e-05
8.4488e-05
8.44868e-05
3.24083e-05
6.22544e-05
3.24091e-05
6.22525e-05
3.17451e-05
3.17451e-05
3.17451e-05
3.17449e-05
3.1745e-05
3.1745e-05
3.1745e-05
3.11186e-05
3.21446e-05
3.17183e-05
3.16564e-05
3.11184e-05
3.2143e-05
3.17184e-05
8.44866e-05
8.44849e-05
3.11183e-05
3.17183e-05
3.21447e-05
3.16564e-05
3.1118e-05
3.17184e-05
3.21433e-05
3.36987e-05
3.36988e-05
3.15219e-05
3.3698e-05
3.36981e-05
3.24077e-05
6.22518e-05
3.24087e-05
6.225e-05
8.4488e-05
8.44868e-05
3.24083e-05
6.22544e-05
3.24091e-05
6.22525e-05
3.17451e-05
3.17451e-05
3.17451e-05
3.17449e-05
3.1745e-05
3.1745e-05
3.1745e-05
3.11186e-05
3.21446e-05
3.17183e-05
3.16564e-05
3.11184e-05
3.2143e-05
3.17184e-05
8.44866e-05
8.44848e-05
3.11183e-05
3.17183e-05
3.21447e-05
3.16564e-05
3.1118e-05
3.17184e-05
3.21433e-05
3.36987e-05
3.36988e-05
3.15219e-05
3.3698e-05
3.36981e-05
3.24077e-05
6.22518e-05
3.24087e-05
6.225e-05
8.4488e-05
8.44868e-05
3.24083e-05
6.22544e-05
3.24091e-05
6.22525e-05
3.17451e-05
3.17451e-05
3.17451e-05
3.17449e-05
3.1745e-05
3.1745e-05
3.1745e-05
3.11186e-05
3.21446e-05
3.17183e-05
3.16564e-05
3.11184e-05
3.2143e-05
3.17184e-05
8.44866e-05
8.44848e-05
3.11183e-05
3.17183e-05
3.21447e-05
3.16564e-05
3.1118e-05
3.17184e-05
3.21433e-05
3.36987e-05
3.36988e-05
3.15219e-05
3.3698e-05
3.36981e-05
3.24077e-05
6.22518e-05
3.24087e-05
6.22501e-05
8.4488e-05
8.44869e-05
3.24083e-05
6.22544e-05
3.24091e-05
6.22526e-05
3.17451e-05
3.17451e-05
3.17451e-05
3.17449e-05
3.1745e-05
3.1745e-05
3.1745e-05
3.11186e-05
3.21446e-05
3.17183e-05
3.16564e-05
3.11184e-05
3.2143e-05
3.17184e-05
8.44866e-05
8.44849e-05
3.11184e-05
3.17183e-05
3.21447e-05
3.16564e-05
3.11182e-05
3.17184e-05
3.21432e-05
3.36987e-05
3.36988e-05
3.15219e-05
3.3698e-05
3.36981e-05
3.24079e-05
6.22519e-05
3.24088e-05
6.22554e-05
8.44877e-05
8.44909e-05
3.24085e-05
6.22542e-05
3.24093e-05
6.22577e-05
3.17451e-05
3.17451e-05
3.17451e-05
3.17449e-05
3.1745e-05
3.1745e-05
3.1745e-05
3.11185e-05
3.21436e-05
3.17183e-05
3.16564e-05
3.11184e-05
3.21414e-05
3.17184e-05
8.44865e-05
8.449e-05
3.11184e-05
3.17183e-05
3.21437e-05
3.16564e-05
3.11182e-05
3.17184e-05
3.21419e-05
3.36985e-05
3.36986e-05
3.15219e-05
3.3698e-05
3.36982e-05
3.24107e-05
6.22442e-05
3.24121e-05
6.22574e-05
8.44588e-05
8.44775e-05
3.24113e-05
6.22469e-05
3.24126e-05
6.22601e-05
3.17451e-05
3.17451e-05
3.17451e-05
3.1745e-05
3.1745e-05
3.1745e-05
3.1745e-05
3.11186e-05
3.21481e-05
3.17183e-05
3.16564e-05
3.11184e-05
3.21439e-05
3.17184e-05
8.44599e-05
8.44779e-05
3.11185e-05
3.17183e-05
3.21489e-05
3.16564e-05
3.11183e-05
3.17184e-05
3.21448e-05
3.37032e-05
3.37032e-05
3.15219e-05
3.37056e-05
3.37056e-05
3.24092e-05
6.22174e-05
3.24145e-05
6.22579e-05
8.43707e-05
8.4392e-05
3.24102e-05
6.22203e-05
3.2415e-05
6.22607e-05
3.17451e-05
3.17451e-05
3.17451e-05
3.17455e-05
3.17455e-05
3.17455e-05
3.17455e-05
3.1119e-05
3.21592e-05
3.17185e-05
3.16573e-05
3.11189e-05
3.2132e-05
3.17185e-05
8.43717e-05
8.43929e-05
3.11188e-05
3.17185e-05
3.21599e-05
3.16572e-05
3.11187e-05
3.17185e-05
3.21324e-05
3.37075e-05
3.37075e-05
3.15233e-05
3.37225e-05
3.37221e-05
3.13114e-05
6.06417e-05
3.23981e-05
4.7105e-05
7.80561e-05
4.31462e-05
3.13118e-05
6.06491e-05
3.23989e-05
4.71077e-05
3.17594e-05
3.17566e-05
3.17566e-05
3.17397e-05
3.17592e-05
3.17554e-05
3.17555e-05
3.11325e-05
3.21578e-05
3.17236e-05
3.16826e-05
3.11318e-05
3.32162e-05
3.1734e-05
7.80565e-05
4.31454e-05
3.11324e-05
3.17236e-05
3.21578e-05
3.16826e-05
3.11316e-05
3.17339e-05
3.32159e-05
3.39455e-05
3.39461e-05
3.15755e-05
3.36564e-05
3.36558e-05
6.22221e-05
3.21533e-05
8.44693e-05
3.37043e-05
3.37011e-05
8.44645e-05
3.21526e-05
6.22206e-05
8.44755e-05
8.44643e-05
8.44699e-05
3.37041e-05
3.15344e-05
3.37063e-05
3.37028e-05
8.44581e-05
8.44639e-05
8.44619e-05
8.4469e-05
3.15336e-05
3.37098e-05
3.37069e-05
3.37082e-05
3.3705e-05
3.24175e-05
6.22229e-05
3.24178e-05
6.22212e-05
3.11311e-05
3.21541e-05
3.17286e-05
3.16668e-05
3.11313e-05
3.21525e-05
3.17286e-05
3.11312e-05
3.21552e-05
3.17287e-05
3.16668e-05
3.11314e-05
3.2154e-05
3.17287e-05
3.24191e-05
6.22195e-05
6.22208e-05
3.24187e-05
3.24192e-05
6.22199e-05
6.22214e-05
3.24188e-05
3.11317e-05
3.16668e-05
3.21536e-05
3.17285e-05
3.21546e-05
3.17286e-05
3.11316e-05
3.11317e-05
3.16668e-05
3.2155e-05
3.17286e-05
3.21562e-05
3.17286e-05
3.11316e-05
3.37068e-05
3.37041e-05
3.15332e-05
3.37085e-05
3.37055e-05
8.44645e-05
8.44567e-05
8.44568e-05
8.44611e-05
3.15323e-05
3.37117e-05
3.37088e-05
3.37106e-05
3.3708e-05
8.44517e-05
8.4457e-05
3.11316e-05
3.16669e-05
3.21531e-05
3.17286e-05
3.24174e-05
6.2222e-05
3.11315e-05
3.16667e-05
3.17285e-05
3.21528e-05
3.24192e-05
6.22219e-05
6.22234e-05
3.2419e-05
3.11321e-05
3.16669e-05
3.21537e-05
3.17285e-05
3.21549e-05
3.17285e-05
3.11317e-05
3.24189e-05
6.22212e-05
6.22229e-05
3.24187e-05
3.11319e-05
3.16667e-05
3.17285e-05
3.21534e-05
3.17285e-05
3.21549e-05
3.11315e-05
3.24175e-05
6.22214e-05
3.24178e-05
6.22196e-05
3.11311e-05
3.17286e-05
3.21541e-05
3.16668e-05
3.11313e-05
3.17286e-05
3.21525e-05
3.24174e-05
6.22253e-05
3.24177e-05
6.2223e-05
3.11317e-05
3.16669e-05
3.21546e-05
3.17286e-05
3.21558e-05
3.17287e-05
3.11315e-05
3.24192e-05
6.22183e-05
6.222e-05
3.24188e-05
3.11317e-05
3.16668e-05
3.17285e-05
3.21536e-05
3.17286e-05
3.21546e-05
3.11316e-05
3.24191e-05
6.22215e-05
6.22232e-05
3.24187e-05
3.15331e-05
3.37021e-05
3.37043e-05
8.44692e-05
8.44593e-05
8.44671e-05
3.15322e-05
3.37065e-05
3.37085e-05
3.37049e-05
3.37065e-05
8.44612e-05
8.44684e-05
3.11308e-05
3.17286e-05
3.21544e-05
3.16668e-05
3.1131e-05
3.17286e-05
3.21528e-05
3.24169e-05
3.24173e-05
6.22229e-05
3.24168e-05
6.22266e-05
3.24172e-05
6.22242e-05
3.11314e-05
3.1667e-05
3.17285e-05
3.21541e-05
3.17285e-05
3.21556e-05
3.1131e-05
3.11314e-05
3.16668e-05
3.17285e-05
3.21539e-05
3.17285e-05
3.21549e-05
3.11312e-05
3.24187e-05
6.22221e-05
6.22237e-05
3.24181e-05
3.24187e-05
6.22228e-05
6.22244e-05
3.2418e-05
8.44767e-05
8.44655e-05
8.44775e-05
8.44663e-05
3.15322e-05
3.37099e-05
3.371e-05
3.37083e-05
3.37084e-05
8.44592e-05
8.4465e-05
8.44601e-05
8.44659e-05
8.44581e-05
8.44551e-05
8.44617e-05
8.44573e-05
3.37114e-05
3.37087e-05
3.15339e-05
3.37122e-05
3.371e-05
8.44543e-05
8.44554e-05
8.44549e-05
8.44575e-05
3.1533e-05
3.37133e-05
3.37123e-05
3.37136e-05
3.37116e-05
3.24197e-05
6.22202e-05
3.24204e-05
6.22192e-05
3.1132e-05
3.21558e-05
3.17285e-05
3.1667e-05
3.11322e-05
3.21546e-05
3.17285e-05
3.11322e-05
3.21571e-05
3.17286e-05
3.1667e-05
3.11322e-05
3.21558e-05
3.17286e-05
3.2421e-05
6.22185e-05
6.22189e-05
3.24196e-05
3.24212e-05
6.2221e-05
6.22197e-05
3.24197e-05
3.11319e-05
3.1667e-05
3.21549e-05
3.17283e-05
3.21566e-05
3.17284e-05
3.11313e-05
3.11322e-05
3.16668e-05
3.21557e-05
3.17283e-05
3.21577e-05
3.17285e-05
3.11315e-05
3.37134e-05
3.37108e-05
3.15331e-05
3.37138e-05
3.37109e-05
8.44524e-05
8.44497e-05
8.44562e-05
8.44547e-05
3.15321e-05
3.37134e-05
3.3711e-05
3.37149e-05
3.37124e-05
8.44522e-05
8.44511e-05
3.11322e-05
3.21558e-05
3.17286e-05
3.16671e-05
3.11321e-05
3.21548e-05
3.17286e-05
3.24197e-05
6.22217e-05
3.24201e-05
6.22201e-05
3.1132e-05
3.17286e-05
3.21557e-05
3.16668e-05
3.1132e-05
3.17285e-05
3.21545e-05
3.24213e-05
6.22205e-05
6.22212e-05
3.24205e-05
3.11326e-05
3.16671e-05
3.21555e-05
3.17284e-05
3.21568e-05
3.17285e-05
3.11321e-05
3.24211e-05
6.22197e-05
6.22207e-05
3.24203e-05
3.11325e-05
3.16667e-05
3.17284e-05
3.21552e-05
3.17284e-05
3.21567e-05
3.11322e-05
3.24196e-05
6.22188e-05
3.24204e-05
6.22177e-05
3.1132e-05
3.17285e-05
3.21557e-05
3.16667e-05
3.11322e-05
3.17285e-05
3.21546e-05
3.24195e-05
6.22217e-05
3.24203e-05
6.22207e-05
3.11318e-05
3.16668e-05
3.21552e-05
3.17284e-05
3.21574e-05
3.17285e-05
3.11312e-05
3.24211e-05
6.22197e-05
6.22184e-05
3.24197e-05
3.11319e-05
3.16666e-05
3.17282e-05
3.21548e-05
3.17284e-05
3.21566e-05
3.11313e-05
3.2421e-05
6.22208e-05
6.22211e-05
3.24196e-05
3.37087e-05
3.37103e-05
3.15331e-05
3.37095e-05
3.37116e-05
8.44611e-05
8.44567e-05
8.44522e-05
8.44551e-05
3.15322e-05
3.37117e-05
3.37136e-05
3.37114e-05
3.37131e-05
8.44546e-05
8.44568e-05
3.11315e-05
3.17285e-05
3.2156e-05
3.16667e-05
3.11318e-05
3.17284e-05
3.21548e-05
3.2419e-05
6.22224e-05
3.24199e-05
6.22209e-05
3.24189e-05
6.2223e-05
3.24198e-05
6.2222e-05
3.11314e-05
3.16668e-05
3.17283e-05
3.21555e-05
3.17284e-05
3.2157e-05
3.11309e-05
3.11314e-05
3.16667e-05
3.17282e-05
3.21551e-05
3.17283e-05
3.21569e-05
3.1131e-05
3.24206e-05
6.22203e-05
6.22212e-05
3.24191e-05
3.24206e-05
6.22221e-05
6.22224e-05
3.24191e-05
8.44592e-05
8.44562e-05
8.44601e-05
8.4457e-05
3.15322e-05
3.37133e-05
3.37134e-05
3.37137e-05
3.37139e-05
8.44554e-05
8.44565e-05
8.44562e-05
8.44573e-05
8.44556e-05
8.44647e-05
8.44557e-05
8.44574e-05
3.3714e-05
3.37135e-05
3.15323e-05
3.37121e-05
3.37129e-05
8.44865e-05
8.44757e-05
8.44816e-05
8.44617e-05
3.15302e-05
3.37043e-05
3.37109e-05
3.37123e-05
3.37138e-05
3.24182e-05
6.22232e-05
3.24209e-05
6.22386e-05
3.113e-05
3.21567e-05
3.1728e-05
3.16658e-05
3.11312e-05
3.21536e-05
3.17272e-05
3.113e-05
3.21574e-05
3.1728e-05
3.1664e-05
3.11313e-05
3.21534e-05
3.17269e-05
3.24189e-05
6.22497e-05
6.2233e-05
3.24121e-05
3.24189e-05
6.2253e-05
6.22492e-05
3.24122e-05
3.11284e-05
3.16635e-05
3.21477e-05
3.17218e-05
3.21547e-05
3.17247e-05
3.11209e-05
3.11284e-05
3.16608e-05
3.21461e-05
3.17214e-05
3.21539e-05
3.17242e-05
3.11208e-05
3.37142e-05
3.37119e-05
3.15286e-05
3.37108e-05
3.37082e-05
8.44573e-05
8.44752e-05
8.44874e-05
8.44873e-05
3.1525e-05
3.36994e-05
3.36975e-05
3.37101e-05
3.37082e-05
8.44839e-05
8.44837e-05
3.11314e-05
3.21573e-05
3.17283e-05
3.16665e-05
3.11319e-05
3.21552e-05
3.1728e-05
3.24196e-05
6.22203e-05
3.24215e-05
6.22209e-05
3.11315e-05
3.17283e-05
3.21572e-05
3.16662e-05
3.1132e-05
3.17279e-05
3.21548e-05
3.24207e-05
6.22396e-05
6.22243e-05
3.24169e-05
3.11311e-05
3.16654e-05
3.2152e-05
3.17246e-05
3.21567e-05
3.17271e-05
3.11263e-05
3.24204e-05
6.22382e-05
6.22228e-05
3.24167e-05
3.11312e-05
3.16653e-05
3.17246e-05
3.21516e-05
3.17271e-05
3.21565e-05
3.11262e-05
3.24181e-05
6.22226e-05
3.24208e-05
6.22372e-05
3.113e-05
3.1728e-05
3.21566e-05
3.16653e-05
3.11311e-05
3.17271e-05
3.21534e-05
3.2418e-05
6.22215e-05
3.24207e-05
6.22263e-05
3.11284e-05
3.16609e-05
3.21458e-05
3.17215e-05
3.21537e-05
3.17242e-05
3.11209e-05
3.24189e-05
6.22518e-05
6.22477e-05
3.24122e-05
3.11284e-05
3.16628e-05
3.17217e-05
3.21476e-05
3.17245e-05
3.21544e-05
3.11209e-05
3.24188e-05
6.22516e-05
6.22343e-05
3.24121e-05
3.37129e-05
3.37147e-05
3.15323e-05
3.37113e-05
3.37131e-05
8.44554e-05
8.44573e-05
8.44781e-05
8.44608e-05
3.15308e-05
3.37085e-05
3.37101e-05
3.37121e-05
3.37136e-05
8.448e-05
8.44612e-05
3.11298e-05
3.1728e-05
3.21568e-05
3.16654e-05
3.11309e-05
3.17271e-05
3.21537e-05
3.24177e-05
6.22205e-05
3.24204e-05
6.22211e-05
3.24177e-05
6.22229e-05
3.24204e-05
6.22277e-05
3.11284e-05
3.1665e-05
3.17222e-05
3.21501e-05
3.1725e-05
3.21557e-05
3.1121e-05
3.11283e-05
3.16628e-05
3.17217e-05
3.21479e-05
3.17246e-05
3.21547e-05
3.11209e-05
3.24187e-05
6.2239e-05
6.22228e-05
3.24122e-05
3.24186e-05
6.2253e-05
6.22357e-05
3.24122e-05
8.44568e-05
8.44661e-05
8.44576e-05
8.44668e-05
3.15284e-05
3.37043e-05
3.37044e-05
3.37122e-05
3.37123e-05
8.44877e-05
8.44771e-05
8.44886e-05
8.44779e-05
8.44875e-05
8.44863e-05
8.44884e-05
8.44886e-05
3.37029e-05
3.37098e-05
3.15221e-05
3.36982e-05
3.36992e-05
8.44859e-05
8.4487e-05
8.44879e-05
8.44892e-05
3.15211e-05
3.3698e-05
3.36979e-05
3.3699e-05
3.36993e-05
3.24082e-05
6.22533e-05
3.24121e-05
6.22525e-05
3.11187e-05
3.2148e-05
3.17199e-05
3.1657e-05
3.11197e-05
3.21439e-05
3.1719e-05
3.11188e-05
3.21471e-05
3.17197e-05
3.16565e-05
3.11197e-05
3.2144e-05
3.17189e-05
3.24092e-05
6.22501e-05
6.22507e-05
3.24077e-05
3.24094e-05
6.22523e-05
6.22529e-05
3.24078e-05
3.1119e-05
3.16563e-05
3.21432e-05
3.17183e-05
3.21455e-05
3.17184e-05
3.11187e-05
3.11191e-05
3.16562e-05
3.21437e-05
3.17183e-05
3.21458e-05
3.17184e-05
3.11188e-05
3.36996e-05
3.36977e-05
3.15219e-05
3.36979e-05
3.36945e-05
8.44849e-05
8.4483e-05
8.44866e-05
8.44877e-05
3.1521e-05
3.36979e-05
3.36945e-05
3.36989e-05
3.36956e-05
8.44828e-05
8.44841e-05
3.11191e-05
3.21524e-05
3.17217e-05
3.16578e-05
3.11237e-05
3.21456e-05
3.17199e-05
3.2409e-05
6.22495e-05
3.24162e-05
6.22537e-05
3.1119e-05
3.17217e-05
3.21523e-05
3.16578e-05
3.11236e-05
3.17199e-05
3.21452e-05
3.241e-05
6.22529e-05
6.22539e-05
3.24083e-05
3.11193e-05
3.16567e-05
3.21439e-05
3.17184e-05
3.21467e-05
3.17188e-05
3.11189e-05
3.24097e-05
6.22529e-05
6.22541e-05
3.2408e-05
3.11192e-05
3.16566e-05
3.17184e-05
3.21434e-05
3.17187e-05
3.21464e-05
3.11188e-05
3.24081e-05
6.22523e-05
3.24121e-05
6.22511e-05
3.11187e-05
3.17198e-05
3.2148e-05
3.16568e-05
3.11197e-05
3.17189e-05
3.21439e-05
3.2408e-05
6.22544e-05
3.24119e-05
6.22532e-05
3.1119e-05
3.16564e-05
3.2143e-05
3.17183e-05
3.21452e-05
3.17184e-05
3.11184e-05
3.24093e-05
6.22508e-05
6.22516e-05
3.24078e-05
3.1119e-05
3.16562e-05
3.17183e-05
3.21432e-05
3.17184e-05
3.21455e-05
3.11187e-05
3.24092e-05
6.22528e-05
6.22535e-05
3.24076e-05
3.37082e-05
3.3709e-05
3.15223e-05
3.36976e-05
3.36992e-05
8.44872e-05
8.44877e-05
8.44852e-05
8.44871e-05
3.1521e-05
3.36956e-05
3.36979e-05
3.36978e-05
3.36994e-05
8.44871e-05
8.44883e-05
3.11183e-05
3.17199e-05
3.21483e-05
3.16569e-05
3.11196e-05
3.17189e-05
3.21441e-05
3.24074e-05
6.22501e-05
3.24124e-05
6.22539e-05
3.24073e-05
6.22557e-05
3.24124e-05
6.22545e-05
3.11186e-05
3.16566e-05
3.17183e-05
3.21435e-05
3.17185e-05
3.21463e-05
3.11181e-05
3.11186e-05
3.16563e-05
3.17183e-05
3.21435e-05
3.17184e-05
3.21457e-05
3.11183e-05
3.24087e-05
6.22533e-05
6.22542e-05
3.2407e-05
3.24086e-05
6.22541e-05
6.22548e-05
3.24069e-05
8.44887e-05
8.44875e-05
8.44895e-05
8.44884e-05
3.15211e-05
3.36979e-05
3.3698e-05
3.36989e-05
3.3699e-05
8.44871e-05
8.44881e-05
8.4488e-05
8.4489e-05
8.44867e-05
8.44859e-05
8.44885e-05
8.44876e-05
3.36989e-05
3.36988e-05
3.1522e-05
3.36979e-05
3.36979e-05
8.44858e-05
8.44866e-05
8.44875e-05
8.44883e-05
3.15211e-05
3.36979e-05
3.36979e-05
3.36989e-05
3.36988e-05
3.24078e-05
6.22527e-05
3.24092e-05
6.22522e-05
3.11187e-05
3.21451e-05
3.17184e-05
3.16563e-05
3.1119e-05
3.21432e-05
3.17184e-05
3.11188e-05
3.21456e-05
3.17184e-05
3.16563e-05
3.11191e-05
3.21437e-05
3.17184e-05
3.24091e-05
6.225e-05
6.22505e-05
3.24077e-05
3.24092e-05
6.22522e-05
6.22527e-05
3.24078e-05
3.1119e-05
3.16563e-05
3.21431e-05
3.17183e-05
3.2145e-05
3.17184e-05
3.11187e-05
3.11191e-05
3.16563e-05
3.21437e-05
3.17183e-05
3.21456e-05
3.17184e-05
3.11188e-05
3.36989e-05
3.36958e-05
3.15219e-05
3.3698e-05
3.36948e-05
8.4484e-05
8.44827e-05
8.44866e-05
8.44875e-05
3.1521e-05
3.3698e-05
3.36948e-05
3.3699e-05
3.3696e-05
8.44827e-05
8.4484e-05
3.1119e-05
3.21456e-05
3.17184e-05
3.16564e-05
3.11192e-05
3.21437e-05
3.17184e-05
3.24079e-05
6.22534e-05
3.24092e-05
6.22525e-05
3.11188e-05
3.17184e-05
3.21453e-05
3.16562e-05
3.11191e-05
3.17184e-05
3.21431e-05
3.24095e-05
6.22525e-05
6.2253e-05
3.24083e-05
3.11193e-05
3.16563e-05
3.21437e-05
3.17183e-05
3.21455e-05
3.17184e-05
3.11189e-05
3.24091e-05
6.22524e-05
6.22531e-05
3.24079e-05
3.11192e-05
3.16562e-05
3.17183e-05
3.21431e-05
3.17183e-05
3.21451e-05
3.11188e-05
3.24077e-05
6.22514e-05
3.24091e-05
6.22507e-05
3.11187e-05
3.17184e-05
3.21451e-05
3.16563e-05
3.1119e-05
3.17184e-05
3.21432e-05
3.24076e-05
6.22532e-05
3.2409e-05
6.22526e-05
3.11189e-05
3.16564e-05
3.2143e-05
3.17183e-05
3.21451e-05
3.17184e-05
3.11184e-05
3.24091e-05
6.22507e-05
6.22513e-05
3.24077e-05
3.1119e-05
3.16563e-05
3.17183e-05
3.21431e-05
3.17184e-05
3.2145e-05
3.11186e-05
3.2409e-05
6.22525e-05
6.2253e-05
3.24076e-05
3.36967e-05
3.36988e-05
3.15219e-05
3.36956e-05
3.36979e-05
8.44878e-05
8.44869e-05
8.44847e-05
8.44861e-05
3.1521e-05
3.36956e-05
3.36979e-05
3.36967e-05
3.36988e-05
8.44868e-05
8.44876e-05
3.11183e-05
3.17184e-05
3.21453e-05
3.16563e-05
3.11186e-05
3.17184e-05
3.21434e-05
3.2407e-05
6.22537e-05
3.24086e-05
6.22531e-05
3.24069e-05
6.22544e-05
3.24085e-05
6.22539e-05
3.11186e-05
3.16564e-05
3.17183e-05
3.21433e-05
3.17184e-05
3.21452e-05
3.11181e-05
3.11186e-05
3.16563e-05
3.17183e-05
3.21434e-05
3.17184e-05
3.21453e-05
3.11183e-05
3.24086e-05
6.2253e-05
6.22535e-05
3.2407e-05
3.24085e-05
6.22538e-05
6.22543e-05
3.2407e-05
8.44878e-05
8.4487e-05
8.44887e-05
8.44879e-05
3.15211e-05
3.3698e-05
3.36981e-05
3.36989e-05
3.3699e-05
8.4487e-05
8.44878e-05
8.44878e-05
8.44886e-05
8.44866e-05
8.44858e-05
8.44882e-05
8.44875e-05
3.36988e-05
3.36989e-05
3.1522e-05
3.36979e-05
3.3698e-05
8.44858e-05
8.44866e-05
8.44874e-05
8.44882e-05
3.15211e-05
3.36979e-05
3.36979e-05
3.36988e-05
3.36989e-05
3.24078e-05
6.22526e-05
3.24092e-05
6.22522e-05
3.11187e-05
3.2145e-05
3.17184e-05
3.16563e-05
3.1119e-05
3.21431e-05
3.17184e-05
3.11188e-05
3.21456e-05
3.17184e-05
3.16563e-05
3.11191e-05
3.21437e-05
3.17184e-05
3.24091e-05
6.225e-05
6.22505e-05
3.24077e-05
3.24092e-05
6.22522e-05
6.22527e-05
3.24078e-05
3.1119e-05
3.16563e-05
3.21431e-05
3.17183e-05
3.2145e-05
3.17184e-05
3.11187e-05
3.11191e-05
3.16563e-05
3.21437e-05
3.17183e-05
3.21456e-05
3.17183e-05
3.11188e-05
3.3699e-05
3.36959e-05
3.15219e-05
3.3698e-05
3.36947e-05
8.4484e-05
8.44827e-05
8.44866e-05
8.44875e-05
3.15211e-05
3.3698e-05
3.36948e-05
3.3699e-05
3.36959e-05
8.44827e-05
8.4484e-05
3.1119e-05
3.21455e-05
3.17184e-05
3.16564e-05
3.11192e-05
3.21437e-05
3.17184e-05
3.24079e-05
6.2253e-05
3.24091e-05
6.22524e-05
3.11188e-05
3.17184e-05
3.21451e-05
3.16563e-05
3.11191e-05
3.17184e-05
3.21431e-05
3.24095e-05
6.22525e-05
6.2253e-05
3.24083e-05
3.11193e-05
3.16563e-05
3.21437e-05
3.17183e-05
3.21455e-05
3.17184e-05
3.1119e-05
3.24092e-05
6.22524e-05
6.2253e-05
3.24079e-05
3.11191e-05
3.16562e-05
3.17183e-05
3.21431e-05
3.17183e-05
3.21451e-05
3.11188e-05
3.24077e-05
6.22513e-05
3.24091e-05
6.22507e-05
3.11187e-05
3.17184e-05
3.2145e-05
3.16563e-05
3.11189e-05
3.17184e-05
3.21432e-05
3.24076e-05
6.2253e-05
3.2409e-05
6.22526e-05
3.1119e-05
3.16564e-05
3.2143e-05
3.17183e-05
3.21451e-05
3.17184e-05
3.11185e-05
3.24091e-05
6.22507e-05
6.22513e-05
3.24077e-05
3.1119e-05
3.16563e-05
3.17183e-05
3.21432e-05
3.17183e-05
3.2145e-05
3.11187e-05
3.2409e-05
6.22526e-05
6.2253e-05
3.24076e-05
3.36967e-05
3.36988e-05
3.15218e-05
3.36956e-05
3.36979e-05
8.44876e-05
8.44868e-05
8.44847e-05
8.44861e-05
3.1521e-05
3.36956e-05
3.36979e-05
3.36967e-05
3.36988e-05
8.44868e-05
8.44876e-05
3.11183e-05
3.17184e-05
3.21453e-05
3.16564e-05
3.11186e-05
3.17184e-05
3.21434e-05
3.2407e-05
6.22534e-05
3.24086e-05
6.2253e-05
3.2407e-05
6.22543e-05
3.24085e-05
6.22538e-05
3.11186e-05
3.16564e-05
3.17183e-05
3.21433e-05
3.17184e-05
3.21452e-05
3.11181e-05
3.11187e-05
3.16563e-05
3.17183e-05
3.21434e-05
3.17183e-05
3.21453e-05
3.11183e-05
3.24086e-05
6.22529e-05
6.22534e-05
3.24071e-05
3.24085e-05
6.22538e-05
6.22543e-05
3.2407e-05
8.44878e-05
8.4487e-05
8.44886e-05
8.44878e-05
3.15211e-05
3.3698e-05
3.36981e-05
3.36989e-05
3.3699e-05
8.4487e-05
8.44878e-05
8.44878e-05
8.44886e-05
8.44866e-05
8.44859e-05
8.44882e-05
8.44875e-05
3.36988e-05
3.36989e-05
3.15219e-05
3.36979e-05
3.36979e-05
8.44858e-05
8.44866e-05
8.44874e-05
8.44882e-05
3.15211e-05
3.36979e-05
3.36979e-05
3.36989e-05
3.36988e-05
3.24078e-05
6.22526e-05
3.24092e-05
6.22522e-05
3.11187e-05
3.2145e-05
3.17184e-05
3.16563e-05
3.1119e-05
3.21432e-05
3.17184e-05
3.11188e-05
3.21456e-05
3.17184e-05
3.16563e-05
3.11191e-05
3.21437e-05
3.17184e-05
3.24091e-05
6.225e-05
6.22505e-05
3.24077e-05
3.24092e-05
6.22522e-05
6.22527e-05
3.24078e-05
3.1119e-05
3.16563e-05
3.21431e-05
3.17183e-05
3.2145e-05
3.17184e-05
3.11187e-05
3.11191e-05
3.16563e-05
3.21437e-05
3.17183e-05
3.21456e-05
3.17183e-05
3.11188e-05
3.3699e-05
3.3696e-05
3.15219e-05
3.3698e-05
3.36947e-05
8.4484e-05
8.44827e-05
8.44866e-05
8.44875e-05
3.15211e-05
3.3698e-05
3.36948e-05
3.3699e-05
3.36959e-05
8.44828e-05
8.4484e-05
3.1119e-05
3.21455e-05
3.17185e-05
3.16564e-05
3.11193e-05
3.21437e-05
3.17184e-05
3.24079e-05
6.2253e-05
3.24092e-05
6.22524e-05
3.11188e-05
3.17184e-05
3.21451e-05
3.16563e-05
3.11192e-05
3.17184e-05
3.21431e-05
3.24096e-05
6.22525e-05
6.2253e-05
3.24083e-05
3.11193e-05
3.16563e-05
3.21436e-05
3.17183e-05
3.21455e-05
3.17184e-05
3.1119e-05
3.24092e-05
6.22524e-05
6.2253e-05
3.24079e-05
3.11191e-05
3.16562e-05
3.17183e-05
3.21431e-05
3.17183e-05
3.21451e-05
3.11188e-05
3.24077e-05
6.22513e-05
3.24091e-05
6.22507e-05
3.11187e-05
3.17184e-05
3.2145e-05
3.16563e-05
3.11189e-05
3.17184e-05
3.21432e-05
3.24076e-05
6.2253e-05
3.2409e-05
6.22526e-05
3.1119e-05
3.16564e-05
3.2143e-05
3.17183e-05
3.21451e-05
3.17184e-05
3.11185e-05
3.24091e-05
6.22507e-05
6.22513e-05
3.24077e-05
3.1119e-05
3.16563e-05
3.17183e-05
3.21432e-05
3.17183e-05
3.2145e-05
3.11187e-05
3.2409e-05
6.22526e-05
6.2253e-05
3.24076e-05
3.36967e-05
3.36988e-05
3.15218e-05
3.36956e-05
3.36979e-05
8.44876e-05
8.44868e-05
8.44847e-05
8.44861e-05
3.1521e-05
3.36956e-05
3.36979e-05
3.36967e-05
3.36988e-05
8.44868e-05
8.44876e-05
3.11183e-05
3.17184e-05
3.21453e-05
3.16564e-05
3.11186e-05
3.17184e-05
3.21434e-05
3.24069e-05
6.22534e-05
3.24083e-05
6.2253e-05
3.2407e-05
6.22543e-05
3.24085e-05
6.22539e-05
3.11186e-05
3.16564e-05
3.17183e-05
3.21433e-05
3.17184e-05
3.21452e-05
3.11181e-05
3.11187e-05
3.16563e-05
3.17183e-05
3.21434e-05
3.17183e-05
3.21453e-05
3.11183e-05
3.24082e-05
6.22529e-05
6.22534e-05
3.24067e-05
3.24085e-05
6.22538e-05
6.22543e-05
3.24069e-05
8.44878e-05
8.4487e-05
8.44886e-05
8.44878e-05
3.15211e-05
3.3698e-05
3.36981e-05
3.36989e-05
3.36991e-05
8.4487e-05
8.44878e-05
8.44878e-05
8.44886e-05
8.44866e-05
8.44859e-05
8.44882e-05
8.44875e-05
3.36989e-05
3.36988e-05
3.1522e-05
3.3698e-05
3.36979e-05
8.44859e-05
8.44866e-05
8.44875e-05
8.44882e-05
3.15211e-05
3.36979e-05
3.36979e-05
3.36989e-05
3.36989e-05
3.24078e-05
6.22526e-05
3.24092e-05
6.22522e-05
3.11187e-05
3.2145e-05
3.17184e-05
3.16563e-05
3.1119e-05
3.21432e-05
3.17184e-05
3.11188e-05
3.21456e-05
3.17184e-05
3.16563e-05
3.11191e-05
3.21437e-05
3.17184e-05
3.24091e-05
6.225e-05
6.22505e-05
3.24077e-05
3.24092e-05
6.22522e-05
6.22527e-05
3.24078e-05
3.1119e-05
3.16563e-05
3.21431e-05
3.17183e-05
3.2145e-05
3.17184e-05
3.11187e-05
3.11191e-05
3.16563e-05
3.21437e-05
3.17183e-05
3.21456e-05
3.17183e-05
3.11188e-05
3.3699e-05
3.36959e-05
3.15219e-05
3.3698e-05
3.36947e-05
8.4484e-05
8.44827e-05
8.44866e-05
8.44875e-05
3.15211e-05
3.3698e-05
3.36948e-05
3.3699e-05
3.36959e-05
8.44828e-05
8.4484e-05
3.1119e-05
3.21455e-05
3.17184e-05
3.16564e-05
3.11193e-05
3.21437e-05
3.17184e-05
3.24079e-05
6.2253e-05
3.24092e-05
6.22524e-05
3.11188e-05
3.17184e-05
3.21451e-05
3.16563e-05
3.11192e-05
3.17184e-05
3.21431e-05
3.24095e-05
6.22525e-05
6.2253e-05
3.24083e-05
3.11193e-05
3.16563e-05
3.21436e-05
3.17183e-05
3.21455e-05
3.17184e-05
3.11189e-05
3.24092e-05
6.22524e-05
6.2253e-05
3.24079e-05
3.11191e-05
3.16562e-05
3.17183e-05
3.21431e-05
3.17183e-05
3.21451e-05
3.11188e-05
3.24077e-05
6.22513e-05
3.24091e-05
6.22507e-05
3.11187e-05
3.17184e-05
3.2145e-05
3.16563e-05
3.11189e-05
3.17184e-05
3.21432e-05
3.24076e-05
6.2253e-05
3.2409e-05
6.22526e-05
3.1119e-05
3.16564e-05
3.2143e-05
3.17183e-05
3.21451e-05
3.17184e-05
3.11185e-05
3.24091e-05