/*--------------------------------*- C++ -*----------------------------------*\
| =========                 |                                                 |
| \\      /  F ield         | OpenFOAM: The Open Source CFD Toolbox           |
|  \\    /   O peration     | Version:  2206                                  |
|   \\  /    A nd           | Website:  www.openfoam.com                      |
|    \\/     M anipulation  |                                                 |
\*---------------------------------------------------------------------------*/
FoamFile
{
    version     2.0;
    format      ascii;
    arch        "LSB;label=32;scalar=64";
    class       volScalarField;
    location    "9.5";
    object      epsilon;
}
// * * * * * * * * * * * * * * * * * * * * * * * * * * * * * * * * * * * * * //

dimensions      [0 2 -3 0 0 0 0];

internalField   nonuniform List<scalar> 
28687
(
4.21869e-07
4.28208e-07
4.28211e-07
4.38148e-07
4.21865e-07
4.28208e-07
4.28209e-07
4.38166e-07
4.21751e-07
4.28069e-07
4.28111e-07
4.38119e-07
4.21611e-07
4.27985e-07
4.27988e-07
4.37989e-07
4.21609e-07
4.27984e-07
4.27987e-07
4.38001e-07
4.21609e-07
4.27984e-07
4.27986e-07
4.37998e-07
4.21609e-07
4.27984e-07
4.27986e-07
4.37998e-07
4.21609e-07
4.27984e-07
4.27986e-07
4.37998e-07
4.21609e-07
4.27984e-07
4.27986e-07
4.37998e-07
4.21609e-07
4.27984e-07
4.27986e-07
4.37998e-07
4.21609e-07
4.27984e-07
4.27986e-07
4.37998e-07
4.21609e-07
4.27984e-07
4.27986e-07
4.37998e-07
4.21609e-07
4.27984e-07
4.27986e-07
4.37998e-07
4.21609e-07
4.27984e-07
4.27986e-07
4.37998e-07
4.21609e-07
4.27984e-07
4.27986e-07
4.37998e-07
4.21609e-07
4.27984e-07
4.27986e-07
4.37998e-07
4.21609e-07
4.27984e-07
4.27986e-07
4.37998e-07
4.21609e-07
4.27984e-07
4.27986e-07
4.37998e-07
4.28215e-07
4.3806e-07
4.28207e-07
4.38146e-07
4.3807e-07
4.28213e-07
4.28215e-07
4.28212e-07
4.28213e-07
4.3816e-07
4.38074e-07
4.2821e-07
4.28218e-07
4.28209e-07
4.28216e-07
4.28214e-07
4.28211e-07
4.28213e-07
4.3815e-07
4.38073e-07
4.2821e-07
4.28209e-07
4.28209e-07
4.38072e-07
4.38166e-07
4.38045e-07
4.28212e-07
4.28211e-07
4.28177e-07
4.28134e-07
4.3817e-07
4.37999e-07
4.28209e-07
4.28216e-07
4.28174e-07
4.28181e-07
4.28213e-07
4.28133e-07
4.28177e-07
4.3817e-07
4.38048e-07
4.28209e-07
4.28175e-07
4.28173e-07
4.38046e-07
4.38122e-07
4.37901e-07
4.28115e-07
4.28072e-07
4.27997e-07
4.27993e-07
4.38076e-07
4.37891e-07
4.28112e-07
4.28119e-07
4.27994e-07
4.28001e-07
4.28115e-07
4.27987e-07
4.27998e-07
4.38125e-07
4.37904e-07
4.28112e-07
4.27994e-07
4.27994e-07
4.37901e-07
4.37992e-07
4.37906e-07
4.27994e-07
4.27993e-07
4.27991e-07
4.2799e-07
4.37987e-07
4.37904e-07
4.27991e-07
4.27998e-07
4.27987e-07
4.27994e-07
4.27994e-07
4.27986e-07
4.2799e-07
4.37995e-07
4.37909e-07
4.2799e-07
4.27988e-07
4.27987e-07
4.37908e-07
4.38002e-07
4.37903e-07
4.27993e-07
4.27993e-07
4.2799e-07
4.2799e-07
4.37998e-07
4.37902e-07
4.2799e-07
4.27997e-07
4.27987e-07
4.27994e-07
4.27993e-07
4.27984e-07
4.2799e-07
4.38005e-07
4.37907e-07
4.2799e-07
4.27987e-07
4.27987e-07
4.37905e-07
4.38e-07
4.37904e-07
4.27993e-07
4.27993e-07
4.2799e-07
4.2799e-07
4.37998e-07
4.379e-07
4.2799e-07
4.27997e-07
4.27987e-07
4.27994e-07
4.27993e-07
4.27984e-07
4.27991e-07
4.38003e-07
4.37907e-07
4.27989e-07
4.27987e-07
4.27987e-07
4.37904e-07
4.38e-07
4.37904e-07
4.27993e-07
4.27993e-07
4.27991e-07
4.27991e-07
4.37997e-07
4.37901e-07
4.2799e-07
4.27997e-07
4.27987e-07
4.27994e-07
4.27993e-07
4.27984e-07
4.2799e-07
4.38003e-07
4.37907e-07
4.27989e-07
4.27987e-07
4.27987e-07
4.37904e-07
4.38001e-07
4.37904e-07
4.27993e-07
4.27994e-07
4.2799e-07
4.27991e-07
4.37997e-07
4.37901e-07
4.2799e-07
4.27997e-07
4.27987e-07
4.27994e-07
4.27993e-07
4.27984e-07
4.2799e-07
4.38003e-07
4.37908e-07
4.27989e-07
4.27987e-07
4.27987e-07
4.37904e-07
4.38e-07
4.37904e-07
4.27993e-07
4.27993e-07
4.2799e-07
4.27991e-07
4.37997e-07
4.379e-07
4.27989e-07
4.27997e-07
4.27987e-07
4.27994e-07
4.27993e-07
4.27984e-07
4.2799e-07
4.38004e-07
4.37907e-07
4.27989e-07
4.27987e-07
4.27987e-07
4.37904e-07
4.38e-07
4.37904e-07
4.27992e-07
4.27993e-07
4.2799e-07
4.27991e-07
4.37997e-07
4.37902e-07
4.27989e-07
4.27997e-07
4.27986e-07
4.27994e-07
4.27993e-07
4.27984e-07
4.2799e-07
4.38003e-07
4.37907e-07
4.27989e-07
4.27987e-07
4.27987e-07
4.37904e-07
4.38001e-07
4.37904e-07
4.27992e-07
4.27993e-07
4.2799e-07
4.27991e-07
4.37998e-07
4.37901e-07
4.27989e-07
4.27997e-07
4.27986e-07
4.27994e-07
4.27993e-07
4.27984e-07
4.27991e-07
4.38003e-07
4.37908e-07
4.27989e-07
4.27987e-07
4.27987e-07
4.37904e-07
4.38001e-07
4.37904e-07
4.27993e-07
4.27993e-07
4.2799e-07
4.27991e-07
4.37998e-07
4.37901e-07
4.27989e-07
4.27997e-07
4.27986e-07
4.27994e-07
4.27993e-07
4.27984e-07
4.27991e-07
4.38004e-07
4.37907e-07
4.2799e-07
4.27987e-07
4.27987e-07
4.37904e-07
4.38001e-07
4.37905e-07
4.27993e-07
4.27993e-07
4.2799e-07
4.27991e-07
4.37998e-07
4.37901e-07
4.27989e-07
4.27997e-07
4.27986e-07
4.27994e-07
4.27993e-07
4.27984e-07
4.27991e-07
4.38004e-07
4.37907e-07
4.2799e-07
4.27987e-07
4.27987e-07
4.37904e-07
4.38001e-07
4.37904e-07
4.27993e-07
4.27993e-07
4.2799e-07
4.27991e-07
4.37998e-07
4.37901e-07
4.27989e-07
4.27997e-07
4.27986e-07
4.27994e-07
4.27993e-07
4.27984e-07
4.27991e-07
4.38003e-07
4.37907e-07
4.2799e-07
4.27987e-07
4.27987e-07
4.37904e-07
4.38001e-07
4.37905e-07
4.27993e-07
4.27993e-07
4.2799e-07
4.27991e-07
4.37998e-07
4.37901e-07
4.27989e-07
4.27997e-07
4.27986e-07
4.27994e-07
4.27993e-07
4.27984e-07
4.27991e-07
4.38003e-07
4.37908e-07
4.2799e-07
4.27987e-07
4.27987e-07
4.37904e-07
4.38001e-07
4.37905e-07
4.27993e-07
4.27993e-07
4.2799e-07
4.27991e-07
4.37998e-07
4.37901e-07
4.27989e-07
4.27997e-07
4.27986e-07
4.27994e-07
4.27993e-07
4.27984e-07
4.27991e-07
4.38004e-07
4.37907e-07
4.2799e-07
4.27987e-07
4.27987e-07
4.37904e-07
4.38001e-07
4.37905e-07
4.27993e-07
4.27993e-07
4.2799e-07
4.27991e-07
4.37998e-07
4.37901e-07
4.27989e-07
4.27997e-07
4.27986e-07
4.27994e-07
4.27993e-07
4.27984e-07
4.27991e-07
4.38003e-07
4.37907e-07
4.2799e-07
4.27987e-07
4.27987e-07
4.37904e-07
4.38001e-07
4.27991e-07
4.27992e-07
4.37998e-07
4.27988e-07
4.27996e-07
4.27992e-07
4.38004e-07
4.27989e-07
1.31533e-06
6.70969e-06
1.31576e-06
6.70943e-06
2.33499e-05
2.33466e-05
1.31522e-06
6.71063e-06
1.3156e-06
6.71037e-06
4.21873e-07
4.21868e-07
4.21868e-07
4.21866e-07
4.2187e-07
4.21866e-07
4.21866e-07
5.64283e-07
1.09779e-06
4.23269e-07
4.28211e-07
5.64455e-07
1.09739e-06
4.23269e-07
2.3355e-05
2.335e-05
5.64277e-07
4.23267e-07
1.09812e-06
4.28211e-07
5.64453e-07
4.23267e-07
1.09742e-06
2.1746e-06
2.17504e-06
4.38067e-07
2.17449e-06
2.17495e-06
1.31532e-06
6.70958e-06
1.31558e-06
6.70929e-06
2.33449e-05
2.33462e-05
1.3152e-06
6.71053e-06
1.31542e-06
6.71023e-06
4.21868e-07
4.21865e-07
4.21865e-07
4.21824e-07
4.21814e-07
4.21823e-07
4.21823e-07
5.64296e-07
1.09774e-06
4.23265e-07
4.28202e-07
5.64374e-07
1.09753e-06
4.23261e-07
2.33479e-05
2.33468e-05
5.64289e-07
4.23263e-07
1.09772e-06
4.28207e-07
5.64368e-07
4.2326e-07
1.09741e-06
2.17483e-06
2.17528e-06
4.38073e-07
2.17456e-06
2.175e-06
1.31644e-06
6.7148e-06
1.3164e-06
6.71629e-06
2.33706e-05
2.33699e-05
1.31632e-06
6.71574e-06
1.31626e-06
6.71723e-06
4.2174e-07
4.21753e-07
4.21752e-07
4.21619e-07
4.21617e-07
4.21619e-07
4.21619e-07
5.64402e-07
1.09847e-06
4.23148e-07
4.28028e-07
5.64455e-07
1.0982e-06
4.2309e-07
2.33685e-05
2.3372e-05
5.64396e-07
4.23154e-07
1.09824e-06
4.28056e-07
5.6445e-07
4.23094e-07
1.09812e-06
2.17646e-06
2.1769e-06
4.37949e-07
2.17651e-06
2.17696e-06
1.3165e-06
6.71655e-06
1.31678e-06
6.71621e-06
2.33709e-05
2.337e-05
1.31637e-06
6.71751e-06
1.31662e-06
6.71717e-06
4.21615e-07
4.21615e-07
4.21615e-07
4.2161e-07
4.2161e-07
4.21611e-07
4.2161e-07
5.64412e-07
1.09857e-06
4.23019e-07
4.27988e-07
5.64497e-07
1.09821e-06
4.23021e-07
2.33727e-05
2.33716e-05
5.64404e-07
4.23019e-07
1.09851e-06
4.2799e-07
5.64491e-07
4.23021e-07
1.09818e-06
2.17677e-06
2.17722e-06
4.37899e-07
2.17648e-06
2.17693e-06
1.3165e-06
6.71654e-06
1.31678e-06
6.7162e-06
2.33711e-05
2.33702e-05
1.31637e-06
6.71751e-06
1.31662e-06
6.71716e-06
4.21613e-07
4.21614e-07
4.21613e-07
4.21609e-07
4.2161e-07
4.2161e-07
4.2161e-07
5.64414e-07
1.09857e-06
4.23018e-07
4.27987e-07
5.64494e-07
1.09821e-06
4.2302e-07
2.33726e-05
2.33716e-05
5.64406e-07
4.23018e-07
1.09852e-06
4.27989e-07
5.64488e-07
4.23021e-07
1.09818e-06
2.17677e-06
2.17721e-06
4.37904e-07
2.17648e-06
2.17693e-06
1.3165e-06
6.71654e-06
1.31678e-06
6.71621e-06
2.33711e-05
2.33691e-05
1.31637e-06
6.7175e-06
1.31662e-06
6.71716e-06
4.21613e-07
4.21613e-07
4.21613e-07
4.21609e-07
4.2161e-07
4.21611e-07
4.2161e-07
5.64412e-07
1.09857e-06
4.23017e-07
4.27987e-07
5.64493e-07
1.09822e-06
4.2302e-07
2.33726e-05
2.33716e-05
5.64405e-07
4.23017e-07
1.09852e-06
4.27989e-07
5.64486e-07
4.23021e-07
1.09818e-06
2.17677e-06
2.17721e-06
4.37904e-07
2.17648e-06
2.17693e-06
1.3165e-06
6.71647e-06
1.31678e-06
6.71617e-06
2.33699e-05
2.33698e-05
1.31637e-06
6.71751e-06
1.31662e-06
6.71717e-06
4.21613e-07
4.21613e-07
4.21613e-07
4.21609e-07
4.2161e-07
4.2161e-07
4.2161e-07
5.64412e-07
1.09857e-06
4.23017e-07
4.27987e-07
5.64494e-07
1.09821e-06
4.2302e-07
2.33726e-05
2.33716e-05
5.64405e-07
4.23017e-07
1.09852e-06
4.27989e-07
5.64486e-07
4.2302e-07
1.09818e-06
2.17677e-06
2.17721e-06
4.37904e-07
2.17648e-06
2.17693e-06
1.3165e-06
6.71652e-06
1.31678e-06
6.7162e-06
2.33714e-05
2.33703e-05
1.31637e-06
6.71751e-06
1.31662e-06
6.71717e-06
4.21613e-07
4.21613e-07
4.21613e-07
4.21609e-07
4.2161e-07
4.2161e-07
4.2161e-07
5.64413e-07
1.09857e-06
4.23017e-07
4.27987e-07
5.64494e-07
1.09822e-06
4.2302e-07
2.33726e-05
2.33716e-05
5.64405e-07
4.23017e-07
1.09852e-06
4.27989e-07
5.64486e-07
4.2302e-07
1.09818e-06
2.17677e-06
2.17721e-06
4.37905e-07
2.17648e-06
2.17693e-06
1.3165e-06
6.71657e-06
1.31678e-06
6.71626e-06
2.33708e-05
2.33695e-05
1.31637e-06
6.71748e-06
1.31662e-06
6.7172e-06
4.21613e-07
4.21613e-07
4.21613e-07
4.21609e-07
4.2161e-07
4.2161e-07
4.2161e-07
5.64412e-07
1.09857e-06
4.23017e-07
4.27987e-07
5.64493e-07
1.09822e-06
4.2302e-07
2.33726e-05
2.33716e-05
5.64405e-07
4.23017e-07
1.09852e-06
4.27989e-07
5.64486e-07
4.2302e-07
1.09818e-06
2.17677e-06
2.17721e-06
4.37905e-07
2.17648e-06
2.17693e-06
1.3165e-06
6.71654e-06
1.31678e-06
6.71617e-06
2.33702e-05
2.33693e-05
1.31637e-06
6.71752e-06
1.31662e-06
6.71721e-06
4.21613e-07
4.21613e-07
4.21613e-07
4.21609e-07
4.2161e-07
4.2161e-07
4.2161e-07
5.64412e-07
1.09857e-06
4.23017e-07
4.27987e-07
5.64494e-07
1.09822e-06
4.2302e-07
2.33726e-05
2.33716e-05
5.64405e-07
4.23017e-07
1.09852e-06
4.27989e-07
5.64486e-07
4.23021e-07
1.09818e-06
2.17677e-06
2.17721e-06
4.37904e-07
2.17648e-06
2.17693e-06
1.3165e-06
6.71651e-06
1.31678e-06
6.71618e-06
2.33703e-05
2.33693e-05
1.31637e-06
6.71757e-06
1.31662e-06
6.71724e-06
4.21613e-07
4.21613e-07
4.21613e-07
4.21609e-07
4.2161e-07
4.21611e-07
4.2161e-07
5.64412e-07
1.09857e-06
4.23017e-07
4.27987e-07
5.64494e-07
1.09822e-06
4.2302e-07
2.33726e-05
2.33716e-05
5.64405e-07
4.23017e-07
1.09852e-06
4.27989e-07
5.64486e-07
4.23021e-07
1.09818e-06
2.17677e-06
2.17721e-06
4.37905e-07
2.17648e-06
2.17693e-06
1.3165e-06
6.71651e-06
1.31678e-06
6.71616e-06
2.33703e-05
2.33693e-05
1.31637e-06
6.71759e-06
1.31662e-06
6.71725e-06
4.21613e-07
4.21613e-07
4.21613e-07
4.21609e-07
4.2161e-07
4.2161e-07
4.2161e-07
5.64413e-07
1.09857e-06
4.23017e-07
4.27987e-07
5.64494e-07
1.09822e-06
4.2302e-07
2.33726e-05
2.33716e-05
5.64406e-07
4.23017e-07
1.09852e-06
4.27989e-07
5.64486e-07
4.23021e-07
1.09818e-06
2.17677e-06
2.17721e-06
4.37905e-07
2.17648e-06
2.17693e-06
1.3165e-06
6.7165e-06
1.31678e-06
6.71616e-06
2.33703e-05
2.33693e-05
1.31637e-06
6.71759e-06
1.31662e-06
6.71725e-06
4.21613e-07
4.21613e-07
4.21613e-07
4.21609e-07
4.2161e-07
4.21611e-07
4.2161e-07
5.64412e-07
1.09857e-06
4.23017e-07
4.27987e-07
5.64493e-07
1.09822e-06
4.2302e-07
2.33726e-05
2.33716e-05
5.64406e-07
4.23017e-07
1.09852e-06
4.27989e-07
5.64486e-07
4.23021e-07
1.09818e-06
2.17677e-06
2.17721e-06
4.37905e-07
2.17648e-06
2.17693e-06
1.3165e-06
6.7165e-06
1.31678e-06
6.71617e-06
2.33703e-05
2.33693e-05
1.31637e-06
6.71759e-06
1.31662e-06
6.71725e-06
4.21613e-07
4.21613e-07
4.21613e-07
4.21609e-07
4.2161e-07
4.2161e-07
4.2161e-07
5.64412e-07
1.09857e-06
4.23017e-07
4.27987e-07
5.64494e-07
1.09822e-06
4.2302e-07
2.33726e-05
2.33716e-05
5.64406e-07
4.23017e-07
1.09852e-06
4.27989e-07
5.64486e-07
4.23021e-07
1.09818e-06
2.17677e-06
2.17721e-06
4.37905e-07
2.17648e-06
2.17693e-06
1.3165e-06
6.7165e-06
1.31678e-06
6.71617e-06
2.33703e-05
2.33693e-05
1.31637e-06
6.71759e-06
1.31662e-06
6.71725e-06
4.21613e-07
4.21613e-07
4.21613e-07
4.21609e-07
4.2161e-07
4.2161e-07
4.2161e-07
5.64412e-07
1.09857e-06
4.23017e-07
4.27987e-07
5.64494e-07
1.09822e-06
4.2302e-07
2.33726e-05
2.33716e-05
5.64406e-07
4.23017e-07
1.09852e-06
4.27989e-07
5.64487e-07
4.23021e-07
1.09818e-06
2.17677e-06
2.17721e-06
4.37905e-07
2.17648e-06
2.17693e-06
1.3165e-06
6.7165e-06
1.31678e-06
6.71617e-06
2.33703e-05
2.33693e-05
1.31637e-06
6.71759e-06
1.31662e-06
6.71725e-06
4.21613e-07
4.21613e-07
4.21613e-07
4.21609e-07
4.2161e-07
4.2161e-07
4.2161e-07
5.64412e-07
1.09857e-06
4.23017e-07
4.27987e-07
5.64494e-07
1.09822e-06
4.2302e-07
2.33726e-05
2.33716e-05
5.64406e-07
4.23017e-07
1.09852e-06
4.27989e-07
5.64487e-07
4.2302e-07
1.09818e-06
2.17677e-06
2.17721e-06
4.37905e-07
2.17648e-06
2.17693e-06
1.3165e-06
6.7165e-06
1.31678e-06
6.71616e-06
2.33703e-05
2.33693e-05
1.31637e-06
6.71759e-06
1.31662e-06
6.71725e-06
4.21613e-07
4.21613e-07
4.21613e-07
4.21609e-07
4.2161e-07
4.21611e-07
4.2161e-07
5.64412e-07
1.09857e-06
4.23017e-07
4.27987e-07
5.64494e-07
1.09822e-06
4.2302e-07
2.33726e-05
2.33716e-05
5.64406e-07
4.23017e-07
1.09852e-06
4.27989e-07
5.64487e-07
4.23021e-07
1.09818e-06
2.17677e-06
2.17722e-06
4.37905e-07
2.17648e-06
2.17693e-06
1.31657e-06
6.7165e-06
1.31678e-06
6.71617e-06
2.33703e-05
2.33694e-05
1.31648e-06
6.71759e-06
1.31662e-06
6.71726e-06
4.21612e-07
4.21612e-07
4.21612e-07
5.64411e-07
1.09857e-06
4.23017e-07
4.27986e-07
5.64494e-07
1.09822e-06
4.23021e-07
2.33725e-05
2.33716e-05
5.64432e-07
4.23017e-07
1.09852e-06
4.2799e-07
5.64487e-07
4.23021e-07
1.09835e-06
2.17677e-06
2.17721e-06
4.37905e-07
2.17648e-06
2.17705e-06
6.70975e-06
1.09749e-06
2.33502e-05
2.17465e-06
2.17438e-06
2.33468e-05
1.09746e-06
6.70962e-06
2.33512e-05
2.33465e-05
2.33544e-05
2.33499e-05
2.17449e-06
2.17497e-06
4.38064e-07
2.17439e-06
2.17488e-06
2.33443e-05
2.33462e-05
2.33476e-05
2.33496e-05
4.38161e-07
2.17446e-06
2.17493e-06
2.17456e-06
2.17504e-06
1.31532e-06
6.70978e-06
1.31575e-06
6.70956e-06
5.64287e-07
1.09808e-06
4.23266e-07
4.28213e-07
5.64473e-07
1.09737e-06
4.23266e-07
5.64284e-07
1.09778e-06
4.23268e-07
4.28215e-07
5.64469e-07
1.09743e-06
4.23268e-07
1.31554e-06
6.70934e-06
6.70943e-06
1.31531e-06
1.31553e-06
6.7095e-06
6.70957e-06
1.31531e-06
5.64366e-07
4.28212e-07
1.09734e-06
4.23264e-07
1.09765e-06
4.23265e-07
5.64291e-07
5.64364e-07
4.28213e-07
1.09741e-06
4.23266e-07
1.09772e-06
4.23267e-07
5.64289e-07
2.17497e-06
2.17478e-06
4.3807e-07
2.17486e-06
2.1746e-06
2.33468e-05
2.33434e-05
2.33444e-05
2.33464e-05
4.38167e-07
2.17486e-06
2.17468e-06
2.17505e-06
2.17493e-06
2.33419e-05
2.33434e-05
5.6428e-07
1.09831e-06
4.23266e-07
4.2821e-07
5.64452e-07
1.09758e-06
4.23266e-07
1.31524e-06
6.71102e-06
1.31561e-06
6.71069e-06
5.64287e-07
4.23267e-07
1.0984e-06
4.28218e-07
5.64456e-07
4.23267e-07
1.09766e-06
1.31539e-06
6.71024e-06
6.7104e-06
1.31519e-06
5.6436e-07
4.28209e-07
1.09756e-06
4.23264e-07
1.09789e-06
4.23264e-07
5.64286e-07
1.31541e-06
6.71058e-06
6.71069e-06
1.31521e-06
5.64367e-07
4.28216e-07
4.23265e-07
1.09763e-06
4.23265e-07
1.09796e-06
5.64294e-07
1.31534e-06
6.70969e-06
1.31576e-06
6.70943e-06
5.64287e-07
4.23266e-07
1.09813e-06
4.28214e-07
5.64452e-07
4.23266e-07
1.09742e-06
1.31534e-06
6.71059e-06
1.31576e-06
6.71024e-06
5.64363e-07
4.28211e-07
1.09739e-06
4.23266e-07
1.09771e-06
4.23267e-07
5.64291e-07
1.31555e-06
6.70935e-06
6.70943e-06
1.31533e-06
5.64366e-07
4.28213e-07
4.23264e-07
1.09739e-06
4.23265e-07
1.0977e-06
5.64294e-07
1.31555e-06
6.71016e-06
6.71025e-06
1.31533e-06
2.17545e-06
2.17459e-06
4.38068e-07
2.17525e-06
2.17448e-06
2.33533e-05
2.33486e-05
2.33476e-05
2.335e-05
4.38165e-07
2.17537e-06
2.17454e-06
2.17555e-06
2.17465e-06
2.33464e-05
2.33482e-05
5.64274e-07
4.23266e-07
1.09822e-06
4.2821e-07
5.64448e-07
4.23266e-07
1.09751e-06
1.31522e-06
6.71071e-06
1.31559e-06
6.71037e-06
1.31522e-06
6.71091e-06
1.31559e-06
6.71056e-06
5.64357e-07
4.28209e-07
4.23264e-07
1.09739e-06
4.23265e-07
1.0977e-06
5.64284e-07
5.64354e-07
4.28209e-07
4.23264e-07
1.09748e-06
4.23264e-07
1.0978e-06
5.64281e-07
1.31539e-06
6.71027e-06
6.71036e-06
1.3152e-06
1.31539e-06
6.71048e-06
6.71056e-06
1.3152e-06
2.33535e-05
2.33489e-05
2.33549e-05
2.33502e-05
4.38164e-07
2.17456e-06
2.17502e-06
2.17467e-06
2.17512e-06
2.33466e-05
2.33485e-05
2.3348e-05
2.33499e-05
2.33442e-05
2.33435e-05
2.33476e-05
2.33469e-05
2.17462e-06
2.17508e-06
4.3807e-07
2.17445e-06
2.17493e-06
2.33559e-05
2.33437e-05
2.33597e-05
2.33472e-05
4.38164e-07
2.17544e-06
2.17596e-06
2.17471e-06
2.17517e-06
1.31532e-06
6.7095e-06
1.31552e-06
6.7098e-06
5.64299e-07
1.09764e-06
4.23263e-07
4.28209e-07
5.64371e-07
1.09736e-06
4.2326e-07
5.64297e-07
1.09771e-06
4.23265e-07
4.28205e-07
5.64369e-07
1.09755e-06
4.23261e-07
1.31561e-06
6.71203e-06
6.70935e-06
1.31584e-06
1.3156e-06
6.71561e-06
6.71054e-06
1.31582e-06
5.64388e-07
4.282e-07
1.09772e-06
4.23224e-07
1.09771e-06
4.23251e-07
5.64353e-07
5.64386e-07
4.28187e-07
1.09804e-06
4.2322e-07
1.09798e-06
4.2325e-07
5.64351e-07
2.175e-06
2.17497e-06
4.38069e-07
2.17511e-06
2.17484e-06
2.3342e-05
2.33434e-05
2.33682e-05
2.33505e-05
4.38159e-07
2.17675e-06
2.17641e-06
2.17569e-06
2.17563e-06
2.33649e-05
2.33479e-05
5.64292e-07
1.09787e-06
4.23263e-07
4.28206e-07
5.64364e-07
1.09758e-06
4.2326e-07
1.31522e-06
6.71059e-06
1.31539e-06
6.71067e-06
5.64299e-07
4.23264e-07
1.09795e-06
4.28213e-07
5.64373e-07
4.2326e-07
1.09766e-06
1.31545e-06
6.71289e-06
6.71035e-06
1.31576e-06
5.64379e-07
4.28198e-07
1.09795e-06
4.23225e-07
1.09795e-06
4.23251e-07
5.64349e-07
1.31547e-06
6.71298e-06
6.71076e-06
1.31576e-06
5.64386e-07
4.28205e-07
4.23225e-07
1.09802e-06
4.23251e-07
1.09803e-06
5.64354e-07
1.31534e-06
6.70938e-06
1.31554e-06
6.70985e-06
5.64298e-07
4.23263e-07
1.09768e-06
4.2821e-07
5.64372e-07
4.2326e-07
1.09742e-06
1.31534e-06
6.71016e-06
1.31554e-06
6.71025e-06
5.64382e-07
4.28184e-07
1.09803e-06
4.23221e-07
1.09797e-06
4.23251e-07
5.64347e-07
1.31562e-06
6.71545e-06
6.71073e-06
1.31583e-06
5.64384e-07
4.28201e-07
4.23224e-07
1.09777e-06
4.2325e-07
1.09776e-06
5.6435e-07
1.31562e-06
6.71252e-06
6.71029e-06
1.31583e-06
2.17565e-06
2.1747e-06
4.38073e-07
2.17537e-06
2.17454e-06
2.33463e-05
2.33456e-05
2.33602e-05
2.33475e-05
4.38167e-07
2.17635e-06
2.17555e-06
2.17577e-06
2.1748e-06
2.33583e-05
2.33459e-05
5.64286e-07
4.23263e-07
1.09778e-06
4.28206e-07
5.64361e-07
4.23259e-07
1.09751e-06
1.31521e-06
6.71027e-06
1.31537e-06
6.71035e-06
1.31521e-06
6.71048e-06
1.31537e-06
6.71057e-06
5.64375e-07
4.28198e-07
4.23225e-07
1.09777e-06
4.23251e-07
1.09775e-06
5.64341e-07
5.64373e-07
4.28198e-07
4.23224e-07
1.09787e-06
4.2325e-07
1.09786e-06
5.64338e-07
1.31545e-06
6.71271e-06
6.71039e-06
1.31574e-06
1.31545e-06
6.71289e-06
6.71061e-06
1.31574e-06
2.33465e-05
2.33459e-05
2.33479e-05
2.33472e-05
4.38167e-07
2.1756e-06
2.17603e-06
2.17483e-06
2.17526e-06
2.33586e-05
2.33462e-05
2.33596e-05
2.33475e-05
2.33636e-05
2.33686e-05
2.33671e-05
2.3372e-05
2.17629e-06
2.17678e-06
4.37948e-07
2.17642e-06
2.1769e-06
2.33683e-05
2.33686e-05
2.33717e-05
2.3372e-05
4.3803e-07
2.17641e-06
2.17688e-06
2.1766e-06
2.17706e-06
1.31644e-06
6.71674e-06
1.31634e-06
6.7168e-06
5.64406e-07
1.09817e-06
4.23156e-07
4.28059e-07
5.64456e-07
1.09806e-06
4.23094e-07
5.64406e-07
1.09843e-06
4.23149e-07
4.28032e-07
5.64455e-07
1.09821e-06
4.2309e-07
1.31669e-06
6.7163e-06
6.71629e-06
1.31649e-06
1.31669e-06
6.71679e-06
6.71681e-06
1.31649e-06
5.64491e-07
4.28018e-07
1.09812e-06
4.23026e-07
1.09839e-06
4.23048e-07
5.6442e-07
5.64491e-07
4.28003e-07
1.09824e-06
4.23025e-07
1.09853e-06
4.23046e-07
5.64419e-07
2.17709e-06
2.17704e-06
4.37922e-07
2.17689e-06
2.17676e-06
2.3368e-05
2.33677e-05
2.33702e-05
2.337e-05
4.38007e-07
2.17692e-06
2.17666e-06
2.17708e-06
2.17705e-06
2.33674e-05
2.33678e-05
5.64404e-07
1.09841e-06
4.23156e-07
4.28056e-07
5.64452e-07
1.09829e-06
4.23095e-07
1.31634e-06
6.71573e-06
1.31621e-06
6.71774e-06
5.64409e-07
4.23157e-07
1.09849e-06
4.28064e-07
5.64458e-07
4.23095e-07
1.09838e-06
1.31653e-06
6.71721e-06
6.71728e-06
1.31638e-06
5.64487e-07
4.28015e-07
1.09835e-06
4.23026e-07
1.09864e-06
4.23049e-07
5.64416e-07
1.31656e-06
6.71766e-06
6.71779e-06
1.31639e-06
5.64493e-07
4.28022e-07
4.23027e-07
1.09844e-06
4.23049e-07
1.09873e-06
5.64422e-07
1.31645e-06
6.71665e-06
1.31635e-06
6.71669e-06
5.64406e-07
4.23156e-07
1.09821e-06
4.2806e-07
5.64452e-07
4.23094e-07
1.09812e-06
1.31646e-06
6.71524e-06
1.31636e-06
6.71728e-06
5.64487e-07
4.27999e-07
1.09822e-06
4.23025e-07
1.09853e-06
4.23047e-07
5.64416e-07
1.31671e-06
6.7166e-06
6.7167e-06
1.3165e-06
5.6449e-07
4.28018e-07
4.23026e-07
1.09818e-06
4.23048e-07
1.09845e-06
5.6442e-07
1.31671e-06
6.71724e-06
6.71729e-06
1.3165e-06
2.17727e-06
2.17639e-06
4.37952e-07
2.17741e-06
2.17651e-06
2.33659e-05
2.33707e-05
2.33719e-05
2.33722e-05
4.38033e-07
2.17734e-06
2.17649e-06
2.17768e-06
2.17669e-06
2.33705e-05
2.33707e-05
5.64394e-07
4.23156e-07
1.09831e-06
4.28056e-07
5.64442e-07
4.23094e-07
1.09822e-06
1.31633e-06
6.71543e-06
1.3162e-06
6.71741e-06
1.31633e-06
6.71561e-06
1.3162e-06
6.71761e-06
5.64481e-07
4.28016e-07
4.23026e-07
1.09818e-06
4.23049e-07
1.09844e-06
5.6441e-07
5.64479e-07
4.28015e-07
4.23026e-07
1.09828e-06
4.23048e-07
1.09855e-06
5.64408e-07
1.31654e-06
6.71736e-06
6.71742e-06
1.31638e-06
1.31654e-06
6.71756e-06
6.71762e-06
1.31637e-06
2.33662e-05
2.3371e-05
2.33673e-05
2.33724e-05
4.3803e-07
2.1765e-06
2.17695e-06
2.17669e-06
2.17714e-06
2.33707e-05
2.3371e-05
2.33721e-05
2.33724e-05
2.33683e-05
2.33682e-05
2.33717e-05
2.33716e-05
2.17657e-06
2.17704e-06
4.37897e-07
2.17639e-06
2.17687e-06
2.33682e-05
2.33682e-05
2.33716e-05
2.33716e-05
4.37996e-07
2.17639e-06
2.17687e-06
2.17656e-06
2.17703e-06
1.31649e-06
6.71679e-06
1.31671e-06
6.71675e-06
5.64413e-07
1.09843e-06
4.23022e-07
4.27993e-07
5.64499e-07
1.09813e-06
4.23021e-07
5.6441e-07
1.09854e-06
4.23022e-07
4.27993e-07
5.64498e-07
1.09823e-06
4.23021e-07
1.31672e-06
6.71629e-06
6.71622e-06
1.3165e-06
1.31671e-06
6.71675e-06
6.71675e-06
1.31649e-06
5.6449e-07
4.27991e-07
1.09813e-06
4.23018e-07
1.09843e-06
4.23018e-07
5.64414e-07
5.64488e-07
4.27991e-07
1.09823e-06
4.23018e-07
1.09854e-06
4.23018e-07
5.64413e-07
2.17711e-06
2.17697e-06
4.37899e-07
2.17689e-06
2.17668e-06
2.33676e-05
2.33673e-05
2.33705e-05
2.337e-05
4.37998e-07
2.17686e-06
2.17666e-06
2.17705e-06
2.17698e-06
2.33673e-05
2.33675e-05
5.64405e-07
1.09868e-06
4.23022e-07
4.2799e-07
5.64492e-07
1.09836e-06
4.23021e-07
1.31639e-06
6.71767e-06
1.31658e-06
6.71761e-06
5.64413e-07
4.23023e-07
1.09876e-06
4.27997e-07
5.645e-07
4.23022e-07
1.09844e-06
1.31655e-06
6.7172e-06
6.71723e-06
1.31637e-06
5.64481e-07
4.27987e-07
1.09836e-06
4.23018e-07
1.09868e-06
4.23018e-07
5.64408e-07
1.31657e-06
6.71759e-06
6.71763e-06
1.31639e-06
5.64489e-07
4.27994e-07
4.23019e-07
1.09844e-06
4.23019e-07
1.09876e-06
5.64415e-07
1.3165e-06
6.71662e-06
1.31673e-06
6.71658e-06
5.64415e-07
4.23022e-07
1.09848e-06
4.27993e-07
5.64497e-07
4.23021e-07
1.09819e-06
1.3165e-06
6.71724e-06
1.31673e-06
6.71719e-06
5.64488e-07
4.27988e-07
1.09822e-06
4.23018e-07
1.09854e-06
4.23021e-07
5.64411e-07
1.31673e-06
6.71657e-06
6.7166e-06
1.3165e-06
5.64491e-07
4.2799e-07
4.23018e-07
1.09819e-06
4.23018e-07
1.09849e-06
5.64415e-07
1.31673e-06
6.71718e-06
6.71719e-06
1.3165e-06
2.17762e-06
2.17666e-06
4.37901e-07
2.17733e-06
2.17648e-06
2.33705e-05
2.33703e-05
2.33717e-05
2.33718e-05
4.37999e-07
2.17733e-06
2.17648e-06
2.17761e-06
2.17665e-06
2.33703e-05
2.33703e-05
5.644e-07
4.23022e-07
1.09858e-06
4.27989e-07
5.64486e-07
4.23021e-07
1.09828e-06
1.31638e-06
6.71736e-06
1.31656e-06
6.71731e-06
1.31637e-06
6.71757e-06
1.31656e-06
6.71751e-06
5.64481e-07
4.2799e-07
4.23019e-07
1.09818e-06
4.23021e-07
1.09848e-06
5.64404e-07
5.64477e-07
4.27987e-07
4.23018e-07
1.09828e-06
4.23018e-07
1.09858e-06
5.64401e-07
1.31656e-06
6.71729e-06
6.71731e-06
1.31637e-06
1.31656e-06
6.71749e-06
6.71752e-06
1.31637e-06
2.33707e-05
2.33706e-05
2.33721e-05
2.3372e-05
4.37998e-07
2.17649e-06
2.17694e-06
2.17666e-06
2.1771e-06
2.33706e-05
2.33706e-05
2.33719e-05
2.3372e-05
2.33682e-05
2.33682e-05
2.33717e-05
2.33716e-05
2.17655e-06
2.17703e-06
4.37902e-07
2.17639e-06
2.17686e-06
2.33682e-05
2.33682e-05
2.33716e-05
2.33716e-05
4.37997e-07
2.17638e-06
2.17687e-06
2.17655e-06
2.17703e-06
1.31649e-06
6.71675e-06
1.31671e-06
6.71675e-06
5.64417e-07
1.09843e-06
4.23021e-07
4.27993e-07
5.64496e-07
1.09813e-06
4.23021e-07
5.64415e-07
1.09854e-06
4.23021e-07
4.27993e-07
5.64494e-07
1.09823e-06
4.23021e-07
1.31672e-06
6.71629e-06
6.7162e-06
1.31649e-06
1.31671e-06
6.71674e-06
6.71675e-06
1.31649e-06
5.64494e-07
4.27991e-07
1.09813e-06
4.23018e-07
1.09843e-06
4.23019e-07
5.64412e-07
5.64492e-07
4.27991e-07
1.09823e-06
4.23018e-07
1.09853e-06
4.23018e-07
5.64411e-07
2.17703e-06
2.17698e-06
4.37899e-07
2.17684e-06
2.17668e-06
2.33675e-05
2.33673e-05
2.33705e-05
2.33701e-05
4.37995e-07
2.17684e-06
2.17668e-06
2.177e-06
2.17699e-06
2.33674e-05
2.33675e-05
5.6441e-07
1.09868e-06
4.23021e-07
4.2799e-07
5.64488e-07
1.09836e-06
4.23021e-07
1.31639e-06
6.71761e-06
1.31657e-06
6.7176e-06
5.64418e-07
4.23022e-07
1.09876e-06
4.27997e-07
5.64496e-07
4.23022e-07
1.09844e-06
1.31655e-06
6.71719e-06
6.71721e-06
1.31637e-06
5.64487e-07
4.27988e-07
1.09836e-06
4.23018e-07
1.09868e-06
4.23018e-07
5.64406e-07
1.31657e-06
6.71759e-06
6.71763e-06
1.31639e-06
5.64494e-07
4.27995e-07
4.23019e-07
1.09844e-06
4.23019e-07
1.09876e-06
5.64414e-07
1.31651e-06
6.71659e-06
1.31672e-06
6.71658e-06
5.64417e-07
4.23021e-07
1.09849e-06
4.27993e-07
5.64493e-07
4.23021e-07
1.09819e-06
1.31651e-06
6.71719e-06
1.31673e-06
6.71718e-06
5.64491e-07
4.27986e-07
1.09822e-06
4.23017e-07
1.09854e-06
4.2302e-07
5.64412e-07
1.31673e-06
6.71657e-06
6.7166e-06
1.3165e-06
5.64494e-07
4.27991e-07
4.23018e-07
1.09819e-06
4.23018e-07
1.09849e-06
5.64416e-07
1.31673e-06
6.71718e-06
6.71718e-06
1.3165e-06
2.17761e-06
2.17665e-06
4.37906e-07
2.17733e-06
2.17648e-06
2.33703e-05
2.33703e-05
2.33717e-05
2.33718e-05
4.38001e-07
2.17733e-06
2.17648e-06
2.17761e-06
2.17665e-06
2.33703e-05
2.33703e-05
5.64403e-07
4.23021e-07
1.09858e-06
4.27989e-07
5.64482e-07
4.23021e-07
1.09828e-06
1.31637e-06
6.71729e-06
1.31655e-06
6.7173e-06
1.31637e-06
6.7175e-06
1.31655e-06
6.71749e-06
5.64483e-07
4.27989e-07
4.23017e-07
1.09818e-06
4.2302e-07
1.09848e-06
5.64403e-07
5.64481e-07
4.27987e-07
4.23018e-07
1.09828e-06
4.23018e-07
1.09858e-06
5.64401e-07
1.31656e-06
6.7173e-06
6.7173e-06
1.31637e-06
1.31655e-06
6.7175e-06
6.7175e-06
1.31636e-06
2.33706e-05
2.33706e-05
2.33719e-05
2.3372e-05
4.37999e-07
2.17649e-06
2.17694e-06
2.17666e-06
2.1771e-06
2.33706e-05
2.33706e-05
2.33719e-05
2.3372e-05
2.33682e-05
2.33682e-05
2.33717e-05
2.33716e-05
2.17654e-06
2.17703e-06
4.37902e-07
2.17636e-06
2.17686e-06
2.33682e-05
2.33682e-05
2.33716e-05
2.33716e-05
4.37998e-07
2.17636e-06
2.17687e-06
2.17653e-06
2.17703e-06
1.31649e-06
6.71675e-06
1.31671e-06
6.71662e-06
5.64418e-07
1.09843e-06
4.23021e-07
4.27993e-07
5.64493e-07
1.09813e-06
4.23021e-07
5.64414e-07
1.09853e-06
4.23021e-07
4.27993e-07
5.64492e-07
1.09825e-06
4.2302e-07
1.31672e-06
6.71622e-06
6.71622e-06
1.31649e-06
1.31671e-06
6.71657e-06
6.71663e-06
1.31649e-06
5.64495e-07
4.27991e-07
1.09812e-06
4.23018e-07
1.09843e-06
4.23019e-07
5.64412e-07
5.64493e-07
4.2799e-07
1.0983e-06
4.23018e-07
1.09859e-06
4.23018e-07
5.64412e-07
2.17701e-06
2.177e-06
4.37899e-07
2.17692e-06
2.17669e-06
2.33676e-05
2.33674e-05
2.3369e-05
2.33693e-05
4.37994e-07
2.17709e-06
2.17667e-06
2.17724e-06
2.177e-06
2.33673e-05
2.33676e-05
5.64409e-07
1.09868e-06
4.23021e-07
4.2799e-07
5.64485e-07
1.09836e-06
4.23021e-07
1.31639e-06
6.71761e-06
1.31657e-06
6.7176e-06
5.64416e-07
4.23021e-07
1.09876e-06
4.27997e-07
5.64493e-07
4.23021e-07
1.09844e-06
1.31655e-06
6.7172e-06
6.71721e-06
1.31637e-06
5.64487e-07
4.27988e-07
1.09836e-06
4.23018e-07
1.09868e-06
4.23018e-07
5.64407e-07
1.31657e-06
6.71759e-06
6.71762e-06
1.31638e-06
5.64494e-07
4.27995e-07
4.23018e-07
1.09844e-06
4.23019e-07
1.09876e-06
5.64414e-07
1.31651e-06
6.71659e-06
1.31672e-06
6.71658e-06
5.64415e-07
4.23021e-07
1.09849e-06
4.27993e-07
5.64493e-07
4.23021e-07
1.09819e-06
1.31651e-06
6.71718e-06
1.31673e-06
6.71718e-06
5.6449e-07
4.27986e-07
1.09822e-06
4.23017e-07
1.09854e-06
4.23019e-07
5.64413e-07
1.31673e-06
6.71657e-06
6.71661e-06
1.3165e-06
5.64493e-07
4.27991e-07
4.23018e-07
1.09819e-06
4.23019e-07
1.09849e-06
5.64417e-07
1.31673e-06
6.71718e-06
6.71719e-06
1.3165e-06
2.17761e-06
2.17665e-06
4.37906e-07
2.17733e-06
2.17647e-06
2.33703e-05
2.33703e-05
2.33717e-05
2.33718e-05
4.38001e-07
2.17733e-06
2.17648e-06
2.17761e-06
2.17665e-06
2.33703e-05
2.33703e-05
5.64401e-07
4.23021e-07
1.09858e-06
4.27989e-07
5.64481e-07
4.23021e-07
1.09828e-06
1.31637e-06
6.7173e-06
1.31655e-06
6.7173e-06
1.31637e-06
6.7175e-06
1.31655e-06
6.7175e-06
5.64483e-07
4.27989e-07
4.23018e-07
1.09818e-06
4.2302e-07
1.09848e-06
5.64404e-07
5.6448e-07
4.27987e-07
4.23018e-07
1.09828e-06
4.23019e-07
1.09858e-06
5.64402e-07
1.31656e-06
6.7173e-06
6.7173e-06
1.31637e-06
1.31655e-06
6.7175e-06
6.71751e-06
1.31637e-06
2.33706e-05
2.33706e-05
2.3372e-05
2.33719e-05
4.38e-07
2.17649e-06
2.17694e-06
2.17666e-06
2.1771e-06
2.33706e-05
2.33706e-05
2.33719e-05
2.3372e-05
2.33682e-05
2.33687e-05
2.33716e-05
2.33716e-05
2.17654e-06
2.17703e-06
4.37902e-07
2.1764e-06
2.17686e-06
2.33688e-05
2.33687e-05
2.33716e-05
2.33716e-05
4.37998e-07
2.17642e-06
2.17687e-06
2.17661e-06
2.17702e-06