/*--------------------------------*- C++ -*----------------------------------*\
| =========                 |                                                 |
| \\      /  F ield         | OpenFOAM: The Open Source CFD Toolbox           |
|  \\    /   O peration     | Version:  2206                                  |
|   \\  /    A nd           | Website:  www.openfoam.com                      |
|    \\/     M anipulation  |                                                 |
\*---------------------------------------------------------------------------*/
FoamFile
{
    version     2.0;
    format      ascii;
    arch        "LSB;label=32;scalar=64";
    class       volScalarField;
    location    "9.5";
    object      k;
}
// * * * * * * * * * * * * * * * * * * * * * * * * * * * * * * * * * * * * * //

dimensions      [0 2 -2 0 0 0 0];

internalField   nonuniform List<scalar> 
28687
(
3.29831e-05
3.29445e-05
3.29446e-05
3.28816e-05
3.29829e-05
3.29445e-05
3.29444e-05
3.2881e-05
3.29766e-05
3.29361e-05
3.29377e-05
3.28741e-05
3.29723e-05
3.29335e-05
3.29335e-05
3.28698e-05
3.29723e-05
3.29335e-05
3.29335e-05
3.28698e-05
3.29722e-05
3.29335e-05
3.29335e-05
3.28698e-05
3.29722e-05
3.29335e-05
3.29335e-05
3.28698e-05
3.29722e-05
3.29335e-05
3.29335e-05
3.28698e-05
3.29722e-05
3.29335e-05
3.29335e-05
3.28698e-05
3.29722e-05
3.29335e-05
3.29335e-05
3.28698e-05
3.29722e-05
3.29335e-05
3.29335e-05
3.28698e-05
3.29722e-05
3.29335e-05
3.29335e-05
3.28698e-05
3.29722e-05
3.29335e-05
3.29335e-05
3.28698e-05
3.29722e-05
3.29335e-05
3.29335e-05
3.28698e-05
3.29722e-05
3.29335e-05
3.29335e-05
3.28698e-05
3.29722e-05
3.29335e-05
3.29335e-05
3.28698e-05
3.29722e-05
3.29335e-05
3.29335e-05
3.28698e-05
3.29722e-05
3.29335e-05
3.29335e-05
3.28698e-05
3.29446e-05
3.2882e-05
3.29445e-05
3.28816e-05
3.28817e-05
3.29446e-05
3.29446e-05
3.29444e-05
3.29445e-05
3.28817e-05
3.28819e-05
3.29446e-05
3.29445e-05
3.29445e-05
3.29444e-05
3.29446e-05
3.29446e-05
3.29445e-05
3.28815e-05
3.28817e-05
3.29446e-05
3.29444e-05
3.29445e-05
3.28817e-05
3.28813e-05
3.28781e-05
3.29444e-05
3.29443e-05
3.29414e-05
3.29387e-05
3.28814e-05
3.28738e-05
3.29444e-05
3.29443e-05
3.29414e-05
3.29414e-05
3.29444e-05
3.29391e-05
3.29413e-05
3.28812e-05
3.28781e-05
3.29444e-05
3.29414e-05
3.29414e-05
3.28779e-05
3.28745e-05
3.28706e-05
3.29378e-05
3.2936e-05
3.29335e-05
3.29334e-05
3.28712e-05
3.28705e-05
3.29379e-05
3.29378e-05
3.29336e-05
3.29335e-05
3.29378e-05
3.29335e-05
3.29335e-05
3.28744e-05
3.28705e-05
3.29378e-05
3.29335e-05
3.29336e-05
3.28705e-05
3.28702e-05
3.28705e-05
3.29336e-05
3.29335e-05
3.29335e-05
3.29335e-05
3.28701e-05
3.28705e-05
3.29336e-05
3.29336e-05
3.29335e-05
3.29334e-05
3.29336e-05
3.29335e-05
3.29335e-05
3.28701e-05
3.28705e-05
3.29336e-05
3.29335e-05
3.29335e-05
3.28705e-05
3.28701e-05
3.28705e-05
3.29336e-05
3.29336e-05
3.29335e-05
3.29335e-05
3.28701e-05
3.28705e-05
3.29336e-05
3.29336e-05
3.29335e-05
3.29334e-05
3.29336e-05
3.29335e-05
3.29335e-05
3.28701e-05
3.28705e-05
3.29336e-05
3.29335e-05
3.29335e-05
3.28705e-05
3.28701e-05
3.28705e-05
3.29336e-05
3.29336e-05
3.29335e-05
3.29335e-05
3.28701e-05
3.28705e-05
3.29336e-05
3.29336e-05
3.29335e-05
3.29334e-05
3.29336e-05
3.29335e-05
3.29335e-05
3.28701e-05
3.28705e-05
3.29336e-05
3.29335e-05
3.29335e-05
3.28705e-05
3.28701e-05
3.28705e-05
3.29336e-05
3.29336e-05
3.29335e-05
3.29335e-05
3.28701e-05
3.28705e-05
3.29336e-05
3.29336e-05
3.29335e-05
3.29334e-05
3.29336e-05
3.29335e-05
3.29335e-05
3.28701e-05
3.28705e-05
3.29336e-05
3.29335e-05
3.29335e-05
3.28705e-05
3.28701e-05
3.28705e-05
3.29336e-05
3.29336e-05
3.29335e-05
3.29335e-05
3.28701e-05
3.28705e-05
3.29336e-05
3.29336e-05
3.29335e-05
3.29334e-05
3.29336e-05
3.29335e-05
3.29335e-05
3.28701e-05
3.28705e-05
3.29336e-05
3.29335e-05
3.29335e-05
3.28705e-05
3.28701e-05
3.28705e-05
3.29336e-05
3.29336e-05
3.29335e-05
3.29335e-05
3.28701e-05
3.28705e-05
3.29336e-05
3.29336e-05
3.29335e-05
3.29334e-05
3.29336e-05
3.29335e-05
3.29335e-05
3.28701e-05
3.28705e-05
3.29336e-05
3.29335e-05
3.29335e-05
3.28705e-05
3.28701e-05
3.28705e-05
3.29336e-05
3.29336e-05
3.29335e-05
3.29335e-05
3.28701e-05
3.28705e-05
3.29336e-05
3.29336e-05
3.29335e-05
3.29334e-05
3.29336e-05
3.29335e-05
3.29335e-05
3.28701e-05
3.28705e-05
3.29336e-05
3.29335e-05
3.29335e-05
3.28705e-05
3.28701e-05
3.28705e-05
3.29336e-05
3.29336e-05
3.29335e-05
3.29335e-05
3.28701e-05
3.28705e-05
3.29336e-05
3.29336e-05
3.29335e-05
3.29334e-05
3.29336e-05
3.29335e-05
3.29335e-05
3.28701e-05
3.28705e-05
3.29336e-05
3.29335e-05
3.29335e-05
3.28705e-05
3.28701e-05
3.28705e-05
3.29336e-05
3.29336e-05
3.29335e-05
3.29335e-05
3.28701e-05
3.28705e-05
3.29336e-05
3.29336e-05
3.29335e-05
3.29334e-05
3.29336e-05
3.29335e-05
3.29335e-05
3.28701e-05
3.28705e-05
3.29336e-05
3.29335e-05
3.29335e-05
3.28705e-05
3.28701e-05
3.28705e-05
3.29336e-05
3.29336e-05
3.29335e-05
3.29335e-05
3.28701e-05
3.28705e-05
3.29336e-05
3.29336e-05
3.29335e-05
3.29334e-05
3.29336e-05
3.29335e-05
3.29335e-05
3.28701e-05
3.28705e-05
3.29336e-05
3.29335e-05
3.29335e-05
3.28705e-05
3.28701e-05
3.28705e-05
3.29336e-05
3.29336e-05
3.29335e-05
3.29335e-05
3.28701e-05
3.28705e-05
3.29336e-05
3.29336e-05
3.29335e-05
3.29334e-05
3.29336e-05
3.29335e-05
3.29335e-05
3.28701e-05
3.28705e-05
3.29336e-05
3.29335e-05
3.29335e-05
3.28705e-05
3.28701e-05
3.28705e-05
3.29336e-05
3.29336e-05
3.29335e-05
3.29335e-05
3.28701e-05
3.28705e-05
3.29336e-05
3.29336e-05
3.29335e-05
3.29334e-05
3.29336e-05
3.29335e-05
3.29335e-05
3.28701e-05
3.28705e-05
3.29336e-05
3.29335e-05
3.29335e-05
3.28705e-05
3.28701e-05
3.28705e-05
3.29336e-05
3.29336e-05
3.29335e-05
3.29335e-05
3.28701e-05
3.28705e-05
3.29336e-05
3.29336e-05
3.29335e-05
3.29334e-05
3.29336e-05
3.29335e-05
3.29335e-05
3.28701e-05
3.28705e-05
3.29336e-05
3.29335e-05
3.29335e-05
3.28705e-05
3.28701e-05
3.28705e-05
3.29336e-05
3.29336e-05
3.29335e-05
3.29335e-05
3.28701e-05
3.28705e-05
3.29336e-05
3.29336e-05
3.29335e-05
3.29334e-05
3.29336e-05
3.29335e-05
3.29335e-05
3.28701e-05
3.28705e-05
3.29336e-05
3.29335e-05
3.29335e-05
3.28705e-05
3.28701e-05
3.29335e-05
3.29335e-05
3.28701e-05
3.29336e-05
3.29335e-05
3.29335e-05
3.28701e-05
3.29336e-05
3.35084e-05
5.80161e-05
3.35084e-05
5.80146e-05
8.1459e-05
8.14514e-05
3.35088e-05
5.80179e-05
3.35088e-05
5.80164e-05
3.29834e-05
3.29831e-05
3.29831e-05
3.2983e-05
3.29832e-05
3.29829e-05
3.29829e-05
3.26307e-05
3.3315e-05
3.29731e-05
3.29447e-05
3.26308e-05
3.33146e-05
3.29731e-05
8.14662e-05
8.14546e-05
3.26308e-05
3.2973e-05
3.33145e-05
3.29446e-05
3.26308e-05
3.2973e-05
3.33138e-05
3.43285e-05
3.43287e-05
3.2882e-05
3.43312e-05
3.43313e-05
3.35095e-05
5.80154e-05
3.35101e-05
5.80138e-05
8.14473e-05
8.14501e-05
3.35098e-05
5.80173e-05
3.35104e-05
5.80156e-05
3.29831e-05
3.29829e-05
3.29829e-05
3.29799e-05
3.29792e-05
3.29799e-05
3.29799e-05
3.26305e-05
3.33164e-05
3.29729e-05
3.29441e-05
3.26309e-05
3.3315e-05
3.29726e-05
8.14498e-05
8.1447e-05
3.26305e-05
3.29728e-05
3.33157e-05
3.29442e-05
3.2631e-05
3.29726e-05
3.33149e-05
3.43356e-05
3.43358e-05
3.28815e-05
3.43358e-05
3.43359e-05
3.34989e-05
5.80451e-05
3.35069e-05
5.8054e-05
8.15067e-05
8.15053e-05
3.34991e-05
5.80469e-05
3.35069e-05
5.80558e-05
3.29761e-05
3.29767e-05
3.29767e-05
3.29724e-05
3.29724e-05
3.29724e-05
3.29724e-05
3.26182e-05
3.33098e-05
3.2966e-05
3.29346e-05
3.26239e-05
3.33037e-05
3.2964e-05
8.14969e-05
8.15056e-05
3.26183e-05
3.29663e-05
3.3312e-05
3.29354e-05
3.26239e-05
3.29641e-05
3.33046e-05
3.4333e-05
3.43331e-05
3.28712e-05
3.4322e-05
3.43221e-05
3.3498e-05
5.80555e-05
3.34986e-05
5.80536e-05
8.15071e-05
8.15051e-05
3.34985e-05
5.80575e-05
3.3499e-05
5.80555e-05
3.29724e-05
3.29724e-05
3.29724e-05
3.29723e-05
3.29723e-05
3.29723e-05
3.29723e-05
3.26178e-05
3.33043e-05
3.29621e-05
3.29336e-05
3.26176e-05
3.33032e-05
3.29622e-05
8.1507e-05
8.15046e-05
3.26179e-05
3.29621e-05
3.33044e-05
3.29336e-05
3.26177e-05
3.29622e-05
3.33034e-05
3.43211e-05
3.43212e-05
3.28705e-05
3.43208e-05
3.43208e-05
3.3498e-05
5.80555e-05
3.34987e-05
5.80535e-05
8.15075e-05
8.15054e-05
3.34985e-05
5.80574e-05
3.3499e-05
5.80554e-05
3.29724e-05
3.29724e-05
3.29724e-05
3.29722e-05
3.29723e-05
3.29723e-05
3.29723e-05
3.26178e-05
3.33043e-05
3.29621e-05
3.29336e-05
3.26176e-05
3.33032e-05
3.29622e-05
8.15068e-05
8.15045e-05
3.26178e-05
3.29621e-05
3.33043e-05
3.29336e-05
3.26177e-05
3.29622e-05
3.33034e-05
3.43213e-05
3.43214e-05
3.28705e-05
3.43209e-05
3.4321e-05
3.3498e-05
5.80555e-05
3.34986e-05
5.80536e-05
8.15075e-05
8.15036e-05
3.34985e-05
5.80574e-05
3.3499e-05
5.80555e-05
3.29724e-05
3.29724e-05
3.29724e-05
3.29723e-05
3.29723e-05
3.29723e-05
3.29723e-05
3.26178e-05
3.33043e-05
3.29621e-05
3.29336e-05
3.26176e-05
3.33032e-05
3.29622e-05
8.15068e-05
8.15045e-05
3.26178e-05
3.29621e-05
3.33043e-05
3.29336e-05
3.26177e-05
3.29622e-05
3.33034e-05
3.43213e-05
3.43214e-05
3.28705e-05
3.43209e-05
3.4321e-05
3.3498e-05
5.80553e-05
3.34986e-05
5.80536e-05
8.15053e-05
8.15044e-05
3.34985e-05
5.80574e-05
3.3499e-05
5.80555e-05
3.29724e-05
3.29724e-05
3.29724e-05
3.29723e-05
3.29723e-05
3.29723e-05
3.29723e-05
3.26178e-05
3.33042e-05
3.29621e-05
3.29336e-05
3.26176e-05
3.33032e-05
3.29622e-05
8.15068e-05
8.15045e-05
3.26178e-05
3.29621e-05
3.33043e-05
3.29336e-05
3.26177e-05
3.29622e-05
3.33034e-05
3.43213e-05
3.43214e-05
3.28705e-05
3.43209e-05
3.4321e-05
3.3498e-05
5.80554e-05
3.34986e-05
5.80533e-05
8.15082e-05
8.1506e-05
3.34985e-05
5.80574e-05
3.3499e-05
5.80555e-05
3.29724e-05
3.29724e-05
3.29724e-05
3.29723e-05
3.29723e-05
3.29723e-05
3.29723e-05
3.26178e-05
3.33043e-05
3.29621e-05
3.29336e-05
3.26176e-05
3.33032e-05
3.29622e-05
8.15068e-05
8.15046e-05
3.26179e-05
3.29621e-05
3.33043e-05
3.29336e-05
3.26177e-05
3.29622e-05
3.33034e-05
3.43213e-05
3.43214e-05
3.28705e-05
3.43209e-05
3.4321e-05
3.3498e-05
5.80554e-05
3.34986e-05
5.80535e-05
8.15075e-05
8.15049e-05
3.34985e-05
5.80575e-05
3.3499e-05
5.80559e-05
3.29724e-05
3.29724e-05
3.29724e-05
3.29723e-05
3.29723e-05
3.29723e-05
3.29723e-05
3.26178e-05
3.33043e-05
3.29621e-05
3.29336e-05
3.26176e-05
3.33032e-05
3.29622e-05
8.15068e-05
8.15046e-05
3.26179e-05
3.29621e-05
3.33043e-05
3.29336e-05
3.26177e-05
3.29622e-05
3.33034e-05
3.43213e-05
3.43214e-05
3.28705e-05
3.43209e-05
3.4321e-05
3.3498e-05
5.80551e-05
3.34986e-05
5.80529e-05
8.15066e-05
8.15044e-05
3.34985e-05
5.80577e-05
3.34991e-05
5.80559e-05
3.29724e-05
3.29724e-05
3.29724e-05
3.29723e-05
3.29723e-05
3.29723e-05
3.29723e-05
3.26178e-05
3.33043e-05
3.29621e-05
3.29336e-05
3.26176e-05
3.33032e-05
3.29622e-05
8.15068e-05
8.15046e-05
3.26178e-05
3.29621e-05
3.33043e-05
3.29336e-05
3.26177e-05
3.29622e-05
3.33034e-05
3.43213e-05
3.43214e-05
3.28705e-05
3.43209e-05
3.4321e-05
3.3498e-05
5.80549e-05
3.34986e-05
5.8053e-05
8.15067e-05
8.15045e-05
3.34985e-05
5.8058e-05
3.3499e-05
5.80561e-05
3.29724e-05
3.29724e-05
3.29724e-05
3.29723e-05
3.29723e-05
3.29723e-05
3.29723e-05
3.26178e-05
3.33043e-05
3.29621e-05
3.29336e-05
3.26176e-05
3.33032e-05
3.29622e-05
8.15068e-05
8.15045e-05
3.26178e-05
3.29621e-05
3.33043e-05
3.29336e-05
3.26177e-05
3.29622e-05
3.33034e-05
3.43213e-05
3.43214e-05
3.28705e-05
3.43209e-05
3.4321e-05
3.3498e-05
5.80549e-05
3.34986e-05
5.80529e-05
8.15068e-05
8.15045e-05
3.34985e-05
5.80581e-05
3.3499e-05
5.80562e-05
3.29724e-05
3.29724e-05
3.29724e-05
3.29723e-05
3.29723e-05
3.29723e-05
3.29723e-05
3.26178e-05
3.33043e-05
3.29621e-05
3.29336e-05
3.26176e-05
3.33032e-05
3.29622e-05
8.15068e-05
8.15046e-05
3.26179e-05
3.29621e-05
3.33043e-05
3.29336e-05
3.26177e-05
3.29622e-05
3.33034e-05
3.43213e-05
3.43214e-05
3.28705e-05
3.43209e-05
3.4321e-05
3.3498e-05
5.80548e-05
3.34986e-05
5.80529e-05
8.15068e-05
8.15045e-05
3.34985e-05
5.80581e-05
3.3499e-05
5.80562e-05
3.29724e-05
3.29724e-05
3.29724e-05
3.29723e-05
3.29723e-05
3.29723e-05
3.29723e-05
3.26178e-05
3.33042e-05
3.29621e-05
3.29336e-05
3.26176e-05
3.33032e-05
3.29622e-05
8.15068e-05
8.15046e-05
3.26178e-05
3.29621e-05
3.33043e-05
3.29336e-05
3.26177e-05
3.29622e-05
3.33034e-05
3.43213e-05
3.43214e-05
3.28705e-05
3.43209e-05
3.4321e-05
3.3498e-05
5.80548e-05
3.34986e-05
5.80529e-05
8.15068e-05
8.15045e-05
3.34985e-05
5.80581e-05
3.3499e-05
5.80561e-05
3.29724e-05
3.29724e-05
3.29724e-05
3.29723e-05
3.29723e-05
3.29723e-05
3.29723e-05
3.26178e-05
3.33042e-05
3.29621e-05
3.29336e-05
3.26176e-05
3.33032e-05
3.29622e-05
8.15068e-05
8.15046e-05
3.26178e-05
3.29621e-05
3.33043e-05
3.29336e-05
3.26177e-05
3.29622e-05
3.33034e-05
3.43213e-05
3.43214e-05
3.28705e-05
3.43209e-05
3.4321e-05
3.3498e-05
5.80548e-05
3.34986e-05
5.80529e-05
8.15067e-05
8.15045e-05
3.34985e-05
5.80581e-05
3.3499e-05
5.80562e-05
3.29724e-05
3.29724e-05
3.29724e-05
3.29723e-05
3.29723e-05
3.29723e-05
3.29723e-05
3.26178e-05
3.33042e-05
3.29621e-05
3.29336e-05
3.26176e-05
3.33032e-05
3.29622e-05
8.15068e-05
8.15046e-05
3.26178e-05
3.29621e-05
3.33043e-05
3.29336e-05
3.26177e-05
3.29622e-05
3.33034e-05
3.43213e-05
3.43214e-05
3.28705e-05
3.43209e-05
3.4321e-05
3.3498e-05
5.80548e-05
3.34986e-05
5.80529e-05
8.15068e-05
8.15045e-05
3.34985e-05
5.80581e-05
3.3499e-05
5.80562e-05
3.29724e-05
3.29724e-05
3.29724e-05
3.29723e-05
3.29723e-05
3.29723e-05
3.29723e-05
3.26178e-05
3.33042e-05
3.29621e-05
3.29336e-05
3.26176e-05
3.33032e-05
3.29622e-05
8.15068e-05
8.15045e-05
3.26178e-05
3.29621e-05
3.33043e-05
3.29336e-05
3.26177e-05
3.29622e-05
3.33034e-05
3.43213e-05
3.43214e-05
3.28705e-05
3.43209e-05
3.43209e-05
3.3498e-05
5.80548e-05
3.34987e-05
5.80529e-05
8.15068e-05
8.15045e-05
3.34985e-05
5.80581e-05
3.3499e-05
5.80562e-05
3.29724e-05
3.29724e-05
3.29724e-05
3.29723e-05
3.29723e-05
3.29723e-05
3.29723e-05
3.26178e-05
3.33043e-05
3.29621e-05
3.29336e-05
3.26176e-05
3.33032e-05
3.29622e-05
8.15068e-05
8.15045e-05
3.26178e-05
3.29621e-05
3.33043e-05
3.29336e-05
3.26177e-05
3.29622e-05
3.33034e-05
3.43213e-05
3.43214e-05
3.28705e-05
3.43209e-05
3.43209e-05
3.34982e-05
5.80548e-05
3.34986e-05
5.80529e-05
8.15067e-05
8.15047e-05
3.34987e-05
5.80581e-05
3.3499e-05
5.80562e-05
3.29724e-05
3.29723e-05
3.29723e-05
3.26178e-05
3.33042e-05
3.29621e-05
3.29336e-05
3.26176e-05
3.33032e-05
3.29623e-05
8.15067e-05
8.15046e-05
3.26183e-05
3.29621e-05
3.33043e-05
3.29337e-05
3.26177e-05
3.29623e-05
3.33037e-05
3.43214e-05
3.43214e-05
3.28709e-05
3.43211e-05
3.4321e-05
5.80155e-05
3.33141e-05
8.14598e-05
3.4329e-05
3.43263e-05
8.14542e-05
3.33137e-05
5.80145e-05
8.14647e-05
8.14539e-05
8.14673e-05
8.14568e-05
3.43286e-05
3.43284e-05
3.2882e-05
3.43311e-05
3.4331e-05
8.14487e-05
8.14531e-05
8.14515e-05
8.14561e-05
3.28816e-05
3.43344e-05
3.43343e-05
3.43328e-05
3.43327e-05
3.35084e-05
5.80157e-05
3.35084e-05
5.80144e-05
3.26307e-05
3.33145e-05
3.2973e-05
3.29445e-05
3.26308e-05
3.33138e-05
3.2973e-05
3.26308e-05
3.33158e-05
3.29731e-05
3.29446e-05
3.26309e-05
3.3315e-05
3.29731e-05
3.35098e-05
5.80141e-05
5.80146e-05
3.35094e-05
3.35098e-05
5.80141e-05
5.80144e-05
3.35095e-05
3.26313e-05
3.29445e-05
3.33146e-05
3.29729e-05
3.33154e-05
3.29729e-05
3.26311e-05
3.26314e-05
3.29446e-05
3.33156e-05
3.2973e-05
3.33166e-05
3.2973e-05
3.26313e-05
3.43314e-05
3.43292e-05
3.28821e-05
3.43332e-05
3.43309e-05
8.1454e-05
8.14462e-05
8.14463e-05
8.14509e-05
3.28817e-05
3.43359e-05
3.43339e-05
3.4335e-05
3.4333e-05
8.14427e-05
8.14463e-05
3.26308e-05
3.33149e-05
3.2973e-05
3.29446e-05
3.2631e-05
3.33141e-05
3.2973e-05
3.35085e-05
5.80185e-05
3.35083e-05
5.80165e-05
3.26307e-05
3.29729e-05
3.33145e-05
3.29445e-05
3.26308e-05
3.29729e-05
3.33137e-05
3.351e-05
5.80157e-05
5.80166e-05
3.35098e-05
3.26314e-05
3.29445e-05
3.3315e-05
3.29729e-05
3.33159e-05
3.29729e-05
3.26312e-05
3.35097e-05
5.80159e-05
5.80165e-05
3.35095e-05
3.26313e-05
3.29445e-05
3.29728e-05
3.33146e-05
3.29729e-05
3.33155e-05
3.26311e-05
3.35084e-05
5.80149e-05
3.35084e-05
5.80134e-05
3.26307e-05
3.2973e-05
3.33144e-05
3.29446e-05
3.26308e-05
3.29729e-05
3.33137e-05
3.35083e-05
5.80182e-05
3.35083e-05
5.80162e-05
3.26313e-05
3.29447e-05
3.33154e-05
3.2973e-05
3.33164e-05
3.2973e-05
3.2631e-05
3.35097e-05
5.80129e-05
5.80134e-05
3.35094e-05
3.26313e-05
3.29445e-05
3.29729e-05
3.33146e-05
3.29729e-05
3.33153e-05
3.26311e-05
3.35096e-05
5.80157e-05
5.80162e-05
3.35093e-05
3.43272e-05
3.43284e-05
3.28819e-05
3.43294e-05
3.4331e-05
8.14665e-05
8.14556e-05
8.14491e-05
8.14546e-05
3.28815e-05
3.43329e-05
3.43343e-05
3.43317e-05
3.43327e-05
8.14505e-05
8.14548e-05
3.26308e-05
3.2973e-05
3.33147e-05
3.29446e-05
3.26309e-05
3.29729e-05
3.3314e-05
3.35085e-05
5.80186e-05
3.35084e-05
5.80166e-05
3.35086e-05
5.80192e-05
3.35084e-05
5.80172e-05
3.26314e-05
3.29445e-05
3.29729e-05
3.33147e-05
3.29729e-05
3.33155e-05
3.26311e-05
3.26314e-05
3.29445e-05
3.29728e-05
3.33148e-05
3.29729e-05
3.33156e-05
3.26312e-05
3.35097e-05
5.8016e-05
5.80166e-05
3.35095e-05
3.35098e-05
5.80167e-05
5.80172e-05
3.35096e-05
8.14668e-05
8.14558e-05
8.14679e-05
8.1457e-05
3.28816e-05
3.43345e-05
3.43346e-05
3.43329e-05
3.43331e-05
8.14507e-05
8.1455e-05
8.14518e-05
8.14562e-05
8.14484e-05
8.14468e-05
8.14513e-05
8.14498e-05
3.43358e-05
3.43357e-05
3.28813e-05
3.43359e-05
3.43359e-05
8.14748e-05
8.14473e-05
8.14785e-05
8.14505e-05
3.28808e-05
3.43344e-05
3.43343e-05
3.43366e-05
3.43365e-05
3.35096e-05
5.80141e-05
3.35107e-05
5.80157e-05
3.26306e-05
3.33162e-05
3.29728e-05
3.29441e-05
3.26311e-05
3.33149e-05
3.29726e-05
3.26308e-05
3.3317e-05
3.29729e-05
3.29438e-05
3.26317e-05
3.3315e-05
3.29726e-05
3.35103e-05
5.8029e-05
5.80141e-05
3.35073e-05
3.35104e-05
5.80489e-05
5.80197e-05
3.35073e-05
3.26304e-05
3.29435e-05
3.33125e-05
3.29698e-05
3.33161e-05
3.29719e-05
3.26268e-05
3.26305e-05
3.29422e-05
3.33092e-05
3.29693e-05
3.33158e-05
3.29718e-05
3.26265e-05
3.43369e-05
3.43352e-05
3.28809e-05
3.43359e-05
3.43341e-05
8.1443e-05
8.1446e-05
8.15011e-05
8.14597e-05
3.28795e-05
3.43287e-05
3.43283e-05
3.43364e-05
3.43348e-05
8.14956e-05
8.14561e-05
3.26307e-05
3.33166e-05
3.29728e-05
3.29442e-05
3.26312e-05
3.33152e-05
3.29725e-05
3.35096e-05
5.8016e-05
3.35105e-05
5.80164e-05
3.26305e-05
3.29728e-05
3.33163e-05
3.29441e-05
3.26311e-05
3.29725e-05
3.33149e-05
3.35105e-05
5.80304e-05
5.80163e-05
3.35077e-05
3.26305e-05
3.29435e-05
3.33127e-05
3.29698e-05
3.33165e-05
3.29719e-05
3.2627e-05
3.35103e-05
5.80293e-05
5.80169e-05
3.35075e-05
3.26303e-05
3.29435e-05
3.29698e-05
3.33124e-05
3.29719e-05
3.33162e-05
3.26269e-05
3.35095e-05
5.80131e-05
3.35106e-05
5.80157e-05
3.26305e-05
3.29728e-05
3.33161e-05
3.29441e-05
3.2631e-05
3.29725e-05
3.33148e-05
3.35094e-05
5.80157e-05
3.35105e-05
5.80162e-05
3.26303e-05
3.29425e-05
3.33103e-05
3.29695e-05
3.33161e-05
3.29718e-05
3.26269e-05
3.35104e-05
5.80477e-05
5.80206e-05
3.35074e-05
3.26303e-05
3.29435e-05
3.29697e-05
3.33123e-05
3.29719e-05
3.3316e-05
3.26269e-05
3.35102e-05
5.80288e-05
5.80164e-05
3.35073e-05
3.43347e-05
3.43357e-05
3.28813e-05
3.43346e-05
3.43358e-05
8.14502e-05
8.14486e-05
8.14774e-05
8.14486e-05
3.28807e-05
3.4333e-05
3.43342e-05
3.43353e-05
3.43364e-05
8.14774e-05
8.14492e-05
3.26306e-05
3.29728e-05
3.33164e-05
3.29442e-05
3.26311e-05
3.29725e-05
3.33151e-05
3.35096e-05
5.8016e-05
3.35106e-05
5.80165e-05
3.35097e-05
5.80167e-05
3.35106e-05
5.80172e-05
3.26303e-05
3.29435e-05
3.29698e-05
3.33123e-05
3.29719e-05
3.33161e-05
3.2627e-05
3.26304e-05
3.29435e-05
3.29697e-05
3.33126e-05
3.29719e-05
3.33163e-05
3.2627e-05
3.35103e-05
5.80296e-05
5.80167e-05
3.35076e-05
3.35104e-05
5.803e-05
5.80174e-05
3.35076e-05
8.14504e-05
8.14489e-05
8.14516e-05
8.14499e-05
3.28809e-05
3.43342e-05
3.43343e-05
3.43364e-05
3.43365e-05
8.14776e-05
8.14495e-05
8.14779e-05
8.14505e-05
8.14928e-05
8.15048e-05
8.14961e-05
8.15077e-05
3.43332e-05
3.43331e-05
3.2871e-05
3.43221e-05
3.43221e-05
8.15043e-05
8.15048e-05
8.15072e-05
8.15077e-05
3.28703e-05
3.43208e-05
3.43208e-05
3.43219e-05
3.43219e-05
3.34989e-05
5.80556e-05
3.35069e-05
5.80561e-05
3.26182e-05
3.33124e-05
3.29664e-05
3.29355e-05
3.26241e-05
3.33045e-05
3.29641e-05
3.26182e-05
3.33086e-05
3.29661e-05
3.29346e-05
3.26238e-05
3.33041e-05
3.2964e-05
3.34992e-05
5.80541e-05
5.8054e-05
3.34979e-05
3.34993e-05
5.8056e-05
5.80561e-05
3.3498e-05
3.26183e-05
3.2934e-05
3.33034e-05
3.29622e-05
3.33053e-05
3.29627e-05
3.26179e-05
3.26183e-05
3.29337e-05
3.33037e-05
3.29622e-05
3.33054e-05
3.29626e-05
3.26179e-05
3.43269e-05
3.43269e-05
3.28706e-05
3.43206e-05
3.43187e-05
8.15029e-05
8.15025e-05
8.15056e-05
8.15054e-05
3.28702e-05
3.43206e-05
3.43181e-05
3.43213e-05
3.43193e-05
8.15016e-05
8.15027e-05
3.26183e-05
3.33128e-05
3.29664e-05
3.29355e-05
3.26242e-05
3.33049e-05
3.29642e-05
3.34989e-05
5.80451e-05
3.35068e-05
5.8057e-05
3.26182e-05
3.29664e-05
3.33126e-05
3.29355e-05
3.26241e-05
3.29641e-05
3.33048e-05
3.34995e-05
5.80557e-05
5.80561e-05
3.34985e-05
3.26184e-05
3.29341e-05
3.33037e-05
3.29622e-05
3.33058e-05
3.29627e-05
3.2618e-05
3.34993e-05
5.80566e-05
5.80574e-05
3.34982e-05
3.26183e-05
3.2934e-05
3.29622e-05
3.33033e-05
3.29627e-05
3.33056e-05
3.2618e-05
3.3499e-05
5.80548e-05
3.35071e-05
5.80551e-05
3.26182e-05
3.29664e-05
3.33121e-05
3.29355e-05
3.26242e-05
3.29641e-05
3.33045e-05
3.34989e-05
5.80444e-05
3.3507e-05
5.80566e-05
3.26183e-05
3.29338e-05
3.33032e-05
3.29622e-05
3.3305e-05
3.29627e-05
3.26177e-05
3.34994e-05
5.80546e-05
5.80552e-05
3.3498e-05
3.26183e-05
3.2934e-05
3.29622e-05
3.33034e-05
3.29627e-05
3.33053e-05
3.26179e-05
3.34993e-05
5.80564e-05
5.80567e-05
3.34978e-05
3.43327e-05
3.4333e-05
3.28709e-05
3.43211e-05
3.43219e-05
8.14951e-05
8.15067e-05
8.15051e-05
8.15059e-05
3.28702e-05
3.43187e-05
3.43206e-05
3.43209e-05
3.43218e-05
8.15062e-05
8.15067e-05
3.26183e-05
3.29664e-05
3.33124e-05
3.29355e-05
3.26242e-05
3.29641e-05
3.33048e-05
3.3499e-05
5.80452e-05
3.35069e-05
5.8057e-05
3.3499e-05
5.80457e-05
3.35069e-05
5.80576e-05
3.26184e-05
3.29341e-05
3.29622e-05
3.33035e-05
3.29627e-05
3.33054e-05
3.26177e-05
3.26184e-05
3.29341e-05
3.29622e-05
3.33036e-05
3.29627e-05
3.33056e-05
3.2618e-05
3.34993e-05
5.80568e-05
5.80571e-05
3.34982e-05
3.34994e-05
5.80574e-05
5.80577e-05
3.34982e-05
8.14954e-05
8.1507e-05
8.14959e-05
8.15081e-05
3.28704e-05
3.43207e-05
3.43207e-05
3.43218e-05
3.43219e-05
8.15063e-05
8.1507e-05
8.15075e-05
8.15081e-05
8.15043e-05
8.1504e-05
8.15072e-05
8.15069e-05
3.43216e-05
3.43215e-05
3.28707e-05
3.43208e-05
3.43208e-05
8.1504e-05
8.1504e-05
8.1507e-05
8.15069e-05
3.28703e-05
3.43208e-05
3.43208e-05
3.43215e-05
3.43216e-05
3.3498e-05
5.8056e-05
3.3499e-05
5.80558e-05
3.26179e-05
3.33048e-05
3.29622e-05
3.29336e-05
3.26182e-05
3.33033e-05
3.29622e-05
3.26179e-05
3.33051e-05
3.29622e-05
3.29335e-05
3.26182e-05
3.33037e-05
3.29622e-05
3.34991e-05
5.8054e-05
5.80536e-05
3.3498e-05
3.34991e-05
5.80558e-05
5.80558e-05
3.3498e-05
3.26182e-05
3.29335e-05
3.33033e-05
3.29621e-05
3.33048e-05
3.29621e-05
3.26179e-05
3.26182e-05
3.29335e-05
3.33037e-05
3.29621e-05
3.33051e-05
3.29621e-05
3.26179e-05
3.43214e-05
3.43191e-05
3.28706e-05
3.43205e-05
3.43181e-05
8.15021e-05
8.15016e-05
8.15061e-05
8.15051e-05
3.28702e-05
3.43205e-05
3.43183e-05
3.43212e-05
3.4319e-05
8.15015e-05
8.1502e-05
3.26181e-05
3.33052e-05
3.29622e-05
3.29336e-05
3.26184e-05
3.33037e-05
3.29622e-05
3.34981e-05
5.80567e-05
3.34991e-05
5.80563e-05
3.26179e-05
3.29622e-05
3.33048e-05
3.29335e-05
3.26183e-05
3.29622e-05
3.33033e-05
3.34994e-05
5.80557e-05
5.80558e-05
3.34985e-05
3.26184e-05
3.29335e-05
3.33036e-05
3.29621e-05
3.33052e-05
3.29621e-05
3.26181e-05
3.3499e-05
5.80562e-05
5.80564e-05
3.34981e-05
3.26182e-05
3.29335e-05
3.29621e-05
3.33033e-05
3.29621e-05
3.33048e-05
3.26179e-05
3.3498e-05
5.80547e-05
3.3499e-05
5.80545e-05
3.26179e-05
3.29622e-05
3.33048e-05
3.29336e-05
3.26182e-05
3.29622e-05
3.33033e-05
3.34979e-05
5.80564e-05
3.34989e-05
5.80561e-05
3.26182e-05
3.29336e-05
3.33032e-05
3.29621e-05
3.33048e-05
3.29622e-05
3.26177e-05
3.3499e-05
5.80544e-05
5.80546e-05
3.34979e-05
3.26182e-05
3.29335e-05
3.29621e-05
3.33033e-05
3.29621e-05
3.33047e-05
3.26179e-05
3.34989e-05
5.8056e-05
5.80562e-05
3.34978e-05
3.43196e-05
3.43214e-05
3.28706e-05
3.43189e-05
3.43207e-05
8.15061e-05
8.15059e-05
8.15048e-05
8.15051e-05
3.28702e-05
3.4319e-05
3.43207e-05
3.43198e-05
3.43214e-05
8.15058e-05
8.15059e-05
3.2618e-05
3.29622e-05
3.3305e-05
3.29336e-05
3.26183e-05
3.29622e-05
3.33036e-05
3.34982e-05
5.80568e-05
3.34991e-05
5.80565e-05
3.34982e-05
5.80574e-05
3.34991e-05
5.80571e-05
3.26182e-05
3.29336e-05
3.29621e-05
3.33034e-05
3.29622e-05
3.33048e-05
3.26177e-05
3.26183e-05
3.29335e-05
3.29621e-05
3.33036e-05
3.29621e-05
3.3305e-05
3.2618e-05
3.34991e-05
5.80564e-05
5.80565e-05
3.34981e-05
3.34991e-05
5.8057e-05
5.80571e-05
3.34982e-05
8.15063e-05
8.15061e-05
8.15074e-05
8.15072e-05
3.28701e-05
3.43209e-05
3.4321e-05
3.43215e-05
3.43216e-05
8.1506e-05
8.15061e-05
8.15071e-05
8.15072e-05
8.1504e-05
8.15039e-05
8.1507e-05
8.15069e-05
3.43215e-05
3.43216e-05
3.28706e-05
3.43208e-05
3.43208e-05
8.1504e-05
8.15039e-05
8.15069e-05
8.15069e-05
3.28703e-05
3.43207e-05
3.43208e-05
3.43215e-05
3.43216e-05
3.3498e-05
5.80558e-05
3.3499e-05
5.80557e-05
3.26179e-05
3.33048e-05
3.29622e-05
3.29336e-05
3.26182e-05
3.33033e-05
3.29622e-05
3.26179e-05
3.33051e-05
3.29622e-05
3.29336e-05
3.26182e-05
3.33037e-05
3.29622e-05
3.34991e-05
5.8054e-05
5.80535e-05
3.3498e-05
3.34991e-05
5.80557e-05
5.80558e-05
3.3498e-05
3.26182e-05
3.29335e-05
3.33033e-05
3.29621e-05
3.33048e-05
3.29621e-05
3.26179e-05
3.26182e-05
3.29335e-05
3.33037e-05
3.29621e-05
3.33051e-05
3.29621e-05
3.26179e-05
3.43212e-05
3.43194e-05
3.28706e-05
3.43205e-05
3.43183e-05
8.1502e-05
8.15016e-05
8.15063e-05
8.15054e-05
3.28702e-05
3.43207e-05
3.43183e-05
3.43213e-05
3.43192e-05
8.15016e-05
8.1502e-05
3.26181e-05
3.33052e-05
3.29622e-05
3.29336e-05
3.26184e-05
3.33037e-05
3.29622e-05
3.34981e-05
5.80563e-05
3.3499e-05
5.80563e-05
3.2618e-05
3.29622e-05
3.33048e-05
3.29336e-05
3.26182e-05
3.29622e-05
3.33033e-05
3.34994e-05
5.80556e-05
5.80557e-05
3.34985e-05
3.26184e-05
3.29335e-05
3.33036e-05
3.29621e-05
3.33052e-05
3.29621e-05
3.26181e-05
3.3499e-05
5.80562e-05
5.80564e-05
3.34981e-05
3.26183e-05
3.29335e-05
3.29621e-05
3.33033e-05
3.29621e-05
3.33048e-05
3.2618e-05
3.3498e-05
5.80545e-05
3.3499e-05
5.80545e-05
3.26179e-05
3.29622e-05
3.33047e-05
3.29336e-05
3.26182e-05
3.29622e-05
3.33033e-05
3.34979e-05
5.80561e-05
3.34989e-05
5.8056e-05
3.26181e-05
3.29336e-05
3.33032e-05
3.29621e-05
3.33048e-05
3.29622e-05
3.26177e-05
3.3499e-05
5.80544e-05
5.80546e-05
3.3498e-05
3.26182e-05
3.29335e-05
3.29621e-05
3.33033e-05
3.29621e-05
3.33047e-05
3.26179e-05
3.34989e-05
5.8056e-05
5.80561e-05
3.34979e-05
3.432e-05
3.43215e-05
3.28706e-05
3.4319e-05
3.43207e-05
8.15058e-05
8.15058e-05
8.15048e-05
8.1505e-05
3.28702e-05
3.4319e-05
3.43207e-05
3.43198e-05
3.43214e-05
8.15058e-05
8.15059e-05
3.2618e-05
3.29622e-05
3.3305e-05
3.29336e-05
3.26183e-05
3.29622e-05
3.33036e-05
3.34981e-05
5.80564e-05
3.3499e-05
5.80564e-05
3.34982e-05
5.8057e-05
3.34991e-05
5.8057e-05
3.26182e-05
3.29336e-05
3.29621e-05
3.33034e-05
3.29622e-05
3.33048e-05
3.26177e-05
3.26183e-05
3.29335e-05
3.29621e-05
3.33036e-05
3.29621e-05
3.3305e-05
3.2618e-05
3.3499e-05
5.80564e-05
5.80564e-05
3.34981e-05
3.34991e-05
5.8057e-05
5.8057e-05
3.34982e-05
8.1506e-05
8.1506e-05
8.15071e-05
8.15072e-05
3.28702e-05
3.43209e-05
3.4321e-05
3.43216e-05
3.43217e-05
8.1506e-05
8.1506e-05
8.15072e-05
8.15072e-05
8.1504e-05
8.1504e-05
8.1507e-05
8.15069e-05
3.43214e-05
3.43216e-05
3.28706e-05
3.43206e-05
3.43208e-05
8.1504e-05
8.1504e-05
8.15069e-05
8.15068e-05
3.28703e-05
3.43206e-05
3.43208e-05
3.43213e-05
3.43216e-05
3.3498e-05
5.80557e-05
3.3499e-05
5.80551e-05
3.26179e-05
3.33047e-05
3.29622e-05
3.29336e-05
3.26182e-05
3.33033e-05
3.29622e-05
3.26179e-05
3.33051e-05
3.29622e-05
3.29336e-05
3.26182e-05
3.33038e-05
3.29622e-05
3.34991e-05
5.80538e-05
5.80536e-05
3.3498e-05
3.34991e-05
5.80549e-05
5.80552e-05
3.3498e-05
3.26182e-05
3.29335e-05
3.33033e-05
3.29621e-05
3.33047e-05
3.29621e-05
3.26179e-05
3.26182e-05
3.29335e-05
3.33039e-05
3.29621e-05
3.33055e-05
3.29621e-05
3.26179e-05
3.43215e-05
3.43194e-05
3.28706e-05
3.43208e-05
3.43181e-05
8.15021e-05
8.15016e-05
8.15033e-05
8.15039e-05
3.28702e-05
3.43205e-05
3.43178e-05
3.43217e-05
3.43189e-05
8.15016e-05
8.15021e-05
3.26181e-05
3.33052e-05
3.29622e-05
3.29336e-05
3.26184e-05
3.33037e-05
3.29622e-05
3.34981e-05
5.80563e-05
3.3499e-05
5.80563e-05
3.2618e-05
3.29622e-05
3.33048e-05
3.29336e-05
3.26182e-05
3.29622e-05
3.33033e-05
3.34994e-05
5.80557e-05
5.80558e-05
3.34985e-05
3.26184e-05
3.29335e-05
3.33036e-05
3.29621e-05
3.33052e-05
3.29621e-05
3.26181e-05
3.34991e-05
5.80562e-05
5.80564e-05
3.34981e-05
3.26183e-05
3.29335e-05
3.29621e-05
3.33033e-05
3.29621e-05
3.33048e-05
3.2618e-05
3.3498e-05
5.80546e-05
3.3499e-05
5.80545e-05
3.26179e-05
3.29622e-05
3.33047e-05
3.29336e-05
3.26182e-05
3.29622e-05
3.33033e-05
3.34979e-05
5.80561e-05
3.34989e-05
5.80561e-05
3.26181e-05
3.29336e-05
3.33032e-05
3.29621e-05
3.33047e-05
3.29622e-05
3.26177e-05
3.3499e-05
5.80544e-05
5.80546e-05
3.3498e-05
3.26182e-05
3.29335e-05
3.29621e-05
3.33033e-05
3.29621e-05
3.33047e-05
3.26179e-05
3.34989e-05
5.80561e-05
5.80561e-05
3.34979e-05
3.432e-05
3.43215e-05
3.28706e-05
3.4319e-05
3.43207e-05
8.15059e-05
8.15058e-05
8.15048e-05
8.1505e-05
3.28702e-05
3.4319e-05
3.43207e-05
3.43198e-05
3.43214e-05
8.15058e-05
8.15058e-05
3.2618e-05
3.29622e-05
3.3305e-05
3.29336e-05
3.26183e-05
3.29622e-05
3.33036e-05
3.34981e-05
5.80565e-05
3.3499e-05
5.80564e-05
3.34982e-05
5.8057e-05
3.34991e-05
5.8057e-05
3.26182e-05
3.29336e-05
3.29621e-05
3.33034e-05
3.29622e-05
3.33048e-05
3.26177e-05
3.26183e-05
3.29336e-05
3.29621e-05
3.33036e-05
3.29621e-05
3.3305e-05
3.2618e-05
3.3499e-05
5.80564e-05
5.80564e-05
3.34981e-05
3.34991e-05
5.8057e-05
5.8057e-05
3.34981e-05
8.15061e-05
8.1506e-05
8.15072e-05
8.15072e-05
3.28702e-05
3.43209e-05
3.4321e-05
3.43216e-05
3.43217e-05
8.1506e-05
8.15061e-05
8.15071e-05
8.15072e-05
8.1504e-05
8.15044e-05
8.15069e-05
8.15068e-05
3.43214e-05
3.43216e-05
3.28706e-05
3.43207e-05
3.43208e-05
8.15046e-05
8.15044e-05
8.15069e-05
8.15068e-05