/*--------------------------------*- C++ -*----------------------------------*\
| =========                 |                                                 |
| \\      /  F ield         | OpenFOAM: The Open Source CFD Toolbox           |
|  \\    /   O peration     | Version:  2206                                  |
|   \\  /    A nd           | Website:  www.openfoam.com                      |
|    \\/     M anipulation  |                                                 |
\*---------------------------------------------------------------------------*/
FoamFile
{
    version     2.0;
    format      ascii;
    arch        "LSB;label=32;scalar=64";
    class       volVectorField;
    location    "9.5";
    object      U;
}
// * * * * * * * * * * * * * * * * * * * * * * * * * * * * * * * * * * * * * //

dimensions      [0 1 -1 0 0 0 0];

internalField   nonuniform List<vector> 
28687
(
(-3.8787e-07 -3.93521e-07 0.101204)
(-2.18989e-07 3.92484e-07 0.101201)
(4.02555e-07 -2.16917e-07 0.101201)
(-3.53515e-05 -3.53695e-05 0.101195)
(-4.21949e-07 -4.03452e-07 0.101204)
(-2.04518e-07 4.33229e-07 0.101201)
(3.69018e-07 -1.62237e-07 0.101201)
(-3.53043e-05 -3.53112e-05 0.101195)
(-3.22259e-07 -3.20888e-07 0.101204)
(-3.11078e-07 4.43656e-07 0.101201)
(4.55001e-07 -3.17305e-07 0.101201)
(-3.548e-05 -3.54927e-05 0.101195)
(-3.66969e-07 -3.63988e-07 0.101204)
(-2.54049e-07 4.29563e-07 0.101201)
(4.24715e-07 -2.57261e-07 0.101201)
(-3.54007e-05 -3.54174e-05 0.101195)
(-3.71835e-07 -3.69195e-07 0.101204)
(-2.48857e-07 4.24238e-07 0.101201)
(4.21029e-07 -2.49927e-07 0.101201)
(-3.53941e-05 -3.54097e-05 0.101195)
(-3.72319e-07 -3.675e-07 0.101204)
(-2.48138e-07 4.26082e-07 0.101201)
(4.20844e-07 -2.4868e-07 0.101201)
(-3.53941e-05 -3.54087e-05 0.101195)
(-3.6987e-07 -3.5914e-07 0.101204)
(-2.48399e-07 4.39453e-07 0.101201)
(4.20503e-07 -2.46154e-07 0.101201)
(-3.53937e-05 -3.54067e-05 0.101195)
(-3.63738e-07 -3.63167e-07 0.101204)
(-2.43342e-07 4.10718e-07 0.101201)
(4.21211e-07 -2.45434e-07 0.101201)
(-3.53937e-05 -3.54069e-05 0.101195)
(-3.61e-07 -3.6585e-07 0.101204)
(-2.4854e-07 4.21999e-07 0.101201)
(4.21222e-07 -2.47446e-07 0.101201)
(-3.53922e-05 -3.54078e-05 0.101195)
(-3.69914e-07 -3.71658e-07 0.101204)
(-2.49606e-07 4.20392e-07 0.101201)
(4.20269e-07 -2.47852e-07 0.101201)
(-3.53929e-05 -3.54085e-05 0.101195)
(-3.71513e-07 -3.7032e-07 0.101204)
(-2.4893e-07 4.21519e-07 0.101201)
(4.20798e-07 -2.4959e-07 0.101201)
(-3.53933e-05 -3.54094e-05 0.101195)
(-3.71583e-07 -3.7016e-07 0.101204)
(-2.48775e-07 4.2162e-07 0.101201)
(4.21135e-07 -2.50025e-07 0.101201)
(-3.53932e-05 -3.54092e-05 0.101195)
(-3.71803e-07 -3.69912e-07 0.101204)
(-2.49247e-07 4.21888e-07 0.101201)
(4.20943e-07 -2.50335e-07 0.101201)
(-3.53942e-05 -3.541e-05 0.101195)
(-3.72134e-07 -3.70117e-07 0.101204)
(-2.48434e-07 4.21358e-07 0.101201)
(4.20236e-07 -2.49352e-07 0.101201)
(-3.53935e-05 -3.54094e-05 0.101195)
(-3.72177e-07 -3.70326e-07 0.101204)
(-2.48204e-07 4.21238e-07 0.101201)
(4.20465e-07 -2.49419e-07 0.101201)
(-3.53935e-05 -3.54091e-05 0.101195)
(-3.72602e-07 -3.70745e-07 0.101204)
(-2.47517e-07 4.20697e-07 0.101201)
(4.19966e-07 -2.48912e-07 0.101201)
(-3.53933e-05 -3.54088e-05 0.101195)
(-3.7351e-07 -3.7053e-07 0.101204)
(-2.48057e-07 4.21132e-07 0.101201)
(4.18623e-07 -2.47911e-07 0.101201)
(-3.53913e-05 -3.54053e-05 0.101195)
(-3.81436e-07 -3.76699e-07 0.101204)
(-2.4407e-07 4.16997e-07 0.101201)
(4.17104e-07 -2.4394e-07 0.101201)
(-3.53792e-05 -3.53874e-05 0.101195)
(-4.12859e-07 2.33221e-07 0.101201)
(3.66287e-05 -3.66041e-05 0.101196)
(-2.27875e-07 3.99914e-07 0.101201)
(3.53623e-05 3.53379e-05 0.101195)
(-3.66745e-05 -3.66434e-05 0.101195)
(4.16878e-07 2.21539e-07 0.101201)
(-4.07964e-07 2.31663e-07 0.101201)
(3.75503e-07 1.75844e-07 0.101201)
(-3.78764e-07 1.81627e-07 0.101201)
(-3.53555e-05 3.53262e-05 0.101195)
(3.67056e-05 -3.6689e-05 0.101195)
(2.18001e-07 4.03735e-07 0.101201)
(2.25899e-07 -4.12629e-07 0.101201)
(1.62489e-07 3.73554e-07 0.101201)
(1.75761e-07 -3.78521e-07 0.101201)
(-2.23451e-07 -4.12849e-07 0.101201)
(-1.71177e-07 3.69806e-07 0.101201)
(-1.79249e-07 -3.73671e-07 0.101201)
(3.53408e-05 -3.53728e-05 0.101195)
(-3.66456e-05 3.66771e-05 0.101195)
(-3.99038e-07 -2.1744e-07 0.101201)
(3.68585e-07 -1.63673e-07 0.101201)
(-3.69846e-07 -1.64148e-07 0.101201)
(3.66475e-05 3.66725e-05 0.101195)
(3.53037e-05 3.52978e-05 0.101195)
(-3.65309e-05 -3.65063e-05 0.101195)
(3.68226e-07 1.82345e-07 0.101201)
(-4.40262e-07 2.51758e-07 0.101201)
(4.7706e-07 3.44645e-07 0.101201)
(-4.71959e-07 3.31185e-07 0.101201)
(-3.53195e-05 3.52889e-05 0.101195)
(3.65571e-05 -3.6541e-05 0.101196)
(1.58436e-07 3.81194e-07 0.101201)
(1.71709e-07 -3.78359e-07 0.101201)
(3.30812e-07 4.78073e-07 0.101201)
(3.4423e-07 -4.80955e-07 0.101201)
(-1.77664e-07 -3.65868e-07 0.101201)
(-3.23839e-07 4.57953e-07 0.101201)
(-3.46201e-07 -4.73725e-07 0.101201)
(3.52881e-05 -3.53214e-05 0.101195)
(-3.65048e-05 3.65403e-05 0.101195)
(-3.71397e-07 -1.57899e-07 0.101201)
(4.69794e-07 -3.31864e-07 0.101201)
(-4.72506e-07 -3.32897e-07 0.101201)
(3.65085e-05 3.65332e-05 0.101195)
(3.54862e-05 3.54738e-05 0.101195)
(-3.66095e-05 -3.65917e-05 0.101196)
(4.67449e-07 3.27584e-07 0.101201)
(-4.54177e-07 3.11973e-07 0.101201)
(4.38077e-07 2.7145e-07 0.101201)
(-4.47277e-07 2.85243e-07 0.101201)
(-3.54678e-05 3.54352e-05 0.101195)
(3.66173e-05 -3.65739e-05 0.101196)
(3.18472e-07 4.61004e-07 0.101201)
(3.26127e-07 -4.65673e-07 0.101201)
(2.63533e-07 4.3062e-07 0.101201)
(2.73457e-07 -4.37928e-07 0.101201)
(-3.24752e-07 -4.63343e-07 0.101201)
(-2.61045e-07 4.35381e-07 0.101201)
(-2.71586e-07 -4.37711e-07 0.101201)
(3.54677e-05 -3.54976e-05 0.101195)
(-3.65875e-05 3.66199e-05 0.101196)
(-4.54743e-07 -3.15255e-07 0.101201)
(4.27002e-07 -2.61767e-07 0.101201)
(-4.26551e-07 -2.6293e-07 0.101201)
(3.65927e-05 3.66095e-05 0.101196)
(3.54081e-05 3.53929e-05 0.101195)
(-3.66188e-05 -3.66006e-05 0.101196)
(4.32933e-07 2.6767e-07 0.101201)
(-4.41699e-07 2.72374e-07 0.101201)
(4.31344e-07 2.56555e-07 0.101201)
(-4.34936e-07 2.61985e-07 0.101201)
(-3.541e-05 3.53999e-05 0.101195)
(3.66246e-05 -3.66004e-05 0.101196)
(2.58749e-07 4.2796e-07 0.101201)
(2.65978e-07 -4.34809e-07 0.101201)
(2.49499e-07 4.23589e-07 0.101201)
(2.5972e-07 -4.3124e-07 0.101201)
(-2.63689e-07 -4.32942e-07 0.101201)
(-2.48934e-07 4.25608e-07 0.101201)
(-2.57816e-07 -4.2951e-07 0.101201)
(3.53894e-05 -3.5421e-05 0.101195)
(-3.6597e-05 3.66299e-05 0.101196)
(-4.22929e-07 -2.54778e-07 0.101201)
(4.20618e-07 -2.47509e-07 0.101201)
(-4.19757e-07 -2.47944e-07 0.101201)
(3.66025e-05 3.66206e-05 0.101196)
(3.54017e-05 3.5387e-05 0.101195)
(-3.66204e-05 -3.65998e-05 0.101196)
(4.30058e-07 2.63339e-07 0.101201)
(-4.33244e-07 2.60018e-07 0.101201)
(4.30958e-07 2.56185e-07 0.101201)
(-4.32792e-07 2.59462e-07 0.101201)
(-3.5403e-05 3.538e-05 0.101195)
(3.66268e-05 -3.66013e-05 0.101196)
(2.51586e-07 4.24453e-07 0.101201)
(2.5862e-07 -4.30656e-07 0.101201)
(2.48227e-07 4.24466e-07 0.101201)
(2.58816e-07 -4.29832e-07 0.101201)
(-2.56821e-07 -4.28301e-07 0.101201)
(-2.47955e-07 4.25008e-07 0.101201)
(-2.57532e-07 -4.28383e-07 0.101201)
(3.53829e-05 -3.54142e-05 0.101195)
(-3.65973e-05 3.66311e-05 0.101196)
(-4.18982e-07 -2.46837e-07 0.101201)
(4.20252e-07 -2.46578e-07 0.101201)
(-4.1959e-07 -2.46566e-07 0.101201)
(3.66029e-05 3.66219e-05 0.101196)
(3.5401e-05 3.53871e-05 0.101195)
(-3.66235e-05 -3.65876e-05 0.101196)
(4.27035e-07 2.62261e-07 0.101201)
(-4.33735e-07 2.62447e-07 0.101201)
(4.32778e-07 2.66411e-07 0.101201)
(-4.37316e-07 2.70294e-07 0.101201)
(-3.54018e-05 3.53836e-05 0.101195)
(3.66259e-05 -3.65826e-05 0.101196)
(2.5039e-07 4.25408e-07 0.101201)
(2.58245e-07 -4.29025e-07 0.101201)
(2.4679e-07 4.31399e-07 0.101201)
(2.58751e-07 -4.26953e-07 0.101201)
(-2.56558e-07 -4.26739e-07 0.101201)
(-2.46879e-07 4.34179e-07 0.101201)
(-2.57055e-07 -4.25218e-07 0.101201)
(3.53831e-05 -3.54133e-05 0.101195)
(-3.65978e-05 3.66336e-05 0.101196)
(-4.18682e-07 -2.45622e-07 0.101201)
(4.19844e-07 -2.44193e-07 0.101201)
(-4.18487e-07 -2.44889e-07 0.101201)
(3.66037e-05 3.66242e-05 0.101196)
(3.54017e-05 3.54062e-05 0.101195)
(-3.66255e-05 -3.65914e-05 0.101196)
(4.35381e-07 2.78249e-07 0.101201)
(-4.40018e-07 2.78645e-07 0.101201)
(4.31659e-07 2.5576e-07 0.101201)
(-4.31999e-07 2.68952e-07 0.101201)
(-3.54071e-05 3.54017e-05 0.101195)
(3.6633e-05 -3.65936e-05 0.101196)
(2.48301e-07 4.35454e-07 0.101201)
(2.57882e-07 -4.25982e-07 0.101201)
(2.46291e-07 4.28647e-07 0.101201)
(2.57786e-07 -4.26211e-07 0.101201)
(-2.57038e-07 -4.23539e-07 0.101201)
(-2.45475e-07 4.229e-07 0.101201)
(-2.6191e-07 -4.25278e-07 0.101201)
(3.53829e-05 -3.54113e-05 0.101195)
(-3.65983e-05 3.6634e-05 0.101196)
(-4.17151e-07 -2.44946e-07 0.101201)
(4.20007e-07 -2.42226e-07 0.101201)
(-4.16651e-07 -2.52173e-07 0.101201)
(3.66029e-05 3.66242e-05 0.101196)
(3.54042e-05 3.53934e-05 0.101195)
(-3.66318e-05 -3.65911e-05 0.101196)
(4.3841e-07 2.64155e-07 0.101201)
(-4.13788e-07 2.50426e-07 0.101201)
(4.36819e-07 2.68416e-07 0.101201)
(-4.35658e-07 2.67262e-07 0.101201)
(-3.53885e-05 3.53734e-05 0.101196)
(3.66218e-05 -3.65991e-05 0.101196)
(2.51598e-07 4.28459e-07 0.101201)
(2.57279e-07 -4.26729e-07 0.101201)
(2.51044e-07 4.19836e-07 0.101201)
(2.58588e-07 -4.27981e-07 0.101201)
(-2.61394e-07 -4.2559e-07 0.101201)
(-2.52025e-07 4.27296e-07 0.101201)
(-2.54944e-07 -4.27755e-07 0.101201)
(3.53823e-05 -3.54112e-05 0.101195)
(-3.65974e-05 3.66323e-05 0.101196)
(-4.16099e-07 -2.52992e-07 0.101201)
(4.20847e-07 -2.44271e-07 0.101201)
(-4.17262e-07 -2.47093e-07 0.101201)
(3.66044e-05 3.66224e-05 0.101196)
(3.54009e-05 3.53875e-05 0.101195)
(-3.66297e-05 -3.65961e-05 0.101196)
(4.37248e-07 2.68248e-07 0.101201)
(-4.26453e-07 2.51943e-07 0.101201)
(4.29272e-07 2.56766e-07 0.101201)
(-4.31068e-07 2.5814e-07 0.101201)
(-3.54031e-05 3.53818e-05 0.101195)
(3.66302e-05 -3.66006e-05 0.101196)
(2.5322e-07 4.22254e-07 0.101201)
(2.58161e-07 -4.28106e-07 0.101201)
(2.47058e-07 4.21587e-07 0.101201)
(2.57544e-07 -4.29387e-07 0.101201)
(-2.5413e-07 -4.26332e-07 0.101201)
(-2.47795e-07 4.21072e-07 0.101201)
(-2.55335e-07 -4.27489e-07 0.101201)
(3.53824e-05 -3.54121e-05 0.101195)
(-3.65981e-05 3.66313e-05 0.101196)
(-4.16667e-07 -2.45877e-07 0.101201)
(4.19662e-07 -2.4484e-07 0.101201)
(-4.17775e-07 -2.46695e-07 0.101201)
(3.66038e-05 3.66222e-05 0.101196)
(3.54056e-05 3.53816e-05 0.101195)
(-3.66283e-05 -3.65961e-05 0.101196)
(4.3135e-07 2.56585e-07 0.101201)
(-4.30982e-07 2.55238e-07 0.101201)
(4.31206e-07 2.57428e-07 0.101201)
(-4.33783e-07 2.59413e-07 0.101201)
(-3.54e-05 3.53787e-05 0.101195)
(3.6625e-05 -3.66006e-05 0.101196)
(2.49865e-07 4.2244e-07 0.101201)
(2.56757e-07 -4.29695e-07 0.101201)
(2.47603e-07 4.20951e-07 0.101201)
(2.58361e-07 -4.30718e-07 0.101201)
(-2.54801e-07 -4.26959e-07 0.101201)
(-2.48182e-07 4.2218e-07 0.101201)
(-2.56841e-07 -4.29295e-07 0.101201)
(3.53817e-05 -3.5413e-05 0.101195)
(-3.65972e-05 3.663e-05 0.101196)
(-4.17484e-07 -2.45604e-07 0.101201)
(4.20178e-07 -2.46698e-07 0.101201)
(-4.19077e-07 -2.47461e-07 0.101201)
(3.66032e-05 3.66208e-05 0.101196)
(3.54064e-05 3.53804e-05 0.101195)
(-3.66269e-05 -3.65957e-05 0.101196)
(4.31261e-07 2.55208e-07 0.101201)
(-4.33451e-07 2.58611e-07 0.101201)
(4.31903e-07 2.58469e-07 0.101201)
(-4.33524e-07 2.59018e-07 0.101201)
(-3.54022e-05 3.53801e-05 0.101195)
(3.66254e-05 -3.66005e-05 0.101196)
(2.50669e-07 4.2139e-07 0.101201)
(2.57813e-07 -4.30516e-07 0.101201)
(2.47891e-07 4.21114e-07 0.101201)
(2.58671e-07 -4.30939e-07 0.101201)
(-2.5615e-07 -4.28532e-07 0.101201)
(-2.4733e-07 4.21699e-07 0.101201)
(-2.5646e-07 -4.28896e-07 0.101201)
(3.53825e-05 -3.5414e-05 0.101195)
(-3.6597e-05 3.66297e-05 0.101196)
(-4.18538e-07 -2.46449e-07 0.101201)
(4.20254e-07 -2.47039e-07 0.101201)
(-4.18457e-07 -2.45698e-07 0.101201)
(3.66035e-05 3.66214e-05 0.101196)
(3.54079e-05 3.53812e-05 0.101195)
(-3.66265e-05 -3.65955e-05 0.101196)
(4.32398e-07 2.56319e-07 0.101201)
(-4.33622e-07 2.58822e-07 0.101201)
(4.3233e-07 2.59178e-07 0.101201)
(-4.34389e-07 2.59907e-07 0.101201)
(-3.5402e-05 3.53803e-05 0.101195)
(3.66248e-05 -3.65998e-05 0.101196)
(2.50894e-07 4.21921e-07 0.101201)
(2.58305e-07 -4.3077e-07 0.101201)
(2.48294e-07 4.21477e-07 0.101201)
(2.5907e-07 -4.31132e-07 0.101201)
(-2.56001e-07 -4.28261e-07 0.101201)
(-2.48403e-07 4.22611e-07 0.101201)
(-2.57378e-07 -4.2985e-07 0.101201)
(3.53829e-05 -3.54145e-05 0.101195)
(-3.65969e-05 3.66297e-05 0.101196)
(-4.18196e-07 -2.46803e-07 0.101201)
(4.20424e-07 -2.47619e-07 0.101201)
(-4.19483e-07 -2.48433e-07 0.101201)
(3.66025e-05 3.66203e-05 0.101196)
(3.54081e-05 3.53811e-05 0.101195)
(-3.66272e-05 -3.6596e-05 0.101196)
(4.32125e-07 2.56682e-07 0.101201)
(-4.33944e-07 2.59135e-07 0.101201)
(4.31633e-07 2.58685e-07 0.101201)
(-4.33526e-07 2.59132e-07 0.101201)
(-3.54026e-05 3.53809e-05 0.101195)
(3.66254e-05 -3.66003e-05 0.101196)
(2.5098e-07 4.21837e-07 0.101201)
(2.58348e-07 -4.30755e-07 0.101201)
(2.47492e-07 4.20768e-07 0.101201)
(2.58033e-07 -4.30186e-07 0.101201)
(-2.5644e-07 -4.28798e-07 0.101201)
(-2.47475e-07 4.21781e-07 0.101201)
(-2.56429e-07 -4.29151e-07 0.101201)
(3.53829e-05 -3.54143e-05 0.101195)
(-3.65977e-05 3.66305e-05 0.101196)
(-4.18763e-07 -2.47887e-07 0.101201)
(4.19562e-07 -2.46719e-07 0.101201)
(-4.18927e-07 -2.48146e-07 0.101201)
(3.6603e-05 3.66207e-05 0.101196)
(3.54075e-05 3.53806e-05 0.101195)
(-3.66276e-05 -3.65963e-05 0.101196)
(4.31905e-07 2.56295e-07 0.101201)
(-4.33341e-07 2.58514e-07 0.101201)
(4.31487e-07 2.58258e-07 0.101201)
(-4.33676e-07 2.58969e-07 0.101201)
(-3.54018e-05 3.53802e-05 0.101195)
(3.66256e-05 -3.66005e-05 0.101196)
(2.50445e-07 4.21586e-07 0.101201)
(2.57387e-07 -4.29949e-07 0.101201)
(2.47217e-07 4.20636e-07 0.101201)
(2.5818e-07 -4.30544e-07 0.101201)
(-2.55495e-07 -4.28233e-07 0.101201)
(-2.47289e-07 4.21849e-07 0.101201)
(-2.56029e-07 -4.2894e-07 0.101201)
(3.53819e-05 -3.54134e-05 0.101195)
(-3.65973e-05 3.66302e-05 0.101196)
(-4.18344e-07 -2.47441e-07 0.101201)
(4.19956e-07 -2.46775e-07 0.101201)
(-4.18886e-07 -2.47846e-07 0.101201)
(3.66031e-05 3.66211e-05 0.101196)
(3.54072e-05 3.53804e-05 0.101195)
(-3.66281e-05 -3.65967e-05 0.101196)
(4.31415e-07 2.55742e-07 0.101201)
(-4.33252e-07 2.58322e-07 0.101201)
(4.31101e-07 2.57848e-07 0.101201)
(-4.33101e-07 2.58315e-07 0.101201)
(-3.54017e-05 3.53802e-05 0.101195)
(3.66262e-05 -3.66013e-05 0.101196)
(2.50068e-07 4.21098e-07 0.101201)
(2.57516e-07 -4.30088e-07 0.101201)
(2.46633e-07 4.20406e-07 0.101201)
(2.57527e-07 -4.29914e-07 0.101201)
(-2.55182e-07 -4.27859e-07 0.101201)
(-2.46636e-07 4.21254e-07 0.101201)
(-2.55694e-07 -4.28587e-07 0.101201)
(3.53824e-05 -3.54138e-05 0.101195)
(-3.65983e-05 3.66311e-05 0.101196)
(-4.18069e-07 -2.47087e-07 0.101201)
(4.19305e-07 -2.46127e-07 0.101201)
(-4.18706e-07 -2.4738e-07 0.101201)
(3.66032e-05 3.66214e-05 0.101196)
(3.54068e-05 3.53802e-05 0.101195)
(-3.66279e-05 -3.65961e-05 0.101196)
(4.31167e-07 2.55369e-07 0.101201)
(-4.32767e-07 2.57662e-07 0.101201)
(4.30241e-07 2.57499e-07 0.101201)
(-4.32944e-07 2.57829e-07 0.101201)
(-3.54012e-05 3.53794e-05 0.101195)
(3.66261e-05 -3.66014e-05 0.101196)
(2.49556e-07 4.2106e-07 0.101201)
(2.56828e-07 -4.29689e-07 0.101201)
(2.45916e-07 4.20082e-07 0.101201)
(2.56904e-07 -4.29464e-07 0.101201)
(-2.54453e-07 -4.27502e-07 0.101201)
(-2.46546e-07 4.20804e-07 0.101201)
(-2.55412e-07 -4.27455e-07 0.101201)
(3.53817e-05 -3.54133e-05 0.101195)
(-3.6598e-05 3.66306e-05 0.101196)
(-4.17798e-07 -2.46481e-07 0.101201)
(4.18688e-07 -2.45725e-07 0.101201)
(-4.18412e-07 -2.46487e-07 0.101201)
(3.66031e-05 3.66213e-05 0.101196)
(3.54035e-05 3.53773e-05 0.101195)
(-3.6624e-05 -3.65908e-05 0.101196)
(4.29487e-07 2.54753e-07 0.101201)
(-4.33793e-07 2.57159e-07 0.101201)
(4.25697e-07 2.53306e-07 0.101201)
(-4.32061e-07 2.53168e-07 0.101201)
(-3.54005e-05 3.53779e-05 0.101195)
(3.66217e-05 -3.65987e-05 0.101196)
(2.48153e-07 4.20018e-07 0.101201)
(2.55702e-07 -4.28536e-07 0.101201)
(2.4029e-07 4.16891e-07 0.101201)
(2.51436e-07 -4.25755e-07 0.101201)
(-2.54762e-07 -4.26598e-07 0.101201)
(-2.43712e-07 4.19966e-07 0.101201)
(-2.52174e-07 -4.23656e-07 0.101201)
(3.53785e-05 -3.54102e-05 0.101195)
(-3.65938e-05 3.66258e-05 0.101196)
(-4.1744e-07 -2.45133e-07 0.101201)
(4.1433e-07 -2.40391e-07 0.101201)
(-4.16191e-07 -2.40516e-07 0.101201)
(3.65967e-05 3.66172e-05 0.101196)
(3.53863e-05 3.53613e-05 0.101195)
(4.27335e-07 2.51991e-07 0.101201)
(-4.34198e-07 2.53898e-07 0.101201)
(-3.5394e-05 3.53685e-05 0.101195)
(2.43867e-07 4.197e-07 0.101201)
(2.51923e-07 -4.27324e-07 0.101201)
(-2.52298e-07 -4.21381e-07 0.101201)
(3.53617e-05 -3.53936e-05 0.101195)
(-4.18365e-07 -2.40646e-07 0.101201)
(2.82673e-10 -6.15018e-06 0.100701)
(6.07747e-07 4.75168e-06 0.09778)
(1.69341e-08 5.99128e-06 0.1007)
(-7.65919e-07 -5.19879e-06 0.0977827)
(-1.12443e-06 1.26349e-06 0.090619)
(1.40296e-06 -1.91587e-06 0.090623)
(-6.16905e-06 -2.04286e-08 0.100701)
(4.71518e-06 5.61983e-07 0.0977795)
(6.03623e-06 1.05991e-08 0.1007)
(-5.13865e-06 -7.38771e-07 0.0977828)
(4.1064e-07 -3.91375e-07 0.101204)
(-3.87374e-07 3.90813e-07 0.101204)
(3.9053e-07 3.8413e-07 0.101204)
(-4.16655e-07 -4.08727e-07 0.101204)
(4.23673e-07 -4.04626e-07 0.101204)
(-4.10787e-07 4.15596e-07 0.101204)
(4.083e-07 4.13374e-07 0.101204)
(1.07112e-05 -5.79445e-08 0.101125)
(-9.33873e-06 2.76854e-06 0.100804)
(-2.65361e-07 -1.46448e-07 0.101204)
(-2.10558e-07 3.86071e-07 0.101201)
(-1.05647e-05 1.9366e-08 0.101124)
(9.23498e-06 -3.13686e-06 0.100806)
(-2.50812e-07 -1.55806e-07 0.101204)
(1.05484e-06 -1.00336e-06 0.0906169)
(-1.64355e-06 1.23164e-06 0.0906215)
(-3.91145e-08 1.07179e-05 0.101125)
(-1.34695e-07 -2.63283e-07 0.101204)
(2.83722e-06 -9.38932e-06 0.100804)
(3.97994e-07 -2.07007e-07 0.101201)
(2.82152e-08 -1.0576e-05 0.101124)
(-1.41552e-07 -2.45514e-07 0.101204)
(-3.10383e-06 9.21863e-06 0.100806)
(-3.06542e-06 -3.58546e-06 0.10016)
(-3.57281e-06 -3.06231e-06 0.10016)
(3.66252e-05 3.66425e-05 0.101196)
(2.80553e-06 3.54174e-06 0.100162)
(3.53561e-06 2.8007e-06 0.100162)
(-1.39146e-07 -6.18451e-06 0.1007)
(7.32433e-07 4.8023e-06 0.097781)
(-3.17659e-08 5.90196e-06 0.100699)
(-6.7127e-07 -5.3559e-06 0.0977836)
(-7.98824e-07 7.72385e-07 0.0906234)
(7.31493e-07 -1.03954e-06 0.0906277)
(-6.26617e-06 -2.91645e-08 0.1007)
(4.76013e-06 7.08489e-07 0.0977805)
(5.93524e-06 -1.85591e-08 0.1007)
(-5.32148e-06 -5.98877e-07 0.0977837)
(3.97611e-07 -3.72498e-07 0.101204)
(-4.10837e-07 4.15613e-07 0.101204)
(4.04074e-07 4.17739e-07 0.101204)
(-3.15315e-07 -3.07364e-07 0.101204)
(3.08707e-07 -3.10421e-07 0.101204)
(-3.1022e-07 3.14007e-07 0.101204)
(3.07149e-07 3.12024e-07 0.101204)
(1.0702e-05 1.63073e-08 0.101124)
(-9.16355e-06 2.5919e-06 0.100804)
(-2.22374e-07 -1.27253e-07 0.101203)
(-2.69321e-07 4.89729e-07 0.101201)
(-1.04676e-05 2.09506e-08 0.101124)
(9.05345e-06 -2.84527e-06 0.100805)
(-2.90857e-07 -8.39023e-08 0.101203)
(1.12655e-06 -1.04214e-06 0.0906202)
(-1.96407e-06 1.39575e-06 0.0906266)
(-5.22393e-08 1.07293e-05 0.101124)
(-1.58201e-07 -1.95629e-07 0.101203)
(2.69691e-06 -9.24948e-06 0.100804)
(4.21649e-07 -2.33389e-07 0.101201)
(8.00177e-09 -1.04696e-05 0.101124)
(-1.49806e-07 -2.615e-07 0.101203)
(-3.22811e-06 9.26875e-06 0.100805)
(-3.05328e-06 -3.4707e-06 0.10016)
(-3.47049e-06 -3.04363e-06 0.100159)
(3.66123e-05 3.66465e-05 0.101195)
(2.84178e-06 3.58437e-06 0.100161)
(3.56993e-06 2.84892e-06 0.100161)
(2.76358e-08 -6.02915e-06 0.100701)
(5.88163e-07 5.83173e-06 0.0977808)
(7.25519e-08 6.13089e-06 0.1007)
(-8.31598e-07 -4.7391e-06 0.0977825)
(-1.33318e-06 1.82472e-06 0.0906188)
(1.1618e-06 -1.4138e-06 0.0906208)
(-6.05231e-06 -2.36838e-10 0.100701)
(5.78366e-06 5.50221e-07 0.0977803)
(6.17977e-06 4.24079e-08 0.1007)
(-4.69104e-06 -8.0083e-07 0.0977826)
(3.36393e-07 -3.34541e-07 0.101204)
(-3.20239e-07 3.22606e-07 0.101204)
(3.18965e-07 3.1932e-07 0.101204)
(-3.61266e-07 -3.59103e-07 0.101204)
(3.62938e-07 -3.58194e-07 0.101204)
(-3.59114e-07 3.61517e-07 0.101204)
(3.58631e-07 3.58521e-07 0.101204)
(1.04315e-05 -4.68887e-08 0.101125)
(-9.61078e-06 3.07263e-06 0.100804)
(-4.13645e-07 -1.19683e-07 0.101204)
(-2.89826e-07 4.40134e-07 0.101201)
(-1.10087e-05 4.08306e-08 0.101124)
(9.01116e-06 -2.90954e-06 0.100806)
(-3.78231e-07 -1.26718e-07 0.101204)
(2.26555e-06 -1.62719e-06 0.0906191)
(-1.21847e-06 1.06894e-06 0.0906207)
(-2.10313e-08 1.04314e-05 0.101125)
(-1.06104e-07 -4.17341e-07 0.101204)
(3.24565e-06 -9.70962e-06 0.100804)
(4.40483e-07 -2.92274e-07 0.101201)
(5.75058e-08 -1.10182e-05 0.101124)
(-1.15326e-07 -3.78238e-07 0.101204)
(-2.86885e-06 9.00238e-06 0.100806)
(-2.77791e-06 -3.71773e-06 0.10016)
(-3.7172e-06 -2.76966e-06 0.100159)
(3.65677e-05 3.65839e-05 0.101196)
(2.97041e-06 3.4523e-06 0.100162)
(3.44339e-06 2.96701e-06 0.100162)
(-5.66126e-09 -6.09839e-06 0.100701)
(6.84231e-07 5.03888e-06 0.0977799)
(-3.59985e-09 6.00005e-06 0.1007)
(-7.97064e-07 -4.93519e-06 0.0977823)
(-1.30148e-06 1.53989e-06 0.0906183)
(1.14686e-06 -1.47085e-06 0.0906207)
(-6.13515e-06 -1.12526e-08 0.100701)
(4.99897e-06 6.51668e-07 0.0977795)
(6.03439e-06 9.90503e-09 0.1007)
(-4.88419e-06 -7.62499e-07 0.0977824)
(3.65044e-07 -3.62152e-07 0.101204)
(-3.64322e-07 3.66434e-07 0.101204)
(3.63873e-07 3.64403e-07 0.101204)
(-3.71066e-07 -3.68594e-07 0.101204)
(3.70242e-07 -3.68895e-07 0.101204)
(-3.68152e-07 3.70727e-07 0.101204)
(3.67778e-07 3.68468e-07 0.101204)
(1.05609e-05 -3.93149e-08 0.101125)
(-9.399e-06 2.8495e-06 0.100804)
(-3.18135e-07 -1.2475e-07 0.101204)
(-2.49466e-07 4.23418e-07 0.101201)
(-1.06605e-05 3.32637e-08 0.101124)
(9.08891e-06 -2.97263e-06 0.100806)
(-3.09824e-07 -1.26311e-07 0.101204)
(1.41582e-06 -1.19184e-06 0.0906168)
(-1.41096e-06 1.12276e-06 0.0906204)
(-3.31409e-08 1.05693e-05 0.101125)
(-1.28101e-07 -3.19537e-07 0.101204)
(2.86856e-06 -9.43019e-06 0.100804)
(4.21662e-07 -2.50293e-07 0.101201)
(2.90625e-08 -1.06695e-05 0.101124)
(-1.2942e-07 -3.0626e-07 0.101204)
(-2.99481e-06 9.11262e-06 0.100806)
(-3.02017e-06 -3.58192e-06 0.10016)
(-3.57262e-06 -3.01617e-06 0.10016)
(3.66026e-05 3.66204e-05 0.101196)
(2.92959e-06 3.48696e-06 0.100162)
(3.47944e-06 2.92565e-06 0.100162)
(-4.7253e-09 -6.10183e-06 0.100701)
(6.83144e-07 5.03186e-06 0.0977799)
(-1.02515e-10 5.99049e-06 0.1007)
(-7.94916e-07 -4.93207e-06 0.0977823)
(-1.23002e-06 1.46343e-06 0.090618)
(1.13517e-06 -1.45439e-06 0.0906209)
(-6.1376e-06 -1.12541e-08 0.100701)
(4.98832e-06 6.5157e-07 0.0977794)
(6.02593e-06 9.34648e-09 0.1007)
(-4.8854e-06 -7.61463e-07 0.0977824)
(3.70521e-07 -3.6947e-07 0.101204)
(-3.69005e-07 3.71335e-07 0.101204)
(3.68626e-07 3.69635e-07 0.101204)
(-3.71652e-07 -3.67705e-07 0.101204)
(3.70645e-07 -3.68567e-07 0.101204)
(-3.68858e-07 3.72112e-07 0.101204)
(3.67827e-07 3.69968e-07 0.101204)
(1.05632e-05 -3.8374e-08 0.101125)
(-9.39351e-06 2.84551e-06 0.100804)
(-3.07465e-07 -1.28168e-07 0.101204)
(-2.4794e-07 4.25151e-07 0.101201)
(-1.06513e-05 3.4242e-08 0.101124)
(9.09023e-06 -2.97057e-06 0.100806)
(-3.05199e-07 -1.28356e-07 0.101204)
(1.41703e-06 -1.1999e-06 0.0906168)
(-1.40802e-06 1.12142e-06 0.0906204)
(-3.30451e-08 1.05713e-05 0.101125)
(-1.29639e-07 -3.07242e-07 0.101204)
(2.86691e-06 -9.42093e-06 0.100804)
(4.19939e-07 -2.47044e-07 0.101201)
(2.82633e-08 -1.06583e-05 0.101124)
(-1.29839e-07 -3.00741e-07 0.101204)
(-2.99399e-06 9.11438e-06 0.100806)
(-3.01452e-06 -3.58073e-06 0.10016)
(-3.57242e-06 -3.00988e-06 0.10016)
(3.66045e-05 3.66229e-05 0.101196)
(2.93027e-06 3.48675e-06 0.100162)
(3.47835e-06 2.92674e-06 0.100162)
(-6.31761e-09 -6.09995e-06 0.100701)
(6.81968e-07 5.02628e-06 0.0977799)
(4.86011e-10 5.99001e-06 0.1007)
(-7.96067e-07 -4.92816e-06 0.0977823)
(-1.19532e-06 1.4188e-06 0.0906177)
(1.1463e-06 -1.45721e-06 0.0906211)
(-6.13742e-06 -8.72895e-09 0.100701)
(4.98879e-06 6.53588e-07 0.0977794)
(6.02534e-06 1.06149e-08 0.1007)
(-4.88606e-06 -7.58242e-07 0.0977824)
(3.7035e-07 -3.67363e-07 0.101204)
(-3.69257e-07 3.72903e-07 0.101204)
(3.68895e-07 3.714e-07 0.101204)
(-3.70661e-07 -3.60716e-07 0.101204)
(3.69126e-07 -3.59924e-07 0.101204)
(-3.685e-07 3.74936e-07 0.101204)
(3.68319e-07 3.72758e-07 0.101204)
(1.05637e-05 -3.57103e-08 0.101125)
(-9.39333e-06 2.84735e-06 0.100804)
(-3.06661e-07 -1.2586e-07 0.101204)
(-2.47149e-07 4.27646e-07 0.101201)
(-1.06501e-05 3.58575e-08 0.101124)
(9.09086e-06 -2.96812e-06 0.100806)
(-3.04462e-07 -1.24831e-07 0.101204)
(1.41785e-06 -1.1989e-06 0.0906168)
(-1.40783e-06 1.12207e-06 0.0906204)
(-3.26326e-08 1.05725e-05 0.101125)
(-1.29501e-07 -3.05771e-07 0.101204)
(2.86703e-06 -9.42005e-06 0.100804)
(4.19758e-07 -2.45415e-07 0.101201)
(2.86011e-08 -1.06574e-05 0.101124)
(-1.29504e-07 -2.98857e-07 0.101204)
(-2.9936e-06 9.115e-06 0.100806)
(-3.0147e-06 -3.57936e-06 0.10016)
(-3.57194e-06 -3.00889e-06 0.10016)
(3.66051e-05 3.66248e-05 0.101196)
(2.93035e-06 3.48788e-06 0.100162)
(3.47826e-06 2.92788e-06 0.100162)
(8.2717e-09 -6.09253e-06 0.100701)
(7.33966e-07 5.05457e-06 0.0977799)
(6.09507e-09 5.99702e-06 0.1007)
(-6.47299e-07 -4.8909e-06 0.0977823)
(-1.3091e-06 1.52284e-06 0.0906182)
(1.08778e-06 -1.40885e-06 0.0906206)
(-6.13619e-06 -4.77676e-09 0.100701)
(4.98801e-06 6.6183e-07 0.0977794)
(6.02475e-06 1.45409e-08 0.1007)
(-4.89363e-06 -7.5215e-07 0.0977824)
(3.68668e-07 -3.57114e-07 0.101204)
(-3.68806e-07 3.7632e-07 0.101204)
(3.7062e-07 3.73247e-07 0.101204)
(-3.64285e-07 -3.59144e-07 0.101204)
(3.74943e-07 -3.62494e-07 0.101204)
(-3.66963e-07 3.76804e-07 0.101204)
(3.76352e-07 3.66508e-07 0.101204)
(1.05643e-05 -3.25085e-08 0.101125)
(-9.38938e-06 2.85908e-06 0.100804)
(-3.06584e-07 -1.18648e-07 0.101204)
(-2.46271e-07 4.35989e-07 0.101201)
(-1.06494e-05 4.06463e-08 0.101124)
(9.09541e-06 -2.9565e-06 0.100806)
(-3.04469e-07 -1.18679e-07 0.101204)
(1.41824e-06 -1.19816e-06 0.0906168)
(-1.4074e-06 1.12296e-06 0.0906204)
(-3.24691e-08 1.05733e-05 0.101125)
(-1.28988e-07 -3.03076e-07 0.101204)
(2.86781e-06 -9.41937e-06 0.100804)
(4.19117e-07 -2.42684e-07 0.101201)
(2.88693e-08 -1.06569e-05 0.101124)
(-1.29239e-07 -2.96583e-07 0.101204)
(-2.99308e-06 9.11624e-06 0.100806)
(-3.01544e-06 -3.57916e-06 0.10016)
(-3.57283e-06 -3.00908e-06 0.10016)
(3.66057e-05 3.66271e-05 0.101196)
(2.92979e-06 3.48916e-06 0.100162)
(3.4794e-06 2.92707e-06 0.100162)
(1.6741e-08 -6.10005e-06 0.100701)
(7.07975e-07 5.0183e-06 0.09778)
(4.70735e-09 5.9917e-06 0.1007)
(-7.67475e-07 -4.91868e-06 0.0977824)
(-1.18298e-06 1.46175e-06 0.0906182)
(1.26887e-06 -1.53145e-06 0.0906204)
(-6.13579e-06 -7.0608e-09 0.100701)
(5.00014e-06 6.65044e-07 0.0977795)
(6.02439e-06 1.45197e-08 0.1007)
(-4.91031e-06 -7.63465e-07 0.0977823)
(3.78648e-07 -3.69838e-07 0.101204)
(-3.66837e-07 3.76323e-07 0.101204)
(3.77881e-07 3.65405e-07 0.101204)
(-3.59438e-07 -3.62374e-07 0.101204)
(3.76635e-07 -3.7049e-07 0.101204)
(-3.66315e-07 3.72982e-07 0.101204)
(3.70641e-07 3.66995e-07 0.101204)
(1.05623e-05 -4.24929e-08 0.101125)
(-9.39356e-06 2.83779e-06 0.100804)
(-3.05122e-07 -1.29075e-07 0.101204)
(-2.46196e-07 4.09211e-07 0.101201)
(-1.06498e-05 3.32813e-08 0.101124)
(9.08654e-06 -2.98517e-06 0.100806)
(-3.03182e-07 -1.33562e-07 0.101204)
(1.41851e-06 -1.19805e-06 0.0906168)
(-1.4076e-06 1.12242e-06 0.0906204)
(-3.19808e-08 1.0572e-05 0.101125)
(-1.29123e-07 -3.05682e-07 0.101204)
(2.86826e-06 -9.419e-06 0.100804)
(4.20421e-07 -2.43092e-07 0.101201)
(2.94284e-08 -1.06565e-05 0.101124)
(-1.29291e-07 -3.00466e-07 0.101204)
(-2.99258e-06 9.11556e-06 0.100806)
(-3.01408e-06 -3.58199e-06 0.10016)
(-3.57341e-06 -3.00949e-06 0.10016)
(3.66051e-05 3.66246e-05 0.101196)
(2.93064e-06 3.48671e-06 0.100162)
(3.47971e-06 2.92644e-06 0.100162)
(1.32925e-08 -6.10575e-06 0.100701)
(7.61718e-07 5.06069e-06 0.0977799)
(1.43933e-08 5.99447e-06 0.1007)
(-7.45417e-07 -4.88247e-06 0.0977825)
(-1.16173e-06 1.25413e-06 0.0906183)
(1.13946e-06 -1.57339e-06 0.0906206)
(-6.13655e-06 -1.07202e-08 0.100701)
(5.02731e-06 6.66399e-07 0.0977796)
(6.02445e-06 1.06169e-08 0.1007)
(-4.92675e-06 -7.70045e-07 0.0977822)
(3.71632e-07 -3.67088e-07 0.101204)
(-3.67617e-07 3.72676e-07 0.101204)
(3.70979e-07 3.68293e-07 0.101204)
(-3.69213e-07 -3.69728e-07 0.101204)
(3.72379e-07 -3.6679e-07 0.101204)
(-3.68615e-07 3.72101e-07 0.101204)
(3.69717e-07 3.67534e-07 0.101204)
(1.05635e-05 -3.90945e-08 0.101125)
(-9.39281e-06 2.85301e-06 0.100804)
(-3.05816e-07 -1.27581e-07 0.101204)
(-2.48515e-07 4.20895e-07 0.101201)
(-1.06495e-05 3.45911e-08 0.101124)
(9.09119e-06 -2.97195e-06 0.100806)
(-3.04847e-07 -1.28621e-07 0.101204)
(1.41774e-06 -1.19919e-06 0.0906168)
(-1.40836e-06 1.12077e-06 0.0906204)
(-3.23703e-08 1.05721e-05 0.101125)
(-1.29231e-07 -3.05916e-07 0.101204)
(2.86779e-06 -9.41938e-06 0.100804)
(4.19834e-07 -2.44874e-07 0.101201)
(2.91893e-08 -1.06576e-05 0.101124)
(-1.29833e-07 -2.99174e-07 0.101204)
(-2.9933e-06 9.11536e-06 0.100806)
(-3.01339e-06 -3.58182e-06 0.10016)
(-3.57278e-06 -3.00867e-06 0.10016)
(3.6606e-05 3.66246e-05 0.101196)
(2.93121e-06 3.48625e-06 0.100162)
(3.47923e-06 2.92725e-06 0.100162)
(-6.13127e-09 -6.10344e-06 0.100701)
(6.91595e-07 5.00172e-06 0.0977798)
(2.56066e-09 5.9918e-06 0.1007)
(-7.842e-07 -4.89932e-06 0.0977824)
(-1.24809e-06 1.44352e-06 0.0906183)
(1.16338e-06 -1.49309e-06 0.090621)
(-6.13549e-06 -1.25544e-08 0.100701)
(5.02523e-06 6.65795e-07 0.0977796)
(6.02452e-06 8.92796e-09 0.1007)
(-4.9216e-06 -7.73891e-07 0.0977823)
(3.71634e-07 -3.70349e-07 0.101204)
(-3.6924e-07 3.71656e-07 0.101204)
(3.69835e-07 3.69589e-07 0.101204)
(-3.71576e-07 -3.69001e-07 0.101204)
(3.71331e-07 -3.70615e-07 0.101204)
(-3.68702e-07 3.70653e-07 0.101204)
(3.6825e-07 3.6849e-07 0.101204)
(1.05625e-05 -4.00845e-08 0.101125)
(-9.39444e-06 2.84661e-06 0.100804)
(-3.05031e-07 -1.29092e-07 0.101204)
(-2.47878e-07 4.21051e-07 0.101201)
(-1.06506e-05 3.2727e-08 0.101124)
(9.08895e-06 -2.97281e-06 0.100806)
(-3.03391e-07 -1.29112e-07 0.101204)
(1.4181e-06 -1.19958e-06 0.0906168)
(-1.40797e-06 1.12121e-06 0.0906204)
(-3.30723e-08 1.0571e-05 0.101125)
(-1.29872e-07 -3.05511e-07 0.101204)
(2.86743e-06 -9.42043e-06 0.100804)