/*--------------------------------*- C++ -*----------------------------------*\
| =========                 |                                                 |
| \\      /  F ield         | OpenFOAM: The Open Source CFD Toolbox           |
|  \\    /   O peration     | Version:  2206                                  |
|   \\  /    A nd           | Website:  www.openfoam.com                      |
|    \\/     M anipulation  |                                                 |
\*---------------------------------------------------------------------------*/
FoamFile
{
    version     2.0;
    format      ascii;
    arch        "LSB;label=32;scalar=64";
    class       volScalarField;
    location    "3";
    object      p;
}
// * * * * * * * * * * * * * * * * * * * * * * * * * * * * * * * * * * * * * //

dimensions      [0 2 -2 0 0 0 0];

internalField   nonuniform List<scalar> 
28549
(
0.000433935
0.000433936
0.000399448
0.000429403
0.000429402
0.000431903
0.000434869
0.000422379
0.000381235
0.000411206
0.000380555
0.000431903
0.000434871
0.000422381
0.000381233
0.00038056
0.000411204
0.00038123
0.000411213
0.00043489
0.000433942
0.000399458
0.000429408
0.000429407
0.000433939
0.000422373
0.000381231
0.000380563
0.000411226
0.000422368
0.000381233
0.000380563
0.000411219
0.000431911
0.000434877
0.000431912
0.00043489
0.000399494
0.000429423
0.000429433
0.000433956
0.000433961
0.000429533
0.000429532
0.000433753
0.000422273
0.000425917
0.000420302
0.00042226
0.000425929
0.000420286
0.000317478
0.000431144
0.000434592
0.000316853
0.000434017
0.000317822
0.000316948
0.000316495
0.000435533
0.000316415
0.000435075
0.000314173
0.000317478
0.000434592
0.000431142
0.000316851
0.000434013
0.00031695
0.000317822
0.000316497
0.000435529
0.000316413
0.000435076
0.000314173
0.000316476
0.000435562
0.000316385
0.0004351
0.000314137
0.000318292
0.000318862
0.000429536
0.000429537
0.000433757
0.000323635
0.000323636
0.000328735
0.00042226
0.000425938
0.000325421
0.000325078
0.000420286
0.000332665
0.000328721
0.000422278
0.00042592
0.000325428
0.000420304
0.000332651
0.000325096
0.000318292
0.000317464
0.000431157
0.000434608
0.000316808
0.000434048
0.000317785
0.000316939
0.000316483
0.000435547
0.000316397
0.000435084
0.000314153
0.000317468
0.000431148
0.000434616
0.000316808
0.000434026
0.000317782
0.000316941
0.000316477
0.000435554
0.00031639
0.000435104
0.000314144
0.000318842
0.000429556
0.000429556
0.000433774
0.000323619
0.000323618
0.00032871
0.000422291
0.000425918
0.000325407
0.00042031
0.0003251
0.000332639
0.000328713
0.000422278
0.00042594
0.000325397
0.000420292
0.000325078
0.000332648
0.000318273
0.000318269
0.00037402
0.000375911
0.000375929
0.000378201
0.000374007
0.00037593
0.000375923
0.000378204
0.000374025
0.000375919
0.000375918
0.000378205
0.000374005
0.000375925
0.000375934
0.000378208
0.000409994
0.00041001
0.000409219
0.00033134
0.00042111
0.0004129
0.00033551
0.000414372
0.000336906
0.000331661
0.000327856
0.000419478
0.00042229
0.000343925
0.000325483
0.000419505
0.000337627
0.000331339
0.000412905
0.000421117
0.000335513
0.000414366
0.000331654
0.000336901
0.000327843
0.000419478
0.000422287
0.000343927
0.00041951
0.000337637
0.000325478
0.000327806
0.00041946
0.000422287
0.000343918
0.00041956
0.000337656
0.000325472
0.000350815
0.000352591
0.00041002
0.000410001
0.000342612
0.000409219
0.000342658
0.000331304
0.000412943
0.000421107
0.000335529
0.000414408
0.000331621
0.000336914
0.000327829
0.000419489
0.000422314
0.000343904
0.000419531
0.000325443
0.000337637
0.000331309
0.000412946
0.000421094
0.000335532
0.00041441
0.000331622
0.000336928
0.000327825
0.000419476
0.000422299
0.000343916
0.000419539
0.000337634
0.000325458
0.000350818
0.000352561
0.000410041
0.000410052
0.000409209
0.000342604
0.000342583
0.000529627
0.000536838
0.000539657
0.000546886
0.000546897
0.000565129
0.000556945
0.000555048
0.000515724
0.000536841
0.000536844
0.000544377
0.000544377
0.000555065
0.000515747
0.000536838
0.000536841
0.000544379
0.000544384
0.000536857
0.000544373
0.000544368
0.000565136
0.000525793
0.000546892
0.000546891
0.000554426
0.000554435
0.0005651
0.000525795
0.000546894
0.000546897
0.000554427
0.000554437
0.00054689
0.000554432
0.000554434
0.000565134
0.000525777
0.000546901
0.000525775
0.000556947
0.000575196
0.000474943
0.00059048
0.000474524
0.000587525
0.000589549
0.000476404
0.000474955
0.000590478
0.000474521
0.000587535
0.000529618
0.000529637
0.000529632
0.000537151
0.000537146
0.000537165
0.000537158
0.000493632
0.000566837
0.000536171
0.000539349
0.00050202
0.000538679
0.000578003
0.000484989
0.000600524
0.000597549
0.000484569
0.000599578
0.000486461
0.000484956
0.000600528
0.000597544
0.000484556
0.00053966
0.000539675
0.000539669
0.000547183
0.000547209
0.000547206
0.000547199
0.000503718
0.000576869
0.000546219
0.000549401
0.000588021
0.000512088
0.000548735
0.000599599
0.000486434
0.000503776
0.000546242
0.000576878
0.000549414
0.000548758
0.000512093
0.00058801
0.000595059
0.000595066
0.000520754
0.00049359
0.000493569
0.000609641
0.000549721
0.000586914
0.000556288
0.000598018
0.000589539
0.000476411
0.000589545
0.000476404
0.000585003
0.000585015
0.000510709
0.000483543
0.000483534
0.000481428
0.00059456
0.000481415
0.000594569
0.000560088
0.00048856
0.000488547
0.000590026
0.000590037
0.000474945
0.00059048
0.000474523
0.000587522
0.000493638
0.00056683
0.000536169
0.000539353
0.00050203
0.000538681
0.000578002
0.000493641
0.000566819
0.000536169
0.000539354
0.000502041
0.000538681
0.000577996
0.000592535
0.000479543
0.000595499
0.000479979
0.000592532
0.000479552
0.000595495
0.00047998
0.000583007
0.000541867
0.000507063
0.000543705
0.000571844
0.000541193
0.000498679
0.000583002
0.000541866
0.00050707
0.000543705
0.000571833
0.000541192
0.000498678
0.000585016
0.000585017
0.000510711
0.00048353
0.000483536
0.000589551
0.000476402
0.000481433
0.000594563
0.000560082
0.000488563
0.00048857
0.000590029
0.000590029
0.000481435
0.000594563
0.000493608
0.000566831
0.000536167
0.000539351
0.00050202
0.000538682
0.00057803
0.000474954
0.00059048
0.000587535
0.000474522
0.000493607
0.000536167
0.000566834
0.000539356
0.000538683
0.000578035
0.000502026
0.000592543
0.000479532
0.000595501
0.000479954
0.000583017
0.000541866
0.000507061
0.000543717
0.000571847
0.0005412
0.000498698
0.000592542
0.00047953
0.000479951
0.000595503
0.00058302
0.000541872
0.000543718
0.000507066
0.000541201
0.000498698
0.000571847
0.000474932
0.000590493
0.000474509
0.000587534
0.000493633
0.000536164
0.000566841
0.000539353
0.000538682
0.000578008
0.000502025
0.000474927
0.000590496
0.000587535
0.000474506
0.000583012
0.000541861
0.000507052
0.000543704
0.00057185
0.000541196
0.000498672
0.000592545
0.000479543
0.000595506
0.000479969
0.000583013
0.000541879
0.00054371
0.000507058
0.00054119
0.000498675
0.000571848
0.000592543
0.000479538
0.000479967
0.000595508
0.000599588
0.000486453
0.000599597
0.000486439
0.000595054
0.000595065
0.000520752
0.000493586
0.000493572
0.000491483
0.000604613
0.000491473
0.000604619
0.000570168
0.000498614
0.000498604
0.000600079
0.000600087
0.000484994
0.00060051
0.000597545
0.000484579
0.000503748
0.00057686
0.000546222
0.000549405
0.000588007
0.000512106
0.000548738
0.000503744
0.00057685
0.000546221
0.000549406
0.000588006
0.000512105
0.000548735
0.000602562
0.0004896
0.000605549
0.000490015
0.000602553
0.000489596
0.000605529
0.000490017
0.000593005
0.000551918
0.000517141
0.000553766
0.000581876
0.000551253
0.000508782
0.000593006
0.000551921
0.000517134
0.000553761
0.000581867
0.000551249
0.000508782
0.000595043
0.000595042
0.000520779
0.000493593
0.0004936
0.000599577
0.000486466
0.000491474
0.000604601
0.000570135
0.000498606
0.000498613
0.000600067
0.000600067
0.000491476
0.000604602
0.000503783
0.000576858
0.000546233
0.000549407
0.000587986
0.000512105
0.000548748
0.000484955
0.000600526
0.000597541
0.000484552
0.000503785
0.000546234
0.000576854
0.000549413
0.000587988
0.000548748
0.000512107
0.000602551
0.000489592
0.000605548
0.000490002
0.000592978
0.000551917
0.000517139
0.00055377
0.00058187
0.000551259
0.000508808
0.000602546
0.000489582
0.000605548
0.000490002
0.000592978
0.000551924
0.000553769
0.000517142
0.000551258
0.000581869
0.000508812
0.000485004
0.000600521
0.000597556
0.000484574
0.000503724
0.000546222
0.000576861
0.000549403
0.00058802
0.00054874
0.000512098
0.000485004
0.00060052
0.000597553
0.000484573
0.000593026
0.000551917
0.00051712
0.000553771
0.000581893
0.000551254
0.000508786
0.000602573
0.000489585
0.000605544
0.00049001
0.000593021
0.000551922
0.000553776
0.000517136
0.000551257
0.000581881
0.000508796
0.000602569
0.000489587
0.000605545
0.000490005
0.000595067
0.000595063
0.000520753
0.000493571
0.000493576
0.000599595
0.000486439
0.000491461
0.000604625
0.000570182
0.000498594
0.000600094
0.000600089
0.000604622
0.000503774
0.000546239
0.000576868
0.000549415
0.000548755
0.000512102
0.000588006
0.000484945
0.000600532
0.000484546
0.000597558
0.00048495
0.000600528
0.000484552
0.000597556
0.00059299
0.000551926
0.000551269
0.00058189
0.000592985
0.000551927
0.000551269
0.000581878
0.000602564
0.000605556
0.000602561
0.000605555
0.000599588
0.000486457
0.000599598
0.000486437
0.000570182
0.000498604
0.000600083
0.000600096
0.00049147
0.000604613
0.000604627
0.000610567
0.000586892
0.000605107
0.000605105
0.000609642
0.000610581
0.00060759
0.000556293
0.000598013
0.000607588
0.00059215
0.000475066
0.000475919
0.000590029
0.000592718
0.000589272
0.000475593
0.000472099
0.000472016
0.000591153
0.000469773
0.000590692
0.000593195
0.000472283
0.000592989
0.00059366
0.00047461
0.000473082
0.000472434
0.000590213
0.000586765
0.000472554
0.000473408
0.000589637
0.00047389
0.000592056
0.000592146
0.000475927
0.000475055
0.00059004
0.000589278
0.000592723
0.000475583
0.000472097
0.000472016
0.000591143
0.00046978
0.000590688
0.000593198
0.000472284
0.000592989
0.000593655
0.000474603
0.000473075
0.000472456
0.000586772
0.000590214
0.000473423
0.000472546
0.000589639
0.000602166
0.000600053
0.00048513
0.000485962
0.000602753
0.000599291
0.000485663
0.000482147
0.000601197
0.000482055
0.000600724
0.000479815
0.000483139
0.000482488
0.000600242
0.000596791
0.000599667
0.000482607
0.000483459
0.000603239
0.000482324
0.000603037
0.000603709
0.000484664
0.000483948
0.000602089
0.000602166
0.000600045
0.000485934
0.000485128
0.000599287
0.000602754
0.000485659
0.000482136
0.000601196
0.000482042
0.000600725
0.000479795
0.000483136
0.000482452
0.000596787
0.000600245
0.000599664
0.000483428
0.000482604
0.000603238
0.000482305
0.000603039
0.000603705
0.000484653
0.000483922
0.000602113
0.000601921
0.000491794
0.00049179
0.000597704
0.000597704
0.000487021
0.00049438
0.000591554
0.000491075
0.000587929
0.000490759
0.000498302
0.000585951
0.000494378
0.00059159
0.00049106
0.000587922
0.000490733
0.00049831
0.000585946
0.000588466
0.000500813
0.000597569
0.000493285
0.000594065
0.000590446
0.000496895
0.000588451
0.000500822
0.000597581
0.000493254
0.000594086
0.000590434
0.000496894
0.00048451
0.00059519
0.000595191
0.000489282
0.000489279
0.000599408
0.000493977
0.000473903
0.000592049
0.000473899
0.000592056
0.000591871
0.000481747
0.000481746
0.000587651
0.000587652
0.000476976
0.000484334
0.000581543
0.000481035
0.000577883
0.000488256
0.0004807
0.000575918
0.000484325
0.000581563
0.000481029
0.000577868
0.000488259
0.000480662
0.000575904
0.000578427
0.000490765
0.000587514
0.000483211
0.000580393
0.000486841
0.000584045
0.000578414
0.000490768
0.000587526
0.000483175
0.00058038
0.000486832
0.000584069
0.000474471
0.00058514
0.000585141
0.00047924
0.000479241
0.000589361
0.000597073
0.00047892
0.000597082
0.000478909
0.000479484
0.000590163
0.000590164
0.000594383
0.000484256
0.000484254
0.000583444
0.000488247
0.00059254
0.000495789
0.000585419
0.00058905
0.000491862
0.000583434
0.00048821
0.00059255
0.000495792
0.000585408
0.000589076
0.000491853
0.000489352
0.000582905
0.000586546
0.000486052
0.000580936
0.000493277
0.000485729
0.000489343
0.000582894
0.000586572
0.00048604
0.000580924
0.000493279
0.000485693
0.000596897
0.000486766
0.000486764
0.000592677
0.000592678
0.000481991
0.000592148
0.000475067
0.000475923
0.000590027
0.000592717
0.00058927
0.000475596
0.000472097
0.000472011
0.000591147
0.00046977
0.000590683
0.00059319
0.000472282
0.000592988
0.000593654
0.00047461
0.000473082
0.000472436
0.000590209
0.000586766
0.000472553
0.000473412
0.000589642
0.000478105
0.000595224
0.000591779
0.000477462
0.000594659
0.000477577
0.000478436
0.000598212
0.00059801
0.000477306
0.000479633
0.000598683
0.000477121
0.00059617
0.000477033
0.000595701
0.000474794
0.000597163
0.000595041
0.000480088
0.000480952
0.000480618
0.000597732
0.000594285
0.000478108
0.000595225
0.000591775
0.000477463
0.000594651
0.000477578
0.000478439
0.00059821
0.000598002
0.000477311
0.00059867
0.000479636
0.000477123
0.000596162
0.000477038
0.000595699
0.000474796
0.000597155
0.000595039
0.000480089
0.000480956
0.000597732
0.000594281
0.000480619
0.000591873
0.000481744
0.000481745
0.000587653
0.000587654
0.000476974
0.000484333
0.000581546
0.000481016
0.000577872
0.000488263
0.000480679
0.000575899
0.000484316
0.000581532
0.000481023
0.000577892
0.0004807
0.000488247
0.000575924
0.000578407
0.000490775
0.000587523
0.000483193
0.00058038
0.000584052
0.000486844
0.000578432
0.000490759
0.000587523
0.000483214
0.00058404
0.0005804
0.000486828
0.000474462
0.000585145
0.000585147
0.000479232
0.000479233
0.000589365
0.000473889
0.000592058
0.000597069
0.000478918
0.000479488
0.00059016
0.000590161
0.000594379
0.000484259
0.000484261
0.000583419
0.000488224
0.000592535
0.000495802
0.000589065
0.000585396
0.000491874
0.000583443
0.00048825
0.000592534
0.000495788
0.000585413
0.000589052
0.00049186
0.000489359
0.000582887
0.000586558
0.000486046
0.000485709
0.000580913
0.000493288
0.000489342
0.000582906
0.000586545
0.000486052
0.000580937
0.000493274
0.000485731
0.000596885
0.000486775
0.000486776
0.000592667
0.000592668
0.000482005
0.000597069
0.000478918
0.000592161
0.000475053
0.00059004
0.000475933
0.000592719
0.000589288
0.000475578
0.000472097
0.000591143
0.000472018
0.000469782
0.000590685
0.000473068
0.000472455
0.000590212
0.00058678
0.000472544
0.000473431
0.000589648
0.00059319
0.000472286
0.000592992
0.000593654
0.000474605
0.000478095
0.000591784
0.00059523
0.000477456
0.000594654
0.000478429
0.000477566
0.000598214
0.000598014
0.00047729
0.000479621
0.000598684
0.000477111
0.000596169
0.000477025
0.000595705
0.000474787
0.000597159
0.000595043
0.00048093
0.000480082
0.000480612
0.000594286
0.000597737
0.000478092
0.000595225
0.000477454
0.000591792
0.000594671
0.000477565
0.000478433
0.000598205
0.000477288
0.000598014
0.000598679
0.000479622
0.000597175
0.000595041
0.000480081
0.000480932
0.000597731
0.000594293
0.000480608
0.000477112
0.000596168
0.000477025
0.000595696
0.000474787
0.000592152
0.0004759
0.000475053
0.00059004
0.00058928
0.000592732
0.000475583
0.000472083
0.000471997
0.000591167
0.000469752
0.000590703
0.000593212
0.000472265
0.000593001
0.000593673
0.000474595
0.00047307
0.000472419
0.000586776
0.000590224
0.000473387
0.000472541
0.00058965
0.000592165
0.000475051
0.00059004
0.000475904
0.000592729
0.000589288
0.000475575
0.000472082
0.000591166
0.000471997
0.000469752
0.000590705
0.000473063
0.000472414
0.000590225
0.000586781
0.000472539
0.00047339
0.000589653
0.000593208
0.000472261
0.000593005
0.000593673
0.000474591
0.000478098
0.000591783
0.000595238
0.000477452
0.000594653
0.000478419
0.000477568
0.00059823
0.000598011
0.000477298
0.000598686
0.000479628
0.000477111
0.000596179
0.000477025
0.00059572
0.000474781
0.000597152
0.000595049
0.000480937
0.000480085
0.000594285
0.000597745
0.000480615
0.000478091
0.000595233
0.000477448
0.000591789
0.000594667
0.000477565
0.00047842
0.000598216
0.000477296
0.000598012
0.000598681
0.000479626
0.000597174
0.000595047
0.000480083
0.000480941
0.000597736
0.000594295
0.000480609
0.000477108
0.000596177
0.000477019
0.000595715
0.000474776
0.000483939
0.000602101
0.000483925
0.00060211
0.000601922
0.000491796
0.000491793
0.000597703
0.000597704
0.00048702
0.000494377
0.000591557
0.000587932
0.000491072
0.000585955
0.000498303
0.000490769
0.000494368
0.000591582
0.000587921
0.000491058
0.000585944
0.000498308
0.000490731
0.000484503
0.000595191
0.000595193
0.000599411
0.000489279
0.000489277
0.000588463
0.000500821
0.000597567
0.000493294
0.000590443
0.000496897
0.000594063
0.000588451
0.000500825
0.000597577
0.000493257
0.000590432
0.000496887
0.000594085
0.000607124
0.000488968
0.000607127
0.000488957
0.000489539
0.000600213
0.000600214
0.000604432
0.000494313
0.000494311
0.000593477
0.00049834
0.000602589
0.000505849
0.000595464
0.00059908
0.000501944
0.000593463
0.000498301
0.000602595
0.000505853
0.00059545
0.000599098
0.000501933
0.000499418
0.000592953
0.000596569
0.0004961
0.000590969
0.000503337
0.000495819
0.000499409
0.000592941
0.000596589
0.000496088
0.000590957
0.000503341
0.000495782
0.000606941
0.000496829
0.000496826
0.000602723
0.000602723
0.000492056
0.000602187
0.000600047
0.000485128
0.000485977
0.000602742
0.0005993
0.000485654
0.000482152
0.00060118
0.000482067
0.000600715
0.000479826
0.000483135
0.000482491
0.000600237
0.000596791
0.000482607
0.000599668
0.00048347
0.000603215
0.000482338
0.000603019
0.000603688
0.000484668
0.000488181
0.000605269
0.000601795
0.0004875
0.000604666
0.000487645
0.000488473
0.000608274
0.00060806
0.000487348
0.000489688
0.000608733
0.000487178
0.000606219
0.000487084
0.000605757
0.000484836
0.000607169
0.000605074
0.000490154
0.000490992
0.000490689
0.000607785
0.000604302
0.000488169
0.000605249
0.000601811
0.000487505
0.000604706
0.000487642
0.000488486
0.000608224
0.000608045
0.000487355
0.000608712
0.000489687
0.00048718
0.000606197
0.000487089
0.000605718
0.000484847
0.000607225
0.000605063
0.00049015
0.000491
0.000607758
0.000604325
0.000490677
0.000601906
0.000491803
0.000491806
0.000597689
0.000597689
0.000487035
0.000494391
0.000591575
0.000587906
0.00049108
0.000498315
0.00058593
0.000490739
0.000494377
0.00059156
0.000587924
0.000491087
0.000490768
0.000585955
0.000498304
0.000484521
0.000595177
0.000595177
0.00048929
0.000599394
0.000489292
0.000588441
0.000500829
0.000597554
0.000493256
0.000590419
0.000594082
0.000496907
0.000588465
0.00050082
0.000597554
0.000493284
0.000594067
0.000590438
0.000496891
0.000483953
0.000602089
0.000607118
0.00048897
0.000489543
0.000600202
0.000600203
0.000604418
0.000494312
0.000494316
0.000593466
0.000498287
0.000602585
0.000505845
0.000599094
0.00059545
0.000501927
0.000593491
0.000498306
0.000602584
0.000505837
0.000595471
0.000599083
0.000501907
0.00049942
0.000592932
0.000596586
0.000496103
0.000495774
0.000590952
0.000503339
0.000499401
0.000592953
0.000596573
0.000496109
0.000590976
0.000503332
0.000495797
0.000606935
0.000496815
0.000496819
0.00060272
0.000602721
0.000492045
0.000607119
0.000488974
0.000602197
0.000600041
0.000485125
0.000485941
0.000602743
0.0005993
0.000485652
0.000482136
0.00060119
0.00048204
0.000600709
0.000479794
0.000483129
0.00048245
0.000600237
0.000596797
0.000482602
0.000599686
0.000483434
0.000603216
0.000482306
0.000603037
0.0006037
0.000484653
0.000488175
0.000601791
0.000605264
0.000487475
0.00060467
0.000488453
0.000487644
0.000608261
0.000608056
0.000487342
0.000489682
0.000608724
0.000487169
0.000606213
0.000487074
0.000605751
0.000484822
0.000607179
0.00060506
0.00049098
0.000490153
0.000490684
0.000604301
0.000607773
0.000488169
0.000605251
0.000601805
0.000487474
0.000604705
0.000487641
0.000488458
0.000608238
0.000608058
0.000487339
0.00060872
0.000489682
0.000487169
0.000606208
0.000487066
0.000605726
0.00048482
0.000607215
0.000605056
0.00049015
0.000490986
0.00060776
0.000604315
0.000490679
0.000602161
0.000600065
0.00048597
0.000485116
0.000599299
0.000602766
0.000485646
0.000482145
0.000601193
0.00048206
0.000479816
0.000600743
0.000483133
0.000482487
0.000596789
0.000600255
0.000483453
0.000599652
0.000482603
0.000603255
0.00048233
0.000603032
0.000603706
0.000484658
0.0006022
0.000600062
0.000485114
0.000485983
0.000602751
0.000599314
0.000485643
0.000482145
0.000601192
0.000482057
0.000600722
0.000479818
0.000483126
0.000482488
0.000600242
0.000596803
0.000599686
0.0004826
0.000483465
0.000603228
0.000482335
0.000603031
0.000603707
0.00048466
0.000488159
0.000601811
0.000605275
0.000487511
0.000604677
0.00048848
0.000487631
0.000608273
0.00060806
0.00048734
0.000608738
0.000489675
0.00048717
0.000606221
0.000487082
0.000605764
0.000484839
0.000607197
0.00060508
0.000490982
0.000490139
0.000604324
0.000607783
0.000490668
0.000488163
0.000605263
0.00060182
0.000487507
0.000604707
0.000487632
0.000488484
0.000608261
0.000608064
0.000487342
0.000608741
0.00048968
0.000487174
0.000606224
0.000487083
0.000605742
0.00048484
0.000607212
0.000605076
0.000490141
0.000490983
0.000607776
0.000604325
0.000490675
0.000601926
0.000491786
0.000491786
0.000597707
0.000597708
0.000487011
0.000494377
0.000591579
0.000491058
0.000587921
0.00049831
0.000490717
0.000585944
0.000494369
0.000591561
0.000491064
0.000587939
0.000490751
0.0004983
0.000585964
0.000588454
0.000500824
0.000597581
0.000493237
0.000590435
0.000594084
0.00049689
0.000588474
0.000500814
0.000597577
0.000493274
0.000594065
0.000590455
0.000496884
0.0004845
0.000595193
0.000595193
0.000489273
0.000489274
0.000599412
0.000483928
0.00060211
0.000607137
0.000488947
0.000489524
0.00060022
0.00060022
0.000604438
0.0004943
0.000494299
0.000498284
0.000602607
0.000599092
0.000499409
0.000592948
0.000596588
0.000496084
0.00049576
0.000590962
0.000503337
0.000499405
0.000592968
0.000596568
0.000496085
0.000590983
0.000503325
0.0004958
0.000488949
0.000602201
0.000485921
0.000485105
0.000600061
0.000599312
0.000602765
0.000485635
0.000482126
0.000482034
0.000601206
0.000479783
0.00060073
0.000603244
0.000482292
0.000603046
0.000603719
0.000484639
0.000483118
0.000482435
0.000596809
0.000600256
0.000483412
0.00048259
0.000599698
0.000602196
0.000485932
0.000485106
0.000600058
0.000599307
0.000602763
0.000485638
0.00048213
0.000482042
0.000601195
0.00047979
0.00060073
0.000603237
0.000482299
0.000603041
0.000603709
0.000484642
0.000483121
0.000482439
0.0005968
0.000600257
0.000483422
0.000482592
0.000599684
0.00048815
0.000601815
0.000605273
0.000487463
0.000604705
0.000488437
0.000487619
0.000487151
0.000606232
0.000487058
0.000605756
0.0004848
0.000488153
0.000601812
0.00060527
0.000487462
0.000604705
0.000488447
0.000487621
0.000487155
0.000606222
0.000487064
0.000605745
0.000484807
0.000483943
0.000602099
0.000483929
0.000602112
0.000489531
0.000600221
0.000600222
0.000604439
0.000494304
0.000494301
0.000498328
0.000602602
0.000599085
0.000499413
0.000592964
0.000596575
0.0004961
0.000590982
0.000495814
0.000503324
0.000499411
0.000592951
0.000596591
0.000496077
0.000590964
0.000495777
0.000503332
0.000607133
0.000488968
0.000488945
0.000492101
0.000504441
0.000601606
0.000597972
0.00050111
0.000508353
0.000595988
0.000500803
0.000504423
0.000601597
0.000597995
0.000501114
0.000500825
0.000596014
0.00050834
0.000494551
0.000605242
0.000605242
0.000499322
0.000609458
0.000499323
0.000493976
0.000492179
0.00061126
0.000492085
0.000489838
0.000610785
0.000493175
0.000492511
0.000606837
0.000610295
0.000493481
0.000609716
0.000492644
0.000492184
0.000611265
0.000610782
0.000489841
0.000493182
0.000492509
0.000610292
0.000606836
0.00060972
0.000492647
0.000493488
0.000531527
0.000531535
0.000532135
0.000534034
0.000534043
0.000536323
0.000533812
0.000541571
0.000541574
0.000542164
0.000544087
0.000544089
0.000546378
0.000543864
0.00051648
0.000575688
0.000575675
0.000518242
0.000508271
0.000508274
0.000574876
0.000506395
0.000565593
0.000565605
0.0005082
0.000498254
0.000498258
0.000564845
0.000572356
0.000562611
0.000505755
0.000505753
0.000573159
0.000573169
0.000513971
0.00050641
0.000565628
0.000565608
0.000508199
0.000498248
0.000498218
0.000564833
0.000572358
0.000562588
0.00050576
0.000505788
0.000573151
0.000573129
0.00051395
0.000516496
0.000575682
0.000575694
0.000518235
0.000574861
0.000508255
0.000508256
0.000582373
0.000572677
0.000515787
0.000515797
0.000583222
0.000583234
0.000524038
0.000516465
0.000575662
0.00057564
0.000518264
0.000508304
0.000574872
0.000508277
0.000582407
0.000572661
0.000515786
0.000515821
0.000583229
0.000583203
0.000524025
0.000516492
0.000575702
0.000575676
0.000518243
0.000508284
0.000508257
0.000574875
0.0005727
0.000515765
0.000583271
0.000572713
0.000515765
0.000583257
0.000526545
0.000585764
0.000585741
0.0005283
0.000518312
0.000584918
0.000518278
0.00053153
0.000531536
0.000532125
0.000534041
0.000534047
0.000536323
0.000533812
0.000531527
0.000531531
0.000532149
0.000534032
0.000534037
0.000536324
0.000533812
0.000531523
0.000531535
0.000532142
0.000534033
0.000534041
0.000536324
0.000533813
0.000534643
0.000539057
0.000539062
0.000536545
0.000536552
0.000538836
0.000541349
0.000534633
0.000539063
0.000539069
0.000536552
0.000536558
0.000538835
0.000541346
0.000534658
0.000539049
0.000539053
0.00053654
0.000536544
0.000538837
0.000541351
0.000534649
0.000539058
0.000539058
0.000536544
0.000536552
0.000538837
0.000541349
0.000572516
0.000495028
0.000489746
0.000580508
0.000579232
0.000571043
0.000489423
0.000483433
0.000577926
0.000499506
0.000575095
0.000481049
0.000493233
0.000575138
0.000577645
0.000495748
0.000569344
0.000483563
0.000580435
0.0005776
0.000485945
0.000486911
0.000491117
0.000576728
0.000568536
0.000492513
0.000487235
0.00057001
0.000541572
0.00054158
0.000542177
0.000544081
0.00054409
0.000546373
0.000543859
0.000541559
0.000541563
0.000542185
0.000544072
0.000544076
0.000546379
0.000543865
0.000541571
0.000541568
0.00054218
0.000544084
0.00054408
0.000546376
0.000543863
0.000544672
0.000549117
0.000549117
0.000546603
0.000546605
0.000548891
0.000551404
0.000544692
0.000549097
0.000549108
0.00054659
0.000546599
0.000548888
0.000551403
0.000544697
0.0005491
0.000549104
0.000546586
0.00054659
0.000548892
0.000551405
0.00054469
0.000549112
0.000549111
0.000546597
0.000546594
0.000548892
0.000551408
0.000582553
0.000590527
0.000505109
0.000499801
0.000589254
0.000581085
0.000499485
0.000493493
0.000587952
0.000585123
0.000509569
0.000585167
0.000491119
0.000503298
0.000496974
0.000501192
0.000586748
0.000578568
0.000580038
0.000502586
0.000497293
0.000587681
0.000505818
0.000579381
0.000493636
0.000590459
0.000587631
0.000496002
0.000582591
0.000499729
0.000505163
0.0005905
0.000581135
0.000589224
0.000499428
0.00049344
0.000587949
0.000509569
0.000585122
0.000491103
0.000503317
0.000585195
0.000587717
0.000505849
0.000579386
0.000493628
0.000590449
0.000587619
0.000495944
0.000496921
0.000501236
0.000578609
0.000586737
0.000497227
0.000502621
0.000580071
0.000577381
0.000567653
0.000510776
0.000510771
0.0005782
0.000578212
0.000519006
0.000551616
0.000551625
0.00050349
0.000597978
0.000595133
0.000519636
0.000595257
0.000501184
0.000513391
0.000506986
0.000511321
0.000596742
0.00058867
0.000590127
0.00051271
0.000507282
0.000567352
0.000557565
0.000500758
0.000500759
0.000508918
0.000568112
0.000568122
0.000511446
0.000513216
0.000570635
0.000570645
0.000569854
0.000503258
0.000503256
0.000572497
0.000495027
0.000489753
0.000580505
0.000579237
0.000571031
0.000489436
0.000483443
0.000577924
0.000499517
0.000575096
0.000493237
0.000481067
0.000575132
0.000577639
0.000495755
0.000569337
0.000483582
0.0005776
0.000580424
0.000485949
0.000486927
0.000491119
0.000576734
0.000568523
0.000492508
0.000487245
0.000569991
0.000572489
0.000495033
0.000489751
0.000580499
0.000579231
0.000571031
0.000489447
0.00048344
0.000577898
0.000499527
0.000575087
0.00049324
0.000481077
0.000575122
0.00057763
0.000495756
0.000569326
0.000483592
0.00057759
0.000485952
0.000580403
0.000486935
0.000491123
0.000576729
0.000568523
0.000492514
0.000487243
0.000569982
0.00049195
0.000581735
0.000573541
0.000496157
0.000575006
0.00049755
0.000492266
0.000582666
0.000488621
0.000574351
0.000500797
0.000585425
0.000582598
0.000490967
0.000488459
0.000580099
0.000582923
0.000504546
0.000486101
0.00058015
0.000498277
0.00057752
0.000585508
0.000500075
0.000494775
0.000584233
0.000576056
0.000494461
0.000491962
0.000581733
0.00057354
0.000496158
0.000574998
0.00049755
0.000492265
0.00058265
0.000488621
0.000574341
0.000500788
0.000582601
0.000585417
0.000490977
0.000488466
0.000580094
0.000582909
0.000504555
0.000580139
0.000498272
0.000486107
0.00057751
0.000585505
0.000500068
0.000494774
0.000584237
0.000576054
0.000494474
0.00056734
0.000557573
0.00050073
0.000500759
0.000568115
0.000568136
0.000508924
0.00051144
0.000513229
0.000570644
0.000570623
0.000503243
0.000569847
0.000503273
0.000572496
0.000495
0.000489771
0.000580528
0.000579259
0.000571021
0.000489441
0.000483471
0.000577934
0.000499505
0.000575121
0.000493209
0.000481041
0.000575098
0.000577613
0.000495727
0.00056934
0.000483555
0.000577621
0.000580437
0.000485969
0.000486941
0.000491079
0.000576762
0.000568503
0.000492473
0.000487277
0.000569982
0.00057249
0.000489758
0.000580532
0.000494987
0.000571026
0.000579275
0.000489443
0.000483456
0.000577937
0.000575128
0.000499508
0.000493206
0.000575111
0.000481043
0.000486944
0.000491075
0.000568508
0.000576781
0.000487265
0.000492453
0.000569976
0.000577626
0.000495732
0.000569342
0.000483561
0.000577627
0.000485952
0.000580436
0.000491941
0.000581746
0.000573544
0.00049615
0.000575016
0.000497542
0.000492262
0.000582658
0.000488596
0.000574352
0.000500788
0.000585437
0.000582602
0.000490961
0.000488465
0.000580113
0.000582939
0.000504539
0.000486075
0.000580134
0.000498255
0.000577537
0.000585501
0.00050009
0.000494754
0.000584227
0.000576071
0.00049444
0.000491941
0.000573549
0.00049615
0.000581758
0.000575009
0.000492249
0.000497531
0.000582668
0.000488598
0.000500796
0.000574349
0.000582605
0.000490941
0.000585426
0.00057753
0.000585504
0.00049474
0.000500079
0.000576073