/*--------------------------------*- C++ -*----------------------------------*\
| =========                 |                                                 |
| \\      /  F ield         | OpenFOAM: The Open Source CFD Toolbox           |
|  \\    /   O peration     | Version:  2206                                  |
|   \\  /    A nd           | Website:  www.openfoam.com                      |
|    \\/     M anipulation  |                                                 |
\*---------------------------------------------------------------------------*/
FoamFile
{
    version     2.0;
    format      ascii;
    arch        "LSB;label=32;scalar=64";
    class       volVectorField;
    location    "19";
    object      U;
}
// * * * * * * * * * * * * * * * * * * * * * * * * * * * * * * * * * * * * * //

dimensions      [0 1 -1 0 0 0 0];

internalField   nonuniform List<vector> 
28687
(
(-5.72458e-07 -5.74135e-07 0.102226)
(-3.91572e-07 5.91799e-07 0.102201)
(5.94701e-07 -3.86161e-07 0.102201)
(-4.05216e-05 -4.05389e-05 0.102161)
(-5.85163e-07 -5.89597e-07 0.102226)
(-3.68616e-07 5.79641e-07 0.102201)
(5.83971e-07 -3.6585e-07 0.102201)
(-4.05056e-05 -4.05235e-05 0.102161)
(-6.05016e-07 -6.00468e-07 0.102226)
(-3.54868e-07 5.86272e-07 0.1022)
(5.86289e-07 -3.63067e-07 0.1022)
(-4.04728e-05 -4.04863e-05 0.102161)
(-6.12343e-07 -5.77741e-07 0.102226)
(-4.1641e-07 6.95325e-07 0.1022)
(5.92884e-07 -3.63873e-07 0.1022)
(-4.04443e-05 -4.04447e-05 0.102161)
(-5.14477e-07 -5.17729e-07 0.102226)
(-4.38736e-07 5.86861e-07 0.102201)
(6.14997e-07 -4.54763e-07 0.102201)
(-4.06312e-05 -4.06508e-05 0.102161)
(-5.74793e-07 -5.70053e-07 0.102227)
(-3.84458e-07 5.95638e-07 0.102201)
(5.86569e-07 -3.85275e-07 0.102201)
(-4.05356e-05 -4.05538e-05 0.102161)
(-5.71721e-07 -5.59361e-07 0.102227)
(-3.84726e-07 6.1139e-07 0.102201)
(5.92018e-07 -3.83203e-07 0.102201)
(-4.05408e-05 -4.05542e-05 0.102161)
(-5.65114e-07 -5.61865e-07 0.102227)
(-3.81961e-07 5.84936e-07 0.102201)
(5.92938e-07 -3.82505e-07 0.102201)
(-4.05409e-05 -4.0554e-05 0.102161)
(-5.61823e-07 -5.64842e-07 0.102227)
(-3.88159e-07 5.97885e-07 0.102201)
(5.92807e-07 -3.84131e-07 0.102201)
(-4.05392e-05 -4.05551e-05 0.102161)
(-5.71034e-07 -5.71396e-07 0.102227)
(-3.85048e-07 5.93263e-07 0.102201)
(5.9184e-07 -3.84324e-07 0.102201)
(-4.05391e-05 -4.05549e-05 0.102161)
(-5.72829e-07 -5.70826e-07 0.102227)
(-3.83573e-07 5.9257e-07 0.102201)
(5.91428e-07 -3.85045e-07 0.102201)
(-4.05388e-05 -4.05552e-05 0.102161)
(-5.74078e-07 -5.71139e-07 0.102227)
(-3.83382e-07 5.92361e-07 0.102201)
(5.91029e-07 -3.85163e-07 0.102201)
(-4.0539e-05 -4.05554e-05 0.102161)
(-5.73945e-07 -5.70351e-07 0.102227)
(-3.83999e-07 5.9306e-07 0.102201)
(5.91631e-07 -3.85961e-07 0.102201)
(-4.054e-05 -4.05561e-05 0.102161)
(-5.73476e-07 -5.69985e-07 0.102227)
(-3.83836e-07 5.93042e-07 0.102201)
(5.92069e-07 -3.86252e-07 0.102201)
(-4.05404e-05 -4.05562e-05 0.102161)
(-5.73342e-07 -5.69387e-07 0.102227)
(-3.84522e-07 5.9363e-07 0.102201)
(5.92192e-07 -3.86546e-07 0.102201)
(-4.05407e-05 -4.05562e-05 0.102161)
(-5.73429e-07 -5.69309e-07 0.102227)
(-3.8354e-07 5.92688e-07 0.102201)
(5.91614e-07 -3.86108e-07 0.102201)
(-4.05401e-05 -4.05568e-05 0.102161)
(-5.73956e-07 -5.69732e-07 0.102227)
(-3.83964e-07 5.93152e-07 0.102201)
(5.91794e-07 -3.85785e-07 0.102201)
(-4.0538e-05 -4.05536e-05 0.102161)
(-5.75276e-07 -5.709e-07 0.102227)
(-3.80405e-07 5.91514e-07 0.102201)
(5.90028e-07 -3.83183e-07 0.102201)
(-4.05293e-05 -4.05449e-05 0.102161)
(-6.15083e-07 4.09888e-07 0.102201)
(4.21961e-05 -4.21688e-05 0.102163)
(-3.88303e-07 5.95548e-07 0.102201)
(4.05301e-05 4.05089e-05 0.102161)
(-4.2203e-05 -4.21825e-05 0.102163)
(6.14466e-07 3.97818e-07 0.102201)
(-6.11691e-07 4.10415e-07 0.102201)
(6.04383e-07 3.75037e-07 0.102201)
(-5.99235e-07 3.91803e-07 0.102201)
(-4.05323e-05 4.05033e-05 0.102161)
(4.22079e-05 -4.21846e-05 0.102163)
(3.87969e-07 5.98898e-07 0.102201)
(4.00885e-07 -6.12535e-07 0.102201)
(3.658e-07 5.84221e-07 0.102201)
(3.82952e-07 -6.02295e-07 0.102201)
(-4.00748e-07 -6.10944e-07 0.102201)
(-3.71208e-07 5.80276e-07 0.102201)
(-3.81005e-07 -5.99253e-07 0.102201)
(4.05111e-05 -4.05434e-05 0.102161)
(-4.21764e-05 4.2211e-05 0.102163)
(-5.91812e-07 -3.86482e-07 0.102201)
(5.83266e-07 -3.63683e-07 0.102201)
(-5.78724e-07 -3.67146e-07 0.102201)
(4.21842e-05 4.22004e-05 0.102163)
(4.05148e-05 4.04963e-05 0.102161)
(-4.22383e-05 -4.22187e-05 0.102163)
(6.05993e-07 3.79533e-07 0.102201)
(-5.98691e-07 3.84858e-07 0.102201)
(5.8191e-07 3.51801e-07 0.102201)
(-6.02509e-07 3.80982e-07 0.1022)
(-4.05125e-05 4.04813e-05 0.102161)
(4.22498e-05 -4.22241e-05 0.102163)
(3.68891e-07 5.89419e-07 0.102201)
(3.82029e-07 -6.01856e-07 0.102201)
(3.36678e-07 5.68884e-07 0.102201)
(3.53585e-07 -5.80726e-07 0.1022)
(-3.80277e-07 -5.99755e-07 0.102201)
(-3.4908e-07 5.83081e-07 0.102201)
(-3.53435e-07 -5.77793e-07 0.1022)
(4.04969e-05 -4.05285e-05 0.102161)
(-4.22166e-05 4.22505e-05 0.102163)
(-5.79676e-07 -3.6724e-07 0.102201)
(5.62068e-07 -3.34971e-07 0.102201)
(-5.61204e-07 -3.35036e-07 0.102201)
(4.22205e-05 4.22403e-05 0.102163)
(4.04794e-05 4.04665e-05 0.102161)
(-4.23304e-05 -4.22921e-05 0.102163)
(6.01098e-07 3.79449e-07 0.1022)
(-6.00742e-07 3.67681e-07 0.1022)
(5.25208e-07 3.06763e-07 0.1022)
(-6.20617e-07 3.90448e-07 0.1022)
(-4.04956e-05 4.04685e-05 0.102161)
(4.22726e-05 -4.22212e-05 0.102163)
(3.64875e-07 5.93373e-07 0.1022)
(3.77935e-07 -6.0416e-07 0.1022)
(2.70359e-07 5.35435e-07 0.1022)
(2.94603e-07 -5.38642e-07 0.1022)
(-3.78728e-07 -5.99642e-07 0.1022)
(-3.19949e-07 6.06754e-07 0.1022)
(-3.0101e-07 -5.26131e-07 0.1022)
(4.04601e-05 -4.04929e-05 0.102161)
(-4.22971e-05 4.2333e-05 0.102163)
(-5.85946e-07 -3.59575e-07 0.1022)
(5.20518e-07 -2.74873e-07 0.1022)
(-5.26654e-07 -2.69763e-07 0.1022)
(4.22968e-05 4.23282e-05 0.102163)
(4.04333e-05 4.04398e-05 0.102161)
(-4.20875e-05 -4.20697e-05 0.102163)
(5.8774e-07 3.9891e-07 0.1022)
(-7.0448e-07 4.78833e-07 0.1022)
(6.70344e-07 5.06262e-07 0.1022)
(-6.33156e-07 4.75544e-07 0.102201)
(-4.05459e-05 4.05555e-05 0.102161)
(4.21463e-05 -4.21449e-05 0.102163)
(3.5873e-07 6.0863e-07 0.1022)
(3.80296e-07 -6.1048e-07 0.1022)
(4.96256e-07 6.54964e-07 0.1022)
(5.14367e-07 -6.67776e-07 0.1022)
(-3.89808e-07 -5.91888e-07 0.1022)
(-4.74166e-07 6.08569e-07 0.102201)
(-5.10003e-07 -6.64213e-07 0.1022)
(4.04281e-05 -4.04567e-05 0.102161)
(-4.20644e-05 4.21025e-05 0.102163)
(-5.9936e-07 -3.54913e-07 0.1022)
(6.49126e-07 -4.93838e-07 0.1022)
(-6.48231e-07 -4.93272e-07 0.1022)
(4.20725e-05 4.20907e-05 0.102163)
(4.06447e-05 4.06244e-05 0.102161)
(-4.22109e-05 -4.21938e-05 0.102163)
(6.38945e-07 4.68656e-07 0.102201)
(-6.09357e-07 4.46382e-07 0.102201)
(6.04074e-07 3.97533e-07 0.102201)
(-6.06289e-07 4.06895e-07 0.102201)
(-4.05981e-05 4.05527e-05 0.102161)
(4.22201e-05 -4.21899e-05 0.102163)
(4.5931e-07 6.18542e-07 0.102201)
(4.71788e-07 -6.32924e-07 0.102201)
(3.8872e-07 5.88176e-07 0.102201)
(4.03152e-07 -6.00768e-07 0.102201)
(-4.65924e-07 -6.34332e-07 0.102201)
(-3.85962e-07 5.91838e-07 0.102201)
(-3.99718e-07 -6.01609e-07 0.102201)
(4.06251e-05 -4.06537e-05 0.102161)
(-4.21909e-05 4.2225e-05 0.102163)
(-6.11831e-07 -4.53175e-07 0.102201)
(5.83121e-07 -3.85307e-07 0.102201)
(-5.80766e-07 -3.84943e-07 0.102201)
(4.21973e-05 4.22123e-05 0.102163)
(4.05458e-05 4.05276e-05 0.102161)
(-4.22131e-05 -4.21764e-05 0.102163)
(6.02999e-07 4.03147e-07 0.102201)
(-6.08529e-07 4.05672e-07 0.102201)
(6.09669e-07 4.07985e-07 0.102201)
(-6.16791e-07 4.14306e-07 0.102201)
(-4.0544e-05 4.05264e-05 0.102161)
(4.22169e-05 -4.21728e-05 0.102163)
(3.88909e-07 5.92742e-07 0.102201)
(4.00503e-07 -6.02993e-07 0.102201)
(3.83466e-07 6.03631e-07 0.102201)
(4.00798e-07 -6.05268e-07 0.102201)
(-3.98859e-07 -6.03143e-07 0.102201)
(-3.83286e-07 6.0688e-07 0.102201)
(-3.99048e-07 -6.02896e-07 0.102201)
(4.05255e-05 -4.05573e-05 0.102161)
(-4.21865e-05 4.22246e-05 0.102163)
(-5.84698e-07 -3.82791e-07 0.102201)
(5.90422e-07 -3.79931e-07 0.102201)
(-5.8852e-07 -3.79642e-07 0.102201)
(4.21927e-05 4.22134e-05 0.102163)
(4.05485e-05 4.055e-05 0.102161)
(-4.22141e-05 -4.21768e-05 0.102163)
(6.1185e-07 4.19006e-07 0.102201)
(-6.19877e-07 4.22077e-07 0.102201)
(6.12916e-07 4.03132e-07 0.102201)
(-6.07536e-07 4.08329e-07 0.102201)
(-4.0552e-05 4.05458e-05 0.102161)
(4.22217e-05 -4.21848e-05 0.102163)
(3.87144e-07 6.08444e-07 0.102201)
(4.01334e-07 -6.05607e-07 0.102201)
(3.84154e-07 6.03925e-07 0.102201)
(4.00809e-07 -6.05613e-07 0.102201)
(-4.01345e-07 -6.03544e-07 0.102201)
(-3.8205e-07 5.9554e-07 0.102201)
(-4.04543e-07 -6.03339e-07 0.102201)
(4.05306e-05 -4.0559e-05 0.102161)
(-4.21858e-05 4.22239e-05 0.102163)
(-5.89735e-07 -3.82107e-07 0.102201)
(5.91637e-07 -3.78974e-07 0.102201)
(-5.87588e-07 -3.87126e-07 0.102201)
(4.2191e-05 4.22128e-05 0.102163)
(4.05512e-05 4.05407e-05 0.102161)
(-4.22189e-05 -4.218e-05 0.102163)
(6.13676e-07 4.03849e-07 0.102201)
(-5.97914e-07 3.99794e-07 0.102201)
(6.14754e-07 4.12025e-07 0.102201)
(-6.12445e-07 4.11193e-07 0.102201)
(-4.05339e-05 4.05163e-05 0.102161)
(4.22103e-05 -4.2188e-05 0.102163)
(3.89185e-07 6.01365e-07 0.102201)
(4.00942e-07 -6.06521e-07 0.102201)
(3.89836e-07 5.95011e-07 0.102201)
(4.01277e-07 -6.07222e-07 0.102201)
(-4.05679e-07 -6.05093e-07 0.102201)
(-3.86672e-07 5.97193e-07 0.102201)
(-3.9794e-07 -6.05501e-07 0.102201)
(4.05303e-05 -4.05591e-05 0.102161)
(-4.21857e-05 4.22225e-05 0.102163)
(-5.88428e-07 -3.89651e-07 0.102201)
(5.92169e-07 -3.80491e-07 0.102201)
(-5.87635e-07 -3.82321e-07 0.102201)
(4.21929e-05 4.22114e-05 0.102163)
(4.05481e-05 4.05347e-05 0.102161)
(-4.22181e-05 -4.21839e-05 0.102163)
(6.17553e-07 4.11403e-07 0.102201)
(-6.09296e-07 4.00514e-07 0.102201)
(6.09158e-07 3.99825e-07 0.102201)
(-6.10499e-07 4.01653e-07 0.102201)
(-4.05505e-05 4.0524e-05 0.102161)
(4.22214e-05 -4.21899e-05 0.102163)
(3.92049e-07 5.96043e-07 0.102201)
(4.01242e-07 -6.0751e-07 0.102201)
(3.84281e-07 5.94822e-07 0.102201)
(3.99943e-07 -6.07904e-07 0.102201)
(-3.98412e-07 -6.05956e-07 0.102201)
(-3.83666e-07 5.92301e-07 0.102201)
(-3.97758e-07 -6.04806e-07 0.102201)
(4.053e-05 -4.05599e-05 0.102161)
(-4.21867e-05 4.22223e-05 0.102163)
(-5.8892e-07 -3.8256e-07 0.102201)
(5.90743e-07 -3.80645e-07 0.102201)
(-5.88147e-07 -3.81366e-07 0.102201)
(4.21929e-05 4.22117e-05 0.102163)
(4.05509e-05 4.05271e-05 0.102161)
(-4.22172e-05 -4.21856e-05 0.102163)
(6.08616e-07 3.95796e-07 0.102201)
(-6.12687e-07 4.0319e-07 0.102201)
(6.09269e-07 3.98439e-07 0.102201)
(-6.1282e-07 4.01933e-07 0.102201)
(-4.05421e-05 4.05247e-05 0.102161)
(4.22173e-05 -4.21907e-05 0.102163)
(3.86126e-07 5.94322e-07 0.102201)
(4.0002e-07 -6.08695e-07 0.102201)
(3.82367e-07 5.92944e-07 0.102201)
(3.99948e-07 -6.08522e-07 0.102201)
(-3.98531e-07 -6.06227e-07 0.102201)
(-3.81626e-07 5.92392e-07 0.102201)
(-3.97564e-07 -6.05739e-07 0.102201)
(4.05292e-05 -4.05602e-05 0.102161)
(-4.21865e-05 4.22218e-05 0.102163)
(-5.89524e-07 -3.82172e-07 0.102201)
(5.90444e-07 -3.81504e-07 0.102201)
(-5.8865e-07 -3.80908e-07 0.102201)
(4.21932e-05 4.22111e-05 0.102163)
(4.05521e-05 4.05269e-05 0.102161)
(-4.22175e-05 -4.21859e-05 0.102163)
(6.10264e-07 3.97289e-07 0.102201)
(-6.13539e-07 4.01565e-07 0.102201)
(6.09333e-07 3.98765e-07 0.102201)
(-6.13066e-07 4.01496e-07 0.102201)
(-4.05449e-05 4.0523e-05 0.102161)
(4.22165e-05 -4.21908e-05 0.102163)
(3.86751e-07 5.94095e-07 0.102201)
(4.00033e-07 -6.08837e-07 0.102201)
(3.81884e-07 5.92011e-07 0.102201)
(3.99371e-07 -6.08323e-07 0.102201)
(-3.98507e-07 -6.06679e-07 0.102201)
(-3.81759e-07 5.92396e-07 0.102201)
(-3.97622e-07 -6.05701e-07 0.102201)
(4.05292e-05 -4.05603e-05 0.102161)
(-4.2187e-05 4.2222e-05 0.102163)
(-5.89745e-07 -3.81607e-07 0.102201)
(5.8986e-07 -3.8141e-07 0.102201)
(-5.88466e-07 -3.79319e-07 0.102201)
(4.21933e-05 4.22113e-05 0.102163)
(4.05515e-05 4.05262e-05 0.102161)
(-4.2217e-05 -4.21857e-05 0.102163)
(6.09458e-07 3.96455e-07 0.102201)
(-6.14004e-07 4.01861e-07 0.102201)
(6.0994e-07 3.9947e-07 0.102201)
(-6.14096e-07 4.02735e-07 0.102201)
(-4.05458e-05 4.05228e-05 0.102161)
(4.22155e-05 -4.21895e-05 0.102163)
(3.86195e-07 5.9271e-07 0.102201)
(3.99753e-07 -6.08903e-07 0.102201)
(3.82514e-07 5.91887e-07 0.102201)
(4.00077e-07 -6.09038e-07 0.102201)
(-3.98654e-07 -6.06728e-07 0.102201)
(-3.82642e-07 5.93236e-07 0.102201)
(-3.98222e-07 -6.06382e-07 0.102201)
(4.05287e-05 -4.05602e-05 0.102161)
(-4.21861e-05 4.2221e-05 0.102163)
(-5.89814e-07 -3.81975e-07 0.102201)
(5.90553e-07 -3.82416e-07 0.102201)
(-5.8919e-07 -3.82211e-07 0.102201)
(4.21923e-05 4.22103e-05 0.102163)
(4.05523e-05 4.05269e-05 0.102161)
(-4.22162e-05 -4.21849e-05 0.102163)
(6.10515e-07 3.9731e-07 0.102201)
(-6.14688e-07 4.02756e-07 0.102201)
(6.10982e-07 4.00058e-07 0.102201)
(-6.13793e-07 4.02878e-07 0.102201)
(-4.05466e-05 4.05242e-05 0.102161)
(4.22157e-05 -4.21894e-05 0.102163)
(3.87144e-07 5.93036e-07 0.102201)
(4.00399e-07 -6.09425e-07 0.102201)
(3.82969e-07 5.92447e-07 0.102201)
(4.00608e-07 -6.09149e-07 0.102201)
(-3.99163e-07 -6.07401e-07 0.102201)
(-3.82453e-07 5.93176e-07 0.102201)
(-3.97967e-07 -6.06286e-07 0.102201)
(4.05295e-05 -4.05612e-05 0.102161)
(-4.21858e-05 4.22209e-05 0.102163)
(-5.90429e-07 -3.83716e-07 0.102201)
(5.90905e-07 -3.82704e-07 0.102201)
(-5.89118e-07 -3.8261e-07 0.102201)
(4.21918e-05 4.22103e-05 0.102163)
(4.05532e-05 4.0528e-05 0.102161)
(-4.2216e-05 -4.21836e-05 0.102163)
(6.11646e-07 3.98127e-07 0.102201)
(-6.14353e-07 4.02968e-07 0.102201)
(6.11663e-07 4.01199e-07 0.102201)
(-6.13977e-07 4.03613e-07 0.102201)
(-4.05465e-05 4.05244e-05 0.102161)
(4.22156e-05 -4.21889e-05 0.102163)
(3.87299e-07 5.93628e-07 0.102201)
(4.00884e-07 -6.09487e-07 0.102201)
(3.8315e-07 5.93058e-07 0.102201)
(4.00987e-07 -6.0913e-07 0.102201)
(-3.98918e-07 -6.07278e-07 0.102201)
(-3.829e-07 5.9367e-07 0.102201)
(-3.9844e-07 -6.0668e-07 0.102201)
(4.05301e-05 -4.05615e-05 0.102161)
(-4.21856e-05 4.22209e-05 0.102163)
(-5.9037e-07 -3.84125e-07 0.102201)
(5.91158e-07 -3.831e-07 0.102201)
(-5.89735e-07 -3.83437e-07 0.102201)
(4.21913e-05 4.22096e-05 0.102163)
(4.05526e-05 4.05282e-05 0.102161)
(-4.22173e-05 -4.21848e-05 0.102163)
(6.11851e-07 3.98858e-07 0.102201)
(-6.14779e-07 4.03614e-07 0.102201)
(6.11104e-07 4.00668e-07 0.102201)
(-6.13456e-07 4.03067e-07 0.102201)
(-4.0547e-05 4.05249e-05 0.102161)
(4.2215e-05 -4.21888e-05 0.102163)
(3.87408e-07 5.93988e-07 0.102201)
(4.01158e-07 -6.09518e-07 0.102201)
(3.8242e-07 5.92619e-07 0.102201)
(3.9979e-07 -6.08164e-07 0.102201)
(-3.99525e-07 -6.07775e-07 0.102201)
(-3.82558e-07 5.9351e-07 0.102201)
(-3.97773e-07 -6.0624e-07 0.102201)
(4.05295e-05 -4.05607e-05 0.102161)
(-4.21873e-05 4.22226e-05 0.102163)
(-5.90888e-07 -3.84769e-07 0.102201)
(5.90205e-07 -3.82038e-07 0.102201)
(-5.89207e-07 -3.82838e-07 0.102201)
(4.21914e-05 4.22112e-05 0.102163)
(4.05534e-05 4.05292e-05 0.102161)
(-4.2216e-05 -4.21835e-05 0.102163)
(6.11726e-07 3.98968e-07 0.102201)
(-6.14284e-07 4.03227e-07 0.102201)
(6.10963e-07 4.00598e-07 0.102201)
(-6.13476e-07 4.03234e-07 0.102201)
(-4.05467e-05 4.05249e-05 0.102161)
(4.22135e-05 -4.21873e-05 0.102163)
(3.87276e-07 5.9394e-07 0.102201)
(4.00624e-07 -6.08916e-07 0.102201)
(3.82442e-07 5.92488e-07 0.102201)
(4.00357e-07 -6.0886e-07 0.102201)
(-3.9902e-07 -6.07195e-07 0.102201)
(-3.82637e-07 5.93387e-07 0.102201)
(-3.97685e-07 -6.05733e-07 0.102201)
(4.05298e-05 -4.0561e-05 0.102161)
(-4.2185e-05 4.22203e-05 0.102163)
(-5.90733e-07 -3.8473e-07 0.102201)
(5.90904e-07 -3.82544e-07 0.102201)
(-5.89332e-07 -3.82743e-07 0.102201)
(4.21902e-05 4.22096e-05 0.102163)
(4.05504e-05 4.05262e-05 0.102161)
(-4.22101e-05 -4.21772e-05 0.102163)
(6.11216e-07 3.98222e-07 0.102201)
(-6.14834e-07 4.03039e-07 0.102201)
(6.09767e-07 3.98663e-07 0.102201)
(-6.12538e-07 4.01771e-07 0.102201)
(-4.0545e-05 4.05231e-05 0.102161)
(4.22102e-05 -4.21844e-05 0.102163)
(3.86678e-07 5.9352e-07 0.102201)
(4.00381e-07 -6.09146e-07 0.102201)
(3.80186e-07 5.91723e-07 0.102201)
(3.97841e-07 -6.074e-07 0.102201)
(-3.98971e-07 -6.07301e-07 0.102201)
(-3.82421e-07 5.93142e-07 0.102201)
(-3.96905e-07 -6.05154e-07 0.102201)
(4.05278e-05 -4.05591e-05 0.102161)
(-4.21797e-05 4.22148e-05 0.102163)
(-5.90353e-07 -3.8399e-07 0.102201)
(5.89312e-07 -3.80268e-07 0.102201)
(-5.88594e-07 -3.80757e-07 0.102201)
(4.21843e-05 4.2204e-05 0.102163)
(4.05412e-05 4.05174e-05 0.102161)
(6.09694e-07 3.958e-07 0.102201)
(-6.14401e-07 3.99794e-07 0.102201)
(-4.05376e-05 4.05151e-05 0.102161)
(3.83734e-07 5.92419e-07 0.102201)
(3.97373e-07 -6.07574e-07 0.102201)
(-3.95965e-07 -6.05443e-07 0.102201)
(4.05181e-05 -4.05496e-05 0.102161)
(-5.89559e-07 -3.81372e-07 0.102201)
(4.94014e-08 -8.38996e-06 0.100748)
(7.36698e-07 6.25935e-06 0.0950994)
(-3.30575e-08 8.16836e-06 0.100742)
(-1.06724e-06 -6.26523e-06 0.0951096)
(-1.68057e-06 2.31883e-06 0.0841529)
(1.63391e-06 -2.34165e-06 0.0841638)
(-8.44452e-06 3.34741e-08 0.100748)
(6.20844e-06 6.89689e-07 0.0950986)
(8.22935e-06 -2.51661e-08 0.100742)
(-6.20329e-06 -1.0303e-06 0.0951101)
(5.86465e-07 -5.65039e-07 0.102226)
(-5.69478e-07 5.74749e-07 0.102226)
(5.72141e-07 5.66737e-07 0.102226)
(-5.80752e-07 -5.84029e-07 0.102226)
(5.98535e-07 -5.80288e-07 0.102226)
(-5.78029e-07 5.84309e-07 0.102226)
(5.83008e-07 5.76128e-07 0.102226)
(1.36323e-05 2.27579e-08 0.101922)
(-1.30529e-05 3.78197e-06 0.100993)
(-4.88125e-07 -1.65874e-07 0.10222)
(-3.81807e-07 5.84343e-07 0.102201)
(-1.36939e-05 -3.78146e-08 0.101919)
(1.2563e-05 -4.08303e-06 0.101003)
(-4.76032e-07 -1.68812e-07 0.10222)
(2.28621e-06 -1.68126e-06 0.0841505)
(-2.25373e-06 1.58687e-06 0.0841639)
(3.747e-08 1.36434e-05 0.101922)
(-1.64072e-07 -4.80615e-07 0.10222)
(3.83274e-06 -1.31158e-05 0.100993)
(5.91712e-07 -3.77501e-07 0.102201)
(-3.81043e-08 -1.37062e-05 0.101919)
(-1.65099e-07 -4.65814e-07 0.10222)
(-4.11128e-06 1.25993e-05 0.101002)
(-4.11757e-06 -5.01707e-06 0.0992324)
(-5.00345e-06 -4.11296e-06 0.0992319)
(4.21692e-05 4.21862e-05 0.102163)
(3.92775e-06 4.85022e-06 0.0992425)
(4.84458e-06 3.91927e-06 0.0992419)
(3.94028e-08 -8.43084e-06 0.100748)
(7.41625e-07 6.19397e-06 0.0950999)
(-3.29869e-08 8.11168e-06 0.100742)
(-1.03688e-06 -6.30095e-06 0.0951101)
(-1.64309e-06 2.24113e-06 0.0841537)
(1.65588e-06 -2.42483e-06 0.0841651)
(-8.48247e-06 2.45676e-08 0.100748)
(6.14317e-06 6.96046e-07 0.095099)
(8.17435e-06 -2.80788e-08 0.100742)
(-6.23851e-06 -9.98486e-07 0.0951106)
(6.04094e-07 -5.88356e-07 0.102226)
(-5.83164e-07 5.88968e-07 0.102226)
(5.87536e-07 5.80994e-07 0.102226)
(-5.99979e-07 -5.94258e-07 0.102226)
(6.02826e-07 -5.96265e-07 0.102226)
(-5.92985e-07 5.98283e-07 0.102226)
(5.92779e-07 5.95208e-07 0.102226)
(1.36812e-05 1.67612e-08 0.101922)
(-1.2995e-05 3.74172e-06 0.100993)
(-4.55849e-07 -1.78244e-07 0.102219)
(-3.48064e-07 5.65435e-07 0.102201)
(-1.36277e-05 -4.3661e-08 0.101919)
(1.26279e-05 -4.14997e-06 0.101003)
(-4.35788e-07 -1.77478e-07 0.102219)
(2.14988e-06 -1.62415e-06 0.084151)
(-2.33281e-06 1.64388e-06 0.0841648)
(3.04259e-08 1.36898e-05 0.101922)
(-1.72065e-07 -4.53017e-07 0.102219)
(3.78354e-06 -1.30464e-05 0.100993)
(5.81041e-07 -3.54972e-07 0.102201)
(-4.2786e-08 -1.36388e-05 0.101919)
(-1.76703e-07 -4.33792e-07 0.102219)
(-4.16769e-06 1.26612e-05 0.101002)
(-4.13451e-06 -5.01773e-06 0.0992324)
(-5.0052e-06 -4.12927e-06 0.0992319)
(4.21944e-05 4.22122e-05 0.102163)
(3.90525e-06 4.88383e-06 0.0992424)
(4.87772e-06 3.89897e-06 0.0992418)
(1.16959e-08 -8.50643e-06 0.100748)
(7.55949e-07 6.17124e-06 0.0951005)
(-5.42061e-08 8.07577e-06 0.100742)
(-1.03067e-06 -6.35518e-06 0.0951108)
(-1.62326e-06 2.14993e-06 0.0841555)
(1.63993e-06 -2.37167e-06 0.0841669)
(-8.55936e-06 1.96751e-08 0.100748)
(6.11898e-06 7.16485e-07 0.0950996)
(8.13163e-06 -3.94158e-08 0.100742)
(-6.30166e-06 -9.78702e-07 0.0951114)
(6.04071e-07 -5.9929e-07 0.102226)
(-6.00242e-07 6.04941e-07 0.102226)
(5.9875e-07 6.01621e-07 0.102226)
(-6.34961e-07 -6.03519e-07 0.102226)
(5.94955e-07 -5.75547e-07 0.102226)
(-6.17702e-07 6.23315e-07 0.102226)
(6.06608e-07 6.29916e-07 0.102226)
(1.37331e-05 2.76078e-08 0.101921)
(-1.29415e-05 3.66687e-06 0.100993)
(-4.34383e-07 -1.77301e-07 0.102219)
(-3.12357e-07 5.43363e-07 0.1022)
(-1.35914e-05 -4.88086e-08 0.101919)
(1.26731e-05 -4.15848e-06 0.101002)
(-4.13201e-07 -1.74616e-07 0.102219)
(2.09585e-06 -1.54612e-06 0.0841524)
(-2.35479e-06 1.57858e-06 0.0841668)
(2.44966e-08 1.37436e-05 0.101921)
(-1.83913e-07 -4.38934e-07 0.102219)
(3.72216e-06 -1.29941e-05 0.100993)
(5.74771e-07 -3.4256e-07 0.1022)
(-5.10048e-08 -1.36011e-05 0.101919)
(-1.80749e-07 -4.19215e-07 0.102219)
(-4.21518e-06 1.27097e-05 0.101002)
(-4.12358e-06 -4.96269e-06 0.0992324)
(-4.95325e-06 -4.11591e-06 0.0992319)
(4.22005e-05 4.22257e-05 0.102163)
(3.93644e-06 4.90283e-06 0.0992424)
(4.88744e-06 3.93663e-06 0.0992418)
(-8.62545e-09 -8.38026e-06 0.100748)
(7.19054e-07 6.13293e-06 0.0951012)
(-1.58291e-07 8.04383e-06 0.100742)
(-1.03003e-06 -6.23489e-06 0.0951118)
(-1.85121e-06 2.25041e-06 0.0841585)
(1.24313e-06 -1.9574e-06 0.0841679)
(-8.45999e-06 6.82716e-08 0.100747)
(6.06593e-06 7.21317e-07 0.0951004)
(8.06138e-06 -6.37525e-08 0.100742)
(-6.18554e-06 -9.69704e-07 0.0951122)
(5.36215e-07 -5.17877e-07 0.102226)
(-5.94025e-07 5.99068e-07 0.102226)
(5.81131e-07 6.07431e-07 0.102226)
(-4.88962e-07 -4.87211e-07 0.102226)
(5.03936e-07 -5.11513e-07 0.102226)
(-4.85633e-07 4.90478e-07 0.102226)
(4.85939e-07 4.85879e-07 0.102226)
(1.35389e-05 1.05511e-07 0.101921)
(-1.29357e-05 3.78358e-06 0.100993)
(-4.66018e-07 -1.16104e-07 0.102219)
(-4.87931e-07 7.09194e-07 0.1022)
(-1.35432e-05 -1.24747e-08 0.101919)
(1.23645e-05 -3.84891e-06 0.101002)
(-5.67047e-07 -9.46185e-08 0.102219)
(1.97049e-06 -1.46461e-06 0.0841549)
(-2.11505e-06 1.3709e-06 0.0841692)
(4.35662e-08 1.35681e-05 0.101921)
(-1.83941e-07 -4.29306e-07 0.102219)
(3.65426e-06 -1.29237e-05 0.100993)
(6.63645e-07 -4.65504e-07 0.1022)
(-6.04766e-08 -1.35353e-05 0.101919)
(-1.56018e-07 -5.41861e-07 0.102219)
(-4.10627e-06 1.25351e-05 0.101002)
(-4.00515e-06 -4.89942e-06 0.0992324)
(-4.90419e-06 -3.98633e-06 0.0992319)
(4.20924e-05 4.21253e-05 0.102162)
(3.83355e-06 4.76687e-06 0.0992424)
(4.75001e-06 3.83548e-06 0.0992418)
(5.34516e-08 -8.2247e-06 0.100748)
(8.37527e-07 6.97544e-06 0.0951008)
(-1.00422e-08 8.4389e-06 0.100742)
(-9.91287e-07 -5.87884e-06 0.09511)
(-1.66328e-06 2.51466e-06 0.0841533)
(1.66488e-06 -2.20117e-06 0.0841641)
(-8.26855e-06 3.30602e-09 0.100748)
(6.91919e-06 7.77819e-07 0.0951)
(8.50747e-06 -5.32793e-08 0.100742)
(-5.8213e-06 -9.57871e-07 0.0951105)
(5.41216e-07 -5.4422e-07 0.102226)
(-5.12849e-07 5.1684e-07 0.102226)
(5.15342e-07 5.11043e-07 0.102226)
(-5.72414e-07 -5.69195e-07 0.102227)
(5.7723e-07 -5.72459e-07 0.102227)
(-5.68538e-07 5.7265e-07 0.102227)
(5.69178e-07 5.69573e-07 0.102227)
(1.34257e-05 3.38154e-09 0.101922)
(-1.33204e-05 3.97683e-06 0.100993)
(-5.95125e-07 -1.65908e-07 0.102219)
(-4.09006e-07 5.84089e-07 0.102201)
(-1.41086e-05 -4.80166e-08 0.101919)
(1.24303e-05 -3.98699e-06 0.101003)
(-5.4785e-07 -1.71858e-07 0.10222)
(2.54344e-06 -1.73172e-06 0.0841522)
(-2.08137e-06 1.58613e-06 0.0841643)
(3.99303e-08 1.34272e-05 0.101922)
(-1.40045e-07 -6.04648e-07 0.102219)
(4.1294e-06 -1.3417e-05 0.100993)
(5.9212e-07 -4.15652e-07 0.102201)
(-2.09701e-08 -1.41229e-05 0.101919)
(-1.52759e-07 -5.50661e-07 0.10222)
(-3.94562e-06 1.24324e-05 0.101002)
(-4.15989e-06 -5.03427e-06 0.0992322)
(-5.02195e-06 -4.15794e-06 0.0992317)
(4.21789e-05 4.21909e-05 0.102163)
(3.92697e-06 4.88226e-06 0.0992423)
(4.87723e-06 3.91655e-06 0.0992417)
(3.21038e-08 -8.36832e-06 0.100748)
(7.55054e-07 6.34364e-06 0.0950994)
(-4.29106e-08 8.18413e-06 0.100742)
(-1.01964e-06 -6.14865e-06 0.0951095)
(-1.64563e-06 2.25882e-06 0.0841521)
(1.60215e-06 -2.26467e-06 0.0841641)
(-8.427e-06 2.74012e-08 0.100748)
(6.30774e-06 7.19574e-07 0.0950986)
(8.24099e-06 -3.02102e-08 0.100742)
(-6.1103e-06 -9.85635e-07 0.0951099)
(5.75843e-07 -5.70963e-07 0.102227)
(-5.71107e-07 5.7536e-07 0.102227)
(5.70832e-07 5.72237e-07 0.102227)
(-5.72909e-07 -5.61044e-07 0.102227)
(5.7088e-07 -5.60406e-07 0.102227)
(-5.68517e-07 5.76529e-07 0.102227)
(5.6891e-07 5.73573e-07 0.102227)
(1.35903e-05 3.11286e-08 0.101922)
(-1.30736e-05 3.79814e-06 0.100993)
(-4.89603e-07 -1.62788e-07 0.10222)
(-3.83341e-07 5.99059e-07 0.102201)
(-1.37234e-05 -3.74247e-08 0.101919)
(1.25426e-05 -4.06358e-06 0.101003)
(-4.83469e-07 -1.60596e-07 0.10222)
(2.2392e-06 -1.6217e-06 0.0841505)
(-2.22153e-06 1.58425e-06 0.0841639)
(3.5267e-08 1.36009e-05 0.101922)
(-1.64748e-07 -4.89047e-07 0.10222)
(3.83165e-06 -1.31233e-05 0.100993)
(5.88179e-07 -3.81266e-07 0.102201)
(-4.11307e-08 -1.37364e-05 0.101919)
(-1.65047e-07 -4.77526e-07 0.10222)
(-4.10511e-06 1.25819e-05 0.101002)
(-4.13504e-06 -5.00249e-06 0.0992324)
(-4.98957e-06 -4.12982e-06 0.0992319)
(4.21923e-05 4.22109e-05 0.102163)
(3.91163e-06 4.87258e-06 0.0992424)
(4.86326e-06 3.90594e-06 0.0992418)
(4.40723e-08 -8.36585e-06 0.100748)
(8.0948e-07 6.34448e-06 0.0950993)
(-3.88838e-08 8.171e-06 0.100742)
(-8.94135e-07 -6.11214e-06 0.0951096)
(-1.77701e-06 2.38581e-06 0.0841528)
(1.58432e-06 -2.2814e-06 0.0841634)
(-8.42974e-06 3.01061e-08 0.100748)
(6.28682e-06 7.31414e-07 0.0950986)
(8.22008e-06 -2.66328e-08 0.100742)
(-6.12465e-06 -9.79977e-07 0.0951099)
(5.69483e-07 -5.57565e-07 0.102227)
(-5.68332e-07 5.76717e-07 0.102227)
(5.69648e-07 5.72745e-07 0.102227)
(-5.66018e-07 -5.57967e-07 0.102227)
(5.75684e-07 -5.62386e-07 0.102227)
(-5.65889e-07 5.77145e-07 0.102227)
(5.75373e-07 5.65742e-07 0.102227)
(1.35905e-05 3.49554e-08 0.101922)
(-1.30611e-05 3.80946e-06 0.100993)
(-4.84388e-07 -1.5357e-07 0.10222)
(-3.84443e-07 6.10203e-07 0.102201)
(-1.37129e-05 -2.8368e-08 0.101919)
(1.25473e-05 -4.05109e-06 0.101003)
(-4.82741e-07 -1.53474e-07 0.10222)
(2.22885e-06 -1.63604e-06 0.0841505)
(-2.22128e-06 1.58047e-06 0.0841639)
(3.57615e-08 1.3602e-05 0.101922)
(-1.64063e-07 -4.80099e-07 0.10222)
(3.82789e-06 -1.31076e-05 0.100993)
(5.91514e-07 -3.80071e-07 0.102201)
(-4.05595e-08 -1.3722e-05 0.101919)
(-1.64152e-07 -4.73942e-07 0.10222)
(-4.10134e-06 1.25844e-05 0.101002)
(-4.13181e-06 -5.00536e-06 0.0992324)
(-4.99662e-06 -4.12411e-06 0.0992319)
(4.21898e-05 4.22117e-05 0.102163)
(3.91309e-06 4.87223e-06 0.0992425)
(4.86134e-06 3.90799e-06 0.0992418)
(4.96148e-08 -8.37389e-06 0.100748)
(7.61791e-07 6.30451e-06 0.0950994)
(-3.59009e-08 8.16842e-06 0.100742)
(-9.8444e-07 -6.13713e-06 0.0951097)
(-1.64841e-06 2.32544e-06 0.0841528)
(1.75953e-06 -2.38045e-06 0.0841633)
(-8.42901e-06 2.74352e-08 0.100748)
(6.29987e-06 7.35649e-07 0.0950987)
(8.21897e-06 -2.69635e-08 0.100742)
(-6.14114e-06 -9.9136e-07 0.0951097)
(5.7889e-07 -5.69184e-07 0.102227)
(-5.65834e-07 5.76759e-07 0.102227)
(5.76334e-07 5.63879e-07 0.102227)
(-5.61127e-07 -5.62012e-07 0.102227)
(5.78181e-07 -5.71368e-07 0.102227)
(-5.65266e-07 5.73909e-07 0.102227)
(5.70687e-07 5.67265e-07 0.102227)
(1.35885e-05 2.51265e-08 0.101922)
(-1.30656e-05 3.78853e-06 0.100993)
(-4.83458e-07 -1.63355e-07 0.10222)
(-3.81741e-07 5.81372e-07 0.102201)
(-1.37143e-05 -3.52593e-08 0.101919)
(1.25386e-05 -4.0805e-06 0.101003)
(-4.80646e-07 -1.67273e-07 0.10222)
(2.22941e-06 -1.63613e-06 0.0841505)
(-2.22132e-06 1.57974e-06 0.0841639)
(3.58769e-08 1.36006e-05 0.101922)
(-1.64062e-07 -4.8248e-07 0.10222)
(3.829e-06 -1.31073e-05 0.100993)
(5.92435e-07 -3.80077e-07 0.102201)
(-4.02563e-08 -1.37226e-05 0.101919)
(-1.64411e-07 -4.77063e-07 0.10222)
(-4.10129e-06 1.2584e-05 0.101002)
(-4.13076e-06 -5.00677e-06 0.0992324)
(-4.99599e-06 -4.12447e-06 0.0992319)
(4.21897e-05 4.22099e-05 0.102163)
(3.91458e-06 4.86998e-06 0.0992425)
(4.86215e-06 3.90782e-06 0.0992418)
(5.0806e-08 -8.37501e-06 0.100748)
(8.25835e-07 6.33469e-06 0.0950991)
(-3.07457e-08 8.17065e-06 0.100742)
(-9.82839e-07 -6.09319e-06 0.0951099)
(-1.64694e-06 2.15242e-06 0.0841529)
(1.62381e-06 -2.41122e-06 0.0841635)
(-8.42896e-06 2.35119e-08 0.100748)
(6.32854e-06 7.37551e-07 0.095099)
(8.2199e-06 -3.04239e-08 0.100742)
(-6.15533e-06 -9.99837e-07 0.0951096)
(5.73342e-07 -5.68327e-07 0.102227)
(-5.66618e-07 5.73329e-07 0.102227)
(5.69815e-07 5.67932e-07 0.102227)
(-5.70546e-07 -5.68614e-07 0.102227)
(5.73493e-07 -5.67861e-07 0.102227)
(-5.68089e-07 5.73305e-07 0.102227)
(5.69593e-07 5.684e-07 0.102227)
(1.35893e-05 2.90806e-08 0.101922)
(-1.30645e-05 3.80144e-06 0.100993)
(-4.8454e-07 -1.63045e-07 0.10222)
(-3.85833e-07 5.94447e-07 0.102201)
(-1.37142e-05 -3.48107e-08 0.101919)
(1.25426e-05 -4.06266e-06 0.101003)
(-4.832e-07 -1.62771e-07 0.10222)
(2.22862e-06 -1.63766e-06 0.0841505)
(-2.22207e-06 1.57829e-06 0.0841639)
(3.52856e-08 1.36002e-05 0.101922)
(-1.64399e-07 -4.82485e-07 0.10222)
(3.82898e-06 -1.31079e-05 0.100993)
(5.91494e-07 -3.81107e-07 0.102201)
(-4.06265e-08 -1.37243e-05 0.101919)
(-1.65131e-07 -4.7528e-07 0.10222)
(-4.10141e-06 1.25839e-05 0.101002)
(-4.13045e-06 -5.00724e-06 0.0992324)
(-4.99553e-06 -4.1247e-06 0.0992319)
(4.2191e-05 4.221e-05 0.102163)
(3.91426e-06 4.87007e-06 0.0992425)
(4.86201e-06 3.90809e-06 0.0992418)
(3.53135e-08 -8.37643e-06 0.100748)
(7.54911e-07 6.28295e-06 0.095099)
(-4.44105e-08 8.16721e-06 0.100742)
(-1.00592e-06 -6.11211e-06 0.0951099)
(-1.70031e-06 2.31327e-06 0.084153)
(1.62898e-06 -2.33346e-06 0.0841637)
(-8.42899e-06 2.15158e-08 0.100748)
(6.33017e-06 7.361e-07 0.0950989)
(8.22012e-06 -3.23227e-08 0.100742)
(-6.14902e-06 -9.96979e-07 0.0951097)
(5.7308e-07 -5.69891e-07 0.102227)
(-5.68617e-07 5.72991e-07 0.102227)
(5.69101e-07 5.69232e-07 0.102227)
(-5.73126e-07 -5.69283e-07 0.102227)
(5.72706e-07 -5.7161e-07 0.102227)
(-5.6849e-07 5.7212e-07 0.102227)
(5.68636e-07 5.70011e-07 0.102227)
(1.35894e-05 2.78761e-08 0.101922)
(-1.30659e-05 3.79581e-06 0.100993)
(-4.82415e-07 -1.64119e-07 0.10222)
(-3.83616e-07 5.93029e-07 0.102201)
(-1.37139e-05 -3.59098e-08 0.101919)
(1.25422e-05 -4.06691e-06 0.101003)
(-4.79735e-07 -1.63597e-07 0.10222)
(2.22823e-06 -1.63851e-06 0.0841505)
(-2.22229e-06 1.57794e-06 0.0841639)
(3.51894e-08 1.36e-05 0.101922)
(-1.65086e-07 -4.81572e-07 0.10222)
(3.82849e-06 -1.3108e-05 0.100993)