/*--------------------------------*- C++ -*----------------------------------*\
| =========                 |                                                 |
| \\      /  F ield         | OpenFOAM: The Open Source CFD Toolbox           |
|  \\    /   O peration     | Version:  2206                                  |
|   \\  /    A nd           | Website:  www.openfoam.com                      |
|    \\/     M anipulation  |                                                 |
\*---------------------------------------------------------------------------*/
FoamFile
{
    version     2.0;
    format      ascii;
    arch        "LSB;label=32;scalar=64";
    class       volScalarField;
    location    "8";
    object      nut;
}
// * * * * * * * * * * * * * * * * * * * * * * * * * * * * * * * * * * * * * //

dimensions      [0 2 -1 0 0 0 0];

internalField   nonuniform List<scalar> 
28335
(
0.000232603
0.000229984
0.000229983
0.000225963
0.000232578
0.000229946
0.000229944
0.000225886
0.000232595
0.000229956
0.000229955
0.00022591
0.000232595
0.000229957
0.000229956
0.000225907
0.000232595
0.000229957
0.000229956
0.000225907
0.000232595
0.000229957
0.000229956
0.000225906
0.000232595
0.000229957
0.000229956
0.000225907
0.000232595
0.000229957
0.000229956
0.000225907
0.000232595
0.000229957
0.000229956
0.000225907
0.000232595
0.000229957
0.000229956
0.000225906
0.000232595
0.000229957
0.000229956
0.000225906
0.000232595
0.000229957
0.000229956
0.000225907
0.000232595
0.000229957
0.000229956
0.000225906
0.000232595
0.000229957
0.000229956
0.000225907
0.000232595
0.000229957
0.000229956
0.000225906
0.000232595
0.000229957
0.000229956
0.000225906
0.000232595
0.000229957
0.000229956
0.000225907
0.000226006
0.000229983
0.000229982
0.000226007
0.000229984
0.000229981
0.000229985
0.000229982
0.000226005
0.000229984
0.000229984
0.000226003
0.000225968
0.000225958
0.000229982
0.000229982
0.000229953
0.000229954
0.000225968
0.000225961
0.000229983
0.00022998
0.000229954
0.000229951
0.000229982
0.000229956
0.000229954
0.000225966
0.000225958
0.000229983
0.000229954
0.000229955
0.000225958
0.000225889
0.000225949
0.000229944
0.000229944
0.000229953
0.000229952
0.00022589
0.00022595
0.000229945
0.000229942
0.000229954
0.000229951
0.000229944
0.000229955
0.000229952
0.000225888
0.000225948
0.000229945
0.000229954
0.000229954
0.000225949
0.000225918
0.000225946
0.000229954
0.000229954
0.000229955
0.000229954
0.000225919
0.000225947
0.000229955
0.000229952
0.000229956
0.000229953
0.000229954
0.000229957
0.000229954
0.000225916
0.000225945
0.000229955
0.000229956
0.000229955
0.000225945
0.000225914
0.000225947
0.000229955
0.000229955
0.000229954
0.000229954
0.000225915
0.000225948
0.000229956
0.000229953
0.000229956
0.000229952
0.000229955
0.000229957
0.000229954
0.000225912
0.000225946
0.000229956
0.000229956
0.000229955
0.000225946
0.000225915
0.000225947
0.000229955
0.000229955
0.000229955
0.000229954
0.000225916
0.000225948
0.000229956
0.000229953
0.000229956
0.000229952
0.000229955
0.000229957
0.000229954
0.000225913
0.000225946
0.000229956
0.000229956
0.000229955
0.000225946
0.000225915
0.000225947
0.000229955
0.000229955
0.000229955
0.000229954
0.000225916
0.000225948
0.000229956
0.000229953
0.000229956
0.000229952
0.000229955
0.000229957
0.000229954
0.000225913
0.000225946
0.000229956
0.000229956
0.000229955
0.000225946
0.000225915
0.000225947
0.000229955
0.000229955
0.000229955
0.000229954
0.000225916
0.000225948
0.000229956
0.000229953
0.000229956
0.000229952
0.000229955
0.000229957
0.000229954
0.000225913
0.000225946
0.000229956
0.000229956
0.000229955
0.000225946
0.000225915
0.000225947
0.000229955
0.000229954
0.000229955
0.000229954
0.000225916
0.000225948
0.000229956
0.000229953
0.000229956
0.000229952
0.000229955
0.000229957
0.000229954
0.000225913
0.000225946
0.000229956
0.000229956
0.000229955
0.000225946
0.000225915
0.000225947
0.000229955
0.000229955
0.000229955
0.000229954
0.000225916
0.000225948
0.000229956
0.000229953
0.000229956
0.000229952
0.000229955
0.000229957
0.000229954
0.000225913
0.000225946
0.000229956
0.000229956
0.000229955
0.000225946
0.000225915
0.000225947
0.000229955
0.000229955
0.000229955
0.000229954
0.000225916
0.000225948
0.000229956
0.000229953
0.000229956
0.000229952
0.000229955
0.000229957
0.000229954
0.000225913
0.000225946
0.000229956
0.000229956
0.000229955
0.000225946
0.000225915
0.000225947
0.000229955
0.000229955
0.000229955
0.000229954
0.000225916
0.000225948
0.000229956
0.000229953
0.000229956
0.000229952
0.000229955
0.000229957
0.000229954
0.000225913
0.000225946
0.000229956
0.000229956
0.000229955
0.000225946
0.000225915
0.000225947
0.000229955
0.000229955
0.000229955
0.000229954
0.000225916
0.000225948
0.000229956
0.000229953
0.000229956
0.000229952
0.000229955
0.000229957
0.000229954
0.000225913
0.000225946
0.000229956
0.000229956
0.000229955
0.000225946
0.000225915
0.000225947
0.000229955
0.000229955
0.000229955
0.000229954
0.000225916
0.000225948
0.000229956
0.000229953
0.000229956
0.000229952
0.000229955
0.000229957
0.000229954
0.000225913
0.000225946
0.000229956
0.000229956
0.000229955
0.000225946
0.000225915
0.000225947
0.000229955
0.000229955
0.000229955
0.000229954
0.000225916
0.000225948
0.000229956
0.000229953
0.000229956
0.000229952
0.000229955
0.000229957
0.000229954
0.000225913
0.000225946
0.000229956
0.000229956
0.000229955
0.000225946
0.000225915
0.000225947
0.000229955
0.000229955
0.000229955
0.000229954
0.000225916
0.000225948
0.000229956
0.000229953
0.000229956
0.000229952
0.000229955
0.000229957
0.000229954
0.000225913
0.000225946
0.000229956
0.000229956
0.000229955
0.000225946
0.000225915
0.000225947
0.000229955
0.000229955
0.000229955
0.000229954
0.000225916
0.000225948
0.000229956
0.000229953
0.000229956
0.000229952
0.000229955
0.000229957
0.000229954
0.000225913
0.000225946
0.000229956
0.000229956
0.000229955
0.000225946
0.000225915
0.000229955
0.000229955
0.000225916
0.000229956
0.000229953
0.000229954
0.000225913
0.000229956
8.47983e-05
4.4155e-05
2.5108e-05
8.4807e-05
4.41513e-05
0.000232604
0.000232604
0.000232604
0.000232603
0.000180519
0.000229986
9.95985e-05
0.000232061
2.51061e-05
0.000180521
0.000229985
0.000232061
9.96014e-05
0.00022601
5.39277e-05
5.39169e-05
8.48013e-05
4.41556e-05
8.47891e-05
4.41549e-05
2.51072e-05
2.51066e-05
8.48109e-05
4.41519e-05
8.48004e-05
4.41512e-05
0.000232603
0.000232603
0.000232603
0.000232578
0.000232579
0.000232578
0.000232578
0.000180519
9.95817e-05
0.00023206
0.000229982
0.0001805
9.96044e-05
0.000232059
2.51052e-05
2.51046e-05
0.00018052
0.00023206
9.95867e-05
0.000229981
0.0001805
0.000232058
9.96084e-05
5.39337e-05
5.3923e-05
0.000226003
5.39412e-05
5.39303e-05
8.46559e-05
4.41694e-05
8.46959e-05
4.41726e-05
2.51168e-05
2.51187e-05
8.46649e-05
4.41658e-05
8.47033e-05
4.4169e-05
0.000232579
0.000232578
0.000232578
0.000232593
0.000232594
0.000232593
0.000232593
0.000180338
9.94895e-05
0.000232031
0.000229947
0.00018037
9.94571e-05
0.000232036
2.51151e-05
2.51168e-05
0.000180337
0.000232031
9.94934e-05
0.000229946
0.000180368
0.000232036
9.94611e-05
5.38612e-05
5.38503e-05
0.000225934
5.38293e-05
5.38184e-05
8.46532e-05
4.41731e-05
8.46385e-05
4.41723e-05
2.51187e-05
2.51184e-05
8.46636e-05
4.41695e-05
8.46504e-05
4.41686e-05
0.000232595
0.000232595
0.000232595
0.000232595
0.000232595
0.000232595
0.000232595
0.000180335
9.94236e-05
0.000232047
0.000229957
0.000180308
9.94491e-05
0.000232048
2.5117e-05
2.51165e-05
0.000180336
0.000232047
9.94299e-05
0.000229956
0.000180307
0.000232047
9.94537e-05
5.38236e-05
5.38129e-05
0.000225946
5.38294e-05
5.38186e-05
8.46533e-05
4.4173e-05
8.46388e-05
4.41723e-05
2.51187e-05
2.51184e-05
8.46638e-05
4.41694e-05
8.4651e-05
4.41686e-05
0.000232595
0.000232595
0.000232595
0.000232595
0.000232595
0.000232595
0.000232595
0.000180334
9.94236e-05
0.000232048
0.000229957
0.000180308
9.9449e-05
0.000232048
2.51169e-05
2.51165e-05
0.000180335
0.000232047
9.94298e-05
0.000229956
0.000180307
0.000232048
9.94536e-05
5.3824e-05
5.38133e-05
0.000225947
5.38294e-05
5.38187e-05
8.46533e-05
4.4173e-05
8.46388e-05
4.41723e-05
2.51187e-05
2.51184e-05
8.46638e-05
4.41694e-05
8.4651e-05
4.41686e-05
0.000232595
0.000232595
0.000232595
0.000232595
0.000232595
0.000232595
0.000232595
0.000180334
9.94236e-05
0.000232048
0.000229957
0.000180309
9.9449e-05
0.000232048
2.51169e-05
2.51165e-05
0.000180334
0.000232048
9.94298e-05
0.000229956
0.000180308
0.000232048
9.94536e-05
5.3824e-05
5.38133e-05
0.000225947
5.38294e-05
5.38186e-05
8.46533e-05
4.4173e-05
8.46388e-05
4.41723e-05
2.51187e-05
2.51184e-05
8.46638e-05
4.41695e-05
8.4651e-05
4.41687e-05
0.000232595
0.000232595
0.000232595
0.000232595
0.000232595
0.000232595
0.000232595
0.000180334
9.94236e-05
0.000232048
0.000229957
0.000180309
9.9449e-05
0.000232048
2.51169e-05
2.51165e-05
0.000180334
0.000232048
9.94298e-05
0.000229956
0.000180308
0.000232048
9.94536e-05
5.3824e-05
5.38133e-05
0.000225947
5.38294e-05
5.38186e-05
8.46533e-05
4.4173e-05
8.46388e-05
4.41723e-05
2.51189e-05
2.51186e-05
8.46638e-05
4.41693e-05
8.4651e-05
4.41686e-05
0.000232595
0.000232595
0.000232595
0.000232595
0.000232595
0.000232595
0.000232595
0.000180333
9.94236e-05
0.000232048
0.000229957
0.000180309
9.9449e-05
0.000232048
2.51169e-05
2.51165e-05
0.000180335
0.000232048
9.94298e-05
0.000229956
0.000180308
0.000232048
9.94536e-05
5.3824e-05
5.38133e-05
0.000225947
5.38295e-05
5.38186e-05
8.46533e-05
4.4173e-05
8.46388e-05
4.41723e-05
2.51189e-05
2.51186e-05
8.46638e-05
4.41693e-05
8.4651e-05
4.41686e-05
0.000232595
0.000232595
0.000232595
0.000232595
0.000232595
0.000232595
0.000232595
0.000180333
9.94236e-05
0.000232048
0.000229957
0.000180309
9.9449e-05
0.000232048
2.51169e-05
2.51165e-05
0.000180334
0.000232048
9.94298e-05
0.000229956
0.000180308
0.000232047
9.94536e-05
5.3824e-05
5.38133e-05
0.000225947
5.38295e-05
5.38187e-05
8.46533e-05
4.4173e-05
8.46388e-05
4.41723e-05
2.51189e-05
2.51186e-05
8.46638e-05
4.41693e-05
8.4651e-05
4.41686e-05
0.000232595
0.000232595
0.000232595
0.000232595
0.000232595
0.000232595
0.000232595
0.000180333
9.94236e-05
0.000232048
0.000229957
0.000180309
9.9449e-05
0.000232048
2.51169e-05
2.51165e-05
0.000180334
0.000232048
9.94298e-05
0.000229956
0.000180308
0.000232048
9.94536e-05
5.3824e-05
5.38133e-05
0.000225947
5.38294e-05
5.38186e-05
8.46533e-05
4.4173e-05
8.46388e-05
4.41723e-05
2.51188e-05
2.51186e-05
8.46638e-05
4.41693e-05
8.4651e-05
4.41686e-05
0.000232595
0.000232595
0.000232595
0.000232595
0.000232595
0.000232595
0.000232595
0.000180333
9.94236e-05
0.000232048
0.000229957
0.000180309
9.9449e-05
0.000232047
2.51169e-05
2.51165e-05
0.000180334
0.000232047
9.94298e-05
0.000229956
0.000180308
0.000232047
9.94536e-05
5.3824e-05
5.38133e-05
0.000225947
5.38294e-05
5.38187e-05
8.46533e-05
4.4173e-05
8.46388e-05
4.41723e-05
2.51188e-05
2.51186e-05
8.46638e-05
4.41693e-05
8.4651e-05
4.41686e-05
0.000232596
0.000232595
0.000232595
0.000232595
0.000232595
0.000232595
0.000232595
0.000180333
9.94236e-05
0.000232048
0.000229957
0.000180309
9.9449e-05
0.000232048
2.51169e-05
2.51165e-05
0.000180334
0.000232048
9.94298e-05
0.000229956
0.000180307
0.000232048
9.94536e-05
5.3824e-05
5.38133e-05
0.000225947
5.38295e-05
5.38187e-05
8.46533e-05
4.4173e-05
8.46388e-05
4.41723e-05
2.51188e-05
2.51186e-05
8.46638e-05
4.41693e-05
8.4651e-05
4.41686e-05
0.000232595
0.000232595
0.000232595
0.000232595
0.000232595
0.000232595
0.000232595
0.000180334
9.94236e-05
0.000232048
0.000229957
0.000180309
9.9449e-05
0.000232048
2.51169e-05
2.51165e-05
0.000180332
0.000232048
9.94298e-05
0.000229956
0.000180307
0.000232048
9.94536e-05
5.3824e-05
5.38133e-05
0.000225947
5.38294e-05
5.38187e-05
8.46533e-05
4.4173e-05
8.46388e-05
4.41723e-05
2.51188e-05
2.51186e-05
8.46638e-05
4.41693e-05
8.4651e-05
4.41686e-05
0.000232595
0.000232595
0.000232595
0.000232595
0.000232595
0.000232595
0.000232595
0.000180333
9.94236e-05
0.000232048
0.000229957
0.000180309
9.9449e-05
0.000232048
2.51169e-05
2.51165e-05
0.000180329
0.000232047
9.94298e-05
0.000229956
0.000180303
0.000232047
9.94536e-05
5.3824e-05
5.38133e-05
0.000225946
5.38294e-05
5.38186e-05
8.46533e-05
4.4173e-05
8.46388e-05
4.41723e-05
2.51188e-05
2.51186e-05
8.46638e-05
4.41693e-05
8.4651e-05
4.41686e-05
0.000232596
0.000232595
0.000232595
0.000232595
0.000232595
0.000232595
0.000232595
0.000180333
9.94236e-05
0.000232048
0.000229957
0.000180309
9.9449e-05
0.000232048
2.51169e-05
2.51165e-05
0.000180328
0.000232047
9.94298e-05
0.000229956
0.000180301
0.000232048
9.94536e-05
5.3824e-05
5.38133e-05
0.000225947
5.38294e-05
5.38186e-05
8.46533e-05
4.4173e-05
8.46388e-05
4.41723e-05
2.51188e-05
2.51186e-05
8.46638e-05
4.41693e-05
8.4651e-05
4.41686e-05
0.000232596
0.000232595
0.000232595
0.000232595
0.000232595
0.000232595
0.000232595
0.000180333
9.94236e-05
0.000232048
0.000229957
0.000180309
9.9449e-05
0.000232048
2.51169e-05
2.51165e-05
0.000180328
0.000232048
9.94298e-05
0.000229956
0.000180302
0.000232048
9.94536e-05
5.3824e-05
5.38133e-05
0.000225946
5.38294e-05
5.38187e-05
8.46532e-05
4.4173e-05
8.46387e-05
4.41723e-05
2.51188e-05
2.51185e-05
8.46637e-05
4.41693e-05
8.46509e-05
4.41686e-05
0.000232596
0.000232595
0.000232595
0.000232595
0.000232595
0.000232595
0.000232595
0.000180334
9.94236e-05
0.000232048
0.000229957
0.000180309
9.9449e-05
0.000232048
2.51169e-05
2.51165e-05
0.000180328
0.000232048
9.94298e-05
0.000229956
0.000180302
0.000232048
9.94536e-05
5.38239e-05
5.38132e-05
0.000225946
5.38294e-05
5.38186e-05
8.46533e-05
4.4173e-05
8.46387e-05
4.41723e-05
2.51188e-05
2.51185e-05
8.46638e-05
4.41693e-05
8.46509e-05
4.41686e-05
0.000232595
0.000232595
0.000232595
0.00018034
9.94236e-05
0.000232048
0.000229957
0.000180309
9.9449e-05
0.000232048
2.51169e-05
2.51164e-05
0.000180334
0.000232047
9.94298e-05
0.000229957
0.000180302
0.000232048
9.94447e-05
5.38238e-05
5.38132e-05
0.000225952
5.38276e-05
5.3817e-05
2.51089e-05
2.51074e-05
0.000226014
5.39315e-05
5.39193e-05
2.5108e-05
2.51087e-05
2.51065e-05
2.51073e-05
0.000225975
5.39395e-05
5.39274e-05
5.39323e-05
5.392e-05
8.48028e-05
4.41541e-05
0.000180524
0.000229984
9.96078e-05
0.000232061
0.000180524
0.000229983
9.96025e-05
0.000232061
8.47907e-05
4.41551e-05
4.41551e-05
8.48022e-05
8.47949e-05
4.41539e-05
4.41541e-05
8.48057e-05
0.000180508
0.000229983
9.96134e-05
0.000232061
9.95921e-05
0.000232061
0.000180526
0.000180505
0.000229983
9.96083e-05
0.000232061
9.95863e-05
0.000232061
0.000180525
0.000226016
5.39199e-05
5.39183e-05
2.51085e-05
2.51073e-05
2.51079e-05
0.000225974
5.39268e-05
5.39281e-05
5.39204e-05
5.39187e-05
2.51073e-05
2.51084e-05
0.000180527
0.000229985
9.95961e-05
0.000232061
8.48079e-05
4.41493e-05
0.000180523
0.000229982
0.000232061
9.95841e-05
8.48014e-05
4.41514e-05
4.41514e-05
8.48114e-05
0.000180511
0.000229984
9.96e-05
0.000232061
9.958e-05
0.000232061
0.000180528
8.48021e-05
4.41491e-05
4.41494e-05
8.48118e-05
0.000180505
0.000229981
0.000232061
9.95891e-05
0.000232061
9.95664e-05
0.000180524
8.48018e-05
4.41533e-05
0.000180523
0.000229983
0.000232061
9.96049e-05
8.48015e-05
4.41516e-05
0.000180502
0.000229985
9.96051e-05
0.000232061
9.95813e-05
0.000232061
0.000180523
8.4794e-05
4.4153e-05
4.41533e-05
8.48051e-05
0.000180508
0.000229983
0.000232061
9.96104e-05
0.000232061
9.95886e-05
0.000180526
8.47937e-05
4.41514e-05
4.41516e-05
8.48047e-05
0.000226013
5.39043e-05
5.39295e-05
2.5108e-05
2.51051e-05
2.51061e-05
0.000225971
5.3913e-05
5.39374e-05
5.39045e-05
5.39299e-05
2.51071e-05
2.51079e-05
0.000180525
0.000229984
0.000232061
9.95971e-05
8.48088e-05
4.41514e-05
8.48087e-05
4.4151e-05
0.000180502
0.000229984
0.000232061
9.96084e-05
0.000232061
9.95858e-05
0.000180525
0.000180508
0.000229984
0.000232061
9.96024e-05
0.000232061
9.95805e-05
0.000180528
8.48028e-05
4.41512e-05
4.41514e-05
8.48131e-05
8.48027e-05
4.41508e-05
4.4151e-05
8.48127e-05
2.51079e-05
2.51071e-05
0.000225972
5.39356e-05
5.39248e-05
5.39279e-05
5.39173e-05
2.51069e-05
2.51077e-05
2.51061e-05
2.5107e-05
2.51078e-05
2.51074e-05
2.51063e-05
2.5106e-05
5.39415e-05
5.39294e-05
0.000226
5.39447e-05
5.39327e-05
2.51142e-05
2.51075e-05
2.51129e-05
2.51061e-05
0.000225959
5.38996e-05
5.38868e-05
5.39412e-05
5.39288e-05
8.48045e-05
4.41539e-05
8.47992e-05
4.4154e-05
0.000180518
9.95983e-05
0.00023206
0.000229981
0.000180503
9.96118e-05
0.000232059
0.000180522
9.9593e-05
0.000232061
0.00022998
0.000180508
9.96066e-05
0.000232059
8.47869e-05
4.41631e-05
4.4155e-05
8.47422e-05
8.47897e-05
4.41623e-05
4.41541e-05
8.4744e-05
0.000180489
0.000229974
9.95462e-05
0.000232034
9.95878e-05
0.000232052
0.000180435
0.000180492
0.000229974
9.95407e-05
0.000232034
9.95819e-05
0.000232053
0.000180435
5.39288e-05
5.39261e-05
0.000226001
5.39324e-05
5.39331e-05
2.51073e-05
2.5107e-05
2.51134e-05
2.51067e-05
0.00022596
5.38872e-05
5.38896e-05
5.3928e-05
5.39234e-05
2.5114e-05
2.51072e-05
0.00018052
9.9585e-05
0.00023206
0.000229982
0.000180506
9.9598e-05
0.000232059
8.48111e-05
4.41491e-05
8.48074e-05
4.41493e-05
0.000180522
0.00023206
9.95723e-05
0.000229979
0.000180508
0.000232058
9.9587e-05
8.47987e-05
4.41593e-05
4.41513e-05
8.47487e-05
0.000180492
0.000229976
9.95319e-05
0.000232034
9.95741e-05
0.000232053
0.000180435
8.47987e-05
4.41572e-05
4.41494e-05
8.47482e-05
0.000180493
0.000229972
0.000232034
9.95231e-05
0.000232052
9.95612e-05
0.000180434
8.48038e-05
4.4153e-05
8.47987e-05
4.41532e-05
0.000180519
0.000232061
9.95953e-05
0.00022998
0.000180504
0.000232059
9.96087e-05
8.48034e-05
4.41515e-05
8.47981e-05
4.41515e-05
0.000180492
0.000229976
9.95401e-05
0.000232034
9.95786e-05
0.000232052
0.000180439
8.47891e-05
4.41615e-05
4.41533e-05
8.47437e-05
0.000180491
0.000229974
0.000232034
9.95423e-05
0.000232053
9.9584e-05
0.000180436
8.47886e-05
4.41599e-05
4.41516e-05
8.47429e-05
5.39113e-05
5.39394e-05
0.000225999
5.39177e-05
5.39431e-05
2.51069e-05
2.51065e-05
2.51114e-05
2.51049e-05
0.000225957
5.38754e-05
5.38975e-05
5.3909e-05
5.39392e-05
2.51133e-05
2.51066e-05
0.00018052
0.00023206
9.95871e-05
0.000229981
0.000180504
0.000232059
9.96008e-05
8.48122e-05
4.41513e-05
8.48084e-05
4.41513e-05
8.4812e-05
4.41508e-05
8.48078e-05
4.41509e-05
0.000180491
0.000229975
0.000232034
9.95422e-05
0.000232052
9.95841e-05
0.000180439
0.000180492
0.000229975
0.000232034
9.95346e-05
0.000232053
9.95758e-05
0.000180438
8.47996e-05
4.41595e-05
4.41513e-05
8.47498e-05
8.47994e-05
4.41592e-05
4.41509e-05
8.47502e-05
2.51067e-05
2.51064e-05
2.5106e-05
2.51057e-05
0.000225961
5.3895e-05
5.3884e-05
5.39369e-05
5.39262e-05
2.51133e-05
2.51065e-05
2.51126e-05
2.51057e-05
2.51175e-05
2.51197e-05
2.51161e-05
2.51183e-05
5.38664e-05
5.38537e-05
0.000225933
5.38306e-05
5.38183e-05
2.51195e-05
2.51197e-05
2.51181e-05
2.51183e-05
0.000225905
5.38301e-05
5.3818e-05
5.38284e-05
5.38161e-05
8.4656e-05
4.41684e-05
8.47005e-05
4.41722e-05
0.000180336
9.95021e-05
0.000232031
0.000229945
0.000180373
9.94632e-05
0.000232036
0.000180337
9.94958e-05
0.000232031
0.000229945
0.000180373
9.94569e-05
0.000232036
8.46453e-05
4.41727e-05
4.41726e-05
8.46526e-05
8.46457e-05
4.4172e-05
4.41723e-05
8.4653e-05
0.000180315
0.000229949
9.94555e-05
0.000232046
9.94427e-05
0.000232042
0.000180332
0.000180315
0.000229949
9.94495e-05
0.000232046
9.94358e-05
0.000232042
0.000180333
5.38547e-05
5.38579e-05
0.000225934
5.38189e-05
5.38192e-05
2.51176e-05
2.51194e-05
2.51185e-05
2.51186e-05
0.000225905
5.38182e-05
5.38155e-05
5.38164e-05
5.38124e-05
2.51192e-05
2.51194e-05
0.000180337
9.94881e-05
0.000232031
0.000229946
0.000180374
9.94487e-05
0.000232036
8.46621e-05
4.41636e-05
8.47041e-05
4.41675e-05
0.000180335
0.000232031
9.94759e-05
0.000229943
0.000180371
0.000232036
9.94372e-05
8.46568e-05
4.4169e-05
4.4169e-05
8.46625e-05
0.000180316
0.000229951
9.9441e-05
0.000232046
9.94282e-05
0.000232042
0.000180334
8.46542e-05
4.41672e-05
4.41675e-05
8.46597e-05
0.000180315
0.000229947
0.000232045
9.94291e-05
0.000232041
9.94143e-05
0.000180333
8.46552e-05
4.41678e-05
8.47e-05
4.41714e-05
0.000180336
0.000232031
9.94977e-05
0.000229945
0.000180375
0.000232036
9.94593e-05
8.46546e-05
4.4166e-05
8.46992e-05
4.41698e-05
0.000180316
0.000229952
9.94489e-05
0.000232046
9.94343e-05
0.000232042
0.000180331
8.46449e-05
4.41712e-05
4.41714e-05
8.46522e-05
0.000180315
0.000229949
0.000232046
9.94521e-05
0.000232042
9.94383e-05
0.000180332
8.46443e-05
4.41696e-05
4.41698e-05
8.46516e-05
5.38427e-05
5.38643e-05
0.000225931
5.38042e-05
5.38289e-05
2.51166e-05
2.51189e-05
2.51167e-05
2.51168e-05
0.000225902
5.38022e-05
5.38284e-05
5.37982e-05
5.38265e-05
2.51186e-05
2.51188e-05
0.000180336
0.000232031
9.94898e-05
0.000229946
0.000180374
0.000232036
9.94515e-05
8.46632e-05
4.41657e-05
8.47054e-05
4.41695e-05
8.46629e-05
4.41654e-05
8.47057e-05
4.41691e-05
0.000180314
0.000229951
0.000232046
9.94538e-05
0.000232042
9.94404e-05
0.00018033
0.000180314
0.00022995
0.000232046
9.94441e-05
0.000232042
9.94301e-05
0.000180332
8.46549e-05
4.41693e-05
4.41695e-05
8.46607e-05
8.46544e-05
4.41689e-05
4.41692e-05
8.46602e-05
2.51166e-05
2.51187e-05
2.51158e-05
2.51179e-05
0.000225905
5.3829e-05
5.38182e-05
5.38268e-05
5.38161e-05
2.51184e-05
2.51186e-05
2.51177e-05
2.51179e-05
2.51195e-05
2.51195e-05
2.5118e-05
2.5118e-05
5.38295e-05
5.38173e-05
0.000225948
5.38307e-05
5.38186e-05
2.51194e-05
2.51194e-05
2.5118e-05
2.51179e-05
0.000225914
5.38307e-05
5.38187e-05
5.38298e-05
5.38176e-05
8.46536e-05
4.41721e-05
8.46454e-05
4.41719e-05
0.000180336
9.94387e-05
0.000232047
0.000229954
0.000180315
9.94553e-05
0.000232047
0.000180336
9.94326e-05
0.000232047
0.000229954
0.000180315
9.94496e-05
0.000232047
8.46456e-05
4.41725e-05
4.41723e-05
8.46531e-05
8.46459e-05
4.41719e-05
4.41718e-05
8.46532e-05
0.000180317
0.000229955
9.94553e-05
0.000232047
9.94391e-05
0.000232048
0.000180333
0.000180317
0.000229955
9.94494e-05
0.000232047
9.94327e-05
0.000232048
0.000180333
5.38171e-05
5.38112e-05
0.000225949
5.38188e-05
5.38173e-05
2.51192e-05
2.51192e-05
2.51186e-05
2.51185e-05
0.000225915
5.38188e-05
5.38164e-05
5.38175e-05
5.38122e-05
2.51192e-05
2.51191e-05
0.000180339
9.94244e-05
0.000232047
0.000229956
0.000180317
9.9441e-05
0.000232047
8.46604e-05
4.41672e-05
8.4654e-05
4.41671e-05
0.000180336
0.000232047
9.94108e-05
0.000229952
0.000180315
0.000232047
9.94292e-05
8.46577e-05
4.41688e-05
4.41686e-05
8.46633e-05
0.000180321
0.000229956
9.94409e-05
0.000232048
9.9425e-05
0.000232048
0.000180336
8.46547e-05
4.41671e-05
4.41672e-05
8.46602e-05
0.000180317
0.000229953
0.000232047
9.9429e-05
0.000232048
9.94111e-05
0.000180333
8.46525e-05
4.41713e-05
8.46446e-05
4.4171e-05
0.000180335
0.000232047
9.94353e-05
0.000229954
0.000180314
0.000232047
9.94522e-05
8.46521e-05
4.41696e-05
8.46439e-05
4.41694e-05
0.000180317
0.000229957
9.94488e-05
0.000232047
9.94309e-05
0.000232047
0.000180331
8.46449e-05
4.41711e-05
4.4171e-05
8.46521e-05
0.000180317
0.000229955
0.000232047
9.9452e-05
0.000232048
9.94353e-05
0.000180333
8.46444e-05
4.41694e-05
4.41694e-05
8.46517e-05
5.37982e-05
5.38275e-05
0.000225947
5.38029e-05
5.38287e-05
2.51186e-05
2.51186e-05
2.51166e-05
2.51164e-05
0.000225912
5.3803e-05
5.3829e-05
5.37991e-05
5.38276e-05
2.51186e-05
2.51185e-05
0.000180337
0.000232047
9.9427e-05
0.000229955
0.000180313
0.000232047
9.94441e-05
8.46613e-05
4.41694e-05
8.46547e-05
4.41692e-05
8.46609e-05
4.4169e-05
8.46542e-05
4.41688e-05
0.000180317
0.000229956
0.000232047
9.94535e-05
0.000232047
9.9437e-05
0.000180332
0.000180317
0.000229956
0.000232047
9.9444e-05
0.000232048
9.9427e-05
0.000180333
8.46553e-05
4.41692e-05
4.41693e-05
8.46611e-05
8.46549e-05
4.41688e-05
4.41688e-05
8.46607e-05
2.51185e-05
2.51185e-05
2.51177e-05
2.51177e-05
0.000225912
5.38295e-05
5.38188e-05
5.38281e-05
5.38175e-05
2.51184e-05
2.51183e-05
2.51177e-05
2.51176e-05
2.51194e-05
2.51195e-05
2.5118e-05
2.5118e-05
5.38297e-05
5.38176e-05
0.000225947
5.38304e-05
5.38185e-05
2.51194e-05
2.51193e-05
2.5118e-05
2.51179e-05
0.000225914
5.38307e-05
5.38186e-05
5.38295e-05
5.38175e-05
8.46535e-05
4.4172e-05
8.46455e-05
4.41719e-05
0.000180336
9.94387e-05
0.000232048
0.000229955
0.000180315
9.94553e-05
0.000232047
0.000180335
9.94326e-05
0.000232048
0.000229955
0.000180314
9.94496e-05
0.000232047
8.46456e-05
4.41725e-05
4.41723e-05
8.4653e-05
8.46459e-05
4.41719e-05
4.41719e-05
8.46532e-05
0.000180317
0.000229955
9.94553e-05
0.000232047
9.94391e-05
0.000232048
0.000180333
0.000180316
0.000229955
9.94494e-05
0.000232047
9.94327e-05
0.000232048
0.000180334
5.38176e-05
5.38114e-05
0.000225948
5.38189e-05
5.38165e-05
2.51192e-05
2.51192e-05
2.51186e-05
2.51185e-05
0.000225915
5.38188e-05
5.38166e-05
5.38176e-05
5.3812e-05
2.51192e-05
2.51191e-05
0.000180338
9.94244e-05
0.000232048
0.000229956
0.000180318
9.9441e-05
0.000232048
8.46606e-05
4.41671e-05
8.46544e-05
4.41671e-05
0.000180335
0.000232047
9.94108e-05
0.000229953
0.000180315
0.000232047
9.94292e-05
8.46578e-05
4.41688e-05
4.41686e-05
8.46633e-05
0.00018032
0.000229956
9.94409e-05
0.000232048
9.94249e-05
0.000232048
0.000180337
8.46548e-05
4.41671e-05
4.41672e-05
8.46602e-05
0.000180317
0.000229953
0.000232047
9.9429e-05
0.000232047
9.94111e-05
0.000180334
8.46523e-05
4.41711e-05
8.46444e-05
4.41711e-05
0.000180334
0.000232048
9.94353e-05
0.000229955
0.000180314
0.000232048
9.94521e-05
8.4652e-05
4.41695e-05
8.46439e-05
4.41694e-05
0.000180316
0.000229957
9.94488e-05
0.000232048
9.94309e-05
0.000232048
0.000180332
8.46448e-05
4.4171e-05
4.41712e-05
8.46522e-05
0.000180316
0.000229955
0.000232047
9.9452e-05
0.000232048
9.94353e-05
0.000180334
8.46444e-05
4.41694e-05
4.41695e-05
8.46518e-05
5.37983e-05
5.38279e-05
0.000225946
5.38027e-05
5.38288e-05
2.51186e-05
2.51186e-05
2.51166e-05
2.51164e-05
0.000225912
5.3803e-05
5.3829e-05
5.37992e-05
5.38277e-05
2.51186e-05
2.51185e-05
0.000180335
0.000232047
9.94271e-05
0.000229956
0.000180313
0.000232047
9.94442e-05
8.46613e-05
4.41693e-05
8.4655e-05
4.41692e-05
8.4661e-05
4.41687e-05
8.46545e-05
4.41688e-05
0.000180316
0.000229956
0.000232048
9.94535e-05
0.000232048
9.9437e-05
0.000180333
0.000180316
0.000229956
0.000232047
9.9444e-05
0.000232047
9.9427e-05
0.000180334
8.46552e-05
4.41692e-05
4.41692e-05
8.4661e-05
8.46549e-05
4.41688e-05
4.41688e-05
8.46607e-05
2.51184e-05
2.51185e-05
2.51177e-05
2.51177e-05
0.000225913
5.38296e-05
5.38187e-05
5.38282e-05
5.38175e-05
2.51184e-05
2.51183e-05
2.51176e-05
2.51176e-05
2.51194e-05
2.51195e-05
2.5118e-05
2.5118e-05
5.38298e-05
5.38175e-05
0.000225947
5.38307e-05
5.38184e-05
2.51194e-05
2.51194e-05
2.5118e-05
2.51179e-05
0.000225913
5.38308e-05
5.38185e-05
5.38298e-05
5.38173e-05
8.46535e-05
4.41719e-05
8.46455e-05
4.41719e-05
0.000180336
9.94387e-05
0.000232048
0.000229955
0.000180315
9.94554e-05
0.000232047
0.000180335
9.94327e-05
0.000232048
0.000229954
0.000180315
9.94496e-05
0.000232048
8.46456e-05
4.41725e-05
4.41723e-05
8.4653e-05
8.46459e-05
4.41719e-05
4.41719e-05
8.46532e-05
0.000180317
0.000229955
9.94554e-05
0.000232047
9.94392e-05
0.000232048
0.000180333
0.000180316
0.000229955
9.94494e-05
0.000232047
9.94328e-05
0.000232048
0.000180334
5.38176e-05
5.38115e-05
0.000225948
5.38189e-05
5.38165e-05
2.51192e-05
2.51192e-05
2.51186e-05
2.51185e-05
0.000225914
5.38189e-05
5.38166e-05
5.38176e-05
5.3812e-05
2.51192e-05
2.51191e-05
0.000180338
9.94245e-05
0.000232048
0.000229956
0.000180318
9.9441e-05
0.000232048
8.46606e-05
4.41671e-05
8.46545e-05
4.41671e-05
0.000180335
0.000232047
9.94108e-05
0.000229953
0.000180315
0.000232047
9.94292e-05
8.46578e-05
4.41689e-05
4.41686e-05
8.46633e-05
0.00018032
0.000229956
9.94413e-05
0.000232048
9.9425e-05
0.000232048
0.000180337
8.46548e-05
4.41671e-05
4.41672e-05
8.46602e-05
0.000180316
0.000229953
0.000232047
9.9429e-05
0.000232047
9.94111e-05
0.000180334
8.46524e-05
4.4171e-05
8.46444e-05
4.41711e-05
0.000180334
0.000232048
9.94354e-05
0.000229955
0.000180315
0.000232048
9.94521e-05
8.46521e-05
4.41694e-05
8.4644e-05
4.41694e-05
0.000180316
0.000229957
9.94488e-05
0.000232048
9.94309e-05
0.000232048
0.000180332
8.46448e-05
4.41711e-05
4.41711e-05
8.46522e-05
0.000180315
0.000229955
0.000232047
9.9452e-05
0.000232048
9.94353e-05
0.000180334
8.46444e-05
4.41694e-05
4.41694e-05
8.46518e-05
5.37982e-05
5.38279e-05
0.000225945
5.38027e-05
5.38288e-05
2.51186e-05
2.51186e-05
2.51166e-05
2.51164e-05
0.000225912
5.3803e-05
5.3829e-05
5.37992e-05
5.38277e-05
2.51186e-05
2.51185e-05
0.000180335
0.000232047
9.94271e-05
0.000229956
0.000180314
0.000232047
9.94441e-05
8.46612e-05
4.41691e-05
8.46549e-05
4.41692e-05
8.4661e-05
4.41688e-05
8.46546e-05
4.41688e-05
0.000180315
0.000229956
0.000232048
9.94535e-05
0.000232048
9.9437e-05
0.000180333
0.000180315
0.000229956
0.000232047
9.9444e-05
0.000232047
9.9427e-05
0.000180334
8.46552e-05
4.41692e-05
4.41692e-05
8.4661e-05
8.46549e-05
4.41688e-05
4.41688e-05
8.46607e-05
2.51184e-05
2.51185e-05
2.51176e-05
2.51177e-05
0.000225913
5.38295e-05
5.38187e-05
5.38282e-05
5.38175e-05
2.51184e-05
2.51183e-05
2.51177e-05
2.51176e-05
2.51194e-05
2.51195e-05
2.5118e-05
2.5118e-05
5.38298e-05
5.38175e-05
0.000225947
5.38305e-05
5.38185e-05
2.51194e-05
2.51193e-05
2.5118e-05
2.51179e-05
0.000225914
5.38305e-05
5.38185e-05
5.38296e-05
5.38175e-05
8.46535e-05
4.41719e-05
8.46455e-05
4.41719e-05
0.000180336
9.94388e-05
0.000232048
0.000229955
0.000180315
9.94554e-05
0.000232048
0.000180335
9.94327e-05
0.000232048
0.000229954
0.000180315
9.94496e-05
0.000232048
8.46456e-05
4.41725e-05
4.41723e-05
8.4653e-05
8.46459e-05
4.41718e-05
4.41719e-05
8.46532e-05
0.000180317
0.000229955
9.94553e-05
0.000232048
9.94392e-05
0.000232048
0.000180333
0.000180316
0.000229955
9.94496e-05
0.000232047
9.94329e-05
0.000232048
0.000180334
5.38177e-05
5.38115e-05
0.000225948
5.3819e-05
5.38165e-05
2.51192e-05
2.51192e-05
2.51187e-05
2.51185e-05
0.000225914
5.38169e-05
5.38166e-05
5.38178e-05
5.3812e-05
2.51192e-05
2.51191e-05
0.000180338
9.94224e-05
0.000232048
0.000229956
0.000180318
9.94399e-05
0.000232048
8.46606e-05
4.41672e-05
8.46545e-05
4.41671e-05
0.000180335
0.000232047
9.94109e-05
0.000229953
0.000180315
0.000232047
9.94292e-05
8.46578e-05