/*--------------------------------*- C++ -*----------------------------------*\
| =========                 |                                                 |
| \\      /  F ield         | OpenFOAM: The Open Source CFD Toolbox           |
|  \\    /   O peration     | Version:  2206                                  |
|   \\  /    A nd           | Website:  www.openfoam.com                      |
|    \\/     M anipulation  |                                                 |
\*---------------------------------------------------------------------------*/
FoamFile
{
    version     2.0;
    format      ascii;
    arch        "LSB;label=32;scalar=64";
    class       volScalarField;
    location    "24";
    object      nut;
}
// * * * * * * * * * * * * * * * * * * * * * * * * * * * * * * * * * * * * * //

dimensions      [0 2 -1 0 0 0 0];

internalField   nonuniform List<scalar> 
28897
(
0.000223133
0.000200936
0.000200926
0.000177112
0.000223133
0.000200935
0.000200925
0.00017711
0.000223131
0.000200932
0.000200924
0.000177109
0.000223132
0.000200932
0.000200923
0.000177108
0.00022313
0.000200927
0.000200918
0.000177099
0.000223102
0.000200886
0.000200874
0.000177036
0.00022311
0.000200881
0.000200875
0.000177045
0.000223111
0.000200882
0.000200875
0.000177036
0.000223111
0.000200882
0.000200876
0.00017704
0.000223111
0.000200882
0.000200876
0.000177037
0.000223111
0.000200883
0.000200876
0.000177038
0.000223111
0.000200883
0.000200876
0.000177039
0.000223111
0.000200883
0.000200876
0.000177039
0.000223111
0.000200883
0.000200876
0.000177039
0.000223111
0.000200883
0.000200876
0.000177039
0.000223111
0.000200883
0.000200876
0.000177038
0.000223111
0.000200883
0.000200876
0.000177038
0.000223112
0.000200883
0.000200876
0.000177039
0.000177279
0.000200918
0.000200916
0.000177283
0.000200931
0.000200907
0.000200936
0.000200918
0.000177271
0.000200927
0.00020093
0.000177276
0.000177116
0.000177276
0.000200919
0.000200917
0.000200918
0.000200916
0.000177119
0.00017728
0.000200932
0.000200908
0.000200932
0.000200908
0.000200919
0.000200936
0.000200918
0.000177109
0.000177268
0.000200931
0.000200925
0.00020093
0.000177274
0.000177114
0.000177275
0.000200918
0.000200916
0.000200916
0.000200915
0.000177117
0.000177279
0.000200931
0.000200907
0.00020093
0.000200907
0.000200918
0.000200932
0.000200918
0.000177106
0.000177267
0.00020093
0.000200924
0.000200929
0.000177273
0.000177112
0.000177273
0.000200914
0.000200916
0.000200914
0.000200915
0.000177117
0.000177278
0.000200927
0.000200908
0.000200928
0.000200904
0.000200919
0.000200932
0.000200919
0.000177105
0.000177265
0.000200929
0.000200923
0.000200927
0.000177271
0.000177111
0.00017727
0.000200915
0.000200914
0.000200914
0.000200911
0.000177116
0.000177277
0.00020093
0.000200903
0.000200927
0.000200901
0.000200918
0.000200929
0.000200914
0.000177104
0.000177261
0.000200926
0.000200921
0.000200924
0.000177267
0.000177105
0.000177215
0.000200911
0.000200908
0.000200873
0.000200876
0.000177112
0.000177231
0.000200924
0.000200899
0.000200887
0.000200863
0.000200911
0.000200899
0.000200875
0.000177097
0.000177208
0.000200922
0.000200884
0.000200885
0.000177214
0.000177041
0.00017721
0.000200865
0.000200866
0.000200864
0.000200861
0.000177055
0.000177212
0.000200878
0.000200854
0.000200878
0.000200853
0.000200866
0.000200879
0.000200863
0.000177034
0.000177202
0.000200877
0.000200873
0.000200876
0.000177208
0.000177048
0.000177205
0.000200866
0.000200863
0.000200866
0.000200863
0.000177051
0.00017721
0.000200879
0.000200855
0.000200879
0.000200855
0.000200865
0.000200882
0.000200865
0.000177041
0.000177197
0.000200877
0.000200875
0.000200878
0.000177201
0.000177042
0.000177205
0.000200866
0.000200863
0.000200866
0.000200863
0.000177047
0.000177208
0.000200879
0.000200855
0.00020088
0.000200856
0.000200865
0.000200883
0.000200866
0.000177034
0.000177198
0.000200878
0.000200876
0.000200878
0.000177203
0.000177044
0.000177204
0.000200867
0.000200864
0.000200867
0.000200864
0.000177046
0.00017721
0.000200881
0.000200857
0.00020088
0.000200856
0.000200866
0.000200883
0.000200866
0.000177037
0.000177197
0.000200879
0.000200876
0.000200879
0.000177201
0.000177042
0.000177206
0.000200867
0.000200864
0.000200867
0.000200864
0.000177047
0.00017721
0.000200881
0.000200856
0.00020088
0.000200856
0.000200866
0.000200883
0.000200866
0.000177035
0.000177199
0.000200879
0.000200876
0.000200878
0.000177203
0.000177044
0.000177205
0.000200867
0.000200865
0.000200867
0.000200864
0.000177048
0.000177208
0.00020088
0.000200856
0.00020088
0.000200856
0.000200866
0.000200883
0.000200866
0.000177037
0.000177197
0.000200879
0.000200876
0.000200879
0.000177203
0.000177044
0.000177204
0.000200867
0.000200865
0.000200867
0.000200864
0.000177047
0.000177208
0.00020088
0.000200856
0.000200879
0.000200856
0.000200866
0.000200883
0.000200866
0.000177037
0.000177197
0.000200879
0.000200876
0.000200879
0.000177203
0.000177043
0.000177204
0.000200867
0.000200864
0.000200867
0.000200864
0.000177046
0.000177208
0.00020088
0.000200856
0.000200879
0.000200856
0.000200866
0.000200883
0.000200866
0.000177036
0.000177197
0.000200879
0.000200876
0.000200878
0.000177202
0.000177043
0.000177204
0.000200868
0.000200865
0.000200867
0.000200864
0.000177046
0.000177208
0.00020088
0.000200856
0.000200879
0.000200856
0.000200866
0.000200884
0.000200866
0.000177035
0.000177197
0.000200879
0.000200876
0.000200878
0.000177202
0.000177043
0.000177204
0.000200868
0.000200864
0.000200868
0.000200864
0.000177046
0.000177208
0.00020088
0.000200857
0.000200879
0.000200856
0.000200867
0.000200884
0.000200866
0.000177035
0.000177197
0.000200879
0.000200876
0.000200879
0.000177202
0.000177043
0.000177204
0.000200868
0.000200865
0.000200868
0.000200864
0.000177046
0.000177208
0.00020088
0.000200856
0.000200879
0.000200856
0.000200866
0.000200884
0.000200866
0.000177036
0.000177197
0.000200879
0.000200876
0.000200878
0.000177202
0.000177043
0.000177204
0.000200868
0.000200865
0.000200868
0.000200864
0.000177046
0.000177208
0.00020088
0.000200857
0.000200879
0.000200856
0.000200866
0.000200883
0.000200866
0.000177035
0.000177196
0.000200879
0.000200876
0.000200879
0.000177202
0.000177043
0.000200868
0.000200865
0.000177046
0.00020088
0.000200857
0.000200867
0.000177035
0.000200879
0.000223133
0.000223134
0.000223131
0.000223132
4.46231e-05
4.93363e-05
4.46139e-05
4.93352e-05
2.55521e-05
2.55513e-05
4.46298e-05
4.9335e-05
4.46215e-05
4.93339e-05
0.000223134
0.000223131
0.000223133
0.000223133
0.000223134
0.000223131
0.000223132
0.000104935
5.44571e-05
0.000215052
0.000200937
0.000104909
5.44736e-05
0.000215053
2.55487e-05
2.5548e-05
0.000104937
0.000215049
5.44589e-05
0.000200926
0.000104911
0.00021505
5.44747e-05
3.52413e-05
3.52346e-05
0.000177275
3.52459e-05
3.52377e-05
4.46258e-05
4.93356e-05
4.46175e-05
4.93346e-05
2.55508e-05
2.55506e-05
4.46312e-05
4.93342e-05
4.46239e-05
4.93332e-05
0.000223134
0.00022313
0.000223133
0.000223132
0.000223133
0.00022313
0.000223134
0.000104938
5.44601e-05
0.000215052
0.000200933
0.000104909
5.44765e-05
0.000215052
2.55477e-05
2.55474e-05
0.000104935
0.000215049
5.44619e-05
0.000200925
0.000104909
0.000215047
5.44775e-05
3.5247e-05
3.52389e-05
0.000177274
3.52516e-05
3.52442e-05
4.46295e-05
4.93352e-05
4.46203e-05
4.93344e-05
2.55505e-05
2.55504e-05
4.46359e-05
4.93338e-05
4.4627e-05
4.9333e-05
0.000223134
0.00022313
0.000223133
0.000223131
0.000223133
0.000223128
0.000223132
0.00010494
5.4463e-05
0.000215052
0.000200933
0.000104913
5.44789e-05
0.00021505
2.55475e-05
2.55473e-05
0.000104937
0.000215047
5.44641e-05
0.000200922
0.000104909
0.000215045
5.44795e-05
3.52529e-05
3.52463e-05
0.000177272
3.52572e-05
3.52507e-05
4.46319e-05
4.93352e-05
4.46242e-05
4.93345e-05
2.55506e-05
2.55506e-05
4.46387e-05
4.93338e-05
4.46316e-05
4.93331e-05
0.000223133
0.000223128
0.000223132
0.000223131
0.000223131
0.000223128
0.000223131
0.000104941
5.44648e-05
0.000215049
0.00020093
0.000104916
5.44808e-05
0.000215049
2.55476e-05
2.55476e-05
0.00010494
0.000215046
5.44666e-05
0.000200922
0.000104913
0.000215045
5.4482e-05
3.52571e-05
3.52506e-05
0.000177271
3.52603e-05
3.52536e-05
4.46192e-05
4.93362e-05
4.46197e-05
4.93365e-05
2.55512e-05
2.55512e-05
4.46257e-05
4.93348e-05
4.4627e-05
4.93351e-05
0.00022313
0.000223127
0.000223129
0.000223105
0.000223108
0.000223102
0.000223104
0.000104922
5.44635e-05
0.000215047
0.000200924
0.000104906
5.4473e-05
0.000215043
2.55482e-05
2.5548e-05
0.000104922
0.000215044
5.44629e-05
0.000200914
0.000104907
0.00021504
5.44704e-05
3.52556e-05
3.52483e-05
0.00017725
3.5255e-05
3.52481e-05
4.46012e-05
4.93384e-05
4.45984e-05
4.93377e-05
2.5551e-05
2.55508e-05
4.46078e-05
4.9337e-05
4.46054e-05
4.93363e-05
0.000223105
0.000223099
0.000223102
0.000223108
0.000223109
0.000223106
0.000223108
0.000104862
5.44427e-05
0.000215013
0.00020088
0.000104857
5.44501e-05
0.00021501
2.55479e-05
2.55477e-05
0.000104865
0.000215007
5.44408e-05
0.000200872
0.000104848
0.000215006
5.44495e-05
3.52462e-05
3.52392e-05
0.000177201
3.52445e-05
3.52378e-05
4.45973e-05
4.93384e-05
4.45903e-05
4.93375e-05
2.55508e-05
2.55507e-05
4.46042e-05
4.93369e-05
4.45978e-05
4.93362e-05
0.000223111
0.000223108
0.00022311
0.000223111
0.000223111
0.000223108
0.00022311
0.000104868
5.44289e-05
0.000215014
0.000200882
0.00010484
5.4443e-05
0.000215015
2.55478e-05
2.55476e-05
0.000104871
0.000215013
5.44313e-05
0.000200875
0.000104843
0.000215013
5.44453e-05
3.52386e-05
3.52327e-05
0.000177206
3.52405e-05
3.52347e-05
4.45971e-05
4.93383e-05
4.45895e-05
4.93375e-05
2.55508e-05
2.55507e-05
4.4604e-05
4.93369e-05
4.45971e-05
4.93361e-05
0.000223112
0.000223109
0.00022311
0.000223111
0.000223112
0.000223109
0.00022311
0.000104866
5.44271e-05
0.000215014
0.000200882
0.00010484
5.44424e-05
0.000215015
2.55478e-05
2.55476e-05
0.00010487
0.000215013
5.44304e-05
0.000200876
0.000104843
0.000215013
5.44451e-05
3.52379e-05
3.52322e-05
0.000177201
3.52403e-05
3.52346e-05
4.45971e-05
4.93383e-05
4.45895e-05
4.93375e-05
2.55508e-05
2.55507e-05
4.4604e-05
4.93369e-05
4.45971e-05
4.93361e-05
0.000223112
0.000223109
0.000223111
0.000223111
0.000223112
0.000223109
0.00022311
0.000104867
5.44271e-05
0.000215015
0.000200883
0.00010484
5.44424e-05
0.000215015
2.55478e-05
2.55476e-05
0.000104868
0.000215013
5.44304e-05
0.000200876
0.000104842
0.000215014
5.44451e-05
3.52379e-05
3.52322e-05
0.000177204
3.52403e-05
3.52346e-05
4.45971e-05
4.93383e-05
4.45895e-05
4.93375e-05
2.55508e-05
2.55507e-05
4.4604e-05
4.93369e-05
4.45971e-05
4.93361e-05
0.000223112
0.000223109
0.000223111
0.000223111
0.000223112
0.000223108
0.00022311
0.000104867
5.44271e-05
0.000215015
0.000200883
0.000104841
5.44424e-05
0.000215016
2.55478e-05
2.55476e-05
0.00010487
0.000215013
5.44304e-05
0.000200876
0.000104842
0.000215013
5.44452e-05
3.52379e-05
3.52322e-05
0.000177203
3.52403e-05
3.52346e-05
4.45971e-05
4.93388e-05
4.45895e-05
4.93383e-05
2.55504e-05
2.55503e-05
4.4604e-05
4.93365e-05
4.45971e-05
4.93355e-05
0.000223112
0.000223109
0.00022311
0.000223111
0.000223112
0.000223108
0.00022311
0.000104867
5.44271e-05
0.000215015
0.000200883
0.000104841
5.44424e-05
0.000215016
2.55478e-05
2.55476e-05
0.00010487
0.000215013
5.44305e-05
0.000200876
0.000104843
0.000215013
5.44453e-05
3.52379e-05
3.52322e-05
0.000177202
3.52403e-05
3.52346e-05
4.45971e-05
4.93395e-05
4.45895e-05
4.93388e-05
2.55503e-05
2.55502e-05
4.4604e-05
4.9336e-05
4.45971e-05
4.93352e-05
0.000223112
0.000223109
0.000223111
0.000223111
0.000223112
0.000223108
0.00022311
0.000104866
5.44271e-05
0.000215015
0.000200883
0.00010484
5.44424e-05
0.000215015
2.55478e-05
2.55476e-05
0.000104869
0.000215013
5.44306e-05
0.000200876
0.000104843
0.000215013
5.44453e-05
3.52379e-05
3.52322e-05
0.000177203
3.52403e-05
3.52346e-05
4.45971e-05
4.93396e-05
4.45895e-05
4.9339e-05
2.55502e-05
2.55502e-05
4.4604e-05
4.93359e-05
4.45971e-05
4.93351e-05
0.000223112
0.000223109
0.000223111
0.000223111
0.000223112
0.000223108
0.00022311
0.000104867
5.44271e-05
0.000215015
0.000200883
0.00010484
5.44424e-05
0.000215016
2.55478e-05
2.55476e-05
0.000104866
0.000215013
5.44306e-05
0.000200876
0.00010484
0.000215013
5.44454e-05
3.52379e-05
3.52322e-05
0.000177203
3.52403e-05
3.52346e-05
4.45971e-05
4.93398e-05
4.45895e-05
4.93391e-05
2.55502e-05
2.55501e-05
4.4604e-05
4.93358e-05
4.45971e-05
4.93351e-05
0.000223112
0.000223109
0.000223111
0.000223111
0.000223112
0.000223108
0.00022311
0.000104865
5.44271e-05
0.000215015
0.000200884
0.000104841
5.44424e-05
0.000215015
2.55478e-05
2.55476e-05
0.000104866
0.000215013
5.44306e-05
0.000200876
0.000104839
0.000215013
5.44454e-05
3.52379e-05
3.52322e-05
0.000177203
3.52403e-05
3.52346e-05
4.45971e-05
4.93398e-05
4.45895e-05
4.93391e-05
2.55502e-05
2.55501e-05
4.4604e-05
4.93358e-05
4.45971e-05
4.93351e-05
0.000223112
0.000223109
0.000223111
0.000223111
0.000223112
0.000223108
0.00022311
0.000104867
5.44271e-05
0.000215015
0.000200884
0.000104839
5.44424e-05
0.000215016
2.55478e-05
2.55476e-05
0.000104866
0.000215013
5.44306e-05
0.000200876
0.000104839
0.000215013
5.44454e-05
3.52378e-05
3.52322e-05
0.000177203
3.52403e-05
3.52346e-05
4.45971e-05
4.93399e-05
4.45895e-05
4.93391e-05
2.55502e-05
2.55501e-05
4.4604e-05
4.93358e-05
4.45971e-05
4.93351e-05
0.000223112
0.000223109
0.000223111
0.000223111
0.000223112
0.000223108
0.00022311
0.000104866
5.44271e-05
0.000215015
0.000200884
0.00010484
5.44424e-05
0.000215016
2.55478e-05
2.55476e-05
0.000104866
0.000215013
5.44306e-05
0.000200876
0.000104839
0.000215014
5.44454e-05
3.52378e-05
3.52322e-05
0.000177203
3.52403e-05
3.52346e-05
4.45971e-05
4.93399e-05
4.45896e-05
4.93392e-05
2.55502e-05
2.55501e-05
4.4604e-05
4.93358e-05
4.45971e-05
4.93351e-05
0.000223112
0.000223109
0.000223111
0.000223111
0.000223112
0.000223108
0.00022311
0.000104866
5.44271e-05
0.000215015
0.000200884
0.00010484
5.44424e-05
0.000215016
2.55478e-05
2.55476e-05
0.000104866
0.000215013
5.44307e-05
0.000200876
0.000104839
0.000215014
5.44454e-05
3.52379e-05
3.52322e-05
0.000177203
3.52403e-05
3.52346e-05
4.93399e-05
4.45896e-05
2.55502e-05
4.93358e-05
4.45971e-05
0.000223112
0.000223109
0.000223111
5.44271e-05
0.000215016
0.000104839
2.55478e-05
0.000215014
5.44307e-05
0.000104838
3.52379e-05
3.52322e-05
2.55516e-05
2.55524e-05
2.55504e-05
2.55512e-05
0.000177094
3.52357e-05
3.52378e-05
3.52306e-05
3.52377e-05
4.46128e-05
4.93357e-05
4.93377e-05
4.46209e-05
4.46136e-05
4.93378e-05
4.93396e-05
4.46217e-05
0.00010491
0.000200918
5.44698e-05
0.00021505
5.44544e-05
0.00021505
0.000104936
0.000104912
0.000200916
5.44743e-05
0.000215049
5.44596e-05
0.000215049
0.000104938
2.55522e-05
3.52399e-05
3.52337e-05
2.55524e-05
4.46204e-05
4.93344e-05
4.93362e-05
4.46279e-05
0.000104913
0.000200931
5.44716e-05
0.00021505
5.4457e-05
0.00021505
0.000104937
4.4619e-05
4.93303e-05
4.93322e-05
4.46265e-05
0.000104911
0.000200907
0.000215047
5.44612e-05
0.000215047
5.44457e-05
0.000104936
5.4472e-05
0.000215052
0.000215052
0.000104936
4.93361e-05
4.46154e-05
0.000200918
0.000215051
5.44633e-05
0.000215051
0.000104934
4.93334e-05
4.46151e-05
2.55487e-05
2.55496e-05
0.000177087
3.52277e-05
3.5243e-05
3.52239e-05
3.52422e-05
2.55513e-05
2.55521e-05
0.000104913
0.000200928
0.000215049
5.44732e-05
0.000215049
5.44587e-05
0.000104938
0.000104912
0.00020093
0.00021505
5.44709e-05
0.00021505
5.4456e-05
0.000104938
4.46196e-05
4.93336e-05
4.93354e-05
4.46271e-05
4.46201e-05
4.93336e-05
4.93354e-05
4.46278e-05
0.000177091
3.52431e-05
3.52372e-05
3.52363e-05
2.55512e-05
2.55501e-05
2.55509e-05
2.55516e-05
2.55509e-05
2.55503e-05
2.55497e-05
3.52335e-05
3.52355e-05
0.000177278
3.52376e-05
3.52384e-05
2.55505e-05
2.5551e-05
2.55493e-05
2.55497e-05
0.000177115
3.52392e-05
3.52414e-05
3.52352e-05
3.52368e-05
4.46238e-05
4.93383e-05
4.46158e-05
4.93373e-05
0.000104937
5.44562e-05
0.00021505
0.000200919
0.000104912
5.44714e-05
0.00021505
0.000104939
5.44613e-05
0.00021505
0.000200917
0.000104914
5.44758e-05
0.00021505
4.46171e-05
4.93348e-05
4.93358e-05
4.46247e-05
4.46178e-05
4.93369e-05
4.93378e-05
4.46252e-05
0.000104912
0.000200919
5.44729e-05
0.00021505
5.44578e-05
0.000215051
0.000104937
0.000104914
0.000200917
5.44772e-05
0.00021505
5.44628e-05
0.00021505
0.000104939
3.52371e-05
3.52317e-05
0.000177281
3.52391e-05
3.52363e-05
2.55525e-05
2.55516e-05
2.55508e-05
2.55513e-05
0.000177118
3.5241e-05
3.52377e-05
3.52371e-05
3.5234e-05
2.55511e-05
2.55517e-05
0.00010494
5.44585e-05
0.000215052
0.000200932
0.000104914
5.44731e-05
0.000215051
4.46284e-05
4.93308e-05
4.46212e-05
4.93297e-05
0.000104938
0.000215048
5.44475e-05
0.000200908
0.000104913
0.000215047
5.44629e-05
4.46243e-05
4.93335e-05
4.93344e-05
4.46308e-05
0.000104916
0.000200932
5.44746e-05
0.000215052
5.446e-05
0.000215052
0.00010494
4.46228e-05
4.93294e-05
4.93304e-05
4.46291e-05
0.000104913
0.000200908
0.000215047
5.44643e-05
0.000215048
5.44491e-05
0.000104938
4.46199e-05
4.93366e-05
4.46101e-05
4.93353e-05
0.000104935
0.000215052
5.44497e-05
0.000200919
0.00010491
0.000215051
5.4466e-05
4.46197e-05
4.93339e-05
4.46098e-05
4.93329e-05
0.000104911
0.000200936
5.4475e-05
0.000215052
5.446e-05
0.000215053
0.000104936
4.46144e-05
4.93349e-05
4.93359e-05
4.46236e-05
0.000104911
0.000200919
0.000215051
5.44717e-05
0.000215052
5.44539e-05
0.000104936
4.46142e-05
4.93326e-05
4.93335e-05
4.46234e-05
3.52255e-05
3.52404e-05
0.00017727
3.52298e-05
3.52434e-05
2.55513e-05
2.55506e-05
2.55476e-05
2.55481e-05
0.000177108
3.52314e-05
3.52461e-05
3.52274e-05
3.52416e-05
2.55502e-05
2.55507e-05
0.00010494
0.000215051
5.44575e-05
0.000200931
0.000104914
0.000215051
5.44724e-05
4.46288e-05
4.93341e-05
4.46217e-05
4.93331e-05
4.46297e-05
4.93341e-05
4.46223e-05
4.9333e-05
0.000104912
0.000200926
0.000215049
5.44761e-05
0.00021505
5.44617e-05
0.000104936
0.000104916
0.000200931
0.00021505
5.44739e-05
0.000215051
5.4459e-05
0.000104939
4.46233e-05
4.93327e-05
4.93336e-05
4.46294e-05
4.4624e-05
4.93327e-05
4.93336e-05
4.46304e-05
2.55512e-05
2.55505e-05
2.55501e-05
2.55494e-05
0.000177113
3.52487e-05
3.52404e-05
3.52443e-05
3.52359e-05
2.55501e-05
2.55505e-05
2.5549e-05
2.55495e-05
2.55507e-05
2.55503e-05
2.55494e-05
2.55491e-05
3.52373e-05
3.52402e-05
0.000177276
3.52432e-05
3.52455e-05
2.55502e-05
2.55505e-05
2.5549e-05
2.55492e-05
0.000177114
3.52472e-05
3.52494e-05
3.52416e-05
3.52444e-05
4.4626e-05
4.93375e-05
4.46189e-05
4.93366e-05
0.000104939
5.44592e-05
0.000215048
0.000200918
0.000104914
5.44744e-05
0.000215048
0.000104941
5.44642e-05
0.000215047
0.000200916
0.000104915
5.44785e-05
0.000215047
4.46196e-05
4.93345e-05
4.93353e-05
4.46273e-05
4.46198e-05
4.93365e-05
4.93372e-05
4.46276e-05
0.000104916
0.000200917
5.44758e-05
0.000215047
5.44608e-05
0.000215047
0.000104938
0.000104917
0.000200916
5.44796e-05
0.000215046
5.44654e-05
0.000215046
0.00010494
3.52394e-05
3.52355e-05
0.00017728
3.52444e-05
3.52405e-05
2.55512e-05
2.55508e-05
2.55504e-05
2.55507e-05
0.000177118
3.52483e-05
3.5245e-05
3.5243e-05
3.52389e-05
2.55506e-05
2.55509e-05
0.000104938
5.44615e-05
0.00021505
0.000200931
0.000104916
5.44761e-05
0.000215049
4.46296e-05
4.933e-05
4.46233e-05
4.93291e-05
0.000104938
0.000215045
5.44505e-05
0.000200907
0.000104914
0.000215044
5.44659e-05
4.46257e-05
4.93331e-05
4.93338e-05
4.46331e-05
0.000104915
0.000200931
5.44773e-05
0.000215049
5.4463e-05
0.000215049
0.000104939
4.46242e-05
4.9329e-05
4.93298e-05
4.46316e-05
0.000104915
0.000200908
0.000215044
5.44674e-05
0.000215044
5.44521e-05
0.000104939
4.46266e-05
4.93355e-05
4.46179e-05
4.93346e-05
0.000104939
0.000215052
5.44594e-05
0.000200918
0.000104913
0.000215052
5.44761e-05
4.46264e-05
4.93332e-05
4.46177e-05
4.93324e-05
0.000104914
0.000200933
5.4478e-05
0.000215053
5.44629e-05
0.000215052
0.000104939
4.46208e-05
4.93344e-05
4.93352e-05
4.46291e-05
0.000104915
0.000200918
0.000215052
5.44793e-05
0.000215052
5.44635e-05
0.00010494
4.46206e-05
4.93323e-05
4.9333e-05
4.46289e-05
3.52293e-05
3.52447e-05
0.000177268
3.52348e-05
3.525e-05
2.55504e-05
2.555e-05
2.55473e-05
2.55476e-05
0.000177107
3.52386e-05
3.52537e-05
3.5233e-05
3.52487e-05
2.55499e-05
2.55502e-05
0.000104938
0.000215048
5.44606e-05
0.00020093
0.000104913
0.000215048
5.44753e-05
4.46298e-05
4.93333e-05
4.46236e-05
4.93324e-05
4.46309e-05
4.93332e-05
4.46245e-05
4.93324e-05
0.00010491
0.000200924
0.000215047
5.44786e-05
0.000215047
5.44645e-05
0.000104936
0.000104913
0.000200929
0.000215047
5.44764e-05
0.000215047
5.44619e-05
0.000104939
4.46243e-05
4.93323e-05
4.9333e-05
4.46317e-05
4.46253e-05
4.93323e-05
4.9333e-05
4.46328e-05
2.55502e-05
2.55498e-05
2.55492e-05
2.55488e-05
0.000177112
3.52546e-05
3.52479e-05
3.52499e-05
3.52429e-05
2.55497e-05
2.555e-05
2.55487e-05
2.5549e-05
2.55504e-05
2.55502e-05
2.55492e-05
2.5549e-05
3.52452e-05
3.5248e-05
0.000177274
3.52497e-05
3.52523e-05
2.55504e-05
2.55505e-05
2.55492e-05
2.55492e-05
0.000177112
3.52515e-05
3.52543e-05
3.52476e-05
3.52507e-05
4.463e-05
4.93371e-05
4.46217e-05
4.93364e-05
0.000104939
5.4462e-05
0.000215045
0.000200914
0.000104914
5.44768e-05
0.000215045
0.000104942
5.44665e-05
0.000215046
0.000200916
0.000104915
5.44806e-05
0.000215046
4.46236e-05
4.93344e-05
4.93351e-05
4.46315e-05
4.46242e-05
4.93364e-05
4.93371e-05
4.46322e-05
0.000104916
0.000200914
5.4478e-05
0.000215046
5.44631e-05
0.000215045
0.000104939
0.000104919
0.000200916
5.44821e-05
0.000215047
5.44676e-05
0.000215046
0.000104944
3.52469e-05
3.52433e-05
0.00017728
3.52517e-05
3.52482e-05
2.55508e-05
2.55506e-05
2.55505e-05
2.55506e-05
0.000177117
3.52541e-05
3.52504e-05
3.52501e-05
3.52462e-05
2.55507e-05
2.55508e-05
0.000104942
5.4464e-05
0.000215046
0.000200927
0.000104916
5.44783e-05
0.000215046
4.46344e-05
4.93297e-05
4.46266e-05
4.9329e-05
0.000104942
0.000215042
5.44536e-05
0.000200907
0.000104915
0.000215042
5.44686e-05
4.46307e-05
4.9333e-05
4.93337e-05
4.46382e-05
0.000104919
0.000200928
5.44796e-05
0.000215046
5.44651e-05
0.000215045
0.000104943
4.46293e-05
4.9329e-05
4.93297e-05
4.46368e-05
0.000104919
0.000200906
0.000215043
5.44698e-05
0.000215042
5.44548e-05
0.000104943
4.46311e-05
4.93351e-05
4.46231e-05
4.93343e-05
0.000104943
0.000215051
5.44664e-05
0.000200919
0.000104917
0.00021505
5.44816e-05
4.46311e-05
4.93329e-05
4.4623e-05
4.93322e-05
0.000104916
0.000200932
5.44798e-05
0.000215049
5.44652e-05
0.000215049
0.000104943
4.4625e-05
4.93343e-05
4.9335e-05
4.46328e-05
0.000104919
0.000200919
0.000215048
5.44832e-05
0.000215049
5.44685e-05
0.000104945
4.4625e-05
4.93323e-05
4.93329e-05
4.46327e-05
3.52367e-05
3.52522e-05
0.000177267
3.52414e-05
3.52566e-05
2.55501e-05
2.55499e-05
2.55474e-05
2.55476e-05
0.000177105
3.52432e-05
3.52586e-05
3.52392e-05
3.52549e-05
2.55501e-05
2.55501e-05
0.000104942
0.000215046
5.4463e-05
0.000200929
0.000104915
0.000215046
5.44775e-05
4.46344e-05
4.93329e-05
4.46266e-05
4.93322e-05
4.46355e-05
4.93329e-05
4.46275e-05
4.93322e-05
0.000104913
0.000200922
0.000215044
5.44808e-05
0.000215044
5.44665e-05
0.000104939
0.000104918
0.000200928
0.000215047
5.44787e-05
0.000215046
5.44641e-05
0.000104943
4.46293e-05
4.93322e-05
4.93329e-05
4.46368e-05
4.46303e-05
4.93322e-05
4.93328e-05
4.46379e-05
2.55499e-05
2.55497e-05
2.55489e-05
2.55488e-05
0.000177111
3.52592e-05
3.52527e-05
3.52555e-05
3.5249e-05
2.55498e-05
2.55499e-05
2.55489e-05
2.55489e-05
2.55506e-05
2.55505e-05
2.55493e-05
2.55493e-05
3.52491e-05
3.52525e-05
0.000177275
3.52524e-05
3.52552e-05
2.55509e-05
2.55508e-05
2.55497e-05
2.55496e-05
0.000177113
3.52505e-05
3.52533e-05
3.52495e-05
3.52529e-05
4.46326e-05
4.9337e-05
4.4626e-05
4.93364e-05
0.000104936
5.44644e-05
0.000215047
0.000200915
0.000104914
5.44791e-05
0.000215047
0.000104937
5.44691e-05
0.000215048
0.000200913
0.000104916
5.44834e-05
0.000215049
4.46254e-05
4.93352e-05
4.93353e-05
4.46293e-05
4.4626e-05
4.93366e-05
4.9337e-05
4.46301e-05
0.000104911
0.000200916
5.4476e-05
0.000215047
5.44649e-05
0.000215048
0.000104933
0.000104913
0.000200912
5.44818e-05
0.000215047
5.44702e-05
0.000215049
0.000104935
3.52523e-05
3.52481e-05
0.000177279
3.52556e-05
3.52517e-05
2.55509e-05
2.55508e-05
2.5551e-05
2.55508e-05
0.000177117
3.52544e-05
3.52511e-05
3.52533e-05
3.52492e-05
2.55511e-05
2.55511e-05
0.000104939
5.44664e-05
0.000215048
0.000200929
0.000104916
5.44806e-05
0.000215049
4.46372e-05
4.93297e-05
4.46313e-05
4.9329e-05
0.000104937
0.000215044
5.4456e-05
0.000200902
0.000104915
0.000215045
5.44706e-05
4.46328e-05
4.93338e-05
4.93339e-05
4.4636e-05
0.000104915
0.000200929
5.44776e-05
0.000215049
5.44669e-05
0.00021505
0.000104934
4.46313e-05
4.93297e-05
4.93298e-05
4.46346e-05
0.00010491
0.000200902
0.000215044
5.44674e-05
0.000215045
5.44562e-05
0.000104932
4.46331e-05
4.9335e-05
4.46266e-05
4.93343e-05
0.000104938
0.000215048
5.447e-05
0.000200917
0.000104919
0.000215047
5.44839e-05
4.46327e-05
4.9333e-05
4.46264e-05
4.93324e-05
0.000104917
0.00020093
5.448e-05
0.000215048
5.4467e-05
0.000215049
0.000104935
4.46266e-05
4.93345e-05
4.9335e-05
4.46315e-05
0.000104913
0.000200916
0.000215046
5.44815e-05
0.000215047
5.44702e-05
0.000104934
4.46261e-05
4.93329e-05
4.93331e-05
4.4631e-05
3.52407e-05
3.52566e-05
0.000177266
3.5244e-05
3.52596e-05
2.55503e-05
2.55502e-05
2.5548e-05
2.55479e-05
0.000177105
3.5242e-05
3.52577e-05
3.52411e-05
3.52572e-05
2.55506e-05
2.55505e-05
0.000104941
0.000215047
5.44654e-05
0.000200926
0.000104917
0.000215048
5.44798e-05
4.46378e-05
4.93329e-05
4.46314e-05
4.93323e-05
4.46386e-05
4.93328e-05
4.46324e-05
4.93323e-05
0.000104917
0.000200922
0.000215045
5.44794e-05
0.000215046
5.44686e-05
0.000104937
0.000104913
0.000200925
0.000215048
5.44768e-05
0.000215049
5.4466e-05
0.000104934
4.4632e-05
4.93329e-05
4.9333e-05
4.46355e-05
4.46326e-05
4.93328e-05
4.9333e-05
4.4636e-05
2.555e-05
2.555e-05
2.55491e-05
2.5549e-05
0.00017711
3.52591e-05
3.52517e-05
3.52581e-05
3.52512e-05
2.55503e-05
2.55502e-05
2.55494e-05
2.55493e-05
2.55511e-05
2.55509e-05
2.55499e-05
2.55497e-05
3.52467e-05
3.52501e-05
0.000177251
3.52467e-05
3.52496e-05
2.55507e-05
2.55511e-05
2.55495e-05
2.55498e-05
0.000177077
3.52419e-05
3.52445e-05
3.52429e-05
3.52462e-05
4.462e-05
4.93375e-05
4.46215e-05
4.93381e-05
0.000104919
5.446e-05
0.000215045
0.000200905
0.000104903
5.44668e-05
0.00021504
0.000104921
5.44668e-05
0.000215045
0.000200904
0.000104906
5.44732e-05
0.00021504
4.46095e-05
4.93375e-05
4.93375e-05
4.46083e-05
4.46102e-05
4.93395e-05
4.93391e-05
4.4609e-05
0.000104887
0.00020089
5.44549e-05
0.000215012
5.44497e-05
0.000215026
0.000104881
0.000104889
0.000200892
5.4461e-05
0.000215013
5.44567e-05
0.000215027
0.000104882
3.52511e-05
3.52476e-05
0.000177263
3.52509e-05
3.52477e-05
2.55514e-05
2.55514e-05
2.5551e-05
2.55513e-05
0.000177092
3.52469e-05
3.52439e-05
3.52476e-05
3.5244e-05
2.55512e-05
2.55515e-05
0.00010492
5.44621e-05
0.000215047
0.000200918
0.000104905
5.44684e-05
0.000215041
4.46244e-05
4.93306e-05
4.46266e-05
4.9331e-05
0.000104919
0.000215042
5.44513e-05
0.000200894
0.000104903
0.000215037
5.44582e-05
4.46165e-05
4.93361e-05
4.9336e-05
4.46147e-05
0.000104889
0.000200903
5.44564e-05
0.000215013
5.44518e-05
0.000215027
0.000104881
4.46152e-05
4.93321e-05
4.9332e-05
4.46133e-05
0.000104888
0.00020088
0.000215009
5.44461e-05
0.000215023
5.4441e-05
0.00010488
4.46225e-05
4.93354e-05
4.46234e-05
4.93355e-05
0.000104921
0.000215045
5.44664e-05
0.000200905
0.000104905
0.000215041
5.4473e-05
4.4622e-05
4.93338e-05
4.46229e-05
4.93341e-05
0.000104892
0.000200916
5.44612e-05
0.00021502
5.44561e-05
0.000215033
0.000104892
4.46126e-05
4.9337e-05
4.93366e-05
4.46109e-05
0.000104891
0.000200892
0.000215017
5.44608e-05
0.00021503
5.44564e-05
0.00010489
4.46121e-05
4.93354e-05
4.9335e-05
4.46104e-05
3.52381e-05
3.52544e-05
0.000177244
3.52382e-05
3.5254e-05
2.55508e-05
2.55506e-05
2.55478e-05
2.55482e-05
0.000177071
3.52333e-05
3.5249e-05
3.52342e-05
3.52505e-05
2.55504e-05
2.55507e-05
0.000104921
0.000215046
5.44612e-05
0.000200917
0.000104904
0.000215041
5.44677e-05
4.46252e-05
4.93338e-05
4.46275e-05
4.93342e-05
4.46257e-05
4.93337e-05
4.46279e-05
4.93342e-05
0.00010489
0.0002009
0.000215012
5.44583e-05
0.000215027
5.44539e-05
0.000104883
0.000104888
0.000200902
0.000215012
5.44556e-05
0.000215026
5.44509e-05
0.000104881
4.4616e-05
4.93353e-05
4.93352e-05
4.46141e-05
4.46163e-05
4.93353e-05
4.93351e-05
4.46145e-05
2.55506e-05
2.55505e-05
2.55496e-05
2.55494e-05
0.000177077
3.52501e-05
3.52431e-05
3.52514e-05
3.52446e-05
2.55503e-05
2.55506e-05
2.55492e-05
2.55495e-05
2.55509e-05
2.55506e-05
2.55496e-05
2.55494e-05
3.5238e-05
3.52408e-05
0.000177203
3.52357e-05
3.52393e-05
2.55505e-05
2.55508e-05
2.55494e-05
2.55495e-05
0.000177042
3.5233e-05
3.52369e-05
3.5232e-05
3.52363e-05
4.46019e-05
4.93403e-05
4.46001e-05
4.93397e-05
0.000104862
5.44379e-05
0.000215007
0.000200862
0.000104847
5.44461e-05
0.000215007
0.000104864
5.44447e-05
0.000215008
0.000200861
0.000104848
5.44515e-05
0.000215007
4.45936e-05
4.93376e-05
4.93384e-05
4.45982e-05
4.45943e-05
4.93396e-05
4.93403e-05
4.4599e-05
0.000104838
0.000200862
5.44427e-05
0.000215011
5.44308e-05
0.000215008
0.000104865
0.00010484
0.000200859
5.44476e-05
0.000215011
5.44367e-05
0.000215008
0.000104867
3.52432e-05
3.524e-05
0.00017721
3.52412e-05
3.52382e-05
2.55513e-05
2.5551e-05
2.55507e-05
2.55509e-05
0.000177044
3.52374e-05
3.52333e-05
3.52376e-05
3.52342e-05
2.55509e-05
2.55512e-05
0.000104864
5.444e-05
0.000215008
0.000200876
0.000104847
5.44478e-05
0.000215008
4.46064e-05
4.93329e-05
4.46052e-05
4.93323e-05
0.000104862
0.000215004
5.44292e-05
0.000200852
0.000104846
0.000215004
5.44374e-05
4.46009e-05
4.93362e-05
4.9337e-05
4.4605e-05
0.00010484
0.000200875
5.44447e-05
0.000215012
5.44331e-05
0.000215009
0.000104867
4.45996e-05
4.93322e-05
4.9333e-05
4.46036e-05
0.000104839
0.000200851
0.000215009
5.44341e-05
0.000215005
5.44221e-05
0.000104866
4.46025e-05
4.93379e-05
4.46017e-05
4.93376e-05
0.000104861
0.00021501
5.44442e-05
0.000200863
0.000104856
0.000215009
5.44508e-05
4.46021e-05
4.93362e-05
4.46012e-05
4.93358e-05
0.000104838
0.000200878
5.44448e-05
0.000215013
5.44342e-05
0.000215011
0.000104866