/*--------------------------------*- C++ -*----------------------------------*\
| =========                 |                                                 |
| \\      /  F ield         | OpenFOAM: The Open Source CFD Toolbox           |
|  \\    /   O peration     | Version:  2206                                  |
|   \\  /    A nd           | Website:  www.openfoam.com                      |
|    \\/     M anipulation  |                                                 |
\*---------------------------------------------------------------------------*/
FoamFile
{
    version     2.0;
    format      ascii;
    arch        "LSB;label=32;scalar=64";
    class       volScalarField;
    location    "17.5";
    object      k;
}
// * * * * * * * * * * * * * * * * * * * * * * * * * * * * * * * * * * * * * //

dimensions      [0 2 -2 0 0 0 0];

internalField   nonuniform List<scalar> 
28335
(
2.98696e-05
2.96565e-05
2.96564e-05
2.93687e-05
2.98696e-05
2.96564e-05
2.96563e-05
2.93689e-05
2.98694e-05
2.96563e-05
2.96562e-05
2.93689e-05
2.98651e-05
2.96516e-05
2.96515e-05
2.93639e-05
2.98606e-05
2.96468e-05
2.96467e-05
2.93582e-05
2.98605e-05
2.96468e-05
2.96467e-05
2.93582e-05
2.98605e-05
2.96468e-05
2.96467e-05
2.93583e-05
2.98605e-05
2.96468e-05
2.96467e-05
2.93583e-05
2.98605e-05
2.96468e-05
2.96467e-05
2.93583e-05
2.98605e-05
2.96468e-05
2.96467e-05
2.93583e-05
2.98605e-05
2.96468e-05
2.96467e-05
2.93583e-05
2.98605e-05
2.96468e-05
2.96467e-05
2.93583e-05
2.98605e-05
2.96468e-05
2.96467e-05
2.93583e-05
2.98605e-05
2.96468e-05
2.96467e-05
2.93583e-05
2.98605e-05
2.96468e-05
2.96467e-05
2.93583e-05
2.98605e-05
2.96468e-05
2.96467e-05
2.93583e-05
2.98605e-05
2.96468e-05
2.96467e-05
2.93583e-05
2.9371e-05
2.96564e-05
2.96564e-05
2.9371e-05
2.96565e-05
2.96562e-05
2.96565e-05
2.96564e-05
2.93708e-05
2.96565e-05
2.96565e-05
2.93708e-05
2.93692e-05
2.93711e-05
2.96565e-05
2.96565e-05
2.96565e-05
2.96564e-05
2.93691e-05
2.9371e-05
2.96566e-05
2.96564e-05
2.96566e-05
2.96563e-05
2.96565e-05
2.96564e-05
2.96564e-05
2.9369e-05
2.93709e-05
2.96566e-05
2.96563e-05
2.96565e-05
2.93709e-05
2.93692e-05
2.93711e-05
2.96567e-05
2.96565e-05
2.96565e-05
2.96565e-05
2.93692e-05
2.93711e-05
2.96567e-05
2.96566e-05
2.96566e-05
2.96563e-05
2.96566e-05
2.96564e-05
2.96564e-05
2.93691e-05
2.93709e-05
2.96567e-05
2.96563e-05
2.96565e-05
2.93711e-05
2.93692e-05
2.9368e-05
2.96564e-05
2.96564e-05
2.96542e-05
2.96541e-05
2.93692e-05
2.93679e-05
2.96565e-05
2.96562e-05
2.96543e-05
2.9654e-05
2.96563e-05
2.96544e-05
2.96542e-05
2.9369e-05
2.93678e-05
2.96564e-05
2.96543e-05
2.96543e-05
2.93679e-05
2.93643e-05
2.93604e-05
2.96514e-05
2.96514e-05
2.96469e-05
2.96468e-05
2.93643e-05
2.93603e-05
2.96516e-05
2.96513e-05
2.9647e-05
2.96467e-05
2.96514e-05
2.9647e-05
2.96469e-05
2.93641e-05
2.93602e-05
2.96516e-05
2.96469e-05
2.9647e-05
2.93604e-05
2.93584e-05
2.93604e-05
2.96468e-05
2.96468e-05
2.96466e-05
2.96466e-05
2.93584e-05
2.93604e-05
2.96469e-05
2.96466e-05
2.96468e-05
2.96465e-05
2.96468e-05
2.96468e-05
2.96466e-05
2.93582e-05
2.93602e-05
2.96469e-05
2.96467e-05
2.96467e-05
2.93604e-05
2.93585e-05
2.93604e-05
2.96468e-05
2.96467e-05
2.96466e-05
2.96466e-05
2.93585e-05
2.93604e-05
2.96469e-05
2.96466e-05
2.96468e-05
2.96465e-05
2.96468e-05
2.96468e-05
2.96467e-05
2.93584e-05
2.93602e-05
2.96469e-05
2.96468e-05
2.96468e-05
2.93604e-05
2.93586e-05
2.93604e-05
2.96468e-05
2.96467e-05
2.96466e-05
2.96466e-05
2.93585e-05
2.93603e-05
2.96469e-05
2.96466e-05
2.96468e-05
2.96465e-05
2.96468e-05
2.96468e-05
2.96467e-05
2.93584e-05
2.93602e-05
2.96469e-05
2.96468e-05
2.96468e-05
2.93604e-05
2.93585e-05
2.93604e-05
2.96468e-05
2.96467e-05
2.96466e-05
2.96466e-05
2.93585e-05
2.93604e-05
2.96469e-05
2.96466e-05
2.96468e-05
2.96465e-05
2.96468e-05
2.96468e-05
2.96467e-05
2.93584e-05
2.93602e-05
2.96469e-05
2.96468e-05
2.96468e-05
2.93604e-05
2.93585e-05
2.93604e-05
2.96468e-05
2.96467e-05
2.96466e-05
2.96466e-05
2.93585e-05
2.93604e-05
2.96469e-05
2.96466e-05
2.96468e-05
2.96465e-05
2.96468e-05
2.96468e-05
2.96467e-05
2.93584e-05
2.93602e-05
2.96469e-05
2.96468e-05
2.96468e-05
2.93604e-05
2.93585e-05
2.93604e-05
2.96468e-05
2.96467e-05
2.96466e-05
2.96466e-05
2.93585e-05
2.93604e-05
2.96469e-05
2.96466e-05
2.96468e-05
2.96465e-05
2.96468e-05
2.96468e-05
2.96467e-05
2.93584e-05
2.93602e-05
2.96469e-05
2.96468e-05
2.96468e-05
2.93604e-05
2.93585e-05
2.93604e-05
2.96468e-05
2.96467e-05
2.96466e-05
2.96466e-05
2.93585e-05
2.93604e-05
2.96469e-05
2.96466e-05
2.96468e-05
2.96465e-05
2.96468e-05
2.96468e-05
2.96467e-05
2.93584e-05
2.93602e-05
2.96469e-05
2.96468e-05
2.96468e-05
2.93604e-05
2.93585e-05
2.93604e-05
2.96468e-05
2.96467e-05
2.96466e-05
2.96466e-05
2.93585e-05
2.93604e-05
2.96469e-05
2.96466e-05
2.96468e-05
2.96465e-05
2.96468e-05
2.96468e-05
2.96467e-05
2.93584e-05
2.93602e-05
2.96469e-05
2.96468e-05
2.96468e-05
2.93604e-05
2.93586e-05
2.93604e-05
2.96468e-05
2.96467e-05
2.96466e-05
2.96466e-05
2.93585e-05
2.93604e-05
2.96469e-05
2.96466e-05
2.96468e-05
2.96465e-05
2.96468e-05
2.96468e-05
2.96467e-05
2.93584e-05
2.93602e-05
2.96469e-05
2.96468e-05
2.96468e-05
2.93604e-05
2.93585e-05
2.93604e-05
2.96468e-05
2.96467e-05
2.96466e-05
2.96466e-05
2.93585e-05
2.93604e-05
2.96469e-05
2.96466e-05
2.96468e-05
2.96465e-05
2.96468e-05
2.96468e-05
2.96467e-05
2.93584e-05
2.93602e-05
2.96469e-05
2.96468e-05
2.96468e-05
2.93604e-05
2.93585e-05
2.93604e-05
2.96468e-05
2.96467e-05
2.96466e-05
2.96466e-05
2.93585e-05
2.93604e-05
2.96469e-05
2.96466e-05
2.96468e-05
2.96465e-05
2.96468e-05
2.96468e-05
2.96467e-05
2.93584e-05
2.93602e-05
2.96469e-05
2.96468e-05
2.96468e-05
2.93604e-05
2.93585e-05
2.93604e-05
2.96468e-05
2.96467e-05
2.96466e-05
2.96466e-05
2.93585e-05
2.93604e-05
2.96469e-05
2.96466e-05
2.96468e-05
2.96465e-05
2.96468e-05
2.96468e-05
2.96467e-05
2.93584e-05
2.93602e-05
2.96469e-05
2.96468e-05
2.96468e-05
2.93604e-05
2.93585e-05
2.96468e-05
2.96467e-05
2.93585e-05
2.96469e-05
2.96466e-05
2.96467e-05
2.93584e-05
2.96468e-05
3.07828e-05
6.68026e-05
8.4474e-05
3.07832e-05
6.68052e-05
2.98696e-05
2.98697e-05
2.98697e-05
2.98697e-05
2.87258e-05
2.96566e-05
3.04312e-05
2.97953e-05
8.44705e-05
2.87259e-05
2.96565e-05
2.97953e-05
3.04314e-05
2.93708e-05
3.31822e-05
3.31827e-05
3.07845e-05
6.68032e-05
3.07851e-05
6.68005e-05
8.44671e-05
8.44625e-05
3.07852e-05
6.68059e-05
3.07854e-05
6.68031e-05
2.98697e-05
2.98697e-05
2.98697e-05
2.98697e-05
2.98696e-05
2.98695e-05
2.98696e-05
2.87261e-05
3.04348e-05
2.97952e-05
2.96565e-05
2.87257e-05
3.04327e-05
2.97952e-05
8.44643e-05
8.44591e-05
2.87262e-05
2.97952e-05
3.04347e-05
2.96564e-05
2.87259e-05
2.97952e-05
3.04327e-05
3.31878e-05
3.31883e-05
2.93709e-05
3.3189e-05
3.31895e-05
3.07865e-05
6.68015e-05
3.07874e-05
6.67991e-05
8.4461e-05
8.44595e-05
3.07872e-05
6.68042e-05
3.07879e-05
6.68017e-05
2.98696e-05
2.98695e-05
2.98696e-05
2.98694e-05
2.98694e-05
2.98694e-05
2.98694e-05
2.87267e-05
3.04355e-05
2.97951e-05
2.96565e-05
2.87266e-05
3.04336e-05
2.97952e-05
8.44579e-05
8.4456e-05
2.87272e-05
2.97951e-05
3.04353e-05
2.96565e-05
2.87266e-05
2.97952e-05
3.04336e-05
3.31932e-05
3.31936e-05
2.93711e-05
3.31934e-05
3.31938e-05
3.07859e-05
6.6801e-05
3.07881e-05
6.6801e-05
8.44614e-05
8.44633e-05
3.07867e-05
6.68037e-05
3.07887e-05
6.68036e-05
2.98694e-05
2.98694e-05
2.98694e-05
2.98675e-05
2.98676e-05
2.98675e-05
2.98675e-05
2.87264e-05
3.04366e-05
2.9795e-05
2.96562e-05
2.87271e-05
3.04339e-05
2.97949e-05
8.44585e-05
8.44602e-05
2.87264e-05
2.9795e-05
3.04365e-05
2.96561e-05
2.8727e-05
2.97948e-05
3.0434e-05
3.31954e-05
3.31958e-05
2.93707e-05
3.31935e-05
3.31939e-05
3.07787e-05
6.6817e-05
3.07846e-05
6.68189e-05
8.44715e-05
8.44708e-05
3.07788e-05
6.68196e-05
3.0785e-05
6.68215e-05
2.98652e-05
2.98651e-05
2.98651e-05
2.98609e-05
2.98609e-05
2.98609e-05
2.98609e-05
2.87156e-05
3.04334e-05
2.97905e-05
2.96494e-05
2.87216e-05
3.0427e-05
2.97885e-05
8.44685e-05
8.44675e-05
2.87156e-05
2.97905e-05
3.04332e-05
2.96493e-05
2.87216e-05
2.97885e-05
3.0427e-05
3.31922e-05
3.31926e-05
2.93627e-05
3.3185e-05
3.31854e-05
3.07745e-05
6.68207e-05
3.07764e-05
6.68184e-05
8.44712e-05
8.44701e-05
3.07753e-05
6.68234e-05
3.0777e-05
6.68211e-05
2.98608e-05
2.98608e-05
2.98608e-05
2.98605e-05
2.98606e-05
2.98606e-05
2.98606e-05
2.87142e-05
3.04257e-05
2.9786e-05
2.96469e-05
2.87141e-05
3.04227e-05
2.9786e-05
8.44684e-05
8.44667e-05
2.87143e-05
2.97859e-05
3.04258e-05
2.96468e-05
2.87142e-05
2.9786e-05
3.0423e-05
3.31819e-05
3.31823e-05
2.93604e-05
3.31804e-05
3.31808e-05
3.07744e-05
6.68203e-05
3.07759e-05
6.68183e-05
8.44711e-05
8.447e-05
3.07752e-05
6.68226e-05
3.07765e-05
6.68203e-05
2.98607e-05
2.98607e-05
2.98607e-05
2.98605e-05
2.98606e-05
2.98606e-05
2.98606e-05
2.87142e-05
3.0425e-05
2.97859e-05
2.96469e-05
2.8714e-05
3.04225e-05
2.9786e-05
8.44681e-05
8.44667e-05
2.87143e-05
2.97859e-05
3.04251e-05
2.96468e-05
2.87141e-05
2.9786e-05
3.04228e-05
3.31815e-05
3.31819e-05
2.93604e-05
3.31803e-05
3.31807e-05
3.07744e-05
6.68202e-05
3.07759e-05
6.68183e-05
8.44709e-05
8.44698e-05
3.07752e-05
6.68221e-05
3.07765e-05
6.68199e-05
2.98607e-05
2.98607e-05
2.98607e-05
2.98605e-05
2.98606e-05
2.98606e-05
2.98606e-05
2.87142e-05
3.0425e-05
2.97859e-05
2.96469e-05
2.8714e-05
3.04225e-05
2.9786e-05
8.44681e-05
8.44667e-05
2.87143e-05
2.97859e-05
3.0425e-05
2.96468e-05
2.87141e-05
2.9786e-05
3.04228e-05
3.31815e-05
3.31819e-05
2.93604e-05
3.31803e-05
3.31807e-05
3.07744e-05
6.68202e-05
3.07759e-05
6.68183e-05
8.44709e-05
8.44698e-05
3.07752e-05
6.68219e-05
3.07765e-05
6.68198e-05
2.98607e-05
2.98607e-05
2.98607e-05
2.98605e-05
2.98606e-05
2.98606e-05
2.98606e-05
2.87142e-05
3.0425e-05
2.97859e-05
2.96469e-05
2.8714e-05
3.04225e-05
2.9786e-05
8.44681e-05
8.44667e-05
2.87143e-05
2.97859e-05
3.0425e-05
2.96468e-05
2.87141e-05
2.9786e-05
3.04228e-05
3.31815e-05
3.31819e-05
2.93604e-05
3.31803e-05
3.31807e-05
3.07744e-05
6.68202e-05
3.07759e-05
6.68183e-05
8.44709e-05
8.44698e-05
3.07752e-05
6.68218e-05
3.07765e-05
6.68197e-05
2.98607e-05
2.98607e-05
2.98607e-05
2.98605e-05
2.98606e-05
2.98606e-05
2.98606e-05
2.87142e-05
3.0425e-05
2.97859e-05
2.96469e-05
2.8714e-05
3.04225e-05
2.9786e-05
8.44681e-05
8.44667e-05
2.87143e-05
2.97859e-05
3.0425e-05
2.96468e-05
2.87141e-05
2.9786e-05
3.04228e-05
3.31815e-05
3.31819e-05
2.93604e-05
3.31803e-05
3.31807e-05
3.07744e-05
6.68202e-05
3.07759e-05
6.68183e-05
8.44709e-05
8.44698e-05
3.07752e-05
6.68218e-05
3.07765e-05
6.68197e-05
2.98607e-05
2.98607e-05
2.98607e-05
2.98605e-05
2.98606e-05
2.98606e-05
2.98606e-05
2.87142e-05
3.04249e-05
2.97859e-05
2.96469e-05
2.8714e-05
3.04225e-05
2.9786e-05
8.44681e-05
8.44667e-05
2.87143e-05
2.97859e-05
3.0425e-05
2.96468e-05
2.87141e-05
2.9786e-05
3.04228e-05
3.31815e-05
3.31819e-05
2.93604e-05
3.31803e-05
3.31807e-05
3.07744e-05
6.68202e-05
3.07759e-05
6.68183e-05
8.44709e-05
8.44698e-05
3.07752e-05
6.68218e-05
3.07765e-05
6.68197e-05
2.98607e-05
2.98607e-05
2.98607e-05
2.98605e-05
2.98606e-05
2.98606e-05
2.98606e-05
2.87142e-05
3.04249e-05
2.97859e-05
2.96469e-05
2.8714e-05
3.04225e-05
2.9786e-05
8.44681e-05
8.44667e-05
2.87143e-05
2.97859e-05
3.0425e-05
2.96468e-05
2.87141e-05
2.9786e-05
3.04228e-05
3.31815e-05
3.31819e-05
2.93604e-05
3.31803e-05
3.31807e-05
3.07744e-05
6.68202e-05
3.07759e-05
6.68183e-05
8.44709e-05
8.44699e-05
3.07752e-05
6.68218e-05
3.07765e-05
6.68197e-05
2.98607e-05
2.98607e-05
2.98607e-05
2.98605e-05
2.98606e-05
2.98606e-05
2.98606e-05
2.87142e-05
3.04249e-05
2.97859e-05
2.96469e-05
2.8714e-05
3.04225e-05
2.9786e-05
8.44681e-05
8.44667e-05
2.87143e-05
2.97859e-05
3.0425e-05
2.96468e-05
2.87141e-05
2.9786e-05
3.04228e-05
3.31815e-05
3.31819e-05
2.93604e-05
3.31803e-05
3.31807e-05
3.07744e-05
6.68202e-05
3.07759e-05
6.68183e-05
8.44709e-05
8.44699e-05
3.07752e-05
6.68218e-05
3.07765e-05
6.68197e-05
2.98607e-05
2.98607e-05
2.98607e-05
2.98605e-05
2.98606e-05
2.98606e-05
2.98606e-05
2.87142e-05
3.04249e-05
2.97859e-05
2.96469e-05
2.8714e-05
3.04225e-05
2.9786e-05
8.44681e-05
8.44667e-05
2.87143e-05
2.97859e-05
3.0425e-05
2.96468e-05
2.87141e-05
2.9786e-05
3.04228e-05
3.31815e-05
3.31819e-05
2.93604e-05
3.31803e-05
3.31807e-05
3.07744e-05
6.68202e-05
3.07759e-05
6.68183e-05
8.44709e-05
8.44698e-05
3.07752e-05
6.68218e-05
3.07765e-05
6.68197e-05
2.98607e-05
2.98607e-05
2.98607e-05
2.98605e-05
2.98606e-05
2.98606e-05
2.98606e-05
2.87142e-05
3.04249e-05
2.97859e-05
2.96469e-05
2.8714e-05
3.04225e-05
2.9786e-05
8.44681e-05
8.44666e-05
2.87141e-05
2.97859e-05
3.0425e-05
2.96468e-05
2.8714e-05
2.9786e-05
3.04228e-05
3.31815e-05
3.31819e-05
2.93604e-05
3.31803e-05
3.31807e-05
3.07744e-05
6.68202e-05
3.07759e-05
6.68182e-05
8.44709e-05
8.44698e-05
3.07752e-05
6.68218e-05
3.07765e-05
6.68197e-05
2.98607e-05
2.98607e-05
2.98607e-05
2.98605e-05
2.98606e-05
2.98606e-05
2.98606e-05
2.87142e-05
3.0425e-05
2.97859e-05
2.96469e-05
2.8714e-05
3.04225e-05
2.9786e-05
8.44681e-05
8.44666e-05
2.8714e-05
2.97859e-05
3.0425e-05
2.96468e-05
2.87139e-05
2.9786e-05
3.04227e-05
3.31815e-05
3.31819e-05
2.93604e-05
3.31803e-05
3.31807e-05
3.07744e-05
6.68202e-05
3.07759e-05
6.68183e-05
8.44709e-05
8.44698e-05
3.07752e-05
6.68218e-05
3.07765e-05
6.68197e-05
2.98607e-05
2.98607e-05
2.98607e-05
2.98605e-05
2.98606e-05
2.98606e-05
2.98606e-05
2.87142e-05
3.0425e-05
2.97859e-05
2.96469e-05
2.8714e-05
3.04225e-05
2.9786e-05
8.44681e-05
8.44667e-05
2.8714e-05
2.97859e-05
3.0425e-05
2.96468e-05
2.87139e-05
2.9786e-05
3.04227e-05
3.31815e-05
3.31819e-05
2.93604e-05
3.31803e-05
3.31807e-05
3.07744e-05
6.68202e-05
3.07759e-05
6.68183e-05
8.44709e-05
8.44699e-05
3.07752e-05
6.68218e-05
3.07765e-05
6.68197e-05
2.98607e-05
2.98606e-05
2.98606e-05
2.87145e-05
3.04249e-05
2.97859e-05
2.96468e-05
2.8714e-05
3.04225e-05
2.97861e-05
8.44681e-05
8.44668e-05
2.87143e-05
2.97859e-05
3.0425e-05
2.96469e-05
2.87138e-05
2.97861e-05
3.04229e-05
3.31815e-05
3.31818e-05
2.93607e-05
3.31801e-05
3.31805e-05
8.44735e-05
8.44739e-05
2.9371e-05
3.31824e-05
3.31825e-05
8.44668e-05
8.4473e-05
8.44672e-05
8.44735e-05
2.93692e-05
3.31861e-05
3.31862e-05
3.31845e-05
3.31846e-05
3.07829e-05
6.68045e-05
2.87261e-05
2.96565e-05
3.04315e-05
2.97954e-05
2.87262e-05
2.96564e-05
3.04322e-05
2.97953e-05
3.07848e-05
6.68015e-05
6.68038e-05
3.07834e-05
3.07848e-05
6.68034e-05
6.68057e-05
3.07835e-05
2.87264e-05
2.96564e-05
3.04324e-05
2.97953e-05
3.04344e-05
2.97953e-05
2.87262e-05
2.87265e-05
2.96564e-05
3.04331e-05
2.97953e-05
3.04351e-05
2.97953e-05
2.87263e-05
2.9371e-05
3.31829e-05
3.31785e-05
8.44696e-05
8.44672e-05
8.44735e-05
2.93692e-05
3.31867e-05
3.31829e-05
3.31852e-05
3.31816e-05
8.4463e-05
8.44699e-05
2.87264e-05
2.96566e-05
3.04322e-05
2.97954e-05
3.07827e-05
6.68031e-05
2.87263e-05
2.96563e-05
2.97953e-05
3.04313e-05
3.07849e-05
6.68041e-05
6.68066e-05
3.07838e-05
2.87267e-05
2.96566e-05
3.04331e-05
2.97953e-05
3.0435e-05
2.97953e-05
2.87266e-05
3.07845e-05
6.6802e-05
6.68045e-05
3.07835e-05
2.87266e-05
2.96563e-05
2.97952e-05
3.04323e-05
2.97952e-05
3.04344e-05
2.87264e-05
3.07829e-05
6.68022e-05
2.87261e-05
2.96565e-05
2.97954e-05
3.04314e-05
3.07827e-05
6.68043e-05
2.87262e-05
2.96566e-05
3.04322e-05
2.97953e-05
3.04343e-05
2.97953e-05
2.87258e-05
3.07849e-05
6.68011e-05
6.68036e-05
3.07836e-05
2.87264e-05
2.96564e-05
2.97953e-05
3.04323e-05
2.97953e-05
3.04343e-05
2.87262e-05
3.07848e-05
6.68031e-05
6.68055e-05
3.07835e-05
2.93709e-05
3.31794e-05
3.31823e-05
8.44738e-05
8.44638e-05
8.44708e-05
2.9369e-05
3.31837e-05
3.3186e-05
3.31821e-05
3.31844e-05
8.44671e-05
8.44734e-05
2.87264e-05
2.96566e-05
2.97954e-05
3.0432e-05
3.07828e-05
6.68047e-05
3.0783e-05
6.68061e-05
2.87263e-05
2.96565e-05
2.97952e-05
3.04324e-05
2.97953e-05
3.04344e-05
2.87259e-05
2.87268e-05
2.96566e-05
2.97953e-05
3.04329e-05
2.97953e-05
3.04349e-05
2.87266e-05
3.07846e-05
6.68035e-05
6.68059e-05
3.07835e-05
3.07848e-05
6.6805e-05
6.68073e-05
3.07837e-05
8.4474e-05
8.44742e-05
2.9369e-05
3.31858e-05
3.31863e-05
3.31843e-05
3.31848e-05
8.44672e-05
8.44735e-05
8.44674e-05
8.44737e-05
8.44667e-05
8.44619e-05
8.44671e-05
8.44623e-05
3.31881e-05
3.31883e-05
2.9371e-05
3.31893e-05
3.31894e-05
8.44596e-05
8.44625e-05
8.44601e-05
8.4463e-05
2.93692e-05
3.31918e-05
3.31919e-05
3.31911e-05
3.31913e-05
3.07849e-05
6.68043e-05
3.07856e-05
6.68023e-05
2.87267e-05
3.04352e-05
2.97954e-05
2.96565e-05
2.87268e-05
3.04328e-05
2.97954e-05
2.87268e-05
3.0436e-05
2.97954e-05
2.96565e-05
2.87269e-05
3.04335e-05
2.97954e-05
3.07866e-05
6.67997e-05
6.68015e-05
3.07857e-05
3.0787e-05
6.68015e-05
6.68034e-05
3.07861e-05
2.87272e-05
2.96565e-05
3.04332e-05
2.97953e-05
3.04355e-05
2.97954e-05
2.8727e-05
2.87273e-05
2.96564e-05
3.04339e-05
2.97953e-05
3.04362e-05
2.97954e-05
2.87271e-05
3.31889e-05
3.31855e-05
2.9371e-05
3.319e-05
3.31861e-05
8.44636e-05
8.44581e-05
8.44602e-05
8.44631e-05
2.93691e-05
3.31925e-05
3.31885e-05
3.31919e-05
3.31884e-05
8.44558e-05
8.44591e-05
2.8727e-05
3.04359e-05
2.97954e-05
2.96566e-05
2.87271e-05
3.04335e-05
2.97954e-05
3.07849e-05
6.68031e-05
3.07854e-05
6.68009e-05
2.87269e-05
2.97953e-05
3.04354e-05
2.96564e-05
2.87269e-05
2.97953e-05
3.04329e-05
3.07871e-05
6.68023e-05
6.68043e-05
3.07864e-05
2.87275e-05
2.96566e-05
3.04339e-05
2.97953e-05
3.04361e-05
2.97954e-05
2.87273e-05
3.07869e-05
6.68002e-05
6.68022e-05
3.07861e-05
2.87273e-05
2.96564e-05
2.97953e-05
3.04333e-05
2.97953e-05
3.04359e-05
2.87272e-05
3.07847e-05
6.68022e-05
3.07856e-05
6.68e-05
2.87267e-05
2.97953e-05
3.04351e-05
2.96565e-05
2.87268e-05
2.97953e-05
3.04327e-05
3.07847e-05
6.68041e-05
3.07855e-05
6.68021e-05
2.87266e-05
2.96564e-05
3.0433e-05
2.97951e-05
3.04356e-05
2.97952e-05
2.87266e-05
3.07868e-05
6.67993e-05
6.68012e-05
3.07859e-05
2.87271e-05
2.96564e-05
2.97952e-05
3.0433e-05
2.97952e-05
3.04354e-05
2.87269e-05
3.07868e-05
6.68013e-05
6.68031e-05
3.07859e-05
3.31862e-05
3.3188e-05
2.93708e-05
3.3187e-05
3.31891e-05
8.4467e-05
8.44622e-05
8.44567e-05
8.446e-05
2.9369e-05
3.31895e-05
3.31917e-05
3.31891e-05
3.3191e-05
8.44599e-05
8.44628e-05
2.87268e-05
2.97953e-05
3.04357e-05
2.96566e-05
2.87269e-05
2.97953e-05
3.04332e-05
3.07849e-05
6.68045e-05
3.07854e-05
6.68025e-05
3.07851e-05
6.68059e-05
3.07857e-05
6.68039e-05
2.87267e-05
2.96564e-05
2.97951e-05
3.0433e-05
2.97951e-05
3.04354e-05
2.87266e-05
2.87273e-05
2.96566e-05
2.97952e-05
3.04335e-05
2.97952e-05
3.04359e-05
2.87271e-05
3.07868e-05
6.68017e-05
6.68035e-05
3.07861e-05
3.0787e-05
6.68031e-05
6.6805e-05
3.07863e-05
8.44671e-05
8.44623e-05
8.44673e-05
8.44625e-05
2.93691e-05
3.31915e-05
3.3192e-05
3.31909e-05
3.31913e-05
8.446e-05
8.44629e-05
8.44602e-05
8.44632e-05
8.44607e-05
8.44589e-05
8.44611e-05
8.44594e-05
3.31935e-05
3.31936e-05
2.93712e-05
3.31937e-05
3.31938e-05
8.44591e-05
8.44603e-05
8.44596e-05
8.44608e-05
2.93693e-05
3.31948e-05
3.31949e-05
3.31953e-05
3.31954e-05
3.07869e-05
6.68026e-05
3.07881e-05
6.6801e-05
2.87274e-05
3.0436e-05
2.97954e-05
2.96567e-05
2.87275e-05
3.04339e-05
2.97954e-05
2.87276e-05
3.04367e-05
2.97953e-05
2.96565e-05
2.87277e-05
3.04346e-05
2.97953e-05
3.07884e-05
6.67989e-05
6.68003e-05
3.07868e-05
3.07888e-05
6.68008e-05
6.68022e-05
3.07872e-05
2.87279e-05
2.96566e-05
3.04345e-05
2.97952e-05
3.04368e-05
2.97952e-05
2.87273e-05
2.8728e-05
2.96565e-05
3.04352e-05
2.97951e-05
3.04375e-05
2.97951e-05
2.87276e-05
3.31943e-05
3.31906e-05
2.93711e-05
3.31943e-05
3.31904e-05
8.44572e-05
8.44551e-05
8.44596e-05
8.44608e-05
2.93693e-05
3.31953e-05
3.31914e-05
3.3196e-05
3.31923e-05
8.44553e-05
8.44568e-05
2.87278e-05
3.04366e-05
2.97954e-05
2.96567e-05
2.87278e-05
3.04347e-05
2.97954e-05
3.07869e-05
6.68015e-05
3.0788e-05
6.67997e-05
2.87276e-05
2.97953e-05
3.04363e-05
2.96565e-05
2.87277e-05
2.97952e-05
3.04339e-05
3.0789e-05
6.68015e-05
6.6803e-05
3.07875e-05
2.87282e-05
2.96567e-05
3.04353e-05
2.97952e-05
3.04375e-05
2.97953e-05
2.87274e-05
3.07887e-05
6.67996e-05
6.68011e-05
3.07873e-05
2.87281e-05
2.96565e-05
2.97951e-05
3.04344e-05
2.97951e-05
3.04369e-05
2.87274e-05
3.07867e-05
6.68005e-05
3.0788e-05
6.67987e-05
2.87274e-05
2.97953e-05
3.04358e-05
2.96566e-05
2.87275e-05
2.97952e-05
3.04338e-05
3.07867e-05
6.68024e-05
3.07879e-05
6.68007e-05
2.87272e-05
2.96565e-05
3.04341e-05
2.97951e-05
3.04366e-05
2.97951e-05
2.87272e-05
3.07887e-05
6.67985e-05
6.68001e-05
3.07871e-05
2.87279e-05
2.96565e-05
2.97951e-05
3.04343e-05
2.97952e-05
3.04366e-05
2.87274e-05
3.07886e-05
6.68005e-05
6.68019e-05
3.0787e-05
3.31914e-05
3.31934e-05
2.9371e-05
3.31912e-05
3.31935e-05
8.4461e-05
8.44592e-05
8.44562e-05
8.44578e-05
2.93691e-05
3.31921e-05
3.31946e-05
3.3193e-05
3.31951e-05
8.44594e-05
8.44606e-05
2.87276e-05
2.97952e-05
3.04363e-05
2.96567e-05
2.87276e-05
2.97952e-05
3.04342e-05
3.07869e-05
6.68028e-05
3.0788e-05
6.68011e-05
3.0787e-05
6.68042e-05
3.07881e-05
6.68025e-05
2.87276e-05
2.96564e-05
2.97951e-05
3.04342e-05
2.97951e-05
3.04365e-05
2.87271e-05
2.8728e-05
2.96566e-05
2.97951e-05
3.04348e-05
2.97952e-05
3.04371e-05
2.87274e-05
3.07887e-05
6.68009e-05
6.68023e-05
3.07873e-05
3.07888e-05
6.68023e-05
6.68037e-05
3.07873e-05
8.44611e-05
8.44593e-05
8.44613e-05
8.44595e-05
2.93693e-05
3.31944e-05
3.31948e-05
3.3195e-05
3.31954e-05
8.44595e-05
8.44607e-05
8.44597e-05
8.44609e-05
8.44612e-05
8.44628e-05
8.44616e-05
8.44633e-05
3.31959e-05
3.3196e-05
2.93706e-05
3.31939e-05
3.3194e-05
8.44691e-05
8.44655e-05
8.44696e-05
8.4466e-05
2.93683e-05
3.31922e-05
3.31923e-05
3.31948e-05
3.31949e-05
3.07863e-05
6.68022e-05
3.07889e-05
6.68027e-05
2.87262e-05
3.04372e-05
2.97951e-05
2.96561e-05
2.87271e-05
3.04342e-05
2.97949e-05
2.87264e-05
3.04379e-05
2.9795e-05
2.96561e-05
2.87273e-05
3.04349e-05
2.97949e-05
3.07875e-05
6.68104e-05
6.68034e-05
3.07839e-05
3.07878e-05
6.6812e-05
6.6805e-05
3.07842e-05
2.8726e-05
2.96556e-05
3.04321e-05
2.97931e-05
3.04366e-05
2.97944e-05
2.87237e-05
2.87262e-05
2.96556e-05
3.04327e-05
2.97931e-05
3.04373e-05
2.97944e-05
2.87237e-05
3.31965e-05
3.31928e-05
2.93706e-05
3.31944e-05
3.31907e-05
8.44578e-05
8.44592e-05
8.44696e-05
8.44661e-05
2.93683e-05
3.31926e-05
3.31887e-05
3.31954e-05
3.31919e-05
8.44652e-05
8.44627e-05
2.87265e-05
3.04378e-05
2.97951e-05
2.96563e-05
2.87272e-05
3.0435e-05
2.97949e-05
3.07864e-05
6.68011e-05
3.07888e-05
6.68015e-05
2.87265e-05
2.9795e-05
3.04373e-05
2.9656e-05
2.87272e-05
2.97948e-05
3.04341e-05
3.0788e-05
6.68129e-05
6.68063e-05
3.07846e-05
2.87263e-05
2.96557e-05
3.04328e-05
2.97931e-05
3.04373e-05
2.97944e-05
2.8724e-05
3.07877e-05
6.68106e-05
6.68041e-05
3.07842e-05
2.87262e-05
2.96555e-05
2.9793e-05
3.0432e-05
2.97944e-05
3.04367e-05
2.87238e-05
3.07862e-05
6.68001e-05
3.07888e-05
6.68005e-05
2.87263e-05
2.97951e-05
3.04369e-05
2.96561e-05
2.87272e-05
2.97949e-05
3.0434e-05
3.07861e-05
6.68019e-05
3.07887e-05
6.68024e-05
2.87262e-05
2.96557e-05
3.04319e-05
2.97931e-05
3.04365e-05
2.97944e-05
2.87237e-05
3.07877e-05
6.68097e-05
6.68031e-05
3.07842e-05
2.87261e-05
2.96556e-05
2.97931e-05
3.04318e-05
2.97944e-05
3.04364e-05
2.87236e-05
3.07876e-05
6.68117e-05
6.68047e-05
3.0784e-05
3.31934e-05
3.31957e-05
2.93704e-05
3.31912e-05
3.31937e-05
8.44614e-05
8.44631e-05
8.4466e-05
8.44637e-05
2.93682e-05
3.31895e-05
3.3192e-05
3.31924e-05
3.31946e-05
8.44694e-05
8.44657e-05
2.87264e-05
2.9795e-05
3.04374e-05
2.96562e-05
2.87272e-05
2.97948e-05
3.04345e-05
3.07864e-05
6.68023e-05
3.07888e-05
6.68027e-05
3.07864e-05
6.68037e-05
3.07888e-05
6.68041e-05
2.87262e-05
2.96556e-05
2.97931e-05
3.04319e-05
2.97944e-05
3.04364e-05
2.87238e-05
2.87262e-05
2.96557e-05
2.97931e-05
3.04323e-05
2.97944e-05
3.04369e-05
2.87237e-05
3.07877e-05
6.6812e-05
6.68051e-05
3.07843e-05
3.07877e-05
6.68135e-05
6.68065e-05
3.07843e-05
8.44615e-05
8.44632e-05
8.44618e-05
8.44634e-05
2.93684e-05
3.31919e-05
3.31923e-05
3.31945e-05
3.31949e-05
8.44695e-05
8.44659e-05
8.44697e-05
8.44661e-05
8.44712e-05
8.44703e-05
8.44716e-05
8.44707e-05
3.31925e-05
3.31926e-05
2.93626e-05
3.31852e-05
3.31852e-05
8.44698e-05
8.44715e-05
8.44702e-05
8.44719e-05
2.93595e-05
3.3181e-05
3.31811e-05
3.31847e-05
3.31847e-05
3.07789e-05
6.68185e-05
3.07852e-05
6.68213e-05
2.87155e-05
3.04337e-05
2.97905e-05
2.96492e-05
2.87218e-05
3.04271e-05
2.97885e-05
2.87156e-05
3.04344e-05
2.97905e-05
2.96492e-05
2.87218e-05
3.04278e-05
2.97885e-05
3.07793e-05
6.68188e-05
6.68203e-05
3.07753e-05
3.07795e-05
6.68211e-05
6.68226e-05
3.07755e-05
2.8715e-05
2.96476e-05
3.04239e-05
2.97862e-05
3.04287e-05
2.97869e-05
2.87143e-05
2.87151e-05
2.96476e-05
3.04246e-05
2.97862e-05
3.04294e-05
2.97869e-05
2.87144e-05
3.31931e-05
3.31896e-05
2.93626e-05
3.31858e-05
3.31824e-05
8.44679e-05
8.44667e-05
8.44702e-05
8.44719e-05
2.93595e-05
3.31814e-05
3.31771e-05
3.31856e-05
3.31828e-05
8.44662e-05
8.44683e-05
2.87157e-05
3.04343e-05
2.97905e-05
2.96494e-05
2.8722e-05
3.04278e-05
2.97885e-05
3.07786e-05
6.68173e-05
3.07849e-05
6.68202e-05
2.87155e-05
2.97905e-05
3.04339e-05
2.96491e-05
2.87218e-05
2.97884e-05
3.04271e-05
3.07793e-05
6.68214e-05
6.6823e-05
3.0776e-05
2.87152e-05
2.96478e-05
3.04245e-05
2.97862e-05
3.04293e-05
2.9787e-05
2.87146e-05
3.07791e-05
6.682e-05
6.68217e-05
3.07756e-05
2.87151e-05
2.96475e-05
2.97861e-05
3.04237e-05
2.97869e-05
3.04288e-05
2.87145e-05
3.07789e-05
6.68165e-05
3.07851e-05
6.68192e-05
2.87155e-05
2.97905e-05
3.04335e-05
2.96493e-05
2.87218e-05
2.97885e-05
3.0427e-05
3.07787e-05
6.68183e-05
3.07849e-05
6.68211e-05
2.87151e-05
2.96478e-05
3.04237e-05
2.97862e-05
3.04287e-05
2.9787e-05
2.87142e-05
3.07794e-05
6.68191e-05
6.68207e-05
3.07754e-05
2.8715e-05
2.96476e-05
2.97862e-05
3.04238e-05
2.97869e-05
3.04285e-05
2.87143e-05
3.07792e-05
6.68209e-05
6.68224e-05
3.07753e-05
3.31901e-05
3.31923e-05
2.93624e-05
3.3183e-05
3.3185e-05
8.44714e-05
8.44706e-05
8.44669e-05
8.44691e-05
2.93593e-05
3.3178e-05
3.31809e-05
3.3183e-05
3.31845e-05
8.44701e-05
8.44718e-05
2.87155e-05
2.97905e-05
3.0434e-05
2.96494e-05
2.87218e-05
2.97885e-05
3.04274e-05
3.07786e-05
6.68186e-05
3.0785e-05
6.68215e-05
3.07787e-05
6.68201e-05
3.07849e-05
6.68229e-05
2.87151e-05
2.96477e-05
2.97862e-05
3.04238e-05
2.9787e-05
3.04286e-05
2.87143e-05
2.8715e-05
2.96477e-05
2.97862e-05
3.04242e-05
2.97869e-05
3.0429e-05
2.87144e-05
3.07791e-05
6.68213e-05
6.68228e-05
3.07757e-05
3.07791e-05
6.68227e-05
6.68242e-05
3.07756e-05
8.44715e-05
8.44707e-05
8.44718e-05
8.44709e-05
2.93596e-05
3.3181e-05
3.31814e-05
3.31846e-05
3.3185e-05
8.44702e-05
8.44719e-05
8.44704e-05
8.44721e-05
8.4471e-05
8.44695e-05
8.44715e-05
8.447e-05
3.3182e-05
3.3182e-05
2.93604e-05
3.31804e-05
3.31805e-05
8.44695e-05
8.44709e-05
8.44699e-05
8.44713e-05
2.93586e-05
3.31803e-05
3.31804e-05
3.31816e-05
3.31817e-05
3.07748e-05
6.68223e-05
3.0777e-05
6.68209e-05
2.87143e-05
3.04261e-05
2.97861e-05
2.96467e-05
2.87146e-05
3.04229e-05
2.97861e-05
2.87144e-05
3.04269e-05
2.97861e-05
2.96467e-05
2.87147e-05
3.04237e-05
2.97861e-05
3.07763e-05
6.68183e-05
6.68197e-05
3.07744e-05
3.07766e-05
6.68207e-05
6.68221e-05
3.07747e-05
2.87145e-05
2.96466e-05
3.04227e-05
2.97859e-05
3.04255e-05
2.97859e-05
2.87142e-05
2.87147e-05
2.96466e-05
3.04235e-05
2.97859e-05
3.04262e-05
2.97859e-05
2.87144e-05
3.31824e-05
3.31782e-05
2.93603e-05
3.31808e-05
3.31765e-05
8.44679e-05
8.4466e-05
8.447e-05
8.44714e-05
2.93585e-05
3.31808e-05
3.31765e-05
3.31821e-05
3.31779e-05
8.44659e-05
8.44677e-05
2.87146e-05
3.04268e-05
2.97861e-05
2.96469e-05
2.87149e-05
3.04236e-05
2.97861e-05
3.07749e-05
6.68213e-05
3.0777e-05
6.68197e-05
2.87145e-05
2.97861e-05
3.04262e-05
2.96466e-05
2.87147e-05
2.9786e-05
3.04228e-05
3.07769e-05
6.68206e-05
6.68224e-05
3.07752e-05
2.87149e-05
2.96468e-05
3.04234e-05
2.9786e-05
3.04262e-05
2.9786e-05
2.87145e-05
3.07765e-05
6.68195e-05
6.6821e-05
3.07748e-05
2.87147e-05
2.96465e-05
2.97859e-05
3.04226e-05
2.97859e-05
3.04256e-05
2.87144e-05
3.07747e-05
6.68204e-05
3.0777e-05
6.68187e-05
2.87143e-05
2.97861e-05
3.04261e-05
2.96467e-05
2.87145e-05
2.97861e-05
3.04229e-05
3.07745e-05
6.68221e-05
3.07768e-05
6.68206e-05
2.87146e-05
2.96469e-05
3.04225e-05
2.97859e-05
3.04255e-05
2.9786e-05
2.87141e-05
3.07764e-05
6.68186e-05
6.68201e-05
3.07746e-05
2.87145e-05
2.96466e-05
2.97859e-05
3.04227e-05
2.97859e-05
3.04255e-05
2.87142e-05
3.07763e-05
6.68205e-05
6.68219e-05
3.07744e-05
3.31792e-05
3.31819e-05
2.93602e-05
3.31774e-05
3.31803e-05
8.44714e-05
8.44699e-05
8.44666e-05
8.44685e-05
2.93584e-05
3.31773e-05
3.31802e-05
3.31788e-05
3.31815e-05
8.44698e-05
8.44712e-05
2.87144e-05
2.97861e-05
3.04265e-05
2.96468e-05
2.87147e-05
2.9786e-05
3.04233e-05
3.0775e-05
6.68225e-05
3.0777e-05
6.6821e-05
3.07749e-05
6.68239e-05
3.0777e-05
6.68224e-05
2.87147e-05
2.96468e-05
2.97859e-05
3.04228e-05
2.9786e-05
3.04255e-05
2.87142e-05
2.87147e-05
2.96467e-05
2.97859e-05
3.04231e-05
2.97859e-05
3.04259e-05
2.87143e-05
3.07765e-05
6.68209e-05
6.68222e-05
3.07749e-05
3.07765e-05
6.68222e-05
6.68236e-05
3.07748e-05
8.44715e-05
8.447e-05
8.44717e-05
8.44702e-05
2.93586e-05
3.31803e-05
3.31807e-05
3.31816e-05
3.3182e-05
8.44699e-05
8.44713e-05
8.44702e-05
8.44715e-05
8.44708e-05
8.44694e-05
8.44713e-05
8.44699e-05
3.31815e-05
3.31816e-05
2.93603e-05
3.31803e-05
3.31804e-05
8.44694e-05
8.44708e-05
8.44699e-05
8.44712e-05
2.93585e-05
3.31803e-05
3.31804e-05
3.31815e-05
3.31816e-05
3.07746e-05
6.6822e-05
3.07765e-05
6.68207e-05
2.87143e-05
3.04254e-05
2.97861e-05
2.96467e-05
2.87146e-05
3.04227e-05
2.9786e-05
2.87144e-05
3.04261e-05
2.97861e-05
2.96467e-05
2.87148e-05
3.04234e-05
2.9786e-05
3.07762e-05
6.68183e-05
6.68195e-05
3.07744e-05
3.07765e-05
6.68205e-05
6.68219e-05
3.07747e-05
2.87145e-05
2.96467e-05
3.04227e-05
2.9786e-05
3.04254e-05
2.9786e-05
2.87142e-05
2.87147e-05
2.96467e-05
3.04234e-05
2.97859e-05
3.04261e-05
2.9786e-05
2.87144e-05
3.31821e-05
3.3178e-05
2.93603e-05
3.31808e-05
3.31765e-05
8.44677e-05
8.44659e-05
8.44698e-05
8.44713e-05
2.93584e-05
3.31808e-05
3.31764e-05
3.31821e-05
3.3178e-05
8.44659e-05
8.44677e-05
2.87146e-05
3.04263e-05
2.97861e-05
2.96469e-05
2.87149e-05
3.04236e-05
2.97861e-05
3.07748e-05
6.68209e-05
3.07764e-05
6.68195e-05
2.87144e-05
2.9786e-05
3.04254e-05
2.96466e-05
2.87148e-05
2.9786e-05
3.04226e-05
3.07769e-05
6.68201e-05
6.68216e-05