/*--------------------------------*- C++ -*----------------------------------*\
| =========                 |                                                 |
| \\      /  F ield         | OpenFOAM: The Open Source CFD Toolbox           |
|  \\    /   O peration     | Version:  2206                                  |
|   \\  /    A nd           | Website:  www.openfoam.com                      |
|    \\/     M anipulation  |                                                 |
\*---------------------------------------------------------------------------*/
FoamFile
{
    version     2.0;
    format      ascii;
    arch        "LSB;label=32;scalar=64";
    class       volScalarField;
    location    "17.5";
    object      nut;
}
// * * * * * * * * * * * * * * * * * * * * * * * * * * * * * * * * * * * * * //

dimensions      [0 2 -1 0 0 0 0];

internalField   nonuniform List<scalar> 
28335
(
0.000228062
0.000214199
0.000214194
0.00019673
0.000228062
0.000214196
0.000214191
0.000196729
0.000228062
0.000214196
0.00021419
0.000196727
0.000228035
0.000214158
0.000214153
0.000196668
0.000228044
0.000214148
0.000214143
0.000196653
0.000228046
0.00021415
0.000214145
0.000196649
0.000228046
0.00021415
0.000214146
0.000196652
0.000228046
0.00021415
0.000214146
0.000196649
0.000228046
0.00021415
0.000214146
0.000196649
0.000228046
0.00021415
0.000214146
0.00019665
0.000228046
0.00021415
0.000214146
0.00019665
0.000228046
0.00021415
0.000214146
0.00019665
0.000228046
0.000214151
0.000214146
0.00019665
0.000228046
0.00021415
0.000214146
0.00019665
0.000228046
0.000214151
0.000214146
0.00019665
0.000228046
0.000214151
0.000214146
0.00019665
0.000228046
0.000214151
0.000214146
0.00019665
0.000196863
0.00021419
0.000214187
0.000196866
0.000214197
0.000214182
0.0002142
0.000214188
0.000196858
0.000214195
0.000214196
0.000196859
0.000196737
0.00019686
0.000214189
0.000214187
0.00021419
0.000214187
0.000196739
0.000196863
0.000214196
0.000214182
0.000214197
0.000214182
0.000214188
0.000214196
0.000214188
0.000196731
0.000196855
0.000214195
0.000214191
0.000214195
0.000196857
0.000196734
0.00019686
0.000214191
0.000214187
0.000214189
0.000214188
0.000196736
0.000196862
0.000214197
0.000214183
0.000214197
0.000214182
0.000214188
0.000214196
0.000214188
0.000196729
0.000196854
0.000214195
0.000214191
0.000214195
0.000196857
0.000196733
0.000196821
0.000214188
0.000214187
0.000214166
0.000214165
0.000196735
0.000196824
0.000214195
0.00021418
0.000214174
0.000214159
0.000214186
0.000214178
0.000214166
0.000196726
0.000196816
0.000214193
0.000214173
0.000214173
0.000196819
0.000196674
0.000196781
0.000214147
0.000214145
0.000214136
0.000214134
0.000196677
0.000196784
0.000214154
0.000214139
0.000214143
0.000214127
0.000214146
0.000214146
0.000214134
0.000196669
0.000196775
0.000214153
0.000214141
0.000214142
0.00019678
0.000196657
0.000196783
0.000214139
0.000214137
0.00021414
0.000214138
0.000196659
0.000196785
0.000214147
0.000214131
0.000214147
0.000214132
0.000214138
0.00021415
0.000214138
0.000196651
0.000196776
0.000214145
0.000214145
0.000214146
0.00019678
0.000196654
0.000196782
0.00021414
0.000214138
0.00021414
0.000214138
0.000196657
0.000196785
0.000214147
0.000214132
0.000214148
0.000214132
0.000214138
0.000214151
0.000214139
0.000196648
0.000196776
0.000214146
0.000214146
0.000214146
0.00019678
0.000196656
0.00019678
0.000214141
0.000214139
0.00021414
0.000214138
0.000196659
0.000196783
0.000214148
0.000214133
0.000214148
0.000214132
0.00021414
0.000214151
0.000214139
0.00019665
0.000196774
0.000214147
0.000214146
0.000214146
0.000196778
0.000196654
0.000196781
0.000214141
0.000214139
0.00021414
0.000214138
0.000196657
0.000196784
0.000214148
0.000214133
0.000214147
0.000214132
0.00021414
0.000214151
0.000214139
0.000196648
0.000196775
0.000214147
0.000214146
0.000214146
0.000196778
0.000196655
0.000196781
0.000214141
0.000214139
0.00021414
0.000214138
0.000196657
0.000196784
0.000214148
0.000214133
0.000214147
0.000214132
0.00021414
0.000214151
0.000214139
0.000196649
0.000196775
0.000214147
0.000214146
0.000214146
0.000196779
0.000196655
0.000196781
0.000214141
0.000214139
0.00021414
0.000214138
0.000196658
0.000196784
0.000214148
0.000214133
0.000214147
0.000214132
0.00021414
0.000214151
0.000214139
0.000196649
0.000196775
0.000214147
0.000214146
0.000214146
0.000196779
0.000196655
0.000196781
0.000214141
0.000214139
0.00021414
0.000214138
0.000196658
0.000196784
0.000214148
0.000214133
0.000214147
0.000214132
0.00021414
0.000214151
0.000214139
0.000196649
0.000196775
0.000214147
0.000214146
0.000214146
0.000196779
0.000196655
0.000196781
0.000214141
0.000214139
0.00021414
0.000214138
0.000196658
0.000196784
0.000214148
0.000214133
0.000214147
0.000214132
0.00021414
0.000214151
0.000214139
0.000196649
0.000196775
0.000214147
0.000214146
0.000214146
0.000196779
0.000196655
0.000196781
0.000214141
0.000214139
0.00021414
0.000214138
0.000196658
0.000196784
0.000214148
0.000214133
0.000214147
0.000214132
0.00021414
0.000214151
0.000214139
0.000196649
0.000196775
0.000214147
0.000214146
0.000214146
0.000196779
0.000196655
0.000196781
0.000214141
0.000214139
0.00021414
0.000214138
0.000196658
0.000196784
0.000214148
0.000214133
0.000214147
0.000214132
0.00021414
0.000214151
0.000214139
0.000196649
0.000196775
0.000214147
0.000214146
0.000214146
0.000196779
0.000196655
0.000196781
0.000214141
0.000214139
0.00021414
0.000214138
0.000196658
0.000196784
0.000214148
0.000214133
0.000214147
0.000214132
0.00021414
0.000214151
0.000214139
0.000196649
0.000196775
0.000214147
0.000214146
0.000214146
0.000196779
0.000196655
0.000196781
0.000214141
0.000214139
0.00021414
0.000214138
0.000196658
0.000196784
0.000214148
0.000214133
0.000214147
0.000214132
0.00021414
0.000214151
0.000214139
0.000196649
0.000196775
0.000214147
0.000214146
0.000214146
0.000196779
0.000196655
0.000214141
0.000214139
0.000196657
0.000214148
0.000214132
0.000214139
0.000196649
0.000214146
5.30525e-05
4.84141e-05
2.60217e-05
5.3052e-05
4.84101e-05
0.000228062
0.000228064
0.000228062
0.000228063
0.000126868
0.000214201
6.44323e-05
0.000223682
2.60192e-05
0.000126867
0.000214196
0.000223681
6.44354e-05
0.000196865
3.70392e-05
3.70324e-05
5.3053e-05
4.84143e-05
5.30399e-05
4.84133e-05
2.60206e-05
2.60199e-05
5.30599e-05
4.84103e-05
5.30455e-05
4.84093e-05
0.000228062
0.00022806
0.000228061
0.000228062
0.000228061
0.000228059
0.000228061
0.000126864
6.4415e-05
0.000223681
0.000214197
0.000126836
6.44338e-05
0.000223679
2.60183e-05
2.60175e-05
0.000126863
0.00022368
6.44178e-05
0.000214192
0.000126834
0.000223678
6.44351e-05
3.7046e-05
3.70392e-05
0.000196859
3.70538e-05
3.70469e-05
5.30618e-05
4.84137e-05
5.30496e-05
4.84128e-05
2.60197e-05
2.60194e-05
5.30693e-05
4.84097e-05
5.30579e-05
4.84088e-05
0.000228061
0.000228059
0.000228061
0.000228062
0.000228062
0.000228061
0.000228062
0.000126868
6.44156e-05
0.000223679
0.000214197
0.00012684
6.44364e-05
0.000223681
2.60173e-05
2.6017e-05
0.00012687
0.000223677
6.44179e-05
0.000214192
0.000126836
0.000223679
6.44385e-05
3.70564e-05
3.70494e-05
0.000196859
3.70625e-05
3.70554e-05
5.30587e-05
4.84135e-05
5.30537e-05
4.84135e-05
2.60197e-05
2.602e-05
5.30662e-05
4.84095e-05
5.30621e-05
4.84094e-05
0.000228062
0.00022806
0.000228061
0.000228047
0.000228047
0.000228046
0.000228046
0.000126863
6.44202e-05
0.00022368
0.000214194
0.000126844
6.44344e-05
0.000223679
2.60174e-05
2.60176e-05
0.000126863
0.000223679
6.44235e-05
0.000214189
0.000126843
0.000223677
6.44371e-05
3.70619e-05
3.70549e-05
0.000196852
3.7062e-05
3.70549e-05
5.30177e-05
4.84191e-05
5.30236e-05
4.84199e-05
2.60212e-05
2.60211e-05
5.30235e-05
4.84151e-05
5.30315e-05
4.84159e-05
0.000228036
0.000228034
0.000228035
0.00022804
0.000228041
0.000228039
0.00022804
0.00012677
6.43898e-05
0.000223647
0.000214148
0.000126789
6.43924e-05
0.000223643
2.60189e-05
2.60187e-05
0.000126769
0.000223646
6.43932e-05
0.000214143
0.000126787
0.000223642
6.4395e-05
3.70472e-05
3.70401e-05
0.00019678
3.7039e-05
3.70319e-05
5.30079e-05
4.84206e-05
5.2999e-05
4.84198e-05
2.60212e-05
2.6021e-05
5.30157e-05
4.84166e-05
5.30075e-05
4.84157e-05
0.000228045
0.000228043
0.000228044
0.000228046
0.000228046
0.000228045
0.000228046
0.000126767
6.43622e-05
0.00022365
0.00021415
0.000126737
6.43798e-05
0.000223651
2.60189e-05
2.60186e-05
0.000126767
0.000223649
6.43661e-05
0.000214145
0.000126737
0.00022365
6.43829e-05
3.70292e-05
3.70221e-05
0.000196785
3.70322e-05
3.70251e-05
5.30077e-05
4.84204e-05
5.29981e-05
4.84197e-05
2.60212e-05
2.6021e-05
5.30156e-05
4.84165e-05
5.30068e-05
4.84157e-05
0.000228046
0.000228045
0.000228045
0.000228046
0.000228046
0.000228045
0.000228046
0.000126766
6.43605e-05
0.000223651
0.000214151
0.000126738
6.43793e-05
0.000223652
2.60188e-05
2.60186e-05
0.000126767
0.00022365
6.43644e-05
0.000214146
0.000126738
0.000223651
6.43825e-05
3.70288e-05
3.70218e-05
0.000196777
3.70322e-05
3.70251e-05
5.30078e-05
4.84204e-05
5.29981e-05
4.84197e-05
2.60214e-05
2.60212e-05
5.30156e-05
4.84164e-05
5.30069e-05
4.84156e-05
0.000228047
0.000228045
0.000228046
0.000228046
0.000228046
0.000228045
0.000228046
0.000126767
6.43605e-05
0.000223652
0.000214151
0.000126738
6.43793e-05
0.000223652
2.60188e-05
2.60186e-05
0.000126767
0.000223651
6.43644e-05
0.000214146
0.000126737
0.000223651
6.43825e-05
3.70288e-05
3.70218e-05
0.000196781
3.70322e-05
3.70251e-05
5.30077e-05
4.84204e-05
5.29981e-05
4.84197e-05
2.60213e-05
2.60212e-05
5.30156e-05
4.84163e-05
5.30069e-05
4.84155e-05
0.000228047
0.000228045
0.000228046
0.000228046
0.000228046
0.000228045
0.000228046
0.000126767
6.43605e-05
0.000223652
0.000214151
0.000126738
6.43793e-05
0.000223652
2.60188e-05
2.60186e-05
0.000126766
0.000223651
6.43644e-05
0.000214146
0.000126737
0.000223651
6.43825e-05
3.70288e-05
3.70218e-05
0.000196781
3.70322e-05
3.70251e-05
5.30077e-05
4.84204e-05
5.29981e-05
4.84197e-05
2.60213e-05
2.60212e-05
5.30156e-05
4.84162e-05
5.30069e-05
4.84155e-05
0.000228047
0.000228045
0.000228046
0.000228046
0.000228046
0.000228045
0.000228045
0.000126766
6.43605e-05
0.000223652
0.000214151
0.000126738
6.43793e-05
0.000223652
2.60188e-05
2.60186e-05
0.000126766
0.000223651
6.43644e-05
0.000214146
0.000126737
0.000223651
6.43825e-05
3.70288e-05
3.70218e-05
0.00019678
3.70322e-05
3.70251e-05
5.30077e-05
4.84204e-05
5.29981e-05
4.84197e-05
2.60214e-05
2.60212e-05
5.30156e-05
4.84162e-05
5.30068e-05
4.84155e-05
0.000228047
0.000228045
0.000228046
0.000228046
0.000228046
0.000228045
0.000228046
0.000126766
6.43605e-05
0.000223652
0.000214151
0.000126738
6.43793e-05
0.000223652
2.60188e-05
2.60186e-05
0.000126766
0.000223651
6.43644e-05
0.000214146
0.000126737
0.000223651
6.43825e-05
3.70288e-05
3.70218e-05
0.00019678
3.70322e-05
3.70251e-05
5.30077e-05
4.84204e-05
5.2998e-05
4.84197e-05
2.60214e-05
2.60212e-05
5.30156e-05
4.84162e-05
5.30068e-05
4.84155e-05
0.000228047
0.000228045
0.000228046
0.000228046
0.000228046
0.000228045
0.000228046
0.000126766
6.43605e-05
0.000223652
0.000214151
0.000126738
6.43793e-05
0.000223652
2.60188e-05
2.60186e-05
0.000126766
0.000223651
6.43644e-05
0.000214146
0.000126737
0.000223651
6.43825e-05
3.70288e-05
3.70218e-05
0.00019678
3.70322e-05
3.70251e-05
5.30077e-05
4.84204e-05
5.2998e-05
4.84197e-05
2.60214e-05
2.60212e-05
5.30156e-05
4.84162e-05
5.30068e-05
4.84155e-05
0.000228047
0.000228045
0.000228046
0.000228046
0.000228046
0.000228045
0.000228045
0.000126766
6.43605e-05
0.000223652
0.000214151
0.000126738
6.43793e-05
0.000223652
2.60188e-05
2.60186e-05
0.000126765
0.000223651
6.43644e-05
0.000214146
0.000126736
0.000223651
6.43825e-05
3.70288e-05
3.70218e-05
0.00019678
3.70322e-05
3.70251e-05
5.30077e-05
4.84204e-05
5.2998e-05
4.84197e-05
2.60214e-05
2.60212e-05
5.30156e-05
4.84162e-05
5.30068e-05
4.84155e-05
0.000228047
0.000228045
0.000228046
0.000228046
0.000228046
0.000228045
0.000228046
0.000126766
6.43605e-05
0.000223652
0.000214151
0.000126738
6.43793e-05
0.000223652
2.60188e-05
2.60186e-05
0.000126762
0.000223651
6.43644e-05
0.000214146
0.000126734
0.000223651
6.43825e-05
3.70288e-05
3.70218e-05
0.00019678
3.70322e-05
3.70251e-05
5.30077e-05
4.84204e-05
5.2998e-05
4.84197e-05
2.60214e-05
2.60212e-05
5.30156e-05
4.84162e-05
5.30068e-05
4.84155e-05
0.000228047
0.000228045
0.000228046
0.000228046
0.000228046
0.000228045
0.000228046
0.000126766
6.43605e-05
0.000223652
0.000214151
0.000126738
6.43793e-05
0.000223652
2.60188e-05
2.60186e-05
0.00012676
0.000223651
6.43644e-05
0.000214146
0.000126732
0.000223651
6.43825e-05
3.70288e-05
3.70218e-05
0.00019678
3.70322e-05
3.70251e-05
5.30077e-05
4.84204e-05
5.2998e-05
4.84197e-05
2.60214e-05
2.60212e-05
5.30156e-05
4.84162e-05
5.30068e-05
4.84155e-05
0.000228047
0.000228045
0.000228046
0.000228046
0.000228046
0.000228045
0.000228046
0.000126767
6.43605e-05
0.000223652
0.000214151
0.000126738
6.43793e-05
0.000223652
2.60188e-05
2.60186e-05
0.000126759
0.00022365
6.43643e-05
0.000214146
0.00012673
0.000223651
6.43824e-05
3.70288e-05
3.70218e-05
0.00019678
3.70322e-05
3.70251e-05
5.30077e-05
4.84204e-05
5.2998e-05
4.84197e-05
2.60214e-05
2.60212e-05
5.30156e-05
4.84162e-05
5.30068e-05
4.84155e-05
0.000228047
0.000228045
0.000228046
0.000228046
0.000228046
0.000228045
0.000228045
0.000126767
6.43605e-05
0.000223652
0.000214151
0.000126738
6.43793e-05
0.000223652
2.60188e-05
2.60186e-05
0.000126759
0.00022365
6.43644e-05
0.000214146
0.000126731
0.000223651
6.43825e-05
3.70288e-05
3.70218e-05
0.00019678
3.70322e-05
3.70251e-05
5.30077e-05
4.84204e-05
5.29981e-05
4.84197e-05
2.60214e-05
2.60212e-05
5.30156e-05
4.84162e-05
5.30069e-05
4.84155e-05
0.000228047
0.000228045
0.000228046
0.000126769
6.43605e-05
0.000223652
0.000214151
0.000126738
6.43794e-05
0.000223652
2.60188e-05
2.60186e-05
0.000126762
0.00022365
6.43644e-05
0.000214146
0.00012673
0.000223651
6.43835e-05
3.70288e-05
3.70218e-05
0.000196783
3.7027e-05
3.702e-05
2.60229e-05
2.6021e-05
0.000196869
3.70422e-05
3.70339e-05
2.60218e-05
2.60228e-05
2.602e-05
2.60209e-05
0.00019674
3.70499e-05
3.70417e-05
3.70417e-05
3.70333e-05
5.30521e-05
4.84136e-05
0.000126869
0.000214191
6.44383e-05
0.000223682
0.000126871
0.000214189
6.44349e-05
0.000223682
5.30438e-05
4.84137e-05
4.84145e-05
5.30491e-05
5.30423e-05
4.84132e-05
4.8414e-05
5.30478e-05
0.000126844
0.00021419
6.44387e-05
0.000223681
6.44229e-05
0.000223682
0.000126866
0.000126845
0.000214188
6.44356e-05
0.000223681
6.44191e-05
0.000223681
0.000126867
0.000196872
3.70357e-05
3.70323e-05
2.60224e-05
2.60206e-05
2.60216e-05
0.000196743
3.70433e-05
3.7042e-05
3.70352e-05
3.70337e-05
2.60214e-05
2.60224e-05
0.00012687
0.000214198
6.44289e-05
0.000223682
5.30508e-05
4.84074e-05
0.000126869
0.000214183
0.000223679
6.44197e-05
5.30441e-05
4.84096e-05
4.84105e-05
5.30524e-05
0.000126845
0.000214197
6.44295e-05
0.000223681
6.44136e-05
0.000223681
0.000126867
5.3043e-05
4.8407e-05
4.84079e-05
5.30517e-05
0.000126844
0.000214182
0.000223679
6.44212e-05
0.000223679
6.44035e-05
0.000126866
5.30523e-05
4.84122e-05
0.000126869
0.000214189
0.000223682
6.44347e-05
5.30519e-05
4.84106e-05
0.000126843
0.0002142
6.44336e-05
0.000223682
6.44162e-05
0.000223682
0.000126863
5.30436e-05
4.84118e-05
4.84127e-05
5.30495e-05
0.000126844
0.000214189
0.000223681
6.44353e-05
0.000223682
6.44191e-05
0.000126866
5.30433e-05
4.84101e-05
4.8411e-05
5.30492e-05
0.000196864
3.70226e-05
3.70407e-05
2.60218e-05
2.60182e-05
2.60193e-05
0.000196734
3.7033e-05
3.70485e-05
3.70233e-05
3.70401e-05
2.60207e-05
2.60217e-05
0.000126871
0.000214197
0.000223682
6.44312e-05
5.30528e-05
4.84103e-05
5.3053e-05
4.84101e-05
0.000126841
0.000214195
0.000223681
6.4436e-05
0.000223681
6.44198e-05
0.000126862
0.000126844
0.000214197
0.000223681
6.44317e-05
0.000223682
6.44154e-05
0.000126868
5.30445e-05
4.84099e-05
4.84108e-05
5.30526e-05
5.30448e-05
4.84097e-05
4.84106e-05
5.30531e-05
2.60216e-05
2.60206e-05
0.000196736
3.70476e-05
3.70407e-05
3.70388e-05
3.7032e-05
2.60205e-05
2.60215e-05
2.60196e-05
2.60206e-05
2.60218e-05
2.60211e-05
2.602e-05
2.60192e-05
3.7049e-05
3.70408e-05
0.000196862
3.70558e-05
3.70475e-05
2.60207e-05
2.60212e-05
2.60189e-05
2.60193e-05
0.000196735
3.70605e-05
3.70523e-05
3.70546e-05
3.70463e-05
5.30545e-05
4.84135e-05
5.30415e-05
4.84128e-05
0.000126867
6.44231e-05
0.000223682
0.000214189
0.000126843
6.44377e-05
0.000223682
0.000126869
6.44197e-05
0.000223681
0.000214187
0.000126844
6.44348e-05
0.000223681
5.3047e-05
4.8413e-05
4.84137e-05
5.30582e-05
5.30485e-05
4.84125e-05
4.84132e-05
5.30597e-05
0.000126844
0.00021419
6.44383e-05
0.000223682
6.4422e-05
0.000223682
0.000126867
0.000126845
0.000214187
6.44352e-05
0.000223681
6.44187e-05
0.000223681
0.000126869
3.70425e-05
3.70407e-05
0.000196865
3.70491e-05
3.7047e-05
2.60215e-05
2.60206e-05
2.60195e-05
2.602e-05
0.000196737
3.70537e-05
3.70511e-05
3.70478e-05
3.70453e-05
2.60203e-05
2.60208e-05
0.000126868
6.4414e-05
0.00022368
0.000214196
0.000126845
6.44285e-05
0.00022368
5.30592e-05
4.84074e-05
5.30469e-05
4.84066e-05
0.000126868
0.000223679
6.44049e-05
0.000214181
0.000126844
0.000223679
6.44217e-05
5.30549e-05
4.8409e-05
4.84097e-05
5.30655e-05
0.000126845
0.000214197
6.44291e-05
0.000223681
6.44128e-05
0.000223681
0.000126868
5.30542e-05
4.84063e-05
4.84071e-05
5.30646e-05
0.000126845
0.000214182
0.000223679
6.44222e-05
0.000223679
6.44051e-05
0.000126869
5.30538e-05
4.84122e-05
5.30424e-05
4.84114e-05
0.000126867
0.00022368
6.44195e-05
0.000214188
0.000126843
0.00022368
6.44344e-05
5.30536e-05
4.84105e-05
5.30422e-05
4.84098e-05
0.000126842
0.000214197
6.44339e-05
0.000223678
6.44173e-05
0.000223679
0.000126867
5.30476e-05
4.84111e-05
4.84118e-05
5.30588e-05
0.000126844
0.000214188
0.000223679
6.4435e-05
0.000223679
6.44185e-05
0.000126867
5.30474e-05
4.84095e-05
4.84102e-05
5.30585e-05
3.70315e-05
3.70476e-05
0.000196856
3.70384e-05
3.70545e-05
2.60207e-05
2.602e-05
2.60171e-05
2.60176e-05
0.000196729
3.70428e-05
3.70592e-05
3.70364e-05
3.70532e-05
2.60196e-05
2.60201e-05
0.000126867
0.00022368
6.44157e-05
0.000214195
0.000126842
0.000223679
6.44307e-05
5.30597e-05
4.84103e-05
5.30475e-05
4.84095e-05
5.30602e-05
4.84101e-05
5.3048e-05
4.84093e-05
0.000126839
0.000214192
0.000223677
6.44353e-05
0.000223678
6.44192e-05
0.000126864
0.000126842
0.000214195
0.000223679
6.44309e-05
0.000223679
6.44145e-05
0.000126867
5.30545e-05
4.84092e-05
4.84099e-05
5.30651e-05
5.30549e-05
4.8409e-05
4.84097e-05
5.30653e-05
2.60205e-05
2.60198e-05
2.60196e-05
2.60189e-05
0.000196732
3.70586e-05
3.70516e-05
3.70525e-05
3.70456e-05
2.60194e-05
2.60199e-05
2.60185e-05
2.6019e-05
2.60209e-05
2.60206e-05
2.60191e-05
2.60188e-05
3.70591e-05
3.70508e-05
0.000196861
3.70644e-05
3.70561e-05
2.60206e-05
2.60208e-05
2.60188e-05
2.6019e-05
0.000196734
3.70671e-05
3.70587e-05
3.70627e-05
3.70543e-05
5.30632e-05
4.84129e-05
5.30531e-05
4.84123e-05
0.000126872
6.44236e-05
0.000223681
0.000214191
0.000126845
6.44419e-05
0.000223681
0.000126874
6.44201e-05
0.000223681
0.000214187
0.000126847
6.44388e-05
0.000223681
5.30549e-05
4.84127e-05
4.84133e-05
5.30633e-05
5.30562e-05
4.84122e-05
4.84128e-05
5.30646e-05
0.000126849
0.00021419
6.44447e-05
0.000223682
6.44274e-05
0.000223682
0.000126872
0.000126851
0.000214188
6.44416e-05
0.000223681
6.44238e-05
0.000223681
0.000126875
3.70522e-05
3.70492e-05
0.000196863
3.70574e-05
3.70548e-05
2.60205e-05
2.60201e-05
2.60194e-05
2.60196e-05
0.000196736
3.70599e-05
3.70572e-05
3.70556e-05
3.70524e-05
2.60202e-05
2.60204e-05
0.000126874
6.44145e-05
0.000223683
0.000214197
0.000126847
6.4433e-05
0.000223683
5.30682e-05
4.84068e-05
5.3059e-05
4.84062e-05
0.000126873
0.000223679
6.44062e-05
0.000214183
0.000126847
0.000223679
6.44248e-05
5.30633e-05
4.84087e-05
4.84092e-05
5.30708e-05
0.000126851
0.000214197
6.44357e-05
0.000223682
6.44184e-05
0.000223683
0.000126873
5.30622e-05
4.84061e-05
4.84067e-05
5.30697e-05
0.000126851
0.000214183
0.000223679
6.4427e-05
0.000223679
6.4409e-05
0.000126873
5.30622e-05
4.84116e-05
5.30522e-05
4.84109e-05
0.000126871
0.00022368
6.442e-05
0.000214188
0.000126845
0.00022368
6.44386e-05
5.3062e-05
4.84099e-05
5.30519e-05
4.84093e-05
0.000126846
0.000214196
6.44389e-05
0.000223681
6.44207e-05
0.000223681
0.000126872
5.30552e-05
4.84109e-05
4.84114e-05
5.30637e-05
0.000126849
0.000214188
0.000223681
6.44413e-05
0.000223681
6.44237e-05
0.000126872
5.3055e-05
4.84092e-05
4.84097e-05
5.30633e-05
3.70406e-05
3.70577e-05
0.000196856
3.70462e-05
3.70631e-05
2.60198e-05
2.60195e-05
2.6017e-05
2.60173e-05
0.000196729
3.70484e-05
3.70656e-05
3.70436e-05
3.70612e-05
2.60195e-05
2.60197e-05
0.000126872
0.000223678
6.44158e-05
0.000214195
0.000126843
0.000223679
6.44345e-05
5.30688e-05
4.84096e-05
5.30593e-05
4.8409e-05
5.3069e-05
4.84094e-05
5.30595e-05
4.84088e-05
0.000126846
0.000214191
0.00022368
6.44414e-05
0.00022368
6.44237e-05
0.000126871
0.000126849
0.000214195
0.000223681
6.44372e-05
0.000223681
6.44194e-05
0.000126873
5.30626e-05
4.84089e-05
4.84095e-05
5.30704e-05
5.30628e-05
4.84087e-05
4.84093e-05
5.30704e-05
2.60196e-05
2.60193e-05
2.60187e-05
2.60184e-05
0.000196732
3.7065e-05
3.7058e-05
3.70606e-05
3.70536e-05
2.60194e-05
2.60195e-05
2.60184e-05
2.60186e-05
2.6021e-05
2.60212e-05
2.60191e-05
2.60194e-05
3.70648e-05
3.70564e-05
0.000196854
3.7064e-05
3.70556e-05
2.60221e-05
2.60216e-05
2.60203e-05
2.60198e-05
0.000196722
3.7055e-05
3.70467e-05
3.70592e-05
3.70508e-05
5.306e-05
4.84128e-05
5.3057e-05
4.84129e-05
0.000126861
6.44292e-05
0.000223681
0.000214186
0.000126843
6.44398e-05
0.000223679
0.000126863
6.44257e-05
0.00022368
0.000214184
0.000126846
6.44368e-05
0.000223679
5.30471e-05
4.84167e-05
4.84143e-05
5.30393e-05
5.30484e-05
4.84161e-05
4.84137e-05
5.30403e-05
0.00012683
0.00021418
6.44204e-05
0.000223662
6.44204e-05
0.000223674
0.000126833
0.000126832
0.000214179
6.44173e-05
0.000223662
6.4417e-05
0.000223674
0.000126834
3.70575e-05
3.70543e-05
0.000196857
3.70567e-05
3.70544e-05
2.60206e-05
2.60208e-05
2.6021e-05
2.60204e-05
0.000196724
3.70477e-05
3.70449e-05
3.70519e-05
3.7049e-05
2.60217e-05
2.60213e-05
0.000126862
6.44202e-05
0.000223681
0.000214193
0.000126845
6.44307e-05
0.000223678
5.30652e-05
4.84067e-05
5.30631e-05
4.84067e-05
0.000126862
0.000223678
6.44105e-05
0.000214178
0.000126845
0.000223676
6.44222e-05
5.30555e-05
4.84126e-05
4.84104e-05
5.30465e-05
0.000126832
0.000214188
6.44113e-05
0.000223661
6.44114e-05
0.000223674
0.000126834
5.30545e-05
4.84099e-05
4.84077e-05
5.30452e-05
0.000126832
0.000214173
0.00022366
6.44028e-05
0.000223672
6.44018e-05
0.000126833
5.30592e-05
4.84114e-05
5.30562e-05
4.84115e-05
0.000126861
0.00022368
6.44256e-05
0.000214184
0.000126844
0.000223678
6.44366e-05
5.30587e-05
4.84097e-05
5.30558e-05
4.84098e-05
0.000126832
0.00021419
6.44151e-05
0.000223663
6.44142e-05
0.000223675
0.000126834
5.30476e-05
4.84147e-05
4.84125e-05
5.30396e-05
0.000126831
0.000214179
0.000223662
6.4417e-05
0.000223674
6.44169e-05
0.000126832
5.30471e-05
4.84131e-05
4.84107e-05
5.3039e-05
3.70453e-05
3.70633e-05
0.000196848
3.70453e-05
3.70626e-05
2.60198e-05
2.60201e-05
2.60185e-05
2.60181e-05
0.000196716
3.70362e-05
3.70537e-05
3.70398e-05
3.70578e-05
2.6021e-05
2.60205e-05
0.000126863
0.00022368
6.44213e-05
0.000214191
0.000126844
0.000223678
6.44323e-05
5.3066e-05
4.84094e-05
5.30637e-05
4.84096e-05
5.30659e-05
4.84092e-05
5.30636e-05
4.84094e-05
0.000126831
0.000214185
0.000223662
6.44178e-05
0.000223674
6.44177e-05
0.000126833
0.00012683
0.000214186
0.000223662
6.44128e-05
0.000223674
6.44125e-05
0.000126832
5.30551e-05
4.84128e-05
4.84104e-05
5.30462e-05
5.3055e-05
4.84126e-05
4.84102e-05
5.3046e-05
2.60197e-05
2.60199e-05
2.60187e-05
2.6019e-05
0.00019672
3.70532e-05
3.7046e-05
3.70571e-05
3.70501e-05
2.60209e-05
2.60203e-05
2.60199e-05
2.60194e-05
2.60225e-05
2.60223e-05
2.60206e-05
2.60205e-05
3.70497e-05
3.70414e-05
0.000196782
3.70405e-05
3.70321e-05
2.60223e-05
2.60225e-05
2.60204e-05
2.60207e-05
0.000196647
3.70342e-05
3.70258e-05
3.70351e-05
3.70268e-05
5.30183e-05
4.84185e-05
5.30263e-05
4.84196e-05
0.000126769
6.43984e-05
0.000223646
0.000214138
0.00012679
6.43979e-05
0.000223643
0.00012677
6.43948e-05
0.000223646
0.000214136
0.00012679
6.43945e-05
0.000223642
5.30064e-05
4.84199e-05
4.84204e-05
5.30092e-05
5.3007e-05
4.84196e-05
4.84201e-05
5.30099e-05
0.00012674
0.000214134
6.43879e-05
0.000223646
6.43785e-05
0.000223642
0.000126765
0.00012674
0.000214132
6.43845e-05
0.000223646
6.43748e-05
0.000223642
0.000126767
3.70426e-05
3.70394e-05
0.000196785
3.70336e-05
3.70314e-05
2.60221e-05
2.60219e-05
2.60211e-05
2.60213e-05
0.00019665
3.70269e-05
3.70232e-05
3.70287e-05
3.70267e-05
2.60218e-05
2.60222e-05
0.00012677
6.43892e-05
0.000223646
0.000214145
0.000126791
6.43886e-05
0.000223642
5.30221e-05
4.84123e-05
5.30318e-05
4.84135e-05
0.000126769
0.000223644
6.43798e-05
0.00021413
0.00012679
0.00022364
6.43799e-05
5.30137e-05
4.84159e-05
4.84164e-05
5.30168e-05
0.000126741
0.000214141
6.43786e-05
0.000223646
6.43693e-05
0.000223642
0.000126767
5.30123e-05
4.84135e-05
4.84141e-05
5.3015e-05
0.00012674
0.000214126
0.000223644
6.43695e-05
0.00022364
6.43594e-05
0.000126766
5.30176e-05
4.84172e-05
5.30255e-05
4.84183e-05
0.000126768
0.000223646
6.43947e-05
0.000214137
0.00012679
0.000223642
6.43943e-05
5.3017e-05
4.84154e-05
5.30249e-05
4.84166e-05
0.000126741
0.000214145
6.43821e-05
0.000223647
6.43721e-05
0.000223644
0.000126764
5.30062e-05
4.84182e-05
4.84188e-05
5.3009e-05
0.000126739
0.000214133
0.000223646
6.43844e-05
0.000223642
6.43748e-05
0.000126764
5.30056e-05
4.84165e-05
4.84171e-05
5.30085e-05
3.70304e-05
3.70483e-05
0.000196776
3.70226e-05
3.70392e-05
2.60214e-05
2.60212e-05
2.60186e-05
2.6019e-05
0.000196641
3.7015e-05
3.70329e-05
3.70172e-05
3.70337e-05
2.60212e-05
2.60214e-05
0.000126768
0.000223646
6.43903e-05
0.000214144
0.000126788
0.000223642
6.43901e-05
5.30231e-05
4.84151e-05
5.30326e-05
4.84163e-05
5.3023e-05
4.8415e-05
5.30324e-05
4.84161e-05
0.000126739
0.00021414
0.000223646
6.43852e-05
0.000223643
6.43755e-05
0.000126765
0.000126738
0.00021414
0.000223646
6.43801e-05
0.000223642
6.43703e-05
0.000126765
5.30129e-05
4.84163e-05
4.84168e-05
5.30158e-05
5.30128e-05
4.84161e-05
4.84166e-05
5.30155e-05
2.60212e-05
2.60211e-05
2.60202e-05
2.60201e-05
0.000196646
3.70329e-05
3.70257e-05
3.70335e-05
3.70265e-05
2.6021e-05
2.60212e-05
2.602e-05
2.60203e-05
2.60225e-05
2.60222e-05
2.60206e-05
2.60204e-05
3.70313e-05
3.70229e-05
0.000196786
3.70335e-05
3.70252e-05
2.60222e-05
2.60224e-05
2.60204e-05
2.60206e-05
0.000196659
3.70335e-05
3.70252e-05
3.7031e-05
3.70226e-05
5.30086e-05
4.842e-05
5.30016e-05
4.84195e-05
0.000126767
6.43714e-05
0.00022365
0.00021414
0.000126741
6.43856e-05
0.000223651
0.000126769
6.43676e-05
0.00022365
0.000214138
0.000126743
6.43822e-05
0.000223651
5.30002e-05
4.84197e-05
4.84202e-05
5.30078e-05
5.30009e-05
4.84194e-05
4.84199e-05
5.30084e-05
0.000126743
0.00021414
6.43851e-05
0.000223651
6.43699e-05
0.000223651
0.000126766
0.000126744
0.000214138
6.43817e-05
0.000223651
6.43661e-05
0.000223651
0.000126768
3.7024e-05
3.70197e-05
0.000196789
3.70263e-05
3.70227e-05
2.60221e-05
2.60218e-05
2.6021e-05
2.60212e-05
0.000196662
3.70263e-05
3.70228e-05
3.70237e-05
3.70196e-05
2.60218e-05
2.60221e-05
0.000126769
6.43622e-05
0.00022365
0.000214147
0.000126744
6.43764e-05
0.000223651
5.30138e-05
4.84139e-05
5.30077e-05
4.84133e-05
0.000126768
0.000223648
6.4352e-05
0.000214132
0.000126742
0.000223649
6.43672e-05
5.30089e-05
4.84158e-05
4.84162e-05
5.30156e-05
0.000126745
0.000214147
6.43763e-05
0.000223651
6.43608e-05
0.000223651
0.000126769
5.3007e-05
4.84133e-05
4.84138e-05
5.30137e-05
0.000126744
0.000214132
0.000223649
6.43667e-05
0.000223649
6.43504e-05
0.000126768
5.30076e-05
4.84187e-05
5.30007e-05
4.84181e-05
0.000126766
0.00022365
6.43677e-05
0.000214139
0.000126741
0.000223651
6.43822e-05
5.30072e-05
4.8417e-05
5.30002e-05
4.84164e-05
0.000126743
0.000214151
6.43794e-05
0.000223652
6.43632e-05
0.000223652
0.000126766
5.29998e-05
4.8418e-05
4.84186e-05
5.30074e-05
0.000126742
0.000214139
0.000223651
6.43817e-05
0.000223651
6.43662e-05
0.000126766
5.29994e-05
4.84164e-05
4.84169e-05
5.3007e-05
3.70114e-05
3.703e-05
0.00019678
3.70144e-05
3.70323e-05
2.60214e-05
2.60211e-05
2.60186e-05
2.60189e-05
0.000196653
3.70144e-05
3.70322e-05
3.70111e-05
3.70296e-05
2.60211e-05
2.60213e-05
0.000126766
0.00022365
6.43631e-05
0.000214146
0.00012674
0.000223651
6.43778e-05
5.30145e-05
4.84167e-05
5.30083e-05
4.84162e-05
5.30143e-05
4.84165e-05
5.3008e-05
4.84159e-05
0.000126743
0.000214146
0.000223651
6.43826e-05
0.000223651
6.43671e-05
0.000126766
0.000126741
0.000214146
0.000223651
6.43773e-05
0.000223651
6.43617e-05
0.000126766
5.30076e-05
4.84161e-05
4.84166e-05
5.30144e-05
5.30073e-05
4.84159e-05
4.84164e-05
5.30141e-05
2.60212e-05
2.60209e-05
2.60202e-05
2.602e-05
0.000196657
3.70322e-05
3.70251e-05
3.70295e-05
3.70225e-05
2.60209e-05
2.60212e-05
2.602e-05
2.60202e-05
2.60224e-05
2.60222e-05
2.60206e-05
2.60204e-05
3.7031e-05
3.70226e-05
0.000196778
3.70335e-05
3.70252e-05
2.60222e-05
2.60224e-05
2.60204e-05
2.60206e-05
0.000196651
3.70336e-05
3.70252e-05
3.7031e-05
3.70226e-05
5.30084e-05
4.84199e-05
5.30008e-05
4.84194e-05
0.000126767
6.43696e-05
0.000223651
0.00021414
0.000126743
6.43852e-05
0.000223651
0.000126768
6.43658e-05
0.00022365
0.000214138
0.000126745
6.43818e-05
0.000223651
5.30001e-05
4.84197e-05
4.84202e-05
5.30077e-05
5.30008e-05
4.84193e-05
4.84198e-05
5.30084e-05
0.000126742
0.00021414
6.43851e-05
0.000223652
6.43696e-05
0.000223652
0.000126766
0.000126744
0.000214138
6.43818e-05
0.000223651
6.43658e-05
0.000223651
0.000126768
3.70237e-05
3.70197e-05
0.000196781
3.70264e-05
3.70228e-05
2.60221e-05
2.60218e-05
2.60212e-05
2.60212e-05
0.000196654
3.70254e-05
3.70228e-05
3.70238e-05
3.70197e-05
2.60218e-05
2.60221e-05
0.000126769
6.43594e-05
0.000223651
0.000214147
0.000126745
6.43755e-05
0.000223651
5.30137e-05
4.84138e-05
5.3007e-05
4.84133e-05
0.000126768
0.000223648
6.43501e-05
0.000214132
0.000126744
0.000223648
6.43668e-05
5.30089e-05
4.84156e-05
4.84162e-05
5.30156e-05
0.000126745