/*--------------------------------*- C++ -*----------------------------------*\
| =========                 |                                                 |
| \\      /  F ield         | OpenFOAM: The Open Source CFD Toolbox           |
|  \\    /   O peration     | Version:  2206                                  |
|   \\  /    A nd           | Website:  www.openfoam.com                      |
|    \\/     M anipulation  |                                                 |
\*---------------------------------------------------------------------------*/
FoamFile
{
    version     2.0;
    format      ascii;
    arch        "LSB;label=32;scalar=64";
    class       surfaceScalarField;
    location    "17.5";
    object      phi;
}
// * * * * * * * * * * * * * * * * * * * * * * * * * * * * * * * * * * * * * //

dimensions      [0 3 -1 0 0 0 0];

oriented        oriented;

internalField   nonuniform List<scalar> 
81717
(
1.32251e-09
1.41527e-09
-0.0010744
-1.27011e-09
-1.26364e-09
0.0010744
-0.00107488
-1.18515e-06
-1.42742e-09
1.94192e-09
0.00107488
-2.37032e-07
1.18729e-06
2.36316e-07
8.6553e-07
-2.29757e-07
-8.6534e-07
2.27883e-07
-0.00107454
-1.1798e-06
-1.42887e-09
1.92748e-09
0.00107454
-2.37021e-07
1.18192e-06
2.36329e-07
8.65359e-07
-2.32395e-07
-8.65219e-07
2.30554e-07
-0.000264268
1.21315e-06
1.17992e-06
-2.19932e-07
-2.25161e-07
0.00026232
1.44242e-09
1.53351e-09
-0.0010744
-1.36781e-09
-1.36091e-09
0.0010744
-0.00107487
-1.18508e-06
-1.55685e-09
1.89072e-09
0.00107487
-2.36956e-07
1.18735e-06
2.36396e-07
8.6562e-07
-2.29652e-07
-8.65264e-07
2.28007e-07
-0.00107454
-1.17973e-06
-1.55439e-09
1.87608e-09
0.00107454
-2.36944e-07
1.18199e-06
2.36409e-07
8.65449e-07
-2.32294e-07
-8.65145e-07
2.30675e-07
-0.000264268
1.21308e-06
1.17985e-06
-2.19835e-07
-2.2506e-07
0.00026232
1.22032e-09
1.30956e-09
-0.0010744
-1.19954e-09
-1.19474e-09
0.0010744
-0.00107487
-1.18507e-06
-1.33243e-09
2.02423e-09
0.00107487
-2.36961e-07
1.18731e-06
2.36325e-07
8.65524e-07
-2.2965e-07
-8.6527e-07
2.27938e-07
-0.00107453
-1.17971e-06
-1.34467e-09
2.0014e-09
0.00107453
-2.36947e-07
1.18195e-06
2.3634e-07
8.65359e-07
-2.32282e-07
-8.65145e-07
2.30618e-07
-0.000264267
1.21306e-06
1.17983e-06
-2.19746e-07
-2.24971e-07
0.000262319
4.22119e-10
5.27879e-10
-0.0010744
-8.47926e-10
-8.43581e-10
0.0010744
-0.00107487
-1.18538e-06
-5.30946e-10
2.2481e-09
0.00107488
-2.37319e-07
1.18722e-06
2.36221e-07
8.65372e-07
-2.30494e-07
-8.65722e-07
2.27418e-07
-0.00107454
-1.18003e-06
-5.19609e-10
2.23777e-09
0.00107454
-2.37314e-07
1.18185e-06
2.36228e-07
8.65202e-07
-2.33133e-07
-8.656e-07
2.30087e-07
-0.000264268
1.21338e-06
1.18014e-06
-2.20251e-07
-2.25486e-07
0.00026232
1.1162e-09
1.1961e-09
-0.0010744
-1.17284e-09
-1.17502e-09
0.0010744
-0.00107488
-1.18522e-06
-1.2172e-09
2.00114e-09
0.00107488
-2.37121e-07
1.18731e-06
2.36335e-07
8.65528e-07
-2.29966e-07
-8.6548e-07
2.27824e-07
-0.00107454
-1.17987e-06
-1.20625e-09
1.99326e-09
0.00107454
-2.37109e-07
1.18195e-06
2.36348e-07
8.65355e-07
-2.32609e-07
-8.65361e-07
2.3049e-07
-0.000264268
1.21322e-06
1.17999e-06
-2.20011e-07
-2.25241e-07
0.00026232
1.13612e-09
1.1942e-09
-0.0010744
-1.16097e-09
-1.18549e-09
0.0010744
-0.00107488
-1.18521e-06
-1.23472e-09
1.98544e-09
0.00107488
-2.37119e-07
1.18732e-06
2.36339e-07
8.65529e-07
-2.29957e-07
-8.65477e-07
2.27827e-07
-0.00107454
-1.17987e-06
-1.21223e-09
2.00952e-09
0.00107454
-2.37119e-07
1.18194e-06
2.36339e-07
8.65358e-07
-2.326e-07
-8.65357e-07
2.30494e-07
-0.000264268
1.21322e-06
1.17999e-06
-2.2001e-07
-2.25243e-07
0.00026232
1.15209e-09
1.18531e-09
-0.0010744
-1.14594e-09
-1.19652e-09
0.0010744
-0.00107488
-1.18518e-06
-1.25346e-09
1.92932e-09
0.00107488
-2.37078e-07
1.18735e-06
2.36371e-07
8.65526e-07
-2.2996e-07
-8.65479e-07
2.27823e-07
-0.00107454
-1.17987e-06
-1.21113e-09
2.0105e-09
0.00107454
-2.37119e-07
1.18194e-06
2.36338e-07
8.65358e-07
-2.32599e-07
-8.65356e-07
2.30494e-07
-0.000264268
1.21322e-06
1.17999e-06
-2.20009e-07
-2.25244e-07
0.00026232
1.12455e-09
1.19848e-09
-0.0010744
-1.16669e-09
-1.17979e-09
0.0010744
-0.00107488
-1.18522e-06
-1.22738e-09
2.00839e-09
0.00107488
-2.37125e-07
1.18732e-06
2.36334e-07
8.65533e-07
-2.2996e-07
-8.65475e-07
2.27826e-07
-0.00107454
-1.17987e-06
-1.21809e-09
2.01165e-09
0.00107454
-2.37119e-07
1.18194e-06
2.36339e-07
8.65359e-07
-2.32598e-07
-8.65356e-07
2.30494e-07
-0.000264268
1.21322e-06
1.17999e-06
-2.20011e-07
-2.25242e-07
0.00026232
1.1275e-09
1.19649e-09
-0.0010744
-1.16596e-09
-1.18587e-09
0.0010744
-0.00107488
-1.18522e-06
-1.22046e-09
2.00987e-09
0.00107488
-2.37128e-07
1.18731e-06
2.3633e-07
8.65531e-07
-2.29961e-07
-8.65477e-07
2.27825e-07
-0.00107454
-1.17987e-06
-1.23835e-09
2.01227e-09
0.00107454
-2.37119e-07
1.18194e-06
2.36339e-07
8.65362e-07
-2.32596e-07
-8.65353e-07
2.30497e-07
-0.000264268
1.21322e-06
1.18e-06
-2.20014e-07
-2.25239e-07
0.00026232
1.1256e-09
1.18992e-09
-0.0010744
-1.1627e-09
-1.18606e-09
0.0010744
-0.00107488
-1.18522e-06
-1.21418e-09
2.00792e-09
0.00107488
-2.37128e-07
1.18731e-06
2.3633e-07
8.65529e-07
-2.29962e-07
-8.65478e-07
2.27824e-07
-0.00107454
-1.17987e-06
-1.23625e-09
2.01509e-09
0.00107454
-2.3712e-07
1.18194e-06
2.36337e-07
8.65361e-07
-2.32595e-07
-8.65352e-07
2.30497e-07
-0.000264268
1.21321e-06
1.18e-06
-2.20016e-07
-2.25238e-07
0.00026232
1.12909e-09
1.19202e-09
-0.0010744
-1.16513e-09
-1.18806e-09
0.0010744
-0.00107488
-1.18522e-06
-1.21159e-09
2.00741e-09
0.00107488
-2.37128e-07
1.18731e-06
2.3633e-07
8.65529e-07
-2.29962e-07
-8.65479e-07
2.27824e-07
-0.00107454
-1.17987e-06
-1.23734e-09
2.01429e-09
0.00107454
-2.37121e-07
1.18194e-06
2.36338e-07
8.65361e-07
-2.32595e-07
-8.65352e-07
2.30498e-07
-0.000264268
1.21321e-06
1.18e-06
-2.20016e-07
-2.25238e-07
0.00026232
1.13084e-09
1.19318e-09
-0.0010744
-1.16505e-09
-1.1878e-09
0.0010744
-0.00107488
-1.18522e-06
-1.22061e-09
2.00363e-09
0.00107488
-2.37126e-07
1.18731e-06
2.36332e-07
8.65531e-07
-2.2996e-07
-8.65477e-07
2.27826e-07
-0.00107454
-1.17987e-06
-1.24616e-09
2.0133e-09
0.00107454
-2.3712e-07
1.18194e-06
2.36339e-07
8.65363e-07
-2.32593e-07
-8.6535e-07
2.305e-07
-0.000264268
1.21321e-06
1.18e-06
-2.20014e-07
-2.25236e-07
0.00026232
1.13468e-09
1.19697e-09
-0.0010744
-1.16707e-09
-1.18943e-09
0.0010744
-0.00107488
-1.18522e-06
-1.22269e-09
2.00129e-09
0.00107488
-2.37126e-07
1.18731e-06
2.36332e-07
8.65531e-07
-2.29959e-07
-8.65477e-07
2.27827e-07
-0.00107454
-1.17987e-06
-1.24922e-09
2.01122e-09
0.00107454
-2.3712e-07
1.18194e-06
2.36339e-07
8.65364e-07
-2.32593e-07
-8.6535e-07
2.30501e-07
-0.000264268
1.21321e-06
1.18e-06
-2.20014e-07
-2.25236e-07
0.00026232
1.14036e-09
1.20446e-09
-0.0010744
-1.1725e-09
-1.19367e-09
0.0010744
-0.00107488
-1.18522e-06
-1.22676e-09
1.99919e-09
0.00107488
-2.37126e-07
1.18731e-06
2.36334e-07
8.65532e-07
-2.2996e-07
-8.65476e-07
2.27829e-07
-0.00107454
-1.17987e-06
-1.25533e-09
2.00836e-09
0.00107454
-2.37119e-07
1.18194e-06
2.3634e-07
8.65367e-07
-2.32593e-07
-8.65349e-07
2.30504e-07
-0.000264268
1.21321e-06
1.18e-06
-2.20014e-07
-2.25234e-07
0.00026232
1.14193e-09
1.20514e-09
-0.0010744
-1.172e-09
-1.1941e-09
0.0010744
-0.00107488
-1.18522e-06
-1.22691e-09
2.00016e-09
0.00107488
-2.37121e-07
1.18731e-06
2.36331e-07
8.6553e-07
-2.29952e-07
-8.65474e-07
2.27822e-07
-0.00107454
-1.17987e-06
-1.2539e-09
2.00997e-09
0.00107454
-2.3712e-07
1.18194e-06
2.36342e-07
8.65368e-07
-2.3259e-07
-8.65347e-07
2.30504e-07
-0.000264268
1.21321e-06
1.18e-06
-2.20013e-07
-2.25235e-07
0.00026232
1.13579e-09
1.20517e-09
-0.0010744
-1.16971e-09
-1.18727e-09
0.0010744
-0.00107488
-1.18521e-06
-1.23394e-09
2.00207e-09
0.00107488
-2.37116e-07
1.18731e-06
2.36325e-07
8.65524e-07
-2.29945e-07
-8.65468e-07
2.27815e-07
-0.00107454
-1.17987e-06
-1.25696e-09
2.00985e-09
0.00107454
-2.37115e-07
1.18194e-06
2.36337e-07
8.65359e-07
-2.32581e-07
-8.6534e-07
2.30493e-07
-0.000264268
1.21321e-06
1.17999e-06
-2.20009e-07
-2.2523e-07
0.00026232
1.13823e-09
1.22632e-09
-0.0010744
-1.17493e-09
-1.17987e-09
0.0010744
-0.00107488
-1.18521e-06
-1.24967e-09
2.01547e-09
0.00107488
-2.37108e-07
1.18729e-06
2.36309e-07
8.65508e-07
-2.29917e-07
-8.65434e-07
2.27798e-07
-0.00107454
-1.17985e-06
-1.27622e-09
2.01506e-09
0.00107454
-2.37089e-07
1.18192e-06
2.36313e-07
8.65337e-07
-2.32538e-07
-8.65301e-07
2.30467e-07
-0.000264268
1.21319e-06
1.17997e-06
-2.19986e-07
-2.25205e-07
0.00026232
-1.22053e-06
-1.18466e-06
0.000264284
-0.000262326
2.19565e-07
2.27276e-07
0.0010741
-1.28186e-09
-0.0010741
2.05346e-09
-1.21844e-06
2.41632e-07
-2.42428e-07
-8.65292e-07
2.27786e-07
-2.29737e-07
8.6546e-07
1.22593e-06
0.00107453
-1.24848e-09
-0.00107453
2.06045e-09
-1.22384e-06
2.44409e-07
-2.45194e-07
-8.70851e-07
2.30562e-07
-2.32547e-07
8.70995e-07
-1.18729e-06
0.000264313
-0.000262346
2.22311e-07
2.24588e-07
0.00107514
-1.36893e-09
-0.00107514
1.95164e-09
-1.18256e-06
2.39088e-07
-2.39816e-07
-8.68032e-07
2.30609e-07
-2.32533e-07
8.68274e-07
1.22058e-06
0.00107421
-1.24592e-09
-0.00107421
2.05877e-09
-1.2185e-06
2.44385e-07
-2.45182e-07
-8.68014e-07
2.30533e-07
-2.32484e-07
8.68142e-07
-1.36701e-09
-0.00107488
1.97321e-09
-1.18516e-06
2.36306e-07
-2.37051e-07
-8.65335e-07
2.27871e-07
8.65535e-07
-2.29778e-07
1.21523e-06
0.00107401
-1.256e-09
-0.00107401
2.0634e-09
-1.21316e-06
2.38898e-07
-2.39671e-07
-8.65336e-07
2.2778e-07
-2.29738e-07
8.65469e-07
-1.18192e-06
0.000264263
-0.000262307
2.19749e-07
2.27079e-07
-1.36593e-09
-0.00107454
1.95395e-09
-1.17981e-06
2.36318e-07
-2.37041e-07
-8.65165e-07
2.30521e-07
8.65418e-07
-2.32438e-07
1.18202e-06
0.00107505
-1.35078e-09
-0.00107505
1.95847e-09
-1.17993e-06
2.36369e-07
-2.37099e-07
-8.65434e-07
2.30602e-07
-2.32507e-07
8.65659e-07
-0.00026232
2.22058e-07
2.27298e-07
1.21843e-06
1.18255e-06
-2.17435e-07
-2.25119e-07
0.000262326
-1.22062e-06
-1.18475e-06
0.000264284
-0.000262325
2.19659e-07
2.27372e-07
2.02428e-09
0.0010741
-2.42413e-07
1.22053e-06
2.41639e-07
8.65448e-07
-2.29716e-07
-8.65299e-07
2.27796e-07
-1.22383e-06
-1.3152e-09
2.0333e-09
0.00107453
-2.45178e-07
1.22593e-06
2.44416e-07
8.70992e-07
-2.32524e-07
-8.70853e-07
2.30576e-07
0.0010741
-1.54218e-09
-0.0010741
1.90022e-09
-1.21838e-06
2.41737e-07
-2.42359e-07
-8.65249e-07
2.27929e-07
-2.29635e-07
8.65554e-07
1.22602e-06
0.00107453
-1.50972e-09
-0.00107453
1.90427e-09
-1.22378e-06
2.44515e-07
-2.45123e-07
-8.70809e-07
2.30706e-07
-2.32445e-07
8.71089e-07
-2.20144e-07
-2.22438e-07
0.000262346
-1.18738e-06
0.000264312
-0.000262346
2.22405e-07
2.24686e-07
1.92653e-09
0.00107514
-2.39801e-07
1.18466e-06
2.39095e-07
8.68269e-07
-2.32511e-07
-8.68037e-07
2.30624e-07
-1.21849e-06
-1.30708e-09
2.03804e-09
0.00107421
-2.45164e-07
1.22058e-06
2.44394e-07
8.68141e-07
-2.32462e-07
-8.68014e-07
2.30545e-07
0.00107514
-1.62758e-09
-0.00107514
1.79844e-09
-1.1825e-06
2.39193e-07
-2.39747e-07
-8.67989e-07
2.30752e-07
-2.32431e-07
8.68367e-07
1.22067e-06
0.00107421
-1.51125e-09
-0.00107421
1.90017e-09
-1.21844e-06
2.44491e-07
-2.4511e-07
-8.67968e-07
2.30677e-07
-2.32384e-07
8.6824e-07
-1.31792e-09
2.03743e-09
0.00107401
-2.39657e-07
1.21523e-06
2.38904e-07
8.65467e-07
-2.29718e-07
2.27793e-07
-8.65339e-07
-1.6361e-09
-0.00107487
1.81421e-09
-1.1851e-06
2.36413e-07
-2.3698e-07
-8.65291e-07
2.28016e-07
8.65632e-07
-2.29676e-07
1.21532e-06
0.00107401
-1.51864e-09
-0.00107401
1.90934e-09
-1.2131e-06
2.39004e-07
-2.39601e-07
-8.65294e-07
2.27923e-07
-2.29638e-07
8.65563e-07
-2.17605e-07
-2.24935e-07
0.000262307
-1.18201e-06
0.000264263
-0.000262307
2.19846e-07
2.27172e-07
-1.42732e-09
1.93276e-09
0.00107505
-2.37085e-07
1.18202e-06
2.36374e-07
8.65658e-07
-2.32485e-07
2.30616e-07
-8.65434e-07
-1.6344e-09
-0.00107454
1.79823e-09
-1.17975e-06
2.36424e-07
-2.36969e-07
-8.65122e-07
2.30663e-07
8.65514e-07
-2.32337e-07
1.18211e-06
0.00107504
-1.6192e-09
-0.00107504
1.80291e-09
-1.17987e-06
2.36475e-07
-2.37029e-07
-8.65391e-07
2.30746e-07
-2.32405e-07
8.65755e-07
-0.00026232
2.22152e-07
2.27395e-07
1.21836e-06
1.18249e-06
-2.17337e-07
-2.2502e-07
0.000262325
-1.22079e-06
-1.18493e-06
0.000264283
-0.000262325
2.1988e-07
2.27593e-07
1.97683e-09
0.0010741
-2.42336e-07
1.22059e-06
2.4172e-07
8.65532e-07
-2.29616e-07
-8.65229e-07
2.27916e-07
-1.22376e-06
-1.43422e-09
1.98193e-09
0.00107453
-2.451e-07
1.226e-06
2.44498e-07
8.71076e-07
-2.32423e-07
-8.70783e-07
2.30696e-07
0.0010741
-1.9853e-09
-0.0010741
1.65211e-09
-1.21823e-06
2.41922e-07
-2.42201e-07
-8.65069e-07
2.28141e-07
-2.29479e-07
8.65768e-07
1.2262e-06
0.00107453
-1.95297e-09
-0.00107453
1.65995e-09
-1.22362e-06
2.44698e-07
-2.44964e-07
-8.70627e-07
2.30916e-07
-2.3229e-07
8.71306e-07
-2.20047e-07
-2.22335e-07
0.000262346
-1.18755e-06
0.000264312
-0.000262345
2.22625e-07
2.24907e-07
1.88058e-09
0.00107514
-2.39724e-07
1.18473e-06
2.39175e-07
8.68352e-07
-2.3241e-07
-8.67967e-07
2.30742e-07
-1.21842e-06
-1.43534e-09
1.98364e-09
0.00107421
-2.45088e-07
1.22065e-06
2.44475e-07
8.68227e-07
-2.32359e-07
-8.67939e-07
2.3067e-07
0.00107514
-2.07168e-09
-0.00107514
1.55141e-09
-1.18235e-06
2.39376e-07
-2.39589e-07
-8.67805e-07
2.30966e-07
-2.3227e-07
8.68584e-07
1.22085e-06
0.00107421
-1.94741e-09
-0.00107421
1.65241e-09
-1.21829e-06
2.44678e-07
-2.44953e-07
-8.6779e-07
2.30885e-07
-2.3223e-07
8.68452e-07
-1.43741e-09
1.99004e-09
0.00107401
-2.3958e-07
1.2153e-06
2.38984e-07
8.6555e-07
-2.29618e-07
2.27913e-07
-8.65269e-07
-2.08175e-09
-0.00107487
1.57362e-09
-1.18495e-06
2.36594e-07
-2.36823e-07
-8.65105e-07
2.28232e-07
8.65854e-07
-2.29513e-07
1.2155e-06
0.001074
-1.96525e-09
-0.00107401
1.66409e-09
-1.21295e-06
2.39185e-07
-2.39448e-07
-8.65109e-07
2.2814e-07
-2.29478e-07
8.65785e-07
-2.17503e-07
-2.24838e-07
0.000262307
-1.18218e-06
0.000264262
-0.000262306
2.20062e-07
2.27398e-07
-1.55181e-09
1.88497e-09
0.00107504
-2.37009e-07
1.18208e-06
2.36454e-07
8.65744e-07
-2.32383e-07
2.30738e-07
-8.65361e-07
-2.09241e-09
-0.00107453
1.55246e-09
-1.1796e-06
2.36608e-07
-2.3681e-07
-8.64935e-07
2.30883e-07
8.6574e-07
-2.32174e-07
1.18229e-06
0.00107504
-2.07148e-09
-0.00107504
1.56283e-09
-1.17972e-06
2.36656e-07
-2.36877e-07
-8.65206e-07
2.30964e-07
-2.32245e-07
8.65974e-07
-0.000262319
2.22372e-07
2.27615e-07
1.21834e-06
1.18247e-06
-2.1725e-07
-2.24933e-07
0.000262324
-1.22033e-06
-1.18446e-06
0.000264284
-0.000262325
2.19205e-07
2.2692e-07
2.09935e-09
0.0010741
-2.42336e-07
1.22056e-06
2.41654e-07
8.65437e-07
-2.29615e-07
-8.65241e-07
2.2785e-07
-1.22374e-06
-1.21082e-09
2.11043e-09
0.00107453
-2.45102e-07
1.22596e-06
2.44429e-07
8.70979e-07
-2.32423e-07
-8.70792e-07
2.3063e-07
0.0010741
3.32277e-11
-0.0010741
2.56403e-09
-1.2188e-06
2.41361e-07
-2.42887e-07
-8.65869e-07
2.27094e-07
-2.30618e-07
8.65103e-07
1.22573e-06
0.00107453
5.12651e-11
-0.00107453
2.5699e-09
-1.22419e-06
2.44136e-07
-2.45649e-07
-8.71422e-07
2.29868e-07
-2.33428e-07
8.70649e-07
-2.19961e-07
-2.22251e-07
0.000262345
-1.18709e-06
0.000264312
-0.000262346
2.21957e-07
2.24231e-07
2.00728e-09
0.00107513
-2.39726e-07
1.18469e-06
2.39108e-07
8.68254e-07
-2.3241e-07
-8.67978e-07
2.30672e-07
-1.2184e-06
-1.21151e-09
2.10597e-09
0.00107421
-2.45085e-07
1.22061e-06
2.44413e-07
8.68131e-07
-2.32363e-07
-8.67953e-07
2.30601e-07
0.00107514
-5.65213e-11
-0.00107514
2.45351e-09
-1.18292e-06
2.38814e-07
-2.40278e-07
-8.68606e-07
2.29923e-07
-2.33408e-07
8.67924e-07
1.22038e-06
0.00107421
6.51199e-11
-0.00107421
2.58533e-09
-1.21886e-06
2.44111e-07
-2.45641e-07
-8.6859e-07
2.29836e-07
-2.3337e-07
8.67789e-07
-1.22331e-09
2.10451e-09
0.001074
-2.39578e-07
1.21526e-06
2.38924e-07
8.65457e-07
-2.29611e-07
2.27852e-07
-8.65276e-07
-3.39522e-11
-0.00107487
2.47647e-09
-1.18551e-06
2.36038e-07
-2.37504e-07
-8.6592e-07
2.27168e-07
8.65178e-07
-2.3067e-07
1.21503e-06
0.00107401
4.25928e-11
-0.00107401
2.56618e-09
-1.21351e-06
2.38631e-07
-2.40121e-07
-8.65908e-07
2.27086e-07
-2.30624e-07
8.65122e-07
-2.17423e-07
-2.24743e-07
0.000262306
-1.18171e-06
0.000264263
-0.000262307
2.19387e-07
2.26719e-07
-1.34525e-09
2.00417e-09
0.00107504
-2.37007e-07
1.18205e-06
2.36395e-07
8.65653e-07
-2.32375e-07
2.30679e-07
-8.65366e-07
-2.55659e-11
-0.00107453
2.46382e-09
-1.18017e-06
2.36045e-07
-2.37498e-07
-8.65751e-07
2.29816e-07
8.6506e-07
-2.33331e-07
1.18182e-06
0.00107504
-1.52174e-11
-0.00107504
2.45238e-09
-1.18028e-06
2.36105e-07
-2.37549e-07
-8.66026e-07
2.29899e-07
-2.33401e-07
8.65292e-07
-0.00026232
2.2171e-07
2.26944e-07
1.21866e-06
1.18278e-06
-2.17764e-07
-2.25444e-07
0.000262325
-1.22055e-06
-1.18469e-06
0.000264284
-0.000262326
2.1956e-07
2.27267e-07
2.33063e-09
0.0010741
-2.42701e-07
1.22046e-06
2.41544e-07
8.65282e-07
-2.30446e-07
-8.65687e-07
2.27336e-07
-1.22406e-06
-4.26153e-10
2.34257e-09
0.00107453
-2.45469e-07
1.22586e-06
2.44317e-07
8.70838e-07
-2.33254e-07
-8.71229e-07
2.30115e-07
0.0010741
-1.11868e-09
-0.0010741
2.09114e-09
-1.2185e-06
2.4166e-07
-2.42502e-07
-8.6543e-07
2.27728e-07
-2.29947e-07
8.65456e-07
1.22596e-06
0.00107453
-1.0822e-09
-0.00107453
2.0987e-09
-1.22389e-06
2.44438e-07
-2.45266e-07
-8.70995e-07
2.30502e-07
-2.32759e-07
8.70988e-07
-2.20466e-07
-2.22766e-07
0.000262346
-1.18731e-06
0.000264313
-0.000262346
2.22303e-07
2.24584e-07
2.22826e-09
0.00107514
-2.40092e-07
1.18459e-06
2.38997e-07
8.6811e-07
-2.33231e-07
-8.68415e-07
2.30168e-07
-1.21872e-06
-4.06608e-10
2.36261e-09
0.00107421
-2.4546e-07
1.22051e-06
2.44292e-07
8.67979e-07
-2.332e-07
-8.68398e-07
2.3008e-07
0.00107514
-1.19362e-09
-0.00107514
1.98303e-09
-1.18262e-06
2.39119e-07
-2.39888e-07
-8.68176e-07
2.30546e-07
-2.32741e-07
8.68262e-07
1.22061e-06
0.00107421
-1.08445e-09
-0.00107421
2.09651e-09
-1.21856e-06
2.44413e-07
-2.45256e-07
-8.6815e-07
2.30478e-07
-2.32695e-07
8.68142e-07
-4.40801e-10
2.34254e-09
0.00107401
-2.39945e-07
1.21516e-06
2.38806e-07
8.65314e-07
-2.30448e-07
2.27335e-07
-8.65714e-07
-1.1946e-09
-0.00107488
1.9982e-09
-1.18522e-06
2.36337e-07
-2.37122e-07
-8.6548e-07
2.27813e-07
8.65527e-07
-2.29989e-07
1.21525e-06
0.00107401
-1.08333e-09
-0.00107401
2.11218e-09
-1.21322e-06
2.38924e-07
-2.39745e-07
-8.65481e-07
2.27718e-07
-2.29953e-07
8.65461e-07
-2.17937e-07
-2.25264e-07
0.000262307
-1.18195e-06
0.000264263
-0.000262308
2.19748e-07
2.27068e-07
-5.16758e-10
2.22881e-09
0.00107505
-2.37368e-07
1.18196e-06
2.36282e-07
8.65489e-07
-2.33225e-07
2.30149e-07
-8.65828e-07
-1.18378e-09
-0.00107454
1.98663e-09
-1.17987e-06
2.36351e-07
-2.37109e-07
-8.65314e-07
2.30455e-07
8.65406e-07
-2.32656e-07
1.18205e-06
0.00107505
-1.17052e-09
-0.00107505
1.99723e-09
-1.17999e-06
2.36397e-07
-2.37172e-07
-8.65579e-07
2.30538e-07
-2.32723e-07
8.65648e-07
-0.00026232
2.22049e-07
2.27288e-07
1.2185e-06
1.18262e-06
-2.17511e-07
-2.25199e-07
0.000262326
-1.22055e-06
-1.18469e-06
0.000264284
-0.000262326
2.19559e-07
2.27264e-07
2.09863e-09
0.0010741
-2.42504e-07
1.22055e-06
2.41656e-07
8.65447e-07
-2.29924e-07
-8.65437e-07
2.27737e-07
-1.22389e-06
-1.11238e-09
2.10322e-09
0.00107453
-2.45268e-07
1.22596e-06
2.44434e-07
8.70989e-07
-2.32734e-07
-8.70992e-07
2.30514e-07
0.0010741
-1.16291e-09
-0.0010741
2.11963e-09
-1.2185e-06
2.41646e-07
-2.42514e-07
-8.65423e-07
2.27747e-07
-2.29911e-07
8.65462e-07
1.22595e-06
0.00107453
-1.14026e-09
-0.00107453
2.09692e-09
-1.22389e-06
2.44429e-07
-2.45273e-07
-8.70983e-07
2.30525e-07
-2.3272e-07
8.70998e-07
-2.20221e-07
-2.22513e-07
0.000262346
-1.18732e-06
0.000264313
-0.000262346
2.22307e-07
2.24581e-07
1.99216e-09
0.00107514
-2.39889e-07
1.18469e-06
2.39115e-07
8.68261e-07
-2.32717e-07
-8.68179e-07
2.30558e-07
-1.21856e-06
-1.10457e-09
2.11243e-09
0.00107421
-2.45258e-07
1.2206e-06
2.44409e-07
8.68141e-07
-2.32668e-07
-8.68149e-07
2.3049e-07
0.00107514
-1.22235e-09
-0.00107514
1.99045e-09
-1.18262e-06
2.39107e-07
-2.39898e-07
-8.68169e-07
2.30564e-07
-2.32706e-07
8.68269e-07
1.2206e-06
0.00107421
-1.11362e-09
-0.00107421
2.11575e-09
-1.21856e-06
2.44402e-07
-2.45265e-07
-8.68147e-07
2.30493e-07
-2.32663e-07
8.68145e-07
-1.11117e-09
2.11937e-09
0.00107401
-2.39749e-07
1.21525e-06
2.38918e-07
8.65464e-07
-2.29929e-07
2.27731e-07
-8.65479e-07
-1.23831e-09
-0.00107488
1.99617e-09
-1.18522e-06
2.36332e-07
-2.37126e-07
-8.65473e-07
2.27829e-07
8.65532e-07
-2.29957e-07
1.21525e-06
0.00107401
-1.12922e-09
-0.00107401
2.13137e-09
-1.21322e-06
2.38913e-07
-2.39755e-07
-8.6547e-07
2.27739e-07
-2.29914e-07
8.6547e-07
-2.17678e-07
-2.25016e-07
0.000262308
-1.18194e-06
0.000264263
-0.000262308
2.19743e-07
2.27068e-07
-1.1987e-09
2.00378e-09
0.00107505
-2.37176e-07
1.18204e-06
2.36391e-07
8.65648e-07
-2.327e-07
2.3055e-07
-8.6558e-07
-1.2244e-09
-0.00107454
2.00455e-09
-1.17987e-06
2.36337e-07
-2.37121e-07
-8.65303e-07
2.30476e-07
8.65414e-07
-2.32617e-07
1.18205e-06
0.00107505
-1.20313e-09
-0.00107505
2.00458e-09
-1.17999e-06
2.36389e-07
-2.37178e-07
-8.65574e-07
2.30557e-07
-2.32686e-07
8.65652e-07
-0.00026232
2.22052e-07
2.27287e-07
1.21851e-06
1.18262e-06
-2.17512e-07
-2.25203e-07
0.000262326
-1.22054e-06
-1.18469e-06
0.000264284
-0.000262326
2.19562e-07
2.27263e-07
2.12658e-09
0.0010741
-2.42515e-07
1.22055e-06
2.41646e-07
8.65452e-07
-2.29914e-07
-8.65433e-07
2.27742e-07
-1.22389e-06
-1.15106e-09
2.09213e-09
0.00107453
-2.45271e-07
1.22595e-06
2.44432e-07
8.70999e-07
-2.32716e-07
-8.70983e-07
2.30528e-07
0.0010741
-1.18426e-09
-0.0010741
2.14647e-09
-1.21851e-06
2.41642e-07
-2.42517e-07
-8.65416e-07
2.27752e-07
-2.29905e-07
8.65468e-07
1.22597e-06
0.00107453
-1.26165e-09
-0.00107453
2.01704e-09
-1.22387e-06
2.44461e-07
-2.45239e-07
-8.70942e-07
2.30584e-07
-2.32656e-07
8.71035e-07
-2.20215e-07
-2.22514e-07
0.000262346
-1.18735e-06
0.000264313
-0.000262346
2.22371e-07
2.24586e-07
1.99348e-09
0.00107514
-2.39896e-07
1.18469e-06
2.39109e-07
8.68262e-07
-2.3271e-07
-8.68177e-07
2.3056e-07
-1.21856e-06
-1.10558e-09
2.13004e-09
0.00107421
-2.45266e-07
1.2206e-06
2.44401e-07
8.68141e-07
-2.32663e-07
-8.68149e-07
2.30491e-07
0.00107514
-1.2121e-09
-0.00107514
1.9788e-09
-1.18262e-06
2.3911e-07
-2.39894e-07
-8.68169e-07
2.30563e-07
-2.32708e-07
8.68268e-07
1.2206e-06
0.00107421
-1.1128e-09
-0.00107421
2.11915e-09
-1.21856e-06
2.44402e-07
-2.45264e-07
-8.68146e-07
2.30493e-07
-2.32663e-07
8.68145e-07
-1.12716e-09
2.14046e-09
0.00107401
-2.39758e-07
1.21525e-06
2.3891e-07
8.65468e-07
-2.29919e-07
2.27736e-07
-8.65474e-07
-1.25944e-09
-0.00107488
1.92251e-09
-1.18518e-06
2.36375e-07
-2.37083e-07
-8.65473e-07
2.27827e-07
8.65529e-07
-2.29955e-07
1.21525e-06
0.00107401
-1.13275e-09
-0.00107401
2.15039e-09
-1.21322e-06
2.3891e-07
-2.39757e-07
-8.65468e-07
2.2774e-07
-2.29913e-07
8.65471e-07
-2.17683e-07
-2.25018e-07
0.000262308
-1.18194e-06
0.000264263
-0.000262308
2.19743e-07
2.27068e-07
-1.19865e-09
2.0089e-09
0.00107505
-2.37181e-07
1.18204e-06
2.36387e-07
8.65649e-07
-2.32692e-07
2.30553e-07
-8.65579e-07
-1.22193e-09
-0.00107454
2.00641e-09
-1.17987e-06
2.36336e-07
-2.37121e-07
-8.65303e-07
2.30476e-07
8.65414e-07
-2.32617e-07
1.18205e-06
0.00107505
-1.19178e-09
-0.00107505
2.00194e-09
-1.17999e-06
2.36389e-07
-2.37178e-07
-8.65575e-07
2.30555e-07
-2.32688e-07
8.65651e-07
-0.00026232
2.22052e-07
2.27285e-07
1.21851e-06
1.18262e-06
-2.17509e-07
-2.25204e-07
0.000262326
-1.22055e-06
-1.18469e-06
0.000264284
-0.000262326
2.19558e-07
2.27265e-07
2.14831e-09
0.0010741
-2.42517e-07
1.22054e-06
2.41644e-07
8.65455e-07
-2.2991e-07
-8.65427e-07
2.27745e-07
-1.22388e-06
-1.23646e-09
2.0263e-09
0.00107453
-2.45241e-07
1.22596e-06
2.44452e-07
8.71023e-07
-2.32672e-07
-8.7095e-07
2.30554e-07
0.0010741
-1.16153e-09
-0.0010741
2.11642e-09
-1.2185e-06
2.41647e-07
-2.42515e-07
-8.65424e-07
2.27747e-07
-2.29911e-07
8.65461e-07
1.22596e-06
0.00107453
-1.11583e-09
-0.00107453
2.10536e-09
-1.22389e-06
2.44427e-07
-2.45279e-07
-8.70989e-07
2.30528e-07
-2.32724e-07
8.70997e-07
-2.20157e-07
-2.2251e-07
0.000262346
-1.18731e-06
0.000264313
-0.000262346
2.22308e-07
2.24584e-07
1.98566e-09
0.00107514
-2.39894e-07
1.18469e-06
2.39111e-07
8.68262e-07
-2.32711e-07
-8.68177e-07
2.3056e-07
-1.21856e-06
-1.10698e-09
2.13157e-09
0.00107421
-2.45265e-07
1.2206e-06
2.44402e-07
8.68142e-07
-2.32663e-07
-8.68148e-07
2.30491e-07
0.00107514
-1.22014e-09
-0.00107514
1.99178e-09
-1.18262e-06
2.39107e-07
-2.39898e-07
-8.68169e-07
2.30564e-07
-2.32708e-07
8.68269e-07
1.2206e-06
0.00107421
-1.11191e-09
-0.00107421
2.11677e-09
-1.21856e-06
2.44403e-07
-2.45265e-07
-8.68147e-07
2.30493e-07
-2.32663e-07
8.68145e-07
-1.13184e-09
2.15395e-09
0.00107401
-2.39759e-07
1.21525e-06
2.38908e-07
8.65468e-07
-2.29918e-07
2.27737e-07
-8.65473e-07
-1.23489e-09
-0.00107488
2.00876e-09
-1.18522e-06
2.36329e-07
-2.37131e-07
-8.65472e-07
2.27828e-07
8.65535e-07
-2.29961e-07
1.21525e-06
0.00107401
-1.12557e-09
-0.00107401
2.12748e-09
-1.21322e-06
2.38914e-07
-2.39754e-07
-8.6547e-07
2.27739e-07
-2.29914e-07
8.6547e-07
-2.17682e-07
-2.25017e-07
0.000262308
-1.18194e-06
0.000264263
-0.000262308
2.19743e-07
2.27069e-07
-1.18852e-09
2.00473e-09
0.00107505
-2.3718e-07
1.18204e-06
2.36387e-07
8.65648e-07
-2.32693e-07
2.30552e-07
-8.6558e-07
-1.22878e-09
-0.00107454
2.00831e-09
-1.17987e-06
2.36337e-07
-2.37121e-07
-8.65301e-07
2.30477e-07
8.65415e-07
-2.32616e-07
1.18204e-06
0.00107505
-1.18899e-09
-0.00107505
1.99738e-09
-1.17999e-06
2.36389e-07
-2.37179e-07
-8.65576e-07
2.30554e-07
-2.32689e-07
8.6565e-07
-0.00026232
2.22051e-07
2.27288e-07
1.2185e-06
1.18262e-06
-2.17515e-07
-2.25202e-07
0.000262326
-1.22055e-06
-1.18468e-06
0.000264284
-0.000262326
2.19556e-07
2.27265e-07
2.11277e-09
0.0010741
-2.42513e-07
1.22055e-06
2.41649e-07
8.65448e-07
-2.29916e-07
-8.65436e-07
2.27741e-07
-1.22389e-06
-1.11652e-09
2.09802e-09
0.00107453
-2.45274e-07
1.22596e-06
2.44429e-07
8.70997e-07
-2.32718e-07
-8.70987e-07
2.30526e-07
0.0010741
-1.15683e-09
-0.0010741
2.11561e-09
-1.2185e-06
2.41647e-07
-2.42514e-07
-8.65426e-07
2.27745e-07
-2.29913e-07
8.65459e-07
1.22595e-06
0.00107453
-1.07811e-09
-0.00107453
2.0998e-09
-1.2239e-06
2.44423e-07
-2.4528e-07
-8.70991e-07
2.30519e-07
-2.32727e-07
8.70991e-07
-2.20217e-07
-2.22513e-07
0.000262346
-1.18731e-06
0.000264313
-0.000262346
2.22305e-07
2.24581e-07
2.00232e-09
0.00107514
-2.39899e-07
1.18468e-06
2.39107e-07
8.68264e-07
-2.32711e-07
-8.68177e-07
2.30561e-07
-1.21856e-06
-1.10455e-09
2.12955e-09
0.00107421
-2.45266e-07
1.2206e-06
2.44401e-07
8.68141e-07
-2.32663e-07
-8.68149e-07
2.30491e-07
0.00107514
-1.22143e-09
-0.00107514
2.00238e-09
-1.18262e-06
2.39104e-07
-2.39901e-07
-8.6817e-07
2.30564e-07
-2.32708e-07
8.68269e-07
1.2206e-06
0.00107421
-1.10761e-09
-0.00107421
2.11975e-09
-1.21856e-06
2.444e-07
-2.45268e-07
-8.68147e-07
2.30492e-07
-2.32664e-07
8.68144e-07
-1.11924e-09
2.12638e-09
0.00107401
-2.39755e-07
1.21525e-06
2.38913e-07
8.65466e-07
-2.29921e-07
2.27734e-07
-8.65476e-07
-1.22628e-09
-0.00107488
2.00926e-09
-1.18522e-06
2.36328e-07
-2.3713e-07
-8.65473e-07
2.27826e-07
8.65533e-07
-2.29961e-07
1.21526e-06
0.00107401
-1.12175e-09
-0.00107401
2.11634e-09
-1.21321e-06
2.3892e-07
-2.39749e-07
-8.65474e-07
2.27734e-07
-2.2992e-07
8.65465e-07
-2.17683e-07
-2.25017e-07
0.000262308
-1.18194e-06
0.000264263
-0.000262308
2.19742e-07
2.27066e-07
-1.1695e-09
1.99766e-09
0.00107505
-2.37182e-07
1.18204e-06
2.36385e-07
8.65644e-07
-2.32697e-07
2.30548e-07
-8.65584e-07
-1.24609e-09
-0.00107454
2.00963e-09
-1.17987e-06
2.36337e-07
-2.37122e-07
-8.653e-07
2.30479e-07
8.65417e-07
-2.32615e-07
1.18204e-06
0.00107505
-1.09492e-09
-0.00107505
1.98154e-09
-1.17999e-06
2.36383e-07
-2.37184e-07
-8.65588e-07
2.3054e-07
-2.32703e-07
8.65637e-07
-0.00026232
2.22047e-07
2.2729e-07
1.2185e-06
1.18263e-06
-2.17517e-07
-2.25202e-07
0.000262326
-1.22055e-06
-1.18468e-06
0.000264284
-0.000262326
2.19553e-07
2.27266e-07
2.11595e-09
0.0010741
-2.42513e-07
1.22055e-06
2.41649e-07
8.65448e-07
-2.29917e-07
-8.65436e-07
2.2774e-07
-1.2239e-06
-1.06551e-09
2.1046e-09
0.00107453
-2.4528e-07
1.22595e-06
2.44423e-07
8.70985e-07
-2.32731e-07
-8.70996e-07
2.30512e-07
0.0010741
-1.15877e-09
-0.0010741
2.115e-09
-1.2185e-06
2.41648e-07
-2.42513e-07
-8.65426e-07
2.27746e-07
-2.29913e-07
8.6546e-07
1.22595e-06
0.00107453
-1.06508e-09
-0.00107453
2.10002e-09
-1.2239e-06
2.44422e-07
-2.4528e-07
-8.70994e-07
2.30514e-07
-2.32731e-07
8.70987e-07
-2.20223e-07
-2.22517e-07
0.000262346
-1.18731e-06
0.000264313
-0.000262346
2.22304e-07
2.24579e-07
2.01022e-09
0.00107514
-2.39901e-07
1.18468e-06
2.39104e-07
8.68264e-07
-2.32712e-07
-8.68177e-07
2.30561e-07
-1.21857e-06
-1.1014e-09
2.13175e-09
0.00107421
-2.45269e-07
1.2206e-06
2.44399e-07
8.68141e-07
-2.32664e-07
-8.6815e-07
2.30491e-07
0.00107514
-1.2172e-09
-0.00107514
2.00952e-09
-1.18263e-06
2.39101e-07
-2.39904e-07
-8.6817e-07
2.30564e-07
-2.32709e-07
8.68269e-07
1.2206e-06
0.00107421
-1.10168e-09
-0.00107421
2.12029e-09
-1.21857e-06
2.44399e-07
-2.45269e-07
-8.68148e-07
2.30492e-07
-2.32665e-07
8.68143e-07
-1.12295e-09
2.11721e-09
0.00107401
-2.3975e-07
1.21526e-06
2.38919e-07
8.65462e-07
-2.29925e-07
2.2773e-07
-8.65481e-07
-1.22359e-09
-0.00107488
2.00577e-09
-1.18522e-06
2.36328e-07
-2.37129e-07
-8.65473e-07
2.27827e-07
8.65532e-07
-2.2996e-07
1.21526e-06
0.00107401
-1.12304e-09
-0.00107401
2.10998e-09
-1.21321e-06
2.38923e-07
-2.39745e-07
-8.65476e-07
2.27733e-07
-2.2992e-07
8.65464e-07
-2.17683e-07
-2.25019e-07
0.000262308
-1.18194e-06
0.000264263
-0.000262308
2.19742e-07
2.27066e-07
-1.07923e-09
1.98349e-09
0.00107505
-2.37187e-07
1.18204e-06
2.3638e-07
8.65632e-07
-2.3271e-07
2.30534e-07
-8.65596e-07
-1.25106e-09
-0.00107454
2.0112e-09
-1.17987e-06
2.36336e-07
-2.37122e-07
-8.65298e-07
2.3048e-07
8.65418e-07
-2.32613e-07
1.18204e-06
0.00107505
-1.08338e-09
-0.00107505
1.98687e-09
-1.17999e-06
2.36382e-07
-2.37186e-07
-8.65592e-07
2.30536e-07
-2.32707e-07
8.65634e-07
-0.00026232
2.22046e-07
2.27292e-07
1.2185e-06
1.18263e-06
-2.17519e-07
-2.25202e-07
0.000262326
-1.22055e-06
-1.18468e-06
0.000264284
-0.000262326
2.19553e-07
2.27265e-07
2.11631e-09
0.0010741
-2.42513e-07
1.22055e-06
2.41649e-07
8.65447e-07
-2.29918e-07
-8.65437e-07
2.27739e-07
-1.2239e-06
-1.05658e-09
2.10567e-09
0.00107453
-2.4528e-07
1.22595e-06
2.44423e-07
8.70983e-07
-2.32734e-07
-8.70999e-07
2.30509e-07
0.0010741
-1.15881e-09
-0.0010741
2.11336e-09
-1.2185e-06
2.41648e-07