/*--------------------------------*- C++ -*----------------------------------*\
| =========                 |                                                 |
| \\      /  F ield         | OpenFOAM: The Open Source CFD Toolbox           |
|  \\    /   O peration     | Version:  2206                                  |
|   \\  /    A nd           | Website:  www.openfoam.com                      |
|    \\/     M anipulation  |                                                 |
\*---------------------------------------------------------------------------*/
FoamFile
{
    version     2.0;
    format      ascii;
    arch        "LSB;label=32;scalar=64";
    class       volScalarField;
    location    "1";
    object      p;
}
// * * * * * * * * * * * * * * * * * * * * * * * * * * * * * * * * * * * * * //

dimensions      [0 2 -2 0 0 0 0];

internalField   nonuniform List<scalar> 
200184
(
1.08097e-06
1.08192e-06
1.08192e-06
1.08271e-06
1.07636e-06
1.0778e-06
1.0778e-06
1.07818e-06
1.07133e-06
1.07229e-06
1.07229e-06
1.07238e-06
1.06583e-06
1.06661e-06
1.06661e-06
1.06663e-06
1.06019e-06
1.06092e-06
1.06092e-06
1.06093e-06
1.05452e-06
1.05524e-06
1.05524e-06
1.05524e-06
1.04885e-06
1.04956e-06
1.04956e-06
1.04956e-06
1.04316e-06
1.04387e-06
1.04387e-06
1.04387e-06
1.03748e-06
1.03819e-06
1.03819e-06
1.03819e-06
1.0318e-06
1.03251e-06
1.03251e-06
1.03251e-06
1.02612e-06
1.02683e-06
1.02683e-06
1.02683e-06
1.02044e-06
1.02115e-06
1.02115e-06
1.02115e-06
1.01475e-06
1.01546e-06
1.01546e-06
1.01546e-06
1.00907e-06
1.00978e-06
1.00978e-06
1.00978e-06
1.00339e-06
1.0041e-06
1.0041e-06
1.0041e-06
9.97707e-07
9.98416e-07
9.98418e-07
9.98417e-07
9.92025e-07
9.92735e-07
9.92735e-07
9.92735e-07
9.86342e-07
9.87052e-07
9.87052e-07
9.87053e-07
9.8066e-07
9.8137e-07
9.8137e-07
9.81371e-07
9.74978e-07
9.75688e-07
9.75689e-07
9.75688e-07
9.69296e-07
9.70006e-07
9.70006e-07
9.70006e-07
9.63614e-07
9.64324e-07
9.64323e-07
9.64324e-07
9.57932e-07
9.58642e-07
9.58642e-07
9.58642e-07
9.5225e-07
9.52959e-07
9.5296e-07
9.5296e-07
9.46567e-07
9.47277e-07
9.47277e-07
9.47277e-07
9.40885e-07
9.41596e-07
9.41594e-07
9.41596e-07
9.35203e-07
9.35916e-07
9.35914e-07
9.35914e-07
9.29521e-07
9.30229e-07
9.3023e-07
9.30231e-07
9.23839e-07
9.24548e-07
9.24549e-07
9.24549e-07
9.18157e-07
9.18866e-07
9.18866e-07
9.18867e-07
9.12474e-07
9.13184e-07
9.13184e-07
9.13185e-07
9.06792e-07
9.07502e-07
9.07503e-07
9.07503e-07
9.0111e-07
9.0182e-07
9.0182e-07
9.0182e-07
8.95428e-07
8.96138e-07
8.96139e-07
8.96138e-07
8.89746e-07
8.90456e-07
8.90455e-07
8.90456e-07
8.84064e-07
8.84774e-07
8.84774e-07
8.84774e-07
8.78382e-07
8.79091e-07
8.79092e-07
8.79092e-07
8.72699e-07
8.73409e-07
8.73409e-07
8.73409e-07
8.67017e-07
8.67727e-07
8.67726e-07
8.67727e-07
8.61335e-07
8.62045e-07
8.62046e-07
8.62045e-07
8.55652e-07
8.56363e-07
8.56363e-07
8.56363e-07
8.49971e-07
8.50681e-07
8.50681e-07
8.50681e-07
8.44289e-07
8.44999e-07
8.44998e-07
8.44999e-07
8.38607e-07
8.3932e-07
8.39317e-07
8.39317e-07
8.32924e-07
8.33633e-07
8.33633e-07
8.33634e-07
8.27242e-07
8.2795e-07
8.27952e-07
8.27952e-07
8.2156e-07
8.2227e-07
8.22271e-07
8.2227e-07
8.15878e-07
8.1659e-07
8.16588e-07
8.16588e-07
8.10195e-07
8.10903e-07
8.10908e-07
8.10906e-07
8.04514e-07
8.05222e-07
8.05223e-07
8.05223e-07
7.98832e-07
7.99541e-07
7.99541e-07
7.99541e-07
7.9315e-07
7.93859e-07
7.93859e-07
7.93859e-07
7.87467e-07
7.88177e-07
7.88176e-07
7.88177e-07
7.81785e-07
7.82495e-07
7.82494e-07
7.82495e-07
7.76103e-07
7.76813e-07
7.76813e-07
7.76813e-07
7.70421e-07
7.71132e-07
7.71131e-07
7.71131e-07
7.64738e-07
7.65449e-07
7.65448e-07
7.65449e-07
7.59056e-07
7.59764e-07
7.59765e-07
7.59766e-07
7.53374e-07
7.54084e-07
7.54085e-07
7.54084e-07
7.47692e-07
7.48402e-07
7.48402e-07
7.48402e-07
7.4201e-07
7.4272e-07
7.4272e-07
7.4272e-07
7.36328e-07
7.37038e-07
7.37038e-07
7.37038e-07
7.30646e-07
7.31355e-07
7.31355e-07
7.31356e-07
7.24963e-07
7.25673e-07
7.25674e-07
7.25674e-07
7.19281e-07
7.19991e-07
7.19992e-07
7.19992e-07
7.13599e-07
7.14309e-07
7.14308e-07
7.14309e-07
7.07917e-07
7.08627e-07
7.08627e-07
7.08627e-07
7.02234e-07
7.02945e-07
7.02945e-07
7.02945e-07
6.96553e-07
6.97262e-07
6.97262e-07
6.97263e-07
6.90871e-07
6.9158e-07
6.91581e-07
6.91581e-07
6.85188e-07
6.85898e-07
6.85898e-07
6.85898e-07
6.79506e-07
6.80216e-07
6.80215e-07
6.80216e-07
6.73824e-07
6.74534e-07
6.74534e-07
6.74534e-07
6.68142e-07
6.68852e-07
6.68851e-07
6.68852e-07
6.6246e-07
6.6317e-07
6.6317e-07
6.6317e-07
6.56778e-07
6.57487e-07
6.57488e-07
6.57488e-07
6.51095e-07
6.51805e-07
6.51805e-07
6.51806e-07
6.45413e-07
6.46123e-07
6.46123e-07
6.46123e-07
6.39731e-07
6.40441e-07
6.40443e-07
6.40442e-07
6.34049e-07
6.34759e-07
6.34758e-07
6.34759e-07
6.28367e-07
6.29078e-07
6.29075e-07
6.29077e-07
6.22685e-07
6.23397e-07
6.23394e-07
6.23395e-07
6.17003e-07
6.1771e-07
6.17713e-07
6.17712e-07
6.1132e-07
6.1203e-07
6.12031e-07
6.12031e-07
6.05638e-07
6.06348e-07
6.06349e-07
6.06349e-07
5.99956e-07
6.00666e-07
6.00665e-07
6.00666e-07
5.94274e-07
5.94984e-07
5.94985e-07
5.94984e-07
5.88592e-07
5.89302e-07
5.89302e-07
5.89302e-07
5.8291e-07
5.8362e-07
5.83621e-07
5.8362e-07
5.77228e-07
5.77938e-07
5.77939e-07
5.77938e-07
5.71546e-07
5.72256e-07
5.72254e-07
5.72256e-07
5.65864e-07
5.66574e-07
5.66573e-07
5.66574e-07
5.60182e-07
5.60892e-07
5.60892e-07
5.60892e-07
5.54499e-07
5.55209e-07
5.55211e-07
5.5521e-07
5.48817e-07
5.49528e-07
5.49527e-07
5.49527e-07
5.43135e-07
5.43845e-07
5.43844e-07
5.43845e-07
5.37453e-07
5.38165e-07
5.38164e-07
5.38164e-07
5.31771e-07
5.3248e-07
5.3248e-07
5.32481e-07
5.26089e-07
5.26797e-07
5.26799e-07
5.26799e-07
5.20407e-07
5.21116e-07
5.21118e-07
5.21117e-07
5.14725e-07
5.15435e-07
5.15436e-07
5.15435e-07
5.09043e-07
5.09752e-07
5.09751e-07
5.09752e-07
5.0336e-07
5.0407e-07
5.0407e-07
5.0407e-07
4.97678e-07
4.98389e-07
4.98388e-07
4.98389e-07
4.91996e-07
4.92709e-07
4.92705e-07
4.92707e-07
4.86314e-07
4.87023e-07
4.87024e-07
4.87024e-07
4.80632e-07
4.81339e-07
4.81342e-07
4.81341e-07
4.7495e-07
4.7566e-07
4.7566e-07
4.7566e-07
4.69268e-07
4.69979e-07
4.69978e-07
4.69978e-07
4.63586e-07
4.64297e-07
4.64295e-07
4.64296e-07
4.57903e-07
4.58611e-07
4.58614e-07
4.58613e-07
4.52221e-07
4.52931e-07
4.52934e-07
4.52932e-07
4.46539e-07
4.47249e-07
4.47248e-07
4.47249e-07
4.40857e-07
4.41567e-07
4.41565e-07
4.41567e-07
4.35175e-07
4.35885e-07
4.35884e-07
4.35885e-07
4.29492e-07
4.30202e-07
4.30203e-07
4.30203e-07
4.2381e-07
4.24522e-07
4.24521e-07
4.24521e-07
4.18128e-07
4.1884e-07
4.18838e-07
4.18839e-07
4.12446e-07
4.13153e-07
4.13157e-07
4.13156e-07
4.06764e-07
4.07473e-07
4.07478e-07
4.07475e-07
4.01082e-07
4.01794e-07
4.0179e-07
4.01792e-07
3.954e-07
3.9611e-07
3.96108e-07
3.9611e-07
3.89718e-07
3.90426e-07
3.90428e-07
3.90428e-07
3.84036e-07
3.84745e-07
3.84746e-07
3.84746e-07
3.78353e-07
3.79066e-07
3.79064e-07
3.79064e-07
3.72672e-07
3.7338e-07
3.73381e-07
3.73381e-07
3.6699e-07
3.67701e-07
3.677e-07
3.677e-07
3.61307e-07
3.62017e-07
3.62018e-07
3.62018e-07
3.55625e-07
3.56335e-07
3.56334e-07
3.56336e-07
3.49944e-07
3.50651e-07
3.50653e-07
3.50653e-07
3.44261e-07
3.4497e-07
3.44971e-07
3.44971e-07
3.38579e-07
3.39289e-07
3.39289e-07
3.39289e-07
3.32897e-07
3.33608e-07
3.33607e-07
3.33607e-07
3.27214e-07
3.27924e-07
3.27925e-07
3.27925e-07
3.21532e-07
3.22241e-07
3.22243e-07
3.22242e-07
3.15851e-07
3.1656e-07
3.1656e-07
3.1656e-07
3.10169e-07
3.10878e-07
3.10878e-07
3.10878e-07
3.04486e-07
3.05196e-07
3.05196e-07
3.05196e-07
2.98804e-07
2.99515e-07
2.99514e-07
2.99514e-07
2.93122e-07
2.93835e-07
2.93833e-07
2.93832e-07
2.8744e-07
2.88151e-07
2.88149e-07
2.8815e-07
2.81758e-07
2.82465e-07
2.82468e-07
2.82468e-07
2.76076e-07
2.76786e-07
2.76789e-07
2.76786e-07
2.70394e-07
2.71106e-07
2.71102e-07
2.71104e-07
2.64712e-07
2.65422e-07
2.6542e-07
2.65421e-07
2.59029e-07
2.59737e-07
2.59739e-07
2.59739e-07
2.53347e-07
2.54056e-07
2.54058e-07
2.54057e-07
2.47665e-07
2.48375e-07
2.48376e-07
2.48375e-07
2.41983e-07
2.42693e-07
2.42693e-07
2.42693e-07
2.36301e-07
2.37011e-07
2.3701e-07
2.37011e-07
2.30619e-07
2.31329e-07
2.31329e-07
2.31329e-07
2.24937e-07
2.25647e-07
2.25647e-07
2.25647e-07
2.19254e-07
2.19968e-07
2.19966e-07
2.19965e-07
2.13572e-07
2.14282e-07
2.14284e-07
2.14283e-07
2.07891e-07
2.08598e-07
2.08597e-07
2.086e-07
2.02208e-07
2.02918e-07
2.02918e-07
2.02918e-07
1.96526e-07
1.97237e-07
1.97237e-07
1.97236e-07
1.90844e-07
1.91554e-07
1.91552e-07
1.91554e-07
1.85162e-07
1.85873e-07
1.85872e-07
1.85872e-07
1.7948e-07
1.80193e-07
1.8019e-07
1.8019e-07
1.73798e-07
1.74504e-07
1.74508e-07
1.74507e-07
1.68116e-07
1.68825e-07
1.68826e-07
1.68826e-07
1.62433e-07
1.63145e-07
1.63144e-07
1.63144e-07
1.56751e-07
1.5746e-07
1.57464e-07
1.57461e-07
1.51069e-07
1.51779e-07
1.51777e-07
1.51779e-07
1.45387e-07
1.461e-07
1.46096e-07
1.46097e-07
1.39705e-07
1.40414e-07
1.40415e-07
1.40415e-07
1.34023e-07
1.34734e-07
1.34733e-07
1.34733e-07
1.28341e-07
1.2905e-07
1.29051e-07
1.29051e-07
1.22659e-07
1.23367e-07
1.2337e-07
1.23369e-07
1.16977e-07
1.17688e-07
1.17687e-07
1.17687e-07
1.11295e-07
1.12006e-07
1.12007e-07
1.12006e-07
1.05613e-07
1.06323e-07
1.06322e-07
1.06323e-07
9.99312e-08
1.0064e-07
1.00639e-07
1.00641e-07
9.42489e-08
9.49573e-08
9.49583e-08
9.49588e-08
8.85667e-08
8.9277e-08
8.92768e-08
8.9277e-08
8.2885e-08
8.35952e-08
8.35952e-08
8.35951e-08
7.72035e-08
7.79124e-08
7.7913e-08
7.79133e-08
7.15214e-08
7.22312e-08
7.22312e-08
7.22312e-08
6.58392e-08
6.65493e-08
6.65493e-08
6.65496e-08
6.01571e-08
6.0868e-08
6.08674e-08
6.08678e-08
5.4475e-08
5.51883e-08
5.51858e-08
5.51863e-08
4.87932e-08
4.95023e-08
4.95047e-08
4.95032e-08
4.31117e-08
4.38203e-08
4.38236e-08
4.38215e-08
3.74303e-08
3.814e-08
3.81391e-08
3.81393e-08
3.17494e-08
3.24592e-08
3.24558e-08
3.24566e-08
2.60674e-08
2.67713e-08
2.67741e-08
2.67723e-08
2.0376e-08
2.10859e-08
2.10824e-08
2.1086e-08
1.46394e-08
1.53699e-08
1.53671e-08
1.54035e-08
8.89852e-09
9.43988e-09
9.43899e-09
9.71236e-09
1.53308e-09
1.64484e-09
1.64465e-09
1.7906e-09
1.08213e-06
1.08213e-06
1.08213e-06
1.08213e-06
1.08134e-06
1.08134e-06
1.08134e-06
1.08134e-06
1.08213e-06
1.08213e-06
1.08213e-06
1.08213e-06
1.08271e-06
1.07959e-06
1.08192e-06
1.08192e-06
1.07908e-06
1.07908e-06
1.08271e-06
1.07959e-06
1.08192e-06
1.08192e-06
1.07908e-06
1.07908e-06
1.08097e-06
1.08097e-06
1.08097e-06
1.0786e-06
1.0786e-06
1.0786e-06
1.0786e-06
1.08192e-06
1.07907e-06
1.07908e-06
1.08271e-06
1.07959e-06
1.08192e-06
1.07908e-06
1.07908e-06
1.07959e-06
1.07818e-06
1.07383e-06
1.0778e-06
1.0778e-06
1.07369e-06
1.0737e-06
1.07818e-06
1.07383e-06
1.0778e-06
1.0778e-06
1.0737e-06
1.07369e-06
1.0778e-06
1.0737e-06
1.0737e-06
1.07818e-06
1.07383e-06
1.0778e-06
1.0737e-06
1.0737e-06
1.07383e-06
1.07238e-06
1.06806e-06
1.07228e-06
1.07229e-06
1.06803e-06
1.06803e-06
1.07238e-06
1.06806e-06
1.07229e-06
1.07229e-06
1.06803e-06
1.06803e-06
1.07229e-06
1.06803e-06
1.06803e-06
1.07238e-06
1.06806e-06
1.07229e-06
1.06803e-06
1.06803e-06
1.06806e-06
1.06663e-06
1.06235e-06
1.06661e-06
1.06661e-06
1.06235e-06
1.06234e-06
1.06663e-06
1.06235e-06
1.06661e-06
1.06661e-06
1.06234e-06
1.06235e-06
1.06661e-06
1.06234e-06
1.06234e-06
1.06663e-06
1.06235e-06
1.06661e-06
1.06234e-06
1.06234e-06
1.06235e-06
1.06093e-06
1.05666e-06
1.06092e-06
1.06092e-06
1.05666e-06
1.05666e-06
1.06093e-06
1.05666e-06
1.06092e-06
1.06093e-06
1.05666e-06
1.05666e-06
1.06092e-06
1.05666e-06
1.05666e-06
1.06093e-06
1.05666e-06
1.06092e-06
1.05666e-06
1.05666e-06
1.05666e-06
1.05524e-06
1.05098e-06
1.05524e-06
1.05524e-06
1.05098e-06
1.05098e-06
1.05524e-06
1.05098e-06
1.05524e-06
1.05524e-06
1.05098e-06
1.05098e-06
1.05524e-06
1.05098e-06
1.05098e-06
1.05524e-06
1.05098e-06
1.05524e-06
1.05098e-06
1.05098e-06
1.05098e-06
1.04956e-06
1.0453e-06
1.04956e-06
1.04956e-06
1.0453e-06
1.04529e-06
1.04956e-06
1.0453e-06
1.04956e-06
1.04955e-06
1.04529e-06
1.0453e-06
1.04956e-06
1.0453e-06
1.04529e-06
1.04956e-06
1.0453e-06
1.04956e-06
1.04529e-06
1.0453e-06
1.0453e-06
1.04387e-06
1.03961e-06
1.04387e-06
1.04387e-06
1.03961e-06
1.03961e-06
1.04387e-06
1.03961e-06
1.04387e-06
1.04388e-06
1.03961e-06
1.03961e-06
1.04387e-06
1.03961e-06
1.03961e-06
1.04387e-06
1.03961e-06
1.04387e-06
1.03961e-06
1.03961e-06
1.03961e-06
1.03819e-06
1.03393e-06
1.03819e-06
1.03819e-06
1.03393e-06
1.03393e-06
1.03819e-06
1.03393e-06
1.03819e-06
1.03819e-06
1.03393e-06
1.03393e-06
1.03819e-06
1.03393e-06
1.03393e-06
1.03819e-06
1.03393e-06
1.03819e-06
1.03393e-06
1.03393e-06
1.03393e-06
1.03251e-06
1.02825e-06
1.03251e-06
1.03251e-06
1.02825e-06
1.02825e-06
1.03251e-06
1.02825e-06
1.03251e-06
1.03251e-06
1.02825e-06
1.02825e-06
1.03251e-06
1.02825e-06
1.02825e-06
1.03251e-06
1.02825e-06
1.03251e-06
1.02825e-06
1.02825e-06
1.02825e-06
1.02683e-06
1.02257e-06
1.02683e-06
1.02683e-06
1.02257e-06
1.02257e-06
1.02683e-06
1.02257e-06
1.02683e-06
1.02682e-06
1.02257e-06
1.02257e-06
1.02683e-06
1.02257e-06
1.02257e-06
1.02683e-06
1.02257e-06
1.02683e-06
1.02257e-06
1.02257e-06
1.02257e-06
1.02115e-06
1.01688e-06
1.02115e-06
1.02114e-06
1.01688e-06
1.01688e-06
1.02115e-06
1.01688e-06
1.02114e-06
1.02114e-06
1.01688e-06
1.01688e-06
1.02114e-06
1.01688e-06
1.01689e-06
1.02115e-06
1.01688e-06
1.02115e-06
1.01688e-06
1.01688e-06
1.01688e-06
1.01546e-06
1.0112e-06
1.01546e-06
1.01546e-06
1.0112e-06
1.0112e-06
1.01546e-06
1.0112e-06
1.01546e-06
1.01546e-06
1.0112e-06
1.0112e-06
1.01546e-06
1.0112e-06
1.0112e-06
1.01546e-06
1.0112e-06
1.01546e-06
1.0112e-06
1.0112e-06
1.0112e-06
1.00978e-06
1.00552e-06
1.00978e-06
1.00978e-06
1.00552e-06
1.00552e-06
1.00978e-06
1.00552e-06
1.00978e-06
1.00978e-06
1.00552e-06
1.00552e-06
1.00978e-06
1.00552e-06
1.00552e-06
1.00978e-06
1.00552e-06
1.00978e-06
1.00552e-06
1.00552e-06
1.00552e-06
1.0041e-06
9.99838e-07
1.0041e-06
1.0041e-06
9.99837e-07
9.99838e-07
1.0041e-06
9.99838e-07
1.0041e-06
1.0041e-06
9.9984e-07
9.99836e-07
1.0041e-06
9.99837e-07
9.99838e-07
1.0041e-06
9.99838e-07
1.0041e-06
9.99839e-07
9.99838e-07
9.99838e-07
9.98417e-07
9.94155e-07
9.98416e-07
9.98417e-07
9.94155e-07
9.94156e-07
9.98417e-07
9.94156e-07
9.9842e-07
9.98414e-07
9.94157e-07
9.94154e-07
9.98417e-07
9.94156e-07
9.94156e-07
9.98417e-07
9.94156e-07
9.98417e-07
9.94156e-07
9.94156e-07
9.94156e-07
9.92735e-07
9.88474e-07
9.92734e-07
9.92735e-07
9.88475e-07
9.88474e-07
9.92735e-07
9.88473e-07
9.92735e-07
9.92734e-07
9.88472e-07
9.88476e-07
9.92735e-07
9.88474e-07
9.88474e-07
9.92735e-07
9.88473e-07
9.92735e-07
9.88473e-07
9.88474e-07
9.88473e-07
9.87053e-07
9.82791e-07
9.87054e-07
9.87053e-07
9.82792e-07
9.82791e-07
9.87053e-07
9.82791e-07
9.8705e-07
9.87056e-07
9.8279e-07
9.82793e-07
9.87052e-07
9.82792e-07
9.82792e-07
9.87052e-07
9.82791e-07
9.87053e-07
9.82791e-07
9.82791e-07
9.82791e-07
9.81371e-07
9.77109e-07
9.8137e-07
9.8137e-07
9.77109e-07
9.77109e-07
9.8137e-07
9.77109e-07
9.8137e-07
9.81371e-07
9.77112e-07
9.77108e-07
9.8137e-07
9.77109e-07
9.77109e-07
9.81371e-07
9.77109e-07
9.8137e-07
9.7711e-07
9.77109e-07
9.77109e-07
9.75688e-07
9.71427e-07
9.75688e-07
9.75688e-07
9.71428e-07
9.71427e-07
9.75688e-07
9.71427e-07
9.7569e-07
9.75687e-07
9.71426e-07
9.71428e-07
9.75688e-07
9.71427e-07
9.71427e-07
9.75689e-07
9.71427e-07
9.75688e-07
9.71427e-07
9.71427e-07
9.71427e-07
9.70006e-07
9.65745e-07
9.70006e-07
9.70006e-07
9.65745e-07
9.65745e-07
9.70006e-07
9.65745e-07
9.70006e-07
9.70006e-07
9.65746e-07
9.65744e-07
9.70006e-07
9.65745e-07
9.65745e-07
9.70006e-07
9.65745e-07
9.70006e-07
9.65745e-07
9.65745e-07
9.65745e-07
9.64324e-07
9.60062e-07
9.64324e-07
9.64324e-07
9.60063e-07
9.60063e-07
9.64324e-07
9.60062e-07
9.64323e-07
9.64324e-07
9.60062e-07
9.60062e-07
9.64324e-07
9.60063e-07
9.60063e-07
9.64324e-07
9.60062e-07
9.64324e-07
9.60063e-07
9.60063e-07
9.60063e-07
9.58642e-07
9.5438e-07
9.58641e-07
9.58642e-07
9.5438e-07
9.54381e-07
9.58642e-07
9.5438e-07
9.58643e-07
9.5864e-07
9.54382e-07
9.54378e-07
9.58642e-07
9.54381e-07
9.54381e-07
9.58642e-07
9.54381e-07
9.58642e-07
9.54382e-07
9.54381e-07
9.5438e-07
9.52959e-07
9.48698e-07
9.52959e-07
9.52959e-07
9.48699e-07
9.48699e-07
9.5296e-07
9.48698e-07
9.5296e-07
9.52957e-07
9.48699e-07
9.48699e-07
9.52959e-07
9.48698e-07
9.48698e-07
9.5296e-07
9.48698e-07
9.52959e-07
9.48698e-07
9.48698e-07
9.48698e-07
9.47278e-07
9.43016e-07
9.47278e-07
9.47277e-07
9.43017e-07
9.43017e-07
9.47278e-07
9.43016e-07
9.47277e-07
9.47278e-07
9.43015e-07
9.43019e-07
9.47277e-07
9.43017e-07
9.43017e-07
9.47278e-07
9.43016e-07
9.47277e-07
9.43015e-07
9.43017e-07
9.43016e-07
9.41596e-07
9.37334e-07
9.41596e-07
9.41595e-07
9.37333e-07
9.37333e-07
9.41596e-07
9.37334e-07
9.41594e-07
9.41598e-07
9.37335e-07
9.37333e-07
9.41595e-07
9.37337e-07
9.37333e-07
9.41595e-07
9.37334e-07
9.41595e-07
9.37335e-07
9.37335e-07
9.37334e-07
9.35913e-07
9.31652e-07
9.35912e-07
9.35912e-07
9.31653e-07
9.31653e-07
9.35913e-07
9.31652e-07
9.35915e-07
9.35912e-07
9.3165e-07
9.31653e-07
9.35912e-07
9.3165e-07
9.31653e-07
9.35913e-07
9.31652e-07
9.35914e-07
9.31651e-07
9.31651e-07
9.31652e-07
9.30231e-07
9.2597e-07
9.30232e-07
9.30232e-07
9.2597e-07
9.2597e-07
9.30231e-07
9.2597e-07
9.30228e-07
9.30233e-07
9.25968e-07
9.2597e-07
9.30232e-07
9.25969e-07
9.2597e-07
9.30231e-07
9.25969e-07
9.3023e-07
9.25969e-07
9.2597e-07
9.25969e-07
9.24549e-07
9.20288e-07
9.24549e-07
9.24549e-07
9.20288e-07
9.20288e-07
9.24549e-07
9.20287e-07
9.24548e-07
9.24549e-07
9.20287e-07
9.20288e-07
9.24548e-07
9.20287e-07
9.20288e-07
9.24549e-07
9.20287e-07
9.24549e-07
9.20288e-07
9.20288e-07
9.20287e-07
9.18867e-07
9.14605e-07
9.18867e-07
9.18867e-07
9.14605e-07
9.14605e-07
9.18867e-07
9.14605e-07
9.18866e-07
9.18866e-07
9.14606e-07
9.14606e-07
9.18866e-07
9.14606e-07
9.14605e-07
9.18867e-07
9.14605e-07
9.18866e-07
9.14605e-07
9.14606e-07
9.14605e-07
9.13185e-07
9.08923e-07
9.13184e-07
9.13184e-07
9.08923e-07
9.08923e-07
9.13184e-07
9.08923e-07
9.13185e-07
9.13185e-07
9.08926e-07
9.08923e-07
9.13184e-07
9.08923e-07
9.08924e-07
9.13185e-07
9.08924e-07
9.13185e-07
9.08924e-07
9.08924e-07
9.08923e-07
9.07502e-07
9.03241e-07
9.07502e-07
9.07502e-07
9.03242e-07
9.03241e-07
9.07502e-07
9.03241e-07
9.07505e-07
9.07501e-07
9.03242e-07
9.03241e-07
9.07502e-07
9.03241e-07
9.03241e-07
9.07503e-07
9.03241e-07
9.07503e-07
9.03241e-07
9.03241e-07
9.03241e-07
9.0182e-07
8.97559e-07
9.0182e-07
9.0182e-07
8.97558e-07
8.97559e-07
9.0182e-07
8.97559e-07
9.0182e-07
9.0182e-07
8.9756e-07
8.97557e-07
9.0182e-07
8.97559e-07
8.97559e-07
9.0182e-07
8.97559e-07
9.0182e-07
8.9756e-07
8.97559e-07
8.97559e-07
8.96138e-07
8.91877e-07
8.96137e-07
8.96138e-07
8.91878e-07
8.91877e-07
8.96138e-07
8.91877e-07
8.96139e-07
8.96136e-07
8.91875e-07
8.91879e-07
8.96138e-07
8.91877e-07
8.91877e-07
8.96138e-07
8.91877e-07
8.96138e-07
8.91876e-07
8.91877e-07
8.91877e-07
8.90456e-07
8.86195e-07
8.90457e-07
8.90456e-07
8.86195e-07
8.86195e-07
8.90456e-07
8.86195e-07
8.90453e-07
8.90458e-07
8.86194e-07
8.86195e-07
8.90456e-07
8.86195e-07
8.86195e-07
8.90456e-07
8.86194e-07
8.90456e-07
8.86194e-07
8.86195e-07
8.86195e-07
8.84774e-07
8.80512e-07
8.84773e-07
8.84774e-07
8.80511e-07
8.80513e-07
8.84774e-07
8.80512e-07
8.84774e-07
8.84773e-07
8.80515e-07
8.80509e-07
8.84773e-07
8.80513e-07
8.80513e-07
8.84774e-07
8.80513e-07
8.84773e-07
8.80514e-07
8.80513e-07
8.80513e-07
8.79091e-07
8.7483e-07
8.7909e-07
8.79091e-07
8.7483e-07
8.7483e-07
8.79092e-07
8.7483e-07
8.79094e-07
8.79089e-07
8.74831e-07
8.7483e-07
8.79092e-07
8.7483e-07
8.7483e-07
8.79092e-07
8.7483e-07
8.79091e-07
8.7483e-07
8.7483e-07
8.7483e-07
8.7341e-07
8.69149e-07
8.7341e-07
8.73409e-07
8.69149e-07
8.69148e-07
8.73409e-07
8.69148e-07
8.73409e-07
8.7341e-07
8.69146e-07
8.69151e-07
8.73409e-07
8.69148e-07
8.69148e-07
8.73409e-07
8.69148e-07
8.73409e-07
8.69147e-07
8.69148e-07
8.69148e-07
8.67728e-07
8.63466e-07
8.67728e-07
8.67727e-07
8.63466e-07
8.63466e-07
8.67727e-07
8.63466e-07
8.67725e-07
8.6773e-07
8.63467e-07
8.63466e-07
8.67727e-07
8.63466e-07
8.63466e-07
8.67727e-07
8.63466e-07
8.67727e-07
8.63466e-07
8.63466e-07
8.63466e-07
8.62045e-07
8.57784e-07
8.62044e-07
8.62045e-07
8.57783e-07
8.57784e-07
8.62045e-07
8.57784e-07
8.62047e-07
8.62044e-07
8.57785e-07
8.57783e-07
8.62045e-07
8.57784e-07
8.57784e-07
8.62045e-07
8.57784e-07
8.62045e-07
8.57784e-07
8.57784e-07
8.57784e-07
8.56363e-07
8.52102e-07
8.56363e-07
8.56363e-07
8.52102e-07
8.52102e-07
8.56363e-07
8.52102e-07
8.56363e-07
8.56363e-07
8.52102e-07
8.52102e-07
8.56363e-07
8.52102e-07
8.52102e-07
8.56363e-07
8.52101e-07
8.56363e-07
8.52102e-07
8.52102e-07
8.52102e-07
8.50681e-07
8.46419e-07
8.50681e-07
8.50681e-07
8.4642e-07
8.4642e-07
8.50681e-07
8.4642e-07
8.50681e-07
8.5068e-07
8.46419e-07
8.4642e-07
8.50681e-07
8.4642e-07
8.4642e-07
8.50681e-07
8.46419e-07
8.50681e-07
8.4642e-07
8.4642e-07
8.4642e-07
8.44998e-07
8.40737e-07
8.44998e-07
8.44999e-07
8.40737e-07
8.40737e-07
8.44999e-07
8.40737e-07
8.44998e-07
8.44998e-07
8.40738e-07
8.40735e-07
8.44999e-07
8.4074e-07
8.40736e-07
8.44999e-07
8.40737e-07
8.44998e-07
8.40738e-07
8.40738e-07
8.40738e-07
8.39316e-07
8.35055e-07
8.39316e-07
8.39315e-07
8.35056e-07
8.35055e-07
8.39316e-07
8.35055e-07
8.39316e-07
8.39315e-07
8.35054e-07
8.35057e-07
8.39315e-07
8.35056e-07
8.35055e-07
8.39317e-07
8.35055e-07
8.39318e-07
8.35054e-07
8.35055e-07
8.35055e-07
8.33634e-07
8.29373e-07
8.33635e-07
8.33634e-07
8.29374e-07
8.29374e-07
8.33634e-07
8.29373e-07
8.33632e-07
8.33637e-07
8.29371e-07
8.29375e-07
8.33635e-07
8.2937e-07
8.29375e-07
8.33634e-07
8.29373e-07
8.33634e-07
8.29372e-07
8.29372e-07
8.29373e-07
8.27952e-07
8.23691e-07
8.27952e-07
8.27953e-07
8.2369e-07
8.23691e-07
8.27952e-07
8.23691e-07
8.27952e-07
8.27953e-07
8.23693e-07
8.2369e-07
8.27953e-07
8.23691e-07
8.23691e-07
8.27952e-07
8.23691e-07
8.27951e-07
8.23692e-07
8.23691e-07
8.23691e-07
8.2227e-07
8.18009e-07
8.22269e-07
8.2227e-07
8.1801e-07
8.18008e-07
8.2227e-07
8.18009e-07
8.22271e-07
8.22269e-07
8.18007e-07
8.1801e-07
8.2227e-07
8.18011e-07
8.18008e-07
8.2227e-07
8.18009e-07
8.2227e-07
8.18008e-07
8.1801e-07
8.18009e-07
8.16588e-07
8.12326e-07
8.16588e-07
8.16587e-07
8.12326e-07
8.12327e-07
8.16588e-07
8.12327e-07
8.16586e-07
8.16589e-07
8.12328e-07
8.12326e-07
8.16587e-07
8.12326e-07
8.12327e-07
8.16588e-07
8.12327e-07
8.16589e-07
8.12329e-07
8.12327e-07
8.12326e-07
8.10906e-07
8.06645e-07
8.10905e-07
8.10906e-07
8.06645e-07
8.06645e-07
8.10906e-07
8.06644e-07
8.10907e-07
8.10905e-07
8.06643e-07
8.06645e-07
8.10907e-07
8.06643e-07
8.06645e-07
8.10906e-07
8.06644e-07
8.10905e-07
8.06645e-07
8.06644e-07
8.06644e-07
8.05224e-07
8.00962e-07
8.05224e-07
8.05223e-07
8.00962e-07
8.00962e-07
8.05223e-07
8.00962e-07
8.05222e-07
8.05224e-07
8.00964e-07
8.00962e-07
8.05223e-07
8.00962e-07
8.00962e-07
8.05223e-07
8.00962e-07
8.05223e-07
8.00961e-07
8.00962e-07
8.00962e-07
7.99541e-07
7.9528e-07
7.9954e-07
7.99541e-07
7.95279e-07
7.9528e-07
7.99541e-07
7.9528e-07
7.99544e-07
7.99539e-07
7.95282e-07
7.95278e-07
7.99541e-07
7.9528e-07
7.9528e-07
7.99541e-07
7.9528e-07
7.99541e-07
7.9528e-07
7.9528e-07
7.9528e-07
7.93859e-07
7.89598e-07
7.93858e-07
7.93859e-07
7.89598e-07
7.89598e-07
7.93859e-07
7.89598e-07
7.9386e-07
7.93857e-07
7.89598e-07
7.89599e-07
7.93859e-07
7.89598e-07
7.89598e-07
7.93859e-07
7.89598e-07
7.93859e-07
7.89598e-07
7.89598e-07
7.89598e-07
7.88177e-07
7.83916e-07
7.88177e-07
7.88177e-07
7.83917e-07
7.83916e-07
7.88177e-07
7.83916e-07
7.88176e-07
7.88178e-07
7.83913e-07
7.83919e-07
7.88177e-07
7.83916e-07
7.83916e-07
7.88177e-07
7.83916e-07
7.88177e-07
7.83915e-07
7.83916e-07
7.83916e-07
7.82495e-07
7.78233e-07
7.82496e-07
7.82495e-07
7.78234e-07
7.78234e-07
7.82495e-07
7.78233e-07
7.82493e-07
7.82497e-07
7.78234e-07
7.78234e-07
7.82495e-07
7.78234e-07
7.78234e-07
7.82495e-07
7.78234e-07
7.82495e-07
7.78234e-07
7.78234e-07
7.78234e-07
7.76813e-07
7.72551e-07
7.76812e-07
7.76813e-07
7.7255e-07
7.72551e-07
7.76813e-07
7.72552e-07
7.76814e-07
7.76812e-07
7.72554e-07
7.72549e-07
7.76813e-07
7.72553e-07
7.72552e-07
7.76813e-07
7.72552e-07
7.76813e-07
7.72553e-07
7.72552e-07
7.72552e-07
7.7113e-07
7.66869e-07
7.7113e-07
7.7113e-07
7.66869e-07
7.66869e-07
7.71131e-07
7.66869e-07
7.71133e-07
7.71128e-07
7.6687e-07
7.66869e-07
7.71131e-07
7.66871e-07
7.66869e-07
7.71131e-07
7.66869e-07
7.71131e-07
7.6687e-07
7.6687e-07
7.6687e-07
7.65449e-07
7.61188e-07
7.65448e-07
7.65448e-07
7.61188e-07
7.61188e-07
7.65449e-07
7.61187e-07
7.65449e-07
7.65448e-07
7.61187e-07
7.61189e-07
7.65448e-07
7.61185e-07
7.61188e-07
7.65448e-07
7.61187e-07
7.65449e-07
7.61187e-07
7.61186e-07
7.61187e-07
7.59767e-07
7.55505e-07
7.59767e-07
7.59767e-07
7.55505e-07
7.55506e-07
7.59766e-07
7.55505e-07
7.59766e-07
7.59769e-07
7.55505e-07
7.55505e-07
7.59766e-07
7.55505e-07
7.55505e-07
7.59766e-07
7.55505e-07
7.59765e-07
7.55505e-07
7.55505e-07
7.55505e-07
7.54084e-07
7.49823e-07
7.54083e-07
7.54084e-07
7.49823e-07
7.49823e-07
7.54084e-07
7.49823e-07
7.54085e-07
7.54083e-07
7.49823e-07
7.49823e-07
7.54084e-07
7.49823e-07
7.49823e-07
7.54084e-07
7.49823e-07
7.54084e-07
7.49823e-07
7.49823e-07
7.49823e-07
7.48402e-07
7.44141e-07
7.48402e-07
7.48402e-07
7.44141e-07
7.44141e-07
7.48402e-07
7.44141e-07
7.48401e-07
7.48403e-07
7.44139e-07
7.44143e-07
7.48402e-07
7.44141e-07
7.44141e-07
7.48402e-07
7.44141e-07
7.48402e-07
7.4414e-07
7.44141e-07
7.44141e-07
7.4272e-07
7.38458e-07
7.4272e-07
7.4272e-07
7.38458e-07
7.38459e-07
7.4272e-07
7.38459e-07
7.42719e-07
7.4272e-07
7.38459e-07
7.38458e-07
7.4272e-07
7.38459e-07
7.38459e-07
7.4272e-07
7.38459e-07
7.4272e-07
7.3846e-07
7.38459e-07
7.38459e-07
7.37038e-07
7.32776e-07
7.37037e-07
7.37038e-07
7.32777e-07
7.32777e-07
7.37038e-07
7.32776e-07
7.37037e-07
7.37038e-07
7.32774e-07
7.32778e-07
7.37038e-07
7.32777e-07
7.32777e-07
7.37038e-07
7.32776e-07
7.37038e-07
7.32776e-07
7.32777e-07
7.32777e-07
7.31355e-07
7.27094e-07
7.31356e-07
7.31355e-07
7.27094e-07
7.27094e-07
7.31355e-07
7.27094e-07
7.31353e-07
7.31356e-07
7.27095e-07
7.27094e-07
7.31355e-07
7.27094e-07
7.27095e-07
7.31355e-07
7.27094e-07
7.31356e-07
7.27095e-07
7.27094e-07
7.27094e-07
7.25673e-07
7.21412e-07
7.25673e-07
7.25673e-07
7.21411e-07
7.21412e-07
7.25673e-07
7.21412e-07
7.25675e-07
7.25673e-07
7.21415e-07
7.2141e-07
7.25673e-07
7.21412e-07
7.21413e-07
7.25674e-07
7.21413e-07
7.25673e-07
7.21413e-07
7.21412e-07
7.21412e-07
7.19991e-07
7.1573e-07
7.1999e-07
7.19991e-07
7.15731e-07
7.1573e-07
7.19991e-07
7.1573e-07
7.19993e-07
7.1999e-07
7.15727e-07
7.15732e-07
7.19991e-07
7.1573e-07
7.1573e-07
7.19991e-07
7.1573e-07
7.19991e-07
7.15729e-07
7.1573e-07
7.1573e-07
7.14309e-07
7.10048e-07
7.1431e-07
7.14309e-07
7.10048e-07
7.10048e-07
7.14309e-07
7.10048e-07
7.14306e-07
7.14311e-07
7.10047e-07
7.10048e-07
7.14309e-07
7.10048e-07
7.10048e-07
7.14309e-07
7.10048e-07
7.14309e-07
7.10048e-07
7.10048e-07
7.10048e-07
7.08627e-07
7.04366e-07
7.08627e-07
7.08627e-07
7.04365e-07
7.04366e-07
7.08627e-07
7.04366e-07
7.08627e-07
7.08627e-07
7.04369e-07
7.04364e-07
7.08627e-07
7.04366e-07
7.04366e-07
7.08627e-07
7.04366e-07
7.08627e-07
7.04367e-07
7.04366e-07
7.04366e-07
7.02945e-07
6.98684e-07
7.02944e-07
7.02945e-07
6.98684e-07
6.98684e-07
7.02945e-07
6.98683e-07
7.02947e-07
7.02943e-07
6.98683e-07
6.98684e-07
7.02945e-07
6.98684e-07
6.98684e-07
7.02945e-07
6.98683e-07
7.02945e-07
6.98683e-07
6.98684e-07
6.98684e-07
6.97263e-07
6.93001e-07
6.97262e-07
6.97262e-07
6.93001e-07
6.93002e-07
6.97262e-07
6.93001e-07
6.97262e-07
6.97263e-07
6.93002e-07
6.92999e-07
6.97263e-07
6.93001e-07
6.93002e-07
6.97263e-07
6.93002e-07
6.97262e-07
6.93002e-07
6.93002e-07
6.93001e-07
6.9158e-07
6.87319e-07
6.9158e-07
6.9158e-07
6.87319e-07
6.87319e-07
6.91581e-07
6.87319e-07
6.91581e-07
6.91578e-07
6.87319e-07
6.87319e-07
6.9158e-07
6.87319e-07
6.87319e-07
6.9158e-07
6.87319e-07
6.9158e-07
6.87319e-07
6.87319e-07
6.87319e-07
6.85899e-07
6.81638e-07
6.85898e-07
6.85898e-07
6.81638e-07
6.81637e-07
6.85898e-07
6.81637e-07
6.85898e-07
6.85898e-07
6.81636e-07
6.81639e-07
6.85898e-07
6.81637e-07
6.81637e-07
6.85898e-07
6.81637e-07
6.85898e-07
6.81637e-07
6.81637e-07
6.81637e-07
6.80217e-07
6.75955e-07
6.80217e-07
6.80216e-07
6.75955e-07
6.75955e-07
6.80216e-07
6.75955e-07
6.80215e-07
6.80219e-07
6.75955e-07
6.75957e-07
6.80216e-07
6.75955e-07
6.75955e-07
6.80216e-07
6.75955e-07
6.80216e-07
6.75955e-07
6.75955e-07
6.75955e-07
6.74534e-07
6.70273e-07
6.74534e-07
6.74534e-07
6.70273e-07
6.70273e-07
6.74534e-07
6.70273e-07
6.74535e-07
6.74534e-07
6.70272e-07
6.70274e-07
6.74534e-07
6.70273e-07
6.70273e-07
6.74534e-07
6.70273e-07
6.74534e-07
6.70273e-07
6.70273e-07
6.70273e-07
6.68852e-07
6.6459e-07
6.68852e-07
6.68852e-07
6.6459e-07
6.64591e-07
6.68852e-07
6.64591e-07
6.6885e-07
6.68853e-07
6.64591e-07
6.6459e-07
6.68852e-07
6.64591e-07
6.64591e-07
6.68852e-07
6.6459e-07
6.68852e-07
6.64591e-07
6.64591e-07
6.64591e-07
6.6317e-07
6.58908e-07
6.63169e-07
6.6317e-07
6.58908e-07
6.58909e-07
6.6317e-07
6.58908e-07
6.63171e-07
6.63168e-07
6.5891e-07
6.58906e-07
6.6317e-07
6.58909e-07
6.58909e-07
6.6317e-07
6.58909e-07
6.6317e-07
6.5891e-07
6.58909e-07
6.58908e-07
6.57487e-07
6.53227e-07
6.57487e-07
6.57487e-07
6.53227e-07
6.53226e-07
6.57487e-07
6.53226e-07
6.57489e-07
6.57486e-07
6.53226e-07
6.53228e-07
6.57487e-07
6.53226e-07
6.53226e-07
6.57488e-07
6.53226e-07
6.57487e-07
6.53226e-07
6.53226e-07
6.53226e-07
6.51806e-07
6.47545e-07
6.51806e-07
6.51805e-07
6.47545e-07
6.47544e-07
6.51805e-07
6.47544e-07
6.51804e-07
6.51808e-07
6.47542e-07
6.47546e-07
6.51805e-07
6.47544e-07
6.47544e-07
6.51805e-07
6.47544e-07
6.51805e-07
6.47544e-07
6.47545e-07
6.47544e-07
6.46124e-07
6.41861e-07
6.46123e-07
6.46123e-07
6.41861e-07
6.41862e-07
6.46123e-07
6.41862e-07
6.46122e-07
6.46124e-07
6.41864e-07
6.41859e-07
6.46123e-07
6.41862e-07
6.41863e-07
6.46123e-07
6.41863e-07
6.46123e-07
6.41864e-07
6.41862e-07
6.41862e-07
6.40441e-07
6.3618e-07
6.4044e-07
6.40441e-07
6.3618e-07
6.3618e-07
6.40441e-07
6.3618e-07
6.40443e-07
6.40438e-07
6.3618e-07
6.3618e-07
6.40441e-07
6.3618e-07
6.3618e-07
6.40442e-07
6.3618e-07
6.40441e-07
6.3618e-07
6.3618e-07
6.3618e-07
6.34759e-07
6.30498e-07
6.34759e-07
6.34759e-07
6.30499e-07
6.30498e-07
6.34759e-07