/*--------------------------------*- C++ -*----------------------------------*\
| =========                 |                                                 |
| \\      /  F ield         | OpenFOAM: The Open Source CFD Toolbox           |
|  \\    /   O peration     | Version:  2206                                  |
|   \\  /    A nd           | Website:  www.openfoam.com                      |
|    \\/     M anipulation  |                                                 |
\*---------------------------------------------------------------------------*/
FoamFile
{
    version     2.0;
    format      ascii;
    arch        "LSB;label=32;scalar=64";
    class       surfaceScalarField;
    location    "36.5";
    object      phi;
}
// * * * * * * * * * * * * * * * * * * * * * * * * * * * * * * * * * * * * * //

dimensions      [0 3 -1 0 0 0 0];

oriented        oriented;

internalField   nonuniform List<scalar> 
81717
(
1.79153e-09
1.96247e-09
-0.00109419
-1.89343e-09
-1.87741e-09
0.00109419
-0.00109362
-1.21754e-06
-1.97989e-09
3.50448e-09
0.00109362
-2.62195e-07
1.22062e-06
2.60795e-07
9.0712e-07
-2.67548e-07
-9.06519e-07
2.63805e-07
-0.00109328
-1.21211e-06
-1.98403e-09
3.48117e-09
0.00109328
-2.62178e-07
1.21516e-06
2.60816e-07
9.06949e-07
-2.70212e-07
-9.06396e-07
2.66505e-07
-0.000268548
1.24602e-06
1.21225e-06
-2.37004e-07
-2.42326e-07
0.000266569
1.83892e-09
2.00403e-09
-0.00109419
-1.91579e-09
-1.90234e-09
0.00109419
-0.00109362
-1.21753e-06
-2.03382e-09
3.48945e-09
0.00109362
-2.62184e-07
1.22063e-06
2.60802e-07
9.07128e-07
-2.67519e-07
-9.06509e-07
2.63829e-07
-0.00109328
-1.2121e-06
-2.03393e-09
3.46718e-09
0.00109328
-2.62167e-07
1.21517e-06
2.60823e-07
9.06955e-07
-2.70183e-07
-9.06386e-07
2.66528e-07
-0.000268548
1.24599e-06
1.21222e-06
-2.36982e-07
-2.42306e-07
0.000266569
1.87875e-09
2.04588e-09
-0.00109419
-1.92632e-09
-1.91641e-09
0.00109419
-0.00109362
-1.21751e-06
-2.07639e-09
3.46233e-09
0.00109362
-2.62171e-07
1.22064e-06
2.60814e-07
9.07138e-07
-2.6749e-07
-9.06501e-07
2.63861e-07
-0.00109328
-1.21208e-06
-2.07804e-09
3.44578e-09
0.00109328
-2.62155e-07
1.21518e-06
2.60834e-07
9.06967e-07
-2.70157e-07
-9.06378e-07
2.66561e-07
-0.000268547
1.24598e-06
1.21221e-06
-2.36966e-07
-2.42291e-07
0.000266568
1.96357e-09
2.14569e-09
-0.00109419
-1.97165e-09
-1.95034e-09
0.00109419
-0.00109362
-1.21749e-06
-2.16865e-09
3.41062e-09
0.00109362
-2.62154e-07
1.22067e-06
2.60841e-07
9.07177e-07
-2.67463e-07
-9.0648e-07
2.63904e-07
-0.00109328
-1.21206e-06
-2.15942e-09
3.3789e-09
0.00109328
-2.62135e-07
1.21521e-06
2.60867e-07
9.07e-07
-2.70131e-07
-9.06361e-07
2.66599e-07
-0.000268547
1.24596e-06
1.21219e-06
-2.36944e-07
-2.42276e-07
0.000266568
2.2096e-09
2.36755e-09
-0.00109419
-2.07794e-09
-2.06965e-09
0.00109419
-0.00109362
-1.21747e-06
-2.38076e-09
3.34686e-09
0.00109362
-2.62129e-07
1.2207e-06
2.60881e-07
9.0724e-07
-2.67425e-07
-9.06428e-07
2.63964e-07
-0.00109328
-1.21204e-06
-2.38518e-09
3.33405e-09
0.00109328
-2.62114e-07
1.21524e-06
2.60899e-07
9.07069e-07
-2.70088e-07
-9.06304e-07
2.66665e-07
-0.000268547
1.24594e-06
1.21217e-06
-2.36922e-07
-2.42242e-07
0.000266568
2.09072e-09
2.20894e-09
-0.00109419
-2.01636e-09
-2.03958e-09
0.00109419
-0.00109362
-1.2175e-06
-2.26643e-09
3.39381e-09
0.00109362
-2.62153e-07
1.22068e-06
2.60873e-07
9.07218e-07
-2.67456e-07
-9.0647e-07
2.63957e-07
-0.00109328
-1.21208e-06
-2.25594e-09
3.42237e-09
0.00109327
-2.62151e-07
1.21521e-06
2.6088e-07
9.07048e-07
-2.70121e-07
-9.06345e-07
2.66656e-07
-0.000268546
1.24598e-06
1.21221e-06
-2.36948e-07
-2.42269e-07
0.000266567
1.22628e-09
1.33438e-09
-0.00109418
-1.55048e-09
-1.5827e-09
0.00109418
-0.00109362
-1.2176e-06
-1.42197e-09
3.78872e-09
0.00109362
-2.623e-07
1.22053e-06
2.60681e-07
9.06942e-07
-2.67707e-07
-9.06689e-07
2.63646e-07
-0.00109327
-1.21221e-06
-1.38931e-09
3.85858e-09
0.00109327
-2.62331e-07
1.21503e-06
2.6066e-07
9.06774e-07
-2.70367e-07
-9.06562e-07
2.6635e-07
-0.000268546
1.24611e-06
1.21234e-06
-2.37084e-07
-2.42409e-07
0.000266567
1.03268e-09
1.20073e-09
-0.00109419
-1.5219e-09
-1.52089e-09
0.00109419
-0.00109362
-1.21776e-06
-1.20472e-09
3.70245e-09
0.00109362
-2.62443e-07
1.22053e-06
2.60701e-07
9.06869e-07
-2.68058e-07
-9.06962e-07
2.63495e-07
-0.00109328
-1.21234e-06
-1.19702e-09
3.69337e-09
0.00109328
-2.62433e-07
1.21506e-06
2.60714e-07
9.06694e-07
-2.70718e-07
-9.06838e-07
2.66197e-07
-0.000268547
1.24623e-06
1.21246e-06
-2.37323e-07
-2.42654e-07
0.000266568
2.11424e-09
2.25673e-09
-0.00109419
-2.06221e-09
-2.07033e-09
0.00109419
-0.00109362
-1.21748e-06
-2.28426e-09
3.30475e-09
0.00109362
-2.62134e-07
1.22074e-06
2.60932e-07
9.07233e-07
-2.67549e-07
-9.06514e-07
2.63923e-07
-0.00109328
-1.21204e-06
-2.29694e-09
3.29947e-09
0.00109328
-2.62117e-07
1.21529e-06
2.60955e-07
9.07059e-07
-2.70213e-07
-9.0639e-07
2.66621e-07
-0.000268548
1.24595e-06
1.21219e-06
-2.36938e-07
-2.42258e-07
0.000266569
1.90109e-09
2.04137e-09
-0.00109419
-1.94571e-09
-1.9542e-09
0.00109419
-0.00109362
-1.21754e-06
-2.06945e-09
3.44325e-09
0.00109362
-2.62213e-07
1.22068e-06
2.60854e-07
9.07174e-07
-2.67591e-07
-9.06568e-07
2.63868e-07
-0.00109328
-1.21212e-06
-2.09474e-09
3.44241e-09
0.00109328
-2.622e-07
1.21521e-06
2.60872e-07
9.07003e-07
-2.70251e-07
-9.0644e-07
2.66572e-07
-0.000268548
1.24601e-06
1.21225e-06
-2.3701e-07
-2.42327e-07
0.000266569
1.83412e-09
1.97386e-09
-0.00109419
-1.90513e-09
-1.91719e-09
0.00109419
-0.00109362
-1.21756e-06
-1.99957e-09
3.47492e-09
0.00109362
-2.62228e-07
1.22066e-06
2.6084e-07
9.07155e-07
-2.6761e-07
-9.06591e-07
2.63852e-07
-0.00109328
-1.21213e-06
-2.02759e-09
3.47637e-09
0.00109328
-2.62216e-07
1.2152e-06
2.60858e-07
9.06985e-07
-2.70266e-07
-9.06461e-07
2.66555e-07
-0.000268548
1.24602e-06
1.21227e-06
-2.37025e-07
-2.42343e-07
0.000266569
1.82734e-09
1.96603e-09
-0.00109419
-1.89937e-09
-1.91297e-09
0.00109419
-0.00109362
-1.21756e-06
-1.99318e-09
3.47758e-09
0.00109362
-2.62231e-07
1.22066e-06
2.60841e-07
9.07153e-07
-2.67612e-07
-9.06591e-07
2.63851e-07
-0.00109328
-1.21213e-06
-2.02088e-09
3.48363e-09
0.00109328
-2.6222e-07
1.2152e-06
2.60856e-07
9.06984e-07
-2.7027e-07
-9.06462e-07
2.66555e-07
-0.000268548
1.24603e-06
1.21227e-06
-2.37028e-07
-2.42345e-07
0.000266569
1.82211e-09
1.95989e-09
-0.00109419
-1.89538e-09
-1.90849e-09
0.00109419
-0.00109362
-1.21756e-06
-1.98892e-09
3.4783e-09
0.00109362
-2.6223e-07
1.22066e-06
2.6084e-07
9.07152e-07
-2.67611e-07
-9.06593e-07
2.63849e-07
-0.00109328
-1.21214e-06
-2.01747e-09
3.48579e-09
0.00109328
-2.6222e-07
1.2152e-06
2.60855e-07
9.06983e-07
-2.70269e-07
-9.06463e-07
2.66554e-07
-0.000268548
1.24603e-06
1.21227e-06
-2.37028e-07
-2.42345e-07
0.000266569
1.81745e-09
1.95496e-09
-0.00109419
-1.89179e-09
-1.90529e-09
0.00109419
-0.00109362
-1.21756e-06
-1.9859e-09
3.47872e-09
0.00109362
-2.6223e-07
1.22066e-06
2.60839e-07
9.0715e-07
-2.67611e-07
-9.06592e-07
2.63846e-07
-0.00109328
-1.21214e-06
-2.016e-09
3.48591e-09
0.00109328
-2.62219e-07
1.2152e-06
2.60854e-07
9.06981e-07
-2.70267e-07
-9.06462e-07
2.66552e-07
-0.000268548
1.24603e-06
1.21227e-06
-2.37028e-07
-2.42344e-07
0.000266569
1.81593e-09
1.95364e-09
-0.00109419
-1.89185e-09
-1.90457e-09
0.00109419
-0.00109362
-1.21756e-06
-1.98022e-09
3.48206e-09
0.00109362
-2.6223e-07
1.22066e-06
2.60836e-07
9.07145e-07
-2.67608e-07
-9.0659e-07
2.63842e-07
-0.00109328
-1.21214e-06
-2.01112e-09
3.48803e-09
0.00109328
-2.62219e-07
1.21519e-06
2.60851e-07
9.06977e-07
-2.70264e-07
-9.0646e-07
2.66547e-07
-0.000268548
1.24602e-06
1.21227e-06
-2.37027e-07
-2.42343e-07
0.000266569
1.81796e-09
1.95598e-09
-0.00109419
-1.89202e-09
-1.90588e-09
0.00109419
-0.00109362
-1.21756e-06
-1.98537e-09
3.47857e-09
0.00109362
-2.62226e-07
1.22066e-06
2.60834e-07
9.07139e-07
-2.67598e-07
-9.06581e-07
2.63835e-07
-0.00109328
-1.21213e-06
-2.01413e-09
3.48816e-09
0.00109328
-2.62214e-07
1.21519e-06
2.60846e-07
9.0697e-07
-2.70253e-07
-9.0645e-07
2.66538e-07
-0.000268548
1.24602e-06
1.21227e-06
-2.37022e-07
-2.42338e-07
0.000266569
1.81858e-09
1.95825e-09
-0.00109419
-1.89111e-09
-1.90636e-09
0.00109419
-0.00109362
-1.21755e-06
-1.98814e-09
3.47014e-09
0.00109362
-2.62212e-07
1.22065e-06
2.60823e-07
9.07119e-07
-2.67578e-07
-9.06561e-07
2.63816e-07
-0.00109328
-1.21212e-06
-2.01448e-09
3.48674e-09
0.00109328
-2.62197e-07
1.21518e-06
2.6083e-07
9.06946e-07
-2.70231e-07
-9.06428e-07
2.66515e-07
-0.000268548
1.24601e-06
1.21225e-06
-2.3701e-07
-2.42327e-07
0.000266569
-1.25438e-06
-1.21794e-06
0.000268564
-0.000266574
2.37463e-07
2.45333e-07
0.00109283
-1.79863e-09
-0.00109283
3.68272e-09
-1.25138e-06
2.66156e-07
-2.67674e-07
-9.06496e-07
2.63687e-07
-2.67538e-07
9.07013e-07
1.25988e-06
0.00109327
-1.75161e-09
-0.00109327
3.68387e-09
-1.25687e-06
2.68974e-07
-2.70467e-07
-9.12146e-07
2.66495e-07
-2.70402e-07
9.12641e-07
-1.22062e-06
0.000268593
-0.000266595
2.40288e-07
2.42578e-07
0.00109389
-1.96665e-09
-0.00109389
3.4839e-09
-1.21492e-06
2.6361e-07
-2.65007e-07
-9.09251e-07
2.66577e-07
-2.70358e-07
9.09922e-07
1.25444e-06
0.00109295
-1.74877e-09
-0.00109295
3.69629e-09
-1.25145e-06
2.68949e-07
-2.70463e-07
-9.09264e-07
2.66468e-07
-2.70326e-07
9.09738e-07
-1.9656e-09
-0.00109362
3.51097e-09
-1.21755e-06
2.60791e-07
-2.62202e-07
-9.06527e-07
2.63798e-07
9.07117e-07
-2.6756e-07
1.24901e-06
0.00109274
-1.74838e-09
-0.00109274
3.68999e-09
-1.24602e-06
2.63398e-07
-2.64878e-07
-9.06552e-07
2.63673e-07
-2.67553e-07
9.07016e-07
-1.21516e-06
0.000268542
-0.000266556
2.37673e-07
2.45108e-07
-1.96823e-09
-0.00109328
3.4881e-09
-1.21212e-06
2.60813e-07
-2.62184e-07
-9.06351e-07
2.66475e-07
9.06998e-07
-2.70244e-07
1.21527e-06
0.0010938
-1.95475e-09
-0.0010938
3.49941e-09
-1.21225e-06
2.60862e-07
-2.62257e-07
-9.06623e-07
2.66572e-07
-2.70335e-07
9.07254e-07
-0.000266569
2.40003e-07
2.45355e-07
1.25137e-06
1.21492e-06
-2.34464e-07
-2.42272e-07
0.000266574
-1.25439e-06
-1.21795e-06
0.000268563
-0.000266574
2.37481e-07
2.45345e-07
3.67339e-09
0.00109283
-2.67668e-07
1.25439e-06
2.6616e-07
9.07009e-07
-2.67529e-07
-9.06496e-07
2.63691e-07
-1.25686e-06
-1.76916e-09
3.68195e-09
0.00109327
-2.70461e-07
1.25988e-06
2.68978e-07
9.12643e-07
-2.70393e-07
-9.12139e-07
2.66496e-07
0.00109283
-1.87926e-09
-0.00109283
3.64917e-09
-1.25136e-06
2.66167e-07
-2.67654e-07
-9.06476e-07
2.6372e-07
-2.67494e-07
9.07022e-07
1.25989e-06
0.00109327
-1.81133e-09
-0.00109327
3.66722e-09
-1.25684e-06
2.68983e-07
-2.70448e-07
-9.12133e-07
2.66513e-07
-2.70375e-07
9.12643e-07
-2.37214e-07
-2.3953e-07
0.000266595
-1.22062e-06
0.000268593
-0.000266595
2.40292e-07
2.42594e-07
3.47999e-09
0.00109389
-2.65001e-07
1.21794e-06
2.63614e-07
9.09923e-07
-2.7035e-07
-9.09248e-07
2.66582e-07
-1.25144e-06
-1.76345e-09
3.69659e-09
0.00109295
-2.70459e-07
1.25444e-06
2.68952e-07
9.09735e-07
-2.70313e-07
-9.09261e-07
2.66477e-07
0.00109389
-2.03685e-09
-0.00109389
3.44988e-09
-1.2149e-06
2.63623e-07
-2.64985e-07
-9.09234e-07
2.66604e-07
-2.70321e-07
9.09928e-07
1.25445e-06
0.00109295
-1.807e-09
-0.00109295
3.67271e-09
-1.25143e-06
2.68959e-07
-2.70445e-07
-9.0926e-07
2.66495e-07
-2.70289e-07
9.09734e-07
-1.7628e-09
3.68588e-09
0.00109274
-2.64872e-07
1.249e-06
2.63401e-07
9.07021e-07
-2.67541e-07
2.63681e-07
-9.06544e-07
-2.04065e-09
-0.00109362
3.49178e-09
-1.21753e-06
2.60798e-07
-2.62186e-07
-9.06508e-07
2.63827e-07
9.07126e-07
-2.67522e-07
1.249e-06
0.00109274
-1.82309e-09
-0.00109274
3.66278e-09
-1.246e-06
2.63407e-07
-2.64856e-07
-9.06532e-07
2.63704e-07
-2.67512e-07
9.07027e-07
-2.34647e-07
-2.42078e-07
0.000266556
-1.21516e-06
0.000268542
-0.000266556
2.37689e-07
2.45121e-07
-1.979e-09
3.49683e-09
0.0010938
-2.6225e-07
1.21527e-06
2.60865e-07
9.07257e-07
-2.70322e-07
2.66583e-07
-9.06619e-07
-2.04398e-09
-0.00109328
3.46503e-09
-1.2121e-06
2.6082e-07
-2.62169e-07
-9.06334e-07
2.66505e-07
9.07007e-07
-2.70206e-07
1.21527e-06
0.0010938
-2.02664e-09
-0.0010938
3.47102e-09
-1.21223e-06
2.60872e-07
-2.62234e-07
-9.06608e-07
2.66603e-07
-2.70295e-07
9.07263e-07
-0.000266569
2.40014e-07
2.45364e-07
1.25136e-06
1.2149e-06
-2.34447e-07
-2.42258e-07
0.000266574
-1.2544e-06
-1.21796e-06
0.000268563
-0.000266574
2.37495e-07
2.45362e-07
3.65587e-09
0.00109283
-2.67654e-07
1.25439e-06
2.6617e-07
9.07011e-07
-2.675e-07
-9.06488e-07
2.63713e-07
-1.25684e-06
-1.80686e-09
3.6627e-09
0.00109327
-2.70447e-07
1.25989e-06
2.68988e-07
9.12644e-07
-2.70373e-07
-9.12135e-07
2.66516e-07
0.00109283
-1.92358e-09
-0.00109283
3.63665e-09
-1.25135e-06
2.66179e-07
-2.67644e-07
-9.06472e-07
2.63742e-07
-2.67481e-07
9.07032e-07
1.25991e-06
0.00109327
-1.87901e-09
-0.00109327
3.6181e-09
-1.25682e-06
2.69001e-07
-2.70432e-07
-9.12122e-07
2.66551e-07
-2.70343e-07
9.12659e-07
-2.37203e-07
-2.39514e-07
0.000266595
-1.22064e-06
0.000268593
-0.000266595
2.40321e-07
2.42616e-07
3.45974e-09
0.00109389
-2.64985e-07
1.21795e-06
2.63625e-07
9.09924e-07
-2.70323e-07
-9.09241e-07
2.66602e-07
-1.25143e-06
-1.79686e-09
3.6778e-09
0.00109295
-2.70444e-07
1.25445e-06
2.68962e-07
9.09734e-07
-2.70288e-07
-9.09262e-07
2.66497e-07
0.00109389
-2.08825e-09
-0.00109389
3.43337e-09
-1.21489e-06
2.63635e-07
-2.64975e-07
-9.09226e-07
2.66629e-07
-2.703e-07
9.09941e-07
1.25446e-06
0.00109295
-1.87152e-09
-0.00109295
3.634e-09
-1.25141e-06
2.68973e-07
-2.70432e-07
-9.09245e-07
2.66534e-07
-2.70258e-07
9.09754e-07
-1.81697e-09
3.66771e-09
0.00109274
-2.64855e-07
1.24901e-06
2.63409e-07
9.07028e-07
-2.67511e-07
2.63706e-07
-9.06532e-07
-2.1123e-09
-0.00109362
3.45298e-09
-1.21751e-06
2.60814e-07
-2.6217e-07
-9.06495e-07
2.63862e-07
9.07144e-07
-2.67492e-07
1.24902e-06
0.00109274
-1.88383e-09
-0.00109274
3.64228e-09
-1.24598e-06
2.63418e-07
-2.64846e-07
-9.06522e-07
2.63734e-07
-2.67489e-07
9.07041e-07
-2.34631e-07
-2.42063e-07
0.000266556
-1.21518e-06
0.000268542
-0.000266555
2.37716e-07
2.45138e-07
-2.02137e-09
3.47391e-09
0.0010938
-2.62233e-07
1.21527e-06
2.60874e-07
9.07263e-07
-2.70294e-07
2.66604e-07
-9.0661e-07
-2.10803e-09
-0.00109328
3.4369e-09
-1.21208e-06
2.60835e-07
-2.62155e-07
-9.06322e-07
2.66535e-07
9.07023e-07
-2.70183e-07
1.21528e-06
0.0010938
-2.08695e-09
-0.0010938
3.44293e-09
-1.21221e-06
2.60884e-07
-2.62222e-07
-9.06597e-07
2.66633e-07
-2.70274e-07
9.07282e-07
-0.000266568
2.40033e-07
2.45381e-07
1.25134e-06
1.21489e-06
-2.34433e-07
-2.42242e-07
0.000266574
-1.25442e-06
-1.21798e-06
0.000268563
-0.000266574
2.37518e-07
2.45384e-07
3.63446e-09
0.00109283
-2.67642e-07
1.25441e-06
2.66181e-07
9.07023e-07
-2.67478e-07
-9.06482e-07
2.63744e-07
-1.25682e-06
-1.85581e-09
3.62925e-09
0.00109327
-2.70433e-07
1.2599e-06
2.68999e-07
9.12657e-07
-2.70339e-07
-9.12126e-07
2.66555e-07
0.00109283
-2.01795e-09
-0.00109283
3.57583e-09
-1.25133e-06
2.66198e-07
-2.67631e-07
-9.06457e-07
2.63781e-07
-2.67449e-07
9.07058e-07
1.25992e-06
0.00109327
-1.96048e-09
-0.00109327
3.58786e-09
-1.25682e-06
2.69016e-07
-2.70424e-07
-9.12115e-07
2.66581e-07
-2.70321e-07
9.12679e-07
-2.37179e-07
-2.39496e-07
0.000266595
-1.22066e-06
0.000268592
-0.000266595
2.40334e-07
2.42633e-07
3.43637e-09
0.00109389
-2.64974e-07
1.21796e-06
2.63635e-07
9.09937e-07
-2.70297e-07
-9.09232e-07
2.66633e-07
-1.25142e-06
-1.83571e-09
3.65329e-09
0.00109295
-2.70435e-07
1.25446e-06
2.6897e-07
9.09748e-07
-2.70254e-07
-9.09249e-07
2.66533e-07
0.00109389
-2.18222e-09
-0.00109389
3.37812e-09
-1.21487e-06
2.63654e-07
-2.64961e-07
-9.09215e-07
2.66664e-07
-2.70269e-07
9.09961e-07
1.25448e-06
0.00109295
-1.95853e-09
-0.00109295
3.59879e-09
-1.2514e-06
2.6899e-07
-2.70422e-07
-9.09239e-07
2.6656e-07
-2.70243e-07
9.09777e-07
-1.85931e-09
3.64618e-09
0.00109274
-2.64845e-07
1.24902e-06
2.63418e-07
9.07039e-07
-2.67484e-07
2.6374e-07
-9.06526e-07
-2.1926e-09
-0.00109362
3.41195e-09
-1.2175e-06
2.60831e-07
-2.6216e-07
-9.06489e-07
2.63894e-07
9.07163e-07
-2.67471e-07
1.24903e-06
0.00109274
-1.97011e-09
-0.00109274
3.60261e-09
-1.24597e-06
2.63432e-07
-2.64838e-07
-9.06513e-07
2.63771e-07
-2.67462e-07
9.07063e-07
-2.3461e-07
-2.42049e-07
0.000266555
-1.2152e-06
0.000268542
-0.000266555
2.37727e-07
2.45159e-07
-2.06628e-09
3.448e-09
0.0010938
-2.62223e-07
1.21528e-06
2.60883e-07
9.07281e-07
-2.70266e-07
2.66639e-07
-9.06596e-07
-2.18501e-09
-0.00109328
3.38402e-09
-1.21207e-06
2.60852e-07
-2.62146e-07
-9.06317e-07
2.6657e-07
9.0704e-07
-2.70155e-07
1.2153e-06
0.0010938
-2.14638e-09
-0.0010938
3.40285e-09
-1.2122e-06
2.60902e-07
-2.62212e-07
-9.06603e-07
2.66658e-07
-2.70257e-07
9.07288e-07
-0.000266568
2.40052e-07
2.45394e-07
1.25132e-06
1.21486e-06
-2.34411e-07
-2.4222e-07
0.000266574
-1.25444e-06
-1.218e-06
0.000268563
-0.000266573
2.3755e-07
2.45418e-07
3.57408e-09
0.00109283
-2.67625e-07
1.25443e-06
2.66208e-07
9.07062e-07
-2.67452e-07
-9.06459e-07
2.63782e-07
-1.2568e-06
-1.94002e-09
3.5855e-09
0.00109327
-2.70416e-07
1.25993e-06
2.69028e-07
9.12691e-07
-2.70318e-07
-9.12107e-07
2.66589e-07
0.00109283
-2.13387e-09
-0.00109283
3.56311e-09
-1.25132e-06
2.66223e-07
-2.67622e-07
-9.0641e-07
2.63827e-07
-2.67427e-07
9.07125e-07
1.25994e-06
0.00109327
-2.07553e-09
-0.00109327
3.58169e-09
-1.25681e-06
2.6904e-07
-2.70416e-07
-9.1207e-07
2.66629e-07
-2.70296e-07
9.12743e-07
-2.37163e-07
-2.39474e-07
0.000266595
-1.22068e-06
0.000268592
-0.000266594
2.4037e-07
2.42664e-07
3.39122e-09
0.00109389
-2.64957e-07
1.21799e-06
2.63662e-07
9.09974e-07
-2.70267e-07
-9.09209e-07
2.66673e-07
-1.25139e-06
-1.95778e-09
3.59907e-09
0.00109295
-2.70417e-07
1.25449e-06
2.68998e-07
9.09802e-07
-2.70228e-07
-9.09218e-07
2.66579e-07
0.00109389
-2.30001e-09
-0.00109389
3.37588e-09
-1.21486e-06
2.63678e-07
-2.64955e-07
-9.09167e-07
2.6671e-07
-2.70241e-07
9.10025e-07
1.25449e-06
0.00109294
-2.08151e-09
-0.00109294
3.59421e-09
-1.2514e-06
2.6901e-07
-2.70419e-07
-9.0918e-07
2.66614e-07
-2.70206e-07
9.09847e-07
-1.94936e-09
3.59983e-09
0.00109274
-2.64831e-07
1.24904e-06
2.63443e-07
9.07077e-07
-2.67457e-07
2.63781e-07
-9.06504e-07
-2.29415e-09
-0.00109362
3.40529e-09
-1.21749e-06
2.60856e-07
-2.62153e-07
-9.06447e-07
2.63937e-07
9.07223e-07
-2.67449e-07
1.24905e-06
0.00109274
-2.07589e-09
-0.00109274
3.58328e-09
-1.24596e-06
2.63461e-07
-2.64825e-07
-9.06471e-07
2.63815e-07
-2.67439e-07
9.07124e-07
-2.34591e-07
-2.42027e-07
0.000266555
-1.21522e-06
0.000268542
-0.000266555
2.37765e-07
2.45189e-07
-2.13781e-09
3.40253e-09
0.00109379
-2.62205e-07
1.21531e-06
2.60911e-07
9.07307e-07
-2.70251e-07
2.6667e-07
-9.0659e-07
-2.29583e-09
-0.00109328
3.38375e-09
-1.21206e-06
2.60877e-07
-2.62134e-07
-9.06273e-07
2.66614e-07
9.07104e-07
-2.70134e-07
1.21532e-06
0.00109379
-2.28827e-09
-0.00109379
3.39116e-09
-1.21219e-06
2.60922e-07
-2.62207e-07
-9.06538e-07
2.66716e-07
-2.70222e-07
9.07372e-07
-0.000266568
2.40082e-07
2.45436e-07
1.2513e-06
1.21484e-06
-2.34383e-07
-2.42194e-07
0.000266573
-1.25442e-06
-1.21799e-06
0.000268562
-0.000266573
2.37568e-07
2.45425e-07
3.50693e-09
0.00109283
-2.676e-07
1.25446e-06
2.66246e-07
9.07139e-07
-2.67405e-07
-9.06396e-07
2.63855e-07
-1.25679e-06
-2.17432e-09
3.5263e-09
0.00109327
-2.70394e-07
1.25996e-06
2.69063e-07
9.12762e-07
-2.70272e-07
-9.1205e-07
2.66659e-07
0.00109283
-1.99298e-09
-0.00109283
3.68318e-09
-1.25133e-06
2.66217e-07
-2.67632e-07
-9.06413e-07
2.63838e-07
-2.67436e-07
9.07127e-07
1.25992e-06
0.00109327
-1.93426e-09
-0.00109327
3.66695e-09
-1.25681e-06
2.69042e-07
-2.70418e-07
-9.12074e-07
2.66638e-07
-2.70308e-07
9.12743e-07
-2.37134e-07
-2.39453e-07
0.000266594
-1.22067e-06
0.000268592
-0.000266594
2.40388e-07
2.42678e-07
3.31535e-09
0.00109389
-2.64931e-07
1.21803e-06
2.63703e-07
9.10039e-07
-2.70221e-07
-9.09153e-07
2.66736e-07
-1.25138e-06
-2.16355e-09
3.54612e-09
0.00109294
-2.70396e-07
1.25452e-06
2.69035e-07
9.09859e-07
-2.70187e-07
-9.09167e-07
2.66638e-07
0.00109389
-2.1124e-09
-0.00109389
3.45701e-09
-1.21486e-06
2.63681e-07
-2.64955e-07
-9.09183e-07
2.6671e-07
-2.70263e-07
9.10016e-07
1.25448e-06
0.00109294
-1.89422e-09
-0.00109294
3.69196e-09
-1.2514e-06
2.69015e-07
-2.70418e-07
-9.09204e-07
2.66609e-07
-2.70233e-07
9.09831e-07
-2.17351e-09
3.52646e-09
0.00109274
-2.64802e-07
1.24908e-06
2.63485e-07
9.07142e-07
-2.67415e-07
2.63844e-07
-9.0645e-07
-2.13808e-09
-0.00109362
3.48426e-09
-1.21749e-06
2.60861e-07
-2.62151e-07
-9.06456e-07
2.63941e-07
9.07218e-07
-2.67463e-07
1.24904e-06
0.00109274
-1.91228e-09
-0.00109274
3.696e-09
-1.24596e-06
2.63458e-07
-2.64832e-07
-9.06479e-07
2.63817e-07
-2.67456e-07
9.07119e-07
-2.34566e-07
-2.42003e-07
0.000266555
-1.2152e-06
0.000268541
-0.000266554
2.37772e-07
2.45206e-07
-2.39149e-09
3.33188e-09
0.00109379
-2.62185e-07
1.21534e-06
2.60945e-07
9.07393e-07
-2.70196e-07
2.66748e-07
-9.06515e-07
-2.13688e-09
-0.00109328
3.49827e-09
-1.21207e-06
2.60873e-07
-2.62143e-07
-9.06279e-07
2.66619e-07
9.07101e-07
-2.70148e-07
1.2153e-06
0.00109379
-2.12064e-09
-0.00109379
3.48836e-09
-1.2122e-06
2.6092e-07
-2.62213e-07
-9.06547e-07
2.6672e-07
-2.70237e-07
9.07367e-07
-0.000266568
2.40093e-07
2.45446e-07
1.25135e-06
1.21488e-06
-2.34404e-07
-2.42224e-07
0.000266573
-1.25444e-06
-1.21802e-06
0.000268562
-0.000266573
2.37542e-07
2.45397e-07
3.61541e-09
0.00109283
-2.67641e-07
1.25443e-06
2.66221e-07
9.0712e-07
-2.67434e-07
-9.06435e-07
2.6385e-07
-1.25682e-06
-2.07273e-09
3.57774e-09
0.00109327
-2.70422e-07
1.25994e-06
2.69052e-07
9.12747e-07
-2.70297e-07
-9.12086e-07
2.66661e-07
0.00109283
-1.95586e-09
-0.00109283
3.71444e-09
-1.25132e-06
2.6619e-07
-2.67661e-07
-9.06434e-07
2.63795e-07
-2.67476e-07
9.07107e-07
1.25996e-06
0.00109327
-1.99613e-09
-0.00109327
3.59177e-09
-1.25677e-06
2.6905e-07
-2.70412e-07
-9.12061e-07
2.66651e-07
-2.70292e-07
9.12756e-07
-2.37151e-07
-2.39473e-07
0.000266594
-1.22072e-06
0.000268591
-0.000266594
2.40419e-07
2.42659e-07
3.38543e-09
0.00109389
-2.64963e-07
1.218e-06
2.63687e-07
9.10012e-07
-2.70261e-07
-9.09203e-07
2.66723e-07
-1.25141e-06
-2.01692e-09
3.61971e-09
0.00109294
-2.70425e-07
1.25449e-06
2.6902e-07
9.09833e-07
-2.70227e-07
-9.09218e-07
2.66626e-07
0.00109389
-2.05795e-09
-0.00109389
3.46116e-09
-1.21484e-06
2.63658e-07
-2.64981e-07
-9.09206e-07
2.66668e-07
-2.70305e-07
9.09997e-07
1.25451e-06
0.00109294
-1.86405e-09
-0.00109294
3.68149e-09
-1.25138e-06
2.68994e-07
-2.70442e-07
-9.09222e-07
2.66571e-07
-2.70271e-07
9.09816e-07
-2.04416e-09
3.62204e-09
0.00109274
-2.64839e-07
1.24905e-06
2.63465e-07
9.0712e-07
-2.67451e-07
2.63833e-07
-9.06493e-07
-2.13004e-09
-0.00109362
3.41874e-09
-1.21744e-06
2.60877e-07
-2.62139e-07
-9.06471e-07
2.63904e-07
9.07201e-07
-2.67496e-07
1.24906e-06
0.00109274
-1.88607e-09
-0.00109274
3.70789e-09
-1.24595e-06
2.63434e-07
-2.64857e-07
-9.06496e-07
2.63782e-07
-2.67491e-07
9.07106e-07
-2.34595e-07
-2.42025e-07
0.000266554
-1.21523e-06
0.000268541
-0.000266554
2.37751e-07
2.45183e-07
-2.24611e-09
3.40977e-09
0.00109379
-2.6222e-07
1.21531e-06
2.60927e-07
9.07367e-07
-2.70231e-07
2.66737e-07
-9.06562e-07
-2.11174e-09
-0.00109327
3.49078e-09
-1.21205e-06
2.60854e-07
-2.62165e-07
-9.06292e-07
2.66585e-07
9.07088e-07
-2.7018e-07
1.21533e-06
0.00109379
-2.0817e-09
-0.00109379
3.48431e-09
-1.21217e-06
2.60902e-07
-2.62235e-07
-9.06568e-07
2.66684e-07
-2.70274e-07
9.07349e-07
-0.000266567
2.40072e-07
2.45421e-07
1.25148e-06
1.21501e-06
-2.34544e-07
-2.42365e-07
0.000266572
-1.25414e-06
-1.21771e-06
0.000268563
-0.000266573
2.37117e-07
2.44979e-07
4.081e-09
0.00109283
-2.67827e-07
1.25425e-06
2.65997e-07
9.06845e-07
-2.67688e-07
-9.06657e-07
2.63538e-07
-1.25694e-06
-1.28617e-09
3.95969e-09
0.00109327
-2.70578e-07
1.25976e-06
2.68849e-07
9.12494e-07
-2.70508e-07
-9.12278e-07
2.66377e-07
0.00109283
-5.64133e-10
-0.00109283
4.12757e-09
-1.25173e-06
2.65901e-07
-2.68063e-07
-9.07068e-07
2.63217e-07
-2.68166e-07
9.06598e-07
1.25964e-06
0.00109327
-4.98387e-10
-0.00109327
4.12466e-09
-1.25721e-06
2.68721e-07
-2.70855e-07
-9.12731e-07
2.66018e-07
-2.71044e-07
9.12219e-07
-2.37238e-07
-2.39608e-07
0.000266594
-1.22039e-06
0.000268592
-0.000266594
2.3994e-07
2.42229e-07
3.83194e-09
0.00109389
-2.65147e-07
1.21782e-06
2.63464e-07
9.09738e-07
-2.70516e-07
-9.09424e-07
2.66411e-07
-1.25155e-06
-1.16611e-09
4.05774e-09
0.00109294
-2.70608e-07
1.25431e-06
2.688e-07
9.09563e-07
-2.70476e-07
-9.09435e-07
2.66321e-07
0.00109389
-7.1821e-10
-0.00109389
3.90362e-09
-1.21526e-06
2.63362e-07
-2.65386e-07
-9.09828e-07
2.66099e-07
-2.70988e-07
9.09502e-07
1.25419e-06
0.00109295
-4.75139e-10
-0.00109294
4.1562e-09
-1.2518e-06
2.68689e-07
-2.70856e-07
-9.09851e-07
2.65991e-07
-2.7096e-07
9.09312e-07
-1.18302e-09
4.07821e-09
0.00109274
-2.65025e-07
1.24886e-06
2.63241e-07
9.06849e-07
-2.67698e-07
2.63527e-07
-9.0671e-07
-7.14441e-10
-0.00109362
3.94568e-09
-1.21789e-06
2.60543e-07
-2.62583e-07
-9.07109e-07
2.63315e-07
9.06693e-07
-2.682e-07
1.24876e-06
0.00109274
-5.09228e-10
-0.00109274
4.13019e-09
-1.24636e-06
2.63148e-07
-2.65254e-07
-9.07126e-07
2.63201e-07
-2.68183e-07
9.06601e-07
-2.34729e-07
-2.42162e-07
0.000266554
-1.21492e-06
0.000268542
-0.000266555
2.37327e-07
2.4475e-07
-1.37527e-09
3.85021e-09
0.00109379
-2.62401e-07
1.21513e-06
2.60709e-07
9.0709e-07
-2.70481e-07
2.66428e-07
-9.06784e-07
-7.03243e-10
-0.00109328
3.94164e-09
-1.21246e-06
2.60559e-07
-2.62568e-07
-9.06935e-07
2.65991e-07
9.0657e-07
-2.70884e-07
1.21503e-06
0.0010938
-6.83811e-10
-0.00109379
3.90931e-09
-1.21259e-06
2.60617e-07
-2.62628e-07
-9.0721e-07
2.66091e-07
-2.70976e-07
9.06831e-07
-0.000266568
2.39656e-07
2.45e-07
1.2516e-06
1.21514e-06
-2.34794e-07
-2.42606e-07
0.000266574
-1.25452e-06
-1.21807e-06
0.000268564
-0.000266574
2.37589e-07
2.45454e-07
3.87136e-09
0.00109283
-2.67921e-07
1.25429e-06
2.66061e-07
9.06762e-07
-2.68029e-07
-9.06933e-07
2.63393e-07
-1.25708e-06
-9.99138e-10
3.87667e-09
0.00109327
-2.70715e-07
1.25979e-06
2.68877e-07
9.12398e-07
-2.70893e-07
-9.12579e-07
2.66203e-07
0.00109284
-2.10842e-09
-0.00109284
3.48659e-09
-1.25131e-06
2.66306e-07
-2.67611e-07
-9.06506e-07
2.63798e-07
-2.67564e-07
9.07126e-07
1.26001e-06
0.00109328
-2.00321e-09
-0.00109328
3.48471e-09
-1.2568e-06
2.69119e-07
-2.70409e-07
-9.12169e-07
2.6659e-07
-2.70443e-07
9.12739e-07
-2.37539e-07
-2.39863e-07
0.000266595
-1.22075e-06
0.000268593
-0.000266595
2.40407e-07
2.42705e-07
3.66381e-09
0.00109389
-2.65251e-07
1.21785e-06
2.63516e-07
9.09676e-07
-2.70844e-07
-9.09682e-07
2.66281e-07
-1.25168e-06
-9.83699e-10
3.91968e-09
0.00109295
-2.70719e-07
1.25434e-06
2.68846e-07
9.09486e-07
-2.70818e-07
-9.09705e-07
2.66172e-07
0.00109389
-2.2495e-09
-0.00109389
3.28363e-09
-1.21486e-06
2.63761e-07
-2.64943e-07
-9.09266e-07
2.66677e-07
-2.70386e-07
9.10026e-07
1.25457e-06
0.00109295
-2.04067e-09
-0.00109295
3.50975e-09
-1.25139e-06
2.69093e-07
-2.70408e-07
-9.09283e-07
2.66581e-07
-2.70351e-07
9.09845e-07
-1.0119e-09
3.88441e-09
0.00109274
-2.65118e-07
1.2489e-06
2.633e-07
9.06777e-07
-2.68038e-07
2.63385e-07
-9.06979e-07
-2.25421e-09
-0.00109362
3.30173e-09
-1.21748e-06
2.6094e-07
-2.62139e-07
-9.06539e-07
2.63903e-07
9.07225e-07
-2.67591e-07
1.24913e-06
0.00109274
-2.03256e-09
-0.00109274
3.50555e-09
-1.24595e-06
2.63545e-07
-2.64814e-07
-9.06567e-07
2.63777e-07
-2.67585e-07
9.07124e-07
-2.34979e-07
-2.42416e-07
0.000266555
-1.21529e-06
0.000268543
-0.000266556
2.37805e-07
2.45226e-07
-1.15955e-09
3.66539e-09
0.0010938
-2.62494e-07
1.21517e-06
2.60767e-07
9.07002e-07
-2.70836e-07
2.66269e-07
-9.07068e-07
-2.26689e-09
-0.00109328
3.29458e-09
-1.21205e-06
2.60963e-07
-2.62123e-07
-9.06365e-07
2.66579e-07
9.07103e-07
-2.70274e-07
1.21538e-06
0.0010938
-2.11884e-09
-0.0010938
3.28475e-09
-1.21219e-06
2.61e-07
-2.622e-07
-9.06655e-07
2.66662e-07
-2.70383e-07
9.0735e-07
-0.000266569
2.40117e-07
2.4547e-07
1.25131e-06
1.21485e-06
-2.34397e-07
-2.42209e-07
0.000266574
-1.25445e-06
-1.21801e-06
0.000268564
-0.000266574
2.37524e-07
2.45389e-07
3.495e-09
0.00109284
-2.67609e-07
1.25451e-06
2.66294e-07
9.07127e-07
-2.67527e-07
-9.06487e-07
2.63814e-07
-1.25679e-06
-2.02971e-09
3.49117e-09
0.00109328
-2.70405e-07
1.26e-06
2.69111e-07
9.12747e-07
-2.70405e-07
-9.12145e-07
2.6661e-07
0.00109283
-1.97974e-09
-0.00109283
3.60667e-09
-1.25137e-06
2.66227e-07
-2.67676e-07
-9.06514e-07
2.63781e-07
-2.67548e-07
9.07092e-07
1.25994e-06
0.00109327
-1.8564e-09
-0.00109327
3.60018e-09
-1.25685e-06
2.69043e-07
-2.70469e-07
-9.12183e-07
2.6657e-07
-2.70432e-07
9.12701e-07
-2.37149e-07
-2.39461e-07
0.000266595
-1.22069e-06
0.000268593
-0.000266595
2.40346e-07
2.4264e-07
3.29859e-09
0.00109389
-2.64941e-07
1.21807e-06
2.6375e-07
9.1003e-07
-2.7035e-07
-9.09245e-07
2.66694e-07
-1.25139e-06
-2.07506e-09
3.52048e-09
0.00109295
-2.70405e-07
1.25456e-06
2.69083e-07
9.09854e-07
-2.70309e-07
-9.09255e-07
2.66602e-07
0.00109389
-2.11273e-09
-0.00109389
3.4102e-09
-1.21491e-06
2.63681e-07
-2.65009e-07
-9.09279e-07
2.66658e-07
-2.70374e-07
9.0999e-07
1.2545e-06
0.00109295
-1.90176e-09
-0.00109295
3.62576e-09
-1.25144e-06
2.69016e-07
-2.7047e-07
-9.09294e-07
2.66561e-07
-2.70338e-07
9.09808e-07
-2.06855e-09
3.51113e-09
0.00109274
-2.64808e-07
1.24912e-06
2.63537e-07
9.0713e-07
-2.67546e-07
2.63796e-07
-9.06542e-07
-2.12499e-09
-0.00109362
3.41471e-09
-1.21753e-06
2.60867e-07
-2.62198e-07
-9.06551e-07
2.63885e-07
9.07189e-07
-2.67575e-07
1.24907e-06
0.00109274
-1.91114e-09
-0.00109274
3.60794e-09
-1.246e-06
2.63475e-07
-2.64869e-07
-9.06578e-07
2.63761e-07
-2.67568e-07
9.07088e-07
-2.34574e-07
-2.42018e-07
0.000266556
-1.21523e-06
0.000268542
-0.000266556
2.3774e-07
2.45163e-07
-2.1362e-09
3.2914e-09
0.0010938
-2.62197e-07
1.21537e-06
2.60989e-07
9.07356e-07
-2.70345e-07
2.66681e-07
-9.06631e-07
-2.15239e-09
-0.00109328
3.4136e-09
-1.2121e-06
2.60886e-07
-2.62184e-07
-9.06372e-07
2.66565e-07
9.0707e-07
-2.70256e-07
1.21532e-06
0.0010938
-1.98034e-09
-0.0010938
3.4003e-09
-1.21224e-06
2.60925e-07
-2.62262e-07
-9.06671e-07
2.66641e-07
-2.70372e-07
9.0731e-07
-0.000266569
2.40055e-07
2.45411e-07
1.25138e-06
1.21492e-06
-2.34472e-07
-2.42283e-07
0.000266574
-1.25443e-06
-1.21798e-06
0.000268564
-0.000266574
2.37498e-07
2.45366e-07
3.63339e-09
0.00109283
-2.67692e-07
1.25444e-06
2.66214e-07
9.07069e-07
-2.67569e-07
-9.0654e-07
2.63761e-07
-1.25686e-06
-1.80378e-09
3.62948e-09
0.00109327
-2.70486e-07
1.25993e-06
2.6903e-07
9.12687e-07
-2.70448e-07
-9.122e-07