/*--------------------------------*- C++ -*----------------------------------*\
| =========                 |                                                 |
| \\      /  F ield         | OpenFOAM: The Open Source CFD Toolbox           |
|  \\    /   O peration     | Version:  2206                                  |
|   \\  /    A nd           | Website:  www.openfoam.com                      |
|    \\/     M anipulation  |                                                 |
\*---------------------------------------------------------------------------*/
FoamFile
{
    version     2.0;
    format      ascii;
    arch        "LSB;label=32;scalar=64";
    class       surfaceScalarField;
    location    "0.5";
    object      phi;
}
// * * * * * * * * * * * * * * * * * * * * * * * * * * * * * * * * * * * * * //

dimensions      [0 3 -1 0 0 0 0];

oriented        oriented;

internalField   nonuniform List<scalar> 
83375
(
1.50312e-05
1.50434e-05
-1.26929e-07
-1.59819e-06
-1.41618e-05
-1.41879e-05
-4.04689e-07
-4.31846e-06
9.84064e-07
1.4616e-05
-1.25483e-05
1.32303e-05
1.67941e-05
-1.62619e-05
1.58998e-05
-1.72861e-05
4.32646e-06
-1.50212e-05
-4.07872e-07
-4.32295e-06
9.81435e-07
1.46167e-05
-1.25334e-05
1.32161e-05
1.67994e-05
-1.62687e-05
1.5906e-05
-1.72915e-05
4.32592e-06
1.50328e-05
-1.59602e-06
-1.41738e-05
-1.41551e-05
-1.29093e-07
-4.08834e-07
-4.3087e-06
9.83509e-07
1.46288e-05
-1.25363e-05
1.32183e-05
1.68012e-05
-1.62691e-05
1.59073e-05
-1.72925e-05
4.31977e-06
-1.50223e-05
-4.1735e-07
-4.31333e-06
9.7519e-07
1.46188e-05
-1.25326e-05
1.32166e-05
1.67975e-05
-1.62641e-05
1.5904e-05
-1.72877e-05
4.32537e-06
-4.10303e-07
-4.31519e-06
9.83613e-07
1.46272e-05
-1.25465e-05
1.3231e-05
1.67989e-05
-1.62652e-05
1.59028e-05
-1.72911e-05
4.31755e-06
-1.5022e-05
-4.13846e-07
9.76889e-07
1.46182e-05
-1.25448e-05
1.32313e-05
1.67961e-05
-1.62592e-05
1.59013e-05
-1.72857e-05
4.3211e-06
-4.31946e-06
1.50313e-05
-1.59459e-06
-1.4175e-05
-1.41579e-05
-1.26159e-07
-4.0883e-07
9.83918e-07
1.46215e-05
-1.25446e-05
1.32306e-05
1.67964e-05
-1.62602e-05
1.59012e-05
-1.72858e-05
4.31547e-06
-4.31832e-06
-1.50337e-05
-4.15878e-07
9.78127e-07
1.46309e-05
-1.25329e-05
1.32194e-05
1.68028e-05
-1.62672e-05
1.59103e-05
-1.72921e-05
4.31599e-06
-4.31563e-06
-1.60386e-06
-1.41516e-05
-1.41775e-05
-1.22707e-07
1.37477e-05
1.37741e-05
1.59251e-06
-1.4614e-05
-1.46273e-05
-1.60345e-06
-1.41517e-05
-1.41773e-05
1.50219e-05
1.50339e-05
-1.23439e-07
-5.01048e-06
-4.12196e-07
-4.12451e-07
5.02158e-06
-5.0155e-06
-4.10958e-07
-4.1066e-07
5.01894e-06
-4.04569e-07
-4.08688e-07
5.0117e-06
-5.02462e-06
-4.14495e-07
-4.1586e-07
5.007e-06
-5.00637e-06
2.77816e-06
-9.10975e-09
-5.99754e-07
-2.16929e-06
-2.52004e-06
-2.48936e-07
2.16833e-06
6.00647e-07
2.77573e-06
-6.78165e-09
-5.99672e-07
-2.16927e-06
-2.51745e-06
-2.51524e-07
2.16769e-06
6.01277e-07
-1.46171e-05
-1.46299e-05
1.60393e-06
1.37468e-05
1.37735e-05
1.22831e-07
4.03158e-06
-1.34772e-06
6.14439e-06
-4.93206e-06
-1.11804e-06
4.03066e-06
-1.34802e-06
6.14045e-06
-4.93053e-06
-1.11683e-06
-4.00015e-06
9.1396e-07
-5.71339e-06
4.93264e-06
1.34691e-06
-4.00022e-06
9.13113e-07
-5.70865e-06
4.93127e-06
1.34705e-06
9.00923e-10
-8.89373e-06
4.15195e-06
1.33102e-07
3.6925e-06
9.15266e-07
6.1787e-06
-3.62225e-06
-1.63358e-06
-9.31982e-07
-6.1805e-06
1.37692e-06
3.62101e-06
9.33622e-07
-4.23151e-10
8.77085e-06
-3.69153e-06
-4.11078e-06
-5.15301e-08
-9.16585e-07
-8.89514e-06
4.15272e-06
1.34673e-07
3.69311e-06
9.15537e-07
6.18089e-06
5.4905e-09
-3.62293e-06
-1.63132e-06
-9.32127e-07
-6.18292e-06
2.50512e-07
1.37712e-06
3.62236e-06
9.32931e-07
8.77226e-06
-3.69222e-06
-4.11163e-06
-5.21974e-08
-9.16629e-07
1.01029e-09
4.66334e-07
-1.41029e-05
3.74319e-06
9.98672e-07
9.80934e-07
-4.06287e-07
-1.50222e-05
1.32309e-05
-1.25453e-05
-1.72863e-05
1.59005e-05
-1.62606e-05
1.67951e-05
-4.32241e-06
1.28682e-05
-4.01205e-06
2.43845e-06
-1.0843e-06
-4.47833e-06
2.80124e-10
4.13631e-07
1.72844e-05
-1.70421e-05
1.73473e-05
-1.70241e-05
4.48299e-06
-2.53104e-06
-1.27457e-05
4.01288e-06
1.08323e-06
-8.58919e-10
4.15411e-07
-1.70253e-05
1.73469e-05
1.72834e-05
-1.70435e-05
-4.47344e-06
1.75253e-10
-3.74225e-06
-3.63366e-07
1.38759e-05
-9.99585e-07
4.68201e-07
-1.41048e-05
3.74391e-06
9.986e-07
9.82944e-07
1.46166e-05
-4.05121e-07
-1.72921e-05
1.59054e-05
1.67987e-05
-1.62696e-05
-1.50215e-05
1.32161e-05
-1.25341e-05
-4.32019e-06
-4.03184e-06
1.2871e-05
-4.01175e-06
2.43786e-06
-1.08436e-06
-4.48248e-06
4.14234e-07
1.72869e-05
-1.70437e-05
1.73489e-05
-1.70274e-05
4.48521e-06
4.00123e-06
-2.53204e-06
-1.27478e-05
4.01305e-06
1.08265e-06
4.1731e-07
-1.70287e-05
1.73483e-05
1.72864e-05
-1.70453e-05
-4.47839e-06
-3.74318e-06
-3.62872e-07
1.38777e-05
-9.99202e-07
2.77459e-06
-2.16949e-06
-5.99608e-07
-2.51873e-06
2.16892e-06
6.00325e-07
-1.46271e-05
1.5976e-06
1.37703e-05
1.37508e-05
1.24932e-07
6.1383e-06
-4.92984e-06
-1.11827e-06
-1.34745e-06
-2.77692e-06
4.03045e-06
6.14489e-06
-4.93325e-06
-1.11807e-06
-1.3471e-06
9.12925e-07
-5.70734e-06
4.93042e-06
1.34649e-06
2.52145e-06
-4.00057e-06
9.13549e-07
-5.71449e-06
4.93403e-06
1.34603e-06
-7.95116e-09
-2.16902e-06
-5.9995e-07
-2.47739e-07
2.16787e-06
6.0132e-07
-8.89557e-06
-1.31427e-09
1.34795e-07
4.15329e-06
3.69338e-06
9.15427e-07
6.18102e-06
-3.62333e-06
-1.63278e-06
-9.31686e-07
-6.18353e-06
1.37652e-06
3.62137e-06
9.34123e-07
8.77206e-06
1.39222e-09
-3.69219e-06
-5.29555e-08
-4.11158e-06
-9.16728e-07
-1.13247e-09
4.67839e-07
-1.41051e-05
3.7454e-06
9.9746e-07
9.78438e-07
-4.11019e-07
-1.50341e-05
1.32192e-05
-1.25336e-05
-1.72932e-05
1.59086e-05
-1.62685e-05
1.68023e-05
-4.30674e-06
1.28708e-05
-4.01263e-06
2.43806e-06
-1.08458e-06
-4.48156e-06
2.12841e-09
4.14766e-07
1.72864e-05
-1.7044e-05
1.73479e-05
-1.70269e-05
4.48471e-06
-2.5313e-06
-1.27491e-05
4.01462e-06
1.08207e-06
-3.39013e-09
4.18161e-07
-1.70288e-05
1.73475e-05
1.72858e-05
-1.70454e-05
-4.47701e-06
1.05087e-09
-3.74407e-06
-3.64243e-07
1.38781e-05
-9.98812e-07
-8.89445e-06
4.15229e-06
1.32762e-07
3.69298e-06
9.1511e-07
6.17931e-06
6.19817e-09
-3.62027e-06
-1.63236e-06
-9.32883e-07
-6.18153e-06
2.50699e-07
1.37732e-06
3.6193e-06
9.34212e-07
8.77143e-06
-3.69187e-06
-4.11096e-06
-5.08005e-08
-9.164e-07
-1.41042e-05
4.66353e-07
3.7451e-06
9.97186e-07
9.88019e-07
1.46163e-05
-1.72897e-05
1.59023e-05
1.67959e-05
-1.6266e-05
-1.50229e-05
1.32164e-05
-1.25355e-05
-4.31879e-06
-3.99438e-07
-4.48298e-06
4.13389e-07
1.72843e-05
-1.70428e-05
1.73474e-05
-1.70255e-05
4.48349e-06
-4.03162e-06
1.28682e-05
-4.01207e-06
2.43828e-06
-1.08347e-06
4.16461e-07
-1.70257e-05
1.73475e-05
1.72843e-05
-1.70436e-05
-4.47728e-06
4.00077e-06
-2.53176e-06
-1.2746e-05
4.01361e-06
1.08181e-06
-3.74421e-06
1.38772e-05
-3.62173e-07
-9.98291e-07
8.89384e-06
-3.56757e-09
4.70486e-07
-1.4104e-05
3.74523e-06
9.98059e-07
9.8504e-07
-4.09106e-07
-1.50328e-05
1.32314e-05
-1.25471e-05
-1.7292e-05
1.59028e-05
1.67991e-05
-1.62662e-05
-4.31333e-06
-6.17945e-06
1.28695e-05
-4.01264e-06
2.43736e-06
-1.08435e-06
-4.48117e-06
2.82187e-09
4.16995e-07
1.72856e-05
-1.70444e-05
1.73483e-05
-1.70269e-05
4.48243e-06
6.181e-06
-2.5326e-06
-1.27457e-05
4.01398e-06
1.08278e-06
3.78614e-09
4.17767e-07
-1.7028e-05
1.73483e-05
1.72853e-05
-1.70452e-05
-4.47805e-06
-8.77094e-06
-1.20918e-09
-3.74498e-06
-3.62243e-07
1.38775e-05
-9.98142e-07
-3.39368e-09
1.36415e-07
4.15199e-06
3.69362e-06
9.15208e-07
-3.62207e-06
-1.63292e-06
-9.32407e-07
1.3783e-06
3.62088e-06
9.34076e-07
8.73451e-12
-3.6934e-06
-5.18112e-08
-4.11009e-06
-9.15648e-07
8.89295e-06
-1.41028e-05
4.63607e-07
3.74567e-06
9.97051e-07
-4.47897e-06
4.11862e-07
1.72855e-05
-1.70425e-05
1.73479e-05
-1.70241e-05
4.48e-06
-6.1772e-06
-4.03141e-06
1.28662e-05
-4.01416e-06
2.43909e-06
-1.08257e-06
4.12673e-07
-1.7025e-05
1.73471e-05
1.72853e-05
-1.70434e-05
-4.47473e-06
-9.77069e-07
-8.77023e-06
-3.74594e-06
1.38763e-05
-3.64439e-07
-9.96878e-07
4.15064e-06
1.30688e-07
3.69309e-06
9.15144e-07
8.92561e-09
-3.61852e-06
-1.6339e-06
-9.33694e-07
-3.69312e-06
-4.10984e-06
-5.19622e-08
-9.153e-07
2.77448e-06
-2.16787e-06
-6.00409e-07
-2.51767e-06
2.16699e-06
6.01378e-07
1.59558e-06
1.3771e-05
1.22594e-07
-1.46241e-05
1.37512e-05
6.13795e-06
-4.93034e-06
-1.11754e-06
-1.34722e-06
-2.77744e-06
4.03009e-06
6.14459e-06
-4.93187e-06
-1.11749e-06
-1.34787e-06
-5.70692e-06
4.93129e-06
1.346e-06
9.12746e-07
-8.91361e-09
-2.16853e-06
-5.99993e-07
3.36562e-09
4.15309e-07
1.72825e-05
-1.70442e-05
1.73458e-05
-1.70254e-05
4.48182e-06
-4.47531e-06
-6.17785e-06
1.28663e-05
-4.01302e-06
2.43795e-06
-1.08329e-06
-2.14768e-09
-8.7702e-06
-3.74537e-06
1.38774e-05
-3.61866e-07
-9.9779e-07
4.13366e-07
1.72873e-05
-1.70448e-05
1.73487e-05
-1.70277e-05
4.48249e-06
-4.47792e-06
-6.17986e-06
-4.03063e-06
1.28692e-05
-4.01435e-06
2.43868e-06
-1.08299e-06
-8.77181e-06
-3.74622e-06
1.38788e-05
-3.65436e-07
-9.97482e-07
-3.62071e-06
-1.63348e-06
-9.32564e-07
-1.75208e-09
-3.69288e-06
-5.04938e-08
-4.10935e-06
-9.15722e-07
6.83399e-09
-3.61959e-06
-1.63333e-06
-9.3376e-07
-3.6938e-06
-5.33288e-08
-4.11066e-06
-9.15773e-07
-2.77653e-06
6.14169e-06
-4.93139e-06
-1.11733e-06
-1.34783e-06
-2.77453e-06
6.13829e-06
-4.93099e-06
-1.11622e-06
-1.34717e-06
-2.16665e-06
-6.00938e-07
-2.16683e-06
-6.00848e-07
-2.52011e-06
2.16911e-06
-2.48753e-07
2.77865e-06
-6.00228e-07
-2.16864e-06
-9.78133e-09
-2.51772e-06
2.1693e-06
-2.51248e-07
2.77634e-06
-6.00206e-07
-2.16881e-06
-7.32769e-09
-5.71285e-06
9.14079e-07
4.9314e-06
-4.00045e-06
-5.70853e-06
9.13183e-07
4.92986e-06
-4.00025e-06
-1.2754e-07
-1.59745e-06
-1.41506e-05
-1.41766e-05
1.50203e-05
1.50319e-05
-1.34707e-06
-1.11802e-06
-4.93154e-06
6.14321e-06
4.03208e-06
-1.34736e-06
-1.11695e-06
-4.92998e-06
6.13926e-06
4.03137e-06
2.7783e-06
-2.16563e-06
-1.04902e-08
-6.02187e-07
-2.51803e-06
2.1674e-06
-2.49592e-07
2.7759e-06
-2.1656e-06
-8.06195e-09
-6.02243e-07
-2.5158e-06
2.16746e-06
-2.51866e-07
1.60032e-06
1.37492e-05
1.37756e-05
-1.46195e-05
-1.46332e-05
6.14237e-06
-4.93395e-06
-1.1169e-06
4.03175e-06
-1.34496e-06
6.13821e-06
-4.93237e-06
-1.11572e-06
4.03113e-06
-1.34533e-06
9.13789e-07
-5.71227e-06
4.93278e-06
-3.9994e-06
9.12855e-07
-5.70811e-06
4.9312e-06
-3.9991e-06
5.99939e-07
-2.52067e-06
-2.48562e-07
2.77743e-06
-9.15834e-09
6.00057e-07
-2.51834e-06
-2.50986e-07
2.77473e-06
-6.98568e-09
-3.97304e-06
-1.06888e-06
-1.0674e-06
3.58748e-06
3.60273e-06
-1.0809e-06
-1.05295e-06
1.9326e-06
-1.45581e-06
5.76157e-07
-1.05149e-06
1.9323e-06
-1.45679e-06
5.75986e-07
-3.56965e-06
-3.5877e-06
1.07987e-06
1.43865e-06
-5.74931e-07
1.43983e-06
-5.74926e-07
5.4349e-06
-2.09033e-06
3.56175e-06
8.85842e-07
3.57035e-06
-1.13625e-05
-3.37466e-06
-2.47589e-06
-5.65644e-07
1.05072e-05
2.05338e-06
9.14085e-07
-5.71301e-06
1.34705e-06
-4.00085e-06
-3.74093e-06
5.21294e-06
-1.43866e-06
-1.15139e-06
1.15221e-06
1.45584e-06
5.63499e-07
-1.01977e-05
-1.54384e-06
-3.58833e-06
-8.87528e-07
1.07747e-05
5.43588e-06
-2.09729e-06
3.56162e-06
8.8579e-07
3.58833e-06
-1.13743e-05
-3.37277e-06
-2.48077e-06
-5.65031e-07
1.05031e-05
2.05593e-06
9.13267e-07
-5.7087e-06
1.34726e-06
-4.0007e-06
-3.74044e-06
5.21412e-06
-1.4397e-06
-1.15081e-06
1.1518e-06
1.4569e-06
5.62472e-07
-1.01942e-05
-1.54709e-06
-3.60389e-06
-8.87357e-07
1.07862e-05
-3.56428e-06
-5.21204e-06
2.47538e-06
1.07743e-05
-5.43436e-06
3.73853e-06
1.15398e-06
2.08975e-06
3.37548e-06
-1.01967e-05
-1.54357e-06
5.61678e-07
-1.11736e-06
6.14337e-06
4.03112e-06
-1.13629e-05
8.84316e-07
1.05045e-05
2.05326e-06
-3.56363e-06
-5.21325e-06
2.47959e-06
1.07858e-05
-5.43511e-06
3.73777e-06
1.15366e-06
2.09673e-06
3.37405e-06
-1.01931e-05
-1.54726e-06
5.60927e-07
-1.11616e-06
6.13947e-06
4.02995e-06
-1.13744e-05
8.84704e-07
1.05006e-05
2.05496e-06
1.05374e-06
1.05232e-06
3.97174e-06
-1.93465e-06
1.07009e-06
-5.74088e-07
-1.93429e-06
1.06861e-06
-5.74022e-07
-1.08179e-06
-3.00209e-06
-4.14173e-07
3.87621e-06
3.93162e-07
-8.53115e-07
-3.71914e-07
3.51259e-06
-2.53728e-10
1.01153e-06
3.90609e-06
3.68964e-06
1.20393e-07
-8.51385e-06
9.30831e-07
-4.11071e-06
-5.13615e-08
-9.16156e-07
-5.29902e-10
8.77127e-06
-3.21123e-07
8.53217e-07
-1.01169e-06
-5.85874e-10
3.98141e-08
-9.31928e-07
8.40662e-06
-2.69032e-06
1.84936e-06
5.19782e-07
3.21175e-07
1.37719e-06
9.32158e-07
-6.18016e-06
-4.64355e-06
-2.76274e-06
-3.94334e-08
7.00154e-06
-1.1894e-06
1.18896e-06
-1.20443e-07
-7.02518e-06
-3.93304e-07
-5.20072e-07
-1.84926e-06
2.76221e-06
2.69063e-06
4.64409e-06
-7.02591e-06
1.18852e-06
-1.63398e-06
6.178e-06
5.20248e-07
7.00108e-06
3.71836e-07
-3.90586e-06
3.00209e-06
4.15203e-06
1.33136e-07
9.47787e-10
-8.8938e-06
-3.51237e-06
4.14458e-07
-7.74717e-10
-1.01209e-06
-3.68843e-06
-3.8768e-06
8.40668e-06
-9.32412e-07
-1.98272e-10
-8.51354e-06
-8.5355e-07
-3.00404e-06
-4.13111e-07
3.87834e-06
3.92252e-07
-8.53441e-07
-3.72433e-07
3.51335e-06
1.01156e-06
3.9078e-06
3.69044e-06
1.21329e-07
-8.51681e-06
9.31923e-07
-4.11157e-06
-5.21221e-08
-9.16338e-07
8.77262e-06
-3.21834e-07
8.53168e-07
-1.01191e-06
3.86476e-08
-9.32452e-07
8.41047e-06
-2.69224e-06
1.85076e-06
5.19749e-07
3.21737e-07
1.37701e-06
9.31961e-07
2.50574e-07
-6.18248e-06
-4.64514e-06
-2.76317e-06
-3.85378e-08
7.00537e-06
-1.18984e-06
1.18951e-06
-1.2139e-07
-7.02848e-06
-3.92198e-07
-5.20216e-07
-1.85104e-06
2.76304e-06
2.69266e-06
4.64542e-06
-7.02896e-06
1.18935e-06
-1.6314e-06
5.24851e-09
6.18047e-06
5.19797e-07
7.00522e-06
3.7239e-07
-3.90749e-06
3.0034e-06
4.15254e-06
1.34708e-07
-8.89485e-06
-3.51283e-06
4.12999e-07
-1.01258e-06
-3.68994e-06
-3.87829e-06
8.41013e-06
-9.32633e-07
-8.51656e-06
-8.5408e-07
5.99621e-07
-2.51853e-06
2.7738e-06
-3.97324e-06
-1.06653e-06
-1.06857e-06
3.60236e-06
3.58646e-06
-1.08048e-06
-1.05182e-06
1.93326e-06
-1.45663e-06
5.75193e-07
-1.05366e-06
1.93311e-06
-1.45499e-06
5.75546e-07
-3.58746e-06
-3.57083e-06
1.07958e-06
1.44112e-06
-5.74391e-07
1.4391e-06
-5.74568e-07
-2.09566e-06
5.43533e-06
3.56247e-06
8.85043e-07
3.58799e-06
-1.13752e-05
-3.37158e-06
-2.479e-06
1.04974e-05
2.05471e-06
-5.63254e-07
-5.70688e-06
9.12794e-07
1.34719e-06
-4.00148e-06
-3.7403e-06
5.21385e-06
-1.44108e-06
-1.15073e-06
5.62376e-07
-1.01903e-05
-1.54621e-06
1.15134e-06
1.45649e-06
-3.603e-06
1.07864e-05
-8.86056e-07
5.43422e-06
-2.09162e-06
3.56096e-06
8.86413e-07
3.57109e-06
-1.13611e-05
-3.37406e-06
-2.4751e-06
1.05068e-05
2.05201e-06
-5.6475e-07
9.1362e-07
-5.71426e-06
1.3468e-06
2.5213e-06
-4.00071e-06
-3.74088e-06
5.21279e-06
-1.439e-06
-1.15098e-06
1.15199e-06
1.45496e-06
5.63773e-07
-1.01992e-05
-1.54452e-06
-3.58722e-06
1.07732e-05
-8.87355e-07
2.4791e-06
-3.56475e-06
-5.21301e-06
1.07861e-05
-5.43518e-06
3.73848e-06
1.15299e-06
3.37374e-06
2.09541e-06
-1.54652e-06
-1.01909e-05
5.60935e-07
6.1379e-06
-1.11794e-06
4.03145e-06
2.05555e-06
1.04976e-05
-1.13756e-05
8.83649e-07
-3.56311e-06
-5.21178e-06
2.47478e-06
1.0773e-05
-5.43386e-06
3.73841e-06
1.154e-06
2.09171e-06
3.37632e-06
-1.01998e-05
-1.54493e-06
5.62174e-07
-1.11773e-06
6.14423e-06
-2.77551e-06
4.02983e-06
-1.13611e-05
8.85047e-07
1.0507e-05
2.05208e-06
1.05244e-06
1.05429e-06
3.97188e-06
-1.93453e-06
1.06747e-06
-5.74008e-07
-1.9347e-06
1.06968e-06
-5.73982e-07
-1.08118e-06
6.00256e-07
-2.4798e-07
-7.37516e-09
-3.00322e-06
3.87768e-06
-4.12795e-07
3.92031e-07
-8.53699e-07
3.90836e-06
3.69079e-06
1.21422e-07
-8.5174e-06
9.31622e-07
-3.71619e-07
3.51278e-06
-3.44045e-10
1.01247e-06
-5.2628e-08
-4.111e-06
-9.16393e-07
1.2508e-09
8.77215e-06
-3.20819e-07
8.54347e-07
3.88827e-08
-9.32718e-07
8.4097e-06
-1.01212e-06
1.12141e-09
-2.69157e-06
1.85084e-06
5.19958e-07
3.20774e-07
1.37692e-06
9.32206e-07
-6.18345e-06
-4.64547e-06
-2.76329e-06
-3.82216e-08
7.00441e-06
-1.19022e-06
1.18979e-06
-1.21532e-07
-7.02837e-06
-3.92272e-07
-5.20177e-07
-1.8506e-06
2.7626e-06
2.69189e-06
4.64567e-06
-7.02914e-06
1.18952e-06
-1.63339e-06
6.17998e-06
5.20471e-07
7.00354e-06
-3.90786e-06
3.7143e-07
3.00351e-06
1.34863e-07
4.15297e-06
-1.25896e-09
-8.89514e-06
-3.68973e-06
-3.87853e-06
8.41e-06
-9.3291e-07
-3.51294e-06
4.13187e-07
7.11917e-10
-1.01254e-06
-8.51699e-06
-6.77046e-10
-8.54113e-07
-3.00126e-06
-4.14561e-07
3.87651e-06
3.93069e-07
-8.53759e-07
-3.72348e-07
3.51195e-06
1.01235e-06
3.90606e-06
3.69042e-06
1.19785e-07
-8.51419e-06
9.30686e-07
-4.11059e-06
-5.07961e-08
-9.15976e-07
8.7716e-06
-3.21317e-07
8.53778e-07
-1.01207e-06
4.01304e-08
-9.31236e-07
8.40725e-06
-2.69051e-06
1.84863e-06
5.20206e-07
3.21677e-07
1.37736e-06
9.32823e-07
2.50831e-07
-6.18128e-06
-4.64385e-06
-2.76213e-06
-3.98706e-08
7.00255e-06
-1.18905e-06
1.18865e-06
-1.19944e-07
-7.0257e-06
-3.92873e-07
-5.2063e-07
-1.84885e-06
2.76213e-06
2.69061e-06
4.64433e-06
-7.02603e-06
1.1882e-06
-1.63263e-06
5.92709e-09
6.17883e-06
5.20446e-07
7.00261e-06
3.72672e-07
-3.90564e-06
3.00089e-06
4.1518e-06
1.32937e-07
-8.89384e-06
-3.51174e-06
4.14261e-07
-1.01278e-06
-3.6896e-06
-3.87676e-06
8.40732e-06
-9.31632e-07
-8.51348e-06
-8.54471e-07
-3.00218e-06
3.87697e-06
-4.10511e-07
3.90385e-07
-8.54671e-07
3.9074e-06
3.69081e-06
1.22214e-07
-8.51572e-06
9.31718e-07
-3.73359e-07
3.51126e-06
1.66147e-09
1.01243e-06
-5.14818e-08
-4.11075e-06
-9.15408e-07
-4.99277e-10
8.77176e-06
-3.22134e-07
8.54009e-07
3.95391e-08
-9.3202e-07
8.4088e-06
-1.01338e-06
3.39755e-09
-2.69218e-06
1.85006e-06
5.20259e-07
3.21868e-07
1.37794e-06
9.32673e-07
-6.18066e-06
-4.64559e-06
-2.76115e-06
-3.92724e-08
7.00295e-06
-1.18986e-06
1.18966e-06
-1.22296e-07
-7.02719e-06
-3.90695e-07
-5.20409e-07
-1.85032e-06
2.76096e-06
2.69281e-06
4.64556e-06
-7.02732e-06
1.18947e-06
-1.63271e-06
6.1789e-06
5.20365e-07
7.00302e-06
-3.90748e-06
3.72959e-07
3.00172e-06
1.36356e-07
4.15217e-06
-3.11428e-09
-8.89421e-06
-3.69036e-06
-3.87657e-06
8.40822e-06
-9.32376e-07
-3.51035e-06
4.10877e-07
2.95077e-09
-1.01356e-06
-8.51579e-06
1.40486e-09
-8.54668e-07
-3.00063e-06
-4.16596e-07
3.87704e-06
3.94695e-07
-8.54513e-07
-3.70154e-07
3.51042e-06
1.01205e-06
3.90433e-06
3.68951e-06
1.17847e-07
-8.51258e-06
9.31587e-07
-4.11065e-06
-5.24858e-08
-9.15019e-07
8.77076e-06
-3.19766e-07
8.53327e-07
-1.01342e-06
3.86473e-08
-9.31104e-07
8.40654e-06
-2.68852e-06
1.84803e-06
5.20449e-07
3.20046e-07
1.37813e-06
2.48629e-07
-6.17923e-06
9.33948e-07
-4.64343e-06
-2.76296e-06
-3.9486e-08
7.00113e-06
-1.18914e-06
1.18914e-06
-1.18219e-07
-7.02471e-06
-3.94145e-07
-5.20781e-07
-1.84902e-06
2.76418e-06
2.68849e-06
4.64334e-06
-7.02498e-06
-1.37817e-06
1.18917e-06
5.19702e-07
7.00184e-06
1.63349e-06
3.70533e-07
-3.90427e-06
2.99928e-06
4.15056e-06
1.31073e-07
-8.89288e-06
-3.5091e-06
4.15956e-07
-1.01375e-06
-3.6899e-06
-3.87619e-06
8.40585e-06
-9.31207e-07
-8.51242e-06
-8.55083e-07
6.00311e-07
-2.51735e-06
2.77323e-06
-1.06649e-06
-1.06843e-06
3.60208e-06
3.58618e-06
-1.07947e-06
-3.97387e-06
1.44068e-06
-5.75214e-07
-1.93196e-06
1.43886e-06
-5.75102e-07
-1.93219e-06
-2.09488e-06
5.43524e-06
3.56228e-06
8.84858e-07
3.58698e-06
-1.13745e-05
-3.37151e-06
-2.4791e-06
1.04976e-05
2.05445e-06
-5.63471e-07
-5.70562e-06
9.13002e-07
1.34634e-06
-4.00141e-06
-3.73911e-06
5.21369e-06
-1.44064e-06
-1.15147e-06
5.61616e-07
-1.01872e-05
-1.54641e-06
1.15232e-06
1.45681e-06
-3.60329e-06
1.07866e-05
-8.86402e-07
5.43414e-06
-2.09107e-06
3.56324e-06
8.84558e-07
3.57028e-06
-1.13611e-05
-3.37549e-06
-2.47493e-06
1.05076e-05
2.05145e-06
-5.64031e-07
9.13858e-07
-5.71231e-06
1.34709e-06
2.5204e-06
-4.00091e-06
-3.73935e-06
5.21285e-06
-1.43886e-06
-1.15213e-06
1.15304e-06
1.45561e-06
5.61479e-07
-1.01952e-05
-1.54511e-06
-3.58703e-06
1.07742e-05
-8.85986e-07
2.47892e-06
-5.21301e-06
1.07854e-05
-3.56438e-06
3.37361e-06
-1.54555e-06
-1.01911e-05
5.61037e-07
2.09509e-06
6.13665e-06
-1.11723e-06
4.03144e-06
2.0565e-06
1.04943e-05
-3.73725e-06
-5.21182e-06
2.47453e-06
1.07738e-05
-3.56578e-06
-1.11714e-06
6.14246e-06
-2.77559e-06
-4.93286e-06
4.03023e-06
-3.73706e-06
1.05032e-05
-3.37787e-06
2.05317e-06
1.05184e-06
1.05339e-06
3.97256e-06
-1.93344e-06
1.06724e-06
-5.74429e-07
-1.93389e-06
1.0695e-06
-5.74473e-07
-1.08101e-06
6.00321e-07
-2.48457e-07
-2.16714e-06
-8.13098e-09
-2.69138e-06
1.84873e-06
3.22144e-07
5.20506e-07
1.37756e-06
-6.17995e-06
9.33213e-07
-4.64352e-06
-2.76033e-06
-4.02861e-08
7.00017e-06
-1.1895e-06
-1.20913e-07
-7.02559e-06
1.18918e-06
-3.91446e-07
-5.20161e-07
-3.90596e-06
3.73337e-07
3.00006e-06
8.54712e-07
1.34462e-07
4.15179e-06
-7.67471e-10
-8.89344e-06
9.15073e-07
-3.68941e-06
-3.87513e-06
8.40577e-06
-9.32012e-07
-3.50977e-06
4.12197e-07
1.41605e-09
-1.0132e-06
-8.51284e-06
9.31027e-07
1.79471e-09
1.01358e-06
-8.5431e-07
-2.69006e-06
1.84916e-06
3.2003e-07
5.2087e-07
1.37792e-06
2.50948e-07
-6.18261e-06
9.34159e-07
-4.64612e-06
-2.76347e-06
-3.82993e-08
7.00404e-06
-1.18948e-06
-1.19622e-07
-7.02776e-06
1.18913e-06
-3.93159e-07
-5.21125e-07
-3.90657e-06
3.70464e-07
3.00079e-06
8.55355e-07
1.3299e-07
4.15172e-06
-8.89433e-06
9.15055e-07
-3.69208e-06
-3.87784e-06
8.40981e-06
-9.31512e-07
-3.51011e-06
4.14657e-07
-1.01379e-06
-8.5163e-06
9.31038e-07
1.01389e-06
-8.55545e-07
-2.08927e-06
5.43368e-06
3.56473e-06
3.56907e-06
-1.13624e-05
8.84216e-07
-3.37697e-06
-2.4751e-06
1.05028e-05
2.05334e-06
-5.62329e-07
-5.71244e-06
9.13383e-07
2.51921e-06
-3.99926e-06
1.34772e-06
-3.73754e-06
5.21143e-06
-1.43822e-06
-1.15299e-06
-1.01974e-05
-1.54268e-06
5.61449e-07
1.45554e-06
1.15401e-06
-3.58737e-06
1.07734e-05
-8.84969e-07
-2.0962e-06
5.43497e-06
3.56424e-06
3.58691e-06
-1.13743e-05
8.8434e-07
-3.37376e-06
-2.48051e-06
1.04985e-05
2.05634e-06
-5.62312e-07
-5.70843e-06
9.12815e-07
2.51708e-06
-3.99927e-06
1.34681e-06
-3.73715e-06
5.2129e-06
-1.4394e-06
-1.15256e-06
-1.01941e-05
-1.54566e-06
5.61429e-07
1.45716e-06
1.1535e-06
-3.60291e-06
1.07847e-05
-8.85149e-07
1.05244e-06
1.05061e-06
3.97256e-06
1.0804e-06
-1.93191e-06
1.0692e-06
-5.75516e-07
-1.9318e-06
1.06786e-06
-5.75463e-07
5.761e-07
5.76e-07
-1.0807e-06
6.01204e-07
6.01223e-07
-6.00051e-07
2.77867e-06
-9.51446e-09
-2.51943e-06
-2.49262e-07
-5.99902e-07
2.7764e-06
-7.2008e-09
-2.51706e-06
-2.51654e-07
1.05314e-06
1.0517e-06
3.97087e-06
1.08191e-06
-3.56995e-06
-3.58768e-06
-1.93473e-06
1.07069e-06
1.43852e-06
-5.74483e-07
-1.93444e-06
1.06937e-06
1.4395e-06
-5.74436e-07
5.74295e-07
-1.4559e-06
5.74224e-07
-1.45697e-06
3.58831e-06
3.60401e-06
-1.08139e-06
-3.56017e-06
-5.21343e-06
2.47505e-06
-3.58846e-06
-8.87776e-07
1.07748e-05
2.09006e-06
3.37192e-06
-1.01976e-05
-1.54285e-06
-5.43453e-06
3.74132e-06
1.4559e-06
-1.11811e-06
6.14426e-06
-1.34785e-06
4.03177e-06
3.57004e-06
-1.13622e-05
-1.43877e-06
-1.15145e-06
-5.65221e-07
1.05049e-05
2.05151e-06
-3.56014e-06
-5.21466e-06
2.48025e-06
-3.60413e-06
-8.87599e-07
1.07863e-05
2.09671e-06
3.36967e-06
-1.01941e-05
-1.54588e-06
-5.43555e-06
3.74099e-06
1.45693e-06
-1.11704e-06
6.14044e-06
-1.34813e-06
4.03099e-06
3.58781e-06
-1.13741e-05
-1.43984e-06
-1.15087e-06
-5.64648e-07
1.05007e-05
2.05427e-06
-3.97105e-06
-1.07053e-06
-1.0691e-06
-1.05319e-06
1.935e-06
-1.0518e-06
1.93471e-06
5.43442e-06
3.56047e-06
-2.08994e-06
-1.13627e-05
-3.7411e-06
5.2132e-06
-1.1516e-06
9.14035e-07
-5.7127e-06
-4.00016e-06
-2.47508e-06
-3.37235e-06
-5.64214e-07
1.05026e-05
2.05231e-06
-8.86665e-07
1.07736e-05
-1.01971e-05
-1.54315e-06
5.43545e-06
3.56046e-06
-2.09649e-06
-1.13747e-05
-3.74076e-06
5.2144e-06
-1.15109e-06
9.13144e-07
-5.70844e-06
-3.99987e-06
-2.48032e-06
-3.37003e-06
-5.63703e-07
1.04982e-05
2.05512e-06
-8.86484e-07
1.0785e-05
-1.01936e-05
-1.54601e-06
6.0131e-07
-2.51717e-06
-2.49762e-07
2.77892e-06
-1.0216e-08
6.01331e-07
-2.51481e-06
-2.52113e-07
2.77649e-06
-7.69708e-09
-3.97185e-06
-1.07087e-06
-1.06954e-06
3.58839e-06
3.60421e-06
-1.08033e-06
-1.05194e-06
1.93354e-06
-1.45607e-06
-1.05042e-06
1.93317e-06
-1.45718e-06
-3.56896e-06
-3.58666e-06
1.43824e-06
-5.75569e-07
1.43918e-06
-5.75562e-07
5.43258e-06
-2.08927e-06
3.56572e-06
8.8482e-07
3.56822e-06
-1.13621e-05
-3.3784e-06
-2.47492e-06
1.05022e-05
-5.5943e-07
2.05293e-06
9.13591e-07
-5.71191e-06
1.34612e-06
-3.99893e-06
-3.73666e-06
5.21238e-06
-1.43786e-06
-1.15477e-06
1.15311e-06
1.4564e-06
5.61955e-07
-1.01983e-05
-1.54326e-06
-3.58783e-06
1.07737e-05
-8.82639e-07
5.43383e-06
-2.09551e-06
3.56576e-06
8.84615e-07
3.58574e-06
-1.13744e-05
-3.3761e-06
-2.48062e-06
1.04975e-05
-5.58889e-07
2.05632e-06
9.12735e-07
-5.70789e-06
1.34645e-06
-3.99848e-06
-3.73632e-06
5.21341e-06
-1.4387e-06
-1.15411e-06
1.15265e-06
1.45761e-06
5.61392e-07
-1.01951e-05
-1.54583e-06
-3.60377e-06
1.07847e-05
-8.82391e-07
-3.56278e-06
-5.21319e-06
2.47526e-06
1.07739e-05
-5.43339e-06
3.73952e-06
2.0895e-06
3.37523e-06
-1.0198e-05
-1.54317e-06
-1.11769e-06
6.14302e-06
4.0325e-06
-1.13623e-05
1.05026e-05
2.05287e-06
-3.56276e-06
-5.21429e-06
2.48072e-06
1.07851e-05
-5.43446e-06
3.73905e-06
2.09597e-06
3.37295e-06
-1.01947e-05
-1.54601e-06
-1.11661e-06
6.13899e-06
4.03175e-06
-1.13744e-05
1.04981e-05
2.05598e-06
1.05082e-06
1.04929e-06
3.97353e-06
-1.93166e-06
1.07015e-06
-5.76342e-07
-1.93134e-06
1.06889e-06
-5.76255e-07
-1.07903e-06
-1.36303e-05
-1.36424e-05
3.6189e-06
9.17007e-07
1.37492e-05
1.37751e-05
1.22309e-07
-2.86873e-06
-1.30438e-05
-2.90385e-07
-2.87286e-06
-1.30561e-05
-2.92096e-07
2.82803e-07
2.8396e-07
-9.20144e-07
-1.36401e-05
-1.36308e-05
3.61561e-06
9.19028e-07
1.37699e-05
1.37505e-05
1.27511e-07
-2.86866e-06
-1.30526e-05
-2.8842e-07
-2.86491e-06
-1.30422e-05
-2.87726e-07
2.87028e-07
2.86629e-07
-9.1964e-07
-1.36398e-05
-1.36311e-05
3.61679e-06
9.18473e-07
1.37663e-05
1.3747e-05
1.32469e-07
-2.86911e-06
-1.30538e-05
-2.87122e-07
-2.86463e-06
-1.30425e-05
-2.8773e-07
2.86722e-07
2.86684e-07
-9.18802e-07
-1.36304e-05
-1.36422e-05
3.61976e-06
9.16232e-07
1.37481e-05
1.37746e-05
1.22483e-07
-2.86688e-06
-1.30416e-05
-2.851e-07
-2.87254e-06
-1.30536e-05
-2.85757e-07
2.84745e-07
2.85084e-07
-9.17351e-07
-3.61472e-06
1.30416e-05
1.30538e-05
-9.19594e-07
1.36295e-05
2.85977e-06
-1.32296e-05
1.36417e-05
2.86353e-06
-1.32173e-05
-1.41513e-05
-1.41774e-05
-1.32003e-07
1.50207e-05
1.50325e-05
-2.88495e-07
1.25435e-05
-2.90325e-07
1.2531e-05
-1.36318e-05
-1.36437e-05
3.62316e-06
9.15807e-07
1.37496e-05
1.37761e-05
1.25297e-07
-1.46205e-05
-1.46341e-05
-2.87026e-06
-1.3041e-05
1.25444e-05
-2.82663e-07
-2.87394e-06
-1.30538e-05
1.25324e-05
-2.84474e-07
2.84802e-07
-1.32355e-05
2.86572e-07
-1.32231e-05
-9.13225e-07
-4.12011e-07
-4.10895e-07
-5.00488e-06
-4.36952e-06
3.0875e-09
-2.64843e-10
4.36813e-06
-4.35941e-06
1.51923e-09
-7.23596e-09
4.36745e-06
1.31991e-09
-9.31945e-10
-4.36652e-06
7.09056e-10
5.29867e-09
-4.35817e-06
4.37882e-06
-6.855e-10
7.47955e-10
-4.37686e-06
2.89937e-10
2.089e-09
4.38104e-06
-4.10159e-07
-4.09727e-07
-5.00984e-06
-4.36474e-06
1.46659e-09
4.36628e-06
-4.36554e-06
1.98384e-09
3.55094e-09
4.36634e-06
2.17007e-09
-4.3607e-06
2.08617e-09
4.2633e-09
-4.36386e-06
4.37746e-06
2.24141e-09
-4.37613e-06
8.28014e-10
4.38035e-06
-4.36409e-06
1.83684e-10
4.36547e-06
-1.5488e-09
9.09806e-09
4.36475e-06
-4.36568e-06
5.11852e-10
-4.36077e-06
4.17932e-07
4.37799e-06
1.23948e-09
-4.37551e-06
-2.45327e-09
-3.3396e-10
4.37904e-06
-4.36304e-06
8.84712e-10
4.36308e-06
4.17082e-10
4.36602e-06
-4.35984e-06
-1.00163e-09
-4.35986e-06
4.14759e-07
4.3762e-06
-4.37447e-06
7.32749e-10
4.37798e-06
-3.61922e-06
1.30421e-05
1.30542e-05
-1.41522e-05
-1.41779e-05
1.36305e-05
2.86806e-06
2.82471e-07
1.36424e-05
2.87269e-06
2.84463e-07
9.1642e-07
-2.53799e-06
-1.37391e-05
4.63155e-07
-9.85026e-07
-2.26346e-07
-1.39495e-05
3.78661e-06
1.08918e-06
1.02621e-06
5.4085e-07
2.54121e-06
4.91453e-10
1.61425e-07
-3.6318e-07
1.38769e-05
-9.99252e-07
2.32748e-11
1.1117e-06
2.25071e-07
-8.81815e-07
-1.02728e-06
-1.62741e-07
4.68764e-10
1.5634e-06
1.34447e-05
2.64505e-06
2.54503e-07
-1.11351e-06
-2.95637e-06
1.83443e-06
-2.18422e-07
-1.27449e-05
-2.53178e-06
1.08368e-06
-3.9136e-06
1.35364e-05
8.81731e-07
-1.06454e-06
2.18054e-07
1.06368e-06
-1.08957e-06
9.85636e-07
-2.55873e-07
-1.83435e-06
-2.64624e-06
-1.35362e-05
-1.34457e-05
3.91489e-06
1.06306e-06
2.95632e-06
-1.56136e-06
2.16233e-07
1.28673e-05
2.4384e-06
2.53481e-07
1.39494e-05
-5.41697e-07
2.53689e-06
4.66522e-07
-1.41028e-05
1.01492e-09
-3.7855e-06
1.37383e-05
-1.02773e-06
-2.53973e-06
-4.63489e-07
7.65355e-10
-1.63783e-07
2.93367e-10
-2.26817e-07
-2.53638e-06
-1.37433e-05
4.61266e-07
-9.82524e-07
-2.27758e-07
-1.39531e-05
3.78687e-06
1.09059e-06
1.02702e-06
5.40795e-07
2.54282e-06
1.6033e-07
-3.62991e-07
1.38787e-05
-9.99192e-07
1.11139e-06
2.26352e-07
-8.81072e-07
-1.0279e-06
-1.62021e-07
1.34483e-05
1.56171e-06
2.64422e-06
2.55803e-07
-1.11068e-06
-2.95543e-06
1.83204e-06
-2.19601e-07
-2.53234e-06
-1.27474e-05
1.08402e-06
-3.91395e-06
1.35408e-05
8.81132e-07
-1.06476e-06
1.06434e-06
-1.0908e-06
2.1873e-07
9.81869e-07
-2.56351e-07
-2.64469e-06
-1.35413e-05
-1.83289e-06
-1.34486e-05
3.91504e-06
1.06311e-06
-1.56233e-06
2.95694e-06
2.16487e-07
2.43775e-06
1.28712e-05
2.545e-07
1.39531e-05
-5.41052e-07
2.53639e-06
4.68392e-07
-1.41046e-05
-3.78622e-06
1.37425e-05
-1.02793e-06
-2.54152e-06
-4.61177e-07
-1.6251e-07
-2.2772e-07
1.3053e-05
-3.61738e-06
1.30424e-05
-1.41738e-05
-1.41554e-05
2.8703e-06
1.36403e-05
2.8486e-07
1.36315e-05
2.86644e-06
2.84424e-07
9.17701e-07
-2.54146e-06
-1.37438e-05
4.62444e-07
-9.81734e-07
-2.24274e-07
-1.39541e-05
3.78896e-06
1.08999e-06
1.0256e-06
5.40204e-07
2.54338e-06
-6.45742e-10
1.59442e-07
-3.64047e-07
1.38789e-05
-9.98118e-07
7.7454e-10
1.10787e-06
2.22512e-07
-8.82368e-07
-1.02681e-06
-1.61155e-07
5.64567e-10
1.56278e-06
1.34479e-05
2.64352e-06
2.55572e-07
-1.10859e-06
-2.95588e-06
1.83373e-06
-2.20216e-07
-1.27483e-05
-2.53173e-06
1.08326e-06
-3.91384e-06
1.35393e-05
8.82281e-07
-1.0653e-06
2.18831e-07
1.06425e-06
-1.09029e-06
9.81651e-07
-2.57611e-07
-1.83323e-06
-2.64673e-06
-1.35394e-05
-1.34492e-05
3.91617e-06
1.06254e-06
2.95796e-06
-1.56159e-06
2.15819e-07
1.287e-05
2.43785e-06
2.52658e-07
1.39535e-05
-5.40326e-07
2.54034e-06
4.67966e-07
-1.41046e-05
-7.50853e-10
-3.7874e-06
1.37428e-05
-1.02738e-06
-2.54217e-06
-4.62608e-07
9.55671e-10
-1.62024e-07
-2.69211e-10
-2.24754e-07
-2.53767e-06
4.61095e-07
-1.37398e-05
-9.82754e-07
-2.26604e-07
5.39174e-07
2.54336e-06
1.60056e-07
-1.39509e-05