/*--------------------------------*- C++ -*----------------------------------*\
| =========                 |                                                 |
| \\      /  F ield         | OpenFOAM: The Open Source CFD Toolbox           |
|  \\    /   O peration     | Version:  2206                                  |
|   \\  /    A nd           | Website:  www.openfoam.com                      |
|    \\/     M anipulation  |                                                 |
\*---------------------------------------------------------------------------*/
FoamFile
{
    version     2.0;
    format      ascii;
    arch        "LSB;label=32;scalar=64";
    class       volVectorField;
    location    "0.5";
    object      U;
}
// * * * * * * * * * * * * * * * * * * * * * * * * * * * * * * * * * * * * * //

dimensions      [0 1 -1 0 0 0 0];

internalField   nonuniform List<vector> 
28897
(
(-3.3617e-08 -3.35232e-08 0.100269)
(-3.05882e-08 5.57209e-08 0.100269)
(5.60638e-08 -3.02299e-08 0.100269)
(-3.51901e-05 -3.5209e-05 0.10027)
(-3.36781e-08 -3.38665e-08 0.100269)
(-3.118e-08 5.65122e-08 0.100269)
(5.72597e-08 -3.12501e-08 0.100269)
(-3.51898e-05 -3.52085e-05 0.10027)
(-3.3683e-08 -3.3927e-08 0.100269)
(-2.87284e-08 5.35389e-08 0.100269)
(5.49995e-08 -2.92347e-08 0.100269)
(-3.51915e-05 -3.52096e-05 0.10027)
(-3.40195e-08 -3.40323e-08 0.100269)
(-2.95009e-08 5.43132e-08 0.100269)
(5.47393e-08 -2.94444e-08 0.100269)
(-3.51898e-05 -3.52084e-05 0.10027)
(-3.38305e-08 -3.38593e-08 0.100269)
(-2.8582e-08 5.35993e-08 0.100269)
(5.45196e-08 -2.88347e-08 0.100269)
(-3.51907e-05 -3.52093e-05 0.10027)
(-3.37899e-08 -3.39906e-08 0.100269)
(-3.01537e-08 5.52821e-08 0.100269)
(5.61854e-08 -3.02417e-08 0.100269)
(-3.51869e-05 -3.52053e-05 0.10027)
(-3.33642e-08 -3.35259e-08 0.100269)
(-2.98953e-08 5.48209e-08 0.100269)
(5.57399e-08 -3.00268e-08 0.100269)
(-3.51897e-05 -3.52078e-05 0.10027)
(-3.36792e-08 -3.3754e-08 0.100269)
(-3.03554e-08 5.55404e-08 0.100269)
(5.63895e-08 -3.04901e-08 0.100269)
(-3.51876e-05 -3.5206e-05 0.10027)
(-3.35685e-08 -3.35743e-08 0.100269)
(-3.11133e-08 5.66431e-08 0.100269)
(5.69612e-08 -3.14764e-08 0.100269)
(-3.51897e-05 -3.52084e-05 0.10027)
(-3.34508e-08 -3.41551e-08 0.100269)
(-2.82928e-08 5.52203e-08 0.100269)
(5.4171e-08 -3.02351e-08 0.100269)
(-3.51844e-05 -3.52121e-05 0.10027)
(-2.64315e-08 -2.61351e-08 0.100269)
(-2.942e-08 5.52544e-08 0.100269)
(5.52744e-08 -2.99831e-08 0.100269)
(-3.5191e-05 -3.52103e-05 0.10027)
(-3.53122e-08 -3.20277e-08 0.100269)
(-2.83638e-08 6.52522e-08 0.100269)
(5.43454e-08 -2.84476e-08 0.100269)
(-3.51931e-05 -3.52096e-05 0.10027)
(-3.42169e-08 -3.28412e-08 0.100269)
(-2.89111e-08 5.60936e-08 0.100269)
(5.51454e-08 -2.92353e-08 0.100269)
(-3.519e-05 -3.52075e-05 0.10027)
(-3.38098e-08 -3.35425e-08 0.100269)
(-2.92938e-08 5.45e-08 0.100269)
(5.50098e-08 -2.91917e-08 0.100269)
(-3.51906e-05 -3.52088e-05 0.10027)
(-3.33297e-08 -3.3334e-08 0.100269)
(-2.98871e-08 5.51245e-08 0.100269)
(5.42946e-08 -2.97961e-08 0.100269)
(-3.51888e-05 -3.52072e-05 0.10027)
(-3.32027e-08 -3.32947e-08 0.100269)
(-3.0404e-08 5.59668e-08 0.100269)
(5.56136e-08 -3.01249e-08 0.100269)
(-3.51902e-05 -3.52088e-05 0.10027)
(-3.31066e-08 -3.34075e-08 0.100269)
(-3.0459e-08 5.56582e-08 0.100269)
(5.5584e-08 -3.05726e-08 0.100269)
(-3.51895e-05 -3.5208e-05 0.10027)
(-3.34902e-08 -3.38349e-08 0.100269)
(-3.02775e-08 5.54142e-08 0.100269)
(5.57102e-08 -3.00663e-08 0.100269)
(-3.51905e-05 -3.52102e-05 0.10027)
(-3.54351e-05 -3.53967e-05 0.10027)
(5.66373e-08 3.15812e-08 0.100269)
(-5.53364e-08 2.99522e-08 0.100269)
(3.54338e-05 -3.53954e-05 0.10027)
(3.00225e-08 5.38404e-08 0.100269)
(2.99236e-08 -5.55953e-08 0.100269)
(-3.12134e-08 5.62195e-08 0.100269)
(-3.11534e-08 -5.70833e-08 0.100269)
(-3.53993e-05 3.54436e-05 0.10027)
(5.33833e-08 -2.89549e-08 0.100269)
(-5.4275e-08 -2.96331e-08 0.100269)
(3.54138e-05 3.54317e-05 0.10027)
(3.52108e-05 3.51723e-05 0.10027)
(-3.54361e-05 -3.53972e-05 0.10027)
(5.60289e-08 3.12323e-08 0.100269)
(-6.05617e-08 3.21671e-08 0.100269)
(5.69411e-08 3.12776e-08 0.100269)
(-5.43542e-08 3.07207e-08 0.100269)
(-3.52051e-05 3.51748e-05 0.10027)
(3.54337e-05 -3.54018e-05 0.10027)
(3.07484e-08 5.64294e-08 0.100269)
(3.12411e-08 -5.61169e-08 0.100269)
(3.01518e-08 5.45711e-08 0.100269)
(3.12158e-08 -5.63488e-08 0.100269)
(-3.06473e-08 -5.56715e-08 0.100269)
(-3.09615e-08 5.56055e-08 0.100269)
(-3.11622e-08 -5.66307e-08 0.100269)
(3.51743e-05 -3.52197e-05 0.10027)
(-3.5398e-05 3.5444e-05 0.10027)
(-5.51223e-08 -3.01777e-08 0.100269)
(5.44898e-08 -3.01197e-08 0.100269)
(-5.55103e-08 -3.04944e-08 0.100269)
(3.54126e-05 3.54305e-05 0.10027)
(3.52118e-05 3.51735e-05 0.10027)
(-3.54378e-05 -3.53988e-05 0.10027)
(5.64742e-08 3.10013e-08 0.100269)
(-5.98002e-08 3.18865e-08 0.100269)
(5.60995e-08 3.07399e-08 0.100269)
(-5.53599e-08 3.05195e-08 0.100269)
(-3.52071e-05 3.5174e-05 0.10027)
(3.54339e-05 -3.53987e-05 0.10027)
(3.11232e-08 5.67968e-08 0.100269)
(3.17064e-08 -5.70979e-08 0.100269)
(2.97767e-08 5.36846e-08 0.100269)
(3.05661e-08 -5.51549e-08 0.100269)
(-3.18061e-08 -5.72679e-08 0.100269)
(-2.92769e-08 5.40625e-08 0.100269)
(-2.91434e-08 -5.4012e-08 0.100269)
(3.51749e-05 -3.52197e-05 0.10027)
(-3.54008e-05 3.54457e-05 0.10027)
(-5.64476e-08 -3.13173e-08 0.100269)
(5.32141e-08 -2.90844e-08 0.100269)
(-5.29504e-08 -2.89544e-08 0.100269)
(3.54156e-05 3.54344e-05 0.10027)
(3.5213e-05 3.51749e-05 0.10027)
(-3.54373e-05 -3.53986e-05 0.10027)
(5.50441e-08 2.98e-08 0.100269)
(-5.49229e-08 2.96734e-08 0.100269)
(5.47637e-08 2.97084e-08 0.100269)
(-5.53494e-08 2.99157e-08 0.100269)
(-3.52089e-05 3.5172e-05 0.10027)
(3.54332e-05 -3.53971e-05 0.10027)
(2.98989e-08 5.53451e-08 0.100269)
(3.00843e-08 -5.5171e-08 0.100269)
(2.85354e-08 5.24756e-08 0.100269)
(2.9488e-08 -5.43141e-08 0.100269)
(-2.87639e-08 -5.4003e-08 0.100269)
(-2.94674e-08 5.41986e-08 0.100269)
(-2.9846e-08 -5.4777e-08 0.100269)
(3.51759e-05 -3.52214e-05 0.10027)
(-3.54001e-05 3.54457e-05 0.10027)
(-5.3309e-08 -2.87463e-08 0.100269)
(5.24956e-08 -2.89009e-08 0.100269)
(-5.38066e-08 -2.9289e-08 0.100269)
(3.54147e-05 3.54327e-05 0.10027)
(3.52109e-05 3.51726e-05 0.10027)
(-3.54369e-05 -3.53983e-05 0.10027)
(5.494e-08 2.99927e-08 0.100269)
(-5.56143e-08 2.99545e-08 0.100269)
(5.51693e-08 3.03964e-08 0.100269)
(-5.50757e-08 3.02625e-08 0.100269)
(-3.52067e-05 3.51703e-05 0.10027)
(3.54328e-05 -3.53976e-05 0.10027)
(2.97567e-08 5.53273e-08 0.100269)
(2.98027e-08 -5.49818e-08 0.100269)
(2.91937e-08 5.29328e-08 0.100269)
(3.00156e-08 -5.42402e-08 0.100269)
(-2.97378e-08 -5.48189e-08 0.100269)
(-2.9226e-08 5.38972e-08 0.100269)
(-2.96345e-08 -5.39984e-08 0.100269)
(3.51746e-05 -3.52199e-05 0.10027)
(-3.53999e-05 3.54449e-05 0.10027)
(-5.40457e-08 -2.90297e-08 0.100269)
(5.24612e-08 -2.88488e-08 0.100269)
(-5.31214e-08 -2.90242e-08 0.100269)
(3.5415e-05 3.54332e-05 0.10027)
(3.52119e-05 3.51734e-05 0.10027)
(-3.54346e-05 -3.53956e-05 0.10027)
(5.46055e-08 2.96342e-08 0.100269)
(-5.4818e-08 2.95915e-08 0.100269)
(5.51752e-08 2.98388e-08 0.100269)
(-5.52864e-08 3.00371e-08 0.100269)
(-3.52076e-05 3.51709e-05 0.10027)
(3.54309e-05 -3.53948e-05 0.10027)
(2.94666e-08 5.49614e-08 0.100269)
(2.98059e-08 -5.4584e-08 0.100269)
(2.87862e-08 5.28833e-08 0.100269)
(2.98304e-08 -5.45352e-08 0.100269)
(-2.89104e-08 -5.3715e-08 0.100269)
(-2.91643e-08 5.42868e-08 0.100269)
(-2.91694e-08 -5.42318e-08 0.100269)
(3.51751e-05 -3.52204e-05 0.10027)
(-3.53972e-05 3.54426e-05 0.10027)
(-5.29638e-08 -2.82311e-08 0.100269)
(5.28793e-08 -2.86124e-08 0.100269)
(-5.32807e-08 -2.88544e-08 0.100269)
(3.54118e-05 3.54302e-05 0.10027)
(3.52083e-05 3.51701e-05 0.10027)
(-3.54342e-05 -3.53953e-05 0.10027)
(5.60702e-08 3.07556e-08 0.100269)
(-5.63384e-08 3.07296e-08 0.100269)
(5.64778e-08 3.11789e-08 0.100269)
(-5.6849e-08 3.1482e-08 0.100269)
(-3.52042e-05 3.51679e-05 0.10027)
(3.54302e-05 -3.53942e-05 0.10027)
(3.07819e-08 5.64234e-08 0.100269)
(3.09573e-08 -5.62891e-08 0.100269)
(3.0116e-08 5.41626e-08 0.100269)
(3.12365e-08 -5.61714e-08 0.100269)
(-3.05225e-08 -5.58797e-08 0.100269)
(-3.07688e-08 5.56953e-08 0.100269)
(-3.12147e-08 -5.64651e-08 0.100269)
(3.51715e-05 -3.52167e-05 0.10027)
(-3.53969e-05 3.54425e-05 0.10027)
(-5.49866e-08 -3.00935e-08 0.100269)
(5.45048e-08 -3.04761e-08 0.100269)
(-5.56082e-08 -3.09603e-08 0.100269)
(3.54111e-05 3.54297e-05 0.10027)
(3.52099e-05 3.51717e-05 0.10027)
(-3.54343e-05 -3.53953e-05 0.10027)
(5.55947e-08 3.04652e-08 0.100269)
(-5.60351e-08 3.0416e-08 0.100269)
(5.6681e-08 3.10642e-08 0.100269)
(-5.64908e-08 3.106e-08 0.100269)
(-3.52063e-05 3.51702e-05 0.10027)
(3.54302e-05 -3.53946e-05 0.10027)
(3.03863e-08 5.59341e-08 0.100269)
(3.06182e-08 -5.59463e-08 0.100269)
(3.00152e-08 5.44467e-08 0.100269)
(3.08514e-08 -5.58696e-08 0.100269)
(-3.03617e-08 -5.57809e-08 0.100269)
(-2.98536e-08 5.51742e-08 0.100269)
(-2.99946e-08 -5.52387e-08 0.100269)
(3.51741e-05 -3.5219e-05 0.10027)
(-3.53971e-05 3.54422e-05 0.10027)
(-5.49901e-08 -3.00296e-08 0.100269)
(5.40181e-08 -2.96414e-08 0.100269)
(-5.44063e-08 -2.97199e-08 0.100269)
(3.54116e-05 3.54301e-05 0.10027)
(3.52093e-05 3.5171e-05 0.10027)
(-3.54331e-05 -3.53947e-05 0.10027)
(5.65131e-08 3.12156e-08 0.100269)
(-5.68053e-08 3.11184e-08 0.100269)
(5.742e-08 3.19893e-08 0.100269)
(-5.80802e-08 3.22006e-08 0.100269)
(-3.52052e-05 3.51684e-05 0.10027)
(3.54293e-05 -3.53936e-05 0.10027)
(3.11099e-08 5.69398e-08 0.100269)
(3.13221e-08 -5.67158e-08 0.100269)
(3.0636e-08 5.51644e-08 0.100269)
(3.16782e-08 -5.6898e-08 0.100269)
(-3.05654e-08 -5.5867e-08 0.100269)
(-3.13027e-08 5.69672e-08 0.100269)
(-3.16264e-08 -5.68962e-08 0.100269)
(3.51725e-05 -3.52181e-05 0.10027)
(-3.53965e-05 3.54417e-05 0.10027)
(-5.50405e-08 -3.00085e-08 0.100269)
(5.51712e-08 -3.08129e-08 0.100269)
(-5.60128e-08 -3.10976e-08 0.100269)
(3.54113e-05 3.54293e-05 0.10027)
(3.52098e-05 3.51714e-05 0.10027)
(-3.54383e-05 -3.54e-05 0.10027)
(5.67766e-08 3.18967e-08 0.100269)
(-5.78806e-08 3.1753e-08 0.100269)
(5.36493e-08 2.99732e-08 0.100269)
(-5.62521e-08 3.12271e-08 0.100269)
(-3.5206e-05 3.51702e-05 0.10027)
(3.54351e-05 -3.53965e-05 0.10027)
(3.15912e-08 5.72088e-08 0.100269)
(3.17936e-08 -5.74088e-08 0.100269)
(3.00798e-08 5.18884e-08 0.100269)
(3.03431e-08 -5.55591e-08 0.100269)
(-3.13605e-08 -5.66688e-08 0.100269)
(-2.90573e-08 5.54765e-08 0.100269)
(-3.20913e-08 -5.57354e-08 0.100269)
(3.51742e-05 -3.52192e-05 0.10027)
(-3.54003e-05 3.54448e-05 0.10027)
(-5.57951e-08 -3.07717e-08 0.100269)
(5.27267e-08 -2.9392e-08 0.100269)
(-5.33814e-08 -3.28592e-08 0.100269)
(3.54157e-05 3.54311e-05 0.10027)
(3.52103e-05 3.51715e-05 0.10027)
(-3.54206e-05 -3.54048e-05 0.10027)
(5.13199e-08 2.84985e-08 0.100269)
(-5.25445e-08 3.1559e-08 0.100269)
(5.49785e-08 3.53684e-08 0.100269)
(-5.27103e-08 3.00065e-08 0.100269)
(-3.52038e-05 3.51744e-05 0.10027)
(3.54333e-05 -3.53991e-05 0.10027)
(3.17882e-08 5.31938e-08 0.100269)
(3.02044e-08 -5.58496e-08 0.100269)
(3.47441e-08 5.53617e-08 0.100269)
(3.08587e-08 -5.4587e-08 0.100269)
(-3.75508e-08 -5.67765e-08 0.100269)
(-2.78753e-08 5.20864e-08 0.100269)
(-3.36788e-08 -5.64538e-08 0.100269)
(3.51742e-05 -3.52205e-05 0.10027)
(-3.53996e-05 3.54453e-05 0.10027)
(-5.08334e-08 -3.80833e-08 0.100269)
(5.31327e-08 -3.00407e-08 0.100269)
(-5.36648e-08 -3.40729e-08 0.100269)
(3.54159e-05 3.54311e-05 0.10027)
(3.5216e-05 3.51751e-05 0.10027)
(-3.54349e-05 -3.54083e-05 0.10027)
(5.9874e-08 3.98097e-08 0.100269)
(-5.54623e-08 3.14002e-08 0.100269)
(5.14995e-08 2.94078e-08 0.100269)
(-5.98561e-08 4.08879e-08 0.100269)
(-3.52067e-05 3.5168e-05 0.10027)
(3.54316e-05 -3.53895e-05 0.10027)
(4.06414e-08 5.77121e-08 0.100269)
(3.08866e-08 -5.39708e-08 0.100269)
(2.91182e-08 5.38127e-08 0.100269)
(3.01291e-08 -5.34665e-08 0.100269)
(-3.12528e-08 -5.52779e-08 0.100269)
(-2.92709e-08 6.33991e-08 0.100269)
(-3.06637e-08 -5.26413e-08 0.100269)
(3.5176e-05 -3.52202e-05 0.10027)
(-3.54015e-05 3.54474e-05 0.10027)
(-5.43272e-08 -3.08143e-08 0.100269)
(5.26497e-08 -2.91067e-08 0.100269)
(-5.43226e-08 -2.88188e-08 0.100269)
(3.54161e-05 3.54362e-05 0.10027)
(3.52059e-05 3.51836e-05 0.10027)
(-3.54329e-05 -3.54059e-05 0.10027)
(5.07884e-08 3.2557e-08 0.100269)
(-6.52772e-08 4.33085e-08 0.100269)
(5.31074e-08 2.97542e-08 0.100269)
(-5.64296e-08 3.15263e-08 0.100269)
(-3.52122e-05 3.51961e-05 0.10027)
(3.54338e-05 -3.53973e-05 0.10027)
(2.80659e-08 5.59691e-08 0.100269)
(2.99272e-08 -5.37104e-08 0.100269)
(2.8255e-08 5.36689e-08 0.100269)
(2.99945e-08 -5.37336e-08 0.100269)
(-2.9909e-08 -5.18492e-08 0.100269)
(-2.83556e-08 5.68873e-08 0.100269)
(-3.012e-08 -5.28936e-08 0.100269)
(3.51764e-05 -3.52212e-05 0.10027)
(-3.5399e-05 3.54451e-05 0.10027)
(-5.40178e-08 -2.78144e-08 0.100269)
(5.25999e-08 -2.87585e-08 0.100269)
(-5.39183e-08 -2.85108e-08 0.100269)
(3.54136e-05 3.54331e-05 0.10027)
(3.52053e-05 3.51819e-05 0.10027)
(-3.54318e-05 -3.54061e-05 0.10027)
(5.35823e-08 3.16576e-08 0.100269)
(-5.61845e-08 3.07005e-08 0.100269)
(5.49161e-08 2.91581e-08 0.100269)
(-5.5782e-08 3.05891e-08 0.100269)
(-3.52074e-05 3.51741e-05 0.10027)
(3.54335e-05 -3.53988e-05 0.10027)
(2.86591e-08 5.57731e-08 0.100269)
(3.04025e-08 -5.48116e-08 0.100269)
(2.9491e-08 5.35278e-08 0.100269)
(3.02861e-08 -5.48254e-08 0.100269)
(-3.06855e-08 -5.41871e-08 0.100269)
(-2.96794e-08 5.50956e-08 0.100269)
(-3.07111e-08 -5.51445e-08 0.100269)
(3.5174e-05 -3.52187e-05 0.10027)
(-3.5399e-05 3.5445e-05 0.10027)
(-5.47925e-08 -2.90849e-08 0.100269)
(5.325e-08 -2.9602e-08 0.100269)
(-5.47728e-08 -2.98108e-08 0.100269)
(3.54139e-05 3.54325e-05 0.10027)
(3.52061e-05 3.51817e-05 0.10027)
(-3.54295e-05 -3.54038e-05 0.10027)
(5.44394e-08 3.08689e-08 0.100269)
(-5.55202e-08 2.99347e-08 0.100269)
(5.55888e-08 2.92042e-08 0.100269)
(-5.57148e-08 3.06604e-08 0.100269)
(-3.52075e-05 3.51731e-05 0.10027)
(3.54313e-05 -3.53969e-05 0.10027)
(2.9121e-08 5.52098e-08 0.100269)
(2.99706e-08 -5.50492e-08 0.100269)
(2.97576e-08 5.37647e-08 0.100269)
(3.05716e-08 -5.53375e-08 0.100269)
(-3.01773e-08 -5.50584e-08 0.100269)
(-2.98426e-08 5.5036e-08 0.100269)
(-3.06977e-08 -5.5654e-08 0.100269)
(3.51747e-05 -3.52196e-05 0.10027)
(-3.53968e-05 3.54424e-05 0.10027)
(-5.46381e-08 -2.9332e-08 0.100269)
(5.34508e-08 -2.98099e-08 0.100269)
(-5.4782e-08 -3.02754e-08 0.100269)
(3.54117e-05 3.54302e-05 0.10027)
(3.52042e-05 3.51796e-05 0.10027)
(-3.54293e-05 -3.54043e-05 0.10027)
(5.57564e-08 3.18641e-08 0.100269)
(-5.61805e-08 3.09076e-08 0.100269)
(5.75399e-08 3.05547e-08 0.100269)
(-5.71758e-08 3.20204e-08 0.100269)
(-3.52058e-05 3.51714e-05 0.10027)
(3.54312e-05 -3.53972e-05 0.10027)
(3.01456e-08 5.61929e-08 0.100269)
(3.10022e-08 -5.6147e-08 0.100269)
(3.11634e-08 5.53646e-08 0.100269)
(3.17239e-08 -5.65569e-08 0.100269)
(-3.05979e-08 -5.57308e-08 0.100269)
(-3.09124e-08 5.65768e-08 0.100269)
(-3.13754e-08 -5.66486e-08 0.100269)
(3.5173e-05 -3.5218e-05 0.10027)
(-3.53972e-05 3.54426e-05 0.10027)
(-5.4662e-08 -3.00262e-08 0.100269)
(5.61914e-08 -3.0926e-08 0.100269)
(-5.58983e-08 -3.09943e-08 0.100269)
(3.54122e-05 3.54304e-05 0.10027)
(3.52061e-05 3.5181e-05 0.10027)
(-3.543e-05 -3.54051e-05 0.10027)
(5.6771e-08 3.23936e-08 0.100269)
(-5.68619e-08 3.1595e-08 0.100269)
(5.71504e-08 2.9937e-08 0.100269)
(-5.66537e-08 3.14066e-08 0.100269)
(-3.52074e-05 3.51729e-05 0.10027)
(3.54323e-05 -3.53976e-05 0.10027)
(3.09514e-08 5.70142e-08 0.100269)
(3.16748e-08 -5.67433e-08 0.100269)
(3.12439e-08 5.48094e-08 0.100269)
(3.12704e-08 -5.61826e-08 0.100269)
(-3.11883e-08 -5.65281e-08 0.100269)
(-3.0391e-08 5.5821e-08 0.100269)
(-3.07652e-08 -5.61757e-08 0.100269)
(3.51745e-05 -3.52197e-05 0.10027)
(-3.53974e-05 3.54434e-05 0.10027)
(-5.54405e-08 -3.05578e-08 0.100269)
(5.56991e-08 -3.0509e-08 0.100269)
(-5.54636e-08 -3.07949e-08 0.100269)
(3.54122e-05 3.54306e-05 0.10027)
(3.52064e-05 3.51813e-05 0.10027)
(-3.54323e-05 -3.54071e-05 0.10027)
(5.64614e-08 3.1927e-08 0.100269)
(-5.6581e-08 3.1035e-08 0.100269)
(5.65583e-08 2.98527e-08 0.100269)
(-5.73821e-08 3.11246e-08 0.100269)
(-3.52071e-05 3.5173e-05 0.10027)
(3.5434e-05 -3.53998e-05 0.10027)
(3.08831e-08 5.65858e-08 0.100269)
(3.12727e-08 -5.66506e-08 0.100269)
(3.12088e-08 5.4481e-08 0.100269)
(3.13295e-08 -5.72424e-08 0.100269)
(-3.1298e-08 -5.69185e-08 0.100269)
(-3.09141e-08 5.61246e-08 0.100269)
(-3.10485e-08 -5.65826e-08 0.100269)
(3.51747e-05 -3.52195e-05 0.10027)
(-3.53995e-05 3.54449e-05 0.10027)
(-5.55777e-08 -3.06969e-08 0.100269)
(5.57472e-08 -3.17275e-08 0.100269)
(-5.59748e-08 -3.11959e-08 0.100269)
(3.54136e-05 3.54327e-05 0.10027)
(3.52066e-05 3.51834e-05 0.10027)
(5.62097e-08 3.16829e-08 0.100269)
(-5.64273e-08 3.13434e-08 0.100269)
(-3.52085e-05 3.51748e-05 0.10027)
(3.04003e-08 5.64558e-08 0.100269)
(3.12956e-08 -5.65817e-08 0.100269)
(-3.14934e-08 -5.71265e-08 0.100269)
(3.51765e-05 -3.52197e-05 0.10027)
(-5.59655e-08 -3.06758e-08 0.100269)
(-3.33435e-08 -3.38627e-08 0.100269)
(3.41189e-08 -3.30142e-08 0.100269)
(-3.36472e-08 3.3742e-08 0.100269)
(3.48149e-08 3.22898e-08 0.100269)
(6.84016e-09 -2.03688e-06 0.100266)
(1.87048e-07 1.85274e-06 0.100094)
(-8.4596e-09 2.03439e-06 0.100266)
(-1.93963e-07 -1.85188e-06 0.100094)
(-2.90843e-07 3.2622e-07 0.0996712)
(2.86623e-07 -3.25933e-07 0.0996711)
(-2.04731e-06 6.59799e-09 0.100266)
(1.87029e-06 1.88285e-07 0.100094)
(2.0404e-06 -6.80303e-09 0.100266)
(-1.86354e-06 -1.95136e-07 0.100094)
(3.32257e-08 -3.63233e-08 0.100269)
(-3.32273e-08 3.32747e-08 0.100269)
(3.30228e-08 3.34054e-08 0.100269)
(-3.36694e-08 -3.32756e-08 0.100269)
(3.3769e-08 -3.24616e-08 0.100269)
(-3.34053e-08 3.34467e-08 0.100269)
(3.31957e-08 3.32389e-08 0.100269)
(4.25097e-06 -2.26733e-08 0.100269)
(-2.7534e-06 1.42711e-06 0.100267)
(-3.24334e-08 -1.23496e-08 0.100269)
(-3.05248e-08 5.50084e-08 0.100269)
(-4.26476e-06 2.13876e-08 0.100269)
(2.72916e-06 -1.43588e-06 0.100267)
(-3.22443e-08 -1.2592e-08 0.100269)
(3.09486e-07 -2.83317e-07 0.0996711)
(-3.10231e-07 2.78833e-07 0.0996711)
(-8.0732e-09 4.25388e-06 0.100269)
(-1.23131e-08 -3.33212e-08 0.100269)
(1.43603e-06 -2.75854e-06 0.100267)
(5.37356e-08 -2.97369e-08 0.100269)
(1.0602e-08 -4.2684e-06 0.100269)
(-1.27346e-08 -3.00191e-08 0.100269)
(-1.43998e-06 2.73375e-06 0.100267)
(-6.60633e-07 -1.35932e-06 0.100261)
(-1.35058e-06 -6.57902e-07 0.100261)
(3.54135e-05 3.54312e-05 0.10027)
(6.59286e-07 1.35055e-06 0.100261)
(1.34255e-06 6.55338e-07 0.100261)
(6.76791e-09 -2.03765e-06 0.100266)
(1.87021e-07 1.8534e-06 0.100094)
(-8.37258e-09 2.03349e-06 0.100266)
(-1.9394e-07 -1.85185e-06 0.100094)
(-2.91637e-07 3.23787e-07 0.0996711)
(2.8621e-07 -3.26763e-07 0.0996711)
(-2.048e-06 6.99182e-09 0.100266)
(1.87072e-06 1.88008e-07 0.100094)
(2.03999e-06 -6.63563e-09 0.100266)
(-1.86349e-06 -1.95453e-07 0.100094)
(3.35621e-08 -3.58647e-08 0.100269)
(-3.37055e-08 3.37095e-08 0.100269)
(3.36344e-08 3.36356e-08 0.100269)
(-3.37456e-08 -3.35235e-08 0.100269)
(3.38384e-08 -3.39233e-08 0.100269)
(-3.33971e-08 3.35818e-08 0.100269)
(3.33608e-08 3.321e-08 0.100269)
(4.25137e-06 -2.25169e-08 0.100269)
(-2.75199e-06 1.42839e-06 0.100267)
(-3.27012e-08 -1.22021e-08 0.100269)
(-3.04243e-08 5.54606e-08 0.100269)
(-4.26456e-06 2.1259e-08 0.100269)
(2.73059e-06 -1.43602e-06 0.100267)
(-3.19477e-08 -1.23328e-08 0.100269)
(3.0816e-07 -2.83378e-07 0.099671)
(-3.10868e-07 2.78812e-07 0.0996711)
(-8.21513e-09 4.25424e-06 0.100269)
(-1.21971e-08 -3.38834e-08 0.100269)
(1.43634e-06 -2.75766e-06 0.100267)
(5.4418e-08 -2.98564e-08 0.100269)
(1.03736e-08 -4.26756e-06 0.100269)
(-1.25001e-08 -3.00941e-08 0.100269)
(-1.44039e-06 2.73467e-06 0.100267)
(-6.60029e-07 -1.35775e-06 0.100261)
(-1.34995e-06 -6.57133e-07 0.100261)
(3.54146e-05 3.54332e-05 0.10027)
(6.60366e-07 1.3517e-06 0.100261)
(1.34349e-06 6.56802e-07 0.100261)
(6.94183e-09 -2.03686e-06 0.100266)
(1.87663e-07 1.85354e-06 0.100094)
(-8.42521e-09 2.0349e-06 0.100266)
(-1.92998e-07 -1.8514e-06 0.100094)
(-2.91479e-07 3.25384e-07 0.0996711)
(2.86816e-07 -3.25606e-07 0.0996711)
(-2.0473e-06 7.08832e-09 0.100266)
(1.87104e-06 1.8806e-07 0.100094)
(2.04079e-06 -6.38729e-09 0.100266)
(-1.86312e-06 -1.94609e-07 0.100094)
(3.35369e-08 -3.38304e-08 0.100269)
(-3.36084e-08 3.34792e-08 0.100269)
(3.34244e-08 3.33369e-08 0.100269)
(-3.38658e-08 -3.3421e-08 0.100269)
(3.36874e-08 -3.39167e-08 0.100269)
(-3.3481e-08 3.34664e-08 0.100269)
(3.32956e-08 3.33989e-08 0.100269)
(4.25239e-06 -2.22989e-08 0.100269)
(-2.75338e-06 1.42846e-06 0.100267)
(-2.96463e-08 -1.22668e-08 0.100269)
(-2.88672e-08 5.356e-08 0.100269)
(-4.26471e-06 2.14045e-08 0.100269)
(2.73071e-06 -1.43505e-06 0.100267)
(-2.97785e-08 -1.23419e-08 0.100269)
(3.09488e-07 -2.8352e-07 0.0996711)
(-3.10192e-07 2.79117e-07 0.0996711)
(-8.00202e-09 4.25548e-06 0.100269)
(-1.20311e-08 -3.13827e-08 0.100269)
(1.43606e-06 -2.75851e-06 0.100267)
(5.24732e-08 -2.85911e-08 0.100269)
(1.02649e-08 -4.26769e-06 0.100269)
(-1.24659e-08 -2.82823e-08 0.100269)
(-1.43929e-06 2.73495e-06 0.100267)
(-6.61897e-07 -1.35974e-06 0.100261)
(-1.35124e-06 -6.58329e-07 0.100261)
(3.54151e-05 3.54338e-05 0.10027)
(6.5965e-07 1.3509e-06 0.100261)
(1.34307e-06 6.56425e-07 0.100261)
(6.80388e-09 -2.03709e-06 0.100266)
(1.88046e-07 1.85285e-06 0.100094)
(-8.32978e-09 2.03492e-06 0.100266)
(-1.92945e-07 -1.85219e-06 0.100094)
(-2.91209e-07 3.24545e-07 0.0996711)
(2.86888e-07 -3.2627e-07 0.0996711)
(-2.0477e-06 6.3999e-09 0.100266)
(1.87022e-06 1.8916e-07 0.100094)
(2.04122e-06 -6.59681e-09 0.100266)
(-1.86402e-06 -1.9431e-07 0.100094)
(3.35652e-08 -3.39452e-08 0.100269)
(-3.37545e-08 3.34971e-08 0.100269)
(3.32508e-08 3.344e-08 0.100269)
(-3.38341e-08 -3.33204e-08 0.100269)
(3.36563e-08 -3.36306e-08 0.100269)
(-3.33718e-08 3.35604e-08 0.100269)
(3.32471e-08 3.34008e-08 0.100269)
(4.25198e-06 -2.23244e-08 0.100269)
(-2.7528e-06 1.42826e-06 0.100267)
(-3.00896e-08 -1.24234e-08 0.100269)
(-2.98537e-08 5.48241e-08 0.100269)
(-4.26473e-06 2.13058e-08 0.100269)
(2.73063e-06 -1.43567e-06 0.100267)
(-3.07893e-08 -1.25287e-08 0.100269)
(3.09325e-07 -2.82717e-07 0.099671)
(-3.10471e-07 2.79399e-07 0.0996711)
(-8.08762e-09 4.25384e-06 0.100269)
(-1.23652e-08 -3.11573e-08 0.100269)
(1.43624e-06 -2.75865e-06 0.100267)
(5.27243e-08 -2.89774e-08 0.100269)
(1.07164e-08 -4.26805e-06 0.100269)
(-1.28883e-08 -2.85113e-08 0.100269)
(-1.44013e-06 2.73453e-06 0.100267)
(-6.61394e-07 -1.35938e-06 0.100261)
(-1.35145e-06 -6.58528e-07 0.100261)
(3.54144e-05 3.54322e-05 0.10027)
(6.60437e-07 1.35141e-06 0.100261)
(1.34338e-06 6.56887e-07 0.100261)
(6.92869e-09 -2.03808e-06 0.100266)
(1.8727e-07 1.85329e-06 0.100094)
(-8.36189e-09 2.03507e-06 0.100266)
(-1.94103e-07 -1.85134e-06 0.100094)
(-2.91081e-07 3.2545e-07 0.0996711)
(2.87287e-07 -3.25694e-07 0.0996711)
(-2.04827e-06 6.71246e-09 0.100266)
(1.87077e-06 1.88578e-07 0.100094)
(2.04171e-06 -6.54786e-09 0.100266)
(-1.86316e-06 -1.95314e-07 0.100094)
(3.36154e-08 -3.36931e-08 0.100269)
(-3.35111e-08 3.37109e-08 0.100269)
(3.33309e-08 3.36358e-08 0.100269)
(-3.36219e-08 -3.32821e-08 0.100269)
(3.37404e-08 -3.37645e-08 0.100269)
(-3.33985e-08 3.35161e-08 0.100269)
(3.34449e-08 3.33768e-08 0.100269)
(4.25363e-06 -2.25971e-08 0.100269)
(-2.75363e-06 1.42814e-06 0.100267)
(-2.92798e-08 -1.21014e-08 0.100269)
(-2.84546e-08 5.34271e-08 0.100269)
(-4.26513e-06 2.14881e-08 0.100269)
(2.73154e-06 -1.43517e-06 0.100267)
(-2.90871e-08 -1.21378e-08 0.100269)
(3.09621e-07 -2.83536e-07 0.099671)
(-3.09806e-07 2.7972e-07 0.0996711)
(-6.22221e-09 4.25949e-06 0.100269)
(-1.21676e-08 -2.89245e-08 0.100269)
(1.43611e-06 -2.75858e-06 0.100267)
(5.20668e-08 -2.80334e-08 0.100269)
(1.10057e-08 -4.2674e-06 0.100269)
(-1.2314e-08 -2.89538e-08 0.100269)
(-1.43892e-06 2.7356e-06 0.100267)
(-6.61665e-07 -1.3595e-06 0.100261)
(-1.3514e-06 -6.58436e-07 0.100261)
(3.54157e-05 3.5434e-05 0.10027)
(6.60353e-07 1.35094e-06 0.100261)
(1.34282e-06 6.56843e-07 0.100261)
(6.53141e-09 -2.03808e-06 0.100266)
(1.87996e-07 1.85243e-06 0.100094)
(-8.50015e-09 2.03482e-06 0.100266)
(-1.93378e-07 -1.8523e-06 0.100094)
(-2.91566e-07 3.23971e-07 0.0996711)
(2.85604e-07 -3.27658e-07 0.0996711)
(-2.04866e-06 6.75962e-09 0.100266)
(1.86992e-06 1.8843e-07 0.100094)
(2.04056e-06 -6.65002e-09 0.100266)
(-1.8641e-06 -1.95217e-07 0.100094)
(3.36222e-08 -3.38235e-08 0.100269)
(-3.35648e-08 3.35743e-08 0.100269)
(3.35198e-08 3.35735e-08 0.100269)
(-3.35965e-08 -3.32516e-08 0.100269)
(3.3602e-08 -3.37938e-08 0.100269)
(-3.34578e-08 3.33843e-08 0.100269)
(3.3299e-08 3.31776e-08 0.100269)
(4.25218e-06 -2.20857e-08 0.100269)
(-2.75285e-06 1.42826e-06 0.100267)
(-3.11761e-08 -1.22707e-08 0.100269)
(-3.06578e-08 5.61059e-08 0.100269)
(-4.26474e-06 2.13803e-08 0.100269)
(2.7313e-06 -1.43643e-06 0.100267)
(-3.2053e-08 -1.26082e-08 0.100269)
(3.08347e-07 -2.8334e-07 0.099671)
(-3.1206e-07 2.78008e-07 0.0996711)
(-6.21997e-09 4.258e-06 0.100269)
(-1.21906e-08 -3.07865e-08 0.100269)
(1.43598e-06 -2.75829e-06 0.100267)
(5.51107e-08 -3.04888e-08 0.100269)
(1.09692e-08 -4.26724e-06 0.100269)
(-1.26837e-08 -3.22554e-08 0.100269)
(-1.4408e-06 2.73581e-06 0.100267)
(-6.60982e-07 -1.35891e-06 0.100261)
(-1.3506e-06 -6.57679e-07 0.100261)
(3.54103e-05 3.54291e-05 0.10027)
(6.60685e-07 1.3518e-06 0.100261)
(1.34388e-06 6.5769e-07 0.100261)
(6.47587e-09 -2.03743e-06 0.100266)
(1.87592e-07 1.85314e-06 0.100094)
(-8.46152e-09 2.035e-06 0.100266)
(-1.93705e-07 -1.85187e-06 0.100094)
(-2.91181e-07 3.25451e-07 0.0996711)
(2.87297e-07 -3.25814e-07 0.0996711)
(-2.04777e-06 6.57774e-09 0.100266)
(1.87063e-06 1.88754e-07 0.100094)
(2.04183e-06 -6.42628e-09 0.100266)
(-1.86362e-06 -1.95207e-07 0.100094)
(3.31316e-08 -3.34206e-08 0.100269)
(-3.32183e-08 3.30749e-08 0.100269)
(3.28272e-08 3.28857e-08 0.100269)
(-3.36143e-08 -3.32144e-08 0.100269)
(3.35484e-08 -3.36308e-08 0.100269)
(-3.33724e-08 3.34004e-08 0.100269)
(3.31492e-08 3.30997e-08 0.100269)
(4.25161e-06 -2.20852e-08 0.100269)
(-2.75394e-06 1.42905e-06 0.100267)
(-3.18526e-08 -1.23193e-08 0.100269)
(-2.96227e-08 5.4732e-08 0.100269)
(-4.2657e-06 2.17037e-08 0.100269)
(2.73022e-06 -1.43514e-06 0.100267)
(-3.13268e-08 -1.22986e-08 0.100269)
(3.09677e-07 -2.83195e-07 0.099671)
(-3.0997e-07 2.7973e-07 0.0996711)
(-6.21251e-09 4.2575e-06 0.100269)
(-1.22256e-08 -3.15089e-08 0.100269)
(1.43692e-06 -2.75936e-06 0.100267)
(5.35244e-08 -2.93161e-08 0.100269)
(1.10984e-08 -4.2682e-06 0.100269)
(-1.24008e-08 -3.13814e-08 0.100269)
(-1.43921e-06 2.73471e-06 0.100267)
(-6.62734e-07 -1.35973e-06 0.100261)
(-1.35135e-06 -6.59207e-07 0.100261)
(3.54126e-05 3.54312e-05 0.10027)
(6.59718e-07 1.35097e-06 0.100261)
(1.34296e-06 6.56353e-07 0.100261)
(6.66586e-09 -2.03793e-06 0.100266)
(1.87606e-07 1.85273e-06 0.100094)
(-8.74711e-09 2.03391e-06 0.100266)
(-1.93939e-07 -1.85189e-06 0.100094)
(-2.90886e-07 3.24592e-07 0.0996711)
(2.8652e-07 -3.26604e-07 0.0996711)
(-2.04845e-06 6.47105e-09 0.100266)
(1.87008e-06 1.88436e-07 0.100094)
(2.03992e-06 -6.8885e-09 0.100266)
(-1.86382e-06 -1.9513e-07 0.100094)
(3.33824e-08 -3.3618e-08 0.100269)
(-3.34921e-08 3.33992e-08 0.100269)
(3.31018e-08 3.3252e-08 0.100269)
(-3.34329e-08 -3.29128e-08 0.100269)
(3.33258e-08 -3.33787e-08 0.100269)
(-3.30768e-08 3.31116e-08 0.100269)
(3.29778e-08 3.30738e-08 0.100269)
(4.25129e-06 -2.21485e-08 0.100269)
(-2.75287e-06 1.42823e-06 0.100267)
(-3.2057e-08 -1.228e-08 0.100269)
(-3.09134e-08 5.63948e-08 0.100269)
(-4.2648e-06 2.13937e-08 0.100269)
(2.73081e-06 -1.43594e-06 0.100267)
(-3.30396e-08 -1.2325e-08 0.100269)
(3.08722e-07 -2.82846e-07 0.099671)
(-3.10931e-07 2.78914e-07 0.0996711)
(-5.91606e-09 4.25716e-06 0.100269)
(-1.23244e-08 -3.16442e-08 0.100269)
(1.43609e-06 -2.7583e-06 0.100267)
(5.4957e-08 -3.05197e-08 0.100269)
(1.08461e-08 -4.26733e-06 0.100269)
(-1.25485e-08 -3.29157e-08 0.100269)
(-1.43998e-06 2.73507e-06 0.100267)
(-6.61143e-07 -1.35878e-06 0.100261)
(-1.35078e-06 -6.57955e-07 0.100261)
(3.54105e-05 3.54288e-05 0.10027)
(6.60412e-07 1.3518e-06 0.100261)
(1.34357e-06 6.56823e-07 0.100261)
(5.57018e-09 -2.03915e-06 0.100266)
(1.87134e-07 1.85239e-06 0.100094)
(-8.98086e-09 2.03346e-06 0.100266)
(-1.95086e-07 -1.8521e-06 0.100094)
(-2.91542e-07 3.23807e-07 0.0996711)
(2.86584e-07 -3.26674e-07 0.0996711)
(-2.0493e-06 6.0581e-09 0.100266)
(1.86969e-06 1.8898e-07 0.100094)
(2.04015e-06 -6.97597e-09 0.100266)
(-1.86403e-06 -1.95769e-07 0.100094)
(3.29888e-08 -3.32343e-08 0.100269)
(-3.31021e-08 3.29215e-08 0.100269)
(3.26878e-08 3.29615e-08 0.100269)
(-3.37353e-08 -3.36921e-08 0.100269)
(3.275e-08 -3.18971e-08 0.100269)
(-3.24346e-08 3.23294e-08 0.100269)
(3.21566e-08 3.15464e-08 0.100269)
(4.25065e-06 -2.26188e-08 0.100269)
(-2.75297e-06 1.42812e-06 0.100267)
(-3.31003e-08 -1.22252e-08 0.100269)
(-3.09078e-08 5.65784e-08 0.100269)
(-4.26546e-06 2.08818e-08 0.100269)
(2.73028e-06 -1.43582e-06 0.100267)
(-3.2825e-08 -1.22737e-08 0.100269)
(3.08408e-07 -2.83293e-07 0.0996711)
(-3.1049e-07 2.79279e-07 0.0996711)
(-6.42357e-09 4.2561e-06 0.100269)
(-1.23179e-08 -3.25962e-08 0.100269)
(1.43599e-06 -2.75887e-06 0.100267)
(5.44054e-08 -2.85337e-08 0.100269)
(1.06852e-08 -4.26819e-06 0.100269)
(-1.24096e-08 -3.25447e-08 0.100269)
(-1.44039e-06 2.73385e-06 0.100267)
(-6.61508e-07 -1.35891e-06 0.100261)
(-1.35075e-06 -6.58154e-07 0.100261)
(3.54135e-05 3.54313e-05 0.10027)
(6.597e-07 1.35095e-06 0.100261)
(1.34317e-06 6.56266e-07 0.100261)
(-1.45084e-08 -2.03965e-06 0.100266)
(1.83475e-07 1.85266e-06 0.100094)
(-1.50996e-08 2.03624e-06 0.100266)
(-3.5148e-07 -1.92152e-06 0.100094)
(-2.90581e-07 3.26988e-07 0.0996711)
(2.97683e-07 -2.84074e-07 0.0996708)
(-2.04931e-06 6.67566e-09 0.100266)
(1.87133e-06 1.87299e-07 0.100094)
(2.04234e-06 -6.57334e-09 0.100266)
(-1.8637e-06 -1.97217e-07 0.100094)
(3.2609e-08 -2.8434e-08 0.100269)
(-3.17581e-08 3.23346e-08 0.100269)
(2.97026e-08 2.71481e-08 0.100269)
(-3.12716e-08 -3.19492e-08 0.100269)
(3.52688e-08 -3.38137e-08 0.100269)
(-3.23446e-08 3.28368e-08 0.100269)
(3.23351e-08 3.07243e-08 0.100269)
(4.25173e-06 -2.26197e-08 0.100269)
(-2.75224e-06 1.42918e-06 0.100267)
(-3.04753e-08 -1.1939e-08 0.100269)