/*--------------------------------*- C++ -*----------------------------------*\
| =========                 |                                                 |
| \\      /  F ield         | OpenFOAM: The Open Source CFD Toolbox           |
|  \\    /   O peration     | Version:  2206                                  |
|   \\  /    A nd           | Website:  www.openfoam.com                      |
|    \\/     M anipulation  |                                                 |
\*---------------------------------------------------------------------------*/
FoamFile
{
    version     2.0;
    format      ascii;
    arch        "LSB;label=32;scalar=64";
    class       volScalarField;
    location    "17";
    object      p;
}
// * * * * * * * * * * * * * * * * * * * * * * * * * * * * * * * * * * * * * //

dimensions      [0 2 -2 0 0 0 0];

internalField   nonuniform List<scalar> 
171728
(
0.00424613
0.00424645
0.00424645
0.0042495
0.00419076
0.00419124
0.00419124
0.0041942
0.00414
0.00413987
0.00413987
0.00414268
0.00408929
0.00408909
0.00408908
0.00409149
0.00404322
0.00404316
0.00404316
0.00404581
0.0039982
0.00399816
0.00399816
0.0040008
0.00395328
0.00395324
0.00395324
0.00395588
0.00390836
0.00390833
0.00390833
0.00391096
0.00386345
0.00386342
0.00386342
0.00386605
0.00381854
0.00381851
0.00381851
0.00382114
0.00377363
0.0037736
0.0037736
0.00377623
0.00372872
0.00372869
0.00372869
0.00373133
0.00368381
0.00368379
0.00368379
0.00368642
0.00363891
0.00363888
0.00363888
0.00364151
0.003594
0.00359397
0.00359397
0.0035966
0.00354909
0.00354906
0.00354906
0.00355169
0.00350418
0.00350415
0.00350415
0.00350678
0.00345927
0.00345924
0.00345924
0.00346187
0.00341436
0.00341433
0.00341433
0.00341696
0.00336945
0.00336942
0.00336942
0.00337205
0.00332455
0.00332452
0.00332452
0.00332715
0.00327964
0.00327961
0.00327961
0.00328225
0.00323474
0.00323471
0.00323471
0.00323734
0.00318984
0.00318981
0.00318981
0.00319244
0.00314494
0.00314491
0.00314491
0.00314754
0.00310004
0.00310001
0.00310001
0.00310264
0.00305514
0.00305511
0.00305511
0.00305774
0.00301024
0.00301021
0.00301021
0.00301284
0.00296534
0.00296531
0.00296531
0.00296795
0.00292045
0.00292042
0.00292042
0.00292305
0.00287555
0.00287552
0.00287552
0.00287815
0.00283065
0.00283062
0.00283062
0.00283325
0.00278575
0.00278573
0.00278573
0.00278836
0.00274086
0.00274083
0.00274083
0.00274346
0.00269596
0.00269593
0.00269593
0.00269856
0.00265107
0.00265104
0.00265104
0.00265367
0.00260617
0.00260614
0.00260614
0.00260877
0.00256127
0.00256124
0.00256124
0.00256388
0.00251638
0.00251635
0.00251635
0.00251898
0.00247148
0.00247145
0.00247145
0.00247408
0.00242658
0.00242655
0.00242655
0.00242919
0.00238169
0.00238166
0.00238166
0.00238429
0.00233679
0.00233676
0.00233676
0.00233939
0.00229189
0.00229187
0.00229187
0.0022945
0.002247
0.00224697
0.00224697
0.0022496
0.00220211
0.00220208
0.00220208
0.00220471
0.00215721
0.00215719
0.00215719
0.00215982
0.00211232
0.00211229
0.00211229
0.00211492
0.00206743
0.0020674
0.0020674
0.00207003
0.00202254
0.00202251
0.00202251
0.00202514
0.00197764
0.00197762
0.00197762
0.00198025
0.00193275
0.00193272
0.00193272
0.00193536
0.00188786
0.00188783
0.00188783
0.00189046
0.00184297
0.00184294
0.00184294
0.00184557
0.00179807
0.00179805
0.00179805
0.00180068
0.00175318
0.00175315
0.00175315
0.00175578
0.00170829
0.00170826
0.00170826
0.00171089
0.0016634
0.00166337
0.00166337
0.001666
0.0016185
0.00161847
0.00161847
0.0016211
0.00157361
0.00157358
0.00157358
0.00157621
0.00152872
0.00152869
0.00152869
0.00153132
0.00148382
0.00148379
0.00148379
0.00148643
0.00143893
0.0014389
0.0014389
0.00144153
0.00139403
0.00139401
0.00139401
0.00139664
0.00134914
0.00134911
0.00134911
0.00135174
0.00130424
0.00130422
0.00130422
0.00130685
0.00125935
0.00125932
0.00125932
0.00126195
0.00121445
0.00121442
0.00121442
0.00121705
0.00116956
0.00116953
0.00116953
0.00117216
0.00112466
0.00112463
0.00112463
0.00112726
0.00107977
0.00107974
0.00107974
0.00108237
0.00103487
0.00103484
0.00103484
0.00103747
0.000989972
0.000989944
0.000989944
0.000992576
0.000945073
0.000945044
0.000945044
0.000947676
0.000900171
0.000900142
0.000900142
0.000902775
0.000855268
0.000855239
0.000855239
0.000857872
0.000810364
0.000810335
0.000810335
0.000812967
0.00076546
0.000765431
0.000765431
0.000768063
0.000720555
0.000720526
0.000720526
0.000723158
0.000675649
0.000675621
0.000675621
0.000678253
0.000630745
0.000630716
0.000630716
0.000633349
0.00058584
0.000585811
0.000585811
0.000588443
0.000540933
0.000540904
0.000540904
0.000543537
0.000496026
0.000495997
0.000495997
0.00049863
0.000451117
0.000451088
0.000451088
0.000453721
0.000406207
0.000406178
0.000406178
0.000408811
0.000361297
0.000361268
0.000361268
0.000363901
0.000316389
0.00031636
0.00031636
0.000318993
0.000271483
0.000271454
0.000271454
0.000274087
0.000226576
0.000226548
0.000226548
0.00022918
0.000181663
0.00018164
0.00018164
0.000184266
0.000136751
0.000136697
0.000136697
0.000139317
9.18419e-05
9.18075e-05
9.18059e-05
9.43903e-05
4.76038e-05
4.70465e-05
4.70434e-05
4.95132e-05
1.07102e-05
1.10734e-05
1.10715e-05
1.06689e-05
0.00425955
0.00425978
0.00425978
0.00425955
0.00425978
0.00425978
0.00426055
0.00426055
0.00426056
0.00426056
0.00425978
0.00425978
0.00425955
0.00425978
0.00425978
0.00425955
0.0042495
0.00420079
0.00424644
0.00424645
0.00420305
0.00420305
0.0042495
0.00420079
0.00424645
0.00424645
0.00420304
0.00420305
0.00424644
0.00420304
0.00420305
0.0042495
0.00420079
0.00424645
0.00420304
0.00420304
0.00420079
0.0041942
0.00414971
0.00419124
0.00419124
0.00415316
0.00415316
0.0041942
0.00414971
0.00419124
0.00419124
0.00415316
0.00415316
0.00419124
0.00415316
0.00415316
0.0041942
0.00414971
0.00419124
0.00415315
0.00415316
0.00414971
0.00414268
0.00409794
0.00413988
0.00413988
0.00410132
0.00410132
0.00414268
0.00409795
0.00413987
0.00413988
0.00410132
0.00410132
0.00413987
0.00410132
0.00410132
0.00414268
0.00409794
0.00413987
0.00410132
0.00410132
0.00409794
0.00409148
0.00405179
0.00408908
0.00408909
0.00405445
0.00405446
0.00409149
0.00405179
0.00408908
0.00408908
0.00405445
0.00405445
0.00408909
0.00405446
0.00405445
0.00409148
0.00405179
0.00408909
0.00405445
0.00405445
0.00405179
0.00404582
0.00400677
0.00404316
0.00404316
0.0040094
0.0040094
0.00404582
0.00400677
0.00404316
0.00404316
0.0040094
0.0040094
0.00404316
0.0040094
0.0040094
0.00404581
0.00400677
0.00404316
0.0040094
0.0040094
0.00400677
0.0040008
0.00396185
0.00399816
0.00399816
0.00396447
0.00396447
0.0040008
0.00396185
0.00399816
0.00399816
0.00396447
0.00396447
0.00399816
0.00396447
0.00396447
0.0040008
0.00396185
0.00399816
0.00396447
0.00396447
0.00396185
0.00395588
0.00391693
0.00395324
0.00395324
0.00391956
0.00391956
0.00395588
0.00391693
0.00395325
0.00395324
0.00391956
0.00391956
0.00395324
0.00391956
0.00391956
0.00395588
0.00391693
0.00395324
0.00391956
0.00391956
0.00391693
0.00391096
0.00387202
0.00390833
0.00390833
0.00387465
0.00387465
0.00391096
0.00387202
0.00390833
0.00390833
0.00387465
0.00387465
0.00390833
0.00387465
0.00387465
0.00391096
0.00387202
0.00390833
0.00387465
0.00387465
0.00387202
0.00386605
0.00382711
0.00386342
0.00386342
0.00382974
0.00382974
0.00386605
0.00382711
0.00386342
0.00386342
0.00382974
0.00382974
0.00386342
0.00382974
0.00382974
0.00386605
0.00382711
0.00386342
0.00382974
0.00382974
0.00382711
0.00382114
0.0037822
0.00381851
0.00381851
0.00378483
0.00378483
0.00382114
0.0037822
0.00381851
0.00381851
0.00378483
0.00378483
0.00381851
0.00378483
0.00378483
0.00382114
0.0037822
0.00381851
0.00378483
0.00378483
0.0037822
0.00377623
0.00373729
0.0037736
0.0037736
0.00373992
0.00373992
0.00377623
0.00373729
0.0037736
0.0037736
0.00373992
0.00373992
0.0037736
0.00373992
0.00373992
0.00377623
0.00373729
0.0037736
0.00373992
0.00373992
0.00373729
0.00373133
0.00369239
0.00372869
0.00372869
0.00369501
0.00369501
0.00373133
0.00369239
0.00372869
0.00372869
0.00369501
0.00369501
0.00372869
0.00369501
0.00369501
0.00373133
0.00369239
0.00372869
0.00369501
0.00369501
0.00369239
0.00368642
0.00364748
0.00368379
0.00368379
0.0036501
0.0036501
0.00368642
0.00364748
0.00368379
0.00368379
0.0036501
0.0036501
0.00368379
0.0036501
0.0036501
0.00368642
0.00364748
0.00368379
0.0036501
0.0036501
0.00364748
0.00364151
0.00360257
0.00363888
0.00363888
0.0036052
0.0036052
0.00364151
0.00360257
0.00363888
0.00363888
0.0036052
0.0036052
0.00363888
0.0036052
0.0036052
0.00364151
0.00360257
0.00363888
0.00360519
0.0036052
0.00360257
0.0035966
0.00355766
0.00359397
0.00359397
0.00356029
0.00356028
0.0035966
0.00355766
0.00359397
0.00359397
0.00356028
0.00356028
0.00359397
0.00356029
0.00356029
0.0035966
0.00355766
0.00359397
0.00356028
0.00356029
0.00355766
0.00355169
0.00351275
0.00354906
0.00354906
0.00351537
0.00351537
0.00355169
0.00351275
0.00354906
0.00354906
0.00351537
0.00351537
0.00354906
0.00351537
0.00351537
0.00355169
0.00351275
0.00354906
0.00351537
0.00351537
0.00351275
0.00350678
0.00346784
0.00350415
0.00350415
0.00347047
0.00347047
0.00350678
0.00346784
0.00350415
0.00350415
0.00347047
0.00347047
0.00350415
0.00347047
0.00347047
0.00350678
0.00346784
0.00350415
0.00347047
0.00347047
0.00346784
0.00346187
0.00342293
0.00345924
0.00345924
0.00342556
0.00342556
0.00346187
0.00342293
0.00345924
0.00345924
0.00342556
0.00342556
0.00345924
0.00342556
0.00342556
0.00346187
0.00342293
0.00345924
0.00342556
0.00342556
0.00342293
0.00341696
0.00337802
0.00341433
0.00341433
0.00338065
0.00338065
0.00341696
0.00337802
0.00341433
0.00341433
0.00338065
0.00338065
0.00341433
0.00338065
0.00338065
0.00341696
0.00337802
0.00341433
0.00338065
0.00338065
0.00337802
0.00337205
0.00333312
0.00336942
0.00336942
0.00333574
0.00333574
0.00337205
0.00333312
0.00336942
0.00336942
0.00333574
0.00333574
0.00336942
0.00333574
0.00333574
0.00337205
0.00333312
0.00336942
0.00333574
0.00333574
0.00333312
0.00332715
0.00328821
0.00332452
0.00332452
0.00329084
0.00329084
0.00332715
0.00328821
0.00332452
0.00332452
0.00329084
0.00329084
0.00332452
0.00329084
0.00329084
0.00332715
0.00328821
0.00332452
0.00329084
0.00329084
0.00328821
0.00328225
0.00324331
0.00327961
0.00327961
0.00324594
0.00324594
0.00328225
0.00324331
0.00327961
0.00327961
0.00324594
0.00324594
0.00327961
0.00324594
0.00324594
0.00328225
0.00324331
0.00327961
0.00324594
0.00324594
0.00324331
0.00323734
0.00319841
0.00323471
0.00323471
0.00320104
0.00320104
0.00323734
0.00319841
0.00323471
0.00323471
0.00320104
0.00320104
0.00323471
0.00320104
0.00320104
0.00323734
0.00319841
0.00323471
0.00320104
0.00320104
0.00319841
0.00319244
0.00315351
0.00318981
0.00318981
0.00315613
0.00315613
0.00319244
0.00315351
0.00318981
0.00318981
0.00315613
0.00315614
0.00318981
0.00315613
0.00315614
0.00319244
0.00315351
0.00318981
0.00315613
0.00315614
0.00315351
0.00314754
0.00310861
0.00314491
0.00314491
0.00311123
0.00311123
0.00314754
0.00310861
0.00314491
0.00314491
0.00311123
0.00311123
0.00314491
0.00311123
0.00311123
0.00314754
0.00310861
0.00314491
0.00311123
0.00311123
0.00310861
0.00310264
0.00306371
0.00310001
0.00310001
0.00306634
0.00306634
0.00310264
0.00306371
0.00310001
0.00310001
0.00306634
0.00306634
0.00310001
0.00306634
0.00306634
0.00310264
0.00306371
0.00310001
0.00306634
0.00306634
0.00306371
0.00305774
0.00301881
0.00305511
0.00305511
0.00302144
0.00302144
0.00305774
0.00301881
0.00305511
0.00305511
0.00302144
0.00302144
0.00305511
0.00302144
0.00302144
0.00305774
0.00301881
0.00305511
0.00302144
0.00302144
0.00301881
0.00301284
0.00297391
0.00301021
0.00301021
0.00297654
0.00297654
0.00301284
0.00297391
0.00301021
0.00301021
0.00297654
0.00297654
0.00301021
0.00297654
0.00297654
0.00301284
0.00297391
0.00301021
0.00297654
0.00297654
0.00297391
0.00296795
0.00292901
0.00296531
0.00296531
0.00293164
0.00293164
0.00296795
0.00292901
0.00296531
0.00296531
0.00293164
0.00293164
0.00296531
0.00293164
0.00293164
0.00296795
0.00292901
0.00296531
0.00293164
0.00293164
0.00292901
0.00292305
0.00288412
0.00292042
0.00292042
0.00288674
0.00288674
0.00292305
0.00288412
0.00292042
0.00292042
0.00288674
0.00288674
0.00292042
0.00288674
0.00288674
0.00292305
0.00288412
0.00292042
0.00288674
0.00288674
0.00288412
0.00287815
0.00283922
0.00287552
0.00287552
0.00284185
0.00284185
0.00287815
0.00283922
0.00287552
0.00287552
0.00284185
0.00284185
0.00287552
0.00284185
0.00284185
0.00287815
0.00283922
0.00287552
0.00284185
0.00284185
0.00283922
0.00283325
0.00279432
0.00283062
0.00283062
0.00279695
0.00279695
0.00283325
0.00279432
0.00283062
0.00283062
0.00279695
0.00279695
0.00283062
0.00279695
0.00279695
0.00283325
0.00279432
0.00283062
0.00279695
0.00279695
0.00279432
0.00278836
0.00274943
0.00278573
0.00278573
0.00275205
0.00275205
0.00278836
0.00274943
0.00278573
0.00278573
0.00275205
0.00275205
0.00278573
0.00275205
0.00275205
0.00278836
0.00274943
0.00278573
0.00275205
0.00275205
0.00274943
0.00274346
0.00270453
0.00274083
0.00274083
0.00270716
0.00270716
0.00274346
0.00270453
0.00274083
0.00274083
0.00270716
0.00270716
0.00274083
0.00270716
0.00270716
0.00274346
0.00270453
0.00274083
0.00270716
0.00270716
0.00270453
0.00269856
0.00265963
0.00269593
0.00269593
0.00266226
0.00266226
0.00269856
0.00265963
0.00269593
0.00269593
0.00266226
0.00266226
0.00269593
0.00266226
0.00266226
0.00269856
0.00265963
0.00269593
0.00266226
0.00266226
0.00265963
0.00265367
0.00261474
0.00265104
0.00265104
0.00261736
0.00261736
0.00265367
0.00261474
0.00265104
0.00265104
0.00261736
0.00261736
0.00265104
0.00261736
0.00261736
0.00265367
0.00261474
0.00265104
0.00261736
0.00261736
0.00261474
0.00260877
0.00256984
0.00260614
0.00260614
0.00257247
0.00257247
0.00260877
0.00256984
0.00260614
0.00260614
0.00257247
0.00257247
0.00260614
0.00257247
0.00257247
0.00260877
0.00256984
0.00260614
0.00257247
0.00257247
0.00256984
0.00256388
0.00252495
0.00256124
0.00256124
0.00252757
0.00252757
0.00256388
0.00252495
0.00256124
0.00256124
0.00252757
0.00252757
0.00256124
0.00252757
0.00252757
0.00256388
0.00252495
0.00256124
0.00252757
0.00252757
0.00252495
0.00251898
0.00248005
0.00251635
0.00251635
0.00248268
0.00248268
0.00251898
0.00248005
0.00251635
0.00251635
0.00248267
0.00248268
0.00251635
0.00248267
0.00248267
0.00251898
0.00248005
0.00251635
0.00248268
0.00248268
0.00248005
0.00247408
0.00243515
0.00247145
0.00247145
0.00243778
0.00243778
0.00247408
0.00243515
0.00247145
0.00247145
0.00243778
0.00243778
0.00247145
0.00243778
0.00243778
0.00247408
0.00243515
0.00247145
0.00243778
0.00243778
0.00243515
0.00242919
0.00239025
0.00242655
0.00242655
0.00239288
0.00239288
0.00242919
0.00239025
0.00242655
0.00242655
0.00239288
0.00239288
0.00242655
0.00239288
0.00239288
0.00242919
0.00239025
0.00242655
0.00239288
0.00239288
0.00239025
0.00238429
0.00234536
0.00238166
0.00238166
0.00234798
0.00234798
0.00238429
0.00234536
0.00238166
0.00238166
0.00234798
0.00234798
0.00238166
0.00234798
0.00234798
0.00238429
0.00234536
0.00238166
0.00234798
0.00234798
0.00234536
0.00233939
0.00230046
0.00233676
0.00233676
0.00230309
0.00230309
0.00233939
0.00230046
0.00233676
0.00233676
0.00230309
0.00230309
0.00233676
0.00230309
0.00230309
0.00233939
0.00230046
0.00233676
0.00230309
0.00230309
0.00230046
0.0022945
0.00225557
0.00229187
0.00229187
0.0022582
0.00225819
0.0022945
0.00225557
0.00229187
0.00229187
0.00225819
0.0022582
0.00229187
0.00225819
0.0022582
0.0022945
0.00225557
0.00229187
0.0022582
0.0022582
0.00225557
0.0022496
0.00221067
0.00224697
0.00224697
0.0022133
0.0022133
0.0022496
0.00221067
0.00224697
0.00224697
0.0022133
0.0022133
0.00224697
0.0022133
0.0022133
0.0022496
0.00221067
0.00224697
0.0022133
0.0022133
0.00221067
0.00220471
0.00216578
0.00220208
0.00220208
0.00216841
0.00216841
0.00220471
0.00216578
0.00220208
0.00220208
0.00216841
0.00216841
0.00220208
0.00216841
0.00216841
0.00220471
0.00216578
0.00220208
0.00216841
0.00216841
0.00216578
0.00215982
0.00212089
0.00215719
0.00215719
0.00212352
0.00212352
0.00215982
0.00212089
0.00215719
0.00215719
0.00212352
0.00212352
0.00215719
0.00212352
0.00212352
0.00215982
0.00212089
0.00215719
0.00212352
0.00212352
0.00212089
0.00211492
0.002076
0.00211229
0.00211229
0.00207862
0.00207862
0.00211492
0.002076
0.00211229
0.00211229
0.00207862
0.00207862
0.00211229
0.00207862
0.00207862
0.00211492
0.002076
0.00211229
0.00207862
0.00207862
0.002076
0.00207003
0.0020311
0.0020674
0.0020674
0.00203373
0.00203373
0.00207003
0.0020311
0.0020674
0.0020674
0.00203373
0.00203373
0.0020674
0.00203373
0.00203373
0.00207003
0.0020311
0.0020674
0.00203373
0.00203373
0.0020311
0.00202514
0.00198621
0.00202251
0.00202251
0.00198884
0.00198884
0.00202514
0.00198621
0.00202251
0.00202251
0.00198884
0.00198884
0.00202251
0.00198884
0.00198884
0.00202514
0.00198621
0.00202251
0.00198884
0.00198884
0.00198621
0.00198025
0.00194132
0.00197762
0.00197762
0.00194395
0.00194395
0.00198025
0.00194132
0.00197762
0.00197762
0.00194395
0.00194395
0.00197762
0.00194395
0.00194395
0.00198025
0.00194132
0.00197762
0.00194395
0.00194395
0.00194132
0.00193536
0.00189643
0.00193272
0.00193272
0.00189905
0.00189905
0.00193536
0.00189643
0.00193272
0.00193272
0.00189905
0.00189905
0.00193272
0.00189905
0.00189905
0.00193536
0.00189643
0.00193272
0.00189905
0.00189905
0.00189643
0.00189046
0.00185153
0.00188783
0.00188783
0.00185416
0.00185416
0.00189046
0.00185153
0.00188783
0.00188783
0.00185416
0.00185416
0.00188783
0.00185416
0.00185416
0.00189046
0.00185153
0.00188783
0.00185416
0.00185416
0.00185153
0.00184557
0.00180664
0.00184294
0.00184294
0.00180927
0.00180927
0.00184557
0.00180664
0.00184294
0.00184294
0.00180927
0.00180927
0.00184294
0.00180927
0.00180927
0.00184557
0.00180664
0.00184294
0.00180927
0.00180927
0.00180664
0.00180068
0.00176175
0.00179805
0.00179805
0.00176438
0.00176438
0.00180068
0.00176175
0.00179805
0.00179805
0.00176438
0.00176438
0.00179805
0.00176438
0.00176438
0.00180068
0.00176175
0.00179805
0.00176438
0.00176438
0.00176175
0.00175578
0.00171686
0.00175315
0.00175315
0.00171948
0.00171948
0.00175578
0.00171686
0.00175315
0.00175315
0.00171948
0.00171948
0.00175315
0.00171948
0.00171948
0.00175578
0.00171686
0.00175315
0.00171948
0.00171948
0.00171686
0.00171089
0.00167196
0.00170826
0.00170826
0.00167459
0.00167459
0.00171089
0.00167196
0.00170826
0.00170826
0.00167459
0.00167459
0.00170826
0.00167459
0.00167459
0.00171089
0.00167196
0.00170826
0.00167459
0.00167459
0.00167196
0.001666
0.00162707
0.00166337
0.00166337
0.0016297
0.0016297
0.001666
0.00162707
0.00166337
0.00166337
0.0016297
0.0016297
0.00166337
0.0016297
0.0016297
0.001666
0.00162707
0.00166337
0.0016297
0.0016297
0.00162707
0.0016211
0.00158218
0.00161847
0.00161847
0.0015848
0.0015848
0.0016211
0.00158218
0.00161847
0.00161847
0.0015848
0.0015848
0.00161847
0.0015848
0.0015848
0.0016211
0.00158218
0.00161847
0.0015848
0.0015848
0.00158218
0.00157621
0.00153728
0.00157358
0.00157358
0.00153991
0.00153991
0.00157621
0.00153728
0.00157358
0.00157358
0.00153991
0.00153991
0.00157358
0.00153991
0.00153991
0.00157621
0.00153728
0.00157358
0.00153991
0.00153991
0.00153728
0.00153132
0.00149239
0.00152869
0.00152869
0.00149502
0.00149502
0.00153132
0.00149239
0.00152869
0.00152869
0.00149502
0.00149502
0.00152869
0.00149502
0.00149502
0.00153132
0.00149239
0.00152869
0.00149502
0.00149502
0.00149239
0.00148643
0.0014475
0.00148379
0.00148379
0.00145012
0.00145012
0.00148643
0.0014475
0.00148379
0.00148379
0.00145012
0.00145012
0.00148379
0.00145012
0.00145012
0.00148643
0.0014475
0.00148379
0.00145012
0.00145012
0.0014475
0.00144153
0.0014026
0.0014389
0.0014389
0.00140523
0.00140523
0.00144153
0.0014026
0.0014389
0.0014389
0.00140523
0.00140523
0.0014389
0.00140523
0.00140523
0.00144153
0.0014026
0.0014389
0.00140523
0.00140523
0.0014026
0.00139664
0.00135771
0.00139401
0.00139401
0.00136033
0.00136033
0.00139664
0.00135771
0.00139401
0.00139401
0.00136033
0.00136033
0.00139401
0.00136033
0.00136034
0.00139664
0.00135771
0.00139401
0.00136033
0.00136033
0.00135771
0.00135174
0.00131281
0.00134911
0.00134911
0.00131544
0.00131544
0.00135174
0.00131281
0.00134911
0.00134911
0.00131544
0.00131544
0.00134911
0.00131544
0.00131544
0.00135174
0.00131281
0.00134911
0.00131544
0.00131544
0.00131281
0.00130685
0.00126792
0.00130422
0.00130422
0.00127054
0.00127054
0.00130685
0.00126792
0.00130421
0.00130422
0.00127054
0.00127054
0.00130422
0.00127054
0.00127054
0.00130685
0.00126792
0.00130422
0.00127054
0.00127054
0.00126792
0.00126195
0.00122302
0.00125932
0.00125932
0.00122565
0.00122565
0.00126195
0.00122302
0.00125932
0.00125932
0.00122565
0.00122565
0.00125932
0.00122565
0.00122565
0.00126195
0.00122302
0.00125932
0.00122565
0.00122565
0.00122302
0.00121705
0.00117812
0.00121442
0.00121442
0.00118075
0.00118075
0.00121705
0.00117812
0.00121442
0.00121442
0.00118075
0.00118075
0.00121442
0.00118075
0.00118075
0.00121705
0.00117812
0.00121442
0.00118075
0.00118075
0.00117812
0.00117216
0.00113323
0.00116953
0.00116953
0.00113586
0.00113586
0.00117216
0.00113323
0.00116953
0.00116953
0.00113586
0.00113586
0.00116953
0.00113586
0.00113586
0.00117216
0.00113323
0.00116953
0.00113586
0.00113586
0.00113323
0.00112726
0.00108833
0.00112463
0.00112463
0.00109096
0.00109096
0.00112726
0.00108833
0.00112463
0.00112463
0.00109096
0.00109096
0.00112463
0.00109096
0.00109096
0.00112726
0.00108833
0.00112463
0.00109096
0.00109096
0.00108833
0.00108237
0.00104344
0.00107974
0.00107974
0.00104607
0.00104607
0.00108237
0.00104344
0.00107974
0.00107974
0.00104607
0.00104607
0.00107974
0.00104607
0.00104607
0.00108237
0.00104344
0.00107974
0.00104607
0.00104607
0.00104344
0.00103747
0.000998541
0.00103484
0.00103484
0.00100117
0.00100117
0.00103747
0.000998541
0.00103484
0.00103484
0.00100117
0.00100117
0.00103484
0.00100117
0.00100117
0.00103747
0.000998541
0.00103484
0.00100117
0.00100117
0.000998541
0.000992576
0.000953642
0.000989944
0.000989944
0.000956269
0.000956269
0.000992576
0.000953642
0.000989944
0.000989944
0.000956269
0.000956269
0.000989944
0.000956269
0.000956269
0.000992576
0.000953642
0.000989944
0.000956269
0.000956269
0.000953642
0.000947676
0.000908741
0.000945044
0.000945044
0.000911368
0.000911368
0.000947676
0.000908741
0.000945044
0.000945044
0.000911368
0.000911368
0.000945044
0.000911368
0.000911368
0.000947676
0.000908741
0.000945044
0.000911368
0.000911368
0.000908741
0.000902775
0.000863838
0.000900143
0.000900142
0.000866465
0.000866465
0.000902775
0.000863838
0.000900142
0.000900142
0.000866465
0.000866465
0.000900143
0.000866465
0.000866466
0.000902775
0.000863838
0.000900142
0.000866465
0.000866465
0.000863838
0.000857872
0.000818934
0.000855239
0.000855239
0.000821561
0.000821561
0.000857872
0.000818934
0.000855239
0.000855239
0.000821561
0.000821561
0.00085524
0.000821561
0.000821561
0.000857872
0.000818934
0.000855239
0.000821561
0.000821561
0.000818934
0.000812967
0.00077403
0.000810335
0.000810335
0.000776657
0.000776657
0.000812967
0.00077403
0.000810335
0.000810335
0.000776657
0.000776657
0.000810335
0.000776657
0.000776657
0.000812967
0.00077403
0.000810335
0.000776657
0.000776657
0.00077403
0.000768063
0.000729125
0.000765431
0.000765431
0.000731752
0.000731752
0.000768063
0.000729125
0.000765431
0.000765431
0.000731752
0.000731752
0.000765431
0.000731752
0.000731752
0.000768063
0.000729125
0.000765431
0.000731752
0.000731752
0.000729125
0.000723158
0.000684219
0.000720526
0.000720526
0.000686847
0.000686847
0.000723158
0.000684219
0.000720526
0.000720526
0.000686847
0.000686847
0.000720526
0.000686847
0.000686847
0.000723158
0.000684219
0.000720526
0.000686847
0.000686847
0.000684219
0.000678253
0.000639315
0.000675621
0.000675621
0.000641942
0.000641942
0.000678253
0.000639315
0.00067562
0.000675621
0.000641942
0.000641942
0.000675621
0.000641942
0.000641943
0.000678253
0.000639315
0.000675621
0.000641942
0.000641942
0.000639315
0.000633349
0.00059441
0.000630716
0.000630716
0.000597037
0.000597037
0.000633348
0.00059441
0.000630716
0.000630716
0.000597037
0.000597037
0.000630716
0.000597037
0.000597038
0.000633349
0.00059441
0.000630716
0.000597037
0.000597037
0.00059441
0.000588443
0.000549503
0.000585811
0.000585811
0.000552131
0.000552131
0.000588443
0.000549504
0.000585811
0.000585811
0.000552131
0.000552131
0.000585811
0.000552131
0.000552131
0.000588443
0.000549503
0.000585811
0.000552131
0.000552131
0.000549503
0.000543537
0.000504596
0.000540904
0.000540904
0.000507224
0.000507224
0.000543536
0.000504596
0.000540904
0.000540904
0.000507224
0.000507224
0.000540904
0.000507224
0.000507224
0.000543537
0.000504596
0.000540904
0.000507224
0.000507224
0.000504596
0.000498629
0.000459688
0.000495997
0.000495997
0.000462316
0.000462316
0.000498629
0.000459688
0.000495997
0.000495997
0.000462315
0.000462316
0.000495997
0.000462316
0.000462316
0.000498629
0.000459688
0.000495997
0.000462316
0.000462316
0.000459688
0.000453721
0.000414778
0.000451088
0.000451088
0.000417406
0.000417406
0.000453721
0.000414778
0.000451088
0.000451088
0.000417405
0.000417406
0.000451088
0.000417406
0.000417406
0.000453721
0.000414778
0.000451088
0.000417406
0.000417406
0.000414778
0.000408811
0.000369868
0.000406178
0.000406178
0.000372496
0.000372495
0.00040881
0.000369868
0.000406178
0.000406178
0.000372495
0.000372495
0.000406178
0.000372495
0.000372496
0.000408811
0.000369868
0.000406178
0.000372496
0.000372495
0.000369868
0.000363901
0.00032496
0.000361268
0.000361268
0.000327587
0.000327587
0.000363901
0.00032496
0.000361268
0.000361268
0.000327587
0.000327587
0.000361268
0.000327587
0.000327587
0.000363901
0.000324959
0.000361268
0.000327587
0.000327587
0.00032496
0.000318993
0.000280053
0.00031636
0.00031636
0.000282681
0.000282681
0.000318993
0.000280053
0.00031636
0.00031636
0.00028268
0.000282681
0.000316361
0.000282681
0.000282681
0.000318993
0.000280053
0.00031636
0.000282681
0.000282681
0.000280053
0.000274086
0.000235146
0.000271454
0.000271454
0.000237774
0.000237774
0.000274086
0.000235147
0.000271454
0.000271454
0.000237774
0.000237774
0.000271454
0.000237774
0.000237774
0.000274087
0.000235146
0.000271454
0.000237774
0.000237774
0.000235146
0.00022918
0.000190238
0.000226548
0.000226548
0.000192868
0.000192868
0.00022918
0.000190238
0.000226548
0.000226548
0.000192868
0.000192868
0.000226548
0.000192868
0.000192868
0.00022918
0.000190238
0.000226548
0.000192868
0.000192868
0.000190238
0.000184266
0.000145318
0.00018164
0.00018164
0.000147931
0.000147931
0.000184266
0.000145319
0.00018164
0.00018164
0.000147931
0.000147931
0.00018164
0.000147931
0.000147931
0.000184266
0.000145318
0.00018164
0.000147931
0.000147931
0.000145319
0.000139317
0.000100431
0.000136697
0.000136698
0.000103077
0.000103078
0.000139317
0.000100432
0.000136697
0.000136697
0.000103078
0.000103077
0.000136697
0.000103079
0.000103078
0.000139317
0.000100431
0.000136697
0.000103077
0.000103077
0.000100431
9.43908e-05
5.55453e-05
9.1806e-05
9.18065e-05
5.81553e-05
5.8156e-05
9.43906e-05
5.5546e-05
9.1806e-05
9.18052e-05
5.81534e-05
5.8153e-05
9.18061e-05
5.81549e-05
5.81528e-05
9.43911e-05
5.55422e-05
9.18055e-05
5.81519e-05
5.81511e-05
5.55421e-05
4.95171e-05
1.45944e-05
4.70481e-05
4.70481e-05
1.69062e-05
1.69055e-05
4.95174e-05
1.45941e-05
4.70455e-05
4.7044e-05
1.69044e-05
1.69006e-05
4.70432e-05
1.69029e-05
1.68989e-05
4.95136e-05
1.45899e-05
4.70427e-05
1.6901e-05
1.69003e-05
1.45885e-05
1.06729e-05
1.10748e-05
1.1075e-05
1.06739e-05
1.10733e-05
1.10709e-05
1.07099e-05
1.07081e-05
1.07076e-05
1.10699e-05
1.06702e-05
1.10704e-05
0.00426793
0.00427769
0.00427249
0.00427249
0.00429485
0.00428165
0.00431024
0.00427569
0.00429485
0.00428165
0.0042757
0.00431024
0.00428621
0.00431397
0.00431398
0.0042233
0.00424239
0.0042516
0.0042153
0.00421611
0.00421891
0.00422328
0.00424237
0.00425159
0.00421529
0.00424613
0.00424613
0.00424613
0.00420271
0.00420271
0.00420271
0.00420271
0.00422078
0.00424659
0.00424652
0.0042296
0.00424961
0.00421969
0.00423046
0.00421622
0.00421891
0.00422079
0.00424652
0.00424661
0.0042296
0.00424961
0.00423046
0.00421969
0.00425247
0.00425245
0.00422402
0.00421929
0.00421929
0.00417636
0.00419589
0.00419735
0.00417475
0.00419487
0.0041742
0.00417635
0.00419589
0.00419735
0.00417474
0.00419076
0.00419076
0.00419076
0.00415319
0.00415319
0.00415319
0.00415319
0.00417509
0.00419599
0.00419079
0.00417889
0.00419482
0.00417551
0.0041787
0.00419487
0.00417419
0.00417509
0.00419079
0.00419599
0.00417889
0.00419482
0.0041787
0.0041755
0.004197
0.004197
0.00417547
0.00417574
0.00417574
0.00412433
0.00414298
0.00414416
0.00412309
0.00414264
0.00412281
0.00412433
0.00414298
0.00414416
0.00412309
0.00414
0.00414
0.00414
0.0041015
0.0041015
0.0041015
0.0041015
0.00412331
0.00414348
0.00413985
0.0041267
0.00414306
0.00412358
0.00412669
0.00414264
0.00412281
0.00412331
0.00413985
0.00414348
0.0041267
0.00414306
0.00412669
0.00412358
0.00414371
0.0041437
0.00412335
0.00412366
0.00412366
0.00407368
0.00409061
0.00409125
0.00407346
0.00409018
0.00407331
0.00407368
0.00409061
0.00409125
0.00407346
0.00408929
0.00408929
0.00408929
0.00405453
0.00405453
0.00405453
0.00405453
0.00407402
0.00409133
0.00408919
0.0040773
0.00409135
0.004074
0.00407737
0.00409018
0.00407332
0.00407402
0.00408919
0.00409133
0.0040773
0.00409135
0.00407737
0.004074
0.00409066
0.00409066
0.0040744
0.0040736
0.0040736
0.00402905
0.00404574
0.0040458
0.00402902
0.00404577
0.00402904
0.00402905
0.00404573
0.0040458
0.00402902
0.00404322
0.00404322
0.00404322
0.00400944
0.00400944
0.00400944
0.00400944
0.00402913
0.00404582
0.00404317
0.00403189
0.00404583
0.00402909
0.00403191
0.00404577
0.00402904
0.00402913
0.00404317
0.00404582
0.00403189
0.00404583
0.0040319
0.00402909
0.00404586
0.00404586
0.00402926
0.00402906
0.00402906
0.00398415
0.00400096
0.00400096
0.00398415
0.00400097
0.00398414
0.00398415
0.00400096
0.00400096
0.00398415
0.0039982
0.0039982
0.0039982
0.0039645
0.0039645
0.0039645
0.0039645
0.00398421
0.00400093
0.00399817
0.00398693
0.00400092
0.00398418
0.00398694
0.00400096
0.00398415
0.00398421
0.00399817