/*--------------------------------*- C++ -*----------------------------------*\
| =========                 |                                                 |
| \\      /  F ield         | OpenFOAM: The Open Source CFD Toolbox           |
|  \\    /   O peration     | Version:  2206                                  |
|   \\  /    A nd           | Website:  www.openfoam.com                      |
|    \\/     M anipulation  |                                                 |
\*---------------------------------------------------------------------------*/
FoamFile
{
    version     2.0;
    format      ascii;
    arch        "LSB;label=32;scalar=64";
    class       volScalarField;
    location    "17";
    object      Ux;
}
// * * * * * * * * * * * * * * * * * * * * * * * * * * * * * * * * * * * * * //

dimensions      [0 1 -1 0 0 0 0];

internalField   nonuniform List<scalar> 
171728
(
0.000108201
-0.000191056
0.000120228
-0.000238548
9.60767e-05
-0.000164019
9.98924e-05
-0.000199839
9.09261e-05
-0.000157467
9.50236e-05
-0.000193738
6.58624e-05
-9.30103e-05
5.41626e-05
-0.000137532
1.55535e-05
-1.97604e-05
1.37931e-05
-5.66455e-05
1.0489e-06
-2.04156e-06
1.75113e-06
-4.07627e-05
-4.45332e-07
-4.15033e-07
6.08164e-07
-3.96317e-05
-5.28904e-07
-3.56396e-07
5.58743e-07
-3.95902e-05
-5.33952e-07
-3.56674e-07
5.57794e-07
-3.95897e-05
-5.32547e-07
-3.5657e-07
5.58179e-07
-3.959e-05
-5.29764e-07
-3.56309e-07
5.58205e-07
-3.95904e-05
-5.34183e-07
-3.58999e-07
5.57655e-07
-3.959e-05
-5.33389e-07
-3.65991e-07
5.57245e-07
-3.959e-05
-5.33891e-07
-3.62375e-07
5.56591e-07
-3.95903e-05
-5.37128e-07
-3.5569e-07
5.56064e-07
-3.95897e-05
-5.37176e-07
-3.56611e-07
5.5635e-07
-3.95902e-05
-5.35421e-07
-3.58078e-07
5.56674e-07
-3.95904e-05
-5.34287e-07
-3.58376e-07
5.57926e-07
-3.95911e-05
-5.32069e-07
-3.5847e-07
5.58232e-07
-3.95917e-05
-5.2621e-07
-3.55357e-07
5.58774e-07
-3.95914e-05
-5.22447e-07
-3.61718e-07
5.58418e-07
-3.95896e-05
-5.32514e-07
-3.57685e-07
5.57151e-07
-3.95893e-05
-5.34363e-07
-3.56843e-07
5.56879e-07
-3.9589e-05
-5.34981e-07
-3.57129e-07
5.5696e-07
-3.95892e-05
-5.3493e-07
-3.57181e-07
5.57252e-07
-3.95902e-05
-5.34049e-07
-3.57949e-07
5.57884e-07
-3.95911e-05
-5.34185e-07
-3.57983e-07
5.57692e-07
-3.95914e-05
-5.34512e-07
-3.57694e-07
5.57828e-07
-3.95908e-05
-5.34746e-07
-3.56776e-07
5.57059e-07
-3.95902e-05
-5.35537e-07
-3.56058e-07
5.56609e-07
-3.95901e-05
-5.35102e-07
-3.56431e-07
5.56848e-07
-3.95899e-05
-5.35042e-07
-3.56093e-07
5.56822e-07
-3.95901e-05
-5.34425e-07
-3.57176e-07
5.57695e-07
-3.9591e-05
-5.34425e-07
-3.57647e-07
5.57674e-07
-3.95913e-05
-5.34113e-07
-3.578e-07
5.58066e-07
-3.95912e-05
-5.34402e-07
-3.57834e-07
5.5799e-07
-3.9591e-05
-5.35261e-07
-3.5627e-07
5.57118e-07
-3.95898e-05
-5.34927e-07
-3.56823e-07
5.57367e-07
-3.95902e-05
-5.35747e-07
-3.55096e-07
5.56268e-07
-3.95889e-05
-5.34946e-07
-3.55951e-07
5.55766e-07
-3.95869e-05
-5.2923e-07
-3.5487e-07
5.56513e-07
-3.95887e-05
-5.36667e-07
-3.57162e-07
5.57444e-07
-3.95918e-05
-5.34089e-07
-3.57252e-07
5.57387e-07
-3.95916e-05
-5.34005e-07
-3.57166e-07
5.57239e-07
-3.95913e-05
-5.34244e-07
-3.5702e-07
5.55968e-07
-3.95907e-05
-5.34283e-07
-3.55643e-07
5.56045e-07
-3.95895e-05
-5.34093e-07
-3.56841e-07
5.56319e-07
-3.95901e-05
-5.34416e-07
-3.56303e-07
5.56227e-07
-3.95903e-05
-5.33244e-07
-3.57813e-07
5.57146e-07
-3.95915e-05
-5.33233e-07
-3.58005e-07
5.57351e-07
-3.95919e-05
-5.3343e-07
-3.58032e-07
5.57244e-07
-3.95913e-05
-5.33477e-07
-3.5807e-07
5.57045e-07
-3.95916e-05
-5.33826e-07
-3.56394e-07
5.56345e-07
-3.95898e-05
-5.32949e-07
-3.56219e-07
5.56578e-07
-3.95894e-05
-5.31909e-07
-3.55935e-07
5.56622e-07
-3.95894e-05
-5.3341e-07
-3.57234e-07
5.56939e-07
-3.95908e-05
-5.32372e-07
-3.59222e-07
5.57551e-07
-3.95935e-05
-5.31815e-07
-3.60151e-07
5.58218e-07
-3.95942e-05
-5.31592e-07
-3.60115e-07
5.58698e-07
-3.95941e-05
-5.31845e-07
-3.5908e-07
5.5803e-07
-3.95932e-05
-5.32203e-07
-3.58818e-07
5.57791e-07
-3.95931e-05
-5.33466e-07
-3.57532e-07
5.56896e-07
-3.95919e-05
-5.3241e-07
-3.58653e-07
5.57832e-07
-3.95927e-05
-5.32338e-07
-3.58442e-07
5.57459e-07
-3.95928e-05
-5.31896e-07
-3.59415e-07
5.5809e-07
-3.95933e-05
-5.31511e-07
-3.60228e-07
5.58763e-07
-3.95939e-05
-5.31484e-07
-3.59409e-07
5.58261e-07
-3.95939e-05
-5.31664e-07
-3.59511e-07
5.58367e-07
-3.95939e-05
-5.32666e-07
-3.5792e-07
5.59026e-07
-3.95941e-05
-5.32042e-07
-3.58576e-07
5.64863e-07
-3.95975e-05
-5.32178e-07
-3.57223e-07
5.60812e-07
-3.95957e-05
-5.32134e-07
-3.59271e-07
5.58395e-07
-3.95931e-05
-5.3171e-07
-3.59218e-07
5.58115e-07
-3.95938e-05
-5.31462e-07
-3.59786e-07
5.58736e-07
-3.95942e-05
-5.31461e-07
-3.60233e-07
5.59073e-07
-3.95943e-05
-5.32282e-07
-3.58985e-07
5.57866e-07
-3.95939e-05
-5.32461e-07
-3.58488e-07
5.57731e-07
-3.95933e-05
-5.33073e-07
-3.57957e-07
5.5756e-07
-3.95929e-05
-5.32833e-07
-3.58631e-07
5.57537e-07
-3.95931e-05
-5.32358e-07
-3.58229e-07
5.57852e-07
-3.95935e-05
-5.31664e-07
-3.59872e-07
5.58456e-07
-3.95943e-05
-5.31642e-07
-3.59938e-07
5.58468e-07
-3.95941e-05
-5.31687e-07
-3.60013e-07
5.58536e-07
-3.95944e-05
-5.32092e-07
-3.5883e-07
5.57812e-07
-3.95935e-05
-5.32543e-07
-3.58517e-07
5.57449e-07
-3.95932e-05
-5.3273e-07
-3.58447e-07
5.57568e-07
-3.95927e-05
-5.32943e-07
-3.58113e-07
5.57703e-07
-3.95929e-05
-5.32347e-07
-3.58821e-07
5.58226e-07
-3.95936e-05
-5.33445e-07
-3.58286e-07
5.5774e-07
-3.9594e-05
-5.4522e-07
-3.54337e-07
5.54348e-07
-3.95825e-05
-5.26928e-07
-4.97449e-07
6.37593e-07
-3.94081e-05
-6.46439e-07
-1.19632e-06
1.07225e-06
-3.80253e-05
1.08925e-08
-2.97091e-06
2.52925e-06
-3.69215e-05
-5.69419e-06
-2.12858e-06
2.82074e-06
-2.65518e-05
-4.29889e-05
4.11703e-05
-3.47813e-05
4.96688e-05
0.000135586
0.000123815
-0.000123806
-0.000135582
0.000152427
0.0001524
9.08327e-05
-9.08234e-05
9.08082e-05
-9.0806e-05
-0.000152422
-0.00015241
0.000135575
0.000123764
-0.00012376
-0.000135583
0.000238591
0.000113292
0.000120274
-0.000120229
8.89388e-05
-8.89018e-05
-0.000238601
-0.000113252
0.000191091
0.000191027
0.00014685
0.000146881
-0.000191006
-0.000146816
-0.000146838
0.000238523
0.000113248
-0.000120207
8.89223e-05
-8.89026e-05
-0.000113246
0.000199918
0.000104052
9.98936e-05
-9.98663e-05
8.98108e-05
-8.9811e-05
-0.000199883
-0.000104041
0.000164052
0.000164072
0.000150985
0.000151029
-0.00016405
-0.000150986
-0.000151001
0.000199836
0.000104008
-9.98743e-05
8.98032e-05
-8.98077e-05
-0.000104021
0.000193806
6.97237e-05
9.50159e-05
-9.5029e-05
6.9858e-05
-6.98369e-05
-0.000193797
-6.97206e-05
0.000157483
0.000157517
0.000120863
0.000120893
-0.000157502
-0.000120862
-0.000120899
0.00019372
6.96656e-05
-9.50349e-05
6.98733e-05
-6.98535e-05
-6.97474e-05
0.000137561
-1.90024e-05
5.41941e-05
-5.41922e-05
2.10184e-05
-2.10275e-05
-0.00013756
1.90005e-05
9.30197e-05
9.30406e-05
3.15557e-05
3.15594e-05
-9.30355e-05
-3.15524e-05
-3.15488e-05
0.000137487
-1.89743e-05
-5.41544e-05
2.09952e-05
-2.0994e-05
1.8999e-05
5.66659e-05
-3.94333e-05
1.38119e-05
-1.38225e-05
2.9502e-06
-2.96309e-06
-5.66711e-05
3.94326e-05
1.9764e-05
1.97723e-05
3.69214e-06
3.70528e-06
-1.97617e-05
-3.6924e-06
-3.71013e-06
5.66439e-05
-3.94089e-05
-1.37914e-05
2.93461e-06
-2.93557e-06
3.94095e-05
4.0766e-05
-4.11118e-05
1.76513e-06
-1.77995e-06
6.89812e-07
-6.93979e-07
-4.0771e-05
4.11125e-05
2.04338e-06
2.05459e-06
5.1171e-07
5.25962e-07
-2.05704e-06
-5.11893e-07
-5.2768e-07
4.07479e-05
-4.10855e-05
-1.75123e-06
6.73497e-07
-6.74638e-07
4.10874e-05
3.96384e-05
-4.1171e-05
6.28435e-07
-6.25088e-07
5.84209e-07
-5.7631e-07
-3.96361e-05
4.1175e-05
4.19306e-07
4.31796e-07
3.60109e-07
3.75269e-07
-4.30253e-07
-3.57798e-07
-3.73865e-07
3.96183e-05
-4.11469e-05
-6.07289e-07
5.59546e-07
-5.58646e-07
4.11508e-05
3.95978e-05
-4.11721e-05
5.78349e-07
-5.75884e-07
5.7626e-07
-5.76435e-07
-3.95956e-05
4.11746e-05
3.61158e-07
3.74343e-07
3.57744e-07
3.72722e-07
-3.71073e-07
-3.56351e-07
-3.71459e-07
3.95782e-05
-4.1148e-05
-5.56565e-07
5.56364e-07
-5.55196e-07
4.11519e-05
3.95977e-05
-4.11723e-05
5.75582e-07
-5.76587e-07
5.7719e-07
-5.76195e-07
-3.95965e-05
4.11767e-05
3.61307e-07
3.74236e-07
3.58267e-07
3.73672e-07
-3.71014e-07
-3.56523e-07
-3.71845e-07
3.9578e-05
-4.11468e-05
-5.55372e-07
5.57091e-07
-5.55286e-07
4.11518e-05
3.95986e-05
-4.11688e-05
5.78479e-07
-5.75695e-07
5.87041e-07
-5.75606e-07
-3.95958e-05
4.11816e-05
3.61998e-07
3.7499e-07
3.58529e-07
3.74106e-07
-3.71093e-07
-3.55741e-07
-3.71982e-07
3.9579e-05
-4.11466e-05
-5.55391e-07
5.56845e-07
-5.55425e-07
4.11512e-05
3.96017e-05
-4.11702e-05
5.86119e-07
-5.75294e-07
5.75768e-07
-5.77511e-07
-3.95953e-05
4.11802e-05
3.61891e-07
3.75318e-07
3.57834e-07
3.73621e-07
-3.71282e-07
-3.57094e-07
-3.71917e-07
3.95792e-05
-4.11469e-05
-5.55473e-07
5.56788e-07
-5.55355e-07
4.11514e-05
3.95987e-05
-4.11721e-05
5.77703e-07
-5.77735e-07
5.74296e-07
-5.76554e-07
-3.95965e-05
4.11776e-05
3.6201e-07
3.74462e-07
3.56511e-07
3.72392e-07
-3.71455e-07
-3.63476e-07
-3.72714e-07
3.95785e-05
-4.11481e-05
-5.55386e-07
5.56098e-07
-5.54758e-07
4.11512e-05
3.9597e-05
-4.11748e-05
5.74163e-07
-5.76212e-07
5.72425e-07
-5.73969e-07
-3.95995e-05
4.1174e-05
3.59008e-07
3.73116e-07
3.5474e-07
3.71276e-07
-3.72088e-07
-3.62641e-07
-3.72824e-07
3.95774e-05
-4.11491e-05
-5.54587e-07
5.55428e-07
-5.54605e-07
4.11512e-05
3.95955e-05
-4.11714e-05
5.74532e-07
-5.7467e-07
5.71371e-07
-5.76137e-07
-3.96019e-05
4.11775e-05
3.58135e-07
3.72244e-07
3.55051e-07
3.70946e-07
-3.71577e-07
-3.55603e-07
-3.71478e-07
3.95766e-05
-4.11493e-05
-5.54523e-07
5.54991e-07
-5.54846e-07
4.11521e-05
3.95963e-05
-4.11732e-05
5.70463e-07
-5.79022e-07
5.68632e-07
-5.86908e-07
-3.96006e-05
4.1174e-05
3.58417e-07
3.7203e-07
3.55515e-07
3.71412e-07
-3.70535e-07
-3.56184e-07
-3.71839e-07
3.95765e-05
-4.1149e-05
-5.55077e-07
5.54963e-07
-5.55668e-07
4.11518e-05
3.9595e-05
-4.11696e-05
5.68607e-07
-5.82952e-07
5.721e-07
-5.77542e-07
-3.96009e-05
4.11742e-05
3.59239e-07
3.72892e-07
3.57395e-07
3.72101e-07
-3.71406e-07
-3.56559e-07
-3.72009e-07
3.95771e-05
-4.11483e-05
-5.55993e-07
5.55431e-07
-5.55934e-07
4.11513e-05
3.95972e-05
-4.11705e-05
5.71332e-07
-5.78243e-07
5.71661e-07
-5.76535e-07
-3.95988e-05
4.11761e-05
3.60731e-07
3.73337e-07
3.58128e-07
3.73497e-07
-3.70964e-07
-3.57402e-07
-3.72403e-07
3.95777e-05
-4.11474e-05
-5.5551e-07
5.56345e-07
-5.55925e-07
4.11513e-05
3.95975e-05
-4.1172e-05
5.70858e-07
-5.76762e-07
5.74688e-07
-5.827e-07
-3.95974e-05
4.11745e-05
3.61614e-07
3.74697e-07
3.58032e-07
3.73814e-07
-3.72187e-07
-3.58128e-07
-3.73389e-07
3.95789e-05
-4.11469e-05
-5.56173e-07
5.56904e-07
-5.55955e-07
4.11507e-05
3.95991e-05
-4.11739e-05
5.772e-07
-5.84345e-07
5.77703e-07
-5.71511e-07
-3.96029e-05
4.11812e-05
3.60901e-07
3.75033e-07
3.58126e-07
3.73326e-07
-3.73525e-07
-3.56253e-07
-3.7798e-07
3.95795e-05
-4.11472e-05
-5.55525e-07
5.57281e-07
-5.54069e-07
4.11501e-05
3.96014e-05
-4.11794e-05
5.776e-07
-5.62831e-07
5.78235e-07
-5.76189e-07
-3.95847e-05
4.11691e-05
3.62365e-07
3.74372e-07
3.63293e-07
3.73419e-07
-3.77422e-07
-3.60555e-07
-3.7107e-07
3.95789e-05
-4.11472e-05
-5.53863e-07
5.57514e-07
-5.54023e-07
4.11519e-05
3.95978e-05
-4.1178e-05
5.82849e-07
-5.73359e-07
5.72501e-07
-5.76089e-07
-3.96012e-05
4.11803e-05
3.65335e-07
3.74441e-07
3.57223e-07
3.72108e-07
-3.69944e-07
-3.58317e-07
-3.70855e-07
3.95783e-05
-4.1148e-05
-5.54327e-07
5.56184e-07
-5.54523e-07
4.11519e-05
3.96006e-05
-4.11772e-05
5.72392e-07
-5.75936e-07
5.73228e-07
-5.76789e-07
-3.9593e-05
4.11764e-05
3.58934e-07
3.72857e-07
3.5577e-07
3.7155e-07
-3.69556e-07
-3.55508e-07
-3.70468e-07
3.95774e-05
-4.11481e-05
-5.5444e-07
5.55783e-07
-5.54943e-07
4.11526e-05
3.9602e-05
-4.11773e-05
5.7385e-07
-5.77178e-07
5.73192e-07
-5.77251e-07
-3.95955e-05
4.11755e-05
3.5953e-07
3.72656e-07
3.55944e-07
3.71722e-07
-3.69807e-07
-3.5601e-07
-3.70772e-07
3.95773e-05
-4.11484e-05
-5.54968e-07
5.5545e-07
-5.54684e-07
4.11525e-05
3.96021e-05
-4.11769e-05
5.73831e-07
-5.78094e-07
5.74056e-07
-5.77616e-07
-3.95964e-05
4.11751e-05
3.59874e-07
3.73109e-07
3.56697e-07
3.72274e-07
-3.70265e-07
-3.56228e-07
-3.71044e-07
3.95772e-05
-4.11479e-05
-5.55079e-07
5.55751e-07
-5.5533e-07
4.11512e-05
3.96026e-05
-4.11759e-05
5.74704e-07
-5.78443e-07
5.75434e-07
-5.77985e-07
-3.95968e-05
4.11745e-05
3.60527e-07
3.73561e-07
3.57374e-07
3.72968e-07
-3.70338e-07
-3.56901e-07
-3.71834e-07
3.95776e-05
-4.11472e-05
-5.55439e-07
5.56437e-07
-5.55926e-07
4.11505e-05
3.96033e-05
-4.11754e-05
5.75905e-07
-5.78548e-07
5.75707e-07
-5.78233e-07
-3.95971e-05
4.11739e-05
3.6122e-07
3.74435e-07
3.57687e-07
3.73487e-07
-3.71347e-07
-3.57528e-07
-3.72226e-07
3.95783e-05
-4.11467e-05
-5.56184e-07
5.56858e-07
-5.56433e-07
4.11499e-05
3.96037e-05
-4.11761e-05
5.7586e-07
-5.78691e-07
5.7509e-07
-5.77634e-07
-3.95979e-05
4.11746e-05
3.61011e-07
3.74234e-07
3.57091e-07
3.72716e-07
-3.71057e-07
-3.56848e-07
-3.71203e-07
3.95785e-05
-4.11476e-05
-5.56337e-07
5.56245e-07
-5.55845e-07
4.11506e-05
3.96031e-05
-4.11767e-05
5.75336e-07
-5.78791e-07
5.74875e-07
-5.76673e-07
-3.95971e-05
4.11753e-05
3.60818e-07
3.74135e-07
3.565e-07
3.72156e-07
-3.70476e-07
-3.56138e-07
-3.70601e-07
3.9578e-05
-4.11478e-05
-5.5583e-07
5.56013e-07
-5.5526e-07
4.11514e-05
3.96024e-05
-4.11768e-05
5.75286e-07
-5.78385e-07
5.7437e-07
-5.75666e-07
-3.95964e-05
4.11756e-05
3.6003e-07
3.73104e-07
3.56052e-07
3.71641e-07
-3.69904e-07
-3.55747e-07
-3.7044e-07
3.95774e-05
-4.11481e-05
-5.5544e-07
5.5563e-07
-5.55284e-07
4.11511e-05
3.96022e-05
-4.11775e-05
5.74211e-07
-5.78999e-07
5.74255e-07
-5.73978e-07
-3.95964e-05
4.11757e-05
3.59225e-07
3.72391e-07
3.55277e-07
3.71095e-07
-3.68993e-07
-3.55519e-07
-3.69947e-07
3.95771e-05
-4.11486e-05
-5.54782e-07
5.55424e-07
-5.55031e-07
4.11517e-05
3.96018e-05
-4.11766e-05
5.75081e-07
-5.82389e-07
5.74721e-07
-5.75641e-07
-3.95972e-05
4.11765e-05
3.59591e-07
3.72734e-07
3.56222e-07
3.71745e-07
-3.69444e-07
-3.5535e-07
-3.69957e-07
3.9577e-05
-4.11481e-05
-5.551e-07
5.5572e-07
-5.54967e-07
4.11516e-05
3.96025e-05
-4.11764e-05
5.74891e-07
-5.79113e-07
5.74944e-07
-5.79054e-07
-3.95968e-05
4.11764e-05
3.59559e-07
3.72807e-07
3.56848e-07
3.72504e-07
-3.69398e-07
-3.56547e-07
-3.71358e-07
3.95774e-05
-4.11475e-05
-5.55115e-07
5.56358e-07
-5.5598e-07
4.11506e-05
3.96031e-05
-4.11761e-05
5.75534e-07
-5.7966e-07
5.75253e-07
-5.79451e-07
-3.95967e-05
4.11761e-05
3.60807e-07
3.7394e-07
3.57129e-07
3.72876e-07
-3.70596e-07
-3.56892e-07
-3.71731e-07
3.95782e-05
-4.11471e-05
-5.55891e-07
5.56702e-07
-5.56229e-07
4.11504e-05
3.96031e-05
-4.11757e-05
5.75359e-07
-5.80106e-07
5.75607e-07
-5.79843e-07
-3.95971e-05
4.1176e-05
3.60627e-07
3.7396e-07
3.57729e-07
3.73372e-07
-3.71057e-07
-3.56999e-07
-3.71752e-07
3.95784e-05
-4.11469e-05
-5.56299e-07
5.56746e-07
-5.56103e-07
4.11503e-05
3.96037e-05
-4.11761e-05
5.75914e-07
-5.80368e-07
5.755e-07
-5.79788e-07
-3.9597e-05
4.1176e-05
3.61358e-07
3.7456e-07
3.57519e-07
3.73154e-07
-3.71263e-07
-3.56953e-07
-3.7159e-07
3.95787e-05
-4.11473e-05
-5.56244e-07
5.56689e-07
-5.56108e-07
4.11505e-05
3.96032e-05
-4.11771e-05
5.75636e-07
-5.80456e-07
5.74565e-07
-5.78684e-07
-3.95971e-05
4.11776e-05
3.61032e-07
3.74358e-07
3.56029e-07
3.7176e-07
-3.70976e-07
-3.55494e-07
-3.70054e-07
3.95782e-05
-4.11484e-05
-5.56297e-07
5.5571e-07
-5.55007e-07
4.11516e-05
3.96021e-05
-4.11768e-05
5.75125e-07
-5.79024e-07
5.74515e-07
-5.7894e-07
-3.95952e-05
4.11769e-05
3.59605e-07
3.72869e-07
3.56353e-07
3.71712e-07
-3.69769e-07
-3.55892e-07
-3.70425e-07
3.95771e-05
-4.11481e-05
-5.55341e-07
5.55932e-07
-5.55548e-07
4.1151e-05
3.96023e-05
-4.11777e-05
5.7526e-07
-5.79505e-07
5.7335e-07
-5.78859e-07
-3.95962e-05
4.11779e-05
3.59952e-07
3.73144e-07
3.55369e-07
3.7091e-07
-3.69793e-07
-3.54481e-07
-3.69063e-07
3.95774e-05
-4.11486e-05
-5.55351e-07
5.55398e-07
-5.54636e-07
4.1152e-05
3.96013e-05
-4.11771e-05
5.74132e-07
-5.77789e-07
5.72146e-07
-5.80129e-07
-3.95947e-05
4.11781e-05
3.58856e-07
3.72108e-07
3.57661e-07
3.72334e-07
-3.684e-07
-3.55711e-07
-3.73073e-07
3.95766e-05
-4.11491e-05
-5.54114e-07
5.54995e-07
-5.54393e-07
4.11542e-05
3.95999e-05
-4.11681e-05
5.73218e-07
-5.77739e-07
5.72797e-07
-5.77516e-07
-3.95942e-05
4.11777e-05
3.62025e-07
3.73923e-07
3.63649e-07
3.73772e-07
-3.75682e-07
-3.53114e-07
-3.77432e-07
3.95766e-05
-4.11486e-05
-5.52404e-07
5.54915e-07
-5.51351e-07
4.11538e-05
3.96079e-05
-4.11787e-05
5.79076e-07
-5.79325e-07
5.70365e-07
-5.84183e-07
-3.95975e-05
4.11719e-05
3.68432e-07
3.74902e-07
3.56846e-07
3.73066e-07
-3.73238e-07
-3.56939e-07
-3.72186e-07
3.95774e-05
-4.11482e-05
-5.53089e-07
5.56216e-07
-5.55883e-07
4.11504e-05
3.95957e-05
-4.11747e-05
5.71212e-07
-5.86644e-07
5.72773e-07
-5.76072e-07
-3.96041e-05
4.11757e-05
3.59236e-07
3.74609e-07
3.56802e-07
3.73675e-07
-3.72545e-07
-3.56145e-07
-3.72417e-07
3.95778e-05
-4.11478e-05
-5.56223e-07
5.56481e-07
-5.56519e-07
4.11499e-05
3.95988e-05
-4.11735e-05
5.75215e-07
-5.77042e-07
5.745e-07
-5.75664e-07
-3.95969e-05
4.11773e-05
3.61268e-07
3.74607e-07
3.57404e-07
3.72815e-07
-3.71249e-07
-3.5594e-07
-3.71631e-07
3.95779e-05
-4.1148e-05
-5.56076e-07
5.56453e-07
-5.5627e-07
4.11504e-05
3.95995e-05
-4.11739e-05
5.74157e-07
-5.77148e-07
5.73141e-07
-5.76409e-07
-3.95961e-05
4.11766e-05
3.6083e-07
3.74107e-07
3.57537e-07
3.72381e-07
-3.7076e-07
-3.5652e-07
-3.70948e-07
3.95775e-05
-4.11485e-05
-5.56003e-07
5.5612e-07
-5.55921e-07
4.11508e-05
3.95991e-05
-4.11741e-05
5.72933e-07
-5.76821e-07
5.72605e-07
-5.75313e-07
-3.95963e-05
4.11783e-05
3.61065e-07
3.73523e-07
3.57093e-07
3.71577e-07
-3.70048e-07
-3.55016e-07
-3.69295e-07
3.9577e-05
-4.11494e-05
-5.55299e-07
5.55597e-07
-5.54761e-07
4.11521e-05
3.9599e-05
-4.1174e-05
5.72554e-07
-5.75757e-07
5.72536e-07
-5.75662e-07
-3.95946e-05
4.11773e-05
3.6048e-07
3.73044e-07
3.57468e-07
3.72073e-07
-3.68839e-07
-3.55864e-07
-3.70111e-07
3.95763e-05
-4.11489e-05
-5.54509e-07
5.56025e-07
-5.55153e-07
4.11515e-05
3.95991e-05
-4.11744e-05
5.72516e-07
-5.76415e-07
5.72209e-07
-5.75354e-07
-3.95958e-05
4.1178e-05
3.60843e-07
3.73456e-07
3.56579e-07
3.71672e-07
-3.69523e-07
-3.5556e-07
-3.70248e-07
3.95768e-05
-4.11489e-05
-5.54924e-07
5.55918e-07
-5.55506e-07
4.11513e-05
3.95987e-05
-4.1173e-05
5.72305e-07
-5.7601e-07
5.73251e-07
-5.76225e-07
-3.95948e-05
4.11767e-05
3.60304e-07
3.7317e-07
3.58073e-07
3.72796e-07
-3.69419e-07
-3.56635e-07
-3.7095e-07
3.95767e-05
-4.1148e-05
-5.55201e-07
5.56679e-07
-5.56065e-07
4.11504e-05
3.96001e-05
-4.11728e-05
5.73531e-07
-5.77144e-07
5.73663e-07
-5.76717e-07
-3.95963e-05
4.11762e-05
3.61938e-07
3.74549e-07
3.5868e-07
3.73522e-07
-3.70764e-07
-3.57533e-07
-3.71718e-07
3.95777e-05
-4.11475e-05
-5.5629e-07
5.57118e-07
-5.5659e-07
4.11499e-05
3.96002e-05
-4.11731e-05
5.73447e-07
-5.77178e-07
5.7329e-07
-5.76347e-07
-3.95966e-05
4.11766e-05
3.61799e-07
3.74569e-07
3.58176e-07
3.73067e-07
-3.71052e-07
-3.57067e-07
-3.71409e-07
3.9578e-05
-4.11477e-05
-5.56678e-07
5.56994e-07
-5.56298e-07
4.11504e-05
3.96e-05
-4.11728e-05
5.7337e-07
-5.77274e-07
5.7347e-07
-5.76579e-07
-3.95966e-05
4.11763e-05
3.61676e-07
3.74421e-07
3.5838e-07
3.73367e-07
-3.70732e-07
-3.57602e-07
-3.72069e-07
3.95779e-05
-4.11474e-05
-5.56303e-07
5.57028e-07
-5.5679e-07
4.115e-05
3.96e-05
-4.11737e-05
5.7318e-07
-5.77408e-07
5.72812e-07
-5.75832e-07
-3.95966e-05
4.11776e-05
3.6163e-07
3.74427e-07
3.57482e-07
3.72018e-07
-3.70777e-07
-3.55919e-07
-3.69752e-07
3.9578e-05
-4.11488e-05
-5.56509e-07
5.56031e-07
-5.55435e-07
4.11518e-05
3.95992e-05
-4.11726e-05
5.72918e-07
-5.75741e-07
5.7401e-07
-5.74284e-07
-3.95953e-05
4.11779e-05
3.60818e-07
3.73156e-07
3.58116e-07
3.72105e-07
-3.68847e-07
-3.5562e-07
-3.69341e-07
3.95765e-05
-4.11485e-05
-5.55367e-07
5.56327e-07
-5.54988e-07
4.11521e-05
3.96e-05
-4.11717e-05
5.74259e-07
-5.74022e-07
5.75514e-07
-5.6393e-07
-3.95941e-05
4.11813e-05
3.61413e-07
3.73019e-07
3.58308e-07
3.71579e-07
-3.68441e-07
-3.55241e-07
-3.68982e-07
3.95767e-05
-4.11487e-05
-5.54992e-07
5.56195e-07
-5.54842e-07
4.1152e-05
3.96006e-05
-4.11732e-05
5.75468e-07
-5.6561e-07
5.73588e-07
-5.75166e-07
-3.95905e-05
4.11791e-05
3.61794e-07
3.72851e-07
3.57941e-07
3.71769e-07
-3.68124e-07
-3.56656e-07
-3.70426e-07
3.95766e-05
-4.11484e-05
-5.5464e-07
5.56368e-07
-5.54825e-07
4.11513e-05
3.95998e-05
-4.11731e-05
5.73186e-07
-5.7374e-07
5.73696e-07
-5.75093e-07
-3.95944e-05
4.11767e-05
3.6142e-07
3.73162e-07
3.57998e-07
3.71032e-07
-3.71714e-07
-3.58361e-07
-3.78495e-07
3.9577e-05
-4.11488e-05
-5.54896e-07
5.56878e-07
-5.54524e-07
4.11483e-05
3.95998e-05
-4.11734e-05
5.73766e-07
-5.75982e-07
5.7397e-07
-5.755e-07
-3.95965e-05
4.11757e-05
3.61333e-07
3.71988e-07
3.57668e-07
3.7073e-07
-3.7871e-07
-3.59228e-07
-3.78924e-07
3.95766e-05
-4.11488e-05
-5.5439e-07
5.57762e-07
-5.55296e-07
4.11476e-05
3.95995e-05
-4.11732e-05
5.73801e-07
-5.76309e-07
5.73951e-07
-5.76256e-07
-3.95974e-05
4.1175e-05
3.61003e-07
3.71933e-07
3.57931e-07
3.71134e-07
-3.79167e-07
-3.59795e-07
-3.79216e-07
3.95768e-05
-4.11483e-05
-5.55442e-07
5.58229e-07
-5.55745e-07
4.11475e-05
3.95997e-05
-4.11741e-05
5.7389e-07
-5.76695e-07
5.7347e-07
-5.7552e-07
-3.95977e-05
4.11762e-05
3.61299e-07
3.72392e-07
3.57205e-07
3.70424e-07
-3.78864e-07
-3.58593e-07
-3.77901e-07
3.95772e-05
-4.11489e-05
-5.55486e-07
5.5776e-07
-5.55305e-07
4.11484e-05
3.95989e-05
-4.11738e-05
5.73689e-07
-5.75993e-07
5.73616e-07
-5.7549e-07
-3.95967e-05
4.11763e-05
3.60753e-07
3.71418e-07
3.57155e-07
3.70179e-07
-3.77725e-07
-3.58346e-07
-3.77682e-07
3.95764e-05
-4.11493e-05
-5.55111e-07
5.5752e-07
-5.55204e-07
4.11486e-05
3.9599e-05
-4.11753e-05
5.73217e-07
-5.75917e-07
5.72349e-07
-5.74626e-07
-3.95966e-05
4.11773e-05
3.60236e-07
3.71192e-07
3.55523e-07
3.68807e-07
-3.7779e-07
-3.57073e-07
-3.76603e-07
3.95762e-05
-4.11503e-05
-5.55209e-07
5.56622e-07
-5.5447e-07
4.11496e-05
3.95975e-05
-4.11747e-05
5.72255e-07
-5.75044e-07
5.72751e-07
-5.75101e-07
-3.95956e-05
4.11766e-05
3.58721e-07
3.6983e-07
3.56324e-07
3.69725e-07
-3.7612e-07
-3.57825e-07
-3.77192e-07
3.95752e-05
-4.11495e-05
-5.53986e-07
5.5725e-07
-5.54483e-07
4.11494e-05
3.95985e-05
-4.11742e-05
5.73138e-07
-5.75894e-07
5.73245e-07
-5.75275e-07
-3.95965e-05
4.11764e-05
3.6012e-07
3.71266e-07
3.56935e-07
3.69944e-07
-3.77442e-07
-3.57963e-07
-3.77404e-07
3.95761e-05
-4.11495e-05
-5.54723e-07
5.57175e-07
-5.55072e-07
4.11488e-05
3.95986e-05
-4.11739e-05
5.73062e-07
-5.75692e-07
5.73369e-07
-5.75544e-07
-3.95964e-05
4.11761e-05
3.59691e-07
3.71027e-07
3.57497e-07
3.70103e-07
-3.77325e-07
-3.58384e-07
-3.77763e-07
3.95759e-05
-4.11493e-05
-5.54982e-07
5.57346e-07
-5.55437e-07
4.11487e-05
3.95993e-05
-4.11733e-05
5.73515e-07
-5.76271e-07
5.73917e-07
-5.76122e-07
-3.9597e-05
4.11754e-05
3.59944e-07
3.71671e-07
3.58529e-07
3.71083e-07
-3.78105e-07
-3.59477e-07
-3.78675e-07
3.95765e-05
-4.1148e-05
-5.55547e-07
5.58333e-07
-5.56171e-07
4.11478e-05
3.95996e-05
-4.11734e-05
5.73842e-07
-5.76858e-07
5.74006e-07
-5.76026e-07
-3.95975e-05
4.11756e-05
3.60429e-07
3.72285e-07
3.58541e-07
3.70869e-07
-3.78799e-07
-3.591e-07
-3.78331e-07
3.95774e-05
-4.11485e-05
-5.56397e-07
5.58075e-07
-5.56384e-07
4.11477e-05
3.95994e-05
-4.11738e-05
5.73886e-07
-5.7637e-07
5.73726e-07
-5.75911e-07
-3.9597e-05
4.11755e-05
3.604e-07
3.71861e-07
3.58294e-07
3.70541e-07
-3.78043e-07
-3.59164e-07
-3.78407e-07
3.95769e-05
-4.11488e-05
-5.55974e-07
5.58035e-07
-5.56399e-07
4.1148e-05
3.9599e-05
-4.11747e-05
5.73512e-07
-5.76446e-07
5.7281e-07
-5.74803e-07
-3.95971e-05
4.11769e-05
3.59952e-07
3.71927e-07
3.56785e-07
3.70474e-07
-3.78205e-07
-3.57559e-07
-3.78197e-07
3.95769e-05
-4.11479e-05
-5.56139e-07
5.57895e-07
-5.56521e-07
4.11473e-05
3.95976e-05
-4.11745e-05
5.72486e-07
-5.75363e-07
5.72848e-07
-5.75233e-07
-3.95952e-05
4.11761e-05
3.58412e-07
3.71828e-07
3.5677e-07
3.72944e-07
-3.78388e-07
-3.57668e-07
-3.80148e-07
3.95772e-05
-4.11426e-05
-5.57219e-07
5.63104e-07
-5.60977e-07
4.11427e-05
3.95978e-05
-4.11749e-05
5.72699e-07
-5.75952e-07
5.72699e-07
-5.746e-07
-3.95962e-05
4.11771e-05
3.58646e-07
3.74802e-07
3.56492e-07
3.71295e-07
-3.81283e-07
-3.56778e-07
-3.78881e-07
3.9581e-05
-4.11465e-05
-5.61856e-07
5.62463e-07
-5.60319e-07
4.11453e-05
3.95978e-05
-4.11743e-05
5.72681e-07
-5.75013e-07
5.73119e-07
-5.75453e-07
-3.95951e-05
4.11759e-05
3.58305e-07
3.71613e-07
3.57063e-07
3.70148e-07
-3.77637e-07
-3.58253e-07
-3.77608e-07
3.95783e-05
-4.11489e-05
-5.5869e-07
5.57931e-07
-5.55791e-07
4.11487e-05
3.95987e-05
-4.11736e-05
5.73238e-07
-5.76305e-07
5.73757e-07
-5.75461e-07
-3.95971e-05
4.11762e-05
3.59396e-07
3.71579e-07
3.58222e-07
3.70741e-07
-3.77891e-07
-3.58615e-07
-3.78309e-07
3.95767e-05
-4.11487e-05
-5.56223e-07
5.57826e-07
-5.56192e-07
4.11479e-05
3.95993e-05
-4.11738e-05
5.73644e-07
-5.76089e-07
5.73706e-07
-5.75861e-07
-3.95965e-05
4.11756e-05
3.60062e-07
3.71699e-07
3.58369e-07
3.70631e-07
-3.78267e-07
-3.59028e-07
-3.78724e-07
3.95767e-05
-4.11488e-05
-5.56156e-07
5.57887e-07
-5.56637e-07
4.11475e-05
3.95994e-05
-4.11733e-05
5.73873e-07
-5.7653e-07
5.74189e-07
-5.76369e-07
-3.95972e-05
4.1175e-05
3.60521e-07
3.72326e-07
3.58842e-07
3.71467e-07
-3.78369e-07
-3.59651e-07
-3.78307e-07
3.95769e-05
-4.11476e-05
-5.56371e-07
5.58945e-07
-5.5671e-07
4.11474e-05
3.95996e-05
-4.11742e-05
5.7394e-07
-5.77003e-07
5.73344e-07
-5.75649e-07
-3.95979e-05
4.11759e-05
3.60524e-07
3.72449e-07
3.57865e-07
3.70116e-07
-3.78491e-07
-3.58762e-07
-3.782e-07
3.95777e-05
-4.11492e-05
-5.56784e-07
5.57623e-07
-5.56769e-07
4.11477e-05
3.95986e-05
-4.11746e-05
5.73257e-07
-5.75982e-07
5.73127e-07
-5.75001e-07
-3.95968e-05
4.11768e-05
3.59689e-07
3.71019e-07
3.57159e-07
3.69479e-07
-3.77628e-07
-3.57755e-07
-3.77135e-07
3.95761e-05
-4.11494e-05
-5.56413e-07
5.57365e-07
-5.56072e-07
4.11485e-05
3.95984e-05
-4.11751e-05
5.73176e-07
-5.75664e-07
5.72726e-07
-5.75034e-07
-3.95962e-05
4.11768e-05
3.59298e-07
3.70834e-07
3.57001e-07
3.69534e-07
-3.77147e-07
-3.57585e-07
-3.76625e-07
3.95761e-05
-4.11493e-05
-5.56071e-07
5.57431e-07
-5.55846e-07
4.11487e-05
3.95978e-05
-4.1175e-05
5.72549e-07
-5.75544e-07
5.72746e-07
-5.74887e-07
-3.95961e-05
4.11769e-05
3.58651e-07
3.70466e-07
3.56832e-07
3.69234e-07
-3.7639e-07
-3.57548e-07
-3.76868e-07
3.9576e-05
-4.11497e-05
-5.55618e-07
5.5698e-07
-5.55858e-07
4.11488e-05
3.9598e-05
-4.11745e-05
5.72785e-07
-5.75582e-07
5.73125e-07
-5.75037e-07
-3.9596e-05
4.11767e-05
3.58916e-07
3.70491e-07
3.57326e-07
3.69644e-07
-3.77117e-07
-3.57726e-07
-3.77153e-07
3.95758e-05
-4.11491e-05
-5.55978e-07
5.57422e-07
-5.56115e-07
4.11484e-05
3.95986e-05
-4.11738e-05
5.7332e-07
-5.75614e-07
5.73654e-07
-5.75904e-07
-3.95961e-05
4.11754e-05
3.59483e-07
3.71053e-07
3.58144e-07
3.70556e-07
-3.77164e-07
-3.59065e-07
-3.78177e-07
3.95764e-05
-4.11485e-05
-5.56159e-07
5.57966e-07
-5.5675e-07
4.11474e-05
3.95992e-05
-4.11735e-05
5.73826e-07
-5.76686e-07
5.73879e-07
-5.76034e-07
-3.95976e-05
4.11755e-05
3.60417e-07
3.71978e-07
3.58609e-07
3.70856e-07
-3.78363e-07
-3.59404e-07
-3.78294e-07
3.9577e-05
-4.11483e-05
-5.56898e-07
5.58191e-07
-5.56678e-07
4.11475e-05
3.95993e-05
-4.11736e-05
5.7368e-07
-5.76543e-07
5.73767e-07
-5.76051e-07
-3.95973e-05
4.11755e-05
3.60411e-07
3.71908e-07
3.5844e-07
3.70763e-07
-3.78256e-07
-3.59242e-07
-3.78267e-07
3.9577e-05
-4.11483e-05
-5.56595e-07
5.58186e-07
-5.56737e-07
4.11473e-05
3.95994e-05
-4.11739e-05
5.73685e-07
-5.76775e-07
5.73702e-07
-5.75533e-07
-3.95973e-05
4.11763e-05
3.60327e-07
3.72069e-07
3.58075e-07
3.70249e-07
-3.78439e-07
-3.58636e-07
-3.77888e-07
3.95771e-05
-4.11489e-05
-5.56865e-07
5.57808e-07
-5.56551e-07
4.11479e-05
3.95989e-05
-4.11747e-05
5.73412e-07
-5.75774e-07
5.72957e-07
-5.75164e-07
-3.95962e-05
4.11762e-05
3.59698e-07
3.71244e-07
3.5724e-07
3.69477e-07
-3.77281e-07
-3.58089e-07
-3.76883e-07
3.95764e-05
-4.11493e-05
-5.55897e-07
5.57288e-07
-5.55753e-07
4.11486e-05
3.95983e-05
-4.11748e-05
5.7295e-07
-5.75729e-07
5.73043e-07
-5.75009e-07
-3.95967e-05
4.11768e-05
3.59033e-07
3.70586e-07
3.56956e-07
3.69193e-07
-3.76994e-07
-3.5767e-07
-3.76524e-07
3.9576e-05
-4.11496e-05
-5.55882e-07
5.57023e-07
-5.55486e-07
4.1149e-05
3.95981e-05
-4.11749e-05
5.72917e-07
-5.7558e-07
5.7272e-07
-5.74748e-07
-3.95961e-05
4.11769e-05
3.58741e-07
3.7029e-07
3.56775e-07
3.68979e-07
-3.76672e-07
-3.57472e-07
-3.76633e-07
3.95755e-05
-4.11498e-05
-5.55561e-07
5.56701e-07
-5.55587e-07
4.11488e-05
3.9598e-05
-4.11744e-05
5.72555e-07
-5.75504e-07
5.731e-07
-5.75224e-07
-3.95959e-05
4.11764e-05
3.58674e-07
3.70517e-07
3.57266e-07
3.69633e-07
-3.76469e-07
-3.58018e-07
-3.77223e-07
3.95747e-05
-4.11496e-05
-5.55388e-07
5.57133e-07
-5.56067e-07
4.1148e-05
3.95986e-05
-4.11735e-05
5.73207e-07
-5.75787e-07
5.74384e-07
-5.76663e-07
-3.95966e-05
4.11753e-05
3.59295e-07
3.70822e-07
3.58993e-07
3.71508e-07
-3.77227e-07
-3.59813e-07
-3.78876e-07
3.9575e-05
-4.11486e-05
-5.56016e-07
5.58527e-07
-5.57269e-07
4.11473e-05
3.95991e-05
-4.11674e-05
5.7251e-07
-5.75126e-07
5.78132e-07
-5.80531e-07
-3.95972e-05
4.11695e-05
3.58655e-07
3.70472e-07
3.64256e-07
3.76555e-07
-3.76627e-07
-3.64875e-07
-3.84416e-07
3.95755e-05
-4.11429e-05
-5.55303e-07
5.61703e-07
-5.60877e-07
4.11414e-05
3.95878e-05
-4.10913e-05
5.69501e-07
-5.72075e-07
5.27538e-07
-5.3131e-07
-3.95856e-05
4.1094e-05
3.5502e-07
3.66679e-07
3.00212e-07
3.13503e-07
-3.72939e-07
-3.01558e-07
-3.21635e-07
3.95639e-05
-4.10682e-05
-5.52234e-07
5.11739e-07
-5.11312e-07
4.1066e-05
3.94134e-05
-3.99823e-05
6.52001e-07
-6.54348e-07
2.13857e-07
-2.20246e-07
-3.94122e-05
3.99859e-05
4.99207e-07
5.09765e-07
-2.24832e-07
-2.06252e-07
-5.15923e-07
2.21642e-07
2.05526e-07
3.93905e-05
-3.99574e-05
-6.35458e-07
1.99396e-07
-2.00394e-07
3.99565e-05
3.80363e-05
-3.97464e-05
1.0853e-06
-1.08627e-06
-1.01583e-06
1.00313e-06
-3.80349e-05
3.9748e-05
1.20239e-06
1.20983e-06
-1.61763e-06
-1.59884e-06
-1.21228e-06
1.61244e-06
1.58919e-06
3.80132e-05
-3.97251e-05
-1.06874e-06
-1.02928e-06
1.02069e-06
3.97124e-05
3.69212e-05
-3.43208e-05
2.53868e-06
-2.55024e-06
-4.7132e-06
4.69183e-06
-3.69219e-05
3.42862e-05
2.95825e-06
2.96924e-06
-6.49677e-06
-6.48261e-06
-2.98174e-06
6.47497e-06
6.46743e-06
3.69114e-05
-3.4302e-05
-2.53029e-06