/*--------------------------------*- C++ -*----------------------------------*\
| =========                 |                                                 |
| \\      /  F ield         | OpenFOAM: The Open Source CFD Toolbox           |
|  \\    /   O peration     | Version:  2206                                  |
|   \\  /    A nd           | Website:  www.openfoam.com                      |
|    \\/     M anipulation  |                                                 |
\*---------------------------------------------------------------------------*/
FoamFile
{
    version     2.0;
    format      ascii;
    arch        "LSB;label=32;scalar=64";
    class       volScalarField;
    location    "22.5";
    object      nut;
}
// * * * * * * * * * * * * * * * * * * * * * * * * * * * * * * * * * * * * * //

dimensions      [0 2 -1 0 0 0 0];

internalField   nonuniform List<scalar> 
28673
(
0.000204008
0.000181355
0.000224389
0.000204009
0.000204001
0.00018137
0.000224388
0.000204006
0.000203998
0.000181367
0.000224389
0.000204005
0.000203998
0.000181366
0.000224387
0.000204
0.000203995
0.00018136
0.000224359
0.000203955
0.000203961
0.0001813
0.000224363
0.000203955
0.000203947
0.000181301
0.000224367
0.000203956
0.000203949
0.000181294
0.000224367
0.000203958
0.000203951
0.000181296
0.000224367
0.000203959
0.000203952
0.000181295
0.000224367
0.000203963
0.000203956
0.0001813
0.000224365
0.000203958
0.000203951
0.00018132
0.000224944
0.000206682
0.00020668
0.000184933
0.000203991
0.00018154
0.000204009
0.000181531
0.000203994
0.000203991
0.000203995
0.000203992
0.000181382
0.000181534
0.000204004
0.000203982
0.000203993
0.000204009
0.000203992
0.000181524
0.000204004
0.000204001
0.000204003
0.000181528
0.000181376
0.000181532
0.000203996
0.000203993
0.000203995
0.000203991
0.000181378
0.000181533
0.000204005
0.000203982
0.000204005
0.000203982
0.000203991
0.000204007
0.000203989
0.000181368
0.000181522
0.000204002
0.000203998
0.000204001
0.000181525
0.000181376
0.000181531
0.000203994
0.000203991
0.000203994
0.000203991
0.000181377
0.000181532
0.000204005
0.000203983
0.000204005
0.000203983
0.000203989
0.000204006
0.000203989
0.000181367
0.000181521
0.000204
0.000203998
0.000203999
0.000181523
0.000181375
0.00018153
0.000203995
0.000203991
0.000203991
0.000203987
0.000181377
0.000181526
0.000204006
0.000203982
0.000204006
0.000203982
0.00020399
0.000204002
0.000203987
0.000181366
0.000181521
0.000204
0.000203996
0.000203998
0.000181521
0.000181373
0.000181489
0.000203989
0.000203984
0.000203962
0.000203947
0.000181367
0.000181468
0.000204005
0.000203981
0.000203986
0.000203965
0.000203985
0.000203966
0.000203956
0.000181365
0.000181491
0.000203996
0.000203979
0.000203967
0.000181475
0.000181317
0.000181455
0.000203947
0.000203938
0.000203937
0.000203936
0.000181301
0.000181464
0.000203964
0.000203946
0.000203947
0.000203925
0.000203943
0.000203954
0.000203937
0.000181321
0.000181447
0.000203954
0.000203944
0.000203948
0.000181457
0.000181302
0.000181459
0.000203941
0.000203938
0.000203942
0.000203938
0.000181309
0.000181459
0.00020395
0.000203928
0.000203952
0.00020393
0.00020394
0.000203956
0.00020394
0.000181294
0.000181451
0.00020395
0.000203949
0.000203951
0.000181453
0.000181302
0.000181454
0.000203942
0.000203939
0.000203943
0.00020394
0.000181302
0.000181461
0.000203953
0.000203931
0.000203954
0.000203932
0.00020394
0.000203958
0.000203941
0.000181295
0.000181447
0.000203951
0.00020395
0.000203952
0.000181453
0.000181299
0.000181458
0.000203944
0.000203941
0.000203944
0.000203941
0.000181306
0.000181458
0.000203955
0.000203933
0.000203955
0.000203933
0.000203942
0.000203959
0.000203943
0.000181293
0.000181451
0.000203953
0.000203952
0.000203954
0.000181453
0.000181301
0.00018146
0.000203945
0.000203942
0.000203948
0.000203946
0.000181303
0.000181463
0.000203956
0.000203934
0.00020396
0.000203938
0.000203944
0.000203964
0.000203947
0.000181295
0.000181452
0.000203954
0.000203957
0.000203958
0.000181457
0.000181305
0.000181477
0.000203949
0.000203947
0.000203977
0.000203975
0.000181306
0.000181481
0.00020396
0.000203939
0.000203989
0.000203968
0.000203948
0.000203992
0.000203975
0.000181298
0.000181469
0.000203959
0.000203986
0.000203988
0.000181475
0.000181324
0.00018297
0.000203943
0.000203941
0.000205675
0.000205674
0.000181327
0.000182971
0.000203955
0.000203933
0.000205684
0.00020567
0.00020394
0.000205685
0.000205674
0.000181317
0.000182965
0.000203954
0.000205682
0.000205684
0.000182969
0.000184935
0.000206676
0.000206675
0.000184935
0.000206682
0.000206672
0.000224943
0.000224943
0.000224943
0.000206675
0.00018493
0.000206682
4.60864e-05
4.92138e-05
4.60781e-05
4.92119e-05
2.56726e-05
2.56717e-05
4.60937e-05
4.92077e-05
0.00022439
0.000224387
0.000224389
0.000224389
0.000224386
0.000224387
0.000109261
5.62292e-05
0.000217167
0.00020401
0.000109237
5.62464e-05
0.000217167
2.567e-05
0.000109249
0.000217164
0.000204002
0.000109224
0.000217164
5.62497e-05
3.53639e-05
3.53579e-05
0.00018153
3.53665e-05
3.53602e-05
4.60895e-05
4.92121e-05
4.60808e-05
4.92111e-05
2.56713e-05
2.56709e-05
4.60951e-05
4.92079e-05
4.60882e-05
4.92069e-05
0.000224389
0.000224385
0.000224387
0.000224388
0.000224389
0.000224384
0.000224386
0.000109259
5.62322e-05
0.000217167
0.000204008
0.000109233
5.62494e-05
0.000217165
2.56692e-05
2.56686e-05
0.000109248
0.000217163
5.62357e-05
0.000203999
0.000109223
0.000217161
5.62522e-05
3.53669e-05
3.53608e-05
0.000181526
3.53726e-05
3.53666e-05
4.60931e-05
4.92115e-05
4.60832e-05
4.92107e-05
2.56709e-05
2.56707e-05
4.60979e-05
4.92074e-05
4.60885e-05
4.92065e-05
0.000224387
0.000224384
0.000224384
0.00022439
0.000224386
0.000224385
0.000224383
0.000109259
5.62347e-05
0.000217163
0.000204006
0.000109232
5.62514e-05
0.000217163
2.56684e-05
2.56681e-05
0.000109247
0.00021716
5.62381e-05
0.000203998
0.00010922
0.00021716
5.62541e-05
3.53755e-05
3.53695e-05
0.000181524
3.53807e-05
3.53747e-05
4.60972e-05
4.92114e-05
4.60884e-05
4.92106e-05
2.5671e-05
2.5671e-05
4.61038e-05
4.92072e-05
4.60947e-05
4.92065e-05
0.000224386
0.000224385
0.000224386
0.000224388
0.000224387
0.000224384
0.000224385
0.000109262
5.62372e-05
0.000217165
0.000204004
0.000109234
5.62541e-05
0.000217165
2.56682e-05
2.56682e-05
0.000109251
0.000217161
5.62394e-05
0.000203998
0.000109223
0.000217161
5.62557e-05
3.53812e-05
3.53753e-05
0.000181524
3.5385e-05
3.53791e-05
4.6088e-05
4.92119e-05
4.60873e-05
4.92122e-05
2.56715e-05
2.56715e-05
4.61006e-05
4.92075e-05
4.6097e-05
4.92074e-05
0.000224386
0.000224384
0.000224384
0.000224372
0.000224361
0.000224373
0.000224363
0.000109247
5.62331e-05
0.000217163
0.000203995
0.000109231
5.62409e-05
0.00021716
2.56686e-05
2.56688e-05
0.000109237
0.00021716
5.62402e-05
0.000203993
0.000109221
0.000217158
5.62514e-05
3.53811e-05
3.53752e-05
0.000181508
3.53807e-05
3.53747e-05
4.60648e-05
4.92149e-05
4.60637e-05
4.92146e-05
2.56715e-05
2.56713e-05
4.60758e-05
4.92101e-05
4.60774e-05
4.92103e-05
0.000224357
0.000224359
0.000224358
0.000224359
0.000224364
0.000224357
0.000224362
0.000109181
5.62077e-05
0.000217125
0.000203952
0.000109178
5.62165e-05
0.000217123
2.5669e-05
2.56687e-05
0.00010917
0.000217127
5.62198e-05
0.000203951
0.00010917
0.000217123
5.62255e-05
3.53713e-05
3.53652e-05
0.000181452
3.53689e-05
3.53627e-05
4.60591e-05
4.92152e-05
4.60519e-05
4.92145e-05
2.56713e-05
2.56712e-05
4.60665e-05
4.92112e-05
4.60607e-05
4.92104e-05
0.000224367
0.000224361
0.000224365
0.000224367
0.000224367
0.000224365
0.000224366
0.000109185
5.61965e-05
0.00021713
0.000203956
0.000109157
5.62119e-05
0.000217131
2.56687e-05
2.56686e-05
0.000109172
0.000217127
5.62019e-05
0.000203949
0.000109145
0.000217128
5.62158e-05
3.53622e-05
3.53561e-05
0.000181459
3.53643e-05
3.53582e-05
4.60575e-05
4.9215e-05
4.605e-05
4.92158e-05
2.56713e-05
2.56719e-05
4.60646e-05
4.9211e-05
4.60579e-05
4.92118e-05
0.000224367
0.000224365
0.000224366
0.000224367
0.000224367
0.000224364
0.000224366
0.000109185
5.61992e-05
0.00021713
0.000203957
0.000109158
5.62135e-05
0.000217131
2.56687e-05
2.56693e-05
0.000109174
0.000217128
5.6203e-05
0.00020395
0.000109148
0.000217128
5.62166e-05
3.53633e-05
3.53573e-05
0.000181452
3.53656e-05
3.53595e-05
4.60558e-05
4.92165e-05
4.60494e-05
4.9219e-05
2.56701e-05
2.5672e-05
4.60629e-05
4.92125e-05
4.60573e-05
4.92149e-05
0.000224368
0.000224365
0.000224366
0.000224367
0.000224367
0.000224365
0.000224366
0.000109187
5.62159e-05
0.000217131
0.000203959
0.00010916
5.6223e-05
0.000217132
2.56678e-05
2.56698e-05
0.00010918
0.000217129
5.62195e-05
0.000203952
0.000109152
0.000217129
5.62258e-05
3.53654e-05
3.53593e-05
0.000181456
3.53573e-05
3.53512e-05
4.60396e-05
4.92148e-05
4.6033e-05
4.92215e-05
2.56684e-05
2.56713e-05
4.60468e-05
4.92109e-05
4.60409e-05
4.92178e-05
0.000224368
0.000224365
0.000224366
0.000224367
0.000224368
0.000224365
0.000224366
0.000109182
5.62279e-05
0.000217132
0.000203961
0.000109159
5.62236e-05
0.000217132
2.56664e-05
2.56693e-05
0.000109175
0.000217129
5.62306e-05
0.000203954
0.000109152
0.00021713
5.62242e-05
3.53595e-05
3.53535e-05
0.000181455
3.53348e-05
3.53287e-05
4.60281e-05
4.92108e-05
4.60222e-05
4.92227e-05
2.56624e-05
2.56661e-05
4.60353e-05
4.92075e-05
4.60304e-05
4.92195e-05
0.000224368
0.000224366
0.000224367
0.000224375
0.000224375
0.000224372
0.000224374
0.000109179
5.62419e-05
0.000217134
0.000203968
0.000109157
5.61953e-05
0.000217133
2.56606e-05
2.56642e-05
0.000109172
0.000217131
5.62405e-05
0.000203962
0.000109151
0.00021713
5.61928e-05
3.53152e-05
3.53091e-05
0.000181458
3.52518e-05
3.52457e-05
4.61134e-05
4.92009e-05
4.59987e-05
4.92413e-05
2.56495e-05
2.56616e-05
4.61168e-05
4.91974e-05
4.60059e-05
4.92382e-05
0.000224367
0.000224365
0.000224366
0.000224523
0.000224523
0.000224522
0.000224523
0.000109361
5.6234e-05
0.000217169
0.000204155
0.000109172
5.6221e-05
0.00021712
2.56474e-05
2.56596e-05
0.000109356
0.000217167
5.62314e-05
0.000204149
0.000109166
0.000217118
5.62196e-05
3.52005e-05
3.51944e-05
0.0001817
3.5075e-05
3.50706e-05
5.43023e-05
5.25354e-05
4.66042e-05
7.86532e-05
2.79831e-05
2.60108e-05
5.43042e-05
5.25339e-05
4.66056e-05
7.86573e-05
0.00022942
0.000228149
0.000228149
0.000223147
0.000229374
0.000227734
0.000227734
0.000115511
5.84747e-05
0.000218356
0.000208751
0.000111529
6.79264e-05
0.000220456
2.79814e-05
2.60085e-05
0.000115506
0.000218354
5.84748e-05
0.00020875
0.000111525
0.000220455
6.79235e-05
3.60012e-05
3.5993e-05
0.000189544
3.94713e-05
3.94671e-05
4.92118e-05
5.62478e-05
2.56727e-05
3.53631e-05
3.53597e-05
2.56733e-05
5.62449e-05
4.92102e-05
2.56741e-05
2.56732e-05
2.56718e-05
3.53648e-05
0.000181534
3.53671e-05
3.53597e-05
2.56725e-05
2.56732e-05
2.56709e-05
2.56717e-05
0.000181377
3.53695e-05
3.53608e-05
3.53651e-05
3.53572e-05
4.60871e-05
4.92123e-05
4.60789e-05
4.92113e-05
0.00010926
5.62347e-05
0.000217166
0.000203994
0.000109235
5.62498e-05
0.000217166
0.000109262
5.62339e-05
0.000217166
0.000203991
0.000109237
5.62492e-05
0.000217166
4.60802e-05
4.92114e-05
4.92124e-05
4.60884e-05
4.60809e-05
4.92109e-05
4.92118e-05
4.60889e-05
0.000109236
0.000203995
5.62512e-05
0.000217166
5.62362e-05
0.000217166
0.000109261
0.000109237
0.000203992
5.62506e-05
0.000217166
5.62353e-05
0.000217166
0.000109262
3.5361e-05
3.53574e-05
0.000181534
3.53646e-05
3.53611e-05
2.56733e-05
2.56724e-05
2.56712e-05
2.56718e-05
0.000181378
3.5367e-05
3.53626e-05
3.53627e-05
3.53583e-05
2.56718e-05
2.56725e-05
0.000109263
0.000204004
5.62405e-05
0.000217165
4.60922e-05
4.9205e-05
0.000109262
0.000203983
0.000217162
5.62347e-05
4.60882e-05
4.92073e-05
4.92082e-05
4.60953e-05
0.000109239
0.000204004
5.62425e-05
0.000217164
5.62271e-05
0.000217165
0.000109263
4.60867e-05
4.92045e-05
4.92056e-05
4.60939e-05
0.000109238
0.000203982
0.000217161
5.62365e-05
0.000217161
5.62204e-05
0.000109262
4.60863e-05
4.92108e-05
4.6078e-05
4.92097e-05
0.000109259
0.000217165
5.62313e-05
0.000203993
0.000109235
0.000217165
5.62466e-05
4.60859e-05
4.92102e-05
4.60776e-05
4.92083e-05
0.000109238
0.00020401
5.62478e-05
0.000217167
5.62321e-05
0.000217168
0.00010926
4.608e-05
4.92093e-05
4.92103e-05
4.60882e-05
0.000109236
0.000203993
0.000217165
5.6248e-05
0.000217166
5.62328e-05
0.00010926
4.60796e-05
4.92079e-05
4.92088e-05
4.60877e-05
0.000181528
3.53522e-05
3.53664e-05
2.56726e-05
2.56691e-05
2.567e-05
0.00018137
3.53554e-05
3.53676e-05
3.535e-05
3.53639e-05
2.56717e-05
2.56726e-05
0.000109247
0.000217163
5.62275e-05
0.000204004
0.000109222
0.000217163
5.62429e-05
4.60771e-05
4.60677e-05
4.92083e-05
4.60766e-05
4.92098e-05
4.60673e-05
4.92079e-05
0.000109226
0.000204002
0.000217164
5.6251e-05
0.000217164
5.6236e-05
0.00010925
0.000109223
0.000204003
0.000217163
5.62443e-05
0.000217164
5.6229e-05
0.000109248
4.60702e-05
4.92078e-05
4.92088e-05
4.60791e-05
4.60697e-05
4.92075e-05
4.92084e-05
4.60786e-05
2.56728e-05
2.56719e-05
2.56718e-05
2.56709e-05
0.000181374
3.53687e-05
3.53625e-05
3.53644e-05
3.53582e-05
2.56712e-05
2.56719e-05
2.56702e-05
2.56709e-05
2.56726e-05
2.56721e-05
2.56709e-05
2.56704e-05
3.53681e-05
3.53589e-05
0.000181531
3.53739e-05
3.53639e-05
2.56719e-05
2.56722e-05
2.567e-05
2.56705e-05
0.000181376
3.53786e-05
3.53684e-05
3.53727e-05
3.53625e-05
4.60895e-05
4.92114e-05
4.60825e-05
4.92105e-05
0.000109262
5.62377e-05
0.000217165
0.000203996
0.000109238
5.62528e-05
0.000217165
0.000109263
5.62367e-05
0.000217164
0.000203993
0.000109239
5.62519e-05
0.000217163
4.60829e-05
4.92108e-05
4.92116e-05
4.60906e-05
4.60829e-05
4.92103e-05
4.92111e-05
4.60906e-05
0.000109237
0.000203995
5.6254e-05
0.000217165
5.62393e-05
0.000217165
0.000109262
0.000109238
0.000203992
5.62529e-05
0.000217163
5.6238e-05
0.000217163
0.000109263
3.53655e-05
3.53608e-05
0.000181533
3.53711e-05
3.53678e-05
2.5672e-05
2.56715e-05
2.56708e-05
2.56711e-05
0.000181377
3.53751e-05
3.53722e-05
3.53697e-05
3.53665e-05
2.56714e-05
2.56717e-05
0.000109264
5.6229e-05
0.000217164
0.000204005
0.00010924
5.62443e-05
0.000217164
4.6094e-05
4.92051e-05
4.6088e-05
4.92041e-05
0.000109263
0.000217161
5.62222e-05
0.000203982
0.000109239
0.000217161
5.6238e-05
4.60889e-05
4.92067e-05
4.92075e-05
4.60953e-05
0.000109241
0.000204005
5.62459e-05
0.000217164
5.62309e-05
0.000217165
0.000109262
4.60879e-05
4.92038e-05
4.92047e-05
4.60943e-05
0.000109238
0.000203982
0.000217161
5.62394e-05
0.000217161
5.62237e-05
0.000109262
4.60891e-05
4.92099e-05
4.60818e-05
4.9209e-05
0.000109261
0.000217163
5.62342e-05
0.000203991
0.000109237
0.000217163
5.62495e-05
4.60883e-05
4.92084e-05
4.60812e-05
4.92075e-05
0.000109235
0.000204008
5.62506e-05
0.000217164
5.62352e-05
0.000217165
0.000109259
4.60825e-05
4.92088e-05
4.92096e-05
4.60902e-05
0.000109238
0.00020399
0.000217161
5.62506e-05
0.000217162
5.62357e-05
0.00010926
4.60817e-05
4.92072e-05
4.9208e-05
4.60894e-05
3.53532e-05
3.53659e-05
0.000181522
3.53583e-05
3.5371e-05
2.56717e-05
2.56712e-05
2.56682e-05
2.56687e-05
0.000181367
3.53613e-05
3.53757e-05
3.53561e-05
3.53697e-05
2.56708e-05
2.56713e-05
0.000109249
0.000217161
5.62305e-05
0.000204002
0.000109224
0.00021716
5.62458e-05
4.60795e-05
4.92083e-05
4.60719e-05
4.92073e-05
4.60792e-05
4.9208e-05
4.60714e-05
4.92071e-05
0.000109224
0.000203999
0.00021716
5.62534e-05
0.000217161
5.62385e-05
0.000109247
0.000109226
0.000204002
0.000217159
5.62471e-05
0.00021716
5.6232e-05
0.000109248
4.60722e-05
4.9207e-05
4.92079e-05
4.60806e-05
4.60719e-05
4.92069e-05
4.92076e-05
4.60803e-05
2.56713e-05
2.56708e-05
2.56703e-05
2.56698e-05
0.000181371
3.53771e-05
3.53711e-05
3.53713e-05
3.53654e-05
2.56706e-05
2.56709e-05
2.56696e-05
2.56699e-05
2.56721e-05
2.56718e-05
2.56702e-05
2.56699e-05
3.53772e-05
3.53671e-05
0.00018153
3.53822e-05
3.53726e-05
2.56718e-05
2.5672e-05
2.56698e-05
2.567e-05
0.000181375
3.53849e-05
3.53759e-05
3.53806e-05
3.53711e-05
4.60935e-05
4.92109e-05
4.60845e-05
4.92102e-05
0.000109263
5.62404e-05
0.000217164
0.000203994
0.000109239
5.62549e-05
0.000217164
0.000109264
5.62389e-05
0.000217163
0.000203991
0.000109239
5.62539e-05
0.000217163
4.6087e-05
4.92106e-05
4.92113e-05
4.60957e-05
4.60875e-05
4.92102e-05
4.92108e-05
4.60962e-05
0.000109239
0.000203994
5.62563e-05
0.000217165
5.62414e-05
0.000217165
0.000109264
0.00010924
0.000203991
5.62553e-05
0.000217164
5.624e-05
0.000217163
0.000109266
3.53735e-05
3.53701e-05
0.000181531
3.53782e-05
3.53749e-05
2.56716e-05
2.56713e-05
2.56708e-05
2.56709e-05
0.000181376
3.53804e-05
3.53769e-05
3.53764e-05
3.53727e-05
2.56714e-05
2.56716e-05
0.000109263
5.62323e-05
0.000217163
0.000204005
0.000109238
5.6247e-05
0.000217163
4.6097e-05
4.92044e-05
4.60888e-05
4.92036e-05
0.000109263
0.00021716
5.6225e-05
0.000203983
0.000109239
0.00021716
5.62406e-05
4.60927e-05
4.92064e-05
4.92072e-05
4.61012e-05
0.00010924
0.000204005
5.6248e-05
0.000217164
5.62334e-05
0.000217164
0.000109265
4.60919e-05
4.92035e-05
4.92043e-05
4.61002e-05
0.000109239
0.000203983
0.000217159
5.62416e-05
0.00021716
5.62261e-05
0.000109264
4.60926e-05
4.92094e-05
4.6084e-05
4.92087e-05
0.000109262
0.000217161
5.62368e-05
0.000203989
0.000109236
0.000217161
5.62515e-05
4.60923e-05
4.92078e-05
4.60833e-05
4.92071e-05
0.000109235
0.000204005
5.62529e-05
0.000217163
5.62372e-05
0.000217163
0.000109261
4.60865e-05
4.92087e-05
4.92093e-05
4.60952e-05
0.000109239
0.000203989
0.000217162
5.62529e-05
0.000217161
5.62377e-05
0.000109264
4.60863e-05
4.9207e-05
4.92077e-05
4.60951e-05
3.53592e-05
3.53744e-05
0.000181521
3.53646e-05
3.53799e-05
2.5671e-05
2.56707e-05
2.56681e-05
2.56683e-05
0.000181365
3.53674e-05
3.53831e-05
3.53624e-05
3.53784e-05
2.56707e-05
2.56709e-05
0.00010925
0.000217159
5.62331e-05
0.000204
0.000109224
0.000217159
5.62481e-05
4.60834e-05
4.92076e-05
4.60737e-05
4.92069e-05
4.60834e-05
4.92074e-05
4.60735e-05
4.92067e-05
0.000109223
0.000203998
0.000217161
5.62547e-05
0.00021716
5.62402e-05
0.000109249
0.000109226
0.000204
0.000217159
5.62495e-05
0.000217159
5.62342e-05
0.000109252
4.60768e-05
4.92068e-05
4.92075e-05
4.60863e-05
4.60767e-05
4.92067e-05
4.92073e-05
4.60863e-05
2.56707e-05
2.56705e-05
2.56697e-05
2.56695e-05
0.000181368
3.53834e-05
3.53774e-05
3.5379e-05
3.5373e-05
2.56705e-05
2.56707e-05
2.56695e-05
2.56697e-05
2.56721e-05
2.5672e-05
2.567e-05
2.56699e-05
3.5383e-05
3.53742e-05
0.00018153
3.53865e-05
3.53781e-05
2.56723e-05
2.56722e-05
2.56701e-05
2.56701e-05
0.000181375
3.5386e-05
3.53797e-05
3.53844e-05
3.53762e-05
4.60978e-05
4.92108e-05
4.60902e-05
4.92103e-05
0.000109266
5.62429e-05
0.000217165
0.000203994
0.000109241
5.6258e-05
0.000217165
0.000109267
5.62416e-05
0.000217165
0.000203991
0.000109242
5.62567e-05
0.000217166
4.60905e-05
4.92109e-05
4.92113e-05
4.60964e-05
4.60912e-05
4.92112e-05
4.92111e-05
4.60971e-05
0.000109238
0.000203993
5.62574e-05
0.000217164
5.62444e-05
0.000217165
0.000109259
0.000109239
0.000203989
5.62538e-05
0.000217166
5.62424e-05
0.000217167
0.00010926
3.53784e-05
3.53745e-05
0.000181532
3.53815e-05
3.5378e-05
2.56717e-05
2.56716e-05
2.56714e-05
2.56713e-05
0.000181376
3.53797e-05
3.53762e-05
3.53791e-05
3.53751e-05
2.5672e-05
2.56719e-05
0.000109268
5.62345e-05
0.000217166
0.000204006
0.000109242
5.62497e-05
0.000217167
4.61027e-05
4.92042e-05
4.6095e-05
4.92035e-05
0.000109268
0.000217161
5.62272e-05
0.000203982
0.000109242
0.000217162
5.62428e-05
4.60981e-05
4.92066e-05
4.92071e-05
4.61044e-05
0.000109245
0.000204007
5.62508e-05
0.000217168
5.62363e-05
0.000217169
0.000109265
4.60971e-05
4.92036e-05
4.92042e-05
4.61034e-05
0.000109244
0.000203983
0.000217162
5.62435e-05
0.000217163
5.62284e-05
0.000109265
4.60967e-05
4.92094e-05
4.6089e-05
4.92088e-05
0.000109263
0.000217164
5.62392e-05
0.000203989
0.000109239
0.000217165
5.62544e-05
4.60965e-05
4.92077e-05
4.60889e-05
4.9207e-05
0.000109239
0.000204003
5.62512e-05
0.000217165
5.62395e-05
0.000217166
0.00010926
4.60901e-05
4.92097e-05
4.92096e-05
4.60962e-05
0.000109236
0.000203989
0.000217164
5.62539e-05
0.000217165
5.62406e-05
0.000109258
4.60898e-05
4.92073e-05
4.92077e-05
4.60958e-05
3.53651e-05
3.53813e-05
0.00018152
3.53693e-05
3.53852e-05
2.56709e-05
2.56708e-05
2.56683e-05
2.56684e-05
0.000181365
3.53701e-05
3.53859e-05
3.53667e-05
3.53832e-05
2.5671e-05
2.5671e-05
0.000109251
0.000217161
5.62356e-05
0.000204
0.000109227
0.000217162
5.6251e-05
4.60878e-05
4.92074e-05
4.60794e-05
4.92067e-05
4.60877e-05
4.92073e-05
4.60794e-05
4.92067e-05
0.000109228
0.000203997
0.000217162
5.62562e-05
0.000217162
5.6242e-05
0.000109249
0.000109225
0.000204
0.000217163
5.62503e-05
0.000217163
5.6237e-05
0.000109247
4.60805e-05
4.92066e-05
4.92073e-05
4.60874e-05
4.60803e-05
4.9207e-05
4.92073e-05
4.6087e-05
2.56707e-05
2.56706e-05
2.56697e-05
2.56696e-05
0.000181369
3.53846e-05
3.53787e-05
3.53829e-05
3.5377e-05
2.5671e-05
2.56709e-05
2.56699e-05
2.56699e-05
2.56726e-05
2.56726e-05
2.56704e-05
2.56706e-05
3.53827e-05
3.53773e-05
0.00018152
3.53821e-05
3.53772e-05
2.56725e-05
2.56728e-05
2.56707e-05
2.56708e-05
0.000181358
3.53772e-05
3.53723e-05
3.53785e-05
3.53733e-05
4.60888e-05
4.92121e-05
4.60893e-05
4.92128e-05
0.000109248
5.62422e-05
0.000217163
0.000203986
0.00010923
5.62495e-05
0.00021716
0.000109249
5.62375e-05
0.000217165
0.000203978
0.000109231
5.62436e-05
0.00021716
4.60776e-05
4.9214e-05
4.92133e-05
4.60749e-05
4.60784e-05
4.92142e-05
4.92138e-05
4.60755e-05
0.000109217
0.000203979
5.62364e-05
0.000217136
5.62324e-05
0.000217153
0.000109216
0.000109218
0.000203964
5.62297e-05
0.000217131
5.62259e-05
0.00021715
0.000109216
3.53762e-05
3.53724e-05
0.000181506
3.53752e-05
3.53718e-05
2.56722e-05
2.56721e-05
2.56714e-05
2.56716e-05
0.000181337
3.53684e-05
3.53649e-05
3.53712e-05
3.53675e-05
2.5672e-05
2.56723e-05
0.000109255
5.62366e-05
0.000217167
0.000204003
0.000109237
5.62469e-05
0.000217164
4.60997e-05
4.92044e-05
4.60972e-05
4.92043e-05
0.000109255
0.000217161
5.62285e-05
0.000203978
0.000109236
0.00021716
5.62396e-05
4.60919e-05
4.92089e-05
4.92083e-05
4.60885e-05
0.000109226
0.000203998
5.62356e-05
0.000217151
5.62306e-05
0.00021716
0.00010924
4.6091e-05
4.92059e-05
4.92053e-05
4.60873e-05
0.000109226
0.000203974
0.000217148
5.62283e-05
0.000217156
5.62225e-05
0.00010924
4.60879e-05
4.92107e-05
4.60884e-05
4.92112e-05
0.000109247
0.000217162
5.62385e-05
0.000203981
0.000109229
0.000217159
5.62462e-05
4.60875e-05
4.92081e-05
4.60879e-05
4.92085e-05
0.000109217
0.000203983
5.62271e-05
0.000217134
5.62229e-05
0.000217151
0.000109216
4.60775e-05
4.92126e-05
4.92123e-05
4.60747e-05
0.000109216
0.000203974
0.000217134
5.62329e-05
0.000217151
5.62289e-05
0.000109215
4.60771e-05
4.92104e-05
4.92096e-05
4.60743e-05
3.5367e-05
3.53831e-05
0.000181513
3.53676e-05
3.53829e-05
2.56713e-05
2.56714e-05
2.56689e-05
2.56691e-05
0.000181354
3.53629e-05
3.53787e-05
3.53634e-05
3.53793e-05
2.56714e-05
2.56716e-05
0.000109235
0.000217161
5.62349e-05
0.000203992
0.000109218
0.000217158
5.62425e-05
4.60792e-05
4.92073e-05
4.60788e-05
4.92073e-05
4.60789e-05
4.92078e-05
4.60784e-05
4.92082e-05
0.000109206
0.000203989
0.000217138
5.6239e-05
0.000217153
5.62346e-05
0.000109207
0.000109205
0.000203984
0.000217133
5.62293e-05
0.000217151
5.6225e-05
0.000109205
4.60681e-05
4.92092e-05
4.92083e-05
4.60663e-05
4.60678e-05
4.921e-05
4.92092e-05
4.6066e-05
2.56713e-05
2.56712e-05
2.56702e-05
2.56702e-05
0.000181345
3.53756e-05
3.53695e-05
3.5377e-05
3.5371e-05
2.56712e-05
2.56714e-05
2.56702e-05
2.56704e-05
2.56726e-05
2.56724e-05
2.56708e-05
2.56705e-05
3.53731e-05
3.53684e-05
0.000181455
3.53703e-05
3.5366e-05
2.56723e-05
2.56725e-05
2.56704e-05
2.56706e-05
0.000181293
3.53665e-05
3.53603e-05
3.53665e-05
3.53618e-05
4.60655e-05
4.92149e-05
4.60655e-05
4.92144e-05
0.000109181
5.6219e-05
0.000217126
0.00020394
0.00010918
5.62245e-05
0.000217123
0.000109182
5.62121e-05
0.000217124
0.000203935
0.000109179
5.62194e-05
0.000217122
4.60565e-05
4.92145e-05
4.92152e-05
4.60604e-05
4.60572e-05
4.92142e-05
4.92149e-05
4.60612e-05
0.000109156
0.000203936
5.62194e-05
0.000217126
5.62087e-05
0.000217123
0.000109183
0.000109157
0.000203934
5.62158e-05
0.000217126
5.62038e-05
0.000217123
0.000109184
3.53642e-05
3.53606e-05
0.000181457
3.53615e-05
3.53576e-05
2.56722e-05
2.56719e-05
2.56712e-05
2.56714e-05
0.000181303
3.53597e-05
3.53555e-05
3.53583e-05
3.53539e-05
2.56718e-05
2.56721e-05
0.000109194
5.6218e-05
0.000217132
0.000203953
0.000109207
5.62218e-05
0.000217124
4.60745e-05
4.92071e-05
4.60774e-05
4.92074e-05
0.000109193
0.00021713
5.62099e-05
0.000203934
0.000109206
0.000217122
5.62143e-05
4.60673e-05
4.92104e-05
4.9211e-05
4.60689e-05
0.00010916
0.000203947
5.62134e-05
0.000217122
5.6205e-05
0.000217121
0.000109183
4.6066e-05
4.92076e-05
4.92082e-05
4.60674e-05
0.000109159
0.000203927
0.000217119
5.62055e-05
0.000217118
5.61966e-05
0.000109182
4.60648e-05
4.92134e-05
4.60647e-05
4.92129e-05
0.00010918
0.000217125
5.62152e-05
0.000203937
0.000109179
0.000217122
5.62211e-05
4.60644e-05
4.92113e-05
4.60643e-05
4.9211e-05
0.000109157
0.000203952
5.62128e-05
0.000217127
5.62005e-05
0.000217125
0.000109183
4.60564e-05
4.92127e-05
4.92135e-05
4.60604e-05
0.000109156
0.000203935
0.000217126
5.62162e-05
0.000217122
5.62052e-05
0.000109182
4.6056e-05
4.92109e-05
4.92116e-05
4.606e-05
3.53586e-05
3.5375e-05
0.000181454
3.53568e-05
3.53728e-05
2.56716e-05
2.56712e-05
2.56686e-05
2.56689e-05
0.000181289
3.53504e-05
3.53669e-05
3.53523e-05
3.53685e-05
2.56712e-05
2.56714e-05
0.000109168
0.000217124
5.62115e-05
0.000203948
0.00010917
0.000217121
5.62175e-05
4.60556e-05
4.92103e-05
4.60556e-05
4.92105e-05
4.60553e-05
4.92109e-05
4.60553e-05
4.92106e-05
0.000109145
0.000203945
0.000217124
5.62183e-05
0.000217123
5.6209e-05
0.000109171
0.000109143
0.000203946
0.000217124
5.62125e-05
0.000217121
5.62014e-05
0.000109169
4.60463e-05
4.92107e-05
4.92112e-05
4.60507e-05
4.6046e-05
4.92106e-05
4.92112e-05
4.60505e-05
2.56713e-05
2.5671e-05
2.56703e-05
2.567e-05
0.000181294
3.53652e-05
3.5359e-05
3.5365e-05
3.53589e-05
2.5671e-05
2.56712e-05
2.567e-05
2.56702e-05
2.56725e-05
2.56723e-05
2.56705e-05
2.56704e-05
3.53638e-05
3.53571e-05
0.000181461
3.53656e-05
3.53585e-05
2.56724e-05
2.56724e-05
2.56705e-05
2.56705e-05
0.000181305
3.53658e-05
3.53585e-05
3.53634e-05
3.53561e-05
4.60599e-05
4.92148e-05
4.60539e-05
4.92142e-05
0.000109185
5.62051e-05
0.00021713
0.000203941
0.000109159
5.6218e-05
0.00021713
0.000109186
5.62013e-05
0.000217129
0.000203938
0.00010916
5.6215e-05
0.00021713
4.60521e-05
4.92148e-05
4.9215e-05
4.60586e-05
4.60529e-05
4.92146e-05
4.92148e-05
4.60594e-05
0.00010916
0.000203942
5.62179e-05
0.00021713
5.62046e-05
0.00021713
0.000109184
0.000109161
0.000203939
5.62151e-05
0.00021713
5.62014e-05
0.00021713
0.000109186
3.53571e-05
3.53525e-05
0.000181463
3.53594e-05
3.53553e-05
2.5672e-05
2.56718e-05
2.56714e-05
2.56714e-05
0.000181306
3.53598e-05
3.53557e-05
3.53572e-05
3.53527e-05
2.56719e-05
2.5672e-05
0.000109186
5.61986e-05
0.000217127
0.000203952
0.00010916
5.62107e-05
0.000217129
4.6065e-05
4.92082e-05
4.60604e-05
4.92075e-05
0.000109185
0.000217123
5.61898e-05
0.00020393
0.000109158
0.000217125
5.62026e-05
4.60601e-05
4.92107e-05
4.9211e-05
4.60658e-05
0.000109162
0.000203952
5.62102e-05
0.000217129
5.61972e-05
0.000217129
0.000109186
4.60586e-05
4.92078e-05
4.92081e-05
4.60643e-05
0.000109161
0.00020393
0.000217126
5.62021e-05
0.000217126
5.61883e-05
0.000109185
4.6059e-05
4.92134e-05
4.6053e-05
4.92127e-05
0.000109184
0.000217129
5.62016e-05
0.00020394
0.000109158
0.00021713
5.62148e-05
4.60586e-05
4.92115e-05
4.60526e-05
4.92109e-05
0.000109162
0.000203956
5.62121e-05
0.00021713
5.6198e-05
0.000217131
0.000109185
4.6052e-05
4.92131e-05
4.92133e-05
4.60585e-05
0.00010916
0.00020394
0.000217129
5.62146e-05
0.00021713
5.62012e-05
0.000109183
4.60516e-05
4.92112e-05
4.92114e-05
4.60581e-05
3.53467e-05
3.53637e-05
0.000181454
3.53483e-05
3.53649e-05
2.56713e-05
2.56712e-05
2.56687e-05
2.56688e-05
0.000181299
3.53482e-05
3.53647e-05
3.53454e-05
3.53625e-05
2.56713e-05
2.56713e-05
0.000109171
0.000217127
5.61978e-05
0.000203951
0.000109146
0.000217128
5.62111e-05
4.60502e-05
4.92113e-05
4.60439e-05
4.92107e-05
4.60493e-05
4.92111e-05
4.60425e-05
4.92105e-05
0.00010915
0.00020395
0.000217128
5.62153e-05
0.000217128
5.62022e-05
0.000109174
0.000109147
0.000203951
0.000217127
5.6211e-05
0.000217128
5.61974e-05
0.000109171
4.60436e-05
4.9211e-05
4.92112e-05
4.60514e-05
4.60416e-05
4.92109e-05
4.92111e-05
4.60489e-05
2.56711e-05
2.5671e-05
2.56701e-05
2.567e-05
0.000181302
3.53646e-05
3.53585e-05
3.5362e-05
3.5356e-05
2.56711e-05
2.56711e-05
2.56701e-05
2.56701e-05
2.56724e-05
2.5673e-05
2.56705e-05
2.5671e-05
3.53648e-05
3.53575e-05
0.000181455
3.53669e-05
3.53595e-05
2.56732e-05
2.56722e-05
2.56712e-05
2.56703e-05
0.000181299
3.53633e-05
3.53561e-05
3.53688e-05
3.53614e-05
4.60583e-05
4.92147e-05
4.6052e-05
4.92157e-05
0.000109184
5.62072e-05
0.00021713
0.000203942
0.00010916
5.62193e-05
0.00021713
0.000109186
5.62041e-05
0.000217129
0.000203939
0.000109161
5.62166e-05
0.000217129
4.60503e-05
4.92173e-05
4.92154e-05
4.60563e-05
4.60511e-05
4.92171e-05
4.92152e-05
4.60571e-05
0.000109162
0.000203942
5.62235e-05
0.000217131
5.62146e-05
0.00021713
0.000109184
0.000109163
0.000203939
5.62208e-05
0.00021713
5.62115e-05
0.00021713
0.000109185
3.53588e-05
3.53543e-05
0.000181457
3.53609e-05
3.53575e-05
2.5672e-05
2.56726e-05
2.56721e-05
2.56712e-05
0.000181302
3.53577e-05
3.53569e-05
3.53628e-05
3.53587e-05
2.5673e-05
2.56719e-05
0.000109186
5.61995e-05
0.000217129
0.000203953
0.000109162
5.62115e-05
0.000217129
4.60632e-05
4.9208e-05
4.60576e-05
4.92089e-05
0.000109185
0.000217126
5.61905e-05
0.000203931
0.000109161
0.000217126
5.62034e-05
4.60581e-05
4.92132e-05
4.92113e-05
4.60634e-05
0.000109164
0.000203953
5.62157e-05
0.00021713
5.62068e-05
0.00021713
0.000109186
4.60567e-05
4.92103e-05
4.92085e-05
4.60619e-05
0.000109162
0.000203931
0.000217126
5.62077e-05
0.000217126
5.61978e-05
0.000109185
4.60574e-05
4.92133e-05
4.60511e-05
4.92141e-05
0.000109184
0.000217129
5.62038e-05
0.00020394
0.000109159
0.000217129
5.62161e-05
4.6057e-05
4.92114e-05
4.60507e-05
4.92123e-05
0.000109163
0.000203957
5.62179e-05
0.000217131