/*--------------------------------*- C++ -*----------------------------------*\
| =========                 |                                                 |
| \\      /  F ield         | OpenFOAM: The Open Source CFD Toolbox           |
|  \\    /   O peration     | Version:  2206                                  |
|   \\  /    A nd           | Website:  www.openfoam.com                      |
|    \\/     M anipulation  |                                                 |
\*---------------------------------------------------------------------------*/
FoamFile
{
    version     2.0;
    format      ascii;
    arch        "LSB;label=32;scalar=64";
    class       volScalarField;
    location    "22.5";
    object      p;
}
// * * * * * * * * * * * * * * * * * * * * * * * * * * * * * * * * * * * * * //

dimensions      [0 2 -2 0 0 0 0];

internalField   nonuniform List<scalar> 
28673
(
0.000523224
0.000525783
0.000479773
0.000479741
0.000479741
0.0004823
0.000436293
0.000436261
0.000436261
0.00043882
0.000392814
0.000392783
0.000392781
0.000395342
0.000349331
0.000349298
0.000349298
0.000351858
0.000305834
0.000305801
0.000305802
0.00030836
0.000262341
0.00026231
0.00026231
0.000264869
0.000218847
0.000218818
0.000218818
0.000221374
0.000175358
0.000175311
0.000175311
0.000177866
0.000131849
0.000131827
0.000131826
0.000134361
8.83692e-05
8.83298e-05
8.83283e-05
9.08458e-05
4.55435e-05
4.49915e-05
4.49886e-05
4.73671e-05
1.00027e-05
1.02832e-05
1.02811e-05
9.84592e-06
0.000534094
0.000531542
0.000534095
0.000488058
0.000523224
0.000523223
0.000490611
0.000490611
0.000525782
0.000488058
0.000490611
0.000490611
0.000523224
0.000490611
0.000490611
0.000488058
0.000523224
0.000490611
0.000490611
0.000488058
0.0004823
0.000444578
0.000479741
0.000479741
0.000447131
0.000447131
0.0004823
0.000444579
0.000479741
0.000479741
0.000447131
0.000447131
0.000479741
0.000447131
0.000447131
0.0004823
0.000444578
0.000479741
0.000447131
0.000447131
0.000444578
0.00043882
0.000401099
0.000436261
0.000436261
0.000403651
0.000403652
0.00043882
0.0004011
0.000436261
0.000436261
0.000403651
0.000403652
0.000436261
0.000403652
0.000403652
0.00043882
0.000401099
0.000436261
0.000403652
0.000403651
0.000401099
0.000395341
0.000357617
0.000392782
0.000392783
0.00036017
0.00036017
0.000395342
0.000357618
0.000392781
0.000392781
0.00036017
0.00036017
0.000392782
0.00036017
0.00036017
0.00039534
0.000357617
0.000392782
0.00036017
0.00036017
0.000357618
0.000351858
0.000314121
0.000349298
0.000349298
0.000316676
0.000316675
0.000351858
0.00031412
0.000349298
0.000349298
0.000316677
0.000316678
0.000349298
0.000316675
0.000316676
0.000351858
0.000314122
0.000349298
0.000316677
0.000316676
0.00031412
0.000308361
0.000270628
0.000305801
0.000305801
0.000273182
0.000273182
0.00030836
0.000270628
0.000305802
0.000305802
0.000273181
0.000273181
0.000305801
0.000273182
0.000273182
0.000308361
0.000270627
0.000305801
0.000273182
0.000273182
0.000270628
0.000264868
0.000227137
0.00026231
0.00026231
0.000229692
0.000229692
0.000264869
0.000227137
0.00026231
0.00026231
0.000229691
0.000229691
0.00026231
0.000229692
0.000229692
0.000264868
0.000227136
0.00026231
0.000229691
0.000229692
0.000227137
0.000221373
0.000183639
0.000218818
0.000218818
0.000186181
0.000186181
0.000221373
0.00018364
0.000218818
0.000218818
0.000186181
0.000186181
0.000218818
0.000186181
0.000186182
0.000221373
0.000183639
0.000218818
0.000186181
0.000186181
0.000183639
0.000177866
0.000140165
0.000175311
0.000175311
0.000142728
0.000142728
0.000177865
0.000140165
0.000175311
0.000175311
0.000142728
0.000142728
0.000175311
0.000142728
0.000142728
0.000177865
0.000140165
0.000175311
0.000142728
0.000142728
0.000140165
0.000134361
9.66609e-05
0.000131827
0.000131827
9.92024e-05
9.92029e-05
0.000134361
9.66615e-05
0.000131826
0.000131827
9.92022e-05
9.92019e-05
0.000131827
9.92024e-05
9.92022e-05
0.000134361
9.66603e-05
0.000131827
9.92017e-05
9.92017e-05
9.66604e-05
9.08468e-05
5.32017e-05
8.83294e-05
8.833e-05
5.57411e-05
5.57417e-05
9.08468e-05
5.32028e-05
8.83289e-05
8.83283e-05
5.57394e-05
5.57391e-05
8.83291e-05
5.57404e-05
5.57387e-05
9.08463e-05
5.31991e-05
8.83284e-05
5.57379e-05
5.5737e-05
5.31988e-05
4.73709e-05
1.36402e-05
4.49932e-05
4.49934e-05
1.58991e-05
1.58985e-05
4.73713e-05
1.36401e-05
4.49914e-05
4.49901e-05
1.58971e-05
1.58934e-05
4.49893e-05
1.58958e-05
1.58917e-05
4.73676e-05
1.36357e-05
4.49879e-05
1.58937e-05
1.58932e-05
1.36345e-05
9.84988e-06
1.02845e-05
1.02848e-05
9.85092e-06
1.02829e-05
1.02805e-05
1.00026e-05
1.00006e-05
1.00002e-05
1.02796e-05
9.84704e-06
1.02801e-05
0.000509663
0.000525941
0.000525942
0.000509663
0.000525942
0.000509662
0.000509663
0.000509664
0.000523256
0.000523256
0.000490644
0.000490643
0.000490644
0.000490643
0.000509716
0.000525909
0.000523232
0.000512353
0.000525895
0.000509693
0.000512361
0.000509662
0.000509716
0.000523232
0.000512353
0.000525895
0.000512361
0.000509694
0.000525946
0.000525946
0.000509799
0.000509659
0.000509659
0.000466182
0.000482458
0.00048246
0.000466182
0.00048246
0.000466181
0.000466182
0.000482458
0.00048246
0.000466182
0.000479773
0.000479773
0.000479773
0.000447163
0.000447163
0.000447163
0.000447163
0.000466235
0.000482427
0.000479749
0.000468871
0.000482412
0.000466212
0.000468879
0.000482459
0.000466181
0.000466235
0.000479749
0.000482427
0.000468871
0.000482411
0.000468879
0.000466212
0.000482463
0.000482463
0.000466318
0.000466178
0.000466178
0.000422702
0.000438978
0.00043898
0.000422702
0.00043898
0.000422702
0.000422702
0.000438978
0.00043898
0.000422703
0.000436293
0.000436293
0.000436293
0.000403684
0.000403684
0.000403684
0.000403684
0.000422756
0.000438947
0.000436269
0.000425392
0.000438932
0.000422733
0.0004254
0.000438979
0.000422702
0.000422756
0.000436269
0.000438947
0.000425391
0.000438932
0.000425399
0.000422733
0.000438983
0.000438983
0.000422839
0.000422698
0.000422698
0.000379224
0.0003955
0.000395501
0.000379224
0.0003955
0.000379225
0.000379223
0.000395499
0.000395501
0.000379223
0.000392814
0.000392814
0.000392814
0.000360202
0.000360203
0.000360202
0.000360202
0.000379277
0.000395468
0.00039279
0.000381913
0.000395453
0.000379256
0.00038192
0.000395501
0.000379222
0.000379276
0.000392789
0.000395468
0.000381912
0.000395452
0.00038192
0.000379253
0.000395505
0.000395505
0.000379359
0.000379219
0.000379219
0.00033574
0.000352021
0.000352022
0.000335737
0.00035202
0.000335733
0.000335741
0.00035202
0.00035202
0.000335739
0.000349331
0.00034933
0.00034933
0.000316708
0.000316707
0.000316709
0.000316707
0.000335788
0.000351988
0.000349305
0.000338425
0.000351971
0.000335766
0.000338432
0.000352022
0.00033574
0.00033579
0.000349306
0.000351988
0.000338425
0.000351971
0.000338433
0.000335769
0.000352027
0.000352027
0.000335871
0.000335733
0.000335734
0.000292237
0.000308518
0.000308521
0.000292237
0.000308519
0.000292237
0.000292237
0.000308519
0.000308524
0.000292237
0.000305833
0.000305834
0.000305833
0.000273213
0.000273214
0.000273213
0.000273213
0.00029229
0.000308487
0.000305809
0.000294927
0.000308471
0.000292268
0.000294935
0.00030852
0.000292236
0.00029229
0.000305809
0.00030849
0.000294928
0.000308472
0.000294935
0.000292268
0.000308523
0.000308523
0.000292373
0.000292233
0.000292233
0.000248748
0.000265026
0.000265028
0.000248746
0.000265028
0.000248745
0.000248747
0.000265026
0.000265027
0.000248745
0.000262341
0.000262341
0.000262341
0.000229719
0.000229719
0.000229719
0.000229719
0.0002488
0.000264995
0.000262318
0.000251437
0.000264979
0.000248778
0.000251444
0.000265027
0.000248744
0.0002488
0.000262317
0.000264995
0.000251437
0.000264979
0.000251444
0.000248778
0.000265031
0.000265031
0.000248883
0.000248742
0.000248742
0.000205259
0.000221534
0.000221531
0.000205254
0.000221539
0.000205241
0.000205259
0.000221534
0.000221531
0.000205254
0.000218847
0.000218847
0.000218847
0.000186221
0.000186221
0.000186221
0.00018622
0.000205312
0.000221491
0.000218826
0.00020794
0.000221481
0.000205304
0.000207946
0.000221539
0.000205241
0.000205312
0.000218825
0.000221491
0.00020794
0.000221481
0.000207945
0.000205303
0.000221537
0.000221537
0.000205387
0.000205251
0.000205251
0.000161752
0.000178015
0.000178005
0.00016176
0.000178027
0.000161744
0.000161752
0.000178016
0.000178005
0.000161759
0.000175358
0.000175358
0.000175358
0.000142725
0.000142725
0.000142725
0.000142725
0.00016179
0.000177974
0.000175325
0.000164456
0.000177979
0.000161796
0.000164465
0.000178027
0.000161744
0.00016179
0.000175325
0.000177975
0.000164456
0.000177979
0.000164464
0.000161795
0.00017801
0.00017801
0.000161907
0.000161771
0.000161771
0.000118317
0.000134567
0.000134551
0.000118263
0.000134625
0.000118162
0.000118316
0.000134567
0.000134551
0.000118262
0.000131849
0.000131849
0.000131849
9.9213e-05
9.92126e-05
9.92124e-05
9.92123e-05
0.000118338
0.000134508
0.000131823
0.000120946
0.000134473
0.000118352
0.000120945
0.000134624
0.000118161
0.000118338
0.000131823
0.000134509
0.000120946
0.000134473
0.000120945
0.000118352
0.000134549
0.000134549
0.000118412
0.00011829
0.000118289
7.47144e-05
9.10155e-05
9.10128e-05
7.46974e-05
9.11528e-05
7.44891e-05
7.47125e-05
9.1015e-05
9.10116e-05
7.46958e-05
8.83681e-05
8.83682e-05
8.83678e-05
5.59804e-05
5.59814e-05
5.59784e-05
5.59785e-05
7.47763e-05
9.09408e-05
8.83411e-05
7.7463e-05
9.09657e-05
7.47847e-05
7.7469e-05
9.11481e-05
7.44926e-05
7.47753e-05
8.83405e-05
9.09403e-05
7.74614e-05
9.09651e-05
7.7468e-05
7.47828e-05
9.09641e-05
9.09639e-05
7.4914e-05
7.47277e-05
7.47268e-05
3.03076e-05
4.6993e-05
4.7151e-05
2.95723e-05
4.74339e-05
2.89615e-05
3.02939e-05
4.69843e-05
4.71447e-05
2.95651e-05
4.5544e-05
4.55406e-05
4.55404e-05
1.73862e-05
1.73855e-05
1.73827e-05
1.73824e-05
3.09545e-05
4.70215e-05
4.52511e-05
3.4538e-05
4.72666e-05
3.01632e-05
3.49403e-05
4.74181e-05
2.89688e-05
3.09545e-05
4.52483e-05
4.70199e-05
3.45351e-05
4.72663e-05
3.49377e-05
3.01648e-05
4.6936e-05
4.6935e-05
3.1909e-05
2.98138e-05
2.98111e-05
5.98906e-06
7.15665e-06
7.07908e-06
2.94808e-07
4.31074e-06
-3.10358e-06
6.00675e-06
7.13836e-06
7.06621e-06
3.02465e-07
2.916e-06
1.03927e-05
1.0391e-05
3.29588e-06
1.06645e-05
2.99023e-06
2.98971e-06
5.18825e-06
7.35342e-06
9.77549e-06
3.44924e-06
8.83646e-06
4.53494e-06
3.12277e-06
4.27557e-06
-3.09755e-06
5.19351e-06
9.7749e-06
7.34915e-06
3.44863e-06
8.83636e-06
3.12327e-06
4.54413e-06
3.85527e-06
3.85272e-06
3.43445e-06
3.57927e-06
3.59139e-06
0.000531405
0.000531435
0.000531404
0.000531401
0.000531402
0.000531403
0.000531435
0.000531405
0.000525941
0.000509663
0.000509662
0.000525946
0.0005098
0.000509659
0.000509659
0.000487922
0.0005042
0.000487921
0.0005042
0.000504041
0.000487918
0.000487918
0.000504203
0.000504204
0.000509662
0.00052594
0.000525942
0.000509663
0.000509716
0.00052591
0.000523232
0.000512353
0.000525895
0.000509693
0.000512361
0.000509716
0.000525909
0.000523232
0.000512352
0.000525895
0.000509693
0.000512361
0.0005042
0.000487922
0.000504198
0.000487922
0.0005042
0.000487922
0.000504198
0.000487922
0.000504152
0.000501482
0.000487952
0.000490619
0.000504168
0.00050149
0.000487975
0.000504152
0.000501482
0.000487952
0.000490619
0.000504168
0.00050149
0.000487975
0.000525945
0.000525945
0.000509799
0.000509659
0.000509659
0.000525942
0.000509662
0.000487922
0.0005042
0.00050404
0.000487918
0.000487918
0.000504203
0.000504203
0.000487922
0.0005042
0.000509717
0.000512353
0.000509694
0.000512361
0.000509663
0.000509664
0.000509717
0.000512353
0.000512361
0.000509694
0.000504201
0.000487922
0.000504199
0.000487922
0.000504153
0.000501482
0.000487952
0.000490619
0.000504168
0.00050149
0.000487975
0.000504201
0.000487922
0.000504199
0.000487922
0.000504153
0.000501482
0.000490619
0.000487952
0.00050149
0.000504168
0.000487975
0.000509662
0.000525941
0.000525943
0.000509663
0.000509716
0.000523232
0.00052591
0.000512353
0.000525895
0.000512361
0.000509693
0.000509663
0.000525941
0.000525943
0.000509663
0.000504152
0.000501482
0.000487952
0.000490619
0.000504167
0.00050149
0.000487975
0.0005042
0.000487922
0.000504198
0.000487922
0.000504152
0.000501482
0.000490619
0.000487952
0.00050149
0.000504167
0.000487975
0.0005042
0.000487922
0.000504198
0.000487922
0.0005098
0.00050966
0.00050966
0.000509662
0.000487921
0.0005042
0.000504041
0.000487918
0.000487917
0.000504204
0.000504204
0.000487921
0.0005042
0.000509716
0.000523232
0.00052591
0.000512353
0.000525895
0.000512361
0.000509693
0.000509663
0.000525943
0.000509663
0.000509663
0.000525941
0.000525943
0.000509663
0.000504152
0.000501482
0.000490619
0.000487952
0.00050149
0.000504168
0.000487975
0.000504152
0.000501482
0.000490619
0.000487952
0.00050149
0.000504167
0.000487975
0.0005042
0.000487922
0.000504198
0.000487922
0.0005042
0.000487922
0.000504198
0.000487922
0.000525941
0.000509663
0.000525941
0.000509663
0.000504041
0.000487918
0.000487918
0.000504203
0.000504203
0.000487921
0.0005042
0.000487921
0.0005042
0.000482459
0.000466181
0.000482459
0.000466181
0.000482463
0.000482462
0.000466318
0.000466178
0.000466178
0.000444441
0.000460719
0.000444441
0.000460719
0.00046056
0.000444438
0.000444438
0.000460722
0.000460722
0.000466182
0.000482458
0.00048246
0.000466182
0.000466235
0.000482427
0.000479749
0.000468871
0.000482412
0.000466212
0.000468879
0.000466235
0.000482427
0.000479749
0.000468871
0.000482412
0.000466212
0.000468879
0.00046072
0.000444442
0.000460717
0.000444442
0.00046072
0.000444443
0.000460717
0.000444442
0.000460671
0.000458001
0.000444472
0.000447139
0.000460687
0.000458009
0.000444495
0.000460671
0.000458001
0.000444473
0.000447139
0.000460687
0.000458009
0.000444495
0.000482463
0.000482463
0.000466318
0.000466178
0.000466178
0.00048246
0.000466181
0.000444442
0.000460719
0.00046056
0.000444438
0.000444439
0.000460722
0.000460722
0.000444442
0.000460719
0.000466235
0.000482427
0.000479749
0.000468871
0.000482411
0.000466212
0.000468879
0.000466181
0.000482457
0.00048246
0.000466182
0.000466235
0.000479749
0.000482426
0.000468871
0.000482411
0.000468879
0.000466212
0.00046072
0.000444442
0.000460718
0.000444441
0.000460671
0.000458001
0.000444472
0.000447139
0.000460687
0.000458009
0.000444495
0.00046072
0.000444442
0.000460718
0.000444441
0.000460671
0.000458001
0.000447139
0.000444472
0.000458009
0.000460687
0.000444495
0.000466182
0.000482458
0.00048246
0.000466182
0.000466235
0.000479749
0.000482427
0.000468871
0.000482412
0.000468879
0.000466212
0.000466182
0.000482458
0.00048246
0.000466182
0.000460671
0.000458001
0.000444473
0.000447139
0.000460687
0.000458009
0.000444495
0.00046072
0.000444443
0.000460717
0.000444442
0.000460671
0.000458001
0.000447139
0.000444472
0.000458009
0.000460687
0.000444495
0.00046072
0.000444442
0.000460717
0.000444442
0.000482462
0.000482462
0.000466318
0.000466178
0.000466177
0.000482459
0.000466181
0.000444441
0.000460719
0.00046056
0.000444437
0.000444437
0.000460722
0.000460722
0.000444441
0.000460719
0.000466235
0.000479749
0.000482427
0.000468871
0.000482411
0.000468879
0.000466212
0.000466182
0.000482458
0.00048246
0.000466182
0.000466182
0.000482458
0.00048246
0.000466182
0.000460671
0.000458001
0.000447139
0.000444472
0.000458009
0.000460687
0.000444495
0.000460671
0.000458001
0.000447139
0.000444472
0.000458009
0.000460687
0.000444495
0.000460719
0.000444442
0.000460717
0.000444442
0.000460719
0.000444442
0.000460717
0.000444442
0.000482459
0.000466181
0.000482459
0.000466181
0.00046056
0.000444438
0.000444438
0.000460722
0.000460722
0.000444442
0.000460719
0.000444442
0.000460719
0.00043898
0.000422702
0.000438979
0.000422702
0.000438983
0.000438983
0.000422838
0.000422698
0.000422698
0.000400963
0.00041724
0.000400962
0.00041724
0.00041708
0.000400959
0.000400959
0.000417243
0.000417243
0.000422703
0.000438978
0.00043898
0.000422703
0.000422755
0.000438947
0.000436269
0.000425391
0.000438932
0.000422732
0.000425399
0.000422755
0.000438947
0.000436269
0.000425392
0.000438932
0.000422733
0.0004254
0.000417241
0.000400964
0.000417238
0.000400963
0.000417241
0.000400964
0.000417239
0.000400963
0.000417192
0.000414522
0.000400994
0.00040366
0.000417208
0.00041453
0.000401016
0.000417192
0.000414522
0.000400994
0.00040366
0.000417208
0.00041453
0.000401016
0.000438983
0.000438983
0.000422839
0.000422699
0.000422699
0.00043898
0.000422702
0.000400963
0.000417241
0.00041708
0.00040096
0.00040096
0.000417244
0.000417244
0.000400963
0.000417241
0.000422756
0.000438947
0.000436269
0.000425391
0.000438931
0.000422733
0.000425399
0.000422702
0.000438977
0.00043898
0.000422703
0.000422755
0.000436269
0.000438946
0.000425391
0.000438931
0.000425399
0.000422733
0.000417241
0.000400963
0.000417238
0.000400963
0.000417192
0.000414521
0.000400993
0.00040366
0.000417207
0.000414529
0.000401016
0.000417241
0.000400963
0.000417238
0.000400963
0.000417192
0.000414521
0.000403659
0.000400993
0.000414529
0.000417207
0.000401016
0.000422703
0.000438978
0.000438981
0.000422703
0.000422756
0.000436269
0.000438948
0.000425392
0.000438932
0.0004254
0.000422733
0.000422703
0.000438979
0.00043898
0.000422703
0.000417192
0.000414522
0.000400994
0.00040366
0.000417208
0.00041453
0.000401016
0.000417241
0.000400964
0.000417239
0.000400964
0.000417192
0.000414522
0.00040366
0.000400994
0.00041453
0.000417208
0.000401016
0.000417241
0.000400964
0.000417238
0.000400963
0.000438982
0.000438983
0.000422839
0.000422699
0.000422699
0.000438979
0.000422702
0.000400962
0.00041724
0.00041708
0.000400959
0.000400959
0.000417243
0.000417243
0.000400962
0.00041724
0.000422756
0.000436269
0.000438948
0.000425392
0.000438932
0.000425399
0.000422733
0.000422703
0.000438978
0.00043898
0.000422703
0.000422703
0.000438978
0.00043898
0.000422703
0.000417192
0.000414522
0.000403659
0.000400993
0.000414529
0.000417208
0.000401016
0.000417192
0.000414522
0.00040366
0.000400994
0.00041453
0.000417208
0.000401016
0.000417241
0.000400963
0.000417239
0.000400963
0.000417241
0.000400964
0.000417238
0.000400963
0.00043898
0.000422702
0.00043898
0.000422702
0.000417081
0.00040096
0.00040096
0.000417243
0.000417243
0.000400964
0.00041724
0.000400963
0.00041724
0.000395501
0.000379222
0.000395501
0.000379223
0.000395505
0.000395504
0.000379359
0.000379219
0.000379219
0.000357486
0.000373761
0.000357483
0.00037376
0.000373601
0.000357482
0.00035748
0.000373764
0.000373764
0.000379225
0.000395499
0.000395502
0.000379226
0.000379277
0.000395468
0.00039279
0.000381913
0.000395453
0.000379254
0.00038192
0.000379277
0.000395468
0.00039279
0.000381913
0.000395453
0.000379255
0.00038192
0.000373762
0.000357486
0.00037376
0.000357484
0.000373762
0.000357486
0.000373763
0.000357484
0.000373713
0.000371042
0.000357515
0.000360178
0.000373729
0.00037105
0.000357536
0.000373713
0.000371042
0.000357515
0.000360178
0.000373731
0.00037105
0.000357536
0.000395504
0.000395504
0.00037936
0.000379221
0.000379222
0.000395501
0.000379225
0.000357485
0.000373764
0.000373601
0.000357482
0.000357482
0.000373767
0.000373767
0.000357485
0.000373765
0.000379276
0.000395468
0.000392789
0.000381912
0.000395452
0.000379253
0.000381919
0.000379223
0.000395499
0.000395501
0.000379223
0.000379275
0.000392789
0.000395468
0.000381911
0.000395452
0.000381919
0.000379253
0.000373761
0.000357485
0.000373759
0.000357482
0.000373712
0.000371042
0.000357514
0.000360178
0.000373728
0.000371049
0.000357535
0.000373761
0.000357484
0.000373758
0.000357482
0.000373712
0.000371042
0.000360178
0.000357513
0.000371049
0.000373727
0.000357535
0.000379225
0.000395499
0.000395502
0.000379226
0.000379277
0.00039279
0.000395469
0.000381913
0.000395453
0.00038192
0.000379254
0.000379225
0.0003955
0.000395502
0.000379224
0.000373713
0.000371042
0.000357515
0.000360178
0.000373731
0.00037105
0.000357536
0.000373763
0.000357486
0.000373763
0.000357484
0.000373713
0.000371042
0.000360178
0.000357515
0.00037105
0.000373729
0.000357536
0.000373762
0.000357486
0.00037376
0.000357484
0.000395504
0.000395504
0.000379359
0.000379219
0.000379219
0.000395501
0.000379223
0.000357483
0.00037376
0.000373601
0.000357479
0.00035748
0.000373763
0.000373763
0.000357483
0.00037376
0.000379276
0.00039279
0.000395468
0.000381913
0.000395452
0.00038192
0.000379254
0.000379224
0.000395499
0.000395501
0.000379224
0.000379224
0.0003955
0.000395501
0.000379224
0.000373712
0.000371042
0.000360178
0.000357513
0.000371049
0.000373728
0.000357536
0.000373712
0.000371042
0.000360178
0.000357515
0.000371049
0.000373729
0.000357536
0.000373762
0.000357484
0.000373759
0.000357484
0.000373762
0.000357486
0.00037376
0.000357484
0.000395501
0.000379223
0.000395501
0.000379222
0.000373601
0.000357482
0.000357482
0.000373765
0.000373764
0.000357486
0.000373761
0.000357486
0.000373761
0.000352023
0.000335736
0.000352022
0.000335739
0.000352027
0.000352025
0.000335871
0.000335734
0.000335736
0.000313984
0.00033027
0.000313985
0.000330273
0.000330111
0.000313981
0.000313982
0.000330275
0.000330278
0.00033574
0.000352019
0.000352022
0.000335735
0.000335789
0.000351989
0.000349306
0.000338425
0.000351971
0.000335768
0.000338432
0.000335788
0.000351988
0.000349305
0.000338425
0.000351971
0.000335766
0.000338432
0.000330275
0.000313985
0.00033027
0.000313986
0.000330275
0.000313985
0.000330267
0.000313986
0.000330222
0.000327551
0.000314016
0.000316683
0.00033024
0.000327558
0.000314037
0.000330222
0.00032755
0.000314015
0.000316683
0.000330238
0.000327558
0.000314037
0.000352025
0.000352025
0.00033587
0.000335731
0.000335732
0.000352021
0.000335733
0.000313983
0.000330268
0.000330109
0.00031398
0.000313981
0.000330273
0.000330273
0.000313983
0.000330268
0.000335791
0.000351988
0.000349306
0.000338425
0.000351971
0.000335769
0.000338433
0.000335741
0.00035202
0.00035202
0.00033574
0.000335791
0.000349306
0.000351988
0.000338425
0.000351971
0.000338433
0.00033577
0.000330278
0.000313987
0.000330272
0.00031399
0.000330225
0.000327551
0.000314018
0.000316685
0.000330241
0.000327559
0.000314039
0.000330278
0.000313987
0.000330273
0.00031399
0.000330225
0.000327552
0.000316685
0.000314019
0.000327559
0.000330242
0.000314039
0.00033574
0.000352019
0.000352022
0.000335735
0.000335789
0.000349306
0.000351989
0.000338425
0.000351971
0.000338432
0.000335768
0.00033574
0.000352021
0.000352022
0.000335737
0.000330222
0.00032755
0.000314015
0.000316683
0.000330238
0.000327558
0.000314037
0.000330274
0.000313985
0.000330267
0.000313986
0.000330222
0.00032755
0.000316683
0.000314015
0.000327558
0.000330239
0.000314037
0.000330274
0.000313985
0.000330269
0.000313986
0.000352025
0.000352026
0.000335872
0.000335738
0.000335737
0.000352022
0.000335739
0.000313985
0.000330275
0.000330112
0.000313983
0.000313982
0.000330279
0.000330278
0.000313984
0.000330273
0.00033579
0.000349306
0.000351989
0.000338425
0.000351971
0.000338433
0.000335768
0.000335741
0.00035202
0.000352022
0.00033574
0.000335741
0.000352021
0.000352022
0.000335737
0.000330223
0.000327552
0.000316684
0.000314018
0.000327559
0.000330242
0.000314038
0.000330223
0.000327551
0.000316684
0.000314016
0.000327559
0.00033024
0.000314038
0.000330276
0.000313986
0.000330273
0.000313987
0.000330275
0.000313985
0.00033027
0.000313987
0.000352023
0.000335735
0.000352023
0.000335736
0.00033011
0.00031398
0.000313981
0.000330275
0.000330275
0.000313983
0.000330269
0.000313984
0.00033027
0.000308519
0.000292236
0.00030852
0.000292236
0.000308524
0.000308524
0.000292373
0.000292233
0.000292233
0.000270491
0.000286773
0.000270491
0.000286773
0.000286613
0.000270488
0.000270488
0.000286776
0.000286776
0.000292237
0.000308518
0.000308521
0.000292238
0.00029229
0.000308488
0.000305809
0.000294927
0.000308471
0.000292267
0.000294935
0.00029229
0.000308487
0.000305809
0.000294927
0.000308471
0.000292268
0.000294935
0.000286773
0.000270492
0.000286772
0.000270492
0.000286773
0.000270492
0.000286772
0.000270492
0.000286725
0.000284055
0.000270522
0.000273189
0.000286741
0.000284062
0.000270545
0.000286725
0.000284055
0.000270523
0.00027319
0.000286741
0.000284063
0.000270545
0.000308523
0.000308523
0.000292374
0.000292233
0.000292233
0.00030852
0.000292236
0.000270491
0.000286773
0.000286614
0.000270488
0.000270489
0.000286777
0.000286776
0.000270491
0.000286773
0.00029229
0.000308489
0.00030581
0.000294927
0.000308473
0.000292268
0.000294935
0.000292237
0.00030852
0.000308524
0.000292237
0.000292289
0.00030581
0.00030849
0.000294928
0.000308473
0.000294936
0.000292268
0.000286773
0.000270492
0.000286771
0.000270491
0.000286724
0.000284054
0.000270522
0.000273189
0.000286741
0.000284062
0.000270544
0.000286773
0.000270492
0.000286771
0.000270491
0.000286724
0.000284054
0.000273189
0.000270522
0.000284062
0.00028674
0.000270544
0.000292237
0.000308518
0.000308521
0.000292238
0.00029229
0.000305809
0.000308488
0.000294927
0.000308471
0.000294935
0.000292267
0.000292237
0.000308518
0.000308521
0.000292237
0.000286725
0.000284055
0.000270523
0.00027319
0.000286741
0.000284063
0.000270545
0.000286773
0.000270493
0.000286772
0.000270492
0.000286725
0.000284055
0.00027319
0.000270522
0.000284063
0.000286741
0.000270545
0.000286773
0.000270492
0.000286772
0.000270492
0.000308525
0.000308524
0.000292373
0.000292233
0.000292233
0.000308519
0.000292236
0.00027049
0.000286773
0.000286613
0.000270487
0.000270488
0.000286776
0.000286776
0.000270491
0.000286772
0.00029229
0.000305809
0.000308488
0.000294927
0.000308471
0.000294935
0.000292268
0.000292237
0.000308519
0.000308521
0.000292237
0.000292237
0.000308518
0.000308521
0.000292237
0.000286725
0.000284055
0.000273189
0.000270522
0.000284062
0.000286741
0.000270545
0.000286725
0.000284055
0.000273189
0.000270522
0.000284063
0.000286741
0.000270545
0.000286773
0.000270492
0.000286771
0.000270492
0.000286773
0.000270492
0.000286772
0.000270492
0.000308519
0.000292236
0.000308519
0.000292237
0.000286614
0.000270488
0.000270488
0.000286776
0.000286776
0.000270491
0.000286773
0.000270491
0.000286773
0.000265028
0.000248745
0.000265027
0.000248745
0.000265031
0.000265031
0.000248883
0.000248742
0.000248742
0.000226993
0.000243283
0.000226993
0.000243283
0.000243123
0.000226994
0.000226995
0.000243285
0.000243285
0.000248748
0.000265027
0.000265028
0.000248746
0.0002488
0.000264995
0.000262317
0.000251437
0.000264979
0.000248778
0.000251444
0.0002488
0.000264995
0.000262318
0.000251437
0.000264979
0.000248778
0.000251444
0.000243281
0.000226996
0.000243281
0.000227002
0.000243281
0.000226997
0.000243281
0.000227002
0.000243233
0.000240565
0.000227036
0.000229698
0.000243248
0.000240573
0.000227054
0.000243233
0.000240565
0.000227036
0.000229698
0.000243248
0.000240573
0.000227054
0.000265031
0.000265031
0.000248883
0.000248743
0.000248743
0.000265028
0.000248745
0.000226993
0.000243283
0.000243123
0.000226995
0.000226995
0.000243285
0.000243285
0.000226993
0.000243283
0.0002488
0.000264995
0.000262317
0.000251437
0.000264979
0.000248778
0.000251444
0.000248747
0.000265026
0.000265027
0.000248745
0.0002488
0.000262317
0.000264994
0.000251437
0.000264979
0.000251444
0.000248778
0.000243281
0.000226996
0.000243281
0.000227001
0.000243232
0.000240565
0.000227036
0.000229697
0.000243247
0.000240572
0.000227054
0.000243281
0.000226996
0.000243281
0.000227001
0.000243232
0.000240565
0.000229698
0.000227036
0.000240572
0.000243247
0.000227054
0.000248748
0.000265027
0.000265028
0.000248746
0.0002488
0.000262318
0.000264995
0.000251437
0.000264979
0.000251444
0.000248778
0.000248748
0.000265027
0.000265028
0.000248746
0.000243233
0.000240566
0.000227036
0.000229698
0.000243248
0.000240573
0.000227054
0.000243281
0.000226997
0.000243281
0.000227002
0.000243233
0.000240566
0.000229698
0.000227036
0.000240573
0.000243248
0.000227055
0.000243281
0.000226997
0.000243281
0.000227002
0.00026503
0.000265031
0.000248883
0.000248742
0.000248742
0.000265027
0.000248744
0.000226993
0.000243283
0.000243123
0.000226995
0.000226994
0.000243285
0.000243285
0.000226993
0.000243283
0.0002488
0.000262317
0.000264995
0.000251437
0.000264979
0.000251444
0.000248778
0.000248748
0.000265026
0.000265028
0.000248745
0.000248748
0.000265027
0.000265028
0.000248746
0.000243232
0.000240565
0.000229697
0.000227036
0.000240572
0.000243247
0.000227054
0.000243232
0.000240565
0.000229698
0.000227036
0.000240573
0.000243248
0.000227054
0.000243281
0.000226996
0.000243281
0.000227002
0.000243281
0.000226997
0.000243281
0.000227002
0.000265028
0.000248745
0.000265028
0.000248745
0.000243123
0.000226995
0.000226995
0.000243285
0.000243285
0.000226993
0.000243283
0.000226993
0.000243283
0.000221539
0.000205241
0.000221539
0.000205241
0.000221537
0.000221537
0.000205387
0.000205251
0.000205251
0.000183513
0.000199787
0.000183512
0.000199787
0.000199616
0.000183528
0.000183527
0.000199777
0.000199777
0.000205259
0.000221534
0.000221531
0.000205254
0.000205312
0.000221491
0.000218825
0.00020794
0.000221482
0.000205304
0.000207946
0.000205312
0.000221492
0.000218826
0.00020794
0.000221481
0.000205304
0.000207946
0.000199769
0.000183525
0.00019977
0.000183536
0.000199769
0.000183526
0.00019977
0.000183536
0.000199721
0.000197061
0.000183569
0.000186188
0.000199722
0.000197069
0.000183571
0.000199721
0.000197061
0.000183569
0.000186188
0.000199722
0.00019707
0.000183571
0.000221537
0.000221537
0.000205387
0.000205251
0.000205251
0.00022154
0.000205242
0.000183512
0.000199787
0.000199615
0.000183527
0.000183529
0.000199777
0.000199777
0.000183512
0.000199788
0.000205312
0.000221491
0.000218825
0.00020794
0.000221481
0.000205303
0.000207945
0.000205259
0.000221534
0.000221531
0.000205254
0.000205312
0.000218825
0.000221491
0.00020794
0.000221481
0.000207945
0.000205303
0.00019977
0.000183526
0.00019977
0.000183536
0.000199721
0.000197061
0.00018357
0.000186188
0.000199721
0.000197069
0.000183571
0.00019977
0.000183526
0.00019977
0.000183536
0.000199721
0.000197061
0.000186188
0.000183571
0.000197069
0.000199721
0.000183571
0.000205259
0.000221534
0.000221531
0.000205255
0.000205312
0.000218826
0.000221492
0.00020794
0.000221481
0.000207946
0.000205304
0.000205259
0.000221534
0.000221531
0.000205254
0.000199721
0.000197061
0.000183569
0.000186188
0.000199722