/*--------------------------------*- C++ -*----------------------------------*\
| =========                 |                                                 |
| \\      /  F ield         | OpenFOAM: The Open Source CFD Toolbox           |
|  \\    /   O peration     | Version:  2206                                  |
|   \\  /    A nd           | Website:  www.openfoam.com                      |
|    \\/     M anipulation  |                                                 |
\*---------------------------------------------------------------------------*/
FoamFile
{
    version     2.0;
    format      ascii;
    arch        "LSB;label=32;scalar=64";
    class       volScalarField;
    location    "18";
    object      epsilon;
}
// * * * * * * * * * * * * * * * * * * * * * * * * * * * * * * * * * * * * * //

dimensions      [0 2 -3 0 0 0 0];

internalField   nonuniform List<scalar> 
28448
(
3.48386e-07
3.66452e-07
3.66456e-07
3.92172e-07
3.48388e-07
3.66454e-07
3.6646e-07
3.92182e-07
3.48386e-07
3.66456e-07
3.66459e-07
3.92187e-07
3.48379e-07
3.6645e-07
3.66448e-07
3.92186e-07
3.48254e-07
3.66335e-07
3.66322e-07
3.92081e-07
3.482e-07
3.66294e-07
3.66301e-07
3.92051e-07
3.48199e-07
3.66294e-07
3.66301e-07
3.9206e-07
3.48199e-07
3.66294e-07
3.66301e-07
3.92059e-07
3.48199e-07
3.66293e-07
3.66301e-07
3.92057e-07
3.48199e-07
3.66294e-07
3.66301e-07
3.92057e-07
3.48199e-07
3.66293e-07
3.66301e-07
3.92057e-07
3.48199e-07
3.66293e-07
3.66301e-07
3.92057e-07
3.48199e-07
3.66293e-07
3.66301e-07
3.92057e-07
3.48199e-07
3.66293e-07
3.66301e-07
3.92057e-07
3.48199e-07
3.66293e-07
3.66301e-07
3.92057e-07
3.48199e-07
3.66293e-07
3.66301e-07
3.92058e-07
3.48199e-07
3.66293e-07
3.66301e-07
3.92058e-07
3.48207e-07
3.66306e-07
3.91956e-07
3.66465e-07
3.66468e-07
3.91949e-07
3.66455e-07
3.66474e-07
3.66452e-07
3.66466e-07
3.91967e-07
3.66456e-07
3.66456e-07
3.91964e-07
3.92169e-07
3.9197e-07
3.66465e-07
3.66468e-07
3.66464e-07
3.66467e-07
3.92163e-07
3.91963e-07
3.66455e-07
3.66478e-07
3.66455e-07
3.66477e-07
3.6647e-07
3.66454e-07
3.66469e-07
3.92178e-07
3.91977e-07
3.6646e-07
3.6646e-07
3.66459e-07
3.91974e-07
3.9218e-07
3.91976e-07
3.66468e-07
3.66471e-07
3.66467e-07
3.6647e-07
3.92173e-07
3.91969e-07
3.66459e-07
3.66481e-07
3.66458e-07
3.6648e-07
3.66473e-07
3.66456e-07
3.66471e-07
3.92187e-07
3.91984e-07
3.66463e-07
3.66461e-07
3.66461e-07
3.9198e-07
3.92185e-07
3.91977e-07
3.66471e-07
3.66473e-07
3.66467e-07
3.6647e-07
3.92179e-07
3.91971e-07
3.66461e-07
3.6648e-07
3.66458e-07
3.66475e-07
3.66472e-07
3.66454e-07
3.66467e-07
3.92194e-07
3.91982e-07
3.66462e-07
3.66455e-07
3.66457e-07
3.91981e-07
3.92185e-07
3.91925e-07
3.66465e-07
3.66467e-07
3.66393e-07
3.66395e-07
3.9218e-07
3.91917e-07
3.66456e-07
3.66468e-07
3.66382e-07
3.66368e-07
3.6646e-07
3.66371e-07
3.66359e-07
3.92191e-07
3.91892e-07
3.6645e-07
3.66349e-07
3.66349e-07
3.9189e-07
3.92115e-07
3.91834e-07
3.66356e-07
3.66358e-07
3.6631e-07
3.66312e-07
3.92107e-07
3.91827e-07
3.66346e-07
3.66342e-07
3.663e-07
3.66319e-07
3.66333e-07
3.66295e-07
3.66311e-07
3.92086e-07
3.91844e-07
3.66323e-07
3.66301e-07
3.663e-07
3.91841e-07
3.92044e-07
3.91849e-07
3.66311e-07
3.66314e-07
3.66309e-07
3.66312e-07
3.92038e-07
3.91843e-07
3.66301e-07
3.66321e-07
3.66299e-07
3.6632e-07
3.66313e-07
3.66295e-07
3.66311e-07
3.92056e-07
3.91857e-07
3.66303e-07
3.66302e-07
3.66301e-07
3.91855e-07
3.9206e-07
3.91842e-07
3.66311e-07
3.66314e-07
3.66308e-07
3.66311e-07
3.92053e-07
3.91835e-07
3.66302e-07
3.66321e-07
3.66299e-07
3.66319e-07
3.66313e-07
3.66294e-07
3.6631e-07
3.92065e-07
3.91852e-07
3.66303e-07
3.66301e-07
3.663e-07
3.9185e-07
3.92051e-07
3.91846e-07
3.6631e-07
3.66313e-07
3.66308e-07
3.66311e-07
3.92045e-07
3.91839e-07
3.66301e-07
3.66321e-07
3.66299e-07
3.66319e-07
3.66312e-07
3.66294e-07
3.6631e-07
3.92062e-07
3.91852e-07
3.66302e-07
3.66301e-07
3.663e-07
3.91849e-07
3.92054e-07
3.91847e-07
3.6631e-07
3.66313e-07
3.66308e-07
3.66311e-07
3.92047e-07
3.9184e-07
3.66301e-07
3.66321e-07
3.66299e-07
3.66319e-07
3.66312e-07
3.66294e-07
3.6631e-07
3.92061e-07
3.91854e-07
3.66302e-07
3.66301e-07
3.663e-07
3.9185e-07
3.92055e-07
3.91847e-07
3.6631e-07
3.66313e-07
3.66308e-07
3.66311e-07
3.92049e-07
3.9184e-07
3.66301e-07
3.66321e-07
3.66299e-07
3.66319e-07
3.66312e-07
3.66294e-07
3.6631e-07
3.92063e-07
3.91854e-07
3.66302e-07
3.66301e-07
3.663e-07
3.91851e-07
3.92056e-07
3.91847e-07
3.6631e-07
3.66313e-07
3.66308e-07
3.66311e-07
3.9205e-07
3.9184e-07
3.66301e-07
3.66321e-07
3.66299e-07
3.66319e-07
3.66312e-07
3.66294e-07
3.6631e-07
3.92063e-07
3.91854e-07
3.66302e-07
3.66301e-07
3.663e-07
3.91851e-07
3.92056e-07
3.91847e-07
3.6631e-07
3.66313e-07
3.66308e-07
3.66311e-07
3.92049e-07
3.9184e-07
3.66301e-07
3.66321e-07
3.66299e-07
3.66319e-07
3.66312e-07
3.66294e-07
3.6631e-07
3.92063e-07
3.91854e-07
3.66302e-07
3.66301e-07
3.663e-07
3.91851e-07
3.92056e-07
3.91847e-07
3.6631e-07
3.66313e-07
3.66308e-07
3.66311e-07
3.9205e-07
3.9184e-07
3.66301e-07
3.66321e-07
3.66299e-07
3.66319e-07
3.66312e-07
3.66294e-07
3.6631e-07
3.92063e-07
3.91855e-07
3.66302e-07
3.66301e-07
3.663e-07
3.91851e-07
3.92056e-07
3.91847e-07
3.6631e-07
3.66313e-07
3.66308e-07
3.66311e-07
3.92049e-07
3.9184e-07
3.66301e-07
3.66321e-07
3.66299e-07
3.66319e-07
3.66312e-07
3.66294e-07
3.6631e-07
3.92063e-07
3.91854e-07
3.66302e-07
3.66301e-07
3.663e-07
3.9185e-07
3.92056e-07
3.91847e-07
3.6631e-07
3.66313e-07
3.66308e-07
3.66311e-07
3.9205e-07
3.9184e-07
3.66301e-07
3.66321e-07
3.66299e-07
3.66319e-07
3.66312e-07
3.66294e-07
3.6631e-07
3.92063e-07
3.91855e-07
3.66302e-07
3.66301e-07
3.663e-07
3.91851e-07
3.92056e-07
3.91847e-07
3.6631e-07
3.66313e-07
3.66308e-07
3.66311e-07
3.92049e-07
3.9184e-07
3.66301e-07
3.66321e-07
3.66299e-07
3.66319e-07
3.66312e-07
3.66294e-07
3.6631e-07
3.92063e-07
3.91855e-07
3.66302e-07
3.66301e-07
3.663e-07
3.91851e-07
3.92056e-07
3.91847e-07
3.6631e-07
3.66313e-07
3.66311e-07
3.9205e-07
3.66301e-07
3.66321e-07
3.66299e-07
3.66319e-07
3.66312e-07
3.66313e-07
3.92064e-07
3.91854e-07
3.66302e-07
3.66302e-07
3.66303e-07
3.91851e-07
3.92061e-07
3.66301e-07
3.66321e-07
3.92063e-07
3.48386e-07
3.48388e-07
3.48388e-07
3.48387e-07
1.61901e-06
8.35485e-06
1.61934e-06
8.35427e-06
2.46049e-05
2.46022e-05
1.61892e-06
8.35594e-06
1.61927e-06
8.35534e-06
3.48388e-07
3.48393e-07
3.48392e-07
3.48389e-07
3.48386e-07
3.48391e-07
3.4839e-07
5.85328e-07
1.30155e-06
3.53731e-07
3.66455e-07
5.85443e-07
1.301e-06
3.53735e-07
2.46041e-05
2.46017e-05
5.85356e-07
3.53733e-07
1.30152e-06
3.6646e-07
5.85474e-07
3.53737e-07
1.30099e-06
2.69435e-06
2.69492e-06
3.91968e-07
2.69396e-06
2.69454e-06
1.61895e-06
8.3544e-06
1.61943e-06
8.35393e-06
2.46003e-05
2.45992e-05
1.61881e-06
8.3555e-06
1.61924e-06
8.355e-06
3.48387e-07
3.48391e-07
3.4839e-07
3.48387e-07
3.48385e-07
3.48388e-07
3.48387e-07
5.85345e-07
1.30165e-06
3.53735e-07
3.66458e-07
5.85467e-07
1.30107e-06
3.53738e-07
2.46005e-05
2.45994e-05
5.85375e-07
3.53736e-07
1.30159e-06
3.66463e-07
5.85498e-07
3.53738e-07
1.30103e-06
2.69448e-06
2.69506e-06
3.91977e-07
2.69408e-06
2.69467e-06
1.61893e-06
8.3542e-06
1.61938e-06
8.3538e-06
2.45993e-05
2.45989e-05
1.61879e-06
8.35528e-06
1.61919e-06
8.35485e-06
3.48385e-07
3.48388e-07
3.48387e-07
3.48383e-07
3.48381e-07
3.4838e-07
3.4838e-07
5.85338e-07
1.30167e-06
3.53732e-07
3.66457e-07
5.85466e-07
1.30107e-06
3.53731e-07
2.46e-05
2.45999e-05
5.85361e-07
3.53732e-07
1.30159e-06
3.66459e-07
5.85494e-07
3.53731e-07
1.30102e-06
2.69454e-06
2.69512e-06
3.91981e-07
2.69406e-06
2.69465e-06
1.61929e-06
8.35466e-06
1.61946e-06
8.3555e-06
2.46011e-05
2.46026e-05
1.61917e-06
8.35573e-06
1.6193e-06
8.35656e-06
3.48378e-07
3.48372e-07
3.48371e-07
3.48296e-07
3.48293e-07
3.48258e-07
3.48257e-07
5.85368e-07
1.30176e-06
3.53721e-07
3.66441e-07
5.85493e-07
1.3013e-06
3.53706e-07
2.46033e-05
2.46038e-05
5.85394e-07
3.53719e-07
1.30178e-06
3.66427e-07
5.85523e-07
3.53697e-07
1.30132e-06
2.69483e-06
2.69541e-06
3.91963e-07
2.69454e-06
2.69513e-06
1.61936e-06
8.35788e-06
1.61992e-06
8.35749e-06
2.46037e-05
2.46031e-05
1.6192e-06
8.35897e-06
1.61969e-06
8.35856e-06
3.48253e-07
3.48229e-07
3.48228e-07
3.48202e-07
3.48202e-07
3.48203e-07
3.48201e-07
5.85292e-07
1.30195e-06
3.5359e-07
3.66314e-07
5.85436e-07
1.30129e-06
3.53573e-07
2.46044e-05
2.46036e-05
5.85314e-07
3.53583e-07
1.30184e-06
3.6631e-07
5.85464e-07
3.5357e-07
1.30122e-06
2.69471e-06
2.69527e-06
3.91842e-07
2.69417e-06
2.69474e-06
1.61929e-06
8.35778e-06
1.61976e-06
8.35738e-06
2.46035e-05
2.4603e-05
1.61914e-06
8.35888e-06
1.61955e-06
8.35847e-06
3.48203e-07
3.48205e-07
3.48204e-07
3.482e-07
3.48201e-07
3.48203e-07
3.48202e-07
5.85286e-07
1.30184e-06
3.53559e-07
3.66296e-07
5.85411e-07
1.30124e-06
3.53561e-07
2.46042e-05
2.46035e-05
5.85309e-07
3.5356e-07
1.30177e-06
3.66304e-07
5.85438e-07
3.53563e-07
1.30119e-06
2.69457e-06
2.69514e-06
3.91851e-07
2.69413e-06
2.69471e-06
1.61929e-06
8.35774e-06
1.61975e-06
8.35737e-06
2.46034e-05
2.4603e-05
1.61914e-06
8.35885e-06
1.61955e-06
8.35845e-06
3.48203e-07
3.48205e-07
3.48204e-07
3.48199e-07
3.48201e-07
3.48202e-07
3.48201e-07
5.85286e-07
1.30184e-06
3.53558e-07
3.66296e-07
5.85413e-07
1.30124e-06
3.5356e-07
2.46042e-05
2.46035e-05
5.85312e-07
3.5356e-07
1.30176e-06
3.66303e-07
5.85441e-07
3.53562e-07
1.30119e-06
2.69456e-06
2.69514e-06
3.91847e-07
2.69412e-06
2.69471e-06
1.61929e-06
8.35774e-06
1.61975e-06
8.35737e-06
2.46034e-05
2.4603e-05
1.61914e-06
8.35885e-06
1.61954e-06
8.35845e-06
3.48203e-07
3.48205e-07
3.48204e-07
3.48199e-07
3.48201e-07
3.48202e-07
3.48201e-07
5.85287e-07
1.30184e-06
3.53558e-07
3.66296e-07
5.85413e-07
1.30124e-06
3.5356e-07
2.46042e-05
2.46035e-05
5.85308e-07
3.53559e-07
1.30176e-06
3.66303e-07
5.85434e-07
3.53561e-07
1.30119e-06
2.69456e-06
2.69514e-06
3.91851e-07
2.69412e-06
2.69471e-06
1.61929e-06
8.35774e-06
1.61975e-06
8.35737e-06
2.46034e-05
2.4603e-05
1.61914e-06
8.35885e-06
1.61954e-06
8.35845e-06
3.48203e-07
3.48205e-07
3.48204e-07
3.48199e-07
3.48201e-07
3.48202e-07
3.48201e-07
5.85286e-07
1.30184e-06
3.53558e-07
3.66295e-07
5.85412e-07
1.30124e-06
3.53561e-07
2.46042e-05
2.46035e-05
5.85308e-07
3.53559e-07
1.30176e-06
3.66303e-07
5.85432e-07
3.53562e-07
1.30119e-06
2.69456e-06
2.69514e-06
3.91851e-07
2.69412e-06
2.69471e-06
1.61929e-06
8.35774e-06
1.61975e-06
8.35737e-06
2.46034e-05
2.4603e-05
1.61914e-06
8.35885e-06
1.61954e-06
8.35845e-06
3.48203e-07
3.48205e-07
3.48204e-07
3.48199e-07
3.48201e-07
3.48202e-07
3.48201e-07
5.85286e-07
1.30184e-06
3.53558e-07
3.66296e-07
5.85412e-07
1.30124e-06
3.5356e-07
2.46042e-05
2.46035e-05
5.85319e-07
3.53559e-07
1.30176e-06
3.66303e-07
5.8544e-07
3.53562e-07
1.30119e-06
2.69456e-06
2.69514e-06
3.9185e-07
2.69412e-06
2.69471e-06
1.61929e-06
8.35774e-06
1.61975e-06
8.35737e-06
2.46034e-05
2.4603e-05
1.61914e-06
8.35885e-06
1.61954e-06
8.35845e-06
3.48203e-07
3.48205e-07
3.48204e-07
3.48199e-07
3.48201e-07
3.48202e-07
3.48201e-07
5.85286e-07
1.30184e-06
3.53558e-07
3.66295e-07
5.85412e-07
1.30124e-06
3.5356e-07
2.46042e-05
2.46035e-05
5.85326e-07
3.53559e-07
1.30176e-06
3.66303e-07
5.8545e-07
3.53562e-07
1.30119e-06
2.69456e-06
2.69514e-06
3.9185e-07
2.69412e-06
2.69471e-06
1.61929e-06
8.35774e-06
1.61975e-06
8.35737e-06
2.46034e-05
2.4603e-05
1.61914e-06
8.35885e-06
1.61954e-06
8.35845e-06
3.48203e-07
3.48205e-07
3.48204e-07
3.48199e-07
3.48201e-07
3.48202e-07
3.48201e-07
5.85286e-07
1.30184e-06
3.53558e-07
3.66296e-07
5.85412e-07
1.30124e-06
3.5356e-07
2.46042e-05
2.46035e-05
5.85328e-07
3.53559e-07
1.30176e-06
3.66303e-07
5.85453e-07
3.53562e-07
1.30119e-06
2.69456e-06
2.69514e-06
3.9185e-07
2.69412e-06
2.69471e-06
1.61929e-06
8.35774e-06
1.61975e-06
8.35737e-06
2.46034e-05
2.4603e-05
1.61914e-06
8.35885e-06
1.61954e-06
8.35845e-06
3.48203e-07
3.48205e-07
3.48204e-07
3.48199e-07
3.48201e-07
3.48202e-07
3.48201e-07
5.85286e-07
1.30184e-06
3.53558e-07
3.66295e-07
5.85412e-07
1.30124e-06
3.5356e-07
2.46042e-05
2.46035e-05
5.85327e-07
3.5356e-07
1.30176e-06
3.66303e-07
5.85455e-07
3.53562e-07
1.30119e-06
2.69456e-06
2.69514e-06
3.9185e-07
2.69412e-06
2.69471e-06
1.61929e-06
8.35774e-06
1.61975e-06
8.35737e-06
2.46034e-05
2.4603e-05
1.61914e-06
8.35885e-06
1.61954e-06
8.35845e-06
3.48203e-07
3.48205e-07
3.48204e-07
3.48199e-07
3.48201e-07
3.48202e-07
3.48201e-07
5.85286e-07
1.30184e-06
3.53558e-07
3.66295e-07
5.85412e-07
1.30124e-06
3.5356e-07
2.46042e-05
2.46035e-05
5.85325e-07
3.53559e-07
1.30176e-06
3.66303e-07
5.85452e-07
3.53562e-07
1.30119e-06
2.69456e-06
2.69514e-06
3.9185e-07
2.69413e-06
2.69471e-06
1.61929e-06
8.35774e-06
1.61975e-06
8.35737e-06
2.46034e-05
2.4603e-05
1.61914e-06
8.35885e-06
1.61955e-06
8.35845e-06
3.48203e-07
3.48205e-07
3.48204e-07
3.48199e-07
3.48201e-07
3.48202e-07
3.48201e-07
5.85286e-07
1.30184e-06
3.53558e-07
3.66295e-07
5.85412e-07
1.30124e-06
3.53561e-07
2.46042e-05
2.46035e-05
5.85324e-07
3.53559e-07
1.30176e-06
3.66303e-07
5.8545e-07
3.53562e-07
1.30119e-06
2.69456e-06
2.69514e-06
3.9185e-07
2.69413e-06
2.69471e-06
1.61929e-06
8.35774e-06
1.61975e-06
8.35737e-06
2.46034e-05
2.4603e-05
1.61914e-06
8.35885e-06
1.61955e-06
8.35845e-06
3.48203e-07
3.48205e-07
3.48204e-07
3.48199e-07
3.48201e-07
3.48202e-07
3.48201e-07
5.85287e-07
1.30184e-06
3.53558e-07
3.66295e-07
5.85412e-07
1.30124e-06
3.5356e-07
2.46042e-05
2.46035e-05
5.85323e-07
3.53559e-07
1.30176e-06
3.66303e-07
5.8545e-07
3.53562e-07
1.30119e-06
2.69456e-06
2.69514e-06
3.9185e-07
2.69413e-06
2.69471e-06
1.61929e-06
8.35774e-06
1.61975e-06
8.35737e-06
2.46034e-05
2.4603e-05
1.61914e-06
8.35885e-06
1.61954e-06
8.35845e-06
3.48203e-07
3.48205e-07
3.48204e-07
3.48201e-07
3.48207e-07
3.48203e-07
3.48205e-07
5.85286e-07
1.30184e-06
3.53558e-07
3.66295e-07
5.85412e-07
1.30124e-06
3.5356e-07
2.46042e-05
2.46035e-05
5.85323e-07
3.5356e-07
1.30176e-06
3.66303e-07
5.85449e-07
3.53562e-07
1.30119e-06
2.69456e-06
2.69513e-06
3.9185e-07
2.69412e-06
2.6947e-06
8.35885e-06
1.61954e-06
3.48208e-07
2.46042e-05
1.30176e-06
2.4604e-05
2.46059e-05
2.69383e-06
2.69444e-06
8.35455e-06
1.61883e-06
8.35522e-06
1.61884e-06
1.30083e-06
3.53734e-07
5.85302e-07
1.30096e-06
3.53734e-07
5.85301e-07
2.46051e-05
2.69437e-06
2.694e-06
2.46022e-05
8.35561e-06
1.61881e-06
1.30113e-06
3.53736e-07
5.85314e-07
1.61918e-06
8.3559e-06
8.35674e-06
1.61893e-06
5.85429e-07
3.66475e-07
3.53736e-07
1.30124e-06
3.53736e-07
1.30177e-06
5.8532e-07
5.85424e-07
1.30093e-06
3.53731e-07
3.5373e-07
5.85312e-07
1.61937e-06
8.35488e-06
1.61898e-06
5.85428e-07
3.66466e-07
3.53734e-07
1.30095e-06
3.53734e-07
1.30144e-06
5.85315e-07
1.61937e-06
8.35566e-06
8.35645e-06
1.61894e-06
2.4604e-05
2.46072e-05
3.92158e-07
2.69467e-06
2.69389e-06
2.69546e-06
2.69444e-06
2.46035e-05
2.46065e-05
5.85453e-07
3.66456e-07
3.53733e-07
1.30094e-06
3.53733e-07
1.30143e-06
5.85336e-07
5.85426e-07
3.66456e-07
3.53734e-07
1.30107e-06
3.53735e-07
1.30157e-06
5.85319e-07
1.6194e-06
8.3558e-06
8.35659e-06
1.61901e-06
1.6192e-06
8.35618e-06
8.35696e-06
1.61893e-06
3.92157e-07
2.69392e-06
2.69449e-06
2.69448e-06
2.69504e-06
2.46037e-05
2.46068e-05
2.46047e-05
2.46078e-05
2.46038e-05
2.4601e-05
2.46057e-05
2.46029e-05
2.6942e-06
2.69482e-06
3.91965e-07
2.69383e-06
2.69444e-06
2.4599e-05
2.4601e-05
2.46009e-05
2.46029e-05
3.92175e-07
2.69391e-06
2.69452e-06
2.69423e-06
2.69485e-06
1.61903e-06
8.35545e-06
1.61933e-06
8.355e-06
5.85322e-07
1.3014e-06
3.53734e-07
3.66464e-07
5.85434e-07
1.3009e-06
3.53734e-07
5.85322e-07
1.30154e-06
3.53734e-07
3.66467e-07
5.85433e-07
1.30103e-06
3.53734e-07
1.61945e-06
8.35406e-06
8.35446e-06
1.619e-06
1.61946e-06
8.35479e-06
8.35519e-06
1.61901e-06
5.85453e-07
3.66463e-07
1.30094e-06
3.53732e-07
1.30146e-06
3.53732e-07
5.85334e-07
5.85453e-07
3.66466e-07
1.30108e-06
3.53732e-07
1.30161e-06
3.53732e-07
5.85334e-07
2.69476e-06
2.69439e-06
3.91958e-07
2.69439e-06
2.69388e-06
2.46023e-05
2.45993e-05
2.46001e-05
2.46022e-05
3.92169e-07
2.69448e-06
2.69402e-06
2.69481e-06
2.69439e-06
2.45972e-05
2.45996e-05
5.85337e-07
1.30173e-06
3.53736e-07
3.66455e-07
5.85445e-07
1.30119e-06
3.53737e-07
1.61891e-06
8.35612e-06
1.61932e-06
8.35567e-06
5.85334e-07
3.5374e-07
1.30184e-06
3.66478e-07
5.85451e-07
3.5374e-07
1.30128e-06
1.61928e-06
8.35514e-06
8.35555e-06
1.61886e-06
5.85464e-07
3.66454e-07
1.30123e-06
3.53736e-07
1.30179e-06
3.53735e-07
5.85346e-07
1.61927e-06
8.3555e-06
8.3559e-06
1.61885e-06
5.85463e-07
3.66477e-07
3.53739e-07
1.30131e-06
3.53739e-07
1.30188e-06
5.85345e-07
1.61905e-06
8.35515e-06
1.61946e-06
8.35468e-06
5.85333e-07
3.53738e-07
1.30152e-06
3.6647e-07
5.85445e-07
3.53738e-07
1.301e-06
1.61903e-06
8.35584e-06
1.61941e-06
8.35542e-06
5.85457e-07
3.66455e-07
1.30104e-06
3.53734e-07
1.30159e-06
3.53734e-07
5.85339e-07
1.61947e-06
8.35449e-06
8.3549e-06
1.61901e-06
5.85461e-07
3.66469e-07
3.53736e-07
1.30103e-06
3.53736e-07
1.30156e-06
5.85346e-07
1.61945e-06
8.35525e-06
8.35562e-06
1.619e-06
2.69513e-06
2.69429e-06
3.91971e-07
2.69472e-06
2.69394e-06
2.46035e-05
2.46012e-05
2.46001e-05
2.4602e-05
3.92181e-07
2.69483e-06
2.69401e-06
2.69523e-06
2.69435e-06
2.45997e-05
2.46013e-05
5.85333e-07
3.53738e-07
1.30164e-06
3.6646e-07
5.85448e-07
3.53738e-07
1.30112e-06
1.61908e-06
8.35599e-06
1.61949e-06
8.35557e-06
1.61891e-06
8.35636e-06
1.61933e-06
8.35594e-06
5.85487e-07
3.6646e-07
3.53736e-07
1.30102e-06
3.53736e-07
1.30155e-06
5.85365e-07
5.85461e-07
3.66459e-07
3.53737e-07
1.30115e-06
3.53737e-07
1.30169e-06
5.85345e-07
1.6195e-06
8.3554e-06
8.35577e-06
1.61903e-06
1.61927e-06
8.35578e-06
8.35614e-06
1.61885e-06
2.46037e-05
2.46014e-05
2.46047e-05
2.46024e-05
3.92179e-07
2.69403e-06
2.69462e-06
2.69437e-06
2.69495e-06
2.45999e-05
2.46015e-05
2.46009e-05
2.46025e-05
2.45992e-05
2.4598e-05
2.46011e-05
2.45999e-05
2.6943e-06
2.69492e-06
3.91973e-07
2.69398e-06
2.69459e-06
2.45976e-05
2.45984e-05
2.45995e-05
2.46003e-05
3.92182e-07
2.694e-06
2.69462e-06
2.69437e-06
2.69499e-06
1.61897e-06
8.355e-06
1.61942e-06
8.35465e-06
5.85345e-07
1.3015e-06
3.53736e-07
3.66468e-07
5.85464e-07
1.30096e-06
3.53736e-07
5.85345e-07
1.30165e-06
3.53736e-07
3.66471e-07
5.85464e-07
1.3011e-06
3.53736e-07
1.61938e-06
8.35383e-06
8.35415e-06
1.61894e-06
1.61939e-06
8.35454e-06
8.35487e-06
1.61895e-06
5.85474e-07
3.66467e-07
1.30096e-06
3.53734e-07
1.30151e-06
3.53735e-07
5.85347e-07
5.85474e-07
3.6647e-07
1.3011e-06
3.53733e-07
1.30166e-06
3.53735e-07
5.85347e-07
2.6949e-06
2.69452e-06
3.91966e-07
2.69456e-06
2.69412e-06
2.45977e-05
2.45962e-05
2.45988e-05
2.45996e-05
3.92176e-07
2.69459e-06
2.69416e-06
2.69497e-06
2.69461e-06
2.45958e-05
2.45968e-05
5.85352e-07
1.30183e-06
3.53739e-07
3.66459e-07
5.85472e-07
1.30126e-06
3.53739e-07
1.61882e-06
8.35575e-06
1.61922e-06
8.35538e-06
5.85351e-07
3.53742e-07
1.3019e-06
3.66481e-07
5.85473e-07
3.53742e-07
1.30132e-06
1.61918e-06
8.35489e-06
8.35525e-06
1.61879e-06
5.85476e-07
3.66458e-07
1.30125e-06
3.53734e-07
1.30184e-06
3.53736e-07
5.8535e-07
1.61919e-06
8.35532e-06
8.35564e-06
1.61881e-06
5.85477e-07
3.6648e-07
3.53737e-07
1.30132e-06
3.53739e-07
1.30191e-06
5.85349e-07
1.61898e-06
8.35473e-06
1.61942e-06
8.35436e-06
5.85353e-07
3.5374e-07
1.30159e-06
3.66473e-07
5.85474e-07
3.5374e-07
1.30104e-06
1.61898e-06
8.35547e-06
1.61942e-06
8.35512e-06
5.8547e-07
3.66457e-07
1.30107e-06
3.53733e-07
1.30165e-06
3.53736e-07
5.85342e-07
1.6194e-06
8.35424e-06
8.35461e-06
1.61897e-06
5.85477e-07
3.66472e-07
3.53735e-07
1.30103e-06
3.53737e-07
1.30159e-06
5.85348e-07
1.6194e-06
8.35505e-06
8.35535e-06
1.61896e-06
2.69532e-06
2.69441e-06
3.9198e-07
2.69489e-06
2.69406e-06
2.46001e-05
2.4599e-05
2.45993e-05
2.46001e-05
3.92189e-07
2.69493e-06
2.69409e-06
2.69537e-06
2.69445e-06
2.4599e-05
2.45996e-05
5.85351e-07
3.53741e-07
1.30171e-06
3.66463e-07
5.85472e-07
3.5374e-07
1.30116e-06
1.61901e-06
8.35562e-06
1.61946e-06
8.35527e-06
1.61883e-06
8.356e-06
1.61922e-06
8.35565e-06
5.85503e-07
3.66462e-07
3.53733e-07
1.30102e-06
3.53735e-07
1.30158e-06
5.85367e-07
5.85475e-07
3.66462e-07
3.53735e-07
1.30116e-06
3.53738e-07
1.30172e-06
5.85346e-07
1.61943e-06
8.35519e-06
8.35549e-06
1.61899e-06
1.6192e-06
8.35557e-06
8.35588e-06
1.61881e-06
2.46003e-05
2.45992e-05
2.46013e-05
2.46003e-05
3.92187e-07
2.69411e-06
2.6947e-06
2.69447e-06
2.69505e-06
2.45992e-05
2.45998e-05
2.46002e-05
2.46008e-05
2.45982e-05
2.45977e-05
2.46001e-05
2.45996e-05
2.69439e-06
2.69502e-06
3.91978e-07
2.69401e-06
2.69463e-06
2.4599e-05
2.45985e-05
2.4601e-05
2.46004e-05
3.92187e-07
2.69401e-06
2.69463e-06
2.69435e-06
2.69498e-06
1.61895e-06
8.35478e-06
1.61937e-06
8.35449e-06
5.85341e-07
1.30151e-06
3.53733e-07
3.6647e-07
5.85473e-07
1.30096e-06
3.53732e-07
5.85342e-07
1.30165e-06
3.53733e-07
3.66473e-07
5.85473e-07
1.30109e-06
3.53731e-07
1.61934e-06
8.35409e-06
8.35407e-06
1.61894e-06
1.61937e-06
8.35473e-06
8.35475e-06
1.61895e-06
5.85466e-07
3.66468e-07
1.301e-06
3.53728e-07
1.3015e-06
3.53729e-07
5.85345e-07
5.85467e-07
3.6647e-07
1.30113e-06
3.53727e-07
1.30165e-06
3.53728e-07
5.85345e-07
2.695e-06
2.69464e-06
3.9197e-07
2.69459e-06
2.69417e-06
2.45966e-05
2.4596e-05
2.46002e-05
2.45996e-05
3.9218e-07
2.69459e-06
2.69421e-06
2.69495e-06
2.69462e-06
2.45975e-05
2.4597e-05
5.85345e-07
1.30184e-06
3.53733e-07
3.66461e-07
5.85472e-07
1.30125e-06
3.53733e-07
1.61879e-06
8.35559e-06
1.61918e-06
8.35537e-06
5.85345e-07
3.53736e-07
1.30191e-06
3.66478e-07
5.85473e-07
3.53735e-07
1.30133e-06
1.61916e-06
8.35512e-06
8.35513e-06
1.61882e-06
5.85469e-07
3.66459e-07
1.30129e-06
3.5373e-07
1.30183e-06
3.53731e-07
5.85356e-07
1.61916e-06
8.356e-06
8.35574e-06
1.61891e-06
5.85471e-07
3.66477e-07
3.53731e-07
1.30145e-06
3.53733e-07
1.30193e-06
5.85361e-07
1.61895e-06
8.35451e-06
1.6194e-06
8.35418e-06
5.85342e-07
3.53734e-07
1.30158e-06
3.6647e-07
5.85471e-07
3.53732e-07
1.30103e-06
1.61895e-06
8.35529e-06
1.61939e-06
8.35508e-06
5.85465e-07
3.66455e-07
1.30112e-06
3.53727e-07
1.30165e-06
3.53729e-07
5.85358e-07
1.61937e-06
8.35436e-06
8.35445e-06
1.61909e-06
5.85468e-07
3.66469e-07
3.53728e-07
1.30116e-06
3.5373e-07
1.3016e-06
5.85362e-07
1.61937e-06
8.3557e-06
8.35541e-06
1.61909e-06
2.69539e-06
2.69448e-06
3.91982e-07
2.69488e-06
2.69404e-06
2.45996e-05
2.45994e-05
2.46019e-05
2.46011e-05
3.9219e-07
2.69509e-06
2.69424e-06
2.69536e-06
2.69444e-06
2.46014e-05
2.46005e-05
5.85339e-07
3.53734e-07
1.30171e-06
3.6646e-07
5.85468e-07
3.53733e-07
1.30116e-06
1.61898e-06
8.35543e-06
1.61943e-06
8.35521e-06
1.61879e-06
8.35581e-06
1.61919e-06
8.3556e-06
5.85491e-07
3.66457e-07
3.53726e-07
1.30115e-06
3.53729e-07
1.30159e-06
5.8538e-07
5.85465e-07
3.66459e-07
3.53728e-07
1.30128e-06
3.53731e-07
1.30173e-06
5.85359e-07
1.6194e-06
8.35582e-06
8.35553e-06
1.61912e-06
1.61916e-06
8.35622e-06
8.35593e-06
1.61893e-06
2.45998e-05
2.45996e-05
2.46008e-05
2.46007e-05
3.9219e-07
2.69427e-06
2.69486e-06
2.69446e-06
2.69504e-06
2.46016e-05
2.46007e-05
2.46026e-05
2.46017e-05
2.46001e-05
2.46015e-05
2.4602e-05
2.46034e-05
2.69449e-06
2.69511e-06
3.91973e-07
2.69437e-06
2.69498e-06
2.46022e-05
2.46024e-05
2.46041e-05
2.46043e-05
3.92177e-07
2.69439e-06
2.695e-06
2.69484e-06
2.69545e-06
1.61928e-06
8.35515e-06
1.61944e-06
8.35602e-06
5.85375e-07
1.3016e-06
3.53726e-07
3.66457e-07
5.8548e-07
1.30121e-06
3.53719e-07
5.85373e-07
1.30174e-06
3.53726e-07
3.6646e-07
5.85479e-07
1.30133e-06
3.53718e-07
1.61985e-06
8.35746e-06
8.35665e-06
1.61948e-06
1.61983e-06
8.35808e-06
8.35717e-06
1.61947e-06
5.85503e-07
3.66434e-07
1.30128e-06
3.53651e-07
1.30182e-06
3.53695e-07
5.85346e-07
5.85501e-07
3.66436e-07
1.30141e-06
3.53651e-07
1.30194e-06
3.53695e-07
5.85344e-07
2.69509e-06
2.69478e-06
3.91965e-07
2.69494e-06
2.69453e-06
2.45989e-05
2.45997e-05
2.46033e-05
2.46036e-05
3.92169e-07
2.69496e-06
2.69455e-06
2.69543e-06
2.69508e-06
2.46004e-05
2.46008e-05
5.85378e-07
1.30193e-06
3.53728e-07
3.66448e-07
5.85488e-07
1.3015e-06
3.53719e-07
1.61928e-06
8.35669e-06
1.61941e-06
8.3581e-06
5.85377e-07
3.53725e-07
1.30211e-06
3.66446e-07
5.85496e-07
3.53706e-07
1.30163e-06
1.61966e-06
8.35853e-06
8.35777e-06
1.6193e-06
5.855e-07
3.66423e-07
1.30157e-06
3.53644e-07
1.30214e-06
3.53688e-07
5.85339e-07
1.61972e-06
8.3589e-06
8.35895e-06
1.61929e-06
5.85496e-07
3.66405e-07
3.53622e-07
1.3016e-06
3.53664e-07
1.30224e-06
5.8533e-07
1.61945e-06
8.35483e-06
1.61965e-06
8.35574e-06
5.85369e-07
3.53721e-07
1.30178e-06
3.66437e-07
5.85495e-07
3.53699e-07
1.30133e-06
1.61945e-06
8.35631e-06
1.61965e-06
8.35786e-06
5.85486e-07
3.66412e-07
1.30136e-06
3.53624e-07
1.30193e-06
3.53664e-07
5.8532e-07
1.61994e-06
8.35776e-06
8.35695e-06
1.61944e-06
5.85485e-07
3.66396e-07
3.53614e-07
1.3013e-06
3.53655e-07
1.3019e-06
5.85322e-07
1.61993e-06
8.35861e-06
8.35866e-06
1.61943e-06
2.69569e-06
2.69476e-06
3.91965e-07
2.69537e-06
2.69451e-06
2.46026e-05
2.46033e-05
2.46038e-05
2.46047e-05
3.92161e-07
2.69516e-06
2.69429e-06
2.69585e-06
2.6949e-06
2.46033e-05
2.46039e-05
5.85366e-07
3.53721e-07
1.30191e-06
3.66427e-07
5.85492e-07
3.53697e-07
1.30146e-06
1.61948e-06
8.35645e-06
1.61968e-06
8.35802e-06
1.61929e-06
8.35685e-06
1.61944e-06
8.35842e-06
5.85517e-07
3.66384e-07
3.53613e-07
1.30129e-06
3.53651e-07
1.30189e-06
5.85341e-07
5.85482e-07
3.66386e-07
3.53613e-07
1.30142e-06
3.53653e-07
1.30204e-06
5.85318e-07
1.61996e-06
8.35876e-06
8.35882e-06
1.61944e-06
1.61972e-06
8.35916e-06
8.35922e-06
1.61927e-06
2.46028e-05
2.46035e-05
2.46039e-05
2.46045e-05
3.92159e-07
2.69433e-06
2.6949e-06
2.69493e-06
2.69551e-06
2.46035e-05
2.46042e-05
2.46045e-05
2.46052e-05
2.46028e-05
2.4602e-05
2.46046e-05
2.46039e-05
2.69471e-06
2.69532e-06
3.91855e-07
2.69413e-06
2.69475e-06
2.46018e-05
2.46025e-05
2.46038e-05
2.46044e-05
3.92054e-07
2.69405e-06
2.69467e-06
2.69449e-06
2.69511e-06
1.61937e-06
8.35838e-06
1.61989e-06
8.35813e-06
5.85302e-07
1.30182e-06
3.53611e-07
3.66332e-07
5.85462e-07
1.3012e-06
3.53585e-07
5.85301e-07
1.30195e-06
3.53611e-07
3.66335e-07
5.85461e-07
1.30133e-06
3.53585e-07
1.61977e-06
8.35742e-06
8.35772e-06
1.61931e-06
1.61978e-06
8.35807e-06
8.35836e-06
1.61931e-06
5.85424e-07
3.66315e-07
1.30115e-06
3.5356e-07
1.30173e-06
3.53566e-07
5.85288e-07
5.85423e-07
3.66318e-07
1.30128e-06
3.53561e-07
1.30187e-06
3.53566e-07
5.85287e-07
2.6953e-06
2.69498e-06
3.91848e-07
2.69471e-06
2.69429e-06
2.46011e-05
2.46002e-05
2.4603e-05
2.46037e-05
3.92047e-07
2.69462e-06
2.69418e-06
2.69508e-06
2.69472e-06
2.46001e-05
2.4601e-05
5.85303e-07
1.30214e-06
3.53606e-07
3.66322e-07
5.85455e-07
1.30149e-06
3.53583e-07
1.6192e-06
8.35917e-06
1.61965e-06
8.35884e-06
5.853e-07
3.53592e-07
1.30217e-06
3.66329e-07
5.85446e-07
3.53575e-07
1.30153e-06
1.61956e-06
8.3585e-06
8.35881e-06
1.61915e-06
5.85423e-07
3.66306e-07
1.30144e-06
3.53561e-07
1.30206e-06
3.53566e-07
5.85292e-07
1.61957e-06
8.35878e-06
8.3591e-06
1.61916e-06
5.85422e-07
3.6632e-07
3.53562e-07
1.3015e-06
3.53564e-07
1.30211e-06
5.85291e-07
1.61935e-06
8.3581e-06
1.61985e-06
8.35784e-06
5.85296e-07
3.53586e-07
1.30184e-06
3.6632e-07
5.85438e-07
3.53571e-07
1.30123e-06
1.61934e-06
8.35885e-06
1.61984e-06
8.35855e-06
5.85415e-07
3.663e-07
1.30125e-06
3.53559e-07
1.30186e-06
3.53562e-07
5.85286e-07
1.61977e-06
8.35777e-06
8.35809e-06
1.61932e-06
5.85419e-07
3.66312e-07
3.5356e-07
1.30121e-06
3.53561e-07
1.30178e-06
5.8529e-07
1.61977e-06
8.35851e-06
8.35879e-06
1.61932e-06
2.69557e-06
2.69463e-06
3.91845e-07
2.69497e-06
2.69414e-06
2.46038e-05
2.46031e-05
2.46035e-05
2.46044e-05
3.92051e-07
2.69493e-06
2.69411e-06
2.69543e-06
2.69452e-06
2.4603e-05
2.46037e-05
5.85293e-07
3.53585e-07
1.30196e-06
3.6631e-07
5.85434e-07
3.53571e-07
1.30135e-06
1.61935e-06
8.35901e-06
1.61985e-06
8.35871e-06
1.61917e-06
8.3594e-06
1.61962e-06
8.3591e-06
5.85441e-07
3.66303e-07
3.5356e-07
1.3012e-06
3.53562e-07
1.30177e-06
5.85309e-07
5.85414e-07
3.66301e-07
3.53561e-07
1.30133e-06
3.53562e-07
1.30191e-06
5.85286e-07
1.61978e-06
8.35866e-06
8.35894e-06
1.61932e-06
1.61953e-06
8.35905e-06
8.35933e-06
1.61914e-06
2.46041e-05
2.46033e-05
2.4605e-05
2.46043e-05
3.92048e-07
2.69414e-06
2.69471e-06
2.69456e-06
2.69512e-06
2.46033e-05
2.46039e-05
2.46042e-05
2.46049e-05
2.46024e-05
2.46018e-05
2.46043e-05
2.46037e-05
2.69443e-06
2.69505e-06
3.91841e-07
2.69403e-06
2.69465e-06
2.46018e-05
2.46024e-05
2.46037e-05
2.46043e-05
3.92053e-07
2.69403e-06
2.69465e-06
2.69442e-06
2.69504e-06
1.6193e-06
8.35831e-06
1.61974e-06
8.35805e-06
5.85286e-07
1.3017e-06
3.53562e-07
3.66311e-07
5.85414e-07
1.30114e-06
3.53561e-07
5.85286e-07
1.30184e-06
3.53562e-07
3.66314e-07
5.85414e-07
1.30127e-06
3.53562e-07
1.61972e-06
8.35737e-06
8.35763e-06
1.61929e-06
1.61973e-06
8.35804e-06
8.35829e-06
1.6193e-06
5.85414e-07
3.66309e-07
1.30114e-06
3.5356e-07
1.30169e-06
3.5356e-07
5.85288e-07
5.85413e-07
3.66312e-07
1.30127e-06
3.5356e-07
1.30183e-06
3.5356e-07
5.85287e-07
2.69502e-06
2.69465e-06
3.91835e-07
2.69461e-06
2.69417e-06
2.46009e-05
2.46001e-05
2.4603e-05
2.46036e-05
3.92047e-07
2.69461e-06
2.69417e-06
2.69502e-06
2.69465e-06
2.46001e-05
2.46009e-05
5.85291e-07
1.30203e-06
3.53562e-07
3.66301e-07
5.85415e-07
1.30143e-06
3.53562e-07
1.61915e-06
8.35905e-06
1.61954e-06
8.35877e-06
5.8529e-07
3.53565e-07
1.30209e-06
3.66321e-07
5.85416e-07
3.53565e-07
1.3015e-06
1.61952e-06
8.35846e-06
8.35873e-06
1.61914e-06
5.85416e-07
3.66299e-07
1.30143e-06
3.5356e-07
1.30202e-06
3.5356e-07
5.85293e-07
1.61954e-06
8.35876e-06
8.35904e-06
1.61915e-06
5.85417e-07
3.6632e-07
3.53563e-07
1.3015e-06
3.53563e-07
1.30209e-06
5.85291e-07
1.61931e-06
8.35804e-06
1.61975e-06
8.35774e-06
5.85291e-07
3.53562e-07
1.30176e-06
3.66313e-07
5.85415e-07
3.53562e-07
1.3012e-06
1.61931e-06
8.35875e-06
1.61975e-06
8.35849e-06
5.85413e-07
3.66296e-07
1.30124e-06
3.53559e-07
1.30182e-06
3.53561e-07
5.85287e-07
1.61975e-06
8.35773e-06
8.35802e-06
1.61931e-06
5.85416e-07
3.66312e-07
3.5356e-07
1.3012e-06
3.53561e-07
1.30176e-06
5.85292e-07
1.61975e-06
8.35849e-06
8.35874e-06
1.61931e-06
2.6954e-06
2.6945e-06
3.91854e-07
2.69492e-06
2.69411e-06
2.46036e-05
2.4603e-05
2.46035e-05
2.46043e-05
3.92065e-07
2.69492e-06
2.69411e-06
2.6954e-06
2.6945e-06
2.4603e-05
2.46036e-05
5.85286e-07
3.53563e-07
1.30189e-06
3.66303e-07
5.8541e-07
3.53563e-07
1.30133e-06
1.61932e-06
8.3589e-06
1.61976e-06