/*--------------------------------*- C++ -*----------------------------------*\
| =========                 |                                                 |
| \\      /  F ield         | OpenFOAM: The Open Source CFD Toolbox           |
|  \\    /   O peration     | Version:  2206                                  |
|   \\  /    A nd           | Website:  www.openfoam.com                      |
|    \\/     M anipulation  |                                                 |
\*---------------------------------------------------------------------------*/
FoamFile
{
    version     2.0;
    format      ascii;
    arch        "LSB;label=32;scalar=64";
    class       volScalarField;
    location    "6";
    object      nut;
}
// * * * * * * * * * * * * * * * * * * * * * * * * * * * * * * * * * * * * * //

dimensions      [0 2 -1 0 0 0 0];

internalField   nonuniform List<scalar> 
28448
(
0.000233215
0.00023197
0.000231968
0.000230121
0.000233186
0.000231933
0.000231936
0.000230052
0.000233207
0.000231948
0.000231948
0.000230075
0.000233207
0.000231949
0.000231948
0.000230075
0.000233208
0.000231948
0.000231948
0.000230075
0.000233208
0.000231948
0.000231948
0.000230075
0.000233208
0.000231948
0.000231948
0.000230075
0.000233208
0.000231948
0.000231948
0.000230075
0.000233208
0.000231948
0.000231948
0.000230075
0.000233208
0.000231948
0.000231948
0.000230075
0.000233208
0.000231948
0.000231948
0.000230075
0.000233208
0.000231948
0.000231948
0.000230075
0.000233208
0.000231948
0.000231948
0.000230075
0.000233208
0.000231948
0.000231948
0.000230075
0.000233208
0.000231948
0.000231948
0.000230075
0.000233208
0.000231948
0.000231948
0.000230075
0.000233208
0.000231948
0.000231948
0.000230075
0.00023321
0.000231951
0.000230148
0.000231969
0.000231969
0.000230149
0.000231969
0.000231967
0.000231971
0.000231968
0.000230143
0.000231969
0.000231969
0.000230143
0.000230131
0.000230106
0.000231969
0.000231968
0.000231944
0.000231943
0.000230127
0.000230107
0.000231969
0.000231966
0.000231944
0.00023193
0.000231967
0.000231943
0.000231931
0.000230122
0.000230081
0.000231968
0.000231933
0.000231931
0.000230082
0.000230055
0.0002301
0.000231933
0.000231932
0.000231946
0.000231945
0.000230056
0.000230101
0.000231933
0.000231935
0.000231946
0.000231946
0.000231936
0.000231947
0.000231947
0.000230054
0.0002301
0.000231936
0.000231948
0.000231947
0.000230099
0.000230084
0.000230098
0.000231947
0.000231947
0.000231947
0.000231947
0.000230085
0.000230099
0.000231947
0.000231947
0.000231948
0.000231946
0.000231947
0.000231949
0.000231947
0.000230083
0.000230098
0.000231948
0.000231948
0.000231948
0.000230098
0.000230081
0.000230098
0.000231948
0.000231948
0.000231947
0.000231947
0.000230082
0.000230099
0.000231948
0.000231947
0.000231948
0.000231946
0.000231948
0.000231949
0.000231947
0.000230081
0.000230098
0.000231948
0.000231948
0.000231948
0.000230098
0.000230081
0.000230098
0.000231948
0.000231948
0.000231947
0.000231947
0.000230082
0.000230099
0.000231948
0.000231947
0.000231948
0.000231946
0.000231948
0.000231949
0.000231947
0.00023008
0.000230098
0.000231948
0.000231948
0.000231948
0.000230098
0.000230081
0.000230098
0.000231948
0.000231948
0.000231947
0.000231947
0.000230082
0.000230099
0.000231948
0.000231947
0.000231948
0.000231946
0.000231948
0.000231949
0.000231947
0.000230081
0.000230098
0.000231948
0.000231948
0.000231948
0.000230098
0.000230081
0.000230098
0.000231948
0.000231948
0.000231947
0.000231947
0.000230082
0.000230099
0.000231948
0.000231947
0.000231948
0.000231946
0.000231948
0.000231949
0.000231947
0.000230081
0.000230098
0.000231948
0.000231948
0.000231948
0.000230098
0.000230081
0.000230098
0.000231948
0.000231948
0.000231947
0.000231947
0.000230082
0.000230099
0.000231948
0.000231947
0.000231948
0.000231946
0.000231948
0.000231949
0.000231947
0.00023008
0.000230098
0.000231948
0.000231948
0.000231948
0.000230098
0.000230081
0.000230098
0.000231948
0.000231948
0.000231947
0.000231947
0.000230082
0.000230099
0.000231948
0.000231947
0.000231948
0.000231946
0.000231948
0.000231949
0.000231947
0.00023008
0.000230098
0.000231948
0.000231948
0.000231948
0.000230098
0.000230081
0.000230098
0.000231948
0.000231948
0.000231947
0.000231947
0.000230082
0.000230099
0.000231948
0.000231947
0.000231948
0.000231946
0.000231948
0.000231949
0.000231947
0.000230081
0.000230098
0.000231948
0.000231948
0.000231948
0.000230098
0.000230081
0.000230098
0.000231948
0.000231948
0.000231947
0.000231947
0.000230082
0.000230099
0.000231948
0.000231947
0.000231948
0.000231946
0.000231948
0.000231949
0.000231947
0.00023008
0.000230098
0.000231948
0.000231948
0.000231948
0.000230098
0.000230081
0.000230098
0.000231948
0.000231948
0.000231947
0.000231947
0.000230082
0.000230099
0.000231948
0.000231947
0.000231948
0.000231946
0.000231948
0.000231949
0.000231947
0.00023008
0.000230098
0.000231948
0.000231948
0.000231948
0.000230098
0.000230081
0.000230098
0.000231948
0.000231948
0.000231947
0.000231947
0.000230082
0.000230099
0.000231948
0.000231947
0.000231948
0.000231946
0.000231948
0.000231949
0.000231947
0.00023008
0.000230098
0.000231948
0.000231948
0.000231948
0.000230098
0.000230081
0.000230098
0.000231948
0.000231948
0.000231947
0.000231947
0.000230082
0.000230099
0.000231948
0.000231947
0.000231948
0.000231946
0.000231948
0.000231949
0.000231947
0.00023008
0.000230098
0.000231948
0.000231948
0.000231948
0.000230098
0.000230081
0.000230098
0.000231948
0.000231948
0.000231947
0.000231947
0.000230082
0.000230099
0.000231948
0.000231947
0.000231948
0.000231946
0.000231948
0.000231949
0.000231947
0.000230081
0.000230098
0.000231948
0.000231948
0.000231948
0.000230098
0.000230081
0.000230098
0.000231948
0.000231948
0.000231947
0.000231947
0.000230082
0.000230099
0.000231948
0.000231947
0.000231948
0.000231946
0.000231948
0.000231949
0.000231947
0.000230081
0.000230097
0.000231948
0.000231948
0.000231948
0.000230098
0.000230081
0.000230101
0.000231948
0.000231948
0.000231948
0.000230082
0.000231948
0.000231947
0.000231948
0.000231946
0.000231948
0.000231948
0.00023008
0.000230098
0.000231948
0.000231948
0.000231949
0.000230105
0.000230095
0.000231949
0.000231947
0.000230078
0.000233215
0.000233215
0.000233215
0.000233214
9.89402e-05
4.26162e-05
9.8923e-05
4.26153e-05
2.41203e-05
2.41193e-05
9.89538e-05
4.26126e-05
9.89418e-05
4.26117e-05
0.000233215
0.000233213
0.000233213
0.000233192
0.000233192
0.000233187
0.000233187
0.000196012
0.000114424
0.000232996
0.000231969
0.000196
0.00011445
0.000232993
2.41186e-05
2.41184e-05
0.000196007
0.000232996
0.000114422
0.000231963
0.000195994
0.000232991
0.000114431
6.41255e-05
6.41135e-05
0.000230136
6.41264e-05
6.41145e-05
9.87288e-05
4.26308e-05
9.88037e-05
4.26373e-05
2.41319e-05
2.41372e-05
9.87368e-05
4.26273e-05
9.88019e-05
4.26336e-05
0.000233188
0.000233195
0.000233195
0.000233206
0.000233206
0.000233208
0.000233207
0.000195818
0.000114302
0.000232974
0.000231937
0.000195814
0.000114238
0.00023298
2.41354e-05
2.41356e-05
0.000195813
0.000232974
0.000114235
0.000231943
0.000195807
0.000232981
0.000114235
6.39683e-05
6.39559e-05
0.000230096
6.39633e-05
6.3951e-05
9.87234e-05
4.26375e-05
9.87082e-05
4.26371e-05
2.41372e-05
2.41372e-05
9.87343e-05
4.26339e-05
9.87218e-05
4.26334e-05
0.000233207
0.000233208
0.000233207
0.000233208
0.000233208
0.000233208
0.000233207
0.000195819
0.000114202
0.000232987
0.000231949
0.000195799
0.000114229
0.000232987
2.41355e-05
2.41354e-05
0.000195815
0.000232987
0.000114209
0.000231948
0.000195794
0.000232987
0.000114234
6.39574e-05
6.39453e-05
0.000230099
6.39643e-05
6.39519e-05
9.87234e-05
4.26374e-05
9.87087e-05
4.26371e-05
2.41373e-05
2.41372e-05
9.87345e-05
4.26339e-05
9.87223e-05
4.26334e-05
0.000233208
0.000233208
0.000233207
0.000233208
0.000233208
0.000233208
0.000233207
0.000195819
0.000114203
0.000232987
0.000231949
0.000195799
0.000114229
0.000232987
2.41355e-05
2.41354e-05
0.000195815
0.000232987
0.000114209
0.000231948
0.000195793
0.000232987
0.000114234
6.39575e-05
6.39454e-05
0.000230099
6.39642e-05
6.3952e-05
9.87234e-05
4.26374e-05
9.87087e-05
4.26371e-05
2.41373e-05
2.41372e-05
9.87345e-05
4.26339e-05
9.87223e-05
4.26334e-05
0.000233208
0.000233208
0.000233208
0.000233208
0.000233208
0.000233208
0.000233207
0.00019582
0.000114203
0.000232987
0.000231949
0.000195799
0.000114229
0.000232987
2.41355e-05
2.41354e-05
0.000195815
0.000232987
0.00011421
0.000231948
0.000195794
0.000232987
0.000114234
6.39574e-05
6.39453e-05
0.000230099
6.39642e-05
6.3952e-05
9.87234e-05
4.26374e-05
9.87087e-05
4.26371e-05
2.41373e-05
2.41372e-05
9.87345e-05
4.26339e-05
9.87223e-05
4.26334e-05
0.000233208
0.000233208
0.000233208
0.000233208
0.000233208
0.000233208
0.000233207
0.000195819
0.000114203
0.000232987
0.000231949
0.000195799
0.000114229
0.000232987
2.41355e-05
2.41354e-05
0.000195816
0.000232987
0.00011421
0.000231948
0.000195794
0.000232987
0.000114234
6.39575e-05
6.39454e-05
0.000230099
6.39643e-05
6.39519e-05
9.87235e-05
4.26374e-05
9.87087e-05
4.26371e-05
2.41373e-05
2.41372e-05
9.87345e-05
4.26339e-05
9.87223e-05
4.26334e-05
0.000233208
0.000233208
0.000233208
0.000233208
0.000233208
0.000233208
0.000233207
0.000195819
0.000114203
0.000232987
0.000231949
0.000195799
0.000114229
0.000232987
2.41355e-05
2.41354e-05
0.000195814
0.000232987
0.000114209
0.000231948
0.000195794
0.000232987
0.000114234
6.39575e-05
6.39455e-05
0.000230099
6.39642e-05
6.3952e-05
9.87235e-05
4.26374e-05
9.87087e-05
4.26371e-05
2.41373e-05
2.41372e-05
9.87345e-05
4.26339e-05
9.87223e-05
4.26334e-05
0.000233208
0.000233208
0.000233208
0.000233208
0.000233208
0.000233208
0.000233207
0.000195819
0.000114203
0.000232987
0.000231949
0.000195798
0.000114229
0.000232987
2.41355e-05
2.41354e-05
0.000195815
0.000232987
0.000114209
0.000231948
0.000195795
0.000232987
0.000114234
6.39575e-05
6.39454e-05
0.000230099
6.39643e-05
6.3952e-05
9.87234e-05
4.26374e-05
9.87087e-05
4.26371e-05
2.41373e-05
2.41372e-05
9.87345e-05
4.26339e-05
9.87223e-05
4.26334e-05
0.000233208
0.000233208
0.000233208
0.000233208
0.000233208
0.000233208
0.000233207
0.000195819
0.000114203
0.000232987
0.000231949
0.000195799
0.000114229
0.000232987
2.41355e-05
2.41354e-05
0.000195815
0.000232987
0.000114209
0.000231948
0.000195796
0.000232987
0.000114234
6.39575e-05
6.39454e-05
0.000230099
6.39642e-05
6.3952e-05
9.87235e-05
4.26374e-05
9.87087e-05
4.26371e-05
2.41373e-05
2.41372e-05
9.87345e-05
4.26339e-05
9.87223e-05
4.26334e-05
0.000233208
0.000233208
0.000233208
0.000233208
0.000233208
0.000233208
0.000233207
0.000195819
0.000114203
0.000232987
0.000231949
0.000195799
0.000114229
0.000232987
2.41355e-05
2.41354e-05
0.000195811
0.000232987
0.000114209
0.000231948
0.000195793
0.000232987
0.000114234
6.39575e-05
6.39453e-05
0.000230099
6.39642e-05
6.3952e-05
9.87235e-05
4.26374e-05
9.87087e-05
4.26371e-05
2.41373e-05
2.41372e-05
9.87345e-05
4.26339e-05
9.87223e-05
4.26334e-05
0.000233208
0.000233208
0.000233208
0.000233208
0.000233208
0.000233208
0.000233207
0.000195819
0.000114203
0.000232987
0.000231949
0.000195799
0.000114229
0.000232987
2.41355e-05
2.41354e-05
0.000195809
0.000232987
0.000114209
0.000231948
0.000195789
0.000232987
0.000114234
6.39575e-05
6.39454e-05
0.000230099
6.39642e-05
6.39519e-05
9.87235e-05
4.26374e-05
9.87087e-05
4.26371e-05
2.41373e-05
2.41372e-05
9.87345e-05
4.26339e-05
9.87223e-05
4.26334e-05
0.000233208
0.000233208
0.000233208
0.000233208
0.000233208
0.000233208
0.000233207
0.000195819
0.000114203
0.000232987
0.000231949
0.000195799
0.000114229
0.000232987
2.41355e-05
2.41354e-05
0.000195809
0.000232987
0.000114209
0.000231948
0.00019579
0.000232987
0.000114234
6.39575e-05
6.39452e-05
0.000230099
6.39643e-05
6.39519e-05
9.87235e-05
4.26374e-05
9.87087e-05
4.26371e-05
2.41373e-05
2.41372e-05
9.87345e-05
4.26339e-05
9.87222e-05
4.26334e-05
0.000233208
0.000233208
0.000233208
0.000233208
0.000233208
0.000233208
0.000233207
0.000195819
0.000114203
0.000232987
0.000231949
0.000195798
0.000114229
0.000232987
2.41355e-05
2.41354e-05
0.000195809
0.000232987
0.000114209
0.000231948
0.000195789
0.000232987
0.000114234
6.39575e-05
6.39452e-05
0.000230099
6.39643e-05
6.39518e-05
9.87235e-05
4.26374e-05
9.87087e-05
4.26371e-05
2.41373e-05
2.41372e-05
9.87345e-05
4.26339e-05
9.87223e-05
4.26334e-05
0.000233208
0.000233208
0.000233208
0.000233208
0.000233208
0.000233208
0.000233207
0.00019582
0.000114203
0.000232987
0.000231949
0.000195799
0.000114229
0.000232987
2.41355e-05
2.41354e-05
0.00019581
0.000232987
0.000114209
0.000231948
0.00019579
0.000232987
0.000114234
6.39575e-05
6.39452e-05
0.000230099
6.39643e-05
6.39519e-05
9.87235e-05
4.26374e-05
9.87087e-05
4.26371e-05
2.41373e-05
2.41372e-05
9.87345e-05
4.26339e-05
9.87223e-05
4.26334e-05
0.000233208
0.000233208
0.000233208
0.000233208
0.000233208
0.000233208
0.000233207
0.00019582
0.000114203
0.000232987
0.000231949
0.000195799
0.000114229
0.000232987
2.41355e-05
2.41354e-05
0.000195809
0.000232987
0.000114209
0.000231948
0.00019579
0.000232987
0.000114234
6.39575e-05
6.39453e-05
0.000230099
6.39643e-05
6.39519e-05
9.87235e-05
4.26374e-05
9.87087e-05
4.26371e-05
2.41373e-05
2.41372e-05
9.87345e-05
4.26339e-05
9.87223e-05
4.26334e-05
0.000233208
0.000233208
0.000233208
0.000233208
0.000233208
0.000233208
0.000233207
0.000195819
0.000114203
0.000232987
0.000231949
0.000195799
0.000114229
0.000232987
2.41355e-05
2.41354e-05
0.000195809
0.000232987
0.000114209
0.000231948
0.00019579
0.000232987
0.000114234
6.39575e-05
6.39453e-05
0.000230099
6.39642e-05
6.3952e-05
9.87233e-05
4.26375e-05
9.87085e-05
4.26371e-05
2.41373e-05
2.41372e-05
9.87344e-05
4.26339e-05
9.87222e-05
4.26334e-05
0.000233208
0.000233208
0.000233208
0.000233208
0.00023321
0.000233208
0.000233208
0.000195819
0.000114203
0.000232987
0.000231949
0.000195799
0.000114229
0.000232987
2.41355e-05
2.41353e-05
0.000195809
0.000232987
0.000114209
0.000231948
0.00019579
0.000232987
0.000114234
6.39573e-05
6.39451e-05
0.000230099
6.3964e-05
6.39517e-05
4.26339e-05
9.8722e-05
0.000233209
2.41355e-05
0.000114217
2.41211e-05
2.41198e-05
6.41275e-05
6.41133e-05
4.2616e-05
9.89363e-05
4.2615e-05
9.89357e-05
0.000114451
0.000232998
0.000196026
0.000114445
0.000232998
0.000196024
2.41206e-05
6.41146e-05
6.41151e-05
2.41208e-05
4.26123e-05
9.89531e-05
0.000114434
0.000232999
0.000196043
9.89199e-05
4.26112e-05
4.26112e-05
9.8937e-05
0.000195996
0.000231968
0.000232997
0.00011442
0.000232998
0.000114372
0.000196024
0.000195996
0.000114449
0.000232998
0.000232998
0.000196019
9.89086e-05
4.26144e-05
9.89288e-05
0.000195995
0.000231969
0.000232997
0.000114443
0.000232998
0.000114399
0.000196021
9.89079e-05
4.26132e-05
4.26133e-05
9.89282e-05
2.41186e-05
2.41199e-05
0.000230129
6.40993e-05
6.41258e-05
6.40873e-05
6.41176e-05
2.41203e-05
2.41214e-05
0.00019599
0.000231969
0.000232997
0.000114445
0.000232998
0.000114401
0.000196016
0.000195996
0.000231969
0.000232997
0.000114434
0.000232998
0.00011439
0.000196022
9.89066e-05
4.2613e-05
4.26131e-05
9.89272e-05
9.89182e-05
4.26125e-05
4.26126e-05
9.89349e-05
0.000230131
6.41263e-05
6.41141e-05
6.41191e-05
6.41073e-05
2.41201e-05
2.41213e-05
2.41194e-05
2.41206e-05
2.41209e-05
2.41204e-05
2.41195e-05
2.41191e-05
6.41293e-05
6.41149e-05
0.000230141
6.41373e-05
6.4123e-05
2.41264e-05
2.41204e-05
2.41254e-05
2.4119e-05
0.000230117
6.40932e-05
6.4078e-05
6.41385e-05
6.4124e-05
9.89372e-05
4.2615e-05
9.89282e-05
4.26153e-05
0.000196027
0.000114435
0.000232997
0.000231967
0.000196014
0.000114453
0.000232996
0.000196026
0.000114428
0.000232997
0.000231967
0.000196009
0.000114446
0.000232996
9.89298e-05
4.26233e-05
4.26153e-05
9.88764e-05
9.89276e-05
4.26221e-05
4.26152e-05
9.88787e-05
0.000196006
0.000231963
0.000114387
0.000232975
0.000114433
0.000232992
0.000195956
0.000196006
0.000231962
0.00011438
0.000232974
0.000114426
0.000232991
0.000195956
6.41161e-05
6.41155e-05
0.000230141
6.41247e-05
6.41251e-05
2.41208e-05
2.41203e-05
2.4126e-05
2.41193e-05
0.000230118
6.40795e-05
6.40833e-05
6.41253e-05
6.41189e-05
2.41262e-05
2.41202e-05
0.000196036
0.000114415
0.000232998
0.000231968
0.000196029
0.000114435
0.000232996
9.89313e-05
4.26112e-05
9.89355e-05
4.26117e-05
0.000196017
0.000232996
0.000114404
0.000231962
0.000196011
0.000232992
0.000114406
9.89446e-05
4.26197e-05
4.26118e-05
9.88736e-05
0.000196011
0.000231963
0.000114369
0.000232973
0.000114412
0.000232991
0.000195938
9.89103e-05
4.2629e-05
4.26133e-05
9.87938e-05
0.000195982
0.000231944
0.000232967
0.000114267
0.000232978
0.000114365
0.00019588
9.89215e-05
4.26144e-05
9.89247e-05
4.26148e-05
0.000196009
0.000232996
0.00011443
0.000231963
0.000196005
0.000232992
0.00011443
9.89209e-05
4.26132e-05
9.89239e-05
4.26138e-05
0.000195975
0.000231963
0.000114375
0.000232969
0.000114426
0.00023298
0.000195867
9.88919e-05
4.26214e-05
4.26148e-05
9.87753e-05
0.000195972
0.000231945
0.000232967
0.000114286
0.000232976
0.00011439
0.000195862
9.8891e-05
4.26312e-05
4.26154e-05
9.87732e-05
6.40984e-05
6.41306e-05
0.000230134
6.40992e-05
6.41267e-05
2.412e-05
2.41203e-05
2.41333e-05
2.41202e-05
0.000230099
6.39779e-05
6.39981e-05
6.40754e-05
6.41093e-05
2.41352e-05
2.41216e-05
0.00019601
0.000232996
0.00011442
0.000231963
0.000196005
0.000232992
0.00011442
9.89194e-05
4.2613e-05
9.89226e-05
4.26136e-05
9.89269e-05
4.26125e-05
9.89331e-05
4.26132e-05
0.000195969
0.000231946
0.000232967
0.000114287
0.000232975
0.000114392
0.00019586
0.000195973
0.000231945
0.000232966
0.000114277
0.000232975
0.00011438
0.000195862
9.8889e-05
4.26311e-05
4.26153e-05
9.87723e-05
9.89024e-05
4.26307e-05
4.26149e-05
9.87758e-05
2.41199e-05
2.41203e-05
2.41192e-05
2.41196e-05
0.000230102
6.39968e-05
6.39844e-05
6.41074e-05
6.40954e-05
2.41352e-05
2.41217e-05
2.41345e-05
2.4121e-05
2.41323e-05
2.4138e-05
2.41312e-05
2.41367e-05
6.40361e-05
6.40211e-05
0.000230086
6.39643e-05
6.39506e-05
2.41379e-05
2.41378e-05
2.41365e-05
2.41364e-05
0.000230073
6.39635e-05
6.39497e-05
6.39632e-05
6.39494e-05
9.87274e-05
4.26296e-05
9.88095e-05
4.26365e-05
0.000195824
0.000114321
0.000232968
0.000231936
0.000195888
0.000114243
0.000232974
0.000195824
0.000114314
0.000232968
0.000231936
0.000195887
0.000114237
0.000232974
9.8717e-05
4.26371e-05
4.26371e-05
9.87234e-05
9.87168e-05
4.26363e-05
4.26363e-05
9.87231e-05
0.000195804
0.000231942
0.000114236
0.000232985
0.000114223
0.000232981
0.000195818
0.000195804
0.000231942
0.000114229
0.000232986
0.000114215
0.000232981
0.000195818
6.40225e-05
6.40242e-05
0.000230086
6.39523e-05
6.3958e-05
2.41324e-05
2.41377e-05
2.41369e-05
2.41369e-05
0.000230073
6.39517e-05
6.39483e-05
6.39503e-05
6.39477e-05
2.41377e-05
2.41375e-05
0.000195823
0.0001143
0.000232969
0.000231937
0.000195874
0.000114224
0.000232975
9.87305e-05
4.26315e-05
9.87487e-05
4.26319e-05
0.000195817
0.000232974
0.000114216
0.000231941
0.000195829
0.00023298
0.000114208
9.87297e-05
4.26335e-05
4.26334e-05
9.8735e-05
0.000195805
0.000231942
0.000114216
0.000232986
0.0001142
0.000232981
0.000195821
9.87261e-05
4.26317e-05
4.26315e-05
9.87309e-05
0.000195802
0.000231945
0.000232987
0.000114208
0.000232985
0.00011419
0.00019582
9.87209e-05
4.26291e-05
9.8732e-05
4.26358e-05
0.000195817
0.000232974
0.000114239
0.000231941
0.000195819
0.000232981
0.000114234
9.87206e-05
4.26336e-05
9.87304e-05
4.2634e-05
0.000195803
0.000231943
0.000114229
0.000232987
0.000114214
0.000232985
0.000195818
9.87147e-05
4.26357e-05
4.26356e-05
9.87222e-05
0.000195802
0.000231946
0.000232987
0.000114232
0.000232986
0.000114217
0.000195819
9.87143e-05
4.26338e-05
4.26336e-05
9.87218e-05
6.39454e-05
6.39704e-05
0.000230095
6.39317e-05
6.39617e-05
2.41366e-05
2.41372e-05
2.41353e-05
2.41352e-05
0.000230081
6.39345e-05
6.39628e-05
6.39268e-05
6.39627e-05
2.41371e-05
2.41367e-05
0.000195818
0.000232974
0.00011423
0.000231942
0.000195819
0.000232981
0.000114224
9.87191e-05
4.26335e-05
9.87292e-05
4.26338e-05
9.87284e-05
4.2633e-05
9.87364e-05
4.26334e-05
0.000195796
0.000231947
0.000232987
0.000114235
0.000232986
0.000114219
0.000195815
0.000195803
0.000231946
0.000232987
0.000114223
0.000232985
0.000114208
0.000195821
9.87126e-05
4.26336e-05
4.26334e-05
9.87204e-05
9.87244e-05
4.26332e-05
4.2633e-05
9.87295e-05
2.41365e-05
2.4137e-05
2.41359e-05
2.41363e-05
0.000230083
6.39638e-05
6.39516e-05
6.39641e-05
6.3952e-05
2.4137e-05
2.41366e-05
2.41363e-05
2.41359e-05
2.41378e-05
2.4138e-05
2.41364e-05
2.41366e-05
6.39647e-05
6.39508e-05
0.000230099
6.39643e-05
6.39506e-05
2.41378e-05
2.41375e-05
2.41365e-05
2.41361e-05
0.000230084
6.3964e-05
6.39509e-05
6.39652e-05
6.39515e-05
9.8723e-05
4.26359e-05
9.8717e-05
4.26363e-05
0.000195821
0.00011422
0.000232987
0.000231947
0.000195804
0.000114235
0.000232987
0.00019582
0.000114213
0.000232987
0.000231947
0.000195804
0.000114229
0.000232987
9.87173e-05
4.2637e-05
4.26367e-05
9.87242e-05
9.87166e-05
4.26362e-05
4.26359e-05
9.87234e-05
0.000195806
0.000231948
0.000114236
0.000232987
0.00011422
0.000232988
0.00019582
0.000195804
0.000231948
0.000114229
0.000232987
0.000114213
0.000232988
0.00019582
6.39515e-05
6.39425e-05
0.000230099
6.39514e-05
6.39499e-05
2.41373e-05
2.41377e-05
2.41369e-05
2.41369e-05
0.000230084
6.39519e-05
6.39516e-05
6.39514e-05
6.39454e-05
2.41376e-05
2.41373e-05
0.000195824
0.000114198
0.000232987
0.000231948
0.000195808
0.000114216
0.000232987
9.87309e-05
4.26313e-05
9.87272e-05
4.26317e-05
0.00019582
0.000232987
0.00011419
0.000231947
0.000195806
0.000232987
0.000114207
9.87305e-05
4.26334e-05
4.2633e-05
9.87357e-05
0.000195808
0.000231948
0.000114216
0.000232987
0.000114199
0.000232988
0.000195823
9.87267e-05
4.26317e-05
4.26313e-05
9.87311e-05
0.000195805
0.000231947
0.000232987
0.000114208
0.000232987
0.00011419
0.00019582
9.87219e-05
4.26353e-05
9.87162e-05
4.26356e-05
0.000195819
0.000232988
0.000114217
0.000231947
0.000195806
0.000232988
0.000114233
9.87215e-05
4.26334e-05
9.87157e-05
4.26339e-05
0.000195805
0.000231949
0.00011423
0.000232988
0.000114212
0.000232988
0.000195818
9.87154e-05
4.26355e-05
4.26352e-05
9.87223e-05
0.000195804
0.000231948
0.000232987
0.000114233
0.000232987
0.000114217
0.000195819
9.8715e-05
4.26338e-05
4.26335e-05
9.87219e-05
6.39304e-05
6.39635e-05
0.000230097
6.39348e-05
6.39628e-05
2.4137e-05
2.41372e-05
2.41352e-05
2.41351e-05
0.000230083
6.39339e-05
6.3963e-05
6.39287e-05
6.39636e-05
2.4137e-05
2.41367e-05
0.00019582
0.000232988
0.000114207
0.000231948
0.000195807
0.000232988
0.000114223
9.87205e-05
4.26332e-05
9.87142e-05
4.26336e-05
9.87296e-05
4.26328e-05
9.87257e-05
4.26333e-05
0.000195799
0.000231949
0.000232988
0.000114235
0.000232988
0.000114219
0.000195815
0.000195805
0.000231948
0.000232987
0.000114223
0.000232987
0.000114207
0.00019582
9.87137e-05
4.26335e-05
4.26332e-05
9.87207e-05
9.87253e-05
4.26332e-05
4.26328e-05
9.87296e-05
2.41368e-05
2.4137e-05
2.41361e-05
2.41363e-05
0.000230085
6.3964e-05
6.39517e-05
6.3965e-05
6.39528e-05
2.41369e-05
2.41365e-05
2.41362e-05
2.41358e-05
2.41377e-05
2.4138e-05
2.41364e-05
2.41366e-05
6.39649e-05
6.39516e-05
0.000230099
6.39643e-05
6.39508e-05
2.41378e-05
2.41375e-05
2.41365e-05
2.41361e-05
0.000230084
6.39643e-05
6.39506e-05
6.39653e-05
6.39515e-05
9.8723e-05
4.26358e-05
9.87172e-05
4.26363e-05
0.000195819
0.00011422
0.000232987
0.000231948
0.000195805
0.000114235
0.000232987
0.000195819
0.000114213
0.000232987
0.000231948
0.000195805
0.000114229
0.000232987
9.87173e-05
4.2637e-05
4.26367e-05
9.87242e-05
9.87166e-05
4.26361e-05
4.26359e-05
9.87234e-05
0.000195805
0.000231948
0.000114236
0.000232987
0.00011422
0.000232987
0.000195821
0.000195804
0.000231948
0.000114229
0.000232987
0.000114213
0.000232987
0.00019582
6.39515e-05
6.39455e-05
0.000230099
6.39513e-05
6.39507e-05
2.41374e-05
2.41377e-05
2.41369e-05
2.41369e-05
0.000230085
6.39519e-05
6.39514e-05
6.39514e-05
6.39441e-05
2.41376e-05
2.41373e-05
0.000195823
0.000114199
0.000232987
0.000231948
0.000195809
0.000114216
0.000232987
9.87309e-05
4.26313e-05
9.87273e-05
4.26318e-05
0.00019582
0.000232987
0.00011419
0.000231947
0.000195806
0.000232987
0.000114207
9.87307e-05
4.26334e-05
4.2633e-05
9.87357e-05
0.000195808
0.000231948
0.000114217
0.000232987
0.000114199
0.000232987
0.000195824
9.87268e-05
4.26317e-05
4.26313e-05
9.8731e-05
0.000195805
0.000231947
0.000232987
0.000114208
0.000232987
0.00011419
0.00019582
9.87219e-05
4.26352e-05
9.87163e-05
4.26356e-05
0.000195819
0.000232987
0.000114217
0.000231948
0.000195805
0.000232987
0.000114233
9.87216e-05
4.26334e-05
9.87157e-05
4.26339e-05
0.000195805
0.000231949
0.00011423
0.000232988
0.000114212
0.000232988
0.000195818
9.87154e-05
4.26355e-05
4.26352e-05
9.87224e-05
0.000195804
0.000231948
0.000232987
0.000114233
0.000232987
0.000114217
0.000195819
9.87151e-05
4.26338e-05
4.26334e-05
9.87221e-05
6.39301e-05
6.39635e-05
0.000230098
6.39348e-05
6.39628e-05
2.41369e-05
2.41371e-05
2.41352e-05
2.41351e-05
0.000230083
6.39339e-05
6.3963e-05
6.39286e-05
6.39636e-05
2.4137e-05
2.41366e-05
0.00019582
0.000232987
0.000114207
0.000231948
0.000195806
0.000232987
0.000114223
9.87205e-05
4.26332e-05
9.87143e-05
4.26337e-05
9.87296e-05
4.26328e-05
9.87257e-05
4.26332e-05
0.000195799
0.000231949
0.000232988
0.000114235
0.000232988
0.000114219
0.000195815
0.000195805
0.000231948
0.000232987
0.000114223
0.000232987
0.000114208
0.000195821
9.87139e-05
4.26336e-05
4.26333e-05
9.87215e-05
9.87253e-05
4.26331e-05
4.26328e-05
9.87297e-05
2.41368e-05
2.4137e-05
2.41361e-05
2.41363e-05
0.000230085
6.3964e-05
6.39516e-05
6.39649e-05
6.39528e-05
2.41369e-05
2.41365e-05
2.41362e-05
2.41358e-05
2.41377e-05
2.4138e-05
2.41364e-05
2.41366e-05
6.39652e-05
6.39513e-05
0.000230099
6.39645e-05
6.39506e-05
2.41378e-05
2.41375e-05
2.41365e-05
2.41361e-05
0.000230084
6.39645e-05
6.39505e-05
6.39655e-05
6.39514e-05
9.8723e-05
4.26358e-05
9.87173e-05
4.26363e-05
0.000195819
0.00011422
0.000232987
0.000231948
0.000195805
0.000114235
0.000232987
0.000195819
0.000114213
0.000232988
0.000231948
0.000195805
0.000114229
0.000232987
9.87173e-05
4.2637e-05
4.26367e-05
9.87242e-05
9.87165e-05
4.26361e-05
4.2636e-05
9.87233e-05
0.000195806
0.000231948
0.000114236
0.000232987
0.00011422
0.000232987
0.000195821
0.000195804
0.000231948
0.000114229
0.000232987
0.000114213
0.000232987
0.00019582
6.39515e-05
6.39461e-05
0.000230099
6.39513e-05
6.39506e-05
2.41374e-05
2.41377e-05
2.41369e-05
2.41369e-05
0.000230085
6.3952e-05
6.39513e-05
6.39514e-05
6.39443e-05
2.41376e-05
2.41373e-05
0.000195822
0.000114199
0.000232988
0.000231948
0.000195809
0.000114216
0.000232987
9.87309e-05
4.26313e-05
9.87272e-05
4.26318e-05
0.00019582
0.000232987
0.00011419
0.000231947
0.000195805
0.000232987
0.000114207
9.87307e-05
4.26334e-05
4.2633e-05
9.87357e-05
0.000195808
0.000231948
0.000114216
0.000232987
0.000114199
0.000232987
0.000195824
9.87268e-05
4.26317e-05
4.26313e-05
9.87311e-05
0.000195805
0.000231947
0.000232987
0.000114208
0.000232987
0.00011419
0.00019582
9.87221e-05
4.26352e-05
9.87164e-05
4.26357e-05
0.00019582
0.000232987
0.000114217
0.000231948
0.000195805
0.000232987
0.000114233
9.87218e-05
4.26334e-05
9.8716e-05
4.26339e-05
0.000195805
0.000231949
0.00011423
0.000232988
0.000114212
0.000232988
0.000195818
9.87156e-05
4.26355e-05
4.26352e-05
9.87225e-05
0.000195805
0.000231948
0.000232987
0.000114233
0.000232987
0.000114217
0.000195819
9.87153e-05
4.26338e-05
4.26335e-05
9.87221e-05
6.39301e-05
6.39636e-05
0.000230098
6.39348e-05
6.39628e-05
2.41369e-05
2.41371e-05
2.41352e-05
2.41351e-05
0.000230084
6.39339e-05
6.3963e-05
6.39286e-05
6.39636e-05
2.4137e-05
2.41366e-05
0.00019582
0.000232987
0.000114207
0.000231948
0.000195806
0.000232987
0.000114223
9.87212e-05
4.26332e-05
9.87154e-05
4.26337e-05
9.87303e-05
4.26327e-05
9.8726e-05
4.26332e-05
0.0001958
0.000231949
0.000232988
0.000114235
0.000232988
0.000114219
0.000195815
0.000195806
0.000231948
0.000232987
0.000114223
0.000232987
0.000114208
0.000195821
9.87146e-05
4.26335e-05
4.26333e-05
9.87218e-05
9.87266e-05
4.26331e-05
4.26328e-05
9.87309e-05
2.41368e-05
2.4137e-05
2.41361e-05
2.41363e-05
0.000230085
6.3964e-05
6.39518e-05
6.39649e-05
6.39529e-05
2.41369e-05
2.41365e-05
2.41362e-05
2.41358e-05
2.41377e-05
2.4138e-05
2.41364e-05
2.41366e-05
6.39653e-05
6.39513e-05
0.000230099
6.39643e-05
6.39507e-05
2.41378e-05
2.41375e-05
2.41365e-05
2.41361e-05
0.000230084
6.39641e-05
6.39507e-05
6.39652e-05
6.39515e-05
9.8723e-05
4.26358e-05
9.87172e-05
4.26363e-05
0.000195819
0.00011422
0.000232987
0.000231948
0.000195805
0.000114235
0.000232987
0.000195819
0.000114213
0.000232987
0.000231948
0.000195804
0.000114229
0.000232987
9.87173e-05
4.2637e-05
4.26367e-05
9.87242e-05
9.87166e-05
4.26361e-05
4.2636e-05
9.87234e-05
0.000195806
0.000231948
0.000114236
0.000232987
0.00011422
0.000232987
0.000195821
0.000195804
0.000231948
0.000114229
0.000232987
0.000114213
0.000232987
0.00019582
6.39515e-05
6.39461e-05
0.000230099
6.39513e-05
6.39506e-05
2.41374e-05
2.41377e-05
2.41369e-05
2.41369e-05
0.000230085
6.3952e-05
6.39514e-05
6.39514e-05
6.39443e-05
2.41376e-05
2.41373e-05
0.000195822
0.000114199
0.000232987
0.000231948
0.000195809
0.000114216
0.000232987
9.87309e-05
4.26313e-05
9.87273e-05
4.26318e-05
0.00019582
0.000232987
0.00011419
0.000231947
0.000195805
0.000232987
0.000114207
9.87307e-05
4.26334e-05
4.2633e-05
9.87357e-05
0.000195808
0.000231948
0.000114217
0.000232987
0.000114199
0.000232987
0.000195824
9.87268e-05
4.26317e-05
4.26313e-05
9.87311e-05
0.000195805
0.000231947
0.000232987
0.000114208
0.000232987
0.00011419
0.00019582
9.87221e-05
4.26352e-05
9.87165e-05
4.26356e-05
0.000195819
0.000232988
0.000114217
0.000231948
0.000195805
0.000232987
0.000114233
9.87218e-05
4.26334e-05
9.8716e-05
4.26339e-05
0.000195805
0.000231949
0.00011423
0.000232988
0.000114212
0.000232988
0.000195818
9.87156e-05
4.26355e-05
4.26352e-05
9.87224e-05
0.000195805
0.000231948
0.000232987
0.000114233
0.000232987
0.000114217
0.000195819
9.87152e-05
4.26338e-05
4.26335e-05
9.8722e-05
6.39301e-05
6.39635e-05
0.000230098
6.39348e-05
6.39628e-05
2.41369e-05
2.41371e-05
2.41352e-05
2.41351e-05
0.000230084
6.39339e-05
6.3963e-05
6.39286e-05
6.39635e-05
2.4137e-05
2.41366e-05