/*--------------------------------*- C++ -*----------------------------------*\
| =========                 |                                                 |
| \\      /  F ield         | OpenFOAM: The Open Source CFD Toolbox           |
|  \\    /   O peration     | Version:  2206                                  |
|   \\  /    A nd           | Website:  www.openfoam.com                      |
|    \\/     M anipulation  |                                                 |
\*---------------------------------------------------------------------------*/
FoamFile
{
    version     2.0;
    format      ascii;
    arch        "LSB;label=32;scalar=64";
    class       surfaceScalarField;
    location    "6";
    object      phi;
}
// * * * * * * * * * * * * * * * * * * * * * * * * * * * * * * * * * * * * * //

dimensions      [0 3 -1 0 0 0 0];

oriented        oriented;

internalField   nonuniform List<scalar> 
82026
(
1.40695e-09
1.31786e-09
-0.0010613
-9.00392e-10
-1.00857e-09
0.0010613
-0.00106198
-1.15837e-06
-1.3158e-09
6.51259e-10
0.00106198
-2.13528e-07
1.16006e-06
2.13405e-07
8.2938e-07
-1.94243e-07
-8.29123e-07
1.93878e-07
-0.00106165
-1.15307e-06
-1.10492e-09
8.66234e-10
0.00106165
-2.1349e-07
1.15469e-06
2.13332e-07
8.29094e-07
-1.96797e-07
-8.29035e-07
1.96487e-07
-0.000261177
1.18602e-06
1.15319e-06
-2.04938e-07
-2.10104e-07
0.000259253
1.01417e-12
3.91401e-11
-0.0010613
-3.50982e-10
-3.48226e-10
0.0010613
-0.00106198
-1.15868e-06
-1.01987e-10
1.43016e-09
0.00106198
-2.13999e-07
1.15981e-06
2.13007e-07
8.29147e-07
-1.95103e-07
-8.29519e-07
1.93196e-07
-0.00106165
-1.15334e-06
-2.70693e-10
1.2861e-09
0.00106165
-2.13896e-07
1.15455e-06
2.13099e-07
8.29004e-07
-1.97533e-07
-8.29356e-07
1.96008e-07
-0.000261177
1.18628e-06
1.15347e-06
-2.05311e-07
-2.10467e-07
0.000259253
5.16981e-10
5.85143e-10
-0.0010613
-5.82488e-10
-5.60941e-10
0.0010613
-0.00106198
-1.15857e-06
-6.26682e-10
1.18361e-09
0.00106198
-2.13795e-07
1.15991e-06
2.13176e-07
8.29252e-07
-1.94672e-07
-8.29397e-07
1.9354e-07
-0.00106165
-1.15327e-06
-6.85342e-10
1.14252e-09
0.00106165
-2.13776e-07
1.15461e-06
2.13191e-07
8.29088e-07
-1.97276e-07
-8.29267e-07
1.96187e-07
-0.000261177
1.18619e-06
1.15338e-06
-2.05194e-07
-2.10338e-07
0.000259253
5.88091e-10
6.3747e-10
-0.0010613
-6.18712e-10
-6.08754e-10
0.0010613
-0.00106198
-1.15855e-06
-6.63887e-10
1.13793e-09
0.00106198
-2.13776e-07
1.15992e-06
2.1319e-07
8.29258e-07
-1.94662e-07
-8.29388e-07
1.93547e-07
-0.00106165
-1.15326e-06
-7.38234e-10
1.13314e-09
0.00106165
-2.1377e-07
1.15462e-06
2.13193e-07
8.29105e-07
-1.97262e-07
-8.29249e-07
1.96202e-07
-0.000261177
1.18618e-06
1.15338e-06
-2.0519e-07
-2.10329e-07
0.000259253
5.84615e-10
6.33049e-10
-0.0010613
-6.1874e-10
-6.02837e-10
0.0010613
-0.00106198
-1.15855e-06
-6.4894e-10
1.14872e-09
0.00106198
-2.1378e-07
1.15992e-06
2.13186e-07
8.29253e-07
-1.94665e-07
-8.29391e-07
1.93543e-07
-0.00106165
-1.15327e-06
-8.31684e-10
1.19063e-09
0.00106165
-2.13788e-07
1.1546e-06
2.13173e-07
8.29151e-07
-1.97229e-07
-8.29201e-07
1.96231e-07
-0.000261177
1.18617e-06
1.15339e-06
-2.05202e-07
-2.10314e-07
0.000259253
5.95289e-10
6.28706e-10
-0.0010613
-6.16382e-10
-6.22975e-10
0.0010613
-0.00106198
-1.15855e-06
-6.50191e-10
1.1325e-09
0.00106198
-2.13778e-07
1.15992e-06
2.13189e-07
8.29255e-07
-1.94664e-07
-8.29391e-07
1.93545e-07
-0.00106165
-1.15327e-06
-7.05289e-10
1.16063e-09
0.00106165
-2.13782e-07
1.15461e-06
2.13185e-07
8.29091e-07
-1.97268e-07
-8.29259e-07
1.96192e-07
-0.000261177
1.18618e-06
1.15339e-06
-2.05196e-07
-2.10329e-07
0.000259253
6.0276e-10
6.24181e-10
-0.0010613
-6.15233e-10
-6.35546e-10
0.0010613
-0.00106198
-1.15855e-06
-6.47823e-10
1.11962e-09
0.00106198
-2.13775e-07
1.15992e-06
2.13192e-07
8.29254e-07
-1.94666e-07
-8.29393e-07
1.93543e-07
-0.00106165
-1.15326e-06
-6.74662e-10
1.1326e-09
0.00106165
-2.13773e-07
1.15462e-06
2.13193e-07
8.29087e-07
-1.97277e-07
-8.29267e-07
1.96186e-07
-0.000261177
1.18619e-06
1.15338e-06
-2.0519e-07
-2.10339e-07
0.000259253
6.08396e-10
6.29154e-10
-0.0010613
-6.19799e-10
-6.41117e-10
0.0010613
-0.00106198
-1.15855e-06
-6.44461e-10
1.11684e-09
0.00106198
-2.13775e-07
1.15992e-06
2.13192e-07
8.29254e-07
-1.94667e-07
-8.29394e-07
1.93544e-07
-0.00106165
-1.15326e-06
-6.71227e-10
1.12665e-09
0.00106165
-2.1377e-07
1.15462e-06
2.13196e-07
8.29088e-07
-1.97278e-07
-8.29267e-07
1.96186e-07
-0.000261177
1.18619e-06
1.15338e-06
-2.05189e-07
-2.1034e-07
0.000259253
6.17684e-10
6.34775e-10
-0.0010613
-6.22931e-10
-6.47037e-10
0.0010613
-0.00106198
-1.15854e-06
-6.483e-10
1.11055e-09
0.00106198
-2.13773e-07
1.15992e-06
2.13194e-07
8.29254e-07
-1.94665e-07
-8.29392e-07
1.93544e-07
-0.00106165
-1.15326e-06
-6.70023e-10
1.12316e-09
0.00106165
-2.13769e-07
1.15462e-06
2.13196e-07
8.29087e-07
-1.97277e-07
-8.29266e-07
1.96186e-07
-0.000261177
1.18619e-06
1.15338e-06
-2.05188e-07
-2.1034e-07
0.000259253
6.20605e-10
6.3552e-10
-0.0010613
-6.21818e-10
-6.47487e-10
0.0010613
-0.00106198
-1.15854e-06
-6.56491e-10
1.10895e-09
0.00106198
-2.13771e-07
1.15993e-06
2.13196e-07
8.29257e-07
-1.94663e-07
-8.2939e-07
1.93546e-07
-0.00106165
-1.15326e-06
-6.773e-10
1.1244e-09
0.00106165
-2.13768e-07
1.15462e-06
2.13198e-07
8.29089e-07
-1.97276e-07
-8.29265e-07
1.96188e-07
-0.000261177
1.18619e-06
1.15338e-06
-2.05186e-07
-2.10337e-07
0.000259253
6.22338e-10
6.43157e-10
-0.0010613
-6.26053e-10
-6.48053e-10
0.0010613
-0.00106198
-1.15854e-06
-6.58878e-10
1.10687e-09
0.00106198
-2.13771e-07
1.15993e-06
2.13195e-07
8.29257e-07
-1.94662e-07
-8.29389e-07
1.93547e-07
-0.00106165
-1.15325e-06
-6.82572e-10
1.118e-09
0.00106165
-2.13767e-07
1.15462e-06
2.13199e-07
8.2909e-07
-1.97274e-07
-8.29263e-07
1.96189e-07
-0.000261177
1.18619e-06
1.15337e-06
-2.05185e-07
-2.10337e-07
0.000259253
6.18679e-10
6.39766e-10
-0.0010613
-6.25899e-10
-6.47341e-10
0.0010613
-0.00106198
-1.15854e-06
-6.51869e-10
1.10874e-09
0.00106198
-2.13772e-07
1.15992e-06
2.13194e-07
8.29255e-07
-1.94664e-07
-8.29391e-07
1.93545e-07
-0.00106165
-1.15325e-06
-6.7711e-10
1.11969e-09
0.00106165
-2.13767e-07
1.15462e-06
2.13198e-07
8.29088e-07
-1.97274e-07
-8.29264e-07
1.96188e-07
-0.000261177
1.18619e-06
1.15338e-06
-2.05187e-07
-2.10338e-07
0.000259253
6.20525e-10
6.34547e-10
-0.0010613
-6.22178e-10
-6.4861e-10
0.0010613
-0.00106198
-1.15854e-06
-6.53538e-10
1.10721e-09
0.00106198
-2.13772e-07
1.15993e-06
2.13194e-07
8.29255e-07
-1.94664e-07
-8.29391e-07
1.93545e-07
-0.00106165
-1.15326e-06
-6.71591e-10
1.12301e-09
0.00106165
-2.13769e-07
1.15462e-06
2.13197e-07
8.29087e-07
-1.97277e-07
-8.29266e-07
1.96186e-07
-0.000261177
1.18619e-06
1.15338e-06
-2.05188e-07
-2.10339e-07
0.000259253
6.07488e-10
6.25721e-10
-0.0010613
-6.16018e-10
-6.4224e-10
0.0010613
-0.00106198
-1.15855e-06
-6.49146e-10
1.1146e-09
0.00106198
-2.13773e-07
1.15992e-06
2.13194e-07
8.29255e-07
-1.94665e-07
-8.29392e-07
1.93544e-07
-0.00106165
-1.15326e-06
-6.68807e-10
1.13015e-09
0.00106165
-2.1377e-07
1.15462e-06
2.13195e-07
8.29087e-07
-1.97277e-07
-8.29266e-07
1.96186e-07
-0.000261177
1.18619e-06
1.15338e-06
-2.05189e-07
-2.1034e-07
0.000259253
6.10296e-10
6.22864e-10
-0.0010613
-6.15359e-10
-6.42967e-10
0.0010613
-0.00106198
-1.15855e-06
-6.41551e-10
1.11353e-09
0.00106198
-2.13775e-07
1.15992e-06
2.13193e-07
8.29252e-07
-1.94668e-07
-8.29396e-07
1.93542e-07
-0.00106165
-1.15326e-06
-6.62564e-10
1.12904e-09
0.00106165
-2.13771e-07
1.15462e-06
2.13194e-07
8.29084e-07
-1.97279e-07
-8.29269e-07
1.96183e-07
-0.000261177
1.18619e-06
1.15338e-06
-2.05191e-07
-2.10342e-07
0.000259253
6.2373e-10
6.22842e-10
-0.0010613
-6.12143e-10
-6.5261e-10
0.0010613
-0.00106198
-1.15854e-06
-6.59205e-10
1.10581e-09
0.00106198
-2.13772e-07
1.15993e-06
2.13197e-07
8.29258e-07
-1.94664e-07
-8.29391e-07
1.93549e-07
-0.00106165
-1.15326e-06
-6.69687e-10
1.13006e-09
0.00106165
-2.1377e-07
1.15462e-06
2.13195e-07
8.29088e-07
-1.97276e-07
-8.29265e-07
1.96187e-07
-0.000261177
1.18619e-06
1.15338e-06
-2.05187e-07
-2.10341e-07
0.000259253
6.75428e-10
6.13194e-10
-0.0010613
-5.98137e-10
-6.90034e-10
0.0010613
-0.00106198
-1.15852e-06
-7.21651e-10
1.06211e-09
0.00106198
-2.13746e-07
1.15993e-06
2.13196e-07
8.29253e-07
-1.94629e-07
-8.29369e-07
1.93526e-07
-0.00106165
-1.15326e-06
-6.91088e-10
1.14999e-09
0.00106165
-2.13771e-07
1.15461e-06
2.1319e-07
8.29091e-07
-1.97274e-07
-8.29257e-07
1.96194e-07
-0.000261177
1.18619e-06
1.15336e-06
-2.05176e-07
-2.10335e-07
0.000259253
9.65197e-10
-0.0010613
-8.6057e-10
-0.00106165
-1.15319e-06
-1.00901e-09
-2.13686e-07
1.15465e-06
2.13236e-07
-1.97113e-07
1.96293e-07
-1.1928e-06
-1.15737e-06
0.000261192
-0.000259258
2.04167e-07
2.11767e-07
0.00106122
-1.07578e-09
9.70415e-10
-1.19129e-06
2.18544e-07
-2.1891e-07
-8.29109e-07
1.93674e-07
-1.9431e-07
8.2931e-07
1.19814e-06
0.00106165
-9.78301e-10
9.51521e-10
-1.19662e-06
2.21288e-07
-2.21647e-07
-8.34598e-07
1.96405e-07
-1.97085e-07
8.34767e-07
-1.15997e-06
0.000261221
-0.000259279
2.06869e-07
2.09135e-07
0.00106224
-1.11041e-09
9.53631e-10
-1.15585e-06
2.16008e-07
-2.16342e-07
-8.31822e-07
1.9644e-07
-1.9707e-07
8.32057e-07
1.19292e-06
0.00106133
-1.30448e-09
-0.00106133
7.82151e-10
-1.19132e-06
2.21377e-07
-2.21581e-07
-8.31724e-07
1.96541e-07
-1.96912e-07
8.32054e-07
-1.21982e-09
9.48987e-10
-1.15841e-06
2.13272e-07
-2.13597e-07
-8.29146e-07
1.93766e-07
8.2939e-07
-1.94347e-07
1.18766e-06
0.00106113
-1.32902e-09
-0.00106113
7.79385e-10
-1.18603e-06
2.15961e-07
-2.16123e-07
-8.29091e-07
1.9383e-07
-1.94192e-07
8.29407e-07
-1.15474e-06
0.000261172
-0.00025924
2.04418e-07
2.11667e-07
-1.39602e-09
-0.00106165
7.64186e-10
-1.1531e-06
2.13385e-07
-2.13545e-07
-8.28927e-07
1.96529e-07
8.29339e-07
-1.96876e-07
1.15483e-06
0.00106215
-1.25947e-09
-0.00106215
7.35592e-10
-1.15321e-06
2.13436e-07
-2.13598e-07
-8.29209e-07
1.96574e-07
-1.96948e-07
8.29549e-07
-0.000259253
2.06718e-07
2.11879e-07
1.19126e-06
1.1558e-06
-2.02532e-07
-2.10134e-07
0.000259258
-1.19264e-06
-1.15721e-06
0.000261192
-0.000259258
2.03861e-07
2.11451e-07
8.07044e-10
0.00106122
-2.1885e-07
1.19288e-06
2.18666e-07
8.29399e-07
-1.94168e-07
-8.29047e-07
1.93854e-07
-1.19659e-06
-1.33975e-09
8.15555e-10
0.00106164
-2.21596e-07
1.1982e-06
2.21402e-07
8.3486e-07
-1.96943e-07
-8.34527e-07
1.96585e-07
0.00106122
-8.95169e-11
-0.00106122
1.43462e-09
-1.19153e-06
2.18231e-07
-2.19284e-07
-8.29552e-07
1.93012e-07
-1.94931e-07
8.29003e-07
1.19796e-06
0.00106165
-2.45422e-11
-0.00106164
1.44278e-09
-1.19688e-06
2.20969e-07
-2.22034e-07
-8.35029e-07
1.95753e-07
-1.97694e-07
8.34471e-07
-2.05202e-07
-2.07491e-07
0.000259278
-1.15979e-06
0.000261221
-0.000259278
2.06551e-07
2.08802e-07
6.58522e-10
0.00106224
-2.1627e-07
1.15746e-06
2.16146e-07
8.32114e-07
-1.96949e-07
-8.31773e-07
1.96593e-07
-1.19131e-06
-1.1447e-09
1.0306e-09
0.00106133
-2.21545e-07
1.19285e-06
2.21304e-07
8.319e-07
-1.96827e-07
-8.31752e-07
1.96511e-07
0.00106224
-4.54116e-12
-0.00106224
1.31716e-09
-1.15606e-06
2.15705e-07
-2.16693e-07
-8.32306e-07
1.95765e-07
-1.97717e-07
8.31726e-07
1.1927e-06
0.00106133
-3.05819e-11
-0.00106133
1.4778e-09
-1.19161e-06
2.21004e-07
-2.22038e-07
-8.32135e-07
1.95838e-07
-1.97737e-07
8.31745e-07
-1.12947e-09
9.96444e-10
0.00106113
-2.16088e-07
1.18759e-06
2.15889e-07
8.29237e-07
-1.94121e-07
1.93782e-07
-8.29135e-07
1.39184e-11
-0.00106198
1.31182e-09
-1.15865e-06
2.12952e-07
-2.13961e-07
-8.29577e-07
1.93055e-07
8.29083e-07
-1.95033e-07
1.18743e-06
0.00106113
-1.17502e-11
-0.00106113
1.47885e-09
-1.18633e-06
2.15585e-07
-2.16581e-07
-8.29509e-07
1.93104e-07
-1.95047e-07
8.291e-07
-2.02622e-07
-2.09906e-07
0.00025924
-1.15452e-06
0.000261172
-0.00025924
2.04079e-07
2.11321e-07
-9.74724e-10
8.50435e-10
0.00106215
-2.13551e-07
1.15478e-06
2.13377e-07
8.29358e-07
-1.96889e-07
1.96506e-07
-8.29263e-07
-5.70233e-12
-0.00106165
1.35157e-09
-1.15337e-06
2.13027e-07
-2.13975e-07
-8.2937e-07
1.95795e-07
8.29019e-07
-1.97747e-07
1.15462e-06
0.00106215
1.0557e-10
-0.00106215
1.35029e-09
-1.15349e-06
2.13075e-07
-2.14034e-07
-8.29658e-07
1.95844e-07
-1.97813e-07
8.29222e-07
-0.000259253
2.06376e-07
2.11531e-07
1.19154e-06
1.1561e-06
-2.02915e-07
-2.10507e-07
0.000259258
-1.19276e-06
-1.1573e-06
0.000261193
-0.000259258
2.04033e-07
2.11652e-07
1.42727e-09
0.00106122
-2.19304e-07
1.19267e-06
2.18295e-07
8.29075e-07
-1.95053e-07
-8.29489e-07
1.93103e-07
-1.19687e-06
4.72535e-11
1.41171e-09
0.00106165
-2.22045e-07
1.198e-06
2.21039e-07
8.34543e-07
-1.97819e-07
-8.34962e-07
1.95844e-07
0.00106122
-4.68467e-10
-0.00106122
1.2096e-09
-1.19144e-06
2.18452e-07
-2.19117e-07
-8.29381e-07
1.93441e-07
-1.94653e-07
8.29159e-07
1.19809e-06
0.00106165
-3.83977e-10
-0.00106165
1.17724e-09
-1.19677e-06
2.21199e-07
-2.21853e-07
-8.34871e-07
1.96174e-07
-1.97424e-07
8.34614e-07
-2.05588e-07
-2.07869e-07
0.000259279
-1.1599e-06
0.000261221
-0.000259279
2.06731e-07
2.09019e-07
1.4283e-09
0.00106225
-2.16741e-07
1.15721e-06
2.15745e-07
8.31834e-07
-1.97811e-07
-8.32196e-07
1.95884e-07
-1.19156e-06
-1.83007e-10
1.29702e-09
0.00106133
-2.21936e-07
1.19275e-06
2.21098e-07
8.31759e-07
-1.97573e-07
-8.32106e-07
1.96002e-07
0.00106225
-5.39396e-10
-0.00106225
1.22677e-09
-1.15601e-06
2.159e-07
-2.16563e-07
-8.32086e-07
1.9622e-07
-1.97402e-07
8.31914e-07
1.19282e-06
0.00106133
-5.14511e-10
-0.00106133
1.12487e-09
-1.19148e-06
2.21192e-07
-2.21813e-07
-8.3204e-07
1.9617e-07
-1.97342e-07
8.31829e-07
-1.97855e-10
1.30443e-09
0.00106113
-2.16487e-07
1.18747e-06
2.15672e-07
8.2912e-07
-1.94868e-07
1.93284e-07
-8.2947e-07
-5.81249e-10
-0.00106198
1.22133e-09
-1.15858e-06
2.13161e-07
-2.13819e-07
-8.29413e-07
1.93528e-07
8.29241e-07
-1.94693e-07
1.18755e-06
0.00106113
-5.50379e-10
-0.00106113
1.1199e-09
-1.18619e-06
2.15775e-07
-2.16355e-07
-8.29405e-07
1.93451e-07
-1.9463e-07
8.29189e-07
-2.02994e-07
-2.10263e-07
0.00025924
-1.15461e-06
0.000261172
-0.00025924
2.04219e-07
2.11488e-07
-9.06501e-11
1.26832e-09
0.00106215
-2.13963e-07
1.15464e-06
2.13139e-07
8.29256e-07
-1.97625e-07
1.96028e-07
-8.296e-07
-6.62003e-10
-0.00106165
1.15409e-09
-1.15328e-06
2.13184e-07
-2.13789e-07
-8.29232e-07
1.9616e-07
8.29132e-07
-1.97306e-07
1.15471e-06
0.00106215
-5.09644e-10
-0.00106215
1.1128e-09
-1.15339e-06
2.13235e-07
-2.13843e-07
-8.29519e-07
1.96203e-07
-1.97379e-07
8.29334e-07
-0.000259253
2.06521e-07
2.11698e-07
1.19143e-06
1.156e-06
-2.02738e-07
-2.10317e-07
0.000259258
-1.19277e-06
-1.15732e-06
0.000261193
-0.000259258
2.04061e-07
2.11671e-07
1.18436e-09
0.00106122
-2.19094e-07
1.19277e-06
2.18467e-07
8.29168e-07
-1.9463e-07
-8.2937e-07
1.93451e-07
-1.19675e-06
-4.50862e-10
1.15681e-09
0.00106165
-2.21834e-07
1.1981e-06
2.2121e-07
8.34631e-07
-1.97401e-07
-8.3485e-07
1.96188e-07
0.00106122
-6.09514e-10
-0.00106122
1.16015e-09
-1.19142e-06
2.18473e-07
-2.19088e-07
-8.2934e-07
1.93478e-07
-1.94601e-07
8.2919e-07
1.1981e-06
0.00106165
-5.25734e-10
-0.00106165
1.13779e-09
-1.19675e-06
2.21216e-07
-2.21827e-07
-8.34829e-07
1.96209e-07
-1.97374e-07
8.34646e-07
-2.05409e-07
-2.07676e-07
0.000259279
-1.15992e-06
0.000261221
-0.000259279
2.06758e-07
2.09033e-07
1.19494e-09
0.00106225
-2.1654e-07
1.15731e-06
2.15915e-07
8.31926e-07
-1.97381e-07
-8.32067e-07
1.96229e-07
-1.19147e-06
-5.48983e-10
1.12996e-09
0.00106133
-2.21803e-07
1.19282e-06
2.21195e-07
8.31839e-07
-1.97331e-07
-8.32026e-07
1.96173e-07
0.00106225
-6.48372e-10
-0.00106225
1.14534e-09
-1.15598e-06
2.15928e-07
-2.16526e-07
-8.32055e-07
1.96248e-07
-1.9736e-07
8.31937e-07
1.19283e-06
0.00106133
-5.88131e-10
-0.00106133
1.11567e-09
-1.19146e-06
2.212e-07
-2.218e-07
-8.32013e-07
1.96187e-07
-1.97316e-07
8.31849e-07
-5.75647e-10
1.1249e-09
0.00106113
-2.16352e-07
1.18755e-06
2.15773e-07
8.29199e-07
-1.94622e-07
1.93456e-07
-8.29392e-07
-6.67554e-10
-0.00106198
1.13884e-09
-1.15855e-06
2.13188e-07
-2.13782e-07
-8.29389e-07
1.93547e-07
8.29257e-07
-1.94661e-07
1.18756e-06
0.00106113
-6.07564e-10
-0.00106113
1.10841e-09
-1.18618e-06
2.15782e-07
-2.16343e-07
-8.29384e-07
1.93463e-07
-1.94609e-07
8.29203e-07
-2.02882e-07
-2.10135e-07
0.00025924
-1.15462e-06
0.000261172
-0.00025924
2.04229e-07
2.11499e-07
-5.25368e-10
1.10892e-09
0.00106215
-2.13839e-07
1.15471e-06
2.13235e-07
8.29343e-07
-1.97372e-07
1.96206e-07
-8.29509e-07
-7.3276e-10
-0.00106165
1.12464e-09
-1.15326e-06
2.13195e-07
-2.13773e-07
-8.29208e-07
1.96177e-07
8.29149e-07
-1.97282e-07
1.15472e-06
0.00106215
-5.77323e-10
-0.00106215
1.09304e-09
-1.15338e-06
2.13242e-07
-2.13831e-07
-8.29496e-07
1.96218e-07
-1.97357e-07
8.29352e-07
-0.000259253
2.06528e-07
2.11708e-07
1.19141e-06
1.15598e-06
-2.02719e-07
-2.10304e-07
0.000259258
-1.19277e-06
-1.15732e-06
0.000261193
-0.000259258
2.0406e-07
2.1167e-07
1.16041e-09
0.00106122
-2.19081e-07
1.19277e-06
2.18475e-07
8.29182e-07
-1.94607e-07
-8.2935e-07
1.93466e-07
-1.19674e-06
-5.23132e-10
1.14109e-09
0.00106165
-2.21823e-07
1.1981e-06
2.21218e-07
8.34646e-07
-1.97379e-07
-8.34829e-07
1.96203e-07
0.00106122
-6.09168e-10
-0.00106122
1.15786e-09
-1.19142e-06
2.18472e-07
-2.19088e-07
-8.29339e-07
1.93477e-07
-1.94601e-07
8.2919e-07
1.1981e-06
0.00106165
-5.22982e-10
-0.00106165
1.14652e-09
-1.19675e-06
2.21214e-07
-2.21829e-07
-8.34829e-07
1.96208e-07
-1.97374e-07
8.34645e-07
-2.0539e-07
-2.07666e-07
0.000259279
-1.15992e-06
0.000261221
-0.000259279
2.06756e-07
2.09031e-07
1.15171e-09
0.00106225
-2.16521e-07
1.15732e-06
2.15928e-07
8.31936e-07
-1.97364e-07
-8.32053e-07
1.9624e-07
-1.19146e-06
-5.79499e-10
1.12001e-09
0.00106133
-2.21794e-07
1.19283e-06
2.21203e-07
8.31846e-07
-1.97321e-07
-8.32015e-07
1.96179e-07
0.00106225
-6.48154e-10
-0.00106225
1.14978e-09
-1.15598e-06
2.15926e-07
-2.16526e-07
-8.32055e-07
1.96247e-07
-1.9736e-07
8.31936e-07
1.19284e-06
0.00106133
-5.58257e-10
-0.00106133
1.08946e-09
-1.19145e-06
2.21211e-07
-2.21788e-07
-8.32018e-07
1.96178e-07
-1.97323e-07
8.31841e-07
-5.93237e-10
1.11526e-09
0.00106113
-2.16345e-07
1.18756e-06
2.15778e-07
8.29204e-07
-1.94616e-07
1.9346e-07
-8.29384e-07
-6.52573e-10
-0.00106198
1.14803e-09
-1.15855e-06
2.13185e-07
-2.13785e-07
-8.2939e-07
1.93544e-07
8.29254e-07
-1.94662e-07
1.18757e-06
0.00106113
-5.69649e-10
-0.00106113
1.08571e-09
-1.18617e-06
2.15791e-07
-2.16333e-07
-8.2939e-07
1.93454e-07
-1.94616e-07
8.29194e-07
-2.02875e-07
-2.10125e-07
0.00025924
-1.1546e-06
0.000261172
-0.00025924
2.04215e-07
2.11517e-07
-5.73878e-10
1.11275e-09
0.00106215
-2.13836e-07
1.15471e-06
2.13235e-07
8.29357e-07
-1.9736e-07
1.96219e-07
-8.29495e-07
-8.31223e-10
-0.00106165
1.16885e-09
-1.15327e-06
2.13176e-07
-2.13786e-07
-8.29152e-07
1.96212e-07
8.29198e-07
-1.97243e-07
1.1547e-06
0.00106215
-6.52081e-10
-0.00106215
1.14934e-09
-1.15339e-06
2.13227e-07
-2.13841e-07
-8.29461e-07
1.9624e-07
-1.97331e-07
8.29382e-07
-0.000259253
2.06516e-07
2.11723e-07
1.19141e-06
1.15598e-06
-2.0272e-07
-2.10305e-07
0.000259258
-1.19277e-06
-1.15732e-06
0.000261193
-0.000259258
2.04061e-07
2.11669e-07
1.15997e-09
0.00106122
-2.19082e-07
1.19277e-06
2.18474e-07
8.29181e-07
-1.94608e-07
-8.29351e-07
1.93465e-07
-1.19675e-06
-5.16689e-10
1.14849e-09
0.00106165
-2.21825e-07
1.1981e-06
2.21215e-07
8.34645e-07
-1.97381e-07
-8.3483e-07
1.96202e-07
0.00106122
-6.18036e-10
-0.00106122
1.16031e-09
-1.19142e-06
2.18472e-07
-2.19087e-07
-8.29338e-07
1.93478e-07
-1.946e-07
8.29191e-07
1.1981e-06
0.00106165
-5.30985e-10
-0.00106165
1.14444e-09
-1.19675e-06
2.21215e-07
-2.21828e-07
-8.34828e-07
1.9621e-07
-1.97373e-07
8.34647e-07
-2.05392e-07
-2.07669e-07
0.000259279
-1.15992e-06
0.000261221
-0.000259279
2.06758e-07
2.09031e-07
1.15808e-09
0.00106225
-2.16523e-07
1.15732e-06
2.15926e-07
8.31934e-07
-1.97365e-07
-8.32054e-07
1.96239e-07
-1.19145e-06
-5.41245e-10
1.09537e-09
0.00106133
-2.21784e-07
1.19284e-06
2.21211e-07
8.31838e-07
-1.97329e-07
-8.32021e-07
1.9617e-07
0.00106225
-6.43997e-10
-0.00106225
1.13847e-09
-1.15598e-06
2.15927e-07
-2.16525e-07
-8.32057e-07
1.96247e-07
-1.97361e-07
8.31935e-07
1.19283e-06
0.00106133
-5.71855e-10
-0.00106133
1.11855e-09
-1.19146e-06
2.21203e-07
-2.21796e-07
-8.32016e-07
1.96182e-07
-1.97323e-07
8.31846e-07
-5.52694e-10
1.08842e-09
0.00106113
-2.16335e-07
1.18757e-06
2.15787e-07
8.29193e-07
-1.94625e-07
1.93449e-07
-8.29392e-07
-6.5435e-10
-0.00106198
1.13829e-09
-1.15855e-06
2.13187e-07
-2.13783e-07
-8.29391e-07
1.93546e-07
8.29254e-07
-1.94662e-07
1.18757e-06
0.00106113
-5.904e-10
-0.00106113
1.09931e-09
-1.18617e-06
2.15789e-07
-2.16334e-07
-8.29389e-07
1.93457e-07
-1.94616e-07
8.29199e-07
-2.02888e-07
-2.1011e-07
0.00025924
-1.15461e-06
0.000261172
-0.00025924
2.04222e-07
2.11501e-07
-6.6334e-10
1.17268e-09
0.00106215
-2.1385e-07
1.15469e-06
2.13218e-07
8.29391e-07
-1.97331e-07
1.96245e-07
-8.29454e-07
-7.51056e-10
-0.00106165
1.1822e-09
-1.15327e-06
2.13181e-07
-2.13788e-07
-8.2919e-07
1.96186e-07
8.2916e-07
-1.97269e-07
1.15471e-06
0.00106215
-6.04001e-10
-0.00106215
1.13266e-09
-1.15339e-06
2.13228e-07
-2.13846e-07
-8.2946e-07
1.9623e-07
-1.97335e-07
8.29367e-07
-0.000259253
2.06521e-07
2.11716e-07
1.19142e-06
1.15598e-06
-2.02719e-07
-2.10307e-07
0.000259258
-1.19277e-06
-1.15733e-06
0.000261193
-0.000259258
2.04061e-07
2.11667e-07
1.16385e-09
0.00106122
-2.19083e-07
1.19277e-06
2.18474e-07
8.29183e-07
-1.94607e-07
-8.2935e-07
1.93467e-07
-1.19675e-06
-5.29783e-10
1.14651e-09
0.00106165
-2.21825e-07
1.1981e-06
2.21216e-07
8.34647e-07
-1.97379e-07
-8.34828e-07
1.96204e-07
0.00106122
-6.23763e-10
-0.00106122
1.16733e-09
-1.19142e-06
2.1847e-07
-2.1909e-07
-8.29339e-07
1.93478e-07
-1.94602e-07
8.29191e-07
1.1981e-06
0.00106165
-5.38133e-10
-0.00106165
1.14842e-09
-1.19675e-06
2.21214e-07
-2.2183e-07
-8.34829e-07
1.9621e-07
-1.97374e-07
8.34648e-07
-2.05391e-07
-2.07669e-07
0.000259279
-1.15992e-06
0.000261221
-0.000259279
2.0676e-07
2.0903e-07
1.14238e-09
0.00106225
-2.16522e-07
1.15732e-06
2.15929e-07
8.31934e-07
-1.97367e-07
-8.32056e-07
1.96239e-07
-1.19146e-06
-5.77234e-10
1.14096e-09
0.00106133
-2.21797e-07
1.19282e-06
2.21199e-07
8.31846e-07
-1.97326e-07
-8.32017e-07
1.96176e-07
0.00106225
-6.33826e-10
-0.00106225
1.12849e-09
-1.15598e-06
2.15928e-07
-2.16526e-07
-8.32061e-07
1.96244e-07
-1.97364e-07
8.31932e-07
1.19282e-06
0.00106133
-5.85399e-10
-0.00106133
1.15517e-09
-1.19147e-06
2.21191e-07
-2.21809e-07
-8.32014e-07
1.96185e-07
-1.9732e-07
8.31849e-07
-5.90268e-10
1.12845e-09
0.00106113
-2.16344e-07
1.18755e-06
2.15777e-07
8.29202e-07
-1.94621e-07
1.93456e-07
-8.29387e-07
-6.48051e-10
-0.00106198
1.12439e-09
-1.15855e-06
2.1319e-07
-2.13782e-07
-8.29394e-07
1.93544e-07
8.29253e-07
-1.94665e-07
1.18755e-06
0.00106113
-6.07884e-10
-0.00106113
1.1426e-09
-1.18619e-06
2.15777e-07
-2.16349e-07
-8.29385e-07
1.93462e-07
-1.94612e-07
8.29204e-07
-2.02881e-07
-2.10129e-07
0.00025924
-1.15462e-06
0.000261172
-0.00025924
2.04229e-07
2.11489e-07
-5.55742e-10
1.12854e-09
0.00106215
-2.13847e-07
1.15471e-06
2.13228e-07
8.29344e-07
-1.97365e-07
1.96211e-07
-8.29503e-07
-6.84002e-10
-0.00106165
1.13382e-09
-1.15326e-06
2.13192e-07
-2.13778e-07
-8.29219e-07
1.96168e-07
8.29139e-07
-1.97292e-07
1.15472e-06
0.00106215
-5.14024e-10
-0.00106215
1.09659e-09
-1.15338e-06
2.13242e-07
-2.13833e-07
-8.29512e-07
1.96207e-07
-1.97368e-07
8.29339e-07
-0.000259253
2.0653e-07
2.11702e-07
1.19142e-06
1.15598e-06
-2.02719e-07
-2.10308e-07
0.000259258
-1.19277e-06
-1.15733e-06
0.000261193
-0.000259258
2.04063e-07
2.11668e-07
1.16641e-09
0.00106122
-2.19084e-07
1.19277e-06
2.18474e-07
8.29184e-07
-1.94608e-07
-8.2935e-07
1.93467e-07
-1.19675e-06
-5.36464e-10
1.14943e-09
0.00106165
-2.21826e-07
1.1981e-06
2.21216e-07
8.34648e-07
-1.9738e-07
-8.34829e-07
1.96205e-07
0.00106122
-6.30844e-10
-0.00106122
1.16531e-09
-1.19142e-06
2.18471e-07
-2.1909e-07
-8.29338e-07
1.9348e-07
-1.946e-07
8.29193e-07
1.1981e-06
0.00106165
-5.48072e-10
-0.00106165
1.1489e-09
-1.19675e-06
2.21214e-07
-2.21831e-07
-8.34827e-07
1.96212e-07
-1.97372e-07
8.3465e-07
-2.0539e-07
-2.0767e-07
0.000259279
-1.15992e-06
0.000261221
-0.000259279
2.06761e-07
2.0903e-07
1.13149e-09
0.00106225
-2.16521e-07
1.15732e-06
2.15931e-07
8.31932e-07
-1.9737e-07
-8.32059e-07
1.96237e-07
-1.19147e-06
-5.81482e-10
1.16679e-09
0.00106133
-2.21807e-07
1.19282e-06
2.21191e-07
8.31847e-07
-1.97324e-07
-8.32016e-07
1.96179e-07
0.00106225
-6.39697e-10
-0.00106225
1.1221e-09
-1.15598e-06
2.15931e-07
-2.16524e-07
-8.3206e-07
1.96246e-07
-1.97364e-07
8.31934e-07
1.19282e-06
0.00106133
-5.93798e-10
-0.00106133
1.16057e-09
-1.19148e-06
2.2119e-07
-2.21811e-07
-8.32012e-07
1.96188e-07
-1.97317e-07
8.31851e-07
-5.99904e-10
1.154e-09
0.00106113
-2.16355e-07
1.18755e-06
2.15769e-07
8.29206e-07
-1.94618e-07
1.9346e-07
-8.29384e-07
-6.47596e-10
-0.00106198
1.11593e-09
-1.15855e-06
2.13191e-07
-2.1378e-07
-8.29395e-07
1.93543e-07
8.29252e-07
-1.94666e-07
1.18755e-06
0.00106113
-6.08568e-10
-0.00106113
1.14838e-09
-1.18619e-06
2.15773e-07
-2.16353e-07
-8.29384e-07
1.93463e-07
-1.94611e-07
8.29205e-07
-2.02876e-07
-2.10138e-07
0.00025924
-1.15462e-06
0.000261172
-0.00025924
2.04232e-07
2.11489e-07
-5.33993e-10
1.10348e-09
0.00106215
-2.13837e-07
1.15471e-06
2.13236e-07
8.29341e-07
-1.97369e-07
1.96208e-07
-8.29499e-07
-6.79594e-10
-0.00106165
1.12291e-09
-1.15326e-06
2.13195e-07
-2.13774e-07
-8.2922e-07
1.96166e-07
8.29138e-07
-1.97294e-07
1.15472e-06
0.00106215
-5.20083e-10
-0.00106215
1.09083e-09
-1.15338e-06
2.13243e-07
-2.13832e-07
-8.29509e-07
1.96206e-07
-1.97368e-07
8.29339e-07
-0.000259253
2.0653e-07
2.117e-07
1.19142e-06
1.15598e-06
-2.02718e-07
-2.10307e-07
0.000259258
-1.19277e-06
-1.15733e-06
0.000261193
-0.000259258
2.04065e-07
2.1167e-07
1.16621e-09
0.00106122
-2.19084e-07
1.19277e-06
2.18474e-07
8.29185e-07
-1.94607e-07
-8.29349e-07
1.93469e-07
-1.19675e-06
-5.42172e-10
1.15224e-09
0.00106165
-2.21827e-07
1.1981e-06
2.21215e-07
8.3465e-07
-1.97378e-07
-8.34827e-07
1.96206e-07
0.00106122
-6.41693e-10
-0.00106122
1.15906e-09
-1.19142e-06
2.18473e-07
-2.19088e-07
-8.29335e-07
1.93483e-07
-1.94597e-07
8.29195e-07
1.1981e-06
0.00106165
-5.55772e-10
-0.00106165
1.14744e-09
-1.19675e-06
2.21215e-07
-2.21829e-07
-8.34825e-07
1.96214e-07
-1.9737e-07
8.34651e-07
-2.05389e-07
-2.07671e-07
0.000259279
-1.15993e-06
0.000261221
-0.000259279
2.06762e-07
2.09031e-07
1.1287e-09
0.00106225
-2.16519e-07
1.15733e-06
2.15932e-07
8.31933e-07
-1.97368e-07
-8.32058e-07
1.96238e-07
-1.19147e-06
-5.89376e-10
1.17069e-09
0.00106133
-2.21808e-07
1.19282e-06
2.21191e-07
8.3185e-07
-1.97321e-07
-8.32013e-07
1.96182e-07
0.00106225
-6.48868e-10
-0.00106225
1.11312e-09
-1.15597e-06
2.15933e-07
-2.16521e-07
-8.32058e-07
1.96247e-07
-1.97362e-07
8.31935e-07
1.19282e-06
0.00106133
-5.98343e-10
-0.00106133
1.16099e-09
-1.19147e-06
2.21191e-07
-2.2181e-07
-8.32011e-07
1.96189e-07
-1.97316e-07
8.31852e-07
-6.01576e-10
1.15939e-09
0.00106113
-2.16357e-07
1.18755e-06
2.15768e-07
8.29207e-07
-1.94617e-07
1.93461e-07
-8.29383e-07
-6.48978e-10
-0.00106198
1.11083e-09
-1.15855e-06
2.13192e-07
-2.13779e-07
-8.29393e-07
1.93544e-07
8.29253e-07
-1.94664e-07
1.18755e-06
0.00106113
-6.08369e-10
-0.00106113
1.15219e-09
-1.18619e-06
2.15773e-07
-2.16352e-07
-8.29383e-07
1.93464e-07
-1.9461e-07
8.29205e-07
-2.02873e-07
-2.10139e-07
0.00025924
-1.15462e-06
0.000261172
-0.00025924
2.04232e-07
2.1149e-07
-5.15933e-10
1.10117e-09
0.00106215
-2.13835e-07
1.15471e-06
2.13238e-07
8.29339e-07
-1.97371e-07
1.96205e-07
-8.29499e-07
-6.7834e-10
-0.00106165
1.11932e-09
-1.15326e-06
2.13196e-07
-2.13774e-07
-8.29218e-07
1.96167e-07
8.29139e-07
-1.97292e-07
1.15472e-06
0.00106215
-5.24226e-10
-0.00106215
1.09206e-09
-1.15338e-06
2.13243e-07
-2.1383e-07
-8.29501e-07
1.96206e-07
-1.97366e-07
8.29338e-07
-0.000259253
2.06531e-07
2.117e-07
1.19142e-06
1.15597e-06
-2.02715e-07
-2.10306e-07
0.000259258
-1.19277e-06
-1.15733e-06
0.000261193
-0.000259258
2.04066e-07
2.11671e-07
1.16054e-09
0.00106122
-2.19082e-07
1.19277e-06
2.18476e-07
8.29187e-07
-1.94604e-07
-8.29347e-07
1.93471e-07
-1.19675e-06
-5.52069e-10
1.14809e-09
0.00106165
-2.21825e-07
1.1981e-06
2.21217e-07
8.34651e-07
-1.97376e-07
-8.34825e-07
1.96208e-07
0.00106122
-6.43615e-10
-0.00106122
1.15929e-09
-1.19142e-06
2.18474e-07
-2.19087e-07
-8.29335e-07
1.93483e-07
-1.94597e-07
8.29195e-07
1.1981e-06
0.00106165
-5.60703e-10
-0.00106165
1.14058e-09
-1.19675e-06
2.21217e-07
-2.21828e-07
-8.34824e-07
1.96216e-07
-1.97369e-07
8.34653e-07
-2.05387e-07
-2.07669e-07
0.000259279
-1.15993e-06
0.000261221
-0.000259279
2.06764e-07
2.09032e-07
1.12079e-09
0.00106225
-2.16517e-07
1.15733e-06
2.15934e-07
8.31934e-07
-1.97367e-07
-8.32056e-07
1.9624e-07
-1.19147e-06
-5.95456e-10
1.16929e-09
0.00106133
-2.21807e-07
1.19282e-06
2.21191e-07
8.3185e-07
-1.9732e-07
-8.32012e-07
1.96182e-07
0.00106225
-6.48563e-10
-0.00106225
1.11317e-09
-1.15597e-06
2.15934e-07
-2.1652e-07
-8.32058e-07
1.96248e-07
-1.97362e-07
8.31936e-07
1.19282e-06
0.00106133
-6.01425e-10
-0.00106133
1.15798e-09
-1.19147e-06
2.21192e-07
-2.2181e-07
-8.3201e-07
1.96191e-07
-1.97315e-07
8.31854e-07
-6.05956e-10
1.15777e-09
0.00106113
-2.16356e-07
1.18755e-06
2.15768e-07
8.29206e-07
-1.94615e-07
1.93461e-07
-8.29382e-07
-6.61137e-10
-0.00106198
1.10553e-09
-1.15855e-06
2.13195e-07
-2.13776e-07
-8.29391e-07
1.93547e-07
8.29256e-07
-1.94663e-07
1.18755e-06
0.00106113
-6.23576e-10
-0.00106113
1.14405e-09
-1.18619e-06
2.15777e-07
-2.1635e-07
-8.29381e-07
1.93467e-07
-1.94608e-07
8.29208e-07
-2.02873e-07
-2.10137e-07
0.00025924
-1.15462e-06
0.000261172
-0.00025924
2.04233e-07
2.1149e-07
-5.11179e-10
1.0972e-09
0.00106215
-2.13834e-07
1.15471e-06
2.13238e-07
8.29337e-07
-1.97373e-07
1.96203e-07
-8.29505e-07
-6.84466e-10
-0.00106165
1.11911e-09
-1.15326e-06
2.13197e-07
-2.13772e-07
-8.29218e-07
1.96168e-07
8.2914e-07
-1.97292e-07
1.15472e-06
0.00106215
-5.34096e-10
-0.00106215
1.08362e-09
-1.15337e-06
2.13246e-07
-2.13829e-07
-8.29499e-07
1.96209e-07
-1.97364e-07
8.29341e-07
-0.000259253
2.06533e-07
2.11702e-07
1.19142e-06
1.15597e-06
-2.02715e-07
-2.10305e-07
0.000259258
-1.19277e-06
-1.15733e-06
0.000261193
-0.000259258
2.04066e-07
2.1167e-07
1.16157e-09
0.00106122
-2.19082e-07
1.19277e-06
2.18476e-07
8.29188e-07
-1.94604e-07
-8.29346e-07
1.93471e-07
-1.19675e-06
-5.52914e-10
1.14519e-09
0.00106165
-2.21824e-07