/*--------------------------------*- C++ -*----------------------------------*\
| =========                 |                                                 |
| \\      /  F ield         | OpenFOAM: The Open Source CFD Toolbox           |
|  \\    /   O peration     | Version:  2206                                  |
|   \\  /    A nd           | Website:  www.openfoam.com                      |
|    \\/     M anipulation  |                                                 |
\*---------------------------------------------------------------------------*/
FoamFile
{
    version     2.0;
    format      ascii;
    arch        "LSB;label=32;scalar=64";
    class       volScalarField;
    location    "33.5";
    object      Ux;
}
// * * * * * * * * * * * * * * * * * * * * * * * * * * * * * * * * * * * * * //

dimensions      [0 1 -1 0 0 0 0];

internalField   nonuniform List<scalar> 
171728
(
0.000107962
-0.000190196
0.000119343
-0.000239477
9.40415e-05
-0.000158786
9.67754e-05
-0.000200894
9.51434e-05
-0.000155644
9.34482e-05
-0.000201505
9.42837e-05
-0.000152622
9.06126e-05
-0.000198136
9.18237e-05
-0.000148385
8.70282e-05
-0.000190902
8.49537e-05
-0.000136135
7.88884e-05
-0.000180075
6.60119e-05
-0.000103991
5.7386e-05
-0.000152085
3.53216e-05
-4.9557e-05
3.1174e-05
-8.99584e-05
1.11574e-05
-1.57311e-05
1.16056e-05
-5.96905e-05
8.70455e-07
-2.48635e-06
2.2542e-06
-4.80469e-05
-7.16237e-07
-6.43462e-07
9.40243e-07
-4.67117e-05
-8.3781e-07
-5.61662e-07
8.62202e-07
-4.66509e-05
-8.41288e-07
-5.6907e-07
8.61951e-07
-4.6652e-05
-8.40961e-07
-5.67674e-07
8.61411e-07
-4.66527e-05
-8.43806e-07
-5.62177e-07
8.612e-07
-4.6653e-05
-8.44389e-07
-5.62043e-07
8.60994e-07
-4.66527e-05
-8.43543e-07
-5.6245e-07
8.60971e-07
-4.66519e-05
-8.43788e-07
-5.61346e-07
8.60912e-07
-4.66519e-05
-8.41401e-07
-5.62328e-07
8.61068e-07
-4.66517e-05
-8.34777e-07
-5.60227e-07
8.62106e-07
-4.66528e-05
-8.30917e-07
-5.66158e-07
8.62757e-07
-4.66515e-05
-8.39853e-07
-5.63134e-07
8.62448e-07
-4.66524e-05
-8.40954e-07
-5.61453e-07
8.61907e-07
-4.66517e-05
-8.41964e-07
-5.61105e-07
8.61603e-07
-4.66519e-05
-8.42504e-07
-5.6035e-07
8.61116e-07
-4.66521e-05
-8.43477e-07
-5.5949e-07
8.60845e-07
-4.66521e-05
-8.44088e-07
-5.59288e-07
8.60836e-07
-4.66523e-05
-8.43655e-07
-5.59812e-07
8.61437e-07
-4.66528e-05
-8.43228e-07
-5.60191e-07
8.61646e-07
-4.6653e-05
-8.42327e-07
-5.60527e-07
8.6215e-07
-4.66538e-05
-8.42621e-07
-5.6071e-07
8.61624e-07
-4.66537e-05
-8.42927e-07
-5.60219e-07
8.62029e-07
-4.66531e-05
-8.42942e-07
-5.5978e-07
8.61473e-07
-4.66531e-05
-8.44012e-07
-5.59002e-07
8.60927e-07
-4.66523e-05
-8.43313e-07
-5.59083e-07
8.61245e-07
-4.66524e-05
-8.43373e-07
-5.59212e-07
8.6128e-07
-4.66527e-05
-8.42834e-07
-5.59619e-07
8.62112e-07
-4.66533e-05
-8.42744e-07
-5.60436e-07
8.62145e-07
-4.66537e-05
-8.42573e-07
-5.60188e-07
8.62287e-07
-4.66537e-05
-8.42949e-07
-5.59347e-07
8.60439e-07
-4.66506e-05
-8.38835e-07
-5.56919e-07
8.60632e-07
-4.66508e-05
-8.46178e-07
-5.59887e-07
8.61184e-07
-4.66536e-05
-8.4374e-07
-5.58918e-07
8.60498e-07
-4.66525e-05
-8.42496e-07
-5.60885e-07
8.61141e-07
-4.66535e-05
-8.41659e-07
-5.6099e-07
8.60626e-07
-4.66534e-05
-8.4014e-07
-5.61798e-07
8.61546e-07
-4.66539e-05
-8.40132e-07
-5.61736e-07
8.61095e-07
-4.66537e-05
-8.40823e-07
-5.61511e-07
8.61054e-07
-4.66538e-05
-8.41092e-07
-5.61262e-07
8.6063e-07
-4.66535e-05
-8.41362e-07
-5.60316e-07
8.60794e-07
-4.6653e-05
-8.41567e-07
-5.61227e-07
8.60925e-07
-4.66534e-05
-8.41358e-07
-5.60866e-07
8.61011e-07
-4.66534e-05
-8.402e-07
-5.6201e-07
8.61594e-07
-4.66541e-05
-8.39311e-07
-5.61397e-07
8.62075e-07
-4.66538e-05
-8.38234e-07
-5.62042e-07
8.62124e-07
-4.66535e-05
-8.40575e-07
-5.62179e-07
8.61148e-07
-4.66544e-05
-8.40251e-07
-5.62974e-07
8.61355e-07
-4.66558e-05
-8.40229e-07
-5.63355e-07
8.61702e-07
-4.66563e-05
-8.40192e-07
-5.6287e-07
8.61834e-07
-4.66561e-05
-8.39414e-07
-5.63954e-07
8.62483e-07
-4.66564e-05
-8.38951e-07
-5.63809e-07
8.62602e-07
-4.66565e-05
-8.38676e-07
-5.64903e-07
8.62984e-07
-4.6657e-05
-8.38795e-07
-5.64397e-07
8.6316e-07
-4.66568e-05
-8.38784e-07
-5.63589e-07
8.62497e-07
-4.66561e-05
-8.39439e-07
-5.63295e-07
8.62123e-07
-4.66562e-05
-8.40344e-07
-5.62701e-07
8.61857e-07
-4.66553e-05
-8.39466e-07
-5.63393e-07
8.62475e-07
-4.66563e-05
-8.39362e-07
-5.6318e-07
8.62226e-07
-4.66563e-05
-8.38502e-07
-5.64029e-07
8.64459e-07
-4.66579e-05
-8.37926e-07
-5.64387e-07
8.69757e-07
-4.66616e-05
-8.38022e-07
-5.6393e-07
8.66151e-07
-4.66602e-05
-8.3876e-07
-5.63874e-07
8.62878e-07
-4.66566e-05
-8.39781e-07
-5.62927e-07
8.62251e-07
-4.6656e-05
-8.39971e-07
-5.63352e-07
8.61825e-07
-4.66561e-05
-8.39842e-07
-5.62483e-07
8.62181e-07
-4.66562e-05
-8.39171e-07
-5.63958e-07
8.62777e-07
-4.66574e-05
-8.39046e-07
-5.63899e-07
8.62797e-07
-4.66576e-05
-8.38448e-07
-5.64315e-07
8.6381e-07
-4.66577e-05
-8.38601e-07
-5.64555e-07
8.63349e-07
-4.66579e-05
-8.39346e-07
-5.63631e-07
8.62534e-07
-4.66574e-05
-8.39535e-07
-5.63368e-07
8.62561e-07
-4.66571e-05
-8.39963e-07
-5.62872e-07
8.62249e-07
-4.66566e-05
-8.39711e-07
-5.63331e-07
8.62282e-07
-4.66569e-05
-8.39196e-07
-5.63155e-07
8.62562e-07
-4.66573e-05
-8.39028e-07
-5.63206e-07
8.62054e-07
-4.66577e-05
-8.42594e-07
-5.58423e-07
8.57805e-07
-4.66559e-05
-8.52411e-07
-5.47907e-07
8.45786e-07
-4.66411e-05
-8.64864e-07
-5.49111e-07
8.33062e-07
-4.65294e-05
-8.58157e-07
-6.39525e-07
9.26613e-07
-4.64561e-05
-6.63701e-07
-8.88205e-07
1.02297e-06
-4.59803e-05
-6.32473e-07
-1.24214e-06
1.28809e-06
-4.56755e-05
-4.95741e-07
-2.09074e-06
1.90571e-06
-4.42758e-05
-4.43559e-07
-3.72392e-06
3.22135e-06
-4.08739e-05
-5.83496e-06
-2.46861e-06
3.55266e-06
-2.67532e-05
-4.09593e-05
4.22553e-05
-3.38789e-05
4.59739e-05
0.000135048
0.000124253
-0.000124245
-0.000135044
0.000152909
0.000152881
9.07942e-05
-9.07841e-05
9.07686e-05
-9.07661e-05
-0.000152904
-0.00015289
0.000135038
0.000124205
-0.000124201
-0.000135046
0.00023952
0.000111586
0.000119393
-0.000119344
8.92452e-05
-8.92066e-05
-0.00023953
-0.000111547
0.000190232
0.000190171
0.000147407
0.000147441
-0.000190152
-0.000147378
-0.000147398
0.000239451
0.00011154
-0.000119323
8.92206e-05
-8.92002e-05
-0.000111537
0.000200981
0.000106182
9.67817e-05
-9.67546e-05
9.43772e-05
-9.43773e-05
-0.000200944
-0.000106175
0.000158819
0.000158837
0.000156879
0.00015692
-0.000158815
-0.000156876
-0.000156898
0.000200892
0.000106149
-9.67571e-05
9.43791e-05
-9.43852e-05
-0.000106163
0.000201573
9.77259e-05
9.34401e-05
-9.3445e-05
9.18946e-05
-9.18848e-05
-0.00020156
-9.77096e-05
0.000155652
0.000155693
0.000154499
0.000154531
-0.000155675
-0.000154495
-0.000154531
0.000201486
9.76815e-05
-9.34557e-05
9.18966e-05
-9.18869e-05
-9.77392e-05
0.000198166
8.7131e-05
9.06062e-05
-9.05938e-05
8.61609e-05
-8.61528e-05
-0.000198159
-8.71252e-05
0.000152629
0.000152659
0.00014738
0.000147409
-0.00015266
-0.000147375
-0.000147418
0.00019808
8.70958e-05
-9.05979e-05
8.61625e-05
-8.61467e-05
-8.71606e-05
0.000190924
7.82304e-05
8.70223e-05
-8.70136e-05
7.96975e-05
-7.96945e-05
-0.000190915
-7.82203e-05
0.000148394
0.000148422
0.000138054
0.000138082
-0.000148429
-0.00013805
-0.000138098
0.000190832
7.8184e-05
-8.70093e-05
7.96988e-05
-7.96777e-05
-7.82629e-05
0.000180081
5.9693e-05
7.88867e-05
-7.88821e-05
6.78755e-05
-6.78774e-05
-0.000180075
-5.97241e-05
0.000136146
0.000136169
0.00012058
0.000120631
-0.00013618
-0.000120596
-0.000120638
0.000179997
5.97543e-05
-7.88678e-05
6.78391e-05
-6.78043e-05
-5.97002e-05
0.000152106
-1.64166e-06
5.74281e-05
-5.74209e-05
3.5664e-05
-3.56629e-05
-0.000152149
1.62637e-06
0.000103987
0.000104032
5.97204e-05
5.97432e-05
-0.00010405
-5.97238e-05
-5.97347e-05
0.000152085
-1.59294e-06
-5.73621e-05
3.5613e-05
-3.56098e-05
1.61388e-06
8.99657e-05
-3.31331e-05
3.12198e-05
-3.12196e-05
1.62451e-05
-1.62433e-05
-8.99806e-05
3.31439e-05
4.95639e-05
4.95757e-05
2.26575e-05
2.26677e-05
-4.95623e-05
-2.2644e-05
-2.26557e-05
8.99591e-05
-3.31236e-05
-3.11703e-05
1.6205e-05
-1.62048e-05
3.31313e-05
5.97113e-05
-4.70196e-05
1.16428e-05
-1.16416e-05
3.43199e-06
-3.43003e-06
-5.97051e-05
4.70287e-05
1.57441e-05
1.5757e-05
4.06861e-06
4.08549e-06
-1.57505e-05
-4.05968e-06
-4.09174e-06
5.96794e-05
-4.69995e-05
-1.16059e-05
3.39527e-06
-3.39862e-06
4.69961e-05
4.80508e-05
-4.88801e-05
2.28876e-06
-2.28463e-06
1.07461e-06
-1.06196e-06
-4.80469e-05
4.88891e-05
2.49652e-06
2.51251e-06
7.76916e-07
8.00046e-07
-2.51626e-06
-7.69401e-07
-8.00045e-07
4.80297e-05
-4.88529e-05
-2.25527e-06
1.0331e-06
-1.03107e-06
4.88561e-05
4.6718e-05
-4.89714e-05
9.81098e-07
-9.6737e-07
8.97174e-07
-8.96845e-07
-4.67146e-05
4.89802e-05
6.51725e-07
6.74352e-07
5.66146e-07
5.92652e-07
-6.7288e-07
-5.61754e-07
-5.91932e-07
4.67003e-05
-4.89451e-05
-9.36749e-07
8.6483e-07
-8.62938e-07
4.89481e-05
4.66548e-05
-4.89733e-05
8.93741e-07
-8.93048e-07
8.89746e-07
-8.92198e-07
-4.66539e-05
4.89765e-05
5.66966e-07
5.89987e-07
5.6174e-07
5.89314e-07
-5.88925e-07
-5.65576e-07
-5.90666e-07
4.66388e-05
-4.89448e-05
-8.59464e-07
8.60484e-07
-8.58043e-07
4.89472e-05
4.66536e-05
-4.89733e-05
8.90439e-07
-8.91677e-07
8.89488e-07
-8.9086e-07
-4.66583e-05
4.8974e-05
5.6489e-07
5.89548e-07
5.61836e-07
5.89319e-07
-5.90951e-07
-5.67107e-07
-5.92349e-07
4.66397e-05
-4.8945e-05
-8.5832e-07
8.6045e-07
-8.58334e-07
4.89462e-05
4.66535e-05
-4.8969e-05
8.91417e-07
-8.91394e-07
8.8889e-07
-8.9418e-07
-4.66602e-05
4.89768e-05
5.65314e-07
5.89437e-07
5.62648e-07
5.89522e-07
-5.91762e-07
-5.61275e-07
-5.91366e-07
4.66391e-05
-4.89449e-05
-8.58745e-07
8.60278e-07
-8.5937e-07
4.89463e-05
4.66559e-05
-4.89707e-05
8.87408e-07
-8.96045e-07
8.85119e-07
-9.0317e-07
-4.66594e-05
4.89733e-05
5.65961e-07
5.89768e-07
5.62782e-07
5.89548e-07
-5.90707e-07
-5.61665e-07
-5.91075e-07
4.66394e-05
-4.89448e-05
-8.5956e-07
8.59895e-07
-8.59732e-07
4.89465e-05
4.66544e-05
-4.8969e-05
8.84532e-07
-9.00176e-07
8.86726e-07
-8.9437e-07
-4.66587e-05
4.89741e-05
5.66071e-07
5.89656e-07
5.63287e-07
5.89483e-07
-5.90313e-07
-5.61112e-07
-5.90078e-07
4.66395e-05
-4.89449e-05
-8.59767e-07
8.59774e-07
-8.59114e-07
4.89473e-05
4.66553e-05
-4.89703e-05
8.86391e-07
-8.94584e-07
8.86046e-07
-8.92592e-07
-4.66564e-05
4.89773e-05
5.6668e-07
5.89649e-07
5.63023e-07
5.89539e-07
-5.89484e-07
-5.60571e-07
-5.89513e-07
4.66395e-05
-4.89451e-05
-8.59165e-07
8.5979e-07
-8.58606e-07
4.89479e-05
4.6655e-05
-4.89725e-05
8.84392e-07
-8.92783e-07
8.87663e-07
-8.97442e-07
-4.66537e-05
4.89764e-05
5.66019e-07
5.89636e-07
5.62342e-07
5.89431e-07
-5.89094e-07
-5.6083e-07
-5.89311e-07
4.66398e-05
-4.89454e-05
-8.58541e-07
8.59756e-07
-8.5769e-07
4.89484e-05
4.66567e-05
-4.89726e-05
8.90192e-07
-8.99349e-07
8.91141e-07
-8.88263e-07
-4.66583e-05
4.89804e-05
5.65581e-07
5.89624e-07
5.63936e-07
5.8958e-07
-5.90089e-07
-5.60994e-07
-5.94894e-07
4.66398e-05
-4.89449e-05
-8.57553e-07
8.60635e-07
-8.56709e-07
4.89463e-05
4.66596e-05
-4.89764e-05
8.91611e-07
-8.78777e-07
8.93895e-07
-8.92078e-07
-4.66419e-05
4.89686e-05
5.68144e-07
5.89723e-07
5.70366e-07
5.90386e-07
-5.94643e-07
-5.64836e-07
-5.89166e-07
4.66398e-05
-4.89442e-05
-8.56612e-07
8.61661e-07
-8.57017e-07
4.89476e-05
4.66566e-05
-4.89741e-05
8.95911e-07
-8.91923e-07
8.87991e-07
-8.91424e-07
-4.66594e-05
4.89792e-05
5.72743e-07
5.90828e-07
5.65323e-07
5.90557e-07
-5.88454e-07
-5.61848e-07
-5.9019e-07
4.66399e-05
-4.89438e-05
-8.57526e-07
8.61368e-07
-8.58448e-07
4.89466e-05
4.66602e-05
-4.89729e-05
8.88613e-07
-8.93969e-07
8.89863e-07
-8.94697e-07
-4.66504e-05
4.8975e-05
5.67866e-07
5.90526e-07
5.64378e-07
5.90291e-07
-5.89585e-07
-5.60644e-07
-5.8999e-07
4.66402e-05
-4.89438e-05
-8.58901e-07
8.6088e-07
-8.58986e-07
4.89472e-05
4.66617e-05
-4.89734e-05
8.90095e-07
-8.95369e-07
8.90096e-07
-8.95233e-07
-4.66534e-05
4.89746e-05
5.67657e-07
5.90492e-07
5.63367e-07
5.90193e-07
-5.89606e-07
-5.60174e-07
-5.90179e-07
4.66401e-05
-4.89438e-05
-8.59177e-07
8.60654e-07
-8.58834e-07
4.89471e-05
4.66612e-05
-4.89738e-05
8.90296e-07
-8.9568e-07
8.90441e-07
-8.95541e-07
-4.66538e-05
4.89742e-05
5.66656e-07
5.90236e-07
5.62788e-07
5.89641e-07
-5.89447e-07
-5.59443e-07
-5.89201e-07
4.664e-05
-4.89445e-05
-8.59026e-07
8.60127e-07
-8.5877e-07
4.8947e-05
4.66608e-05
-4.89747e-05
8.90836e-07
-8.95849e-07
8.90065e-07
-8.95705e-07
-4.6654e-05
4.89748e-05
5.66313e-07
5.89634e-07
5.61738e-07
5.89e-07
-5.88409e-07
-5.58512e-07
-5.88404e-07
4.66393e-05
-4.8945e-05
-8.58912e-07
8.5971e-07
-8.58519e-07
4.8947e-05
4.66598e-05
-4.89753e-05
8.90398e-07
-8.96287e-07
8.89633e-07
-8.95566e-07
-4.66536e-05
4.89751e-05
5.65075e-07
5.89008e-07
5.60991e-07
5.8856e-07
-5.87786e-07
-5.5808e-07
-5.87905e-07
4.66389e-05
-4.89451e-05
-8.58753e-07
8.59631e-07
-8.58658e-07
4.89468e-05
4.66592e-05
-4.89747e-05
8.89913e-07
-8.96177e-07
8.90209e-07
-8.95615e-07
-4.66533e-05
4.89748e-05
5.64682e-07
5.8882e-07
5.61603e-07
5.89046e-07
-5.87301e-07
-5.5859e-07
-5.8821e-07
4.66388e-05
-4.89445e-05
-8.58827e-07
8.60198e-07
-8.59003e-07
4.89464e-05
4.66601e-05
-4.89742e-05
8.90754e-07
-8.96708e-07
8.90942e-07
-8.95816e-07
-4.66538e-05
4.89739e-05
5.65337e-07
5.89361e-07
5.61892e-07
5.89429e-07
-5.87853e-07
-5.5911e-07
-5.88255e-07
4.66394e-05
-4.89441e-05
-8.59291e-07
8.60501e-07
-8.59072e-07
4.89462e-05
4.66606e-05
-4.89738e-05
8.91674e-07
-8.9748e-07
8.92222e-07
-8.94848e-07
-4.66549e-05
4.89746e-05
5.65585e-07
5.89646e-07
5.62387e-07
5.90131e-07
-5.87862e-07
-5.59199e-07
-5.89117e-07
4.66398e-05
-4.89438e-05
-8.59305e-07
8.60972e-07
-8.5965e-07
4.89454e-05
4.66609e-05
-4.89738e-05
8.92697e-07
-8.98129e-07
8.92251e-07
-8.93856e-07
-4.66545e-05
4.89734e-05
5.66132e-07
5.90521e-07
5.62164e-07
5.89785e-07
-5.8878e-07
-5.5965e-07
-5.89198e-07
4.66402e-05
-4.89442e-05
-8.59863e-07
8.60552e-07
-8.5971e-07
4.89454e-05
4.66607e-05
-4.89741e-05
8.92458e-07
-9.00428e-07
8.91699e-07
-8.9563e-07
-4.6656e-05
4.89747e-05
5.65633e-07
5.89959e-07
5.61999e-07
5.90017e-07
-5.88626e-07
-5.59418e-07
-5.88617e-07
4.66396e-05
-4.89437e-05
-8.59829e-07
8.61026e-07
-8.59203e-07
4.89459e-05
4.66604e-05
-4.89744e-05
8.92037e-07
-8.97935e-07
8.92172e-07
-8.97344e-07
-4.66551e-05
4.8976e-05
5.65484e-07
5.90088e-07
5.61645e-07
5.89392e-07
-5.87876e-07
-5.58785e-07
-5.88459e-07
4.66402e-05
-4.89444e-05
-8.59119e-07
8.60535e-07
-8.59191e-07
4.8946e-05
4.66602e-05
-4.89753e-05
8.92392e-07
-8.97754e-07
8.90847e-07
-8.97361e-07
-4.66534e-05
4.89769e-05
5.6524e-07
5.89582e-07
5.60727e-07
5.88561e-07
-5.87916e-07
-5.57952e-07
-5.87685e-07
4.66394e-05
-4.8945e-05
-8.59238e-07
8.59904e-07
-8.58564e-07
4.89467e-05
4.66594e-05
-4.89748e-05
8.91281e-07
-8.97713e-07
8.91634e-07
-8.97972e-07
-4.66525e-05
4.89767e-05
5.6416e-07
5.88678e-07
5.6106e-07
5.88889e-07
-5.8716e-07
-5.58176e-07
-5.87714e-07
4.66388e-05
-4.89448e-05
-8.58686e-07
8.60115e-07
-8.58506e-07
4.89468e-05
4.66599e-05
-4.89748e-05
8.92181e-07
-8.98172e-07
8.91404e-07
-8.97881e-07
-4.66528e-05
4.89769e-05
5.64886e-07
5.89285e-07
5.60992e-07
5.88729e-07
-5.87277e-07
-5.58086e-07
-5.87752e-07
4.66392e-05
-4.89449e-05
-8.58591e-07
8.60089e-07
-8.58798e-07
4.89465e-05
4.66597e-05
-4.8974e-05
8.91855e-07
-8.98172e-07
8.91917e-07
-8.98402e-07
-4.66527e-05
4.89767e-05
5.64641e-07
5.8906e-07
5.61975e-07
5.89629e-07
-5.87448e-07
-5.58386e-07
-5.88437e-07
4.6639e-05
-4.89439e-05
-8.59067e-07
8.60973e-07
-8.5941e-07
4.89458e-05
4.66608e-05
-4.89742e-05
8.92415e-07
-8.98591e-07
8.91749e-07
-8.99205e-07
-4.66527e-05
4.89755e-05
5.65498e-07
5.8992e-07
5.62071e-07
5.89749e-07
-5.88125e-07
-5.59402e-07
-5.88879e-07
4.66401e-05
-4.8944e-05
-8.5957e-07
8.61052e-07
-8.59865e-07
4.89454e-05
4.66604e-05
-4.89738e-05
8.92433e-07
-8.99125e-07
8.91843e-07
-8.99252e-07
-4.66539e-05
4.89761e-05
5.65558e-07
5.90066e-07
5.624e-07
5.89959e-07
-5.88483e-07
-5.5894e-07
-5.8897e-07
4.664e-05
-4.89437e-05
-8.59832e-07
8.61296e-07
-8.60066e-07
4.89452e-05
4.66605e-05
-4.89747e-05
8.92689e-07
-8.9876e-07
8.89865e-07
-9.00228e-07
-4.6653e-05
4.8977e-05
5.65717e-07
5.90307e-07
5.63577e-07
5.90397e-07
-5.88814e-07
-5.59171e-07
-5.91288e-07
4.66402e-05
-4.89452e-05
-8.59947e-07
8.60039e-07
-8.58853e-07
4.89482e-05
4.66577e-05
-4.89682e-05
8.90214e-07
-8.9748e-07
8.89801e-07
-8.96347e-07
-4.66518e-05
4.89788e-05
5.67762e-07
5.90675e-07
5.681e-07
5.90112e-07
-5.92529e-07
-5.54981e-07
-5.93558e-07
4.66387e-05
-4.89463e-05
-8.56458e-07
8.58978e-07
-8.5464e-07
4.89494e-05
4.66642e-05
-4.89783e-05
8.95223e-07
-8.97015e-07
8.85863e-07
-9.02085e-07
-4.66532e-05
4.89714e-05
5.72341e-07
5.90456e-07
5.61227e-07
5.89742e-07
-5.90377e-07
-5.59723e-07
-5.88968e-07
4.66382e-05
-4.89456e-05
-8.56489e-07
8.60624e-07
-8.58926e-07
4.89462e-05
4.66522e-05
-4.89753e-05
8.86627e-07
-9.0428e-07
8.88391e-07
-8.9331e-07
-4.66608e-05
4.89778e-05
5.63032e-07
5.89589e-07
5.61225e-07
5.88885e-07
-5.88598e-07
-5.57252e-07
-5.87838e-07
4.66388e-05
-4.89467e-05
-8.58841e-07
8.59583e-07
-8.58467e-07
4.89471e-05
4.6655e-05
-4.89739e-05
8.88981e-07
-8.94073e-07
8.90096e-07
-8.94484e-07
-4.66518e-05
4.89768e-05
5.64415e-07
5.89272e-07
5.62383e-07
5.89455e-07
-5.87267e-07
-5.59683e-07
-5.88468e-07
4.66377e-05
-4.89462e-05
-8.58458e-07
8.60268e-07
-8.59363e-07
4.89462e-05
4.66561e-05
-4.89736e-05
8.89729e-07
-8.94485e-07
8.8994e-07
-8.94158e-07
-4.66531e-05
4.89772e-05
5.65636e-07
5.90033e-07
5.62653e-07
5.89885e-07
-5.88407e-07
-5.60044e-07
-5.88345e-07
4.66382e-05
-4.89457e-05
-8.59545e-07
8.60658e-07
-8.59343e-07
4.8946e-05
4.66566e-05
-4.89725e-05
8.89995e-07
-8.94189e-07
8.90861e-07
-8.93934e-07
-4.66527e-05
4.89774e-05
5.66166e-07
5.90272e-07
5.6357e-07
5.90727e-07
-5.87955e-07
-5.60578e-07
-5.88877e-07
4.66386e-05
-4.8945e-05
-8.59102e-07
8.61338e-07
-8.59758e-07
4.89457e-05
4.66576e-05
-4.89721e-05
8.90845e-07
-8.94377e-07
8.90785e-07
-8.93852e-07
-4.66527e-05
4.89773e-05
5.6713e-07
5.91277e-07
5.64098e-07
5.90868e-07
-5.88582e-07
-5.60901e-07
-5.88741e-07
4.66394e-05
-4.89451e-05
-8.59674e-07
8.61097e-07
-8.59538e-07
4.89458e-05
4.66577e-05
-4.89728e-05
8.90448e-07
-8.93962e-07
8.89729e-07
-8.93466e-07
-4.66525e-05
4.89781e-05
5.67088e-07
5.90958e-07
5.63218e-07
5.9034e-07
-5.88291e-07
-5.6035e-07
-5.88693e-07
4.6639e-05
-4.89454e-05
-8.59486e-07
8.60918e-07
-8.59922e-07
4.89456e-05
4.6657e-05
-4.89725e-05
8.89349e-07
-8.93889e-07
8.8894e-07
-8.9373e-07
-4.66517e-05
4.89775e-05
5.6663e-07
5.90606e-07
5.63475e-07
5.89821e-07
-5.88367e-07
-5.60651e-07
-5.88219e-07
4.66387e-05
-4.89458e-05
-8.6001e-07
8.60572e-07
-8.59862e-07
4.89458e-05
4.66572e-05
-4.89728e-05
8.88726e-07
-8.9376e-07
8.8844e-07
-8.9266e-07
-4.66521e-05
4.89792e-05
5.66726e-07
5.89996e-07
5.6314e-07
5.89567e-07
-5.87449e-07
-5.59084e-07
-5.87251e-07
4.66382e-05
-4.89459e-05
-8.59607e-07
8.60503e-07
-8.59251e-07
4.89465e-05
4.66569e-05
-4.8973e-05
8.88249e-07
-8.93153e-07
8.88147e-07
-8.9349e-07
-4.66506e-05
4.89777e-05
5.66443e-07
5.89914e-07
5.6304e-07
5.89706e-07
-5.86846e-07
-5.60305e-07
-5.87761e-07
4.66382e-05
-4.89456e-05
-8.59293e-07
8.60762e-07
-8.59594e-07
4.8946e-05
4.66567e-05
-4.89729e-05
8.88024e-07
-8.93734e-07
8.88196e-07
-8.93079e-07
-4.6652e-05
4.89786e-05
5.66282e-07
5.90004e-07
5.62926e-07
5.89673e-07
-5.87335e-07
-5.59822e-07
-5.87765e-07
4.66385e-05
-4.89457e-05
-8.59634e-07
8.60716e-07
-8.59618e-07
4.8946e-05
4.66569e-05
-4.89717e-05
8.88311e-07
-8.93499e-07
8.89111e-07
-8.93615e-07
-4.66513e-05
4.89777e-05
5.66454e-07
5.90005e-07
5.6415e-07
5.90513e-07
-5.87447e-07
-5.60746e-07
-5.8839e-07
4.66384e-05
-4.89449e-05
-8.59796e-07
8.61267e-07
-8.6037e-07
4.89451e-05
4.6658e-05
-4.89705e-05
8.89311e-07
-8.94059e-07
8.90225e-07
-8.92518e-07
-4.66522e-05
4.89775e-05
5.6775e-07
5.91e-07
5.64894e-07
5.9091e-07
-5.88063e-07
-5.60659e-07
-5.88263e-07
4.6639e-05
-4.89444e-05
-8.60287e-07
8.61783e-07
-8.60333e-07
4.8945e-05
4.66586e-05
-4.89687e-05
8.90632e-07
-8.9176e-07
8.92529e-07
-8.841e-07
-4.66508e-05
4.89801e-05
5.68437e-07
5.91062e-07
5.6593e-07
5.91003e-07
-5.87492e-07
-5.60503e-07
-5.87672e-07
4.66392e-05
-4.89442e-05
-8.60035e-07
8.61862e-07
-8.59983e-07
4.89456e-05
4.66602e-05
-4.89715e-05
8.92469e-07
-8.84447e-07
8.89784e-07
-8.93791e-07
-4.66487e-05
4.89782e-05
5.69321e-07
5.913e-07
5.64693e-07
5.90402e-07
-5.87609e-07
-5.6184e-07
-5.88665e-07
4.66394e-05
-4.89449e-05
-8.59931e-07
8.61234e-07
-8.59972e-07
4.8945e-05
4.66578e-05
-4.8973e-05
8.88904e-07
-8.92874e-07
8.88761e-07
-8.92453e-07
-4.66514e-05
4.89778e-05
5.67341e-07
5.89962e-07
5.62769e-07
5.88018e-07
-5.89674e-07
-5.61934e-07
-5.9389e-07
4.66387e-05
-4.89466e-05
-8.59294e-07
8.60855e-07
-8.57963e-07
4.89433e-05
4.66566e-05
-4.89735e-05
8.88807e-07
-8.92562e-07
8.88751e-07
-8.92397e-07
-4.66517e-05
4.89774e-05
5.65868e-07
5.8784e-07
5.62068e-07
5.87188e-07
-5.94915e-07
-5.62634e-07
-5.93973e-07
4.66373e-05
-4.89472e-05
-8.57392e-07
8.61406e-07
-8.5797e-07
4.8943e-05
4.66561e-05
-4.89737e-05
8.8863e-07
-8.92528e-07
8.88621e-07
-8.91749e-07
-4.66523e-05
4.89783e-05
5.65225e-07
5.87274e-07
5.61775e-07
5.86907e-07
-5.94684e-07
-5.61866e-07
-5.93789e-07
4.66368e-05
-4.89472e-05
-8.57724e-07
8.61445e-07
-8.58035e-07
4.89432e-05
4.6656e-05
-4.89732e-05
8.88583e-07
-8.92245e-07
8.89027e-07
-8.92672e-07
-4.66514e-05
4.89768e-05
5.65102e-07
5.87176e-07
5.62296e-07
5.87576e-07
-5.945e-07
-5.63021e-07
-5.94227e-07
4.66368e-05
-4.89466e-05
-8.57821e-07
8.62071e-07
-8.58612e-07
4.89429e-05
4.66566e-05
-4.89728e-05
8.89045e-07
-8.93073e-07
8.89366e-07
-8.9267e-07
-4.66529e-05
4.8977e-05
5.65764e-07
5.87902e-07
5.6294e-07
5.88007e-07
-5.95058e-07
-5.62931e-07
-5.94393e-07
4.66375e-05
-4.89464e-05
-8.58453e-07
8.62332e-07
-8.58961e-07
4.89428e-05
4.6657e-05
-4.89727e-05
8.89277e-07
-8.93006e-07
8.8942e-07
-8.93512e-07
-4.66526e-05
4.8976e-05
5.66142e-07
5.88208e-07
5.63179e-07
5.88328e-07
-5.95187e-07
-5.63897e-07
-5.95123e-07
4.66376e-05
-4.89461e-05
-8.58785e-07
8.62549e-07
-8.59545e-07
4.89422e-05
4.66571e-05
-4.89725e-05
8.89387e-07
-8.94018e-07
8.89333e-07
-8.93603e-07
-4.66537e-05
4.89762e-05
5.6647e-07
5.88714e-07
5.63362e-07
5.88943e-07
-5.96047e-07
-5.63797e-07
-5.95163e-07
4.6638e-05
-4.89454e-05
-8.59358e-07
8.63018e-07
-8.59543e-07
4.89424e-05
4.6657e-05
-4.89725e-05
8.89186e-07
-8.93727e-07
8.89509e-07
-8.92898e-07
-4.66532e-05
4.89771e-05
5.66201e-07
5.88982e-07
5.63332e-07
5.883e-07
-5.95713e-07
-5.62812e-07
-5.94359e-07
4.66385e-05
-4.89463e-05
-8.59149e-07
8.6234e-07
-8.59163e-07
4.8943e-05
4.66572e-05
-4.89728e-05
8.89423e-07
-8.93183e-07
8.89139e-07
-8.92963e-07
-4.66524e-05
4.8977e-05
5.65891e-07
5.88419e-07
5.63361e-07
5.8803e-07
-5.95054e-07
-5.62702e-07
-5.94352e-07
4.66376e-05
-4.89465e-05
-8.58923e-07
8.62093e-07
-8.59514e-07
4.8943e-05
4.66567e-05
-4.89741e-05
8.88796e-07
-8.93138e-07
8.88303e-07
-8.92411e-07
-4.66524e-05
4.89777e-05
5.64932e-07
5.87866e-07
5.62107e-07
5.86935e-07
-5.94826e-07
-5.61879e-07
-5.9318e-07
4.66373e-05
-4.8947e-05
-8.59137e-07
8.6165e-07
-8.59184e-07
4.89439e-05
4.66556e-05
-4.89733e-05
8.88187e-07
-8.92703e-07
8.88783e-07
-8.9278e-07
-4.66518e-05
4.89771e-05
5.64034e-07
5.8715e-07
5.62975e-07
5.87625e-07
-5.93846e-07
-5.62472e-07
-5.93887e-07
4.6637e-05
-4.89464e-05
-8.58773e-07
8.62203e-07
-8.59784e-07
4.89431e-05
4.66563e-05
-4.89734e-05
8.88791e-07
-8.9312e-07
8.88815e-07
-8.92685e-07
-4.66524e-05
4.89772e-05
5.65021e-07
5.87906e-07
5.62915e-07
5.87456e-07
-5.94803e-07
-5.62261e-07
-5.9363e-07
4.66377e-05
-4.89465e-05
-8.59684e-07
8.61961e-07
-8.59997e-07
4.8943e-05
4.6656e-05
-4.89727e-05
8.88689e-07
-8.93003e-07
8.89173e-07
-8.93112e-07
-4.66521e-05
4.89765e-05
5.64844e-07
5.87749e-07
5.6353e-07
5.8912e-07
-5.9454e-07
-5.6297e-07
-5.95088e-07
4.66376e-05
-4.89437e-05
-8.59786e-07
8.63511e-07
-8.61361e-07
4.89409e-05
4.66564e-05
-4.89725e-05
8.89164e-07
-8.93548e-07
8.89326e-07
-8.93699e-07
-4.66524e-05
4.89758e-05
5.65527e-07
5.89941e-07
5.63573e-07
5.91908e-07
-5.96612e-07
-5.637e-07
-5.98017e-07
4.66397e-05
-4.89386e-05
-8.61923e-07
8.68227e-07
-8.66058e-07
4.89356e-05
4.66563e-05
-4.89725e-05
8.89269e-07
-8.93946e-07
8.8931e-07
-8.93198e-07
-4.66528e-05
4.89767e-05
5.65499e-07
5.92493e-07
5.63556e-07
5.90579e-07
-5.99318e-07
-5.6303e-07
-5.97093e-07
4.66433e-05
-4.89425e-05
-8.66648e-07
8.67806e-07
-8.65422e-07
4.89382e-05
4.66567e-05
-4.89727e-05
8.89174e-07
-8.93514e-07
8.89348e-07
-8.93261e-07
-4.66523e-05
4.89763e-05
5.65499e-07
5.89842e-07
5.63694e-07
5.88394e-07
-5.96745e-07
-5.63326e-07
-5.94381e-07
4.66409e-05
-4.89457e-05
-8.63833e-07
8.63031e-07
-8.60989e-07
4.89426e-05
4.66568e-05
-4.89738e-05
8.89049e-07
-8.93354e-07
8.88593e-07
-8.92499e-07
-4.6653e-05
4.89777e-05
5.65343e-07
5.88373e-07
5.6275e-07
5.87398e-07
-5.95106e-07
-5.61912e-07
-5.93428e-07
4.66382e-05
-4.89466e-05
-8.60404e-07
8.6208e-07
-8.60019e-07
4.89432e-05
4.66558e-05
-4.89739e-05
8.88432e-07
-8.92939e-07
8.88445e-07
-8.93215e-07
-4.66518e-05
4.89765e-05
5.64601e-07
5.87541e-07
5.62688e-07
5.87332e-07
-5.94171e-07
-5.62829e-07
-5.93644e-07
4.66373e-05
-4.89467e-05
-8.59774e-07
8.61782e-07
-8.60047e-07
4.89429e-05
4.66557e-05
-4.89738e-05
8.88295e-07
-8.93283e-07
8.88604e-07
-8.92014e-07
-4.66529e-05
4.89783e-05
5.64544e-07
5.87347e-07
5.62606e-07
5.87051e-07
-5.94099e-07
-5.61384e-07
-5.92856e-07
4.66371e-05
-4.89468e-05
-8.59772e-07
8.6183e-07
-8.6017e-07
4.89429e-05
4.66558e-05
-4.89732e-05
8.88562e-07
-8.92471e-07
8.89035e-07
-8.9315e-07
-4.66512e-05
4.89765e-05
5.64547e-07
5.87288e-07
5.63323e-07
5.87857e-07
-5.93633e-07
-5.6311e-07
-5.93886e-07
4.66372e-05
-4.89459e-05
-8.59966e-07
8.62514e-07
-8.61062e-07
4.89419e-05
4.66564e-05
-4.89731e-05
8.89037e-07
-8.9342e-07
8.89125e-07
-8.92967e-07
-4.66531e-05
4.89771e-05
5.65385e-07
5.88204e-07
5.63554e-07
5.87892e-07
-5.94796e-07
-5.63062e-07
-5.94243e-07
4.6638e-05
-4.8946e-05
-8.60832e-07
8.62524e-07
-8.6152e-07
4.89415e-05
4.66564e-05
-4.89726e-05
8.88997e-07
-8.93311e-07
8.89468e-07
-8.93165e-07
-4.66524e-05
4.89767e-05
5.65466e-07
5.88119e-07
5.64086e-07
5.88673e-07
-5.9507e-07
-5.63318e-07
-5.94378e-07
4.66379e-05
-4.89449e-05
-8.61372e-07
8.63446e-07
-8.6171e-07
4.89413e-05
4.6657e-05
-4.89726e-05
8.89416e-07
-8.93602e-07
8.89515e-07
-8.9378e-07
-4.66528e-05
4.8976e-05
5.66068e-07
5.89051e-07
5.64146e-07
5.88918e-07
-5.95026e-07
-5.63743e-07
-5.9465e-07
4.66391e-05
-4.8945e-05
-8.61359e-07
8.63446e-07
-8.61992e-07
4.89411e-05
4.66568e-05
-4.89732e-05
8.89268e-07
-8.94044e-07
8.88968e-07
-8.93143e-07
-4.66533e-05
4.89766e-05
5.65899e-07
5.88874e-07
5.63376e-07
5.87958e-07
-5.95443e-07
-5.6305e-07
-5.94195e-07
4.66386e-05
-4.8946e-05
-8.61735e-07
8.62484e-07
-8.61741e-07
4.89415e-05
4.66562e-05
-4.89735e-05
8.88813e-07
-8.93228e-07
8.88893e-07
-8.92577e-07
-4.66525e-05
4.89773e-05
5.65121e-07
5.87942e-07
5.63065e-07
5.87659e-07
-5.94662e-07
-5.62489e-07
-5.93864e-07
4.66377e-05
-4.89462e-05
-8.61239e-07
8.62354e-07
-8.61322e-07
4.89419e-05
4.6656e-05
-4.89737e-05
8.88702e-07
-8.92943e-07
8.88603e-07
-8.92728e-07
-4.6652e-05
4.89771e-05
5.64913e-07
5.87854e-07
5.62765e-07
5.87459e-07
-5.94483e-07
-5.62074e-07
-5.93151e-07
4.66376e-05
-4.89462e-05
-8.60914e-07
8.62273e-07
-8.60879e-07
4.89423e-05
4.66558e-05
-4.89739e-05
8.88437e-07
-8.92981e-07
8.88494e-07
-8.92766e-07
-4.66522e-05
4.89771e-05
5.6455e-07
5.87473e-07
5.62649e-07
5.87268e-07
-5.93803e-07
-5.62617e-07
-5.93442e-07
4.66375e-05
-4.89464e-05
-8.60435e-07
8.62125e-07
-8.60986e-07
4.89421e-05
4.66556e-05
-4.8973e-05
8.88532e-07
-8.9295e-07
8.89208e-07
-8.92475e-07
-4.66522e-05
4.89777e-05
5.64777e-07
5.87555e-07
5.63296e-07
5.87691e-07
-5.94146e-07
-5.62201e-07
-5.93605e-07
4.66374e-05
-4.89459e-05
-8.60592e-07
8.6251e-07
-8.61194e-07
4.89417e-05
4.66565e-05
-4.89725e-05
8.88991e-07
-8.92798e-07
8.90088e-07
-8.9387e-07
-4.66518e-05
4.89762e-05
5.65108e-07
5.87772e-07
5.64519e-07
5.88887e-07
-5.94329e-07
-5.63968e-07
-5.94923e-07
4.66378e-05
-4.89454e-05
-8.60762e-07
8.63287e-07
-8.62084e-07
4.89411e-05
4.66568e-05
-4.89713e-05
8.88422e-07
-8.92635e-07
8.92809e-07
-8.9687e-07
-4.6653e-05
4.89748e-05
5.64771e-07
5.87381e-07
5.68055e-07
5.92385e-07
-5.93962e-07
-5.67574e-07
-5.98418e-07
4.66382e-05
-4.89439e-05
-8.60169e-07
8.65893e-07
-8.64875e-07
4.89398e-05
4.6655e-05
-4.89617e-05
8.83791e-07
-8.8825e-07
9.00914e-07
-9.05415e-07
-4.66513e-05
4.89653e-05
5.59942e-07
5.82565e-07
5.77858e-07
6.0221e-07
-5.89035e-07
-5.77609e-07
-6.08783e-07
4.66364e-05
-4.89348e-05
-8.55658e-07
8.73931e-07
-8.7325e-07
4.89304e-05
4.66403e-05
-4.89006e-05
8.71624e-07
-8.76233e-07
9.04178e-07
-9.08059e-07
-4.66369e-05
4.8905e-05
5.49365e-07
5.71806e-07
5.842e-07
6.08672e-07
-5.78772e-07
-5.83109e-07
-6.17107e-07
4.66206e-05
-4.88745e-05
-8.4376e-07
8.77229e-07
-8.76404e-07
4.887e-05
4.65294e-05
-4.87081e-05
8.58882e-07
-8.62981e-07
8.81154e-07
-8.85741e-07
-4.65249e-05
4.87118e-05
5.51214e-07
5.72894e-07
5.21985e-07
5.46977e-07
-5.81486e-07
-5.22177e-07
-5.54166e-07
4.65093e-05
-4.86819e-05
-8.31002e-07
8.53994e-07
-8.53654e-07
4.86767e-05
4.64571e-05
-4.84953e-05
9.52669e-07
-9.57137e-07
7.17975e-07
-7.23015e-07
-4.64532e-05
4.84998e-05
6.41649e-07
6.63193e-07
3.02539e-07
3.27328e-07
-6.71845e-07
-3.01478e-07
-3.32369e-07
4.64369e-05
-4.84694e-05
-9.24863e-07
6.9074e-07
-6.90773e-07
4.8465e-05
4.59808e-05
-4.80434e-05
1.04905e-06
-1.05376e-06
5.38864e-07
-5.45222e-07
-4.5976e-05
4.80471e-05
8.905e-07
9.11611e-07
4.02672e-08
6.759e-08
-9.20301e-07
-3.96231e-08
-7.20543e-08
4.59625e-05
-4.80182e-05
-1.02191e-06
5.1265e-07
-5.12838e-07
4.80125e-05
4.56761e-05
-4.68525e-05
1.31232e-06
-1.31722e-06
9.93238e-09
-1.81028e-08
-4.56725e-05
4.68565e-05
1.24491e-06
1.26291e-06
-6.18818e-07
-5.89491e-07
-1.26947e-06
6.19651e-07
5.94388e-07
4.56578e-05
-4.68288e-05
-1.28565e-06
-1.4904e-08
1.4098e-08
4.68231e-05
4.42751e-05
-4.42905e-05
1.92519e-06
-1.92991e-06
-1.25942e-06
1.2479e-06
-4.4274e-05
4.42961e-05
2.09434e-06
2.12019e-06
-2.03378e-06
-2.00062e-06
-2.11896e-06
2.02504e-06
2.00007e-06
4.42624e-05
-4.42653e-05
-1.8992e-06
-1.28005e-06
1.27516e-06
4.42507e-05
4.08633e-05
-3.62748e-05
3.24142e-06
-3.25019e-06
-5.21546e-06
5.19223e-06
-4.08642e-05
3.62438e-05
3.71215e-06
3.73517e-06
-6.8217e-06
-6.79812e-06
-3.74157e-06
6.79736e-06
6.78711e-06
4.08586e-05
-3.62522e-05
-3.21985e-06
-5.21804e-06