/*--------------------------------*- C++ -*----------------------------------*\
| =========                 |                                                 |
| \\      /  F ield         | OpenFOAM: The Open Source CFD Toolbox           |
|  \\    /   O peration     | Version:  2206                                  |
|   \\  /    A nd           | Website:  www.openfoam.com                      |
|    \\/     M anipulation  |                                                 |
\*---------------------------------------------------------------------------*/
FoamFile
{
    version     2.0;
    format      ascii;
    arch        "LSB;label=32;scalar=64";
    class       volScalarField;
    location    "33.5";
    object      Uy;
}
// * * * * * * * * * * * * * * * * * * * * * * * * * * * * * * * * * * * * * //

dimensions      [0 1 -1 0 0 0 0];

internalField   nonuniform List<scalar> 
171728
(
0.000107896
0.000119271
-0.000190187
-0.000239496
9.39936e-05
9.67679e-05
-0.000158784
-0.000200946
9.51313e-05
9.34581e-05
-0.000155653
-0.000201556
9.42739e-05
9.05997e-05
-0.000152626
-0.00019818
9.18215e-05
8.70165e-05
-0.000148391
-0.000190949
8.49507e-05
7.8877e-05
-0.000136143
-0.00018012
6.60022e-05
5.73835e-05
-0.000103996
-0.000152101
3.53003e-05
3.11635e-05
-4.95541e-05
-8.99671e-05
1.11423e-05
1.15967e-05
-1.57313e-05
-5.97182e-05
8.73954e-07
2.25497e-06
-2.49189e-06
-4.80646e-05
-7.06785e-07
9.43008e-07
-6.47788e-07
-4.67283e-05
-8.31057e-07
8.64864e-07
-5.63026e-07
-4.66678e-05
-8.37298e-07
8.62239e-07
-5.62974e-07
-4.66678e-05
-8.37068e-07
8.61704e-07
-5.62822e-07
-4.66674e-05
-8.34759e-07
8.67808e-07
-5.63247e-07
-4.66672e-05
-8.32751e-07
8.71321e-07
-5.63184e-07
-4.66667e-05
-8.34161e-07
8.67543e-07
-5.62989e-07
-4.66671e-05
-8.32978e-07
8.68929e-07
-5.61957e-07
-4.66666e-05
-8.25558e-07
8.81426e-07
-5.60085e-07
-4.66649e-05
-8.27697e-07
8.56763e-07
-5.60106e-07
-4.66656e-05
-8.3133e-07
8.68641e-07
-5.62278e-07
-4.66671e-05
-8.36523e-07
8.64575e-07
-5.63755e-07
-4.6668e-05
-8.35797e-07
8.63998e-07
-5.64287e-07
-4.66683e-05
-8.36182e-07
8.63481e-07
-5.64438e-07
-4.66683e-05
-8.36291e-07
8.62904e-07
-5.63867e-07
-4.6668e-05
-8.36675e-07
8.62746e-07
-5.63618e-07
-4.66677e-05
-8.37205e-07
8.62236e-07
-5.63517e-07
-4.66678e-05
-8.36629e-07
8.62569e-07
-5.64206e-07
-4.66682e-05
-8.36038e-07
8.63425e-07
-5.64027e-07
-4.66684e-05
-8.34726e-07
8.63904e-07
-5.64928e-07
-4.66691e-05
-8.34803e-07
8.6476e-07
-5.64538e-07
-4.6669e-05
-8.35373e-07
8.63591e-07
-5.64293e-07
-4.66684e-05
-8.35199e-07
8.62991e-07
-5.63701e-07
-4.66685e-05
-8.36284e-07
8.62378e-07
-5.62942e-07
-4.66677e-05
-8.35484e-07
8.62623e-07
-5.6308e-07
-4.66678e-05
-8.35537e-07
8.62324e-07
-5.6323e-07
-4.66681e-05
-8.35148e-07
8.62559e-07
-5.64238e-07
-4.66688e-05
-8.34934e-07
8.63012e-07
-5.64402e-07
-4.6669e-05
-8.34769e-07
8.62871e-07
-5.65037e-07
-4.66693e-05
-8.34792e-07
8.63074e-07
-5.64376e-07
-4.66706e-05
-8.30444e-07
8.60714e-07
-5.62933e-07
-4.66691e-05
-8.33274e-07
8.72875e-07
-5.61516e-07
-4.66666e-05
-8.3435e-07
8.63349e-07
-5.60786e-07
-4.66664e-05
-8.35203e-07
8.6456e-07
-5.61812e-07
-4.66681e-05
-8.35566e-07
8.64717e-07
-5.61556e-07
-4.66682e-05
-8.34693e-07
8.65259e-07
-5.62388e-07
-4.66689e-05
-8.35261e-07
8.65114e-07
-5.62071e-07
-4.66686e-05
-8.36167e-07
8.64785e-07
-5.62096e-07
-4.66686e-05
-8.36821e-07
8.64569e-07
-5.61331e-07
-4.66679e-05
-8.37204e-07
8.63959e-07
-5.60856e-07
-4.66672e-05
-8.37264e-07
8.64401e-07
-5.61151e-07
-4.66674e-05
-8.37165e-07
8.64212e-07
-5.61215e-07
-4.66676e-05
-8.36407e-07
8.64628e-07
-5.62462e-07
-4.66685e-05
-8.37371e-07
8.61268e-07
-5.62314e-07
-4.66684e-05
-8.38084e-07
8.55822e-07
-5.63195e-07
-4.667e-05
-8.37793e-07
8.63704e-07
-5.6208e-07
-4.66691e-05
-8.39003e-07
8.62219e-07
-5.59364e-07
-4.66661e-05
-8.39371e-07
8.61672e-07
-5.58811e-07
-4.66655e-05
-8.39607e-07
8.61211e-07
-5.58418e-07
-4.6665e-05
-8.38838e-07
8.61854e-07
-5.59109e-07
-4.66653e-05
-8.38544e-07
8.61644e-07
-5.5893e-07
-4.66653e-05
-8.38146e-07
8.62577e-07
-5.59369e-07
-4.66657e-05
-8.38375e-07
8.62231e-07
-5.59234e-07
-4.66655e-05
-8.38299e-07
8.61622e-07
-5.58321e-07
-4.66649e-05
-8.38786e-07
8.61432e-07
-5.57954e-07
-4.66647e-05
-8.39629e-07
8.61024e-07
-5.57413e-07
-4.66638e-05
-8.38828e-07
8.61548e-07
-5.57919e-07
-4.66642e-05
-8.38494e-07
8.61738e-07
-5.57855e-07
-4.6664e-05
-8.36685e-07
8.633e-07
-5.55009e-07
-4.66617e-05
-8.34848e-07
8.64821e-07
-5.45663e-07
-4.66557e-05
-8.36063e-07
8.63717e-07
-5.55765e-07
-4.66603e-05
-8.38065e-07
8.62139e-07
-5.5796e-07
-4.6664e-05
-8.39197e-07
8.61419e-07
-5.57802e-07
-4.66641e-05
-8.39404e-07
8.61507e-07
-5.57716e-07
-4.66641e-05
-8.39481e-07
8.60728e-07
-5.57577e-07
-4.66641e-05
-8.3881e-07
8.61585e-07
-5.58327e-07
-4.66649e-05
-8.38711e-07
8.6154e-07
-5.58427e-07
-4.66652e-05
-8.38253e-07
8.6198e-07
-5.59135e-07
-4.66653e-05
-8.38114e-07
8.62475e-07
-5.58871e-07
-4.66654e-05
-8.3879e-07
8.61569e-07
-5.57626e-07
-4.66646e-05
-8.39e-07
8.61337e-07
-5.57844e-07
-4.66645e-05
-8.39383e-07
8.61353e-07
-5.57319e-07
-4.6664e-05
-8.39284e-07
8.61229e-07
-5.57932e-07
-4.66643e-05
-8.38954e-07
8.61351e-07
-5.57966e-07
-4.66647e-05
-8.38953e-07
8.61024e-07
-5.57842e-07
-4.66653e-05
-8.42413e-07
8.56454e-07
-5.53413e-07
-4.66638e-05
-8.51849e-07
8.44685e-07
-5.42812e-07
-4.66493e-05
-8.63901e-07
8.31669e-07
-5.44288e-07
-4.65386e-05
-8.56921e-07
9.25667e-07
-6.34007e-07
-4.64664e-05
-6.61834e-07
1.02276e-06
-8.84577e-07
-4.59899e-05
-6.2993e-07
1.28782e-06
-1.23691e-06
-4.56867e-05
-4.90473e-07
1.90276e-06
-2.09314e-06
-4.42874e-05
-4.30551e-07
3.23e-06
-3.70841e-06
-4.08737e-05
-5.77923e-06
3.58912e-06
-2.45332e-06
-2.67285e-05
-4.08322e-05
-3.37989e-05
4.22382e-05
4.60179e-05
0.000135038
0.00015288
0.000152861
0.000135006
0.000124204
-0.000124221
9.07425e-05
9.07399e-05
-9.07886e-05
-9.07866e-05
0.000124201
-0.000124217
-0.000135058
-0.00015291
-0.000152893
-0.000135031
0.000239499
0.00011146
0.000190089
0.00019013
0.000147432
0.000147428
0.000239448
0.000111428
0.000119291
-0.000119352
8.92157e-05
-8.9237e-05
-0.000119355
8.92173e-05
-8.92308e-05
-0.000239542
-0.000111552
-0.000190217
-0.000147369
-0.000147394
-0.000111555
0.000200815
0.000106104
0.00015884
0.000158837
0.000156925
0.000156925
0.000200782
0.000106096
9.67613e-05
-9.67741e-05
9.4381e-05
-9.43836e-05
-9.67691e-05
9.43899e-05
-9.43739e-05
-0.000200954
-0.000106159
-0.000158809
-0.000156878
-0.000156898
-0.000106168
0.000201443
9.76668e-05
0.000155703
0.000155699
0.000154557
0.000154547
0.00020143
9.76607e-05
9.34536e-05
-9.34486e-05
9.18965e-05
-9.18832e-05
-9.34422e-05
9.189e-05
-9.18852e-05
-0.000201562
-9.77147e-05
-0.000155675
-0.000154498
-0.000154507
-9.77399e-05
0.000198069
8.70933e-05
0.000152684
0.000152675
0.000147435
0.000147431
0.000198048
8.70897e-05
9.06089e-05
-9.05907e-05
8.61596e-05
-8.61441e-05
-9.05967e-05
8.61512e-05
-8.61501e-05
-0.000198172
-8.71277e-05
-0.000152632
-0.000147378
-0.000147379
-8.71632e-05
0.000190834
7.81945e-05
0.000148446
0.000148447
0.000138109
0.00013811
0.000190826
7.81989e-05
8.70222e-05
-8.70019e-05
7.96948e-05
-7.96808e-05
-8.70117e-05
7.96871e-05
-7.96852e-05
-0.000190935
-7.82323e-05
-0.000148389
-0.000138056
-0.00013805
-7.82696e-05
0.000180005
5.97328e-05
0.000136188
0.0001362
0.000120678
0.000120654
0.000180001
5.97691e-05
7.88787e-05
-7.88654e-05
6.78612e-05
-6.78682e-05
-7.88794e-05
6.78441e-05
-6.78183e-05
-0.000180098
-5.967e-05
-0.000136135
-0.000120586
-0.00012057
-5.96618e-05
0.00015208
-1.58684e-06
0.000104084
0.000104059
5.97287e-05
5.97341e-05
0.000152097
-1.62688e-06
5.74098e-05
-5.74159e-05
3.56148e-05
-3.56629e-05
-5.73856e-05
3.56093e-05
-3.56526e-05
-0.000152124
1.64892e-06
-0.00010397
-5.97159e-05
-5.97134e-05
1.64969e-06
8.99543e-05
-3.31405e-05
4.95536e-05
4.95622e-05
2.26402e-05
2.26602e-05
8.99167e-05
-3.31366e-05
3.11648e-05
-3.12182e-05
1.61962e-05
-1.62386e-05
-3.12073e-05
1.61945e-05
-1.62375e-05
-8.99819e-05
3.31503e-05
-4.95519e-05
-2.26383e-05
-2.26477e-05
3.31369e-05
5.96648e-05
-4.7002e-05
1.57357e-05
1.57578e-05
4.08075e-06
4.09693e-06
5.966e-05
-4.69962e-05
1.16014e-05
-1.16386e-05
3.40261e-06
-3.42738e-06
-1.16375e-05
3.39584e-06
-3.42681e-06
-5.97231e-05
4.70277e-05
-1.57343e-05
-4.06425e-06
-4.0636e-06
4.70133e-05
4.80287e-05
-4.88402e-05
2.51104e-06
2.52543e-06
8.11759e-07
8.06988e-07
4.80234e-05
-4.88535e-05
2.26335e-06
-2.28447e-06
1.04916e-06
-1.06029e-06
-2.2827e-06
1.03729e-06
-1.05806e-06
-4.8069e-05
4.88907e-05
-2.48723e-06
-7.71517e-07
-7.68802e-07
4.88763e-05
4.67145e-05
-4.89474e-05
6.83264e-07
6.85871e-07
5.89894e-07
5.96139e-07
4.66911e-05
-4.89469e-05
9.55726e-07
-9.66743e-07
8.72259e-07
-8.92446e-07
-9.63874e-07
8.68878e-07
-8.90312e-07
-4.67333e-05
4.89815e-05
-6.4166e-07
-5.629e-07
-5.60407e-07
4.89667e-05
4.66356e-05
-4.89493e-05
5.88802e-07
5.99246e-07
5.83416e-07
6.0055e-07
4.66285e-05
-4.89483e-05
8.70321e-07
-8.8989e-07
8.66066e-07
-8.89767e-07
-8.86806e-07
8.62619e-07
-8.85416e-07
-4.66722e-05
4.898e-05
-5.57878e-07
-5.59801e-07
-5.59849e-07
4.89668e-05
4.66351e-05
-4.89491e-05
5.85666e-07
6.05297e-07
5.81721e-07
6.03075e-07
4.66274e-05
-4.89499e-05
8.68792e-07
-8.9097e-07
8.66217e-07
-8.90418e-07
-8.85218e-07
8.61435e-07
-8.84204e-07
-4.66743e-05
4.89792e-05
-5.60634e-07
-5.59953e-07
-5.61724e-07
4.89671e-05
4.66383e-05
-4.8946e-05
5.87157e-07
6.01904e-07
5.85786e-07
5.97559e-07
4.66267e-05
-4.89458e-05
8.71119e-07
-8.90945e-07
8.69482e-07
-8.90186e-07
-8.84033e-07
8.6566e-07
-8.8391e-07
-4.66745e-05
4.89794e-05
-5.61268e-07
-5.60156e-07
-5.591e-07
4.89677e-05
4.66431e-05
-4.89459e-05
5.90006e-07
5.9837e-07
5.87562e-07
6.0732e-07
4.66335e-05
-4.89297e-05
8.69884e-07
-8.90672e-07
8.69122e-07
-8.89414e-07
-8.83659e-07
8.74814e-07
-8.83291e-07
-4.66745e-05
4.89801e-05
-5.583e-07
-5.6019e-07
-5.57439e-07
4.89683e-05
4.66424e-05
-4.89458e-05
5.91091e-07
6.01164e-07
5.85511e-07
5.93838e-07
4.66453e-05
-4.89498e-05
8.70085e-07
-8.90024e-07
8.68183e-07
-8.89173e-07
-8.83341e-07
8.66538e-07
-8.84141e-07
-4.66738e-05
4.89804e-05
-5.57108e-07
-5.6014e-07
-5.572e-07
4.89677e-05
4.66412e-05
-4.89451e-05
5.91159e-07
5.93943e-07
5.858e-07
5.92115e-07
4.66285e-05
-4.89499e-05
8.69043e-07
-8.89811e-07
8.68487e-07
-8.88233e-07
-8.843e-07
8.67289e-07
-8.83518e-07
-4.66735e-05
4.89816e-05
-5.57059e-07
-5.59355e-07
-5.56384e-07
4.89686e-05
4.66409e-05
-4.89339e-05
5.90866e-07
5.93359e-07
5.95366e-07
6.03064e-07
4.66297e-05
-4.89334e-05
8.70159e-07
-8.88411e-07
8.75473e-07
-8.85663e-07
-8.83005e-07
8.77047e-07
-8.81051e-07
-4.66727e-05
4.89837e-05
-5.5609e-07
-5.57542e-07
-5.55145e-07
4.89706e-05
4.66568e-05
-4.89335e-05
6.04401e-07
6.08276e-07
5.91547e-07
5.98709e-07
4.66479e-05
-4.89448e-05
8.79764e-07
-8.85883e-07
8.76e-07
-8.85744e-07
-8.80649e-07
8.66925e-07
-8.81852e-07
-4.66711e-05
4.89831e-05
-5.56299e-07
-5.56929e-07
-5.63236e-07
4.89696e-05
4.66493e-05
-4.8938e-05
5.90245e-07
5.88626e-07
6.00565e-07
6.00648e-07
4.66207e-05
-4.89475e-05
8.73401e-07
-8.87074e-07
8.6709e-07
-8.87928e-07
-8.8273e-07
8.66628e-07
-8.84404e-07
-4.66716e-05
4.89811e-05
-5.64433e-07
-5.58716e-07
-5.59452e-07
4.89675e-05
4.66425e-05
-4.89395e-05
5.9863e-07
5.94557e-07
5.8846e-07
5.94165e-07
4.66287e-05
-4.89485e-05
8.67971e-07
-8.88862e-07
8.66898e-07
-8.89442e-07
-8.84256e-07
8.63616e-07
-8.84696e-07
-4.66728e-05
4.89796e-05
-5.58502e-07
-5.60478e-07
-5.59612e-07
4.89668e-05
4.66378e-05
-4.89411e-05
5.8527e-07
5.95204e-07
5.88255e-07
5.95491e-07
4.66296e-05
-4.89473e-05
8.66838e-07
-8.90542e-07
8.65435e-07
-8.89803e-07
-8.85213e-07
8.63999e-07
-8.85965e-07
-4.66742e-05
4.89793e-05
-5.59086e-07
-5.61223e-07
-5.59086e-07
4.8966e-05
4.6637e-05
-4.89419e-05
5.85744e-07
5.95082e-07
5.88191e-07
5.96179e-07
4.66298e-05
-4.89466e-05
8.65896e-07
-8.90406e-07
8.6422e-07
-8.89624e-07
-8.85931e-07
8.63644e-07
-8.85902e-07
-4.66742e-05
4.89794e-05
-5.5842e-07
-5.61591e-07
-5.5783e-07
4.89662e-05
4.66363e-05
-4.89422e-05
5.85324e-07
5.95422e-07
5.87794e-07
5.95855e-07
4.66303e-05
-4.89471e-05
8.64668e-07
-8.90199e-07
8.63344e-07
-8.89174e-07
-8.85853e-07
8.63127e-07
-8.85515e-07
-4.66741e-05
4.89799e-05
-5.58763e-07
-5.61096e-07
-5.59431e-07
4.89664e-05
4.6636e-05
-4.89425e-05
5.85252e-07
5.95192e-07
5.87416e-07
5.96087e-07
4.66298e-05
-4.89466e-05
8.64149e-07
-8.89687e-07
8.62602e-07
-8.88789e-07
-8.85345e-07
8.62782e-07
-8.85059e-07
-4.66735e-05
4.89804e-05
-5.59285e-07
-5.60595e-07
-5.59571e-07
4.89668e-05
4.66357e-05
-4.89433e-05
5.84842e-07
5.95294e-07
5.86797e-07
5.95788e-07
4.66303e-05
-4.89467e-05
8.63256e-07
-8.89511e-07
8.61691e-07
-8.88831e-07
-8.85097e-07
8.62395e-07
-8.84995e-07
-4.66731e-05
4.89804e-05
-5.59583e-07
-5.60501e-07
-5.59909e-07
4.89667e-05
4.66349e-05
-4.89432e-05
5.8419e-07
5.95116e-07
5.87322e-07
5.9614e-07
4.66302e-05
-4.89465e-05
8.62344e-07
-8.89547e-07
8.6175e-07
-8.89246e-07
-8.8489e-07
8.62468e-07
-8.85286e-07
-4.66731e-05
4.89799e-05
-5.59772e-07
-5.61073e-07
-5.60571e-07
4.89664e-05
4.66353e-05
-4.89425e-05
5.84948e-07
5.95583e-07
5.8761e-07
5.96552e-07
4.66306e-05
-4.89458e-05
8.62715e-07
-8.90044e-07
8.62138e-07
-8.89356e-07
-8.8542e-07
8.63263e-07
-8.85334e-07
-4.66737e-05
4.89797e-05
-5.6061e-07
-5.61123e-07
-5.60834e-07
4.89661e-05
4.66361e-05
-4.89403e-05
5.85548e-07
5.96022e-07
5.89487e-07
5.97461e-07
4.66313e-05
-4.89454e-05
8.63321e-07
-8.89947e-07
8.63379e-07
-8.89444e-07
-8.85344e-07
8.63091e-07
-8.85923e-07
-4.66738e-05
4.89795e-05
-5.60669e-07
-5.61894e-07
-5.61735e-07
4.89655e-05
4.66381e-05
-4.89401e-05
5.87231e-07
5.97183e-07
5.89906e-07
5.97413e-07
4.66317e-05
-4.89447e-05
8.64423e-07
-8.90207e-07
8.63582e-07
-8.88984e-07
-8.8597e-07
8.63016e-07
-8.85925e-07
-4.66742e-05
4.89798e-05
-5.61658e-07
-5.61728e-07
-5.61967e-07
4.89654e-05
4.66382e-05
-4.89411e-05
5.87167e-07
5.97144e-07
5.89024e-07
5.97487e-07
4.66313e-05
-4.89457e-05
8.64326e-07
-8.89712e-07
8.62897e-07
-8.8951e-07
-8.85868e-07
8.62881e-07
-8.85434e-07
-4.66736e-05
4.89793e-05
-5.61547e-07
-5.61862e-07
-5.6147e-07
4.89659e-05
4.66371e-05
-4.89404e-05
5.86461e-07
5.96741e-07
5.89423e-07
5.97465e-07
4.66294e-05
-4.89455e-05
8.63667e-07
-8.90053e-07
8.63276e-07
-8.88917e-07
-8.85258e-07
8.63036e-07
-8.855e-07
-4.66742e-05
4.89801e-05
-5.60761e-07
-5.61343e-07
-5.61429e-07
4.89661e-05
4.66379e-05
-4.89422e-05
5.86758e-07
5.96784e-07
5.87813e-07
5.96883e-07
4.66284e-05
-4.89464e-05
8.64091e-07
-8.89524e-07
8.62165e-07
-8.88347e-07
-8.85422e-07
8.62433e-07
-8.84882e-07
-4.66733e-05
4.89807e-05
-5.60671e-07
-5.60663e-07
-5.60778e-07
4.89668e-05
4.66363e-05
-4.89411e-05
5.85297e-07
5.96131e-07
5.88581e-07
5.97437e-07
4.66275e-05
-4.89462e-05
8.63019e-07
-8.88994e-07
8.62979e-07
-8.88613e-07
-8.84854e-07
8.62697e-07
-8.84898e-07
-4.66728e-05
4.89805e-05
-5.59873e-07
-5.60796e-07
-5.6067e-07
4.89667e-05
4.66378e-05
-4.89415e-05
5.86278e-07
5.96851e-07
5.88525e-07
5.97421e-07
4.66277e-05
-4.89465e-05
8.63979e-07
-8.89287e-07
8.6283e-07
-8.88314e-07
-8.84791e-07
8.62379e-07
-8.84934e-07
-4.66731e-05
4.89807e-05
-5.59766e-07
-5.60723e-07
-5.60838e-07
4.89666e-05
4.66378e-05
-4.89417e-05
5.86133e-07
5.96817e-07
5.8889e-07
5.98224e-07
4.66274e-05
-4.89458e-05
8.63565e-07
-8.89132e-07
8.63183e-07
-8.89241e-07
-8.85143e-07
8.62424e-07
-8.85694e-07
-4.6673e-05
4.89797e-05
-5.60191e-07
-5.61812e-07
-5.61798e-07
4.89658e-05
4.66386e-05
-4.89421e-05
5.86722e-07
5.97693e-07
5.89067e-07
5.98463e-07
4.6628e-05
-4.89455e-05
8.64002e-07
-8.89899e-07
8.63236e-07
-8.89253e-07
-8.85707e-07
8.63125e-07
-8.85796e-07
-4.66739e-05
4.89797e-05
-5.61018e-07
-5.61967e-07
-5.62116e-07
4.89656e-05
4.66391e-05
-4.89423e-05
5.87287e-07
5.97945e-07
5.89045e-07
5.98775e-07
4.6628e-05
-4.89453e-05
8.64046e-07
-8.89954e-07
8.63461e-07
-8.89574e-07
-8.85793e-07
8.62738e-07
-8.85949e-07
-4.6674e-05
4.89793e-05
-5.61264e-07
-5.62372e-07
-5.62394e-07
4.89654e-05
4.66397e-05
-4.89445e-05
5.88019e-07
5.98316e-07
5.87761e-07
6.00051e-07
4.66284e-05
-4.89445e-05
8.64097e-07
-8.90287e-07
8.62472e-07
-8.8971e-07
-8.86158e-07
8.63967e-07
-8.86533e-07
-4.66744e-05
4.89791e-05
-5.61848e-07
-5.62164e-07
-5.65037e-07
4.89639e-05
4.66372e-05
-4.89502e-05
5.87387e-07
6.00564e-07
5.88297e-07
6.0239e-07
4.66297e-05
-4.89418e-05
8.62486e-07
-8.90173e-07
8.64378e-07
-8.88439e-07
-8.86752e-07
8.5922e-07
-8.86155e-07
-4.66745e-05
4.89806e-05
-5.65671e-07
-5.61233e-07
-5.66012e-07
4.89652e-05
4.66398e-05
-4.89497e-05
5.96399e-07
5.96147e-07
5.82568e-07
6.07644e-07
4.6629e-05
-4.89362e-05
8.66362e-07
-8.88666e-07
8.61705e-07
-8.88259e-07
-8.85063e-07
8.70564e-07
-8.83265e-07
-4.66732e-05
4.89811e-05
-5.62076e-07
-5.60146e-07
-5.60337e-07
4.89684e-05
4.66413e-05
-4.89441e-05
5.90118e-07
6.09016e-07
5.84927e-07
5.94045e-07
4.6642e-05
-4.89486e-05
8.64706e-07
-8.89143e-07
8.65386e-07
-8.88317e-07
-8.82858e-07
8.63488e-07
-8.82949e-07
-4.66731e-05
4.89814e-05
-5.58965e-07
-5.59143e-07
-5.59644e-07
4.89686e-05
4.66443e-05
-4.89437e-05
5.89194e-07
5.94792e-07
5.84368e-07
5.94607e-07
4.66248e-05
-4.89486e-05
8.6592e-07
-8.89012e-07
8.65333e-07
-8.8899e-07
-8.83432e-07
8.64738e-07
-8.84971e-07
-4.66726e-05
4.89808e-05
-5.58507e-07
-5.60266e-07
-5.61412e-07
4.89668e-05
4.66446e-05
-4.89439e-05
5.89539e-07
5.94265e-07
5.83899e-07
5.94163e-07
4.66255e-05
-4.8949e-05
8.66299e-07
-8.89999e-07
8.65363e-07
-8.89386e-07
-8.85185e-07
8.64727e-07
-8.85206e-07
-4.66732e-05
4.89803e-05
-5.60107e-07
-5.60685e-07
-5.61776e-07
4.89665e-05
4.66446e-05
-4.89428e-05
5.89375e-07
5.93829e-07
5.85132e-07
5.94163e-07
4.66252e-05
-4.89487e-05
8.66588e-07
-8.9018e-07
8.66459e-07
-8.89898e-07
-8.85257e-07
8.65162e-07
-8.85775e-07
-4.66736e-05
4.89798e-05
-5.59858e-07
-5.61331e-07
-5.62744e-07
4.89659e-05
4.66457e-05
-4.89431e-05
5.90415e-07
5.94534e-07
5.84888e-07
5.9392e-07
4.66255e-05
-4.89486e-05
8.67615e-07
-8.90694e-07
8.66365e-07
-8.89662e-07
-8.85766e-07
8.65379e-07
-8.85599e-07
-4.66742e-05
4.89799e-05
-5.60531e-07
-5.61211e-07
-5.6253e-07
4.8966e-05
4.6645e-05
-4.8944e-05
5.89782e-07
5.93694e-07
5.83868e-07
5.93296e-07
4.66252e-05
-4.89493e-05
8.67252e-07
-8.90306e-07
8.65897e-07
-8.8969e-07
-8.85546e-07
8.64735e-07
-8.85649e-07
-4.66739e-05
4.898e-05
-5.60145e-07
-5.61067e-07
-5.62333e-07
4.8966e-05
4.66439e-05
-4.89454e-05
5.88726e-07
5.93363e-07
5.82564e-07
5.92657e-07
4.66247e-05
-4.89496e-05
8.66771e-07
-8.90415e-07
8.65386e-07
-8.89205e-07
-8.85646e-07
8.64935e-07
-8.85122e-07
-4.66738e-05
4.89805e-05
-5.60282e-07
-5.60457e-07
-5.61714e-07
4.89666e-05
4.66426e-05
-4.89462e-05
5.87498e-07
5.92494e-07
5.81814e-07
5.91922e-07
4.66241e-05
-4.89503e-05
8.66298e-07
-8.89836e-07
8.64869e-07
-8.88988e-07
-8.84844e-07
8.63824e-07
-8.84497e-07
-4.66732e-05
4.89808e-05
-5.59523e-07
-5.5964e-07
-5.60598e-07
4.89674e-05
4.66418e-05
-4.89464e-05
5.86974e-07
5.92076e-07
5.8183e-07
5.91926e-07
4.66236e-05
-4.895e-05
8.65855e-07
-8.89863e-07
8.64758e-07
-8.89327e-07
-8.84467e-07
8.64585e-07
-8.84522e-07
-4.6673e-05
4.89804e-05
-5.59055e-07
-5.59811e-07
-5.60514e-07
4.89673e-05
4.66417e-05
-4.89462e-05
5.87052e-07
5.92072e-07
5.81823e-07
5.92e-07
4.66238e-05
-4.89499e-05
8.65782e-07
-8.90081e-07
8.64773e-07
-8.89247e-07
-8.84542e-07
8.6419e-07
-8.84641e-07
-4.66733e-05
4.89805e-05
-5.59537e-07
-5.59827e-07
-5.60447e-07
4.89671e-05
4.66419e-05
-4.89455e-05
5.87151e-07
5.92224e-07
5.82704e-07
5.92759e-07
4.6624e-05
-4.89494e-05
8.65986e-07
-8.90058e-07
8.65353e-07
-8.89755e-07
-8.84798e-07
8.64681e-07
-8.85415e-07
-4.66733e-05
4.89798e-05
-5.59675e-07
-5.6072e-07
-5.61767e-07
4.8966e-05
4.66424e-05
-4.89459e-05
5.88059e-07
5.93077e-07
5.82039e-07
5.91379e-07
4.66243e-05
-4.89512e-05
8.66426e-07
-8.90669e-07
8.64713e-07
-8.90009e-07
-8.8556e-07
8.62682e-07
-8.8598e-07
-4.66738e-05
4.89795e-05
-5.61215e-07
-5.6075e-07
-5.61491e-07
4.89657e-05
4.66414e-05
-4.89464e-05
5.86767e-07
5.89896e-07
5.80642e-07
5.79202e-07
4.66206e-05
-4.89667e-05
8.65502e-07
-8.90806e-07
8.64228e-07
-8.90419e-07
-8.86193e-07
8.54477e-07
-8.87611e-07
-4.66737e-05
4.89792e-05
-5.61077e-07
-5.61059e-07
-5.63091e-07
4.89642e-05
4.66413e-05
-4.89458e-05
5.86063e-07
5.81718e-07
5.81872e-07
5.93073e-07
4.6605e-05
-4.89499e-05
8.65374e-07
-8.9138e-07
8.64661e-07
-8.90509e-07
-8.87894e-07
8.64582e-07
-8.86682e-07
-4.66741e-05
4.89792e-05
-5.63432e-07
-5.60878e-07
-5.64145e-07
4.89648e-05
4.66422e-05
-4.89458e-05
5.86886e-07
5.92284e-07
5.80677e-07
5.94556e-07
4.66234e-05
-4.8951e-05
8.65789e-07
-8.91084e-07
8.65053e-07
-8.90285e-07
-8.85855e-07
8.62564e-07
-8.83298e-07
-4.66743e-05
4.89796e-05
-5.65238e-07
-5.58035e-07
-5.70379e-07
4.8968e-05
4.66423e-05
-4.89455e-05
5.85628e-07
5.95275e-07
5.79956e-07
5.95656e-07
4.66225e-05
-4.89514e-05
8.66261e-07
-8.91155e-07
8.65537e-07
-8.90439e-07
-8.82613e-07
8.61986e-07
-8.81788e-07
-4.6674e-05
4.89796e-05
-5.7197e-07
-5.5702e-07
-5.71484e-07
4.89689e-05
4.66426e-05
-4.89457e-05
5.85177e-07
5.95644e-07
5.79525e-07
5.95607e-07
4.66222e-05
-4.8952e-05
8.66585e-07
-8.91235e-07
8.65507e-07
-8.90403e-07
-8.81633e-07
8.61034e-07
-8.81182e-07
-4.66741e-05
4.89798e-05
-5.72468e-07
-5.56571e-07
-5.71674e-07
4.89694e-05
4.66425e-05
-4.89448e-05
5.84736e-07
5.95935e-07
5.80203e-07
5.96445e-07
4.66218e-05
-4.89516e-05
8.66641e-07
-8.91269e-07
8.66121e-07
-8.90974e-07
-8.81071e-07
8.61827e-07
-8.81138e-07
-4.6674e-05
4.89791e-05
-5.72633e-07
-5.57116e-07
-5.72326e-07
4.89692e-05
4.66434e-05
-4.89446e-05
5.8553e-07
5.96817e-07
5.80498e-07
5.96841e-07
4.66222e-05
-4.89516e-05
8.67297e-07
-8.91886e-07
8.66545e-07
-8.91185e-07
-8.81146e-07
8.61638e-07
-8.81143e-07
-4.66747e-05
4.89788e-05
-5.73358e-07
-5.57148e-07
-5.72607e-07
4.89691e-05
4.66436e-05
-4.89442e-05
5.85706e-07
5.9703e-07
5.80857e-07
5.97526e-07
4.66221e-05
-4.89508e-05
8.67622e-07
-8.91929e-07
8.66816e-07
-8.91337e-07
-8.81108e-07
8.62361e-07
-8.81269e-07
-4.66749e-05
4.89786e-05
-5.73497e-07
-5.57311e-07
-5.73057e-07
4.89687e-05
4.6644e-05
-4.89444e-05
5.86185e-07
5.97976e-07
5.80646e-07
5.9795e-07
4.66231e-05
-4.89506e-05
8.67973e-07
-8.92254e-07
8.66705e-07
-8.91876e-07
-8.81349e-07
8.62426e-07
-8.81242e-07
-4.66752e-05
4.89781e-05
-5.74123e-07
-5.57554e-07
-5.7322e-07
4.89688e-05
4.66437e-05
-4.89442e-05
5.85771e-07
5.97955e-07
5.8048e-07
5.9737e-07
4.66229e-05
-4.89514e-05
8.67752e-07
-8.92539e-07
8.66856e-07
-8.91086e-07
-8.81134e-07
8.61615e-07
-8.80632e-07
-4.66756e-05
4.8979e-05
-5.7395e-07
-5.56621e-07
-5.72426e-07
4.89695e-05
4.66439e-05
-4.89446e-05
5.85717e-07
5.97533e-07
5.80225e-07
5.97299e-07
4.66222e-05
-4.89515e-05
8.68101e-07
-8.9175e-07
8.66621e-07
-8.90891e-07
-8.80602e-07
8.61613e-07
-8.8062e-07
-4.66746e-05
4.89793e-05
-5.73086e-07
-5.56462e-07
-5.72399e-07
4.89695e-05
4.66433e-05
-4.89456e-05
5.85188e-07
5.97162e-07
5.79113e-07
5.9615e-07
4.66221e-05
-4.89522e-05
8.67756e-07
-8.91464e-07
8.65712e-07
-8.90364e-07
-8.80348e-07
8.60959e-07
-8.7972e-07
-4.66743e-05
4.898e-05
-5.72882e-07
-5.55578e-07
-5.71603e-07
4.89705e-05
4.66425e-05
-4.89448e-05
5.84412e-07
5.96381e-07
5.79856e-07
5.96976e-07
4.66214e-05
-4.89515e-05
8.67038e-07
-8.91143e-07
8.66219e-07
-8.90647e-07
-8.79621e-07
8.6153e-07
-8.80037e-07
-4.66738e-05
4.89795e-05
-5.72267e-07
-5.56083e-07
-5.72121e-07
4.89703e-05
4.66433e-05
-4.89444e-05
5.85275e-07
5.97226e-07
5.80041e-07
5.9706e-07
4.66221e-05
-4.89514e-05
8.67698e-07
-8.91444e-07
8.66412e-07
-8.90349e-07
-8.80065e-07
8.61533e-07
-8.79803e-07
-4.66743e-05
4.89796e-05
-5.72776e-07
-5.55913e-07
-5.72128e-07
4.89701e-05
4.66434e-05
-4.8943e-05
5.85436e-07
5.97382e-07
5.81183e-07
5.98307e-07
4.6622e-05
-4.895e-05
8.67864e-07
-8.9098e-07
8.67582e-07
-8.89274e-07
-8.79616e-07
8.62832e-07
-8.78532e-07
-4.66738e-05
4.89805e-05
-5.72503e-07
-5.54946e-07
-5.71309e-07
4.89711e-05
4.66446e-05
-4.89417e-05
5.86801e-07
5.98847e-07
5.82198e-07
5.99564e-07
4.66232e-05
-4.89486e-05
8.69373e-07
-8.89062e-07
8.69027e-07
-8.84519e-07
-8.77687e-07
8.64733e-07
-8.7459e-07
-4.66715e-05
4.89872e-05
-5.69995e-07
-5.44136e-07
-5.63547e-07
4.89764e-05
4.66455e-05
-4.89422e-05
5.87576e-07
5.9983e-07
5.81863e-07
5.99402e-07
4.66241e-05
-4.89493e-05
8.70527e-07
-8.84793e-07
8.6858e-07
-8.86624e-07
-8.73748e-07
8.63972e-07
-8.75216e-07
-4.66647e-05
4.89833e-05
-5.60503e-07
-5.52204e-07
-5.67213e-07
4.89751e-05
4.66452e-05
-4.89435e-05
5.86903e-07
5.99327e-07
5.80971e-07
5.98023e-07
4.66238e-05
-4.89508e-05
8.69527e-07
-8.8856e-07
8.67187e-07
-8.90182e-07
-8.76723e-07
8.62675e-07
-8.7952e-07
-4.6671e-05
4.89797e-05
-5.69536e-07
-5.56329e-07
-5.73577e-07
4.89704e-05
4.66443e-05
-4.89449e-05
5.85831e-07
5.97785e-07
5.79677e-07
5.96895e-07
4.66226e-05
-4.89516e-05
8.68125e-07
-8.91104e-07
8.65889e-07
-8.90426e-07
-8.79563e-07
8.61262e-07
-8.7965e-07
-4.66741e-05
4.89795e-05
-5.71158e-07
-5.56263e-07
-5.72989e-07
4.89702e-05
4.6643e-05
-4.89451e-05
5.84895e-07
5.97053e-07
5.79612e-07
5.96864e-07
4.66221e-05
-4.89514e-05
8.67151e-07
-8.91433e-07
8.65704e-07
-8.90724e-07
-8.79883e-07
8.61849e-07
-8.79908e-07
-4.66742e-05
4.89794e-05
-5.72491e-07
-5.56023e-07
-5.72257e-07
4.897e-05
4.66429e-05
-4.89451e-05
5.84809e-07
5.9689e-07
5.79384e-07
5.96368e-07
4.66221e-05
-4.89523e-05
8.66971e-07
-8.91269e-07
8.65658e-07
-8.90517e-07
-8.79719e-07
8.60491e-07
-8.79702e-07
-4.66741e-05
4.89796e-05
-5.73189e-07
-5.55735e-07
-5.7229e-07
4.89701e-05
4.66429e-05
-4.89445e-05
5.84653e-07
5.96592e-07
5.80049e-07
5.97065e-07
4.66213e-05
-4.89514e-05
8.6705e-07
-8.91379e-07
8.66136e-07
-8.91059e-07
-8.79761e-07
8.61722e-07
-8.80272e-07
-4.66741e-05
4.8979e-05
-5.73172e-07
-5.56432e-07
-5.73097e-07
4.89694e-05
4.66436e-05
-4.89443e-05
5.85523e-07
5.9736e-07
5.80402e-07
5.97437e-07
4.66222e-05
-4.89512e-05
8.67602e-07
-8.91888e-07
8.6624e-07
-8.90953e-07
-8.80267e-07
8.61492e-07
-8.80492e-07
-4.66747e-05
4.8979e-05
-5.74033e-07
-5.56515e-07
-5.73523e-07
4.89691e-05
4.66436e-05
-4.8944e-05
5.85624e-07
5.9763e-07
5.80669e-07
5.97683e-07
4.66224e-05
-4.89509e-05
8.6755e-07
-8.91781e-07
8.66439e-07
-8.91732e-07
-8.80679e-07
8.61834e-07
-8.80748e-07
-4.66746e-05
4.89781e-05
-5.74621e-07
-5.57228e-07
-5.73917e-07
4.89687e-05
4.6644e-05
-4.89437e-05
5.86072e-07
5.98039e-07
5.81039e-07
5.98438e-07
4.66226e-05
-4.89502e-05
8.67844e-07
-8.92626e-07
8.66697e-07
-8.91601e-07
-8.80631e-07
8.62457e-07
-8.80676e-07
-4.66755e-05
4.89782e-05
-5.74634e-07
-5.57272e-07
-5.7387e-07
4.89687e-05
4.66441e-05
-4.89444e-05
5.86192e-07
5.98452e-07
5.80237e-07
5.97273e-07
4.66233e-05
-4.89514e-05
8.67973e-07
-8.92084e-07
8.66281e-07
-8.90586e-07
-8.80624e-07
8.61809e-07
-8.80118e-07
-4.66751e-05
4.89795e-05
-5.74648e-07
-5.55971e-07
-5.72849e-07
4.89694e-05
4.66434e-05
-4.89446e-05
5.85354e-07
5.97212e-07
5.7998e-07
5.96809e-07
4.66219e-05
-4.89518e-05
8.67527e-07
-8.91274e-07
8.66086e-07
-8.90558e-07
-8.79932e-07
8.61236e-07
-8.79989e-07
-4.66739e-05
4.89793e-05
-5.73517e-07
-5.56075e-07
-5.72851e-07
4.89696e-05
4.66432e-05
-4.89449e-05
5.85177e-07
5.97045e-07
5.79619e-07
5.96907e-07
4.66217e-05
-4.89514e-05
8.67336e-07
-8.91457e-07
8.65877e-07
-8.90352e-07
-8.79884e-07
8.6147e-07
-8.79466e-07
-4.66742e-05
4.89796e-05
-5.73574e-07
-5.55507e-07
-5.72194e-07
4.89701e-05
4.66429e-05
-4.8945e-05
5.84772e-07
5.96937e-07
5.79554e-07
5.96641e-07
4.6622e-05
-4.89517e-05
8.67118e-07
-8.9126e-07
8.65672e-07
-8.90405e-07
-8.79376e-07
8.61357e-07
-8.79766e-07
-4.66738e-05
4.89794e-05
-5.72946e-07
-5.56017e-07
-5.72743e-07
4.89698e-05
4.66428e-05
-4.89444e-05
5.84991e-07
5.96878e-07
5.80078e-07
5.97169e-07
4.66217e-05
-4.89513e-05
8.67083e-07
-8.91678e-07
8.66244e-07
-8.90368e-07
-8.79836e-07
8.61319e-07
-8.80182e-07
-4.66741e-05
4.89792e-05
-5.73627e-07
-5.56257e-07
-5.73032e-07
4.89695e-05
4.66435e-05
-4.89441e-05
5.85225e-07
5.97254e-07
5.81225e-07
5.98302e-07
4.66222e-05
-4.89509e-05
8.67404e-07
-8.91921e-07
8.67043e-07
-8.90994e-07
-8.80075e-07
8.62496e-07
-8.81211e-07
-4.66743e-05
4.89785e-05
-5.73801e-07
-5.57554e-07
-5.74595e-07
4.89687e-05
4.66436e-05
-4.89429e-05
5.84913e-07
5.96852e-07
5.84848e-07
6.01816e-07
4.66225e-05
-4.89494e-05
8.66733e-07
-8.92123e-07
8.69728e-07
-8.93215e-07
-8.7973e-07
8.65341e-07
-8.84274e-07
-4.66748e-05
4.89763e-05
-5.73894e-07
-5.61491e-07
-5.78381e-07
4.89672e-05
4.66417e-05
-4.89336e-05
5.80235e-07
5.92063e-07
5.94418e-07
6.11601e-07
4.66209e-05
-4.89396e-05
8.62076e-07
-8.8883e-07
8.7782e-07
-9.00818e-07
-8.75309e-07
8.73929e-07
-8.92728e-07
-4.66728e-05
4.89657e-05
-5.69166e-07
-5.71374e-07
-5.88443e-07
4.89577e-05
4.66268e-05
-4.88724e-05
5.69871e-07
5.81184e-07
6.00519e-07
6.17707e-07
4.66061e-05
-4.88792e-05
8.49881e-07
-8.76752e-07
8.81175e-07
-9.04313e-07
-8.63428e-07
8.76637e-07
-8.96113e-07
-4.66576e-05
4.8905e-05
-5.58615e-07
-5.77885e-07
-5.94824e-07
4.88962e-05
4.65153e-05
-4.86802e-05
5.71881e-07
5.8225e-07
5.39183e-07
5.5598e-07
4.64947e-05
-4.86861e-05
8.37185e-07
-8.63587e-07
8.58448e-07
-8.82053e-07
-8.50433e-07
8.54074e-07
-8.73163e-07
-4.65459e-05
4.87123e-05
-5.60481e-07
-5.16837e-07
-5.31591e-07
4.87041e-05
4.64431e-05
-4.84669e-05
6.61888e-07
6.72635e-07
3.18342e-07
3.34971e-07
4.64226e-05
-4.84735e-05
9.31242e-07
-9.56652e-07
6.94807e-07
-7.19979e-07
-9.43458e-07
6.90776e-07
-7.10674e-07
-4.64724e-05
4.84995e-05
-6.51005e-07
-2.96477e-07
-3.09641e-07
4.84903e-05
4.59679e-05
-4.8015e-05
9.10185e-07
9.2082e-07
5.86227e-08
7.47287e-08
4.59477e-05
-4.80205e-05
1.02801e-06
-1.05235e-06
5.17188e-07
-5.42718e-07
-1.04007e-06
5.13596e-07
-5.33293e-07
-4.59954e-05
4.80485e-05
-8.99356e-07
-3.6142e-08
-4.87135e-08
4.80391e-05
4.56646e-05
-4.68243e-05
1.26542e-06
1.27246e-06
-5.95275e-07
-5.83903e-07
4.56436e-05
-4.68296e-05
1.29259e-06
-1.31609e-06
-1.06233e-08
-1.27263e-08
-1.30443e-06
-1.18556e-08
-6.45456e-09
-4.56904e-05
4.68597e-05
-1.25185e-06
6.25966e-07
6.18731e-07
4.68488e-05
4.42668e-05
-4.42584e-05
2.11924e-06
2.12899e-06
-1.99786e-06
-1.9866e-06
4.42452e-05
-4.42618e-05
1.90609e-06
-1.93146e-06
-1.27458e-06
1.25851e-06
-1.9192e-06
-1.26952e-06
1.2556e-06
-4.42923e-05
4.42891e-05
-2.09773e-06
2.03053e-06
2.02515e-06
4.4287e-05
4.08634e-05
-3.62148e-05
3.74054e-06
3.7591e-06
-6.77602e-06
-6.76904e-06
4.08519e-05
-3.623e-05
3.22424e-06
-3.2376e-06
-5.20466e-06
5.20828e-06
-3.23038e-06
-5.18791e-06