/*--------------------------------*- C++ -*----------------------------------*\
| =========                 |                                                 |
| \\      /  F ield         | OpenFOAM: The Open Source CFD Toolbox           |
|  \\    /   O peration     | Version:  2206                                  |
|   \\  /    A nd           | Website:  www.openfoam.com                      |
|    \\/     M anipulation  |                                                 |
\*---------------------------------------------------------------------------*/
FoamFile
{
    version     2.0;
    format      ascii;
    arch        "LSB;label=32;scalar=64";
    class       volScalarField;
    location    "4.5";
    object      nut;
}
// * * * * * * * * * * * * * * * * * * * * * * * * * * * * * * * * * * * * * //

dimensions      [0 2 -1 0 0 0 0];

internalField   nonuniform List<scalar> 
28515
(
0.000251658
0.000255725
0.000255726
0.000258965
0.000233888
0.000234578
0.00023458
0.000237408
0.000233847
0.000234548
0.000234548
0.00023732
0.000233847
0.000234547
0.000234546
0.000237313
0.000233847
0.000234548
0.000234548
0.00023732
0.000233847
0.000234545
0.000234549
0.000237312
0.000233847
0.000234545
0.000234548
0.00023731
0.000233847
0.000234547
0.000234547
0.000237314
0.000233847
0.000234547
0.000234547
0.000237316
0.000233847
0.000234549
0.000234548
0.000237311
0.000233847
0.000234547
0.000234547
0.000237314
0.000233847
0.000234547
0.000234548
0.000237311
0.000271132
0.000272666
0.000272671
0.00027114
0.00027267
0.000272677
0.000268128
0.000268115
0.000268118
0.000268128
0.000272671
0.000272673
0.000271144
0.000272673
0.000272669
0.000271132
0.000258968
0.000237026
0.000255724
0.000255719
0.000234685
0.000234687
0.000258973
0.000237026
0.000255724
0.000255722
0.000234685
0.000234687
0.000255727
0.000234684
0.000234685
0.00025897
0.000237023
0.000255724
0.000234686
0.000234683
0.000237026
0.000237406
0.000236941
0.000234582
0.000234579
0.00023455
0.00023455
0.000237413
0.00023694
0.000234578
0.000234581
0.000234548
0.000234548
0.000234582
0.000234548
0.000234548
0.00023741
0.000236944
0.000234579
0.000234546
0.000234549
0.000236945
0.000237316
0.000236945
0.00023455
0.000234548
0.000234551
0.000234545
0.000237316
0.000236948
0.000234548
0.00023455
0.000234549
0.00023455
0.000234548
0.000234549
0.000234548
0.000237317
0.000236948
0.000234548
0.000234549
0.000234547
0.000236947
0.000237312
0.000236947
0.000234549
0.000234548
0.000234551
0.000234546
0.000237313
0.00023695
0.000234549
0.000234549
0.000234549
0.00023455
0.000234547
0.000234549
0.000234548
0.000237317
0.000236948
0.000234547
0.000234549
0.000234548
0.000236951
0.000237312
0.000236948
0.000234549
0.000234549
0.000234548
0.000234548
0.000237313
0.000236949
0.00023455
0.000234549
0.000234551
0.000234547
0.000234548
0.000234548
0.000234549
0.000237314
0.000236949
0.000234547
0.00023455
0.000234546
0.000236947
0.000237315
0.000236943
0.000234545
0.000234549
0.000234548
0.000234547
0.000237313
0.000236947
0.000234549
0.000234546
0.000234549
0.000234548
0.000234547
0.000234548
0.000234549
0.000237316
0.000236947
0.000234547
0.000234549
0.000234545
0.000236945
0.000237308
0.000236946
0.000234547
0.000234548
0.000234548
0.00023455
0.000237311
0.000236949
0.000234548
0.000234546
0.00023455
0.000234551
0.000234547
0.000234548
0.00023455
0.000237315
0.000236949
0.000234547
0.000234548
0.000234545
0.000236949
0.000237311
0.000236947
0.000234549
0.000234549
0.000234549
0.000234549
0.000237313
0.00023695
0.000234549
0.00023455
0.000234551
0.000234549
0.000234547
0.000234548
0.00023455
0.000237317
0.000236951
0.000234547
0.000234549
0.000234545
0.000236951
0.00023731
0.000236949
0.00023455
0.000234549
0.000234549
0.00023455
0.000237314
0.00023695
0.000234549
0.00023455
0.000234551
0.000234551
0.000234547
0.000234548
0.00023455
0.000237319
0.000236951
0.000234547
0.000234549
0.000234545
0.000236951
0.000237316
0.000236948
0.000234547
0.000234547
0.000234545
0.000234547
0.000237314
0.000236948
0.000234548
0.000234548
0.000234551
0.000234548
0.000234549
0.000234547
0.000234548
0.000237315
0.000236951
0.00023455
0.000234548
0.000234545
0.000236952
0.000237312
0.000236947
0.000234548
0.000234551
0.000234545
0.000234549
0.000237309
0.000236945
0.000234547
0.000234547
0.00023455
0.000234548
0.000234548
0.000234547
0.000234546
0.000237318
0.000236947
0.000234548
0.000234547
0.000234547
0.000236947
0.000237313
0.000234547
0.000234549
0.000237309
0.000234546
0.000234549
0.000234549
0.000237312
0.000234547
2.65783e-05
2.86763e-05
2.67909e-05
2.67908e-05
4.66226e-05
3.36023e-05
0.000114734
2.72265e-05
4.6622e-05
3.3603e-05
2.72265e-05
0.000114745
3.85559e-05
0.000109738
0.000109719
0.00012626
3.25056e-05
0.000141966
3.08083e-05
1.40241e-05
1.267e-05
0.000126245
3.25023e-05
0.00014196
3.08051e-05
0.000251659
0.000251662
0.000251659
0.000234001
0.000234001
0.000234001
0.000234
0.000211922
0.000163159
0.000247782
0.00023882
0.000224138
0.000134429
0.000236996
1.40231e-05
1.2669e-05
0.00021192
0.000247786
0.000163154
0.000238825
0.000224138
0.000236997
0.000134425
0.000109129
0.000109119
0.000238962
9.95512e-05
9.95456e-05
0.000129707
3.08816e-05
0.000137234
3.07403e-05
1.26874e-05
1.2613e-05
0.00012971
3.08785e-05
0.00013723
3.0737e-05
0.000233887
0.000233888
0.000233888
0.000233848
0.000233848
0.000233848
0.000233848
0.000212067
0.0001505
0.000233948
0.000234557
0.000215828
0.000138083
0.000233913
1.26861e-05
1.26117e-05
0.000212067
0.000233948
0.000150495
0.000234557
0.000215827
0.000233913
0.000138079
0.000105907
0.000105897
0.00023694
0.000101049
0.000101045
0.000130029
3.08675e-05
0.000137261
3.07359e-05
1.26705e-05
1.26118e-05
0.000130025
3.08651e-05
0.000137259
3.0733e-05
0.000233847
0.000233847
0.000233847
0.000233847
0.000233847
0.000233847
0.000233847
0.000212192
0.000150547
0.000233907
0.000234548
0.000215843
0.000138464
0.000233907
1.2669e-05
1.26103e-05
0.000212188
0.000233907
0.000150543
0.000234551
0.000215842
0.000233907
0.000138455
0.000105759
0.000105746
0.000236945
0.000101253
0.000101247
0.000130087
3.08662e-05
0.000137255
3.07353e-05
1.26697e-05
1.26118e-05
0.000130085
3.08634e-05
0.000137253
3.07323e-05
0.000233847
0.000233847
0.000233847
0.000233847
0.000233847
0.000233847
0.000233847
0.000212205
0.000150538
0.000233907
0.000234548
0.000215837
0.000138513
0.000233907
1.26682e-05
1.26104e-05
0.000212205
0.000233907
0.000150534
0.000234549
0.000215837
0.000233907
0.00013851
0.000105735
0.000105723
0.000236949
0.00010127
0.000101266
0.000130091
3.08661e-05
0.000137255
3.07354e-05
1.26696e-05
1.26118e-05
0.000130086
3.08632e-05
0.000137251
3.07322e-05
0.000233847
0.000233847
0.000233847
0.000233847
0.000233847
0.000233847
0.000233847
0.000212211
0.000150541
0.000233907
0.000234547
0.000215839
0.000138529
0.000233907
1.26681e-05
1.26104e-05
0.000212209
0.000233907
0.000150537
0.00023455
0.000215838
0.000233907
0.000138524
0.000105732
0.000105719
0.000236946
0.000101287
0.000101282
0.000130085
3.08664e-05
0.000137256
3.07355e-05
1.26696e-05
1.26117e-05
0.000130071
3.08634e-05
0.000137253
3.07322e-05
0.000233847
0.000233847
0.000233847
0.000233847
0.000233847
0.000233847
0.000233847
0.00021221
0.000150538
0.000233906
0.000234546
0.000215839
0.000138524
0.000233907
1.26682e-05
1.26104e-05
0.000212207
0.000233907
0.000150534
0.000234549
0.000215837
0.000233907
0.000138513
0.000105729
0.000105717
0.000236945
0.000101284
0.00010128
0.000130065
3.08664e-05
0.000137248
3.07354e-05
1.26696e-05
1.26117e-05
0.00013006
3.08634e-05
0.000137245
3.07322e-05
0.000233847
0.000233847
0.000233847
0.000233847
0.000233847
0.000233847
0.000233847
0.000212203
0.000150535
0.000233906
0.000234548
0.000215836
0.000138509
0.000233907
1.26683e-05
1.26104e-05
0.000212204
0.000233907
0.000150531
0.000234548
0.000215834
0.000233907
0.000138507
0.000105733
0.00010572
0.000236944
0.000101269
0.000101264
0.000130085
3.08663e-05
0.000137253
3.07354e-05
1.26695e-05
1.26117e-05
0.000130071
3.08634e-05
0.00013725
3.07322e-05
0.000233847
0.000233847
0.000233847
0.000233847
0.000233847
0.000233847
0.000233847
0.00021221
0.000150537
0.000233907
0.000234548
0.000215837
0.000138525
0.000233907
1.26682e-05
1.26104e-05
0.000212204
0.000233907
0.000150533
0.00023455
0.000215836
0.000233907
0.000138515
0.000105729
0.000105717
0.000236949
0.000101282
0.000101277
0.000130109
3.08662e-05
0.000137256
3.07356e-05
1.26694e-05
1.26117e-05
0.000130102
3.08632e-05
0.000137252
3.07323e-05
0.000233847
0.000233847
0.000233847
0.000233847
0.000233847
0.000233847
0.000233847
0.000212214
0.00015054
0.000233907
0.000234548
0.00021584
0.00013853
0.000233907
1.2668e-05
1.26104e-05
0.000212216
0.000233907
0.000150536
0.00023455
0.000215839
0.000233907
0.00013853
0.000105726
0.000105715
0.00023695
0.000101284
0.000101277
0.000130097
3.08664e-05
0.000137259
3.07357e-05
1.26694e-05
1.26117e-05
0.000130094
3.08634e-05
0.000137256
3.07325e-05
0.000233847
0.000233847
0.000233847
0.000233847
0.000233847
0.000233847
0.000233847
0.000212215
0.000150541
0.000233907
0.000234549
0.000215842
0.000138536
0.000233907
1.26681e-05
1.26104e-05
0.000212212
0.000233907
0.000150538
0.000234548
0.000215842
0.000233907
0.000138525
0.00010573
0.000105716
0.00023695
0.000101296
0.000101294
0.000130101
3.08666e-05
0.000137255
3.0736e-05
1.26695e-05
1.26117e-05
0.000130098
3.08634e-05
0.00013725
3.07325e-05
0.000233847
0.000233847
0.000233847
0.000233847
0.000233847
0.000233847
0.000233847
0.000212215
0.000150539
0.000233907
0.000234548
0.00021584
0.000138522
0.000233907
1.26682e-05
1.26104e-05
0.000212214
0.000233907
0.000150534
0.000234547
0.000215838
0.000233907
0.000138522
0.000105733
0.000105718
0.000236947
0.000101288
0.000101282
0.000130061
3.08669e-05
0.000137253
3.07358e-05
1.26696e-05
1.26117e-05
3.08638e-05
0.00013725
0.000233847
0.000233847
0.000233847
0.000212204
0.000150533
0.000233907
0.000234548
0.000215834
0.000138504
0.000233907
1.26683e-05
0.000212203
0.000233907
0.000150529
0.000215834
0.000233907
0.000105727
0.000105716
0.000236945
0.000101266
0.000101259
3.85555e-05
0.000109731
0.000109723
1.81764e-05
0.000126087
1.8174e-05
0.000126087
0.000121596
7.47629e-05
7.47443e-05
0.000159122
0.000159104
4.66268e-05
3.36101e-05
0.000114754
2.72272e-05
4.66244e-05
3.36017e-05
0.000114726
2.7227e-05
0.000149807
3.74229e-05
0.000144132
0.000139615
0.000149812
3.74242e-05
0.000144173
0.000139601
0.000139399
0.000119601
0.000155541
0.000265471
0.000167576
0.000107749
0.000231335
0.000139395
0.000119626
0.000155533
0.000265467
0.000167536
0.000107745
0.00023133
3.8542e-05
0.000109738
0.000109723
1.81772e-05
0.000126132
0.000121618
7.47533e-05
7.47395e-05
0.000159119
0.000159109
1.81776e-05
0.000126101
4.66245e-05
3.36113e-05
0.000114745
2.72273e-05
4.66229e-05
3.36018e-05
2.7227e-05
0.000114734
0.00014982
3.74092e-05
0.000144128
0.000139602
0.00013942
0.000119596
0.000155532
0.000265458
0.000167554
0.000107751
0.000231328
0.00014982
3.74219e-05
0.000144171
0.000139601
0.00013938
0.000119633
0.000265467
0.000155513
0.000107754
0.000167556
0.000231329
2.65783e-05
2.86725e-05
2.67908e-05
2.67907e-05
2.65783e-05
2.86726e-05
2.67907e-05
2.67905e-05
2.65783e-05
2.86755e-05
2.67907e-05
2.67906e-05
0.000135433
0.000111251
0.000252715
0.000252712
0.000120377
0.000120376
0.00024592
0.000135436
0.000111261
0.000252713
0.000252713
0.000120371
0.000120374
0.00024592
0.000135435
0.000111272
0.000252714
0.000252714
0.000120375
0.000120379
0.00024592
0.000135437
0.000111244
0.000252716
0.000252714
0.000120376
0.000120377
0.00024592
4.66178e-05
3.36095e-05
2.72266e-05
0.000114745
0.000139399
0.000119621
0.000155512
0.00026546
0.00016756
0.000107753
0.000231332
0.000149811
3.74204e-05
0.000144154
0.000139598
0.000139409
0.000119592
0.000265471
0.000155529
0.000107754
0.000167566
0.000231338
0.000149814
3.74123e-05
0.000144152
0.000139611
3.85409e-05
0.000109738
0.000109727
1.81784e-05
0.000126128
0.000121629
7.47328e-05
7.47232e-05
0.000159127
0.000159117
1.81796e-05
0.000126113
4.66194e-05
3.36094e-05
2.72266e-05
0.00011473
0.000139388
0.000119627
0.000265467
0.000155501
0.000107759
0.000167576
0.000231334
0.00013938
0.000119594
0.000265463
0.000155528
0.000107754
0.000167541
0.000231335
0.000149806
3.74213e-05
0.000144169
0.000139601
0.000149805
3.74101e-05
0.000144148
0.000139608
0.000121589
7.47365e-05
7.47229e-05
0.000159133
0.000159104
1.81773e-05
0.000126119
1.81774e-05
0.000126111
1.40246e-05
1.26706e-05
1.40232e-05
1.26693e-05
0.000109134
0.000109123
0.000238959
9.95348e-05
9.95325e-05
1.26214e-05
1.27538e-05
1.262e-05
1.27525e-05
0.000238306
0.000100663
0.000100661
0.000106166
0.000106154
0.000126257
3.25054e-05
0.000141964
3.0807e-05
0.000211921
0.000163164
0.000247779
0.000238823
0.000224141
0.000134422
0.000236997
0.00021192
0.000163159
0.000247777
0.00023882
0.000224139
0.000134416
0.000236997
0.000137032
3.07499e-05
3.09461e-05
0.000129004
0.000137032
3.07488e-05
3.09454e-05
0.000129004
0.000215914
0.000235128
0.000137273
0.000234036
0.00015051
0.00023456
0.000211893
0.000215914
0.000235127
0.00013726
0.000234036
0.000150503
0.00023456
0.000211893
0.000109129
0.000109132
0.00023896
9.95426e-05
9.95439e-05
1.40238e-05
1.26704e-05
1.26208e-05
1.27531e-05
0.000238305
0.000100662
0.000100661
0.000106158
0.000106171
1.26212e-05
1.27537e-05
0.000211914
0.000163157
0.00024778
0.00023882
0.000224137
0.000134408
0.000236997
0.000126243
3.25018e-05
0.00014196
3.0804e-05
0.000211914
0.000247782
0.000163151
0.000238821
0.000224137
0.000236997
0.000134407
0.000137027
3.07466e-05
3.09433e-05
0.000128996
0.000215911
0.000235127
0.00013726
0.000234036
0.000150498
0.00023456
0.000211889
0.000137025
3.07454e-05
3.09421e-05
0.000128997
0.000215911
0.000235128
0.000234036
0.000137252
0.000234561
0.000150496
0.000211889
0.000126264
3.25031e-05
0.000141962
3.08071e-05
0.000211922
0.000247783
0.000163161
0.000238823
0.000224141
0.000236998
0.000134429
0.00012626
3.2502e-05
0.000141965
3.08055e-05
0.000215915
0.000235127
0.000137268
0.000234036
0.000150512
0.00023456
0.000211893
0.000137033
3.07488e-05
3.09449e-05
0.000129004
0.000215915
0.000235128
0.000234036
0.000137264
0.000234561
0.000150508
0.000211891
0.000137031
3.07475e-05
3.09437e-05
0.000128999
0.000109121
0.000109125
0.00023896
9.95356e-05
9.95404e-05
1.40233e-05
1.26697e-05
1.26196e-05
1.27521e-05
0.000238305
0.000100655
0.000100656
0.000106151
0.000106166
1.26205e-05
1.2753e-05
0.000211919
0.000247783
0.000163156
0.00023882
0.000224139
0.000236997
0.00013442
0.000126259
3.25019e-05
0.00014196
3.08056e-05
0.000126256
3.25016e-05
0.000141962
3.08048e-05
0.000215913
0.000235128
0.000234036
0.000137263
0.000234561
0.000150507
0.000211892
0.000215913
0.000235126
0.000234036
0.000137256
0.00023456
0.000150501
0.00021189
0.00013703
3.0747e-05
3.09435e-05
0.000129003
0.00013703
3.07464e-05
3.09431e-05
0.000128996
1.40239e-05
1.26699e-05
1.40232e-05
1.26695e-05
0.00023831
0.000100661
0.000100661
0.000106169
0.000106158
1.26207e-05
1.27533e-05
1.262e-05
1.27525e-05
1.2688e-05
1.26138e-05
1.26865e-05
1.26123e-05
0.000105911
0.000105897
0.000236937
0.000101051
0.000101047
1.26121e-05
1.2674e-05
1.2611e-05
1.26726e-05
0.000237329
0.000101202
0.000101197
0.000105813
0.0001058
0.000129709
3.08809e-05
0.000137235
3.07393e-05
0.000212071
0.000150501
0.000233948
0.000234559
0.000215829
0.000138078
0.000233913
0.000212071
0.000150491
0.000233948
0.000234557
0.000215829
0.000138064
0.000233913
0.000137269
3.07369e-05
3.08706e-05
0.000129949
0.000137271
3.07365e-05
3.08698e-05
0.000129953
0.000215845
0.000234553
0.000138354
0.000233907
0.000150545
0.000233911
0.000212155
0.000215845
0.000234554
0.000138343
0.000233907
0.000150535
0.000233911
0.000212157
0.000105898
0.000105911
0.000236941
0.000101048
0.00010106
1.26879e-05
1.26137e-05
1.26118e-05
1.26733e-05
0.000237326
0.0001012
0.000101207
0.0001058
0.000105818
1.26122e-05
1.26738e-05
0.000212069
0.000150488
0.000233948
0.000234559
0.000215827
0.000138064
0.000233913
0.000129713
3.08774e-05
0.000137231
3.07356e-05
0.000212071
0.000233948
0.000150483
0.000234557
0.000215828
0.000233913
0.000138059
0.000137267
3.07342e-05
3.08676e-05
0.000129948
0.000215843
0.000234551
0.000138339
0.000233907
0.000150533
0.000233911
0.000212153
0.000137268
3.07327e-05
3.0866e-05
0.00012995
0.000215844
0.000234552
0.000233907
0.000138337
0.000233911
0.00015053
0.000212154
0.000129699
3.08804e-05
0.000137233
3.07391e-05
0.000212069
0.000233948
0.000150496
0.000234558
0.000215829
0.000233913
0.00013807
0.000129704
3.08793e-05
0.000137233
3.07377e-05
0.000215844
0.000234549
0.000138356
0.000233907
0.000150548
0.000233911
0.000212157
0.000137266
3.07362e-05
3.08693e-05
0.000129952
0.000215844
0.000234552
0.000233907
0.000138348
0.000233911
0.000150541
0.000212157
0.000137268
3.07347e-05
3.08679e-05
0.000129952
0.00010589
0.000105907
0.000236942
0.000101041
0.000101053
1.26873e-05
1.26127e-05
1.26103e-05
1.26718e-05
0.000237331
0.000101194
0.000101199
0.000105793
0.000105813
1.26115e-05
1.26731e-05
0.000212067
0.000233948
0.000150488
0.000234556
0.000215827
0.000233913
0.000138058
0.000129704
3.08789e-05
0.000137232
3.07375e-05
0.000129705
3.08785e-05
0.000137231
3.07367e-05
0.000215843
0.000234551
0.000233907
0.000138349
0.000233911
0.000150542
0.000212155
0.000215843
0.000234552
0.000233907
0.000138334
0.000233911
0.000150531
0.000212155
0.000137266
3.07347e-05
3.08678e-05
0.00012995
0.000137267
3.07338e-05
3.08671e-05
0.000129951
1.26874e-05
1.26126e-05
1.26868e-05
1.26121e-05
0.000237327
0.000101197
0.000101191
0.00010581
0.000105798
1.26113e-05
1.2673e-05
1.26108e-05
1.26724e-05
1.26708e-05
1.26121e-05
1.26696e-05
1.26109e-05
0.000105763
0.000105748
0.000236944
0.000101249
0.000101242
1.26123e-05
1.26701e-05
1.2611e-05
1.26689e-05
0.000237315
0.000101283
0.000101277
0.000105736
0.000105721
0.000130032
3.08672e-05
0.000137263
3.07354e-05
0.000212188
0.000150547
0.000233907
0.00023455
0.000215842
0.000138459
0.000233907
0.000212189
0.000150537
0.000233907
0.000234548
0.000215843
0.000138449
0.000233907
0.000137254
3.07355e-05
3.08665e-05
0.000130076
0.000137255
3.0735e-05
3.08663e-05
0.000130071
0.00021584
0.000234549
0.000138511
0.000233907
0.00015054
0.000233907
0.000212206
0.00021584
0.000234548
0.000138488
0.000233906
0.000150531
0.000233907
0.000212204
0.000105751
0.000105764
0.000236942
0.000101253
0.000101256
1.26708e-05
1.26122e-05
1.26118e-05
1.26698e-05
0.000237312
0.000101275
0.000101278
0.00010573
0.000105741
1.26123e-05
1.26702e-05
0.000212185
0.000150534
0.000233907
0.000234547
0.000215841
0.000138442
0.000233907
0.000130029
3.08635e-05
0.00013726
3.07316e-05
0.000212186
0.000233907
0.00015053
0.000234548
0.000215841
0.000233907
0.000138438
0.000137252
3.07324e-05
3.08638e-05
0.000130078
0.000215838
0.000234548
0.000138497
0.000233907
0.000150527
0.000233907
0.000212204
0.000137253
3.07313e-05
3.08625e-05
0.000130075
0.000215838
0.000234549
0.000233907
0.000138484
0.000233907
0.000150523
0.000212204
0.000130045
3.08667e-05
0.000137263
3.07352e-05
0.000212193
0.000233907
0.000150544
0.000234546
0.000215844
0.000233907
0.000138457
0.000130046
3.08652e-05
0.000137263
3.07337e-05
0.00021584
0.000234549
0.000138501
0.000233907
0.000150541
0.000233907
0.000212202
0.000137257
3.07348e-05
3.08659e-05
0.000130066
0.000215841
0.00023455
0.000233907
0.000138498
0.000233907
0.000150538
0.000212201
0.000137257
3.07332e-05
3.08643e-05
0.000130062
0.000105744
0.000105761
0.000236944
0.00010124
0.000101246
1.26701e-05
1.26114e-05
1.26104e-05
1.26683e-05
0.000237313
0.000101267
0.00010127
0.000105719
0.000105736
1.26115e-05
1.26695e-05
0.000212189
0.000233907
0.000150532
0.000234547
0.000215842
0.000233907
0.000138444
0.000130035
3.08651e-05
0.000137261
3.07334e-05
0.000130038
3.08645e-05
0.000137261
3.07327e-05
0.000215839
0.000234549
0.000233907
0.000138495
0.000233907
0.000150536
0.000212201
0.000215839
0.000234548
0.000233907
0.000138488
0.000233907
0.000150527
0.0002122
0.000137254
3.07329e-05
3.08641e-05
0.000130064
0.000137256
3.07323e-05
3.08636e-05
0.000130063
1.267e-05
1.26113e-05
1.26694e-05
1.26108e-05
0.00023731
0.000101277
0.000101275
0.00010574
0.000105727
1.26114e-05
1.26694e-05
1.26109e-05
1.26689e-05
1.26701e-05
1.26123e-05
1.26688e-05
1.2611e-05
0.000105737
0.000105721
0.000236948
0.000101287
0.000101278
1.26125e-05
1.26702e-05
1.2611e-05
1.26687e-05
0.000237316
0.000101293
0.000101288
0.000105731
0.000105715
0.000130085
3.0866e-05
0.000137255
3.07348e-05
0.00021221
0.000150541
0.000233907
0.000234549
0.00021584
0.000138518
0.000233907
0.00021221
0.000150528
0.000233907
0.000234548
0.00021584
0.000138503
0.000233907
0.000137253
3.07355e-05
3.08662e-05
0.000130099
0.000137253
3.07348e-05
3.08659e-05
0.000130096
0.00021584
0.000234549
0.000138528
0.000233907
0.000150538
0.000233907
0.000212214
0.00021584
0.000234548
0.000138515
0.000233906
0.000150528
0.000233907
0.000212214
0.000105723
0.000105737
0.000236944
0.000101281
0.000101284
1.26702e-05
1.26122e-05
1.26119e-05
1.26696e-05
0.000237312
0.00010129
0.0001013
0.000105719
0.000105732
1.26123e-05
1.267e-05
0.000212208
0.000150528
0.000233907
0.000234549
0.000215838
0.000138502
0.000233907
0.000130082
3.08623e-05
0.000137253
3.07312e-05
0.000212207
0.000233907
0.000150522
0.000234549
0.000215838
0.000233907
0.000138495
0.000137251
3.07323e-05
3.08632e-05
0.000130092
0.000215838
0.000234548
0.000138513
0.000233907
0.000150525
0.000233907
0.000212211
0.000137251
3.07311e-05
3.08621e-05
0.00013009
0.000215837
0.000234549
0.000233907
0.000138506
0.000233907
0.000150521
0.00021221
0.000130071
3.08656e-05
0.000137252
3.07345e-05
0.000212205
0.000233907
0.000150535
0.000234548
0.000215838
0.000233907
0.000138501
0.00013007
3.08641e-05
0.000137252
3.0733e-05
0.000215838
0.00023455
0.000138531
0.000233907
0.000150538
0.000233907
0.000212212
0.000137251
3.07345e-05
3.08653e-05
0.000130092
0.000215838
0.000234548
0.000233907
0.000138523
0.000233907
0.000150532
0.000212211
0.00013725
3.0733e-05
3.08638e-05
0.00013009
0.000105715
0.000105732
0.000236949
0.000101271
0.000101277
1.26694e-05
1.26115e-05
1.26104e-05
1.26681e-05
0.000237318
0.000101278
0.000101289
0.00010571
0.000105728
1.26115e-05
1.26693e-05
0.000212204
0.000233907
0.000150525
0.000234546
0.000215837
0.000233907
0.000138488
0.000130073
3.08637e-05
0.000137251
3.07327e-05
0.00013007
3.08634e-05
0.00013725
3.07321e-05
0.000215838
0.000234546
0.000233907
0.000138527
0.000233907
0.000150535
0.000212211
0.000215838
0.000234548
0.000233907
0.000138512
0.000233907
0.000150522
0.00021221
0.000137251
3.07328e-05
3.08635e-05
0.000130091
0.00013725
3.07321e-05
3.08631e-05
0.000130087
1.26694e-05
1.26114e-05
1.26689e-05
1.26108e-05
0.000237314
0.000101289
0.000101286
0.000105727
0.000105714
1.26114e-05
1.26692e-05
1.26109e-05
1.26686e-05
1.26702e-05
1.26125e-05
1.26688e-05
1.2611e-05
0.000105733
0.000105718
0.000236947
0.000101295
0.000101288
1.26125e-05
1.26702e-05
1.2611e-05
1.26688e-05
0.000237312
0.00010129
0.000101285
0.000105734
0.000105718
0.000130091
3.08658e-05
0.000137255
3.07348e-05
0.000212212
0.000150539
0.000233907
0.000234549
0.000215841
0.000138528
0.000233907
0.000212212
0.000150528
0.000233907
0.000234548
0.00021584
0.000138515
0.000233907
0.000137255
3.07355e-05
3.08662e-05
0.000130102
0.000137255
3.07349e-05
3.08659e-05
0.000130099
0.00021584
0.000234547
0.000138524
0.000233907
0.000150538
0.000233907
0.000212215
0.00021584
0.00023455
0.000138512
0.000233907
0.000150528
0.000233907
0.000212214
0.00010572
0.000105737
0.000236951
0.00010129
0.000101301
1.267e-05
1.26123e-05
1.26118e-05
1.26696e-05
0.000237316
0.000101285
0.000101295
0.00010572
0.000105736
1.26123e-05
1.26701e-05
0.000212209
0.000150526
0.000233907
0.000234551
0.000215838
0.000138513
0.000233907
0.000130088
3.0862e-05
0.000137251
3.07311e-05
0.000212209
0.000233907
0.000150521
0.00023455
0.000215838
0.000233907
0.000138508
0.000137252
3.07323e-05
3.08632e-05
0.0001301
0.000215838
0.000234549
0.000138508
0.000233907
0.000150525
0.000233907
0.000212212
0.000137253
3.07312e-05
3.0862e-05
0.000130101
0.000215838
0.000234552
0.000233907
0.000138505
0.000233907
0.00015052
0.000212213
0.000130088
3.08654e-05
0.000137254
3.07345e-05
0.000212211
0.000233907
0.000150537
0.000234551
0.00021584
0.000233907
0.000138523
0.000130087
3.08639e-05
0.000137254
3.0733e-05
0.00021584
0.000234546
0.000138526
0.000233907
0.000150539
0.000233907
0.000212214
0.000137253
3.07345e-05
3.08653e-05
0.000130098
0.00021584
0.000234552
0.000233907
0.000138521
0.000233907
0.000150535
0.000212214
0.000137253
3.07331e-05
3.08639e-05
0.000130096
0.00010571
0.000105731
0.00023695
0.000101283
0.000101293
1.26693e-05
1.26115e-05
1.26104e-05
1.26681e-05
0.000237313
0.000101278
0.000101293
0.000105712
0.000105732
1.26115e-05
1.26693e-05
0.000212208
0.000233907
0.000150526
0.000234546
0.000215839
0.000233907
0.000138507
0.000130085
3.08635e-05
0.000137252
3.07327e-05
0.000130081
3.08632e-05
0.000137252
3.07321e-05
0.000215839
0.000234547
0.000233907
0.000138524
0.000233907
0.000150535
0.000212213
0.000215838
0.000234547
0.000233907
0.000138506
0.000233907
0.000150523
0.000212211
0.000137252
3.07327e-05
3.08634e-05
0.000130099
0.000137252
3.07321e-05
3.08632e-05
0.000130092
1.26692e-05
1.26114e-05
1.26687e-05
1.26109e-05
0.000237312
0.000101286
0.000101281
0.000105729
0.000105716
1.26114e-05
1.26692e-05
1.26109e-05
1.26687e-05
1.26705e-05
1.26126e-05
1.26689e-05
1.2611e-05
0.000105734
0.000105719
0.000236945
0.000101276
0.000101271
1.26126e-05
1.26705e-05
1.2611e-05
1.26689e-05
0.00023731
0.000101274
0.000101268
0.000105731
0.000105716
0.000130079
3.0866e-05
0.000137255
3.07348e-05
0.000212209
0.000150538
0.000233907
0.000234547
0.000215839
0.000138512
0.000233907
0.000212207
0.000150526
0.000233907
0.000234548
0.000215839
0.000138502
0.000233907
0.000137252
3.07354e-05
3.08665e-05
0.000130063
0.000137252
3.07347e-05
3.0866e-05
0.000130066
0.000215836
0.000234547
0.000138508
0.000233907
0.000150534
0.000233907
0.000212203
0.000215836
0.000234549
0.0001385
0.000233907
0.000150524
0.000233907
0.000212204
0.00010572
0.000105735
0.000236949
0.000101279
0.000101293
1.26701e-05
1.26123e-05
1.26117e-05
1.26696e-05
0.000237314
0.000101275
0.000101282
0.00010572
0.000105736
1.26123e-05
1.26702e-05
0.000212203
0.000150523
0.000233907
0.00023455
0.000215837
0.000138494
0.000233907
0.000130071
3.08623e-05
0.000137254
3.0731e-05
0.000212203
0.000233907
0.000150519
0.000234549
0.000215837
0.000233907
0.00013849
0.000137247
3.07321e-05
3.08635e-05
0.000130056
0.000215833
0.000234548
0.000138494
0.000233907
0.00015052
0.000233907
0.000212199
0.000137248
3.07309e-05
3.08622e-05
0.000130059
0.000215833
0.000234551
0.000233907
0.000138491
0.000233907
0.000150515
0.0002122
0.000130087
3.08654e-05
0.000137254
3.07346e-05
0.000212211
0.000233907
0.000150534
0.00023455
0.000215839
0.000233907
0.000138519
0.000130089
3.08639e-05
0.000137254
3.0733e-05
0.000215838
0.000234546
0.000138514
0.000233907
0.000150537
0.000233907
0.000212207
0.000137253
3.07345e-05
3.08655e-05
0.000130074
0.000215838
0.000234551
0.000233907
0.000138517
0.000233907
0.000150533
0.000212207
0.000137254
3.0733e-05
3.0864e-05
0.000130076
0.000105713
0.000105735
0.000236947
0.000101269
0.000101283
1.26694e-05
1.26115e-05
1.26104e-05
1.26683e-05
0.000237311
0.000101266
0.000101276
0.000105712
0.000105733
1.26115e-05
1.26694e-05
0.000212207
0.000233907
0.000150523
0.000234545
0.000215837
0.000233907
0.000138504
0.000130081
3.08636e-05
0.000137253
3.07326e-05
0.00013008
3.08632e-05
0.000137252
3.07321e-05
0.000215836
0.000234546
0.000233907
0.000138509
0.000233907
0.000150532
0.000212203
0.000215836
0.000234546
0.000233907
0.000138502
0.000233907
0.000150521
0.000212202
0.000137251
3.07326e-05
3.08636e-05
0.000130066
0.000137251
3.0732e-05
3.08632e-05
0.000130065
1.26692e-05
1.26114e-05
1.26687e-05
1.26109e-05
0.000237311
0.000101282
0.000101278
0.000105731
0.000105719
1.26114e-05
1.26693e-05
1.26109e-05
1.26687e-05
1.26705e-05
1.26126e-05
1.26689e-05
1.2611e-05
0.000105732
0.000105716
0.000236944
0.000101273
0.000101269
1.26125e-05
1.26704e-05
1.2611e-05
1.26688e-05
0.000237311
0.000101283
0.00010128
0.000105729
0.000105713
0.000130069
3.08661e-05
0.00013725
3.07348e-05
0.000212204
0.000150534
0.000233907
0.000234549
0.000215835
0.000138511
0.000233907
0.000212205
0.000150524
0.000233907
0.000234544
0.000215835
0.000138501
0.000233906
0.00013725
3.07354e-05
3.08664e-05
0.000130082
0.000137251
3.07347e-05
3.0866e-05
0.000130076
0.000215837
0.000234548
0.000138521
0.000233907
0.000150535
0.000233907
0.000212209
0.000215837
0.000234548
0.000138505
0.000233907
0.000150526
0.000233907
0.000212207
0.00010572
0.000105734
0.000236948
0.000101272
0.000101272
1.26702e-05
1.26123e-05
1.26117e-05
1.26695e-05
0.000237312
0.000101277
0.00010128
0.000105719
0.000105729
1.26123e-05
1.26701e-05
0.000212201
0.000150521
0.000233907
0.000234549
0.000215833
0.000138499
0.000233907
0.000130062
3.08622e-05
0.000137247
3.0731e-05
0.000212202
0.000233907
0.000150517
0.00023455
0.000215833
0.000233907
0.000138496
0.000137247
3.07322e-05
3.08634e-05
0.000130082
0.000215835
0.000234547
0.000138507
0.000233907
0.000150523
0.000233907
0.000212207
0.000137248
3.0731e-05
3.08622e-05
0.000130081
0.000215835
0.00023455
0.000233907
0.000138498
0.000233907
0.000150519
0.000212207
0.000130065
3.08656e-05
0.000137252
3.07346e-05
0.000212204
0.000233907
0.000150534
0.00023455
0.000215837
0.000233907
0.000138505
0.000130066
3.08641e-05
0.000137252
3.0733e-05
0.000215836
0.000234548
0.000138514
0.000233907
0.000150534
0.000233907
0.000212206
0.000137249
3.07345e-05
3.08656e-05
0.000130072
0.000215836
0.000234551
0.000233907
0.000138511
0.000233907
0.000150531
0.000212206
0.00013725
3.0733e-05
3.0864e-05
0.000130072
0.000105711
0.00010573
0.000236948
0.000101269
0.000101269
1.26694e-05
1.26115e-05
1.26104e-05
1.26682e-05
0.000237316
0.000101271
0.000101274
0.000105712
0.000105727
1.26115e-05
1.26694e-05
0.000212203
0.000233907
0.000150523
0.000234547
0.000215835
0.000233907
0.000138492
0.000130067
3.08637e-05
0.000137249
3.07327e-05
0.000130067
3.08633e-05
0.000137249