/*--------------------------------*- C++ -*----------------------------------*\
| =========                 |                                                 |
| \\      /  F ield         | OpenFOAM: The Open Source CFD Toolbox           |
|  \\    /   O peration     | Version:  2206                                  |
|   \\  /    A nd           | Website:  www.openfoam.com                      |
|    \\/     M anipulation  |                                                 |
\*---------------------------------------------------------------------------*/
FoamFile
{
    version     2.0;
    format      ascii;
    arch        "LSB;label=32;scalar=64";
    class       volVectorField;
    location    "4.5";
    object      U;
}
// * * * * * * * * * * * * * * * * * * * * * * * * * * * * * * * * * * * * * //

dimensions      [0 1 -1 0 0 0 0];

internalField   nonuniform List<vector> 
28515
(
(0.00181992 0.00181851 0.00145521)
(-0.00182607 0.00149468 -0.00141199)
(0.00149494 -0.00182661 -0.00141216)
(0.00108703 0.00108704 0.000748744)
(-7.8839e-05 -7.90039e-05 0.000245084)
(-0.000258526 0.000195672 7.68824e-05)
(0.000195505 -0.000258325 7.70725e-05)
(0.000266898 0.000267338 0.000103343)
(-0.000138107 -0.000138131 9.20265e-05)
(-0.000126939 7.86956e-05 2.78452e-05)
(7.86233e-05 -0.000127158 2.79604e-05)
(0.000242064 0.000242653 -4.57849e-05)
(-0.000139186 -0.000139412 7.65109e-05)
(-0.000117102 6.71917e-05 1.87389e-05)
(6.70247e-05 -0.000116891 1.87712e-05)
(0.000232248 0.000232717 -7.16977e-05)
(-0.000138726 -0.000139019 7.62869e-05)
(-0.00011748 6.68562e-05 1.85842e-05)
(6.67447e-05 -0.000117475 1.86084e-05)
(0.000230229 0.000230772 -7.34786e-05)
(-0.00013886 -0.000139137 7.79187e-05)
(-0.000117598 6.73355e-05 1.93561e-05)
(6.75301e-05 -0.000117984 1.94125e-05)
(0.000229818 0.000230334 -7.38914e-05)
(-0.000139248 -0.000139396 7.88787e-05)
(-0.000117077 6.67956e-05 1.99892e-05)
(6.66098e-05 -0.000117178 1.99776e-05)
(0.000230801 0.000231236 -7.45996e-05)
(-0.000138981 -0.000139304 7.68746e-05)
(-0.000116251 6.6004e-05 1.92225e-05)
(6.6253e-05 -0.000116581 1.92128e-05)
(0.000231149 0.00023154 -7.39709e-05)
(-0.000138903 -0.000138814 7.54064e-05)
(-0.000116619 6.63612e-05 1.84688e-05)
(6.59264e-05 -0.000116216 1.8604e-05)
(0.000230617 0.000231083 -7.33557e-05)
(-0.000138676 -0.000139076 7.57329e-05)
(-0.000116846 6.65505e-05 1.8208e-05)
(6.72674e-05 -0.000117854 1.80736e-05)
(0.000229912 0.00023049 -7.28054e-05)
(-0.000139092 -0.000139086 7.67939e-05)
(-0.000118181 6.74959e-05 1.86702e-05)
(6.70348e-05 -0.000117682 1.90194e-05)
(0.00022963 0.00023012 -7.39779e-05)
(-0.0001391 -0.000139523 7.87544e-05)
(-0.000117547 6.73616e-05 2.00655e-05)
(6.74986e-05 -0.000117751 1.98776e-05)
(0.000230738 0.000231359 -7.47526e-05)
(-0.00127343 -0.00127391 0.00225884)
(-0.00113937 -0.00198774 0.00258722)
(0.00114051 -0.00198821 0.00258583)
(0.00127429 -0.0012748 0.00225726)
(-0.00198743 -0.00113964 0.00258732)
(-0.00198803 0.00114042 0.00258542)
(-0.00256609 -0.0025661 -0.00459799)
(0.00256709 -0.00256721 -0.00459969)
(-0.00256708 0.00256694 -0.00460035)
(0.00256623 0.00256625 -0.00459943)
(0.00198797 -0.00114047 0.00258591)
(0.00198752 0.0011392 0.00258684)
(-0.00127462 0.00127411 0.0022572)
(-0.00114027 0.00198767 0.00258561)
(0.00113928 0.00198729 0.00258708)
(0.00127363 0.00127326 0.00225895)
(-0.00108706 -0.00108711 0.000748599)
(0.000281923 0.000281621 -0.000111444)
(0.00149576 0.00182658 -0.00141015)
(-0.00149405 0.00182625 -0.00141098)
(-0.00010098 -0.000123081 -0.000124388)
(0.000100702 -0.000122864 -0.000124335)
(0.00108751 -0.0010881 0.000747299)
(-0.000281826 0.000282369 -0.000112239)
(0.00182663 0.00149513 -0.00141089)
(0.00182677 -0.0014941 -0.00141105)
(-0.000123516 -0.000101295 -0.000126404)
(-0.000122908 0.000101238 -0.000124314)
(-0.00182682 -0.00149536 -0.00141033)
(0.00012289 -0.00010041 -0.000126695)
(0.000122367 0.00010039 -0.000124339)
(-0.00108769 0.00108703 0.00074727)
(0.000282297 -0.000281627 -0.000111493)
(-0.00149495 -0.00182667 -0.00141125)
(-0.000100964 0.000123249 -0.000126451)
(0.000100675 0.000122868 -0.000126426)
(-0.000281887 -0.000282187 -0.000111624)
(-0.000267433 -0.000267011 0.000103333)
(0.000185371 0.000184749 -9.20276e-05)
(0.000195674 0.000258598 7.94571e-05)
(-0.000195472 0.000258687 7.97871e-05)
(5.54505e-05 9.91352e-05 -6.15568e-06)
(-5.5369e-05 9.91805e-05 -6.13739e-06)
(0.00026712 -0.000267029 0.000102746)
(-0.000184907 0.000185227 -9.22698e-05)
(0.000258357 0.000195345 7.6974e-05)
(0.000258638 -0.000195171 7.98016e-05)
(9.92019e-05 5.53177e-05 -8.58094e-06)
(9.93468e-05 -5.52879e-05 -6.11104e-06)
(-0.000258885 -0.000195781 7.97236e-05)
(-9.91728e-05 5.56587e-05 -8.61566e-06)
(-9.89954e-05 -5.54174e-05 -6.01065e-06)
(-0.000267168 0.000267314 0.000103489)
(0.000185241 -0.000184991 -9.16568e-05)
(-0.000195634 -0.000258668 7.6963e-05)
(5.55681e-05 -9.94254e-05 -8.67521e-06)
(-5.51889e-05 -9.91055e-05 -8.5174e-06)
(-0.000184546 -0.000185215 -9.15778e-05)
(-0.000242867 -0.0002422 -4.64352e-05)
(0.000164919 0.000164566 -7.59398e-05)
(7.83386e-05 0.000126754 2.99e-05)
(-7.83263e-05 0.000126938 3.0085e-05)
(6.68379e-05 0.000116828 2.00957e-05)
(-6.74827e-05 0.000117515 2.02158e-05)
(0.00024259 -0.000242163 -4.66405e-05)
(-0.000165524 0.000165689 -7.70891e-05)
(0.000126776 7.83263e-05 2.7936e-05)
(0.000127038 -7.83471e-05 3.0194e-05)
(0.000117007 6.6839e-05 1.79155e-05)
(0.000117543 -6.7313e-05 2.01716e-05)
(-0.000126913 -7.84678e-05 3.00169e-05)
(-0.000117619 6.76376e-05 1.77165e-05)
(-0.000117937 -6.77437e-05 1.98186e-05)
(-0.000242087 0.00024247 -4.59839e-05)
(0.000165405 -0.000165415 -7.64637e-05)
(-7.83586e-05 -0.000126939 2.78648e-05)
(6.73174e-05 -0.000117147 1.78136e-05)
(-6.76477e-05 -0.000117851 1.76825e-05)
(-0.000165413 -0.000165789 -7.66553e-05)
(-0.000232759 -0.000232194 -7.14021e-05)
(0.000161491 0.000161169 -7.34726e-05)
(6.69914e-05 0.000117196 2.05801e-05)
(-6.70486e-05 0.0001173 2.11489e-05)
(6.69064e-05 0.000117442 2.08024e-05)
(-6.66145e-05 0.000117202 2.11014e-05)
(0.000232612 -0.00023247 -7.1908e-05)
(-0.000161263 0.000161318 -7.39381e-05)
(0.000117281 6.70134e-05 1.84665e-05)
(0.000117433 -6.70297e-05 2.10483e-05)
(0.000117537 6.69268e-05 1.86455e-05)
(0.000117322 -6.65672e-05 2.10582e-05)
(-0.000117623 -6.73566e-05 2.07702e-05)
(-0.00011702 6.67026e-05 1.8678e-05)
(-0.000116924 -6.6422e-05 2.08767e-05)
(-0.00023229 0.000232339 -7.13435e-05)
(0.00016122 -0.000161195 -7.34033e-05)
(-6.72873e-05 -0.000117643 1.8649e-05)
(6.66037e-05 -0.000116936 1.87604e-05)
(-6.63985e-05 -0.000116839 1.87599e-05)
(-0.000160983 -0.000161299 -7.34692e-05)
(-0.000230336 -0.000229725 -7.3789e-05)
(0.000161857 0.000161498 -7.42543e-05)
(6.71691e-05 0.000117688 2.07346e-05)
(-6.68037e-05 0.000117416 2.11641e-05)
(6.76408e-05 0.000118261 2.11451e-05)
(-6.7139e-05 0.000118024 2.16629e-05)
(0.000230367 -0.000230449 -7.40317e-05)
(-0.000161474 0.000161453 -7.41721e-05)
(0.000117813 6.71742e-05 1.85577e-05)
(0.000117488 -6.67067e-05 2.1077e-05)
(0.000118436 6.76382e-05 1.89687e-05)
(0.000118432 -6.74446e-05 2.14739e-05)
(-0.000117275 -6.65398e-05 2.08157e-05)
(-0.000117459 6.7157e-05 1.92494e-05)
(-0.000117337 -6.68695e-05 2.12489e-05)
(-0.000230293 0.000230186 -7.35026e-05)
(0.000161594 -0.000161604 -7.38208e-05)
(-6.65003e-05 -0.00011719 1.87124e-05)
(6.74434e-05 -0.000118044 1.91477e-05)
(-6.6783e-05 -0.000117279 1.91653e-05)
(-0.000160992 -0.000161381 -7.3307e-05)
(-0.000230396 -0.000229824 -7.53017e-05)
(0.000161435 0.000160967 -7.54548e-05)
(6.77106e-05 0.000118318 2.13764e-05)
(-6.72581e-05 0.000118243 2.17654e-05)
(6.64934e-05 0.000117043 2.23951e-05)
(-6.69495e-05 0.000117417 2.25106e-05)
(0.000230189 -0.000230249 -7.49019e-05)
(-0.000161523 0.000161797 -7.55537e-05)
(0.000118424 6.76832e-05 1.92476e-05)
(0.00011863 -6.74709e-05 2.16959e-05)
(0.000116599 6.63609e-05 2.02772e-05)
(0.00011715 -6.6676e-05 2.24643e-05)
(-0.000117582 -6.70488e-05 2.16444e-05)
(-0.000117625 6.71835e-05 2.01147e-05)
(-0.000117622 -6.70262e-05 2.21764e-05)
(-0.000229976 0.000229905 -7.46815e-05)
(0.000161553 -0.000161285 -7.50876e-05)
(-6.69576e-05 -0.000117461 1.95556e-05)
(6.68826e-05 -0.000117482 2.01379e-05)
(-6.68825e-05 -0.000117367 2.00607e-05)
(-0.000161107 -0.000161584 -7.42621e-05)
(-0.000231844 -0.000231362 -7.50846e-05)
(0.000160833 0.000160463 -7.40932e-05)
(6.63083e-05 0.000116685 2.22107e-05)
(-6.65953e-05 0.000116988 2.25126e-05)
(6.59657e-05 0.000116396 2.1668e-05)
(-6.5781e-05 0.000116147 2.19317e-05)
(0.000231359 -0.000231166 -7.54267e-05)
(-0.000160799 0.000160831 -7.45754e-05)
(0.000116331 6.61537e-05 1.99964e-05)
(0.000116912 -6.64362e-05 2.23792e-05)
(0.000116303 6.58756e-05 1.9398e-05)
(0.000116878 -6.62932e-05 2.17197e-05)
(-0.000117483 -6.68872e-05 2.21276e-05)
(-0.000116203 6.58974e-05 1.95171e-05)
(-0.000116759 -6.62323e-05 2.16576e-05)
(-0.00023108 0.000231237 -7.48315e-05)
(0.000161108 -0.000161176 -7.43705e-05)
(-6.67136e-05 -0.000117119 2.00494e-05)
(6.62789e-05 -0.000116583 1.94246e-05)
(-6.60069e-05 -0.000116368 1.9578e-05)
(-0.000160679 -0.000161194 -7.42355e-05)
(-0.000231344 -0.000230846 -7.41898e-05)
(0.000160894 0.000160392 -7.2999e-05)
(6.61688e-05 0.00011666 2.13541e-05)
(-6.59231e-05 0.000116439 2.15839e-05)
(6.62869e-05 0.000116948 2.08445e-05)
(-6.64187e-05 0.000116923 2.09069e-05)
(0.00023136 -0.000231319 -7.43008e-05)
(-0.000161048 0.000160881 -7.35536e-05)
(0.000116672 6.60863e-05 1.91132e-05)
(0.000116981 -6.62576e-05 2.1529e-05)
(0.000116625 6.61302e-05 1.85949e-05)
(0.000116671 -6.59581e-05 2.10357e-05)
(-0.000116746 -6.61298e-05 2.13485e-05)
(-0.000116746 6.64134e-05 1.85157e-05)
(-0.000116668 -6.61279e-05 2.07932e-05)
(-0.000231031 0.000230972 -7.41731e-05)
(0.00016047 -0.000160618 -7.30708e-05)
(-6.59556e-05 -0.000116495 1.92418e-05)
(6.59219e-05 -0.000116226 1.87361e-05)
(-6.60062e-05 -0.000116336 1.8712e-05)
(-0.000160526 -0.000160933 -7.31994e-05)
(-0.000230577 -0.00023012 -7.36141e-05)
(0.000161469 0.00016106 -7.3132e-05)
(6.65583e-05 0.000117251 2.05797e-05)
(-6.64177e-05 0.000116978 2.08276e-05)
(6.73286e-05 0.000118138 2.0318e-05)
(-6.6469e-05 0.000117411 2.05467e-05)
(0.000230417 -0.000230578 -7.39522e-05)
(-0.000160842 0.00016079 -7.31623e-05)
(0.000116729 6.63788e-05 1.83248e-05)
(0.000116711 -6.59541e-05 2.08873e-05)
(0.000117861 6.71911e-05 1.80003e-05)
(0.000118087 -6.69936e-05 2.0357e-05)
(-0.000116529 -6.59858e-05 2.06515e-05)
(-0.000116526 6.64376e-05 1.82067e-05)
(-0.000116523 -6.60534e-05 2.05843e-05)
(-0.0002306 0.000230467 -7.31608e-05)
(0.000160989 -0.000160991 -7.22929e-05)
(-6.58942e-05 -0.000116123 1.85452e-05)
(6.70224e-05 -0.000117464 1.80721e-05)
(-6.59823e-05 -0.000116416 1.8421e-05)
(-0.000160042 -0.000160344 -7.18288e-05)
(-0.000229978 -0.000229443 -7.43094e-05)
(0.000161435 0.000161001 -7.39762e-05)
(6.73941e-05 0.000118094 2.03525e-05)
(-6.6499e-05 0.000117445 2.06664e-05)
(6.69462e-05 0.00011739 2.10044e-05)
(-6.69985e-05 0.000117669 2.10864e-05)
(0.000230134 -0.000230244 -7.38933e-05)
(-0.000161024 0.000161279 -7.34512e-05)
(0.000117958 6.7281e-05 1.80505e-05)
(0.000118355 -6.72038e-05 2.0461e-05)
(0.000117337 6.68798e-05 1.87964e-05)
(0.000117815 -6.69532e-05 2.12014e-05)
(-0.000116796 -6.6246e-05 2.03907e-05)
(-0.000117786 6.71753e-05 1.86198e-05)
(-0.0001183 -6.75588e-05 2.06846e-05)
(-0.000229531 0.000229488 -7.36395e-05)
(0.000161293 -0.000161162 -7.35962e-05)
(-6.61978e-05 -0.000116922 1.82658e-05)
(6.70533e-05 -0.000117607 1.88508e-05)
(-6.74748e-05 -0.000118063 1.86481e-05)
(-0.0001611 -0.000161564 -7.2777e-05)
(-0.000230664 -0.000230149 -7.45968e-05)
(0.000162081 0.00016176 -7.52354e-05)
(6.70136e-05 0.000117576 2.1088e-05)
(-6.72712e-05 0.000117878 2.10966e-05)
(6.72758e-05 0.000118004 2.19448e-05)
(-6.74343e-05 0.000118079 2.20355e-05)
(0.000230202 -0.000230057 -7.47107e-05)
(-0.000161954 0.000162263 -7.55409e-05)
(0.000117208 6.69475e-05 1.88899e-05)
(0.000117711 -6.6893e-05 2.13395e-05)
(0.000117935 6.72439e-05 1.96843e-05)
(0.000118213 -6.74034e-05 2.202e-05)
(-0.000118417 -6.7496e-05 2.10242e-05)
(-0.00011825 6.771e-05 1.97829e-05)
(-0.00011817 -6.7495e-05 2.2005e-05)
(-0.000230186 0.000230331 -7.42153e-05)
(0.000162172 -0.000161958 -7.47189e-05)
(-6.74037e-05 -0.000117961 1.89955e-05)
(6.75999e-05 -0.000118184 1.97361e-05)
(-6.74897e-05 -0.00011802 1.97998e-05)
(-0.000161903 -0.000162129 -7.50719e-05)
(-0.000231308 -0.000230718 -7.53794e-05)
(6.70791e-05 0.00011764 2.20139e-05)
(-6.70491e-05 0.000117856 2.22389e-05)
(0.00023095 -0.000230774 -7.54689e-05)
(0.000117769 6.70183e-05 1.98049e-05)
(0.000118272 -6.72798e-05 2.22905e-05)
(-0.000117264 -6.68848e-05 2.24741e-05)
(-0.000230502 0.000230609 -7.48716e-05)
(-6.69134e-05 -0.000117469 2.01787e-05)
(0.000144744 0.000144368 0.00387446)
(0.00297457 0.00297432 0.00795506)
(0.000189974 0.00146782 0.00514313)
(0.00146773 0.00018962 0.00514329)
(-0.00868573 0.00419057 0.00240117)
(-0.00476989 0.00341531 0.0081505)
(-0.000272635 0.000117735 -0.00203124)
(-0.00238484 0.000315226 0.00681317)
(0.00418725 -0.00868541 0.00240199)
(0.00341504 -0.00476957 0.0081499)
(0.000315086 -0.00238493 0.00681268)
(0.000114853 -0.00027187 -0.00202862)
(-0.00513036 -0.00513248 0.00751671)
(-0.000225093 0.000261065 -0.00207804)
(0.000258942 -0.000225048 -0.00207833)
(-1.5477e-05 0.000409093 -0.000422144)
(0.000746292 -0.00231117 0.00184669)
(-0.000307343 -0.000335508 0.000872808)
(-6.41347e-05 0.000979792 -0.000821443)
(0.000470215 -0.000761617 0.00490562)
(-0.000245378 0.000202917 -0.000800403)
(0.000409647 -1.55598e-05 -0.000422066)
(-0.00231186 0.000745516 0.00184752)
(-0.000335425 -0.000307613 0.000872907)
(0.000979719 -6.35546e-05 -0.000821514)
(-0.00181895 0.00181822 0.00145456)
(0.00181842 -0.00181887 0.00145456)
(-0.00181848 -0.00181968 0.0014543)
(-0.000355782 -0.000355641 -0.000285491)
(0.000355709 -0.000355738 -0.000285337)
(-0.000355899 0.000355712 -0.000285596)
(0.000355603 0.000355562 -0.000285634)
(-2.98895e-05 1.94223e-06 -0.000125997)
(0.000641949 -0.000470144 0.000622402)
(-0.00204005 0.00131601 0.00149235)
(0.000575057 -0.000454813 -8.61237e-05)
(9.54301e-05 -0.000132927 0.00116258)
(-9.24702e-05 0.000240729 -0.000379268)
(0.000961676 -0.0005687 -0.00100483)
(-0.000760896 0.000469719 0.00490575)
(0.000202802 -0.000245512 -0.000799415)
(2.18731e-06 -2.98679e-05 -0.000125933)
(0.00131629 -0.00203983 0.00149256)
(-0.000469639 0.000641373 0.000622899)
(-0.000454964 0.000574996 -8.62605e-05)
(-0.000132711 9.53561e-05 0.00116224)
(-0.000568222 0.000962219 -0.00100477)
(0.000240801 -9.25681e-05 -0.000379139)
(5.59096e-05 0.000757309 0.00193744)
(0.000757351 5.50455e-05 0.00193715)
(-0.000514156 -0.000514604 -5.06552e-05)
(-8.0173e-05 -0.000199536 -0.000450591)
(-0.000199475 -7.99106e-05 -0.000450723)
(-4.06621e-06 0.000169664 -9.73304e-05)
(-7.76912e-05 -0.000622858 0.000393572)
(-1.24262e-06 -0.000228736 0.000280695)
(-6.58992e-05 0.000581559 -0.000129748)
(0.000130811 -8.6267e-05 0.000415562)
(-3.44692e-05 0.000101415 -0.000139967)
(0.000169683 -4.05363e-06 -9.7223e-05)
(-0.000623002 -7.77786e-05 0.000393591)
(-0.000228481 -1.32129e-06 0.000281016)
(0.000581508 -6.56728e-05 -0.000129998)
(7.88524e-05 -7.89446e-05 0.000245443)
(-7.90592e-05 7.87988e-05 0.000244942)
(7.88565e-05 7.865e-05 0.00024514)
(-0.00015292 -0.000153211 4.94798e-05)
(0.000152824 -0.000153056 4.97795e-05)
(-0.000153104 0.000152835 4.92303e-05)
(0.000153131 0.000152797 4.92844e-05)
(4.42305e-05 1.95756e-05 -7.07846e-05)
(-0.000114648 -0.000121063 0.000254121)
(-0.000258427 4.68387e-06 0.000173443)
(-4.17715e-05 1.65186e-05 -5.13359e-05)
(-2.76454e-05 -2.4623e-05 0.000210383)
(3.94779e-05 8.63625e-05 -7.29386e-05)
(1.60252e-05 -4.00163e-05 -5.67677e-05)
(-8.63238e-05 0.000130681 0.000415258)
(0.000101497 -3.44525e-05 -0.00014022)
(1.96624e-05 4.43034e-05 -7.03558e-05)
(4.90103e-06 -0.000257945 0.000173366)
(-0.000120924 -0.000114647 0.000254466)
(1.63203e-05 -4.18465e-05 -5.13826e-05)
(-2.44126e-05 -2.74799e-05 0.000210814)
(-3.9623e-05 1.6113e-05 -5.68538e-05)
(8.63659e-05 3.94819e-05 -7.27385e-05)
(-0.000254768 6.76694e-06 0.000307898)
(7.06356e-06 -0.00025502 0.000308181)
(-0.000210353 -0.000211002 -0.000106602)
(7.36115e-05 -4.15291e-05 -9.75117e-05)
(-4.16657e-05 7.39641e-05 -9.74681e-05)
(-1.74002e-06 0.000116451 -1.28411e-05)
(-8.17032e-05 -0.000557693 6.55314e-05)
(-9.96214e-07 -0.000185978 4.59001e-05)
(-5.8342e-05 0.0005224 -6.02619e-06)
(0.000142702 -6.74359e-05 6.56252e-05)
(-4.56773e-05 7.73927e-05 -7.26251e-06)
(0.000116466 -1.68652e-06 -1.28924e-05)
(-0.000557874 -8.21147e-05 6.59333e-05)
(-0.000186033 -1.12387e-06 4.56716e-05)
(0.000522484 -5.80032e-05 -5.98697e-06)
(0.000137869 -0.000138119 9.20245e-05)
(-0.000138177 0.000137972 9.17432e-05)
(0.000137938 0.000137935 9.14744e-05)
(-0.000139553 -0.000139834 7.63239e-05)
(0.0001394 -0.000139658 7.68866e-05)
(-0.000139651 0.000139599 7.64562e-05)
(0.00013959 0.000139452 7.64188e-05)
(5.94169e-05 1.88169e-05 -2.48541e-05)
(-0.000114481 -0.000100882 3.72124e-05)
(-8.69332e-05 -2.52559e-05 5.02263e-05)
(-0.000115559 6.64529e-05 1.13069e-05)
(-3.90113e-05 -2.48205e-05 1.62441e-05)
(4.4963e-05 6.10038e-05 -1.12859e-05)
(-6.96162e-05 -2.77527e-05 2.99349e-05)
(-6.74211e-05 0.000142596 6.5632e-05)
(7.77077e-05 -4.53711e-05 -7.81923e-06)
(1.90561e-05 5.92724e-05 -2.50162e-05)
(-2.51244e-05 -8.7197e-05 5.02498e-05)
(-0.000100816 -0.000114329 3.73054e-05)
(6.62537e-05 -0.000115418 1.13964e-05)
(-2.46002e-05 -3.9045e-05 1.61733e-05)
(-2.76456e-05 -6.93916e-05 2.9981e-05)
(6.09939e-05 4.48952e-05 -1.1513e-05)
(-0.000280575 -8.21921e-06 5.0301e-05)
(-8.11795e-06 -0.000280924 5.04648e-05)
(-0.000172 -0.000172544 -8.12105e-05)
(8.78056e-05 -3.30568e-05 -7.01402e-06)
(-3.32201e-05 8.80636e-05 -6.97966e-06)
(-1.08948e-06 0.000106239 1.50457e-06)
(-8.22023e-05 -0.000546894 1.77113e-05)
(-1.37071e-06 -0.000175341 7.45575e-06)
(-5.61226e-05 0.000512281 1.10715e-05)
(0.000144563 -6.42174e-05 1.75124e-05)
(-4.79918e-05 7.27897e-05 9.55727e-06)
(0.000106063 -1.03371e-06 1.50629e-06)
(-0.000547101 -8.27223e-05 1.76231e-05)
(-0.000175546 -1.46372e-06 7.33614e-06)
(0.000512375 -5.59745e-05 1.11765e-05)
(0.00013944 -0.000139391 7.72958e-05)
(-0.000139401 0.000139551 7.68364e-05)
(0.000139474 0.000139294 7.70275e-05)
(-0.000138764 -0.000139053 7.6215e-05)
(0.000139081 -0.000138824 7.64474e-05)
(-0.000138867 0.000139232 7.60683e-05)
(0.000139143 0.000138997 7.60956e-05)
(6.46618e-05 1.84043e-05 -1.59629e-05)
(-0.000119295 -9.48208e-05 4.31481e-06)
(-7.11232e-05 -2.77095e-05 3.93464e-05)
(-0.000116558 6.66061e-05 1.88202e-05)
(-4.73712e-05 -2.45246e-05 -1.26902e-05)
(4.78689e-05 5.61542e-05 2.78002e-07)
(-7.02969e-05 -2.76957e-05 3.93843e-05)
(-6.40359e-05 0.000144666 1.67742e-05)
(7.30708e-05 -4.76353e-05 9.1855e-06)
(1.84221e-05 6.44975e-05 -1.56304e-05)
(-2.75657e-05 -7.11251e-05 3.92678e-05)
(-9.47915e-05 -0.000119319 4.4294e-06)
(6.6508e-05 -0.000116504 1.88812e-05)
(-2.41843e-05 -4.72066e-05 -1.23177e-05)
(-2.75531e-05 -7.04403e-05 3.93412e-05)
(5.60901e-05 4.78852e-05 3.96175e-07)
(-0.000286295 -1.11729e-05 1.2564e-05)
(-1.08894e-05 -0.000286596 1.26306e-05)
(-0.000162156 -0.00016252 -7.47201e-05)
(9.02525e-05 -3.20523e-05 6.84635e-06)
(-3.22907e-05 9.06034e-05 6.90761e-06)
(-1.14287e-06 0.000105096 3.06975e-06)
(-8.2306e-05 -0.000545485 1.23985e-05)
(-1.71744e-06 -0.000174067 3.09276e-06)
(-5.57895e-05 0.000511027 1.22741e-05)
(0.000144767 -6.36728e-05 1.14271e-05)
(-4.833e-05 7.19707e-05 1.05474e-05)
(0.000105185 -9.89428e-07 3.10482e-06)
(-0.000545605 -8.27589e-05 1.24029e-05)
(-0.000174016 -1.78589e-06 3.01712e-06)
(0.000511031 -5.55243e-05 1.22628e-05)
(0.00013909 -0.00013885 7.65418e-05)
(-0.000138853 0.000139157 7.60915e-05)
(0.000139148 0.000138953 7.61515e-05)
(-0.000138746 -0.000139139 7.71842e-05)
(0.000139238 -0.00013868 7.73828e-05)
(-0.000138688 0.000139227 7.70172e-05)
(0.000139207 0.00013892 7.68826e-05)
(6.50592e-05 1.8032e-05 -1.39776e-05)
(-0.00011997 -9.47682e-05 1.94263e-06)
(-7.11158e-05 -2.75711e-05 3.92996e-05)
(-0.000117486 6.69036e-05 1.89576e-05)
(-4.8564e-05 -2.49014e-05 -1.37084e-05)
(4.84511e-05 5.53604e-05 1.76786e-06)
(-7.08887e-05 -2.7586e-05 3.97181e-05)
(-6.34315e-05 0.000144869 1.08364e-05)
(7.20387e-05 -4.81636e-05 9.81604e-06)
(1.78095e-05 6.48802e-05 -1.36465e-05)
(-2.73842e-05 -7.11155e-05 3.91917e-05)
(-9.46969e-05 -0.000119985 1.98128e-06)
(6.69383e-05 -0.000117654 1.89547e-05)
(-2.48793e-05 -4.83061e-05 -1.34741e-05)
(-2.73867e-05 -7.10964e-05 3.95917e-05)
(5.52686e-05 4.83732e-05 1.91299e-06)
(-0.000287036 -1.17074e-05 8.72448e-06)
(-1.15317e-05 -0.000287345 8.79279e-06)
(-0.000161036 -0.000161402 -7.33786e-05)
(9.1229e-05 -3.16204e-05 8.43875e-06)
(-3.19057e-05 9.15144e-05 8.53753e-06)
(-8.36745e-07 0.000103549 1.22085e-06)
(-8.29958e-05 -0.000546206 1.24862e-05)
(-1.84782e-06 -0.000173925 1.32771e-06)
(-5.59823e-05 0.000511836 1.44501e-05)
(0.000144881 -6.37933e-05 1.16631e-05)
(-4.82815e-05 7.24595e-05 1.26765e-05)
(0.00010368 -5.97463e-07 8.03196e-07)
(-0.000546347 -8.34228e-05 1.2788e-05)
(-0.000174022 -1.69349e-06 1.02981e-06)
(0.00051202 -5.55077e-05 1.46639e-05)
(0.000139186 -0.00013871 7.78119e-05)
(-0.000138773 0.000139325 7.76977e-05)
(0.000139227 0.000139014 7.73541e-05)
(-0.000139355 -0.000139389 7.92036e-05)
(0.000139033 -0.00013923 7.91436e-05)
(-0.000139366 0.000139087 7.87793e-05)
(0.000139202 0.000139141 7.83897e-05)
(6.56108e-05 1.82368e-05 -1.49974e-05)
(-0.000120378 -9.45224e-05 7.78061e-07)
(-7.14528e-05 -2.75272e-05 4.04049e-05)
(-0.000117757 6.74185e-05 1.97546e-05)
(-4.90183e-05 -2.49208e-05 -1.51031e-05)
(4.87868e-05 5.51336e-05 1.01664e-06)
(-7.16256e-05 -2.75612e-05 4.08517e-05)
(-6.38337e-05 0.000144782 1.13987e-05)
(7.25861e-05 -4.8136e-05 1.29423e-05)
(1.81937e-05 6.56457e-05 -1.535e-05)
(-2.73401e-05 -7.17216e-05 4.04357e-05)
(-9.45932e-05 -0.00012033 4.63067e-07)
(6.72582e-05 -0.000117643 1.9903e-05)
(-2.51881e-05 -4.89228e-05 -1.54489e-05)
(-2.74545e-05 -7.1519e-05 4.08657e-05)
(5.50471e-05 4.873e-05 6.62367e-07)
(-0.00028745 -1.18702e-05 7.79753e-06)
(-1.1746e-05 -0.000287699 7.83067e-06)
(-0.000160998 -0.000161434 -7.36876e-05)
(9.14594e-05 -3.16073e-05 8.36858e-06)
(-3.1846e-05 9.18367e-05 8.41562e-06)
(-6.02913e-07 0.000104033 1.52569e-06)
(-8.30139e-05 -0.00054659 1.3032e-05)
(-1.45064e-06 -0.000173199 -2.13709e-07)
(-5.5715e-05 0.000511945 1.42243e-05)
(0.000144958 -6.40817e-05 1.29813e-05)
(-4.78486e-05 7.29404e-05 1.34795e-05)
(0.000104363 -5.24446e-07 1.67577e-06)
(-0.000546599 -8.32868e-05 1.29864e-05)
(-0.000173276 -1.45667e-06 -1.10059e-07)
(0.000511736 -5.54348e-05 1.42765e-05)
(0.000139103 -0.00013938 7.91554e-05)
(-0.000139413 0.000139095 7.863e-05)
(0.000139242 0.000139177 7.84311e-05)
(-0.000139028 -0.000139354 7.7265e-05)
(0.000139178 -0.000139286 7.77026e-05)
(-0.000139107 0.000139182 7.73615e-05)
(0.000139287 0.000139169 7.74259e-05)
(6.63093e-05 1.87557e-05 -1.65963e-05)
(-0.000120423 -9.38897e-05 -6.61308e-07)
(-7.07737e-05 -2.78247e-05 4.12375e-05)
(-0.000116513 6.61854e-05 2.00985e-05)
(-4.92296e-05 -2.45837e-05 -1.70877e-05)
(4.88737e-05 5.54303e-05 3.75173e-07)
(-7.03314e-05 -2.79586e-05 4.10619e-05)
(-6.39908e-05 0.000144862 1.23989e-05)
(7.26624e-05 -4.7974e-05 1.27072e-05)
(1.83985e-05 6.61834e-05 -1.62952e-05)
(-2.76659e-05 -7.08175e-05 4.10703e-05)
(-9.39031e-05 -0.000120535 -5.36942e-07)
(6.62374e-05 -0.000116786 2.00704e-05)
(-2.46407e-05 -4.91811e-05 -1.67766e-05)
(-2.77282e-05 -7.04241e-05 4.09112e-05)
(5.52592e-05 4.88507e-05 5.14142e-07)
(-0.000287183 -1.13555e-05 7.0755e-06)
(-1.11375e-05 -0.000287558 7.132e-06)
(-0.000160972 -0.000161473 -7.47318e-05)
(9.11033e-05 -3.17936e-05 8.26312e-06)
(-3.20512e-05 9.14292e-05 8.32228e-06)
(-9.34554e-07 0.000105117 3.3416e-06)
(-8.25806e-05 -0.000546064 1.19437e-05)
(-1.63412e-06 -0.000173861 1.70226e-06)
(-5.58033e-05 0.000511396 1.30153e-05)
(0.000144982 -6.36892e-05 1.14472e-05)
(-4.81475e-05 7.23066e-05 1.14314e-05)
(0.000105384 -8.81868e-07 2.94485e-06)
(-0.000546169 -8.28531e-05 1.20647e-05)
(-0.000174024 -1.43606e-06 1.46886e-06)
(0.000511229 -5.53749e-05 1.32286e-05)
(0.000139214 -0.000139147 7.71734e-05)
(-0.000139065 0.000139311 7.70478e-05)
(0.00013925 0.000139173 7.70205e-05)
(-0.000139015 -0.00013898 7.57939e-05)
(0.00013918 -0.000138815 7.60957e-05)
(-0.000138938 0.000139393 7.58588e-05)
(0.000139173 0.000139224 7.58999e-05)
(6.5476e-05 1.83098e-05 -1.43535e-05)
(-0.000120299 -9.39754e-05 7.00126e-07)
(-7.0156e-05 -2.78565e-05 3.99662e-05)
(-0.000116327 6.60038e-05 1.90795e-05)
(-4.8878e-05 -2.43646e-05 -1.51109e-05)
(4.85692e-05 5.55711e-05 1.98147e-06)
(-7.00181e-05 -2.78283e-05 3.97152e-05)
(-6.36956e-05 0.000144982 1.15495e-05)
(7.25483e-05 -4.79628e-05 1.16697e-05)
(1.8357e-05 6.52617e-05 -1.4654e-05)
(-2.76141e-05 -7.01831e-05 3.99586e-05)
(-9.42435e-05 -0.000120352 4.41116e-07)
(6.59125e-05 -0.000116326 1.92084e-05)
(-2.46464e-05 -4.86937e-05 -1.52817e-05)
(-2.76473e-05 -6.98178e-05 3.98073e-05)
(5.54049e-05 4.8505e-05 1.59248e-06)
(-0.000287467 -1.17827e-05 7.81059e-06)
(-1.15429e-05 -0.000287829 7.83771e-06)
(-0.000160482 -0.000161009 -7.35265e-05)
(9.10562e-05 -3.17489e-05 8.79048e-06)
(-3.19449e-05 9.13764e-05 8.83743e-06)
(-1.2911e-06 0.000104923 4.34227e-06)
(-8.253e-05 -0.000545161 1.10188e-05)
(-1.63791e-06 -0.000174294 2.98448e-06)
(-5.64073e-05 0.000510886 1.19701e-05)
(0.000145179 -6.32952e-05 1.03365e-05)
(-4.80611e-05 7.22051e-05 1.03993e-05)
(0.000105292 -1.04322e-06 4.49911e-06)
(-0.000545265 -8.26699e-05 1.13398e-05)
(-0.000174145 -1.68558e-06 2.92029e-06)
(0.000510745 -5.58153e-05 1.18981e-05)
(0.000139236 -0.00013875 7.58836e-05)
(-0.000138845 0.000139331 7.54083e-05)
(0.00013912 0.000139179 7.55795e-05)
(-0.000138676 -0.000138953 7.52697e-05)
(0.000139417 -0.000138698 7.55185e-05)
(-0.000138544 0.000139126 7.48412e-05)
(0.000139411 0.000139001 7.49411e-05)
(6.49076e-05 1.82915e-05 -1.26236e-05)
(-0.000120087 -9.47142e-05 1.80687e-06)
(-7.01235e-05 -2.76262e-05 3.90244e-05)
(-0.000116457 6.6198e-05 1.83048e-05)
(-4.83137e-05 -2.48683e-05 -1.34565e-05)
(4.81984e-05 5.57028e-05 2.78022e-06)
(-7.01467e-05 -2.76482e-05 3.87977e-05)
(-6.31884e-05 0.000145091 9.77272e-06)
(7.18464e-05 -4.81434e-05 9.07826e-06)
(1.79277e-05 6.47495e-05 -1.18827e-05)
(-2.7574e-05 -6.97671e-05 3.89826e-05)
(-9.47151e-05 -0.000120207 2.01111e-06)
(6.60049e-05 -0.000116441 1.83182e-05)
(-2.4726e-05 -4.80993e-05 -1.29502e-05)
(-2.74596e-05 -7.00852e-05 3.86153e-05)
(5.56956e-05 4.80889e-05 3.33231e-06)
(-0.000287566 -1.20044e-05 8.54578e-06)
(-1.16591e-05 -0.000287776 8.61326e-06)
(-0.000160297 -0.000160724 -7.2467e-05)
(9.05942e-05 -3.174e-05 9.10143e-06)
(-3.2096e-05 9.08153e-05 9.16157e-06)
(-1.20814e-06 0.000104801 3.23432e-06)
(-8.28098e-05 -0.000545446 1.15755e-05)
(-1.91542e-06 -0.000174638 2.99384e-06)
(-5.6155e-05 0.000511285 1.2548e-05)
(0.000145216 -6.32567e-05 1.06692e-05)
(-4.83554e-05 7.19214e-05 1.00949e-05)
(0.000104786 -8.60832e-07 3.12297e-06)
(-0.000545511 -8.30274e-05 1.14961e-05)
(-0.00017469 -1.51677e-06 3.09458e-06)
(0.000511175 -5.58941e-05 1.26973e-05)
(0.000139253 -0.000138805 7.5638e-05)
(-0.00013864 0.000139046 7.52061e-05)
(0.000139326 0.000138859 7.48345e-05)
(-0.000138994 -0.00013916 7.6616e-05)
(0.000138798 -0.000139089 7.63902e-05)
(-0.00013914 0.000139019 7.64497e-05)
(0.000138962 0.000138885 7.58964e-05)
(6.45892e-05 1.8496e-05 -1.20821e-05)
(-0.000119855 -9.48488e-05 2.47036e-06)
(-7.07363e-05 -2.7596e-05 3.87339e-05)
(-0.000117273 6.67538e-05 1.83435e-05)
(-4.81931e-05 -2.4775e-05 -1.23759e-05)
(4.82399e-05 5.59134e-05 2.95323e-06)
(-7.10527e-05 -2.76584e-05 3.89093e-05)
(-6.33866e-05 0.000144942 9.95007e-06)
(7.1892e-05 -4.83704e-05 1.03611e-05)
(1.81369e-05 6.44951e-05 -1.25035e-05)
(-2.71606e-05 -7.15268e-05 3.86121e-05)
(-9.51436e-05 -0.000119751 2.4333e-06)
(6.73509e-05 -0.000118055 1.83469e-05)
(-2.53168e-05 -4.79034e-05 -1.24338e-05)
(-2.73085e-05 -7.16576e-05 3.8936e-05)
(5.56216e-05 4.81804e-05 2.54224e-06)
(-0.000287116 -1.19955e-05 8.85473e-06)
(-1.19695e-05 -0.000287396 8.89419e-06)
(-0.000160563 -0.000160879 -7.17761e-05)
(9.10611e-05 -3.14908e-05 9.35362e-06)
(-3.17951e-05 9.1554e-05 9.46958e-06)
(-9.02379e-07 0.000103759 2.44496e-06)
(-8.2686e-05 -0.000545577 1.18124e-05)
(-1.52158e-06 -0.000173935 2.22906e-06)
(-5.63305e-05 0.000511082 1.3571e-05)
(0.000144841 -6.38537e-05 1.11924e-05)
(-4.83018e-05 7.23685e-05 1.23987e-05)
(0.000103684 -6.51493e-07 2.48929e-06)
(-0.000545603 -8.29307e-05 1.20867e-05)
(-0.000173723 -1.32733e-06 1.97071e-06)
(0.000511273 -5.60139e-05 1.32069e-05)
(0.000138751 -0.000139164 7.67904e-05)
(-0.00013927 0.000138951 7.67003e-05)
(0.000138994 0.000139005 7.64896e-05)
(-0.000139108 -0.000139377 7.83061e-05)
(0.000139093 -0.000139153 7.88109e-05)
(-0.000139166 0.000139106 7.81946e-05)
(0.00013941 0.000139149 7.85907e-05)
(6.57336e-05 1.83606e-05 -1.44199e-05)
(-0.00011993 -9.4419e-05 1.46009e-06)
(-7.20088e-05 -2.75981e-05 3.9641e-05)
(-0.000118379 6.77474e-05 1.90091e-05)
(-4.85716e-05 -2.45727e-05 -1.42535e-05)
(4.862e-05 5.56289e-05 1.40323e-06)
(-7.22487e-05 -2.75905e-05 4.00199e-05)
(-6.36791e-05 0.000144922 1.09202e-05)
(7.24811e-05 -4.79817e-05 1.17813e-05)
(1.83025e-05 6.55409e-05 -1.42129e-05)
(-2.75644e-05 -7.15339e-05 3.98079e-05)
(-9.43555e-05 -0.000120144 1.19282e-06)
(6.72121e-05 -0.000118003 1.91126e-05)
(-2.45314e-05 -4.85658e-05 -1.43207e-05)
(-2.75546e-05 -7.19093e-05 3.99726e-05)
(5.54918e-05 4.88013e-05 1.52705e-06)
(-0.00028696 -1.15342e-05 8.2426e-06)
(-1.14817e-05 -0.000287508 8.3126e-06)
(-0.000161525 -0.000161933 -7.37378e-05)
(9.1638e-05 -3.14677e-05 8.71848e-06)
(-3.17914e-05 9.18535e-05 8.75395e-06)
(-5.49346e-07 0.000103615 5.31925e-07)
(-8.33344e-05 -0.000546771 1.33621e-05)
(-1.67217e-06 -0.000173822 1.67657e-07)
(-5.57783e-05 0.000512421 1.49803e-05)
(0.000144893 -6.41071e-05 1.34896e-05)
(-4.81478e-05 7.29392e-05 1.39617e-05)
(-0.000546863 -8.37166e-05 1.32674e-05)
(-0.000173802 -1.45668e-06 2.53822e-07)
(0.000139332 -0.000139137 7.93285e-05)
(-0.000139066 0.00013926 7.87065e-05)