/*--------------------------------*- C++ -*----------------------------------*\
| =========                 |                                                 |
| \\      /  F ield         | OpenFOAM: The Open Source CFD Toolbox           |
|  \\    /   O peration     | Version:  2206                                  |
|   \\  /    A nd           | Website:  www.openfoam.com                      |
|    \\/     M anipulation  |                                                 |
\*---------------------------------------------------------------------------*/
FoamFile
{
    version     2.0;
    format      ascii;
    arch        "LSB;label=32;scalar=64";
    class       surfaceScalarField;
    location    "14";
    object      phi;
}
// * * * * * * * * * * * * * * * * * * * * * * * * * * * * * * * * * * * * * //

dimensions      [0 3 -1 0 0 0 0];

oriented        oriented;

internalField   nonuniform List<scalar> 
83348
(
1.3411e-09
1.44636e-09
-0.00107045
-1.22303e-09
-1.16637e-09
0.00107045
-0.00107103
-1.17809e-06
-1.26962e-09
1.72955e-09
0.00107103
-2.33741e-07
1.18002e-06
2.33082e-07
8.55824e-07
-2.20381e-07
-8.55668e-07
2.18822e-07
-0.0010707
-1.17273e-06
-1.42656e-09
1.59987e-09
0.0010707
-2.30959e-07
1.17472e-06
2.30392e-07
8.55685e-07
-2.22912e-07
-8.55498e-07
2.21523e-07
-0.000263359
1.20596e-06
1.17286e-06
-2.16038e-07
-2.21221e-07
0.000261418
1.71793e-09
1.75691e-09
-0.00107045
-1.30169e-09
-1.31558e-09
0.00107045
-0.00107103
-1.17802e-06
-1.57091e-09
1.55223e-09
0.00107103
-2.33636e-07
1.18011e-06
2.33201e-07
8.55874e-07
-2.20238e-07
-8.55615e-07
2.18973e-07
-0.00107069
-1.17268e-06
-1.76886e-09
1.42173e-09
0.00107069
-2.30892e-07
1.17481e-06
2.30498e-07
8.55762e-07
-2.22832e-07
-8.55484e-07
2.21639e-07
-0.000263359
1.20592e-06
1.17278e-06
-2.15945e-07
-2.2118e-07
0.000261417
-1.05259e-10
-1.60427e-10
-0.00107045
-3.89242e-10
-5.40059e-10
0.00107045
-0.00107103
-1.17823e-06
-5.44473e-10
1.94692e-09
0.00107103
-2.33875e-07
1.17984e-06
2.32863e-07
8.55448e-07
-2.206e-07
-8.56033e-07
2.18475e-07
-0.00107069
-1.17311e-06
1.12485e-10
2.35302e-09
0.00107069
-2.31449e-07
1.17439e-06
2.2995e-07
8.55163e-07
-2.23665e-07
-8.56141e-07
2.2073e-07
-0.000263358
1.20638e-06
1.17313e-06
-2.16387e-07
-2.21739e-07
0.000261417
7.75669e-10
9.14449e-10
-0.00107045
-1.00809e-09
-9.17244e-10
0.00107045
-0.00107103
-1.17822e-06
-6.46473e-10
1.94589e-09
0.00107103
-2.33907e-07
1.18001e-06
2.33057e-07
8.55715e-07
-2.20878e-07
-8.55924e-07
2.18545e-07
-0.0010707
-1.17286e-06
-8.83356e-10
1.77932e-09
0.0010707
-2.31111e-07
1.17469e-06
2.30358e-07
8.55591e-07
-2.23316e-07
-8.55739e-07
2.21298e-07
-0.000263359
1.20607e-06
1.173e-06
-2.16187e-07
-2.21368e-07
0.000261418
9.7521e-10
1.07362e-09
-0.00107045
-1.05343e-09
-1.01226e-09
0.00107045
-0.00107103
-1.17816e-06
-1.02931e-09
1.78311e-09
0.00107103
-2.33827e-07
1.18004e-06
2.33101e-07
8.55793e-07
-2.20594e-07
-8.55829e-07
2.18739e-07
-0.0010707
-1.17283e-06
-1.05873e-09
1.74642e-09
0.0010707
-2.31086e-07
1.1747e-06
2.30369e-07
8.55627e-07
-2.23188e-07
-8.55697e-07
2.21382e-07
-0.00026336
1.20606e-06
1.17295e-06
-2.16131e-07
-2.21331e-07
0.000261418
9.9704e-10
1.07501e-09
-0.00107045
-1.04537e-09
-1.02473e-09
0.00107045
-0.00107103
-1.17815e-06
-1.07507e-09
1.77024e-09
0.00107103
-2.33826e-07
1.18005e-06
2.33103e-07
8.55802e-07
-2.20585e-07
-8.55819e-07
2.18747e-07
-0.0010707
-1.17283e-06
-1.07122e-09
1.75266e-09
0.0010707
-2.31085e-07
1.17471e-06
2.30369e-07
8.55631e-07
-2.23185e-07
-8.55692e-07
2.21385e-07
-0.00026336
1.20605e-06
1.17294e-06
-2.16123e-07
-2.21329e-07
0.000261418
1.00155e-09
1.07481e-09
-0.00107045
-1.04471e-09
-1.02786e-09
0.00107045
-0.00107103
-1.17815e-06
-1.07682e-09
1.76848e-09
0.00107103
-2.33824e-07
1.18005e-06
2.33104e-07
8.55802e-07
-2.20584e-07
-8.55818e-07
2.18747e-07
-0.0010707
-1.17283e-06
-1.06991e-09
1.75387e-09
0.0010707
-2.31086e-07
1.17471e-06
2.30369e-07
8.55631e-07
-2.23184e-07
-8.55692e-07
2.21385e-07
-0.00026336
1.20606e-06
1.17294e-06
-2.16122e-07
-2.2133e-07
0.000261418
1.0064e-09
1.07657e-09
-0.00107045
-1.04482e-09
-1.02969e-09
0.00107045
-0.00107103
-1.17815e-06
-1.08402e-09
1.76712e-09
0.00107103
-2.33825e-07
1.18005e-06
2.33105e-07
8.55804e-07
-2.20583e-07
-8.55817e-07
2.18748e-07
-0.0010707
-1.17283e-06
-1.07531e-09
1.75392e-09
0.0010707
-2.31086e-07
1.17471e-06
2.30369e-07
8.55633e-07
-2.23184e-07
-8.55691e-07
2.21386e-07
-0.00026336
1.20605e-06
1.17294e-06
-2.1612e-07
-2.21329e-07
0.000261418
1.00181e-09
1.07108e-09
-0.00107045
-1.04265e-09
-1.02904e-09
0.00107045
-0.00107103
-1.17815e-06
-1.07567e-09
1.7707e-09
0.00107103
-2.33824e-07
1.18005e-06
2.33103e-07
8.55802e-07
-2.20584e-07
-8.55818e-07
2.18746e-07
-0.0010707
-1.17283e-06
-1.06466e-09
1.75608e-09
0.0010707
-2.31086e-07
1.17471e-06
2.30369e-07
8.55634e-07
-2.23188e-07
-8.55695e-07
2.21387e-07
-0.00026336
1.20606e-06
1.17294e-06
-2.16121e-07
-2.2133e-07
0.000261418
9.93797e-10
1.05034e-09
-0.00107045
-1.05634e-09
-1.04348e-09
0.00107045
-0.00107103
-1.17816e-06
-1.07702e-09
1.77268e-09
0.00107103
-2.3383e-07
1.18005e-06
2.33102e-07
8.55803e-07
-2.20583e-07
-8.55818e-07
2.18748e-07
-0.0010707
-1.17283e-06
-1.05163e-09
1.74026e-09
0.0010707
-2.31085e-07
1.17471e-06
2.30372e-07
8.55632e-07
-2.23193e-07
-8.557e-07
2.21386e-07
-0.00026336
1.20606e-06
1.17293e-06
-2.16118e-07
-2.21334e-07
0.000261418
9.06883e-10
-9.04586e-09
-0.00107045
-1.04916e-09
-1.01342e-09
0.00107046
-0.00107103
-1.17816e-06
-1.0955e-09
1.76426e-09
0.00107103
-2.33782e-07
1.18005e-06
2.33086e-07
8.55805e-07
-2.20579e-07
-8.55814e-07
2.18748e-07
-0.0010707
-1.17283e-06
-1.05675e-09
1.74716e-09
0.0010707
-2.31085e-07
1.17471e-06
2.30371e-07
8.55633e-07
-2.23192e-07
-8.55699e-07
2.21387e-07
-0.00026336
1.20606e-06
1.17294e-06
-2.16117e-07
-2.21331e-07
0.000261418
9.50393e-10
1.09143e-09
-0.00107046
-1.06602e-09
-1.00489e-09
0.00107046
-0.00107103
-1.1782e-06
-1.03997e-09
1.86481e-09
0.00107103
-2.31142e-07
1.18001e-06
2.30313e-07
8.55806e-07
-2.2056e-07
-8.55819e-07
2.18727e-07
-0.0010707
-1.17283e-06
-1.06687e-09
1.75582e-09
0.0010707
-2.31087e-07
1.17471e-06
2.3037e-07
8.55632e-07
-2.23193e-07
-8.55701e-07
2.21386e-07
-0.00026336
1.20605e-06
1.17294e-06
-2.16125e-07
-2.21329e-07
0.000261418
9.60628e-10
1.06673e-09
-0.00107046
-1.0394e-09
-1.01518e-09
0.00107046
-0.00107103
-1.17816e-06
-1.06922e-09
1.78266e-09
0.00107103
-2.31097e-07
1.18005e-06
2.30356e-07
8.558e-07
-2.20554e-07
-8.55818e-07
2.18726e-07
-0.0010707
-1.17283e-06
-1.07336e-09
1.75681e-09
0.0010707
-2.31086e-07
1.17471e-06
2.3037e-07
8.55634e-07
-2.23191e-07
-8.55698e-07
2.21388e-07
-0.00026336
1.20605e-06
1.17294e-06
-2.16123e-07
-2.21327e-07
0.000261418
9.83153e-10
1.06392e-09
-0.00107046
-1.03755e-09
-1.02852e-09
0.00107046
-0.00107103
-1.17816e-06
-1.07148e-09
1.77711e-09
0.00107103
-2.31097e-07
1.18005e-06
2.3036e-07
8.55801e-07
-2.20557e-07
-8.55819e-07
2.18725e-07
-0.0010707
-1.17283e-06
-1.07156e-09
1.75784e-09
0.0010707
-2.31087e-07
1.17471e-06
2.3037e-07
8.55634e-07
-2.23192e-07
-8.55698e-07
2.21388e-07
-0.00026336
1.20606e-06
1.17294e-06
-2.16123e-07
-2.2133e-07
0.000261418
9.90348e-10
1.06501e-09
-0.00107046
-1.03661e-09
-1.03121e-09
0.00107046
-0.00107103
-1.17816e-06
-1.08361e-09
1.76946e-09
0.00107103
-2.31095e-07
1.18006e-06
2.30363e-07
8.55805e-07
-2.20557e-07
-8.55817e-07
2.1873e-07
-0.0010707
-1.17283e-06
-1.08374e-09
1.74936e-09
0.0010707
-2.31084e-07
1.17471e-06
2.30374e-07
8.55637e-07
-2.2319e-07
-8.55696e-07
2.21392e-07
-0.00026336
1.20605e-06
1.17294e-06
-2.16122e-07
-2.21329e-07
0.000261418
9.86491e-10
1.06019e-09
-0.00107046
-1.03431e-09
-1.03079e-09
0.00107046
-0.00107103
-1.17816e-06
-1.07541e-09
1.77187e-09
0.00107103
-2.3109e-07
1.18005e-06
2.30355e-07
8.55796e-07
-2.20548e-07
-8.55812e-07
2.18715e-07
-0.0010707
-1.17282e-06
-1.07484e-09
1.75582e-09
0.0010707
-2.3108e-07
1.1747e-06
2.30366e-07
8.55628e-07
-2.23181e-07
-8.55691e-07
2.21378e-07
-0.00026336
1.20605e-06
1.17294e-06
-2.16115e-07
-2.21323e-07
0.000261418
1.00526e-09
1.07711e-09
-0.00107046
-1.04214e-09
-1.03914e-09
0.00107046
-0.00107103
-1.17815e-06
-1.09171e-09
1.76454e-09
0.00107103
-2.31079e-07
1.18005e-06
2.30348e-07
8.55785e-07
-2.20532e-07
-8.55797e-07
2.18705e-07
-0.0010707
-1.17281e-06
-1.08901e-09
1.74929e-09
0.0010707
-2.3107e-07
1.1747e-06
2.30358e-07
8.55615e-07
-2.23166e-07
-8.55677e-07
2.21367e-07
-0.00026336
1.20604e-06
1.17293e-06
-2.16104e-07
-2.21312e-07
0.000261418
1.07889e-09
1.15389e-09
-0.00107046
-1.06869e-09
-1.06447e-09
-0.00107103
-1.17812e-06
-1.169e-09
1.74092e-09
-2.31041e-07
1.18003e-06
2.30327e-07
8.55778e-07
-2.20463e-07
-8.55736e-07
2.18695e-07
-0.0010707
-1.17279e-06
-1.16899e-09
1.7251e-09
-2.3103e-07
1.17469e-06
2.30338e-07
8.55609e-07
-2.23096e-07
-8.55615e-07
2.21358e-07
-0.00026336
1.20601e-06
1.1729e-06
-2.16078e-07
-2.21284e-07
0.000261418
-1.21578e-06
-1.17742e-06
0.000263375
-0.000261423
2.15512e-07
2.25703e-07
0.00107025
-1.14001e-09
-0.00107025
1.77222e-09
-1.21388e-06
2.38349e-07
-2.39067e-07
-8.58288e-07
2.16019e-07
-2.17673e-07
8.58353e-07
1.21853e-06
0.0010707
-1.12216e-09
-0.0010707
1.84759e-09
-1.21665e-06
2.38398e-07
-2.39145e-07
-8.63873e-07
2.21462e-07
-2.23139e-07
8.63929e-07
-1.18002e-06
0.000263399
-0.000261441
2.18214e-07
2.23008e-07
0.00107131
-1.3002e-09
-0.00107131
1.69787e-09
-1.17552e-06
2.33111e-07
-2.33776e-07
-8.58367e-07
2.21522e-07
-2.23108e-07
8.58543e-07
1.21321e-06
0.00107037
-1.16803e-09
-0.00107037
1.78521e-09
-1.21132e-06
2.38396e-07
-2.39121e-07
-8.58347e-07
2.21438e-07
-2.23071e-07
8.58419e-07
-1.17445e-09
1.75094e-09
-1.1781e-06
2.33073e-07
-2.33746e-07
-8.55703e-07
2.18751e-07
8.55779e-07
-2.20452e-07
1.20789e-06
0.00107017
-1.1093e-09
-0.00107017
1.76422e-09
-1.20599e-06
2.32925e-07
-2.33628e-07
-8.5569e-07
2.18666e-07
-2.20354e-07
8.55729e-07
-1.17468e-06
0.000263354
-0.000261405
2.15671e-07
2.22979e-07
-1.26918e-09
-0.0010707
1.68293e-09
-1.17277e-06
2.30345e-07
-2.31006e-07
-8.55509e-07
2.21424e-07
8.557e-07
-2.23022e-07
1.17478e-06
0.00107121
-1.27706e-09
-0.00107121
1.73021e-09
-1.17289e-06
2.30389e-07
-2.3108e-07
-8.55788e-07
2.2151e-07
-2.23093e-07
8.55943e-07
-0.000261418
2.1797e-07
2.232e-07
1.21385e-06
1.17548e-06
-2.13555e-07
-2.23715e-07
0.000261423
-1.21584e-06
-1.17749e-06
0.000263375
-0.000261423
2.15638e-07
2.25818e-07
1.67893e-09
0.00107025
-2.39018e-07
1.21582e-06
2.38396e-07
8.58406e-07
-2.17586e-07
-8.58212e-07
2.16101e-07
-1.21665e-06
-1.27265e-09
1.85187e-09
0.00107069
-2.39147e-07
1.22116e-06
2.41104e-07
8.63963e-07
-2.23077e-07
-8.63826e-07
2.21521e-07
0.00107025
-1.41568e-09
-0.00107025
1.68451e-09
-1.21382e-06
2.38441e-07
-2.38968e-07
-8.58206e-07
2.16163e-07
-2.17525e-07
8.58416e-07
1.21861e-06
0.0010707
-1.379e-09
-0.00107069
1.67051e-09
-1.21921e-06
2.38506e-07
-2.41763e-07
-8.63797e-07
2.21613e-07
-2.23004e-07
8.63998e-07
-2.16275e-07
-2.21085e-07
0.000261441
-1.18009e-06
0.000263398
-0.000261441
2.18328e-07
2.23124e-07
1.6107e-09
0.00107131
-2.33727e-07
1.17746e-06
2.33158e-07
8.58581e-07
-2.23021e-07
-8.5831e-07
2.21596e-07
-1.21129e-06
-1.35197e-09
1.69476e-09
0.00107037
-2.39071e-07
1.21325e-06
2.38444e-07
8.58468e-07
-2.22977e-07
-8.5828e-07
2.21523e-07
0.00107131
-1.5173e-09
-0.00107131
1.55302e-09
-1.17544e-06
2.33215e-07
-2.33669e-07
-8.58301e-07
2.21655e-07
-2.22968e-07
8.58591e-07
1.21327e-06
0.00107037
-1.40259e-09
-0.00107037
1.65782e-09
-1.21125e-06
2.38496e-07
-2.39018e-07
-8.58272e-07
2.21576e-07
-2.22925e-07
8.58473e-07
-1.25541e-09
1.67244e-09
0.00107017
-2.33573e-07
1.20793e-06
2.32986e-07
8.55778e-07
-2.20275e-07
2.18744e-07
-8.55648e-07
-1.45832e-09
-0.00107103
1.59731e-09
-1.17803e-06
2.3317e-07
-2.33667e-07
-8.55625e-07
2.18927e-07
8.55881e-07
-2.20287e-07
1.20794e-06
0.00107017
-1.39782e-09
-0.00107017
1.67786e-09
-1.20592e-06
2.33022e-07
-2.3352e-07
-8.5562e-07
2.18828e-07
-2.20205e-07
8.55821e-07
-2.13699e-07
-2.2101e-07
0.000261405
-1.17474e-06
0.000263354
-0.000261405
2.15789e-07
2.23101e-07
-1.45833e-09
1.6442e-09
0.00107121
-2.31028e-07
1.17481e-06
2.30436e-07
8.55987e-07
-2.22998e-07
2.21593e-07
-8.55724e-07
-1.51589e-09
-0.0010707
1.57422e-09
-1.1727e-06
2.30443e-07
-2.30905e-07
-8.55437e-07
2.21562e-07
8.55753e-07
-2.22876e-07
1.17485e-06
0.00107121
-1.49562e-09
-0.00107121
1.5729e-09
-1.17282e-06
2.30492e-07
-2.30971e-07
-8.55717e-07
2.21646e-07
-2.22947e-07
8.55994e-07
-0.000261418
2.181e-07
2.23316e-07
1.2138e-06
1.17542e-06
-2.1349e-07
-2.23662e-07
0.000261422
-1.21557e-06
-1.17726e-06
0.000263374
-0.000261422
2.15312e-07
2.25459e-07
1.52327e-09
0.00107025
-2.38956e-07
1.21591e-06
2.38497e-07
8.58487e-07
-2.17502e-07
-8.58192e-07
2.16221e-07
-1.21656e-06
-1.58761e-09
1.61373e-09
0.00107069
-2.39021e-07
1.22128e-06
2.4126e-07
8.64023e-07
-2.22954e-07
-8.63802e-07
2.21658e-07
0.00107025
-5.0425e-10
-0.00107025
2.40821e-09
-1.21401e-06
2.38091e-07
-2.39225e-07
-8.58507e-07
2.15739e-07
-2.17796e-07
8.58034e-07
1.22134e-06
0.00107069
-9.84497e-10
-0.00107069
1.38959e-09
-1.2191e-06
2.41325e-07
-2.4163e-07
-8.63985e-07
2.2148e-07
-2.23044e-07
8.63743e-07
-2.16162e-07
-2.20955e-07
0.000261441
-1.1801e-06
0.0002634
-0.00026144
2.18369e-07
2.23226e-07
1.37961e-09
0.0010713
-2.3365e-07
1.17757e-06
2.33277e-07
8.58649e-07
-2.2295e-07
-8.58304e-07
2.21704e-07
-1.21123e-06
-1.66902e-09
1.49452e-09
0.00107037
-2.39001e-07
1.21335e-06
2.38555e-07
8.58537e-07
-2.22904e-07
-8.58272e-07
2.21633e-07
0.0010713
-4.14389e-10
-0.0010713
2.01528e-09
-1.1756e-06
2.32904e-07
-2.33888e-07
-8.58639e-07
2.21197e-07
-2.23269e-07
8.58169e-07
1.21303e-06
0.00107037
-3.55811e-10
-0.00107037
2.17065e-09
-1.21142e-06
2.38173e-07
-2.39247e-07
-8.58601e-07
2.21134e-07
-2.23217e-07
8.58063e-07
-1.60551e-09
1.5413e-09
0.00107017
-2.3353e-07
1.20799e-06
2.33047e-07
8.55849e-07
-2.20155e-07
2.18884e-07
-8.55592e-07
-1.50802e-09
-0.00107103
1.48658e-09
-1.17797e-06
2.33223e-07
-2.33573e-07
-8.55628e-07
2.1895e-07
8.55785e-07
-2.20219e-07
1.20767e-06
0.00107017
-9.3881e-10
-0.00107017
2.33725e-09
-1.20612e-06
2.32664e-07
-2.33768e-07
-8.55708e-07
2.18645e-07
-2.20281e-07
8.55623e-07
-2.13646e-07
-2.20949e-07
0.000261404
-1.1745e-06
0.000263353
-0.000261404
2.15449e-07
2.2276e-07
-1.77911e-09
1.39535e-09
0.00107121
-2.30946e-07
1.17492e-06
2.30561e-07
8.5605e-07
-2.22926e-07
2.21698e-07
-8.55717e-07
-5.07007e-10
-0.00107069
2.12739e-09
-1.17288e-06
2.30115e-07
-2.31141e-07
-8.55762e-07
2.21119e-07
8.55342e-07
-2.23163e-07
1.17471e-06
0.0010712
-3.64867e-10
-0.0010712
1.8805e-09
-1.17289e-06
2.30252e-07
-2.31127e-07
-8.56061e-07
2.21181e-07
-2.23251e-07
8.55557e-07
-0.000261417
2.17905e-07
2.22942e-07
1.21424e-06
1.17583e-06
-2.14011e-07
-2.24212e-07
0.000261422
-1.21577e-06
-1.1774e-06
0.000263375
-0.000261423
2.15441e-07
2.25636e-07
2.60689e-09
0.00107025
-2.39535e-07
1.21548e-06
2.3793e-07
8.57903e-07
-2.18318e-07
-8.58826e-07
2.15325e-07
-1.21935e-06
-1.62584e-10
1.89744e-09
0.00107069
-2.41906e-07
1.22105e-06
2.40975e-07
8.63536e-07
-2.23509e-07
-8.64317e-07
2.20951e-07
0.00107025
-5.58504e-10
-0.00107025
1.8842e-09
-1.21401e-06
2.38333e-07
-2.39222e-07
-8.58515e-07
2.1575e-07
-2.18165e-07
8.58276e-07
1.22107e-06
0.00107069
-3.91011e-10
-0.00107069
2.26219e-09
-1.21953e-06
2.40971e-07
-2.42174e-07
-8.64139e-07
2.2111e-07
-2.23748e-07
8.63817e-07
-2.16443e-07
-2.21125e-07
0.00026144
-1.17994e-06
0.000263401
-0.000261441
2.18109e-07
2.22841e-07
2.26666e-09
0.0010713
-2.34195e-07
1.17716e-06
2.32739e-07
8.58046e-07
-2.23791e-07
-8.58967e-07
2.20791e-07
-1.21165e-06
1.9681e-10
2.41786e-09
0.00107037
-2.39554e-07
1.21294e-06
2.38012e-07
8.57935e-07
-2.23734e-07
-8.58928e-07
2.20727e-07
0.00107131
-7.47315e-10
-0.00107131
1.87851e-09
-1.17566e-06
2.33086e-07
-2.33938e-07
-8.58591e-07
2.21255e-07
-2.23592e-07
8.58466e-07
1.21319e-06
0.00107037
-6.11904e-10
-0.00107037
1.95645e-09
-1.21146e-06
2.38374e-07
-2.39281e-07
-8.58567e-07
2.21177e-07
-2.23557e-07
8.5835e-07
-5.48101e-11
2.59765e-09
0.00107017
-2.34122e-07
1.20754e-06
2.32469e-07
8.55321e-07
-2.20753e-07
2.18168e-07
-8.56118e-07
-3.46978e-10
-0.00107103
2.11036e-09
-1.17831e-06
2.32963e-07
-2.34046e-07
-8.56002e-07
2.18324e-07
8.55662e-07
-2.21132e-07
1.20788e-06
0.00107017
-4.53045e-10
-0.00107017
1.87999e-09
-1.20611e-06
2.32922e-07
-2.33773e-07
-8.55954e-07
2.18336e-07
-2.20935e-07
8.55648e-07
-2.14176e-07
-2.2148e-07
0.000261404
-1.17466e-06
0.000263354
-0.000261405
2.15604e-07
2.22908e-07
1.70383e-10
2.19848e-09
0.00107121
-2.31432e-07
1.17456e-06
2.30069e-07
8.55431e-07
-2.23778e-07
2.2077e-07
-8.56398e-07
-7.04021e-10
-0.0010707
1.84824e-09
-1.17291e-06
2.30324e-07
-2.31167e-07
-8.55731e-07
2.21157e-07
8.55622e-07
-2.23505e-07
1.17474e-06
0.00107121
-7.2942e-10
-0.00107121
1.93575e-09
-1.17305e-06
2.30347e-07
-2.3126e-07
-8.56005e-07
2.21247e-07
-2.23576e-07
8.55873e-07
-0.000261418
2.17885e-07
2.23137e-07
1.21397e-06
1.17561e-06
-2.13705e-07
-2.23863e-07
0.000261423
-1.21581e-06
-1.17744e-06
0.000263375
-0.000261423
2.15505e-07
2.25699e-07
1.82023e-09
0.00107025
-2.39166e-07
1.21579e-06
2.38366e-07
8.58311e-07
-2.17992e-07
-8.58454e-07
2.15876e-07
-1.21943e-06
-6.66061e-10
2.08786e-09
0.00107069
-2.42033e-07
1.22114e-06
2.41074e-07
8.63858e-07
-2.23513e-07
-8.64083e-07
2.21288e-07
0.00107025
-9.37964e-10
-0.00107025
1.8277e-09
-1.21394e-06
2.38374e-07
-2.39143e-07
-8.58429e-07
2.15952e-07
-2.1787e-07
8.58337e-07
1.22119e-06
0.00107069
-9.38652e-10
-0.00107069
1.9064e-09
-1.21935e-06
2.41139e-07
-2.41928e-07
-8.64013e-07
2.21408e-07
-2.23328e-07
8.63916e-07
-2.16467e-07
-2.21259e-07
0.000261441
-1.18004e-06
0.000263401
-0.000261441
2.18249e-07
2.23011e-07
1.81941e-09
0.00107131
-2.33886e-07
1.17742e-06
2.33117e-07
8.58488e-07
-2.23424e-07
-8.5855e-07
2.21374e-07
-1.21141e-06
-8.14555e-10
1.88537e-09
0.00107037
-2.39227e-07
1.21321e-06
2.38406e-07
8.5838e-07
-2.23376e-07
-8.58514e-07
2.21306e-07
0.00107131
-1.09581e-09
-0.00107131
1.76294e-09
-1.17559e-06
2.33133e-07
-2.33856e-07
-8.5851e-07
2.21455e-07
-2.23299e-07
8.58523e-07
1.21323e-06
0.00107037
-9.74662e-10
-0.00107037
1.84399e-09
-1.21139e-06
2.3842e-07
-2.392e-07
-8.58487e-07
2.21375e-07
-2.23263e-07
8.58403e-07
-6.77273e-10
1.81238e-09
0.00107017
-2.33717e-07
1.2079e-06
2.32951e-07
8.55687e-07
-2.20717e-07
2.185e-07
-8.55881e-07
-1.00666e-09
-0.00107103
1.79082e-09
-1.17816e-06
2.331e-07
-2.33827e-07
-8.55839e-07
2.18731e-07
8.55787e-07
-2.20608e-07
1.20791e-06
0.00107017
-9.28402e-10
-0.00107017
1.82746e-09
-1.20606e-06
2.32951e-07
-2.33706e-07
-8.55831e-07
2.18625e-07
-2.20535e-07
8.55732e-07
-2.13844e-07
-2.21162e-07
0.000261405
-1.1747e-06
0.000263354
-0.000261405
2.15666e-07
2.22975e-07
-9.19529e-10
1.86559e-09
0.00107121
-2.31198e-07
1.17477e-06
2.30386e-07
8.55896e-07
-2.234e-07
2.2137e-07
-8.55961e-07
-1.06374e-09
-0.0010707
1.73682e-09
-1.17283e-06
2.3037e-07
-2.31083e-07
-8.55653e-07
2.21357e-07
8.55679e-07
-2.23215e-07
1.1748e-06
0.00107121
-1.06074e-09
-0.00107121
1.79103e-09
-1.17296e-06
2.30413e-07
-2.31158e-07
-8.55931e-07
2.21443e-07
-2.23285e-07
8.55923e-07
-0.000261418
2.17967e-07
2.23194e-07
1.21394e-06
1.17558e-06
-2.13663e-07
-2.23821e-07
0.000261423
-1.21581e-06
-1.17745e-06
0.000263375
-0.000261423
2.15512e-07
2.257e-07
1.84117e-09
0.00107025
-2.39146e-07
1.21581e-06
2.38373e-07
8.58348e-07
-2.17864e-07
-8.58411e-07
2.1596e-07
-1.21935e-06
-9.62804e-10
1.88915e-09
0.00107069
-2.41925e-07
1.2212e-06
2.41142e-07
8.63923e-07
-2.23316e-07
-8.64003e-07
2.21418e-07
0.00107025
-9.70354e-10
-0.00107025
1.85045e-09
-1.21394e-06
2.38371e-07
-2.39146e-07
-8.58418e-07
2.15959e-07
-2.17859e-07
8.58346e-07
1.2212e-06
0.00107069
-9.82986e-10
-0.00107069
1.86641e-09
-1.21934e-06
2.41146e-07
-2.4192e-07
-8.64e-07
2.21417e-07
-2.23317e-07
8.63926e-07
-2.1638e-07
-2.2115e-07
0.000261441
-1.18004e-06
0.000263401
-0.000261441
2.18255e-07
2.2302e-07
1.76506e-09
0.00107131
-2.33857e-07
1.17744e-06
2.33134e-07
8.58522e-07
-2.23298e-07
-8.5851e-07
2.21455e-07
-1.21138e-06
-9.82624e-10
1.84605e-09
0.00107037
-2.392e-07
1.21324e-06
2.38421e-07
8.58409e-07
-2.23254e-07
-8.58479e-07
2.21383e-07
0.00107131
-1.10199e-09
-0.00107131
1.74951e-09
-1.17558e-06
2.33137e-07
-2.33852e-07
-8.58505e-07
2.21458e-07
-2.23295e-07
8.58527e-07
1.21324e-06
0.00107037
-9.84576e-10
-0.00107037
1.83943e-09
-1.21138e-06
2.38422e-07
-2.39198e-07
-8.5848e-07
2.21379e-07
-2.23257e-07
8.58408e-07
-9.48472e-10
1.83493e-09
0.00107017
-2.33704e-07
1.20791e-06
2.32951e-07
8.55737e-07
-2.20522e-07
2.18634e-07
-8.55822e-07
-1.0803e-09
-0.00107103
1.77029e-09
-1.17816e-06
2.33103e-07
-2.33824e-07
-8.5582e-07
2.18745e-07
8.55802e-07
-2.20588e-07
1.20791e-06
0.00107017
-9.90861e-10
-0.00107017
1.84101e-09
-1.20606e-06
2.3295e-07
-2.33708e-07
-8.55814e-07
2.18639e-07
-2.20517e-07
8.55747e-07
-2.13805e-07
-2.21116e-07
0.000261405
-1.1747e-06
0.000263354
-0.000261405
2.15669e-07
2.22979e-07
-1.0671e-09
1.78687e-09
0.00107121
-2.31151e-07
1.1748e-06
2.30418e-07
8.55925e-07
-2.23277e-07
2.21448e-07
-8.55925e-07
-1.08456e-09
-0.0010707
1.74385e-09
-1.17283e-06
2.30371e-07
-2.31083e-07
-8.55644e-07
2.21362e-07
8.55685e-07
-2.23208e-07
1.17481e-06
0.00107121
-1.078e-09
-0.00107121
1.76126e-09
-1.17295e-06
2.30423e-07
-2.31148e-07
-8.55924e-07
2.21448e-07
-2.23279e-07
8.55929e-07
-0.000261418
2.17978e-07
2.23196e-07
1.21394e-06
1.17558e-06
-2.13658e-07
-2.23821e-07
0.000261423
-1.21581e-06
-1.17745e-06
0.000263375
-0.000261423
2.15514e-07
2.25701e-07
1.85583e-09
0.00107025
-2.39148e-07
1.21581e-06
2.38371e-07
8.58354e-07
-2.17858e-07
-8.58404e-07
2.15964e-07
-1.21934e-06
-9.90371e-10
1.86203e-09
0.00107069
-2.4192e-07
1.2212e-06
2.41147e-07
8.63929e-07
-2.23311e-07
-8.63996e-07
2.21423e-07
0.00107025
-9.8136e-10
-0.00107025
1.85182e-09
-1.21394e-06
2.38371e-07
-2.39146e-07
-8.58415e-07
2.15962e-07
-2.17857e-07
8.58348e-07
1.22121e-06
0.00107069
-9.91972e-10
-0.00107069
1.85848e-09
-1.21934e-06
2.4115e-07
-2.41917e-07
-8.63998e-07
2.21419e-07
-2.23315e-07
8.63928e-07
-2.16376e-07
-2.21143e-07
0.000261441
-1.18005e-06
0.000263401
-0.000261441
2.18257e-07
2.23022e-07
1.75326e-09
0.00107131
-2.33853e-07
1.17745e-06
2.33137e-07
8.58524e-07
-2.23297e-07
-8.58507e-07
2.21456e-07
-1.21138e-06
-9.8596e-10
1.84212e-09
0.00107037
-2.39198e-07
1.21324e-06
2.38423e-07
8.58411e-07
-2.23252e-07
-8.58477e-07
2.21385e-07
0.00107131
-1.10528e-09
-0.00107131
1.74123e-09
-1.17558e-06
2.3314e-07
-2.33849e-07
-8.58504e-07
2.21459e-07
-2.23294e-07
8.58528e-07
1.21324e-06
0.00107037
-9.8869e-10
-0.00107037
1.83927e-09
-1.21138e-06
2.38422e-07
-2.39198e-07
-8.58479e-07
2.2138e-07
-2.23256e-07
8.5841e-07
-9.89816e-10
1.84175e-09
0.00107017
-2.33705e-07
1.20791e-06
2.32951e-07
8.55746e-07
-2.20512e-07
2.18642e-07
-8.55812e-07
-1.08957e-09
-0.00107103
1.76527e-09
-1.17815e-06
2.33104e-07
-2.33823e-07
-8.55818e-07
2.18747e-07
8.55805e-07
-2.20586e-07
1.20791e-06
0.00107017
-9.98691e-10
-0.00107017
1.84485e-09
-1.20606e-06
2.3295e-07
-2.33709e-07
-8.55812e-07
2.18641e-07
-2.20515e-07
8.55748e-07
-2.13803e-07
-2.21112e-07
0.000261405
-1.1747e-06
0.000263354
-0.000261405
2.15669e-07
2.2298e-07
-1.07767e-09
1.76419e-09
0.00107121
-2.31144e-07
1.17481e-06
2.30424e-07
8.55928e-07
-2.23274e-07
2.2145e-07
-8.55922e-07
-1.08728e-09
-0.0010707
1.74598e-09
-1.17283e-06
2.3037e-07
-2.31084e-07
-8.55643e-07
2.21364e-07
8.55687e-07
-2.23206e-07
1.17481e-06
0.00107121
-1.07585e-09
-0.00107121
1.75508e-09
-1.17294e-06
2.30425e-07
-2.31146e-07
-8.55924e-07
2.21446e-07
-2.2328e-07
8.55928e-07
-0.000261418
2.1798e-07
2.23196e-07
1.21394e-06
1.17557e-06
-2.13656e-07
-2.23821e-07
0.000261423
-1.21581e-06
-1.17745e-06
0.000263375
-0.000261423
2.15516e-07
2.257e-07
1.85768e-09
0.00107025
-2.39148e-07
1.21581e-06
2.38371e-07
8.58355e-07
-2.17857e-07
-8.58403e-07
2.15966e-07
-1.21934e-06
-9.92476e-10
1.85866e-09
0.00107069
-2.41918e-07
1.22121e-06
2.41148e-07
8.63929e-07
-2.2331e-07
-8.63996e-07
2.21423e-07
0.00107025
-9.80616e-10
-0.00107025
1.8525e-09
-1.21394e-06
2.38371e-07
-2.39147e-07
-8.58416e-07
2.15965e-07
-2.17859e-07
8.58349e-07
1.22121e-06
0.00107069
-9.91363e-10
-0.00107069
1.85946e-09
-1.21934e-06
2.41148e-07
-2.41918e-07
-8.63999e-07
2.21419e-07
-2.23316e-07
8.63928e-07
-2.16375e-07
-2.21141e-07
0.000261441
-1.18005e-06
0.000263401
-0.000261441
2.18256e-07
2.23021e-07
1.74862e-09
0.00107131
-2.33851e-07
1.17745e-06
2.33138e-07
8.58524e-07
-2.23297e-07
-8.58507e-07
2.21456e-07
-1.21138e-06
-9.87676e-10
1.8432e-09
0.00107037
-2.39197e-07
1.21324e-06
2.38423e-07
8.58412e-07
-2.23251e-07
-8.58476e-07
2.21386e-07
0.00107131
-1.10282e-09
-0.00107131
1.74026e-09
-1.17558e-06
2.3314e-07
-2.3385e-07
-8.58505e-07
2.21459e-07
-2.23295e-07
8.58528e-07
1.21324e-06
0.00107037
-9.85342e-10
-0.00107037
1.84071e-09
-1.21138e-06
2.38421e-07
-2.39199e-07
-8.5848e-07
2.21379e-07
-2.23257e-07
8.58409e-07
-9.90228e-10
1.84621e-09
0.00107017
-2.33706e-07
1.20791e-06
2.3295e-07
8.55746e-07
-2.20512e-07
2.18642e-07
-8.55811e-07
-1.0896e-09
-0.00107103
1.76592e-09
-1.17815e-06
2.33104e-07
-2.33824e-07
-8.55819e-07
2.18747e-07
8.55804e-07
-2.20587e-07
1.20791e-06
0.00107017
-1.0023e-09
-0.00107017
1.84305e-09
-1.20606e-06
2.3295e-07
-2.33709e-07
-8.55812e-07
2.18642e-07
-2.20515e-07
8.55749e-07
-2.13803e-07
-2.21112e-07
0.000261405
-1.1747e-06
0.000263354
-0.000261405
2.15669e-07
2.22979e-07
-1.07213e-09
1.76201e-09
0.00107121
-2.31142e-07
1.17481e-06
2.30425e-07
8.55926e-07
-2.23276e-07
2.21448e-07
-8.55923e-07
-1.0879e-09
-0.0010707
1.74856e-09
-1.17283e-06
2.30369e-07
-2.31085e-07
-8.55643e-07
2.21364e-07
8.55687e-07
-2.23207e-07
1.17481e-06
0.00107121
-1.07939e-09
-0.00107121
1.75158e-09
-1.17294e-06
2.30425e-07
-2.31145e-07
-8.55924e-07
2.21448e-07
-2.2328e-07
8.55929e-07
-0.000261418
2.1798e-07
2.23196e-07
1.21394e-06
1.17557e-06
-2.13657e-07
-2.23821e-07
0.000261423
-1.21581e-06
-1.17745e-06
0.000263375
-0.000261423
2.15517e-07
2.25698e-07
1.85747e-09
0.00107025
-2.39148e-07
1.21581e-06
2.38371e-07
8.58358e-07
-2.17859e-07
-8.58403e-07
2.15971e-07
-1.21934e-06
-9.93014e-10
1.85605e-09
0.00107069
-2.41918e-07
1.22121e-06
2.41148e-07
8.6393e-07
-2.2331e-07
-8.63996e-07
2.21425e-07
0.00107025
-9.78345e-10
-0.00107025
1.85407e-09
-1.21394e-06
2.3837e-07
-2.39146e-07
-8.58417e-07
2.15968e-07
-2.17863e-07
8.5835e-07
1.22121e-06
0.00107069
-9.93851e-10
-0.00107069
1.85853e-09
-1.21934e-06
2.41148e-07
-2.41918e-07
-8.63996e-07
2.21416e-07
-2.23313e-07
8.63926e-07
-2.16375e-07
-2.21141e-07
0.000261441
-1.18005e-06
0.000263401
-0.000261441
2.18255e-07
2.23022e-07
1.74625e-09
0.00107131
-2.33851e-07
1.17745e-06
2.3314e-07
8.58524e-07
-2.23297e-07
-8.58507e-07
2.21457e-07
-1.21138e-06
-9.88526e-10
1.84157e-09
0.00107037
-2.39198e-07
1.21324e-06
2.38423e-07
8.58412e-07
-2.23251e-07
-8.58476e-07
2.21386e-07
0.00107131
-1.10113e-09
-0.00107131
1.74185e-09
-1.17558e-06
2.33139e-07
-2.3385e-07
-8.58504e-07
2.21458e-07
-2.23295e-07
8.58527e-07
1.21324e-06
0.00107037
-9.85632e-10
-0.00107037
1.83985e-09
-1.21138e-06
2.38422e-07
-2.39198e-07
-8.58479e-07
2.2138e-07
-2.23256e-07
8.58409e-07
-1.00055e-09
1.8407e-09
0.00107017
-2.33704e-07
1.20791e-06
2.32952e-07
8.55748e-07
-2.20509e-07
2.18645e-07
-8.55809e-07
-1.0934e-09
-0.00107103
1.76668e-09
-1.17815e-06
2.33103e-07
-2.33823e-07
-8.55817e-07
2.18748e-07
8.55805e-07
-2.20585e-07
1.20791e-06
0.00107017
-1.00535e-09
-0.00107017
1.843e-09
-1.20606e-06
2.3295e-07
-2.33709e-07
-8.55811e-07
2.18642e-07
-2.20514e-07
8.5575e-07
-2.13803e-07
-2.21112e-07
0.000261405
-1.1747e-06
0.000263354
-0.000261405
2.1567e-07
2.2298e-07
-1.08129e-09
1.75558e-09
0.00107121
-2.31141e-07
1.17481e-06
2.30427e-07
8.55929e-07
-2.23273e-07
2.21451e-07
-8.55921e-07
-1.08908e-09
-0.0010707
1.74797e-09
-1.17283e-06
2.30371e-07
-2.31083e-07
-8.55644e-07
2.21366e-07
8.55689e-07
-2.23208e-07
1.17481e-06
0.00107121
-1.08047e-09
-0.00107121
1.75186e-09
-1.17294e-06
2.30425e-07
-2.31145e-07
-8.55923e-07
2.21447e-07
-2.23279e-07
8.55929e-07
-0.000261418
2.1798e-07
2.23196e-07
1.21394e-06
1.17558e-06
-2.1366e-07
-2.2382e-07
0.000261423
-1.21581e-06
-1.17745e-06
0.000263375
-0.000261423
2.15525e-07
2.25697e-07
1.85735e-09
0.00107025
-2.39148e-07
1.2158e-06
2.38369e-07
8.58358e-07
-2.17865e-07
-8.58406e-07
2.15975e-07
-1.21934e-06
-9.87668e-10
1.85818e-09
0.00107069
-2.41917e-07
1.2212e-06
2.41147e-07
8.63928e-07
-2.23307e-07
-8.63994e-07
2.2142e-07
0.00107025
-9.77411e-10
-0.00107025
1.84147e-09
-1.21394e-06
2.38374e-07
-2.39142e-07
-8.58416e-07
2.15983e-07
-2.17866e-07
8.58356e-07
1.22121e-06
0.00107069
-9.57659e-10
-0.00107069
1.88192e-09
-1.21934e-06
2.41148e-07
-2.4192e-07
-8.64003e-07
2.21408e-07
-2.23321e-07
8.6392e-07
-2.16373e-07
-2.2114e-07
0.000261441
-1.18004e-06
0.000263401
-0.000261441
2.18251e-07
2.2302e-07
1.74864e-09
0.00107131
-2.33851e-07
1.17745e-06
2.33139e-07
8.58522e-07
-2.23297e-07
-8.58507e-07
2.21455e-07
-1.21138e-06
-9.81062e-10
1.84464e-09
0.00107037
-2.39198e-07
1.21324e-06
2.38422e-07
8.58411e-07
-2.23252e-07
-8.58477e-07
2.21385e-07
0.00107131
-1.08718e-09
-0.00107131
1.73581e-09
-1.17558e-06
2.33142e-07
-2.33849e-07
-8.58507e-07
2.21451e-07
-2.23296e-07
8.58521e-07
1.21323e-06
0.00107037
-9.67767e-10
-0.00107037
1.84837e-09
-1.21139e-06
2.38418e-07
-2.39201e-07
-8.58483e-07
2.21376e-07
-2.2326e-07
8.58405e-07
-9.90775e-10
1.84549e-09
0.00107017
-2.33706e-07
1.20791e-06
2.3295e-07
8.55747e-07
-2.20511e-07
2.18643e-07
-8.55811e-07
-1.0789e-09
-0.00107103
1.77518e-09
-1.17816e-06
2.331e-07
-2.33829e-07
-8.5582e-07
2.18745e-07
8.55802e-07
-2.20588e-07
1.2079e-06
0.00107017
-9.61513e-10
-0.00107017
1.85211e-09
-1.20607e-06
2.32942e-07
-2.33715e-07
-8.55818e-07
2.18634e-07
-2.20522e-07
8.55742e-07
-2.13803e-07
-2.21112e-07
0.000261405
-1.17471e-06
0.000263354
-0.000261405
2.15669e-07
2.22976e-07
-1.06867e-09
1.75915e-09
0.00107121
-2.31141e-07
1.17481e-06
2.30425e-07
8.55926e-07
-2.23275e-07
2.21448e-07
-8.55922e-07
-1.06595e-09
-0.0010707
1.74519e-09
-1.17283e-06
2.30372e-07
-2.31084e-07
-8.55653e-07
2.21363e-07
8.55685e-07
-2.23218e-07
1.17482e-06
0.00107121
-1.02593e-09
-0.00107121
1.76097e-09
-1.17294e-06
2.30429e-07
-2.31143e-07
-8.55926e-07
2.21447e-07
-2.23283e-07
8.55929e-07
-0.000261418
2.17982e-07
2.23191e-07
1.21394e-06