/*--------------------------------*- C++ -*----------------------------------*\
| =========                 |                                                 |
| \\      /  F ield         | OpenFOAM: The Open Source CFD Toolbox           |
|  \\    /   O peration     | Version:  2206                                  |
|   \\  /    A nd           | Website:  www.openfoam.com                      |
|    \\/     M anipulation  |                                                 |
\*---------------------------------------------------------------------------*/
FoamFile
{
    version     2.0;
    format      ascii;
    arch        "LSB;label=32;scalar=64";
    class       volScalarField;
    location    "32.5";
    object      nut;
}
// * * * * * * * * * * * * * * * * * * * * * * * * * * * * * * * * * * * * * //

dimensions      [0 2 -1 0 0 0 0];

internalField   nonuniform List<scalar> 
28688
(
0.000233973
0.000233116
0.000233116
0.000233421
0.000232535
0.000227805
0.000227804
0.000223865
0.000230522
0.000220327
0.000220324
0.00020911
0.000227785
0.000211646
0.000211642
0.000193786
0.000224374
0.000202573
0.000202567
0.000179716
0.000220754
0.000194062
0.000194055
0.000167493
0.000215878
0.000184913
0.000184905
0.000156603
0.000214016
0.000182121
0.000182113
0.000152997
0.000214712
0.000183529
0.00018352
0.000155228
0.000215013
0.000184094
0.000184086
0.000155952
0.000215041
0.000184149
0.000184141
0.00015604
0.000215044
0.000184157
0.000184148
0.000156044
0.000234268
0.000234448
0.000234449
0.000234268
0.000234448
0.000234449
0.000234274
0.000234274
0.000234274
0.000234274
0.000234448
0.000234448
0.000234268
0.000234448
0.000234448
0.000234268
0.000233421
0.000226205
0.000233116
0.000233114
0.000229361
0.000229356
0.000233421
0.000226207
0.000233114
0.000233114
0.000229358
0.000229355
0.000233116
0.000229363
0.00022936
0.000233421
0.000226203
0.000233114
0.000229363
0.000229358
0.000226204
0.000223865
0.000212227
0.000227802
0.000227797
0.000222327
0.000222321
0.000223866
0.000212231
0.0002278
0.000227795
0.000222327
0.000222318
0.000227801
0.000222333
0.000222325
0.000223864
0.000212224
0.0002278
0.00022233
0.000222326
0.000212225
0.000209112
0.000197041
0.000220319
0.000220314
0.000213849
0.000213844
0.000209113
0.000197046
0.00022032
0.00022031
0.000213853
0.000213839
0.000220317
0.00021386
0.000213847
0.000209108
0.000197037
0.000220319
0.000213856
0.000213852
0.000197038
0.000193789
0.000182871
0.000211634
0.000211629
0.000204909
0.000204904
0.000193793
0.000182877
0.000211639
0.000211624
0.000204917
0.000204898
0.000211632
0.000204924
0.000204907
0.000193785
0.000182867
0.000211638
0.000204918
0.000204916
0.000182867
0.00017972
0.000170338
0.000202557
0.000202552
0.000196085
0.00019608
0.000179724
0.000170345
0.000202566
0.000202546
0.000196097
0.000196073
0.000202554
0.000196104
0.000196082
0.000179716
0.000170334
0.000202564
0.000196097
0.000196095
0.000170334
0.000167498
0.000159226
0.000194043
0.000194037
0.000187041
0.000187036
0.000167503
0.000159233
0.000194055
0.000194031
0.000187057
0.000187029
0.00019404
0.000187064
0.000187038
0.000167493
0.000159221
0.000194054
0.000187056
0.000187055
0.00015922
0.000156607
0.00015352
0.000184889
0.000184883
0.00018199
0.000181982
0.000156612
0.000153526
0.000184905
0.000184876
0.000182004
0.000181974
0.000184886
0.000182011
0.000181986
0.000156603
0.000153514
0.000184904
0.000182002
0.000182004
0.000153513
0.000153005
0.000155285
0.0001821
0.000182092
0.000183255
0.000183249
0.000153009
0.00015529
0.000182114
0.000182084
0.00018327
0.00018324
0.000182096
0.000183277
0.000183252
0.000152998
0.000155278
0.000182115
0.000183268
0.000183271
0.000155277
0.000155233
0.000156127
0.00018351
0.000183504
0.00018402
0.000184014
0.000155237
0.000156131
0.000183525
0.000183496
0.000184036
0.000184005
0.000183507
0.000184041
0.000184018
0.000155226
0.000156118
0.000183526
0.000184033
0.000184038
0.000156123
0.000155957
0.000156228
0.000184074
0.000184069
0.000184124
0.000184119
0.00015596
0.000156231
0.000184091
0.00018406
0.000184141
0.00018411
0.000184072
0.000184146
0.000184123
0.000155949
0.000156219
0.000184092
0.000184138
0.000184143
0.000156224
0.000156045
0.000156231
0.000184127
0.000184123
0.000184133
0.000184128
0.000156048
0.000156234
0.000184144
0.000184113
0.00018415
0.000184119
0.000184126
0.000184155
0.000184132
0.000156036
0.000156222
0.000184146
0.000184147
0.000184152
0.000156226
0.00015605
0.000156238
0.000184134
0.00018413
0.000184137
0.000156052
0.000184152
0.000184121
0.000184154
0.000184123
0.000184133
0.000184136
0.000156041
0.000156229
0.000184153
0.00018415
0.000184156
0.000156234
0.00023473
0.000234746
0.000234729
0.000234729
0.000235118
0.000234798
0.000234701
0.000234727
0.000235118
0.000234798
0.000234727
0.000234701
0.000234867
0.000233566
0.000233566
0.000104633
3.87456e-05
0.000129164
3.98201e-05
2.16834e-05
2.28283e-05
0.00010462
3.87417e-05
0.000129164
3.98166e-05
0.000233973
0.000233973
0.000233973
0.000232935
0.000232935
0.000232935
0.000232935
0.000206181
9.36536e-05
0.00023397
0.000231993
0.000222639
8.72453e-05
0.000233611
2.16824e-05
2.28276e-05
0.000206173
0.00023397
9.36529e-05
0.000231993
0.000222649
0.000233611
8.72513e-05
4.77841e-05
4.7772e-05
0.000231347
4.40374e-05
4.40279e-05
7.25615e-05
4.24378e-05
8.14349e-05
4.37578e-05
2.47779e-05
2.54612e-05
7.25471e-05
4.24343e-05
8.14336e-05
4.37539e-05
0.000232535
0.000232534
0.000232534
0.00023108
0.00023108
0.00023108
0.00023108
0.000167503
7.94009e-05
0.000232083
0.000226098
0.000180225
7.4538e-05
0.000231378
2.47762e-05
2.54596e-05
0.000167498
0.000232082
7.93944e-05
0.000226097
0.000180222
0.000231377
7.45422e-05
3.91375e-05
3.9127e-05
0.000219593
3.65888e-05
3.65781e-05
5.62895e-05
4.55508e-05
6.1119e-05
4.64075e-05
2.60153e-05
2.61166e-05
5.62897e-05
4.55481e-05
6.11173e-05
4.64045e-05
0.000230522
0.000230521
0.000230522
0.00022852
0.000228521
0.000228519
0.00022852
0.000138643
6.74024e-05
0.000228647
0.000218246
0.000148029
6.35511e-05
0.000227548
2.60132e-05
2.61144e-05
0.00013864
0.000228646
6.73961e-05
0.000218243
0.00014802
0.000227546
6.35501e-05
3.3218e-05
3.32094e-05
0.000204617
3.20061e-05
3.19972e-05
4.69459e-05
4.75056e-05
4.98962e-05
4.79975e-05
2.60504e-05
2.59356e-05
4.6961e-05
4.75022e-05
4.98797e-05
4.79947e-05
0.000227786
0.000227784
0.000227785
0.00022534
0.00022534
0.000225338
0.000225339
0.000117539
5.8214e-05
0.000223703
0.00020945
0.000124597
5.54793e-05
0.000222323
2.6048e-05
2.59334e-05
0.000117538
0.000223701
5.82151e-05
0.000209445
0.000124588
0.00022232
5.54727e-05
3.06176e-05
3.06097e-05
0.000189769
3.03073e-05
3.02995e-05
4.1535e-05
4.85876e-05
4.31654e-05
4.88353e-05
2.56807e-05
2.55136e-05
4.15452e-05
4.85842e-05
4.31592e-05
4.88323e-05
0.000224375
0.000224372
0.000224373
0.000221666
0.000221666
0.000221663
0.000221664
0.000102205
5.18944e-05
0.000217732
0.000200281
0.000107279
5.00667e-05
0.000216089
2.56782e-05
2.55114e-05
0.000102205
0.000217729
5.18929e-05
0.000200275
0.000107271
0.000216085
5.00649e-05
3.0193e-05
3.01865e-05
0.000176278
3.03738e-05
3.03664e-05
3.82397e-05
4.91031e-05
3.92675e-05
4.91957e-05
2.52471e-05
2.50847e-05
3.82394e-05
4.90998e-05
3.92669e-05
4.91926e-05
0.000220754
0.000220751
0.000220752
0.000217104
0.000217105
0.0002171
0.000217102
9.07491e-05
4.77795e-05
0.000211499
0.000191866
9.44167e-05
4.6662e-05
0.000209849
2.52447e-05
2.50827e-05
9.07479e-05
0.000211497
4.77776e-05
0.000191859
9.44123e-05
0.000209844
4.66586e-05
3.10335e-05
3.10271e-05
0.000164721
3.14749e-05
3.14687e-05
3.69731e-05
4.92448e-05
3.70286e-05
4.92418e-05
2.48924e-05
2.48644e-05
3.69698e-05
4.92417e-05
3.70185e-05
4.92386e-05
0.000215879
0.000215875
0.000215877
0.000214024
0.000214026
0.000214021
0.000214023
8.29414e-05
4.53909e-05
0.000204094
0.000183308
8.47275e-05
4.51523e-05
0.000202631
2.48903e-05
2.48623e-05
8.29398e-05
0.00020409
4.53755e-05
0.000183299
8.47198e-05
0.000202626
4.51508e-05
3.27265e-05
3.27209e-05
0.000154709
3.32174e-05
3.32115e-05
3.91559e-05
4.93685e-05
3.85753e-05
4.94512e-05
2.48845e-05
2.49001e-05
3.91658e-05
4.93652e-05
3.85741e-05
4.94477e-05
0.000214017
0.000214012
0.000214014
0.000214551
0.000214551
0.000214546
0.000214549
8.47869e-05
4.58125e-05
0.000201263
0.0001825
8.39529e-05
4.68822e-05
0.000201429
2.48821e-05
2.48974e-05
8.47891e-05
0.00020126
4.58137e-05
0.000182492
8.39521e-05
0.000201425
4.68851e-05
3.48673e-05
3.48618e-05
0.000154225
3.56546e-05
3.56498e-05
3.9718e-05
4.951e-05
3.96494e-05
4.95154e-05
2.49102e-05
2.49114e-05
3.97244e-05
4.95068e-05
3.96509e-05
4.95121e-05
0.000214713
0.000214708
0.000214711
0.000214978
0.000214978
0.000214973
0.000214977
8.60447e-05
4.79e-05
0.000202112
0.000183784
8.58096e-05
4.80985e-05
0.000202263
2.49076e-05
2.49086e-05
8.60481e-05
0.00020211
4.78983e-05
0.000183776
8.58102e-05
0.00020226
4.81007e-05
3.6259e-05
3.62548e-05
0.000155924
3.63584e-05
3.6354e-05
3.9735e-05
4.95175e-05
3.97266e-05
4.95167e-05
2.49116e-05
2.49116e-05
3.97411e-05
4.95143e-05
3.97333e-05
4.95136e-05
0.000215013
0.000215008
0.000215011
0.00021504
0.000215039
0.000215034
0.000215037
8.61483e-05
4.81416e-05
0.000202454
0.000184125
8.61119e-05
4.81593e-05
0.000202474
2.49089e-05
2.49088e-05
8.61512e-05
0.000202452
4.81456e-05
0.000184117
8.61143e-05
0.000202471
4.81626e-05
3.63918e-05
3.63877e-05
0.000156201
3.63942e-05
3.63901e-05
3.97387e-05
4.95177e-05
3.97323e-05
4.95171e-05
2.49116e-05
2.49116e-05
3.97448e-05
4.95142e-05
3.97388e-05
4.95135e-05
0.00021504
0.000215035
0.000215039
0.000215044
0.000215043
0.000215038
0.000215042
8.61621e-05
4.81534e-05
0.000202488
0.000184152
8.61341e-05
4.8166e-05
0.000202489
2.49089e-05
2.49088e-05
8.61647e-05
0.000202486
4.8157e-05
0.000184144
8.61366e-05
0.000202487
4.81692e-05
3.63937e-05
3.63896e-05
0.000156224
3.63958e-05
3.63916e-05
3.97398e-05
4.95178e-05
3.97341e-05
4.95172e-05
2.49116e-05
2.49117e-05
3.9746e-05
4.95142e-05
3.97407e-05
4.95134e-05
0.000215045
0.00021504
0.000215044
0.000215046
0.000215048
0.000215042
0.000215045
8.61696e-05
4.81559e-05
0.000202493
0.000184157
8.61434e-05
4.81673e-05
0.000202494
2.49089e-05
2.49088e-05
8.61723e-05
0.000202491
4.81595e-05
0.000184149
8.61458e-05
0.000202492
4.81706e-05
3.63945e-05
3.63904e-05
0.000156232
3.63962e-05
3.63921e-05
0.000234867
0.000233564
0.000233566
2.32575e-05
0.000214159
2.32564e-05
0.000214162
0.000234434
5.13527e-05
5.13343e-05
0.00022999
0.000229991
0.000235118
0.000234798
0.000234701
0.000234726
0.000235118
0.000234798
0.000234701
0.000234726
0.000234477
4.02625e-05
0.000218814
0.000147782
0.000234477
4.0262e-05
0.000218814
0.000147789
0.000233887
0.000234474
0.000100122
0.00023427
0.000233358
0.000234597
0.00022848
0.000233887
0.000234474
0.000100112
0.00023427
0.000233359
0.000234597
0.000228479
0.000234867
0.000233565
0.000233566
2.32572e-05
0.000214167
0.000234434
5.13452e-05
5.13384e-05
0.000229989
0.000229991
2.32571e-05
0.000214169
0.000235118
0.000234798
0.000234701
0.000234727
0.000235118
0.000234798
0.000234726
0.000234701
0.000234477
4.02593e-05
0.000218815
0.000147756
0.000233887
0.000234474
0.0001001
0.00023427
0.000233359
0.000234596
0.000228477
0.000234477
4.02588e-05
0.000218816
0.000147772
0.000233887
0.000234474
0.00023427
0.000100108
0.000234597
0.000233359
0.000228479
0.00023473
0.000234746
0.000234729
0.000234729
0.00023473
0.000234746
0.000234729
0.000234729
0.00023473
0.000234746
0.000234729
0.000234729
0.000234591
0.000234574
0.000234253
0.000234253
0.000234592
0.000234592
0.000234253
0.000234591
0.000234574
0.000234253
0.000234253
0.000234592
0.000234592
0.000234253
0.000234591
0.000234574
0.000234253
0.000234253
0.000234592
0.000234592
0.000234253
0.000234591
0.000234574
0.000234253
0.000234253
0.000234592
0.000234592
0.000234253
0.000235118
0.000234798
0.000234726
0.000234701
0.000233887
0.000234474
0.000100103
0.00023427
0.000233359
0.000234596
0.000228478
0.000234477
4.026e-05
0.000218817
0.000147773
0.000233887
0.000234474
0.00023427
0.000100117
0.000234597
0.000233359
0.000228479
0.000234477
4.02595e-05
0.000218816
0.000147781
0.000234867
0.000233566
0.000233566
2.32564e-05
0.000214163
0.000234434
5.13377e-05
5.1342e-05
0.000229991
0.000229993
2.32568e-05
0.000214171
0.000235118
0.000234798
0.000234727
0.000234701
0.000233887
0.000234474
0.00023427
0.000100112
0.000234596
0.00023336
0.000228478
0.000233887
0.000234474
0.00023427
0.000100102
0.000234597
0.000233359
0.000228477
0.000234477
4.02591e-05
0.000218818
0.000147757
0.000234477
4.02589e-05
0.000218813
0.000147744
0.000234434
5.13455e-05
5.13331e-05
0.000229992
0.000229992
2.32569e-05
0.00021417
2.32564e-05
0.000214164
2.16838e-05
2.28294e-05
2.16825e-05
2.28278e-05
4.77854e-05
4.7774e-05
0.000231347
4.40419e-05
4.40269e-05
2.44786e-05
2.33081e-05
2.4477e-05
2.33068e-05
0.000229664
4.00894e-05
4.00722e-05
4.30774e-05
4.30638e-05
0.000104646
3.87447e-05
0.000129151
3.98182e-05
0.000206186
9.36638e-05
0.000233969
0.000231992
0.000222634
8.72528e-05
0.000233611
0.000206188
9.36466e-05
0.000233969
0.000231989
0.00022263
8.72405e-05
0.000233611
9.84616e-05
4.19574e-05
4.03817e-05
8.55659e-05
9.84552e-05
4.19558e-05
4.03806e-05
8.55675e-05
0.000200105
0.000230758
8.08389e-05
0.000232682
8.56459e-05
0.000233188
0.00018564
0.000200105
0.000230753
8.08314e-05
0.000232682
8.56281e-05
0.000233188
0.000185643
4.77764e-05
4.7784e-05
0.000231348
4.40323e-05
4.40348e-05
2.16835e-05
2.28294e-05
2.44777e-05
2.33074e-05
0.000229664
4.00779e-05
4.00804e-05
4.30656e-05
4.30751e-05
2.44788e-05
2.33082e-05
0.000206173
9.36421e-05
0.00023397
0.00023199
0.000222635
8.72337e-05
0.000233611
0.000104623
3.87413e-05
0.000129182
3.98159e-05
0.000206175
0.000233969
9.36461e-05
0.000231988
0.000222639
0.000233611
8.72329e-05
9.8463e-05
4.19536e-05
4.03782e-05
8.55567e-05
0.000200106
0.000230755
8.08245e-05
0.000232682
8.5629e-05
0.000233188
0.000185634
9.84635e-05
4.19527e-05
4.03775e-05
8.55555e-05
0.000200105
0.000230752
0.000232681
8.08205e-05
0.000233187
8.56279e-05
0.000185632
0.000104632
3.87422e-05
0.00012917
3.98188e-05
0.000206181
0.000233969
9.36543e-05
0.000231992
0.000222644
0.000233611
8.72486e-05
0.00010463
3.87427e-05
0.00012919
3.98172e-05
0.000200108
0.000230759
8.08346e-05
0.000232682
8.56442e-05
0.000233188
0.00018564
9.84609e-05
4.19559e-05
4.03793e-05
8.55614e-05
0.000200107
0.000230757
0.000232682
8.08393e-05
0.000233188
8.56398e-05
0.000185639
9.84662e-05
4.19547e-05
4.03796e-05
8.55626e-05
4.7774e-05
4.77821e-05
0.000231346
4.40259e-05
4.40424e-05
2.16829e-05
2.28284e-05
2.44765e-05
2.3306e-05
0.000229664
4.00735e-05
4.00862e-05
4.30653e-05
4.30725e-05
2.44776e-05
2.33074e-05
0.00020617
0.00023397
9.36408e-05
0.00023199
0.000222644
0.000233611
8.72374e-05
0.000104607
3.87418e-05
0.000129201
3.98173e-05
0.000104603
3.87412e-05
0.000129187
3.98163e-05
0.000200108
0.000230759
0.000232682
8.08393e-05
0.000233188
8.56361e-05
0.000185632
0.000200109
0.000230755
0.000232682
8.08303e-05
0.000233188
8.56273e-05
0.000185632
9.84791e-05
4.19543e-05
4.03792e-05
8.55543e-05
9.84785e-05
4.19536e-05
4.03778e-05
8.55539e-05
2.16833e-05
2.28284e-05
2.16824e-05
2.28278e-05
0.000229664
4.00857e-05
4.00739e-05
4.30765e-05
4.30622e-05
2.44778e-05
2.33077e-05
2.44769e-05
2.3307e-05
2.47786e-05
2.54623e-05
2.47768e-05
2.54605e-05
3.91409e-05
3.91282e-05
0.000219595
3.6592e-05
3.6578e-05
2.59525e-05
2.56219e-05
2.5951e-05
2.56201e-05
0.000216774
3.38721e-05
3.38577e-05
3.57056e-05
3.57003e-05
7.2564e-05
4.24366e-05
8.14373e-05
4.37565e-05
0.0001675
7.94025e-05
0.000232082
0.000226094
0.000180222
7.45398e-05
0.000231378
0.000167504
7.93857e-05
0.000232082
0.000226089
0.000180225
7.45359e-05
0.000231377
6.9648e-05
4.52324e-05
4.41548e-05
6.32259e-05
6.96506e-05
4.52319e-05
4.41534e-05
6.32291e-05
0.000162874
0.000224258
6.87009e-05
0.000229649
7.31248e-05
0.000230563
0.00015191
0.000162877
0.000224253
6.86989e-05
0.000229649
7.31062e-05
0.000230563
0.000151914
3.91305e-05
3.91391e-05
0.000219597
3.65833e-05
3.65832e-05
2.47787e-05
2.54624e-05
2.59519e-05
2.56211e-05
0.000216775
3.38623e-05
3.38668e-05
3.57021e-05
3.57009e-05
2.59529e-05
2.56219e-05
0.0001675
7.93847e-05
0.000232082
0.000226093
0.000180221
7.45306e-05
0.000231377
7.25455e-05
4.24332e-05
8.14326e-05
4.3753e-05
0.000167497
0.000232081
7.93863e-05
0.000226087
0.000180217
0.000231377
7.45218e-05
6.96571e-05
4.52293e-05
4.41515e-05
6.32215e-05
0.000162869
0.000224257
6.86931e-05
0.000229649
7.31077e-05
0.000230563
0.000151911
6.96563e-05
4.52281e-05
4.41495e-05
6.3219e-05
0.000162866
0.00022425
0.000229648
6.86875e-05
0.000230562
7.31061e-05
0.000151906
7.25566e-05
4.2436e-05
8.14379e-05
4.37564e-05
0.000167499
0.000232082
7.93943e-05
0.000226093
0.000180223
0.000231378
7.45421e-05
7.25597e-05
4.24355e-05
8.1432e-05
4.37548e-05
0.000162877
0.000224263
6.87021e-05
0.00022965
7.31218e-05
0.000230564
0.000151912
6.96529e-05
4.52317e-05
4.41529e-05
6.32263e-05
0.000162874
0.000224257
0.000229649
6.8704e-05
0.000230563
7.31119e-05
0.000151909
6.96508e-05
4.52301e-05
4.41518e-05
6.32245e-05
3.91277e-05
3.91401e-05
0.000219592
3.65767e-05
3.65883e-05
2.47781e-05
2.54608e-05
2.595e-05
2.5619e-05
0.000216772
3.38598e-05
3.38683e-05
3.56896e-05
3.57073e-05
2.59516e-05
2.56208e-05
0.000167501
0.000232082
7.93843e-05
0.000226091
0.000180224
0.000231377
7.45338e-05
7.25458e-05
4.24351e-05
8.14332e-05
4.3755e-05
7.25518e-05
4.24339e-05
8.14347e-05
4.37538e-05
0.000162868
0.000224261
0.000229649
6.87038e-05
0.000230564
7.31136e-05
0.000151907
0.000162871
0.000224257
0.000229649
6.86963e-05
0.000230563
7.31038e-05
0.00015191
6.96571e-05
4.52302e-05
4.41518e-05
6.322e-05
6.96577e-05
4.5229e-05
4.41505e-05
6.32209e-05
2.4778e-05
2.54606e-05
2.47772e-05
2.54599e-05
0.000216772
3.38682e-05
3.38579e-05
3.57066e-05
3.56975e-05
2.59514e-05
2.56206e-05
2.59506e-05
2.56199e-05
2.60159e-05
2.61172e-05
2.60141e-05
2.61155e-05
3.32124e-05
3.32121e-05
0.000204619
3.20154e-05
3.19968e-05
2.60819e-05
2.6119e-05
2.608e-05
2.61172e-05
0.00020136
3.08785e-05
3.08641e-05
3.15661e-05
3.1566e-05
5.62922e-05
4.55501e-05
6.11205e-05
4.64072e-05
0.000138641
6.74024e-05
0.000228646
0.000218238
0.000148028
6.35496e-05
0.000227547
0.000138644
6.73918e-05
0.000228645
0.000218232
0.00014803
6.35462e-05
0.000227546
5.47227e-05
4.73165e-05
4.66563e-05
5.10617e-05
5.4724e-05
4.73166e-05
4.66555e-05
5.10642e-05
0.000135379
0.00021607
5.91397e-05
0.00022505
6.24257e-05
0.000226344
0.000127294
0.000135381
0.000216065
5.91362e-05
0.000225049
6.24172e-05
0.000226343
0.000127297
3.32132e-05
3.32095e-05
0.000204625
3.20007e-05
3.20147e-05
2.60161e-05
2.61175e-05
2.6081e-05
2.61184e-05
0.000201361
3.08669e-05
3.08773e-05
3.15672e-05
3.15634e-05
2.6082e-05
2.61192e-05
0.000138641
6.73929e-05
0.000228646
0.00021824
0.00014802
6.35402e-05
0.000227545
5.62877e-05
4.5546e-05
6.11168e-05
4.64032e-05
0.000138638
0.000228644
6.73879e-05
0.000218229
0.000148019
0.000227544
6.35369e-05
5.47128e-05
4.73136e-05
4.66532e-05
5.10662e-05
0.000135371
0.000216073
5.91326e-05
0.000225048
6.24154e-05
0.000226343
0.000127293
5.47125e-05
4.73122e-05
4.66513e-05
5.10646e-05
0.000135369
0.000216061
0.000225047
5.91273e-05
0.000226341
6.24122e-05
0.000127291
5.62898e-05
4.55496e-05
6.11179e-05
4.64071e-05
0.00013864
0.000228645
6.73967e-05
0.000218236
0.000148027
0.000227546
6.35505e-05
5.62884e-05
4.55482e-05
6.11163e-05
4.64052e-05
0.00013538
0.00021608
5.914e-05
0.000225051
6.24258e-05
0.000226345
0.000127295
5.47216e-05
4.73164e-05
4.66552e-05
5.10621e-05
0.000135378
0.000216068
0.000225049
5.91398e-05
0.000226343
6.24214e-05
0.000127293
5.47204e-05
4.73144e-05
4.66535e-05
5.10609e-05
3.32007e-05
3.32183e-05
0.000204616
3.20048e-05
3.20074e-05
2.6015e-05
2.61162e-05
2.60789e-05
2.61162e-05
0.000201356
3.08686e-05
3.08729e-05
3.15555e-05
3.15733e-05
2.60806e-05
2.6118e-05
0.000138642
0.000228645
6.7389e-05
0.000218239
0.000148022
0.000227546
6.35438e-05
5.62888e-05
4.55481e-05
6.11167e-05
4.64049e-05
5.62897e-05
4.55471e-05
6.11175e-05
4.64042e-05
0.00013537
0.000216077
0.000225048
5.91395e-05
0.000226344
6.24214e-05
0.000127293
0.000135372
0.000216072
0.000225048
5.91338e-05
0.000226342
6.24144e-05
0.000127295
5.4712e-05
4.73141e-05
4.66532e-05
5.10655e-05
5.47128e-05
4.73135e-05
4.66525e-05
5.10664e-05
2.60148e-05
2.6116e-05
2.6014e-05
2.61152e-05
0.000201356
3.08722e-05
3.0864e-05
3.15722e-05
3.15638e-05
2.60805e-05
2.61178e-05
2.60796e-05
2.6117e-05
2.60512e-05
2.59366e-05
2.6049e-05
2.59345e-05
3.06189e-05
3.06109e-05
0.000189773
3.03071e-05
3.03005e-05
2.57373e-05
2.58877e-05
2.57349e-05
2.58852e-05
0.000186585
3.01756e-05
3.01662e-05
3.0205e-05
3.01969e-05
4.69478e-05
4.75049e-05
4.9897e-05
4.79976e-05
0.000117538
5.82135e-05
0.000223702
0.000209437
0.000124597
5.54789e-05
0.000222321
0.00011754
5.82114e-05
0.000223701
0.000209432
0.000124599
5.547e-05
0.00022232
4.61686e-05
4.84903e-05
4.81366e-05
4.38357e-05
4.61704e-05
4.84902e-05
4.8136e-05
4.38366e-05
0.000115344
0.000207213
5.25195e-05
0.000219352
5.47217e-05
0.000220886
0.000109301
0.000115346
0.000207208
5.25134e-05
0.000219351
5.4714e-05
0.000220884
0.000109303
3.06125e-05
3.06176e-05
0.000189779
3.0302e-05
3.03056e-05
2.60512e-05
2.59366e-05
2.5736e-05
2.58866e-05
0.000186589
3.01677e-05
3.01748e-05
3.01985e-05
3.02016e-05
2.5737e-05
2.58874e-05
0.000117538
5.82082e-05
0.000223701
0.000209443
0.000124588
5.54679e-05
0.00022232
4.69594e-05
4.75004e-05
4.98795e-05
4.7993e-05
0.000117535
0.000223698
5.82012e-05
0.000209426
0.000124587
0.000222318
5.5468e-05
4.61701e-05
4.84873e-05
4.81332e-05
4.38336e-05
0.00011534
0.00020722
5.25107e-05
0.00021935
5.47118e-05
0.000220885
0.000109296
4.61693e-05
4.84854e-05
4.81311e-05
4.38329e-05
0.000115338
0.000207202
0.000219348
5.25071e-05
0.000220882
5.47081e-05
0.000109294
4.69459e-05
4.75045e-05
4.98949e-05
4.79974e-05
0.000117536
0.000223701
5.8215e-05
0.000209434
0.000124596
0.000222321
5.54731e-05
4.69449e-05
4.75026e-05
4.98938e-05
4.79953e-05
0.000115345
0.000207227
5.25178e-05
0.000219354
5.47195e-05
0.000220887
0.000109301
4.61686e-05
4.849e-05
4.81356e-05
4.38348e-05
0.000115343
0.000207211
0.000219351
5.25161e-05
0.000220885
5.4717e-05
0.000109299
4.61677e-05
4.84876e-05
4.81335e-05
4.3834e-05
3.06089e-05
3.06187e-05
0.000189769
3.02981e-05
3.03082e-05
2.605e-05
2.59352e-05
2.57338e-05
2.58842e-05
0.000186581
3.01672e-05
3.01737e-05
3.01941e-05
3.02043e-05
2.57356e-05
2.58863e-05
0.00011754
0.0002237
5.82087e-05
0.000209442
0.000124589
0.00022232
5.54675e-05
4.69605e-05
4.75023e-05
4.98789e-05
4.7995e-05
4.69613e-05
4.75018e-05
4.98797e-05
4.79945e-05
0.00011534
0.000207222
0.00021935
5.25159e-05
0.000220885
5.47171e-05
0.000109296
0.000115341
0.000207219
0.000219351
5.2511e-05
0.000220884
5.47113e-05
0.000109298
4.61696e-05
4.84874e-05
4.81333e-05
4.38331e-05
4.61703e-05
4.8487e-05
4.81328e-05
4.38338e-05
2.60498e-05
2.5935e-05
2.60489e-05
2.5934e-05
0.000186582
3.0173e-05
3.01657e-05
3.02036e-05
3.01961e-05
2.57354e-05
2.58861e-05
2.57344e-05
2.58851e-05
2.56819e-05
2.55149e-05
2.56793e-05
2.55125e-05
3.01947e-05
3.01889e-05
0.000176282
3.03747e-05
3.03651e-05
2.53033e-05
2.54583e-05
2.53008e-05
2.54556e-05
0.000173268
3.0895e-05
3.08869e-05
3.04602e-05
3.04533e-05
4.15362e-05
4.85871e-05
4.31663e-05
4.88352e-05
0.000102205
5.18965e-05
0.00021773
0.000200264
0.000107278
5.00682e-05
0.000216087
0.000102207
5.18901e-05
0.000217728
0.000200259
0.00010728
5.00629e-05
0.000216085
4.1028e-05
4.90593e-05
4.88942e-05
3.95485e-05
4.10285e-05
4.90591e-05
4.88939e-05
3.95495e-05
0.00010046
0.000198114
4.81659e-05
0.000213003
4.95786e-05
0.000214504
9.59351e-05
0.000100461
0.000198109
4.81603e-05
0.000213001
4.95734e-05
0.000214503
9.59366e-05
3.01877e-05
3.01999e-05
0.000176289
3.03683e-05
3.03695e-05
2.56815e-05
2.55146e-05
2.53019e-05
2.54569e-05
0.000173272
3.08882e-05
3.08846e-05
3.04526e-05
3.04672e-05
2.5303e-05
2.54578e-05
0.000102204
5.18866e-05
0.000217729
0.000200274
0.00010727
5.00602e-05
0.000216085
4.15442e-05
4.85821e-05
4.31585e-05
4.88301e-05
0.000102202
0.000217725
5.18838e-05
0.000200253
0.000107269
0.000216082
5.00572e-05
4.10179e-05
4.90562e-05
4.88908e-05
3.95517e-05
0.000100454
0.000198125
4.81585e-05
0.000213001
4.95696e-05
0.000214504
9.59305e-05
4.10178e-05
4.90538e-05
4.88887e-05
3.95509e-05
0.000100452
0.000198103
0.000212998
4.81569e-05
0.000214499
4.9566e-05
9.59292e-05
4.15346e-05
4.85868e-05
4.31646e-05
4.8835e-05
0.000102203
0.000217729
5.18928e-05
0.000200261
0.000107277
0.000216086
5.00652e-05
4.1534e-05
4.85845e-05
4.31639e-05
4.88324e-05
0.00010046
0.000198133
4.81656e-05
0.000213005
4.95756e-05
0.000214506
9.5935e-05
4.10269e-05
4.90589e-05
4.88936e-05
3.95481e-05
0.000100459
0.000198112
0.000213002
4.81623e-05
0.000214503
4.95757e-05
9.59333e-05
4.10263e-05
4.90562e-05
4.88911e-05
3.95475e-05
3.01898e-05
3.01939e-05
0.000176278
3.03643e-05
3.03745e-05
2.56804e-05
2.55133e-05
2.52997e-05
2.54545e-05
0.000173263
3.08814e-05
3.08955e-05
3.04565e-05
3.0459e-05
2.53017e-05
2.54567e-05
0.000102206
0.000217728
5.18875e-05
0.000200273
0.000107271
0.000216085
5.00605e-05
4.15448e-05
4.85842e-05
4.31585e-05
4.88322e-05
4.15453e-05
4.85839e-05
4.31591e-05
4.88319e-05
0.000100454
0.000198126
0.000213001
4.81622e-05
0.000214504
4.95758e-05
9.59314e-05
0.000100454
0.000198124
0.000213002
4.81579e-05
0.000214503
4.95708e-05
9.59322e-05
4.10175e-05
4.9056e-05
4.88908e-05
3.95514e-05
4.10179e-05
4.90558e-05
4.88906e-05
3.95518e-05
2.56802e-05
2.55131e-05
2.56791e-05
2.55121e-05
0.000173264
3.08944e-05
3.08876e-05
3.04585e-05
3.0452e-05
2.53015e-05
2.54565e-05
2.53004e-05
2.54554e-05
2.52486e-05
2.50864e-05
2.52457e-05
2.50837e-05
3.10335e-05
3.10287e-05
0.000164725
3.14751e-05
3.14676e-05
2.4919e-05
2.50347e-05
2.49162e-05
2.50318e-05
0.000162019
3.2429e-05
3.24214e-05
3.16362e-05
3.16309e-05
3.82404e-05
4.9103e-05
3.92683e-05
4.91957e-05
9.0749e-05
4.77811e-05
0.000211497
0.000191846
9.44172e-05
4.66618e-05
0.000209847
9.07502e-05
4.77753e-05
0.000211495
0.000191841
9.44183e-05
4.66572e-05
0.000209845
3.79238e-05
4.92458e-05
4.92156e-05
3.73863e-05
3.79245e-05
4.92459e-05
4.92156e-05
3.73867e-05
8.94634e-05
0.000189461
4.57064e-05
0.000205965
4.63505e-05
0.000207971
8.60792e-05
8.94642e-05
0.000189457
4.57014e-05
0.000205963
4.63461e-05
0.00020797
8.60805e-05
3.1028e-05
3.10361e-05
0.000164732
3.14699e-05
3.14755e-05
2.52479e-05
2.50859e-05
2.49173e-05
2.5033e-05
0.000162023
3.24238e-05
3.24281e-05
3.16306e-05
3.1637e-05
2.49185e-05
2.50341e-05
9.0747e-05
4.77724e-05
0.000211496
0.000191859
9.4412e-05
4.66558e-05
0.000209844
3.82391e-05
4.90976e-05
3.92664e-05
4.91901e-05
9.07457e-05
0.000211491
4.77707e-05
0.000191834
9.44107e-05
0.000209841
4.66541e-05
3.79233e-05
4.92427e-05
4.92125e-05
3.73824e-05
8.94602e-05
0.000189476
4.57017e-05
0.000205962
4.63452e-05
0.00020797
8.60712e-05
3.7923e-05
4.92401e-05
4.92099e-05
3.73819e-05
8.9459e-05
0.00018945
0.000205958
4.57058e-05
0.000207965
4.63457e-05
8.60702e-05
3.8239e-05
4.91027e-05
3.92669e-05
4.91954e-05
9.0748e-05
0.000211496
4.77774e-05
0.000191843
9.44159e-05
0.000209845
4.6659e-05
3.82387e-05
4.91e-05
3.92664e-05
4.91926e-05
8.94635e-05
0.000189484
4.57128e-05
0.000205967
4.63533e-05
0.000207974
8.60786e-05
3.79232e-05
4.92456e-05
4.92153e-05
3.73854e-05
8.94629e-05
0.000189459
0.000205963
4.57027e-05
0.00020797
4.63478e-05
8.60767e-05
3.79228e-05
4.92426e-05
4.92125e-05
3.7385e-05
3.10286e-05
3.10342e-05
0.00016472
3.14697e-05
3.14756e-05
2.52468e-05
2.50847e-05
2.49152e-05
2.50308e-05
0.000162014
3.24226e-05
3.24294e-05
3.16295e-05
3.16363e-05
2.49172e-05
2.50329e-05
9.07483e-05
0.000211496
4.77727e-05
0.000191858
9.44128e-05
0.000209845
4.6655e-05
3.82393e-05
4.90998e-05
3.92667e-05
4.91924e-05
3.82396e-05
4.90996e-05
3.92671e-05
4.91923e-05
8.9461e-05
0.000189476
0.000205962
4.57022e-05
0.000207971
4.63472e-05
8.60719e-05
8.94609e-05
0.000189474
0.000205963
4.56991e-05
0.00020797
4.6344e-05
8.60728e-05
3.79232e-05
4.92424e-05
4.92122e-05
3.7382e-05
3.79234e-05
4.92424e-05
4.92122e-05
3.73823e-05
2.52466e-05
2.50845e-05
2.52455e-05
2.50834e-05
0.000162015
3.24284e-05
3.24229e-05
3.16358e-05
3.163e-05
2.4917e-05
2.50328e-05
2.49159e-05
2.50316e-05
2.48941e-05
2.48661e-05
2.48913e-05
2.48634e-05
3.2727e-05
3.2721e-05
0.000154715
3.32177e-05
3.32129e-05
2.48782e-05
2.48655e-05
2.48758e-05
2.48628e-05
0.000153021
3.45731e-05
3.45665e-05
3.35514e-05
3.35453e-05
3.69734e-05
4.92448e-05
3.70287e-05
4.92418e-05
8.29426e-05
4.53796e-05
0.000204091
0.000183285
8.47275e-05
4.51535e-05
0.000202629
8.2943e-05
4.53745e-05
0.000204089
0.000183278
8.47284e-05
4.51495e-05
0.000202627
3.72143e-05
4.93335e-05
4.92495e-05
3.83405e-05
3.72145e-05
4.93336e-05
4.92496e-05
3.83408e-05
8.26401e-05
0.000182337
4.55948e-05
0.000201301
4.52298e-05
0.000201711
8.36584e-05
8.26402e-05
0.000182329
4.55914e-05
0.000201299
4.52258e-05
0.000201708
8.36586e-05
3.27217e-05
3.27273e-05
0.000154721
3.32126e-05
3.32184e-05
2.48935e-05
2.48655e-05
2.48766e-05
2.48639e-05
0.000153023
3.45684e-05
3.45708e-05
3.35472e-05
3.35443e-05
2.48772e-05
2.48649e-05
8.29388e-05
4.53782e-05
0.00020409
0.0001833
8.47188e-05
4.51467e-05
0.000202626
3.69698e-05
4.92391e-05
3.7018e-05
4.9236e-05
8.29383e-05
0.000204084
4.53841e-05
0.000183271
8.47178e-05
0.000202621
4.51456e-05
3.72166e-05
4.93303e-05
4.92463e-05
3.83359e-05
8.26376e-05
0.000182351
4.55876e-05
0.000201298
4.52226e-05
0.000201709
8.36523e-05
3.72166e-05
4.93277e-05
4.92439e-05
3.8336e-05
8.26366e-05
0.000182321
0.000201293
4.5584e-05
0.000201703
4.52197e-05
8.36518e-05
3.69719e-05
4.92446e-05
3.70276e-05
4.92415e-05
8.29407e-05
0.00020409
4.53758e-05
0.000183282
8.47256e-05
0.000202627
4.51507e-05
3.69718e-05
4.92416e-05
3.7027e-05
4.92385e-05
8.264e-05
0.000182359
4.55904e-05
0.000201302
4.52266e-05
0.000201713
8.36562e-05
3.72129e-05
4.93331e-05
4.92494e-05
3.83395e-05
8.26404e-05
0.000182333
0.000201299
4.55923e-05
0.000201709
4.52269e-05
8.36554e-05
3.72128e-05
4.93302e-05
4.92463e-05
3.83394e-05
3.2721e-05
3.27274e-05
0.000154709
3.32127e-05
3.3218e-05
2.48924e-05
2.48644e-05
2.4874e-05
2.48617e-05
0.000153016
3.45653e-05
3.45732e-05
3.35389e-05