/*--------------------------------*- C++ -*----------------------------------*\
| =========                 |                                                 |
| \\      /  F ield         | OpenFOAM: The Open Source CFD Toolbox           |
|  \\    /   O peration     | Version:  2206                                  |
|   \\  /    A nd           | Website:  www.openfoam.com                      |
|    \\/     M anipulation  |                                                 |
\*---------------------------------------------------------------------------*/
FoamFile
{
    version     2.0;
    format      ascii;
    arch        "LSB;label=32;scalar=64";
    class       volVectorField;
    location    "28.5";
    object      U;
}
// * * * * * * * * * * * * * * * * * * * * * * * * * * * * * * * * * * * * * //

dimensions      [0 1 -1 0 0 0 0];

internalField   nonuniform List<vector> 
28335
(
(-7.52098e-07 -7.48263e-07 0.103188)
(-4.97662e-07 7.65015e-07 0.103118)
(7.62404e-07 -4.98111e-07 0.103118)
(-4.46183e-05 -4.46332e-05 0.10302)
(-7.57175e-07 -7.53592e-07 0.103188)
(-4.91632e-07 7.62139e-07 0.103118)
(7.58906e-07 -4.92345e-07 0.103118)
(-4.46111e-05 -4.46273e-05 0.10302)
(-7.64746e-07 -7.60614e-07 0.103188)
(-4.8657e-07 7.64664e-07 0.103118)
(7.60823e-07 -4.86561e-07 0.103118)
(-4.46011e-05 -4.46149e-05 0.10302)
(-7.68412e-07 -7.65447e-07 0.103188)
(-4.90203e-07 7.69145e-07 0.103118)
(7.66656e-07 -4.90169e-07 0.103118)
(-4.45801e-05 -4.45932e-05 0.10302)
(-7.7575e-07 -7.72869e-07 0.103187)
(-4.44272e-07 7.35882e-07 0.103118)
(7.32302e-07 -4.4325e-07 0.103118)
(-4.45467e-05 -4.45604e-05 0.10302)
(-6.58792e-07 -6.58031e-07 0.103188)
(-6.25665e-07 8.26453e-07 0.103118)
(8.27911e-07 -6.26661e-07 0.103118)
(-4.47962e-05 -4.48133e-05 0.10302)
(-7.59505e-07 -7.61189e-07 0.103188)
(-4.86383e-07 7.33721e-07 0.103118)
(7.40773e-07 -4.8875e-07 0.103118)
(-4.46131e-05 -4.46305e-05 0.10302)
(-7.54425e-07 -7.52968e-07 0.103188)
(-4.96148e-07 7.5994e-07 0.103118)
(7.58324e-07 -4.96233e-07 0.103118)
(-4.46308e-05 -4.46452e-05 0.10302)
(-7.49721e-07 -7.49105e-07 0.103188)
(-5.031e-07 7.63795e-07 0.103118)
(7.62849e-07 -4.99087e-07 0.103118)
(-4.46384e-05 -4.46487e-05 0.10302)
(-7.48876e-07 -7.48698e-07 0.103188)
(-5.03164e-07 7.63373e-07 0.103118)
(7.63778e-07 -4.98785e-07 0.103118)
(-4.46387e-05 -4.46479e-05 0.10302)
(-7.48095e-07 -7.48161e-07 0.103188)
(-5.03965e-07 7.63729e-07 0.103118)
(7.64507e-07 -4.99353e-07 0.103118)
(-4.46392e-05 -4.46484e-05 0.10302)
(-7.47673e-07 -7.47913e-07 0.103188)
(-5.04137e-07 7.63712e-07 0.103118)
(7.64684e-07 -4.99374e-07 0.103118)
(-4.4639e-05 -4.4648e-05 0.10302)
(-7.4752e-07 -7.4788e-07 0.103188)
(-5.04738e-07 7.64084e-07 0.103118)
(7.65168e-07 -4.99793e-07 0.103118)
(-4.46401e-05 -4.4649e-05 0.10302)
(-7.47506e-07 -7.47809e-07 0.103188)
(-5.04249e-07 7.63907e-07 0.103118)
(7.64932e-07 -4.9922e-07 0.103118)
(-4.46386e-05 -4.46476e-05 0.10302)
(-7.47776e-07 -7.47962e-07 0.103188)
(-5.03584e-07 7.63452e-07 0.103118)
(7.64654e-07 -4.98882e-07 0.103118)
(-4.46378e-05 -4.46469e-05 0.10302)
(-7.47984e-07 -7.48098e-07 0.103188)
(-5.03556e-07 7.63124e-07 0.103118)
(7.64443e-07 -4.98626e-07 0.103118)
(-4.46358e-05 -4.46446e-05 0.10302)
(-7.48203e-07 -7.48193e-07 0.103188)
(-5.02656e-07 7.62506e-07 0.103118)
(7.64091e-07 -4.97781e-07 0.103118)
(-4.46285e-05 -4.46374e-05 0.10302)
(-4.67119e-05 -4.66857e-05 0.103025)
(7.89142e-07 5.20218e-07 0.103118)
(-7.93065e-07 5.29475e-07 0.103118)
(4.67174e-05 -4.66888e-05 0.103025)
(5.04702e-07 7.68518e-07 0.103118)
(5.27044e-07 -7.89266e-07 0.103118)
(-5.01572e-07 7.67327e-07 0.103118)
(-5.2552e-07 -7.8598e-07 0.103118)
(-4.66849e-05 4.672e-05 0.103025)
(7.6446e-07 -5.01723e-07 0.103118)
(-7.63562e-07 -5.03132e-07 0.103118)
(4.66872e-05 4.67072e-05 0.103025)
(4.46234e-05 4.46078e-05 0.10302)
(-4.67174e-05 -4.66914e-05 0.103025)
(7.86868e-07 5.21153e-07 0.103118)
(-7.91378e-07 5.25068e-07 0.103118)
(7.84666e-07 5.13664e-07 0.103118)
(-7.89951e-07 5.23126e-07 0.103118)
(-4.46178e-05 4.45919e-05 0.10302)
(4.67213e-05 -4.66938e-05 0.103025)
(5.03357e-07 7.67365e-07 0.103118)
(5.2263e-07 -7.88056e-07 0.103118)
(4.97895e-07 7.63756e-07 0.103118)
(5.22757e-07 -7.86517e-07 0.103118)
(-5.2044e-07 -7.8377e-07 0.103118)
(-4.95425e-07 7.64249e-07 0.103118)
(-5.1908e-07 -7.82617e-07 0.103118)
(4.46045e-05 -4.46377e-05 0.10302)
(-4.66876e-05 4.67254e-05 0.103025)
(-7.61321e-07 -4.96319e-07 0.103118)
(7.60919e-07 -4.95027e-07 0.103118)
(-7.59927e-07 -4.9764e-07 0.103118)
(4.66921e-05 4.67112e-05 0.103025)
(4.4616e-05 4.46003e-05 0.10302)
(-4.67305e-05 -4.6703e-05 0.103025)
(7.83306e-07 5.1529e-07 0.103118)
(-7.88646e-07 5.1953e-07 0.103118)
(7.79911e-07 5.047e-07 0.103118)
(-7.84807e-07 5.13251e-07 0.103118)
(-4.46113e-05 4.45853e-05 0.10302)
(4.67351e-05 -4.67066e-05 0.103025)
(4.97014e-07 7.63614e-07 0.103118)
(5.17961e-07 -7.85396e-07 0.103118)
(4.86642e-07 7.60734e-07 0.103118)
(5.08944e-07 -7.81853e-07 0.103118)
(-5.14398e-07 -7.81422e-07 0.103118)
(-4.85036e-07 7.59886e-07 0.103118)
(-5.08933e-07 -7.77166e-07 0.103118)
(4.45994e-05 -4.463e-05 0.10302)
(-4.67039e-05 4.67368e-05 0.103025)
(-7.58446e-07 -4.9274e-07 0.103118)
(7.55379e-07 -4.85092e-07 0.103118)
(-7.55312e-07 -4.86199e-07 0.103118)
(4.67044e-05 4.67251e-05 0.103025)
(4.46051e-05 4.45905e-05 0.10302)
(-4.67606e-05 -4.6736e-05 0.103025)
(7.84613e-07 5.09186e-07 0.103118)
(-7.90394e-07 5.13199e-07 0.103118)
(7.64366e-07 4.79929e-07 0.103118)
(-7.68949e-07 4.89415e-07 0.103118)
(-4.46009e-05 4.45745e-05 0.10302)
(4.67667e-05 -4.67385e-05 0.103025)
(4.90016e-07 7.65888e-07 0.103118)
(5.10203e-07 -7.87545e-07 0.103118)
(4.64705e-07 7.43237e-07 0.103118)
(4.88137e-07 -7.65073e-07 0.103118)
(-5.08696e-07 -7.8205e-07 0.103118)
(-4.62285e-07 7.43252e-07 0.103118)
(-4.8572e-07 -7.60741e-07 0.103118)
(4.45865e-05 -4.46208e-05 0.10302)
(-4.67334e-05 4.67696e-05 0.103025)
(-7.60668e-07 -4.8497e-07 0.103118)
(7.4019e-07 -4.61004e-07 0.103118)
(-7.394e-07 -4.61465e-07 0.103118)
(4.6735e-05 4.67568e-05 0.103025)
(4.45851e-05 4.45682e-05 0.10302)
(-4.68074e-05 -4.67826e-05 0.103025)
(7.90595e-07 5.12398e-07 0.103118)
(-7.95478e-07 5.17141e-07 0.103118)
(7.23657e-07 4.28388e-07 0.103118)
(-7.27531e-07 4.38094e-07 0.103118)
(-4.45789e-05 4.45528e-05 0.10302)
(4.68143e-05 -4.6785e-05 0.103025)
(4.95327e-07 7.7058e-07 0.103118)
(5.14918e-07 -7.91542e-07 0.103118)
(4.12553e-07 7.02606e-07 0.103118)
(4.35982e-07 -7.23183e-07 0.103118)
(-5.13253e-07 -7.87483e-07 0.103118)
(-4.08598e-07 7.02208e-07 0.103118)
(-4.32764e-07 -7.19877e-07 0.103118)
(4.45659e-05 -4.45983e-05 0.10302)
(-4.6781e-05 4.68166e-05 0.103025)
(-7.66107e-07 -4.88514e-07 0.103118)
(6.98892e-07 -4.0735e-07 0.103118)
(-6.9846e-07 -4.09251e-07 0.103118)
(4.67822e-05 4.68035e-05 0.103025)
(4.4552e-05 4.45355e-05 0.10302)
(-4.65624e-05 -4.65398e-05 0.103025)
(7.57071e-07 4.68182e-07 0.103118)
(-7.61504e-07 4.72859e-07 0.103118)
(8.85672e-07 6.62593e-07 0.103118)
(-8.86886e-07 6.70928e-07 0.103118)
(-4.45459e-05 4.45201e-05 0.10302)
(4.65699e-05 -4.65452e-05 0.103025)
(4.5066e-07 7.37151e-07 0.103118)
(4.70176e-07 -7.56985e-07 0.103118)
(6.48482e-07 8.62268e-07 0.103118)
(6.70767e-07 -8.85604e-07 0.103118)
(-4.6716e-07 -7.53774e-07 0.103118)
(-6.46125e-07 8.59958e-07 0.103118)
(-6.67822e-07 -8.80755e-07 0.103118)
(4.45324e-05 -4.45649e-05 0.10302)
(-4.65385e-05 4.65705e-05 0.103025)
(-7.31864e-07 -4.42696e-07 0.103118)
(8.59572e-07 -6.47028e-07 0.103118)
(-8.56533e-07 -6.47418e-07 0.103118)
(4.6541e-05 4.65602e-05 0.103025)
(4.48064e-05 4.47874e-05 0.10302)
(-4.67494e-05 -4.67273e-05 0.103025)
(8.53648e-07 6.46347e-07 0.103118)
(-8.5461e-07 6.47693e-07 0.103118)
(7.69908e-07 5.14126e-07 0.103118)
(-7.62061e-07 5.11492e-07 0.103118)
(-4.47983e-05 4.47673e-05 0.10302)
(4.67593e-05 -4.67463e-05 0.103025)
(6.29697e-07 8.30866e-07 0.103118)
(6.50046e-07 -8.55603e-07 0.103118)
(5.01662e-07 7.44187e-07 0.103118)
(5.23222e-07 -7.69282e-07 0.103118)
(-6.44582e-07 -8.48484e-07 0.103118)
(-4.97433e-07 7.34706e-07 0.103118)
(-5.20846e-07 -7.67595e-07 0.103118)
(4.47845e-05 -4.48216e-05 0.10302)
(-4.6724e-05 4.6758e-05 0.103025)
(-8.23445e-07 -6.25708e-07 0.103118)
(7.42853e-07 -4.99077e-07 0.103118)
(-7.42126e-07 -5.01825e-07 0.103118)
(4.67262e-05 4.67427e-05 0.103025)
(4.46198e-05 4.46e-05 0.10302)
(-4.67384e-05 -4.67139e-05 0.103025)
(7.68398e-07 5.071e-07 0.103118)
(-7.6031e-07 5.02413e-07 0.103118)
(7.80728e-07 5.09129e-07 0.103118)
(-7.83334e-07 5.19449e-07 0.103118)
(-4.46088e-05 4.45668e-05 0.10302)
(4.67463e-05 -4.67178e-05 0.103025)
(4.93392e-07 7.43563e-07 0.103118)
(5.10891e-07 -7.68097e-07 0.103118)
(4.95444e-07 7.58096e-07 0.103118)
(5.16351e-07 -7.80924e-07 0.103118)
(-5.08601e-07 -7.65792e-07 0.103118)
(-4.92295e-07 7.57084e-07 0.103118)
(-5.15634e-07 -7.77852e-07 0.103118)
(4.45984e-05 -4.46336e-05 0.10302)
(-4.6713e-05 4.67469e-05 0.103025)
(-7.4053e-07 -4.89e-07 0.103118)
(7.54568e-07 -4.91464e-07 0.103118)
(-7.54324e-07 -4.94866e-07 0.103118)
(4.67135e-05 4.67332e-05 0.103025)
(4.46361e-05 4.46194e-05 0.10302)
(-4.67332e-05 -4.67067e-05 0.103025)
(7.83493e-07 5.18021e-07 0.103118)
(-7.86287e-07 5.22247e-07 0.103118)
(7.86837e-07 5.16815e-07 0.103118)
(-7.90653e-07 5.29918e-07 0.103118)
(-4.46286e-05 4.46022e-05 0.10302)
(4.67373e-05 -4.67104e-05 0.103025)
(5.01532e-07 7.6296e-07 0.103118)
(5.19949e-07 -7.85445e-07 0.103118)
(5.01638e-07 7.6589e-07 0.103118)
(5.22997e-07 -7.88278e-07 0.103118)
(-5.19859e-07 -7.80422e-07 0.103118)
(-5.01648e-07 7.63746e-07 0.103118)
(-5.30271e-07 -7.82403e-07 0.103118)
(4.46156e-05 -4.46501e-05 0.10302)
(-4.67067e-05 4.674e-05 0.103025)
(-7.57046e-07 -4.99315e-07 0.103118)
(7.62045e-07 -4.97357e-07 0.103118)
(-7.60181e-07 -5.10726e-07 0.103118)
(4.67043e-05 4.67285e-05 0.103025)
(4.46401e-05 4.46251e-05 0.10302)
(-4.67328e-05 -4.67055e-05 0.103025)
(7.87148e-07 5.22233e-07 0.103118)
(-7.91225e-07 5.30719e-07 0.103118)
(7.87499e-07 5.17032e-07 0.103118)
(-7.90723e-07 5.31063e-07 0.103118)
(-4.46359e-05 4.46082e-05 0.10302)
(4.67366e-05 -4.67105e-05 0.103025)
(5.04956e-07 7.67381e-07 0.103118)
(5.23245e-07 -7.89744e-07 0.103118)
(5.01644e-07 7.67101e-07 0.103118)
(5.22989e-07 -7.89125e-07 0.103118)
(-5.31341e-07 -7.82166e-07 0.103118)
(-5.02444e-07 7.63487e-07 0.103118)
(-5.30756e-07 -7.81295e-07 0.103118)
(4.46205e-05 -4.46557e-05 0.10302)
(-4.67063e-05 4.67393e-05 0.103025)
(-7.60072e-07 -5.12346e-07 0.103118)
(7.63297e-07 -4.96866e-07 0.103118)
(-7.60664e-07 -5.12042e-07 0.103118)
(4.67035e-05 4.6729e-05 0.103025)
(4.46401e-05 4.46259e-05 0.10302)
(-4.67323e-05 -4.6705e-05 0.103025)
(7.87681e-07 5.22282e-07 0.103118)
(-7.91267e-07 5.31492e-07 0.103118)
(7.88087e-07 5.17447e-07 0.103118)
(-7.91365e-07 5.32277e-07 0.103118)
(-4.46361e-05 4.46077e-05 0.10302)
(4.67359e-05 -4.67103e-05 0.103025)
(5.04966e-07 7.68389e-07 0.103118)
(5.23406e-07 -7.90343e-07 0.103118)
(5.02313e-07 7.67764e-07 0.103118)
(5.23735e-07 -7.9002e-07 0.103118)
(-5.31161e-07 -7.81202e-07 0.103118)
(-5.03164e-07 7.63746e-07 0.103118)
(-5.31266e-07 -7.81311e-07 0.103118)
(4.46206e-05 -4.4656e-05 0.10302)
(-4.67057e-05 4.67385e-05 0.103025)
(-7.60458e-07 -5.1278e-07 0.103118)
(7.64142e-07 -4.97489e-07 0.103118)
(-7.61219e-07 -5.13153e-07 0.103118)
(4.67034e-05 4.67289e-05 0.103025)
(4.46408e-05 4.46266e-05 0.10302)
(-4.67323e-05 -4.67049e-05 0.103025)
(7.88208e-07 5.22778e-07 0.103118)
(-7.91959e-07 5.32636e-07 0.103118)
(7.88162e-07 5.17557e-07 0.103118)
(-7.91421e-07 5.32608e-07 0.103118)
(-4.46371e-05 4.46083e-05 0.10302)
(4.6736e-05 -4.67106e-05 0.103025)
(5.05664e-07 7.68954e-07 0.103118)
(5.24078e-07 -7.91204e-07 0.103118)
(5.02484e-07 7.67959e-07 0.103118)
(5.23777e-07 -7.89977e-07 0.103118)
(-5.3156e-07 -7.81292e-07 0.103118)
(-5.03226e-07 7.63618e-07 0.103118)
(-5.31239e-07 -7.81038e-07 0.103118)
(4.46215e-05 -4.46571e-05 0.10302)
(-4.67058e-05 4.67385e-05 0.103025)
(-7.61032e-07 -5.13735e-07 0.103118)
(7.64146e-07 -4.9738e-07 0.103118)
(-7.61485e-07 -5.13287e-07 0.103118)
(4.67034e-05 4.6729e-05 0.103025)
(4.4641e-05 4.46269e-05 0.10302)
(-4.67311e-05 -4.67036e-05 0.103025)
(7.88375e-07 5.23011e-07 0.103118)
(-7.92047e-07 5.32951e-07 0.103118)
(7.88446e-07 5.18089e-07 0.103118)
(-7.91866e-07 5.33336e-07 0.103118)
(-4.46372e-05 4.46083e-05 0.10302)
(4.67346e-05 -4.67093e-05 0.103025)
(5.05885e-07 7.69314e-07 0.103118)
(5.24234e-07 -7.91193e-07 0.103118)
(5.03139e-07 7.68453e-07 0.103118)
(5.24454e-07 -7.90367e-07 0.103118)
(-5.31734e-07 -7.81122e-07 0.103118)
(-5.03949e-07 7.64074e-07 0.103118)
(-5.31822e-07 -7.81157e-07 0.103118)
(4.46212e-05 -4.46568e-05 0.10302)
(-4.6705e-05 4.67379e-05 0.103025)
(-7.61503e-07 -5.14032e-07 0.103118)
(7.6476e-07 -4.97768e-07 0.103118)
(-7.62179e-07 -5.13922e-07 0.103118)
(4.67028e-05 4.67286e-05 0.103025)
(4.4641e-05 4.4627e-05 0.10302)
(-4.67312e-05 -4.67037e-05 0.103025)
(7.88375e-07 5.23166e-07 0.103118)
(-7.92479e-07 5.33547e-07 0.103118)
(7.88195e-07 5.17697e-07 0.103118)
(-7.92026e-07 5.33535e-07 0.103118)
(-4.46372e-05 4.46084e-05 0.10302)
(4.6735e-05 -4.67089e-05 0.103025)
(5.0616e-07 7.69496e-07 0.103118)
(5.24883e-07 -7.91595e-07 0.103118)
(5.02917e-07 7.68335e-07 0.103118)
(5.24516e-07 -7.9047e-07 0.103118)
(-5.32367e-07 -7.81258e-07 0.103118)
(-5.03745e-07 7.64074e-07 0.103118)
(-5.31805e-07 -7.81046e-07 0.103118)
(4.46226e-05 -4.4658e-05 0.10302)
(-4.67042e-05 4.67371e-05 0.103025)
(-7.62034e-07 -5.14682e-07 0.103118)
(7.64734e-07 -4.97606e-07 0.103118)
(-7.62217e-07 -5.13909e-07 0.103118)
(4.6702e-05 4.67277e-05 0.103025)
(4.46398e-05 4.46257e-05 0.10302)
(-4.67311e-05 -4.67035e-05 0.103025)
(7.88335e-07 5.22958e-07 0.103118)
(-7.9254e-07 5.33666e-07 0.103118)
(7.88421e-07 5.17873e-07 0.103118)
(-7.91935e-07 5.33668e-07 0.103118)
(-4.46362e-05 4.46075e-05 0.10302)
(4.67352e-05 -4.67093e-05 0.103025)
(5.05944e-07 7.69463e-07 0.103118)
(5.24716e-07 -7.91512e-07 0.103118)
(5.03095e-07 7.68487e-07 0.103118)
(5.23976e-07 -7.89945e-07 0.103118)
(-5.31898e-07 -7.80904e-07 0.103118)
(-5.03287e-07 7.63848e-07 0.103118)
(-5.30941e-07 -7.80484e-07 0.103118)
(4.46213e-05 -4.46568e-05 0.10302)
(-4.67046e-05 4.67376e-05 0.103025)
(-7.61779e-07 -5.14203e-07 0.103118)
(7.64194e-07 -4.96678e-07 0.103118)
(-7.61719e-07 -5.13066e-07 0.103118)
(4.67026e-05 4.67283e-05 0.103025)
(4.464e-05 4.4626e-05 0.10302)
(-4.67306e-05 -4.67031e-05 0.103025)
(7.8802e-07 5.22508e-07 0.103118)
(-7.92055e-07 5.33209e-07 0.103118)
(7.88081e-07 5.1752e-07 0.103118)
(-7.91787e-07 5.33412e-07 0.103118)
(-4.46361e-05 4.46073e-05 0.10302)
(4.67345e-05 -4.67088e-05 0.103025)
(5.0533e-07 7.69337e-07 0.103118)
(5.2463e-07 -7.9114e-07 0.103118)
(5.02989e-07 7.6829e-07 0.103118)
(5.23814e-07 -7.89687e-07 0.103118)
(-5.31763e-07 -7.80649e-07 0.103118)
(-5.02928e-07 7.63627e-07 0.103118)
(-5.30696e-07 -7.80003e-07 0.103118)
(4.46206e-05 -4.4656e-05 0.10302)
(-4.67035e-05 4.67365e-05 0.103025)
(-7.61697e-07 -5.1404e-07 0.103118)
(7.64003e-07 -4.96415e-07 0.103118)
(-7.61559e-07 -5.12618e-07 0.103118)
(4.67016e-05 4.67274e-05 0.103025)
(4.46386e-05 4.46245e-05 0.10302)
(-4.67276e-05 -4.67001e-05 0.103025)
(7.87711e-07 5.22215e-07 0.103118)
(-7.91994e-07 5.32957e-07 0.103118)
(7.87402e-07 5.16625e-07 0.103118)
(-7.91242e-07 5.32511e-07 0.103118)
(-4.46349e-05 4.46061e-05 0.10302)
(4.67314e-05 -4.67056e-05 0.103025)
(5.04929e-07 7.69073e-07 0.103118)
(5.24535e-07 -7.91051e-07 0.103118)
(5.02184e-07 7.67431e-07 0.103118)
(5.22946e-07 -7.8933e-07 0.103118)
(-5.3158e-07 -7.80305e-07 0.103118)
(-5.02207e-07 7.62883e-07 0.103118)
(-5.29995e-07 -7.79601e-07 0.103118)
(4.46185e-05 -4.4654e-05 0.10302)
(-4.66989e-05 4.67321e-05 0.103025)
(-7.61541e-07 -5.13463e-07 0.103118)
(7.63497e-07 -4.95743e-07 0.103118)
(-7.61318e-07 -5.12012e-07 0.103118)
(4.66971e-05 4.6723e-05 0.103025)
(4.46333e-05 4.46193e-05 0.10302)
(7.86892e-07 5.212e-07 0.103118)
(-7.91271e-07 5.32059e-07 0.103118)
(-4.46295e-05 4.46007e-05 0.10302)
(5.03399e-07 7.68609e-07 0.103118)
(5.23528e-07 -7.90513e-07 0.103118)
(-5.30554e-07 -7.7962e-07 0.103118)
(4.46115e-05 -4.46467e-05 0.10302)
(-7.61346e-07 -5.12921e-07 0.103118)
(7.11234e-08 -9.65924e-06 0.10044)
(-1.15213e-06 -6.72174e-06 0.0926368)
(1.94581e-06 -2.84193e-06 0.080269)
(-9.729e-06 6.13467e-08 0.10044)
(-6.71276e-06 -1.1368e-06 0.0926365)
(-7.50057e-07 -7.45192e-07 0.103188)
(7.48591e-07 -7.46923e-07 0.103188)
(-7.43779e-07 7.48205e-07 0.103188)
(7.43753e-07 7.46448e-07 0.103188)
(1.57195e-05 9.59513e-08 0.102554)
(-5.03222e-07 7.69043e-07 0.103118)
(1.46295e-05 -4.75594e-06 0.10086)
(-6.38254e-07 -1.93867e-07 0.103166)
(-2.71911e-06 1.88042e-06 0.08027)
(1.0183e-07 1.57241e-05 0.102554)
(7.65544e-07 -5.03351e-07 0.103118)
(-1.9433e-07 -6.40188e-07 0.103166)
(-4.79684e-06 1.46919e-05 0.100859)
(4.66849e-05 4.6705e-05 0.103025)
(4.31099e-06 5.50888e-06 0.0978889)
(5.50546e-06 4.30502e-06 0.0978878)
(7.69199e-08 -9.67983e-06 0.10044)
(7.01007e-07 6.92894e-06 0.0926161)
(-8.69243e-08 9.34018e-06 0.100425)
(-1.1339e-06 -6.75336e-06 0.092637)
(-2.00872e-06 2.92348e-06 0.0802476)
(1.96171e-06 -2.88284e-06 0.080269)
(-9.74811e-06 6.74255e-08 0.10044)
(6.91754e-06 6.81839e-07 0.0926157)
(9.41452e-06 -7.01965e-08 0.100425)
(-6.74592e-06 -1.11588e-06 0.0926367)
(7.51093e-07 -7.4963e-07 0.103188)
(-7.45834e-07 7.50991e-07 0.103188)
(7.4557e-07 7.49228e-07 0.103188)
(-7.55702e-07 -7.51247e-07 0.103188)
(7.53754e-07 -7.52065e-07 0.103188)
(-7.48448e-07 7.53271e-07 0.103188)
(7.48857e-07 7.5109e-07 0.103188)
(1.57506e-05 9.80257e-08 0.102554)
(-1.53127e-05 4.33373e-06 0.100837)
(-6.33119e-07 -1.94897e-07 0.103166)
(-4.93982e-07 7.64565e-07 0.103118)
(-1.58561e-05 -1.0818e-07 0.102547)
(1.46583e-05 -4.77876e-06 0.10086)
(-6.26428e-07 -1.95843e-07 0.103166)
(2.8036e-06 -1.93977e-06 0.0802447)
(-2.76585e-06 1.89996e-06 0.0802699)
(1.04613e-07 1.57557e-05 0.102554)
(-1.94886e-07 -6.22044e-07 0.103166)
(4.3735e-06 -1.53705e-05 0.100837)
(7.61333e-07 -4.93739e-07 0.103118)
(-1.09241e-07 -1.58649e-05 0.102547)
(-1.95715e-07 -6.27729e-07 0.103166)
(-4.81706e-06 1.4718e-05 0.100859)
(-4.63085e-06 -5.67787e-06 0.0978663)
(-5.66708e-06 -4.62504e-06 0.0978655)
(4.66888e-05 4.6709e-05 0.103025)
(4.30863e-06 5.5225e-06 0.097889)
(5.51778e-06 4.30235e-06 0.0978879)
(7.39388e-08 -9.70147e-06 0.10044)
(6.89082e-07 6.89337e-06 0.0926163)
(-8.50669e-08 9.32528e-06 0.100425)
(-1.15198e-06 -6.77537e-06 0.0926373)
(-1.99023e-06 2.89404e-06 0.0802478)
(1.98358e-06 -2.90401e-06 0.0802692)
(-9.77164e-06 6.25438e-08 0.100439)
(6.88067e-06 6.71634e-07 0.092616)
(9.40004e-06 -7.22942e-08 0.100425)
(-6.76652e-06 -1.13192e-06 0.092637)
(7.55823e-07 -7.54312e-07 0.103188)
(-7.50715e-07 7.55393e-07 0.103188)
(7.50255e-07 7.52856e-07 0.103188)
(-7.61241e-07 -7.55439e-07 0.103188)
(7.58919e-07 -7.56657e-07 0.103188)
(-7.55435e-07 7.58327e-07 0.103188)
(7.53544e-07 7.57242e-07 0.103188)
(1.57745e-05 9.48548e-08 0.102554)
(-1.52933e-05 4.30486e-06 0.100837)
(-6.23546e-07 -1.98093e-07 0.103166)
(-4.80305e-07 7.56187e-07 0.103118)
(-1.5836e-05 -1.09481e-07 0.102547)
(1.46865e-05 -4.80997e-06 0.10086)
(-6.09884e-07 -1.99359e-07 0.103166)
(2.77844e-06 -1.91726e-06 0.0802449)
(-2.78487e-06 1.92491e-06 0.0802702)
(9.98044e-08 1.57773e-05 0.102554)
(-1.98379e-07 -6.13798e-07 0.103166)
(4.33964e-06 -1.53496e-05 0.100837)
(7.52261e-07 -4.81157e-07 0.103118)
(-1.12405e-07 -1.58474e-05 0.102547)
(-1.99895e-07 -6.12124e-07 0.103166)
(-4.84888e-06 1.47459e-05 0.100859)
(-4.63619e-06 -5.66964e-06 0.0978664)
(-5.65661e-06 -4.63209e-06 0.0978656)
(4.67e-05 4.67185e-05 0.103025)
(4.3102e-06 5.52655e-06 0.0978891)
(5.52544e-06 4.29975e-06 0.097888)
(7.07237e-08 -9.72867e-06 0.10044)
(6.88989e-07 6.86341e-06 0.0926167)
(-8.51106e-08 9.29293e-06 0.100425)
(-1.14006e-06 -6.80162e-06 0.0926377)
(-1.96769e-06 2.85775e-06 0.0802484)
(1.96742e-06 -2.92901e-06 0.0802701)
(-9.80074e-06 6.23891e-08 0.100439)
(6.84559e-06 6.73368e-07 0.0926164)
(9.36174e-06 -6.82763e-08 0.100425)
(-6.78952e-06 -1.12298e-06 0.0926374)
(7.62718e-07 -7.61134e-07 0.103188)
(-7.58654e-07 7.62499e-07 0.103188)
(7.57306e-07 7.6181e-07 0.103188)
(-7.72143e-07 -7.68028e-07 0.103188)
(7.7016e-07 -7.68543e-07 0.103188)
(-7.65108e-07 7.69966e-07 0.103188)
(7.6506e-07 7.69515e-07 0.103188)
(1.58116e-05 9.65206e-08 0.102554)
(-1.52607e-05 4.29378e-06 0.100837)
(-6.1138e-07 -2.01332e-07 0.103166)
(-4.66649e-07 7.53425e-07 0.103118)
(-1.58041e-05 -1.11346e-07 0.102547)
(1.47103e-05 -4.81804e-06 0.10086)
(-5.90524e-07 -2.0227e-07 0.103166)
(2.7358e-06 -1.89563e-06 0.0802456)
(-2.81051e-06 1.90545e-06 0.0802712)
(1.00723e-07 1.58141e-05 0.102554)
(-2.01699e-07 -6.01146e-07 0.103166)
(4.32885e-06 -1.53184e-05 0.100837)
(7.50093e-07 -4.65808e-07 0.103118)
(-1.11791e-07 -1.58135e-05 0.102547)
(-2.02396e-07 -5.91099e-07 0.103166)
(-4.85987e-06 1.47726e-05 0.100859)
(-4.63036e-06 -5.66756e-06 0.0978665)
(-5.65854e-06 -4.62539e-06 0.0978657)
(4.67107e-05 4.67322e-05 0.103025)
(4.31387e-06 5.52234e-06 0.0978891)
(5.51788e-06 4.30741e-06 0.097888)
(7.09513e-08 -9.78472e-06 0.10044)
(6.59627e-07 6.8542e-06 0.0926172)
(-9.18561e-08 9.27783e-06 0.100425)
(-1.12727e-06 -6.8095e-06 0.0926383)
(-1.92831e-06 2.8361e-06 0.0802495)
(1.92408e-06 -2.90373e-06 0.0802713)
(-9.85585e-06 6.02784e-08 0.100439)
(6.83616e-06 6.40657e-07 0.0926168)
(9.35068e-06 -7.49184e-08 0.100425)
(-6.79196e-06 -1.11121e-06 0.092638)
(7.67209e-07 -7.65865e-07 0.103188)
(-7.62167e-07 7.67332e-07 0.103188)
(7.61873e-07 7.66489e-07 0.103188)
(-7.87831e-07 -7.83454e-07 0.103187)
(7.87079e-07 -7.84449e-07 0.103187)
(-7.81431e-07 7.8705e-07 0.103187)
(7.81406e-07 7.8549e-07 0.103187)
(1.58487e-05 9.09541e-08 0.102553)
(-1.52406e-05 4.25533e-06 0.100837)
(-6.09124e-07 -2.05737e-07 0.103166)
(-4.82517e-07 7.68825e-07 0.103118)
(-1.57961e-05 -1.12758e-07 0.102547)
(1.47347e-05 -4.8395e-06 0.10086)
(-6.08961e-07 -2.02122e-07 0.103166)
(2.72245e-06 -1.85982e-06 0.0802467)
(-2.78724e-06 1.86722e-06 0.0802723)
(9.5948e-08 1.58526e-05 0.102553)
(-2.05373e-07 -5.98803e-07 0.103166)
(4.29472e-06 -1.52979e-05 0.100837)
(7.66577e-07 -4.82682e-07 0.103118)
(-1.12735e-07 -1.58069e-05 0.102546)
(-2.01737e-07 -6.09799e-07 0.103166)
(-4.87989e-06 1.47961e-05 0.100859)
(-4.61089e-06 -5.64878e-06 0.0978665)
(-5.63828e-06 -4.60384e-06 0.0978657)
(4.67099e-05 4.67321e-05 0.103025)
(4.33871e-06 5.54067e-06 0.0978892)
(5.53532e-06 4.3328e-06 0.0978881)
(1.03235e-07 -9.75402e-06 0.10044)
(6.31919e-07 6.8648e-06 0.0926178)
(-1.11001e-07 9.28293e-06 0.100425)
(-1.11725e-06 -6.75409e-06 0.0926389)
(-1.91653e-06 2.82117e-06 0.080251)
(1.78462e-06 -2.83195e-06 0.0802727)
(-9.82658e-06 9.4713e-08 0.100439)
(6.83772e-06 6.12972e-07 0.0926173)
(9.35756e-06 -9.44736e-08 0.100425)
(-6.72467e-06 -1.09376e-06 0.0926388)
(7.75741e-07 -7.73677e-07 0.103187)
(-7.70359e-07 7.76137e-07 0.103187)
(7.70557e-07 7.74525e-07 0.103187)
(-6.55534e-07 -6.53422e-07 0.103188)
(6.54802e-07 -6.55756e-07 0.103188)
(-6.50024e-07 6.52563e-07 0.103187)
(6.51146e-07 6.51702e-07 0.103188)
(1.57943e-05 1.051e-07 0.102553)
(-1.52222e-05 4.24022e-06 0.100837)
(-5.60574e-07 -2.08737e-07 0.103166)
(-5.31586e-07 8.07479e-07 0.103118)
(-1.57789e-05 -1.15972e-07 0.102546)
(1.4659e-05 -4.78783e-06 0.10086)
(-6.46932e-07 -1.91594e-07 0.103166)
(2.71461e-06 -1.84823e-06 0.0802482)
(-2.71503e-06 1.72957e-06 0.0802736)
(1.09814e-07 1.58017e-05 0.102553)
(-2.08394e-07 -5.49705e-07 0.103166)
(4.2776e-06 -1.52777e-05 0.100837)
(8.04365e-07 -5.30916e-07 0.103118)
(-1.16414e-07 -1.57875e-05 0.102546)
(-1.91189e-07 -6.47097e-07 0.103166)
(-4.83115e-06 1.47245e-05 0.100859)
(-4.55409e-06 -5.63296e-06 0.0978666)
(-5.62142e-06 -4.54719e-06 0.0978658)
(4.66832e-05 4.6704e-05 0.103024)
(4.31056e-06 5.46688e-06 0.0978895)
(5.464e-06 4.30382e-06 0.0978884)
(3.47481e-08 -9.38743e-06 0.10044)
(7.73486e-07 7.29494e-06 0.0926178)
(-1.12821e-07 9.64233e-06 0.100425)
(-1.09451e-06 -6.3621e-06 0.0926379)
(-1.99329e-06 3.0452e-06 0.0802494)
(2.00545e-06 -2.76434e-06 0.0802699)
(-9.45895e-06 1.21044e-08 0.100439)
(7.26317e-06 7.42366e-07 0.0926173)
(9.71683e-06 -1.02967e-07 0.100425)
(-6.32992e-06 -1.06868e-06 0.0926378)
(6.5867e-07 -6.60906e-07 0.103188)
(-6.5334e-07 6.55314e-07 0.103188)
(6.55326e-07 6.54914e-07 0.103188)
(-7.49511e-07 -7.49116e-07 0.103188)
(7.52769e-07 -7.56237e-07 0.103188)
(-7.44189e-07 7.46762e-07 0.103188)
(7.44646e-07 7.44625e-07 0.103188)
(1.54312e-05 1.03111e-07 0.102554)
(-1.55987e-05 4.49045e-06 0.100836)
(-8.03374e-07 -1.64695e-07 0.103166)
(-5.75714e-07 7.84233e-07 0.103118)
(-1.62723e-05 -9.38272e-08 0.102546)
(1.43936e-05 -4.59437e-06 0.10086)
(-7.48958e-07 -1.76801e-07 0.103166)
(2.93931e-06 -1.93198e-06 0.0802467)
(-2.65763e-06 1.94121e-06 0.0802708)
(1.08813e-07 1.54338e-05 0.102554)
(-1.61158e-07 -7.96811e-07 0.103166)
(4.5331e-06 -1.56569e-05 0.100837)
(7.87705e-07 -5.76068e-07 0.103118)
(-9.28795e-08 -1.62865e-05 0.102546)
(-1.72091e-07 -7.51339e-07 0.103166)
(-4.62987e-06 1.44586e-05 0.100859)
(-4.81612e-06 -5.72924e-06 0.0978665)
(-5.71588e-06 -4.81321e-06 0.0978657)
(4.66438e-05 4.66593e-05 0.103025)
(4.18366e-06 5.51657e-06 0.0978889)
(5.51684e-06 4.17185e-06 0.0978878)
(7.17383e-08 -9.65031e-06 0.10044)
(7.1774e-07 7.04281e-06 0.0926161)
(-8.78067e-08 9.42275e-06 0.100425)
(-1.11854e-06 -6.68736e-06 0.0926368)
(-1.85964e-06 2.83366e-06 0.0802477)
(1.9806e-06 -2.86481e-06 0.080269)
(-9.71843e-06 5.82093e-08 0.100439)
(7.01056e-06 6.84908e-07 0.0926156)
(9.49709e-06 -8.45654e-08 0.100425)
(-6.65232e-06 -1.09954e-06 0.0926368)
(7.6412e-07 -7.67196e-07 0.103188)
(-7.56e-07 7.585e-07 0.103188)
(7.56142e-07 7.5566e-07 0.103188)
(-7.57556e-07 -7.55716e-07 0.103188)
(7.58174e-07 -7.55424e-07 0.103188)
(-7.52283e-07 7.56059e-07 0.103188)
(7.52894e-07 7.52305e-07 0.103188)
(1.57319e-05 9.07289e-08 0.102554)
(-1.53876e-05 4.37585e-06 0.100837)
(-6.3478e-07 -2.05461e-07 0.103166)
(-4.84992e-07 7.42811e-07 0.103118)
(-1.59209e-05 -1.17628e-07 0.102547)
(1.46323e-05 -4.77093e-06 0.10086)
(-6.26278e-07 -2.05042e-07 0.103166)
(2.82273e-06 -1.9022e-06 0.0802449)
(-2.74083e-06 1.90885e-06 0.0802699)
(9.88511e-08 1.57346e-05 0.102554)
(-1.97887e-07 -6.29262e-07 0.103166)
(4.42417e-06 -1.54426e-05 0.100837)
(7.4469e-07 -4.85283e-07 0.103118)
(-1.14366e-07 -1.59292e-05 0.102547)
(-1.9836e-07 -6.26551e-07 0.103166)
(-4.80526e-06 1.46941e-05 0.100859)
(-4.65883e-06 -5.67078e-06 0.097866)
(-5.65761e-06 -4.65447e-06 0.0978653)
(4.67249e-05 4.67436e-05 0.103025)
(4.29714e-06 5.52005e-06 0.0978888)
(5.51793e-06 4.28958e-06 0.0978877)
(6.87646e-08 -9.66311e-06 0.10044)
(7.00557e-07 6.95491e-06 0.0926159)
(-8.91075e-08 9.35684e-06 0.100425)
(-1.13136e-06 -6.70688e-06 0.0926368)
(-1.98134e-06 2.9123e-06 0.0802477)
(1.96998e-06 -2.87393e-06 0.080269)
(-9.73299e-06 5.87178e-08 0.10044)
(6.92101e-06 6.73355e-07 0.0926154)
(9.42942e-06 -7.33283e-08 0.100425)
(-6.67402e-06 -1.10662e-06 0.0926368)
(7.54802e-07 -7.51195e-07 0.103188)
(-7.49167e-07 7.53471e-07 0.103188)
(7.51702e-07 7.48609e-07 0.103188)
(-7.50957e-07 -7.48799e-07 0.103188)
(7.51926e-07 -7.45158e-07 0.103188)
(-7.43709e-07 7.50806e-07 0.103188)
(7.53093e-07 7.373e-07 0.103188)
(1.57269e-05 9.69338e-08 0.102554)
(-1.5327e-05 4.32866e-06 0.100837)
(-6.33385e-07 -1.96923e-07 0.103166)
(-4.98153e-07 7.62285e-07 0.103118)
(-1.58785e-05 -1.10789e-07 0.102547)
(1.46404e-05 -4.7731e-06 0.10086)
(-6.3408e-07 -1.95909e-07 0.103166)
(2.79643e-06 -1.91787e-06 0.0802448)
(-2.75083e-06 1.90228e-06 0.0802699)
(1.00508e-07 1.57267e-05 0.102554)
(-1.95569e-07 -6.26401e-07 0.103166)
(4.36737e-06 -1.53833e-05 0.100837)
(7.60558e-07 -4.96382e-07 0.103118)
(-1.11475e-07 -1.58856e-05 0.102547)
(-1.94733e-07 -6.30928e-07 0.103166)
(-4.81352e-06 1.47029e-05 0.100859)
(-4.64539e-06 -5.67749e-06 0.0978662)
(-5.66531e-06 -4.64052e-06 0.0978654)
(4.6707e-05 4.67289e-05 0.103025)
(4.29322e-06 5.51944e-06 0.0978889)
(5.51671e-06 4.28533e-06 0.0978878)
(6.81546e-08 -9.66247e-06 0.10044)
(6.97942e-07 6.95597e-06 0.0926159)
(-9.07506e-08 9.358e-06 0.100425)
(-1.13202e-06 -6.70587e-06 0.0926368)
(-1.98792e-06 2.91328e-06 0.0802477)
(1.96841e-06 -2.87447e-06 0.0802691)
(-9.73229e-06 5.82809e-08 0.10044)
(6.92193e-06 6.72526e-07 0.0926154)
(9.43027e-06 -7.45301e-08 0.100425)
(-6.6727e-06 -1.1061e-06 0.0926368)
(7.51607e-07 -7.442e-07 0.103188)
(-7.42953e-07 7.50705e-07 0.103188)
(7.54538e-07 7.36144e-07 0.103188)
(-7.49764e-07 -7.48365e-07 0.103188)
(7.51678e-07 -7.43666e-07 0.103188)
(-7.42148e-07 7.50935e-07 0.103188)
(7.53069e-07 7.36083e-07 0.103188)
(1.5725e-05 9.80353e-08 0.102554)
(-1.53293e-05 4.33312e-06 0.100837)
(-6.40367e-07 -1.95723e-07 0.103166)
(-5.02178e-07 7.63801e-07 0.103118)
(-1.58849e-05 -1.08794e-07 0.102547)
(1.46398e-05 -4.7706e-06 0.10086)
(-6.38555e-07 -1.9578e-07 0.103166)
(2.79474e-06 -1.91833e-06 0.0802448)
(-2.75104e-06 1.90247e-06 0.0802699)
(1.00917e-07 1.5722e-05 0.102554)
(-1.95305e-07 -6.33447e-07 0.103166)
(4.37067e-06 -1.5385e-05 0.100837)
(7.63323e-07 -4.97132e-07 0.103118)
(-1.12256e-07 -1.58887e-05 0.102547)
(-1.95162e-07 -6.36277e-07 0.103166)
(-4.81217e-06 1.47026e-05 0.100859)
(-4.64789e-06 -5.67668e-06 0.0978662)
(-5.66536e-06 -4.64268e-06 0.0978654)
(4.67031e-05 4.67286e-05 0.103025)
(4.29252e-06 5.52019e-06 0.0978889)
(5.51648e-06 4.28528e-06 0.0978878)
(6.76753e-08 -9.66181e-06 0.10044)
(6.97957e-07 6.95639e-06 0.0926159)
(-9.033e-08 9.35787e-06 0.100425)
(-1.13204e-06 -6.70557e-06 0.0926368)
(-1.98944e-06 2.91348e-06 0.0802478)
(1.96708e-06 -2.87459e-06 0.0802691)
(-9.73224e-06 5.80211e-08 0.10044)
(6.92322e-06 6.72621e-07 0.0926154)
(9.43031e-06 -7.45841e-08 0.100425)
(-6.67185e-06 -1.10633e-06 0.0926368)
(7.51469e-07 -7.43567e-07 0.103188)
(-7.42096e-07 7.50795e-07 0.103188)
(7.54236e-07 7.35759e-07 0.103188)
(-7.48912e-07 -7.4781e-07 0.103188)
(7.51229e-07 -7.42831e-07 0.103188)
(-7.4142e-07 7.50537e-07 0.103188)
(7.52921e-07 7.35444e-07 0.103188)
(1.57243e-05 9.84737e-08 0.102554)
(-1.53295e-05 4.3329e-06 0.100837)
(-6.40272e-07 -1.95757e-07 0.103166)
(-5.02808e-07 7.63912e-07 0.103118)
(-1.58855e-05 -1.08148e-07 0.102547)
(1.46392e-05 -4.77005e-06 0.10086)
(-6.38571e-07 -1.95783e-07 0.103166)