/*--------------------------------*- C++ -*----------------------------------*\
| =========                 |                                                 |
| \\      /  F ield         | OpenFOAM: The Open Source CFD Toolbox           |
|  \\    /   O peration     | Version:  2206                                  |
|   \\  /    A nd           | Website:  www.openfoam.com                      |
|    \\/     M anipulation  |                                                 |
\*---------------------------------------------------------------------------*/
FoamFile
{
    version     2.0;
    format      ascii;
    arch        "LSB;label=32;scalar=64";
    class       volScalarField;
    location    "1.5";
    object      epsilon;
}
// * * * * * * * * * * * * * * * * * * * * * * * * * * * * * * * * * * * * * //

dimensions      [0 2 -3 0 0 0 0];

internalField   nonuniform List<scalar> 
28673
(
5.1759e-07
5.17762e-07
5.17366e-07
5.1741e-07
5.17418e-07
5.17434e-07
5.17358e-07
5.1741e-07
5.1741e-07
5.17434e-07
5.17358e-07
5.1741e-07
5.1741e-07
5.17434e-07
5.17358e-07
5.1741e-07
5.1741e-07
5.17434e-07
5.17358e-07
5.1741e-07
5.1741e-07
5.17434e-07
5.17358e-07
5.1741e-07
5.1741e-07
5.17434e-07
5.17358e-07
5.1741e-07
5.1741e-07
5.17434e-07
5.17358e-07
5.1741e-07
5.1741e-07
5.17434e-07
5.17358e-07
5.1741e-07
5.1741e-07
5.17434e-07
5.17358e-07
5.1741e-07
5.1741e-07
5.17436e-07
5.17358e-07
5.17409e-07
5.17409e-07
5.17433e-07
5.1736e-07
5.17381e-07
5.17381e-07
5.17437e-07
5.1768e-07
5.17741e-07
5.17682e-07
5.1744e-07
5.17677e-07
5.17591e-07
5.17419e-07
5.1741e-07
5.17662e-07
5.17435e-07
5.17458e-07
5.17458e-07
5.17673e-07
5.1741e-07
5.17418e-07
5.17442e-07
5.17673e-07
5.17456e-07
5.17418e-07
5.17433e-07
5.17447e-07
5.17434e-07
5.17415e-07
5.17414e-07
5.17409e-07
5.17409e-07
5.17445e-07
5.17435e-07
5.17422e-07
5.17422e-07
5.17409e-07
5.17409e-07
5.17415e-07
5.1741e-07
5.17409e-07
5.17448e-07
5.17434e-07
5.17415e-07
5.1741e-07
5.17409e-07
5.17433e-07
5.17445e-07
5.17434e-07
5.17416e-07
5.17415e-07
5.17409e-07
5.17409e-07
5.17445e-07
5.17435e-07
5.17416e-07
5.17415e-07
5.17409e-07
5.17409e-07
5.17415e-07
5.1741e-07
5.17409e-07
5.17445e-07
5.17434e-07
5.17415e-07
5.1741e-07
5.17409e-07
5.17433e-07
5.17445e-07
5.17434e-07
5.17415e-07
5.17415e-07
5.17409e-07
5.17409e-07
5.17445e-07
5.17435e-07
5.17415e-07
5.17415e-07
5.17409e-07
5.17409e-07
5.17415e-07
5.1741e-07
5.17409e-07
5.17445e-07
5.17434e-07
5.17415e-07
5.1741e-07
5.17409e-07
5.17433e-07
5.17445e-07
5.17434e-07
5.17415e-07
5.17415e-07
5.17409e-07
5.17409e-07
5.17445e-07
5.17435e-07
5.17415e-07
5.17415e-07
5.17409e-07
5.17409e-07
5.17415e-07
5.1741e-07
5.17409e-07
5.17445e-07
5.17434e-07
5.17415e-07
5.1741e-07
5.17409e-07
5.17433e-07
5.17445e-07
5.17434e-07
5.17415e-07
5.17415e-07
5.17409e-07
5.17409e-07
5.17445e-07
5.17435e-07
5.17415e-07
5.17415e-07
5.17409e-07
5.17409e-07
5.17415e-07
5.1741e-07
5.17409e-07
5.17445e-07
5.17434e-07
5.17415e-07
5.1741e-07
5.17409e-07
5.17433e-07
5.17445e-07
5.17434e-07
5.17415e-07
5.17415e-07
5.17409e-07
5.17409e-07
5.17445e-07
5.17435e-07
5.17415e-07
5.17415e-07
5.17409e-07
5.17409e-07
5.17415e-07
5.1741e-07
5.17409e-07
5.17445e-07
5.17434e-07
5.17415e-07
5.1741e-07
5.17409e-07
5.17433e-07
5.17445e-07
5.17434e-07
5.17415e-07
5.17415e-07
5.17409e-07
5.17409e-07
5.17445e-07
5.17435e-07
5.17415e-07
5.17415e-07
5.17409e-07
5.17409e-07
5.17415e-07
5.1741e-07
5.17409e-07
5.17445e-07
5.17434e-07
5.17415e-07
5.1741e-07
5.17409e-07
5.17433e-07
5.17445e-07
5.17434e-07
5.17415e-07
5.17415e-07
5.17409e-07
5.17409e-07
5.17445e-07
5.17435e-07
5.17415e-07
5.17415e-07
5.17409e-07
5.17409e-07
5.17415e-07
5.1741e-07
5.17409e-07
5.17445e-07
5.17434e-07
5.17415e-07
5.1741e-07
5.17409e-07
5.17433e-07
5.17445e-07
5.17434e-07
5.17415e-07
5.17415e-07
5.17409e-07
5.17409e-07
5.17445e-07
5.17435e-07
5.17415e-07
5.17415e-07
5.17409e-07
5.17409e-07
5.17415e-07
5.1741e-07
5.17409e-07
5.17445e-07
5.17435e-07
5.17415e-07
5.1741e-07
5.17409e-07
5.17434e-07
5.17445e-07
5.17435e-07
5.17415e-07
5.17415e-07
5.17409e-07
5.17409e-07
5.17445e-07
5.17434e-07
5.17415e-07
5.17415e-07
5.17409e-07
5.17409e-07
5.17415e-07
5.17409e-07
5.17409e-07
5.17445e-07
5.17435e-07
5.17415e-07
5.17409e-07
5.17409e-07
5.17433e-07
5.17445e-07
5.17434e-07
5.17415e-07
5.17415e-07
5.17393e-07
5.17393e-07
5.17445e-07
5.17434e-07
5.17415e-07
5.17415e-07
5.17393e-07
5.17393e-07
5.17415e-07
5.17393e-07
5.17393e-07
5.17445e-07
5.17434e-07
5.17415e-07
5.17393e-07
5.17392e-07
5.17434e-07
5.1745e-07
5.17383e-07
5.17382e-07
5.17449e-07
5.17383e-07
5.17383e-07
5.1736e-07
5.1736e-07
5.1736e-07
5.17383e-07
5.17449e-07
5.17383e-07
7.26181e-07
4.04284e-06
7.24459e-07
4.05004e-06
1.05721e-05
1.05872e-05
7.24587e-07
4.0449e-06
5.1762e-07
5.17621e-07
5.17404e-07
5.17366e-07
5.17405e-07
5.17366e-07
5.27589e-07
6.74216e-07
5.17628e-07
5.1747e-07
5.27648e-07
6.75135e-07
5.17535e-07
1.05517e-05
5.2759e-07
5.1763e-07
5.17673e-07
5.27651e-07
5.1754e-07
6.73506e-07
9.42102e-07
9.42232e-07
5.17526e-07
9.46048e-07
9.46172e-07
7.2685e-07
4.05052e-06
7.26979e-07
4.05046e-06
1.0587e-05
1.05866e-05
7.26821e-07
4.05105e-06
7.2692e-07
4.05096e-06
5.17362e-07
5.17369e-07
5.17363e-07
5.17358e-07
5.17357e-07
5.17357e-07
5.17357e-07
5.2758e-07
6.75299e-07
5.17362e-07
5.17415e-07
5.27591e-07
6.75165e-07
5.17365e-07
1.05884e-05
1.0588e-05
5.27584e-07
5.17363e-07
6.75265e-07
5.17415e-07
5.27596e-07
5.17366e-07
6.75151e-07
9.47214e-07
9.47325e-07
5.17439e-07
9.47132e-07
9.47242e-07
7.26842e-07
4.05052e-06
7.26975e-07
4.05046e-06
1.05871e-05
1.05867e-05
7.26818e-07
4.05102e-06
7.26897e-07
4.05096e-06
5.17362e-07
5.17362e-07
5.17363e-07
5.17358e-07
5.17357e-07
5.17357e-07
5.17357e-07
5.2758e-07
6.75298e-07
5.17362e-07
5.17416e-07
5.27592e-07
6.75165e-07
5.17367e-07
1.05882e-05
1.05878e-05
5.27584e-07
5.17362e-07
6.75268e-07
5.17416e-07
5.27596e-07
5.17368e-07
6.75151e-07
9.47211e-07
9.47323e-07
5.17439e-07
9.47132e-07
9.4724e-07
7.26842e-07
4.05052e-06
7.26976e-07
4.05046e-06
1.05871e-05
1.05867e-05
7.26818e-07
4.05102e-06
7.26897e-07
4.05096e-06
5.17362e-07
5.17362e-07
5.17363e-07
5.17358e-07
5.17357e-07
5.17357e-07
5.17357e-07
5.27581e-07
6.75298e-07
5.17362e-07
5.17416e-07
5.27592e-07
6.75165e-07
5.17367e-07
1.05882e-05
1.05878e-05
5.27584e-07
5.17362e-07
6.75268e-07
5.17415e-07
5.27596e-07
5.17367e-07
6.75151e-07
9.4721e-07
9.47323e-07
5.17439e-07
9.47132e-07
9.4724e-07
7.26842e-07
4.05052e-06
7.26976e-07
4.05046e-06
1.05871e-05
1.05867e-05
7.26818e-07
4.05102e-06
7.26897e-07
4.05096e-06
5.17363e-07
5.17363e-07
5.17363e-07
5.17358e-07
5.17357e-07
5.17357e-07
5.17357e-07
5.27581e-07
6.75298e-07
5.17362e-07
5.17416e-07
5.27592e-07
6.75165e-07
5.17367e-07
1.05882e-05
1.05878e-05
5.27584e-07
5.17362e-07
6.75268e-07
5.17416e-07
5.27596e-07
5.17367e-07
6.75151e-07
9.47211e-07
9.47324e-07
5.17439e-07
9.47132e-07
9.47242e-07
7.26842e-07
4.05052e-06
7.26976e-07
4.05046e-06
1.05871e-05
1.05867e-05
7.26817e-07
4.05102e-06
7.26897e-07
4.05096e-06
5.17362e-07
5.17362e-07
5.17363e-07
5.17358e-07
5.17357e-07
5.17357e-07
5.17357e-07
5.2758e-07
6.75298e-07
5.17362e-07
5.17416e-07
5.27591e-07
6.75165e-07
5.17368e-07
1.05882e-05
1.05878e-05
5.27584e-07
5.17362e-07
6.75268e-07
5.17416e-07
5.27596e-07
5.17367e-07
6.75151e-07
9.4721e-07
9.47322e-07
5.17439e-07
9.47132e-07
9.47234e-07
7.26842e-07
4.05052e-06
7.26976e-07
4.05046e-06
1.05871e-05
1.05867e-05
7.26818e-07
4.05102e-06
7.26897e-07
4.05096e-06
5.17362e-07
5.17363e-07
5.17363e-07
5.17358e-07
5.17357e-07
5.17357e-07
5.17357e-07
5.27581e-07
6.75298e-07
5.17362e-07
5.17416e-07
5.27591e-07
6.75165e-07
5.17367e-07
1.05882e-05
1.05878e-05
5.27583e-07
5.17362e-07
6.75268e-07
5.17416e-07
5.27596e-07
5.17367e-07
6.75151e-07
9.4721e-07
9.47321e-07
5.17439e-07
9.47132e-07
9.47233e-07
7.26842e-07
4.05052e-06
7.26976e-07
4.05046e-06
1.05871e-05
1.05867e-05
7.26818e-07
4.05102e-06
7.26897e-07
4.05096e-06
5.17362e-07
5.17362e-07
5.17363e-07
5.17358e-07
5.17357e-07
5.17357e-07
5.17357e-07
5.2758e-07
6.75298e-07
5.17362e-07
5.17416e-07
5.27592e-07
6.75165e-07
5.17367e-07
1.05882e-05
1.05878e-05
5.27581e-07
5.17362e-07
6.75268e-07
5.17416e-07
5.27593e-07
5.17367e-07
6.75151e-07
9.47211e-07
9.4732e-07
5.17439e-07
9.47132e-07
9.4724e-07
7.26842e-07
4.05052e-06
7.26976e-07
4.05046e-06
1.05871e-05
1.05867e-05
7.26818e-07
4.05102e-06
7.26897e-07
4.05096e-06
5.17362e-07
5.17362e-07
5.17363e-07
5.17358e-07
5.17357e-07
5.17357e-07
5.17357e-07
5.2758e-07
6.75298e-07
5.17362e-07
5.17416e-07
5.27592e-07
6.75165e-07
5.17367e-07
1.05882e-05
1.05878e-05
5.27581e-07
5.17362e-07
6.75268e-07
5.17416e-07
5.27593e-07
5.17367e-07
6.75151e-07
9.4721e-07
9.47321e-07
5.17439e-07
9.47132e-07
9.47239e-07
7.26842e-07
4.05052e-06
7.26976e-07
4.05046e-06
1.05871e-05
1.05867e-05
7.26818e-07
4.05099e-06
7.26897e-07
4.05093e-06
5.17362e-07
5.17362e-07
5.17362e-07
5.17358e-07
5.17357e-07
5.17357e-07
5.17357e-07
5.2758e-07
6.75298e-07
5.17362e-07
5.17416e-07
5.27592e-07
6.75165e-07
5.17367e-07
1.05882e-05
1.05878e-05
5.27582e-07
5.17362e-07
6.75268e-07
5.17416e-07
5.27593e-07
5.17367e-07
6.7515e-07
9.4721e-07
9.4732e-07
5.17439e-07
9.47132e-07
9.47233e-07
7.26859e-07
4.05052e-06
7.26978e-07
4.05046e-06
1.05871e-05
1.05867e-05
7.26821e-07
4.05097e-06
7.26899e-07
4.05091e-06
5.17362e-07
5.17363e-07
5.17364e-07
5.17358e-07
5.17357e-07
5.17357e-07
5.17357e-07
5.27579e-07
6.75299e-07
5.17362e-07
5.17416e-07
5.27592e-07
6.75163e-07
5.17367e-07
1.05883e-05
1.05879e-05
5.27582e-07
5.17362e-07
6.75266e-07
5.17416e-07
5.27593e-07
5.17367e-07
6.75149e-07
9.4721e-07
9.47325e-07
5.1744e-07
9.47127e-07
9.47238e-07
7.26523e-07
4.05021e-06
7.26784e-07
4.04822e-06
1.05863e-05
1.0581e-05
7.26539e-07
4.05068e-06
7.26793e-07
4.04863e-06
5.17362e-07
5.17362e-07
5.17363e-07
5.1736e-07
5.17359e-07
5.17359e-07
5.17359e-07
5.27524e-07
6.75136e-07
5.17362e-07
5.17415e-07
5.27573e-07
6.74803e-07
5.17368e-07
1.05874e-05
1.05822e-05
5.2752e-07
5.17362e-07
6.75157e-07
5.17415e-07
5.27577e-07
5.17368e-07
6.7482e-07
9.47174e-07
9.47294e-07
5.17438e-07
9.46978e-07
9.471e-07
5.89705e-07
3.70094e-06
7.2587e-07
1.18958e-06
8.86226e-06
2.12932e-06
5.89716e-07
3.70142e-06
7.25903e-07
1.18951e-06
5.17364e-07
5.1736e-07
5.1736e-07
5.17367e-07
5.1736e-07
5.17365e-07
5.17365e-07
5.22893e-07
6.6974e-07
5.17364e-07
5.17373e-07
5.27182e-07
6.37447e-07
5.17366e-07
8.86298e-06
2.1293e-06
5.22893e-07
5.17364e-07
6.69735e-07
5.17374e-07
5.27182e-07
5.17366e-07
6.3757e-07
9.52803e-07
9.53038e-07
5.17417e-07
7.91743e-07
7.9174e-07
4.04476e-06
6.73512e-07
1.05489e-05
9.42572e-07
9.42464e-07
1.05499e-05
6.73489e-07
4.04482e-06
1.05388e-05
1.05832e-05
1.05511e-05
9.4206e-07
5.1775e-07
9.46014e-07
9.42658e-07
1.05863e-05
1.05846e-05
1.05875e-05
1.05719e-05
5.17656e-07
9.47172e-07
9.47236e-07
9.46762e-07
9.44231e-07
7.26179e-07
4.04816e-06
7.24457e-07
4.05068e-06
5.27589e-07
6.73426e-07
5.17627e-07
5.17589e-07
5.2765e-07
6.74615e-07
5.17536e-07
5.27589e-07
6.74126e-07
5.17626e-07
5.17465e-07
5.2765e-07
6.75174e-07
5.17534e-07
7.26754e-07
4.05051e-06
4.05026e-06
7.26909e-07
7.26753e-07
4.05064e-06
4.05043e-06
7.26899e-07
5.27599e-07
5.1746e-07
6.75173e-07
5.1737e-07
6.7513e-07
5.17408e-07
5.27581e-07
5.27599e-07
5.17418e-07
6.7521e-07
5.1737e-07
6.75263e-07
5.17407e-07
5.27581e-07
9.44211e-07
9.44221e-07
5.17441e-07
9.4725e-07
9.47148e-07
1.05711e-05
1.05866e-05
1.0587e-05
1.05856e-05
5.17447e-07
9.4729e-07
9.4722e-07
9.47188e-07
9.47119e-07
1.05862e-05
1.05849e-05
5.27628e-07
5.17674e-07
6.73543e-07
5.17627e-07
7.24584e-07
4.04499e-06
5.27633e-07
5.17674e-07
5.17627e-07
6.7355e-07
7.25322e-07
4.05105e-06
4.04832e-06
7.26844e-07
5.2763e-07
5.17582e-07
6.752e-07
5.17411e-07
6.74135e-07
5.17535e-07
5.2758e-07
7.25335e-07
4.05121e-06
4.04848e-06
7.26843e-07
5.27635e-07
5.17582e-07
5.17411e-07
6.75215e-07
5.17534e-07
6.74192e-07
5.27581e-07
7.26189e-07
4.04823e-06
7.24457e-07
4.05074e-06
5.27589e-07
5.17626e-07
6.73439e-07
5.17583e-07
5.27648e-07
5.17536e-07
6.7463e-07
7.26185e-07
4.04325e-06
7.24458e-07
4.05045e-06
5.27597e-07
5.1742e-07
6.75199e-07
5.17368e-07
6.75256e-07
5.17407e-07
5.27581e-07
7.26757e-07
4.05069e-06
4.05048e-06
7.26901e-07
5.27597e-07
5.17456e-07
5.1737e-07
6.75187e-07
5.17408e-07
6.75141e-07
5.27581e-07
7.26757e-07
4.05093e-06
4.05067e-06
7.26901e-07
5.17742e-07
9.42684e-07
9.42467e-07
1.05494e-05
1.05884e-05
1.05725e-05
5.17665e-07
9.47341e-07
9.4711e-07
9.44346e-07
9.4403e-07
1.0587e-05
1.05705e-05
5.2759e-07
5.17627e-07
6.73478e-07
5.17583e-07
5.27651e-07
5.17536e-07
6.74667e-07
7.26207e-07
7.2451e-07
4.045e-06
7.26204e-07
4.04337e-06
7.24514e-07
4.05057e-06
5.27599e-07
5.17578e-07
5.17369e-07
6.75147e-07
5.1741e-07
6.74096e-07
5.27584e-07
5.27599e-07
5.17456e-07
5.1737e-07
6.75226e-07
5.17408e-07
6.75181e-07
5.27584e-07
7.26822e-07
4.05097e-06
4.04843e-06
7.26939e-07
7.26823e-07
4.05105e-06
4.05079e-06
7.26945e-07
1.05404e-05
1.05843e-05
1.05409e-05
1.05848e-05
5.17474e-07
9.47185e-07
9.47304e-07
9.46794e-07
9.46916e-07
1.05871e-05
1.05855e-05
1.05877e-05
1.05861e-05
1.05844e-05
1.05866e-05
1.0586e-05
1.05877e-05
9.46986e-07
9.47168e-07
5.17436e-07
9.47144e-07
9.47281e-07
1.05863e-05
1.0585e-05
1.05874e-05
1.0586e-05
5.17445e-07
9.47157e-07
9.47276e-07
9.47051e-07
9.47141e-07
7.26896e-07
4.0503e-06
7.26854e-07
4.05067e-06
5.27574e-07
6.75199e-07
5.17366e-07
5.17413e-07
5.27592e-07
6.7517e-07
5.17364e-07
5.27578e-07
6.75235e-07
5.17366e-07
5.17413e-07
5.27593e-07
6.75211e-07
5.17364e-07
7.2689e-07
4.0505e-06
4.05031e-06
7.26913e-07
7.26876e-07
4.05064e-06
4.05042e-06
7.26904e-07
5.27589e-07
5.17409e-07
6.75173e-07
5.17361e-07
6.752e-07
5.17361e-07
5.27583e-07
5.27591e-07
5.17409e-07
6.75211e-07
5.17361e-07
6.75238e-07
5.1736e-07
5.27583e-07
9.47133e-07
9.47249e-07
5.17436e-07
9.47299e-07
9.47269e-07
1.05843e-05
1.05865e-05
1.05871e-05
1.05857e-05
5.17445e-07
9.47295e-07
9.47223e-07
9.47143e-07
9.47109e-07
1.05862e-05
1.05848e-05
5.27571e-07
6.75272e-07
5.17373e-07
5.17412e-07
5.2759e-07
6.75236e-07
5.17363e-07
7.26871e-07
4.05098e-06
7.26841e-07
4.05124e-06
5.27577e-07
5.17373e-07
6.75336e-07
5.17412e-07
5.27592e-07
5.17363e-07
6.7527e-07
7.26774e-07
4.051e-06
4.05081e-06
7.26844e-07
5.27584e-07
5.17409e-07
6.75239e-07
5.17361e-07
6.75268e-07
5.1736e-07
5.27578e-07
7.26836e-07
4.05119e-06
4.05094e-06
7.26857e-07
5.27589e-07
5.17409e-07
5.17361e-07
6.75267e-07
5.1736e-07
6.75329e-07
5.27579e-07
7.26904e-07
4.05038e-06
7.26852e-07
4.05073e-06
5.27579e-07
5.17366e-07
6.75207e-07
5.17413e-07
5.27591e-07
5.17364e-07
6.75183e-07
7.26902e-07
4.0506e-06
7.26857e-07
4.05096e-06
5.27591e-07
5.17412e-07
6.75201e-07
5.17362e-07
6.75228e-07
5.17362e-07
5.2758e-07
7.26866e-07
4.05069e-06
4.05047e-06
7.26909e-07
5.2759e-07
5.17409e-07
5.17361e-07
6.75187e-07
5.17361e-07
6.75213e-07
5.2758e-07
7.26895e-07
4.05092e-06
4.0507e-06
7.26905e-07
9.4733e-07
9.47041e-07
5.17436e-07
9.47447e-07
9.47155e-07
1.05855e-05
1.05872e-05
1.05882e-05
1.05868e-05
5.17445e-07
9.47419e-07
9.47156e-07
9.47294e-07
9.47036e-07
1.0587e-05
1.05856e-05
5.27583e-07
5.17366e-07
6.75248e-07
5.17413e-07
5.27596e-07
5.17364e-07
6.75221e-07
7.26966e-07
4.05074e-06
7.2701e-07
4.05101e-06
7.26962e-07
4.05072e-06
7.27014e-07
4.05108e-06
5.27594e-07
5.1741e-07
5.17362e-07
6.75185e-07
5.17363e-07
6.75183e-07
5.27583e-07
5.27593e-07
5.17409e-07
5.17361e-07
6.75226e-07
5.17361e-07
6.75252e-07
5.27584e-07
7.2695e-07
4.05095e-06
4.05073e-06
7.26934e-07
7.26951e-07
4.05104e-06
4.05081e-06
7.2694e-07
1.05851e-05
1.05873e-05
1.05857e-05
1.05879e-05
5.17447e-07
9.47174e-07
9.47296e-07
9.4706e-07
9.4718e-07
1.05871e-05
1.05857e-05
1.05876e-05
1.05863e-05
1.05845e-05
1.05866e-05
1.05855e-05
1.05876e-05
9.46977e-07
9.47096e-07
5.17436e-07
9.47156e-07
9.47284e-07
1.05863e-05
1.0585e-05
1.05874e-05
1.05861e-05
5.17445e-07
9.47166e-07
9.47282e-07
9.4706e-07
9.47178e-07
7.26903e-07
4.05031e-06
7.26868e-07
4.05067e-06
5.27574e-07
6.75199e-07
5.17367e-07
5.17414e-07
5.27593e-07
6.75172e-07
5.17366e-07
5.27579e-07
6.75235e-07
5.17366e-07
5.17414e-07
5.27595e-07
6.75211e-07
5.17364e-07
7.2689e-07
4.0505e-06
4.05031e-06
7.26912e-07
7.26906e-07
4.05064e-06
4.05042e-06
7.26902e-07
5.27588e-07
5.17409e-07
6.75173e-07
5.17361e-07
6.752e-07
5.17361e-07
5.27583e-07
5.27592e-07
5.17409e-07
6.75211e-07
5.17361e-07
6.75238e-07
5.1736e-07
5.27583e-07
9.47138e-07
9.47124e-07
5.17436e-07
9.47301e-07
9.47275e-07
1.05843e-05
1.05865e-05
1.05871e-05
1.05857e-05
5.17445e-07
9.47295e-07
9.47223e-07
9.47143e-07
9.4711e-07
1.05862e-05
1.05848e-05
5.27571e-07
6.75269e-07
5.17367e-07
5.17414e-07
5.27588e-07
6.75237e-07
5.17365e-07
7.26866e-07
4.05086e-06
7.26816e-07
4.05123e-06
5.27577e-07
5.17367e-07
6.75323e-07
5.17414e-07
5.27591e-07
5.17366e-07
6.75268e-07
7.26774e-07
4.051e-06
4.05081e-06
7.26844e-07
5.27584e-07
5.17409e-07
6.7524e-07
5.17361e-07
6.75269e-07
5.17361e-07
5.27578e-07
7.26828e-07
4.05119e-06
4.05097e-06
7.26857e-07
5.27589e-07
5.17409e-07
5.17361e-07
6.75267e-07
5.17361e-07
6.75331e-07
5.27579e-07
7.2691e-07
4.05038e-06
7.26863e-07
4.05073e-06
5.27579e-07
5.17366e-07
6.75209e-07
5.17414e-07
5.27592e-07
5.17364e-07
6.75182e-07
7.26909e-07
4.0506e-06
7.2687e-07
4.05096e-06
5.27592e-07
5.17412e-07
6.75201e-07
5.17362e-07
6.75228e-07
5.17364e-07
5.2758e-07
7.269e-07
4.05069e-06
4.05046e-06
7.26906e-07
5.2759e-07
5.17409e-07
5.17361e-07
6.75187e-07
5.17361e-07
6.75212e-07
5.2758e-07
7.26909e-07
4.05092e-06
4.0507e-06
7.26904e-07
9.47294e-07
9.46977e-07
5.17436e-07
9.47448e-07
9.47155e-07
1.05852e-05
1.05872e-05
1.05882e-05
1.05869e-05
5.17444e-07
9.4742e-07
9.47156e-07
9.47297e-07
9.47054e-07
1.0587e-05
1.05857e-05
5.27582e-07
5.17367e-07
6.75249e-07
5.17414e-07
5.27597e-07
5.17366e-07
6.7522e-07
7.26955e-07
4.05063e-06
7.27019e-07
4.051e-06
7.2696e-07
4.05071e-06
7.27024e-07
4.05108e-06
5.27595e-07
5.17412e-07
5.17362e-07
6.75185e-07
5.17364e-07
6.75183e-07
5.27583e-07
5.27592e-07
5.17409e-07
5.17361e-07
6.75226e-07
5.17361e-07
6.75251e-07
5.27584e-07
7.27018e-07
4.05095e-06
4.05074e-06
7.26924e-07
7.26951e-07
4.05103e-06
4.05082e-06
7.26939e-07
1.05853e-05
1.05873e-05
1.05858e-05
1.05879e-05
5.17447e-07
9.47174e-07
9.47296e-07
9.4706e-07
9.4718e-07
1.05871e-05
1.05858e-05
1.05876e-05
1.05863e-05
1.05845e-05
1.05866e-05
1.05855e-05
1.05876e-05
9.46988e-07
9.47098e-07
5.17436e-07
9.47155e-07
9.47277e-07
1.05863e-05
1.0585e-05
1.05874e-05
1.05861e-05
5.17445e-07
9.47158e-07
9.47276e-07
9.47046e-07
9.47176e-07
7.26903e-07
4.05031e-06
7.26868e-07
4.05067e-06
5.27574e-07
6.752e-07
5.17367e-07
5.17414e-07
5.27593e-07
6.75171e-07
5.17366e-07
5.27579e-07
6.75235e-07
5.17366e-07
5.17414e-07
5.27595e-07
6.75211e-07
5.17364e-07
7.26889e-07
4.0505e-06
4.05031e-06
7.26912e-07
7.26906e-07
4.05064e-06
4.05042e-06
7.26902e-07
5.27588e-07
5.17409e-07
6.75172e-07
5.17361e-07
6.752e-07
5.17361e-07
5.27583e-07
5.27592e-07
5.17409e-07
6.75211e-07
5.17361e-07
6.75238e-07
5.1736e-07
5.27583e-07
9.47138e-07
9.47124e-07
5.17436e-07
9.47301e-07
9.47275e-07
1.05843e-05
1.05865e-05
1.05871e-05
1.05857e-05
5.17445e-07
9.47295e-07
9.47223e-07
9.47143e-07
9.4711e-07
1.05862e-05
1.05848e-05
5.27571e-07
6.75269e-07
5.17366e-07
5.17414e-07
5.27589e-07
6.75236e-07
5.17365e-07
7.26866e-07
4.05086e-06
7.26816e-07
4.05123e-06
5.27578e-07
5.17367e-07
6.75323e-07
5.17414e-07
5.27591e-07
5.17366e-07
6.75268e-07
7.26774e-07
4.051e-06
4.05081e-06
7.26844e-07
5.27584e-07
5.17409e-07
6.75239e-07
5.17361e-07
6.75268e-07
5.17361e-07
5.27578e-07
7.26828e-07
4.05119e-06
4.05097e-06
7.26857e-07
5.2759e-07
5.17409e-07
5.17361e-07
6.75267e-07
5.17361e-07
6.75331e-07
5.27579e-07
7.26912e-07
4.05038e-06
7.26864e-07
4.05073e-06
5.27579e-07
5.17366e-07
6.75209e-07
5.17414e-07
5.27592e-07
5.17364e-07
6.75183e-07
7.26909e-07
4.0506e-06
7.26869e-07
4.05096e-06
5.27591e-07
5.17412e-07
6.75201e-07
5.17362e-07
6.75228e-07
5.17364e-07
5.2758e-07
7.26908e-07
4.05069e-06
4.05046e-06
7.26904e-07
5.27589e-07
5.17409e-07
5.17361e-07
6.75187e-07
5.17361e-07
6.75212e-07
5.2758e-07
7.26909e-07
4.05092e-06
4.0507e-06
7.26903e-07
9.47294e-07
9.46977e-07
5.17436e-07
9.47448e-07
9.47155e-07
1.05852e-05
1.05872e-05
1.05882e-05
1.05869e-05
5.17444e-07
9.4742e-07
9.47156e-07
9.47297e-07
9.47054e-07
1.0587e-05
1.05857e-05
5.27583e-07
5.17367e-07
6.75249e-07
5.17414e-07
5.27597e-07
5.17366e-07
6.7522e-07
7.26956e-07
4.05063e-06
7.27015e-07
4.051e-06
7.2696e-07
4.05071e-06
7.27024e-07
4.05108e-06
5.27595e-07
5.17412e-07
5.17362e-07
6.75185e-07
5.17364e-07
6.75183e-07
5.27583e-07
5.27593e-07
5.17409e-07
5.17361e-07
6.75226e-07
5.17361e-07
6.75251e-07
5.27583e-07
7.27018e-07
4.05095e-06
4.05074e-06
7.26925e-07
7.26952e-07
4.05103e-06
4.05082e-06
7.26939e-07
1.05853e-05
1.05873e-05
1.05858e-05
1.05879e-05
5.17447e-07
9.47174e-07
9.47296e-07
9.4706e-07
9.4718e-07
1.05871e-05
1.05858e-05
1.05876e-05
1.05863e-05
1.05845e-05
1.05866e-05
1.05855e-05
1.05876e-05
9.46978e-07
9.47097e-07
5.17436e-07
9.47152e-07
9.47286e-07
1.05863e-05
1.0585e-05
1.05874e-05
1.05861e-05
5.17445e-07
9.47165e-07
9.473e-07
9.47055e-07
9.47189e-07
7.26903e-07
4.05031e-06
7.26868e-07
4.05067e-06
5.27574e-07
6.75199e-07
5.17367e-07
5.17414e-07
5.27593e-07
6.75171e-07
5.17366e-07
5.27579e-07
6.75235e-07
5.17366e-07
5.17414e-07
5.27595e-07
6.75211e-07
5.17364e-07
7.26889e-07
4.0505e-06
4.05031e-06
7.26912e-07
7.26906e-07
4.05064e-06
4.05042e-06
7.26902e-07
5.27588e-07
5.17409e-07
6.75173e-07
5.17361e-07
6.752e-07
5.17361e-07
5.27583e-07
5.27592e-07
5.17409e-07
6.75211e-07
5.17361e-07
6.75238e-07
5.1736e-07
5.27583e-07
9.47138e-07
9.47124e-07
5.17436e-07
9.47301e-07
9.47275e-07
1.05843e-05
1.05865e-05
1.05871e-05
1.05857e-05
5.17445e-07
9.47295e-07
9.47223e-07
9.47143e-07
9.47111e-07
1.05862e-05
1.05848e-05
5.27571e-07
6.75269e-07
5.17367e-07
5.17414e-07
5.27589e-07
6.75237e-07
5.17366e-07
7.26866e-07
4.05086e-06
7.26816e-07
4.05123e-06
5.27578e-07
5.17366e-07
6.75323e-07
5.17414e-07
5.27591e-07
5.17364e-07
6.75268e-07
7.26775e-07
4.051e-06
4.05081e-06
7.26844e-07
5.27584e-07
5.17409e-07
6.75242e-07
5.17361e-07
6.75269e-07
5.17361e-07
5.27578e-07
7.26828e-07
4.05119e-06
4.05097e-06
7.26857e-07
5.2759e-07
5.17409e-07
5.17361e-07
6.75267e-07
5.17361e-07
6.75331e-07
5.27579e-07
7.2691e-07
4.05038e-06
7.26861e-07
4.05073e-06
5.27579e-07
5.17367e-07
6.75209e-07
5.17414e-07
5.27592e-07
5.17366e-07
6.75182e-07
7.26909e-07
4.0506e-06
7.26868e-07
4.05096e-06
5.27592e-07
5.17412e-07
6.75201e-07
5.17362e-07
6.75228e-07
5.17364e-07
5.2758e-07
7.26898e-07
4.05069e-06
4.05046e-06
7.26904e-07
5.2759e-07
5.17409e-07
5.17361e-07
6.75187e-07
5.17361e-07
6.75212e-07
5.2758e-07
7.26908e-07
4.05092e-06
4.0507e-06
7.26903e-07
9.47295e-07
9.46977e-07
5.17436e-07
9.47448e-07
9.47155e-07
1.05852e-05
1.05872e-05
1.05882e-05
1.05869e-05
5.17444e-07
9.4742e-07
9.47156e-07
9.47297e-07
9.47054e-07
1.0587e-05
1.05857e-05
5.27583e-07
5.17367e-07
6.75249e-07
5.17414e-07
5.27597e-07
5.17366e-07
6.7522e-07
7.26955e-07
4.05063e-06
7.27015e-07
4.051e-06
7.2696e-07
4.05071e-06
7.27024e-07
4.05108e-06
5.27595e-07
5.17412e-07
5.17362e-07
6.75185e-07
5.17364e-07
6.75183e-07
5.27583e-07
5.27593e-07
5.17409e-07
5.17361e-07
6.75226e-07
5.17361e-07
6.75251e-07
5.27584e-07
7.27018e-07
4.05095e-06
4.05074e-06
7.26925e-07
7.26951e-07
4.05104e-06
4.05082e-06
7.26939e-07
1.05853e-05
1.05873e-05
1.05858e-05
1.05879e-05
5.17447e-07
9.47174e-07
9.47296e-07
9.4706e-07
9.4718e-07
1.05871e-05
1.05858e-05
1.05876e-05
1.05863e-05
1.05845e-05
1.05866e-05
1.05855e-05
1.05876e-05
9.46981e-07
9.47117e-07
5.17436e-07
9.47144e-07
9.47277e-07
1.05863e-05
1.0585e-05
1.05874e-05
1.05861e-05
5.17445e-07
9.47164e-07
9.47278e-07
9.47053e-07
9.47169e-07
7.26903e-07
4.05031e-06
7.26867e-07
4.05067e-06
5.27574e-07
6.752e-07
5.17367e-07
5.17414e-07
5.27593e-07
6.7517e-07
5.17366e-07
5.27579e-07
6.75235e-07
5.17366e-07
5.17414e-07
5.27595e-07
6.75211e-07
5.17364e-07
7.26889e-07
4.0505e-06
4.05031e-06
7.26912e-07
7.26906e-07
4.05064e-06
4.05042e-06
7.26902e-07
5.27588e-07
5.17409e-07
6.75173e-07
5.17361e-07
6.75199e-07
5.17361e-07
5.27583e-07
5.27592e-07
5.17409e-07
6.75211e-07
5.17361e-07
6.75238e-07
5.17361e-07
5.27583e-07
9.47138e-07
9.47124e-07
5.17436e-07
9.47301e-07
9.47275e-07
1.05843e-05
1.05865e-05
1.05871e-05
1.05857e-05
5.17445e-07
9.47295e-07
9.47223e-07
9.47143e-07
9.4711e-07
1.05862e-05
1.05848e-05
5.27571e-07
6.75271e-07
5.17366e-07
5.17414e-07
5.27589e-07
6.75236e-07
5.17365e-07
7.26866e-07
4.05086e-06
7.26815e-07
4.05123e-06
5.27577e-07
5.17367e-07
6.75323e-07
5.17414e-07
5.27591e-07
5.17366e-07
6.75268e-07
7.26774e-07
4.051e-06
4.05081e-06
7.26844e-07
5.27584e-07
5.17409e-07
6.7524e-07
5.17361e-07
6.75268e-07
5.17361e-07
5.27578e-07
7.26827e-07
4.05119e-06
4.05097e-06
7.26857e-07
5.27589e-07
5.17409e-07
5.17361e-07
6.75267e-07
5.17361e-07
6.75331e-07
5.27579e-07
7.26909e-07
4.05038e-06
7.26859e-07
4.05073e-06
5.27579e-07
5.17367e-07
6.75209e-07
5.17414e-07
5.27592e-07
5.17366e-07
6.75182e-07
7.26908e-07
4.0506e-06
7.26868e-07
4.05096e-06
5.27592e-07
5.17412e-07
6.75201e-07
5.17362e-07
6.75228e-07
5.17364e-07
5.2758e-07
7.26895e-07
4.05069e-06
4.05046e-06
7.26905e-07
5.2759e-07
5.17409e-07
5.17361e-07
6.75187e-07
5.17361e-07
6.75212e-07
5.2758e-07
7.26909e-07
4.05092e-06
4.0507e-06
7.26904e-07
9.47294e-07
9.46977e-07
5.17436e-07
9.47448e-07
9.47155e-07
1.05852e-05
1.05872e-05
1.05882e-05
1.05869e-05
5.17444e-07
9.4742e-07
9.47156e-07
9.47297e-07
9.47054e-07
1.0587e-05
1.05857e-05
5.27583e-07
5.17367e-07
6.7525e-07
5.17414e-07
5.27597e-07
5.17366e-07
6.75219e-07
7.26955e-07
4.05063e-06
7.27015e-07
4.051e-06
7.2696e-07
4.05071e-06
7.27024e-07
4.05108e-06
5.27595e-07
5.17412e-07
5.17362e-07
6.75185e-07
5.17364e-07
6.75183e-07
5.27583e-07
5.27593e-07
5.17409e-07
5.17361e-07
6.75226e-07
5.17361e-07
6.7525e-07
5.27584e-07
7.27018e-07
4.05095e-06
4.05074e-06
7.26947e-07
7.26951e-07
4.05104e-06
4.05082e-06
7.26939e-07
1.05853e-05
1.05873e-05
1.05858e-05
1.05879e-05
5.17447e-07
9.47174e-07
9.47294e-07
9.4706e-07
9.47175e-07
1.05871e-05
1.05858e-05
1.05876e-05
1.05863e-05
1.05845e-05
1.05866e-05
1.05855e-05
1.05876e-05
9.46986e-07
9.47099e-07
5.17436e-07
9.47154e-07
9.47286e-07
1.05863e-05
1.0585e-05
1.05874e-05
1.05861e-05
5.17445e-07
9.4716e-07
9.47279e-07
9.47041e-07
9.47172e-07
7.26904e-07
4.05031e-06
7.26868e-07
4.05067e-06
5.27574e-07
6.752e-07
5.17366e-07
5.17414e-07
5.27593e-07
6.75171e-07
5.17365e-07
5.27579e-07
6.75235e-07
5.17367e-07
5.17414e-07
5.27595e-07
6.75211e-07
5.17366e-07
7.26889e-07
4.0505e-06
4.05031e-06
7.26912e-07
7.26906e-07
4.05064e-06
4.05042e-06
7.26902e-07
5.27588e-07
5.17409e-07
6.75173e-07
5.17361e-07
6.752e-07
5.17361e-07
5.27583e-07
5.27592e-07
5.17409e-07
6.75211e-07
5.17361e-07
6.75238e-07
5.17361e-07
5.27583e-07
9.47138e-07
9.47124e-07
5.17436e-07
9.47301e-07
9.47275e-07
1.05843e-05
1.05865e-05
1.05871e-05
1.05857e-05
5.17445e-07
9.47295e-07
9.47223e-07
9.47143e-07
9.4711e-07
1.05862e-05
1.05848e-05
5.27571e-07
6.7527e-07
5.17366e-07
5.17414e-07
5.27589e-07
6.75237e-07
5.17365e-07
7.26866e-07
4.05086e-06
7.26816e-07
4.05123e-06
5.27578e-07
5.17367e-07
6.75323e-07
5.17414e-07
5.27591e-07
5.17366e-07
6.75268e-07
7.26774e-07
4.051e-06
4.05081e-06
7.26844e-07
5.27584e-07
5.17409e-07
6.7524e-07
5.17361e-07
6.75268e-07
5.17361e-07
5.27578e-07
7.26827e-07
4.05119e-06
4.05097e-06
7.26859e-07
5.2759e-07
5.17409e-07
5.17361e-07
6.75267e-07
5.17361e-07
6.75331e-07
5.27579e-07
7.26911e-07
4.05038e-06
7.26861e-07
4.05073e-06
5.27579e-07
5.17366e-07
6.75209e-07
5.17414e-07
5.27592e-07
5.17364e-07
6.75183e-07
7.26909e-07
4.0506e-06
7.26869e-07
4.05096e-06
5.27592e-07
5.17412e-07
6.75201e-07
5.17362e-07
6.75228e-07
5.17364e-07
5.2758e-07
7.26917e-07
4.05069e-06
4.05046e-06
7.26904e-07
5.27589e-07
5.17409e-07
5.17361e-07
6.75187e-07
5.17361e-07
6.75212e-07
5.2758e-07
7.26907e-07
4.05092e-06
4.0507e-06
7.26905e-07
9.47295e-07
9.46977e-07
5.17436e-07
9.47448e-07
9.47155e-07
1.05852e-05
1.05872e-05
1.05882e-05
1.05869e-05
5.17445e-07
9.4742e-07
9.47156e-07
9.47297e-07
9.47054e-07
1.0587e-05
1.05857e-05
5.27582e-07
5.17367e-07
6.7525e-07
5.17414e-07
5.27597e-07
5.17366e-07
6.7522e-07
7.26959e-07
4.05063e-06
7.26918e-07
4.051e-06
7.2696e-07
4.05071e-06
7.27023e-07
4.05108e-06
5.27593e-07
5.17412e-07
5.17362e-07
6.75185e-07
5.17364e-07
6.75183e-07
5.27581e-07
5.27592e-07
5.17409e-07
5.17361e-07
6.75225e-07
5.17361e-07
6.7525e-07
5.27583e-07
7.26961e-07
4.05095e-06
4.05074e-06
7.2691e-07
7.2695e-07
4.05103e-06
4.05082e-06
7.26937e-07
1.05853e-05
1.05873e-05
1.05858e-05
1.05879e-05
5.17447e-07
9.47174e-07
9.47291e-07
9.4706e-07
9.47173e-07
1.05871e-05
1.05858e-05
1.05876e-05
1.05863e-05
1.05845e-05
1.05866e-05
1.05855e-05
1.05876e-05
9.4698e-07
9.47098e-07
5.17436e-07
9.47152e-07
9.47284e-07
1.05863e-05
1.0585e-05
1.05874e-05
1.05861e-05
5.17445e-07
9.47139e-07
9.47299e-07
9.4704e-07
9.47191e-07
7.26904e-07
4.05031e-06
7.26869e-07
4.05067e-06
5.27574e-07
6.752e-07
5.17366e-07
5.17414e-07
5.27593e-07
6.75171e-07
5.17365e-07
5.27579e-07
6.75235e-07
5.17367e-07
5.17414e-07
5.27595e-07
6.75211e-07
5.17366e-07
7.26889e-07
4.0505e-06
4.05031e-06
7.26912e-07
7.26906e-07
4.05064e-06
4.05042e-06
7.26902e-07
5.27588e-07
5.17409e-07
6.75171e-07
5.17361e-07
6.75199e-07
5.17361e-07
5.27583e-07
5.27592e-07
5.17409e-07
6.75211e-07
5.17361e-07
6.75238e-07
5.17361e-07
5.27583e-07
9.47138e-07
9.47124e-07
5.17436e-07
9.47301e-07
9.47275e-07
1.05843e-05
1.05865e-05
1.05871e-05
1.05857e-05
5.17445e-07
9.47295e-07
9.47223e-07
9.47143e-07
9.4711e-07
1.05862e-05
1.05848e-05
5.27571e-07
6.75269e-07
5.17366e-07
5.17414e-07
5.27588e-07
6.75237e-07
5.17365e-07
7.26866e-07
4.05086e-06
7.26818e-07
4.05123e-06
5.27578e-07
5.17367e-07
6.75323e-07
5.17414e-07
5.27591e-07
5.17366e-07
6.75268e-07
7.26774e-07
4.051e-06
4.05081e-06
7.26844e-07
5.27584e-07
5.17409e-07
6.75242e-07
5.17361e-07
6.75269e-07
5.17361e-07
5.27578e-07
7.26828e-07
4.05119e-06
4.05097e-06
7.26857e-07
5.2759e-07
5.17409e-07
5.17361e-07
6.75267e-07
5.17361e-07
6.75331e-07
5.27579e-07
7.26911e-07
4.05038e-06
7.26861e-07
4.05073e-06
5.27579e-07
5.17367e-07
6.75209e-07
5.17414e-07
5.27593e-07
5.17366e-07
6.75182e-07
7.2691e-07
4.0506e-06
7.26873e-07
4.05096e-06
5.27591e-07
5.17412e-07
6.75201e-07
5.17362e-07