/*--------------------------------*- C++ -*----------------------------------*\
| =========                 |                                                 |
| \\      /  F ield         | OpenFOAM: The Open Source CFD Toolbox           |
|  \\    /   O peration     | Version:  2206                                  |
|   \\  /    A nd           | Website:  www.openfoam.com                      |
|    \\/     M anipulation  |                                                 |
\*---------------------------------------------------------------------------*/
FoamFile
{
    version     2.0;
    format      ascii;
    arch        "LSB;label=32;scalar=64";
    class       volScalarField;
    location    "1.5";
    object      epsilon;
}
// * * * * * * * * * * * * * * * * * * * * * * * * * * * * * * * * * * * * * //

dimensions      [0 2 -3 0 0 0 0];

internalField   nonuniform List<scalar> 
28755
(
5.17495e-07
5.19768e-07
5.19769e-07
5.70821e-07
5.17495e-07
5.19768e-07
5.19769e-07
5.70809e-07
5.17495e-07
5.19759e-07
5.19767e-07
5.70761e-07
5.17495e-07
5.19759e-07
5.19764e-07
5.70782e-07
5.17495e-07
5.19766e-07
5.19764e-07
5.70796e-07
5.17495e-07
5.19766e-07
5.19765e-07
5.70824e-07
5.17495e-07
5.19758e-07
5.19767e-07
5.70774e-07
5.17495e-07
5.19761e-07
5.19762e-07
5.70784e-07
5.17495e-07
5.19768e-07
5.19768e-07
5.70814e-07
5.17496e-07
5.19761e-07
5.1977e-07
5.70808e-07
5.1784e-07
5.19896e-07
5.19897e-07
5.72399e-07
6.70241e-07
7.26063e-07
7.26111e-07
6.49126e-07
5.66862e-07
5.1976e-07
5.19768e-07
5.66871e-07
5.19762e-07
5.19764e-07
5.1977e-07
5.19766e-07
5.66894e-07
5.19769e-07
5.19771e-07
5.6688e-07
5.70773e-07
5.66848e-07
5.19763e-07
5.19766e-07
5.19761e-07
5.19771e-07
5.70786e-07
5.66837e-07
5.19772e-07
5.19767e-07
5.19763e-07
5.19769e-07
5.19761e-07
5.19766e-07
5.19765e-07
5.70813e-07
5.66869e-07
5.19762e-07
5.19762e-07
5.1977e-07
5.66863e-07
5.70762e-07
5.66834e-07
5.19763e-07
5.19766e-07
5.19765e-07
5.19771e-07
5.70766e-07
5.66826e-07
5.19772e-07
5.19768e-07
5.19766e-07
5.19766e-07
5.19761e-07
5.19768e-07
5.19768e-07
5.70803e-07
5.66851e-07
5.19762e-07
5.19765e-07
5.19768e-07
5.66845e-07
5.70753e-07
5.66843e-07
5.19767e-07
5.19768e-07
5.19765e-07
5.19771e-07
5.70786e-07
5.66833e-07
5.19768e-07
5.19772e-07
5.19766e-07
5.19766e-07
5.19766e-07
5.19768e-07
5.19768e-07
5.70794e-07
5.66863e-07
5.19765e-07
5.19766e-07
5.19768e-07
5.66857e-07
5.70781e-07
5.66868e-07
5.19763e-07
5.19765e-07
5.1976e-07
5.19768e-07
5.7079e-07
5.66857e-07
5.19767e-07
5.19765e-07
5.19762e-07
5.19764e-07
5.19767e-07
5.1977e-07
5.19763e-07
5.70819e-07
5.66896e-07
5.19764e-07
5.19766e-07
5.1977e-07
5.66869e-07
5.70767e-07
5.66867e-07
5.19765e-07
5.19767e-07
5.19762e-07
5.19771e-07
5.70779e-07
5.66852e-07
5.1977e-07
5.19765e-07
5.19761e-07
5.19765e-07
5.19761e-07
5.19769e-07
5.19766e-07
5.70828e-07
5.66885e-07
5.19766e-07
5.19768e-07
5.19765e-07
5.66876e-07
5.70773e-07
5.6685e-07
5.19764e-07
5.19768e-07
5.19762e-07
5.19767e-07
5.7078e-07
5.6685e-07
5.19771e-07
5.19765e-07
5.19766e-07
5.19765e-07
5.19763e-07
5.19769e-07
5.1977e-07
5.70834e-07
5.66867e-07
5.19762e-07
5.19768e-07
5.19767e-07
5.6686e-07
5.70766e-07
5.66859e-07
5.19767e-07
5.19768e-07
5.19761e-07
5.19767e-07
5.70802e-07
5.66838e-07
5.19768e-07
5.19769e-07
5.19766e-07
5.19765e-07
5.19767e-07
5.19769e-07
5.19769e-07
5.70825e-07
5.66863e-07
5.19765e-07
5.19767e-07
5.19765e-07
5.66847e-07
5.70784e-07
5.66861e-07
5.19764e-07
5.1977e-07
5.1976e-07
5.19768e-07
5.70772e-07
5.66858e-07
5.19762e-07
5.19765e-07
5.19765e-07
5.19764e-07
5.19765e-07
5.1977e-07
5.19761e-07
5.70822e-07
5.66876e-07
5.19764e-07
5.19772e-07
5.19771e-07
5.66873e-07
5.70784e-07
5.66846e-07
5.19763e-07
5.19766e-07
5.19764e-07
5.19764e-07
5.70773e-07
5.66852e-07
5.19767e-07
5.19767e-07
5.19761e-07
5.19768e-07
5.19761e-07
5.19765e-07
5.19768e-07
5.70802e-07
5.66866e-07
5.19762e-07
5.19766e-07
5.19768e-07
5.66873e-07
5.70812e-07
5.67013e-07
5.19761e-07
5.19767e-07
5.19801e-07
5.19799e-07
5.70765e-07
5.67e-07
5.19765e-07
5.1977e-07
5.19799e-07
5.19806e-07
5.19767e-07
5.19797e-07
5.19805e-07
5.70798e-07
5.67016e-07
5.19759e-07
5.19804e-07
5.19799e-07
5.67012e-07
5.724e-07
6.27668e-07
5.19895e-07
5.199e-07
6.00991e-07
6.00973e-07
5.72389e-07
6.27676e-07
5.19898e-07
5.19903e-07
6.00984e-07
6.00973e-07
5.19901e-07
6.00986e-07
6.00982e-07
5.72405e-07
6.2771e-07
5.19898e-07
6.00985e-07
6.00965e-07
6.2768e-07
6.49094e-07
7.26076e-07
7.26106e-07
6.49104e-07
7.26052e-07
7.26159e-07
6.70214e-07
6.70236e-07
6.70253e-07
7.26065e-07
6.4915e-07
7.26065e-07
5.01972e-06
5.17495e-07
5.17495e-07
5.17495e-07
5.17495e-07
5.70506e-07
5.19774e-07
7.88063e-07
5.17538e-07
5.66885e-07
9.11163e-07
9.11216e-07
7.6506e-07
2.94194e-06
6.92378e-07
2.9222e-06
5.04867e-06
5.01975e-06
7.65025e-07
2.9422e-06
6.92395e-07
2.92244e-06
5.17495e-07
5.17495e-07
5.17495e-07
5.17495e-07
5.17496e-07
5.17495e-07
5.17495e-07
5.70517e-07
6.89982e-07
5.17529e-07
5.19768e-07
5.60978e-07
7.88128e-07
5.17529e-07
5.04891e-06
5.02002e-06
5.70522e-07
5.17529e-07
6.90002e-07
5.19762e-07
5.60976e-07
5.17529e-07
7.88174e-07
8.47202e-07
8.47274e-07
5.66863e-07
9.11208e-07
9.11271e-07
7.65114e-07
2.94195e-06
6.92379e-07
2.9222e-06
5.04877e-06
5.01982e-06
7.65139e-07
2.94222e-06
6.92382e-07
2.92246e-06
5.17495e-07
5.17495e-07
5.17495e-07
5.17495e-07
5.17495e-07
5.17495e-07
5.17496e-07
5.70494e-07
6.89965e-07
5.17529e-07
5.19767e-07
5.60945e-07
7.88156e-07
5.17529e-07
5.04902e-06
5.02012e-06
5.70504e-07
5.17529e-07
6.89992e-07
5.19761e-07
5.60961e-07
5.17529e-07
7.88198e-07
8.47214e-07
8.47283e-07
5.66865e-07
9.11342e-07
9.11367e-07
7.65125e-07
2.94197e-06
6.92377e-07
2.92221e-06
5.04877e-06
5.01985e-06
7.65269e-07
2.94224e-06
6.92395e-07
2.92244e-06
5.17495e-07
5.17496e-07
5.17495e-07
5.17495e-07
5.17495e-07
5.17495e-07
5.17495e-07
5.70485e-07
6.89963e-07
5.17529e-07
5.19765e-07
5.60962e-07
7.88168e-07
5.17529e-07
5.04914e-06
5.02014e-06
5.70488e-07
5.17529e-07
6.89976e-07
5.19761e-07
5.60951e-07
5.17529e-07
7.88216e-07
8.4721e-07
8.47278e-07
5.6686e-07
9.11321e-07
9.11365e-07
7.65183e-07
2.94197e-06
6.92375e-07
2.9222e-06
5.04877e-06
5.01983e-06
7.65095e-07
2.94222e-06
6.92398e-07
2.92245e-06
5.17495e-07
5.17495e-07
5.17495e-07
5.17495e-07
5.17495e-07
5.17495e-07
5.17495e-07
5.7049e-07
6.89979e-07
5.17529e-07
5.19767e-07
5.60961e-07
7.88131e-07
5.17529e-07
5.04896e-06
5.02006e-06
5.705e-07
5.17529e-07
6.90004e-07
5.19761e-07
5.60973e-07
5.17529e-07
7.88175e-07
8.4722e-07
8.47284e-07
5.66865e-07
9.11347e-07
9.11341e-07
7.65032e-07
2.94193e-06
6.92389e-07
2.92219e-06
5.04866e-06
5.01975e-06
7.65123e-07
2.94222e-06
6.92391e-07
2.92244e-06
5.17495e-07
5.17495e-07
5.17495e-07
5.17495e-07
5.17495e-07
5.17495e-07
5.17495e-07
5.70499e-07
6.89984e-07
5.17529e-07
5.19768e-07
5.60978e-07
7.88121e-07
5.17529e-07
5.04896e-06
5.02005e-06
5.7051e-07
5.17529e-07
6.9e-07
5.19761e-07
5.61001e-07
5.17529e-07
7.88156e-07
8.47214e-07
8.47282e-07
5.66879e-07
9.11223e-07
9.11222e-07
7.65084e-07
2.94195e-06
6.92375e-07
2.9222e-06
5.0487e-06
5.01979e-06
7.65054e-07
2.94222e-06
6.92394e-07
2.92245e-06
5.17495e-07
5.17495e-07
5.17495e-07
5.17495e-07
5.17495e-07
5.17495e-07
5.17496e-07
5.70513e-07
6.89993e-07
5.17529e-07
5.19771e-07
5.60985e-07
7.88112e-07
5.17529e-07
5.04891e-06
5.02002e-06
5.70526e-07
5.17529e-07
6.90013e-07
5.19761e-07
5.60987e-07
5.17529e-07
7.88152e-07
8.4721e-07
8.47279e-07
5.66875e-07
9.11165e-07
9.11225e-07
7.65114e-07
2.94195e-06
6.9238e-07
2.9222e-06
5.04871e-06
5.01979e-06
7.65142e-07
2.94223e-06
6.92385e-07
2.92245e-06
5.17495e-07
5.17496e-07
5.17495e-07
5.17495e-07
5.17495e-07
5.17495e-07
5.17495e-07
5.70503e-07
6.89985e-07
5.17529e-07
5.19769e-07
5.60952e-07
7.88147e-07
5.17529e-07
5.04903e-06
5.02012e-06
5.70509e-07
5.17529e-07
6.89986e-07
5.1976e-07
5.60956e-07
5.17529e-07
7.88207e-07
8.47209e-07
8.47281e-07
5.66855e-07
9.11312e-07
9.11345e-07
7.65135e-07
2.94196e-06
6.92377e-07
2.9222e-06
5.04873e-06
5.0198e-06
7.65171e-07
2.94222e-06
6.92396e-07
2.92244e-06
5.17495e-07
5.17495e-07
5.17495e-07
5.17495e-07
5.17495e-07
5.17495e-07
5.17495e-07
5.70495e-07
6.89978e-07
5.17529e-07
5.19769e-07
5.60961e-07
7.88157e-07
5.17529e-07
5.049e-06
5.02008e-06
5.70504e-07
5.17529e-07
6.90003e-07
5.1976e-07
5.6097e-07
5.17529e-07
7.88177e-07
8.4722e-07
8.47285e-07
5.66863e-07
9.11324e-07
9.11336e-07
7.65041e-07
2.94194e-06
6.92382e-07
2.9222e-06
5.04868e-06
5.01978e-06
7.65095e-07
2.94221e-06
6.92393e-07
2.92243e-06
5.17495e-07
5.17495e-07
5.17495e-07
5.17496e-07
5.17495e-07
5.17496e-07
5.17496e-07
5.70496e-07
6.89981e-07
5.17529e-07
5.19768e-07
5.60967e-07
7.88126e-07
5.17529e-07
5.04898e-06
5.02006e-06
5.70509e-07
5.17529e-07
6.89999e-07
5.19762e-07
5.60981e-07
5.17529e-07
7.88177e-07
8.47218e-07
8.47284e-07
5.66869e-07
9.11258e-07
9.11305e-07
7.65105e-07
2.94196e-06
6.9238e-07
2.9222e-06
5.04874e-06
5.01991e-06
7.65085e-07
2.9422e-06
6.9239e-07
2.92242e-06
5.17496e-07
5.17496e-07
5.17496e-07
5.17562e-07
5.17561e-07
5.17562e-07
5.17562e-07
5.70475e-07
6.89985e-07
5.17528e-07
5.19768e-07
5.60981e-07
7.88147e-07
5.17528e-07
5.04896e-06
5.02016e-06
5.70487e-07
5.17528e-07
6.90009e-07
5.19766e-07
5.60991e-07
5.17528e-07
7.88172e-07
8.47217e-07
8.47283e-07
5.66875e-07
9.11307e-07
9.11316e-07
7.65737e-07
2.94217e-06
6.92348e-07
2.92179e-06
5.04835e-06
5.02731e-06
7.65759e-07
2.94245e-06
6.92384e-07
2.92199e-06
5.17844e-07
5.17839e-07
5.1784e-07
5.72673e-07
5.72675e-07
5.72683e-07
5.72651e-07
5.69052e-07
6.90132e-07
5.17776e-07
5.20843e-07
5.60953e-07
7.90336e-07
5.18657e-07
5.04869e-06
5.02759e-06
5.68933e-07
5.17779e-07
6.90151e-07
5.2085e-07
5.61082e-07
5.18664e-07
7.90328e-07
8.47315e-07
8.47387e-07
5.70233e-07
9.12919e-07
9.12937e-07
7.00438e-06
5.51576e-06
7.46658e-07
3.80861e-06
6.26799e-06
4.1419e-06
7.0023e-06
5.51523e-06
7.46589e-07
3.80476e-06
7.63566e-07
5.86896e-07
5.869e-07
8.94316e-07
5.5773e-07
7.66206e-07
7.66203e-07
3.62721e-06
8.35073e-07
6.57373e-07
1.43536e-06
5.88848e-07
5.02178e-06
7.79316e-07
6.26684e-06
4.14663e-06
3.62735e-06
6.5741e-07
8.35044e-07
1.43546e-06
5.8886e-07
7.79318e-07
5.02582e-06
1.24319e-06
1.24271e-06
2.03036e-06
4.18664e-06
4.18768e-06
5.01959e-06
5.04853e-06
5.01984e-06
5.04877e-06
5.70771e-07
9.11182e-07
9.11197e-07
8.47195e-07
8.47265e-07
2.92225e-06
5.19775e-07
7.88197e-07
6.92383e-07
2.92219e-06
2.94193e-06
7.65026e-07
6.92384e-07
2.92225e-06
2.94202e-06
7.65038e-07
5.6099e-07
5.19768e-07
7.88152e-07
5.17529e-07
6.89998e-07
5.17529e-07
5.70504e-07
5.6099e-07
5.19771e-07
7.88206e-07
5.17529e-07
6.90051e-07
5.17529e-07
5.70504e-07
5.66886e-07
9.11159e-07
9.1109e-07
5.01956e-06
5.01972e-06
5.04861e-06
5.70796e-07
9.11144e-07
9.11085e-07
8.47259e-07
8.47164e-07
5.01955e-06
5.04843e-06
6.92397e-07
2.92243e-06
2.94219e-06
7.65067e-07
5.60992e-07
5.1977e-07
7.88213e-07
5.17529e-07
6.90039e-07
5.17529e-07
5.70516e-07
6.92399e-07
2.92255e-06
2.94232e-06
7.6507e-07
5.60996e-07
5.1977e-07
5.17529e-07
7.88258e-07
5.17529e-07
6.90086e-07
5.70514e-07
7.65047e-07
2.92227e-06
5.70507e-07
5.19764e-07
5.17539e-07
7.88156e-07
7.65038e-07
2.9224e-06
5.61004e-07
5.19761e-07
7.88092e-07
5.17529e-07
6.89997e-07
5.17529e-07
5.70517e-07
6.92388e-07
2.92227e-06
2.94201e-06
7.64996e-07
5.61006e-07
5.19772e-07
5.17529e-07
7.88171e-07
5.17529e-07
6.90023e-07
5.70514e-07
6.92387e-07
2.92241e-06
2.94215e-06
7.65002e-07
5.02e-06
5.0489e-06
5.70814e-07
9.11257e-07
9.11215e-07
8.4732e-07
8.4721e-07
5.01976e-06
5.04861e-06
5.60989e-07
5.19762e-07
5.17529e-07
7.88135e-07
5.17529e-07
6.90022e-07
5.70523e-07
5.60988e-07
5.19761e-07
5.17529e-07
7.88254e-07
5.17529e-07
6.90057e-07
5.70524e-07
6.92391e-07
2.92243e-06
2.94217e-06
7.65026e-07
6.92389e-07
2.92246e-06
2.94222e-06
7.65031e-07
5.01974e-06
5.01991e-06
5.70802e-07
9.1114e-07
9.11232e-07
8.47205e-07
8.47275e-07
5.01974e-06
5.04865e-06
5.01991e-06
5.04878e-06
5.04853e-06
5.01964e-06
5.04877e-06
5.01989e-06
8.47194e-07
8.47263e-07
5.66867e-07
9.11218e-07
9.11256e-07
5.01966e-06
5.04858e-06
5.01992e-06
5.04881e-06
5.70767e-07
9.11266e-07
9.1134e-07
8.47197e-07
8.47269e-07
7.6507e-07
2.94202e-06
6.92377e-07
2.92225e-06
5.70505e-07
6.9e-07
5.17529e-07
5.19761e-07
5.60977e-07
7.88173e-07
5.17529e-07
5.70503e-07
6.90036e-07
5.17529e-07
5.19769e-07
5.60978e-07
7.88252e-07
5.17529e-07
6.92375e-07
2.9222e-06
2.94195e-06
7.65112e-07
6.92376e-07
2.92226e-06
2.94202e-06
7.65112e-07
5.60961e-07
5.19768e-07
7.88173e-07
5.17529e-07
6.89988e-07
5.17529e-07
5.70492e-07
5.60963e-07
5.19765e-07
7.88259e-07
5.17529e-07
6.90027e-07
5.17529e-07
5.70493e-07
8.47253e-07
8.4716e-07
5.66867e-07
9.1119e-07
9.1114e-07
5.04847e-06
5.0196e-06
5.01979e-06
5.04874e-06
5.70801e-07
9.11267e-07
9.11247e-07
8.47254e-07
8.47164e-07
5.01966e-06
5.04856e-06
5.70516e-07
6.90035e-07
5.17529e-07
5.19763e-07
5.60987e-07
7.88232e-07
5.17529e-07
7.65034e-07
2.94232e-06
6.92396e-07
2.92256e-06
5.70516e-07
5.17529e-07
6.90073e-07
5.19768e-07
5.60993e-07
5.17529e-07
7.88278e-07
6.92382e-07
2.92245e-06
2.94221e-06
7.65073e-07
5.60958e-07
5.19769e-07
7.88258e-07
5.17529e-07
6.90032e-07
5.17529e-07
5.70511e-07
6.92384e-07
2.92256e-06
2.94232e-06
7.65055e-07
5.60962e-07
5.19772e-07
5.17529e-07
7.88275e-07
5.17529e-07
6.90069e-07
5.70508e-07
7.65033e-07
2.94201e-06
6.92376e-07
2.92228e-06
5.70517e-07
5.17529e-07
6.90009e-07
5.19765e-07
5.60984e-07
5.17529e-07
7.88199e-07
7.65034e-07
2.94215e-06
6.92379e-07
2.92241e-06
5.60953e-07
5.19764e-07
7.88144e-07
5.17529e-07
6.89971e-07
5.17529e-07
5.70498e-07
6.92372e-07
2.92228e-06
2.94202e-06
7.65104e-07
5.60956e-07
5.19771e-07
5.17529e-07
7.88205e-07
5.17529e-07
6.90002e-07
5.70496e-07
6.92373e-07
2.92242e-06
2.94216e-06
7.65109e-07
8.47316e-07
8.47204e-07
5.66893e-07
9.1127e-07
9.11243e-07
5.04865e-06
5.0198e-06
5.02007e-06
5.04895e-06
5.70801e-07
9.11327e-07
9.113e-07
8.47316e-07
8.47204e-07
5.01982e-06
5.04873e-06
5.70522e-07
5.17529e-07
6.90044e-07
5.19767e-07
5.60977e-07
5.17529e-07
7.88274e-07
7.65055e-07
2.94217e-06
6.92387e-07
2.92243e-06
7.65068e-07
2.94222e-06
6.92386e-07
2.92247e-06
5.6096e-07
5.19764e-07
5.17529e-07
7.8819e-07
5.17529e-07
6.89996e-07
5.70504e-07
5.60958e-07
5.19762e-07
5.17529e-07
7.8828e-07
5.17529e-07
6.90035e-07
5.70499e-07
6.92384e-07
2.92243e-06
2.94218e-06
7.65124e-07
6.92384e-07
2.92247e-06
2.94224e-06
7.65129e-07
5.04869e-06
5.0198e-06
5.04884e-06
5.01995e-06
5.70786e-07
9.11304e-07
9.11343e-07
8.47205e-07
8.47275e-07
5.01985e-06
5.04876e-06
5.01999e-06
5.04891e-06
5.0486e-06
5.01967e-06
5.04883e-06
5.01995e-06
8.47198e-07
8.47272e-07
5.66856e-07
9.11284e-07
9.11337e-07
5.0197e-06
5.04861e-06
5.01996e-06
5.04892e-06
5.70761e-07
9.11324e-07
9.11365e-07
8.472e-07
8.47272e-07
7.65121e-07
2.94204e-06
6.92376e-07
2.92226e-06
5.70487e-07
6.89991e-07
5.17529e-07
5.19762e-07
5.6096e-07
7.88181e-07
5.17529e-07
5.7049e-07
6.90024e-07
5.17529e-07
5.19766e-07
5.60957e-07
7.88281e-07
5.17529e-07
6.92376e-07
2.9222e-06
2.94195e-06
7.65132e-07
6.92375e-07
2.92226e-06
2.94203e-06
7.65155e-07
5.60951e-07
5.19765e-07
7.88169e-07
5.17529e-07
6.89984e-07
5.17529e-07
5.70481e-07
5.60949e-07
5.1977e-07
7.88244e-07
5.17529e-07
6.90029e-07
5.17529e-07
5.7048e-07
8.4726e-07
8.47168e-07
5.66839e-07
9.11334e-07
9.11256e-07
5.0486e-06
5.01968e-06
5.01982e-06
5.04876e-06
5.70765e-07
9.11296e-07
9.11255e-07
8.47264e-07
8.47168e-07
5.01967e-06
5.04864e-06
5.70505e-07
6.9003e-07
5.17529e-07
5.19761e-07
5.60943e-07
7.8826e-07
5.17529e-07
7.65147e-07
2.94235e-06
6.92379e-07
2.92257e-06
5.70505e-07
5.17529e-07
6.90049e-07
5.19768e-07
5.60942e-07
5.17529e-07
7.88341e-07
6.92382e-07
2.92245e-06
2.94225e-06
7.65263e-07
5.60929e-07
5.19764e-07
7.88282e-07
5.17529e-07
6.90015e-07
5.17529e-07
5.70491e-07
6.92382e-07
2.92256e-06
2.94235e-06
7.65271e-07
5.60932e-07
5.19765e-07
5.17529e-07
7.88345e-07
5.17529e-07
6.90048e-07
5.70487e-07
7.65153e-07
2.94204e-06
6.92375e-07
2.92227e-06
5.70495e-07
5.17529e-07
6.9e-07
5.19761e-07
5.6095e-07
5.17529e-07
7.88235e-07
7.65147e-07
2.94218e-06
6.92376e-07
2.92242e-06
5.60938e-07
5.19762e-07
7.88158e-07
5.17529e-07
6.89965e-07
5.17529e-07
5.70484e-07
6.92376e-07
2.92227e-06
2.94204e-06
7.65255e-07
5.6094e-07
5.19763e-07
5.17529e-07
7.88217e-07
5.17529e-07
6.89997e-07
5.70483e-07
6.92376e-07
2.92241e-06
2.94217e-06
7.65252e-07
8.47319e-07
8.47206e-07
5.66873e-07
9.11407e-07
9.11296e-07
5.04876e-06
5.01983e-06
5.02014e-06
5.0491e-06
5.708e-07
9.11409e-07
9.11337e-07
8.47321e-07
8.47203e-07
5.01987e-06
5.04881e-06
5.70504e-07
5.17529e-07
6.90041e-07
5.19764e-07
5.60957e-07
5.17529e-07
7.88298e-07
7.65138e-07
2.94218e-06
6.92387e-07
2.92243e-06
7.65138e-07
2.94225e-06
6.92386e-07
2.92247e-06
5.60943e-07
5.19771e-07
5.17529e-07
7.88207e-07
5.17529e-07
6.89978e-07
5.70497e-07
5.60942e-07
5.19769e-07
5.17529e-07
7.88279e-07
5.17529e-07
6.90036e-07
5.70493e-07
6.92381e-07
2.92243e-06
2.94219e-06
7.65224e-07
6.92381e-07
2.92246e-06
2.94225e-06
7.65238e-07
5.0488e-06
5.01987e-06
5.04893e-06
5.01999e-06
5.70782e-07
9.11284e-07
9.11313e-07
8.47211e-07
8.47279e-07
5.01986e-06
5.04882e-06
5.02e-06
5.04893e-06
5.04863e-06
5.01973e-06
5.04894e-06
5.01994e-06
8.47204e-07
8.47272e-07
5.66837e-07
9.11372e-07
9.11362e-07
5.01972e-06
5.04861e-06
5.01992e-06
5.04888e-06
5.70753e-07
9.11366e-07
9.11318e-07
8.4721e-07
8.47272e-07
7.65123e-07
2.94204e-06
6.92377e-07
2.92227e-06
5.70484e-07
6.89984e-07
5.17529e-07
5.19762e-07
5.60949e-07
7.88187e-07
5.17529e-07
5.70486e-07
6.90028e-07
5.17529e-07
5.19771e-07
5.6095e-07
7.88262e-07
5.17529e-07
6.92373e-07
2.92221e-06
2.94197e-06
7.6514e-07
6.92371e-07
2.92227e-06
2.94205e-06
7.65154e-07
5.60939e-07
5.19766e-07
7.88185e-07
5.17529e-07
6.89998e-07
5.17529e-07
5.70484e-07
5.60936e-07
5.19772e-07
7.88277e-07
5.17529e-07
6.9003e-07
5.17529e-07
5.70484e-07
8.47263e-07
8.47169e-07
5.66839e-07
9.11341e-07
9.11273e-07
5.04865e-06
5.01966e-06
5.01986e-06
5.04877e-06
5.70748e-07
9.11382e-07
9.11254e-07
8.47268e-07
8.4717e-07
5.01965e-06
5.04861e-06
5.70484e-07
6.90017e-07
5.17529e-07
5.19763e-07
5.60948e-07
7.8828e-07
5.17529e-07
7.65266e-07
2.94236e-06
6.92395e-07
2.92255e-06
5.70482e-07
5.17529e-07
6.90042e-07
5.19765e-07
5.60953e-07
5.17529e-07
7.88347e-07
6.92399e-07
2.92244e-06
2.94223e-06
7.65184e-07
5.60966e-07
5.19765e-07
7.88249e-07
5.17529e-07
6.90033e-07
5.17529e-07
5.70491e-07
6.92398e-07
2.92256e-06
2.94235e-06
7.65183e-07
5.60965e-07
5.19766e-07
5.17529e-07
7.88309e-07
5.17529e-07
6.90066e-07
5.70492e-07
7.65194e-07
2.94204e-06
6.92388e-07
2.92227e-06
5.70485e-07
5.17529e-07
6.8999e-07
5.19769e-07
5.60962e-07
5.17529e-07
7.88217e-07
7.65173e-07
2.94217e-06
6.92388e-07
2.92241e-06
5.60959e-07
5.19765e-07
7.88162e-07
5.17529e-07
6.89976e-07
5.17529e-07
5.70488e-07
6.92384e-07
2.92227e-06
2.94204e-06
7.65164e-07
5.60955e-07
5.19763e-07
5.17529e-07
7.88213e-07
5.17529e-07
6.89995e-07
5.70485e-07
6.92381e-07
2.92242e-06
2.94218e-06
7.65162e-07
8.47321e-07
8.47208e-07
5.66861e-07
9.11443e-07
9.11402e-07
5.04886e-06
5.01989e-06
5.0201e-06
5.04907e-06
5.70794e-07
9.11447e-07
9.11363e-07
8.47329e-07
8.47215e-07
5.01985e-06
5.04883e-06
5.70488e-07
5.17529e-07
6.90025e-07
5.19767e-07
5.60954e-07
5.17529e-07
7.88299e-07
7.6522e-07
2.9422e-06
6.9239e-07
2.92243e-06
7.65222e-07
2.94225e-06
6.92392e-07
2.92246e-06
5.60953e-07
5.19767e-07
5.17529e-07
7.88203e-07
5.17529e-07
6.89992e-07
5.70489e-07
5.60949e-07
5.19769e-07
5.17529e-07
7.88293e-07
5.17529e-07
6.9003e-07
5.70484e-07
6.92391e-07
2.92243e-06
2.94221e-06
7.65224e-07
6.92389e-07
2.92246e-06
2.94226e-06
7.65222e-07
5.04886e-06
5.01987e-06
5.04901e-06
5.02002e-06
5.70783e-07
9.11342e-07
9.11379e-07
8.47215e-07
8.47282e-07
5.01988e-06
5.04884e-06
5.02001e-06
5.049e-06
5.04861e-06
5.01968e-06
5.04884e-06
5.0199e-06
8.4721e-07
8.47272e-07
5.66859e-07
9.11329e-07
9.11318e-07
5.01962e-06
5.04857e-06
5.01988e-06
5.04878e-06
5.70767e-07
9.11213e-07
9.1125e-07
8.47206e-07
8.47272e-07
7.65187e-07
2.94205e-06
6.92375e-07
2.92226e-06
5.70484e-07
6.89998e-07
5.17529e-07
5.19761e-07
5.6094e-07
7.88188e-07
5.17529e-07
5.70483e-07
6.90033e-07
5.17529e-07
5.19771e-07
5.60941e-07
7.88264e-07
5.17529e-07
6.92385e-07
2.92219e-06
2.94195e-06
7.65145e-07
6.92384e-07
2.92224e-06
2.94204e-06
7.65157e-07
5.60968e-07
5.19765e-07
7.88144e-07
5.17529e-07
6.90004e-07
5.17529e-07
5.70485e-07
5.60965e-07
5.19771e-07
7.88222e-07
5.17529e-07
6.90044e-07
5.17529e-07
5.70487e-07
8.4727e-07
8.47169e-07
5.66843e-07
9.11345e-07
9.11252e-07
5.04858e-06
5.01965e-06
5.01977e-06
5.04872e-06
5.70753e-07
9.11257e-07
9.11177e-07
8.47268e-07
8.47171e-07
5.01962e-06
5.04853e-06
5.70503e-07
6.90039e-07
5.17529e-07
5.19763e-07
5.60975e-07
7.88243e-07
5.17529e-07
7.65088e-07
2.94234e-06
6.92396e-07
2.92255e-06
5.70505e-07
5.17529e-07
6.90085e-07
5.19765e-07
5.60975e-07
5.17529e-07
7.88269e-07
6.92388e-07
2.92244e-06
2.94222e-06
7.65096e-07
5.60964e-07
5.19766e-07
7.88213e-07
5.17529e-07
6.90044e-07
5.17529e-07
5.70505e-07
6.92387e-07
2.92255e-06
2.94234e-06
7.65096e-07
5.60964e-07
5.19766e-07
5.17529e-07
7.88268e-07
5.17529e-07
6.90073e-07
5.70507e-07
7.65134e-07
2.94203e-06
6.92382e-07
2.92227e-06
5.70488e-07
5.17529e-07
6.90007e-07
5.19768e-07
5.6096e-07
5.17529e-07
7.88197e-07
7.65135e-07
2.94218e-06
6.92382e-07
2.92242e-06
5.60963e-07
5.19765e-07
7.88106e-07
5.17529e-07
6.89982e-07
5.17529e-07
5.70494e-07
6.92382e-07
2.92227e-06
2.94203e-06
7.65131e-07
5.60964e-07
5.19761e-07
5.17528e-07
7.88167e-07
5.17529e-07
6.90023e-07
5.70491e-07
6.92382e-07
2.9224e-06
2.94218e-06
7.65145e-07
8.4733e-07
8.47212e-07
5.66879e-07
9.11335e-07
9.11269e-07
5.04875e-06
5.01979e-06
5.02004e-06
5.04894e-06
5.7081e-07
9.1129e-07
9.11175e-07
8.47323e-07
8.47206e-07
5.01975e-06
5.04872e-06
5.70493e-07
5.17529e-07
6.90039e-07
5.19766e-07
5.60966e-07
5.17529e-07
7.88269e-07
7.65188e-07
2.94219e-06
6.92397e-07
2.92242e-06
7.65201e-07
2.94225e-06
6.92394e-07
2.92245e-06
5.60988e-07
5.19767e-07
5.17529e-07
7.88157e-07
5.17529e-07
6.90002e-07
5.70506e-07
5.60983e-07
5.19769e-07
5.17529e-07
7.8824e-07
5.17529e-07
6.90056e-07
5.70505e-07
6.92399e-07
2.92242e-06
2.94218e-06
7.65145e-07
6.92399e-07
2.92244e-06
2.94225e-06
7.65168e-07
5.0488e-06
5.01986e-06
5.04896e-06
5.01998e-06
5.70788e-07
9.11241e-07
9.1125e-07
8.47221e-07
8.47283e-07
5.01981e-06
5.04873e-06
5.01992e-06
5.04889e-06
5.04852e-06
5.01961e-06
5.04879e-06
5.01987e-06
8.47198e-07
8.47269e-07
5.66869e-07
9.11191e-07
9.11234e-07
5.01963e-06
5.04851e-06
5.01987e-06
5.04878e-06
5.70767e-07
9.11212e-07
9.11251e-07
8.47197e-07
8.47268e-07
7.65042e-07
2.94202e-06
6.92387e-07
2.92225e-06
5.70499e-07
6.90003e-07
5.17529e-07
5.19761e-07
5.60988e-07
7.88136e-07
5.17529e-07
5.70502e-07
6.90048e-07
5.17529e-07
5.19769e-07
5.60987e-07
7.88211e-07
5.17529e-07
6.92378e-07
2.9222e-06
2.94194e-06
7.65015e-07
6.92377e-07
2.92226e-06
2.94202e-06
7.65028e-07
5.60978e-07
5.19772e-07
7.8814e-07
5.17529e-07
6.90001e-07
5.17529e-07
5.70505e-07
5.60975e-07
5.19771e-07
7.88198e-07
5.17528e-07
6.90047e-07
5.17529e-07
5.70506e-07
8.47264e-07
8.47169e-07
5.66874e-07
9.11216e-07
9.11148e-07
5.04854e-06
5.01959e-06
5.01978e-06
5.04864e-06
5.70784e-07
9.11216e-07
9.11175e-07
8.47261e-07
8.47167e-07
5.01959e-06
5.04851e-06
5.70506e-07
6.90037e-07
5.17529e-07
5.19762e-07
5.60968e-07
7.88222e-07
5.17529e-07
7.6512e-07
2.94233e-06
6.92389e-07
2.92255e-06
5.70508e-07
5.17529e-07
6.9007e-07
5.19764e-07
5.60968e-07
5.17529e-07
7.88285e-07
6.92396e-07
2.92244e-06
2.94222e-06
7.65076e-07
5.60982e-07
5.19768e-07
7.88216e-07
5.17529e-07
6.90041e-07
5.17529e-07
5.7051e-07
6.92396e-07
2.92255e-06
2.94233e-06
7.6509e-07
5.60982e-07
5.19773e-07
5.17529e-07
7.88258e-07
5.17529e-07
6.90075e-07
5.70507e-07
7.6511e-07
2.94202e-06
6.92386e-07
2.92227e-06
5.70498e-07
5.17529e-07
6.90024e-07
5.19767e-07
5.60982e-07
5.17529e-07
7.88164e-07
7.65107e-07
2.94217e-06
6.92388e-07
2.9224e-06
5.60994e-07
5.1976e-07
7.88106e-07
5.17529e-07
6.8999e-07
5.17529e-07
5.70509e-07
6.92389e-07
2.92227e-06
2.94201e-06
7.65041e-07
5.60994e-07
5.1977e-07
5.17529e-07
7.8815e-07
5.17529e-07
6.90022e-07
5.70508e-07
6.92389e-07
2.92241e-06
2.94216e-06
7.6504e-07
8.47319e-07
8.472e-07
5.66894e-07
9.11302e-07
9.11203e-07
5.0487e-06
5.01975e-06
5.02003e-06
5.04895e-06
5.70809e-07
9.11305e-07
9.11218e-07
8.4732e-07
8.47204e-07
5.01976e-06
5.04865e-06
5.70507e-07
5.17529e-07
6.90063e-07
5.19767e-07
5.61003e-07
5.17529e-07
7.8821e-07
7.65029e-07
2.94216e-06
6.92398e-07
2.92242e-06
7.65044e-07
2.94223e-06
6.92401e-07
2.92245e-06
5.60996e-07
5.19765e-07
5.17529e-07
7.88127e-07
5.17529e-07
6.90013e-07
5.70521e-07
5.60996e-07
5.19762e-07
5.17529e-07
7.88213e-07
5.17529e-07
6.90064e-07
5.70517e-07
6.92391e-07
2.92243e-06
2.94217e-06
7.65002e-07
6.92392e-07
2.92246e-06
2.94222e-06
7.65008e-07
5.04871e-06
5.01979e-06
5.04882e-06
5.0199e-06
5.70799e-07
9.11184e-07
9.11215e-07
8.47211e-07
8.47279e-07
5.01977e-06
5.04866e-06
5.0199e-06
5.04878e-06
5.04854e-06
5.01965e-06
5.04877e-06
5.01989e-06
8.47199e-07
8.4727e-07
5.66862e-07
9.11244e-07
9.11267e-07
5.01964e-06
5.04856e-06
5.01991e-06
5.04878e-06
5.70773e-07
9.11242e-07
9.11292e-07
8.47199e-07
8.47271e-07
7.65101e-07
2.94204e-06
6.92373e-07
2.92225e-06
5.70499e-07
6.89998e-07
5.17528e-07
5.19761e-07
5.60963e-07
7.88159e-07
5.17529e-07
5.70498e-07
6.90035e-07
5.17529e-07
5.19769e-07
5.60961e-07
7.88252e-07
5.17529e-07
6.92378e-07
2.9222e-06
2.94195e-06
7.65094e-07
6.9238e-07
2.92226e-06
2.94203e-06
7.65109e-07
5.60966e-07
5.19765e-07
7.88162e-07
5.17529e-07
6.89996e-07
5.17529e-07
5.70497e-07
5.60968e-07
5.1977e-07
7.88247e-07
5.17529e-07
6.90041e-07
5.17529e-07
5.70498e-07
8.47263e-07
8.47168e-07
5.66859e-07
9.1126e-07
9.11176e-07
5.04847e-06
5.01962e-06
5.01978e-06
5.04871e-06
5.70782e-07
9.11266e-07
9.11204e-07
8.47262e-07
8.47169e-07
5.01963e-06
5.04852e-06
5.70516e-07
6.90043e-07
5.17529e-07
5.19762e-07
5.6098e-07
7.88222e-07
5.17529e-07
7.6505e-07
2.94233e-06
6.92394e-07
2.92256e-06
5.70515e-07
5.17529e-07
6.90082e-07
5.19768e-07
5.60985e-07
5.17529e-07
7.88279e-07
6.92385e-07
2.92245e-06
2.94223e-06
7.65072e-07
5.60965e-07
5.19764e-07
7.8824e-07
5.17529e-07
6.90037e-07
5.17529e-07
5.70515e-07
6.92386e-07
2.92256e-06
2.94232e-06
7.6506e-07
5.60971e-07
5.19775e-07
5.17529e-07
7.88294e-07
5.17529e-07
6.90066e-07
5.70516e-07
7.65032e-07
2.94202e-06
6.92382e-07
2.92228e-06
5.70515e-07
5.17529e-07
6.90028e-07
5.19773e-07
5.60988e-07
5.17529e-07
7.8817e-07
7.65016e-07
2.94215e-06
6.92382e-07
2.92241e-06
5.60968e-07
5.19763e-07
7.88129e-07
5.17529e-07
6.8999e-07
5.17529e-07
5.7051e-07
6.92376e-07
2.92228e-06
2.94202e-06
7.65052e-07
5.60969e-07
5.19762e-07
5.17529e-07
7.88195e-07
5.17529e-07
6.90004e-07
5.70509e-07
6.92375e-07
2.92242e-06
2.94215e-06
7.65049e-07
8.47321e-07
8.47205e-07
5.66892e-07
9.11283e-07
9.11216e-07
5.04862e-06
5.01978e-06
5.02007e-06
5.04892e-06
5.70792e-07
9.1131e-07
9.11252e-07
8.47315e-07
8.47203e-07
5.01982e-06
5.04867e-06
5.70524e-07
5.17529e-07
6.90063e-07
5.19768e-07
5.60986e-07
5.17529e-07
7.88242e-07
7.65012e-07
2.94217e-06
6.92386e-07
2.92243e-06
7.65001e-07
2.94222e-06
6.92386e-07
2.92247e-06
5.60967e-07
5.19771e-07
5.17529e-07
7.88185e-07
5.17529e-07
6.90003e-07
5.70521e-07
5.60963e-07
5.19769e-07
5.17529e-07
7.88269e-07
5.17529e-07
6.90044e-07
5.70516e-07
6.92381e-07
2.92244e-06
2.94217e-06
7.65075e-07
6.92379e-07
2.92247e-06
2.94223e-06
7.65083e-07
5.04866e-06
5.01977e-06
5.04877e-06
5.01992e-06
5.70798e-07
9.11235e-07
9.11304e-07
8.47203e-07
8.47274e-07
5.01983e-06
5.04871e-06
5.01997e-06
5.04885e-06
5.04858e-06
5.01966e-06
5.04882e-06
5.01993e-06
8.47199e-07
8.47271e-07
5.66849e-07
9.11277e-07
9.11319e-07
5.01967e-06
5.04858e-06
5.01991e-06
5.04885e-06
5.70763e-07
9.11296e-07
9.1132e-07
8.47201e-07
8.47272e-07
7.65119e-07
2.94203e-06
6.92379e-07
2.92226e-06
5.70495e-07
6.89995e-07
5.17529e-07
5.19765e-07
5.60967e-07
7.88191e-07
5.17529e-07
5.70496e-07
6.90038e-07
5.17529e-07
5.19769e-07
5.60967e-07
7.88252e-07
5.17529e-07
6.92378e-07
2.92221e-06
2.94195e-06
7.65089e-07
6.92378e-07
2.92226e-06
2.94204e-06
7.65104e-07
5.60962e-07
5.19765e-07
7.88164e-07
5.17529e-07
6.89995e-07
5.17529e-07
5.70489e-07
5.60962e-07
5.1977e-07
7.88256e-07
5.17529e-07
6.90029e-07
5.17529e-07
5.7049e-07
8.47262e-07
8.47171e-07
5.66853e-07
9.11264e-07
9.11245e-07
5.04854e-06
5.01966e-06
5.01982e-06
5.04875e-06
5.70774e-07
9.1133e-07
9.11246e-07
8.47262e-07
8.47172e-07
5.01966e-06
5.04859e-06
5.70507e-07
6.90035e-07
5.17529e-07
5.19763e-07
5.60952e-07
7.88268e-07
5.17529e-07
7.65144e-07
2.94234e-06
6.92384e-07
2.92256e-06
5.70506e-07
5.17529e-07
6.90051e-07
5.19768e-07
5.60953e-07
5.17529e-07
7.88326e-07
6.92387e-07
2.92244e-06
2.94223e-06
7.65186e-07
5.6095e-07
5.19764e-07
7.88249e-07
5.17529e-07
6.9003e-07
5.17529e-07
5.70497e-07
6.92389e-07
2.92256e-06
2.94234e-06
7.65186e-07
5.60954e-07
5.19774e-07
5.17529e-07
7.88306e-07
5.17529e-07
6.90056e-07
5.70493e-07
7.65078e-07
2.94203e-06
6.92373e-07
2.92228e-06
5.70505e-07
5.17529e-07
6.90003e-07
5.19773e-07
5.60957e-07
5.17529e-07
7.88223e-07
7.65083e-07
2.94216e-06
6.92374e-07
2.92243e-06
5.60938e-07
5.19763e-07
7.88159e-07
5.17529e-07
6.89978e-07
5.17529e-07
5.70492e-07
6.92369e-07
2.92228e-06
2.94204e-06
7.65166e-07
5.6094e-07
5.19761e-07
5.17529e-07
7.88221e-07
5.17529e-07
6.90002e-07
5.7049e-07
6.92371e-07
2.92242e-06
2.94218e-06
7.65163e-07
8.47316e-07
8.47204e-07
5.66875e-07
9.11384e-07
9.11354e-07
5.04877e-06
5.01986e-06
5.0201e-06
5.04906e-06
5.70797e-07
9.1141e-07
9.11341e-07
8.47323e-07
8.47212e-07
5.01983e-06
5.0488e-06
5.70505e-07
5.17529e-07
6.90037e-07
5.19768e-07
5.60957e-07
5.17529e-07
7.88294e-07
7.65129e-07
2.94218e-06
6.92383e-07
2.92244e-06
7.65152e-07
2.94224e-06
6.92384e-07
2.92247e-06
5.60947e-07
5.19766e-07
5.17529e-07
7.88205e-07
5.17529e-07
6.89993e-07
5.70498e-07
5.6095e-07
5.19769e-07
5.17529e-07
7.88296e-07
5.17529e-07
6.90036e-07
5.70493e-07
6.92382e-07
2.92243e-06
2.9422e-06
7.65181e-07
6.92385e-07
2.92246e-06
2.94225e-06
7.65181e-07
5.04878e-06
5.01987e-06
5.04892e-06
5.02001e-06
5.70784e-07
9.11341e-07
9.11373e-07
8.47215e-07
8.47282e-07
5.01987e-06
5.04882e-06
5.01999e-06
5.04898e-06
5.04859e-06
5.01966e-06
5.04884e-06
5.01989e-06
8.47204e-07
8.47271e-07
5.66845e-07
9.11268e-07
9.11278e-07
5.01963e-06