/*--------------------------------*- C++ -*----------------------------------*\
| =========                 |                                                 |
| \\      /  F ield         | OpenFOAM: The Open Source CFD Toolbox           |
|  \\    /   O peration     | Version:  2206                                  |
|   \\  /    A nd           | Website:  www.openfoam.com                      |
|    \\/     M anipulation  |                                                 |
\*---------------------------------------------------------------------------*/
FoamFile
{
    version     2.0;
    format      ascii;
    arch        "LSB;label=32;scalar=64";
    class       surfaceScalarField;
    location    "1.5";
    object      phi;
}
// * * * * * * * * * * * * * * * * * * * * * * * * * * * * * * * * * * * * * //

dimensions      [0 3 -1 0 0 0 0];

oriented        oriented;

internalField   nonuniform List<scalar> 
83612
(
4.48998e-07
4.4962e-07
-2.0844e-06
-4.49557e-07
-4.52449e-07
2.08779e-06
-1.31902e-06
5.00252e-06
-4.44142e-07
9.37161e-07
1.32177e-06
3.67074e-06
-5.29966e-06
-3.22544e-06
-5.00887e-06
4.09626e-06
4.7483e-06
-4.47963e-06
-1.3231e-06
5.00356e-06
-4.48261e-07
9.34552e-07
1.32436e-06
3.67094e-06
-5.29829e-06
-3.22381e-06
-5.00615e-06
4.09581e-06
4.74748e-06
-4.47709e-06
3.80916e-07
-4.99657e-06
-5.0002e-06
4.74169e-06
4.75481e-06
1.19351e-07
4.55291e-07
4.46074e-07
-2.10475e-06
-4.48138e-07
-4.57701e-07
2.10923e-06
-1.33662e-06
5.00087e-06
-4.49136e-07
9.36519e-07
1.34075e-06
3.66834e-06
-5.29672e-06
-3.22268e-06
-5.00422e-06
4.09398e-06
4.74501e-06
-4.4761e-06
-1.33515e-06
5.00074e-06
-4.55001e-07
9.38509e-07
1.33846e-06
3.66943e-06
-5.29576e-06
-3.22066e-06
-5.00358e-06
4.09353e-06
4.74518e-06
-4.47569e-06
3.91074e-07
-4.99654e-06
-5.00056e-06
4.73906e-06
4.75229e-06
1.14682e-07
4.49731e-07
4.56094e-07
-2.12071e-06
-4.53368e-07
-4.54352e-07
2.12261e-06
-1.3483e-06
5.00255e-06
-4.59867e-07
9.29721e-07
1.34836e-06
3.67073e-06
-5.29206e-06
-3.21768e-06
-5.00129e-06
4.09499e-06
4.74619e-06
-4.47335e-06
-1.34937e-06
4.99921e-06
-4.52934e-07
9.35634e-07
1.35183e-06
3.66713e-06
-5.29339e-06
-3.21919e-06
-5.0006e-06
4.09178e-06
4.74271e-06
-4.47282e-06
3.95075e-07
-4.99517e-06
-4.99936e-06
4.7369e-06
4.74981e-06
1.12747e-07
4.50203e-07
4.60659e-07
-2.11512e-06
-4.5487e-07
-4.53174e-07
2.1123e-06
-1.34664e-06
5.00187e-06
-4.58792e-07
9.33858e-07
1.34634e-06
3.67025e-06
-5.29404e-06
-3.21922e-06
-5.00198e-06
4.09549e-06
4.74693e-06
-4.47407e-06
-1.34995e-06
5.0044e-06
-4.61905e-07
9.28146e-07
1.34639e-06
3.6717e-06
-5.29221e-06
-3.217e-06
-5.00016e-06
4.09554e-06
4.74702e-06
-4.47195e-06
3.94512e-07
-4.99723e-06
-5.00161e-06
4.73906e-06
4.75149e-06
1.13776e-07
4.5767e-07
4.52704e-07
-2.09888e-06
-4.49501e-07
-4.5613e-07
2.09414e-06
-1.33489e-06
5.00557e-06
-4.58564e-07
9.29679e-07
1.33103e-06
3.67365e-06
-5.2951e-06
-3.22011e-06
-5.00407e-06
4.098e-06
4.74988e-06
-4.47508e-06
-1.33522e-06
5.0035e-06
-4.61091e-07
9.35166e-07
1.33254e-06
3.67274e-06
-5.29468e-06
-3.21884e-06
-5.00372e-06
4.09601e-06
4.74902e-06
-4.47543e-06
3.85423e-07
-5.00062e-06
-5.0047e-06
4.74354e-06
4.75666e-06
1.1969e-07
4.51188e-07
4.54544e-07
-2.08804e-06
-4.51343e-07
-4.54826e-07
2.08848e-06
-1.32387e-06
5.00506e-06
-4.58726e-07
9.31199e-07
1.32188e-06
3.67387e-06
-5.29708e-06
-3.22188e-06
-5.00508e-06
4.09927e-06
4.75132e-06
-4.47596e-06
-1.32437e-06
5.00531e-06
-4.5435e-07
9.33189e-07
1.32164e-06
3.673e-06
-5.2975e-06
-3.22266e-06
-5.00526e-06
4.09737e-06
4.7496e-06
-4.47596e-06
3.79007e-07
-5.00042e-06
-5.00406e-06
4.74479e-06
4.7583e-06
1.22382e-07
4.53751e-07
4.48068e-07
-2.09469e-06
-4.48993e-07
-4.5759e-07
2.09945e-06
-1.3288e-06
5.00276e-06
-4.50211e-07
9.33464e-07
1.33137e-06
3.67073e-06
-5.29809e-06
-3.22368e-06
-5.00549e-06
4.09673e-06
4.7478e-06
-4.47659e-06
-1.32838e-06
4.99999e-06
-4.47829e-07
9.40705e-07
1.33375e-06
3.66789e-06
-5.29771e-06
-3.22293e-06
-5.00533e-06
4.09286e-06
4.74425e-06
-4.47726e-06
3.87456e-07
-4.99607e-06
-5.00004e-06
4.7397e-06
4.75297e-06
1.15991e-07
4.52474e-07
4.54105e-07
-2.10512e-06
-4.51773e-07
-4.54785e-07
2.1051e-06
-1.33858e-06
5.00389e-06
-4.53483e-07
9.32472e-07
1.33993e-06
3.67087e-06
-5.29604e-06
-3.22163e-06
-5.00453e-06
4.09605e-06
4.74686e-06
-4.47581e-06
-1.34173e-06
5.00405e-06
-4.5757e-07
9.32214e-07
1.34072e-06
3.67104e-06
-5.29467e-06
-3.21968e-06
-5.00223e-06
4.09506e-06
4.74653e-06
-4.47372e-06
3.92629e-07
-4.99838e-06
-5.00243e-06
4.74022e-06
4.75309e-06
1.14871e-07
4.53522e-07
4.55469e-07
-2.1021e-06
-4.52604e-07
-4.54028e-07
2.09974e-06
-1.33796e-06
5.00421e-06
-4.58103e-07
9.32922e-07
1.33539e-06
3.67247e-06
-5.29482e-06
-3.22034e-06
-5.00392e-06
4.097e-06
4.74861e-06
-4.47544e-06
-1.33873e-06
5.00417e-06
-4.61216e-07
9.31493e-07
1.33711e-06
3.67228e-06
-5.29386e-06
-3.21881e-06
-5.0026e-06
4.09631e-06
4.74804e-06
-4.47417e-06
3.88512e-07
-4.99951e-06
-5.0039e-06
4.7426e-06
4.75515e-06
1.17154e-07
4.73078e-07
4.7511e-07
-2.09474e-06
-4.62143e-07
-4.65694e-07
2.07439e-06
-1.33472e-06
5.01694e-06
-4.82218e-07
9.22331e-07
1.33138e-06
3.68621e-06
-5.29859e-06
-3.22467e-06
-5.00989e-06
4.11151e-06
4.76279e-06
-4.48108e-06
-1.33271e-06
5.01578e-06
-4.77023e-07
9.25045e-07
1.32915e-06
3.68495e-06
-5.29922e-06
-3.22526e-06
-5.0104e-06
4.10999e-06
4.76138e-06
-4.48169e-06
3.84969e-07
-5.01217e-06
-5.01653e-06
4.75631e-06
4.76991e-06
1.17512e-07
-2.29059e-06
-2.27538e-06
-1.34247e-06
1.10736e-06
1.11717e-06
3.68391e-06
-1.67363e-06
4.9744e-06
2.2752e-06
2.45999e-06
2.75593e-07
3.62576e-06
-5.90275e-06
-3.77841e-06
-5.76317e-06
3.99969e-06
4.65238e-06
-5.14506e-06
-1.66236e-06
4.98029e-06
2.28311e-06
2.40914e-06
2.75781e-07
3.63173e-06
-5.89492e-06
-3.7711e-06
-5.76525e-06
4.00007e-06
4.65549e-06
-5.14196e-06
5.30732e-08
-4.9675e-06
-4.98251e-06
4.87436e-06
4.88431e-06
1.38271e-07
-4.33849e-06
-4.33983e-06
1.57678e-05
2.85486e-05
2.8542e-05
7.72963e-06
5.29084e-06
6.53701e-06
6.53704e-06
-3.08161e-06
-2.01825e-05
-2.18708e-05
-3.08258e-06
-2.0185e-05
-2.18721e-05
-1.15402e-05
-2.37214e-06
4.33805e-06
1.51874e-06
-1.37912e-06
9.43466e-06
-1.15396e-05
4.33884e-06
-2.37313e-06
-1.37773e-06
1.51751e-06
9.43412e-06
-3.62355e-06
2.36587e-06
2.3656e-06
-4.48729e-07
-4.49211e-07
-2.09988e-07
5.29153e-06
5.29404e-06
-3.87174e-07
-1.17984e-07
-5.0353e-06
-5.04511e-06
1.34839e-06
-4.50937e-07
-1.34981e-06
9.34282e-07
4.99936e-06
-3.22061e-06
3.67192e-06
4.74789e-06
-4.47755e-06
4.0951e-06
-5.00651e-06
-5.29046e-06
1.34835e-06
-4.53844e-07
-1.34923e-06
9.31931e-07
4.99908e-06
-3.21638e-06
3.66681e-06
4.75108e-06
-4.47878e-06
4.09886e-06
-5.00743e-06
5.29881e-06
-3.85298e-07
-1.18652e-07
-5.04768e-06
-5.03764e-06
1.32348e-06
-4.53218e-07
-1.32531e-06
9.3318e-07
5.00308e-06
-3.21659e-06
3.66573e-06
4.75075e-06
-4.47839e-06
4.09857e-06
-5.00725e-06
-5.28969e-06
1.351e-06
-4.56555e-07
-1.35085e-06
9.31657e-07
4.99889e-06
-3.21531e-06
3.66675e-06
4.74959e-06
-4.47718e-06
4.09777e-06
-5.00607e-06
-4.48529e-07
-1.31903e-06
9.33277e-07
5.00427e-06
-3.22449e-06
3.67279e-06
4.75056e-06
-4.4788e-06
-5.00821e-06
4.09796e-06
-5.29402e-06
1.3453e-06
-4.4949e-07
-1.34529e-06
9.39945e-07
4.99793e-06
-3.22266e-06
3.67186e-06
4.7486e-06
-4.47941e-06
4.09527e-06
-5.00803e-06
5.29851e-06
-3.8311e-07
-1.20103e-07
-5.04793e-06
-5.03705e-06
-4.49539e-07
-1.32231e-06
9.32963e-07
5.00459e-06
-3.2239e-06
3.67176e-06
4.7482e-06
-4.47687e-06
-5.0061e-06
4.0966e-06
-5.29733e-06
1.32227e-06
-4.44142e-07
-1.32104e-06
9.40434e-07
5.00154e-06
-3.22019e-06
3.66401e-06
4.74884e-06
-4.48162e-06
4.09707e-06
-5.00984e-06
-1.21359e-07
-5.03981e-06
-5.04927e-06
-4.99867e-06
-5.00216e-06
4.74178e-06
4.75496e-06
1.1692e-07
5.29106e-06
5.29543e-06
-3.92973e-07
-1.14322e-07
-5.03551e-06
-5.04369e-06
9.3483e-07
1.34826e-06
3.67177e-06
-5.29176e-06
-3.22156e-06
-5.00698e-06
4.09505e-06
4.74757e-06
-4.47845e-06
4.99713e-06
-4.51285e-07
9.36037e-07
1.3506e-06
3.66538e-06
-5.29066e-06
-3.21674e-06
-5.00856e-06
4.09722e-06
4.74944e-06
-4.48021e-06
1.36192e-06
-4.5524e-07
-1.35852e-06
9.35721e-07
4.99717e-06
-3.22007e-06
3.67042e-06
4.74572e-06
-4.47585e-06
4.09377e-06
-5.00398e-06
-5.28953e-06
1.36509e-06
-4.50658e-07
-1.36054e-06
9.36908e-07
4.99531e-06
-3.216e-06
3.66276e-06
4.74654e-06
-4.47858e-06
4.09504e-06
-5.00633e-06
4.75294e-06
4.74435e-06
1.17068e-07
5.29757e-06
-3.96882e-07
-1.11701e-07
-5.04444e-06
-5.03408e-06
9.35376e-07
1.32306e-06
3.66505e-06
-5.29495e-06
-3.21831e-06
-5.00805e-06
4.09813e-06
4.75016e-06
-4.47952e-06
4.99788e-06
-4.54241e-07
9.33998e-07
1.35223e-06
3.66577e-06
-5.28974e-06
-3.21573e-06
-5.00676e-06
4.09683e-06
4.74875e-06
-4.47798e-06
1.33603e-06
-4.45698e-07
-1.33194e-06
9.36295e-07
5.00042e-06
-3.21888e-06
3.6619e-06
4.74643e-06
-4.47842e-06
4.09624e-06
-5.00695e-06
-5.29066e-06
1.36108e-06
-4.45661e-07
-1.35857e-06
9.3778e-07
4.99535e-06
-3.21755e-06
3.6618e-06
4.74509e-06
-4.47725e-06
4.09411e-06
-5.00553e-06
-4.45309e-07
9.41413e-07
1.34897e-06
3.66984e-06
-5.29439e-06
-3.2235e-06
-5.0088e-06
4.09366e-06
-4.47992e-06
4.74676e-06
-4.46158e-07
-1.33208e-06
9.3802e-07
5.00037e-06
-3.22375e-06
3.66816e-06
4.74521e-06
-4.47732e-06
-5.00539e-06
4.09388e-06
-5.29189e-06
1.36218e-06
-4.48167e-07
-1.35859e-06
9.38228e-07
4.99594e-06
-3.22158e-06
3.66853e-06
4.74394e-06
-4.47632e-06
4.09229e-06
-5.00457e-06
4.75425e-06
4.74493e-06
1.19153e-07
5.29566e-06
-3.91014e-07
-1.15318e-07
-5.04344e-06
-5.03654e-06
-4.44589e-07
9.4184e-07
1.32569e-06
3.66312e-06
-5.29692e-06
-3.21968e-06
-5.00972e-06
4.09615e-06
-4.48164e-06
4.74782e-06
-4.53242e-07
-1.33193e-06
9.37258e-07
5.00138e-06
-3.22113e-06
3.66969e-06
4.7454e-06
-4.47632e-06
-5.00441e-06
4.09382e-06
-5.29374e-06
1.3383e-06
-4.52132e-07
-1.3349e-06
9.36909e-07
5.00008e-06
-3.21652e-06
3.66244e-06
4.74686e-06
-4.47773e-06
4.09583e-06
-5.00538e-06
-1.15447e-07
-5.03416e-06
-5.04495e-06
-4.99625e-06
-4.99974e-06
4.73803e-06
4.75163e-06
1.13359e-07
5.28973e-06
5.29059e-06
-3.97615e-07
-1.11467e-07
-5.03026e-06
-5.04097e-06
9.35677e-07
1.3656e-06
3.66995e-06
-5.29039e-06
-3.21962e-06
-5.00356e-06
4.09346e-06
4.74538e-06
-4.47552e-06
4.99567e-06
-4.5046e-07
9.3549e-07
1.36969e-06
3.66249e-06
-5.28877e-06
-3.21548e-06
-5.00587e-06
4.09483e-06
4.74577e-06
-4.47827e-06
1.37265e-06
-4.53095e-07
-1.37199e-06
9.36178e-07
4.99578e-06
-3.21976e-06
3.66834e-06
4.74411e-06
-4.47352e-06
4.09268e-06
-5.00163e-06
-5.28782e-06
1.37639e-06
-4.52675e-07
-1.37528e-06
9.32726e-07
4.99574e-06
-3.21468e-06
3.66219e-06
4.7461e-06
-4.47481e-06
4.09516e-06
-5.00305e-06
4.74879e-06
4.74009e-06
1.10791e-07
5.29292e-06
-3.99863e-07
-1.1004e-07
-5.03909e-06
-5.03175e-06
9.34854e-07
1.33974e-06
3.66171e-06
-5.2947e-06
-3.21839e-06
-5.00572e-06
4.09612e-06
4.74596e-06
-4.4772e-06
4.9949e-06
-4.40675e-07
9.38994e-07
1.36516e-06
3.66073e-06
-5.29091e-06
-3.21811e-06
-5.0063e-06
4.09258e-06
4.74284e-06
-4.47812e-06
1.35027e-06
-4.51724e-07
-1.34825e-06
9.30379e-07
5.00054e-06
-3.2143e-06
3.66197e-06
4.74493e-06
-4.47533e-06
4.09525e-06
-5.00315e-06
-5.28737e-06
1.37817e-06
-4.47254e-07
-1.37397e-06
9.38402e-07
4.99275e-06
-3.21447e-06
3.65951e-06
4.74179e-06
-4.47582e-06
4.09156e-06
-5.00329e-06
-4.48673e-07
9.37836e-07
1.36555e-06
3.66851e-06
-5.29169e-06
-3.22129e-06
-5.00431e-06
4.09234e-06
-4.47627e-06
4.74362e-06
-4.56829e-07
-1.34638e-06
9.30605e-07
5.00187e-06
-3.21863e-06
3.66976e-06
4.74569e-06
-4.47394e-06
-5.00211e-06
4.09458e-06
-5.28884e-06
1.37447e-06
-4.53197e-07
-1.37204e-06
9.37982e-07
4.9947e-06
-3.21826e-06
3.66775e-06
4.74305e-06
-4.47445e-06
4.09125e-06
-5.00241e-06
4.74999e-06
4.74057e-06
1.14067e-07
5.29414e-06
-3.99984e-07
-1.09806e-07
-5.04019e-06
-5.03152e-06
-4.51757e-07
9.35697e-07
1.34096e-06
3.66281e-06
-5.29379e-06
-3.21665e-06
-5.00511e-06
4.09628e-06
-4.47756e-06
4.74686e-06
-4.51006e-07
-1.34472e-06
9.38266e-07
4.99818e-06
-3.22016e-06
3.66664e-06
4.74247e-06
-4.47415e-06
-5.0022e-06
4.09144e-06
-5.2919e-06
1.35084e-06
-4.47327e-07
-1.34785e-06
9.35038e-07
4.99875e-06
-3.2154e-06
3.66065e-06
4.74411e-06
-4.47629e-06
4.09383e-06
-5.00444e-06
-1.13208e-07
-5.03164e-06
-5.04082e-06
-4.99557e-06
-5.00047e-06
4.73785e-06
4.74969e-06
1.1088e-07
5.2902e-06
5.29025e-06
-3.946e-07
-1.13099e-07
-5.03014e-06
-5.04262e-06
9.36084e-07
1.37395e-06
3.66767e-06
-5.29028e-06
-3.22074e-06
-5.00199e-06
4.09252e-06
4.74349e-06
-4.47389e-06
4.99648e-06
-4.49683e-07
9.318e-07
1.3759e-06
3.66194e-06
-5.28794e-06
-3.21514e-06
-5.00333e-06
4.09532e-06
4.74574e-06
-4.47469e-06
1.37198e-06
-4.48814e-07
-1.37394e-06
9.31916e-07
4.99784e-06
-3.22037e-06
3.66895e-06
4.74412e-06
-4.47335e-06
4.09356e-06
-5.0017e-06
-5.28829e-06
1.37538e-06
-4.48908e-07
-1.37644e-06
9.33587e-07
4.99608e-06
-3.21536e-06
3.66182e-06
4.74535e-06
-4.47537e-06
4.0953e-06
-5.00315e-06
4.74935e-06
4.73954e-06
1.10277e-07
5.29364e-06
-3.98014e-07
-1.10762e-07
-5.04012e-06
-5.03303e-06
9.30422e-07
1.35194e-06
3.66288e-06
-5.29006e-06
-3.21357e-06
-5.00244e-06
4.09576e-06
4.74587e-06
-4.47491e-06
4.99394e-06
-4.50608e-07
9.35345e-07
1.38071e-06
3.6604e-06
-5.28643e-06
-3.21344e-06
-5.00227e-06
4.09233e-06
4.74278e-06
-4.47458e-06
1.34716e-06
-4.6259e-07
-1.35008e-06
9.30716e-07
5.00232e-06
-3.21289e-06
3.66488e-06
4.74875e-06
-4.47409e-06
4.09782e-06
-5.00175e-06
-5.28584e-06
1.37736e-06
-4.59092e-07
-1.3807e-06
9.27747e-07
4.99768e-06
-3.21212e-06
3.66358e-06
4.7469e-06
-4.47209e-06
4.09643e-06
-4.99986e-06
-4.52978e-07
9.36721e-07
1.37484e-06
3.66789e-06
-5.28866e-06
-3.21802e-06
-5.00173e-06
4.09148e-06
-4.47386e-06
4.74361e-06
-4.5827e-07
-1.34737e-06
9.33575e-07
5.00228e-06
-3.21891e-06
3.67061e-06
4.74664e-06
-4.47451e-06
-5.00236e-06
4.09532e-06
-5.28966e-06
1.37433e-06
-4.51494e-07
-1.37511e-06
9.33954e-07
4.99627e-06
-3.21931e-06
3.66814e-06
4.74432e-06
-4.47312e-06
4.09277e-06
-5.0011e-06
4.74642e-06
4.73743e-06
1.09314e-07
5.29228e-06
-3.94236e-07
-1.13113e-07
-5.03957e-06
-5.0312e-06
-4.48577e-07
9.34161e-07
1.35201e-06
3.66119e-06
-5.29128e-06
-3.21486e-06
-5.00365e-06
4.09398e-06
-4.47579e-06
4.74429e-06
-4.60449e-07
-1.35229e-06
9.27947e-07
5.00393e-06
-3.21738e-06
3.67091e-06
4.74592e-06
-4.47148e-06
-4.9998e-06
4.09503e-06
-5.29032e-06
1.35138e-06
-4.57213e-07
-1.35281e-06
9.32824e-07
5.00057e-06
-3.21317e-06
3.66284e-06
4.74635e-06
-4.4745e-06
4.09568e-06
-5.00162e-06
-1.13178e-07
-5.03023e-06
-5.04206e-06
-4.99793e-06
-5.00194e-06
4.73945e-06
4.75209e-06
1.13734e-07
5.28985e-06
5.29289e-06
-3.88744e-07
-1.167e-07
-5.03409e-06
-5.04321e-06
9.31358e-07
1.37077e-06
3.66948e-06
-5.29011e-06
-3.21981e-06
-5.00188e-06
4.09375e-06
4.74432e-06
-4.47363e-06
4.99596e-06
-4.51538e-07
9.32284e-07
1.37533e-06
3.66214e-06
-5.28812e-06
-3.21479e-06
-5.00275e-06
4.09578e-06
4.74623e-06
-4.47515e-06
1.36159e-06
-4.58922e-07
-1.36546e-06
9.31818e-07
4.99974e-06
-3.21875e-06
3.67237e-06
4.74788e-06
-4.47364e-06
4.09559e-06
-5.00237e-06
-5.28741e-06
1.36489e-06
-4.57596e-07
-1.36947e-06
9.25104e-07
4.99995e-06
-3.21349e-06
3.66618e-06
4.75006e-06
-4.47413e-06
4.09881e-06
-5.0029e-06
4.74945e-06
4.73962e-06
1.1075e-07
5.29432e-06
-3.91736e-07
-1.14639e-07
-5.04195e-06
-5.03341e-06
9.30741e-07
1.34501e-06
3.665e-06
-5.29125e-06
-3.2137e-06
-5.0025e-06
4.09805e-06
4.74893e-06
-4.4744e-06
4.99784e-06
-4.56408e-07
9.27706e-07
1.37317e-06
3.66392e-06
-5.28703e-06
-3.21317e-06
-5.00066e-06
4.09699e-06
4.74763e-06
-4.47262e-06
1.33611e-06
-4.53532e-07
-1.33911e-06
9.29153e-07
5.00338e-06
-3.21601e-06
3.66516e-06
4.74912e-06
-4.47534e-06
4.09843e-06
-5.00448e-06
-5.28964e-06
1.36323e-06
-4.46173e-07
-1.36586e-06
9.31729e-07
4.99723e-06
-3.21636e-06
3.66334e-06
4.74655e-06
-4.47551e-06
4.09585e-06
-5.00439e-06
-4.52329e-07
9.31482e-07
1.37305e-06
3.66886e-06
-5.28977e-06
-3.21927e-06
-5.001e-06
4.09373e-06
-4.47284e-06
4.74517e-06
-4.59381e-07
-1.33947e-06
9.27803e-07
5.00562e-06
-3.21965e-06
3.67347e-06
4.7495e-06
-4.47362e-06
-5.00272e-06
4.09787e-06
-5.29004e-06
1.36189e-06
-4.55857e-07
-1.3657e-06
9.27948e-07
4.99967e-06
-3.2191e-06
3.67198e-06
4.74806e-06
-4.4729e-06
4.09631e-06
-5.00226e-06
4.75193e-06
4.74132e-06
1.14748e-07
5.29352e-06
-3.87295e-07
-1.17313e-07
-5.04181e-06
-5.03674e-06
-4.6075e-07
9.29629e-07
1.34962e-06
3.66407e-06
-5.28999e-06
-3.21242e-06
-5.00137e-06
4.09709e-06
-4.47407e-06
4.74796e-06
-4.62397e-07
-1.33846e-06
9.32577e-07
5.00377e-06
-3.21781e-06
3.67317e-06
4.74891e-06
-4.47461e-06
-5.00319e-06
4.09632e-06
-5.29032e-06
1.33885e-06
-4.63855e-07
-1.34211e-06
9.23784e-07
5.00413e-06
-3.21235e-06
3.66725e-06
4.7517e-06
-4.47434e-06
4.10024e-06
-5.00299e-06
-1.18606e-07
-5.03201e-06
-5.04432e-06
-4.99901e-06
-5.0028e-06
4.74152e-06
4.75461e-06
1.16937e-07
5.29226e-06
5.2939e-06
-3.87577e-07
-1.17365e-07
-5.03529e-06
-5.04593e-06
9.32302e-07
1.35727e-06
3.67247e-06
-5.29025e-06
-3.21925e-06
-5.00297e-06
4.09601e-06
4.74885e-06
-4.47416e-06
4.99977e-06
-4.55159e-07
9.26687e-07
1.35996e-06
3.66644e-06
-5.28868e-06
-3.21487e-06
-5.00414e-06
4.09939e-06
4.75077e-06
-4.47528e-06
1.34987e-06
-4.50566e-07
-1.35114e-06
9.33688e-07
4.99943e-06
-3.22174e-06
3.67192e-06
4.74728e-06
-4.47642e-06
4.09553e-06
-5.00559e-06
-5.29116e-06
1.35253e-06
-4.49452e-07
-1.35351e-06
9.30129e-07
4.99889e-06
-3.21764e-06
3.66529e-06
4.74958e-06
-4.47699e-06
4.09845e-06
-5.00611e-06
4.75409e-06
4.74404e-06
1.15477e-07
5.29622e-06
-3.89778e-07
-1.15932e-07
-5.04406e-06
-5.03761e-06
9.2929e-07
1.33291e-06
3.66526e-06
-5.29295e-06
-3.21604e-06
-5.00497e-06
4.09866e-06
4.74975e-06
-4.4759e-06
4.9974e-06
-4.45643e-07
9.32639e-07
1.36055e-06
3.66334e-06
-5.29032e-06
-3.2166e-06
-5.00485e-06
4.09585e-06
4.74695e-06
-4.4761e-06
1.32541e-06
-4.55387e-07
-1.32733e-06
9.32009e-07
5.00333e-06
-3.21663e-06
3.66594e-06
4.75046e-06
-4.47721e-06
4.09919e-06
-5.00587e-06
-5.28954e-06
1.35372e-06
-4.55256e-07
-1.35681e-06
9.29239e-07
5.00035e-06
-3.21556e-06
3.66636e-06
4.74943e-06
-4.47562e-06
4.09798e-06
-5.00428e-06
-4.54986e-07
9.27657e-07
1.35803e-06
3.67273e-06
-5.29067e-06
-3.21991e-06
-5.00324e-06
4.09681e-06
-4.47398e-06
4.74883e-06
-4.5986e-07
-1.3247e-06
9.31324e-07
5.00452e-06
-3.22102e-06
3.67367e-06
4.7511e-06
-4.47619e-06
-5.00534e-06
4.09883e-06
-5.29222e-06
1.34916e-06
-4.56177e-07
-1.35152e-06
9.31296e-07
5.00076e-06
-3.22094e-06
3.67385e-06
4.74998e-06
-4.4761e-06
4.09714e-06
-5.00522e-06
4.75324e-06
4.74308e-06
1.17285e-07
5.29676e-06
-3.84556e-07
-1.1912e-07
-5.04555e-06
-5.03708e-06
-4.63347e-07
9.24207e-07
1.33469e-06
3.66802e-06
-5.29151e-06
-3.21353e-06
-5.00343e-06
4.10108e-06
-4.47476e-06
4.75273e-06
-4.5751e-07
-1.32665e-06
9.31714e-07
5.00569e-06
-3.22161e-06
3.67343e-06
4.74972e-06
-4.47514e-06
-5.00481e-06
4.09753e-06
-5.29529e-06
1.32457e-06
-4.54274e-07
-1.3269e-06
9.30638e-07
5.00434e-06
-3.21774e-06
3.66689e-06
4.75205e-06
-4.47776e-06
4.10036e-06
-5.00688e-06
-1.22582e-07
-5.03824e-06
-5.04769e-06
-4.99877e-06
-5.00239e-06
4.74153e-06
4.75512e-06
1.16936e-07
5.29109e-06
5.29478e-06
-3.90568e-07
-1.16017e-07
-5.03551e-06
-5.04378e-06
9.33836e-07
1.35018e-06
3.67169e-06
-5.29219e-06
-3.22158e-06
-5.00541e-06
4.09518e-06
4.7471e-06
-4.47652e-06
4.99958e-06
-4.49744e-07
9.29918e-07
1.35251e-06
3.66571e-06
-5.29064e-06
-3.21705e-06
-5.00678e-06
4.0981e-06
4.74896e-06
-4.47803e-06
1.35508e-06
-4.57003e-07
-1.35348e-06
9.34209e-07
4.99855e-06
-3.22006e-06
3.67191e-06
4.74751e-06
-4.47605e-06
4.09513e-06
-5.00472e-06
-5.28961e-06
1.35759e-06
-4.5605e-07
-1.35589e-06
9.3156e-07
4.99865e-06
-3.21524e-06
3.66601e-06
4.74919e-06
-4.47777e-06
4.09778e-06
-5.00622e-06
4.75383e-06
4.74523e-06
1.15805e-07
5.298e-06
-3.91763e-07
-1.14737e-07
-5.04585e-06
-5.03526e-06
9.32402e-07
1.32452e-06
3.66572e-06
-5.29455e-06
-3.21733e-06
-5.006e-06
4.0994e-06
4.75068e-06
-4.47729e-06
4.99971e-06
-4.53663e-07
9.31163e-07
1.3514e-06
3.6664e-06
-5.28976e-06
-3.21591e-06
-5.00541e-06
4.09763e-06
4.74925e-06
-4.4771e-06
1.33054e-06
-4.48913e-07
-1.3277e-06
9.31541e-07
5.0021e-06
-3.21798e-06
3.66365e-06
4.74833e-06
-4.47786e-06
4.09792e-06
-5.00683e-06
-5.29106e-06
1.35528e-06
-4.46367e-07
-1.35188e-06
9.41545e-07
4.99492e-06
-3.21743e-06
3.66241e-06
4.74516e-06
-4.47918e-06
4.09376e-06
-5.00717e-06
-4.53727e-07
9.34422e-07
1.34673e-06
3.67354e-06
-5.29281e-06
-3.2214e-06
-5.00647e-06
4.09661e-06
-4.4777e-06
4.74954e-06
-4.50821e-07
-1.32577e-06
9.31295e-07
5.00391e-06
-3.22337e-06
3.67159e-06
4.7485e-06
-4.47703e-06
-5.00652e-06
4.09742e-06
-5.29417e-06
1.35405e-06
-4.46667e-07
-1.34901e-06
9.426e-07
4.99615e-06
-3.22333e-06
3.66931e-06
4.74504e-06
-4.47889e-06
4.0925e-06
-5.00759e-06
4.7549e-06
4.74595e-06
1.1961e-07
5.29817e-06
-3.90506e-07
-1.15609e-07
-5.0461e-06
-5.03703e-06
-4.50566e-07
9.33296e-07
1.32238e-06
3.66651e-06
-5.29606e-06
-3.21853e-06
-5.00819e-06
4.09983e-06
-4.4794e-06
4.75123e-06
-4.45254e-07
-1.32353e-06
9.40349e-07
5.00068e-06
-3.22367e-06
3.66883e-06
4.74487e-06
-4.47854e-06
-5.00741e-06
4.09346e-06
-5.29634e-06
1.3308e-06
-4.44883e-07
-1.32567e-06
9.3841e-07
4.99998e-06
-3.21934e-06
3.66265e-06
4.74683e-06
-4.48001e-06
4.0959e-06
-5.00832e-06
-1.17588e-07
-5.03775e-06
-5.04772e-06
-4.99834e-06
-5.00194e-06
4.74055e-06
4.75394e-06
1.15229e-07
5.29067e-06
5.29293e-06
-3.91576e-07
-1.14963e-07
-5.03366e-06
-5.0434e-06
9.3457e-07
1.35684e-06
3.67159e-06
-5.29122e-06
-3.22072e-06
-5.00536e-06
4.09487e-06
4.7468e-06
-4.47689e-06
4.99767e-06
-4.54372e-07
9.32615e-07
1.36019e-06
3.66525e-06
-5.28972e-06
-3.21591e-06
-5.00643e-06
4.09763e-06
4.7488e-06
-4.47813e-06
1.36386e-06
-4.53988e-07
-1.36478e-06
9.32888e-07
4.999e-06
-3.22007e-06
3.67089e-06
4.74627e-06
-4.47483e-06
4.09453e-06
-5.00309e-06
-5.2883e-06
1.36772e-06
-4.56159e-07
-1.36719e-06
9.32886e-07
4.99723e-06
-3.21458e-06
3.66418e-06
4.7478e-06
-4.47622e-06
4.09682e-06
-5.00418e-06
4.7516e-06
4.74302e-06
1.14051e-07
5.29626e-06
-3.95946e-07
-1.12304e-07
-5.0433e-06
-5.03302e-06
9.31702e-07
1.33259e-06
3.66395e-06
-5.29459e-06
-3.2181e-06
-5.00671e-06
4.09779e-06
4.74796e-06
-4.47793e-06
4.99437e-06
-4.45853e-07
9.41043e-07
1.36067e-06
3.66153e-06
-5.29098e-06
-3.21765e-06
-5.00668e-06
4.09323e-06
4.74431e-06
-4.4787e-06
1.33975e-06
-4.54566e-07
-1.3406e-06
9.31056e-07
5.00316e-06
-3.21593e-06
3.66446e-06
4.74827e-06
-4.47609e-06
4.09764e-06
-5.00421e-06
-5.28751e-06
1.36939e-06
-4.55138e-07
-1.36991e-06
9.31432e-07
4.99764e-06
-3.2139e-06
3.66338e-06
4.74613e-06
-4.4744e-06
4.09536e-06
-5.00247e-06
-4.47089e-07
9.41342e-07
1.35808e-06
3.66887e-06
-5.29314e-06
-3.2223e-06
-5.00676e-06
4.09255e-06
-4.47829e-06
4.74472e-06
-4.5217e-07
-1.33732e-06
9.33391e-07
5.0033e-06
-3.22201e-06
3.67044e-06
4.74686e-06
-4.47601e-06
-5.00476e-06
4.09595e-06
-5.2903e-06
1.36729e-06
-4.52031e-07
-1.36525e-06
9.34193e-07
4.99721e-06
-3.21996e-06
3.66901e-06
4.74455e-06
-4.47485e-06
4.09341e-06
-5.00327e-06
4.74963e-06
4.74067e-06
1.1355e-07
5.2942e-06
-3.9392e-07
-1.13451e-07
-5.0414e-06
-5.03294e-06
-4.4658e-07
9.37459e-07
1.33502e-06
3.66272e-06
-5.29507e-06
-3.21815e-06
-5.00743e-06
4.09584e-06
-4.47945e-06
4.74639e-06
-4.57998e-07
-1.34166e-06
9.32009e-07
5.00367e-06
-3.21941e-06
3.67076e-06
4.74604e-06
-4.47365e-06
-5.00226e-06
4.09496e-06
-5.2918e-06
1.3441e-06
-4.5767e-07
-1.3427e-06
9.32918e-07
5.00129e-06
-3.21448e-06
3.66345e-06
4.74736e-06
-4.47581e-06
4.09685e-06
-5.00351e-06
-1.14404e-07
-5.03206e-06
-5.04301e-06
-4.99805e-06
-5.00212e-06
4.74044e-06
4.75323e-06
1.14918e-07
5.29073e-06
5.29305e-06
-3.90376e-07
-1.15825e-07
-5.03387e-06
-5.04371e-06
9.34233e-07
1.36379e-06
3.67054e-06
-5.29076e-06
-3.2204e-06
-5.0038e-06
4.09415e-06
4.7461e-06
-4.47557e-06
4.99768e-06
-4.55168e-07
9.30889e-07
1.3674e-06
3.6646e-06
-5.28838e-06
-3.21468e-06
-5.00414e-06
4.09739e-06
4.74815e-06
-4.47603e-06
1.3633e-06
-4.52459e-07
-1.36301e-06
9.3438e-07
4.99828e-06
-3.22021e-06
3.6705e-06
4.74644e-06
-4.47624e-06
4.09439e-06
-5.00464e-06
-5.28947e-06
1.36624e-06
-4.52333e-07
-1.36603e-06
9.30845e-07
4.99771e-06
-3.21618e-06
3.66405e-06
4.7489e-06
-4.47644e-06
4.09751e-06
-5.00479e-06
4.75164e-06
4.74159e-06
1.12399e-07
5.29486e-06
-3.929e-07
-1.14024e-07
-5.04236e-06
-5.03505e-06
9.32452e-07
1.3394e-06
3.66449e-06
-5.29304e-06
-3.21623e-06
-5.00476e-06
4.0975e-06
4.7485e-06
-4.47659e-06
4.99794e-06
-4.5284e-07
9.30718e-07
1.36762e-06
3.66391e-06
-5.28791e-06
-3.21448e-06
-5.00304e-06
4.09592e-06
4.74642e-06
-4.47487e-06
1.33856e-06
-4.53553e-07
-1.3384e-06
9.33027e-07
5.00233e-06
-3.21617e-06
3.66426e-06
4.74851e-06
-4.47736e-06
4.09743e-06
-5.00557e-06
-5.28887e-06
1.36672e-06
-4.51161e-07
-1.36559e-06
9.32033e-07
4.99648e-06
-3.21572e-06
3.66278e-06
4.74673e-06
-4.47551e-06
4.09572e-06
-5.0036e-06
-4.53047e-07
9.32435e-07
1.36575e-06
3.67004e-06
-5.28982e-06
-3.21953e-06
-5.00262e-06
4.09429e-06
-4.47429e-06
4.74571e-06
-4.5883e-07
-1.33821e-06
9.32377e-07
5.00336e-06
-3.22057e-06
3.67207e-06
4.74856e-06
-4.47507e-06
-5.00367e-06
4.0969e-06
-5.29085e-06
1.36419e-06
-4.55228e-07
-1.36486e-06
9.30646e-07
4.99893e-06
-3.2199e-06
3.67092e-06
4.74696e-06
-4.47369e-06
4.0954e-06
-5.0025e-06
4.75191e-06
4.74201e-06
1.1415e-07
5.29378e-06
-3.91288e-07
-1.14986e-07
-5.04155e-06
-5.03482e-06
-4.58233e-07
9.31111e-07
1.34181e-06
3.66444e-06
-5.29156e-06
-3.21443e-06
-5.00294e-06
4.098e-06
-4.47514e-06
4.7486e-06
-4.60224e-07
-1.33775e-06
9.3292e-07
5.00239e-06
-3.21912e-06
3.67114e-06
4.74705e-06
-4.47412e-06
-5.00251e-06
4.09526e-06
-5.2922e-06
1.34033e-06
-4.59645e-07
-1.3409e-06
9.28627e-07
5.0033e-06
-3.21462e-06
3.66554e-06
4.74953e-06
-4.47514e-06
4.09872e-06
-5.00355e-06
-1.16767e-07
-5.03333e-06
-5.04444e-06
-4.99878e-06
-5.00287e-06
4.74151e-06
4.75401e-06
1.15761e-07
5.29204e-06
5.29364e-06
-3.89037e-07
-1.1561e-07
-5.03519e-06
-5.04584e-06
9.33005e-07
1.36112e-06
3.67133e-06
-5.29068e-06
-3.22037e-06
-5.00378e-06
4.09525e-06
4.74745e-06
-4.47528e-06
4.99872e-06
-4.52569e-07
9.3056e-07
1.36456e-06
3.66451e-06
-5.2895e-06
-3.21614e-06
-5.00485e-06
4.09802e-06
4.74932e-06
-4.4764e-06
1.36038e-06
-4.6439e-07
-1.35946e-06
9.27625e-07
5.00361e-06
-3.22191e-06
3.67659e-06
4.75279e-06
-4.47787e-06
4.10077e-06
-5.00608e-06
-5.28911e-06
1.36244e-06
-4.65732e-07
-1.36142e-06
9.20888e-07
5.00309e-06
-3.21654e-06
3.67038e-06
4.75482e-06
-4.47722e-06
4.10415e-06
-5.00575e-06
4.75256e-06
4.74303e-06
1.14445e-07
5.29465e-06
-3.92816e-07
-1.13806e-07
-5.04193e-06
-5.03521e-06
9.31655e-07
1.33678e-06
3.66526e-06
-5.29258e-06
-3.21571e-06
-5.0051e-06
4.0982e-06
4.74946e-06
-4.47681e-06
4.99833e-06
-4.53573e-07
9.29541e-07
1.36566e-06
3.664e-06
-5.28874e-06
-3.21526e-06
-5.0032e-06
4.09681e-06
4.748e-06
-4.47484e-06
1.33277e-06
-4.69208e-07
-1.33382e-06
9.25348e-07
5.00811e-06
-3.21656e-06
3.67111e-06
4.7564e-06
-4.47867e-06
4.10478e-06
-5.00662e-06
-5.28937e-06
1.36091e-06
-4.65093e-07
-1.3612e-06
9.22102e-07
5.0034e-06
-3.21636e-06
3.6703e-06
4.75462e-06
-4.4772e-06
4.10346e-06
-5.00558e-06
-4.55653e-07
9.29247e-07
1.36373e-06
3.67153e-06
-5.29119e-06
-3.22049e-06
-5.00255e-06
4.09605e-06
-4.47368e-06
4.74767e-06
-4.73113e-07
-1.33295e-06
9.24234e-07
5.00932e-06
-3.22073e-06
3.67817e-06
4.75481e-06
-4.47721e-06
-5.00571e-06
4.10312e-06
-5.29161e-06
1.36163e-06
-4.68863e-07
-1.36053e-06
9.21397e-07
5.0052e-06
-3.22075e-06
3.67799e-06
4.75379e-06
-4.47589e-06
4.10211e-06
-5.00448e-06
4.75258e-06
4.74274e-06
1.15885e-07
5.29515e-06
-3.84838e-07
-1.18304e-07
-5.04423e-06
-5.03715e-06
-4.61325e-07
9.27386e-07
1.33969e-06
3.66649e-06
-5.29217e-06
-3.21463e-06
-5.00372e-06
4.0996e-06
-4.47537e-06
4.75048e-06
-4.71857e-07
-1.33305e-06
9.256e-07
5.00936e-06
-3.22077e-06
3.67834e-06
4.75472e-06
-4.47715e-06
-5.00565e-06
4.10289e-06
-5.29316e-06
1.33195e-06
-4.72443e-07
-1.33395e-06
9.1932e-07
5.00949e-06
-3.21578e-06
3.67246e-06
4.75741e-06
-4.47668e-06
4.10653e-06
-5.00513e-06
-1.19189e-07
-5.03494e-06
-5.04566e-06
-5.01019e-06
-5.01449e-06
4.75371e-06
4.76693e-06
1.15016e-07
5.20351e-06
5.20394e-06
-5.71671e-08
-2.49189e-07
-5.04553e-06
-5.05557e-06
9.26785e-07
1.36115e-06
3.68324e-06
-5.29593e-06
-3.22622e-06
-5.01057e-06
4.10763e-06
4.75969e-06
-4.48252e-06
5.0107e-06
-4.72649e-07
9.18747e-07
1.36148e-06
3.6778e-06
-5.29322e-06
-3.22101e-06
-5.01088e-06
4.11192e-06
4.76211e-06
-4.48255e-06
1.70882e-06
-1.93135e-06
-1.29524e-06
1.65179e-07
5.37285e-06
-3.14897e-06
3.99818e-06
5.14404e-06
-4.38271e-06
4.47766e-06
-4.90495e-06
-5.20029e-06
1.71005e-06
-1.93674e-06
-1.29785e-06
1.54781e-07
5.37598e-06
-3.14363e-06
3.99353e-06
5.14729e-06
-4.3814e-06
4.48241e-06
-4.90412e-06
4.76587e-06
4.7558e-06
1.13149e-07
5.20641e-06
-5.51399e-08
-2.50812e-07
-5.05449e-06
-5.04625e-06
9.24252e-07
1.33042e-06
3.67769e-06
-5.29798e-06
-3.22165e-06
-5.01132e-06
4.11178e-06
4.76325e-06
-4.48306e-06
5.00979e-06
-4.69997e-07
9.21987e-07
1.3593e-06
3.67704e-06
-5.29358e-06
-3.22106e-06
-5.011e-06
4.11015e-06
4.761e-06
-4.4827e-06
1.67226e-06
-1.93482e-06
-1.26353e-06
1.56285e-07
5.38009e-06
-3.14345e-06
3.99344e-06
5.14823e-06
-4.38214e-06
4.48271e-06
-4.90513e-06
-5.20042e-06
1.70207e-06
-1.92062e-06
-1.29299e-06
1.54226e-07
5.37368e-06
-3.14361e-06
3.99128e-06
5.14409e-06
-4.38213e-06
4.47901e-06
-4.90459e-06
-4.75966e-07
9.21645e-07
1.3599e-06
3.68545e-06
-5.29549e-06
-3.22521e-06
-5.00993e-06
4.10965e-06
-4.48157e-06
4.761e-06
-1.94253e-06
-1.26631e-06
1.59096e-07
5.38244e-06
-3.1489e-06
4.0016e-06
5.14881e-06
-4.38036e-06
-4.90423e-06
4.48317e-06
-5.20457e-06
1.71218e-06
-1.9305e-06
-1.30023e-06
1.59498e-07
5.37576e-06
-3.14924e-06
3.99992e-06
5.14524e-06
-4.38183e-06
4.4791e-06
-4.90533e-06
4.76653e-06
4.75651e-06
1.17696e-07
5.20503e-06
-5.56951e-08
-2.50832e-07
-5.05348e-06
-5.04544e-06
-4.75565e-07
9.19351e-07
1.32674e-06
3.67928e-06
-5.29784e-06
-3.2212e-06
-5.01085e-06
4.11367e-06
-4.48231e-06
4.76414e-06
-1.93334e-06
-1.26063e-06
1.54397e-07
5.3823e-06
-3.14696e-06
4.0011e-06
5.14778e-06
-4.3798e-06
-4.90307e-06
4.4809e-06
-5.20369e-06
1.66225e-06
-1.93596e-06
-1.26197e-06
1.46527e-07
5.3846e-06
-3.14223e-06
3.99653e-06
5.15135e-06
-4.37986e-06
4.48559e-06
-4.90313e-06
-2.55206e-07
-5.04476e-06
-5.05523e-06
-4.96573e-06
-4.97828e-06
4.87035e-06
4.88156e-06
1.34932e-07
8.43453e-06
8.4347e-06
3.6203e-06
-1.18508e-06
-9.64538e-06