/*--------------------------------*- C++ -*----------------------------------*\
| =========                 |                                                 |
| \\      /  F ield         | OpenFOAM: The Open Source CFD Toolbox           |
|  \\    /   O peration     | Version:  2206                                  |
|   \\  /    A nd           | Website:  www.openfoam.com                      |
|    \\/     M anipulation  |                                                 |
\*---------------------------------------------------------------------------*/
FoamFile
{
    version     2.0;
    format      ascii;
    arch        "LSB;label=32;scalar=64";
    class       volScalarField;
    location    "4";
    object      k;
}
// * * * * * * * * * * * * * * * * * * * * * * * * * * * * * * * * * * * * * //

dimensions      [0 2 -2 0 0 0 0];

internalField   nonuniform List<scalar> 
28549
(
2.12729e-05
2.12722e-05
3.72406e-05
3.4063e-05
3.40619e-05
3.45961e-05
2.8172e-05
3.64442e-05
3.57474e-05
3.57995e-05
3.55077e-05
3.45962e-05
2.81722e-05
3.64442e-05
3.57475e-05
3.55077e-05
3.58001e-05
3.57476e-05
3.58002e-05
2.81722e-05
2.1272e-05
3.72406e-05
3.40622e-05
3.40627e-05
2.12726e-05
3.64441e-05
3.57475e-05
3.55077e-05
3.57998e-05
3.64441e-05
3.57473e-05
3.55077e-05
3.57997e-05
3.45963e-05
2.81722e-05
3.45963e-05
2.81723e-05
3.72402e-05
3.40629e-05
3.40622e-05
2.12725e-05
2.12725e-05
2.00921e-05
2.00904e-05
3.31078e-05
2.77793e-05
3.75115e-05
3.57978e-05
2.77767e-05
3.75093e-05
3.57961e-05
2.47258e-05
3.44269e-05
2.58022e-05
3.43397e-05
2.48797e-05
3.41805e-05
2.56686e-05
1.95103e-05
3.34027e-05
2.79462e-05
1.97242e-05
3.31751e-05
2.47254e-05
2.58023e-05
3.44269e-05
3.43398e-05
2.48792e-05
2.56686e-05
3.41805e-05
1.95099e-05
3.34026e-05
2.79462e-05
1.97238e-05
3.31747e-05
1.95104e-05
3.34025e-05
2.79467e-05
1.97241e-05
3.3175e-05
2.10893e-05
3.30921e-05
2.00904e-05
2.00922e-05
3.31082e-05
2.00758e-05
2.00769e-05
3.55168e-05
2.77772e-05
3.75104e-05
3.37483e-05
3.74473e-05
3.57966e-05
2.73529e-05
3.55183e-05
2.77793e-05
3.75107e-05
3.37484e-05
3.57978e-05
2.73555e-05
3.7448e-05
2.10899e-05
2.47257e-05
3.44269e-05
2.58023e-05
3.43404e-05
2.48795e-05
3.41809e-05
2.56688e-05
1.95104e-05
3.34025e-05
2.79466e-05
1.97242e-05
3.31742e-05
2.4726e-05
3.44271e-05
2.58024e-05
3.43404e-05
2.48799e-05
3.4181e-05
2.56688e-05
1.95105e-05
3.3403e-05
2.79462e-05
1.97245e-05
3.31756e-05
3.30925e-05
2.00921e-05
2.00908e-05
3.31087e-05
2.00782e-05
2.00769e-05
3.55192e-05
2.77792e-05
3.75113e-05
3.37492e-05
3.5798e-05
3.74491e-05
2.73554e-05
3.55171e-05
2.77773e-05
3.75092e-05
3.37489e-05
3.57963e-05
3.74468e-05
2.73532e-05
2.10898e-05
2.10896e-05
3.54903e-05
3.54641e-05
3.54642e-05
3.54601e-05
3.54902e-05
3.54642e-05
3.54642e-05
3.54601e-05
3.54903e-05
3.54642e-05
3.54642e-05
3.54601e-05
3.54903e-05
3.54642e-05
3.54642e-05
3.54601e-05
3.73495e-05
3.73496e-05
3.69162e-05
3.599e-05
3.64856e-05
3.58906e-05
3.64087e-05
3.59355e-05
3.64552e-05
3.59394e-05
3.61788e-05
3.65139e-05
3.65891e-05
3.55237e-05
3.65828e-05
3.612e-05
3.64786e-05
3.59901e-05
3.58907e-05
3.64859e-05
3.64088e-05
3.59357e-05
3.59394e-05
3.64553e-05
3.6179e-05
3.65144e-05
3.65898e-05
3.55237e-05
3.61203e-05
3.64786e-05
3.65832e-05
3.61792e-05
3.65143e-05
3.65903e-05
3.55244e-05
3.61203e-05
3.64789e-05
3.6584e-05
3.67775e-05
3.72282e-05
3.73501e-05
3.73492e-05
3.73344e-05
3.69163e-05
3.7334e-05
3.59902e-05
3.58906e-05
3.64857e-05
3.64092e-05
3.59356e-05
3.59396e-05
3.64556e-05
3.61788e-05
3.65139e-05
3.65897e-05
3.55235e-05
3.61201e-05
3.65832e-05
3.64783e-05
3.59902e-05
3.58906e-05
3.64855e-05
3.64092e-05
3.59355e-05
3.59396e-05
3.64554e-05
3.61789e-05
3.65139e-05
3.65892e-05
3.55238e-05
3.612e-05
3.64786e-05
3.65829e-05
3.67778e-05
3.72277e-05
3.73493e-05
3.73494e-05
3.69161e-05
3.73343e-05
3.73341e-05
3.54893e-05
3.57464e-05
3.54893e-05
3.57462e-05
3.57466e-05
3.72379e-05
3.57472e-05
3.7237e-05
3.72271e-05
3.57465e-05
3.57466e-05
3.57466e-05
3.57466e-05
3.7237e-05
3.72267e-05
3.57464e-05
3.57467e-05
3.57463e-05
3.57468e-05
3.57464e-05
3.57465e-05
3.57466e-05
3.72378e-05
3.72305e-05
3.57466e-05
3.57467e-05
3.57476e-05
3.57465e-05
3.72373e-05
3.72272e-05
3.57463e-05
3.57468e-05
3.57474e-05
3.57475e-05
3.57467e-05
3.57465e-05
3.57477e-05
3.72379e-05
3.72344e-05
3.57464e-05
3.72341e-05
3.57487e-05
3.7238e-05
3.43397e-05
2.81701e-05
2.7947e-05
3.4592e-05
2.12707e-05
2.10898e-05
3.43392e-05
2.81697e-05
2.79459e-05
3.45919e-05
3.54893e-05
3.54893e-05
3.54893e-05
3.54893e-05
3.54893e-05
3.54893e-05
3.54893e-05
3.64085e-05
3.57958e-05
3.55067e-05
3.57464e-05
3.5523e-05
3.55067e-05
3.64406e-05
3.434e-05
2.81697e-05
3.45921e-05
2.79469e-05
2.12708e-05
2.10898e-05
3.43402e-05
2.81692e-05
3.45922e-05
2.79461e-05
3.54893e-05
3.54893e-05
3.54893e-05
3.54902e-05
3.54894e-05
3.5491e-05
3.5491e-05
3.64087e-05
3.57959e-05
3.55067e-05
3.57464e-05
3.64408e-05
3.55232e-05
3.55067e-05
2.12697e-05
2.10892e-05
3.64091e-05
3.55067e-05
3.57964e-05
3.57464e-05
3.55067e-05
3.55235e-05
3.64412e-05
3.40588e-05
3.40579e-05
3.72276e-05
3.37483e-05
3.37479e-05
2.12704e-05
3.54912e-05
3.57967e-05
3.55077e-05
3.64421e-05
2.1271e-05
2.10901e-05
2.12705e-05
2.10895e-05
3.40588e-05
3.40577e-05
3.72267e-05
3.37479e-05
3.37474e-05
2.109e-05
2.12708e-05
2.10894e-05
2.12703e-05
3.72376e-05
3.37485e-05
3.37479e-05
3.40588e-05
3.40578e-05
3.43397e-05
2.81701e-05
2.79466e-05
3.45921e-05
3.64084e-05
3.57963e-05
3.55067e-05
3.57466e-05
3.55232e-05
3.55067e-05
3.64406e-05
3.64085e-05
3.57962e-05
3.55067e-05
3.57466e-05
3.55233e-05
3.55067e-05
3.64406e-05
3.45921e-05
2.79469e-05
2.817e-05
3.43394e-05
3.45922e-05
2.79466e-05
2.817e-05
3.43395e-05
3.64407e-05
3.57465e-05
3.55236e-05
3.55067e-05
3.57965e-05
3.55067e-05
3.64086e-05
3.64407e-05
3.57464e-05
3.55235e-05
3.55067e-05
3.57963e-05
3.55067e-05
3.64086e-05
3.40581e-05
3.40585e-05
3.7227e-05
3.3748e-05
3.37481e-05
2.12709e-05
2.10901e-05
2.10898e-05
2.12706e-05
3.72375e-05
3.37482e-05
3.37482e-05
3.40582e-05
3.40584e-05
2.10901e-05
2.12709e-05
3.64084e-05
3.57957e-05
3.55067e-05
3.57462e-05
3.55227e-05
3.55067e-05
3.64404e-05
3.43392e-05
2.81698e-05
3.4592e-05
2.79461e-05
3.64083e-05
3.55067e-05
3.57962e-05
3.57465e-05
3.55067e-05
3.64404e-05
3.55228e-05
3.45921e-05
2.79459e-05
2.81694e-05
3.43395e-05
3.64408e-05
3.57463e-05
3.55231e-05
3.55067e-05
3.5796e-05
3.55067e-05
3.64088e-05
3.45921e-05
2.79461e-05
3.43395e-05
2.81696e-05
3.64408e-05
3.57468e-05
3.55067e-05
3.55235e-05
3.55067e-05
3.64088e-05
3.57965e-05
3.43397e-05
2.81696e-05
2.79465e-05
3.4592e-05
3.64085e-05
3.55067e-05
3.57963e-05
3.57466e-05
3.55067e-05
3.64407e-05
3.5523e-05
3.43397e-05
2.81697e-05
3.45921e-05
2.79465e-05
3.64407e-05
3.57465e-05
3.55232e-05
3.55067e-05
3.57958e-05
3.55067e-05
3.64087e-05
3.45921e-05
2.79465e-05
2.81695e-05
3.43396e-05
3.64407e-05
3.57467e-05
3.55067e-05
3.55236e-05
3.55067e-05
3.64087e-05
3.57964e-05
3.45921e-05
2.79465e-05
3.43396e-05
2.81698e-05
2.12706e-05
2.109e-05
2.12701e-05
2.10895e-05
3.40589e-05
3.40579e-05
3.72274e-05
3.37489e-05
3.37483e-05
2.10924e-05
2.12706e-05
2.10919e-05
2.127e-05
3.72381e-05
3.37535e-05
3.37529e-05
3.4059e-05
3.4058e-05
3.43399e-05
2.81701e-05
3.45922e-05
2.79466e-05
3.6409e-05
3.57967e-05
3.55067e-05
3.57467e-05
3.64411e-05
3.55242e-05
3.55067e-05
3.64089e-05
3.57964e-05
3.55067e-05
3.57464e-05
3.64411e-05
3.55234e-05
3.55066e-05
3.45923e-05
2.79499e-05
2.81698e-05
3.43442e-05
3.45923e-05
2.79471e-05
2.81701e-05
3.4344e-05
3.64412e-05
3.57466e-05
3.55281e-05
3.55076e-05
3.57969e-05
3.55067e-05
3.64127e-05
3.64411e-05
3.57466e-05
3.5524e-05
3.55076e-05
3.57967e-05
3.55067e-05
3.64126e-05
3.40583e-05
3.40585e-05
3.7227e-05
3.3748e-05
3.37484e-05
2.12709e-05
2.10901e-05
2.10898e-05
2.12706e-05
3.72372e-05
3.37483e-05
3.37485e-05
3.40582e-05
3.40587e-05
2.109e-05
2.12709e-05
3.64092e-05
3.57962e-05
3.55067e-05
3.57464e-05
3.64413e-05
3.55236e-05
3.55067e-05
3.43402e-05
2.81695e-05
3.45922e-05
2.79462e-05
3.64092e-05
3.55067e-05
3.57968e-05
3.57469e-05
3.64414e-05
3.55067e-05
3.55238e-05
3.45924e-05
2.7949e-05
2.81694e-05
3.43443e-05
3.64413e-05
3.57466e-05
3.55275e-05
3.55076e-05
3.57963e-05
3.55067e-05
3.64131e-05
3.45924e-05
2.7949e-05
2.81695e-05
3.43442e-05
3.64414e-05
3.57466e-05
3.55076e-05
3.55281e-05
3.55067e-05
3.5797e-05
3.6413e-05
3.43395e-05
2.81696e-05
3.45922e-05
2.79464e-05
3.64087e-05
3.55067e-05
3.57966e-05
3.57465e-05
3.64409e-05
3.55067e-05
3.55237e-05
3.43394e-05
2.81697e-05
3.45922e-05
2.79463e-05
3.64412e-05
3.57463e-05
3.55234e-05
3.55067e-05
3.57962e-05
3.55067e-05
3.64091e-05
3.45923e-05
2.79463e-05
2.81695e-05
3.43397e-05
3.64414e-05
3.57467e-05
3.55068e-05
3.55285e-05
3.55067e-05
3.57969e-05
3.64091e-05
3.45923e-05
2.79488e-05
2.81694e-05
3.43399e-05
3.40581e-05
3.40586e-05
3.72281e-05
3.3748e-05
3.37482e-05
2.12702e-05
2.10898e-05
2.10924e-05
2.12695e-05
3.72387e-05
3.37587e-05
3.40583e-05
3.4059e-05
2.12702e-05
3.64091e-05
3.55067e-05
3.57962e-05
3.57465e-05
3.55067e-05
3.55233e-05
3.64411e-05
3.434e-05
2.81694e-05
2.79465e-05
3.45923e-05
3.43399e-05
2.81696e-05
2.79463e-05
3.45923e-05
3.6442e-05
3.57472e-05
3.55076e-05
3.57969e-05
3.6442e-05
3.57472e-05
3.55076e-05
3.57968e-05
3.45927e-05
2.81694e-05
3.45927e-05
2.81695e-05
2.12705e-05
2.10896e-05
2.12702e-05
2.10895e-05
3.72383e-05
3.37592e-05
3.40591e-05
3.40584e-05
2.10927e-05
2.12703e-05
2.127e-05
2.81735e-05
3.58011e-05
3.40586e-05
3.4059e-05
2.12706e-05
2.81693e-05
3.45926e-05
3.55085e-05
3.64423e-05
3.45928e-05
2.48769e-05
2.56687e-05
3.41802e-05
3.45922e-05
2.57999e-05
3.44228e-05
2.47255e-05
1.95099e-05
2.79471e-05
3.33981e-05
3.31741e-05
1.97217e-05
1.97215e-05
3.31739e-05
2.81701e-05
3.33981e-05
1.951e-05
2.47255e-05
3.43397e-05
2.57998e-05
3.44227e-05
2.56687e-05
3.41804e-05
2.48768e-05
2.10898e-05
2.12706e-05
2.48772e-05
3.41799e-05
2.56684e-05
3.4592e-05
3.44228e-05
2.57998e-05
2.47256e-05
1.95101e-05
2.7946e-05
3.33984e-05
3.31744e-05
1.97223e-05
1.97221e-05
3.31744e-05
2.81696e-05
3.33984e-05
1.95101e-05
2.47257e-05
3.43392e-05
3.44227e-05
2.57998e-05
3.41801e-05
2.56685e-05
2.48773e-05
2.48765e-05
3.45923e-05
2.56687e-05
3.41807e-05
2.57996e-05
3.44229e-05
2.47254e-05
1.95098e-05
3.3398e-05
2.79468e-05
1.97211e-05
3.31745e-05
2.47253e-05
3.43396e-05
2.57996e-05
3.44227e-05
2.48765e-05
2.56686e-05
3.41803e-05
1.97211e-05
3.31749e-05
2.81697e-05
3.33981e-05
1.95099e-05
2.10898e-05
2.12707e-05
2.48767e-05
3.45923e-05
3.4181e-05
2.56685e-05
3.4423e-05
2.57994e-05
2.47257e-05
1.95101e-05
3.33983e-05
2.7946e-05
1.97213e-05
3.31752e-05
2.47256e-05
3.43399e-05
3.44229e-05
2.57994e-05
2.48767e-05
3.41807e-05
2.56684e-05
1.97214e-05
3.31755e-05
2.81693e-05
3.33985e-05
1.95102e-05
2.10892e-05
2.12695e-05
3.31034e-05
2.00776e-05
2.00753e-05
2.00903e-05
2.0089e-05
3.30917e-05
3.55181e-05
3.7508e-05
3.37482e-05
2.77766e-05
3.74485e-05
2.73551e-05
3.5795e-05
3.55161e-05
3.75057e-05
3.37477e-05
2.77748e-05
3.74462e-05
2.73531e-05
3.57934e-05
3.57952e-05
2.7355e-05
3.40589e-05
3.74486e-05
3.75084e-05
2.77766e-05
3.55185e-05
3.57936e-05
2.73531e-05
3.4058e-05
3.74467e-05
3.75063e-05
2.77747e-05
3.55165e-05
3.30916e-05
2.00903e-05
2.00891e-05
2.00771e-05
2.0075e-05
3.31035e-05
2.10921e-05
2.10901e-05
2.12709e-05
2.10895e-05
2.12705e-05
3.31039e-05
2.00764e-05
2.00752e-05
2.00903e-05
2.00889e-05
3.30915e-05
3.55176e-05
3.75071e-05
3.37479e-05
2.77768e-05
2.73553e-05
3.74478e-05
3.57944e-05
3.55155e-05
3.75047e-05
3.37474e-05
2.77746e-05
2.73527e-05
3.74453e-05
3.57927e-05
3.57945e-05
2.73552e-05
3.40588e-05
3.74478e-05
2.77768e-05
3.55177e-05
3.75073e-05
3.57929e-05
2.73526e-05
3.40578e-05
3.74454e-05
2.77746e-05
3.55157e-05
3.75051e-05
3.30916e-05
2.00903e-05
2.00889e-05
2.00763e-05
2.00751e-05
3.3104e-05
2.12708e-05
2.10901e-05
2.12702e-05
2.10894e-05
3.30915e-05
2.00902e-05
2.00888e-05
3.31036e-05
2.00766e-05
2.00754e-05
3.57948e-05
3.74485e-05
3.40589e-05
2.73552e-05
2.77766e-05
3.75079e-05
3.55183e-05
3.57932e-05
3.7446e-05
3.40579e-05
2.73527e-05
2.77744e-05
3.75057e-05
3.55163e-05
3.5518e-05
2.77766e-05
3.75076e-05
3.37482e-05
3.57947e-05
2.73553e-05
3.74482e-05
3.5516e-05
2.77744e-05
3.75055e-05
3.37477e-05
3.57931e-05
2.73526e-05
3.74458e-05
3.31035e-05
2.00771e-05
2.00758e-05
2.00902e-05
2.00888e-05
3.30917e-05
2.48771e-05
2.56687e-05
3.41803e-05
3.45922e-05
2.57998e-05
3.44228e-05
2.47257e-05
1.951e-05
2.79466e-05
3.33986e-05
3.31747e-05
1.97217e-05
1.97218e-05
3.31747e-05
2.81701e-05
3.33986e-05
1.95101e-05
2.47257e-05
3.43397e-05
2.57998e-05
3.44228e-05
2.56686e-05
3.41803e-05
2.48771e-05
2.47255e-05
2.57999e-05
3.44228e-05
3.43396e-05
2.48768e-05
2.56687e-05
3.41802e-05
1.97214e-05
2.81699e-05
3.31741e-05
1.95098e-05
3.3398e-05
1.95099e-05
3.33981e-05
2.7947e-05
1.97215e-05
3.3174e-05
2.48767e-05
3.45922e-05
2.56686e-05
3.41801e-05
2.47254e-05
2.57998e-05
3.44228e-05
2.47257e-05
2.57998e-05
3.44228e-05
3.43397e-05
2.48772e-05
2.56687e-05
3.41803e-05
1.97219e-05
2.81701e-05
3.31748e-05
3.33986e-05
1.951e-05
1.951e-05
3.33986e-05
2.79466e-05
1.97218e-05
3.31748e-05
2.48771e-05
3.45922e-05
2.56686e-05
3.41802e-05
2.57998e-05
3.44229e-05
2.47256e-05
3.31035e-05
2.00757e-05
2.00768e-05
2.00891e-05
2.00904e-05
3.30916e-05
3.5516e-05
3.75056e-05
3.3748e-05
2.77748e-05
2.73531e-05
3.74464e-05
3.57929e-05
3.55177e-05
3.75062e-05
3.37482e-05
2.77765e-05
3.74471e-05
2.73551e-05
3.57941e-05
3.57929e-05
2.73531e-05
3.40581e-05
3.74464e-05
2.77748e-05
3.75058e-05
3.55161e-05
3.57941e-05
2.73551e-05
3.40584e-05
3.74469e-05
3.75063e-05
2.77764e-05
3.55176e-05
3.30916e-05
2.00891e-05
2.00904e-05
2.00756e-05
2.00768e-05
3.31036e-05
2.10901e-05
2.12708e-05
2.12708e-05
2.10898e-05
3.30917e-05
2.0089e-05
2.00904e-05
3.31037e-05
2.00761e-05
2.00772e-05
3.57929e-05
3.74466e-05
3.40583e-05
2.73531e-05
3.75058e-05
2.77749e-05
3.55163e-05
3.57942e-05
3.74472e-05
3.40585e-05
2.73551e-05
2.77766e-05
3.75063e-05
3.55178e-05
3.55163e-05
2.77747e-05
3.75059e-05
3.37482e-05
3.74466e-05
3.5793e-05
2.73531e-05
3.55179e-05
2.77764e-05
3.75062e-05
3.37484e-05
3.57942e-05
2.73552e-05
3.74473e-05
3.31042e-05
2.00761e-05
2.00771e-05
2.00892e-05
2.00905e-05
3.30918e-05
2.12709e-05
2.10901e-05
2.48768e-05
2.56685e-05
3.4592e-05
3.41797e-05
2.57998e-05
3.44227e-05
2.47252e-05
1.95097e-05
3.33981e-05
2.79462e-05
3.31735e-05
1.97217e-05
2.47252e-05
3.43392e-05
2.57999e-05
3.44227e-05
2.56685e-05
3.41797e-05
2.48769e-05
1.97214e-05
3.31734e-05
2.81697e-05
3.33981e-05
1.95097e-05
2.47256e-05
3.44228e-05
2.57997e-05
3.43393e-05
2.48771e-05
3.41801e-05
2.56684e-05
1.97215e-05
2.81693e-05
3.31748e-05
1.951e-05
3.33983e-05
1.951e-05
3.33984e-05
2.79459e-05
1.97218e-05
3.31745e-05
2.48768e-05
3.45922e-05
3.41802e-05
2.56684e-05
2.47255e-05
3.44228e-05
2.57995e-05
2.47252e-05
2.57997e-05
3.43393e-05
3.44227e-05
2.48766e-05
2.56684e-05
3.41799e-05
1.9721e-05
3.31739e-05
2.81696e-05
3.33982e-05
1.95097e-05
2.48764e-05
3.45922e-05
2.56684e-05
3.41801e-05
2.57995e-05
3.44228e-05
2.47252e-05
1.95097e-05
3.33981e-05
2.79461e-05
1.97211e-05
3.31737e-05
2.48772e-05
3.41804e-05
2.56685e-05
3.45921e-05
3.44228e-05
2.57997e-05
2.47259e-05
1.95103e-05
2.79465e-05
3.33983e-05
3.31747e-05
1.97221e-05
1.97221e-05
3.31748e-05
2.81694e-05
3.33983e-05
1.95103e-05
2.47258e-05
3.43397e-05
3.44227e-05
2.57996e-05
3.41805e-05
2.56685e-05
2.48772e-05
2.48768e-05
2.56685e-05
3.45921e-05
3.41801e-05
2.57997e-05
3.44227e-05
2.47254e-05
1.951e-05
3.33981e-05
2.79465e-05
3.31738e-05
1.97219e-05
2.47254e-05
3.43397e-05
2.57997e-05
3.44227e-05
2.56685e-05
3.41801e-05
2.48769e-05
1.97215e-05
3.31737e-05
2.81696e-05
3.33981e-05
1.95099e-05
2.47258e-05
3.44228e-05
2.57997e-05
3.43395e-05
2.48772e-05
3.41803e-05
2.56685e-05
1.97222e-05
2.81695e-05
3.3175e-05
3.33984e-05
1.95104e-05
1.95103e-05
3.33983e-05
2.79464e-05
1.97222e-05
3.31748e-05
2.48772e-05
3.45922e-05
3.41804e-05
2.56685e-05
3.44228e-05
2.57997e-05
2.47258e-05
2.47254e-05
2.57997e-05
3.43396e-05
3.44228e-05
2.48768e-05
2.56685e-05
3.41802e-05
1.97219e-05
3.3174e-05
2.81697e-05
3.33982e-05
1.95102e-05
2.48768e-05
3.45922e-05
2.56685e-05
3.41801e-05
2.57997e-05
3.44228e-05
2.47255e-05
1.951e-05
3.33982e-05
2.79465e-05
1.97217e-05
3.3174e-05
2.109e-05
2.12706e-05
2.10894e-05
2.127e-05
3.31032e-05
2.00775e-05
2.00759e-05
2.00901e-05
2.00887e-05
3.30917e-05
3.55184e-05
3.7508e-05
2.77765e-05
3.37486e-05
3.57949e-05
2.73552e-05
3.74487e-05
3.55165e-05
3.7506e-05
2.77743e-05
3.37482e-05
3.57934e-05
2.73527e-05
3.74465e-05
3.30917e-05
2.00902e-05
2.00887e-05
3.31034e-05
2.00774e-05
2.00759e-05
3.5795e-05
2.73552e-05
3.4059e-05
3.7449e-05
2.77765e-05
3.55187e-05
3.75082e-05
3.57935e-05
2.73527e-05
3.4058e-05
3.74466e-05
2.77743e-05
3.55167e-05
3.75061e-05
2.12708e-05
2.109e-05
2.12702e-05
2.10895e-05
3.30918e-05
2.00901e-05
2.00886e-05
3.31032e-05
2.00777e-05
2.00761e-05
3.57953e-05
3.74538e-05
3.40593e-05
2.73582e-05
2.77768e-05
3.75085e-05
3.55225e-05
3.57936e-05
3.74513e-05
3.40583e-05
2.73557e-05
2.77745e-05
3.75062e-05
3.55205e-05
3.55189e-05
2.77765e-05
3.75083e-05
3.37491e-05
3.57951e-05
2.73553e-05
3.74492e-05
3.55169e-05
2.77743e-05
3.75062e-05
3.37485e-05
3.57935e-05
2.73528e-05
3.7447e-05
3.31035e-05
2.008e-05
2.00785e-05
2.00903e-05
2.00888e-05
3.30965e-05
2.48769e-05
3.45923e-05
2.56687e-05
3.41804e-05
2.57996e-05
3.44229e-05
2.47257e-05
1.951e-05
3.33986e-05
2.79466e-05
1.97217e-05
3.31748e-05
2.47256e-05
3.43395e-05
2.57997e-05
3.44229e-05
2.56685e-05
2.4877e-05
3.41802e-05
1.97214e-05
3.31746e-05
2.81701e-05
3.33987e-05
1.951e-05
2.47255e-05
2.57996e-05
3.44229e-05
3.43401e-05
2.48766e-05
2.56687e-05
3.41809e-05
1.97215e-05
2.817e-05
3.31799e-05
1.95124e-05
3.33984e-05
1.951e-05
3.33981e-05
2.7947e-05
1.97214e-05
3.31752e-05
2.48766e-05
3.45927e-05
2.56714e-05
3.41851e-05
2.47281e-05
2.57998e-05
3.44233e-05
2.47258e-05
2.57996e-05
3.44229e-05
3.434e-05
2.4877e-05
2.56687e-05
3.41805e-05
1.97211e-05
2.81701e-05
3.31792e-05
3.33991e-05
1.95124e-05
1.951e-05
3.33988e-05
2.79467e-05
1.97213e-05
3.31746e-05
2.4877e-05
3.45926e-05
2.56714e-05
3.41846e-05
2.57997e-05
3.44233e-05
2.47285e-05
3.31039e-05
2.0076e-05
2.00767e-05
2.00891e-05
2.00905e-05
3.30916e-05
3.55162e-05
3.75058e-05
2.77748e-05
3.37481e-05
2.7353e-05
3.57931e-05
3.74466e-05
3.55178e-05
3.75065e-05
2.77764e-05
3.37482e-05
3.74473e-05
3.57943e-05
2.73551e-05
3.30918e-05
2.00891e-05
2.00904e-05
2.00761e-05
3.31041e-05
2.0077e-05
3.57932e-05
2.73529e-05
3.40583e-05
3.74466e-05
2.77748e-05
3.75063e-05
3.55161e-05
3.57944e-05
2.73552e-05
3.40587e-05
3.74474e-05
3.75066e-05
2.77765e-05
3.55179e-05
2.10901e-05
2.12709e-05
2.12706e-05
2.10898e-05
3.30916e-05
2.00891e-05
2.00904e-05
3.31037e-05
2.00763e-05
2.00768e-05
3.57936e-05
3.74472e-05
3.40584e-05
2.73529e-05
3.75069e-05
2.77748e-05
3.55165e-05
3.57947e-05
3.74477e-05
3.40587e-05
2.73552e-05
2.77766e-05
3.7507e-05
3.55181e-05
3.55163e-05
2.77748e-05
3.75065e-05
3.3748e-05
3.74468e-05
3.57934e-05
2.73529e-05
3.5518e-05
2.77765e-05
3.75069e-05
3.37486e-05
3.57947e-05
2.73552e-05
3.74476e-05
3.31037e-05
2.00765e-05
2.0077e-05
2.00891e-05
2.00905e-05
3.30917e-05
2.12708e-05
2.10901e-05
2.48763e-05
3.45923e-05
2.56686e-05
3.41806e-05
2.57994e-05
3.44229e-05
2.47253e-05
1.95097e-05
3.33982e-05
2.79462e-05
1.97207e-05
3.31741e-05
2.47252e-05
3.43399e-05
2.57994e-05
3.44228e-05
2.56685e-05
2.48763e-05
3.41804e-05
1.97205e-05
3.31741e-05
2.81694e-05
3.33983e-05
1.95097e-05
2.47257e-05
3.4423e-05
2.57995e-05
3.43404e-05
2.48769e-05
3.41811e-05
2.56686e-05
1.97217e-05
2.81694e-05
3.31799e-05
1.95126e-05
3.33988e-05
1.95103e-05
3.33985e-05
2.79462e-05
1.97216e-05
3.31756e-05
2.4877e-05
3.45927e-05
3.41851e-05
2.56713e-05
2.47284e-05
3.44233e-05
2.57996e-05
2.47254e-05
2.57995e-05
3.4423e-05
3.43403e-05
2.48764e-05
2.56686e-05
3.41808e-05
1.97208e-05
2.81697e-05
3.31788e-05
3.33986e-05
1.95122e-05
1.95099e-05
3.33983e-05
2.79462e-05
1.97207e-05
3.31744e-05
2.48765e-05
3.45928e-05
2.56713e-05
3.41848e-05
2.57996e-05
3.44233e-05
2.4728e-05
2.48772e-05
3.45922e-05
3.41803e-05
2.56685e-05
3.44229e-05
2.57997e-05
2.47258e-05
1.95103e-05
3.33984e-05
2.79465e-05
3.3175e-05
1.97224e-05
2.47259e-05
3.43397e-05
3.44228e-05
2.57997e-05
3.41805e-05
2.48772e-05
2.56686e-05
1.97223e-05
3.31749e-05
2.81695e-05
3.33984e-05
1.95103e-05
2.48767e-05
3.45922e-05
2.56685e-05
3.41798e-05
2.57997e-05
3.44228e-05
2.47253e-05
1.95101e-05
3.33982e-05
2.79464e-05
1.97219e-05
3.31738e-05
2.47254e-05
3.43396e-05
2.57997e-05
3.44228e-05
2.48769e-05
2.56685e-05
3.418e-05
1.97215e-05
3.31738e-05
2.81695e-05
3.33981e-05
1.951e-05
2.47257e-05
3.44229e-05
2.57995e-05
3.43396e-05
2.48771e-05
3.41804e-05
2.56685e-05
1.97219e-05
2.81694e-05
3.31749e-05
3.33983e-05
1.95102e-05
1.95103e-05
3.33983e-05
2.79464e-05
1.97221e-05
3.31749e-05
2.48769e-05
3.45923e-05
3.41804e-05
2.56684e-05
3.44229e-05
2.57995e-05
2.47257e-05
2.47254e-05
2.57995e-05
3.44228e-05
3.43397e-05
2.48766e-05
2.56685e-05
3.41803e-05
1.97213e-05
2.81694e-05
3.31751e-05
3.3398e-05
1.95101e-05
1.951e-05
3.3398e-05
2.79463e-05
1.97213e-05
3.31742e-05
2.48765e-05
3.45924e-05
2.56685e-05
3.41806e-05
2.57995e-05
3.44229e-05
2.47254e-05
3.31029e-05
2.00755e-05
2.00767e-05
2.00886e-05
2.00902e-05
3.30917e-05
3.55166e-05
3.75071e-05
3.37478e-05
2.77746e-05
2.73528e-05
3.74474e-05
3.57939e-05
3.55181e-05
3.75075e-05
3.3748e-05
2.77766e-05
3.74479e-05
2.73553e-05
3.57951e-05
3.57942e-05
2.73528e-05
3.40581e-05
3.74477e-05
2.77745e-05
3.75075e-05
3.55168e-05
3.57954e-05
2.73553e-05
3.40587e-05
3.7448e-05
3.75081e-05
2.77766e-05
3.55185e-05
3.30916e-05
2.00886e-05
2.00903e-05
2.00751e-05
2.00763e-05
3.31031e-05
2.10898e-05
2.12701e-05
2.12706e-05
2.10892e-05
3.30961e-05
2.00886e-05
2.00901e-05
3.31031e-05
2.00782e-05
2.00794e-05
3.74556e-05
3.40643e-05
3.75116e-05
3.55203e-05
2.77746e-05
3.75079e-05
3.3749e-05
3.74486e-05
3.57945e-05
2.73553e-05
3.55221e-05
2.77766e-05
3.75083e-05
3.37528e-05
3.57956e-05
2.73582e-05
3.74527e-05
2.10921e-05
2.48766e-05
3.41805e-05
2.56685e-05
3.45923e-05
3.44229e-05
2.57995e-05
2.47255e-05
1.95101e-05
2.79465e-05
3.3398e-05
3.31739e-05
1.97213e-05
1.97213e-05
3.31741e-05
2.81693e-05
3.33981e-05
1.95101e-05
2.47255e-05
3.43399e-05
3.44228e-05
2.57995e-05
3.41805e-05
2.56685e-05
2.48767e-05
2.48769e-05
3.41806e-05
2.56685e-05
3.45923e-05
3.4423e-05
2.57994e-05
2.47258e-05
1.95101e-05
2.79462e-05
3.33985e-05
3.31748e-05
1.97216e-05
1.97213e-05
3.31748e-05
2.81694e-05
3.33986e-05
1.95101e-05
2.47258e-05
3.43399e-05
3.44229e-05
2.57995e-05
3.41806e-05
2.56685e-05
2.4877e-05
2.47281e-05
3.44232e-05
2.57994e-05
3.43442e-05
2.48766e-05
3.41849e-05
2.56712e-05
1.95126e-05
3.33984e-05
2.79493e-05
1.97213e-05
3.31791e-05
2.47284e-05
3.44233e-05
2.57993e-05
3.43442e-05
2.48769e-05
3.4185e-05
2.56712e-05
1.95126e-05
3.33989e-05
2.79491e-05
1.97212e-05
3.31798e-05
2.10897e-05
2.12704e-05
2.10895e-05
2.127e-05
3.30961e-05
2.00902e-05
2.00889e-05
3.31034e-05
2.00801e-05
2.00776e-05
3.74576e-05
3.40651e-05
3.75132e-05
3.55219e-05
2.77766e-05
3.75086e-05
3.37491e-05
3.57956e-05
3.74494e-05
2.73574e-05
3.552e-05
2.77747e-05
3.75069e-05
3.37523e-05
3.5794e-05
3.74512e-05
2.73558e-05
2.12712e-05
2.10896e-05
2.10918e-05
2.79528e-05
3.55198e-05
3.75075e-05
2.77746e-05
3.37525e-05
2.73555e-05
3.57938e-05
3.74515e-05
3.55214e-05
3.75079e-05
2.77764e-05
3.37528e-05
3.74522e-05
3.57951e-05
2.73578e-05
3.30959e-05
2.00889e-05
2.00903e-05
2.00787e-05
3.31031e-05
2.00789e-05
2.10922e-05
1.95125e-05
3.33986e-05
2.79491e-05
3.31796e-05
1.97216e-05
2.47283e-05
3.43438e-05
3.44233e-05
2.57993e-05
3.41847e-05
2.48768e-05
2.56711e-05
1.95132e-05
3.34039e-05
1.97221e-05
3.31847e-05
2.4728e-05
3.43439e-05
2.57994e-05
3.44238e-05
2.48765e-05
2.56711e-05
3.41851e-05
3.54632e-05
3.54632e-05
3.54893e-05
3.54632e-05
3.54632e-05
3.54591e-05
3.54591e-05
3.54631e-05
3.54632e-05
3.54893e-05
3.54631e-05
3.54632e-05
3.54591e-05
3.54591e-05
3.67773e-05
3.73475e-05
3.73476e-05
3.72277e-05
3.73342e-05
3.73338e-05
3.69143e-05
3.67765e-05
3.73467e-05
3.73464e-05
3.72267e-05
3.73332e-05
3.7333e-05
3.69133e-05
3.6914e-05
3.72376e-05
3.73338e-05
3.73335e-05
3.73474e-05
3.73472e-05
3.67771e-05
3.67767e-05
3.73469e-05
3.73462e-05
3.72268e-05
3.73329e-05
3.73334e-05
3.69133e-05
3.69132e-05
3.7237e-05
3.73334e-05
3.73331e-05
3.73468e-05
3.73462e-05
3.67768e-05
3.67773e-05
3.73474e-05
3.73475e-05
3.72274e-05
3.69142e-05
3.73341e-05
3.73338e-05
3.69143e-05
3.7238e-05
3.73367e-05
3.73365e-05
3.73475e-05
3.73474e-05
3.67804e-05
3.67768e-05
3.73471e-05
3.73466e-05
3.72269e-05
3.73331e-05
3.69135e-05
3.73336e-05
3.69141e-05
3.72376e-05
3.73339e-05
3.73334e-05
3.73477e-05
3.73468e-05
3.67771e-05
3.67775e-05
3.73481e-05
3.73475e-05
3.7228e-05
3.73341e-05
3.73345e-05
3.69146e-05
3.72427e-05
3.73399e-05
3.73518e-05
3.72423e-05
3.73402e-05
3.73515e-05
3.67798e-05
3.7348e-05
3.73471e-05
3.72301e-05
3.73358e-05
3.69144e-05
3.73365e-05
3.54632e-05
3.54632e-05
3.54893e-05
3.54632e-05
3.54632e-05
3.54591e-05
3.54591e-05
3.54632e-05
3.54632e-05
3.54893e-05
3.54632e-05
3.54632e-05
3.54591e-05
3.54591e-05
3.54632e-05
3.54632e-05
3.54893e-05
3.54632e-05
3.54632e-05
3.54591e-05
3.54591e-05
3.54893e-05
3.54631e-05
3.54632e-05
3.54632e-05
3.54632e-05
3.54591e-05
3.54591e-05
3.54893e-05
3.54632e-05
3.54632e-05
3.54632e-05
3.54632e-05
3.54591e-05
3.54591e-05
3.54893e-05
3.54632e-05
3.54631e-05
3.54632e-05
3.54632e-05
3.54591e-05
3.54591e-05
3.54893e-05
3.54632e-05
3.54632e-05
3.54632e-05
3.54632e-05
3.54591e-05
3.54591e-05
3.5933e-05
3.64549e-05
3.59391e-05
3.64406e-05
3.64821e-05
3.58881e-05
3.59897e-05
3.61783e-05
3.65866e-05
3.55231e-05
3.65101e-05
3.65825e-05
3.64779e-05
3.61175e-05
3.61175e-05
3.64778e-05
3.57958e-05
3.65824e-05
3.65866e-05
3.651e-05
3.61783e-05
3.59898e-05
3.64086e-05
3.64821e-05
3.58881e-05
3.6455e-05
3.59392e-05
3.5933e-05
3.54632e-05
3.54632e-05
3.54893e-05
3.54632e-05
3.54632e-05
3.54591e-05
3.54591e-05
3.54632e-05
3.54632e-05
3.54893e-05
3.54632e-05
3.54632e-05
3.54591e-05
3.54591e-05
3.54632e-05
3.54632e-05
3.54893e-05
3.54632e-05
3.54632e-05
3.54591e-05
3.54591e-05
3.54893e-05
3.54641e-05
3.54641e-05
3.54632e-05
3.54632e-05
3.54592e-05
3.54601e-05
3.54893e-05
3.54641e-05
3.54633e-05
3.54632e-05
3.54632e-05
3.54592e-05
3.54601e-05
3.54893e-05
3.54641e-05
3.5465e-05
3.54632e-05
3.54633e-05
3.54592e-05
3.54601e-05
3.54894e-05
3.54634e-05
3.5465e-05
3.54632e-05
3.54633e-05
3.54592e-05
3.54601e-05
3.59331e-05
3.6441e-05
3.6455e-05
3.59391e-05
3.64823e-05
3.58882e-05
3.59898e-05
3.61783e-05
3.65867e-05
3.65101e-05
3.55232e-05
3.61175e-05
3.65825e-05
3.6478e-05
3.59898e-05
3.64088e-05
3.64822e-05
3.58882e-05
3.59331e-05
3.64551e-05
3.59392e-05
3.61176e-05
3.64781e-05
3.5796e-05
3.65827e-05
3.65868e-05
3.65103e-05
3.61784e-05
3.59333e-05
3.59393e-05
3.64555e-05
3.64415e-05
3.58884e-05
3.6483e-05
3.599e-05
3.61785e-05
3.65876e-05
3.55234e-05
3.65108e-05
3.65831e-05
3.64781e-05
3.6118e-05
3.6118e-05
3.64782e-05
3.57966e-05
3.65831e-05
3.65878e-05
3.65109e-05
3.61786e-05
3.59899e-05
3.64091e-05
3.58883e-05
3.64828e-05
3.59392e-05
3.64554e-05
3.59333e-05
3.69146e-05
3.72384e-05
3.73341e-05
3.73341e-05
3.7348e-05
3.73478e-05
3.67775e-05
3.54651e-05
3.54659e-05
3.61809e-05
3.65877e-05
3.65114e-05
3.55273e-05
3.61183e-05
3.65856e-05
3.64821e-05
3.59924e-05
3.6413e-05
3.64835e-05
3.58889e-05
3.59338e-05
3.64591e-05
3.5942e-05
3.69135e-05
3.72372e-05
3.73332e-05
3.7333e-05
3.67765e-05
3.73467e-05
3.73469e-05
3.67769e-05
3.72273e-05
3.73471e-05
3.73472e-05
3.69139e-05
3.73337e-05
3.73334e-05
3.59331e-05
3.64548e-05
3.5939e-05
3.64406e-05
3.64822e-05
3.58881e-05
3.59897e-05
3.61785e-05
3.65875e-05
3.55233e-05
3.65105e-05
3.64781e-05
3.6583e-05
3.61179e-05
3.61179e-05
3.64779e-05
3.57964e-05
3.6583e-05
3.65106e-05
3.65874e-05
3.61785e-05
3.59897e-05
3.64085e-05
3.64822e-05
3.58881e-05
3.64549e-05
3.5939e-05
3.59331e-05
3.5933e-05
3.64548e-05
3.5939e-05
3.64406e-05
3.64821e-05
3.58881e-05
3.59897e-05
3.61785e-05
3.65868e-05
3.55233e-05
3.65105e-05
3.64781e-05
3.65826e-05
3.61178e-05
3.61178e-05
3.64781e-05
3.57963e-05
3.65826e-05
3.65105e-05
3.61785e-05
3.65868e-05
3.59897e-05
3.64085e-05
3.64822e-05
3.58881e-05
3.64548e-05
3.5939e-05
3.59331e-05
3.59898e-05
3.64824e-05
3.58881e-05
3.64086e-05
3.59331e-05
3.6455e-05
3.59391e-05
3.6118e-05
3.65835e-05
3.57966e-05
3.64783e-05
3.65878e-05
3.65108e-05
3.61787e-05
3.61786e-05
3.65107e-05
3.65875e-05
3.55235e-05
3.65832e-05
3.61179e-05
3.64782e-05
3.59332e-05
3.64409e-05
3.64551e-05
3.59391e-05
3.64826e-05
3.58882e-05
3.59898e-05
3.59897e-05
3.64822e-05
3.58881e-05
3.64086e-05
3.59331e-05
3.6455e-05
3.59391e-05
3.61178e-05
3.65827e-05
3.57963e-05
3.64783e-05
3.65106e-05
3.65868e-05
3.61786e-05
3.61786e-05
3.65106e-05
3.65868e-05
3.55235e-05
3.61177e-05
3.64783e-05
3.65827e-05
3.59331e-05
3.64408e-05
3.6455e-05
3.59391e-05
3.64823e-05
3.58882e-05
3.59898e-05
3.69133e-05
3.7237e-05
3.73335e-05
3.73329e-05
3.73462e-05
3.73468e-05
3.67766e-05
3.67768e-05
3.72269e-05
3.73473e-05
3.73464e-05
3.73336e-05
3.69135e-05
3.7333e-05
3.5933e-05
3.64546e-05
3.5939e-05
3.64405e-05
3.6482e-05
3.58881e-05
3.59896e-05
3.61782e-05
3.65862e-05
3.55227e-05
3.651e-05
3.64777e-05
3.6582e-05
3.61175e-05
3.61175e-05
3.64777e-05
3.57959e-05
3.6582e-05
3.65102e-05
3.65865e-05
3.61782e-05
3.59896e-05
3.64083e-05
3.64818e-05
3.5888e-05
3.64547e-05
3.5939e-05
3.5933e-05
3.59331e-05
3.5939e-05
3.64405e-05
3.64547e-05
3.58881e-05
3.64822e-05
3.59897e-05
3.61785e-05
3.65871e-05
3.65104e-05
3.55228e-05
3.64778e-05
3.61179e-05
3.65826e-05
3.59897e-05
3.64083e-05
3.58881e-05
3.64821e-05
3.5939e-05
3.64547e-05
3.59331e-05
3.61179e-05
3.64778e-05
3.57964e-05
3.65825e-05
3.65106e-05
3.61784e-05
3.65873e-05
3.59896e-05
3.64822e-05
3.58881e-05
3.64085e-05
3.59331e-05
3.64549e-05
3.59391e-05
3.61177e-05
3.65823e-05
3.57961e-05
3.64781e-05
3.65866e-05
3.65106e-05
3.61784e-05
3.61782e-05
3.65104e-05
3.65865e-05
3.55229e-05
3.65821e-05
3.61176e-05
3.64779e-05
3.59332e-05
3.64411e-05
3.6455e-05
3.59391e-05
3.64825e-05
3.58883e-05
3.59898e-05
3.59897e-05
3.58882e-05
3.64085e-05
3.64825e-05
3.59333e-05
3.59391e-05
3.64549e-05
3.61181e-05
3.65829e-05
3.64783e-05
3.57966e-05
3.6511e-05
3.61787e-05
3.65874e-05