/*--------------------------------*- C++ -*----------------------------------*\
| =========                 |                                                 |
| \\      /  F ield         | OpenFOAM: The Open Source CFD Toolbox           |
|  \\    /   O peration     | Version:  2206                                  |
|   \\  /    A nd           | Website:  www.openfoam.com                      |
|    \\/     M anipulation  |                                                 |
\*---------------------------------------------------------------------------*/
FoamFile
{
    version     2.0;
    format      ascii;
    arch        "LSB;label=32;scalar=64";
    class       volScalarField;
    location    "4";
    object      nut;
}
// * * * * * * * * * * * * * * * * * * * * * * * * * * * * * * * * * * * * * //

dimensions      [0 2 -1 0 0 0 0];

internalField   nonuniform List<scalar> 
28448
(
0.00023376
0.000233354
0.000233342
0.00023283
0.000233752
0.000233339
0.000233344
0.000232814
0.000233759
0.000233345
0.000233345
0.000232814
0.000233759
0.000233345
0.000233345
0.000232814
0.000233759
0.000233345
0.000233345
0.000232814
0.000233759
0.000233345
0.000233345
0.000232814
0.000233759
0.000233345
0.000233345
0.000232814
0.000233759
0.000233345
0.000233345
0.000232814
0.000233759
0.000233345
0.000233345
0.000232814
0.000233759
0.000233345
0.000233345
0.000232814
0.000233759
0.000233345
0.000233345
0.000232814
0.000233759
0.000233345
0.000233345
0.000232814
0.000233759
0.000233345
0.000233345
0.000232814
0.000233759
0.000233345
0.000233345
0.000232814
0.000233759
0.000233345
0.000233345
0.000232814
0.000233759
0.000233345
0.000233345
0.000232814
0.000233759
0.000233345
0.000233345
0.000232814
0.00023376
0.000233347
0.000232851
0.000233357
0.000233357
0.000232851
0.000233357
0.000233354
0.000233358
0.000233354
0.000232846
0.000233355
0.000233354
0.000232846
0.00023284
0.000232814
0.000233354
0.000233354
0.00023333
0.00023333
0.000232841
0.000232814
0.000233354
0.000233342
0.00023333
0.000233338
0.000233343
0.00023333
0.000233338
0.000232829
0.00023282
0.000233343
0.000233339
0.000233338
0.000232817
0.000232812
0.000232822
0.000233339
0.000233339
0.000233345
0.000233345
0.000232812
0.000232822
0.000233339
0.000233344
0.000233345
0.000233345
0.000233344
0.000233345
0.000233345
0.000232818
0.000232822
0.000233344
0.000233345
0.000233345
0.00023282
0.000232818
0.000232822
0.000233345
0.000233345
0.000233345
0.000233345
0.000232818
0.000232822
0.000233345
0.000233345
0.000233345
0.000233344
0.000233345
0.000233345
0.000233345
0.000232817
0.000232822
0.000233345
0.000233345
0.000233345
0.00023282
0.000232818
0.000232822
0.000233345
0.000233345
0.000233345
0.000233345
0.000232818
0.000232823
0.000233345
0.000233345
0.000233345
0.000233344
0.000233345
0.000233345
0.000233345
0.000232817
0.000232822
0.000233345
0.000233345
0.000233345
0.00023282
0.000232818
0.000232822
0.000233345
0.000233345
0.000233345
0.000233345
0.000232818
0.000232823
0.000233345
0.000233345
0.000233345
0.000233344
0.000233345
0.000233345
0.000233345
0.000232817
0.000232822
0.000233345
0.000233345
0.000233345
0.00023282
0.000232818
0.000232822
0.000233345
0.000233345
0.000233345
0.000233345
0.000232818
0.000232822
0.000233345
0.000233345
0.000233345
0.000233344
0.000233345
0.000233345
0.000233345
0.000232817
0.000232822
0.000233345
0.000233345
0.000233345
0.00023282
0.000232818
0.000232822
0.000233345
0.000233345
0.000233345
0.000233345
0.000232818
0.000232823
0.000233345
0.000233345
0.000233345
0.000233344
0.000233345
0.000233345
0.000233345
0.000232817
0.000232822
0.000233345
0.000233345
0.000233345
0.00023282
0.000232818
0.000232822
0.000233345
0.000233345
0.000233345
0.000233345
0.000232818
0.000232823
0.000233345
0.000233345
0.000233345
0.000233344
0.000233345
0.000233345
0.000233345
0.000232817
0.000232822
0.000233345
0.000233345
0.000233345
0.00023282
0.000232818
0.000232822
0.000233345
0.000233345
0.000233345
0.000233345
0.000232818
0.000232822
0.000233345
0.000233345
0.000233345
0.000233344
0.000233345
0.000233345
0.000233345
0.000232817
0.000232822
0.000233345
0.000233345
0.000233345
0.00023282
0.000232818
0.000232822
0.000233345
0.000233345
0.000233345
0.000233345
0.000232818
0.000232823
0.000233345
0.000233345
0.000233345
0.000233344
0.000233345
0.000233345
0.000233345
0.000232817
0.000232822
0.000233345
0.000233345
0.000233345
0.00023282
0.000232818
0.000232822
0.000233345
0.000233345
0.000233345
0.000233345
0.000232818
0.000232822
0.000233345
0.000233345
0.000233345
0.000233344
0.000233345
0.000233345
0.000233345
0.000232817
0.000232822
0.000233345
0.000233345
0.000233345
0.00023282
0.000232818
0.000232822
0.000233345
0.000233345
0.000233345
0.000233345
0.000232818
0.000232823
0.000233345
0.000233345
0.000233345
0.000233344
0.000233345
0.000233345
0.000233345
0.000232817
0.000232822
0.000233345
0.000233345
0.000233345
0.00023282
0.000232818
0.000232822
0.000233345
0.000233345
0.000233345
0.000233345
0.000232818
0.000232823
0.000233345
0.000233345
0.000233345
0.000233344
0.000233345
0.000233345
0.000233345
0.000232817
0.000232822
0.000233345
0.000233345
0.000233345
0.00023282
0.000232818
0.000232822
0.000233345
0.000233345
0.000233345
0.000233345
0.000232818
0.000232822
0.000233345
0.000233345
0.000233345
0.000233344
0.000233345
0.000233345
0.000233345
0.000232817
0.000232822
0.000233345
0.000233345
0.000233345
0.00023282
0.000232818
0.000232822
0.000233345
0.000233345
0.000233345
0.000233345
0.000232818
0.000232822
0.000233345
0.000233345
0.000233345
0.000233344
0.000233345
0.000233345
0.000233345
0.000232817
0.000232822
0.000233345
0.000233345
0.000233345
0.00023282
0.000232818
0.000232822
0.000233345
0.000233345
0.000233345
0.000233345
0.000232818
0.000232822
0.000233345
0.000233345
0.000233345
0.000233344
0.000233345
0.000233345
0.000233345
0.000232817
0.000232822
0.000233345
0.000233345
0.000233345
0.00023282
0.000232818
0.000232824
0.000233345
0.000233345
0.000233346
0.000232818
0.000233345
0.000233345
0.000233345
0.000233344
0.000233345
0.000233346
0.000232817
0.000232822
0.000233345
0.000233345
0.000233346
0.000232828
0.000232828
0.000233346
0.000233345
0.000232815
0.000233763
0.000233763
0.000233761
0.00023376
0.000119734
4.08235e-05
0.000119765
4.0828e-05
2.25925e-05
2.25966e-05
0.000119737
4.08199e-05
0.00011979
4.08245e-05
0.00023376
0.000233751
0.00023375
0.000233742
0.000233743
0.000233752
0.000233752
0.000212087
0.00013545
0.000233697
0.000233342
0.000212205
0.000135416
0.00023368
2.25928e-05
2.26107e-05
0.000212084
0.000233694
0.000135418
0.000233324
0.000212201
0.000233678
0.00013527
8.12015e-05
8.1188e-05
0.000232805
8.10287e-05
8.1014e-05
0.000119452
4.08486e-05
0.000119435
4.08479e-05
2.26174e-05
2.26167e-05
0.000119465
4.08451e-05
0.000119449
4.08443e-05
0.000233753
0.000233758
0.000233757
0.000233759
0.000233759
0.000233759
0.000233758
0.000212032
0.000135126
0.0002337
0.000233344
0.000212012
0.000135153
0.000233702
2.2616e-05
2.26153e-05
0.000212029
0.000233701
0.000135131
0.000233345
0.000212008
0.000233702
0.00013516
8.09301e-05
8.09157e-05
0.000232824
8.09401e-05
8.09261e-05
0.000119452
4.08486e-05
0.000119435
4.08478e-05
2.26174e-05
2.26167e-05
0.000119466
4.0845e-05
0.000119449
4.08443e-05
0.000233759
0.000233759
0.000233758
0.000233758
0.000233759
0.000233759
0.000233758
0.000212032
0.000135124
0.000233702
0.000233346
0.000212015
0.000135155
0.000233703
2.26159e-05
2.26153e-05
0.000212029
0.000233702
0.000135132
0.000233346
0.000212012
0.000233703
0.00013516
8.09303e-05
8.09162e-05
0.000232824
8.09402e-05
8.0926e-05
0.000119452
4.08485e-05
0.000119435
4.08478e-05
2.26174e-05
2.26167e-05
0.000119466
4.0845e-05
0.000119449
4.08443e-05
0.000233759
0.000233759
0.000233759
0.000233759
0.000233759
0.000233759
0.000233758
0.000212031
0.000135124
0.000233702
0.000233346
0.000212015
0.000135155
0.000233703
2.26159e-05
2.26153e-05
0.000212029
0.000233702
0.000135132
0.000233346
0.000212011
0.000233703
0.00013516
8.09303e-05
8.09163e-05
0.000232824
8.09402e-05
8.09259e-05
0.000119452
4.08485e-05
0.000119435
4.08478e-05
2.26174e-05
2.26167e-05
0.000119466
4.0845e-05
0.000119449
4.08443e-05
0.000233759
0.000233759
0.000233759
0.000233759
0.000233759
0.000233759
0.000233758
0.000212032
0.000135124
0.000233702
0.000233346
0.000212015
0.000135155
0.000233703
2.26159e-05
2.26153e-05
0.000212029
0.000233702
0.000135133
0.000233346
0.000212011
0.000233703
0.00013516
8.09302e-05
8.09163e-05
0.000232824
8.09402e-05
8.09262e-05
0.000119452
4.08485e-05
0.000119434
4.08478e-05
2.26174e-05
2.26167e-05
0.000119466
4.0845e-05
0.000119449
4.08443e-05
0.000233759
0.000233759
0.000233759
0.000233759
0.000233759
0.000233759
0.000233758
0.000212031
0.000135124
0.000233702
0.000233346
0.000212015
0.000135155
0.000233703
2.26159e-05
2.26153e-05
0.00021203
0.000233702
0.000135132
0.000233346
0.000212012
0.000233703
0.00013516
8.09303e-05
8.0916e-05
0.000232824
8.09402e-05
8.09263e-05
0.000119452
4.08485e-05
0.000119435
4.08478e-05
2.26174e-05
2.26167e-05
0.000119466
4.0845e-05
0.000119449
4.08443e-05
0.000233759
0.000233759
0.000233759
0.000233759
0.000233759
0.000233759
0.000233758
0.000212031
0.000135124
0.000233702
0.000233346
0.000212015
0.000135155
0.000233703
2.26159e-05
2.26153e-05
0.000212029
0.000233702
0.000135132
0.000233346
0.000212012
0.000233703
0.00013516
8.09303e-05
8.09164e-05
0.000232824
8.09402e-05
8.09261e-05
0.000119452
4.08485e-05
0.000119435
4.08478e-05
2.26174e-05
2.26167e-05
0.000119466
4.0845e-05
0.000119449
4.08443e-05
0.000233759
0.000233759
0.000233759
0.000233759
0.000233759
0.000233759
0.000233758
0.000212031
0.000135124
0.000233702
0.000233346
0.000212015
0.000135155
0.000233703
2.26159e-05
2.26153e-05
0.00021203
0.000233702
0.000135132
0.000233346
0.000212012
0.000233703
0.00013516
8.09303e-05
8.09164e-05
0.000232824
8.09402e-05
8.09261e-05
0.000119452
4.08485e-05
0.000119434
4.08478e-05
2.26174e-05
2.26167e-05
0.000119466
4.0845e-05
0.000119449
4.08443e-05
0.000233759
0.000233759
0.000233759
0.000233759
0.000233759
0.000233759
0.000233758
0.000212032
0.000135124
0.000233702
0.000233346
0.000212015
0.000135155
0.000233703
2.26159e-05
2.26153e-05
0.00021203
0.000233702
0.000135132
0.000233346
0.000212013
0.000233703
0.00013516
8.09303e-05
8.09163e-05
0.000232824
8.09402e-05
8.09261e-05
0.000119452
4.08485e-05
0.000119435
4.08478e-05
2.26174e-05
2.26167e-05
0.000119466
4.0845e-05
0.000119449
4.08443e-05
0.000233759
0.000233759
0.000233759
0.000233759
0.000233759
0.000233759
0.000233758
0.000212031
0.000135124
0.000233702
0.000233346
0.000212015
0.000135155
0.000233703
2.26159e-05
2.26153e-05
0.000212025
0.000233702
0.000135132
0.000233346
0.000212009
0.000233703
0.00013516
8.09302e-05
8.09163e-05
0.000232824
8.09402e-05
8.09262e-05
0.000119452
4.08485e-05
0.000119435
4.08478e-05
2.26174e-05
2.26167e-05
0.000119466
4.0845e-05
0.000119449
4.08443e-05
0.000233759
0.000233759
0.000233759
0.000233759
0.000233759
0.000233759
0.000233758
0.000212032
0.000135124
0.000233702
0.000233346
0.000212015
0.000135155
0.000233703
2.26159e-05
2.26153e-05
0.000212025
0.000233702
0.000135132
0.000233346
0.000212008
0.000233703
0.00013516
8.09303e-05
8.09161e-05
0.000232824
8.09402e-05
8.09259e-05
0.000119452
4.08485e-05
0.000119435
4.08478e-05
2.26174e-05
2.26167e-05
0.000119466
4.0845e-05
0.000119449
4.08443e-05
0.000233759
0.000233759
0.000233759
0.000233759
0.000233759
0.000233759
0.000233758
0.000212031
0.000135124
0.000233702
0.000233346
0.000212014
0.000135155
0.000233703
2.26159e-05
2.26153e-05
0.000212025
0.000233702
0.000135132
0.000233346
0.000212007
0.000233703
0.00013516
8.09303e-05
8.0916e-05
0.000232824
8.09402e-05
8.09258e-05
0.000119452
4.08485e-05
0.000119435
4.08478e-05
2.26174e-05
2.26167e-05
0.000119466
4.0845e-05
0.000119449
4.08443e-05
0.000233759
0.000233759
0.000233759
0.000233759
0.000233759
0.000233759
0.000233758
0.000212031
0.000135124
0.000233702
0.000233346
0.000212015
0.000135155
0.000233703
2.26159e-05
2.26153e-05
0.000212025
0.000233702
0.000135132
0.000233346
0.000212007
0.000233703
0.00013516
8.09303e-05
8.0916e-05
0.000232824
8.09402e-05
8.09259e-05
0.000119452
4.08485e-05
0.000119435
4.08478e-05
2.26174e-05
2.26167e-05
0.000119466
4.0845e-05
0.000119449
4.08443e-05
0.000233759
0.000233759
0.000233759
0.000233759
0.000233759
0.000233759
0.000233758
0.000212031
0.000135124
0.000233702
0.000233346
0.000212015
0.000135155
0.000233703
2.26159e-05
2.26153e-05
0.000212026
0.000233702
0.000135132
0.000233346
0.000212008
0.000233703
0.00013516
8.09303e-05
8.09161e-05
0.000232824
8.09402e-05
8.09259e-05
0.000119452
4.08485e-05
0.000119435
4.08478e-05
2.26174e-05
2.26167e-05
0.000119466
4.0845e-05
0.000119449
4.08443e-05
0.000233759
0.000233759
0.000233759
0.000233759
0.000233759
0.000233758
0.000233758
0.000212031
0.000135124
0.000233702
0.000233346
0.000212015
0.000135155
0.000233703
2.26159e-05
2.26153e-05
0.000212026
0.000233702
0.000135132
0.000233346
0.000212008
0.000233703
0.00013516
8.09303e-05
8.09161e-05
0.000232824
8.09402e-05
8.09259e-05
0.000119452
4.08485e-05
0.000119435
4.08478e-05
2.26174e-05
2.26167e-05
0.000119466
4.0845e-05
0.000119449
4.08443e-05
0.000233759
0.000233759
0.000233759
0.000233759
0.000233759
0.000233759
0.000233758
0.000212031
0.000135124
0.000233702
0.000233346
0.000212015
0.000135155
0.000233703
2.26159e-05
2.26153e-05
0.000212025
0.000233702
0.000135132
0.000233346
0.000212007
0.000233703
0.00013516
8.09302e-05
8.09163e-05
0.000232824
8.09402e-05
8.0926e-05
0.000119452
4.08485e-05
0.000119434
4.08478e-05
2.26174e-05
2.26167e-05
0.000119466
4.0845e-05
0.000119449
4.08443e-05
0.000233759
0.000233759
0.000233759
0.000233759
0.000233761
0.000233759
0.000233759
0.000212031
0.000135124
0.000233702
0.000233346
0.000212015
0.000135155
0.000233703
2.26159e-05
2.26153e-05
0.000212025
0.000233702
0.000135132
0.000233346
0.000212007
0.000233703
0.00013516
8.09302e-05
8.09162e-05
0.000232824
8.09401e-05
8.0926e-05
4.0845e-05
0.000119449
0.00023376
2.2616e-05
0.000135143
2.25934e-05
2.25921e-05
8.12278e-05
8.12112e-05
4.08231e-05
0.000119782
4.08226e-05
0.000119779
0.000135482
0.000233708
0.000212238
0.000135474
0.000233708
0.000212236
2.25925e-05
8.12133e-05
8.1216e-05
2.25934e-05
4.08195e-05
0.000119804
0.000135463
0.000233709
0.000212254
0.000119767
4.0819e-05
4.08184e-05
0.000119773
0.000212218
0.000233357
0.000233706
0.000135435
0.000233709
0.000135405
0.000212233
0.000212217
0.000135481
0.000233707
0.000233709
0.00021223
0.000119756
4.08222e-05
0.000119765
0.000212218
0.000233357
0.000233706
0.00013546
0.000233708
0.000135435
0.000212229
0.000119755
4.08211e-05
4.08204e-05
0.000119764
2.25917e-05
2.25919e-05
0.000232847
8.11897e-05
8.12199e-05
8.11839e-05
8.12176e-05
2.25932e-05
2.25932e-05
0.000212214
0.000233357
0.000233706
0.000135463
0.000233708
0.000135438
0.000212227
0.000212218
0.000233357
0.000233706
0.000135449
0.000233708
0.000135424
0.00021223
0.000119753
4.08208e-05
4.08201e-05
0.000119763
0.000119765
4.08204e-05
4.08197e-05
0.000119769
0.000232847
8.12195e-05
8.1206e-05
8.12195e-05
8.12057e-05
2.25932e-05
2.25931e-05
2.25925e-05
2.25924e-05
2.25933e-05
2.25971e-05
2.25921e-05
2.25962e-05
8.12324e-05
8.1216e-05
0.00023282
8.11915e-05
8.11741e-05
2.26176e-05
2.26052e-05
2.26163e-05
2.26044e-05
0.000232787
8.0946e-05
8.09302e-05
8.11078e-05
8.10895e-05
0.000119733
4.08227e-05
0.000119772
4.08269e-05
0.000212198
0.000135464
0.000233706
0.000233343
0.000212228
0.000135426
0.000233695
0.000212198
0.000135456
0.000233705
0.000233343
0.000212226
0.000135417
0.000233694
0.000119631
4.08479e-05
4.0836e-05
0.000119465
0.000119633
4.08469e-05
4.08348e-05
0.000119465
0.000212123
0.000233322
0.000135171
0.000233687
0.000135334
0.000233677
0.000212036
0.000212123
0.000233322
0.000135163
0.000233686
0.000135325
0.000233677
0.000212036
8.12171e-05
8.12139e-05
0.000232821
8.11759e-05
8.1184e-05
2.25934e-05
2.2597e-05
2.2617e-05
2.26047e-05
0.000232788
8.09324e-05
8.09443e-05
8.1091e-05
8.10927e-05
2.26174e-05
2.26052e-05
0.000212185
0.000135441
0.000233706
0.000233343
0.00021224
0.000135405
0.000233694
0.000119594
4.08201e-05
0.000119765
4.08375e-05
0.000212103
0.000233696
0.000135399
0.000233322
0.000212212
0.000233678
0.000135247
0.000119629
4.08443e-05
4.08326e-05
0.000119468
0.000212111
0.000233322
0.000135153
0.000233687
0.000135308
0.000233678
0.000212035
0.000119502
4.08427e-05
4.0841e-05
0.000119457
0.000212049
0.000233329
0.000233695
0.000135128
0.000233685
0.000135155
0.000212028
0.000119568
4.08222e-05
0.000119747
4.08264e-05
0.000212085
0.000233695
0.000135428
0.000233322
0.000212206
0.000233678
0.000135269
0.000119566
4.08221e-05
0.000119746
4.08396e-05
0.000212042
0.000233323
0.000135167
0.000233695
0.000135319
0.000233687
0.000212027
0.000119477
4.08464e-05
4.08345e-05
0.000119447
0.00021204
0.000233329
0.000233696
0.000135155
0.000233686
0.000135178
0.000212029
0.000119475
4.08448e-05
4.08431e-05
0.000119446
8.11724e-05
8.1209e-05
0.000232804
8.10051e-05
8.10286e-05
2.2594e-05
2.26121e-05
2.26157e-05
2.26137e-05
0.000232796
8.09045e-05
8.09355e-05
8.0933e-05
8.09631e-05
2.2617e-05
2.26151e-05
0.000212086
0.000233695
0.000135417
0.000233323
0.000212208
0.000233677
0.000135259
0.000119565
4.0822e-05
0.000119744
4.08396e-05
0.000119569
4.08215e-05
0.000119759
4.08391e-05
0.000212038
0.000233331
0.000233695
0.000135159
0.000233686
0.000135181
0.000212024
0.00021204
0.000233329
0.000233696
0.000135145
0.000233686
0.000135167
0.000212029
0.000119473
4.08446e-05
4.08429e-05
0.000119446
0.000119481
4.08442e-05
4.08425e-05
0.000119454
2.2594e-05
2.26123e-05
2.25934e-05
2.26116e-05
0.000232798
8.09365e-05
8.09218e-05
8.09633e-05
8.09489e-05
2.26168e-05
2.26151e-05
2.26162e-05
2.26144e-05
2.26173e-05
2.26175e-05
2.2616e-05
2.26162e-05
8.09345e-05
8.09186e-05
0.000232824
8.09374e-05
8.09218e-05
2.26178e-05
2.26169e-05
2.26165e-05
2.26156e-05
0.00023282
8.09383e-05
8.09225e-05
8.094e-05
8.0924e-05
0.000119451
4.08467e-05
0.000119445
4.08467e-05
0.000212031
0.000135146
0.000233696
0.000233343
0.000212022
0.000135159
0.0002337
0.000212031
0.000135138
0.000233696
0.000233343
0.000212021
0.000135151
0.000233701
0.000119448
4.0848e-05
4.08471e-05
0.000119452
0.000119446
4.08471e-05
4.08462e-05
0.000119449
0.000212022
0.000233345
0.00013516
0.000233702
0.000135147
0.000233702
0.000212032
0.000212021
0.000233345
0.000135151
0.000233703
0.000135139
0.000233702
0.00021203
8.09215e-05
8.09242e-05
0.000232824
8.09234e-05
8.09225e-05
2.26172e-05
2.26174e-05
2.26172e-05
2.26159e-05
0.00023282
8.09227e-05
8.09269e-05
8.09251e-05
8.09141e-05
2.26176e-05
2.26169e-05
0.000212034
0.000135121
0.000233697
0.000233343
0.000212022
0.000135137
0.000233701
0.000119458
4.0842e-05
0.000119456
4.08425e-05
0.000212032
0.000233701
0.000135113
0.000233345
0.00021202
0.000233702
0.00013513
0.000119465
4.08443e-05
4.08435e-05
0.000119463
0.000212026
0.000233345
0.000135138
0.000233703
0.000135123
0.000233702
0.000212034
0.000119459
4.08426e-05
4.08418e-05
0.000119458
0.000212023
0.000233345
0.000233702
0.000135129
0.000233702
0.000135115
0.000212032
0.000119449
4.08462e-05
0.000119442
4.08463e-05
0.000212032
0.000233701
0.000135143
0.000233345
0.00021202
0.000233703
0.000135157
0.00011945
4.08441e-05
0.000119441
4.08446e-05
0.000212024
0.000233346
0.000135153
0.000233703
0.000135138
0.000233703
0.000212031
0.000119445
4.08465e-05
4.08457e-05
0.000119449
0.000212023
0.000233346
0.000233703
0.000135156
0.000233704
0.000135144
0.000212031
0.000119445
4.08447e-05
4.08441e-05
0.000119448
8.08976e-05
8.0937e-05
0.000232824
8.09058e-05
8.09377e-05
2.26163e-05
2.26168e-05
2.26155e-05
2.26145e-05
0.000232819
8.09084e-05
8.09368e-05
8.09029e-05
8.09392e-05
2.26171e-05
2.26162e-05
0.000212033
0.000233701
0.000135132
0.000233345
0.000212021
0.000233702
0.000135146
0.000119448
4.08438e-05
0.00011944
4.08443e-05
0.000119457
4.08434e-05
0.000119454
4.08439e-05
0.000212019
0.000233346
0.000233703
0.000135159
0.000233703
0.000135148
0.000212029
0.000212024
0.000233346
0.000233703
0.000135145
0.000233703
0.000135133
0.000212033
0.000119443
4.08445e-05
4.08437e-05
0.000119448
0.000119457
4.0844e-05
4.08433e-05
0.000119457
2.26161e-05
2.26167e-05
2.26154e-05
2.2616e-05
0.000232821
8.09374e-05
8.09232e-05
8.09419e-05
8.09276e-05
2.26169e-05
2.2616e-05
2.26162e-05
2.26153e-05
2.26174e-05
2.26175e-05
2.26161e-05
2.26162e-05
8.09399e-05
8.09242e-05
0.000232824
8.09379e-05
8.09233e-05
2.26178e-05
2.26169e-05
2.26165e-05
2.26156e-05
0.00023282
8.0938e-05
8.09229e-05
8.09396e-05
8.09257e-05
0.000119451
4.08463e-05
0.000119444
4.08467e-05
0.000212031
0.000135146
0.000233703
0.000233345
0.000212023
0.000135159
0.000233703
0.000212031
0.000135138
0.000233703
0.000233345
0.00021202
0.000135151
0.000233703
0.000119448
4.08479e-05
4.0847e-05
0.000119452
0.000119446
4.0847e-05
4.08462e-05
0.000119449
0.000212021
0.000233345
0.00013516
0.000233702
0.000135147
0.000233702
0.000212032
0.000212021
0.000233345
0.000135151
0.000233702
0.000135139
0.000233702
0.000212031
8.09251e-05
8.09189e-05
0.000232824
8.0923e-05
8.09299e-05
2.26169e-05
2.26174e-05
2.26172e-05
2.26159e-05
0.00023282
8.09225e-05
8.09262e-05
8.09243e-05
8.09231e-05
2.26176e-05
2.2617e-05
0.000212035
0.000135121
0.000233703
0.000233345
0.000212025
0.000135138
0.000233703
0.000119459
4.08421e-05
0.000119457
4.08424e-05
0.000212031
0.000233702
0.000135114
0.000233345
0.000212023
0.000233702
0.00013513
0.000119466
4.08443e-05
4.08435e-05
0.000119464
0.000212025
0.000233345
0.000135138
0.000233702
0.000135123
0.000233702
0.000212035
0.000119459
4.08427e-05
4.08418e-05
0.000119458
0.000212022
0.000233345
0.000233702
0.000135129
0.000233702
0.000135115
0.000212032
0.00011945
4.08458e-05
0.000119444
4.08463e-05
0.000212031
0.000233702
0.000135143
0.000233345
0.000212021
0.000233703
0.000135157
0.00011945
4.08442e-05
0.000119442
4.08445e-05
0.000212023
0.000233346
0.000135153
0.000233702
0.00013514
0.000233703
0.000212031
0.000119445
4.08465e-05
4.08457e-05
0.000119449
0.000212023
0.000233345
0.000233702
0.000135156
0.000233702
0.000135144
0.000212031
0.000119445
4.08448e-05
4.0844e-05
0.000119448
8.08993e-05
8.09385e-05
0.000232824
8.09057e-05
8.09377e-05
2.26166e-05
2.26168e-05
2.26155e-05
2.26145e-05
0.00023282
8.09083e-05
8.09367e-05
8.09032e-05
8.09388e-05
2.2617e-05
2.26162e-05
0.000212033
0.000233702
0.000135132
0.000233345
0.000212023
0.000233703
0.000135146
0.000119448
4.08437e-05
0.000119442
4.08442e-05
0.000119457
4.08435e-05
0.000119456
4.08438e-05
0.000212019
0.000233346
0.000233702
0.000135159
0.000233703
0.000135147
0.000212028
0.000212023
0.000233345
0.000233702
0.000135145
0.000233703
0.000135133
0.000212033
0.000119443
4.08445e-05
4.08437e-05
0.000119448
0.000119457
4.0844e-05
4.08433e-05
0.000119457
2.26164e-05
2.26166e-05
2.26157e-05
2.26159e-05
0.000232821
8.09374e-05
8.09234e-05
8.0942e-05
8.09275e-05
2.26169e-05
2.26161e-05
2.26162e-05
2.26153e-05
2.26174e-05
2.26175e-05
2.26161e-05
2.26162e-05
8.09399e-05
8.09248e-05
0.000232824
8.09386e-05
8.09232e-05
2.26178e-05
2.26169e-05
2.26165e-05
2.26156e-05
0.00023282
8.09382e-05
8.09224e-05
8.09403e-05
8.0925e-05
0.000119451
4.08463e-05
0.000119444
4.08467e-05
0.000212031
0.000135146
0.000233703
0.000233345
0.000212024
0.000135159
0.000233703
0.00021203
0.000135138
0.000233703
0.000233345
0.000212021
0.000135151
0.000233703
0.000119448
4.08479e-05
4.0847e-05
0.000119452
0.000119446
4.0847e-05
4.08462e-05
0.000119449
0.000212021
0.000233345
0.00013516
0.000233702
0.000135147
0.000233703
0.000212033
0.000212021
0.000233345
0.000135151
0.000233702
0.000135139
0.000233703
0.000212031
8.09251e-05
8.09192e-05
0.000232824
8.0923e-05
8.09292e-05
2.26168e-05
2.26174e-05
2.26172e-05
2.26159e-05
0.00023282
8.09225e-05
8.09262e-05
8.09244e-05
8.09231e-05
2.26176e-05
2.2617e-05
0.000212035
0.000135122
0.000233703
0.000233345
0.000212026
0.000135138
0.000233703
0.000119459
4.08419e-05
0.000119457
4.08424e-05
0.000212031
0.000233702
0.000135114
0.000233345
0.000212023
0.000233702
0.00013513
0.000119466
4.08443e-05
4.08435e-05
0.000119464
0.000212025
0.000233345
0.000135138
0.000233703
0.000135124
0.000233703
0.000212035
0.000119459
4.08427e-05
4.08418e-05
0.000119458
0.000212021
0.000233345
0.000233702
0.000135129
0.000233702
0.000135115
0.000212032
0.00011945
4.08458e-05
0.000119443
4.08463e-05
0.000212032
0.000233702
0.000135143
0.000233345
0.000212021
0.000233703
0.000135157
0.00011945
4.0844e-05
0.000119442
4.08445e-05
0.000212023
0.000233346
0.000135153
0.000233702
0.00013514
0.000233703
0.000212031
0.000119445
4.08465e-05
4.08457e-05
0.000119449
0.000212023
0.000233345
0.000233702
0.000135156
0.000233703
0.000135144
0.000212032
0.000119445
4.08448e-05
4.0844e-05
0.000119449
8.08992e-05
8.09384e-05
0.000232824
8.09057e-05
8.09377e-05
2.26166e-05
2.26168e-05
2.26155e-05
2.26145e-05
0.00023282
8.09082e-05
8.09367e-05
8.09032e-05
8.0939e-05
2.2617e-05
2.26162e-05
0.000212032
0.000233703
0.000135132
0.000233345
0.000212023
0.000233703
0.000135146
0.000119448
4.08437e-05
0.000119442
4.08442e-05
0.000119457
4.08433e-05
0.000119456
4.08438e-05
0.000212019
0.000233346
0.000233702
0.000135159
0.000233703
0.000135148
0.000212028
0.000212023
0.000233345
0.000233702
0.000135145
0.000233703
0.000135133
0.000212033
0.000119443
4.08445e-05
4.08437e-05
0.000119448
0.000119457
4.0844e-05
4.08433e-05
0.000119457
2.26165e-05
2.26166e-05
2.26158e-05
2.26159e-05
0.000232821
8.09373e-05
8.09232e-05
8.09419e-05
8.09274e-05
2.26169e-05
2.2616e-05
2.26162e-05
2.26153e-05
2.26174e-05
2.26175e-05
2.26161e-05
2.26162e-05
8.09404e-05
8.09245e-05
0.000232824
8.09389e-05
8.09228e-05
2.26178e-05
2.26169e-05
2.26165e-05
2.26156e-05
0.00023282
8.09381e-05
8.09228e-05
8.09407e-05
8.09247e-05
0.000119451
4.08463e-05
0.000119444
4.08467e-05
0.000212031
0.000135146
0.000233703
0.000233345
0.000212024
0.000135159
0.000233703
0.00021203
0.000135138
0.000233703
0.000233345
0.000212021
0.000135151
0.000233703
0.000119448
4.08479e-05
4.0847e-05
0.000119452
0.000119446
4.0847e-05
4.08462e-05
0.000119449
0.000212021
0.000233345
0.00013516
0.000233702
0.000135147
0.000233703
0.000212033
0.00021202
0.000233345
0.000135151
0.000233702
0.000135139
0.000233703
0.000212031
8.09251e-05
8.09191e-05
0.000232824
8.0923e-05
8.09293e-05
2.26168e-05
2.26174e-05
2.26172e-05
2.26159e-05
0.00023282
8.09225e-05
8.09262e-05
8.09244e-05
8.09231e-05
2.26176e-05
2.2617e-05
0.000212035
0.000135122
0.000233703
0.000233345
0.000212026
0.000135138
0.000233703
0.000119459
4.08419e-05
0.000119457
4.08424e-05
0.000212031
0.000233702
0.000135114
0.000233345
0.000212023
0.000233702
0.00013513
0.000119466
4.08443e-05
4.08435e-05
0.000119464
0.000212025
0.000233345
0.000135138
0.000233702
0.000135123
0.000233703
0.000212035
0.000119459
4.08427e-05
4.08418e-05
0.000119458
0.000212022
0.000233345
0.000233702
0.000135129
0.000233703
0.000135115
0.000212032
0.00011945
4.08458e-05
0.000119444
4.08463e-05
0.000212032
0.000233703
0.000135143
0.000233345
0.000212022
0.000233703
0.000135157
0.00011945
4.0844e-05
0.000119443
4.08445e-05
0.000212023
0.000233346
0.000135153
0.000233702
0.00013514
0.000233703
0.000212031
0.000119445
4.08465e-05
4.08457e-05
0.000119449
0.000212023
0.000233345
0.000233703
0.000135156
0.000233703
0.000135144
0.000212032
0.000119445
4.08448e-05
4.0844e-05
0.000119449
8.08992e-05
8.09387e-05
0.000232824
8.09056e-05
8.09378e-05
2.26166e-05
2.26168e-05
2.26155e-05
2.26145e-05
0.00023282
8.09083e-05
8.09367e-05
8.09032e-05
8.0939e-05
2.2617e-05
2.26162e-05
0.000212033
0.000233703
0.000135132
0.000233345
0.000212023
0.000233703
0.000135146
0.000119449
4.08437e-05
0.000119443
4.08442e-05
0.000119458
4.08433e-05
0.000119456
4.08438e-05
0.00021202
0.000233346
0.000233702
0.000135159
0.000233703
0.000135148
0.000212029
0.000212024
0.000233345
0.000233702
0.000135145
0.000233703
0.000135133
0.000212033
0.000119444
4.08445e-05
4.08437e-05
0.000119449
0.000119459
4.0844e-05
4.08433e-05
0.000119458
2.26165e-05
2.26166e-05
2.26158e-05
2.26159e-05
0.000232821
8.09374e-05
8.09231e-05
8.09419e-05
8.09274e-05
2.26169e-05
2.2616e-05
2.26162e-05
2.26153e-05
2.26174e-05
2.26175e-05
2.26161e-05
2.26162e-05
8.094e-05
8.09248e-05
0.000232824
8.09379e-05
8.09231e-05
2.26178e-05
2.26169e-05
2.26165e-05
2.26156e-05
0.00023282
8.09381e-05
8.09224e-05
8.09398e-05
8.09249e-05
0.000119451
4.08463e-05
0.000119444
4.08467e-05
0.000212031
0.000135146
0.000233703
0.000233345
0.000212024
0.000135159
0.000233703
0.00021203
0.000135138
0.000233703
0.000233345
0.000212021
0.000135151
0.000233703
0.000119448
4.08479e-05
4.0847e-05
0.000119452
0.000119446
4.0847e-05
4.08462e-05
0.00011945
0.000212021
0.000233345
0.00013516
0.000233702
0.000135147
0.000233703
0.000212033
0.000212021
0.000233345
0.000135151
0.000233702
0.000135139
0.000233703
0.000212031
8.09251e-05
8.09191e-05
0.000232824
8.0923e-05
8.09293e-05
2.26168e-05
2.26174e-05
2.26172e-05
2.26159e-05
0.00023282
8.09225e-05
8.09262e-05
8.09244e-05
8.09231e-05
2.26176e-05
2.2617e-05
0.000212035
0.000135122
0.000233703
0.000233345
0.000212026
0.000135138
0.000233703
0.000119459
4.08419e-05
0.000119457
4.08424e-05
0.000212031
0.000233702
0.000135114
0.000233345
0.000212023
0.000233702
0.00013513
0.000119466
4.08443e-05
4.08435e-05
0.000119464
0.000212025
0.000233345
0.000135138
0.000233702
0.000135124
0.000233703
0.000212035
0.000119459
4.08427e-05
4.08418e-05
0.000119458
0.000212022
0.000233345
0.000233702
0.000135129
0.000233702
0.000135115
0.000212032
0.00011945
4.08458e-05
0.000119444
4.08463e-05
0.000212032
0.000233703
0.000135143
0.000233345
0.000212022
0.000233703
0.000135157
0.00011945
4.0844e-05
0.000119443
4.08445e-05
0.000212023
0.000233346
0.000135153
0.000233702
0.00013514
0.000233703
0.000212031
0.000119445
4.08465e-05
4.08457e-05
0.000119449
0.000212023
0.000233345
0.000233703
0.000135156
0.000233703
0.000135144
0.000212031
0.000119445
4.08448e-05
4.0844e-05
0.000119448
8.08992e-05
8.09384e-05
0.000232824
8.09056e-05
8.09377e-05
2.26166e-05
2.26168e-05
2.26155e-05
2.26145e-05
0.00023282
8.09083e-05
8.09366e-05
8.09032e-05
8.09389e-05
2.2617e-05
2.26162e-05
0.000212033
0.000233703