/*--------------------------------*- C++ -*----------------------------------*\
| =========                 |                                                 |
| \\      /  F ield         | OpenFOAM: The Open Source CFD Toolbox           |
|  \\    /   O peration     | Version:  2206                                  |
|   \\  /    A nd           | Website:  www.openfoam.com                      |
|    \\/     M anipulation  |                                                 |
\*---------------------------------------------------------------------------*/
FoamFile
{
    version     2.0;
    format      ascii;
    arch        "LSB;label=32;scalar=64";
    class       volScalarField;
    location    "13.5";
    object      nut;
}
// * * * * * * * * * * * * * * * * * * * * * * * * * * * * * * * * * * * * * //

dimensions      [0 2 -1 0 0 0 0];

internalField   nonuniform List<scalar> 
28673
(
0.000221798
0.000209805
0.000230363
0.000221798
0.000221795
0.000209796
0.000230363
0.000221794
0.000221791
0.000209791
0.000230334
0.000221747
0.000221754
0.000209711
0.000230347
0.000221752
0.000221748
0.00020972
0.000230349
0.000221753
0.00022175
0.000209712
0.000230349
0.000221753
0.00022175
0.000209715
0.000230349
0.000221753
0.00022175
0.000209715
0.000230349
0.000221753
0.00022175
0.000209715
0.000230349
0.000221754
0.00022175
0.000209715
0.000230349
0.000221755
0.000221752
0.000209717
0.000230348
0.00022175
0.000221747
0.00020973
0.000230536
0.000223593
0.000223592
0.000211866
0.000221791
0.000209904
0.000221799
0.000209904
0.000221792
0.000221791
0.000221792
0.000221791
0.000209808
0.000209897
0.000221796
0.000221785
0.000221791
0.000221798
0.00022179
0.000209892
0.000221795
0.000221795
0.000221795
0.000209893
0.000209809
0.000209898
0.000221793
0.000221792
0.000221792
0.00022179
0.000209803
0.000209891
0.000221797
0.000221785
0.000221798
0.000221785
0.000221788
0.000221795
0.000221787
0.000209798
0.000209888
0.000221792
0.000221792
0.000221791
0.000209889
0.000209804
0.00020985
0.000221791
0.000221787
0.00022176
0.000221746
0.000209796
0.000209815
0.000221798
0.000221785
0.000221781
0.000221772
0.000221786
0.000221754
0.000221754
0.000209794
0.000209861
0.00022179
0.000221775
0.000221759
0.000209832
0.000209729
0.000209809
0.000221745
0.00022174
0.000221743
0.000221744
0.000209708
0.00020982
0.000221755
0.00022175
0.000221745
0.000221735
0.000221742
0.000221752
0.000221743
0.000209744
0.000209804
0.000221747
0.000221744
0.000221748
0.000209814
0.00020972
0.000209813
0.000221746
0.000221745
0.000221746
0.000221745
0.000209727
0.000209812
0.000221749
0.000221739
0.000221751
0.000221741
0.000221745
0.000221753
0.000221746
0.000209714
0.000209809
0.00022175
0.00022175
0.00022175
0.000209808
0.000209717
0.000209814
0.000221746
0.000221746
0.000221746
0.000221745
0.000209718
0.000209815
0.000221751
0.000221741
0.000221751
0.000221741
0.000221746
0.000221754
0.000221746
0.000209713
0.000209809
0.00022175
0.00022175
0.00022175
0.000209812
0.00020972
0.000209813
0.000221747
0.000221746
0.000221747
0.000221745
0.00020972
0.000209816
0.000221751
0.000221741
0.000221751
0.000221741
0.000221746
0.000221754
0.000221746
0.000209715
0.000209808
0.00022175
0.00022175
0.00022175
0.000209811
0.000209719
0.000209813
0.000221747
0.000221746
0.000221747
0.000221745
0.000209721
0.000209815
0.000221751
0.000221741
0.000221751
0.000221741
0.000221746
0.000221754
0.000221746
0.000209715
0.000209809
0.00022175
0.000221751
0.00022175
0.000209811
0.000209719
0.000209813
0.000221747
0.000221746
0.000221747
0.000221745
0.000209721
0.000209815
0.000221751
0.000221741
0.000221751
0.000221741
0.000221746
0.000221754
0.000221746
0.000209715
0.000209809
0.00022175
0.000221751
0.00022175
0.000209811
0.000209719
0.000209814
0.000221747
0.000221746
0.000221749
0.000221748
0.000209721
0.000209816
0.000221752
0.000221742
0.000221753
0.000221743
0.000221746
0.000221755
0.000221748
0.000209715
0.00020981
0.000221751
0.000221752
0.000221753
0.000209812
0.00020972
0.000209824
0.000221749
0.000221749
0.000221763
0.000221762
0.000209722
0.000209827
0.000221754
0.000221744
0.000221768
0.000221758
0.000221749
0.00022177
0.000221762
0.000209716
0.00020982
0.000221753
0.000221767
0.000221767
0.000209823
0.000209733
0.000210697
0.000221742
0.000221741
0.000222816
0.000222815
0.000209734
0.000210698
0.000221746
0.000221737
0.000222819
0.000222813
0.00022174
0.00022282
0.000222815
0.000209728
0.000210694
0.000221746
0.000222819
0.000222819
0.000210697
0.000211868
0.000223591
0.000223591
0.000211869
0.000223593
0.000223589
0.000230536
0.000230536
0.000230536
0.000223591
0.000211866
0.000223593
6.21153e-05
4.71666e-05
6.20866e-05
4.71656e-05
2.60833e-05
2.60822e-05
6.21174e-05
4.71615e-05
0.000230364
0.000230362
0.000230364
0.000230364
0.000230362
0.000230362
0.000145581
7.47316e-05
0.000227988
0.000221799
0.000145557
7.47495e-05
0.000227988
2.60809e-05
0.000145569
0.000227986
0.000221796
0.000145544
0.000227986
7.4763e-05
4.07187e-05
4.07108e-05
0.000209896
4.07295e-05
4.07213e-05
6.2126e-05
4.71658e-05
6.21112e-05
4.71649e-05
2.60816e-05
2.60811e-05
6.21323e-05
4.71619e-05
6.2118e-05
4.71609e-05
0.000230363
0.000230362
0.000230362
0.000230363
0.000230362
0.000230361
0.000230361
0.000145592
7.47407e-05
0.000227988
0.000221796
0.000145554
7.47661e-05
0.000227986
2.60798e-05
2.6079e-05
0.000145578
0.000227987
7.47359e-05
0.000221793
0.000145541
0.000227985
7.47625e-05
4.07336e-05
4.07255e-05
0.000209892
4.07418e-05
4.07337e-05
6.21203e-05
4.71654e-05
6.2117e-05
4.71654e-05
2.60815e-05
2.60827e-05
6.21358e-05
4.71614e-05
6.21265e-05
4.71608e-05
0.000230361
0.000230361
0.00023036
0.000230346
0.000230335
0.000230349
0.000230337
0.000145579
7.47432e-05
0.000227986
0.000221789
0.00014556
7.47473e-05
0.000227983
2.60789e-05
2.60788e-05
0.000145567
0.000227984
7.47487e-05
0.00022179
0.000145548
0.000227983
7.47667e-05
4.07423e-05
4.07343e-05
0.00020988
4.0741e-05
4.07329e-05
6.20539e-05
4.71754e-05
6.20668e-05
4.71757e-05
2.60854e-05
2.60851e-05
6.20736e-05
4.71665e-05
6.2095e-05
4.71713e-05
0.000230335
0.000230335
0.000230336
0.000230343
0.000230347
0.000230342
0.000230347
0.000145458
7.46789e-05
0.000227951
0.000221747
0.000145464
7.46836e-05
0.000227953
2.60818e-05
2.60828e-05
0.000145445
0.000227952
7.47104e-05
0.000221745
0.000145456
0.000227952
7.47022e-05
4.07132e-05
4.07051e-05
0.000209804
4.06978e-05
4.06895e-05
6.20496e-05
4.71761e-05
6.20382e-05
4.71754e-05
2.60852e-05
2.60851e-05
6.20582e-05
4.71723e-05
6.20485e-05
4.71715e-05
0.000230349
0.000230347
0.000230348
0.000230349
0.00023035
0.000230349
0.000230349
0.000145457
7.46588e-05
0.000227962
0.000221753
0.000145428
7.46801e-05
0.000227963
2.60829e-05
2.60826e-05
0.000145444
0.000227961
7.46652e-05
0.000221749
0.000145415
0.000227962
7.4684e-05
4.06921e-05
4.06839e-05
0.000209816
4.06963e-05
4.0688e-05
6.20496e-05
4.71761e-05
6.20381e-05
4.71754e-05
2.60852e-05
2.60851e-05
6.20583e-05
4.71722e-05
6.20481e-05
4.71714e-05
0.00023035
0.000230349
0.000230349
0.000230349
0.000230349
0.000230349
0.000230349
0.000145457
7.46588e-05
0.000227963
0.000221754
0.000145428
7.46801e-05
0.000227963
2.60829e-05
2.60826e-05
0.000145444
0.000227962
7.46632e-05
0.00022175
0.000145415
0.000227962
7.46835e-05
4.06923e-05
4.06842e-05
0.000209811
4.06964e-05
4.06882e-05
6.20496e-05
4.71761e-05
6.20381e-05
4.71754e-05
2.60852e-05
2.60851e-05
6.20584e-05
4.71722e-05
6.20481e-05
4.71714e-05
0.00023035
0.000230349
0.000230349
0.000230349
0.000230349
0.000230349
0.000230349
0.000145457
7.46588e-05
0.000227963
0.000221754
0.000145428
7.46801e-05
0.000227963
2.60829e-05
2.60826e-05
0.000145444
0.000227962
7.46632e-05
0.00022175
0.000145416
0.000227962
7.46836e-05
4.06923e-05
4.06842e-05
0.000209811
4.06964e-05
4.06882e-05
6.20496e-05
4.71761e-05
6.20381e-05
4.71754e-05
2.60852e-05
2.60851e-05
6.20584e-05
4.71722e-05
6.20481e-05
4.71714e-05
0.00023035
0.000230349
0.000230349
0.000230349
0.00023035
0.000230349
0.000230349
0.000145457
7.46588e-05
0.000227963
0.000221754
0.000145428
7.46801e-05
0.000227963
2.60829e-05
2.60826e-05
0.000145447
0.000227962
7.46632e-05
0.00022175
0.000145417
0.000227963
7.46836e-05
4.06923e-05
4.06842e-05
0.000209811
4.06964e-05
4.06882e-05
6.20496e-05
4.71761e-05
6.20382e-05
4.71755e-05
2.60852e-05
2.60851e-05
6.20584e-05
4.71722e-05
6.20482e-05
4.71716e-05
0.00023035
0.000230349
0.000230349
0.000230349
0.00023035
0.000230349
0.000230349
0.000145457
7.4659e-05
0.000227963
0.000221754
0.000145428
7.46801e-05
0.000227964
2.60829e-05
2.60826e-05
0.00014545
0.000227962
7.46635e-05
0.00022175
0.00014542
0.000227963
7.46836e-05
4.06924e-05
4.06843e-05
0.000209811
4.06965e-05
4.06883e-05
6.20443e-05
4.71763e-05
6.20351e-05
4.7178e-05
2.60851e-05
2.60858e-05
6.20531e-05
4.71725e-05
6.20452e-05
4.71743e-05
0.00023035
0.000230349
0.000230349
0.000230349
0.00023035
0.000230349
0.000230349
0.000145456
7.46754e-05
0.000227963
0.000221754
0.000145429
7.46771e-05
0.000227964
2.60828e-05
2.60836e-05
0.00014545
0.000227963
7.46801e-05
0.000221751
0.000145423
0.000227963
7.46775e-05
4.06973e-05
4.06892e-05
0.000209811
4.06866e-05
4.06784e-05
6.20111e-05
4.71726e-05
6.20071e-05
4.71798e-05
2.60795e-05
2.60832e-05
6.202e-05
4.71691e-05
6.20177e-05
4.71764e-05
0.00023035
0.000230349
0.000230349
0.000230351
0.000230352
0.000230352
0.000230352
0.000145451
7.46735e-05
0.000227964
0.000221759
0.000145428
7.46385e-05
0.000227965
2.60776e-05
2.60811e-05
0.000145446
0.000227963
7.46727e-05
0.000221756
0.000145421
0.000227964
7.4636e-05
4.06673e-05
4.06595e-05
0.000209814
4.05973e-05
4.05894e-05
6.2097e-05
4.71653e-05
6.19759e-05
4.72005e-05
2.60684e-05
2.60809e-05
6.21016e-05
4.71617e-05
6.19844e-05
4.71975e-05
0.000230349
0.000230348
0.000230348
0.000230394
0.000230394
0.000230394
0.000230394
0.000145644
7.46775e-05
0.000227979
0.000221859
0.000145431
7.47122e-05
0.000227965
2.60663e-05
2.6079e-05
0.000145638
0.000227978
7.46737e-05
0.000221856
0.000145424
0.000227964
7.47116e-05
4.05429e-05
4.05352e-05
0.00020996
4.03888e-05
4.03833e-05
7.70718e-05
5.04136e-05
6.27658e-05
6.6844e-05
2.82757e-05
2.38779e-05
7.70729e-05
5.04121e-05
6.27659e-05
6.68366e-05
0.000231507
0.000231303
0.000231304
0.00022998
0.000231502
0.000231206
0.000231206
0.000152368
7.79643e-05
0.000228443
0.000224813
0.000147934
8.32417e-05
0.000229344
2.82742e-05
2.38774e-05
0.000152363
0.000228442
7.79656e-05
0.000224813
0.00014793
0.000229343
8.32436e-05
4.16584e-05
4.16487e-05
0.000214582
4.77252e-05
4.77226e-05
4.71651e-05
7.47575e-05
2.60834e-05
4.07213e-05
4.07199e-05
2.60839e-05
7.47566e-05
4.71639e-05
2.60855e-05
2.60838e-05
2.60827e-05
4.07207e-05
0.00020991
4.0731e-05
4.07175e-05
2.60828e-05
2.60837e-05
2.60814e-05
2.60826e-05
0.000209814
4.07376e-05
4.07236e-05
4.07304e-05
4.07163e-05
6.21159e-05
4.71654e-05
6.20871e-05
4.71648e-05
0.00014558
7.47366e-05
0.000227987
0.000221792
0.000145556
7.47506e-05
0.000227987
0.000145582
7.47367e-05
0.000227988
0.000221791
0.000145557
7.47504e-05
0.000227988
6.2109e-05
4.71652e-05
4.71658e-05
6.21213e-05
6.21096e-05
4.71643e-05
4.71649e-05
6.21219e-05
0.000145556
0.000221792
7.47571e-05
0.000227988
7.47342e-05
0.000227988
0.00014558
0.000145558
0.000221792
7.47598e-05
0.000227988
7.47354e-05
0.000227988
0.000145581
4.07205e-05
4.07186e-05
0.000209898
4.07273e-05
4.07252e-05
2.60839e-05
2.60827e-05
2.60815e-05
2.60822e-05
0.000209804
4.07335e-05
4.07311e-05
4.07267e-05
4.07242e-05
2.6082e-05
2.60828e-05
0.000145587
0.000221796
7.47479e-05
0.000227987
6.21178e-05
4.71594e-05
0.000145588
0.000221786
0.000227986
7.47441e-05
6.21132e-05
4.71613e-05
4.71619e-05
6.21264e-05
0.000145565
0.000221796
7.47413e-05
0.000227986
7.47271e-05
0.000227987
0.00014558
6.21133e-05
4.71591e-05
4.71598e-05
6.21259e-05
0.000145565
0.000221785
0.000227985
7.47385e-05
0.000227985
7.47243e-05
0.000145581
6.21151e-05
4.71643e-05
6.20863e-05
4.71636e-05
0.00014558
0.000227987
7.47331e-05
0.000221791
0.000145556
0.000227987
7.47475e-05
6.21146e-05
4.71635e-05
6.20857e-05
4.71625e-05
0.000145557
0.000221799
7.47597e-05
0.000227988
7.47342e-05
0.000227988
0.000145579
6.21088e-05
4.71631e-05
4.71638e-05
6.21211e-05
0.000145557
0.000221791
0.000227987
7.47535e-05
0.000227988
7.47304e-05
0.00014558
6.21083e-05
4.7162e-05
4.71626e-05
6.21206e-05
0.000209896
4.07101e-05
4.07278e-05
2.60834e-05
2.60797e-05
2.60809e-05
0.000209801
4.07156e-05
4.07341e-05
4.07085e-05
4.07266e-05
2.60821e-05
2.60832e-05
0.000145568
0.000227986
7.47275e-05
0.000221795
0.000145543
0.000227986
7.47434e-05
6.2105e-05
6.20742e-05
4.71621e-05
6.21046e-05
4.71629e-05
6.20736e-05
4.71619e-05
0.000145545
0.000221796
0.000227987
7.47549e-05
0.000227987
7.47426e-05
0.000145566
0.000145544
0.000221795
0.000227986
7.47483e-05
0.000227987
7.47259e-05
0.000145567
6.20972e-05
4.71618e-05
4.71624e-05
6.21103e-05
6.20968e-05
4.71614e-05
4.7162e-05
6.21099e-05
2.60843e-05
2.60826e-05
2.60834e-05
2.60817e-05
0.000209801
4.0736e-05
4.07278e-05
4.07287e-05
4.07206e-05
2.60816e-05
2.60825e-05
2.60808e-05
2.60816e-05
2.60828e-05
2.60823e-05
2.60814e-05
2.60807e-05
4.07368e-05
4.07229e-05
0.0002099
4.07433e-05
4.07301e-05
2.60821e-05
2.60824e-05
2.60804e-05
2.60808e-05
0.000209806
4.07474e-05
4.07354e-05
4.07421e-05
4.07293e-05
6.21265e-05
4.71644e-05
6.2115e-05
4.7164e-05
0.000145593
7.47434e-05
0.000227986
0.000221793
0.000145561
7.47662e-05
0.000227986
0.000145594
7.47453e-05
0.000227987
0.000221792
0.000145562
7.47667e-05
0.000227987
6.21188e-05
4.71647e-05
4.71651e-05
6.21282e-05
6.21192e-05
4.71641e-05
4.71642e-05
6.21286e-05
0.000145571
0.000221793
7.47701e-05
0.000227986
7.47512e-05
0.000227987
0.00014559
0.000145573
0.000221791
7.47679e-05
0.000227987
7.47508e-05
0.000227988
0.000145592
4.07328e-05
4.073e-05
0.000209895
4.07388e-05
4.0736e-05
2.60821e-05
2.60816e-05
2.60811e-05
2.60812e-05
0.000209801
4.07409e-05
4.07388e-05
4.07375e-05
4.07341e-05
2.60817e-05
2.60818e-05
0.000145588
7.47275e-05
0.000227988
0.000221797
0.000145557
7.47525e-05
0.000227988
6.21314e-05
4.71594e-05
6.21206e-05
4.71587e-05
0.000145588
0.000227985
7.47215e-05
0.000221785
0.000145557
0.000227985
7.47444e-05
6.21268e-05
4.71606e-05
4.71611e-05
6.21361e-05
0.000145569
0.000221798
7.47591e-05
0.000227988
7.47385e-05
0.000227989
0.000145596
6.21258e-05
4.71585e-05
4.7159e-05
6.2135e-05
0.000145568
0.000221786
0.000227986
7.47499e-05
0.000227986
7.47286e-05
0.000145595
6.21255e-05
4.71633e-05
6.21142e-05
4.71628e-05
0.000145592
0.000227985
7.47397e-05
0.000221788
0.000145561
0.000227985
7.47627e-05
6.21251e-05
4.71621e-05
6.21137e-05
4.71616e-05
0.00014557
0.000221796
7.47667e-05
0.000227987
7.47494e-05
0.000227987
0.000145589
6.21182e-05
4.71629e-05
4.7163e-05
6.21275e-05
0.000145568
0.000221788
0.000227986
7.47662e-05
0.000227986
7.47473e-05
0.000145588
6.21177e-05
4.71615e-05
4.71618e-05
6.2127e-05
4.07143e-05
4.07332e-05
0.000209889
4.07214e-05
4.07404e-05
2.60821e-05
2.60814e-05
2.60787e-05
2.60791e-05
0.000209796
4.07261e-05
4.07454e-05
4.07197e-05
4.07395e-05
2.60811e-05
2.60815e-05
0.000145579
0.000227984
7.4734e-05
0.000221792
0.000145548
0.000227984
7.47572e-05
6.21143e-05
4.7162e-05
6.2102e-05
4.71614e-05
6.21139e-05
4.71616e-05
6.21016e-05
4.7161e-05
0.000145556
0.000221792
0.000227985
7.47683e-05
0.000227985
7.47479e-05
0.000145576
0.000145555
0.000221792
0.000227985
7.47607e-05
0.000227985
7.47416e-05
0.000145575
6.21057e-05
4.71611e-05
4.71615e-05
6.21163e-05
6.21052e-05
4.71609e-05
4.71612e-05
6.21157e-05
2.60816e-05
2.60811e-05
2.60808e-05
2.60802e-05
0.000209798
4.07458e-05
4.07377e-05
4.07404e-05
4.07324e-05
2.60809e-05
2.60812e-05
2.608e-05
2.60803e-05
2.60823e-05
2.60826e-05
2.60805e-05
2.60804e-05
4.07456e-05
4.07345e-05
0.00020989
4.0743e-05
4.0738e-05
2.60855e-05
2.60834e-05
2.60821e-05
2.60807e-05
0.000209789
4.07247e-05
4.07249e-05
4.07364e-05
4.07337e-05
6.2121e-05
4.71646e-05
6.21206e-05
4.71667e-05
0.000145578
7.47536e-05
0.000227986
0.000221788
0.000145563
7.47615e-05
0.000227983
0.00014558
7.47488e-05
0.000227986
0.000221781
0.000145564
7.47488e-05
0.000227982
6.21051e-05
4.71721e-05
4.71664e-05
6.20866e-05
6.2106e-05
4.71749e-05
4.71696e-05
6.20876e-05
0.000145545
0.00022178
7.47267e-05
0.000227957
7.47383e-05
0.000227976
0.000145515
0.000145546
0.000221763
7.47082e-05
0.000227954
7.47223e-05
0.000227973
0.000145516
4.07371e-05
4.07344e-05
0.00020987
4.07291e-05
4.07279e-05
2.60821e-05
2.60833e-05
2.60852e-05
2.60841e-05
0.000209755
4.07025e-05
4.07006e-05
4.07211e-05
4.07178e-05
2.60858e-05
2.60847e-05
0.000145588
7.47435e-05
0.000227987
0.000221797
0.00014557
7.47591e-05
0.000227986
6.21348e-05
4.71588e-05
6.21286e-05
4.71585e-05
0.000145589
0.000227985
7.47331e-05
0.000221784
0.000145571
0.000227984
7.475e-05
6.21265e-05
4.71633e-05
4.71613e-05
6.2115e-05
0.00014556
0.000221793
7.4737e-05
0.000227975
7.47399e-05
0.000227983
0.000145565
6.21255e-05
4.71608e-05
4.7159e-05
6.21139e-05
0.00014556
0.00022178
0.000227974
7.47284e-05
0.000227982
7.47295e-05
0.000145565
6.212e-05
4.71636e-05
6.21195e-05
4.71657e-05
0.000145578
0.000227985
7.47494e-05
0.000221783
0.000145561
0.000227983
7.47578e-05
6.21195e-05
4.71617e-05
6.2119e-05
4.71621e-05
0.000145546
0.000221772
7.47078e-05
0.000227955
7.47202e-05
0.000227973
0.000145517
6.21051e-05
4.71737e-05
4.71687e-05
6.20867e-05
0.000145545
0.000221775
0.000227956
7.47228e-05
0.000227975
7.47341e-05
0.000145515
6.21045e-05
4.71684e-05
4.7163e-05
6.20862e-05
4.07239e-05
4.07441e-05
0.000209883
4.07279e-05
4.07465e-05
2.60812e-05
2.60812e-05
2.60804e-05
2.60792e-05
0.000209788
4.07159e-05
4.0734e-05
4.07228e-05
4.07419e-05
2.60827e-05
2.60815e-05
0.000145566
0.000227984
7.47437e-05
0.000221788
0.000145549
0.000227982
7.47521e-05
6.21092e-05
4.71613e-05
6.21072e-05
4.71609e-05
6.21087e-05
4.71612e-05
6.21065e-05
4.71616e-05
0.000145534
0.000221786
0.00022796
7.47412e-05
0.000227976
7.47465e-05
0.000145508
0.000145533
0.00022178
0.000227956
7.47174e-05
0.000227974
7.47283e-05
0.000145505
6.20931e-05
4.71634e-05
4.71613e-05
6.20754e-05
6.20926e-05
4.71679e-05
4.71625e-05
6.2075e-05
2.60811e-05
2.60814e-05
2.60802e-05
2.60806e-05
0.000209777
4.0723e-05
4.07148e-05
4.07343e-05
4.07262e-05
2.60844e-05
2.60822e-05
2.60835e-05
2.60813e-05
2.60862e-05
2.60861e-05
2.60835e-05
2.60845e-05
4.07161e-05
4.0717e-05
0.000209802
4.06994e-05
4.07001e-05
2.6086e-05
2.60863e-05
2.60844e-05
2.60846e-05
0.000209703
4.06978e-05
4.06882e-05
4.06959e-05
4.06926e-05
6.20548e-05
4.71757e-05
6.20696e-05
4.71752e-05
0.000145457
7.46996e-05
0.000227951
0.00022174
0.000145467
7.46945e-05
0.000227953
0.000145458
7.46823e-05
0.00022795
0.00022174
0.000145467
7.46857e-05
0.000227952
6.20434e-05
4.71755e-05
4.71758e-05
6.20498e-05
6.20442e-05
4.71751e-05
4.71754e-05
6.20505e-05
0.000145433
0.00022174
7.46873e-05
0.00022796
7.46749e-05
0.000227956
0.000145456
0.000145434
0.000221742
7.46822e-05
0.000227961
7.46671e-05
0.000227956
0.000145458
4.06951e-05
4.06933e-05
0.000209809
4.0689e-05
4.06856e-05
2.6086e-05
2.60857e-05
2.60851e-05
2.60853e-05
0.000209719
4.06892e-05
4.06854e-05
4.06864e-05
4.06818e-05
2.60857e-05
2.60859e-05
0.000145473
7.47103e-05
0.000227956
0.000221745
0.000145521
7.46969e-05
0.000227951
6.20719e-05
4.71639e-05
6.20965e-05
4.71693e-05
0.000145472
0.000227955
7.47005e-05
0.000221738
0.000145519
0.00022795
7.46878e-05
6.20596e-05
4.71717e-05
4.71722e-05
6.20593e-05
0.000145438
0.000221743
7.46787e-05
0.000227956
7.46729e-05
0.000227951
0.000145458
6.20575e-05
4.71698e-05
4.71704e-05
6.2057e-05
0.000145437
0.000221734
0.000227955
7.46682e-05
0.00022795
7.4662e-05
0.000145456
6.2054e-05
4.71747e-05
6.20687e-05
4.71741e-05
0.000145456
0.000227951
7.46953e-05
0.000221739
0.000145467
0.000227952
7.46909e-05
6.20535e-05
4.71718e-05
6.20682e-05
4.71726e-05
0.000145434
0.00022175
7.46802e-05
0.000227961
7.46644e-05
0.000227957
0.000145455
6.20434e-05
4.7174e-05
4.71744e-05
6.20495e-05
0.000145433
0.00022174
0.000227961
7.46835e-05
0.000227956
7.46708e-05
0.000145455
6.20429e-05
4.71724e-05
4.71728e-05
6.20491e-05
4.07063e-05
4.07262e-05
0.000209808
4.069e-05
4.07089e-05
2.6084e-05
2.60851e-05
2.60827e-05
2.6083e-05
0.000209702
4.06761e-05
4.06968e-05
4.06823e-05
4.07012e-05
2.60851e-05
2.60853e-05
0.000145443
0.000227951
7.46898e-05
0.000221744
0.000145457
0.000227952
7.46854e-05
6.2043e-05
4.71665e-05
6.20571e-05
4.71719e-05
6.20426e-05
4.71713e-05
6.20566e-05
4.71721e-05
0.000145422
0.000221743
0.000227959
7.46868e-05
0.000227956
7.46793e-05
0.000145442
0.00014542
0.000221745
0.000227959
7.46779e-05
0.000227955
7.46651e-05
0.000145442
6.20306e-05
4.71723e-05
4.71727e-05
6.20375e-05
6.20301e-05
4.71718e-05
4.71722e-05
6.20368e-05
2.60851e-05
2.60849e-05
2.60842e-05
2.60841e-05
0.000209712
4.06962e-05
4.06879e-05
4.06941e-05
4.06859e-05
2.60848e-05
2.60851e-05
2.6084e-05
2.60842e-05
2.60862e-05
2.6086e-05
2.60845e-05
2.60843e-05
4.06954e-05
4.06856e-05
0.000209819
4.06978e-05
4.06882e-05
2.6086e-05
2.60862e-05
2.60843e-05
2.60845e-05
0.000209725
4.06978e-05
4.06884e-05
4.06954e-05
4.06857e-05
6.20503e-05
4.71753e-05
6.20421e-05
4.71751e-05
0.000145457
7.46703e-05
0.000227963
0.000221747
0.000145434
7.46863e-05
0.000227963
0.000145459
7.46651e-05
0.000227963
0.000221745
0.000145435
7.4682e-05
0.000227963
6.20414e-05
4.71754e-05
4.71756e-05
6.20495e-05
6.20421e-05
4.7175e-05
4.71753e-05
6.20502e-05
0.000145435
0.000221747
7.46861e-05
0.000227963
7.46698e-05
0.000227963
0.000145457
0.000145436
0.000221746
7.46819e-05
0.000227963
7.46651e-05
0.000227963
0.000145458
4.06868e-05
4.06823e-05
0.000209816
4.06894e-05
4.0686e-05
2.60859e-05
2.60856e-05
2.6085e-05
2.60852e-05
0.000209721
4.06895e-05
4.06862e-05
4.06869e-05
4.06828e-05
2.60856e-05
2.60859e-05
0.00014546
7.46609e-05
0.000227961
0.000221751
0.000145435
7.46759e-05
0.000227962
6.20558e-05
4.717e-05
6.20493e-05
4.71696e-05
0.000145458
0.00022796
7.46491e-05
0.000221741
0.000145434
0.000227961
7.46653e-05
6.20513e-05
4.71715e-05
4.71718e-05
6.20583e-05
0.000145437
0.000221751
7.46756e-05
0.000227963
7.46593e-05
0.000227963
0.00014546
6.20489e-05
4.71695e-05
4.71698e-05
6.20559e-05
0.000145436
0.000221741
0.000227961
7.46649e-05
0.000227961
7.46474e-05
0.000145458
6.20492e-05
4.71742e-05
6.20411e-05
4.71739e-05
0.000145456
0.000227963
7.46663e-05
0.000221746
0.000145433
0.000227963
7.46826e-05
6.20488e-05
4.71726e-05
6.20406e-05
4.71723e-05
0.000145435
0.000221753
7.46801e-05
0.000227963
7.46625e-05
0.000227963
0.000145455
6.2041e-05
4.71739e-05
4.71742e-05
6.20492e-05
0.000145434
0.000221746
0.000227963
7.46825e-05
0.000227963
7.46658e-05
0.000145456
6.20406e-05
4.71723e-05
4.71725e-05
6.20488e-05
4.06725e-05
4.0694e-05
0.000209814
4.06762e-05
4.06963e-05
2.60852e-05
2.6085e-05
2.60826e-05
2.60828e-05
0.000209721
4.06764e-05
4.06964e-05
4.06729e-05
4.06938e-05
2.6085e-05
2.60852e-05
0.000145443
0.000227961
7.46604e-05
0.00022175
0.00014542
0.000227962
7.4677e-05
6.20374e-05
4.71725e-05
6.20279e-05
4.71721e-05
6.20369e-05
4.7172e-05
6.20273e-05
4.71717e-05
0.000145422
0.00022175
0.000227962
7.46835e-05
0.000227962
7.46671e-05
0.000145442
0.000145421
0.00022175
0.000227962
7.46769e-05
0.000227962
7.46599e-05
0.000145443
6.2028e-05
4.7172e-05
4.71723e-05
6.20374e-05
6.20275e-05
4.71717e-05
4.7172e-05
6.20369e-05
2.6085e-05
2.60848e-05
2.60841e-05
2.6084e-05
0.00020972
4.06964e-05
4.06881e-05
4.06937e-05
4.06856e-05
2.60848e-05
2.6085e-05
2.60839e-05
2.60841e-05
2.60862e-05
2.6086e-05
2.60845e-05
2.60843e-05
4.06954e-05
4.06859e-05
0.00020981
4.06978e-05
4.06884e-05
2.6086e-05
2.60862e-05
2.60843e-05
2.60845e-05
0.000209718
4.06978e-05
4.06885e-05
4.06954e-05
4.06859e-05
6.20502e-05
4.71753e-05
6.2042e-05
4.7175e-05
0.000145456
7.46695e-05
0.000227963
0.000221746
0.000145433
7.46861e-05
0.000227963
0.000145458
7.4665e-05
0.000227963
0.000221746
0.000145435
7.4682e-05
0.000227963
6.20414e-05
4.71754e-05
4.71756e-05
6.20495e-05
6.2042e-05
4.7175e-05
4.71753e-05
6.20502e-05
0.000145434
0.000221747
7.46861e-05
0.000227963
7.46697e-05
0.000227963
0.000145457
0.000145435
0.000221746
7.46819e-05
0.000227963
7.4665e-05
0.000227963
0.000145458
4.0687e-05
4.06829e-05
0.000209816
4.06895e-05
4.0686e-05
2.60859e-05
2.60856e-05
2.6085e-05
2.60852e-05
0.000209723
4.06895e-05
4.06861e-05
4.06869e-05
4.06827e-05
2.60856e-05
2.60859e-05
0.000145459
7.4659e-05
0.000227962
0.000221751
0.000145437
7.46756e-05
0.000227962
6.2056e-05
4.71698e-05
6.20489e-05
4.71695e-05
0.000145457
0.000227961
7.46471e-05
0.000221741
0.000145435
0.000227961
7.4665e-05
6.20514e-05
4.71714e-05
4.71717e-05
6.20583e-05
0.000145436
0.000221751
7.46755e-05
0.000227963
7.46592e-05
0.000227963
0.000145459
6.2049e-05
4.71695e-05
4.71698e-05
6.2056e-05
0.000145434
0.000221742
0.000227962
7.46649e-05
0.000227962
7.46472e-05
0.000145458
6.20491e-05
4.71742e-05
6.20409e-05
4.71739e-05
0.000145456
0.000227963
7.46657e-05
0.000221746
0.000145433
0.000227963
7.46826e-05
6.20487e-05
4.71725e-05
6.20405e-05
4.71723e-05
0.000145435
0.000221754
7.468e-05
0.000227963
7.46625e-05
0.000227963
0.000145455
6.20409e-05
4.71739e-05
4.71742e-05
6.20491e-05
0.000145434
0.000221746
0.000227963
7.46825e-05
0.000227963
7.46657e-05
0.000145456
6.20405e-05
4.71723e-05
4.71725e-05
6.20487e-05
4.0673e-05
4.06939e-05
0.000209806
4.06764e-05
4.06964e-05
2.60851e-05
2.6085e-05
2.60826e-05
2.60828e-05
0.000209714
4.06764e-05
4.06964e-05
4.0673e-05
4.06938e-05
2.6085e-05
2.60851e-05
0.000145443
0.000227962
7.46599e-05
0.00022175
0.00014542
0.000227962
7.46769e-05
6.20373e-05
4.71723e-05
6.20279e-05
4.7172e-05
6.20369e-05
4.71719e-05
6.20274e-05
4.71717e-05
0.000145422
0.00022175
0.000227962
7.46835e-05
0.000227962
7.46669e-05
0.000145442
0.000145421
0.000221751
0.000227962
7.46768e-05
0.000227962
7.46599e-05
0.000145442
6.20278e-05
4.7172e-05
4.71723e-05
6.2037e-05
6.20274e-05
4.71717e-05
4.71719e-05
6.20369e-05
2.6085e-05
2.60848e-05
2.60841e-05
2.6084e-05
0.000209719
4.06964e-05
4.06882e-05
4.06938e-05
4.06857e-05
2.60848e-05
2.6085e-05
2.60839e-05
2.60841e-05
2.60862e-05
2.6086e-05
2.60845e-05
2.60843e-05
4.06954e-05
4.0686e-05
0.000209812
4.06978e-05
4.06884e-05
2.6086e-05
2.60862e-05
2.60843e-05
2.60845e-05
0.000209718
4.06978e-05
4.06884e-05
4.06954e-05
4.06859e-05
6.20502e-05
4.71753e-05
6.20419e-05
4.7175e-05
0.000145456
7.46696e-05
0.000227963
0.000221747
0.000145434
7.46861e-05
0.000227963
0.000145458
7.4665e-05
0.000227963
0.000221746
0.000145436
7.4682e-05
0.000227963
6.20414e-05
4.71754e-05
4.71756e-05
6.20495e-05
6.2042e-05
4.7175e-05
4.71753e-05
6.20501e-05
0.000145434
0.000221747
7.46861e-05
0.000227963
7.46697e-05
0.000227963
0.000145457
0.000145435
0.000221746
7.46819e-05
0.000227963
7.4665e-05
0.000227963
0.000145458
4.0687e-05
4.06828e-05
0.000209814
4.06895e-05
4.06861e-05
2.60859e-05
2.60856e-05
2.6085e-05
2.60852e-05
0.000209721
4.06895e-05
4.06861e-05
4.06869e-05
4.06827e-05
2.60856e-05
2.60859e-05
0.000145459
7.4659e-05
0.000227963
0.000221751
0.000145437
7.46756e-05
0.000227963
6.2056e-05
4.71698e-05
6.2049e-05
4.71695e-05
0.000145458
0.000227962
7.46471e-05
0.000221741
0.000145436
0.000227962
7.4665e-05
6.20514e-05
4.71714e-05
4.71717e-05
6.20583e-05
0.000145436
0.000221752
7.46755e-05
0.000227963
7.46592e-05
0.000227964
0.000145459
6.20491e-05
4.71695e-05
4.71698e-05
6.2056e-05
0.000145435
0.000221742
0.000227961
7.46649e-05
0.000227962
7.46472e-05
0.000145457
6.20491e-05
4.71742e-05
6.20408e-05
4.71739e-05
0.000145456
0.000227963
7.46657e-05
0.000221746
0.000145433
0.000227963
7.46826e-05
6.20487e-05
4.71725e-05
6.20404e-05
4.71723e-05
0.000145435
0.000221754
7.468e-05
0.000227963
7.46625e-05
0.000227963
0.000145455
6.20409e-05
4.71739e-05
4.71742e-05
6.20491e-05
0.000145434
0.000221747
0.000227963
7.46825e-05
0.000227963
7.46657e-05
0.000145456
6.20405e-05
4.71723e-05
4.71725e-05
6.20487e-05
4.0673e-05
4.06939e-05
0.000209808
4.06764e-05
4.06964e-05
2.60851e-05
2.6085e-05
2.60826e-05
2.60828e-05
0.000209714
4.06764e-05
4.06964e-05
4.0673e-05
4.06938e-05
2.6085e-05
2.60851e-05
0.000145443
0.000227962
7.46599e-05
0.00022175
0.00014542
0.000227962
7.46769e-05
6.20383e-05
4.71723e-05
6.20296e-05
4.7172e-05
6.20369e-05
4.71719e-05
6.20274e-05
4.71717e-05
0.000145423
0.00022175
0.000227962
7.46835e-05
0.000227962
7.46669e-05
0.000145444
0.000145421
0.000221751
0.000227962
7.46768e-05
0.000227962
7.46599e-05
0.000145442
6.20309e-05
4.7172e-05
4.71723e-05
6.20409e-05
6.20275e-05
4.71717e-05
4.71719e-05
6.2037e-05
2.6085e-05
2.60848e-05
2.60841e-05
2.6084e-05
0.000209717
4.06964e-05
4.06882e-05
4.06938e-05
4.06857e-05
2.60848e-05
2.6085e-05
2.60839e-05
2.60841e-05
2.60862e-05
2.6086e-05
2.60845e-05
2.60843e-05
4.06954e-05
4.06859e-05
0.000209812
4.06979e-05
4.06884e-05
2.6086e-05
2.60862e-05
2.60843e-05
2.60845e-05
0.000209719
4.06979e-05
4.06884e-05
4.06954e-05
4.06859e-05
6.20502e-05
4.71753e-05
6.20419e-05
4.7175e-05
0.000145457
7.46696e-05
0.000227963
0.000221747
0.000145434
7.46861e-05
0.000227963
0.000145458
7.4665e-05
0.000227963
0.000221746
0.000145436
7.4682e-05
0.000227963
6.20414e-05
4.71754e-05
4.71756e-05
6.20495e-05
6.2042e-05
4.71751e-05
4.71753e-05
6.20502e-05
0.000145434
0.000221747
7.46861e-05
0.000227963
7.46697e-05
0.000227963
0.000145457
0.000145435
0.000221746
7.46819e-05
0.000227963
7.46651e-05
0.000227963
0.000145458
4.0687e-05
4.06828e-05
0.000209814
4.06895e-05
4.06861e-05
2.60859e-05
2.60856e-05
2.6085e-05
2.60852e-05
0.000209721
4.06895e-05
4.06861e-05
4.06869e-05
4.06827e-05
2.60857e-05
2.60859e-05
0.000145459
7.4659e-05
0.000227963
0.000221751
0.000145436
7.46756e-05
0.000227963
6.20561e-05
4.71698e-05
6.2049e-05
4.71695e-05
0.000145458
0.000227962
7.46471e-05
0.000221741
0.000145435
0.000227962
7.4665e-05
6.20514e-05
4.71715e-05
4.71717e-05
6.20583e-05
0.000145436
0.000221752
7.46755e-05
0.000227963
7.46592e-05
0.000227964
0.000145459
6.20491e-05
4.71695e-05
4.71698e-05
6.2056e-05
0.000145435
0.000221742
0.000227961
7.46649e-05
0.000227962
7.46472e-05
0.000145457
6.20491e-05
4.71742e-05
6.20409e-05
4.71739e-05
0.000145456
0.000227963
7.46657e-05
0.000221746
0.000145433
0.000227963
7.46826e-05
6.20487e-05
4.71725e-05
6.20404e-05
4.71723e-05
0.000145435
0.000221754
7.468e-05