/*--------------------------------*- C++ -*----------------------------------*\
| =========                 |                                                 |
| \\      /  F ield         | OpenFOAM: The Open Source CFD Toolbox           |
|  \\    /   O peration     | Version:  2206                                  |
|   \\  /    A nd           | Website:  www.openfoam.com                      |
|    \\/     M anipulation  |                                                 |
\*---------------------------------------------------------------------------*/
FoamFile
{
    version     2.0;
    format      ascii;
    arch        "LSB;label=32;scalar=64";
    class       volScalarField;
    location    "13.5";
    object      p;
}
// * * * * * * * * * * * * * * * * * * * * * * * * * * * * * * * * * * * * * //

dimensions      [0 2 -2 0 0 0 0];

internalField   nonuniform List<scalar> 
28673
(
0.00055047
0.00055314
0.000504826
0.0005048
0.000504798
0.000507468
0.000459158
0.000459132
0.000459132
0.000461802
0.000413479
0.000413451
0.000413454
0.000416121
0.000367798
0.000367771
0.000367771
0.000370441
0.000322119
0.000322093
0.000322093
0.000324762
0.00027644
0.000276414
0.000276414
0.000279083
0.000230762
0.000230735
0.000230735
0.000233405
0.000185083
0.000185058
0.000185058
0.000187726
0.000139388
0.000139371
0.000139371
0.000142025
9.37382e-05
9.36776e-05
9.36751e-05
9.63084e-05
4.86793e-05
4.8115e-05
4.81116e-05
5.05879e-05
1.11169e-05
1.15028e-05
1.15005e-05
1.11082e-05
0.000561889
0.000559225
0.00056189
0.000513552
0.000550471
0.00055047
0.000516216
0.000516217
0.00055314
0.000513553
0.000516215
0.000516215
0.000550471
0.000516217
0.000516216
0.000513551
0.00055047
0.000516215
0.000516216
0.000513552
0.000507468
0.000467885
0.000504799
0.000504799
0.00047055
0.000470549
0.000507469
0.000467887
0.000504799
0.000504798
0.000470549
0.000470549
0.0005048
0.00047055
0.00047055
0.000507468
0.000467885
0.000504799
0.000470549
0.00047055
0.000467885
0.000461801
0.000422208
0.000459131
0.000459132
0.000424874
0.000424872
0.000461803
0.000422206
0.000459131
0.000459132
0.000424875
0.000424876
0.000459131
0.000424873
0.000424874
0.000461801
0.00042221
0.000459131
0.000424875
0.000424874
0.000422207
0.000416121
0.000376526
0.000413452
0.000413451
0.000379191
0.000379191
0.00041612
0.000376526
0.000413453
0.000413454
0.000379191
0.000379191
0.000413452
0.000379191
0.000379191
0.000416123
0.000376525
0.000413452
0.000379191
0.000379191
0.000376526
0.000370441
0.000330847
0.000367771
0.000367771
0.000333513
0.000333513
0.000370441
0.000330848
0.000367771
0.000367771
0.000333512
0.000333512
0.000367772
0.000333513
0.000333513
0.000370441
0.000330847
0.000367771
0.000333512
0.000333512
0.000330848
0.000324762
0.000285169
0.000322093
0.000322093
0.000287834
0.000287834
0.000324762
0.000285169
0.000322093
0.000322093
0.000287834
0.000287834
0.000322093
0.000287834
0.000287834
0.000324763
0.000285168
0.000322093
0.000287834
0.000287834
0.000285168
0.000279083
0.00023949
0.000276414
0.000276414
0.000242155
0.000242155
0.000279083
0.00023949
0.000276414
0.000276414
0.000242155
0.000242155
0.000276414
0.000242155
0.000242155
0.000279084
0.00023949
0.000276414
0.000242155
0.000242155
0.00023949
0.000233405
0.000193812
0.000230736
0.000230735
0.000196477
0.000196477
0.000233405
0.000193812
0.000230735
0.000230735
0.000196477
0.000196477
0.000230736
0.000196477
0.000196477
0.000233405
0.000193812
0.000230735
0.000196477
0.000196477
0.000193812
0.000187726
0.000148128
0.000185058
0.000185058
0.000150799
0.000150799
0.000187726
0.000148128
0.000185058
0.000185058
0.000150799
0.000150799
0.000185058
0.000150799
0.000150799
0.000187726
0.000148128
0.000185058
0.000150799
0.000150799
0.000148128
0.000142025
0.000102447
0.000139371
0.000139371
0.000105072
0.000105072
0.000142024
0.000102449
0.00013937
0.000139371
0.000105072
0.000105071
0.000139371
0.000105073
0.00010507
0.000142024
0.000102445
0.000139371
0.00010507
0.000105071
0.000102445
9.63113e-05
5.68043e-05
9.36769e-05
9.36773e-05
5.9452e-05
5.94526e-05
9.6312e-05
5.68053e-05
9.36771e-05
9.36756e-05
5.945e-05
5.94491e-05
9.36753e-05
5.94514e-05
5.94492e-05
9.63087e-05
5.68011e-05
9.36756e-05
5.94485e-05
5.94479e-05
5.68009e-05
5.05923e-05
1.51199e-05
4.8117e-05
4.81169e-05
1.74093e-05
1.7408e-05
5.05926e-05
1.5119e-05
4.81143e-05
4.81126e-05
1.74076e-05
1.7403e-05
4.81121e-05
1.74056e-05
1.74013e-05
5.05882e-05
1.51137e-05
4.8111e-05
1.74032e-05
1.74025e-05
1.51126e-05
1.11131e-05
1.15045e-05
1.15042e-05
1.11134e-05
1.15031e-05
1.15e-05
1.11164e-05
1.11144e-05
1.1114e-05
1.1499e-05
1.11093e-05
1.14996e-05
0.000536222
0.000553322
0.00055332
0.00053622
0.000553325
0.000536221
0.00053622
0.000536221
0.000550497
0.000550497
0.000516242
0.000516243
0.000516242
0.000516242
0.000536283
0.000553288
0.000550478
0.000539051
0.000553268
0.000536253
0.000539059
0.00053622
0.000536283
0.000550478
0.000539052
0.000553268
0.000539059
0.000536252
0.000553326
0.000553326
0.000536387
0.000536216
0.000536216
0.000490555
0.000507651
0.000507651
0.000490554
0.000507653
0.000490554
0.000490554
0.00050765
0.00050765
0.000490552
0.000504826
0.000504825
0.000504826
0.000470575
0.000470576
0.000470575
0.000470575
0.000490616
0.000507619
0.000504807
0.000493384
0.000507597
0.000490587
0.00049339
0.000507652
0.000490552
0.000490615
0.000504806
0.000507618
0.000493382
0.000507596
0.000493389
0.000490585
0.000507655
0.000507655
0.000490719
0.000490551
0.000490551
0.000444894
0.000461987
0.000461986
0.000444892
0.000461993
0.000444886
0.000444889
0.000461984
0.000461984
0.00044489
0.000459158
0.000459158
0.000459158
0.0004249
0.000424899
0.000424901
0.000424899
0.000444948
0.000461957
0.000459139
0.000447715
0.000461931
0.000444923
0.00044772
0.000461985
0.00044489
0.000444949
0.000459138
0.000461952
0.000447713
0.00046193
0.00044772
0.000444921
0.00046199
0.00046199
0.000445051
0.000444891
0.000444891
0.000399203
0.000416305
0.000416307
0.000399201
0.000416305
0.0003992
0.000399205
0.000416308
0.000416314
0.000399201
0.000413478
0.000413479
0.000413478
0.000379217
0.000379218
0.000379218
0.000379217
0.000399261
0.000416272
0.000413458
0.000402031
0.000416248
0.000399233
0.000402037
0.000416307
0.0003992
0.000399262
0.000413459
0.000416278
0.000402032
0.000416249
0.000402038
0.000399234
0.000416309
0.000416309
0.000399365
0.000399197
0.000399197
0.000353525
0.000370624
0.000370624
0.000353523
0.000370626
0.000353522
0.000353524
0.000370624
0.000370624
0.000353522
0.000367798
0.000367798
0.000367798
0.000333539
0.000333539
0.000333539
0.000333539
0.000353583
0.000370592
0.000367778
0.000356352
0.000370569
0.000353555
0.000356359
0.000370625
0.000353522
0.000353583
0.000367778
0.000370592
0.000356352
0.000370569
0.000356358
0.000353555
0.000370628
0.000370628
0.000353687
0.00035352
0.00035352
0.000307846
0.000324946
0.000324946
0.000307844
0.000324947
0.000307843
0.000307846
0.000324946
0.000324946
0.000307844
0.000322119
0.000322119
0.000322119
0.00028786
0.00028786
0.00028786
0.00028786
0.000307904
0.000324914
0.0003221
0.000310673
0.000324891
0.000307876
0.00031068
0.000324947
0.000307843
0.000307904
0.000322099
0.000324914
0.000310673
0.000324891
0.00031068
0.000307876
0.00032495
0.00032495
0.000308008
0.000307841
0.000307841
0.000262167
0.000279267
0.000279267
0.000262165
0.000279268
0.000262164
0.000262167
0.000279267
0.000279267
0.000262165
0.00027644
0.00027644
0.00027644
0.000242182
0.000242181
0.000242181
0.000242181
0.000262226
0.000279235
0.000276421
0.000264994
0.000279212
0.000262197
0.000265001
0.000279268
0.000262164
0.000262225
0.000276421
0.000279235
0.000264994
0.000279212
0.000265001
0.000262197
0.000279271
0.000279271
0.000262329
0.000262162
0.000262162
0.000216489
0.000233589
0.000233589
0.000216487
0.00023359
0.000216486
0.000216489
0.000233589
0.000233589
0.000216487
0.000230762
0.000230762
0.000230762
0.000196502
0.000196502
0.000196502
0.000196502
0.000216547
0.000233556
0.000230742
0.000219316
0.000233533
0.000216519
0.000219323
0.00023359
0.000216486
0.000216547
0.000230742
0.000233556
0.000219316
0.000233533
0.000219322
0.000216519
0.000233592
0.000233593
0.000216651
0.000216484
0.000216484
0.000170809
0.000187908
0.000187908
0.000170806
0.00018791
0.000170804
0.000170809
0.000187908
0.000187908
0.000170807
0.000185083
0.000185083
0.000185083
0.000150806
0.000150806
0.000150806
0.000150806
0.000170867
0.000187875
0.000185064
0.000173639
0.000187853
0.000170844
0.000173642
0.00018791
0.000170804
0.000170867
0.000185064
0.000187875
0.000173639
0.000187853
0.000173642
0.000170843
0.000187912
0.000187912
0.000170972
0.000170804
0.000170804
0.000125126
0.000142208
0.000142207
0.000125126
0.000142228
0.000125072
0.000125127
0.000142233
0.000142208
0.000125128
0.000139388
0.000139388
0.000139388
0.000105103
0.000105104
0.000105102
0.000105103
0.000125191
0.000142118
0.000139376
0.000127938
0.000142149
0.000125228
0.000127936
0.000142233
0.000125071
0.00012519
0.000139376
0.000142135
0.000127937
0.000142148
0.000127935
0.000125227
0.000142211
0.000142211
0.000125277
0.000125118
0.000125119
7.93262e-05
9.65144e-05
9.65105e-05
7.93939e-05
9.66385e-05
7.91159e-05
7.9325e-05
9.65126e-05
9.651e-05
7.93921e-05
9.37392e-05
9.37368e-05
9.37379e-05
5.96897e-05
5.969e-05
5.96876e-05
5.96874e-05
7.94177e-05
9.64253e-05
9.37159e-05
8.23074e-05
9.6487e-05
7.93969e-05
8.23073e-05
9.66382e-05
7.91193e-05
7.94161e-05
9.37146e-05
9.64287e-05
8.23051e-05
9.6486e-05
8.23058e-05
7.93941e-05
9.64329e-05
9.64236e-05
7.96216e-05
7.94382e-05
7.94359e-05
3.2777e-05
5.03e-05
5.04418e-05
3.19511e-05
5.07157e-05
3.14568e-05
3.27643e-05
5.02926e-05
5.04353e-05
3.19431e-05
4.86793e-05
4.8676e-05
4.8676e-05
1.89563e-05
1.8955e-05
1.89522e-05
1.89519e-05
3.3439e-05
5.02679e-05
4.84107e-05
3.71193e-05
5.05606e-05
3.26398e-05
3.75298e-05
5.07e-05
3.14629e-05
3.34382e-05
4.84075e-05
5.02659e-05
3.71155e-05
5.05607e-05
3.75267e-05
3.26388e-05
5.02584e-05
5.02574e-05
3.43647e-05
3.23787e-05
3.23772e-05
7.47372e-06
8.51395e-06
8.28136e-06
1.07173e-06
5.66409e-06
-9.71997e-07
7.49173e-06
8.49574e-06
8.26487e-06
1.07439e-06
3.27888e-06
1.14595e-05
1.14579e-05
3.79373e-06
1.17086e-05
3.40414e-06
3.40385e-06
5.90445e-06
8.24704e-06
1.08722e-05
4.03484e-06
1.00039e-05
5.49295e-06
3.58498e-06
5.6269e-06
-9.62286e-07
5.91067e-06
1.08714e-05
8.24194e-06
4.03473e-06
1.00032e-05
3.58557e-06
5.50249e-06
4.55764e-06
4.55696e-06
4.18417e-06
5.13333e-06
5.14673e-06
0.000559059
0.00055909
0.000559059
0.000559055
0.000559056
0.000559058
0.00055909
0.000559059
0.000553322
0.000536222
0.000536221
0.000553326
0.000536387
0.000536216
0.000536217
0.000513388
0.000530485
0.000513385
0.000530488
0.000530302
0.000513384
0.000513383
0.000530488
0.000530488
0.000536222
0.000553322
0.00055332
0.00053622
0.000536283
0.000553289
0.000550478
0.000539052
0.000553268
0.000536252
0.000539059
0.000536283
0.000553288
0.000550478
0.000539051
0.000553268
0.000536253
0.000539059
0.000530484
0.000513388
0.000530484
0.000513389
0.000530484
0.000513387
0.000530485
0.000513389
0.000530431
0.000527633
0.000513419
0.000516223
0.000530452
0.000527641
0.000513449
0.000530431
0.000527633
0.000513419
0.000516224
0.000530453
0.000527641
0.000513449
0.000553324
0.000553324
0.000536387
0.000536218
0.000536218
0.000553325
0.00053622
0.000513387
0.000530487
0.000530303
0.000513384
0.000513384
0.000530489
0.000530489
0.000513386
0.000530487
0.000536283
0.000539052
0.000536252
0.000539059
0.00053622
0.000536221
0.000536283
0.000539052
0.000539059
0.000536252
0.000530482
0.000513386
0.000530483
0.000513387
0.00053043
0.000527633
0.000513418
0.000516223
0.000530451
0.00052764
0.000513448
0.000530482
0.000513385
0.000530483
0.000513387
0.00053043
0.000527633
0.000516223
0.000513418
0.00052764
0.000530451
0.000513448
0.000536222
0.000553322
0.000553319
0.00053622
0.000536283
0.000550478
0.000553289
0.000539052
0.000553268
0.000539059
0.000536252
0.000536222
0.000553322
0.000553319
0.00053622
0.000530431
0.000527633
0.000513419
0.000516224
0.000530453
0.000527641
0.000513449
0.000530484
0.000513387
0.000530485
0.000513389
0.000530431
0.000527633
0.000516223
0.000513419
0.000527641
0.000530452
0.000513449
0.000530484
0.000513388
0.000530484
0.000513389
0.000536387
0.000536218
0.000536217
0.00053622
0.000513385
0.000530487
0.000530302
0.000513382
0.000513383
0.000530486
0.000530486
0.000513386
0.000530487
0.000536283
0.000550478
0.000553289
0.000539052
0.000553268
0.000539059
0.000536252
0.000536221
0.000553319
0.00053622
0.000536221
0.000553322
0.000553319
0.00053622
0.00053043
0.000527633
0.000516223
0.000513418
0.00052764
0.000530451
0.000513448
0.00053043
0.000527633
0.000516223
0.000513419
0.00052764
0.000530451
0.000513448
0.000530483
0.000513386
0.000530484
0.000513388
0.000530483
0.000513387
0.000530483
0.000513388
0.000553322
0.000536221
0.000553322
0.000536221
0.000530302
0.000513384
0.000513384
0.000530487
0.000530487
0.000513388
0.000530485
0.000513388
0.000530485
0.000507653
0.000490554
0.000507653
0.000490552
0.000507655
0.000507655
0.000490719
0.00049055
0.000490549
0.00046772
0.00048482
0.00046772
0.000484819
0.000484635
0.000467716
0.000467717
0.000484823
0.000484821
0.000490556
0.000507651
0.000507651
0.000490554
0.000490615
0.000507619
0.000504807
0.000493382
0.000507597
0.000490585
0.00049339
0.000490615
0.000507619
0.000504807
0.000493383
0.000507597
0.000490586
0.00049339
0.000484818
0.000467721
0.000484819
0.000467723
0.000484818
0.000467726
0.000484818
0.000467723
0.000484764
0.000481966
0.000467753
0.000470556
0.000484786
0.000481973
0.000467782
0.000484764
0.000481968
0.000467756
0.000470557
0.000484786
0.000481974
0.000467782
0.000507655
0.000507654
0.00049072
0.000490551
0.000490552
0.000507653
0.000490554
0.000467726
0.000484819
0.000484636
0.000467723
0.000467723
0.000484821
0.000484821
0.000467726
0.00048482
0.000490615
0.000507618
0.000504806
0.000493382
0.000507596
0.000490585
0.000493389
0.000490554
0.00050765
0.00050765
0.000490552
0.000490614
0.000504806
0.000507617
0.000493382
0.000507596
0.000493389
0.000490585
0.000484816
0.00046772
0.000484817
0.000467722
0.000484762
0.000481966
0.000467752
0.000470556
0.000484784
0.000481972
0.000467781
0.000484816
0.00046772
0.000484816
0.000467722
0.000484763
0.000481965
0.000470556
0.000467752
0.000481972
0.000484784
0.000467781
0.000490556
0.000507652
0.000507651
0.000490554
0.000490615
0.000504807
0.000507619
0.000493383
0.000507597
0.00049339
0.000490585
0.000490556
0.000507651
0.000507651
0.000490554
0.000484764
0.000481968
0.000467756
0.000470557
0.000484786
0.000481974
0.000467783
0.000484819
0.000467726
0.000484818
0.000467723
0.000484764
0.000481967
0.000470556
0.000467753
0.000481974
0.000484786
0.000467783
0.000484818
0.000467722
0.000484819
0.000467723
0.000507654
0.000507654
0.000490718
0.000490549
0.000490549
0.000507653
0.000490552
0.000467719
0.000484818
0.000484635
0.000467717
0.000467717
0.000484819
0.00048482
0.00046772
0.000484819
0.000490615
0.000504806
0.000507619
0.000493382
0.000507596
0.00049339
0.000490585
0.000490555
0.000507651
0.00050765
0.000490552
0.000490555
0.000507651
0.00050765
0.000490554
0.000484763
0.000481965
0.000470556
0.000467752
0.000481973
0.000484784
0.000467782
0.000484763
0.000481967
0.000470556
0.000467753
0.000481973
0.000484786
0.000467782
0.000484818
0.000467721
0.000484817
0.000467722
0.000484818
0.000467721
0.000484819
0.000467723
0.000507653
0.000490554
0.000507653
0.000490554
0.000484636
0.000467717
0.000467717
0.000484823
0.000484823
0.000467721
0.000484821
0.00046772
0.00048482
0.000461989
0.000444891
0.000461985
0.000444891
0.00046199
0.000461988
0.000445051
0.000444891
0.000444888
0.000422041
0.000439153
0.000422044
0.000439156
0.000438965
0.000422042
0.000422046
0.00043916
0.00043916
0.000444893
0.000461991
0.000461986
0.000444889
0.000444948
0.000461953
0.000459138
0.000447713
0.000461931
0.000444923
0.00044772
0.000444948
0.000461957
0.000459139
0.000447715
0.000461931
0.000444923
0.00044772
0.000439155
0.000422044
0.000439153
0.00042205
0.000439155
0.000422042
0.000439149
0.00042205
0.000439094
0.000436295
0.000422078
0.00042488
0.000439121
0.000436301
0.000422103
0.000439094
0.000436295
0.000422075
0.00042488
0.000439119
0.000436301
0.000422102
0.000461996
0.000461996
0.000445049
0.000444888
0.000444888
0.000461993
0.000444886
0.000422041
0.000439148
0.000438963
0.000422039
0.000422039
0.000439155
0.000439155
0.000422041
0.000439148
0.000444948
0.000461952
0.000459138
0.000447713
0.000461929
0.000444921
0.00044772
0.000444889
0.000461983
0.000461984
0.000444891
0.000444948
0.000459138
0.000461951
0.000447713
0.000461929
0.00044772
0.000444921
0.000439153
0.000422048
0.000439154
0.000422055
0.000439095
0.000436295
0.000422081
0.000424881
0.00043912
0.000436301
0.000422107
0.000439153
0.00042205
0.000439155
0.000422055
0.000439096
0.000436295
0.000424882
0.000422083
0.000436301
0.00043912
0.000422107
0.000444893
0.000461992
0.000461986
0.000444889
0.000444949
0.000459139
0.000461954
0.000447714
0.000461931
0.000447721
0.000444923
0.000444894
0.000461988
0.000461986
0.000444892
0.000439094
0.000436295
0.000422075
0.00042488
0.000439119
0.000436301
0.000422102
0.000439155
0.000422043
0.000439149
0.00042205
0.000439094
0.000436296
0.00042488
0.000422078
0.000436301
0.000439121
0.000422103
0.000439155
0.000422044
0.000439153
0.00042205
0.000461986
0.000461987
0.000445051
0.000444888
0.000444888
0.000461985
0.000444891
0.000422046
0.000439158
0.000438966
0.000422049
0.000422047
0.00043916
0.00043916
0.000422045
0.000439157
0.000444949
0.000459138
0.000461954
0.000447714
0.00046193
0.00044772
0.000444923
0.000444894
0.000461985
0.000461985
0.000444891
0.000444894
0.000461987
0.000461985
0.000444892
0.000439095
0.000436295
0.000424881
0.000422082
0.000436302
0.00043912
0.000422104
0.000439095
0.000436296
0.00042488
0.000422079
0.000436301
0.000439121
0.000422104
0.000439156
0.000422049
0.000439155
0.000422052
0.000439156
0.000422044
0.000439154
0.000422051
0.000461989
0.000444892
0.000461989
0.000444892
0.000438965
0.000422041
0.000422042
0.00043916
0.00043916
0.000422041
0.000439153
0.000422041
0.000439153
0.000416305
0.0003992
0.000416305
0.0003992
0.000416309
0.000416313
0.000399365
0.000399197
0.000399197
0.000376361
0.000393464
0.00037636
0.000393464
0.00039328
0.000376358
0.000376358
0.000393467
0.000393466
0.000399203
0.000416304
0.000416307
0.000399201
0.000399261
0.000416274
0.000413458
0.000402031
0.000416248
0.000399233
0.000402037
0.000399261
0.000416272
0.000413458
0.00040203
0.000416248
0.000399233
0.000402037
0.000393463
0.000376361
0.000393463
0.000376364
0.000393463
0.000376362
0.000393464
0.000376364
0.000393408
0.000390611
0.000376394
0.000379198
0.000393431
0.000390617
0.000376422
0.000393408
0.000390611
0.000376394
0.000379198
0.000393431
0.000390618
0.000376422
0.000416307
0.000416307
0.000399366
0.000399198
0.000399198
0.000416305
0.0003992
0.000376361
0.000393465
0.00039328
0.000376359
0.000376359
0.000393467
0.000393467
0.000376361
0.000393465
0.000399261
0.000416277
0.00041346
0.000402031
0.000416251
0.000399234
0.000402038
0.000399205
0.000416309
0.000416314
0.000399202
0.000399261
0.00041346
0.000416279
0.000402032
0.000416251
0.000402038
0.000399235
0.000393464
0.000376361
0.000393463
0.000376363
0.000393407
0.00039061
0.000376393
0.000379198
0.000393431
0.000390617
0.000376422
0.000393464
0.000376361
0.000393463
0.000376363
0.000393408
0.000390611
0.000379198
0.000376393
0.000390618
0.000393431
0.000376422
0.000399203
0.000416304
0.000416308
0.000399201
0.000399261
0.000413458
0.000416274
0.000402031
0.000416248
0.000402037
0.000399233
0.000399203
0.000416304
0.000416308
0.000399201
0.000393408
0.000390611
0.000376394
0.000379198
0.000393431
0.000390618
0.000376422
0.000393463
0.000376362
0.000393464
0.000376364
0.000393408
0.000390611
0.000379198
0.000376394
0.000390618
0.000393431
0.000376422
0.000393463
0.000376362
0.000393463
0.000376364
0.000416314
0.000416313
0.000399365
0.000399198
0.000399198
0.000416306
0.0003992
0.00037636
0.000393465
0.00039328
0.000376358
0.000376358
0.000393467
0.000393467
0.000376361
0.000393464
0.000399262
0.000413459
0.000416274
0.000402031
0.000416249
0.000402038
0.000399233
0.000399204
0.000416308
0.000416309
0.000399201
0.000399204
0.000416305
0.000416309
0.000399201
0.000393408
0.000390611
0.000379198
0.000376393
0.000390618
0.000393432
0.000376422
0.000393408
0.000390611
0.000379198
0.000376394
0.000390618
0.000393431
0.000376422
0.000393463
0.000376362
0.000393463
0.000376364
0.000393463
0.000376362
0.000393463
0.000376364
0.000416304
0.0003992
0.000416305
0.0003992
0.00039328
0.000376358
0.000376358
0.000393467
0.000393467
0.000376361
0.000393464
0.000376361
0.000393464
0.000370625
0.000353522
0.000370625
0.000353522
0.000370628
0.000370628
0.000353687
0.000353519
0.000353519
0.000330683
0.000347786
0.000330683
0.000347786
0.000347602
0.00033068
0.00033068
0.000347789
0.000347789
0.000353525
0.000370624
0.000370624
0.000353523
0.000353583
0.000370592
0.000367778
0.000356352
0.000370569
0.000353555
0.000356358
0.000353583
0.000370592
0.000367778
0.000356352
0.000370569
0.000353555
0.000356359
0.000347785
0.000330683
0.000347785
0.000330686
0.000347785
0.000330684
0.000347785
0.000330686
0.00034773
0.000344932
0.000330716
0.000333519
0.000347753
0.000344939
0.000330744
0.00034773
0.000344932
0.000330716
0.000333519
0.000347753
0.000344939
0.000330744
0.000370628
0.000370628
0.000353687
0.00035352
0.00035352
0.000370626
0.000353522
0.000330683
0.000347787
0.000347602
0.000330681
0.000330681
0.000347789
0.000347789
0.000330683
0.000347787
0.000353583
0.000370591
0.000367778
0.000356351
0.000370568
0.000353554
0.000356358
0.000353524
0.000370624
0.000370624
0.000353523
0.000353583
0.000367778
0.000370591
0.000356352
0.000370569
0.000356358
0.000353555
0.000347785
0.000330683
0.000347785
0.000330685
0.00034773
0.000344932
0.000330716
0.000333519
0.000347753
0.000344939
0.000330744
0.000347785
0.000330683
0.000347785
0.000330685
0.00034773
0.000344932
0.000333519
0.000330716
0.000344939
0.000347753
0.000330744
0.000353525
0.000370625
0.000370625
0.000353523
0.000353583
0.000367778
0.000370592
0.000356352
0.000370569
0.000356359
0.000353555
0.000353525
0.000370624
0.000370625
0.000353523
0.00034773
0.000344932
0.000330716
0.000333519
0.000347753
0.000344939
0.000330744
0.000347785
0.000330684
0.000347785
0.000330686
0.00034773
0.000344932
0.000333519
0.000330715
0.000344939
0.000347753
0.000330744
0.000347785
0.000330683
0.000347785
0.000330686
0.000370627
0.000370628
0.000353686
0.00035352
0.00035352
0.000370625
0.000353522
0.000330682
0.000347787
0.000347602
0.00033068
0.00033068
0.000347789
0.000347789
0.000330683
0.000347786
0.000353583
0.000367778
0.000370592
0.000356352
0.000370569
0.000356359
0.000353555
0.000353525
0.000370624
0.000370624
0.000353523
0.000353525
0.000370624
0.000370624
0.000353523
0.00034773
0.000344932
0.000333519
0.000330715
0.000344939
0.000347753
0.000330744
0.00034773
0.000344932
0.000333519
0.000330715
0.000344939
0.000347753
0.000330744
0.000347785
0.000330683
0.000347785
0.000330686
0.000347785
0.000330683
0.000347785
0.000330686
0.000370625
0.000353522
0.000370626
0.000353522
0.000347602
0.00033068
0.00033068
0.000347789
0.000347789
0.000330683
0.000347786
0.000330683
0.000347786
0.000324947
0.000307843
0.000324947
0.000307843
0.00032495
0.00032495
0.000308008
0.000307841
0.000307841
0.000285004
0.000302108
0.000285004
0.000302108
0.000301923
0.000285001
0.000285001
0.000302111
0.000302111
0.000307846
0.000324946
0.000324946
0.000307844
0.000307905
0.000324914
0.0003221
0.000310673
0.000324891
0.000307876
0.00031068
0.000307905
0.000324914
0.0003221
0.000310673
0.000324891
0.000307876
0.00031068
0.000302107
0.000285005
0.000302107
0.000285007
0.000302107
0.000285005
0.000302107
0.000285007
0.000302051
0.000299253
0.000285037
0.00028784
0.000302074
0.00029926
0.000285065
0.000302051
0.000299253
0.000285037
0.000287841
0.000302074
0.00029926
0.000285065
0.00032495
0.00032495
0.000308008
0.000307841
0.000307841
0.000324948
0.000307843
0.000285004
0.000302108
0.000301923
0.000285001
0.000285002
0.000302111
0.00030211
0.000285003
0.000302108
0.000307905
0.000324913
0.000322099
0.000310673
0.00032489
0.000307876
0.00031068
0.000307846
0.000324946
0.000324946
0.000307844
0.000307904
0.000322099
0.000324913
0.000310673
0.000324891
0.00031068
0.000307876
0.000302107
0.000285005
0.000302107
0.000285006
0.000302051
0.000299253
0.000285037
0.00028784
0.000302074
0.00029926
0.000285065
0.000302107
0.000285004
0.000302106
0.000285006
0.000302051
0.000299253
0.00028784
0.000285037
0.00029926
0.000302074
0.000285065
0.000307846
0.000324946
0.000324946
0.000307844
0.000307905
0.0003221
0.000324914
0.000310673
0.000324891
0.00031068
0.000307876
0.000307846
0.000324946
0.000324946
0.000307844
0.000302051
0.000299253
0.000285037
0.00028784
0.000302074
0.00029926
0.000285065
0.000302107
0.000285005
0.000302106
0.000285007
0.000302051
0.000299253
0.00028784
0.000285036
0.00029926
0.000302074
0.000285065
0.000302107
0.000285004
0.000302106
0.000285007
0.00032495
0.00032495
0.000308008
0.000307841
0.000307841
0.000324947
0.000307843
0.000285003
0.000302108
0.000301923
0.000285002
0.000285001
0.00030211
0.000302111
0.000285004
0.000302108
0.000307905
0.0003221
0.000324914
0.000310673
0.00032489
0.00031068
0.000307876
0.000307846
0.000324946
0.000324946
0.000307844
0.000307846
0.000324946
0.000324946
0.000307844
0.000302051
0.000299253
0.00028784
0.000285036
0.00029926
0.000302074
0.000285065
0.000302051
0.000299253
0.00028784
0.000285036
0.00029926
0.000302074
0.000285065
0.000302107
0.000285004
0.000302106
0.000285007
0.000302106
0.000285004
0.000302106
0.000285007
0.000324947
0.000307843
0.000324947
0.000307843
0.000301923
0.000285001
0.000285001
0.00030211
0.00030211
0.000285004
0.000302108
0.000285004
0.000302108
0.000279268
0.000262165
0.000279268
0.000262165
0.000279271
0.000279271
0.000262329
0.000262162
0.000262162
0.000239325
0.000256429
0.000239325
0.000256429
0.000256244
0.000239323
0.000239323
0.000256432
0.000256432
0.000262167
0.000279267
0.000279267
0.000262165
0.000262226
0.000279235
0.000276421
0.000264994
0.000279212
0.000262197
0.000265001
0.000262226
0.000279235
0.000276421
0.000264994
0.000279212
0.000262197
0.000265001
0.000256428
0.000239326
0.000256428
0.000239328
0.000256428
0.000239326
0.000256428
0.000239328
0.000256372
0.000253575
0.000239358
0.000242162
0.000256395
0.000253581
0.000239386
0.000256372
0.000253575
0.000239358
0.000242162
0.000256395
0.000253581
0.000239386
0.000279271
0.000279271
0.000262329
0.000262162
0.000262162
0.000279269
0.000262164
0.000239325
0.000256429
0.000256244
0.000239323
0.000239323
0.000256432
0.000256431
0.000239325
0.000256429
0.000262226
0.000279235
0.000276421
0.000264994
0.000279212
0.000262197
0.000265001
0.000262167
0.000279267
0.000279267
0.000262165
0.000262226
0.000276421
0.000279234
0.000264994
0.000279212
0.000265001
0.000262197
0.000256428
0.000239326
0.000256428
0.000239328
0.000256372
0.000253575
0.000239358
0.000242162
0.000256395
0.000253581
0.000239387
0.000256428
0.000239326
0.000256428
0.000239328
0.000256372
0.000253575
0.000242162
0.000239358
0.000253581
0.000256395
0.000239386
0.000262167
0.000279267
0.000279267
0.000262165
0.000262226
0.000276421
0.000279235
0.000264994
0.000279212
0.000265001
0.000262197
0.000262167
0.000279267
0.000279267
0.000262165
0.000256372
0.000253575
0.000239358
0.000242162
0.000256395
0.000253581
0.000239386
0.000256428
0.000239326
0.000256428
0.000239328
0.000256372
0.000253575
0.000242162
0.000239358
0.000253581
0.000256395
0.000239386
0.000256428
0.000239326
0.000256428
0.000239328
0.000279271
0.000279271
0.000262329
0.000262162
0.000262162
0.000279268
0.000262164
0.000239325
0.000256429
0.000256244
0.000239323
0.000239323
0.000256431
0.000256432
0.000239325
0.000256429
0.000262226
0.000276421
0.000279235
0.000264994
0.000279211
0.000265001
0.000262197
0.000262167
0.000279267
0.000279267
0.000262165
0.000262167
0.000279267
0.000279267
0.000262165
0.000256372
0.000253575
0.000242162
0.000239358
0.000253581
0.000256395
0.000239386
0.000256372
0.000253575
0.000242162
0.000239358
0.000253581
0.000256395
0.000239387
0.000256428
0.000239326
0.000256428
0.000239328
0.000256428
0.000239326
0.000256428
0.000239328
0.000279268
0.000262164
0.000279268
0.000262164
0.000256244
0.000239323
0.000239323
0.000256432
0.000256432
0.000239325
0.000256429
0.000239325
0.000256429
0.00023359
0.000216486
0.00023359
0.000216486
0.000233593
0.000233593
0.000216651
0.000216484
0.000216484
0.000193646
0.00021075
0.000193647
0.000210751
0.000210566
0.000193644
0.000193644
0.000210753
0.000210753
0.000216489
0.000233589
0.000233589
0.000216487
0.000216547
0.000233556
0.000230742
0.000219316
0.000233533
0.000216519
0.000219323
0.000216547
0.000233556
0.000230742
0.000219316
0.000233533
0.000216519
0.000219323
0.000210749
0.000193647
0.000210749
0.000193649
0.000210749
0.000193647
0.000210749
0.000193649
0.000210694
0.000207897
0.00019368
0.000196483
0.000210717
0.000207903
0.000193708
0.000210694
0.000207897
0.00019368
0.000196483
0.000210717
0.000207903
0.000193708
0.000233592
0.000233592
0.000216651
0.000216484
0.000216484
0.00023359
0.000216486
0.000193646
0.00021075
0.000210566
0.000193644
0.000193645
0.000210753
0.000210753
0.000193646
0.000210751
0.000216547
0.000233556
0.000230742
0.000219316
0.000233533
0.000216519
0.000219323
0.000216489
0.000233588
0.000233589
0.000216487
0.000216547
0.000230742
0.000233556
0.000219316
0.000233533
0.000219322
0.000216519
0.000210749
0.000193647
0.000210749
0.000193649
0.000210694
0.000207897
0.00019368
0.000196483
0.000210717
0.000207903
0.000193708
0.000210749
0.000193647
0.000210749
0.000193649
0.000210694
0.000207897
0.000196483
0.00019368
0.000207903
0.000210717
0.000193708
0.000216489
0.000233589
0.000233589
0.000216487
0.000216547
0.000230742
0.000233556
0.000219316
0.000233533
0.000219323
0.000216519
0.000216489
0.000233588
0.000233589
0.000216487
0.000210694
0.000207897