/*--------------------------------*- C++ -*----------------------------------*\
| =========                 |                                                 |
| \\      /  F ield         | OpenFOAM: The Open Source CFD Toolbox           |
|  \\    /   O peration     | Version:  2206                                  |
|   \\  /    A nd           | Website:  www.openfoam.com                      |
|    \\/     M anipulation  |                                                 |
\*---------------------------------------------------------------------------*/
FoamFile
{
    version     2.0;
    format      ascii;
    arch        "LSB;label=32;scalar=64";
    class       surfaceScalarField;
    location    "13.5";
    object      phi;
}
// * * * * * * * * * * * * * * * * * * * * * * * * * * * * * * * * * * * * * //

dimensions      [0 3 -1 0 0 0 0];

oriented        oriented;

internalField   nonuniform List<scalar> 
83378
(
-0.00107048
-1.17704e-06
-1.26127e-09
1.61807e-09
0.00107048
-2.30083e-07
1.17895e-06
2.29433e-07
8.54327e-07
-2.18931e-07
-8.54208e-07
2.17394e-07
1.20492e-06
1.17182e-06
-2.15462e-07
-2.20675e-07
0.000261286
1.37125e-09
1.44331e-09
-0.00106989
-1.20404e-09
-1.26305e-09
0.00106989
-0.00107047
-1.17696e-06
-1.52791e-09
1.49417e-09
0.00107047
-2.29967e-07
1.179e-06
2.29519e-07
8.54404e-07
-2.18771e-07
-8.54141e-07
2.17528e-07
-0.00107014
-1.17166e-06
-1.46743e-09
1.55788e-09
0.00107014
-2.30008e-07
1.17365e-06
2.29494e-07
8.54224e-07
-2.21433e-07
-8.54031e-07
2.20163e-07
-0.000263226
1.20484e-06
1.17175e-06
-2.15371e-07
-2.20571e-07
0.000261286
8.26342e-10
1.91577e-09
-0.00106989
-1.50649e-09
-8.88927e-10
0.00106989
-0.00107047
-1.17721e-06
-4.15622e-10
2.38924e-09
0.00107047
-2.30347e-07
1.1787e-06
2.29069e-07
8.54062e-07
-2.19102e-07
-8.54351e-07
2.17034e-07
-0.00107014
-1.17148e-06
-1.55872e-09
1.03252e-09
0.00107014
-2.29829e-07
1.17388e-06
2.29756e-07
8.54195e-07
-2.21386e-07
-8.54009e-07
2.20256e-07
-0.000263226
1.20479e-06
1.17178e-06
-2.15314e-07
-2.20454e-07
0.000261285
4.86922e-10
1.58262e-10
-0.00106989
-5.86028e-10
-8.02191e-10
0.00106989
-0.00107048
-1.17717e-06
-6.93453e-10
1.73717e-09
0.00107048
-2.30227e-07
1.17891e-06
2.29404e-07
8.54283e-07
-2.19386e-07
-8.54429e-07
2.17146e-07
-0.00107014
-1.17203e-06
-2.7686e-10
2.26931e-09
0.00107014
-2.3051e-07
1.17341e-06
2.2918e-07
8.53996e-07
-2.22369e-07
-8.54421e-07
2.19461e-07
-0.000263226
1.2051e-06
1.172e-06
-2.15705e-07
-2.20911e-07
0.000261286
1.00608e-09
9.13347e-10
-0.00106989
-9.22163e-10
-1.05232e-09
0.00106989
-0.00107048
-1.17709e-06
-1.07563e-09
1.69822e-09
0.00107048
-2.30159e-07
1.17897e-06
2.29448e-07
8.54321e-07
-2.19123e-07
-8.54354e-07
2.17327e-07
-0.00107014
-1.17179e-06
-1.01757e-09
1.81205e-09
0.00107014
-2.30144e-07
1.1736e-06
2.29434e-07
8.54144e-07
-2.21765e-07
-8.54242e-07
2.19984e-07
-0.000263227
1.20498e-06
1.17188e-06
-2.15529e-07
-2.20746e-07
0.000261286
9.94305e-10
1.01601e-09
-0.00106989
-9.88986e-10
-1.03776e-09
0.00106989
-0.00107048
-1.17709e-06
-1.06515e-09
1.7112e-09
0.00107048
-2.30159e-07
1.17897e-06
2.29447e-07
8.54324e-07
-2.19117e-07
-8.54349e-07
2.1733e-07
-0.00107014
-1.17178e-06
-1.07112e-09
1.7472e-09
0.00107014
-2.3013e-07
1.17362e-06
2.29446e-07
8.54156e-07
-2.21746e-07
-8.54226e-07
2.19995e-07
-0.000263227
1.20497e-06
1.17188e-06
-2.15529e-07
-2.20731e-07
0.000261286
9.81193e-10
1.02643e-09
-0.00106989
-1.00192e-09
-1.03007e-09
0.00106989
-0.00107048
-1.17709e-06
-1.04443e-09
1.71989e-09
0.00107048
-2.30163e-07
1.17897e-06
2.29444e-07
8.5432e-07
-2.19121e-07
-8.54353e-07
2.17326e-07
-0.00107014
-1.17177e-06
-1.0712e-09
1.73531e-09
0.00107014
-2.30128e-07
1.17362e-06
2.29447e-07
8.54154e-07
-2.21748e-07
-8.54228e-07
2.19993e-07
-0.000263227
1.20497e-06
1.17189e-06
-2.15533e-07
-2.20732e-07
0.000261286
1.00863e-09
1.06583e-09
-0.00106989
-1.02329e-09
-1.04371e-09
0.00106989
-0.00107048
-1.17709e-06
-1.07865e-09
1.69957e-09
0.00107048
-2.30158e-07
1.17897e-06
2.29446e-07
8.54323e-07
-2.19115e-07
-8.54348e-07
2.17329e-07
-0.00107014
-1.17177e-06
-1.09913e-09
1.71062e-09
0.00107014
-2.30125e-07
1.17363e-06
2.29419e-07
8.54155e-07
-2.21742e-07
-8.54223e-07
2.19994e-07
-0.000263227
1.20497e-06
1.17188e-06
-2.15531e-07
-2.20728e-07
0.000261286
1.02156e-09
1.08188e-09
-0.00106989
-1.01132e-09
-1.02384e-09
0.00106989
-0.00107048
-1.17704e-06
-1.10174e-09
1.60634e-09
0.00107048
-2.30091e-07
1.1789e-06
2.29362e-07
8.54169e-07
-2.18932e-07
-8.54223e-07
2.17053e-07
-0.00107014
-1.17172e-06
-1.1101e-09
1.61917e-09
0.00107014
-2.30062e-07
1.17356e-06
2.29336e-07
8.54e-07
-2.21558e-07
-8.54098e-07
2.19713e-07
-0.000263227
1.20492e-06
1.17183e-06
-2.15451e-07
-2.20648e-07
0.000261286
-2.52012e-09
-2.42741e-09
-0.00106989
4.74793e-10
5.05022e-10
0.00106989
-0.00107048
-1.17637e-06
2.41739e-09
2.59297e-09
0.00107048
-2.29324e-07
1.17769e-06
2.27848e-07
8.50163e-07
-2.13413e-07
-8.51661e-07
2.09253e-07
-0.00107014
-1.17104e-06
2.40104e-09
2.59439e-09
0.00107014
-2.29321e-07
1.17235e-06
2.27865e-07
8.49995e-07
-2.16061e-07
-8.5149e-07
2.11933e-07
-0.000263228
1.20424e-06
1.17115e-06
-2.14181e-07
-2.1938e-07
0.000261286
7.60635e-09
7.76296e-09
-0.00106989
-8.0573e-09
-1.29825e-08
0.00106989
-0.00107048
-1.17291e-06
-2.17582e-09
-5.01965e-09
0.00107048
-2.22043e-07
1.17538e-06
2.25135e-07
8.54765e-07
-2.11731e-07
-8.54484e-07
2.07145e-07
-0.00107015
-1.16492e-06
-7.78989e-09
4.55703e-10
0.00107016
-2.21949e-07
1.16742e-06
2.22447e-07
8.51931e-07
-2.11683e-07
-8.51654e-07
2.09835e-07
-0.000263238
1.20341e-06
1.16766e-06
-2.03674e-07
-2.08829e-07
0.00026128
8.10818e-07
8.17616e-07
-0.00106975
-6.95127e-07
-6.85168e-07
0.0010695
-0.00107074
-1.08267e-06
-8.11949e-07
-3.59112e-07
0.00107104
-1.48235e-07
1.33437e-06
3.20515e-07
1.00211e-06
-1.10731e-07
-7.52557e-07
3.07458e-07
-0.00107042
-1.07457e-06
-8.22499e-07
-3.69879e-07
0.00107074
-1.48082e-07
1.32919e-06
3.23356e-07
9.99245e-07
-1.16125e-07
-7.4973e-07
3.10099e-07
-0.000263314
1.11579e-06
1.07474e-06
-1.20047e-07
-1.22536e-07
0.000261366
4.90015e-06
4.89359e-06
-0.00105594
-1.04482e-05
-1.03525e-05
0.000256312
0.000259662
0.000258752
0.000258752
3.97245e-06
6.23293e-06
6.52397e-06
3.97612e-06
6.23368e-06
6.52728e-06
-0.000264817
5.06884e-06
-4.891e-06
5.66283e-06
-3.21652e-06
0.000262192
-0.000264793
-4.89317e-06
5.07402e-06
-3.22433e-06
5.65989e-06
0.000262177
-0.000263732
-5.06591e-06
-5.0768e-06
5.68259e-06
5.67088e-06
0.000262521
1.21744e-06
0.00107014
-1.21556e-06
2.37495e-07
-2.38198e-07
2.20009e-07
-2.21756e-07
-1.17894e-06
0.000263271
-0.000261312
2.17596e-07
2.19871e-07
-1.17704e-06
2.29416e-07
-2.30082e-07
2.17334e-07
-2.18992e-07
-1.21209e-06
-1.17638e-06
0.000263242
-0.000261291
2.14949e-07
2.22608e-07
1.86751e-09
0.0010697
-2.35466e-07
2.3469e-07
8.54245e-07
-2.18928e-07
-8.54177e-07
2.17269e-07
-1.21556e-06
-1.1102e-09
1.67656e-09
0.00107014
-2.38199e-07
1.21744e-06
2.3751e-07
8.59764e-07
-2.21691e-07
-8.59705e-07
2.20074e-07
0.0010697
-1.50996e-09
-0.0010697
1.66937e-09
-1.21015e-06
2.34791e-07
-2.3539e-07
-8.54103e-07
2.17426e-07
-2.18755e-07
8.54321e-07
1.21751e-06
0.00107013
-1.37321e-09
-0.00107013
1.56992e-09
-1.21548e-06
2.37606e-07
-2.381e-07
-8.59648e-07
2.202e-07
-2.21565e-07
8.59826e-07
-2.15687e-07
-2.17974e-07
0.000261312
-1.17902e-06
0.000263271
-0.000261312
2.17722e-07
2.19998e-07
0.00107074
-1.38964e-09
-0.00107074
1.48034e-09
-1.17438e-06
2.32261e-07
-2.32755e-07
-8.56848e-07
2.20198e-07
-2.21578e-07
8.5709e-07
1.21214e-06
0.00106981
-1.28999e-09
-0.00106981
1.64957e-09
-1.21019e-06
2.37524e-07
-2.38123e-07
-8.56811e-07
2.20122e-07
-2.21531e-07
8.56976e-07
-1.15288e-09
1.81974e-09
0.00106961
-2.32694e-07
1.20677e-06
2.31993e-07
8.54257e-07
-2.18933e-07
2.17259e-07
-8.54218e-07
-1.52617e-09
-0.00107048
1.50335e-09
-1.17696e-06
2.2953e-07
-2.29983e-07
-8.54148e-07
2.17525e-07
8.54395e-07
-2.18803e-07
1.20684e-06
0.00106961
-1.46343e-09
-0.00106961
1.61791e-09
-1.20487e-06
2.32089e-07
-2.32622e-07
-8.54154e-07
2.17416e-07
-2.18768e-07
8.54327e-07
-1.17363e-06
0.000263221
-0.000261273
2.15106e-07
2.22423e-07
-9.99537e-10
1.62391e-09
0.00107065
-2.30131e-07
1.1737e-06
2.29472e-07
8.54394e-07
-2.21729e-07
2.20023e-07
-8.54352e-07
-1.51994e-09
-0.00107014
1.6269e-09
-1.17167e-06
2.29473e-07
-2.30026e-07
-8.53974e-07
2.20141e-07
8.5427e-07
-2.2146e-07
1.17376e-06
0.00107064
-1.3658e-09
-0.00107064
1.43598e-09
-1.17177e-06
2.29564e-07
-2.3006e-07
-8.54276e-07
2.20191e-07
-2.21556e-07
8.54478e-07
-0.000261286
2.17439e-07
2.22651e-07
1.21012e-06
1.17437e-06
-2.12888e-07
-2.20559e-07
0.000261291
-1.21232e-06
-1.17655e-06
0.000263241
-0.00026129
2.15159e-07
2.22845e-07
1.66564e-09
0.0010697
-2.35363e-07
1.2121e-06
2.34813e-07
8.54329e-07
-2.18756e-07
-8.54109e-07
2.17444e-07
-1.21548e-06
-1.39186e-09
1.56979e-09
0.00107013
-2.38086e-07
1.21749e-06
2.37593e-07
8.59841e-07
-2.2153e-07
-8.59637e-07
2.20211e-07
0.0010697
-1.69325e-09
-0.0010697
1.10295e-09
-1.20996e-06
2.35061e-07
-2.35177e-07
-8.53985e-07
2.17643e-07
-2.18634e-07
8.54511e-07
1.21747e-06
0.00107013
-1.28721e-09
-0.00107013
1.90087e-09
-1.21544e-06
2.37529e-07
-2.38068e-07
-8.59537e-07
2.2027e-07
-2.21434e-07
8.59934e-07
-2.1556e-07
-2.17849e-07
0.000261312
-1.17899e-06
0.00026327
-0.000261311
2.17716e-07
2.19983e-07
1.52113e-09
0.00107074
-2.32747e-07
1.1764e-06
2.32292e-07
8.57086e-07
-2.21557e-07
-8.56856e-07
2.20214e-07
-1.21019e-06
-1.38471e-09
1.60788e-09
0.00106981
-2.38112e-07
1.21216e-06
2.37554e-07
8.56984e-07
-2.21512e-07
-8.56824e-07
2.2015e-07
0.00107074
-2.05377e-09
-0.00107074
1.39403e-09
-1.17429e-06
2.32461e-07
-2.3265e-07
-8.56758e-07
2.20423e-07
-2.21418e-07
8.57283e-07
1.2123e-06
0.00106981
-1.89102e-09
-0.00106981
1.33306e-09
-1.21011e-06
2.37699e-07
-2.38036e-07
-8.56761e-07
2.20324e-07
-2.21423e-07
8.57153e-07
-1.36926e-09
1.63928e-09
0.00106961
-2.32595e-07
1.20685e-06
2.32111e-07
8.54337e-07
-2.18761e-07
2.17435e-07
-8.54153e-07
-1.38495e-09
-0.00107047
1.77054e-09
-1.17691e-06
2.29465e-07
-2.29939e-07
-8.5405e-07
2.1758e-07
8.54491e-07
-2.18687e-07
1.20706e-06
0.00106961
-1.65033e-09
-0.00106961
1.19268e-09
-1.20469e-06
2.32328e-07
-2.32437e-07
-8.54029e-07
2.17625e-07
-2.18644e-07
8.54519e-07
-2.13087e-07
-2.20386e-07
0.000261273
-1.17379e-06
0.000263221
-0.000261272
2.15266e-07
2.22563e-07
-1.31521e-09
1.52396e-09
0.00107064
-2.30042e-07
1.17376e-06
2.29573e-07
8.545e-07
-2.2154e-07
2.20217e-07
-8.54263e-07
-1.93739e-09
-0.00107014
1.19657e-09
-1.17157e-06
2.29653e-07
-2.29908e-07
-8.53871e-07
2.20299e-07
8.54454e-07
-2.21361e-07
1.17391e-06
0.00107064
-1.87339e-09
-0.00107064
1.41424e-09
-1.17165e-06
2.29734e-07
-2.29937e-07
-8.54096e-07
2.2045e-07
-2.21385e-07
8.54728e-07
-0.000261285
2.17642e-07
2.22911e-07
1.21e-06
1.17436e-06
-2.1281e-07
-2.2037e-07
0.00026129
-1.21187e-06
-1.17617e-06
0.000263242
-0.000261291
2.14631e-07
2.22192e-07
1.28676e-09
0.0010697
-2.35246e-07
1.21222e-06
2.34873e-07
8.54136e-07
-2.18764e-07
-8.54176e-07
2.17327e-07
-1.21575e-06
-3.322e-10
2.55249e-09
0.00107013
-2.38478e-07
1.21718e-06
2.3713e-07
8.59504e-07
-2.2185e-07
-8.59838e-07
2.1972e-07
0.0010697
-1.95368e-11
-0.0010697
2.23295e-09
-1.21047e-06
2.34518e-07
-2.358e-07
-8.5463e-07
2.1666e-07
-2.19769e-07
8.5403e-07
1.21736e-06
0.00107013
-1.94157e-10
-0.00107013
1.93804e-09
-1.21575e-06
2.37424e-07
-2.38436e-07
-8.601e-07
2.19627e-07
-2.2239e-07
8.59611e-07
-2.1583e-07
-2.18123e-07
0.000261311
-1.17888e-06
0.000263271
-0.000261312
2.17461e-07
2.1973e-07
1.82956e-09
0.00107073
-2.32718e-07
1.17633e-06
2.32218e-07
8.57299e-07
-2.21422e-07
-8.56698e-07
2.20403e-07
-1.21005e-06
-2.03953e-09
1.33149e-09
0.00106981
-2.37963e-07
1.21232e-06
2.3775e-07
8.57248e-07
-2.21324e-07
-8.56633e-07
2.20435e-07
0.00107074
1.34643e-11
-0.00107074
2.14326e-09
-1.17477e-06
2.31959e-07
-2.33287e-07
-8.57459e-07
2.19414e-07
-2.22407e-07
8.56654e-07
1.21186e-06
0.00106981
1.40232e-10
-0.00106981
2.34524e-09
-1.21059e-06
2.37111e-07
-2.38665e-07
-8.57439e-07
2.19294e-07
-2.22394e-07
8.56532e-07
-8.54648e-10
1.52982e-09
0.00106961
-2.32549e-07
1.20684e-06
2.32068e-07
8.54157e-07
-2.1878e-07
2.17314e-07
-8.54215e-07
-3.29777e-10
-0.00107047
1.85256e-09
-1.17722e-06
2.29353e-07
-2.30312e-07
-8.54613e-07
2.16943e-07
8.54169e-07
-2.1964e-07
1.20665e-06
0.00106961
-2.12771e-11
-0.00106961
2.1986e-09
-1.20519e-06
2.31819e-07
-2.33064e-07
-8.54655e-07
2.16662e-07
-2.19751e-07
8.54052e-07
-2.12893e-07
-2.20234e-07
0.000261272
-1.17332e-06
0.000263221
-0.000261272
2.14619e-07
2.21949e-07
-1.18584e-09
1.9628e-09
0.00107064
-2.30078e-07
1.17366e-06
2.29446e-07
8.54386e-07
-2.21502e-07
2.20159e-07
-8.5426e-07
9.74897e-12
-0.00107014
2.23819e-09
-1.17206e-06
2.2904e-07
-2.30548e-07
-8.54471e-07
2.19298e-07
8.53956e-07
-2.22369e-07
1.17355e-06
0.00107064
2.3478e-11
-0.00107064
2.10681e-09
-1.17212e-06
2.29269e-07
-2.30542e-07
-8.54767e-07
2.19451e-07
-2.22516e-07
8.54201e-07
-0.000261286
2.17101e-07
2.22326e-07
1.21043e-06
1.1746e-06
-2.13201e-07
-2.20982e-07
0.000261291
-1.21204e-06
-1.17636e-06
0.000263242
-0.000261291
2.14876e-07
2.22517e-07
2.16343e-09
0.0010697
-2.35719e-07
1.21193e-06
2.34602e-07
8.54172e-07
-2.19508e-07
-8.54441e-07
2.16944e-07
-1.21569e-06
-5.444e-10
1.79683e-09
0.00107013
-2.38347e-07
1.2174e-06
2.37479e-07
8.5972e-07
-2.22143e-07
-8.59921e-07
2.19824e-07
0.0010697
-1.01336e-09
-0.0010697
1.91814e-09
-1.21028e-06
2.34721e-07
-2.35566e-07
-8.54303e-07
2.17247e-07
-2.19088e-07
8.54257e-07
1.21746e-06
0.00107014
-8.97458e-10
-0.00107014
1.74471e-09
-1.21562e-06
2.37525e-07
-2.38276e-07
-8.59857e-07
2.19994e-07
-2.21901e-07
8.5975e-07
-2.15852e-07
-2.1814e-07
0.000261312
-1.17896e-06
0.000263271
-0.000261312
2.17598e-07
2.19876e-07
1.85725e-09
0.00107074
-2.33059e-07
1.17631e-06
2.32151e-07
8.56813e-07
-2.22491e-07
-8.57347e-07
2.19502e-07
-1.21051e-06
7.74612e-11
2.24223e-09
0.00106981
-2.38579e-07
1.21198e-06
2.37267e-07
8.56691e-07
-2.22497e-07
-8.57329e-07
2.19377e-07
0.00107074
-8.46597e-10
-0.00107074
1.66614e-09
-1.1745e-06
2.32223e-07
-2.32913e-07
-8.57091e-07
2.19992e-07
-2.21954e-07
8.56998e-07
1.21211e-06
0.00106981
-7.24568e-10
-0.00106981
1.84997e-09
-1.21032e-06
2.37484e-07
-2.38287e-07
-8.57055e-07
2.19918e-07
-2.21917e-07
8.5689e-07
-4.89614e-10
2.07133e-09
0.00106961
-2.32919e-07
1.20672e-06
2.31938e-07
8.54182e-07
-2.19515e-07
2.16928e-07
-8.54478e-07
-1.06765e-09
-0.00107048
1.69387e-09
-1.1771e-06
2.29446e-07
-2.30163e-07
-8.54356e-07
2.17322e-07
8.5432e-07
-2.19136e-07
1.20679e-06
0.00106961
-9.84498e-10
-0.00106961
1.86169e-09
-1.205e-06
2.32024e-07
-2.32786e-07
-8.54355e-07
2.17234e-07
-2.191e-07
8.54261e-07
-2.13596e-07
-2.20841e-07
0.000261273
-1.1736e-06
0.000263224
-0.000261273
2.15015e-07
2.19821e-07
-3.22646e-10
1.81083e-09
0.00107065
-2.3036e-07
1.17365e-06
2.29419e-07
8.54314e-07
-2.22302e-07
2.19696e-07
-8.54613e-07
-9.73035e-10
-0.00107014
1.85789e-09
-1.1718e-06
2.29393e-07
-2.30193e-07
-8.54213e-07
2.19938e-07
8.54184e-07
-2.21834e-07
1.17372e-06
0.00107065
-8.21078e-10
-0.00107065
1.6277e-09
-1.17188e-06
2.29511e-07
-2.30212e-07
-8.54492e-07
2.19995e-07
-2.21901e-07
8.54395e-07
-0.000261286
2.17359e-07
2.22557e-07
1.21026e-06
1.1745e-06
-2.13041e-07
-2.20722e-07
0.000261291
-1.21207e-06
-1.17635e-06
0.000263242
-0.000261291
2.14876e-07
2.22545e-07
1.88254e-09
0.0010697
-2.35546e-07
1.21206e-06
2.34733e-07
8.54253e-07
-2.19072e-07
-8.54305e-07
2.17252e-07
-1.21561e-06
-9.12725e-10
1.75519e-09
0.00107014
-2.38275e-07
1.21746e-06
2.37524e-07
8.59753e-07
-2.21883e-07
-8.59852e-07
2.20004e-07
0.0010697
-1.02949e-09
-0.0010697
1.82762e-09
-1.21025e-06
2.3475e-07
-2.35528e-07
-8.54299e-07
2.17256e-07
-2.19068e-07
8.5426e-07
1.21746e-06
0.00107014
-9.25006e-10
-0.00107014
1.77468e-09
-1.21561e-06
2.37523e-07
-2.38277e-07
-8.59845e-07
2.2001e-07
-2.2188e-07
8.59763e-07
-2.15744e-07
-2.18031e-07
0.000261312
-1.17897e-06
0.000263271
-0.000261312
2.17607e-07
2.19882e-07
1.68473e-09
0.00107074
-2.32914e-07
1.17636e-06
2.32219e-07
8.57012e-07
-2.21903e-07
-8.57071e-07
2.20027e-07
-1.21032e-06
-8.23231e-10
1.85688e-09
0.00106981
-2.38277e-07
1.21211e-06
2.37486e-07
8.56906e-07
-2.2185e-07
-8.57035e-07
2.1996e-07
0.00107074
-1.02389e-09
-0.00107074
1.70683e-09
-1.1745e-06
2.32212e-07
-2.32922e-07
-8.57049e-07
2.20053e-07
-2.21863e-07
8.57036e-07
1.21213e-06
0.00106981
-9.32193e-10
-0.00106981
1.80773e-09
-1.2103e-06
2.37494e-07
-2.38269e-07
-8.57014e-07
2.19982e-07
-2.21821e-07
8.56928e-07
-1.00251e-09
1.84292e-09
0.00106961
-2.32776e-07
1.2068e-06
2.32029e-07
8.54262e-07
-2.19079e-07
2.17243e-07
-8.5435e-07
-1.08045e-09
-0.00107048
1.70576e-09
-1.17709e-06
2.29448e-07
-2.30159e-07
-8.54347e-07
2.17334e-07
8.54329e-07
-2.19119e-07
1.20681e-06
0.00106961
-1.01658e-09
-0.00106961
1.80524e-09
-1.20497e-06
2.32039e-07
-2.32769e-07
-8.54342e-07
2.17249e-07
-2.19074e-07
8.54273e-07
-2.1323e-07
-2.18016e-07
0.000261273
-1.17362e-06
0.000263224
-0.000261273
2.15046e-07
2.19836e-07
-8.5005e-10
1.64541e-09
0.00107065
-2.30208e-07
1.17372e-06
2.29508e-07
8.54401e-07
-2.21876e-07
2.20007e-07
-8.54483e-07
-1.0823e-09
-0.00107014
1.74854e-09
-1.17177e-06
2.29415e-07
-2.30163e-07
-8.54177e-07
2.19976e-07
8.54212e-07
-2.21769e-07
1.17372e-06
0.00107065
-9.16156e-10
-0.00107065
1.67648e-09
-1.17188e-06
2.29504e-07
-2.30217e-07
-8.54466e-07
2.20023e-07
-2.21862e-07
8.5442e-07
-0.000261286
2.17362e-07
2.22576e-07
1.21024e-06
1.17451e-06
-2.13045e-07
-2.207e-07
0.000261291
-1.21208e-06
-1.17635e-06
0.000263242
-0.000261291
2.14872e-07
2.22547e-07
1.82281e-09
0.0010697
-2.35526e-07
1.21207e-06
2.3475e-07
8.54251e-07
-2.1907e-07
-8.54305e-07
2.17251e-07
-1.21561e-06
-9.15295e-10
1.78222e-09
0.00107014
-2.38279e-07
1.21746e-06
2.3752e-07
8.5976e-07
-2.21875e-07
-8.59844e-07
2.2001e-07
0.0010697
-1.00932e-09
-0.0010697
1.81425e-09
-1.21025e-06
2.34752e-07
-2.35525e-07
-8.54303e-07
2.17252e-07
-2.19073e-07
8.54256e-07
1.21745e-06
0.00107014
-9.07195e-10
-0.00107014
1.79517e-09
-1.21562e-06
2.37518e-07
-2.38282e-07
-8.59848e-07
2.20007e-07
-2.21883e-07
8.59759e-07
-2.15739e-07
-2.18027e-07
0.000261312
-1.17897e-06
0.000263271
-0.000261312
2.17604e-07
2.19878e-07
1.72314e-09
0.00107074
-2.32925e-07
1.17635e-06
2.32208e-07
8.57036e-07
-2.21865e-07
-8.57044e-07
2.20054e-07
-1.21031e-06
-9.39967e-10
1.83466e-09
0.00106981
-2.38272e-07
1.21212e-06
2.3749e-07
8.56929e-07
-2.21813e-07
-8.5701e-07
2.19987e-07
0.00107074
-1.03731e-09
-0.00107074
1.72413e-09
-1.17451e-06
2.32207e-07
-2.32928e-07
-8.57046e-07
2.20055e-07
-2.21861e-07
8.57038e-07
1.21212e-06
0.00106981
-9.47234e-10
-0.00106981
1.80789e-09
-1.2103e-06
2.37494e-07
-2.38268e-07
-8.57012e-07
2.19983e-07
-2.2182e-07
8.56928e-07
-1.00216e-09
1.80523e-09
0.00106961
-2.32765e-07
1.20681e-06
2.32039e-07
8.54266e-07
-2.19072e-07
2.17246e-07
-8.54344e-07
-1.05445e-09
-0.00107048
1.71827e-09
-1.1771e-06
2.29444e-07
-2.30163e-07
-8.54351e-07
2.17329e-07
8.54325e-07
-2.19123e-07
1.20681e-06
0.00106961
-9.90415e-10
-0.00106961
1.80018e-09
-1.20497e-06
2.32038e-07
-2.32769e-07
-8.54346e-07
2.17245e-07
-2.19078e-07
8.54268e-07
-2.13208e-07
-2.18007e-07
0.000261273
-1.17362e-06
0.000263224
-0.000261273
2.15048e-07
2.19836e-07
-9.06034e-10
1.68642e-09
0.00107065
-2.30215e-07
1.17372e-06
2.29502e-07
8.54417e-07
-2.21858e-07
2.20021e-07
-8.54465e-07
-1.0848e-09
-0.00107014
1.73323e-09
-1.17177e-06
2.29417e-07
-2.3016e-07
-8.54177e-07
2.19974e-07
8.54211e-07
-2.2177e-07
1.17372e-06
0.00107065
-9.19064e-10
-0.00107065
1.69873e-09
-1.17189e-06
2.29499e-07
-2.30222e-07
-8.54464e-07
2.20022e-07
-2.21862e-07
8.5442e-07
-0.000261286
2.17357e-07
2.22576e-07
1.21024e-06
1.17451e-06
-2.13048e-07
-2.20699e-07
0.000261291
-1.21208e-06
-1.17635e-06
0.000263242
-0.000261291
2.14872e-07
2.22549e-07
1.81164e-09
0.0010697
-2.35524e-07
1.21208e-06
2.34751e-07
8.54249e-07
-2.19074e-07
-8.54308e-07
2.17248e-07
-1.21562e-06
-9.01768e-10
1.79703e-09
0.00107014
-2.38283e-07
1.21745e-06
2.37516e-07
8.59757e-07
-2.21877e-07
-8.59847e-07
2.20008e-07
0.0010697
-1.0011e-09
-0.0010697
1.81431e-09
-1.21024e-06
2.34753e-07
-2.35523e-07
-8.54303e-07
2.17251e-07
-2.19073e-07
8.54255e-07
1.21745e-06
0.00107014
-9.00065e-10
-0.00107014
1.80443e-09
-1.21562e-06
2.37518e-07
-2.38281e-07
-8.59847e-07
2.20006e-07
-2.21881e-07
8.59759e-07
-2.15742e-07
-2.18032e-07
0.000261312
-1.17897e-06
0.000263271
-0.000261312
2.17605e-07
2.19878e-07
1.7318e-09
0.00107074
-2.32929e-07
1.17635e-06
2.32206e-07
8.57037e-07
-2.21863e-07
-8.57042e-07
2.20055e-07
-1.21031e-06
-9.49472e-10
1.82939e-09
0.00106981
-2.38271e-07
1.21212e-06
2.3749e-07
8.56929e-07
-2.21813e-07
-8.57009e-07
2.19987e-07
0.00107074
-1.0353e-09
-0.00107074
1.73151e-09
-1.17451e-06
2.32207e-07
-2.32927e-07
-8.57044e-07
2.20056e-07
-2.21858e-07
8.57039e-07
1.21212e-06
0.00106981
-9.43422e-10
-0.00106981
1.82105e-09
-1.2103e-06
2.37491e-07
-2.38269e-07
-8.57011e-07
2.19983e-07
-2.21818e-07
8.56929e-07
-9.80985e-10
1.8027e-09
0.00106961
-2.32766e-07
1.20681e-06
2.32037e-07
8.54262e-07
-2.19077e-07
2.17241e-07
-8.54349e-07
-1.04418e-09
-0.00107048
1.72238e-09
-1.1771e-06
2.29444e-07
-2.30162e-07
-8.54351e-07
2.17329e-07
8.54325e-07
-2.19122e-07
1.20681e-06
0.00106961
-9.76392e-10
-0.00106961
1.807e-09
-1.20497e-06
2.32038e-07
-2.32769e-07
-8.54347e-07
2.17243e-07
-2.19079e-07
8.54267e-07
-2.13207e-07
-2.18007e-07
0.000261273
-1.17362e-06
0.000263224
-0.000261273
2.15047e-07
2.19832e-07
-9.05019e-10
1.70161e-09
0.00107065
-2.30219e-07
1.17371e-06
2.29498e-07
8.54415e-07
-2.21859e-07
2.20019e-07
-8.54466e-07
-1.07668e-09
-0.00107014
1.73552e-09
-1.17176e-06
2.29417e-07
-2.3016e-07
-8.54177e-07
2.19974e-07
8.54211e-07
-2.21769e-07
1.17372e-06
0.00107065
-9.12009e-10
-0.00107065
1.70882e-09
-1.17189e-06
2.29497e-07
-2.30223e-07
-8.54464e-07
2.20023e-07
-2.2186e-07
8.5442e-07
-0.000261286
2.17357e-07
2.22577e-07
1.21024e-06
1.17451e-06
-2.13046e-07
-2.20695e-07
0.000261291
-1.21205e-06
-1.17632e-06
0.000263242
-0.000261291
2.14836e-07
2.22512e-07
1.78468e-09
0.0010697
-2.3552e-07
1.21208e-06
2.34755e-07
8.5425e-07
-2.1907e-07
-8.54305e-07
2.17249e-07
-1.21561e-06
-9.35217e-10
1.77173e-09
0.00107014
-2.38278e-07
1.21746e-06
2.3752e-07
8.59759e-07
-2.21872e-07
-8.59842e-07
2.20009e-07
0.0010697
-8.4573e-10
-0.0010697
1.92438e-09
-1.21022e-06
2.34723e-07
-2.3549e-07
-8.54254e-07
2.17161e-07
-2.19009e-07
8.54201e-07
1.21743e-06
0.00107014
-7.58539e-10
-0.00107014
1.92263e-09
-1.21559e-06
2.37488e-07
-2.38249e-07
-8.59793e-07
2.19915e-07
-2.21813e-07
8.59704e-07
-2.15739e-07
-2.18028e-07
0.000261312
-1.17894e-06
0.000263271
-0.000261312
2.17566e-07
2.19843e-07
1.71052e-09
0.00107074
-2.32925e-07
1.17635e-06
2.32208e-07
8.5704e-07
-2.21857e-07
-8.57036e-07
2.20058e-07
-1.2103e-06
-9.86891e-10
1.79838e-09
0.00106981
-2.38266e-07
1.21212e-06
2.37493e-07
8.56933e-07
-2.21807e-07
-8.57004e-07
2.1999e-07
0.00107074
-8.85024e-10
-0.00107074
1.84785e-09
-1.17448e-06
2.32176e-07
-2.32897e-07
-8.56993e-07
2.19966e-07
-2.21794e-07
8.56984e-07
1.2121e-06
0.00106981
-7.89798e-10
-0.00106981
1.93188e-09
-1.21028e-06
2.37462e-07
-2.38237e-07
-8.56962e-07
2.19894e-07
-2.21756e-07
8.56875e-07
-1.01566e-09
1.77509e-09
0.00106961
-2.32761e-07
1.20681e-06
2.32041e-07
8.54265e-07
-2.19072e-07
2.17244e-07
-8.54344e-07
-8.9219e-10
-0.00107048
1.83275e-09
-1.17707e-06
2.29413e-07
-2.30129e-07
-8.543e-07
2.1724e-07
8.54268e-07
-2.19058e-07
1.20679e-06
0.00106961
-8.2103e-10
-0.00106961
1.92146e-09
-1.20495e-06
2.32009e-07
-2.32737e-07
-8.54298e-07
2.17153e-07
-2.19015e-07
8.5421e-07
-2.13205e-07
-2.18005e-07
0.000261273
-1.1736e-06
0.000263224
-0.000261273
2.15015e-07
2.198e-07
-9.3951e-10
1.67976e-09
0.00107065
-2.30216e-07
1.17372e-06
2.29499e-07
8.54418e-07
-2.21853e-07
2.20023e-07
-8.54461e-07
-9.20358e-10
-0.00107014
1.84204e-09
-1.17175e-06
2.29387e-07
-2.30098e-07
-8.54126e-07
2.19881e-07
8.54154e-07
-2.21704e-07
1.17369e-06
0.00107065
-7.7104e-10
-0.00107065
1.82889e-09
-1.17186e-06
2.29468e-07
-2.30191e-07
-8.54413e-07
2.19935e-07
-2.21794e-07
8.54368e-07
-0.000261286
2.17321e-07
2.22541e-07
1.21019e-06
1.17445e-06
-2.12967e-07
-2.20614e-07
0.000261291
-1.21192e-06
-1.17619e-06
0.000263243
-0.000261291
2.14246e-07
2.21918e-07
1.68894e-09
0.0010697
-2.35453e-07
1.21201e-06
2.34672e-07
8.54096e-07
-2.18887e-07
-8.54182e-07
2.16971e-07
-1.21556e-06
-9.72343e-10
1.68084e-09
0.00107014
-2.38211e-07
1.21739e-06
2.37437e-07
8.59607e-07
-2.21682e-07
-8.59713e-07
2.19732e-07
0.0010697
-1.82583e-09
-0.0010697
1.83031e-09
-1.20956e-06
2.34461e-07
-2.34693e-07
-8.52464e-07
2.1342e-07
-2.15666e-07
8.52718e-07
1.2173e-06
0.00107014
-1.75611e-09
-0.00107014
1.84769e-09
-1.21494e-06
2.37223e-07
-2.37456e-07
-8.57993e-07
2.16184e-07
-2.18474e-07
8.58226e-07
-2.15654e-07
-2.17948e-07
0.000261312
-1.17881e-06
0.000263272
-0.000261312
2.16978e-07
2.19252e-07
1.61693e-09
0.00107074
-2.32861e-07
1.17628e-06
2.32125e-07
8.56886e-07
-2.21674e-07
-8.56912e-07
2.19781e-07
-1.21025e-06
-1.00451e-09
1.70153e-09
0.00106981
-2.38199e-07
1.21206e-06
2.37412e-07
8.56781e-07
-2.21626e-07
-8.56882e-07
2.19715e-07
0.00107074
-1.88165e-09
-0.00107074
1.76277e-09
-1.17383e-06
2.31912e-07
-2.32107e-07
-8.55198e-07
2.16228e-07
-2.18453e-07
8.5552e-07
1.21197e-06
0.00106981
-1.77646e-09
-0.00106981
1.84292e-09
-1.20962e-06
2.37205e-07
-2.37441e-07
-8.55161e-07
2.16165e-07
-2.1842e-07
8.55392e-07
-1.03359e-09
1.67838e-09
0.00106961
-2.32696e-07
1.20675e-06
2.3196e-07
8.54109e-07
-2.18889e-07
2.16966e-07
-8.54222e-07
-1.86348e-09
-0.00107048
1.76848e-09
-1.17642e-06
2.29148e-07
-2.29339e-07
-8.52508e-07
2.13501e-07
8.52795e-07
-2.15714e-07
1.20665e-06
0.00106961
-1.79689e-09
-0.00106961
1.83374e-09
-1.2043e-06
2.31745e-07
-2.3195e-07
-8.525e-07
2.1342e-07
-2.15673e-07
8.52732e-07
-2.13124e-07
-2.17921e-07
0.000261273
-1.17347e-06
0.000263223
-0.000261273
2.14438e-07
2.21725e-07
-9.89451e-10
1.60036e-09
0.00107065
-2.3015e-07
1.17365e-06
2.29418e-07
8.54272e-07
-2.21666e-07
2.19751e-07
-8.54334e-07
-1.89895e-09
-0.00107014
1.75408e-09
-1.17109e-06
2.29161e-07
-2.29336e-07
-8.52328e-07
2.16161e-07
8.52615e-07
-2.18357e-07
1.17356e-06
0.00107065
-1.86743e-09
-0.00107065
1.77103e-09
-1.17121e-06
2.29208e-07
-2.29396e-07
-8.52609e-07
2.16211e-07
-2.18432e-07
8.52914e-07
-0.000261286
2.1673e-07
2.2195e-07
1.20951e-06
1.17379e-06
-2.11705e-07
-2.1934e-07
0.000261291
-1.21061e-06
-1.17486e-06
0.000263251
-0.000261288
2.08504e-07
2.1376e-07
2.66563e-09
0.00106971
-2.34676e-07
1.2108e-06
2.33165e-07
8.50094e-07
-2.13379e-07
-8.51635e-07
2.09191e-07
-1.21488e-06
2.53491e-09
2.66342e-09
0.00107014
-2.37433e-07
1.21619e-06
2.35929e-07
8.55599e-07
-2.16175e-07
-8.57151e-07
2.1196e-07
0.0010697
-8.84355e-09
-0.0010697
-6.15401e-09
-1.20724e-06
2.29648e-07
-2.26609e-07
-8.48217e-07
2.09102e-07
-2.07052e-07
8.52435e-07
1.21595e-06
0.00107015
-1.95278e-08
-0.00107014
-5.38137e-10
-1.21001e-06
2.2966e-07
-2.29386e-07
-8.48455e-07
2.06452e-07
-2.04502e-07
8.52596e-07
-2.14395e-07
-2.16677e-07
0.000261312
-1.17746e-06
0.000263275
-0.000261306
2.08734e-07
2.16042e-07
2.58694e-09
0.00107073
-2.32095e-07
1.17771e-06
2.33323e-07
8.52901e-07
-2.16158e-07
-8.54359e-07
2.1196e-07
-1.20956e-06
2.48373e-09
2.66409e-09
0.00106982
-2.37418e-07
1.21086e-06
2.35919e-07
8.52797e-07
-2.16085e-07
-8.54333e-07
2.11895e-07
0.00107074
-9.04812e-09
-0.00107075
-6.16497e-10
-1.17159e-06
2.27044e-07
-2.26755e-07
-8.50924e-07
2.09209e-07
-2.07159e-07
8.55181e-07
1.20538e-06
0.00106982
-8.86172e-09
-0.00106982
-6.10094e-09
-1.20206e-06
2.29659e-07
-2.29347e-07
-8.48315e-07
2.09147e-07
-2.071e-07
8.525e-07
2.49987e-09
2.63703e-09
0.00106961
-2.31926e-07
1.20554e-06
2.30456e-07
8.50106e-07
-2.13379e-07
2.09198e-07
-8.51658e-07
-1.43278e-08
-0.00107048
-6.72748e-10
-1.17151e-06
2.21597e-07
-2.21273e-07
-8.48265e-07
2.09125e-07
8.55112e-07
-2.04427e-07
1.20534e-06
0.00106962
-1.42667e-08
-0.00106962
-6.67307e-10
-1.19941e-06
2.26908e-07
-2.23876e-07
-8.48253e-07
2.09059e-07
-2.04379e-07
8.52401e-07
-2.11864e-07
-2.19162e-07
0.000261273
-1.16952e-06
0.000263226
-0.000261273
2.08704e-07
2.13514e-07
2.44366e-09
2.60523e-09
0.00107065
-2.29374e-07
1.17244e-06
2.27913e-07
8.50284e-07
-2.16135e-07
2.11986e-07
-8.5177e-07
-9.03936e-09
-0.00107015
-6.18809e-09
-1.16618e-06
2.21602e-07
-2.21251e-07
-8.45413e-07
2.09152e-07
8.49666e-07
-2.07042e-07
1.16959e-06
0.00107065
-8.93654e-09
-0.00107065
-6.13553e-09
-1.16103e-06
2.2164e-07
-2.18586e-07
-8.43051e-07
2.06498e-07
-2.04432e-07
8.4994e-07
-0.000261288
2.08548e-07
2.16228e-07
1.20603e-06
1.16771e-06
-2.06171e-07
-2.08809e-07
0.000261293
-1.26436e-06
-1.2286e-06
0.000263327
-0.000261317
2.39041e-07
2.44354e-07
5.36034e-09
0.0010697
-2.27328e-07
1.21118e-06
2.27795e-07
8.54676e-07
-2.11713e-07
-8.54418e-07
2.07134e-07
-1.21139e-06
3.0947e-09
5.5339e-10
0.00107014
-2.30115e-07
1.21384e-06
2.30495e-07
8.5759e-07
-2.0912e-07
-8.54753e-07
2.09808e-07
0.00106997
-3.36052e-07
-0.00106979
-1.61166e-07
-1.17171e-06
2.62011e-07
-2.00824e-07
-8.00678e-07
2.35368e-07
-1.67614e-07
8.95014e-07
1.26966e-06
0.0010704
-3.3611e-07
-0.00107023
-1.5577e-07
-1.17715e-06
2.61986e-07
-2.00921e-07
-8.08854e-07
2.38044e-07
-1.67674e-07
9.03249e-07
-2.0639e-07
-2.1118e-07
0.000261308
-1.22857e-06
0.00026335
-0.000261338
2.41796e-07
2.44032e-07
5.07097e-10
0.00107075
-2.24734e-07
1.17015e-06
2.22462e-07
8.54854e-07
-2.11788e-07
-8.54557e-07
2.09908e-07
-1.20083e-06
-7.68835e-09
4.8351e-10
0.00106983
-2.27306e-07
1.20593e-06
2.2778e-07
8.54799e-07
-2.0904e-07
-8.54567e-07
2.07146e-07
0.001071
-3.42108e-07
-0.00107083
-1.55656e-07
-1.13339e-06
2.59365e-07
-1.95571e-07
-8.05997e-07
2.38225e-07
-1.67608e-07
9.00569e-07
1.26171e-06
0.00107009
-3.4148e-07
-0.00106991
-1.61117e-07
-1.16918e-06
2.62032e-07
-1.98172e-07
-8.03341e-07
2.38106e-07
-1.7024e-07
8.97813e-07
-2.08562e-09
4.11791e-10
0.00106961
-2.27281e-07
1.20588e-06
2.27765e-07
8.54728e-07
-2.09004e-07
2.07089e-07
-8.51866e-07
-3.36586e-07
-0.00107056
-1.60767e-07
-1.136e-06
2.56603e-07
-1.92873e-07
-8.03406e-07
2.35395e-07
8.97832e-07
-1.67621e-07
1.26169e-06
0.00106988
-3.36116e-07
-0.0010697
-1.61159e-07
-1.16649e-06
2.61978e-07
-1.95427e-07
-8.03334e-07
2.38062e-07
-1.70249e-07
8.97705e-07