/*--------------------------------*- C++ -*----------------------------------*\
| =========                 |                                                 |
| \\      /  F ield         | OpenFOAM: The Open Source CFD Toolbox           |
|  \\    /   O peration     | Version:  2206                                  |
|   \\  /    A nd           | Website:  www.openfoam.com                      |
|    \\/     M anipulation  |                                                 |
\*---------------------------------------------------------------------------*/
FoamFile
{
    version     2.0;
    format      ascii;
    arch        "LSB;label=32;scalar=64";
    class       volVectorField;
    location    "13.5";
    object      U;
}
// * * * * * * * * * * * * * * * * * * * * * * * * * * * * * * * * * * * * * //

dimensions      [0 1 -1 0 0 0 0];

internalField   nonuniform List<vector> 
28673
(
(-2.9471e-07 4.86298e-07 0.10163)
(-3.77595e-05 -3.77755e-05 0.101614)
(-4.92159e-07 -4.97645e-07 0.10164)
(-2.70746e-07 4.73884e-07 0.10163)
(4.74084e-07 -2.68775e-07 0.10163)
(-3.77264e-05 -3.7738e-05 0.101614)
(-5.22053e-07 -4.56334e-07 0.10164)
(-3.5887e-07 5.82403e-07 0.10163)
(4.17924e-07 -2.60994e-07 0.10163)
(-3.77201e-05 -3.77054e-05 0.101613)
(-4.02232e-07 -4.28555e-07 0.10164)
(-3.53367e-07 5.00889e-07 0.10163)
(5.50914e-07 -3.7255e-07 0.10163)
(-3.78505e-05 -3.78646e-05 0.101614)
(-4.52044e-07 -4.64874e-07 0.10164)
(-3.11285e-07 4.94574e-07 0.10163)
(5.03095e-07 -3.09413e-07 0.10163)
(-3.77899e-05 -3.78077e-05 0.101614)
(-4.59052e-07 -4.63489e-07 0.10164)
(-3.09899e-07 4.95119e-07 0.10163)
(4.98647e-07 -3.06363e-07 0.10163)
(-3.77906e-05 -3.78021e-05 0.101614)
(-4.60055e-07 -4.62619e-07 0.10164)
(-3.11568e-07 4.96244e-07 0.10163)
(4.9771e-07 -3.06719e-07 0.10163)
(-3.77922e-05 -3.78025e-05 0.101614)
(-4.63876e-07 -4.65575e-07 0.10164)
(-3.09021e-07 4.94521e-07 0.10163)
(4.95556e-07 -3.04913e-07 0.10163)
(-3.77913e-05 -3.78012e-05 0.101614)
(-4.80225e-07 -4.81301e-07 0.10164)
(-3.19693e-07 5.06275e-07 0.10163)
(5.07916e-07 -3.17407e-07 0.10163)
(-3.77602e-05 -3.77705e-05 0.101614)
(-3.8779e-07 -3.83338e-07 0.101641)
(-8.79192e-07 8.66112e-07 0.10163)
(8.65705e-07 -8.78322e-07 0.10163)
(-3.72569e-05 -3.72703e-05 0.101614)
(-8.92802e-07 -8.80881e-07 0.101643)
(-2.5017e-06 1.93067e-06 0.101629)
(1.92109e-06 -2.49934e-06 0.101629)
(-3.48531e-05 -3.48634e-05 0.101615)
(-5.21352e-06 -5.15596e-06 0.101643)
(-2.33202e-06 3.27394e-06 0.101626)
(3.23476e-06 -2.31392e-06 0.101626)
(-2.48143e-05 -2.47937e-05 0.101614)
(-4.3263e-05 -4.31343e-05 0.101568)
(4.17478e-05 -3.53429e-05 0.101563)
(-3.54285e-05 4.1727e-05 0.101563)
(5.07245e-05 5.07657e-05 0.101557)
(-5.04431e-07 3.15257e-07 0.10163)
(3.92058e-05 -3.91809e-05 0.101615)
(-2.9736e-07 4.90782e-07 0.10163)
(-3.92216e-05 -3.9204e-05 0.101614)
(5.15702e-07 3.06611e-07 0.10163)
(-5.0008e-07 3.1184e-07 0.10163)
(4.88971e-07 2.65056e-07 0.10163)
(-4.91396e-07 2.87975e-07 0.10163)
(-3.77721e-05 3.77454e-05 0.101614)
(3.92472e-05 -3.92228e-05 0.101614)
(2.71807e-07 4.67223e-07 0.10163)
(2.81851e-07 -4.86055e-07 0.10163)
(-3.13513e-07 -5.05574e-07 0.10163)
(-2.70207e-07 4.77202e-07 0.10163)
(-2.77449e-07 -4.7823e-07 0.10163)
(-3.91944e-05 3.9228e-05 0.101614)
(-4.8797e-07 -3.14159e-07 0.10163)
(4.78433e-07 -2.55821e-07 0.10163)
(-4.61644e-07 -2.74147e-07 0.10163)
(3.92088e-05 3.92285e-05 0.101614)
(3.77431e-05 3.77189e-05 0.101614)
(-3.93173e-05 -3.92801e-05 0.101614)
(4.97974e-07 2.90604e-07 0.10163)
(-4.89132e-07 2.86757e-07 0.10163)
(4.27415e-07 2.3132e-07 0.10163)
(-5.29311e-07 2.82185e-07 0.10163)
(-3.77331e-05 3.77057e-05 0.101614)
(3.92453e-05 -3.92244e-05 0.101614)
(2.74015e-07 4.7844e-07 0.10163)
(2.75222e-07 -4.83155e-07 0.10163)
(1.97925e-07 4.46993e-07 0.10163)
(2.11121e-07 -4.41509e-07 0.10163)
(-2.97901e-07 -4.9247e-07 0.10163)
(-2.67921e-07 5.10224e-07 0.10163)
(-2.42106e-07 -4.34118e-07 0.10163)
(3.77286e-05 -3.77613e-05 0.101614)
(-3.92587e-05 3.92906e-05 0.101614)
(-4.81072e-07 -2.91634e-07 0.10163)
(4.25221e-07 -2.03227e-07 0.10163)
(-4.48442e-07 -2.1639e-07 0.10163)
(3.9281e-05 3.93256e-05 0.101614)
(3.76866e-05 3.76977e-05 0.101613)
(-3.91147e-05 -3.91125e-05 0.101614)
(4.73331e-07 3.40093e-07 0.10163)
(-6.0379e-07 3.72237e-07 0.10163)
(5.56722e-07 4.00712e-07 0.10163)
(-5.26268e-07 3.94563e-07 0.10163)
(-3.78286e-05 3.77988e-05 0.101613)
(3.91711e-05 -3.91486e-05 0.101614)
(2.23718e-07 5.15525e-07 0.10163)
(2.0705e-07 -4.54848e-07 0.10163)
(4.07234e-07 5.47241e-07 0.10163)
(4.27246e-07 -5.75241e-07 0.10163)
(-3.41594e-07 -4.99936e-07 0.10163)
(-3.79398e-07 5.09597e-07 0.10163)
(-4.10808e-07 -5.42893e-07 0.10163)
(3.76631e-05 -3.77058e-05 0.101614)
(-3.90525e-05 3.91017e-05 0.101614)
(-5.29789e-07 -3.08489e-07 0.10163)
(5.68412e-07 -4.10226e-07 0.10163)
(-5.37468e-07 -4.03544e-07 0.10163)
(3.91121e-05 3.91371e-05 0.101614)
(3.78922e-05 3.78332e-05 0.101614)
(-3.92023e-05 -3.91937e-05 0.101615)
(5.43506e-07 3.66823e-07 0.10163)
(-5.15792e-07 3.70059e-07 0.10163)
(5.19273e-07 3.16262e-07 0.10163)
(-5.07487e-07 3.31614e-07 0.10163)
(-3.78366e-05 3.78091e-05 0.101614)
(3.92172e-05 -3.91917e-05 0.101615)
(3.89488e-07 5.1009e-07 0.10163)
(4.10552e-07 -5.53146e-07 0.10163)
(3.2758e-07 4.90675e-07 0.10163)
(3.39268e-07 -5.10627e-07 0.10163)
(-3.74955e-07 -5.2703e-07 0.10163)
(-3.13229e-07 4.94557e-07 0.10163)
(-3.28191e-07 -5.0847e-07 0.10163)
(3.79036e-05 -3.79116e-05 0.101614)
(-3.91778e-05 3.92124e-05 0.101615)
(-5.06869e-07 -3.7581e-07 0.10163)
(5.04927e-07 -3.1116e-07 0.10163)
(-4.87183e-07 -3.30391e-07 0.10163)
(3.9193e-05 3.92073e-05 0.101614)
(3.78089e-05 3.77787e-05 0.101614)
(-3.92145e-05 -3.91925e-05 0.101615)
(5.1649e-07 3.19051e-07 0.10163)
(-5.08261e-07 3.29173e-07 0.10163)
(5.11366e-07 3.13633e-07 0.10163)
(-5.08913e-07 3.25655e-07 0.10163)
(-3.77974e-05 3.77708e-05 0.101614)
(3.92192e-05 -3.91949e-05 0.101615)
(3.22069e-07 4.94303e-07 0.10163)
(3.30764e-07 -5.14624e-07 0.10163)
(3.10447e-07 4.96258e-07 0.10163)
(3.20532e-07 -5.08502e-07 0.10163)
(-3.27031e-07 -5.08101e-07 0.10163)
(-3.08141e-07 4.94421e-07 0.10163)
(-3.23265e-07 -5.0349e-07 0.10163)
(3.77842e-05 -3.78146e-05 0.101614)
(-3.91887e-05 3.9219e-05 0.101615)
(-4.89728e-07 -3.281e-07 0.10163)
(4.9802e-07 -3.04306e-07 0.10163)
(-4.91342e-07 -3.20403e-07 0.10163)
(3.91934e-05 3.92151e-05 0.101615)
(3.78003e-05 3.77811e-05 0.101614)
(-3.9215e-05 -3.91907e-05 0.101615)
(5.11111e-07 3.19585e-07 0.10163)
(-5.10146e-07 3.27046e-07 0.10163)
(5.10452e-07 3.15484e-07 0.10163)
(-5.11115e-07 3.27147e-07 0.10163)
(-3.77967e-05 3.77693e-05 0.101614)
(3.92174e-05 -3.91935e-05 0.101615)
(3.12131e-07 4.98802e-07 0.10163)
(3.20385e-07 -5.13313e-07 0.10163)
(3.09373e-07 4.98226e-07 0.10163)
(3.1975e-07 -5.08955e-07 0.10163)
(-3.25769e-07 -5.04584e-07 0.10163)
(-3.10107e-07 4.95924e-07 0.10163)
(-3.25359e-07 -5.03377e-07 0.10163)
(3.77766e-05 -3.78107e-05 0.101614)
(-3.91894e-05 3.92189e-05 0.101615)
(-4.93239e-07 -3.22175e-07 0.10163)
(4.9684e-07 -3.04461e-07 0.10163)
(-4.93564e-07 -3.20225e-07 0.10163)
(3.91916e-05 3.92149e-05 0.101615)
(3.77997e-05 3.77824e-05 0.101614)
(-3.92157e-05 -3.91908e-05 0.101615)
(5.10321e-07 3.20881e-07 0.10163)
(-5.11768e-07 3.28282e-07 0.10163)
(5.09945e-07 3.15627e-07 0.10163)
(-5.11472e-07 3.27192e-07 0.10163)
(-3.77984e-05 3.77706e-05 0.101614)
(3.92176e-05 -3.91937e-05 0.101615)
(3.11406e-07 4.99806e-07 0.10163)
(3.20062e-07 -5.12726e-07 0.10163)
(3.09132e-07 4.98524e-07 0.10163)
(3.19684e-07 -5.1036e-07 0.10163)
(-3.27526e-07 -5.04669e-07 0.10163)
(-3.10344e-07 4.95843e-07 0.10163)
(-3.26094e-07 -5.03717e-07 0.10163)
(3.7776e-05 -3.78106e-05 0.101614)
(-3.91896e-05 3.92179e-05 0.101615)
(-4.94835e-07 -3.22418e-07 0.10163)
(4.96679e-07 -3.04603e-07 0.10163)
(-4.9412e-07 -3.20411e-07 0.10163)
(3.91914e-05 3.92152e-05 0.101615)
(3.77983e-05 3.77816e-05 0.101614)
(-3.9202e-05 -3.91771e-05 0.101615)
(5.07908e-07 3.19233e-07 0.10163)
(-5.09409e-07 3.25876e-07 0.10163)
(5.09003e-07 3.17943e-07 0.10163)
(-5.11185e-07 3.28886e-07 0.10163)
(-3.77969e-05 3.77692e-05 0.101614)
(3.92043e-05 -3.91797e-05 0.101615)
(3.08623e-07 4.97994e-07 0.10163)
(3.17317e-07 -5.09131e-07 0.10163)
(3.11308e-07 4.982e-07 0.10163)
(3.22452e-07 -5.09908e-07 0.10163)
(-3.24767e-07 -5.02032e-07 0.10163)
(-3.12691e-07 4.94907e-07 0.10163)
(-3.27973e-07 -5.03341e-07 0.10163)
(3.77748e-05 -3.7809e-05 0.101614)
(-3.91771e-05 3.92058e-05 0.101615)
(-4.92919e-07 -3.19888e-07 0.10163)
(4.95602e-07 -3.07449e-07 0.10163)
(-4.93958e-07 -3.21804e-07 0.10163)
(3.9178e-05 3.92019e-05 0.101615)
(3.77671e-05 3.77511e-05 0.101614)
(-3.89865e-05 -3.89624e-05 0.101615)
(5.19468e-07 3.31158e-07 0.10163)
(-5.2104e-07 3.36028e-07 0.10163)
(2.82483e-07 4.32601e-08 0.10163)
(-2.87963e-07 5.43277e-08 0.10163)
(-3.7766e-05 3.77374e-05 0.101614)
(3.89907e-05 -3.89652e-05 0.101615)
(3.20589e-07 5.09573e-07 0.10163)
(3.29125e-07 -5.20914e-07 0.10163)
(3.54297e-08 2.74234e-07 0.10163)
(4.96883e-08 -2.84458e-07 0.10163)
(-3.34929e-07 -5.13452e-07 0.10163)
(-3.73515e-08 2.70971e-07 0.10163)
(-4.90365e-08 -2.80081e-07 0.10163)
(3.7744e-05 -3.77771e-05 0.101614)
(-3.89652e-05 3.89949e-05 0.101615)
(-5.05515e-07 -3.28614e-07 0.10163)
(2.69394e-07 -3.26896e-08 0.10163)
(-2.70274e-07 -3.63107e-08 0.10163)
(3.89654e-05 3.89877e-05 0.101615)
(3.72628e-05 3.72532e-05 0.101614)
(-3.6471e-05 -3.64271e-05 0.101614)
(8.76348e-07 8.95784e-07 0.10163)
(-8.76362e-07 8.97182e-07 0.10163)
(-6.31312e-07 -1.38476e-06 0.101631)
(6.21702e-07 -1.37209e-06 0.101631)
(-3.72634e-05 3.72386e-05 0.101614)
(3.64649e-05 -3.64295e-05 0.101614)
(8.82359e-07 8.6848e-07 0.10163)
(8.87673e-07 -8.75052e-07 0.10163)
(-1.40894e-06 -6.29544e-07 0.101631)
(-1.39117e-06 6.26137e-07 0.101631)
(-8.91437e-07 -8.68427e-07 0.10163)
(1.38991e-06 -6.3409e-07 0.101631)
(1.38145e-06 6.29051e-07 0.101631)
(3.72448e-05 -3.7275e-05 0.101614)
(-3.6441e-05 3.64662e-05 0.101614)
(-8.63249e-07 -8.82015e-07 0.10163)
(-6.37505e-07 1.40674e-06 0.101631)
(6.33764e-07 1.39862e-06 0.101631)
(3.64306e-05 3.64569e-05 0.101614)
(3.48478e-05 3.48546e-05 0.101615)
(-3.26517e-05 -3.25965e-05 0.101615)
(1.93254e-06 2.51279e-06 0.101629)
(-1.93943e-06 2.52179e-06 0.101629)
(-4.76691e-06 -6.32649e-06 0.101633)
(4.74593e-06 -6.32633e-06 0.101633)
(-3.48616e-05 3.4848e-05 0.101615)
(3.26148e-05 -3.26021e-05 0.101615)
(2.50096e-06 1.92457e-06 0.101629)
(2.50903e-06 -1.92809e-06 0.101629)
(-6.35852e-06 -4.74674e-06 0.101633)
(-6.34363e-06 4.76289e-06 0.101633)
(-2.51537e-06 -1.91844e-06 0.101629)
(6.33832e-06 -4.72986e-06 0.101633)
(6.32807e-06 4.75932e-06 0.101633)
(3.48377e-05 -3.48695e-05 0.101615)
(-3.26271e-05 3.26193e-05 0.101615)
(-1.91707e-06 -2.50566e-06 0.101629)
(-4.75951e-06 6.33952e-06 0.101633)
(4.75002e-06 6.34477e-06 0.101633)
(3.26017e-05 3.26295e-05 0.101615)
(2.47628e-05 2.48302e-05 0.101614)
(-4.47298e-05 -4.45515e-05 0.101579)
(3.22176e-06 2.35651e-06 0.101626)
(-3.25068e-06 2.36272e-06 0.101626)
(-3.67478e-05 -5.78313e-05 0.101604)
(3.67413e-05 -5.78768e-05 0.101604)
(-2.48124e-05 2.48301e-05 0.101614)
(4.47194e-05 -4.45655e-05 0.101579)
(2.31485e-06 3.25678e-06 0.101626)
(2.32806e-06 -3.2199e-06 0.101626)
(-5.80262e-05 -3.66436e-05 0.101604)
(-5.79791e-05 3.67502e-05 0.101604)
(-2.35197e-06 -3.21859e-06 0.101626)
(5.80029e-05 -3.66534e-05 0.101604)
(5.79655e-05 3.67581e-05 0.101604)
(2.47703e-05 -2.48115e-05 0.101614)
(-4.46727e-05 4.47158e-05 0.101579)
(-3.23636e-06 -2.31292e-06 0.101626)
(-3.67203e-05 5.798e-05 0.101604)
(3.67339e-05 5.80202e-05 0.101604)
(4.4669e-05 4.47176e-05 0.101579)
(-5.07791e-05 -5.05925e-05 0.101557)
(-3.54586e-05 -4.15598e-05 0.101563)
(3.54483e-05 -4.15939e-05 0.101563)
(5.07658e-05 -5.05926e-05 0.101557)
(-4.17654e-05 -3.53394e-05 0.101563)
(-4.17241e-05 3.54502e-05 0.101563)
(4.32596e-05 -4.31368e-05 0.101568)
(-4.32343e-05 4.32684e-05 0.101568)
(4.32578e-05 4.32802e-05 0.101568)
(4.17207e-05 3.5463e-05 0.101563)
(-5.07202e-05 5.07629e-05 0.101557)
(3.54472e-05 4.17672e-05 0.101563)
(2.66695e-08 -7.25394e-06 0.10077)
(6.9762e-07 5.55571e-06 0.0966557)
(-3.13665e-09 7.07911e-06 0.100767)
(-9.52739e-07 -5.77202e-06 0.096661)
(-1.38094e-06 1.73769e-06 0.0874962)
(1.48629e-06 -2.04304e-06 0.0875023)
(-7.2723e-06 6.3844e-09 0.100769)
(-5.76608e-06 -1.00696e-06 0.0966606)
(4.82436e-07 -4.74495e-07 0.10164)
(4.83952e-07 4.58391e-07 0.10164)
(-4.80728e-07 -4.9549e-07 0.10164)
(5.03125e-07 -4.95233e-07 0.10164)
(-4.74403e-07 4.87245e-07 0.10164)
(5.00513e-07 4.79886e-07 0.10164)
(1.20909e-05 -2.69546e-08 0.10148)
(-1.11122e-05 3.28885e-06 0.100931)
(-3.66045e-07 -1.56402e-07 0.101638)
(-2.795e-07 4.72037e-07 0.10163)
(-1.20492e-05 7.59787e-11 0.101479)
(1.08201e-05 -3.58467e-06 0.100935)
(-3.46719e-07 -1.61886e-07 0.101638)
(-1.9337e-06 1.41304e-06 0.0875014)
(-6.21716e-09 1.20698e-05 0.10148)
(-1.39446e-07 -3.70254e-07 0.101638)
(4.99174e-07 -2.8816e-07 0.10163)
(1.59977e-08 -1.20434e-05 0.101479)
(-1.40203e-07 -3.58226e-07 0.101638)
(-3.54043e-06 1.08169e-05 0.100935)
(-3.61161e-06 -4.3057e-06 0.0998466)
(-4.29123e-06 -3.60935e-06 0.0998463)
(3.91853e-05 3.9202e-05 0.101614)
(3.4066e-06 4.17137e-06 0.0998512)
(4.17245e-06 3.39671e-06 0.0998508)
(-1.58316e-08 -7.34844e-06 0.100769)
(7.59465e-07 5.53288e-06 0.0966565)
(-2.07707e-08 7.00457e-06 0.100766)
(-9.06899e-07 -5.87013e-06 0.0966618)
(-1.29367e-06 1.60265e-06 0.0874984)
(1.43998e-06 -2.03048e-06 0.0875048)
(-7.35461e-06 -9.07565e-09 0.100769)
(5.49129e-06 7.15491e-07 0.0966559)
(7.05186e-06 -1.09307e-08 0.100767)
(-5.8211e-06 -8.84574e-07 0.0966613)
(5.03234e-07 -4.96495e-07 0.10164)
(-4.84141e-07 4.91375e-07 0.10164)
(5.05082e-07 4.88843e-07 0.10164)
(-5.20941e-07 -4.94075e-07 0.10164)
(4.7661e-07 -4.74603e-07 0.10164)
(-5.06609e-07 5.06252e-07 0.10164)
(4.97925e-07 5.09115e-07 0.10164)
(1.21568e-05 -2.30256e-08 0.10148)
(-1.10071e-05 3.14619e-06 0.10093)
(-3.30716e-07 -1.67037e-07 0.101638)
(-2.34029e-07 4.36164e-07 0.10163)
(-1.19632e-05 -9.59352e-09 0.101479)
(1.08795e-05 -3.62586e-06 0.100935)
(-3.07574e-07 -1.65794e-07 0.101638)
(1.59184e-06 -1.33552e-06 0.0874951)
(-2.02764e-06 1.47098e-06 0.0875031)
(-2.94967e-08 1.21446e-05 0.10148)
(-1.55406e-07 -3.28631e-07 0.101638)
(3.23723e-06 -1.1078e-05 0.100931)
(4.78071e-07 -2.63708e-07 0.10163)
(3.55528e-09 -1.19514e-05 0.101479)
(-1.66105e-07 -3.20506e-07 0.101638)
(-3.67506e-06 1.09192e-05 0.100934)
(-3.63928e-06 -4.25932e-06 0.0998464)
(-4.25091e-06 -3.63224e-06 0.0998461)
(3.9211e-05 3.92416e-05 0.101614)
(3.43777e-06 4.23821e-06 0.099851)
(4.22563e-06 3.43829e-06 0.0998506)
(5.72494e-10 -7.17019e-06 0.100769)
(8.05328e-07 5.38972e-06 0.0966573)
(-9.81317e-08 6.89931e-06 0.100766)
(-9.74673e-07 -5.52069e-06 0.0966627)
(-1.55361e-06 1.61478e-06 0.0875026)
(8.32905e-07 -1.20574e-06 0.0875056)
(-7.43444e-06 2.26778e-08 0.100769)
(5.56136e-06 8.03996e-07 0.0966568)
(7.00247e-06 -2.02205e-08 0.100766)
(-6.03438e-06 -7.28692e-07 0.0966622)
(4.09566e-07 -4.10345e-07 0.10164)
(-5.28133e-07 4.99494e-07 0.10164)
(4.6252e-07 4.83199e-07 0.10164)
(-3.95498e-07 -3.95516e-07 0.10164)
(4.16879e-07 -4.12258e-07 0.10164)
(-3.85761e-07 3.99193e-07 0.10164)
(4.0629e-07 3.90376e-07 0.10164)
(1.18427e-05 6.07185e-08 0.10148)
(-1.10443e-05 3.30353e-06 0.10093)
(-3.88084e-07 -1.01387e-07 0.101638)
(-4.10337e-07 5.76698e-07 0.10163)
(-1.19072e-05 3.62659e-08 0.101479)
(1.04701e-05 -3.20787e-06 0.100934)
(-4.84044e-07 -8.44609e-08 0.101638)
(1.5944e-06 -1.26627e-06 0.0874976)
(-2.19265e-06 1.5127e-06 0.0875072)
(-8.47355e-08 1.18682e-05 0.10148)
(-2.03466e-07 -3.2524e-07 0.101638)
(3.15677e-06 -1.10154e-05 0.10093)
(4.73925e-07 -3.61785e-07 0.10163)
(-3.34539e-08 -1.18704e-05 0.101479)
(-2.10146e-07 -4.45459e-07 0.101638)
(-3.81013e-06 1.08269e-05 0.100934)
(-3.51672e-06 -4.15669e-06 0.0998464)
(-4.16946e-06 -3.49565e-06 0.099846)
(3.90684e-05 3.91209e-05 0.101614)
(3.33979e-06 4.04914e-06 0.0998506)
(4.02232e-06 3.34927e-06 0.0998502)
(2.60095e-08 -7.14957e-06 0.10077)
(7.67795e-07 6.29827e-06 0.0966565)
(1.26934e-08 7.26494e-06 0.100767)
(-9.23553e-07 -5.48126e-06 0.0966609)
(-1.41244e-06 2.08733e-06 0.0874962)
(1.42386e-06 -1.82332e-06 0.0875014)
(-7.11576e-06 -2.6792e-08 0.100769)
(6.58167e-06 6.69531e-07 0.096657)
(7.36418e-06 -5.71261e-09 0.100766)
(-5.16155e-06 -9.36231e-07 0.096661)
(4.47627e-07 -4.40596e-07 0.10164)
(-3.85101e-07 4.02453e-07 0.10164)
(4.3761e-07 4.12299e-07 0.10164)
(-4.46653e-07 -4.6336e-07 0.10164)
(4.69004e-07 -4.59386e-07 0.10164)
(-4.38739e-07 4.51287e-07 0.10164)
(4.70952e-07 4.45573e-07 0.10164)
(1.19065e-05 -2.7573e-08 0.10148)
(-1.13236e-05 3.46538e-06 0.100931)
(-4.77152e-07 -1.48179e-07 0.101638)
(-3.32702e-07 4.97262e-07 0.10163)
(-1.23959e-05 -6.05592e-09 0.101479)
(1.06871e-05 -3.46487e-06 0.100935)
(-4.36918e-07 -1.51623e-07 0.101638)
(2.51081e-06 -1.78307e-06 0.0874971)
(-1.50895e-06 1.26263e-06 0.0875018)
(3.1307e-08 1.18772e-05 0.10148)
(-9.81427e-08 -4.90067e-07 0.101638)
(3.77896e-06 -1.1505e-05 0.10093)
(5.25668e-07 -3.38491e-07 0.10163)
(5.27947e-08 -1.23959e-05 0.101479)
(-1.04935e-07 -4.52264e-07 0.101638)
(-3.33658e-06 1.06475e-05 0.100935)
(-3.4946e-06 -4.32902e-06 0.0998464)
(-4.32042e-06 -3.49285e-06 0.0998461)
(3.91782e-05 3.91901e-05 0.101614)
(3.46001e-06 4.17445e-06 0.0998512)
(4.17937e-06 3.44559e-06 0.0998508)
(1.07243e-08 -7.22748e-06 0.10077)
(7.54954e-07 5.73183e-06 0.0966557)
(-1.02544e-08 7.08078e-06 0.100767)
(-9.25716e-07 -5.60418e-06 0.0966607)
(-1.44706e-06 1.86551e-06 0.0874958)
(1.37602e-06 -1.87151e-06 0.0875013)
(-7.2675e-06 -1.97802e-09 0.100769)
(5.73468e-06 7.24879e-07 0.0966554)
(7.14105e-06 -1.28806e-08 0.100767)
(-5.59255e-06 -9.18064e-07 0.0966604)
(4.68365e-07 -4.59446e-07 0.10164)
(-4.46253e-07 4.56777e-07 0.10164)
(4.72783e-07 4.48005e-07 0.10164)
(-4.58703e-07 -4.63444e-07 0.10164)
(4.66091e-07 -4.58006e-07 0.10164)
(-4.53973e-07 4.6247e-07 0.10164)
(4.71387e-07 4.51177e-07 0.10164)
(1.19947e-05 -1.5159e-08 0.10148)
(-1.11538e-05 3.30824e-06 0.100931)
(-3.91137e-07 -1.49279e-07 0.101638)
(-3.09168e-07 4.94508e-07 0.10163)
(-1.21047e-05 4.44373e-09 0.101479)
(1.07423e-05 -3.49917e-06 0.100935)
(-3.85824e-07 -1.48911e-07 0.101638)
(1.78697e-06 -1.38742e-06 0.0874939)
(-1.79086e-06 1.3388e-06 0.0875012)
(-1.2343e-08 1.19833e-05 0.10148)
(-1.35818e-07 -3.94239e-07 0.101638)
(3.34469e-06 -1.11962e-05 0.100931)
(5.00867e-07 -3.062e-07 0.10163)
(1.74847e-08 -1.21e-05 0.101479)
(-1.39885e-07 -3.91097e-07 0.101638)
(-3.52279e-06 1.07813e-05 0.100935)
(-3.59469e-06 -4.29583e-06 0.0998466)
(-4.28041e-06 -3.5935e-06 0.0998463)
(3.91916e-05 3.92107e-05 0.101614)
(3.45108e-06 4.17736e-06 0.0998512)
(4.17581e-06 3.44284e-06 0.0998508)
(7.22844e-09 -7.22837e-06 0.10077)
(7.52144e-07 5.72809e-06 0.0966557)
(-1.63755e-08 7.07417e-06 0.100767)
(-9.28156e-07 -5.60319e-06 0.0966607)
(-1.45233e-06 1.86315e-06 0.0874958)
(1.37469e-06 -1.87251e-06 0.0875013)
(-7.2725e-06 -9.52588e-10 0.100769)
(5.71651e-06 7.34238e-07 0.0966554)
(7.11861e-06 -9.11563e-09 0.100767)
(-5.59281e-06 -9.15307e-07 0.0966604)
(4.65262e-07 -4.57762e-07 0.10164)
(-4.5508e-07 4.62607e-07 0.10164)
(4.71495e-07 4.51273e-07 0.10164)
(-4.59853e-07 -4.61956e-07 0.10164)
(4.63738e-07 -4.56564e-07 0.10164)
(-4.55682e-07 4.63049e-07 0.10164)
(4.69143e-07 4.51482e-07 0.10164)
(1.19947e-05 -1.40244e-08 0.10148)
(-1.115e-05 3.31104e-06 0.100931)
(-3.86721e-07 -1.47297e-07 0.101638)
(-3.09799e-07 4.95492e-07 0.10163)
(-1.20999e-05 7.38579e-09 0.101479)
(1.07427e-05 -3.49817e-06 0.100935)
(-3.85634e-07 -1.47363e-07 0.101638)
(1.78304e-06 -1.40531e-06 0.0874939)
(-1.78915e-06 1.33371e-06 0.0875012)
(-1.64296e-08 1.19899e-05 0.10148)
(-1.43928e-07 -3.84761e-07 0.101638)
(3.33569e-06 -1.11857e-05 0.100931)
(4.97767e-07 -3.05027e-07 0.10163)
(9.2444e-09 -1.20937e-05 0.101479)
(-1.4463e-07 -3.86703e-07 0.101638)
(-3.52406e-06 1.07828e-05 0.100935)
(-3.59105e-06 -4.29413e-06 0.0998466)
(-4.28437e-06 -3.58611e-06 0.0998463)
(3.919e-05 3.92131e-05 0.101614)
(3.45194e-06 4.17941e-06 0.0998512)
(4.17431e-06 3.4459e-06 0.0998508)
(7.28145e-09 -7.22782e-06 0.10077)
(7.51261e-07 5.72868e-06 0.0966557)
(-1.70421e-08 7.07408e-06 0.100767)
(-9.28417e-07 -5.60261e-06 0.0966607)
(-1.4533e-06 1.86289e-06 0.0874958)
(1.37416e-06 -1.87262e-06 0.0875013)
(-7.27177e-06 -7.75734e-10 0.100769)
(5.71579e-06 7.35797e-07 0.0966554)
(7.11867e-06 -9.06984e-09 0.100767)
(-5.59146e-06 -9.13477e-07 0.0966604)
(4.6349e-07 -4.56771e-07 0.10164)
(-4.56333e-07 4.62984e-07 0.10164)
(4.69742e-07 4.51348e-07 0.10164)
(-4.59286e-07 -4.60738e-07 0.10164)
(4.62276e-07 -4.5544e-07 0.10164)
(-4.54994e-07 4.61849e-07 0.10164)
(4.67552e-07 4.50512e-07 0.10164)
(1.19939e-05 -1.39121e-08 0.10148)
(-1.11505e-05 3.31145e-06 0.100931)
(-3.88598e-07 -1.46723e-07 0.101638)
(-3.11161e-07 4.96247e-07 0.10163)
(-1.21008e-05 7.74684e-09 0.101479)
(1.07421e-05 -3.49796e-06 0.100935)
(-3.8709e-07 -1.46899e-07 0.101638)
(1.7834e-06 -1.40537e-06 0.0874939)
(-1.78874e-06 1.33398e-06 0.0875012)
(-1.67476e-08 1.19898e-05 0.10148)
(-1.45296e-07 -3.84682e-07 0.101638)
(3.3348e-06 -1.11864e-05 0.100931)
(4.973e-07 -3.05572e-07 0.10163)
(9.30857e-09 -1.20964e-05 0.101479)
(-1.45275e-07 -3.87045e-07 0.101638)
(-3.52411e-06 1.07819e-05 0.100935)
(-3.59154e-06 -4.29395e-06 0.0998466)
(-4.28557e-06 -3.58561e-06 0.0998463)
(3.9189e-05 3.92127e-05 0.101614)
(3.45113e-06 4.1791e-06 0.0998512)
(4.17325e-06 3.4457e-06 0.0998508)
(7.98973e-09 -7.2244e-06 0.10077)
(7.50963e-07 5.72759e-06 0.0966557)
(-1.71762e-08 7.07418e-06 0.100767)
(-9.28118e-07 -5.5975e-06 0.0966607)
(-1.45165e-06 1.86241e-06 0.0874958)
(1.36998e-06 -1.87207e-06 0.0875013)
(-7.26842e-06 8.44353e-10 0.100769)
(5.71439e-06 7.35029e-07 0.0966554)
(7.1177e-06 -9.45952e-09 0.100767)
(-5.58757e-06 -9.14682e-07 0.0966605)
(4.66684e-07 -4.59943e-07 0.10164)
(-4.59845e-07 4.65891e-07 0.10164)
(4.72788e-07 4.5457e-07 0.10164)
(-4.37763e-07 -4.38469e-07 0.10164)
(4.40544e-07 -4.34981e-07 0.10164)
(-4.33591e-07 4.39923e-07 0.10164)
(4.44589e-07 4.29759e-07 0.10164)
(1.19913e-05 -1.29503e-08 0.10148)
(-1.11492e-05 3.31109e-06 0.100931)
(-3.85028e-07 -1.48981e-07 0.101638)
(-3.13115e-07 4.97428e-07 0.10163)
(-1.20995e-05 7.70564e-09 0.101479)
(1.07378e-05 -3.49661e-06 0.100935)
(-3.91455e-07 -1.42084e-07 0.101638)
(1.78329e-06 -1.40573e-06 0.0874939)
(-1.7899e-06 1.3345e-06 0.0875012)
(-1.59961e-08 1.19845e-05 0.10148)
(-1.47957e-07 -3.8154e-07 0.101638)
(3.33378e-06 -1.11845e-05 0.100931)
(4.98507e-07 -3.07711e-07 0.10163)
(9.24448e-09 -1.20963e-05 0.101479)
(-1.40687e-07 -3.92606e-07 0.101638)
(-3.52171e-06 1.07771e-05 0.100935)
(-3.59114e-06 -4.29412e-06 0.0998466)
(-4.28573e-06 -3.58478e-06 0.0998463)
(3.91873e-05 3.92115e-05 0.101615)
(3.44879e-06 4.1799e-06 0.0998512)
(4.17359e-06 3.44371e-06 0.0998508)
(2.31219e-07 -7.04605e-06 0.10077)
(7.83176e-07 5.51693e-06 0.0966552)
(-5.40038e-08 7.01606e-06 0.100767)
(-1.10547e-06 -4.14899e-06 0.0966637)
(-1.49097e-06 1.81187e-06 0.0874957)
(1.63109e-06 -1.51798e-06 0.0875022)
(-7.08423e-06 2.27471e-07 0.10077)
(5.50325e-06 7.7223e-07 0.0966549)
(7.05623e-06 -4.66126e-08 0.100767)
(-4.13375e-06 -1.10051e-06 0.0966635)
(4.82843e-07 -4.77853e-07 0.10164)
(-4.76273e-07 4.81973e-07 0.10164)
(4.87006e-07 4.7296e-07 0.10164)
(-3.55144e-07 -3.54116e-07 0.10164)
(3.54309e-07 -3.52532e-07 0.10164)
(-3.51653e-07 3.55865e-07 0.10164)
(3.53832e-07 3.53638e-07 0.10164)
(1.17962e-05 4.74138e-08 0.10148)
(-1.10189e-05 3.2832e-06 0.100931)
(-3.54392e-07 -1.80926e-07 0.101638)
(-2.70925e-07 4.54981e-07 0.10163)
(-1.20417e-05 -3.03736e-09 0.101479)
(1.00727e-05 -3.34816e-06 0.100936)
(-4.3945e-07 -7.17498e-08 0.101638)
(1.74428e-06 -1.45703e-06 0.0874938)
(-1.46451e-06 1.61878e-06 0.087502)
(4.47702e-08 1.1791e-05 0.10148)
(-1.80115e-07 -3.53433e-07 0.101638)
(3.30215e-06 -1.10518e-05 0.100931)
(4.55019e-07 -2.66064e-07 0.10163)
(-3.49505e-09 -1.20396e-05 0.101479)
(-7.16353e-08 -4.40827e-07 0.101638)
(-3.36873e-06 1.0106e-05 0.100936)
(-3.53507e-06 -4.35399e-06 0.0998464)
(-4.34556e-06 -3.52901e-06 0.0998461)
(3.91282e-05 3.91514e-05 0.101615)
(3.29307e-06 4.55342e-06 0.0998519)
(4.54641e-06 3.28909e-06 0.0998515)
(7.65291e-06 -3.78416e-06 0.100771)
(2.79116e-06 -9.31752e-06 0.0966181)
(-2.8465e-06 6.02769e-06 0.100766)
(-9.55319e-06 2.40351e-05 0.0967678)
(-3.63431e-06 -2.73407e-06 0.0874856)
(5.11321e-06 1.04092e-05 0.087534)
(-3.79245e-06 7.67374e-06 0.100771)
(-9.31377e-06 2.79678e-06 0.0966179)
(6.05737e-06 -2.854e-06 0.100766)
(2.40807e-05 -9.54946e-06 0.0967676)
(3.87207e-07 -3.81777e-07 0.101641)
(-3.82564e-07 3.88947e-07 0.101641)
(3.82858e-07 3.84577e-07 0.101641)
(-1.28457e-07 -1.19707e-07 0.101638)
(1.25173e-07 -1.14769e-07 0.101638)
(-1.15063e-07 1.29884e-07 0.101638)
(1.17109e-07 1.21295e-07 0.101638)
(9.20523e-06 1.52089e-06 0.10148)
(-5.57807e-06 1.84282e-06 0.100925)
(-2.62084e-07 -3.64183e-07 0.101639)
(5.68067e-07 -1.41907e-07 0.101631)
(-1.08795e-05 -5.98278e-07 0.101479)
(-3.20845e-07 2.8323e-07 0.100948)
(-5.90311e-07 3.13215e-07 0.101637)
(-2.7321e-06 -3.61076e-06 0.0874839)
(1.04215e-05 5.07983e-06 0.0875335)
(1.51001e-06 9.20749e-06 0.10148)
(-3.63809e-07 -2.58121e-07 0.101639)
(1.86904e-06 -5.57935e-06 0.100925)
(-1.4519e-07 5.74543e-07 0.101631)
(-5.94548e-07 -1.08781e-05 0.101479)
(3.10477e-07 -5.87664e-07 0.101637)
(2.60423e-07 -2.92543e-07 0.100947)
(-2.54276e-06 -5.29182e-06 0.0998449)
(-5.28399e-06 -2.52979e-06 0.0998446)
(3.80982e-05 3.81226e-05 0.101615)
(-2.35975e-06 -1.61147e-06 0.0998535)
(-1.59986e-06 -2.36401e-06 0.0998532)
(6.42656e-06 -1.14563e-05 0.100787)
(2.36819e-05 -2.95203e-05 0.0963939)
(-8.52413e-06 5.28782e-06 0.100759)
(7.22012e-06 1.20238e-05 0.0970518)
(2.60834e-07 -2.99112e-05 0.0874051)
(-7.52647e-06 4.20019e-05 0.087636)
(-1.14196e-05 6.42118e-06 0.100787)
(-2.96629e-05 2.36943e-05 0.0963936)
(5.25373e-06 -8.53369e-06 0.100759)
(1.21262e-05 7.19292e-06 0.0970517)
(8.94039e-07 -8.88576e-07 0.101643)
(-8.90534e-07 8.97663e-07 0.101643)
(8.96759e-07 8.97245e-07 0.101643)
(-2.91122e-06 -2.87287e-06 0.10163)
(2.89352e-06 -2.87605e-06 0.10163)
(-2.89576e-06 2.90744e-06 0.10163)
(2.88731e-06 2.91376e-06 0.10163)
(9.99269e-06 4.89024e-07 0.101485)
(2.26945e-06 -9.64854e-06 0.100902)
(3.4433e-08 -8.41586e-07 0.101641)
(2.70212e-06 -1.78297e-06 0.101632)
(-9.25958e-06 -1.39598e-06 0.101479)
(-5.8956e-06 7.50113e-06 0.100982)
(-3.91017e-08 1.65144e-07 0.101634)
(-2.99179e-05 2.86829e-07 0.0874039)
(4.20462e-05 -7.53391e-06 0.0876351)
(4.86932e-07 9.99809e-06 0.101485)
(-8.44957e-07 4.16398e-08 0.101641)
(-9.63978e-06 2.25162e-06 0.100902)
(-1.80301e-06 2.70742e-06 0.101632)
(-1.40007e-06 -9.25467e-06 0.101479)
(1.52521e-07 -2.67879e-08 0.101634)
(7.43663e-06 -5.88982e-06 0.100982)
(7.17171e-06 2.21156e-05 0.0998165)
(2.20293e-05 7.12652e-06 0.0998161)
(3.70353e-05 3.70542e-05 0.101616)
(-5.5762e-06 -2.52222e-05 0.0999317)
(-2.51727e-05 -5.49849e-06 0.0999313)
(4.84649e-06 -2.56349e-06 0.100839)
(-3.85391e-06 -3.66413e-05 0.0959956)
(-4.20034e-06 4.56343e-07 0.100739)
(1.511e-05 3.83818e-05 0.0975858)
(4.42939e-05 -7.88742e-05 0.0873791)
(-4.94072e-05 0.000105072 0.0876499)
(-2.57493e-06 4.91354e-06 0.100839)
(-3.68665e-05 -3.76311e-06 0.0959953)
(4.36163e-07 -4.22001e-06 0.100739)
(3.87185e-05 1.49644e-05 0.0975857)
(5.18818e-06 -5.15175e-06 0.101643)
(-5.1889e-06 5.20402e-06 0.101643)
(5.18336e-06 5.2159e-06 0.101643)
(-2.9701e-05 -2.95936e-05 0.101575)
(2.96975e-05 -2.96009e-05 0.101575)
(-2.96777e-05 2.97116e-05 0.101575)
(2.96923e-05 2.97221e-05 0.101575)
(2.12588e-05 -1.48051e-07 0.101489)
(1.37596e-05 -1.57414e-05 0.100888)
(4.61121e-06 -2.01071e-06 0.101642)
(1.86025e-05 -1.25078e-05 0.10163)
(-4.48649e-07 -4.29838e-07 0.101479)
(-5.10332e-06 -1.75536e-06 0.100993)
(1.24748e-05 -1.87873e-06 0.101619)
(-7.88326e-05 4.435e-05 0.087378)
(0.000104769 -4.92341e-05 0.087649)
(-1.77351e-07 2.12449e-05 0.101489)
(-2.04207e-06 4.60607e-06 0.101642)
(-1.57957e-05 1.37353e-05 0.100888)
(-1.25609e-05 1.85993e-05 0.10163)
(-4.50138e-07 -4.56443e-07 0.101479)
(-1.92189e-06 1.24339e-05 0.101619)
(-1.82304e-06 -5.07341e-06 0.100993)
(2.3129e-05 3.65715e-05 0.0996835)
(3.6497e-05 2.31248e-05 0.0996833)
(3.25828e-05 3.26645e-05 0.101612)
(-3.85022e-05 -5.01081e-05 0.100125)
(-5.01817e-05 -3.83097e-05 0.100125)
(-1.42335e-05 -0.000145953 0.100961)
(-0.000130545 -0.000169766 0.0954835)
(-2.47693e-05 -8.80059e-05 0.100651)
(-0.000228482 -0.000139156 0.0989176)
(0.000242011 -0.00039677 0.0879472)
(0.000166528 -0.000345934 0.0938659)
(-0.000146102 -1.42955e-05 0.100961)
(-0.000170672 -0.000129816 0.0954827)
(-8.87065e-05 -2.47282e-05 0.100651)
(-0.000139271 -0.000228578 0.098917)
(-9.50389e-06 -9.4095e-06 0.101499)
(-1.34135e-05 -3.74395e-05 0.101566)
(-3.75765e-05 -1.33193e-05 0.101567)
(-4.16968e-05 -4.1547e-05 0.101491)
(-1.14498e-05 -1.13545e-05 0.101565)
(-1.04114e-05 -3.82243e-05 0.101496)
(-3.83685e-05 -1.03228e-05 0.101496)
(0.000118231 3.12222e-06 0.101334)
(0.000114295 -6.33253e-05 0.100996)
(6.23073e-05 -1.71207e-05 0.101567)
(5.49537e-05 -4.41652e-05 0.101481)
(8.13932e-05 -1.55705e-05 0.101444)
(9.40933e-05 -4.8824e-05 0.10101)
(5.65597e-05 -1.20783e-05 0.101491)
(-0.000396827 0.000241728 0.0879465)
(-0.000345874 0.000166349 0.0938655)
(3.09571e-06 0.000118095 0.101334)
(-1.71867e-05 6.22667e-05 0.101567)
(-6.35299e-05 0.000114278 0.100996)
(-4.42886e-05 5.49252e-05 0.101481)
(-1.55565e-05 8.13356e-05 0.101444)
(-1.21445e-05 5.65293e-05 0.101491)
(-4.89677e-05 9.38966e-05 0.10101)
(0.000231788 9.30826e-05 0.0996459)
(9.30113e-05 0.000231965 0.0996462)
(5.64112e-05 5.64193e-05 0.101466)
(1.13529e-05 -9.19041e-05 0.101308)
(-9.2047e-05 1.13772e-05 0.101308)
(1.00881e-06 -5.77435e-06 0.0966607)
(3.53925e-06 -1.07842e-05 0.100935)
(1.46577e-06 -2.0051e-06 0.0875015)
(4.123e-06 -3.39963e-06 0.0998511)
(3.34581e-06 -4.08373e-06 0.0998522)
(1.92139e-06 -1.415e-06 0.0875028)
(1.07566e-05 -3.51588e-06 0.100935)
(5.7307e-06 -9.95402e-07 0.096661)
(1.4278e-06 1.80042e-06 0.0874966)
(-1.41559e-06 -1.96039e-06 0.0875025)
(-1.97685e-06 -1.47383e-06 0.087501)
(4.3117e-06 3.60263e-06 0.0998468)
(-3.91986e-05 -3.91858e-05 0.101614)