/*--------------------------------*- C++ -*----------------------------------*\
| =========                 |                                                 |
| \\      /  F ield         | OpenFOAM: The Open Source CFD Toolbox           |
|  \\    /   O peration     | Version:  2206                                  |
|   \\  /    A nd           | Website:  www.openfoam.com                      |
|    \\/     M anipulation  |                                                 |
\*---------------------------------------------------------------------------*/
FoamFile
{
    version     2.0;
    format      ascii;
    arch        "LSB;label=32;scalar=64";
    class       volVectorField;
    location    "8";
    object      U;
}
// * * * * * * * * * * * * * * * * * * * * * * * * * * * * * * * * * * * * * //

dimensions      [0 1 -1 0 0 0 0];

internalField   nonuniform List<vector> 
28688
(
(0.000104521 0.000104472 0.100296)
(-0.000188766 0.000116847 0.100385)
(0.000116888 -0.000188756 0.100385)
(-0.000238249 -0.000238274 0.100393)
(8.45763e-05 8.45103e-05 0.100848)
(-0.000118972 7.26562e-05 0.100923)
(7.27085e-05 -0.000118977 0.100923)
(-0.000175322 -0.000175374 0.100955)
(1.38677e-05 1.38439e-05 0.101026)
(-1.59218e-05 1.04636e-05 0.10104)
(1.04801e-05 -1.59215e-05 0.10104)
(-4.80404e-05 -4.80678e-05 0.101043)
(6.93434e-07 6.90738e-07 0.10104)
(-1.22072e-06 9.89995e-07 0.101039)
(9.91005e-07 -1.22041e-06 0.101039)
(-3.49774e-05 -3.49943e-05 0.101037)
(-2.77035e-07 -2.72496e-07 0.10104)
(-2.62193e-07 4.21434e-07 0.101039)
(4.13445e-07 -2.62831e-07 0.101039)
(-3.43906e-05 -3.44049e-05 0.101036)
(-3.32541e-07 -3.26081e-07 0.10104)
(-2.26568e-07 4.02425e-07 0.101039)
(3.89877e-07 -2.26841e-07 0.101039)
(-3.43673e-05 -3.43802e-05 0.101036)
(-3.32844e-07 -3.29434e-07 0.10104)
(-2.23975e-07 3.93935e-07 0.101039)
(3.88985e-07 -2.24232e-07 0.101039)
(-3.43645e-05 -3.43791e-05 0.101036)
(-3.31464e-07 -3.3046e-07 0.10104)
(-2.21761e-07 3.90197e-07 0.101039)
(3.88619e-07 -2.23701e-07 0.101039)
(-3.43635e-05 -3.43791e-05 0.101036)
(-3.33288e-07 -3.32192e-07 0.10104)
(-2.23548e-07 3.90124e-07 0.101039)
(3.88732e-07 -2.24653e-07 0.101039)
(-3.43634e-05 -3.43796e-05 0.101036)
(-3.32149e-07 -3.3e-07 0.10104)
(-2.22465e-07 3.90759e-07 0.101039)
(3.88861e-07 -2.2408e-07 0.101039)
(-3.43637e-05 -3.43801e-05 0.101036)
(-3.29041e-07 -3.25719e-07 0.10104)
(-2.20789e-07 3.90826e-07 0.101039)
(3.88406e-07 -2.23291e-07 0.101039)
(-3.43624e-05 -3.43793e-05 0.101036)
(-3.34615e-07 -3.37217e-07 0.10104)
(-2.1921e-07 3.84311e-07 0.101039)
(3.84963e-07 -2.19327e-07 0.101039)
(-3.43541e-05 -3.43726e-05 0.101036)
(0.000136765 0.000136758 0.100281)
(0.000124426 0.000152657 0.100228)
(-0.000124416 0.000152634 0.100228)
(-0.00013676 0.000136727 0.100281)
(0.000152682 0.000124375 0.100228)
(0.000152655 -0.000124402 0.100228)
(9.07367e-05 9.0677e-05 0.100153)
(-9.07279e-05 9.06738e-05 0.100153)
(9.07075e-05 -9.07273e-05 0.100153)
(-9.07039e-05 -9.07261e-05 0.100153)
(-0.000152673 0.00012437 0.100228)
(-0.000152665 -0.0001244 0.100228)
(0.000136751 -0.000136774 0.100281)
(0.000124389 -0.000152683 0.100228)
(-0.000124385 -0.000152663 0.100228)
(-0.000136761 -0.000136744 0.100281)
(0.000238287 0.000238267 0.100393)
(0.000121747 0.000121616 0.10089)
(0.000116961 0.000188649 0.100385)
(-0.000116915 0.000188693 0.100385)
(9.68557e-05 0.00015684 0.100823)
(-9.67997e-05 0.000156839 0.100823)
(-0.000238291 0.000238211 0.100393)
(-0.000121707 0.000121587 0.10089)
(0.000188799 0.000116863 0.100385)
(0.000188746 -0.000116898 0.100385)
(0.000156855 9.68441e-05 0.100824)
(0.000156876 -9.68607e-05 0.100824)
(-0.00018872 -0.000116895 0.100385)
(-0.000156819 9.68377e-05 0.100824)
(-0.000156811 -9.685e-05 0.100824)
(0.000238227 -0.000238318 0.100393)
(0.000121699 -0.0001217 0.10089)
(-0.000116866 -0.000188792 0.100385)
(9.6868e-05 -0.000156801 0.100824)
(-9.68441e-05 -0.000156839 0.100824)
(-0.000121684 -0.000121706 0.10089)
(0.000175417 0.000175225 0.100955)
(-1.58621e-05 -1.5894e-05 0.101045)
(7.26719e-05 0.000118998 0.100923)
(-7.2644e-05 0.000118988 0.100923)
(1.84736e-05 2.87434e-05 0.101036)
(-1.84612e-05 2.87392e-05 0.101036)
(-0.000175389 0.000175196 0.100955)
(1.58866e-05 -1.59024e-05 0.101045)
(0.000119024 7.26563e-05 0.100923)
(0.000119005 -7.26779e-05 0.100923)
(2.87696e-05 1.84367e-05 0.101036)
(2.87604e-05 -1.84679e-05 0.101036)
(-0.000118997 -7.26779e-05 0.100923)
(-2.87594e-05 1.84276e-05 0.101036)
(-2.87598e-05 -1.84716e-05 0.101036)
(0.000175333 -0.000175374 0.100955)
(-1.58604e-05 1.58909e-05 0.101045)
(-7.26914e-05 -0.000119013 0.100923)
(1.84517e-05 -2.87526e-05 0.101036)
(-1.84491e-05 -2.87602e-05 0.101036)
(1.58678e-05 1.58843e-05 0.101045)
(4.80705e-05 4.80146e-05 0.101043)
(-3.45762e-05 -3.45628e-05 0.101037)
(1.04961e-05 1.5912e-05 0.10104)
(-1.04913e-05 1.59162e-05 0.10104)
(1.67315e-06 2.27453e-06 0.101039)
(-1.67415e-06 2.28167e-06 0.101039)
(-4.80637e-05 4.80083e-05 0.101043)
(3.45816e-05 -3.45608e-05 0.101037)
(1.59281e-05 1.04632e-05 0.10104)
(1.59321e-05 -1.04918e-05 0.10104)
(2.27449e-06 1.65746e-06 0.101039)
(2.28165e-06 -1.67284e-06 0.101039)
(-1.59226e-05 -1.04878e-05 0.10104)
(-2.27236e-06 1.65809e-06 0.101039)
(-2.28251e-06 -1.67022e-06 0.101039)
(4.80389e-05 -4.80707e-05 0.101043)
(-3.4553e-05 3.45849e-05 0.101037)
(-1.04694e-05 -1.59206e-05 0.10104)
(1.65936e-06 -2.27282e-06 0.101039)
(-1.65903e-06 -2.2742e-06 0.101039)
(3.45612e-05 3.45772e-05 0.101037)
(3.49877e-05 3.4965e-05 0.101037)
(-3.54784e-05 -3.54539e-05 0.101036)
(1.00153e-06 1.22164e-06 0.101039)
(-1.00275e-06 1.22988e-06 0.101039)
(4.53014e-07 3.24357e-07 0.101039)
(-4.59989e-07 3.30416e-07 0.101039)
(-3.49871e-05 3.49624e-05 0.101037)
(3.54771e-05 -3.54485e-05 0.101036)
(1.22212e-06 9.90253e-07 0.101039)
(1.22657e-06 -1.00173e-06 0.101039)
(3.14697e-07 4.47236e-07 0.101039)
(3.24677e-07 -4.54533e-07 0.101039)
(-1.22899e-06 -9.99972e-07 0.101039)
(-3.16458e-07 4.50399e-07 0.101039)
(-3.23617e-07 -4.50697e-07 0.101039)
(3.49672e-05 -3.50008e-05 0.101037)
(-3.54507e-05 3.54842e-05 0.101036)
(-9.894e-07 -1.22094e-06 0.101039)
(4.44493e-07 -3.15084e-07 0.101039)
(-4.4444e-07 -3.13974e-07 0.101039)
(3.54574e-05 3.54769e-05 0.101036)
(3.43958e-05 3.43822e-05 0.101036)
(-3.55146e-05 -3.54867e-05 0.101036)
(4.21111e-07 2.6957e-07 0.101039)
(-4.30152e-07 2.79533e-07 0.101039)
(3.95779e-07 2.37511e-07 0.101039)
(-4.09058e-07 2.48112e-07 0.101039)
(-3.44026e-05 3.43842e-05 0.101036)
(3.55099e-05 -3.54745e-05 0.101036)
(2.62757e-07 4.17492e-07 0.101039)
(2.69938e-07 -4.22031e-07 0.101039)
(2.25048e-07 3.94729e-07 0.101039)
(2.35236e-07 -3.98202e-07 0.101039)
(-2.70176e-07 -4.18861e-07 0.101039)
(-2.2655e-07 4.01469e-07 0.101039)
(-2.35922e-07 -3.94077e-07 0.101039)
(3.43794e-05 -3.4411e-05 0.101036)
(-3.5486e-05 3.55199e-05 0.101036)
(-4.13058e-07 -2.59983e-07 0.101039)
(3.89564e-07 -2.25448e-07 0.101039)
(-3.89565e-07 -2.24238e-07 0.101039)
(3.54924e-05 3.55133e-05 0.101036)
(3.43716e-05 3.43602e-05 0.101036)
(-3.55138e-05 -3.54871e-05 0.101036)
(3.96135e-07 2.37027e-07 0.101039)
(-4.09021e-07 2.50246e-07 0.101039)
(3.95695e-07 2.33851e-07 0.101039)
(-3.97947e-07 2.34384e-07 0.101039)
(-3.43803e-05 3.43679e-05 0.101036)
(3.55148e-05 -3.54889e-05 0.101036)
(2.26725e-07 3.94973e-07 0.101039)
(2.34449e-07 -3.97201e-07 0.101039)
(2.23048e-07 3.93226e-07 0.101039)
(2.32382e-07 -3.95359e-07 0.101039)
(-2.34833e-07 -3.93525e-07 0.101039)
(-2.2177e-07 3.9202e-07 0.101039)
(-2.31682e-07 -3.92707e-07 0.101039)
(3.43555e-05 -3.43865e-05 0.101036)
(-3.54878e-05 3.55225e-05 0.101036)
(-3.89157e-07 -2.23587e-07 0.101039)
(3.87697e-07 -2.21617e-07 0.101039)
(-3.86729e-07 -2.20589e-07 0.101039)
(3.5495e-05 3.55144e-05 0.101036)
(3.43748e-05 3.43594e-05 0.101036)
(-3.55137e-05 -3.54813e-05 0.101036)
(4.02244e-07 2.37265e-07 0.101039)
(-4.01406e-07 2.39811e-07 0.101039)
(4.0556e-07 2.37854e-07 0.101039)
(-3.96968e-07 2.3471e-07 0.101039)
(-3.43746e-05 3.43549e-05 0.101036)
(3.55166e-05 -3.54895e-05 0.101036)
(2.25823e-07 3.95842e-07 0.101039)
(2.32489e-07 -3.95331e-07 0.101039)
(2.21633e-07 3.95454e-07 0.101039)
(2.31533e-07 -3.9461e-07 0.101039)
(-2.3195e-07 -3.93596e-07 0.101039)
(-2.21039e-07 3.90982e-07 0.101039)
(-2.29959e-07 -3.93384e-07 0.101039)
(3.43541e-05 -3.43844e-05 0.101036)
(-3.54885e-05 3.55234e-05 0.101036)
(-3.86889e-07 -2.215e-07 0.101039)
(3.87377e-07 -2.20577e-07 0.101039)
(-3.85351e-07 -2.20184e-07 0.101039)
(3.54964e-05 3.55145e-05 0.101036)
(3.43734e-05 3.43594e-05 0.101036)
(-3.55146e-05 -3.54914e-05 0.101036)
(3.98616e-07 2.32203e-07 0.101039)
(-3.9682e-07 2.34297e-07 0.101039)
(3.98305e-07 2.31281e-07 0.101039)
(-3.97896e-07 2.32345e-07 0.101039)
(-3.4373e-05 3.43524e-05 0.101036)
(3.55157e-05 -3.54907e-05 0.101036)
(2.2461e-07 3.91841e-07 0.101039)
(2.31667e-07 -3.949e-07 0.101039)
(2.22171e-07 3.89716e-07 0.101039)
(2.31794e-07 -3.95449e-07 0.101039)
(-2.30209e-07 -3.9417e-07 0.101039)
(-2.21969e-07 3.89931e-07 0.101039)
(-2.2963e-07 -3.9377e-07 0.101039)
(3.43535e-05 -3.43838e-05 0.101036)
(-3.54883e-05 3.55224e-05 0.101036)
(-3.86124e-07 -2.21061e-07 0.101039)
(3.87133e-07 -2.20976e-07 0.101039)
(-3.84954e-07 -2.2034e-07 0.101039)
(3.54962e-05 3.55137e-05 0.101036)
(3.43729e-05 3.43526e-05 0.101036)
(-3.55137e-05 -3.54898e-05 0.101036)
(3.98501e-07 2.31901e-07 0.101039)
(-3.9823e-07 2.345e-07 0.101039)
(4.01395e-07 2.34124e-07 0.101039)
(-3.98531e-07 2.31278e-07 0.101039)
(-3.43739e-05 3.43512e-05 0.101036)
(3.55178e-05 -3.54893e-05 0.101036)
(2.25373e-07 3.90897e-07 0.101039)
(2.32601e-07 -3.96227e-07 0.101039)
(2.23126e-07 3.91832e-07 0.101039)
(2.325e-07 -3.95885e-07 0.101039)
(-2.3108e-07 -3.94845e-07 0.101039)
(-2.22711e-07 3.91343e-07 0.101039)
(-2.30111e-07 -3.94371e-07 0.101039)
(3.43538e-05 -3.43847e-05 0.101036)
(-3.54873e-05 3.55221e-05 0.101036)
(-3.85926e-07 -2.21984e-07 0.101039)
(3.88009e-07 -2.21887e-07 0.101039)
(-3.85411e-07 -2.21074e-07 0.101039)
(3.5496e-05 3.55133e-05 0.101036)
(3.43744e-05 3.43548e-05 0.101036)
(-3.55103e-05 -3.54709e-05 0.101036)
(4.00604e-07 2.32946e-07 0.101039)
(-3.97485e-07 2.39516e-07 0.101039)
(4.08551e-07 2.43935e-07 0.101039)
(-3.98022e-07 2.30976e-07 0.101039)
(-3.43725e-05 3.43522e-05 0.101036)
(3.55244e-05 -3.54895e-05 0.101036)
(2.26592e-07 3.93802e-07 0.101039)
(2.32811e-07 -3.95349e-07 0.101039)
(2.22669e-07 3.98881e-07 0.101039)
(2.32061e-07 -3.93908e-07 0.101039)
(-2.30612e-07 -3.94998e-07 0.101039)
(-2.20589e-07 3.91374e-07 0.101039)
(-2.28847e-07 -3.93501e-07 0.101039)
(3.43545e-05 -3.43847e-05 0.101036)
(-3.54881e-05 3.55236e-05 0.101036)
(-3.86219e-07 -2.21958e-07 0.101039)
(3.87248e-07 -2.19767e-07 0.101039)
(-3.84275e-07 -2.19744e-07 0.101039)
(3.54972e-05 3.55142e-05 0.101036)
(3.43767e-05 3.4371e-05 0.101036)
(-3.5508e-05 -3.54865e-05 0.101036)
(4.11706e-07 2.452e-07 0.101039)
(-3.96921e-07 2.39858e-07 0.101039)
(4.01239e-07 2.30377e-07 0.101039)
(-3.95976e-07 2.23152e-07 0.101039)
(-3.43718e-05 3.43518e-05 0.101036)
(3.55203e-05 -3.54905e-05 0.101036)
(2.25288e-07 3.99531e-07 0.101039)
(2.31957e-07 -3.93882e-07 0.101039)
(2.221e-07 3.89119e-07 0.101039)
(2.30443e-07 -3.94723e-07 0.101039)
(-2.29664e-07 -3.94548e-07 0.101039)
(-2.19171e-07 3.85559e-07 0.101039)
(-2.27239e-07 -3.94231e-07 0.101039)
(3.43538e-05 -3.43835e-05 0.101036)
(-3.54857e-05 3.55197e-05 0.101036)
(-3.85052e-07 -2.20869e-07 0.101039)
(3.86336e-07 -2.19765e-07 0.101039)
(-3.82919e-07 -2.19792e-07 0.101039)
(3.54949e-05 3.55103e-05 0.101036)
(3.43672e-05 3.43434e-05 0.101036)
(-3.55147e-05 -3.54966e-05 0.101036)
(3.97033e-07 2.24627e-07 0.101039)
(-3.95285e-07 2.33554e-07 0.101039)
(3.82127e-07 1.94893e-07 0.101039)
(-3.4365e-05 3.43412e-05 0.101036)
(2.21562e-07 3.85603e-07 0.101039)
(2.27847e-07 -3.92725e-07 0.101039)
(1.92207e-07 3.67313e-07 0.101039)
(2.01183e-07 -3.7735e-07 0.101039)
(-2.24245e-07 -3.92819e-07 0.101039)
(-1.98616e-07 -3.7799e-07 0.101039)
(3.43457e-05 -3.43772e-05 0.101036)
(-3.5492e-05 3.55255e-05 0.101036)
(-3.80856e-07 -2.17933e-07 0.101039)
(3.6787e-07 -1.91113e-07 0.101039)
(-3.64909e-07 -1.92936e-07 0.101039)
(3.54996e-05 3.55152e-05 0.101036)
(-9.24365e-08 -9.60834e-08 0.0999985)
(1.73157e-05 1.731e-05 0.100002)
(-3.76396e-07 1.49073e-05 0.1)
(1.49169e-05 -3.79845e-07 0.1)
(-4.76159e-05 5.68404e-06 0.100008)
(-1.47045e-05 1.50821e-05 0.1)
(-0.000128221 6.0492e-05 0.100057)
(-1.49103e-05 -8.08516e-07 0.0999955)
(5.67791e-06 -4.76004e-05 0.100008)
(1.50863e-05 -1.47054e-05 0.1)
(-8.06025e-07 -1.49087e-05 0.0999955)
(6.05061e-05 -0.00012815 0.100057)
(-1.94273e-05 -1.94311e-05 0.100004)
(-0.000135288 -8.11299e-05 0.100053)
(-8.11395e-05 -0.000135268 0.100053)
(-3.54633e-05 0.00012303 0.100711)
(0.000173865 0.000389626 0.0994303)
(2.03319e-06 0.000306556 0.100521)
(-7.78736e-05 0.000238394 0.0991461)
(-0.0003017 0.000836776 0.0977986)
(-0.000137027 0.000298929 0.0957274)
(0.000122746 -3.5593e-05 0.100712)
(0.000390203 0.000172815 0.099431)
(0.000307305 1.8938e-06 0.100521)
(0.000238521 -7.77587e-05 0.0991466)
(-0.000104505 0.000104475 0.100296)
(0.000104508 -0.000104512 0.100296)
(-0.000104502 -0.000104519 0.100296)
(9.50674e-05 9.49988e-05 0.100741)
(-9.50261e-05 9.50123e-05 0.100741)
(9.50581e-05 -9.50537e-05 0.100741)
(-9.50324e-05 -9.50645e-05 0.100741)
(-0.000274981 6.44381e-06 0.100749)
(-0.000397582 0.000229736 0.100535)
(-0.000168921 3.54179e-05 0.100332)
(-0.000148469 9.26044e-05 0.100559)
(-0.000359271 1.58072e-05 0.10048)
(-0.000140302 0.000193439 0.10073)
(-0.000150241 3.17588e-05 0.100496)
(0.000835823 -0.000299858 0.0977978)
(0.000298903 -0.000136525 0.0957276)
(6.3926e-06 -0.000274891 0.100749)
(3.54597e-05 -0.000168904 0.100332)
(0.000229818 -0.000397526 0.100535)
(9.25682e-05 -0.000148455 0.10056)
(1.58046e-05 -0.000359136 0.10048)
(3.18051e-05 -0.000150228 0.100496)
(0.000193519 -0.000140332 0.10073)
(-0.000374329 -0.000141368 0.100381)
(-0.000141587 -0.000374585 0.100381)
(-0.000113006 -0.000113105 0.100658)
(1.80964e-05 -7.59605e-05 0.100575)
(-7.62159e-05 1.81124e-05 0.100575)
(-2.09079e-05 4.25727e-05 0.100764)
(-5.98989e-05 0.000233578 0.0984195)
(-3.06821e-05 0.000167459 0.100827)
(-3.9464e-05 0.000116185 0.0982304)
(-0.000130177 0.000229781 0.0926999)
(-4.96453e-05 6.10497e-05 0.0920074)
(4.26276e-05 -2.10396e-05 0.100764)
(0.000233889 -5.98273e-05 0.0984199)
(0.000167505 -3.07816e-05 0.100828)
(0.000116354 -3.94699e-05 0.0982303)
(-8.45237e-05 8.45358e-05 0.100848)
(8.45845e-05 -8.45645e-05 0.100848)
(-8.4556e-05 -8.45574e-05 0.100848)
(2.47373e-05 2.47026e-05 0.101011)
(-2.47235e-05 2.47066e-05 0.101011)
(2.47376e-05 -2.4739e-05 0.101011)
(-2.47259e-05 -2.47415e-05 0.101011)
(-9.11783e-05 4.76156e-06 0.101018)
(-0.000145561 0.000173825 0.100848)
(-0.00013415 2.76562e-05 0.100884)
(-8.07906e-05 4.94762e-05 0.100989)
(-0.000254866 9.42995e-06 0.100986)
(-3.63798e-05 6.28188e-05 0.100819)
(-9.30051e-05 2.16162e-05 0.100959)
(0.000229718 -0.000129862 0.0926996)
(6.11211e-05 -4.94975e-05 0.0920075)
(4.80122e-06 -9.11116e-05 0.101018)
(2.77373e-05 -0.000134138 0.100884)
(0.000173878 -0.000145631 0.100848)
(4.9514e-05 -8.07696e-05 0.100989)
(9.51866e-06 -0.00025478 0.100986)
(2.16855e-05 -9.29971e-05 0.100959)
(6.28097e-05 -3.62581e-05 0.100819)
(-3.25857e-05 -6.09524e-05 0.100513)
(-6.10293e-05 -3.2581e-05 0.100513)
(-3.56821e-05 -3.5604e-05 0.101032)
(2.0278e-05 1.63388e-06 0.1004)
(1.57056e-06 2.01747e-05 0.1004)
(-4.47564e-07 -4.81503e-06 0.100661)
(-4.98463e-06 1.28358e-05 0.0981926)
(-2.98922e-06 6.86982e-06 0.100673)
(-1.37393e-06 -4.23176e-06 0.0981926)
(-8.07677e-06 -7.78131e-07 0.0919482)
(-8.10763e-07 -2.27588e-06 0.0919562)
(-4.84761e-06 -4.63163e-07 0.100661)
(1.28768e-05 -5.02731e-06 0.0981924)
(6.91298e-06 -3.01149e-06 0.100673)
(-4.23033e-06 -1.3857e-06 0.0981925)
(-1.38591e-05 1.38436e-05 0.101026)
(1.3869e-05 -1.38701e-05 0.101026)
(-1.3862e-05 -1.38729e-05 0.101026)
(1.70846e-06 1.70311e-06 0.101039)
(-1.70647e-06 1.70262e-06 0.101039)
(1.70968e-06 -1.71107e-06 0.101039)
(-1.70938e-06 -1.71392e-06 0.101039)
(6.12462e-06 2.72529e-07 0.100989)
(-1.50726e-05 9.5397e-06 0.10076)
(-1.80951e-05 5.16045e-06 0.101033)
(-8.4443e-06 5.66091e-06 0.10104)
(-2.19273e-05 1.02296e-06 0.100995)
(5.92811e-06 -9.44452e-07 0.100746)
(-9.49007e-06 2.67038e-06 0.101037)
(-8.76455e-07 -8.00284e-06 0.091947)
(-2.19193e-06 -8.48525e-07 0.0919558)
(2.91675e-07 6.12745e-06 0.100989)
(5.18286e-06 -1.80991e-05 0.101033)
(9.56425e-06 -1.50796e-05 0.10076)
(5.6697e-06 -8.44238e-06 0.10104)
(1.03814e-06 -2.19227e-05 0.100995)
(2.68347e-06 -9.4878e-06 0.101037)
(-9.51726e-07 5.95531e-06 0.100746)
(-1.40009e-06 -2.97542e-06 0.10027)
(-2.96516e-06 -1.4006e-06 0.10027)
(3.09928e-05 3.10051e-05 0.101039)
(2.0971e-06 2.37327e-06 0.10025)
(2.37402e-06 2.09011e-06 0.10025)
(-9.96734e-09 -5.52241e-06 0.100657)
(7.09472e-07 4.58389e-06 0.0981889)
(-4.08838e-09 5.72168e-06 0.100656)
(-7.16748e-07 -4.59349e-06 0.0981906)
(-1.32221e-06 1.18482e-06 0.091954)
(9.84453e-07 -1.32564e-06 0.0919556)
(-5.5543e-06 -1.26559e-08 0.100657)
(4.59005e-06 6.89753e-07 0.0981888)
(5.75075e-06 1.47728e-09 0.100656)
(-4.59752e-06 -7.09552e-07 0.0981904)
(-6.92044e-07 6.92485e-07 0.10104)
(6.95912e-07 -6.96392e-07 0.10104)
(-6.93773e-07 -6.99456e-07 0.10104)
(-2.11441e-07 -2.0748e-07 0.10104)
(2.08036e-07 -2.0608e-07 0.10104)
(-2.07514e-07 2.09735e-07 0.10104)
(2.06805e-07 2.08775e-07 0.10104)
(9.74648e-06 -3.23514e-08 0.100985)
(-9.07791e-06 2.85819e-06 0.100739)
(-1.32709e-06 1.97775e-07 0.10104)
(-6.99508e-07 6.6891e-07 0.101039)
(-1.06509e-05 7.9375e-08 0.100985)
(8.2296e-06 -2.67781e-06 0.10074)
(-7.65873e-07 2.61086e-08 0.10104)
(1.13278e-06 -1.28481e-06 0.0919526)
(-1.26247e-06 9.49844e-07 0.091955)
(-2.36474e-08 9.7494e-06 0.100985)
(2.00649e-07 -1.32769e-06 0.10104)
(2.8811e-06 -9.09724e-06 0.100739)
(6.67501e-07 -6.96517e-07 0.101039)
(7.62253e-08 -1.06556e-05 0.100985)
(2.61818e-08 -7.62293e-07 0.10104)
(-2.69487e-06 8.25042e-06 0.10074)
(-2.91825e-06 -3.47583e-06 0.100242)
(-3.46507e-06 -2.91532e-06 0.100242)
(3.53068e-05 3.53252e-05 0.101036)
(2.63077e-06 3.09753e-06 0.100243)
(3.09229e-06 2.62658e-06 0.100243)
(-1.7968e-08 -5.59233e-06 0.100657)
(6.60035e-07 4.67015e-06 0.0981885)
(-4.92853e-10 5.50942e-06 0.100656)
(-7.58461e-07 -4.59004e-06 0.0981903)
(-1.11756e-06 1.25088e-06 0.0919536)
(9.14889e-07 -1.16554e-06 0.0919554)
(-5.62529e-06 -1.18911e-08 0.100657)
(4.64915e-06 6.46786e-07 0.0981883)
(5.53885e-06 1.10636e-08 0.100656)
(-4.57343e-06 -7.29507e-07 0.0981903)
(2.71872e-07 -2.69419e-07 0.10104)
(-2.73931e-07 2.75129e-07 0.10104)
(2.72415e-07 2.74424e-07 0.10104)
(-3.29546e-07 -3.21747e-07 0.10104)
(3.20754e-07 -3.16649e-07 0.10104)
(-3.25651e-07 3.27916e-07 0.10104)
(3.23941e-07 3.27759e-07 0.10104)
(9.94244e-06 -3.94047e-08 0.100985)
(-8.66435e-06 2.65411e-06 0.100739)
(-3.23428e-07 -1.06942e-07 0.10104)
(-2.40311e-07 4.10297e-07 0.101039)
(-1.00573e-05 4.35137e-08 0.100985)
(8.37292e-06 -2.7313e-06 0.10074)
(-2.95027e-07 -1.11694e-07 0.10104)
(1.22362e-06 -1.08953e-06 0.0919523)
(-1.2351e-06 1.00959e-06 0.0919549)
(-3.65489e-08 9.94613e-06 0.100985)
(-1.12697e-07 -3.22554e-07 0.10104)
(2.66568e-06 -8.6853e-06 0.100739)
(3.9892e-07 -2.39124e-07 0.101039)
(3.38658e-08 -1.00613e-05 0.100985)
(-1.19066e-07 -2.89407e-07 0.10104)
(-2.75935e-06 8.39126e-06 0.10074)
(-2.75753e-06 -3.2658e-06 0.100241)
(-3.25932e-06 -2.75065e-06 0.100241)
(3.54854e-05 3.55057e-05 0.101036)
(2.68092e-06 3.1699e-06 0.100243)
(3.16075e-06 2.67783e-06 0.100242)
(-2.09083e-08 -5.59349e-06 0.100657)
(6.67726e-07 4.68761e-06 0.0981886)
(-6.06422e-09 5.50101e-06 0.100656)
(-7.67561e-07 -4.59616e-06 0.0981903)
(-1.17207e-06 1.32251e-06 0.0919534)
(8.76911e-07 -1.11304e-06 0.0919555)
(-5.62894e-06 -1.12253e-08 0.100657)
(4.65158e-06 6.42875e-07 0.0981883)
(5.52936e-06 1.22902e-08 0.100656)
(-4.57231e-06 -7.31068e-07 0.0981903)
(3.24294e-07 -3.20535e-07 0.10104)
(-3.29421e-07 3.31366e-07 0.10104)
(3.27004e-07 3.30967e-07 0.10104)
(-3.33964e-07 -3.27811e-07 0.10104)
(3.29375e-07 -3.27829e-07 0.10104)
(-3.31165e-07 3.34608e-07 0.10104)
(3.30244e-07 3.33784e-07 0.10104)
(9.95103e-06 -3.87813e-08 0.100985)
(-8.64268e-06 2.64903e-06 0.100739)
(-2.79018e-07 -1.12473e-07 0.10104)
(-2.24374e-07 4.04158e-07 0.101039)
(-1.0031e-05 4.50634e-08 0.100985)
(8.38067e-06 -2.73162e-06 0.10074)
(-2.7509e-07 -1.13102e-07 0.10104)
(1.22929e-06 -1.07907e-06 0.0919522)
(-1.23353e-06 1.01392e-06 0.0919549)
(-3.6253e-08 9.95494e-06 0.100985)
(-1.21867e-07 -2.76646e-07 0.10104)
(2.65726e-06 -8.66673e-06 0.100739)
(3.88538e-07 -2.22715e-07 0.101039)
(3.28333e-08 -1.00338e-05 0.100985)
(-1.22272e-07 -2.68654e-07 0.10104)
(-2.76203e-06 8.39746e-06 0.10074)
(-2.75176e-06 -3.2527e-06 0.100241)
(-3.24741e-06 -2.74446e-06 0.100241)
(3.54924e-05 3.5513e-05 0.101036)
(2.68339e-06 3.17495e-06 0.100243)
(3.16529e-06 2.68041e-06 0.100242)
(-1.27385e-09 -5.59642e-06 0.100657)
(6.7715e-07 4.67752e-06 0.0981886)
(7.19848e-09 5.49758e-06 0.100656)
(-7.18125e-07 -4.58829e-06 0.0981902)
(-1.13511e-06 1.29133e-06 0.0919535)
(1.03472e-06 -1.27585e-06 0.0919553)
(-5.62988e-06 -1.03454e-08 0.100657)
(4.65107e-06 6.4501e-07 0.0981883)
(5.52859e-06 1.30426e-08 0.100656)
(-4.57453e-06 -7.28482e-07 0.0981903)
(3.31401e-07 -3.30339e-07 0.10104)
(-3.31766e-07 3.34681e-07 0.10104)
(3.30928e-07 3.3369e-07 0.10104)
(-3.31204e-07 -3.27224e-07 0.10104)
(3.34077e-07 -3.31549e-07 0.10104)
(-3.31283e-07 3.3499e-07 0.10104)
(3.31886e-07 3.33232e-07 0.10104)
(9.952e-06 -4.29706e-08 0.100985)
(-8.64281e-06 2.63963e-06 0.100739)
(-2.75147e-07 -1.17838e-07 0.10104)
(-2.22344e-07 3.92602e-07 0.101039)
(-1.00289e-05 4.14465e-08 0.100985)
(8.37933e-06 -2.74154e-06 0.10074)
(-2.72045e-07 -1.19237e-07 0.10104)
(1.22955e-06 -1.07807e-06 0.0919522)
(-1.23315e-06 1.01451e-06 0.0919549)
(-3.58557e-08 9.9561e-06 0.100985)
(-1.21392e-07 -2.73625e-07 0.10104)
(2.65664e-06 -8.66478e-06 0.100739)
(3.88078e-07 -2.21476e-07 0.101039)
(3.33268e-08 -1.00318e-05 0.100985)
(-1.2173e-07 -2.6736e-07 0.10104)
(-2.76193e-06 8.39871e-06 0.10074)
(-2.74988e-06 -3.25197e-06 0.100241)
(-3.24544e-06 -2.74328e-06 0.100241)
(3.54945e-05 3.5513e-05 0.101036)
(2.68536e-06 3.1742e-06 0.100243)
(3.16639e-06 2.68073e-06 0.100242)
(-8.12787e-09 -5.59639e-06 0.100657)
(6.52008e-07 4.67477e-06 0.0981886)
(1.00745e-08 5.49973e-06 0.100656)
(-7.45907e-07 -4.59178e-06 0.0981903)
(-1.11038e-06 1.27326e-06 0.0919536)
(1.04044e-06 -1.28169e-06 0.0919553)
(-5.62834e-06 -1.1859e-08 0.100657)
(4.64963e-06 6.43832e-07 0.0981883)
(5.52798e-06 1.26156e-08 0.100656)
(-4.57039e-06 -7.32084e-07 0.0981903)
(3.3413e-07 -3.31987e-07 0.10104)
(-3.31752e-07 3.34862e-07 0.10104)
(3.31827e-07 3.32964e-07 0.10104)
(-3.33327e-07 -3.31431e-07 0.10104)
(3.33877e-07 -3.32339e-07 0.10104)
(-3.30842e-07 3.3377e-07 0.10104)
(3.31518e-07 3.32143e-07 0.10104)
(9.95197e-06 -4.36867e-08 0.100985)
(-8.64345e-06 2.63979e-06 0.100739)
(-2.72253e-07 -1.1937e-07 0.10104)
(-2.21128e-07 3.90553e-07 0.101039)
(-1.0028e-05 4.02558e-08 0.100985)
(8.37777e-06 -2.7419e-06 0.10074)
(-2.69787e-07 -1.20258e-07 0.10104)
(1.22951e-06 -1.07817e-06 0.0919523)
(-1.233e-06 1.01383e-06 0.0919549)
(-3.61656e-08 9.95678e-06 0.100985)
(-1.20961e-07 -2.72553e-07 0.10104)
(2.65665e-06 -8.66468e-06 0.100739)
(3.87775e-07 -2.20794e-07 0.101039)
(3.36868e-08 -1.00314e-05 0.100985)
(-1.21406e-07 -2.66363e-07 0.10104)
(-2.76089e-06 8.39782e-06 0.10074)
(-2.74994e-06 -3.25324e-06 0.100241)
(-3.24517e-06 -2.74421e-06 0.100241)
(3.54949e-05 3.55128e-05 0.101036)
(2.68401e-06 3.17303e-06 0.100243)
(3.16624e-06 2.67903e-06 0.100242)
(-8.18486e-09 -5.59706e-06 0.100657)
(6.64834e-07 4.66554e-06 0.0981886)
(5.73749e-09 5.49872e-06 0.100656)
(-7.55997e-07 -4.58648e-06 0.0981903)
(-1.11081e-06 1.27802e-06 0.0919536)
(1.03903e-06 -1.28457e-06 0.0919553)
(-5.62842e-06 -1.22743e-08 0.100657)
(4.64583e-06 6.39923e-07 0.0981883)
(5.53039e-06 1.1438e-08 0.100656)
(-4.56185e-06 -7.28902e-07 0.0981903)
(3.33197e-07 -3.3242e-07 0.10104)
(-3.31289e-07 3.33324e-07 0.10104)
(3.31523e-07 3.32109e-07 0.10104)
(-3.32438e-07 -3.29797e-07 0.10104)
(3.34025e-07 -3.31045e-07 0.10104)
(-3.30477e-07 3.33661e-07 0.10104)
(3.31649e-07 3.32187e-07 0.10104)
(9.95199e-06 -4.39203e-08 0.100985)
(-8.64506e-06 2.63929e-06 0.100739)
(-2.736e-07 -1.19794e-07 0.10104)
(-2.2264e-07 3.91353e-07 0.101039)
(-1.00294e-05 3.97842e-08 0.100985)
(8.3774e-06 -2.74235e-06 0.10074)
(-2.70674e-07 -1.20304e-07 0.10104)
(1.22953e-06 -1.0789e-06 0.0919523)
(-1.23364e-06 1.01351e-06 0.0919549)
(-3.71333e-08 9.9584e-06 0.100985)
(-1.20858e-07 -2.73588e-07 0.10104)
(2.65645e-06 -8.6665e-06 0.100739)
(3.88369e-07 -2.21843e-07 0.101039)
(3.53493e-08 -1.00358e-05 0.100985)
(-1.21277e-07 -2.66854e-07 0.10104)
(-2.76104e-06 8.39756e-06 0.10074)
(-2.75027e-06 -3.25357e-06 0.100241)
(-3.24546e-06 -2.74484e-06 0.100241)
(3.54943e-05 3.55116e-05 0.101036)
(2.68452e-06 3.17359e-06 0.100243)
(3.16645e-06 2.67961e-06 0.100242)
(-1.39053e-10 -5.5963e-06 0.100657)
(6.82841e-07 4.6607e-06 0.0981886)
(7.39937e-09 5.49869e-06 0.100656)
(-7.39155e-07 -4.58255e-06 0.0981903)
(-1.10953e-06 1.27795e-06 0.0919535)
(1.04005e-06 -1.28446e-06 0.0919553)
(-5.62914e-06 -9.89237e-09 0.100657)
(4.63875e-06 6.38643e-07 0.0981883)
(5.52949e-06 1.27988e-08 0.100656)
(-4.55633e-06 -7.22444e-07 0.0981903)
(3.3381e-07 -3.30622e-07 0.10104)
(-3.31147e-07 3.34121e-07 0.10104)
(3.3169e-07 3.32369e-07 0.10104)
(-3.2976e-07 -3.24338e-07 0.10104)
(3.36351e-07 -3.27585e-07 0.10104)
(-3.30525e-07 3.35419e-07 0.10104)
(3.32284e-07 3.33063e-07 0.10104)
(9.95253e-06 -4.35688e-08 0.100985)
(-8.64349e-06 2.63979e-06 0.100739)
(-2.72984e-07 -1.19502e-07 0.10104)
(-2.21588e-07 3.92624e-07 0.101039)
(-1.00287e-05 3.96529e-08 0.100985)
(8.3784e-06 -2.7421e-06 0.10074)
(-2.70192e-07 -1.1998e-07 0.10104)
(1.22958e-06 -1.07826e-06 0.0919523)
(-1.23325e-06 1.01462e-06 0.0919549)
(-3.67918e-08 9.95941e-06 0.100985)
(-1.20748e-07 -2.73358e-07 0.10104)
(2.65714e-06 -8.66552e-06 0.100739)
(3.88016e-07 -2.20968e-07 0.101039)
(3.49286e-08 -1.00343e-05 0.100985)
(-1.21066e-07 -2.6685e-07 0.10104)
(-2.76083e-06 8.39823e-06 0.10074)
(-2.7504e-06 -3.25373e-06 0.100241)
(-3.24584e-06 -2.74486e-06 0.100241)
(3.54947e-05 3.55121e-05 0.101036)
(2.68468e-06 3.1738e-06 0.100243)
(3.16698e-06 2.67996e-06 0.100242)
(-7.74472e-09 -5.59677e-06 0.100657)
(7.82627e-07 4.70307e-06 0.0981887)
(2.08455e-08 5.5023e-06 0.100656)
(-7.74241e-07 -4.62533e-06 0.0981903)
(-1.12069e-06 1.30525e-06 0.0919536)
(1.06934e-06 -1.33697e-06 0.0919551)
(-5.63158e-06 -1.24243e-08 0.100657)
(4.64185e-06 6.4105e-07 0.0981883)
(5.52975e-06 1.47485e-08 0.100656)
(-4.57922e-06 -7.16573e-07 0.0981903)
(3.36214e-07 -3.28216e-07 0.10104)
(-3.31156e-07 3.35355e-07 0.10104)
(3.32353e-07 3.32946e-07 0.10104)
(-3.33224e-07 -3.33778e-07 0.10104)
(3.38139e-07 -3.31572e-07 0.10104)
(-3.31811e-07 3.35135e-07 0.10104)
(3.33983e-07 3.32286e-07 0.10104)
(9.95687e-06 -4.3771e-08 0.100985)
(-8.6464e-06 2.64515e-06 0.100739)
(-2.70543e-07 -1.19671e-07 0.10104)
(-2.1977e-07 3.8999e-07 0.101039)
(-1.00291e-05 4.01737e-08 0.100985)
(8.383e-06 -2.74635e-06 0.10074)
(-2.67621e-07 -1.20696e-07 0.10104)
(1.23791e-06 -1.08153e-06 0.0919523)
(-1.27207e-06 1.03623e-06 0.0919548)
(-3.68977e-08 9.9638e-06 0.100985)
(-1.20633e-07 -2.71997e-07 0.10104)
(2.65895e-06 -8.66638e-06 0.100739)
(3.87422e-07 -2.19591e-07 0.101039)
(3.51784e-08 -1.00344e-05 0.100985)
(-1.20946e-07 -2.65106e-07 0.10104)
(-2.76584e-06 8.40292e-06 0.10074)
(-2.7487e-06 -3.25572e-06 0.100241)
(-3.2471e-06 -2.74361e-06 0.100241)
(3.54958e-05 3.55121e-05 0.101036)
(2.68012e-06 3.17932e-06 0.100243)
(3.17369e-06 2.67396e-06 0.100242)
(-5.3328e-09 -5.59903e-06 0.100657)
(6.94349e-07 4.66053e-06 0.0981887)
(2.01114e-09 5.49137e-06 0.100656)
(-7.61272e-07 -4.62347e-06 0.0981902)
(-1.12932e-06 1.30936e-06 0.0919538)
(1.00651e-06 -1.24287e-06 0.0919551)
(-5.63127e-06 -1.56367e-08 0.100657)
(4.62712e-06 6.66114e-07 0.0981884)
(5.52112e-06 7.36516e-09 0.100656)
(-4.58037e-06 -7.35661e-07 0.0981903)
(3.40957e-07 -3.33245e-07 0.10104)
(-3.33908e-07 3.36215e-07 0.10104)
(3.35943e-07 3.32835e-07 0.10104)
(-3.46722e-07 -3.51907e-07 0.10104)
(3.65854e-07 -3.48497e-07 0.10104)
(-3.46508e-07 3.49519e-07 0.10104)
(3.49753e-07 3.43607e-07 0.10104)
(9.96223e-06 -5.09249e-08 0.100985)
(-8.63115e-06 2.6354e-06 0.100739)
(-2.65378e-07 -1.24887e-07 0.10104)
(-2.13781e-07 3.79508e-07 0.101039)
(-1.00144e-05 3.74003e-08 0.100985)
(8.37817e-06 -2.74286e-06 0.10074)
(-2.60174e-07 -1.27252e-07 0.10104)
(1.2371e-06 -1.08115e-06 0.0919526)
(-1.29152e-06 1.05285e-06 0.0919547)
(-3.79951e-08 9.96775e-06 0.100985)
(-1.21e-07 -2.66578e-07 0.10104)
(2.64756e-06 -8.65139e-06 0.100739)
(3.8476e-07 -2.16857e-07 0.101039)
(3.46987e-08 -1.00201e-05 0.100985)
(-1.22193e-07 -2.60162e-07 0.10104)
(-2.76674e-06 8.4045e-06 0.10074)
(-2.74356e-06 -3.23933e-06 0.100241)
(-3.22842e-06 -2.73969e-06 0.100241)
(3.54958e-05 3.55102e-05 0.101036)
(2.71077e-06 3.17082e-06 0.100243)
(3.16728e-06 2.70346e-06 0.100242)
(1.94329e-05 1.94219e-05 0.100004)
(8.11162e-05 0.000135267 0.100053)
(0.000135325 8.11297e-05 0.100053)
(0.000413152 0.0010411 0.0978727)
(0.000115233 0.000204473 0.100124)
(0.0010402 0.000410537 0.0978729)
(0.000204619 0.000115261 0.100125)
(0.000101261 0.000101223 0.100041)
(0.000119275 0.000515319 0.100267)
(0.000514212 0.00011891 0.100267)
(0.000117078 0.000179959 0.100098)
(0.0001801 0.000117096 0.100098)
(5.68087e-06 4.75845e-05 0.100008)
(1.50897e-05 1.47056e-05 0.1)
(6.04947e-05 0.000128156 0.100057)
(-8.05003e-07 1.48997e-05 0.0999955)
(-5.69366e-06 4.75939e-05 0.100008)
(-1.50879e-05 1.47002e-05 0.1)
(-6.04684e-05 0.000128146 0.100057)
(8.05345e-07 1.49005e-05 0.0999955)
(4.61168e-06 0.000154404 0.100054)
(0.000325032 0.000320731 0.0993465)
(9.83051e-05 0.000167507 0.100057)
(7.4659e-06 0.000330289 0.100413)
(-4.65054e-06 0.000154419 0.100054)
(-0.000324489 0.000321457 0.0993467)
(-9.82445e-05 0.000167466 0.100057)
(-7.46e-06 0.000330403 0.100413)
(1.38605e-05 0.00015851 0.100055)
(6.39645e-05 8.94865e-05 0.10003)
(0.000209081 0.000384364 0.10042)