/*--------------------------------*- C++ -*----------------------------------*\
| =========                 |                                                 |
| \\      /  F ield         | OpenFOAM: The Open Source CFD Toolbox           |
|  \\    /   O peration     | Version:  2206                                  |
|   \\  /    A nd           | Website:  www.openfoam.com                      |
|    \\/     M anipulation  |                                                 |
\*---------------------------------------------------------------------------*/
FoamFile
{
    version     2.0;
    format      ascii;
    arch        "LSB;label=32;scalar=64";
    class       volScalarField;
    location    "30.5";
    object      p;
}
// * * * * * * * * * * * * * * * * * * * * * * * * * * * * * * * * * * * * * //

dimensions      [0 2 -2 0 0 0 0];

internalField   nonuniform List<scalar> 
28673
(
0.000498667
0.000501122
0.000457187
0.00045715
0.00045715
0.000459604
0.000415672
0.000415635
0.000415635
0.00041809
0.00037416
0.000374123
0.000374123
0.000376577
0.000332649
0.000332612
0.000332612
0.000335066
0.000291135
0.000291101
0.0002911
0.000293554
0.000249612
0.000249569
0.000249569
0.000252022
0.000208087
0.000208062
0.000208062
0.000210508
0.000166554
0.00016651
0.00016651
0.000168956
0.00012502
0.000124988
0.000124988
0.000127415
8.34912e-05
8.34482e-05
8.34468e-05
8.58484e-05
4.26401e-05
4.20871e-05
4.2084e-05
4.43488e-05
8.9691e-06
9.15445e-06
9.15153e-06
8.69664e-06
0.000509046
0.000506598
0.000509046
0.000465081
0.000498667
0.000498666
0.000467529
0.000467529
0.000501121
0.000465081
0.000467529
0.000467529
0.000498667
0.000467529
0.000467529
0.000465081
0.000498667
0.000467529
0.000467529
0.000465081
0.000459604
0.000423566
0.00045715
0.00045715
0.000426014
0.000426014
0.000459604
0.000423567
0.000457149
0.00045715
0.000426014
0.000426014
0.00045715
0.000426014
0.000426014
0.000459604
0.000423566
0.00045715
0.000426014
0.000426014
0.000423566
0.00041809
0.000382053
0.000415636
0.000415635
0.000384501
0.000384501
0.00041809
0.000382054
0.000415635
0.000415635
0.000384501
0.000384501
0.000415636
0.000384501
0.000384501
0.00041809
0.000382053
0.000415635
0.000384501
0.000384501
0.000382053
0.000376577
0.000340542
0.000374123
0.000374123
0.00034299
0.00034299
0.000376577
0.000340543
0.000374123
0.000374123
0.000342989
0.000342989
0.000374123
0.00034299
0.00034299
0.000376577
0.000340542
0.000374123
0.000342989
0.00034299
0.000340542
0.000335066
0.000299031
0.000332612
0.000332612
0.000301478
0.000301479
0.000335066
0.000299031
0.000332612
0.000332612
0.000301478
0.000301477
0.000332612
0.000301479
0.000301478
0.000335066
0.00029903
0.000332612
0.000301478
0.000301478
0.000299031
0.000293554
0.000257508
0.000291101
0.000291101
0.000259953
0.000259953
0.000293554
0.000257507
0.0002911
0.0002911
0.000259953
0.000259954
0.000291101
0.000259953
0.000259953
0.000293554
0.000257508
0.000291101
0.000259954
0.000259953
0.000257507
0.000252023
0.000215988
0.000249569
0.000249568
0.000218439
0.000218438
0.000252022
0.000215988
0.000249569
0.000249569
0.000218439
0.00021844
0.000249569
0.000218438
0.000218439
0.000252024
0.000215988
0.000249569
0.000218439
0.000218439
0.000215988
0.000210508
0.000174458
0.000208062
0.000208062
0.000176897
0.000176897
0.000210508
0.000174458
0.000208062
0.000208062
0.000176896
0.000176896
0.000208062
0.000176897
0.000176897
0.000210508
0.000174457
0.000208062
0.000176896
0.000176897
0.000174458
0.000168956
0.000132937
0.00016651
0.00016651
0.000135383
0.000135384
0.000168956
0.000132937
0.00016651
0.00016651
0.000135383
0.000135383
0.000166511
0.000135383
0.000135383
0.000168955
0.000132937
0.00016651
0.000135383
0.000135383
0.000132937
0.000127415
9.14039e-05
0.000124988
0.000124989
9.38474e-05
9.3848e-05
0.000127415
9.14045e-05
0.000124988
0.000124988
9.38474e-05
9.38468e-05
0.000124988
9.38477e-05
9.38472e-05
0.000127415
9.14029e-05
0.000124988
9.38466e-05
9.38467e-05
9.14032e-05
8.58495e-05
4.99075e-05
8.34481e-05
8.34485e-05
5.23487e-05
5.23493e-05
8.58494e-05
4.99085e-05
8.34475e-05
8.34468e-05
5.23467e-05
5.23462e-05
8.34475e-05
5.23479e-05
5.2346e-05
8.58488e-05
4.99049e-05
8.34468e-05
5.23454e-05
5.23446e-05
4.99046e-05
4.43524e-05
1.22837e-05
4.20888e-05
4.2089e-05
1.44738e-05
1.44731e-05
4.43529e-05
1.22836e-05
4.20868e-05
4.20854e-05
1.44718e-05
1.44679e-05
4.20848e-05
1.44706e-05
1.44664e-05
4.43492e-05
1.22788e-05
4.20834e-05
1.44681e-05
1.44678e-05
1.2278e-05
8.7005e-06
9.15522e-06
9.15566e-06
8.70201e-06
9.15376e-06
9.15084e-06
8.96904e-06
8.96663e-06
8.96647e-06
9.15032e-06
8.69722e-06
9.15094e-06
0.000485723
0.000501262
0.000501266
0.000485723
0.000501263
0.000485723
0.000485723
0.000485724
0.000498703
0.000498703
0.000467566
0.000467566
0.000467566
0.000467565
0.000485772
0.000501231
0.000498675
0.000488287
0.000501221
0.000485754
0.000488296
0.000485722
0.000485773
0.000498675
0.000488287
0.00050122
0.000488296
0.000485754
0.000501268
0.000501268
0.00048584
0.000485719
0.000485719
0.000444206
0.000459745
0.000459748
0.000444207
0.000459747
0.000444206
0.000444206
0.000459745
0.000459749
0.000444207
0.000457187
0.000457187
0.000457186
0.000426051
0.000426051
0.000426051
0.000426051
0.000444256
0.000459714
0.000457159
0.000446771
0.000459703
0.000444238
0.00044678
0.000459747
0.000444206
0.000444256
0.000457159
0.000459714
0.000446771
0.000459703
0.00044678
0.000444237
0.00045975
0.000459751
0.000444323
0.000444203
0.000444203
0.000402693
0.000418231
0.000418234
0.000402694
0.000418232
0.000402693
0.000402693
0.00041823
0.000418234
0.000402694
0.000415672
0.000415672
0.000415672
0.000384538
0.000384538
0.000384538
0.000384538
0.000402743
0.0004182
0.000415644
0.000405257
0.000418189
0.000402724
0.000405266
0.000418232
0.000402693
0.000402743
0.000415644
0.000418199
0.000405257
0.000418189
0.000405266
0.000402724
0.000418236
0.000418236
0.00040281
0.000402689
0.000402689
0.000361181
0.000376718
0.000376721
0.000361182
0.00037672
0.000361181
0.000361181
0.000376718
0.000376721
0.000361182
0.00037416
0.00037416
0.00037416
0.000343026
0.000343026
0.000343026
0.000343026
0.000361231
0.000376687
0.000374132
0.000363745
0.000376676
0.000361212
0.000363754
0.00037672
0.000361181
0.000361231
0.000374132
0.000376687
0.000363745
0.000376676
0.000363754
0.000361212
0.000376724
0.000376724
0.000361298
0.000361178
0.000361178
0.00031967
0.000335207
0.000335211
0.000319671
0.000335209
0.000319669
0.00031967
0.000335207
0.00033521
0.000319671
0.000332649
0.000332648
0.000332648
0.000301513
0.000301513
0.000301513
0.000301513
0.00031972
0.000335176
0.000332621
0.000322234
0.000335165
0.000319701
0.000322243
0.000335208
0.000319669
0.00031972
0.000332621
0.000335176
0.000322234
0.000335165
0.000322242
0.000319701
0.000335213
0.000335213
0.000319787
0.000319666
0.000319666
0.000278156
0.000293697
0.000293697
0.000278155
0.0002937
0.000278152
0.000278156
0.000293696
0.000293697
0.000278155
0.000291135
0.000291134
0.000291135
0.000259991
0.000259991
0.000259991
0.000259992
0.000278206
0.000293664
0.000291109
0.000280719
0.000293652
0.00027819
0.000280727
0.000293697
0.000278151
0.000278206
0.000291108
0.000293662
0.00028072
0.000293651
0.000280727
0.00027819
0.000293701
0.000293701
0.000278271
0.000278152
0.000278152
0.000236652
0.000252161
0.000252164
0.00023664
0.000252169
0.000236635
0.000236655
0.000252162
0.000252165
0.000236641
0.000249611
0.000249612
0.000249612
0.000218467
0.000218467
0.000218466
0.000218467
0.000236686
0.000252124
0.000249578
0.000239186
0.000252117
0.000236672
0.000239194
0.000252171
0.000236637
0.000236686
0.000249579
0.000252126
0.000239187
0.000252118
0.000239195
0.000236674
0.000252166
0.000252166
0.000236743
0.00023664
0.000236641
0.000195062
0.000210656
0.000210671
0.000195086
0.000210664
0.000195074
0.000195061
0.000210656
0.000210672
0.000195084
0.000208087
0.000208086
0.000208087
0.000176933
0.000176933
0.000176932
0.000176933
0.000195142
0.000210624
0.000208072
0.00019768
0.000210626
0.00019513
0.000197683
0.000210664
0.000195073
0.000195142
0.000208071
0.000210623
0.00019768
0.000210626
0.000197683
0.000195129
0.000210662
0.000210662
0.000195229
0.000195086
0.000195082
0.000153565
0.000169109
0.000169072
0.000153588
0.000169144
0.000153536
0.000153564
0.000169108
0.000169072
0.000153588
0.000166554
0.000166554
0.000166554
0.000135395
0.000135395
0.000135395
0.000135395
0.000153612
0.000169049
0.000166527
0.000156138
0.000169047
0.000153635
0.00015615
0.000169144
0.000153536
0.000153611
0.000166526
0.000169048
0.000156138
0.000169047
0.000156149
0.000153635
0.000169101
0.000169101
0.0001537
0.000153597
0.000153596
0.000112027
0.000127588
0.00012756
0.000112043
0.00012766
0.00011196
0.000112026
0.000127587
0.000127559
0.000112042
0.000125021
0.00012502
0.00012502
9.38502e-05
9.38499e-05
9.38494e-05
9.38496e-05
0.000112079
0.000127526
0.000124998
0.000114606
0.000127519
0.000112112
0.00011461
0.000127659
0.000111959
0.000112078
0.000124998
0.000127526
0.000114605
0.000127519
0.00011461
0.00011211
0.000127574
0.000127573
0.000112175
0.000112064
0.000112064
7.04389e-05
8.60133e-05
8.60147e-05
7.04607e-05
8.61741e-05
7.02493e-05
7.0437e-05
8.60129e-05
8.60136e-05
7.04593e-05
8.34904e-05
8.34901e-05
8.34902e-05
5.25844e-05
5.25853e-05
5.25824e-05
5.25825e-05
7.05036e-05
8.59518e-05
8.34673e-05
7.30686e-05
8.59797e-05
7.05402e-05
7.30837e-05
8.61694e-05
7.02528e-05
7.05024e-05
8.34664e-05
8.59509e-05
7.3067e-05
8.59789e-05
7.30826e-05
7.05378e-05
8.59871e-05
8.59873e-05
7.06338e-05
7.04927e-05
7.04925e-05
2.80375e-05
4.39773e-05
4.4125e-05
2.7364e-05
4.44134e-05
2.67128e-05
2.80238e-05
4.39691e-05
4.41187e-05
2.73563e-05
4.26406e-05
4.26372e-05
4.26371e-05
1.59168e-05
1.5916e-05
1.5913e-05
1.59128e-05
2.86639e-05
4.39865e-05
4.23485e-05
3.21454e-05
4.42558e-05
2.78995e-05
3.25379e-05
4.43982e-05
2.672e-05
2.86636e-05
4.23456e-05
4.39848e-05
3.21423e-05
4.42555e-05
3.25352e-05
2.79012e-05
4.3919e-05
4.39183e-05
2.96156e-05
2.75805e-05
2.75773e-05
5.11456e-06
5.87674e-06
6.0169e-06
-1.45338e-08
2.84071e-06
-4.07772e-06
5.13194e-06
5.85593e-06
6.00186e-06
-4.10673e-09
2.58679e-06
9.40741e-06
9.40563e-06
2.85403e-06
9.70094e-06
2.60597e-06
2.60531e-06
4.53336e-06
6.3735e-06
8.76449e-06
2.93573e-06
7.74614e-06
4.26938e-06
2.69558e-06
2.80772e-06
-4.0748e-06
4.53828e-06
8.76338e-06
6.36946e-06
2.93406e-06
7.74564e-06
2.69576e-06
4.27581e-06
2.70518e-06
2.69965e-06
2.79369e-06
2.71436e-06
2.72666e-06
0.000506482
0.000506512
0.000506481
0.000506478
0.000506478
0.00050648
0.000506512
0.000506483
0.000501263
0.000485723
0.000485722
0.000501268
0.00048584
0.000485719
0.000485719
0.000464964
0.000480505
0.000464964
0.000480505
0.000480363
0.00046496
0.00046496
0.000480509
0.000480509
0.000485723
0.000501262
0.000501266
0.000485723
0.000485772
0.000501231
0.000498675
0.000488287
0.000501221
0.000485754
0.000488296
0.000485772
0.000501231
0.000498675
0.000488287
0.000501221
0.000485753
0.000488296
0.000480506
0.000464965
0.000480503
0.000464964
0.000480506
0.000464965
0.000480503
0.000464964
0.000480461
0.000477908
0.000464995
0.000467537
0.000480472
0.000477917
0.000465014
0.000480461
0.000477908
0.000464995
0.000467538
0.000480472
0.000477917
0.000465014
0.000501268
0.000501267
0.000485839
0.000485719
0.000485719
0.000501264
0.000485722
0.000464964
0.000480505
0.000480362
0.000464961
0.000464961
0.000480508
0.000480508
0.000464964
0.000480505
0.000485773
0.000488287
0.000485754
0.000488296
0.000485723
0.000485724
0.000485773
0.000488288
0.000488296
0.000485754
0.000480507
0.000464965
0.000480504
0.000464964
0.000480462
0.000477908
0.000464995
0.000467538
0.000480472
0.000477917
0.000465014
0.000480507
0.000464965
0.000480504
0.000464964
0.000480462
0.000477908
0.000467538
0.000464995
0.000477917
0.000480473
0.000465014
0.000485723
0.000501262
0.000501266
0.000485724
0.000485772
0.000498676
0.000501231
0.000488288
0.000501221
0.000488296
0.000485754
0.000485723
0.000501262
0.000501266
0.000485724
0.000480461
0.000477908
0.000464995
0.000467538
0.000480472
0.000477917
0.000465014
0.000480506
0.000464965
0.000480503
0.000464964
0.000480461
0.000477908
0.000467538
0.000464995
0.000477917
0.000480472
0.000465014
0.000480506
0.000464965
0.000480503
0.000464964
0.00048584
0.00048572
0.00048572
0.000485722
0.000464964
0.000480505
0.000480363
0.000464961
0.00046496
0.000480509
0.000480509
0.000464964
0.000480505
0.000485773
0.000498675
0.000501231
0.000488287
0.00050122
0.000488296
0.000485754
0.000485723
0.000501266
0.000485724
0.000485723
0.000501262
0.000501266
0.000485724
0.000480461
0.000477908
0.000467538
0.000464995
0.000477917
0.000480473
0.000465014
0.000480461
0.000477908
0.000467538
0.000464995
0.000477917
0.000480472
0.000465014
0.000480506
0.000464965
0.000480503
0.000464964
0.000480506
0.000464965
0.000480503
0.000464964
0.000501263
0.000485723
0.000501263
0.000485723
0.000480363
0.00046496
0.000464961
0.000480508
0.000480509
0.000464964
0.000480505
0.000464964
0.000480505
0.000459747
0.000444207
0.000459746
0.000444207
0.00045975
0.00045975
0.000444323
0.000444203
0.000444203
0.000423449
0.000438989
0.000423449
0.000438989
0.000438847
0.000423446
0.000423446
0.000438993
0.000438993
0.000444206
0.000459745
0.000459748
0.000444207
0.000444256
0.000459714
0.000457158
0.000446771
0.000459703
0.000444237
0.00044678
0.000444256
0.000459714
0.000457159
0.000446771
0.000459703
0.000444237
0.00044678
0.000438991
0.00042345
0.000438988
0.00042345
0.000438991
0.00042345
0.000438987
0.00042345
0.000438946
0.000436392
0.00042348
0.000426023
0.000438956
0.000436401
0.000423499
0.000438946
0.000436392
0.00042348
0.000426023
0.000438956
0.000436401
0.000423499
0.00045975
0.00045975
0.000444324
0.000444203
0.000444203
0.000459747
0.000444206
0.000423449
0.000438989
0.000438847
0.000423446
0.000423446
0.000438993
0.000438993
0.000423449
0.000438989
0.000444256
0.000459714
0.000457159
0.000446771
0.000459703
0.000444238
0.00044678
0.000444206
0.000459745
0.000459748
0.000444207
0.000444256
0.000457159
0.000459714
0.000446771
0.000459703
0.00044678
0.000444238
0.000438991
0.00042345
0.000438988
0.000423449
0.000438945
0.000436392
0.00042348
0.000426023
0.000438956
0.000436401
0.000423499
0.000438991
0.00042345
0.000438988
0.000423449
0.000438946
0.000436392
0.000426023
0.00042348
0.000436401
0.000438956
0.000423499
0.000444207
0.000459745
0.000459748
0.000444208
0.000444256
0.000457159
0.000459714
0.000446771
0.000459703
0.00044678
0.000444237
0.000444207
0.000459745
0.000459748
0.000444208
0.000438946
0.000436392
0.000423481
0.000426023
0.000438956
0.000436401
0.000423499
0.000438991
0.000423451
0.000438988
0.000423449
0.000438946
0.000436393
0.000426023
0.00042348
0.000436401
0.000438957
0.000423499
0.000438991
0.00042345
0.000438988
0.000423449
0.00045975
0.00045975
0.000444323
0.000444203
0.000444203
0.000459746
0.000444207
0.000423449
0.000438989
0.000438847
0.000423446
0.000423446
0.000438993
0.000438993
0.000423449
0.000438989
0.000444256
0.000457159
0.000459714
0.000446771
0.000459703
0.00044678
0.000444238
0.000444207
0.000459745
0.000459748
0.000444207
0.000444207
0.000459745
0.000459748
0.000444208
0.000438945
0.000436392
0.000426023
0.00042348
0.000436401
0.000438957
0.000423499
0.000438945
0.000436392
0.000426023
0.00042348
0.000436401
0.000438957
0.000423499
0.000438991
0.00042345
0.000438988
0.00042345
0.000438991
0.00042345
0.000438988
0.00042345
0.000459746
0.000444207
0.000459747
0.000444207
0.000438847
0.000423446
0.000423446
0.000438993
0.000438993
0.000423449
0.000438989
0.000423449
0.000438989
0.000418232
0.000402693
0.000418232
0.000402693
0.000418236
0.000418236
0.00040281
0.000402689
0.000402689
0.000381937
0.000397476
0.000381937
0.000397476
0.000397333
0.000381933
0.000381933
0.00039748
0.00039748
0.000402693
0.000418231
0.000418234
0.000402694
0.000402743
0.0004182
0.000415644
0.000405257
0.000418189
0.000402724
0.000405266
0.000402743
0.0004182
0.000415644
0.000405257
0.000418189
0.000402724
0.000405266
0.000397478
0.000381938
0.000397474
0.000381937
0.000397478
0.000381938
0.000397474
0.000381937
0.000397432
0.000394879
0.000381967
0.00038451
0.000397443
0.000394888
0.000381986
0.000397432
0.000394879
0.000381968
0.00038451
0.000397443
0.000394888
0.000381986
0.000418236
0.000418236
0.00040281
0.000402689
0.00040269
0.000418232
0.000402693
0.000381937
0.000397476
0.000397333
0.000381933
0.000381933
0.000397479
0.000397479
0.000381936
0.000397476
0.000402743
0.000418199
0.000415644
0.000405257
0.000418188
0.000402724
0.000405266
0.000402693
0.00041823
0.000418234
0.000402694
0.000402743
0.000415644
0.000418199
0.000405257
0.000418189
0.000405266
0.000402724
0.000397478
0.000381938
0.000397474
0.000381937
0.000397432
0.000394879
0.000381968
0.00038451
0.000397443
0.000394888
0.000381986
0.000397478
0.000381938
0.000397474
0.000381937
0.000397432
0.000394879
0.00038451
0.000381968
0.000394888
0.000397443
0.000381986
0.000402693
0.000418231
0.000418234
0.000402694
0.000402743
0.000415644
0.000418199
0.000405257
0.000418189
0.000405266
0.000402724
0.000402693
0.000418231
0.000418234
0.000402694
0.000397432
0.000394879
0.000381968
0.00038451
0.000397443
0.000394888
0.000381986
0.000397477
0.000381938
0.000397474
0.000381937
0.000397432
0.000394879
0.00038451
0.000381968
0.000394888
0.000397443
0.000381986
0.000397477
0.000381938
0.000397474
0.000381937
0.000418236
0.000418236
0.00040281
0.00040269
0.000402689
0.000418232
0.000402693
0.000381936
0.000397476
0.000397333
0.000381933
0.000381933
0.000397479
0.00039748
0.000381937
0.000397476
0.000402743
0.000415644
0.0004182
0.000405257
0.000418188
0.000405266
0.000402724
0.000402693
0.000418231
0.000418234
0.000402694
0.000402693
0.000418231
0.000418234
0.000402694
0.000397432
0.000394879
0.00038451
0.000381967
0.000394888
0.000397443
0.000381986
0.000397432
0.000394879
0.00038451
0.000381968
0.000394888
0.000397443
0.000381986
0.000397477
0.000381938
0.000397474
0.000381937
0.000397477
0.000381938
0.000397474
0.000381937
0.000418232
0.000402693
0.000418232
0.000402693
0.000397334
0.000381933
0.000381933
0.000397479
0.00039748
0.000381937
0.000397475
0.000381937
0.000397476
0.000376719
0.000361181
0.000376719
0.000361181
0.000376723
0.000376723
0.000361298
0.000361177
0.000361177
0.000340426
0.000355964
0.000340425
0.000355964
0.000355822
0.000340422
0.000340422
0.000355968
0.000355968
0.000361181
0.000376718
0.000376721
0.000361182
0.000361231
0.000376687
0.000374132
0.000363745
0.000376676
0.000361212
0.000363754
0.000361231
0.000376687
0.000374132
0.000363745
0.000376676
0.000361212
0.000363754
0.000355966
0.000340427
0.000355963
0.000340426
0.000355966
0.000340427
0.000355962
0.000340426
0.000355921
0.000353368
0.000340457
0.000342998
0.000355931
0.000353376
0.000340476
0.000355921
0.000353368
0.000340457
0.000342998
0.000355931
0.000353377
0.000340476
0.000376724
0.000376723
0.000361298
0.000361178
0.000361178
0.00037672
0.000361181
0.000340426
0.000355964
0.000355822
0.000340423
0.000340423
0.000355968
0.000355968
0.000340426
0.000355964
0.000361231
0.000376687
0.000374132
0.000363745
0.000376676
0.000361212
0.000363754
0.000361181
0.000376718
0.000376721
0.000361182
0.000361231
0.000374132
0.000376687
0.000363745
0.000376676
0.000363754
0.000361212
0.000355966
0.000340426
0.000355963
0.000340425
0.00035592
0.000353367
0.000340456
0.000342998
0.000355931
0.000353376
0.000340475
0.000355966
0.000340426
0.000355963
0.000340425
0.00035592
0.000353367
0.000342998
0.000340456
0.000353376
0.000355931
0.000340475
0.000361181
0.000376718
0.000376721
0.000361182
0.000361231
0.000374132
0.000376687
0.000363745
0.000376676
0.000363754
0.000361212
0.000361181
0.000376718
0.000376721
0.000361182
0.000355921
0.000353368
0.000340457
0.000342998
0.000355931
0.000353376
0.000340476
0.000355966
0.000340427
0.000355962
0.000340426
0.00035592
0.000353368
0.000342998
0.000340457
0.000353377
0.000355932
0.000340476
0.000355966
0.000340427
0.000355963
0.000340426
0.000376723
0.000376723
0.000361298
0.000361178
0.000361177
0.000376719
0.000361181
0.000340425
0.000355964
0.000355822
0.000340422
0.000340422
0.000355968
0.000355968
0.000340426
0.000355964
0.000361231
0.000374132
0.000376687
0.000363745
0.000376676
0.000363754
0.000361212
0.000361181
0.000376718
0.000376721
0.000361182
0.000361181
0.000376718
0.000376721
0.000361182
0.00035592
0.000353367
0.000342998
0.000340456
0.000353376
0.000355931
0.000340475
0.00035592
0.000353367
0.000342998
0.000340457
0.000353376
0.000355932
0.000340476
0.000355965
0.000340427
0.000355962
0.000340426
0.000355965
0.000340427
0.000355963
0.000340426
0.00037672
0.000361181
0.000376719
0.000361181
0.000355822
0.000340422
0.000340422
0.000355968
0.000355968
0.000340426
0.000355964
0.000340426
0.000355964
0.000335209
0.00031967
0.000335208
0.00031967
0.000335213
0.000335212
0.000319787
0.000319666
0.000319666
0.000298912
0.000314453
0.000298911
0.000314453
0.00031431
0.000298909
0.000298909
0.000314457
0.000314456
0.00031967
0.000335208
0.000335211
0.00031967
0.00031972
0.000335176
0.000332621
0.000322234
0.000335165
0.000319701
0.000322243
0.00031972
0.000335176
0.000332621
0.000322234
0.000335165
0.000319701
0.000322243
0.000314454
0.000298913
0.000314451
0.000298916
0.000314454
0.000298915
0.000314452
0.000298916
0.000314409
0.000311856
0.000298945
0.000301486
0.00031442
0.000311865
0.000298964
0.000314409
0.000311857
0.000298946
0.000301486
0.00031442
0.000311865
0.000298964
0.000335213
0.000335213
0.000319787
0.000319666
0.000319667
0.000335209
0.000319669
0.000298914
0.000314453
0.000314311
0.000298911
0.000298911
0.000314457
0.000314457
0.000298913
0.000314454
0.00031972
0.000335176
0.000332621
0.000322234
0.000335165
0.000319701
0.000322242
0.00031967
0.000335207
0.00033521
0.00031967
0.000319719
0.000332621
0.000335176
0.000322234
0.000335165
0.000322242
0.000319701
0.000314453
0.000298912
0.000314452
0.000298914
0.000314408
0.000311856
0.000298945
0.000301486
0.000314419
0.000311865
0.000298963
0.000314453
0.000298912
0.000314451
0.000298914
0.000314408
0.000311856
0.000301486
0.000298944
0.000311865
0.000314419
0.000298963
0.00031967
0.000335208
0.000335211
0.00031967
0.00031972
0.000332621
0.000335176
0.000322234
0.000335165
0.000322243
0.000319701
0.00031967
0.000335208
0.000335211
0.000319671
0.000314409
0.000311857
0.000298947
0.000301486
0.00031442
0.000311865
0.000298964
0.000314454
0.000298915
0.000314452
0.000298916
0.000314409
0.000311857
0.000301486
0.000298945
0.000311865
0.00031442
0.000298964
0.000314454
0.000298913
0.000314452
0.000298916
0.000335212
0.000335212
0.000319786
0.000319666
0.000319666
0.000335208
0.00031967
0.00029891
0.000314453
0.00031431
0.000298908
0.000298908
0.000314456
0.000314457
0.000298911
0.000314453
0.00031972
0.000332621
0.000335176
0.000322234
0.000335165
0.000322243
0.000319701
0.00031967
0.000335207
0.00033521
0.000319671
0.00031967
0.000335207
0.00033521
0.000319671
0.000314409
0.000311856
0.000301486
0.000298944
0.000311865
0.00031442
0.000298964
0.000314408
0.000311856
0.000301486
0.000298945
0.000311865
0.00031442
0.000298964
0.000314454
0.000298912
0.000314452
0.000298915
0.000314454
0.000298913
0.000314451
0.000298915
0.000335209
0.00031967
0.000335209
0.00031967
0.000314311
0.00029891
0.000298909
0.000314457
0.000314457
0.000298912
0.000314453
0.000298912
0.000314453
0.000293699
0.000278152
0.000293698
0.000278151
0.000293701
0.0002937
0.000278271
0.000278152
0.000278151
0.000257389
0.000272942
0.000257391
0.000272942
0.000272791
0.000257396
0.000257397
0.000272941
0.000272941
0.000278156
0.000293698
0.000293697
0.000278155
0.000278206
0.000293663
0.000291109
0.00028072
0.000293652
0.00027819
0.000280727
0.000278206
0.000293664
0.000291109
0.000280719
0.000293652
0.00027819
0.000280728
0.000272936
0.000257398
0.000272936
0.000257402
0.000272936
0.000257397
0.000272935
0.000257402
0.000272889
0.000270338
0.000257436
0.000259961
0.000272898
0.000270347
0.000257449
0.000272888
0.000270338
0.000257435
0.000259961
0.000272898
0.000270347
0.000257449
0.000293702
0.000293702
0.000278272
0.000278152
0.000278152
0.000293701
0.000278151
0.000257388
0.000272941
0.000272791
0.000257394
0.000257394
0.000272941
0.000272941
0.000257387
0.000272941
0.000278206
0.000293662
0.000291108
0.00028072
0.000293651
0.00027819
0.000280727
0.000278156
0.000293695
0.000293696
0.000278155
0.000278206
0.000291108
0.000293661
0.00028072
0.000293651
0.000280727
0.00027819
0.000272935
0.000257399
0.000272936
0.000257402
0.000272888
0.000270338
0.000257435
0.000259961
0.000272898
0.000270347
0.00025745
0.000272935
0.0002574
0.000272936
0.000257402
0.000272888
0.000270339
0.000259962
0.000257436
0.000270347
0.000272898
0.00025745
0.000278156
0.000293698
0.000293697
0.000278155
0.000278206
0.000291109
0.000293663
0.00028072
0.000293652
0.000280728
0.00027819
0.000278156
0.000293697
0.000293697
0.000278155
0.000272888
0.000270338
0.000257435
0.000259961
0.000272898
0.000270347
0.000257449
0.000272936
0.000257397
0.000272935
0.000257402
0.000272888
0.000270338
0.000259961
0.000257435
0.000270347
0.000272898
0.000257449
0.000272936
0.000257398
0.000272936
0.000257402
0.000293699
0.0002937
0.000278271
0.000278151
0.000278151
0.000293697
0.000278151
0.000257391
0.000272942
0.000272792
0.000257397
0.000257397
0.000272941
0.000272941
0.000257391
0.000272942
0.000278206
0.000291109
0.000293663
0.000280719
0.000293651
0.000280727
0.00027819
0.000278156
0.000293695
0.000293697
0.000278155
0.000278156
0.000293697
0.000293697
0.000278155
0.000272889
0.000270339
0.000259962
0.000257436
0.000270347
0.000272898
0.00025745
0.000272888
0.000270338
0.000259961
0.000257435
0.000270347
0.000272898
0.00025745
0.000272936
0.0002574
0.000272936
0.000257403
0.000272936
0.000257398
0.000272936
0.000257403
0.000293699
0.000278152
0.000293699
0.000278152
0.000272791
0.000257395
0.000257396
0.000272941
0.000272942
0.000257389
0.000272942
0.000257389
0.000272942
0.00025217
0.000236636
0.000252172
0.000236638
0.000252167
0.000252168
0.000236744
0.000236641
0.000236642
0.00021586
0.000231399
0.000215859
0.0002314
0.000231263
0.000215862
0.000215862
0.000231398
0.000231398
0.000236652
0.00025216
0.000252164
0.000236639
0.000236686
0.000252125
0.000249578
0.000239187
0.000252118
0.000236673
0.000239194
0.000236686
0.000252124
0.000249578
0.000239186
0.000252117
0.000236672
0.000239194
0.000231387
0.000215863
0.000231397
0.000215862
0.000231387
0.000215863
0.000231397
0.000215862
0.000231359
0.00022881
0.000215895
0.000218447
0.000231365
0.00022882
0.000215901
0.000231359
0.000228809
0.000215895
0.000218447
0.000231365
0.000228819
0.000215901
0.000252165
0.000252166
0.000236743
0.00023664
0.00023664
0.000252167
0.000236635
0.000215859
0.000231398
0.000231262
0.000215861
0.000215861
0.000231397
0.000231397
0.000215859
0.000231397
0.000236688
0.000252125
0.000249578
0.000239187
0.000252119
0.000236675
0.000239195
0.000236655
0.000252162
0.000252165
0.000236642
0.000236688
0.000249579
0.000252126
0.000239187
0.000252119
0.000239195
0.000236675
0.00023139
0.000215864
0.000231399
0.000215863
0.000231361
0.000228809
0.000215896
0.000218448
0.000231367
0.00022882
0.000215902
0.00023139
0.000215864
0.000231399
0.000215863
0.000231361
0.000228811
0.000218448
0.000215896
0.000228821
0.000231367
0.000215902
0.000236652
0.000252159
0.000252164
0.000236639
0.000236686
0.000249578
0.000252125
0.000239186
0.000252117
0.000239194
0.000236673
0.000236652
0.000252161
0.000252164
0.000236639
0.000231358
0.000228809
0.000215896
0.000218447
0.000231365
0.000228819
0.000215901
0.000231387
0.000215864
0.000231397
0.000215862
0.000231359
0.000228809
0.000218447
0.000215895
0.00022882
0.000231365
0.000215901
0.000231387
0.000215863
0.000231397
0.000215862
0.000252169
0.000252168
0.000236744
0.000236643
0.000236642
0.000252172
0.000236637
0.00021586
0.000231399
0.000231264
0.000215862
0.000215862
0.000231399
0.000231399
0.00021586
0.0002314
0.000236687
0.000249578
0.000252125
0.000239186
0.000252118
0.000239194
0.000236673
0.000236653
0.000252163
0.000252165
0.000236641
0.000236653
0.000252161
0.000252165
0.00023664
0.000231359
0.00022881
0.000218447
0.000215895
0.00022882
0.000231367
0.000215901
0.000231359
0.000228809
0.000218447
0.000215895
0.00022882
0.000231365
0.000215901
0.000231388
0.000215863
0.000231398
0.000215862
0.000231387
0.000215863
0.000231397
0.000215862
0.00025217
0.000236636
0.00025217
0.000236636
0.000231262
0.000215862
0.000215861
0.000231397
0.000231397
0.00021586
0.000231398
0.000215859
0.000231399
0.000210664
0.000195073
0.000210664
0.000195071
0.000210662
0.000210662
0.000195229
0.000195084
0.000195081
0.000174306
0.000189909
0.000174306
0.000189908
0.000189728
0.000174342
0.000174342
0.000189892
0.00018989
0.000195062
0.000210657
0.000210671
0.000195086
0.000195142
0.000210623
0.000208071
0.00019768
0.000210626
0.000195129
0.000197683
0.000195142
0.000210624
0.000208072
0.00019768
0.000210626
0.000195129
0.000197683
0.000189906
0.00017433
0.000189897
0.000174377
0.000189906
0.00017433
0.000189898
0.000174377
0.000189833
0.000187285
0.000174392
0.000176899
0.000189848
0.000187287
0.000174413
0.000189833
0.000187285
0.000174393
0.000176899
0.000189849
0.000187288
0.000174413
0.000210661
0.000210661
0.00019523
0.000195088
0.000195088
0.000210665
0.000195074
0.000174306
0.00018991
0.000189728
0.000174342
0.000174343
0.000189892
0.000189892
0.000174305
0.00018991
0.000195141
0.000210624
0.000208071
0.00019768
0.000210626
0.000195127
0.000197683
0.000195061
0.000210656
0.000210672
0.000195086
0.000195141
0.000208072
0.000210623
0.00019768
0.000210626
0.000197683
0.000195129
0.000189905
0.000174329
0.000189897
0.000174376
0.000189832
0.000187284
0.000174391
0.000176899
0.000189848
0.000187287
0.000174413
0.000189905
0.000174329
0.000189897
0.000174376
0.000189832
0.000187284
0.000176899
0.000174392
0.000187287
0.000189848
0.000174413
0.000195062
0.000210657
0.000210671
0.000195087
0.000195142
0.000208072
0.000210624
0.00019768
0.000210626
0.000197683
0.000195129
0.000195062
0.000210657
0.000210671
0.000195086
0.000189833