/*--------------------------------*- C++ -*----------------------------------*\
| =========                 |                                                 |
| \\      /  F ield         | OpenFOAM: The Open Source CFD Toolbox           |
|  \\    /   O peration     | Version:  2206                                  |
|   \\  /    A nd           | Website:  www.openfoam.com                      |
|    \\/     M anipulation  |                                                 |
\*---------------------------------------------------------------------------*/
FoamFile
{
    version     2.0;
    format      ascii;
    arch        "LSB;label=32;scalar=64";
    class       volVectorField;
    location    "30.5";
    object      U;
}
// * * * * * * * * * * * * * * * * * * * * * * * * * * * * * * * * * * * * * //

dimensions      [0 1 -1 0 0 0 0];

internalField   nonuniform List<vector> 
28673
(
(-5.32061e-07 8.05705e-07 0.103301)
(-4.54373e-05 -4.54452e-05 0.103188)
(-7.83092e-07 -7.88819e-07 0.103382)
(-5.23038e-07 7.99174e-07 0.103301)
(8.04731e-07 -5.193e-07 0.103301)
(-4.54314e-05 -4.5442e-05 0.103188)
(-7.85917e-07 -7.9116e-07 0.103382)
(-5.15854e-07 7.95137e-07 0.103301)
(8.0232e-07 -5.15557e-07 0.103301)
(-4.54245e-05 -4.54368e-05 0.103188)
(-7.92033e-07 -7.98281e-07 0.103382)
(-5.08184e-07 7.94667e-07 0.1033)
(7.95675e-07 -5.03642e-07 0.1033)
(-4.54165e-05 -4.54256e-05 0.103188)
(-8.15885e-07 -8.08801e-07 0.103382)
(-5.02769e-07 7.94551e-07 0.1033)
(7.67878e-07 -4.75169e-07 0.1033)
(-4.5392e-05 -4.54005e-05 0.103187)
(-8.498e-07 -8.27222e-07 0.103382)
(-4.65161e-07 7.65666e-07 0.1033)
(7.21015e-07 -4.28021e-07 0.1033)
(-4.53439e-05 -4.53379e-05 0.103187)
(-7.51289e-07 -7.25595e-07 0.103382)
(-6.75555e-07 8.54304e-07 0.103301)
(8.74963e-07 -6.84477e-07 0.1033)
(-4.53277e-05 -4.53215e-05 0.103187)
(-6.73038e-07 -7.11611e-07 0.103383)
(-7.5801e-07 9.29804e-07 0.103301)
(9.67828e-07 -7.74786e-07 0.103301)
(-4.5173e-05 -4.52043e-05 0.103187)
(-6.02006e-07 -5.98557e-07 0.103384)
(-1.16054e-06 1.19366e-06 0.103301)
(1.18355e-06 -1.15292e-06 0.103301)
(-4.41979e-05 -4.42111e-05 0.103187)
(-3.83245e-07 -3.76688e-07 0.103386)
(-2.00122e-06 1.8183e-06 0.1033)
(1.814e-06 -1.99696e-06 0.1033)
(-4.31923e-05 -4.32051e-05 0.103187)
(-3.53145e-07 -3.38927e-07 0.103388)
(-3.62623e-06 3.1265e-06 0.103298)
(3.1178e-06 -3.61186e-06 0.103298)
(-4.01823e-05 -4.01866e-05 0.103188)
(-5.80043e-06 -5.74476e-06 0.103385)
(-2.4134e-06 3.47807e-06 0.103293)
(3.44259e-06 -2.39705e-06 0.103293)
(-2.65696e-05 -2.65455e-05 0.103189)
(-4.12805e-05 -4.11527e-05 0.103318)
(4.19638e-05 -3.39268e-05 0.103246)
(-3.40117e-05 4.19452e-05 0.103246)
(4.65031e-05 4.65455e-05 0.103151)
(-8.34768e-07 5.61618e-07 0.103301)
(4.76157e-05 -4.75902e-05 0.103193)
(-5.30077e-07 8.0562e-07 0.103301)
(-4.76116e-05 -4.75889e-05 0.103193)
(8.30104e-07 5.52303e-07 0.103301)
(-8.35341e-07 5.6296e-07 0.103301)
(8.30118e-07 5.39577e-07 0.103301)
(-8.29067e-07 5.56575e-07 0.103301)
(-4.54372e-05 4.54079e-05 0.103188)
(4.76199e-05 -4.75938e-05 0.103193)
(5.29225e-07 8.04796e-07 0.103301)
(5.51221e-07 -8.30111e-07 0.103301)
(-5.60869e-07 -8.22601e-07 0.103301)
(-5.24642e-07 8.00091e-07 0.103301)
(-5.53013e-07 -8.19989e-07 0.103301)
(-4.75842e-05 4.76198e-05 0.103193)
(-8.04589e-07 -5.42907e-07 0.103301)
(8.06043e-07 -5.20674e-07 0.103301)
(-7.99907e-07 -5.36631e-07 0.103301)
(4.75864e-05 4.76109e-05 0.103193)
(4.54374e-05 4.54184e-05 0.103188)
(-4.76154e-05 -4.75931e-05 0.103193)
(8.30389e-07 5.43101e-07 0.103301)
(-8.28277e-07 5.54358e-07 0.103301)
(8.28345e-07 5.34505e-07 0.1033)
(-8.26072e-07 5.50781e-07 0.1033)
(-4.54281e-05 4.53995e-05 0.103188)
(4.7626e-05 -4.76001e-05 0.103193)
(5.30003e-07 8.05342e-07 0.103301)
(5.49144e-07 -8.29895e-07 0.103301)
(5.22657e-07 8.01705e-07 0.103301)
(5.43415e-07 -8.26749e-07 0.1033)
(-5.52459e-07 -8.21197e-07 0.103301)
(-5.18472e-07 7.97819e-07 0.103301)
(-5.47022e-07 -8.1831e-07 0.1033)
(4.54182e-05 -4.5451e-05 0.103188)
(-4.75887e-05 4.76233e-05 0.103193)
(-7.99792e-07 -5.3734e-07 0.103301)
(8.02423e-07 -5.14271e-07 0.103301)
(-7.96008e-07 -5.33691e-07 0.103301)
(4.75924e-05 4.7615e-05 0.103193)
(4.54304e-05 4.54128e-05 0.103188)
(-4.76262e-05 -4.76058e-05 0.103193)
(8.26582e-07 5.38796e-07 0.1033)
(-8.23545e-07 5.48307e-07 0.1033)
(8.23146e-07 5.24619e-07 0.1033)
(-8.26276e-07 5.46732e-07 0.1033)
(-4.54203e-05 4.53922e-05 0.103188)
(4.76369e-05 -4.76109e-05 0.103193)
(5.23867e-07 8.02078e-07 0.103301)
(5.45484e-07 -8.29039e-07 0.1033)
(5.10598e-07 7.93391e-07 0.103301)
(5.30791e-07 -8.17466e-07 0.1033)
(-5.45794e-07 -8.17734e-07 0.1033)
(-5.14099e-07 7.9904e-07 0.103301)
(-5.36989e-07 -8.11468e-07 0.1033)
(4.54129e-05 -4.54466e-05 0.103188)
(-4.75973e-05 4.76361e-05 0.103193)
(-7.95145e-07 -5.33346e-07 0.103301)
(7.96425e-07 -5.00916e-07 0.1033)
(-7.89792e-07 -5.19572e-07 0.1033)
(4.76036e-05 4.76289e-05 0.103193)
(4.54217e-05 4.54002e-05 0.103188)
(-4.7647e-05 -4.76223e-05 0.103193)
(8.26886e-07 5.33381e-07 0.1033)
(-8.22521e-07 5.39666e-07 0.1033)
(8.08699e-07 5.01345e-07 0.1033)
(-8.22675e-07 5.30953e-07 0.1033)
(-4.54138e-05 4.53844e-05 0.103188)
(4.76584e-05 -4.76325e-05 0.103193)
(5.13633e-07 7.9776e-07 0.1033)
(5.28865e-07 -8.20901e-07 0.1033)
(4.88304e-07 7.84927e-07 0.1033)
(5.10127e-07 -8.08836e-07 0.1033)
(-5.41958e-07 -8.17903e-07 0.1033)
(-4.99514e-07 7.93039e-07 0.1033)
(-5.14976e-07 -7.98024e-07 0.1033)
(4.54033e-05 -4.54341e-05 0.103188)
(-4.76167e-05 4.76466e-05 0.103193)
(-7.9667e-07 -5.25179e-07 0.1033)
(7.84523e-07 -4.80383e-07 0.1033)
(-7.77532e-07 -4.96586e-07 0.1033)
(4.76236e-05 4.76488e-05 0.103193)
(4.5395e-05 4.53828e-05 0.103187)
(-4.76539e-05 -4.76044e-05 0.103193)
(8.05291e-07 5.15456e-07 0.1033)
(-8.25383e-07 5.33338e-07 0.1033)
(7.93569e-07 4.91848e-07 0.1033)
(-7.97346e-07 4.97663e-07 0.1033)
(-4.53927e-05 4.53632e-05 0.103187)
(4.76762e-05 -4.76532e-05 0.103193)
(4.7948e-07 7.80157e-07 0.1033)
(4.91153e-07 -7.95261e-07 0.1033)
(4.93665e-07 7.97956e-07 0.1033)
(5.30825e-07 -8.28134e-07 0.1033)
(-5.25406e-07 -8.01152e-07 0.1033)
(-4.69537e-07 7.66207e-07 0.1033)
(-5.05644e-07 -7.81339e-07 0.1033)
(4.53777e-05 -4.54166e-05 0.103187)
(-4.76121e-05 4.76278e-05 0.103193)
(-7.83815e-07 -5.03964e-07 0.1033)
(7.91725e-07 -4.88268e-07 0.1033)
(-7.74337e-07 -4.78389e-07 0.1033)
(4.76185e-05 4.76578e-05 0.103193)
(4.53368e-05 4.5346e-05 0.103187)
(-4.73397e-05 -4.72314e-05 0.103193)
(7.37261e-07 4.61958e-07 0.1033)
(-7.98862e-07 4.92446e-07 0.1033)
(8.9064e-07 6.91257e-07 0.1033)
(-9.46441e-07 6.99858e-07 0.1033)
(-4.53363e-05 4.53028e-05 0.103187)
(4.72589e-05 -4.72354e-05 0.103193)
(4.31908e-07 7.42756e-07 0.1033)
(4.55466e-07 -7.55714e-07 0.1033)
(5.90254e-07 9.30007e-07 0.1033)
(5.97308e-07 -9.01011e-07 0.1033)
(-4.73371e-07 -7.34404e-07 0.1033)
(-6.72272e-07 9.12613e-07 0.1033)
(-7.04853e-07 -9.10656e-07 0.1033)
(4.53344e-05 -4.53833e-05 0.103187)
(-4.73532e-05 4.73332e-05 0.103193)
(-7.37328e-07 -4.36532e-07 0.1033)
(8.39775e-07 -6.26879e-07 0.1033)
(-9.22297e-07 -6.62692e-07 0.1033)
(4.7233e-05 4.72821e-05 0.103193)
(4.52752e-05 4.53268e-05 0.103187)
(-4.73239e-05 -4.73742e-05 0.103194)
(8.99579e-07 7.17599e-07 0.1033)
(-8.85104e-07 7.03122e-07 0.1033)
(7.59126e-07 3.66961e-07 0.1033)
(-7.05206e-07 3.84749e-07 0.1033)
(-4.53097e-05 4.52783e-05 0.103187)
(4.74012e-05 -4.73715e-05 0.103194)
(6.72098e-07 9.15112e-07 0.1033)
(6.88405e-07 -9.25432e-07 0.1033)
(4.15762e-07 6.83377e-07 0.1033)
(4.47731e-07 -7.50788e-07 0.1033)
(-7.24751e-07 -8.96942e-07 0.1033)
(-3.49232e-07 6.80773e-07 0.1033)
(-3.83301e-07 -7.2772e-07 0.1033)
(4.52255e-05 -4.53048e-05 0.103187)
(-4.72712e-05 4.73475e-05 0.103194)
(-8.91305e-07 -6.99865e-07 0.1033)
(7.55014e-07 -3.80248e-07 0.1033)
(-6.81993e-07 -3.83297e-07 0.1033)
(4.73599e-05 4.73649e-05 0.103194)
(4.52291e-05 4.51498e-05 0.103187)
(-4.66238e-05 -4.65903e-05 0.103194)
(9.83239e-07 7.78224e-07 0.103301)
(-9.53785e-07 7.9232e-07 0.103301)
(4.96259e-07 2.22774e-08 0.1033)
(-5.06239e-07 3.89386e-08 0.1033)
(-4.51707e-05 4.51492e-05 0.103187)
(4.66184e-05 -4.6591e-05 0.103194)
(8.01393e-07 9.19715e-07 0.103301)
(8.26793e-07 -9.71202e-07 0.103301)
(2.52107e-09 4.72447e-07 0.1033)
(2.48293e-08 -4.94651e-07 0.1033)
(-7.87264e-07 -9.59624e-07 0.103301)
(-7.0218e-09 4.78128e-07 0.103301)
(-3.24651e-08 -4.93199e-07 0.1033)
(4.52283e-05 -4.52214e-05 0.103187)
(-4.66034e-05 4.66266e-05 0.103194)
(-9.19104e-07 -7.85932e-07 0.103301)
(4.66495e-07 2.17469e-09 0.1033)
(-4.68089e-07 -1.4505e-08 0.1033)
(4.65911e-05 4.66127e-05 0.103194)
(4.41973e-05 4.41895e-05 0.103187)
(-4.59903e-05 -4.59589e-05 0.103195)
(1.21065e-06 1.17712e-06 0.103301)
(-1.2212e-06 1.19318e-06 0.103301)
(-1.87719e-08 -5.71731e-07 0.103301)
(7.70697e-09 -5.58476e-07 0.103301)
(-4.42021e-05 4.41739e-05 0.103187)
(4.59909e-05 -4.59654e-05 0.103195)
(1.15808e-06 1.19239e-06 0.103301)
(1.17643e-06 -1.21305e-06 0.103301)
(-5.94829e-07 -3.52626e-08 0.103301)
(-5.66772e-07 1.29962e-08 0.103301)
(-1.18761e-06 -1.2057e-06 0.103301)
(5.91217e-07 -3.63773e-08 0.103301)
(5.65406e-07 1.95272e-08 0.103301)
(4.4172e-05 -4.42113e-05 0.103187)
(-4.59665e-05 4.59957e-05 0.103195)
(-1.18847e-06 -1.17063e-06 0.103301)
(-4.24551e-08 5.95703e-07 0.103301)
(3.84154e-08 5.90807e-07 0.103301)
(4.59586e-05 4.59859e-05 0.103195)
(4.31948e-05 4.31875e-05 0.103187)
(-4.36417e-05 -4.36103e-05 0.103195)
(1.83627e-06 2.02206e-06 0.1033)
(-1.84401e-06 2.03327e-06 0.1033)
(-1.22178e-06 -1.95508e-06 0.103303)
(1.21025e-06 -1.93999e-06 0.103303)
(-4.31939e-05 4.31673e-05 0.103187)
(4.36459e-05 -4.36151e-05 0.103195)
(2.00291e-06 1.8215e-06 0.1033)
(2.02304e-06 -1.83887e-06 0.1033)
(-1.98484e-06 -1.2365e-06 0.103303)
(-1.95572e-06 1.22378e-06 0.103303)
(-2.02414e-06 -1.82761e-06 0.1033)
(1.97526e-06 -1.23097e-06 0.103303)
(1.95204e-06 1.22176e-06 0.103303)
(4.31775e-05 -4.32092e-05 0.103187)
(-4.36211e-05 4.36463e-05 0.103195)
(-1.81606e-06 -2.00371e-06 0.1033)
(-1.24227e-06 1.98624e-06 0.103303)
(1.23478e-06 1.98054e-06 0.103303)
(4.36068e-05 4.36391e-05 0.103195)
(4.01763e-05 4.01789e-05 0.103188)
(-3.59366e-05 -3.58784e-05 0.103193)
(3.13547e-06 3.63985e-06 0.103298)
(-3.14508e-06 3.65862e-06 0.103298)
(-5.10926e-06 -6.70761e-06 0.103306)
(5.08728e-06 -6.6986e-06 0.103306)
(-4.01781e-05 4.01695e-05 0.103188)
(3.59036e-05 -3.5891e-05 0.103194)
(3.61707e-06 3.12269e-06 0.103298)
(3.63726e-06 -3.1364e-06 0.103298)
(-6.74756e-06 -5.09807e-06 0.103306)
(-6.72521e-06 5.10163e-06 0.103306)
(-3.64382e-06 -3.12672e-06 0.103298)
(6.72252e-06 -5.08067e-06 0.103306)
(6.71301e-06 5.10508e-06 0.103306)
(4.01705e-05 -4.0193e-05 0.103188)
(-3.59132e-05 3.59095e-05 0.103194)
(-3.11869e-06 -3.62342e-06 0.103298)
(-5.11098e-06 6.72856e-06 0.103306)
(5.10063e-06 6.73243e-06 0.103306)
(3.58891e-05 3.59149e-05 0.103194)
(2.65148e-05 2.65847e-05 0.103189)
(-4.23159e-05 -4.21354e-05 0.103161)
(3.44124e-06 2.44682e-06 0.103293)
(-3.46776e-06 2.45715e-06 0.103293)
(-3.49136e-05 -5.41482e-05 0.103281)
(3.491e-05 -5.41855e-05 0.103281)
(-2.65621e-05 2.6582e-05 0.103189)
(4.23141e-05 -4.21499e-05 0.103161)
(2.36184e-06 3.46357e-06 0.103293)
(2.38735e-06 -3.43925e-06 0.103293)
(-5.43495e-05 -3.48209e-05 0.103281)
(-5.42886e-05 3.49148e-05 0.103281)
(-2.40519e-06 -3.43491e-06 0.103293)
(5.43318e-05 -3.48331e-05 0.103281)
(5.42835e-05 3.49293e-05 0.103281)
(2.65309e-05 -2.65626e-05 0.103189)
(-4.22447e-05 4.23047e-05 0.103161)
(-3.44532e-06 -2.39627e-06 0.103293)
(-3.48963e-05 5.43047e-05 0.103281)
(3.49086e-05 5.43413e-05 0.103281)
(4.22529e-05 4.23053e-05 0.103161)
(-4.65591e-05 -4.63766e-05 0.103151)
(-3.40337e-05 -4.17748e-05 0.103246)
(3.40222e-05 -4.18064e-05 0.103246)
(4.65485e-05 -4.63791e-05 0.103151)
(-4.19837e-05 -3.39204e-05 0.103246)
(-4.19283e-05 3.40257e-05 0.103246)
(4.12737e-05 -4.11506e-05 0.103318)
(-4.12476e-05 4.12867e-05 0.103318)
(4.12708e-05 4.12988e-05 0.103318)
(4.19292e-05 3.40418e-05 0.103246)
(-4.64934e-05 4.65451e-05 0.103151)
(3.40241e-05 4.1981e-05 0.103246)
(7.98267e-08 -9.8536e-06 0.100339)
(6.68146e-07 7.05211e-06 0.0921418)
(-9.72124e-08 9.53112e-06 0.100322)
(-1.16549e-06 -6.80183e-06 0.0921651)
(-2.04943e-06 3.02869e-06 0.0796358)
(2.02634e-06 -2.95364e-06 0.0796594)
(-9.9206e-06 6.75371e-08 0.100338)
(-6.78437e-06 -1.15081e-06 0.0921648)
(7.85865e-07 -7.77263e-07 0.103382)
(7.8934e-07 7.70838e-07 0.103382)
(-7.83385e-07 -7.86101e-07 0.103382)
(7.91529e-07 -7.82415e-07 0.103382)
(-7.76021e-07 7.87803e-07 0.103382)
(7.91793e-07 7.71905e-07 0.103382)
(1.61035e-05 1.09756e-07 0.102667)
(-1.56754e-05 4.42272e-06 0.100768)
(-6.77169e-07 -2.02171e-07 0.103356)
(-5.29698e-07 8.03488e-07 0.103301)
(-1.62742e-05 -1.2364e-07 0.102659)
(1.49533e-05 -4.87844e-06 0.100795)
(-6.74672e-07 -2.03519e-07 0.103356)
(-2.79508e-06 1.94302e-06 0.0796603)
(1.07581e-07 1.60827e-05 0.102667)
(-2.01087e-07 -6.70906e-07 0.103356)
(8.05722e-07 -5.25453e-07 0.103301)
(-1.22545e-07 -1.62608e-05 0.102659)
(-2.0102e-07 -6.7356e-07 0.103356)
(-4.91485e-06 1.5014e-05 0.100794)
(-4.7039e-06 -5.75688e-06 0.0975517)
(-5.74685e-06 -4.69617e-06 0.0975509)
(4.75815e-05 4.76077e-05 0.103193)
(4.34746e-06 5.58339e-06 0.0975774)
(5.5817e-06 4.34046e-06 0.0975762)
(8.42459e-08 -9.87041e-06 0.100339)
(6.79309e-07 7.03028e-06 0.0921419)
(-9.57321e-08 9.5088e-06 0.100322)
(-1.13928e-06 -6.8293e-06 0.0921652)
(-2.03575e-06 2.99806e-06 0.0796358)
(2.02121e-06 -2.96909e-06 0.0796595)
(-9.93955e-06 6.69027e-08 0.100338)
(7.02453e-06 6.52221e-07 0.0921415)
(9.59093e-06 -8.10875e-08 0.100322)
(-6.80546e-06 -1.13053e-06 0.0921649)
(7.94182e-07 -7.84845e-07 0.103382)
(-7.75757e-07 7.88403e-07 0.103382)
(7.9555e-07 7.7304e-07 0.103382)
(-7.86539e-07 -7.89747e-07 0.103382)
(7.95203e-07 -7.85108e-07 0.103382)
(-7.79605e-07 7.90407e-07 0.103382)
(7.95734e-07 7.74277e-07 0.103382)
(1.61296e-05 1.09608e-07 0.102667)
(-1.5656e-05 4.40723e-06 0.100768)
(-6.6737e-07 -2.07165e-07 0.103356)
(-5.18868e-07 7.98312e-07 0.103301)
(-1.62467e-05 -1.25101e-07 0.102659)
(1.4977e-05 -4.90078e-06 0.100795)
(-6.60413e-07 -2.08129e-07 0.103356)
(2.88975e-06 -1.96952e-06 0.0796326)
(-2.84273e-06 1.95537e-06 0.0796602)
(1.10246e-07 1.6109e-05 0.102667)
(-1.9831e-07 -6.63829e-07 0.103356)
(4.45574e-06 -1.57176e-05 0.100768)
(8.04456e-07 -5.14862e-07 0.103301)
(-1.19823e-07 -1.62334e-05 0.102659)
(-1.98968e-07 -6.61597e-07 0.103356)
(-4.93603e-06 1.50364e-05 0.100794)
(-4.70213e-06 -5.74911e-06 0.0975518)
(-5.73749e-06 -4.69678e-06 0.097551)
(4.75876e-05 4.76104e-05 0.103193)
(4.34188e-06 5.59333e-06 0.0975774)
(5.59518e-06 4.33079e-06 0.0975762)
(8.60317e-08 -9.89106e-06 0.100339)
(6.66023e-07 7.00185e-06 0.0921421)
(-8.61811e-08 9.49098e-06 0.100321)
(-1.16956e-06 -6.84504e-06 0.0921655)
(-2.03338e-06 2.98619e-06 0.0796361)
(2.04323e-06 -2.98517e-06 0.0796599)
(-9.95404e-06 6.65719e-08 0.100338)
(6.99093e-06 6.61589e-07 0.0921417)
(9.57355e-06 -7.50935e-08 0.100322)
(-6.83356e-06 -1.13841e-06 0.0921651)
(7.99048e-07 -7.88685e-07 0.103382)
(-7.78342e-07 7.9055e-07 0.103382)
(7.9923e-07 7.75847e-07 0.103382)
(-7.90659e-07 -7.94227e-07 0.103382)
(7.99078e-07 -7.8839e-07 0.103382)
(-7.85239e-07 7.96794e-07 0.103382)
(7.99434e-07 7.81168e-07 0.103382)
(1.61521e-05 1.07237e-07 0.102667)
(-1.56389e-05 4.37874e-06 0.100768)
(-6.57199e-07 -2.09594e-07 0.103356)
(-5.07862e-07 7.90227e-07 0.103301)
(-1.62264e-05 -1.26431e-07 0.102659)
(1.50048e-05 -4.92939e-06 0.100795)
(-6.47172e-07 -2.10131e-07 0.103356)
(2.86353e-06 -1.95942e-06 0.0796328)
(-2.85888e-06 1.96737e-06 0.0796605)
(1.07425e-07 1.61301e-05 0.102667)
(-2.0024e-07 -6.57159e-07 0.103356)
(4.43135e-06 -1.57022e-05 0.100768)
(8.01897e-07 -5.07947e-07 0.103301)
(-1.20974e-07 -1.6217e-05 0.102659)
(-2.00221e-07 -6.5269e-07 0.103356)
(-4.96084e-06 1.50578e-05 0.100794)
(-4.69888e-06 -5.74507e-06 0.0975519)
(-5.72943e-06 -4.69662e-06 0.0975511)
(4.75971e-05 4.76195e-05 0.103193)
(4.34942e-06 5.59933e-06 0.0975775)
(5.60214e-06 4.33708e-06 0.0975763)
(8.30262e-08 -9.91011e-06 0.100339)
(6.75967e-07 6.96914e-06 0.0921425)
(-9.1083e-08 9.46891e-06 0.100321)
(-1.15903e-06 -6.87668e-06 0.0921659)
(-2.00238e-06 2.95673e-06 0.0796368)
(2.02081e-06 -3.00614e-06 0.0796607)
(-9.98754e-06 7.12859e-08 0.100338)
(6.97512e-06 6.53555e-07 0.092142)
(9.56004e-06 -7.85123e-08 0.100322)
(-6.86495e-06 -1.15317e-06 0.0921655)
(8.06322e-07 -7.96137e-07 0.103382)
(-7.86218e-07 7.9728e-07 0.103382)
(8.04372e-07 7.8381e-07 0.103382)
(-8.03079e-07 -8.01385e-07 0.103382)
(8.00184e-07 -7.9204e-07 0.103382)
(-7.94129e-07 8.03652e-07 0.103382)
(8.04477e-07 7.90294e-07 0.103382)
(1.61802e-05 1.07718e-07 0.102667)
(-1.56087e-05 4.37601e-06 0.100768)
(-6.44173e-07 -2.12571e-07 0.103356)
(-4.91973e-07 7.83359e-07 0.1033)
(-1.61971e-05 -1.28069e-07 0.102658)
(1.50196e-05 -4.93863e-06 0.100795)
(-6.32149e-07 -2.13732e-07 0.103356)
(2.85198e-06 -1.96283e-06 0.0796333)
(-2.88763e-06 1.99082e-06 0.0796612)
(1.07203e-07 1.6162e-05 0.102667)
(-2.02696e-07 -6.40455e-07 0.103356)
(4.41961e-06 -1.56754e-05 0.100768)
(8.0564e-07 -5.05374e-07 0.1033)
(-1.17153e-07 -1.6187e-05 0.102658)
(-2.02557e-07 -6.43872e-07 0.103356)
(-4.97128e-06 1.50885e-05 0.100794)
(-4.69084e-06 -5.74765e-06 0.097552)
(-5.73732e-06 -4.68425e-06 0.0975512)
(4.76064e-05 4.76314e-05 0.103193)
(4.34924e-06 5.59861e-06 0.0975776)
(5.59661e-06 4.34141e-06 0.0975764)
(9.23122e-08 -9.93613e-06 0.100339)
(6.51784e-07 6.94483e-06 0.0921428)
(-1.00914e-07 9.43341e-06 0.100321)
(-1.19168e-06 -6.79253e-06 0.0921667)
(-2.02877e-06 2.96548e-06 0.0796379)
(2.04039e-06 -3.00297e-06 0.0796618)
(-9.98638e-06 9.53765e-08 0.100338)
(6.93312e-06 6.58455e-07 0.0921424)
(9.49647e-06 -8.52855e-08 0.100322)
(-6.78302e-06 -1.19172e-06 0.0921663)
(8.09884e-07 -8.03209e-07 0.103382)
(-8.1142e-07 8.16007e-07 0.103382)
(8.12876e-07 8.00376e-07 0.103382)
(-7.90851e-07 -7.84281e-07 0.103381)
(7.88178e-07 -7.82398e-07 0.103381)
(-7.7526e-07 7.87711e-07 0.103381)
(7.87671e-07 7.81439e-07 0.103381)
(1.61684e-05 1.13875e-07 0.102666)
(-1.55798e-05 4.34142e-06 0.100768)
(-6.2094e-07 -2.17611e-07 0.103356)
(-5.16166e-07 8.07287e-07 0.1033)
(-1.61677e-05 -1.29257e-07 0.102658)
(1.49715e-05 -4.96057e-06 0.100795)
(-6.63366e-07 -2.03054e-07 0.103356)
(2.84035e-06 -1.95407e-06 0.0796341)
(-2.88604e-06 2.01738e-06 0.0796623)
(1.08168e-07 1.61561e-05 0.102666)
(-2.19187e-07 -6.01721e-07 0.103356)
(4.39681e-06 -1.56311e-05 0.100768)
(8.0559e-07 -5.17642e-07 0.1033)
(-1.25055e-07 -1.61596e-05 0.102658)
(-2.05737e-07 -6.6597e-07 0.103356)
(-4.9988e-06 1.50263e-05 0.100794)
(-4.664e-06 -5.74237e-06 0.097552)
(-5.73304e-06 -4.65597e-06 0.0975511)
(4.76029e-05 4.76343e-05 0.103193)
(4.32074e-06 5.67634e-06 0.0975777)
(5.66599e-06 4.31922e-06 0.0975766)
(6.95681e-07 -9.7744e-06 0.10034)
(6.89167e-07 6.37447e-06 0.0921408)
(-3.41841e-07 9.45232e-06 0.100321)
(-1.43903e-06 -5.35879e-06 0.0921749)
(-2.2388e-06 2.81976e-06 0.0796389)
(2.35007e-06 -2.44645e-06 0.0796641)
(-9.81643e-06 7.24615e-07 0.100339)
(6.32225e-06 7.27847e-07 0.0921403)
(9.46197e-06 -2.81404e-07 0.100321)
(-5.39585e-06 -1.36609e-06 0.0921744)
(8.1447e-07 -8.11177e-07 0.103382)
(-8.38152e-07 8.45361e-07 0.103382)
(8.29284e-07 8.36253e-07 0.103382)
(-6.82831e-07 -6.18374e-07 0.103381)
(6.06298e-07 -6.03677e-07 0.103381)
(-6.95162e-07 6.67336e-07 0.103381)
(6.24872e-07 6.32344e-07 0.103381)
(1.58112e-05 3.48659e-07 0.102666)
(-1.50483e-05 4.33342e-06 0.100767)
(-5.53548e-07 -2.25117e-07 0.103356)
(-5.69827e-07 8.78003e-07 0.1033)
(-1.60451e-05 -1.88009e-07 0.102658)
(1.3616e-05 -4.65148e-06 0.100797)
(-7.25265e-07 -1.36432e-07 0.103355)
(2.71014e-06 -2.04944e-06 0.0796347)
(-2.40171e-06 2.56362e-06 0.0796651)
(2.82669e-07 1.5834e-05 0.102666)
(-2.50908e-07 -5.15905e-07 0.103356)
(4.34864e-06 -1.50706e-05 0.100767)
(7.56049e-07 -4.82451e-07 0.1033)
(-2.20804e-07 -1.60335e-05 0.102658)
(-1.99127e-07 -6.63345e-07 0.103355)
(-4.87506e-06 1.37571e-05 0.100796)
(-4.23818e-06 -5.93085e-06 0.0975521)
(-5.94148e-06 -4.21967e-06 0.0975513)
(4.75599e-05 4.76095e-05 0.103193)
(3.131e-06 5.78729e-06 0.0975778)
(5.7642e-06 3.14078e-06 0.0975766)
(3.03042e-06 -7.34465e-06 0.100343)
(2.64756e-06 3.66871e-06 0.0921149)
(-2.37259e-06 8.00113e-06 0.10032)
(-4.69614e-06 -2.6958e-06 0.0922121)
(-3.98574e-06 6.42139e-07 0.0796276)
(3.91989e-06 1.1159e-06 0.0796817)
(-7.4334e-06 3.00428e-06 0.100342)
(3.45012e-06 2.62765e-06 0.0921148)
(7.88325e-06 -2.29822e-06 0.100321)
(-2.69012e-06 -4.76937e-06 0.0922125)
(7.37633e-07 -7.30804e-07 0.103382)
(-7.53442e-07 7.49083e-07 0.103382)
(7.3806e-07 7.22441e-07 0.103382)
(-7.61039e-07 -8.1112e-07 0.103381)
(8.28897e-07 -8.15548e-07 0.103381)
(-7.40049e-07 7.7604e-07 0.103381)
(8.21569e-07 7.80206e-07 0.103381)
(1.40245e-05 7.91764e-07 0.102667)
(-1.28219e-05 3.34948e-06 0.10076)
(-7.57451e-07 -2.27312e-07 0.103356)
(-5.59234e-07 7.96662e-07 0.1033)
(-1.50757e-05 -6.76404e-07 0.102658)
(1.19813e-05 -2.41591e-06 0.100808)
(-8.77205e-07 -1.24918e-07 0.103355)
(5.05313e-07 -4.06813e-06 0.0796261)
(1.2222e-06 3.78983e-06 0.0796836)
(8.00979e-07 1.40144e-05 0.102667)
(-2.48695e-07 -7.56823e-07 0.103356)
(3.27757e-06 -1.28062e-05 0.10076)
(8.81956e-07 -5.9931e-07 0.1033)
(-7.31426e-07 -1.50519e-05 0.102658)
(-9.06077e-08 -9.0482e-07 0.103355)
(-2.37115e-06 1.20275e-05 0.100807)
(-9.93498e-07 -4.89952e-06 0.0975481)
(-4.90103e-06 -9.88288e-07 0.0975472)
(4.71183e-05 4.71385e-05 0.103193)
(4.47124e-07 3.0739e-06 0.0975922)
(3.10409e-06 4.38326e-07 0.097591)
(2.22959e-06 -1.32342e-05 0.100356)
(1.69557e-06 6.55318e-06 0.0920673)
(-2.6214e-06 1.23343e-05 0.100308)
(-1.67075e-07 -5.80848e-06 0.0922616)
(-1.24088e-06 1.74812e-07 0.07959)
(1.45939e-06 -1.44894e-07 0.0797182)
(-1.32365e-05 2.20466e-06 0.100355)
(6.65566e-06 1.65365e-06 0.0920673)
(1.24839e-05 -2.6797e-06 0.100308)
(-5.6927e-06 -1.47654e-07 0.0922616)
(7.23022e-07 -7.09263e-07 0.103383)
(-6.56493e-07 6.85544e-07 0.103383)
(7.2174e-07 6.85576e-07 0.103383)
(-8.78304e-07 -8.79785e-07 0.10338)
(8.80333e-07 -8.7298e-07 0.10338)
(-8.7296e-07 8.80361e-07 0.10338)
(8.83884e-07 8.68811e-07 0.10338)
(1.63055e-05 5.33743e-07 0.102671)
(-1.42058e-05 8.27744e-07 0.10074)
(-6.99526e-07 -2.70842e-07 0.103357)
(-1.4995e-07 5.42e-07 0.1033)
(-1.75307e-05 -5.9354e-07 0.102655)
(1.1927e-05 -7.38576e-07 0.100828)
(-5.88004e-07 -1.57094e-07 0.103355)
(9.29419e-08 -1.15871e-06 0.0795874)
(-2.05872e-08 1.41394e-06 0.079719)
(5.57406e-07 1.62847e-05 0.102671)
(-2.2452e-07 -7.16577e-07 0.103357)
(9.8904e-07 -1.43078e-05 0.10074)
(5.5134e-07 -1.51563e-07 0.1033)
(-5.23363e-07 -1.75539e-05 0.102655)
(-1.3138e-07 -6.00528e-07 0.103355)
(-7.43604e-07 1.19528e-05 0.100827)
(-2.86954e-06 9.86531e-07 0.0975113)
(9.94437e-07 -2.89236e-06 0.0975105)
(4.71583e-05 4.71703e-05 0.103194)
(6.61697e-07 -1.76867e-06 0.0976297)
(-1.75559e-06 6.56876e-07 0.0976285)
(3.7019e-06 -8.38721e-06 0.100366)
(3.32084e-06 1.33803e-06 0.0920054)
(-3.12884e-06 8.03986e-06 0.100305)
(-2.97817e-06 2.42495e-06 0.0923404)
(2.97317e-08 -3.3924e-06 0.079569)
(-2.22727e-06 7.28002e-06 0.0797339)
(-8.42158e-06 3.72034e-06 0.100366)
(1.28119e-06 3.33091e-06 0.0920049)
(8.09043e-06 -3.12222e-06 0.100305)
(2.47499e-06 -2.95364e-06 0.0923402)
(5.999e-07 -5.92556e-07 0.103384)
(-5.9614e-07 6.01399e-07 0.103384)
(6.03132e-07 5.90586e-07 0.103384)
(-8.77183e-07 -8.69377e-07 0.103379)
(8.71959e-07 -8.68849e-07 0.103379)
(-8.70249e-07 8.74975e-07 0.103379)
(8.68816e-07 8.70978e-07 0.103379)
(1.41989e-05 8.43617e-07 0.102673)
(-7.89497e-06 -1.87156e-06 0.100725)
(-7.18977e-07 -2.74835e-07 0.103358)
(1.98685e-07 3.05179e-07 0.103301)
(-1.34187e-05 -8.5995e-07 0.102656)
(5.45876e-06 2.59262e-06 0.100847)
(-5.92614e-07 -5.19251e-08 0.103354)
(-3.48443e-06 8.14345e-08 0.0795663)
(7.34575e-06 -2.24916e-06 0.0797344)
(8.32406e-07 1.4192e-05 0.102673)
(-2.76269e-07 -7.15225e-07 0.103358)
(-1.856e-06 -7.94817e-06 0.100725)
(2.95296e-07 2.04772e-07 0.103301)
(-8.63321e-07 -1.34295e-05 0.102656)
(-5.61301e-08 -5.92798e-07 0.103354)
(2.55508e-06 5.50397e-06 0.100846)
(2.32404e-06 6.05549e-06 0.0974732)
(6.05225e-06 2.3274e-06 0.0974725)
(4.64325e-05 4.64571e-05 0.103194)
(-5.06789e-06 -1.05908e-05 0.0976795)
(-1.0589e-05 -5.06212e-06 0.0976782)
(5.55277e-06 -6.38184e-06 0.100402)
(4.64622e-06 -6.78545e-06 0.0918797)
(-5.15027e-06 6.40387e-06 0.100277)
(-3.31432e-06 1.1265e-05 0.0924974)
(5.76449e-06 -1.6362e-05 0.0795447)
(-9.38269e-06 2.26159e-05 0.0797595)
(-6.37573e-06 5.57072e-06 0.100402)
(-6.85856e-06 4.65961e-06 0.0918793)
(6.41722e-06 -5.15127e-06 0.100278)
(1.13558e-05 -3.30687e-06 0.0924971)
(3.78708e-07 -3.74157e-07 0.103386)
(-3.76663e-07 3.81309e-07 0.103386)
(3.74525e-07 3.77675e-07 0.103386)
(-7.21053e-07 -7.09802e-07 0.103377)
(7.1454e-07 -7.08526e-07 0.103377)
(-7.13398e-07 7.21238e-07 0.103377)
(7.10842e-07 7.19682e-07 0.103377)
(1.18151e-05 1.08366e-06 0.102677)
(-2.41404e-06 -4.77214e-06 0.100697)
(-8.6632e-07 -2.94657e-07 0.10336)
(1.13991e-06 -4.72602e-07 0.103302)
(-1.23553e-05 -1.12939e-06 0.102652)
(-1.85062e-06 6.63037e-06 0.100877)
(-4.90903e-07 9.56768e-08 0.103352)
(-1.64e-05 5.80835e-06 0.0795425)
(2.25841e-05 -9.39834e-06 0.0797596)
(1.07604e-06 1.18184e-05 0.102677)
(-2.96548e-07 -8.62217e-07 0.10336)
(-4.75953e-06 -2.45047e-06 0.100697)
(-4.83097e-07 1.14965e-06 0.103302)
(-1.1308e-06 -1.23647e-05 0.102652)
(9.2499e-08 -4.86216e-07 0.103352)
(6.61732e-06 -1.82117e-06 0.100876)
(8.97311e-06 1.67792e-05 0.0973944)
(1.67712e-05 8.96637e-06 0.0973938)
(4.48194e-05 4.48415e-05 0.103194)
(-1.2449e-05 -2.34164e-05 0.0977774)
(-2.33962e-05 -1.24113e-05 0.0977761)
(7.01999e-06 -1.83589e-06 0.100475)
(4.60804e-06 -2.09407e-05 0.0916503)
(-6.81076e-06 3.10898e-06 0.100221)
(-5.21173e-06 2.93007e-05 0.0927889)
(1.71402e-05 -3.92898e-05 0.0795232)
(-2.48045e-05 5.25546e-05 0.0797745)
(-1.77835e-06 7.04808e-06 0.100475)
(-2.10875e-05 4.62497e-06 0.0916499)
(3.07485e-06 -6.80643e-06 0.100221)
(2.94459e-05 -5.19743e-06 0.0927888)
(3.43663e-07 -3.36097e-07 0.103388)
(-3.4557e-07 3.52316e-07 0.103388)
(3.42907e-07 3.53582e-07 0.103388)
(-2.52059e-06 -2.48085e-06 0.103371)
(2.50156e-06 -2.47859e-06 0.103371)
(-2.49977e-06 2.51596e-06 0.103371)
(2.4945e-06 2.52148e-06 0.103371)
(8.52485e-06 1.12806e-06 0.10268)
(7.27629e-06 -9.38377e-06 0.100665)
(-8.79216e-07 -4.10293e-07 0.103362)
(3.39196e-06 -2.49062e-06 0.103304)
(-9.38432e-06 -1.27251e-06 0.102647)
(-1.22963e-05 9.69835e-06 0.100912)
(3.19824e-08 2.40249e-07 0.10335)
(-3.92761e-05 1.71483e-05 0.079522)
(5.25848e-05 -2.48442e-05 0.079774)
(1.11229e-06 8.52643e-06 0.10268)
(-4.14808e-07 -8.69468e-07 0.103362)
(-9.3757e-06 7.24765e-06 0.100665)
(-2.50729e-06 3.40854e-06 0.103304)
(-1.28055e-06 -9.39001e-06 0.102647)
(2.26214e-07 4.29262e-08 0.10335)
(9.66604e-06 -1.22699e-05 0.100912)
(1.90909e-05 3.32519e-05 0.0972589)
(3.32e-05 1.90783e-05 0.0972583)
(4.06085e-05 4.06388e-05 0.103194)
(-2.50691e-05 -4.10189e-05 0.0979475)
(-4.09932e-05 -2.50416e-05 0.0979461)
(4.62597e-06 -4.76054e-06 0.10063)
(1.55932e-06 -4.79352e-05 0.0912141)
(-7.7002e-06 -5.276e-06 0.100115)
(7.78203e-06 5.59397e-05 0.0933746)
(4.63379e-05 -9.00454e-05 0.0795205)
(-6.82551e-05 0.000124232 0.0797858)
(-4.74782e-06 4.63333e-06 0.10063)
(-4.82465e-05 1.61605e-06 0.0912136)
(-5.33464e-06 -7.71939e-06 0.100114)
(5.61145e-05 7.69876e-06 0.0933746)
(5.77794e-06 -5.73938e-06 0.103385)
(-5.77107e-06 5.79416e-06 0.103385)
(5.76783e-06 5.80415e-06 0.103385)
(-2.75106e-05 -2.74067e-05 0.103317)
(2.75088e-05 -2.74106e-05 0.103317)
(-2.74826e-05 2.75244e-05 0.103317)
(2.74996e-05 2.75333e-05 0.103317)
(2.33379e-05 -3.71603e-07 0.102668)
(2.15689e-05 -1.35414e-05 0.10064)
(4.99614e-06 -2.11724e-06 0.103362)
(1.85853e-05 -1.26252e-05 0.103303)
(-3.36757e-07 -1.49736e-06 0.102655)
(-9.08621e-06 2.99551e-06 0.100956)
(1.2346e-05 -2.14734e-06 0.103335)
(-9.00122e-05 4.63507e-05 0.0795194)
(0.000123937 -6.80899e-05 0.0797853)
(-3.99097e-07 2.33066e-05 0.102668)
(-2.14808e-06 4.98795e-06 0.103362)
(-1.3563e-05 2.15652e-05 0.10064)
(-1.26754e-05 1.85827e-05 0.103303)
(-1.52411e-06 -3.41984e-07 0.102655)
(-2.18896e-06 1.23031e-05 0.103335)
(2.91566e-06 -9.06511e-06 0.100956)
(3.8859e-05 5.70562e-05 0.0970322)
(5.69392e-05 3.88599e-05 0.0970317)
(3.29198e-05 3.30102e-05 0.103189)
(-4.56237e-05 -6.14602e-05 0.0982595)
(-6.15123e-05 -4.54601e-05 0.0982579)
(-1.9608e-05 -0.000124439 0.101133)
(-0.000129488 -0.000180152 0.0908448)
(-2.2422e-05 -8.00026e-05 0.0999824)
(-0.000264608 -0.000126712 0.0953346)
(0.000274799 -0.000428665 0.080303)
(0.000158855 -0.000339002 0.0884243)
(-0.000124626 -1.95227e-05 0.101133)
(-0.000180985 -0.000128831 0.0908439)
(-8.07266e-05 -2.23713e-05 0.0999821)
(-0.00012689 -0.000264581 0.0953338)
(-9.52508e-06 -9.42786e-06 0.103267)
(-1.28328e-05 -3.55745e-05 0.103329)
(-3.57108e-05 -1.2738e-05 0.103329)
(-4.27605e-05 -4.2609e-05 0.103237)
(-1.09624e-05 -1.08679e-05 0.103332)
(-1.05596e-05 -3.88271e-05 0.103258)
(-3.89772e-05 -1.04679e-05 0.103258)
(0.00011942 2.90358e-06 0.102568)
(0.000115073 -6.83335e-05 0.100816)
(5.87099e-05 -1.62052e-05 0.103296)
(5.5805e-05 -4.64649e-05 0.103178)
(7.89095e-05 -1.14516e-05 0.102697)
(7.3099e-05 -5.84083e-05 0.101061)
(5.78346e-05 -1.24434e-05 0.103228)
(-0.000428734 0.000274546 0.0803025)
(-0.000338954 0.000158623 0.0884242)
(2.90674e-06 0.000119336 0.102568)
(-1.62746e-05 5.8669e-05 0.103296)
(-6.84501e-05 0.000115065 0.100816)
(-4.65953e-05 5.57955e-05 0.103178)
(-1.14451e-05 7.88705e-05 0.102697)
(-1.25144e-05 5.78097e-05 0.103228)
(-5.853e-05 7.28844e-05 0.101061)
(0.000247596 9.72129e-05 0.097077)
(9.71361e-05 0.000247793 0.097077)
(5.92172e-05 5.92384e-05 0.103084)
(5.60282e-05 -5.55411e-05 0.100309)
(-5.57205e-05 5.6128e-05 0.10031)
(1.16418e-06 -6.80346e-06 0.0921649)
(4.91099e-06 -1.49913e-05 0.100794)
(2.00156e-06 -2.92161e-06 0.0796594)
(5.5265e-06 -4.28941e-06 0.097577)
(4.21704e-06 -5.4776e-06 0.0975795)
(2.78801e-06 -1.93559e-06 0.0796616)
(1.49466e-05 -4.87826e-06 0.100795)
(6.74011e-06 -1.14211e-06 0.0921657)
(2.06878e-06 3.06923e-06 0.0796371)
(-2.01509e-06 -2.94403e-06 0.0796605)
(-2.91383e-06 -2.00872e-06 0.0796587)
(5.75113e-06 4.70361e-06 0.0975524)