/*--------------------------------*- C++ -*----------------------------------*\
| =========                 |                                                 |
| \\      /  F ield         | OpenFOAM: The Open Source CFD Toolbox           |
|  \\    /   O peration     | Version:  2206                                  |
|   \\  /    A nd           | Website:  www.openfoam.com                      |
|    \\/     M anipulation  |                                                 |
\*---------------------------------------------------------------------------*/
FoamFile
{
    version     2.0;
    format      ascii;
    arch        "LSB;label=32;scalar=64";
    class       surfaceScalarField;
    location    "20.5";
    object      phi;
}
// * * * * * * * * * * * * * * * * * * * * * * * * * * * * * * * * * * * * * //

dimensions      [0 3 -1 0 0 0 0];

oriented        oriented;

internalField   nonuniform List<scalar> 
82717
(
1.24275e-09
1.32029e-09
-1.30883e-09
-1.2851e-09
0.00107771
-0.00107807
-1.19085e-06
-1.35509e-09
2.23574e-09
0.00107807
-2.41748e-07
1.19309e-06
2.4087e-07
8.73095e-07
-2.37113e-07
-8.7295e-07
2.34776e-07
-1.18547e-06
-1.33612e-09
2.23821e-09
0.00107773
-2.41724e-07
1.18768e-06
2.40838e-07
8.72922e-07
-2.39769e-07
-8.72828e-07
2.3743e-07
1.21891e-06
1.18558e-06
-2.23029e-07
-2.28281e-07
0.000263064
1.42874e-09
1.49127e-09
-0.00107771
-1.36845e-09
-1.37527e-09
0.00107771
-0.00107807
-1.19081e-06
-1.55217e-09
2.13269e-09
0.00107807
-2.41685e-07
1.19312e-06
2.40925e-07
8.73149e-07
-2.37023e-07
-8.72889e-07
2.34858e-07
-0.00107773
-1.18544e-06
-1.52272e-09
2.15091e-09
0.00107773
-2.41675e-07
1.1877e-06
2.40886e-07
8.72981e-07
-2.39656e-07
-8.72757e-07
2.37531e-07
-0.000265017
1.21888e-06
1.18555e-06
-2.22982e-07
-2.28235e-07
0.000263063
1.62087e-09
1.76831e-09
-0.00107771
-1.49275e-09
-1.4432e-09
0.00107771
-0.00107807
-1.19076e-06
-1.71149e-09
2.11691e-09
0.00107807
-2.4163e-07
1.19318e-06
2.41e-07
8.73242e-07
-2.36923e-07
-8.72828e-07
2.34988e-07
-0.00107773
-1.18538e-06
-1.76828e-09
2.00276e-09
0.00107773
-2.41611e-07
1.18779e-06
2.40986e-07
8.73075e-07
-2.39574e-07
-8.72709e-07
2.37658e-07
-0.000265016
1.21882e-06
1.18549e-06
-2.22929e-07
-2.28174e-07
0.000263063
1.97841e-09
2.3732e-09
-0.0010777
-1.79497e-09
-1.51242e-09
0.0010777
-0.00107807
-1.19069e-06
-1.94502e-09
2.19194e-09
0.00107807
-2.41582e-07
1.19323e-06
2.41024e-07
8.73427e-07
-2.36801e-07
-8.7269e-07
2.3513e-07
-0.00107773
-1.18525e-06
-2.28485e-09
1.69912e-09
0.00107773
-2.41477e-07
1.18798e-06
2.4118e-07
8.7331e-07
-2.39438e-07
-8.72556e-07
2.37876e-07
-0.000265016
1.21867e-06
1.18538e-06
-2.22806e-07
-2.28032e-07
0.000263062
-1.13006e-10
-3.95954e-11
-0.00107771
-6.41542e-10
-6.51898e-10
0.00107771
-0.00107807
-1.19109e-06
-2.01751e-10
2.50385e-09
0.00107807
-2.42043e-07
1.19298e-06
2.40734e-07
8.72693e-07
-2.37876e-07
-8.7356e-07
2.3422e-07
-0.00107773
-1.18585e-06
1.5393e-11
2.76354e-09
0.00107773
-2.42186e-07
1.18742e-06
2.40534e-07
8.72505e-07
-2.40523e-07
-8.73421e-07
2.368e-07
-0.000265016
1.21928e-06
1.18597e-06
-2.23555e-07
-2.2879e-07
0.000263063
1.20436e-09
1.30754e-09
-0.00107771
-1.27115e-09
-1.26906e-09
0.00107771
-0.00107807
-1.19087e-06
-1.37592e-09
2.20423e-09
0.00107807
-2.41764e-07
1.19311e-06
2.40904e-07
8.73177e-07
-2.37221e-07
-8.72992e-07
2.34814e-07
-0.00107773
-1.18549e-06
-1.33519e-09
2.16854e-09
0.00107773
-2.41733e-07
1.18775e-06
2.40939e-07
8.72985e-07
-2.39892e-07
-8.72892e-07
2.37465e-07
-0.000265017
1.21893e-06
1.18559e-06
-2.23038e-07
-2.28297e-07
0.000263064
1.05544e-09
1.3333e-09
-0.00107771
-1.26721e-09
-1.1829e-09
0.00107771
-0.00107807
-1.19093e-06
-1.3312e-09
2.37616e-09
0.00107807
-2.41837e-07
1.19306e-06
2.40827e-07
8.7316e-07
-2.37203e-07
-8.73015e-07
2.3482e-07
-0.00107773
-1.1855e-06
-1.38553e-09
2.21799e-09
0.00107773
-2.41762e-07
1.18773e-06
2.40905e-07
8.72987e-07
-2.39833e-07
-8.72886e-07
2.37496e-07
-0.000265017
1.21894e-06
1.18562e-06
-2.23058e-07
-2.28301e-07
0.000263064
1.14602e-09
1.26982e-09
-0.00107771
-1.22528e-09
-1.20428e-09
0.00107771
-0.00107807
-1.19086e-06
-1.39105e-09
2.19675e-09
0.00107807
-2.41735e-07
1.19313e-06
2.40946e-07
8.73153e-07
-2.37184e-07
-8.73009e-07
2.34828e-07
-0.00107773
-1.18551e-06
-1.37847e-09
2.23057e-09
0.00107773
-2.41767e-07
1.18772e-06
2.409e-07
8.72985e-07
-2.39834e-07
-8.72887e-07
2.37494e-07
-0.000265017
1.21894e-06
1.18562e-06
-2.23059e-07
-2.28303e-07
0.000263064
1.12087e-09
1.22866e-09
-0.0010777
-1.25021e-09
-1.27058e-09
0.0010777
-0.00107807
-1.19088e-06
-1.32443e-09
2.26564e-09
0.00107807
-2.44518e-07
1.19311e-06
2.43591e-07
8.73146e-07
-2.37238e-07
-8.73027e-07
2.3483e-07
-0.00107773
-1.18551e-06
-1.34251e-09
2.22966e-09
0.00107773
-2.41768e-07
1.18772e-06
2.40899e-07
8.72979e-07
-2.39838e-07
-8.72891e-07
2.37489e-07
-0.000265017
1.21894e-06
1.18562e-06
-2.23058e-07
-2.28306e-07
0.000263064
1.25553e-09
1.32406e-09
-0.0010777
-1.2719e-09
-1.2781e-09
0.0010777
-0.00107807
-1.19086e-06
-1.34208e-09
2.23133e-09
0.00107807
-2.4452e-07
1.1931e-06
2.43644e-07
8.73147e-07
-2.37231e-07
-8.73021e-07
2.34832e-07
-0.00107773
-1.1855e-06
-1.3456e-09
2.21821e-09
0.00107773
-2.41764e-07
1.18772e-06
2.40902e-07
8.7298e-07
-2.39837e-07
-8.72891e-07
2.3749e-07
-0.000265017
1.21894e-06
1.18562e-06
-2.23057e-07
-2.28305e-07
0.000263064
1.24042e-09
1.33054e-09
-0.0010777
-1.29126e-09
-1.2801e-09
0.0010777
-0.00107807
-1.19086e-06
-1.3445e-09
2.2346e-09
0.00107807
-2.44516e-07
1.1931e-06
2.4365e-07
8.7315e-07
-2.37228e-07
-8.73018e-07
2.34835e-07
-0.00107773
-1.1855e-06
-1.33422e-09
2.21651e-09
0.00107773
-2.41764e-07
1.18772e-06
2.40902e-07
8.72978e-07
-2.39839e-07
-8.72893e-07
2.37488e-07
-0.000265017
1.21894e-06
1.18562e-06
-2.23058e-07
-2.28306e-07
0.000263064
1.24847e-09
1.34238e-09
-0.0010777
-1.29893e-09
-1.2835e-09
0.0010777
-0.00107807
-1.19086e-06
-1.34806e-09
2.23422e-09
0.00107807
-2.44515e-07
1.1931e-06
2.43652e-07
8.7315e-07
-2.37229e-07
-8.73018e-07
2.34835e-07
-0.00107773
-1.1855e-06
-1.33639e-09
2.21348e-09
0.00107773
-2.41763e-07
1.18773e-06
2.40903e-07
8.72978e-07
-2.39839e-07
-8.72892e-07
2.37488e-07
-0.000265017
1.21894e-06
1.18562e-06
-2.23057e-07
-2.28305e-07
0.000263064
1.24077e-09
1.33973e-09
-0.0010777
-1.3e-09
-1.28009e-09
0.0010777
-0.00107807
-1.19087e-06
-1.33802e-09
2.23842e-09
0.00107807
-2.44516e-07
1.1931e-06
2.43651e-07
8.73148e-07
-2.37231e-07
-8.7302e-07
2.34833e-07
-0.00107773
-1.18551e-06
-1.32725e-09
2.21776e-09
0.00107773
-2.41765e-07
1.18772e-06
2.40901e-07
8.72977e-07
-2.39841e-07
-8.72894e-07
2.37486e-07
-0.000265017
1.21894e-06
1.18562e-06
-2.23059e-07
-2.28307e-07
0.000263064
1.23602e-09
1.33427e-09
-0.0010777
-1.29481e-09
-1.27657e-09
0.0010777
-0.00107807
-1.19087e-06
-1.33977e-09
2.239e-09
0.00107807
-2.44517e-07
1.1931e-06
2.43651e-07
8.73149e-07
-2.37231e-07
-8.7302e-07
2.34834e-07
-0.00107773
-1.18551e-06
-1.3246e-09
2.22156e-09
0.00107773
-2.41766e-07
1.18772e-06
2.40901e-07
8.72976e-07
-2.39843e-07
-8.72896e-07
2.37486e-07
-0.000265017
1.21895e-06
1.18562e-06
-2.23061e-07
-2.28309e-07
0.000263064
1.22422e-09
1.33144e-09
-0.0010777
-1.29168e-09
-1.27045e-09
0.0010777
-0.00107807
-1.19087e-06
-1.33331e-09
2.24387e-09
0.00107807
-2.44517e-07
1.1931e-06
2.43646e-07
8.73148e-07
-2.37231e-07
-8.7302e-07
2.34831e-07
-0.00107773
-1.18551e-06
-1.32218e-09
2.22371e-09
0.00107773
-2.41763e-07
1.18772e-06
2.40897e-07
8.72971e-07
-2.39837e-07
-8.72892e-07
2.37478e-07
-0.000265017
1.21894e-06
1.18562e-06
-2.23059e-07
-2.28305e-07
0.000263064
1.21932e-09
1.32943e-09
-0.0010777
-1.28929e-09
-1.26666e-09
0.0010777
-0.00107807
-1.19087e-06
-1.33947e-09
2.24023e-09
0.00107807
-2.4452e-07
1.1931e-06
2.43651e-07
8.73147e-07
-2.37231e-07
-8.73017e-07
2.34834e-07
-0.00107773
-1.1855e-06
-1.32333e-09
2.22117e-09
0.00107773
-2.41762e-07
1.18772e-06
2.40896e-07
8.72968e-07
-2.39836e-07
-8.72891e-07
2.37476e-07
-0.000265017
1.21894e-06
1.18562e-06
-2.23058e-07
-2.28305e-07
0.000263064
1.22532e-09
1.33574e-09
-0.0010777
-1.29777e-09
-1.27269e-09
0.0010777
-0.00107807
-1.19086e-06
-1.33495e-09
2.24235e-09
0.00107807
-2.44514e-07
1.1931e-06
2.43645e-07
8.7314e-07
-2.37221e-07
-8.73012e-07
2.34823e-07
-0.00107773
-1.1855e-06
-1.32395e-09
2.22414e-09
0.00107773
-2.41759e-07
1.18772e-06
2.40894e-07
8.72963e-07
-2.39827e-07
-8.72882e-07
2.37471e-07
-0.000265017
1.21894e-06
1.18561e-06
-2.23055e-07
-2.28302e-07
0.000263064
1.23796e-09
1.34985e-09
-0.0010777
-1.3011e-09
-1.27612e-09
0.0010777
-0.00107807
-1.19085e-06
-1.35419e-09
2.23677e-09
0.00107807
-2.44496e-07
1.19309e-06
2.43634e-07
8.7312e-07
-2.37191e-07
-8.72981e-07
2.34803e-07
-0.00107773
-1.18548e-06
-1.33973e-09
2.21791e-09
0.00107773
-2.41736e-07
1.18771e-06
2.40875e-07
8.72942e-07
-2.39792e-07
-8.7285e-07
2.37444e-07
-0.000265017
1.21892e-06
1.1856e-06
-2.23038e-07
-2.28283e-07
0.000263064
1.23182e-06
0.00107773
-1.22963e-06
2.48942e-07
-2.49894e-07
-8.78499e-07
2.37446e-07
-2.39926e-07
8.78587e-07
-1.19308e-06
0.000265061
-0.000263092
2.2547e-07
2.30286e-07
-1.19085e-06
2.40864e-07
-2.41747e-07
2.34749e-07
-2.37135e-07
1.22421e-06
1.18823e-06
-2.20516e-07
-2.25712e-07
0.000263069
-1.22641e-06
-1.19047e-06
0.000265035
-0.000263069
2.2276e-07
2.27953e-07
2.39418e-09
0.0010773
-2.49849e-07
1.2264e-06
2.48882e-07
8.7299e-07
-2.37124e-07
-8.72931e-07
2.34688e-07
-1.22963e-06
-1.08127e-09
-2.92351e-09
0.00107773
-2.49898e-07
1.23181e-06
2.48944e-07
8.78558e-07
-2.39908e-07
-8.78537e-07
2.3747e-07
0.0010773
-1.43463e-09
-0.0010773
2.32912e-09
-1.22419e-06
2.48925e-07
-2.49819e-07
-8.72858e-07
2.34785e-07
-2.37024e-07
8.7306e-07
1.23184e-06
0.00107773
-1.29397e-09
-0.00107773
2.21844e-09
-1.2296e-06
2.48988e-07
-2.49845e-07
-8.78436e-07
2.37534e-07
-2.39822e-07
8.78596e-07
-2.23256e-07
-2.28084e-07
0.000263092
-1.19312e-06
0.000265061
-0.000263092
2.25527e-07
2.30334e-07
2.23929e-09
0.00107834
-2.44489e-07
1.19044e-06
2.43576e-07
8.75838e-07
-2.39886e-07
-8.75659e-07
2.37502e-07
-1.22427e-06
-1.19945e-09
2.37321e-09
0.00107741
-2.49892e-07
1.22645e-06
2.48919e-07
8.75697e-07
-2.39852e-07
-8.75645e-07
2.37416e-07
0.00107834
-1.49072e-09
-0.00107834
2.14807e-09
-1.18821e-06
2.43626e-07
-2.44456e-07
-8.75597e-07
2.37592e-07
-2.39793e-07
8.75895e-07
1.22647e-06
0.00107741
-1.36069e-09
-0.00107741
2.30676e-09
-1.22426e-06
2.48955e-07
-2.49863e-07
-8.75576e-07
2.37508e-07
-2.39754e-07
8.7576e-07
-1.22205e-09
2.37008e-09
0.0010772
-2.44369e-07
1.22108e-06
2.43419e-07
8.73027e-07
-2.37095e-07
2.34664e-07
-8.72956e-07
-1.54691e-09
-0.00107807
2.11526e-09
-1.19081e-06
2.40924e-07
-2.41682e-07
-8.7289e-07
2.34846e-07
8.73142e-07
-2.37025e-07
1.2211e-06
0.0010772
-1.38337e-09
-0.0010772
2.31811e-09
-1.2189e-06
2.43457e-07
-2.44341e-07
-8.72898e-07
2.3475e-07
-2.37005e-07
8.73079e-07
-2.20707e-07
-2.28052e-07
0.000263051
-1.1877e-06
0.000265011
-0.000263051
2.22934e-07
2.30281e-07
-1.29439e-09
2.23078e-09
0.00107825
-2.41781e-07
1.18779e-06
2.40894e-07
8.70551e-07
-2.37187e-07
2.34797e-07
-8.70404e-07
-1.51668e-09
-0.00107773
2.16469e-09
-1.18545e-06
2.40878e-07
-2.41691e-07
-8.72715e-07
2.37499e-07
8.73034e-07
-2.39693e-07
1.18781e-06
0.00107825
-1.44754e-09
-0.00107825
2.16101e-09
-1.18557e-06
2.40934e-07
-2.41751e-07
-8.70347e-07
2.34882e-07
-2.37099e-07
8.70603e-07
-0.000263063
2.25252e-07
2.30505e-07
1.22418e-06
1.18821e-06
-2.20472e-07
-2.25668e-07
0.000263069
-1.22647e-06
-1.19317e-06
0.000265032
-0.000263068
2.25368e-07
2.30626e-07
2.30949e-09
0.00107729
-2.49799e-07
1.22642e-06
2.48939e-07
8.73054e-07
-2.37016e-07
-8.72858e-07
2.34787e-07
-1.22959e-06
-1.302e-09
2.24081e-09
0.00107773
-2.49845e-07
1.23185e-06
2.48998e-07
8.78603e-07
-2.39826e-07
-8.78445e-07
2.37546e-07
0.00107729
-1.68765e-09
-0.00107729
2.15211e-09
-1.22413e-06
2.49001e-07
-2.49745e-07
-8.75462e-07
2.34898e-07
-2.39617e-07
8.73131e-07
1.23193e-06
0.00107773
-1.58045e-09
-0.00107773
2.13211e-09
-1.22954e-06
2.49077e-07
-2.49792e-07
-8.78377e-07
2.37664e-07
-2.39737e-07
8.78696e-07
-2.23202e-07
-2.28034e-07
0.000263092
-1.19318e-06
0.000265061
-0.000263092
2.25592e-07
2.30422e-07
2.1495e-09
0.00107834
-2.44441e-07
1.19046e-06
2.43667e-07
8.75892e-07
-2.3978e-07
-8.75592e-07
2.37597e-07
-1.22424e-06
-1.38067e-09
2.2929e-09
0.00107741
-2.49844e-07
1.22647e-06
2.48966e-07
8.75755e-07
-2.3974e-07
-8.75574e-07
2.37516e-07
0.00107833
-1.80535e-09
-0.00107833
2.01626e-09
-1.19081e-06
2.46448e-07
-2.47142e-07
-8.75535e-07
2.37705e-07
-2.39697e-07
8.7597e-07
1.22653e-06
0.0010774
-1.65276e-09
-0.0010774
2.1413e-09
-1.22419e-06
2.49035e-07
-2.49785e-07
-8.75522e-07
2.3762e-07
-2.39657e-07
8.75829e-07
-1.41571e-09
2.29002e-09
0.0010772
-2.44318e-07
1.22111e-06
2.4347e-07
8.73082e-07
-2.36983e-07
2.34764e-07
-8.72887e-07
-1.80376e-09
-0.00107807
2.01311e-09
-1.19077e-06
2.40995e-07
-2.41642e-07
-8.72825e-07
2.34977e-07
8.73235e-07
-2.36934e-07
1.22117e-06
0.0010772
-1.66449e-09
-0.0010772
2.14856e-09
-1.21884e-06
2.43535e-07
-2.44264e-07
-8.72838e-07
2.34861e-07
-2.36908e-07
8.7315e-07
-2.20662e-07
-2.28008e-07
0.00026305
-1.18776e-06
0.000265011
-0.00026305
2.23014e-07
2.30361e-07
-1.47604e-09
2.13994e-09
0.00107825
-2.41728e-07
1.18782e-06
2.40948e-07
8.70606e-07
-2.37079e-07
2.34896e-07
-8.70336e-07
-1.81109e-09
-0.00107773
2.0011e-09
-1.18539e-06
2.40957e-07
-2.41614e-07
-8.72654e-07
2.37611e-07
8.73106e-07
-2.39596e-07
1.18787e-06
0.00107825
-1.78011e-09
-0.00107825
2.02705e-09
-1.18551e-06
2.41008e-07
-2.41677e-07
-8.70281e-07
2.34999e-07
-2.36998e-07
8.7068e-07
-0.000263063
2.25328e-07
2.30587e-07
1.22412e-06
1.1908e-06
-2.22963e-07
-2.2821e-07
0.000263068
-1.22658e-06
-1.19326e-06
0.000265031
-0.000263068
2.25436e-07
2.30723e-07
2.12006e-09
0.00107729
-2.49739e-07
1.2265e-06
2.49033e-07
8.75801e-07
-2.36944e-07
-8.72822e-07
2.37597e-07
-1.22952e-06
-1.46797e-09
2.23612e-09
0.00107773
-2.4978e-07
1.23192e-06
2.49069e-07
8.78692e-07
-2.39731e-07
-8.78364e-07
2.37659e-07
0.00107729
-1.89806e-09
-0.00107729
1.92394e-09
-1.2241e-06
2.49123e-07
-2.49712e-07
-8.75478e-07
2.37678e-07
-2.39617e-07
8.75877e-07
1.23209e-06
0.00107773
-1.93989e-09
-0.00107773
1.9341e-09
-1.22944e-06
2.49233e-07
-2.49701e-07
-8.7828e-07
2.3783e-07
-2.39665e-07
8.78867e-07
-2.23132e-07
-2.27944e-07
0.000263092
-1.19334e-06
0.00026506
-0.000263091
2.25752e-07
2.30615e-07
2.0303e-09
0.00107833
-2.47139e-07
1.1932e-06
2.46477e-07
8.75994e-07
-2.39696e-07
-8.7554e-07
2.3773e-07
-1.22418e-06
-1.63414e-09
2.14008e-09
0.0010774
-2.4978e-07
1.22657e-06
2.49067e-07
8.75855e-07
-2.39656e-07
-8.75524e-07
2.37646e-07
0.00107833
-2.14656e-09
-0.00107833
1.91321e-09
-1.1908e-06
2.46545e-07
-2.47133e-07
-8.75516e-07
2.37827e-07
-2.39668e-07
8.76086e-07
1.22663e-06
0.0010774
-1.96377e-09
-0.0010774
1.9559e-09
-1.22417e-06
2.49142e-07
-2.49768e-07
-8.75508e-07
2.37736e-07
-2.39633e-07
8.75939e-07
-1.62934e-09
2.12419e-09
0.0010772
-2.44257e-07
1.2212e-06
2.43567e-07
8.7317e-07
-2.36906e-07
2.34887e-07
-8.72843e-07
-2.192e-09
-0.00107807
1.83836e-09
-1.19069e-06
2.41152e-07
-2.41575e-07
-8.72758e-07
2.35164e-07
8.734e-07
-2.36843e-07
1.22128e-06
0.0010772
-1.91079e-09
-0.0010772
1.92885e-09
-1.2188e-06
2.43653e-07
-2.44236e-07
-8.72841e-07
2.34962e-07
-2.36894e-07
8.73241e-07
-2.20601e-07
-2.27948e-07
0.00026305
-1.18786e-06
0.000265011
-0.00026305
2.23101e-07
2.30445e-07
-1.77229e-09
2.03297e-09
0.00107825
-2.41673e-07
1.1879e-06
2.41038e-07
8.7071e-07
-2.3699e-07
2.35032e-07
-8.7028e-07
-2.11381e-09
-0.00107773
1.82643e-09
-1.18537e-06
2.41064e-07
-2.41599e-07
-8.72645e-07
2.37723e-07
8.73211e-07
-2.39573e-07
1.18796e-06
0.00107824
-2.13167e-09
-0.00107825
1.90524e-09
-1.1855e-06
2.41106e-07
-2.4167e-07
-8.70262e-07
2.35121e-07
-2.36966e-07
8.70797e-07
-0.000263063
2.25401e-07
2.30679e-07
1.22396e-06
1.19069e-06
-2.22846e-07
-2.28059e-07
0.000263068
-1.2261e-06
-1.19277e-06
0.000265031
-0.000263067
2.2481e-07
2.30097e-07
1.65106e-09
0.00107729
-2.49579e-07
1.22672e-06
2.49257e-07
8.76e-07
-2.39522e-07
-8.75367e-07
2.37791e-07
-1.22943e-06
-1.49249e-09
2.28248e-09
0.00107773
-2.49722e-07
1.23199e-06
2.49109e-07
8.78755e-07
-2.39656e-07
-8.78296e-07
2.37737e-07
0.00107729
1.12456e-10
-0.00107728
2.8862e-09
-1.22452e-06
2.4854e-07
-2.50229e-07
-8.76124e-07
2.36807e-07
-2.40363e-07
8.75181e-07
1.23153e-06
0.00107773
1.12928e-10
-0.00107773
3.0329e-09
-1.23e-06
2.48639e-07
-2.50372e-07
-8.7638e-07
2.34139e-07
-2.37942e-07
8.75458e-07
-2.23012e-07
-2.27794e-07
0.000263091
-1.19279e-06
0.000265058
-0.000263088
2.27601e-07
2.27351e-07
1.81171e-09
0.00107833
-2.47016e-07
1.19337e-06
2.46657e-07
8.76242e-07
-2.39547e-07
-8.75373e-07
2.37965e-07
-1.22405e-06
-2.14758e-09
1.82598e-09
0.0010774
-2.49646e-07
1.22676e-06
2.49262e-07
8.76088e-07
-2.39519e-07
-8.75372e-07
2.37865e-07
0.00107833
-5.73289e-11
-0.00107833
2.8975e-09
-1.19124e-06
2.45952e-07
-2.47666e-07
-8.76163e-07
2.36955e-07
-2.40409e-07
8.75374e-07
1.22614e-06
0.0010774
8.80855e-11
-0.0010774
2.96651e-09
-1.22461e-06
2.48553e-07
-2.50301e-07
-8.76155e-07
2.36871e-07
-2.40376e-07
8.75231e-07
-2.04703e-09
1.69185e-09
0.0010772
-2.44107e-07
1.22141e-06
2.43779e-07
8.73384e-07
-2.36786e-07
2.35087e-07
-8.7271e-07
8.01982e-11
-0.00107807
2.95371e-09
-1.19124e-06
2.40495e-07
-2.42235e-07
-8.73552e-07
2.34116e-07
8.7257e-07
-2.3784e-07
1.22079e-06
0.0010772
1.20648e-10
-0.0010772
2.88436e-09
-1.21923e-06
2.43073e-07
-2.44758e-07
-8.73492e-07
2.34096e-07
-2.37642e-07
8.72537e-07
-2.20465e-07
-2.27814e-07
0.00026305
-1.18737e-06
0.00026501
-0.000263049
2.22471e-07
2.29818e-07
-2.3635e-09
1.79694e-09
0.00107824
-2.4155e-07
1.18807e-06
2.41219e-07
8.70955e-07
-2.36847e-07
2.35259e-07
-8.70118e-07
-4.09677e-11
-0.00107773
2.83197e-09
-1.1858e-06
2.40469e-07
-2.42133e-07
-8.73288e-07
2.36858e-07
8.72503e-07
-2.4031e-07
1.18746e-06
0.00107824
-5.35723e-11
-0.00107824
2.89548e-09
-1.18594e-06
2.40512e-07
-2.42209e-07
-8.70905e-07
2.34259e-07
-2.37699e-07
8.70087e-07
-0.000263062
2.24774e-07
2.30056e-07
1.22458e-06
1.19127e-06
-2.23588e-07
-2.28824e-07
0.000263068
-1.22644e-06
-1.19315e-06
0.000265032
-0.000263069
2.25299e-07
2.30547e-07
2.94864e-09
0.00107729
-2.50294e-07
1.22614e-06
2.48589e-07
8.75249e-07
-2.40577e-07
-8.76191e-07
2.36747e-07
-1.22989e-06
-2.39274e-10
2.60852e-09
0.00107773
-2.50254e-07
1.23168e-06
2.48844e-07
8.75615e-07
-2.37916e-07
-8.76309e-07
2.34293e-07
0.00107729
-1.12896e-09
-0.00107729
2.38414e-09
-1.22426e-06
2.48969e-07
-2.49894e-07
-8.75687e-07
2.37353e-07
-2.40025e-07
8.75715e-07
1.23186e-06
0.00107773
-1.1568e-09
-0.00107773
2.26162e-09
-1.22962e-06
2.46322e-07
-2.47195e-07
-8.75919e-07
2.34749e-07
-2.3736e-07
8.75932e-07
-2.26157e-07
-2.25956e-07
0.000263089
-1.19312e-06
0.000265059
-0.000263087
2.25509e-07
2.27803e-07
2.78284e-09
0.00107833
-2.47708e-07
1.19283e-06
2.46029e-07
8.75424e-07
-2.40644e-07
-8.7625e-07
2.36876e-07
-1.22464e-06
1.17943e-10
2.9026e-09
0.0010774
-2.50347e-07
1.2262e-06
2.48622e-07
8.75282e-07
-2.40602e-07
-8.76236e-07
2.3679e-07
0.00107833
-1.18436e-09
-0.00107833
2.19639e-09
-1.19092e-06
2.46432e-07
-2.47273e-07
-8.75771e-07
2.37463e-07
-2.40124e-07
8.75878e-07
1.22651e-06
0.00107741
-1.06584e-09
-0.00107741
2.32075e-09
-1.22431e-06
2.49015e-07
-2.49926e-07
-8.75755e-07
2.3738e-07
-2.40088e-07
8.75744e-07
1.04951e-10
2.91147e-09
0.0010772
-2.44814e-07
1.22084e-06
2.43129e-07
8.72609e-07
-2.37854e-07
2.34031e-07
-8.73551e-07
-1.3112e-09
-0.00107807
2.14795e-09
-1.19087e-06
2.4092e-07
-2.4175e-07
-8.73019e-07
2.34773e-07
8.73171e-07
-2.3729e-07
1.22114e-06
0.0010772
-1.11189e-09
-0.0010772
2.38506e-09
-1.21896e-06
2.43503e-07
-2.44415e-07
-8.7306e-07
2.34626e-07
-2.37328e-07
8.73071e-07
-2.21225e-07
-2.28569e-07
0.00026305
-1.18774e-06
0.000265012
-0.000263051
2.22947e-07
2.30293e-07
2.03501e-11
2.78476e-09
0.00107825
-2.42247e-07
1.18753e-06
2.40592e-07
8.70138e-07
-2.37934e-07
2.34175e-07
-8.70992e-07
-1.21758e-09
-0.00107773
2.19449e-09
-1.18551e-06
2.40933e-07
-2.41761e-07
-8.72886e-07
2.37369e-07
8.73017e-07
-2.40023e-07
1.18785e-06
0.00107825
-1.18957e-09
-0.00107825
2.19374e-09
-1.18562e-06
2.40991e-07
-2.41815e-07
-8.70513e-07
2.34758e-07
-2.37424e-07
8.70593e-07
-0.000263064
2.25266e-07
2.30511e-07
1.22423e-06
1.1909e-06
-2.23069e-07
-2.28333e-07
0.000263069
-1.22645e-06
-1.19311e-06
0.000265032
-0.000263069
2.25253e-07
2.30564e-07
2.3091e-09
0.00107729
-2.49862e-07
1.22646e-06
2.48985e-07
8.75726e-07
-2.39925e-07
-8.75658e-07
2.37412e-07
-1.22961e-06
-1.20125e-09
2.28986e-09
0.00107773
-2.47196e-07
1.23186e-06
2.46315e-07
8.75943e-07
-2.37307e-07
-8.75903e-07
2.34787e-07
0.00107729
-1.13722e-09
-0.00107729
2.33051e-09
-1.22423e-06
2.48959e-07
-2.49882e-07
-8.75686e-07
2.3739e-07
-2.39902e-07
8.75682e-07
1.23184e-06
0.00107773
-1.08968e-09
-0.00107773
2.3767e-09
-1.22964e-06
2.46273e-07
-2.47237e-07
-8.75937e-07
2.34759e-07
-2.37324e-07
8.7591e-07
-2.23283e-07
-2.2556e-07
0.000263087
-1.19307e-06
0.000265059
-0.000263087
2.25449e-07
2.27796e-07
2.18564e-09
0.00107833
-2.4725e-07
1.19315e-06
2.46436e-07
8.759e-07
-2.40018e-07
-8.75728e-07
2.37534e-07
-1.22428e-06
-1.21008e-09
2.28463e-09
0.00107741
-2.49899e-07
1.22652e-06
2.49023e-07
8.75771e-07
-2.39972e-07
-8.75703e-07
2.37458e-07
0.00107833
-1.36612e-09
-0.00107833
2.28608e-09
-1.19094e-06
2.46384e-07
-2.47294e-07
-8.75717e-07
2.37572e-07
-2.39957e-07
8.75909e-07
1.22651e-06
0.00107741
-1.2232e-09
-0.00107741
2.29182e-09
-1.22429e-06
2.49e-07
-2.49917e-07
-8.75706e-07
2.37483e-07
-2.39915e-07
8.75761e-07
-1.23519e-09
2.32259e-09
0.0010772
-2.44383e-07
1.22115e-06
2.43514e-07
8.73092e-07
-2.37215e-07
2.34702e-07
-8.73015e-07
-1.35298e-09
-0.00107807
2.33769e-09
-1.19091e-06
2.40852e-07
-2.41812e-07
-8.73013e-07
2.34822e-07
8.7316e-07
-2.37202e-07
1.22114e-06
0.0010772
-1.23315e-09
-0.0010772
2.29782e-09
-1.21894e-06
2.43498e-07
-2.44396e-07
-8.73024e-07
2.34722e-07
-2.37166e-07
8.7308e-07
-2.20715e-07
-2.28065e-07
0.000263051
-1.18773e-06
0.000265012
-0.000263051
2.22943e-07
2.30299e-07
-1.33216e-09
2.17111e-09
0.00107825
-2.41787e-07
1.18786e-06
2.40997e-07
8.70619e-07
-2.37308e-07
2.34838e-07
-8.70464e-07
-1.40536e-09
-0.00107773
2.20129e-09
-1.1855e-06
2.40913e-07
-2.41753e-07
-8.72834e-07
2.37477e-07
8.73041e-07
-2.3985e-07
1.18784e-06
0.00107825
-1.38585e-09
-0.00107825
2.21255e-09
-1.18561e-06
2.40966e-07
-2.41814e-07
-8.7046e-07
2.34867e-07
-2.37248e-07
8.70618e-07
-0.000263064
2.25259e-07
2.30521e-07
1.22424e-06
1.19096e-06
-2.23137e-07
-2.28334e-07
0.000263069
-1.22644e-06
-1.19045e-06
0.00026503
-0.000263069
2.2525e-07
2.30518e-07
2.34971e-09
0.00107729
-2.49891e-07
1.22644e-06
2.48953e-07
8.75659e-07
-2.39939e-07
-8.75721e-07
2.37353e-07
-1.22964e-06
-1.02488e-09
2.38806e-09
0.00107773
-2.47258e-07
1.23183e-06
2.46253e-07
8.75895e-07
-2.37347e-07
-8.75955e-07
2.34737e-07
0.0010773
-1.12597e-09
-0.00107729
2.39285e-09
-1.22425e-06
2.4895e-07
-2.49891e-07
-8.75672e-07
2.34713e-07
-2.3988e-07
8.73032e-07
1.23187e-06
0.00107773
-1.1151e-09
-0.00107773
2.29824e-09
-1.22965e-06
2.49031e-07
-2.49936e-07
-8.78598e-07
2.37513e-07
-2.40009e-07
8.78591e-07
-2.23349e-07
-2.25578e-07
0.000263087
-1.1931e-06
0.000265061
-0.00026309
2.25498e-07
2.27805e-07
2.32359e-09
0.00107833
-2.47312e-07
1.19309e-06
2.46364e-07
8.75907e-07
-2.39962e-07
-8.75721e-07
2.37569e-07
-1.22429e-06
-1.21532e-09
2.29713e-09
0.00107741
-2.4992e-07
1.22651e-06
2.48997e-07
8.7576e-07
-2.39921e-07
-8.75709e-07
2.37478e-07
0.00107834
-1.30438e-09
-0.00107833
2.3297e-09
-1.19095e-06
2.43644e-07
-2.47311e-07
-8.75719e-07
2.37575e-07
-2.39958e-07
8.7591e-07
1.2265e-06
0.00107741
-1.18928e-09
-0.00107741
2.3001e-09
-1.2243e-06
2.48992e-07
-2.49925e-07
-8.75714e-07
2.37475e-07
-2.39923e-07
8.75754e-07
-1.22512e-09
2.29213e-09
0.0010772
-2.44397e-07
1.22114e-06
2.43496e-07
8.7308e-07
-2.37167e-07
2.34721e-07
-8.73025e-07
-1.36995e-09
-0.00107807
2.27838e-09
-1.1909e-06
2.40898e-07
-2.41792e-07
-8.73011e-07
2.34828e-07
8.73155e-07
-2.37189e-07
1.22114e-06
0.0010772
-1.21861e-09
-0.0010772
2.32127e-09
-1.21894e-06
2.43494e-07
-2.44401e-07
-8.7303e-07
2.34713e-07
-2.37174e-07
8.73074e-07
-2.20734e-07
-2.28072e-07
0.000263051
-1.18773e-06
0.000265012
-0.000263051
2.22937e-07
2.30294e-07
-1.37093e-09
2.21939e-09
0.00107825
-2.41818e-07
1.18784e-06
2.40962e-07
8.70618e-07
-2.37249e-07
2.34867e-07
-8.7046e-07
-1.40028e-09
-0.00107773
2.22236e-09
-1.18551e-06
2.40904e-07
-2.41764e-07
-8.72837e-07
2.37474e-07
8.73039e-07
-2.39853e-07
1.18783e-06
0.00107825
-1.28012e-09
-0.00107825
2.20665e-09
-1.18562e-06
2.40957e-07
-2.41825e-07
-8.70474e-07
2.34851e-07
-2.37262e-07
8.70602e-07
-0.000263064
2.25253e-07
2.30517e-07
1.22425e-06
1.18828e-06
-2.23111e-07
-2.28312e-07
0.000263069
-1.22908e-06
-1.19048e-06
0.000265035
-0.000263069
2.22725e-07
2.30511e-07
2.40642e-09
0.0010773
-2.47176e-07
1.22644e-06
2.46215e-07
8.73027e-07
-2.37169e-07
-8.73008e-07
2.34674e-07
-1.22962e-06
-1.21951e-09
2.21557e-09
0.00107773
-2.49883e-07
1.23189e-06
2.49073e-07
8.78623e-07
-2.39945e-07
-8.78556e-07
2.37563e-07
0.00107729
-1.07159e-09
-0.00107729
2.40504e-09
-1.22426e-06
2.48944e-07
-2.49895e-07
-8.73018e-07
2.31992e-07
-2.37209e-07
8.73019e-07
1.23185e-06
0.00107773
-1.16069e-09
-0.00107773
2.30195e-09
-1.22966e-06
2.48988e-07
-2.49944e-07
-8.81285e-07
2.37505e-07
-2.40001e-07
8.81297e-07
-2.23262e-07
-2.25545e-07
0.00026309
-1.1931e-06
0.000265059
-0.00026309
2.25535e-07
2.30312e-07
2.30349e-09
0.00107834
-2.44582e-07
1.19045e-06
2.43636e-07
8.75904e-07
-2.39963e-07
-8.75723e-07
2.37569e-07
-1.2243e-06
-1.18991e-09
2.31299e-09
0.00107741
-2.49926e-07
1.2265e-06
2.48991e-07
8.75755e-07
-2.39925e-07
-8.75713e-07
2.37473e-07
0.00107835
-1.22969e-08
-0.00107834
2.2786e-09
-1.18827e-06
2.4369e-07
-2.44551e-07
-8.7572e-07
2.37582e-07
-2.39957e-07
8.75912e-07
1.2265e-06
0.00107741
-1.17857e-09
-0.00107741
2.32236e-09
-1.2243e-06
2.48987e-07
-2.49928e-07
-8.75713e-07
2.37472e-07
-2.39924e-07
8.75753e-07
-1.22886e-09
2.33614e-09
0.0010772
-2.444e-07
1.22114e-06
2.43491e-07
8.73077e-07
-2.37172e-07
2.34715e-07
-8.73026e-07
-1.35964e-09
-0.00107807
2.24058e-09
-1.19087e-06
2.43598e-07
-2.44498e-07
-8.73028e-07
2.34829e-07
8.73142e-07
-2.37237e-07
1.22113e-06
0.0010772
-1.23056e-09
-0.0010772
2.35634e-09
-1.21895e-06
2.43487e-07
-2.44406e-07
-8.73026e-07
2.34717e-07
-2.37169e-07
8.73076e-07
-2.20738e-07
-2.28076e-07
0.000263051
-1.18772e-06
0.000265012
-0.000263051
2.22937e-07
2.3029e-07
-1.26401e-09
2.2074e-09
0.00107825
-2.41823e-07
1.18783e-06
2.40956e-07
8.70602e-07
-2.37263e-07
2.3485e-07
-8.70474e-07
-1.36684e-09
-0.00107773
2.22509e-09
-1.18551e-06
2.40901e-07
-2.41765e-07
-8.7284e-07
2.37469e-07
8.73033e-07
-2.39856e-07
1.18783e-06
0.00107825
-1.31411e-09
-0.00107825
2.21831e-09
-1.18562e-06
2.40959e-07
-2.41823e-07
-8.70472e-07
2.34853e-07
-2.37261e-07
8.70605e-07
-0.000263064
2.25255e-07
2.30513e-07
1.22688e-06
1.18829e-06
-2.2057e-07
-2.2826e-07
0.000263069
-1.22908e-06
-1.19048e-06
0.000265033
-0.000263069
2.22774e-07
2.33033e-07
2.39518e-09
0.00107729
-2.49859e-07
1.22908e-06
2.48948e-07
8.7301e-07
-2.34489e-07
-8.73044e-07
2.32005e-07
-1.22966e-06
-1.196e-09
2.31604e-09
0.00107773
-2.49954e-07
1.23186e-06
2.48994e-07
8.81322e-07
-2.39986e-07
-8.8127e-07
2.37532e-07
0.00107729
-1.21093e-09
-0.00107729
2.35011e-09
-1.22688e-06
2.48944e-07
-2.49863e-07
-8.75626e-07
2.32031e-07
-2.34484e-07
8.75699e-07
1.23187e-06
0.00107773
-1.20153e-09
-0.00107773
2.32727e-09
-1.22964e-06
2.49011e-07
-2.49932e-07
-8.81265e-07
2.37505e-07
-2.40001e-07
8.81311e-07
-2.23281e-07
-2.2559e-07
0.000263087
-1.19311e-06
0.000265056
-0.000263087
2.25511e-07
2.30335e-07
2.26818e-09
0.00107835
-2.44542e-07
1.19047e-06
2.43683e-07
8.75903e-07
-2.39956e-07
-8.75721e-07
2.37571e-07
-1.2243e-06
-1.1882e-09
2.32863e-09
0.00107741
-2.49929e-07
1.2265e-06
2.48988e-07
8.75755e-07
-2.39926e-07
-8.75712e-07
2.37472e-07
0.00107835
-1.33012e-09
-0.00107835
2.22775e-09
-1.18828e-06
2.4368e-07
-2.44553e-07
-8.75732e-07
2.37564e-07
-2.39964e-07
8.75893e-07
1.2265e-06
0.00107741
-1.20583e-09
-0.00107741
2.33911e-09
-1.2243e-06
2.48987e-07
-2.49928e-07
-8.75708e-07
2.37476e-07
-2.3992e-07
8.75758e-07
-1.23009e-09
2.34298e-09
0.0010772
-2.44404e-07
1.22113e-06
2.43487e-07
8.7308e-07
-2.37167e-07
2.3472e-07
-8.73023e-07
-1.35127e-09
-0.00107807
2.22405e-09
-1.19086e-06
2.4365e-07
-2.44514e-07
-8.73019e-07
2.34834e-07
8.73147e-07
-2.37228e-07
1.22113e-06
0.0010772
-1.22718e-09
-0.0010772
2.34089e-09
-1.21894e-06
2.43488e-07
-2.44405e-07
-8.73026e-07
2.34718e-07
-2.37169e-07
8.73077e-07
-2.20738e-07
-2.28079e-07
0.000263051
-1.18773e-06
0.000265012
-0.000263051
2.2294e-07
2.3029e-07
-1.32593e-09
2.2229e-09
0.00107825
-2.41821e-07
1.18784e-06
2.40959e-07
8.7061e-07
-2.37257e-07
2.34858e-07
-8.70467e-07
-1.36595e-09
-0.00107773
2.21125e-09
-1.1855e-06
2.40905e-07
-2.41762e-07
-8.7284e-07
2.3747e-07
8.73034e-07
-2.39855e-07
1.18783e-06
0.00107825
-1.33007e-09
-0.00107825
2.22099e-09
-1.18562e-06
2.40959e-07
-2.41822e-07
-8.70468e-07
2.34856e-07
-2.37258e-07
8.70609e-07
-0.000263064
2.25256e-07
2.30515e-07
1.22688e-06
1.18827e-06
-2.20576e-07
-2.30809e-07
0.000263069
-1.22908e-06
-1.19049e-06
0.000265033
-0.000263069
2.22777e-07
2.33033e-07
2.34524e-09
0.00107729
-2.49862e-07
1.22908e-06
2.48941e-07
8.75703e-07
-2.34484e-07
-8.75625e-07
2.32032e-07
-1.22964e-06
-1.2064e-09
2.34243e-09
0.00107773
-2.49933e-07
1.23187e-06
2.49006e-07
8.81313e-07
-2.39996e-07
-8.81265e-07
2.3751e-07
0.00107729
-1.22355e-09
-0.00107729
2.34877e-09
-1.22688e-06
2.48936e-07
-2.49871e-07
-8.75624e-07
2.32031e-07
-2.3449e-07
8.75704e-07
1.23186e-06
0.00107773
-1.21433e-09
-0.00107773
2.35674e-09
-1.22965e-06
2.49006e-07
-2.49936e-07
-8.81263e-07
2.37512e-07
-2.39991e-07
8.81312e-07
-2.23284e-07
-2.28098e-07
0.000263087
-1.1931e-06
0.000265056
-0.000263087
2.25508e-07
2.30329e-07
2.22156e-09
0.00107835
-2.44547e-07
1.19049e-06
2.43682e-07
8.75894e-07
-2.39964e-07
-8.75729e-07
2.37562e-07
-1.2243e-06
-1.21241e-09
2.34628e-09
0.00107741
-2.49929e-07
1.2265e-06
2.48987e-07
8.75759e-07
-2.39922e-07
-8.75707e-07
2.37476e-07
0.00107835
-1.35527e-09
-0.00107835
2.21418e-09
-1.18827e-06
2.43686e-07
-2.44544e-07
-8.75726e-07
2.37568e-07
-2.39962e-07
8.75898e-07
1.2265e-06