/*--------------------------------*- C++ -*----------------------------------*\
| =========                 |                                                 |
| \\      /  F ield         | OpenFOAM: The Open Source CFD Toolbox           |
|  \\    /   O peration     | Version:  2206                                  |
|   \\  /    A nd           | Website:  www.openfoam.com                      |
|    \\/     M anipulation  |                                                 |
\*---------------------------------------------------------------------------*/
FoamFile
{
    version     2.0;
    format      ascii;
    arch        "LSB;label=32;scalar=64";
    class       volScalarField;
    location    "29";
    object      k;
}
// * * * * * * * * * * * * * * * * * * * * * * * * * * * * * * * * * * * * * //

dimensions      [0 2 -2 0 0 0 0];

internalField   nonuniform List<scalar> 
28688
(
3.58934e-05
3.58911e-05
3.58911e-05
3.59955e-05
3.39296e-05
3.38886e-05
3.38886e-05
3.39618e-05
3.21527e-05
3.20046e-05
3.20046e-05
3.19518e-05
3.05334e-05
3.02309e-05
3.02308e-05
2.99937e-05
2.90548e-05
2.85666e-05
2.85665e-05
2.8127e-05
2.75699e-05
2.69321e-05
2.6932e-05
2.63982e-05
2.64023e-05
2.56558e-05
2.56556e-05
2.49162e-05
2.61291e-05
2.55133e-05
2.55131e-05
2.48466e-05
2.61104e-05
2.55386e-05
2.55385e-05
2.49303e-05
2.61105e-05
2.55425e-05
2.55424e-05
2.49387e-05
2.61107e-05
2.55431e-05
2.5543e-05
2.49397e-05
2.61107e-05
2.55433e-05
2.55432e-05
2.49399e-05
3.63069e-05
3.6291e-05
3.6291e-05
3.63069e-05
3.6291e-05
3.6291e-05
3.64228e-05
3.64228e-05
3.64228e-05
3.64228e-05
3.6291e-05
3.6291e-05
3.63069e-05
3.6291e-05
3.6291e-05
3.63069e-05
3.59955e-05
3.42685e-05
3.58911e-05
3.58911e-05
3.43757e-05
3.43757e-05
3.59955e-05
3.42685e-05
3.5891e-05
3.58911e-05
3.43758e-05
3.43757e-05
3.58911e-05
3.43758e-05
3.43757e-05
3.59955e-05
3.42685e-05
3.58911e-05
3.43758e-05
3.43757e-05
3.42685e-05
3.39618e-05
3.2263e-05
3.38885e-05
3.38885e-05
3.24672e-05
3.24671e-05
3.39618e-05
3.22631e-05
3.38886e-05
3.38885e-05
3.24672e-05
3.2467e-05
3.38885e-05
3.24673e-05
3.24672e-05
3.39618e-05
3.2263e-05
3.38886e-05
3.24673e-05
3.24672e-05
3.2263e-05
3.19519e-05
3.03006e-05
3.20045e-05
3.20044e-05
3.0671e-05
3.06709e-05
3.19519e-05
3.03007e-05
3.20045e-05
3.20043e-05
3.06712e-05
3.06708e-05
3.20045e-05
3.06713e-05
3.0671e-05
3.19518e-05
3.03005e-05
3.20045e-05
3.06712e-05
3.06711e-05
3.03005e-05
2.99938e-05
2.84169e-05
3.02306e-05
3.02305e-05
2.89553e-05
2.89551e-05
2.99938e-05
2.8417e-05
3.02307e-05
3.02304e-05
2.89555e-05
2.8955e-05
3.02306e-05
2.89557e-05
2.89552e-05
2.99937e-05
2.84168e-05
3.02307e-05
2.89556e-05
2.89554e-05
2.84167e-05
2.81272e-05
2.66779e-05
2.85661e-05
2.85659e-05
2.7373e-05
2.73727e-05
2.81272e-05
2.66781e-05
2.85664e-05
2.85658e-05
2.73733e-05
2.73726e-05
2.85661e-05
2.73735e-05
2.73729e-05
2.8127e-05
2.66778e-05
2.85663e-05
2.73734e-05
2.73732e-05
2.66777e-05
2.63984e-05
2.50425e-05
2.69315e-05
2.69313e-05
2.58409e-05
2.58406e-05
2.63984e-05
2.50427e-05
2.69319e-05
2.69311e-05
2.58413e-05
2.58405e-05
2.69314e-05
2.58415e-05
2.58408e-05
2.63982e-05
2.50423e-05
2.69318e-05
2.58414e-05
2.58412e-05
2.50423e-05
2.49164e-05
2.48374e-05
2.56552e-05
2.56549e-05
2.55113e-05
2.55111e-05
2.49166e-05
2.48375e-05
2.56555e-05
2.56547e-05
2.55116e-05
2.55109e-05
2.56551e-05
2.55118e-05
2.55112e-05
2.49163e-05
2.48372e-05
2.56555e-05
2.55117e-05
2.55116e-05
2.48371e-05
2.48469e-05
2.49326e-05
2.55129e-05
2.55127e-05
2.5535e-05
2.55349e-05
2.4847e-05
2.49326e-05
2.55132e-05
2.55125e-05
2.55353e-05
2.55346e-05
2.55128e-05
2.55355e-05
2.5535e-05
2.48467e-05
2.49323e-05
2.55132e-05
2.55353e-05
2.55354e-05
2.49326e-05
2.49304e-05
2.49425e-05
2.55384e-05
2.55383e-05
2.55418e-05
2.55417e-05
2.49304e-05
2.49425e-05
2.55387e-05
2.5538e-05
2.55421e-05
2.55414e-05
2.55384e-05
2.55422e-05
2.55418e-05
2.49301e-05
2.49422e-05
2.55388e-05
2.55421e-05
2.55422e-05
2.49425e-05
2.49389e-05
2.49437e-05
2.55421e-05
2.55421e-05
2.55426e-05
2.55425e-05
2.49389e-05
2.49436e-05
2.55425e-05
2.55418e-05
2.55429e-05
2.55422e-05
2.55422e-05
2.5543e-05
2.55426e-05
2.49386e-05
2.49434e-05
2.55426e-05
2.55429e-05
2.5543e-05
2.49437e-05
2.49399e-05
2.49439e-05
2.55427e-05
2.55426e-05
2.55429e-05
2.55428e-05
2.49399e-05
2.49438e-05
2.55431e-05
2.55424e-05
2.55433e-05
2.55425e-05
2.55428e-05
2.55433e-05
2.55429e-05
2.49396e-05
2.49435e-05
2.55432e-05
2.55431e-05
2.55433e-05
2.49439e-05
2.49401e-05
2.49441e-05
2.55431e-05
2.5543e-05
2.55432e-05
2.494e-05
2.55434e-05
2.55427e-05
2.55436e-05
2.55429e-05
2.55431e-05
2.55432e-05
2.49398e-05
2.49437e-05
2.55435e-05
2.55434e-05
2.55436e-05
2.49441e-05
3.73773e-05
3.73765e-05
3.7377e-05
3.7377e-05
3.73701e-05
3.73777e-05
3.73043e-05
3.73768e-05
3.73701e-05
3.73777e-05
3.73768e-05
3.73043e-05
3.73742e-05
3.72959e-05
3.72959e-05
3.58825e-05
4.08822e-05
3.66024e-05
4.51346e-05
5.5115e-05
6.48771e-05
3.58827e-05
4.08815e-05
3.66027e-05
4.51343e-05
3.58934e-05
3.58934e-05
3.58934e-05
3.43988e-05
3.43987e-05
3.43988e-05
3.43987e-05
3.52766e-05
3.5633e-05
3.5893e-05
3.53775e-05
3.60473e-05
3.42446e-05
3.53828e-05
5.51171e-05
6.48805e-05
3.52766e-05
3.5893e-05
3.56327e-05
3.53775e-05
3.60473e-05
3.53828e-05
3.42455e-05
3.65898e-05
3.65903e-05
3.52792e-05
3.40736e-05
3.40728e-05
3.3973e-05
5.1363e-05
3.46736e-05
5.46087e-05
7.65668e-05
8.08463e-05
3.3975e-05
5.13641e-05
3.46737e-05
5.4609e-05
3.39296e-05
3.39296e-05
3.39296e-05
3.25825e-05
3.25825e-05
3.25825e-05
3.25825e-05
3.30556e-05
3.24635e-05
3.39293e-05
3.34101e-05
3.38947e-05
3.15842e-05
3.34698e-05
7.65688e-05
8.08497e-05
3.30556e-05
3.39293e-05
3.2462e-05
3.34101e-05
3.38944e-05
3.34698e-05
3.15865e-05
3.17008e-05
3.17e-05
3.32639e-05
3.09291e-05
3.09276e-05
3.22691e-05
5.91791e-05
3.29072e-05
6.14294e-05
8.44042e-05
8.5059e-05
3.22724e-05
5.9181e-05
3.29045e-05
6.14312e-05
3.21527e-05
3.21527e-05
3.21527e-05
3.09365e-05
3.09365e-05
3.09364e-05
3.09365e-05
3.0795e-05
3.0503e-05
3.21337e-05
3.15527e-05
3.1632e-05
2.99016e-05
3.17096e-05
8.44067e-05
8.50614e-05
3.0795e-05
3.21337e-05
3.05024e-05
3.15526e-05
3.16315e-05
3.17095e-05
2.99032e-05
3.02102e-05
3.02091e-05
3.12717e-05
3.00219e-05
3.00205e-05
3.07385e-05
6.43752e-05
3.1356e-05
6.57012e-05
8.46336e-05
8.38918e-05
3.07421e-05
6.43771e-05
3.1353e-05
6.57043e-05
3.05334e-05
3.05334e-05
3.05334e-05
2.93951e-05
2.93951e-05
2.93951e-05
2.93951e-05
2.8595e-05
2.9148e-05
3.04695e-05
2.9792e-05
2.94171e-05
2.8668e-05
3.00585e-05
8.46346e-05
8.38935e-05
2.85949e-05
3.04694e-05
2.91493e-05
2.97919e-05
2.94165e-05
3.00585e-05
2.86685e-05
2.99439e-05
2.99429e-05
2.93419e-05
3.00384e-05
3.00374e-05
2.95239e-05
6.73248e-05
2.9987e-05
6.80181e-05
8.22372e-05
8.12303e-05
2.95275e-05
6.73272e-05
2.99834e-05
6.80216e-05
2.90548e-05
2.90548e-05
2.90548e-05
2.79666e-05
2.79665e-05
2.79665e-05
2.79665e-05
2.65699e-05
2.81331e-05
2.89181e-05
2.81853e-05
2.731e-05
2.77678e-05
2.85591e-05
8.22376e-05
8.12311e-05
2.65698e-05
2.8918e-05
2.81332e-05
2.81852e-05
2.73093e-05
2.8559e-05
2.7769e-05
3.0436e-05
3.04355e-05
2.75424e-05
3.07857e-05
3.07849e-05
2.84327e-05
6.87552e-05
2.90129e-05
6.88938e-05
7.94348e-05
7.88113e-05
2.84327e-05
6.87584e-05
2.90145e-05
6.88971e-05
2.75699e-05
2.75698e-05
2.75699e-05
2.65945e-05
2.65945e-05
2.65944e-05
2.65944e-05
2.46647e-05
2.74343e-05
2.73734e-05
2.65013e-05
2.54414e-05
2.69243e-05
2.6969e-05
7.94347e-05
7.88117e-05
2.46643e-05
2.73733e-05
2.74344e-05
2.65012e-05
2.54411e-05
2.69688e-05
2.6924e-05
3.15153e-05
3.15154e-05
2.57616e-05
3.19107e-05
3.1911e-05
2.79926e-05
6.92558e-05
2.79182e-05
6.96014e-05
7.87002e-05
7.88345e-05
2.79927e-05
6.92589e-05
2.79177e-05
6.96041e-05
2.64024e-05
2.64023e-05
2.64023e-05
2.61527e-05
2.61527e-05
2.61526e-05
2.61527e-05
2.37912e-05
2.67399e-05
2.61281e-05
2.55565e-05
2.38315e-05
2.70187e-05
2.60011e-05
7.86994e-05
7.8831e-05
2.37911e-05
2.6128e-05
2.67408e-05
2.55563e-05
2.38312e-05
2.60009e-05
2.70215e-05
3.27213e-05
3.27216e-05
2.48077e-05
3.35746e-05
3.35758e-05
2.83422e-05
6.98988e-05
2.82867e-05
6.99329e-05
7.89519e-05
7.89648e-05
2.83425e-05
6.99019e-05
2.82863e-05
6.99357e-05
2.61292e-05
2.61291e-05
2.61291e-05
2.61108e-05
2.61108e-05
2.61107e-05
2.61108e-05
2.3989e-05
2.77449e-05
2.58744e-05
2.55209e-05
2.3932e-05
2.78706e-05
2.58681e-05
7.8949e-05
7.89608e-05
2.39892e-05
2.58743e-05
2.7744e-05
2.55208e-05
2.3932e-05
2.5868e-05
2.787e-05
3.44398e-05
3.44417e-05
2.49083e-05
3.45718e-05
3.4574e-05
2.8367e-05
6.99438e-05
2.83673e-05
6.99425e-05
7.89692e-05
7.89693e-05
2.83682e-05
6.9947e-05
2.83683e-05
6.99455e-05
2.61104e-05
2.61103e-05
2.61104e-05
2.61105e-05
2.61104e-05
2.61103e-05
2.61104e-05
2.40205e-05
2.79321e-05
2.58663e-05
2.55407e-05
2.40173e-05
2.79316e-05
2.58667e-05
7.89657e-05
7.89653e-05
2.40208e-05
2.58662e-05
2.79325e-05
2.55406e-05
2.40176e-05
2.58667e-05
2.79321e-05
3.46329e-05
3.4635e-05
2.49402e-05
3.46319e-05
3.46341e-05
2.83693e-05
6.99441e-05
2.83712e-05
6.99414e-05
7.89695e-05
7.89694e-05
2.83705e-05
6.99472e-05
2.83722e-05
6.99448e-05
2.61106e-05
2.61105e-05
2.61106e-05
2.61107e-05
2.61107e-05
2.61106e-05
2.61107e-05
2.40235e-05
2.79386e-05
2.58672e-05
2.55429e-05
2.4023e-05
2.79349e-05
2.58674e-05
7.89659e-05
7.89653e-05
2.40238e-05
2.58672e-05
2.79389e-05
2.55427e-05
2.40233e-05
2.58674e-05
2.79354e-05
3.4635e-05
3.46371e-05
2.49433e-05
3.46332e-05
3.46353e-05
2.83698e-05
6.99434e-05
2.83722e-05
6.99417e-05
7.89696e-05
7.89695e-05
2.83711e-05
6.99466e-05
2.83732e-05
6.99444e-05
2.61109e-05
2.61108e-05
2.61108e-05
2.61107e-05
2.61108e-05
2.61107e-05
2.61108e-05
2.40249e-05
2.79398e-05
2.58675e-05
2.55432e-05
2.40247e-05
2.79355e-05
2.58677e-05
7.8966e-05
7.89653e-05
2.40252e-05
2.58675e-05
2.79401e-05
2.55431e-05
2.40249e-05
2.58676e-05
2.7936e-05
3.46357e-05
3.46378e-05
2.49439e-05
3.46335e-05
3.46357e-05
2.83699e-05
6.99438e-05
2.83723e-05
6.99419e-05
7.89697e-05
7.89695e-05
2.83712e-05
6.99464e-05
2.83734e-05
6.99442e-05
2.61109e-05
2.61108e-05
2.61109e-05
2.61109e-05
2.61112e-05
2.61109e-05
2.6111e-05
2.40248e-05
2.794e-05
2.58677e-05
2.55433e-05
2.4025e-05
2.79355e-05
2.58678e-05
7.8966e-05
7.89653e-05
2.40252e-05
2.58677e-05
2.79403e-05
2.55433e-05
2.40253e-05
2.58678e-05
2.79361e-05
3.46358e-05
3.46379e-05
2.4944e-05
3.46336e-05
3.46358e-05
3.73742e-05
3.72959e-05
3.72959e-05
5.31119e-05
3.71932e-05
5.31139e-05
3.71932e-05
3.70929e-05
3.72461e-05
3.72465e-05
3.71762e-05
3.71762e-05
3.73701e-05
3.73777e-05
3.73043e-05
3.73768e-05
3.73701e-05
3.73777e-05
3.73043e-05
3.73768e-05
3.71732e-05
3.94122e-05
3.7168e-05
3.67256e-05
3.71732e-05
3.94121e-05
3.7168e-05
3.67257e-05
3.70958e-05
3.71022e-05
3.60302e-05
3.64209e-05
3.71636e-05
3.71108e-05
3.63057e-05
3.70958e-05
3.71022e-05
3.60305e-05
3.64209e-05
3.71636e-05
3.71108e-05
3.63057e-05
3.73742e-05
3.72959e-05
3.72959e-05
5.31121e-05
3.71933e-05
3.70929e-05
3.72469e-05
3.72458e-05
3.71762e-05
3.71762e-05
5.31136e-05
3.71933e-05
3.73701e-05
3.73777e-05
3.73043e-05
3.73768e-05
3.73701e-05
3.73777e-05
3.73768e-05
3.73043e-05
3.71732e-05
3.94126e-05
3.7168e-05
3.67258e-05
3.70958e-05
3.71022e-05
3.60302e-05
3.64209e-05
3.71636e-05
3.71108e-05
3.63057e-05
3.71732e-05
3.94129e-05
3.7168e-05
3.67255e-05
3.70958e-05
3.71022e-05
3.64209e-05
3.60302e-05
3.71108e-05
3.71636e-05
3.63057e-05
3.73773e-05
3.73765e-05
3.7377e-05
3.7377e-05
3.73773e-05
3.73765e-05
3.7377e-05
3.7377e-05
3.73773e-05
3.73765e-05
3.7377e-05
3.7377e-05
3.71133e-05
3.71098e-05
3.64238e-05
3.64238e-05
3.71124e-05
3.71124e-05
3.64258e-05
3.71133e-05
3.71098e-05
3.64238e-05
3.64238e-05
3.71124e-05
3.71124e-05
3.64258e-05
3.71133e-05
3.71098e-05
3.64238e-05
3.64238e-05
3.71124e-05
3.71124e-05
3.64258e-05
3.71133e-05
3.71098e-05
3.64238e-05
3.64238e-05
3.71124e-05
3.71124e-05
3.64258e-05
3.73702e-05
3.73777e-05
3.73768e-05
3.73043e-05
3.70958e-05
3.71022e-05
3.603e-05
3.64209e-05
3.71636e-05
3.71108e-05
3.63057e-05
3.71732e-05
3.94123e-05
3.7168e-05
3.67258e-05
3.70958e-05
3.71022e-05
3.64209e-05
3.60305e-05
3.71108e-05
3.71636e-05
3.63057e-05
3.71732e-05
3.94128e-05
3.7168e-05
3.67255e-05
3.73742e-05
3.72959e-05
3.72959e-05
5.31143e-05
3.71933e-05
3.70929e-05
3.72465e-05
3.72467e-05
3.71762e-05
3.71762e-05
5.31144e-05
3.71933e-05
3.73701e-05
3.73777e-05
3.73768e-05
3.73043e-05
3.70958e-05
3.71022e-05
3.64209e-05
3.60305e-05
3.71108e-05
3.71636e-05
3.63057e-05
3.70958e-05
3.71022e-05
3.64209e-05
3.60306e-05
3.71108e-05
3.71636e-05
3.63057e-05
3.71732e-05
3.94128e-05
3.7168e-05
3.67256e-05
3.71732e-05
3.94128e-05
3.7168e-05
3.67258e-05
3.70929e-05
3.72465e-05
3.72471e-05
3.71762e-05
3.71762e-05
5.31142e-05
3.71933e-05
5.31141e-05
3.71932e-05
5.5115e-05
6.48768e-05
5.51168e-05
6.48797e-05
3.65898e-05
3.6591e-05
3.52792e-05
3.40732e-05
3.40724e-05
7.47115e-05
6.76917e-05
7.47154e-05
6.76956e-05
3.49727e-05
3.20483e-05
3.20464e-05
3.34556e-05
3.34558e-05
3.58824e-05
4.08815e-05
3.66027e-05
4.51329e-05
3.52765e-05
3.56331e-05
3.5893e-05
3.53774e-05
3.60473e-05
3.42451e-05
3.53828e-05
3.52765e-05
3.56326e-05
3.58929e-05
3.53774e-05
3.60473e-05
3.4246e-05
3.53828e-05
3.563e-05
5.02002e-05
4.64649e-05
3.48984e-05
3.56304e-05
5.0199e-05
4.64644e-05
3.48988e-05
3.49984e-05
3.48726e-05
3.27395e-05
3.44005e-05
3.3855e-05
3.48855e-05
3.41811e-05
3.49985e-05
3.48725e-05
3.27406e-05
3.44005e-05
3.38538e-05
3.48855e-05
3.41812e-05
3.659e-05
3.65907e-05
3.52792e-05
3.40736e-05
3.40716e-05
5.51161e-05
6.48788e-05
7.47123e-05
6.7694e-05
3.49728e-05
3.20476e-05
3.20464e-05
3.3455e-05
3.3457e-05
7.47138e-05
6.76938e-05
3.52766e-05
3.5633e-05
3.5893e-05
3.53774e-05
3.60473e-05
3.42451e-05
3.53828e-05
3.58824e-05
4.08827e-05
3.66023e-05
4.51355e-05
3.52765e-05
3.5893e-05
3.56331e-05
3.53774e-05
3.60473e-05
3.53828e-05
3.4245e-05
3.56301e-05
5.02e-05
4.64646e-05
3.4899e-05
3.49984e-05
3.48725e-05
3.27394e-05
3.44005e-05
3.38542e-05
3.48855e-05
3.41813e-05
3.563e-05
5.02017e-05
4.64665e-05
3.48986e-05
3.49984e-05
3.48725e-05
3.44005e-05
3.27391e-05
3.48855e-05
3.38546e-05
3.41812e-05
3.58826e-05
4.08803e-05
3.66026e-05
4.51346e-05
3.52765e-05
3.5893e-05
3.56327e-05
3.53774e-05
3.60473e-05
3.53828e-05
3.42459e-05
3.58826e-05
4.0883e-05
3.66022e-05
4.51348e-05
3.49985e-05
3.48726e-05
3.27386e-05
3.44006e-05
3.38547e-05
3.48855e-05
3.41813e-05
3.56303e-05
5.01994e-05
4.64626e-05
3.48988e-05
3.49984e-05
3.48726e-05
3.44005e-05
3.27406e-05
3.48855e-05
3.38537e-05
3.41812e-05
3.56298e-05
5.02005e-05
4.64666e-05
3.48987e-05
3.65902e-05
3.65899e-05
3.52792e-05
3.40723e-05
3.40729e-05
5.51172e-05
6.48786e-05
7.47161e-05
6.76954e-05
3.49728e-05
3.20469e-05
3.20484e-05
3.34557e-05
3.34554e-05
7.47139e-05
6.76954e-05
3.52766e-05
3.5893e-05
3.56327e-05
3.53774e-05
3.60473e-05
3.53828e-05
3.42457e-05
3.5883e-05
4.08823e-05
3.66022e-05
4.51353e-05
3.58832e-05
4.08815e-05
3.66026e-05
4.51342e-05
3.49984e-05
3.48726e-05
3.44005e-05
3.27405e-05
3.48855e-05
3.38539e-05
3.41812e-05
3.49984e-05
3.48726e-05
3.44005e-05
3.27404e-05
3.48855e-05
3.38535e-05
3.41813e-05
3.56294e-05
5.02014e-05
4.64663e-05
3.48988e-05
3.56296e-05
5.02009e-05
4.64643e-05
3.48991e-05
5.51168e-05
6.48784e-05
5.51168e-05
6.48791e-05
3.49727e-05
3.20479e-05
3.20468e-05
3.34548e-05
3.3455e-05
7.4713e-05
6.76948e-05
7.47145e-05
6.76962e-05
7.65644e-05
8.08452e-05
7.65686e-05
8.08495e-05
3.17014e-05
3.17006e-05
3.32639e-05
3.09288e-05
3.09266e-05
8.39896e-05
8.1866e-05
8.39932e-05
8.18692e-05
3.2955e-05
3.03198e-05
3.03187e-05
3.07301e-05
3.07302e-05
3.39735e-05
5.13626e-05
3.46738e-05
5.46085e-05
3.30553e-05
3.24636e-05
3.39293e-05
3.341e-05
3.38946e-05
3.15849e-05
3.34698e-05
3.30555e-05
3.24619e-05
3.39293e-05
3.34099e-05
3.38947e-05
3.15866e-05
3.34698e-05
3.37699e-05
5.83554e-05
5.5606e-05
3.30916e-05
3.377e-05
5.83554e-05
5.56052e-05
3.30922e-05
3.27668e-05
3.29368e-05
3.0662e-05
3.25705e-05
3.13803e-05
3.30172e-05
3.192e-05
3.27669e-05
3.29367e-05
3.06631e-05
3.25705e-05
3.13783e-05
3.30172e-05
3.19203e-05
3.17002e-05
3.17017e-05
3.3264e-05
3.09279e-05
3.09257e-05
7.65664e-05
8.08469e-05
8.39904e-05
8.18677e-05
3.2955e-05
3.03196e-05
3.03174e-05
3.07302e-05
3.073e-05
8.39912e-05
8.18678e-05
3.30557e-05
3.24625e-05
3.39293e-05
3.341e-05
3.38945e-05
3.15855e-05
3.34698e-05
3.39745e-05
5.13652e-05
3.46736e-05
5.46116e-05
3.30555e-05
3.39293e-05
3.24634e-05
3.34099e-05
3.38945e-05
3.34698e-05
3.15844e-05
3.37681e-05
5.83562e-05
5.56076e-05
3.30948e-05
3.27667e-05
3.29368e-05
3.06619e-05
3.25705e-05
3.13787e-05
3.30172e-05
3.19205e-05
3.3768e-05
5.83586e-05
5.5608e-05
3.30943e-05
3.27666e-05
3.29367e-05
3.25705e-05
3.06614e-05
3.30172e-05
3.13801e-05
3.19203e-05
3.39739e-05
5.1362e-05
3.46737e-05
5.46085e-05
3.30554e-05
3.39293e-05
3.24622e-05
3.341e-05
3.38946e-05
3.34698e-05
3.15869e-05
3.39732e-05
5.13646e-05
3.46737e-05
5.46098e-05
3.2767e-05
3.29369e-05
3.06613e-05
3.25706e-05
3.13799e-05
3.30172e-05
3.19203e-05
3.37695e-05
5.83556e-05
5.56048e-05
3.30922e-05
3.27668e-05
3.29368e-05
3.25705e-05
3.06634e-05
3.30172e-05
3.13786e-05
3.19201e-05
3.37693e-05
5.83573e-05
5.56072e-05
3.30919e-05
3.1701e-05
3.17004e-05
3.32639e-05
3.09269e-05
3.0928e-05
7.65678e-05
8.08472e-05
8.39937e-05
8.18705e-05
3.2955e-05
3.03185e-05
3.032e-05
3.07292e-05
3.07311e-05
8.39912e-05
8.18686e-05
3.30557e-05
3.39293e-05
3.24615e-05
3.341e-05
3.38945e-05
3.34698e-05
3.15865e-05
3.39747e-05
5.13646e-05
3.46735e-05
5.46108e-05
3.39746e-05
5.13633e-05
3.46737e-05
5.46099e-05
3.27665e-05
3.29369e-05
3.25705e-05
3.06631e-05
3.30172e-05
3.13785e-05
3.19204e-05
3.27667e-05
3.29368e-05
3.25705e-05
3.06629e-05
3.30172e-05
3.13781e-05
3.19206e-05
3.37678e-05
5.83575e-05
5.56074e-05
3.30945e-05
3.37683e-05
5.8357e-05
5.56067e-05
3.30949e-05
7.65676e-05
8.08471e-05
7.65694e-05
8.08487e-05
3.2955e-05
3.03206e-05
3.0319e-05
3.07308e-05
3.07298e-05
8.39913e-05
8.18686e-05
8.39926e-05
8.18701e-05
8.44036e-05
8.50586e-05
8.44055e-05
8.50609e-05
3.02093e-05
3.02092e-05
3.12718e-05
3.00232e-05
3.00201e-05
8.48339e-05
8.50734e-05
8.4836e-05
8.50748e-05
3.09622e-05
2.99303e-05
2.99289e-05
2.99689e-05
2.99677e-05
3.22697e-05
5.91784e-05
3.29073e-05
6.14301e-05
3.07948e-05
3.0504e-05
3.21337e-05
3.15525e-05
3.16318e-05
2.99021e-05
3.17095e-05
3.0795e-05
3.0502e-05
3.21337e-05
3.15524e-05
3.1632e-05
2.99029e-05
3.17095e-05
3.21024e-05
6.38565e-05
6.20899e-05
3.14846e-05
3.21026e-05
6.38582e-05
6.2089e-05
3.14851e-05
3.05103e-05
3.11099e-05
2.9239e-05
3.08831e-05
2.97779e-05
3.1295e-05
2.96851e-05
3.05105e-05
3.11098e-05
2.92399e-05
3.08831e-05
2.97768e-05
3.1295e-05
2.96854e-05
3.02096e-05
3.02073e-05
3.12719e-05
3.0021e-05
3.00218e-05
8.44045e-05
8.50594e-05
8.48338e-05
8.50735e-05
3.09622e-05
2.99296e-05
2.99282e-05
2.99681e-05
2.99684e-05
8.48345e-05
8.50738e-05
3.07952e-05
3.05027e-05
3.21337e-05
3.15526e-05
3.16316e-05
2.99017e-05
3.17095e-05
3.22719e-05
5.91813e-05
3.29044e-05
6.14331e-05
3.07949e-05
3.21336e-05
3.05032e-05
3.15523e-05
3.16315e-05
3.17095e-05
2.99016e-05
3.20995e-05
6.38595e-05
6.20916e-05
3.14883e-05
3.05101e-05
3.111e-05
2.92396e-05
3.08831e-05
2.97772e-05
3.1295e-05
2.96856e-05
3.20993e-05
6.38606e-05
6.20919e-05
3.14878e-05
3.05099e-05
3.11097e-05
3.08831e-05
2.92384e-05
3.1295e-05
2.97773e-05
2.96853e-05
3.22697e-05
5.91782e-05
3.29074e-05
6.14304e-05
3.07948e-05
3.21337e-05
3.05022e-05
3.15524e-05
3.16318e-05
3.17095e-05
2.99031e-05
3.22693e-05
5.91802e-05
3.2907e-05
6.14317e-05
3.05105e-05
3.11101e-05
2.92383e-05
3.08832e-05
2.97772e-05
3.12951e-05
2.96854e-05
3.21026e-05
6.38584e-05
6.2089e-05
3.14851e-05
3.05103e-05
3.11098e-05
3.08831e-05
2.92399e-05
3.1295e-05
2.97769e-05
2.96851e-05
3.21022e-05
6.38594e-05
6.20906e-05
3.14847e-05
3.02075e-05
3.02102e-05
3.12717e-05
3.00223e-05
3.00224e-05
8.4405e-05
8.50596e-05
8.48358e-05
8.50754e-05
3.09622e-05
2.99291e-05
2.99305e-05
2.99682e-05
2.9969e-05
8.48342e-05
8.50741e-05
3.07952e-05
3.21337e-05
3.05017e-05
3.15525e-05
3.16317e-05
3.17095e-05
2.99026e-05
3.22721e-05
5.91803e-05
3.29042e-05
6.14319e-05
3.22725e-05
5.91801e-05
3.29046e-05
6.14318e-05
3.05099e-05
3.11101e-05
3.08831e-05
2.924e-05
3.1295e-05
2.97771e-05
2.96854e-05
3.05101e-05
3.111e-05
3.08831e-05
2.92396e-05
3.1295e-05
2.97765e-05
2.96857e-05
3.20991e-05
6.38597e-05
6.20907e-05
3.1488e-05
3.20995e-05
6.386e-05
6.20908e-05
3.14883e-05
8.44051e-05
8.50598e-05
8.44063e-05
8.50607e-05
3.09622e-05
2.99303e-05
2.99291e-05
2.99686e-05
2.99675e-05
8.48345e-05
8.50743e-05
8.48348e-05
8.50749e-05
8.46337e-05
8.38927e-05
8.46337e-05
8.38936e-05
2.99455e-05
2.99426e-05
2.9342e-05
3.00379e-05
3.00375e-05
8.25806e-05
8.35842e-05
8.25809e-05
8.35841e-05
2.90382e-05
3.03164e-05
3.03142e-05
3.01058e-05
3.01064e-05
3.0739e-05
6.43747e-05
3.13562e-05
6.57026e-05
2.85948e-05
2.91487e-05
3.04695e-05
2.97916e-05
2.94169e-05
2.86688e-05
3.00585e-05
2.85951e-05
2.91492e-05
3.04694e-05
2.97914e-05
2.94171e-05
2.86685e-05
3.00584e-05
3.06149e-05
6.70656e-05
6.60879e-05
3.0128e-05
3.06153e-05
6.70671e-05
6.60881e-05
3.01282e-05
2.83331e-05
2.93638e-05
2.82083e-05
2.92807e-05
2.8583e-05
2.966e-05
2.7571e-05
2.83333e-05
2.93636e-05
2.82086e-05
2.92807e-05
2.85833e-05
2.96599e-05
2.75712e-05
2.99434e-05
2.99445e-05
2.93421e-05
3.00378e-05
3.0036e-05
8.46335e-05
8.38928e-05
8.25797e-05
8.35842e-05
2.90383e-05
3.03151e-05
3.03144e-05
3.01064e-05
3.01053e-05
8.25806e-05
8.35842e-05
2.85951e-05
2.91489e-05
3.04695e-05
2.97918e-05
2.94167e-05
2.86683e-05
3.00584e-05
3.07416e-05
6.43771e-05
3.13528e-05
6.57048e-05
2.85948e-05
3.04694e-05
2.91481e-05
2.97913e-05
2.94165e-05
3.00584e-05
2.86682e-05
3.06138e-05
6.7069e-05
6.60904e-05
3.01293e-05
2.83331e-05
2.93639e-05
2.82077e-05
2.92807e-05
2.85832e-05
2.966e-05
2.7571e-05
3.06135e-05
6.70688e-05
6.60899e-05
3.0129e-05
2.83328e-05
2.93635e-05
2.92806e-05
2.8206e-05
2.96599e-05
2.8584e-05
2.75708e-05
3.07389e-05
6.43748e-05
3.13561e-05
6.5703e-05
2.85948e-05
3.04694e-05
2.91492e-05
2.97916e-05
2.94169e-05
3.00585e-05
2.86684e-05
3.07385e-05
6.43759e-05
3.13558e-05
6.57036e-05
2.83333e-05
2.93641e-05
2.82059e-05
2.92808e-05
2.85838e-05
2.966e-05
2.75712e-05
3.06152e-05
6.70675e-05
6.60883e-05
3.01282e-05
2.83331e-05
2.93637e-05
2.92807e-05
2.82085e-05
2.966e-05
2.85832e-05
2.75709e-05
3.06148e-05
6.70675e-05
6.60889e-05
3.01277e-05
2.99447e-05
2.99442e-05
2.93419e-05
3.0037e-05
3.00388e-05
8.46342e-05
8.38922e-05
8.25809e-05
8.35848e-05
2.90381e-05
3.03155e-05
3.03158e-05
3.01061e-05
3.01073e-05
8.25802e-05
8.35849e-05
2.85952e-05
3.04694e-05
2.91489e-05
2.97917e-05
2.94167e-05
3.00584e-05
2.86682e-05
3.07417e-05
6.43762e-05
3.13527e-05
6.57039e-05
3.07421e-05
6.43766e-05
3.13531e-05
6.57045e-05
2.83329e-05
2.9364e-05
2.92807e-05
2.82086e-05
2.96599e-05
2.85832e-05
2.75709e-05
2.83331e-05
2.93639e-05
2.92807e-05
2.82083e-05
2.96599e-05
2.85829e-05
2.75711e-05
3.06135e-05
6.70679e-05
6.60892e-05
3.0129e-05
3.06138e-05
6.70689e-05
6.609e-05
3.01293e-05
8.46344e-05
8.38924e-05
8.46347e-05
8.38923e-05
2.90381e-05
3.03156e-05
3.03147e-05
3.0107e-05
3.01062e-05
8.25803e-05
8.3585e-05
8.25799e-05
8.35849e-05
8.22376e-05
8.12312e-05
8.22369e-05
8.12311e-05
3.04367e-05
3.04359e-05
2.75426e-05
3.07851e-05
3.07845e-05
7.97584e-05
8.0857e-05
7.97578e-05
8.08558e-05
2.72616e-05
3.13516e-05
3.13507e-05
3.09415e-05
3.09416e-05
2.95243e-05
6.73252e-05
2.99872e-05
6.80199e-05
2.65697e-05
2.81334e-05
2.89181e-05
2.81848e-05
2.73099e-05
2.77688e-05
2.8559e-05
2.65699e-05
2.81333e-05
2.8918e-05
2.81846e-05
2.731e-05
2.77692e-05
2.8559e-05
2.93995e-05
6.86546e-05
6.82031e-05
2.90596e-05
2.93998e-05
6.86564e-05
6.82043e-05
2.906e-05
2.6329e-05
2.77922e-05
2.74993e-05
2.77884e-05
2.77182e-05
2.81861e-05
2.56641e-05
2.63292e-05
2.7792e-05
2.74994e-05
2.77883e-05
2.77186e-05
2.8186e-05
2.56643e-05
3.04354e-05
3.04393e-05
2.75428e-05
3.07851e-05
3.07809e-05
8.22375e-05
8.1231e-05
7.97573e-05
8.08562e-05
2.72617e-05
3.13507e-05
3.13491e-05
3.09418e-05
3.09424e-05
7.97582e-05
8.08563e-05
2.657e-05
2.81332e-05
2.89181e-05
2.81851e-05
2.73095e-05
2.77686e-05
2.8559e-05
2.95271e-05
6.73269e-05
2.99831e-05
6.80209e-05
2.65697e-05
2.89179e-05
2.81333e-05
2.81845e-05
2.73093e-05
2.85589e-05
2.7768e-05
2.93989e-05
6.86581e-05
6.82061e-05
2.90623e-05
2.6329e-05
2.77925e-05
2.74982e-05
2.77883e-05
2.7719e-05
2.81861e-05
2.56644e-05
2.93985e-05
6.86567e-05
6.82052e-05
2.90621e-05
2.63288e-05
2.77919e-05
2.77882e-05
2.74969e-05
2.81859e-05
2.7719e-05
2.56641e-05
2.95242e-05
6.73256e-05
2.99871e-05
6.80201e-05
2.65696e-05
2.8918e-05
2.81331e-05
2.81848e-05
2.73098e-05
2.8559e-05
2.77688e-05
2.95238e-05
6.73256e-05
2.99867e-05
6.80198e-05
2.63292e-05
2.77927e-05
2.74967e-05
2.77885e-05
2.77187e-05
2.81861e-05
2.56643e-05
2.93997e-05
6.86566e-05
6.82045e-05
2.90598e-05
2.6329e-05
2.77922e-05
2.77884e-05
2.7499e-05
2.81861e-05
2.77182e-05
2.56641e-05
2.93993e-05
6.86559e-05
6.82041e-05
2.90595e-05
3.04387e-05
3.04364e-05
2.75425e-05
3.07838e-05
3.07861e-05
8.22379e-05
8.12308e-05
7.9758e-05
8.08562e-05
2.72615e-05
3.13513e-05
3.13517e-05
3.09434e-05
3.09423e-05
7.9758e-05
8.08569e-05
2.65701e-05
2.8918e-05
2.81329e-05
2.8185e-05
2.73095e-05
2.8559e-05
2.77687e-05
2.95272e-05
6.7326e-05
2.9983e-05
6.80202e-05
2.95276e-05
6.7327e-05
2.99833e-05
6.80215e-05
2.63289e-05
2.77926e-05
2.77884e-05
2.74991e-05
2.8186e-05
2.77183e-05
2.56643e-05
2.6329e-05
2.77925e-05
2.77884e-05
2.7499e-05
2.8186e-05
2.77182e-05
2.56644e-05
2.93985e-05
6.86564e-05
6.82045e-05
2.90622e-05
2.93988e-05
6.86579e-05
6.82059e-05
2.90624e-05
8.2238e-05
8.12309e-05
8.22375e-05
8.12302e-05
2.72615e-05
3.13514e-05
3.13512e-05
3.09422e-05
3.09417e-05
7.97581e-05
8.0857e-05
7.97572e-05
8.08562e-05
7.94356e-05
7.88121e-05
7.94342e-05
7.88113e-05
3.15154e-05
3.15152e-05
2.57618e-05
3.19105e-05
3.19106e-05
7.86784e-05
7.8721e-05
7.86776e-05
7.872e-05
2.5503e-05
3.24167e-05
3.24166e-05
3.19794e-05
3.198e-05
2.8433e-05
6.8757e-05
2.90132e-05
6.88957e-05
2.46646e-05
2.74348e-05
2.73733e-05
2.65007e-05
2.54413e-05
2.69244e-05
2.69688e-05
2.46648e-05
2.74348e-05
2.73733e-05
2.65004e-05
2.54414e-05
2.69245e-05
2.69688e-05
2.82161e-05
6.91385e-05
6.89243e-05
2.79168e-05
2.82163e-05
6.91405e-05
6.89263e-05
2.7917e-05
2.44128e-05
2.61259e-05
2.67289e-05
2.63285e-05
2.68218e-05
2.66114e-05
2.39047e-05
2.4413e-05
2.61255e-05
2.67293e-05
2.63284e-05
2.6822e-05
2.66114e-05
2.39048e-05
3.15151e-05
3.15171e-05
2.5762e-05
3.19104e-05
3.19084e-05
7.94349e-05
7.88119e-05
7.86776e-05
7.87203e-05
2.55031e-05
3.24174e-05
3.24126e-05
3.19793e-05
3.19798e-05
7.8677e-05
7.87205e-05
2.46644e-05
2.74345e-05
2.73733e-05
2.6501e-05
2.54412e-05
2.69244e-05
2.69688e-05
2.84324e-05
6.87573e-05
2.90142e-05
6.88955e-05
2.46642e-05
2.73731e-05
2.74348e-05
2.65002e-05
2.5441e-05
2.69686e-05
2.69248e-05
2.82156e-05
6.91417e-05
6.89276e-05
2.79168e-05
2.44127e-05
2.61262e-05
2.67286e-05
2.63284e-05
2.68222e-05
2.66114e-05
2.39046e-05
2.82153e-05
6.91401e-05
6.89265e-05
2.79166e-05
2.44125e-05
2.61254e-05
2.63283e-05
2.67279e-05
2.66112e-05
2.68231e-05
2.39044e-05
2.84329e-05
6.87573e-05
2.90131e-05
6.88957e-05
2.46644e-05
2.73733e-05
2.74343e-05
2.65006e-05
2.54412e-05
2.69688e-05
2.69239e-05
2.84325e-05
6.87563e-05
2.90128e-05
6.88947e-05
2.44129e-05
2.61264e-05
2.67274e-05
2.63286e-05
2.68225e-05
2.66115e-05
2.39047e-05
2.82162e-05
6.91404e-05
6.89268e-05
2.79168e-05
2.44127e-05
2.61258e-05
2.63285e-05
2.67287e-05
2.66114e-05
2.68214e-05
2.39046e-05
2.82159e-05
6.91393e-05
6.89252e-05
2.79165e-05
3.15181e-05
3.15155e-05
2.57616e-05
3.19109e-05
3.19111e-05
7.94354e-05
7.8812e-05
7.86768e-05
7.87203e-05
2.55029e-05
3.24153e-05
3.24177e-05
3.19814e-05
3.198e-05
7.86783e-05
7.8721e-05
2.46645e-05
2.73733e-05
2.74344e-05
2.6501e-05
2.54412e-05
2.69688e-05
2.6924e-05
2.84323e-05
6.87568e-05
2.90143e-05
6.88952e-05
2.84327e-05
6.87584e-05
2.90146e-05
6.88971e-05
2.44125e-05
2.61262e-05
2.63285e-05
2.67289e-05
2.66114e-05
2.68214e-05
2.39045e-05
2.44127e-05
2.61262e-05
2.63285e-05
2.67288e-05
2.66114e-05
2.68215e-05
2.39046e-05
2.82152e-05
6.91397e-05
6.89257e-05
2.79166e-05
2.82155e-05
6.91417e-05
6.89276e-05
2.79168e-05
7.94354e-05
7.8812e-05
7.94345e-05
7.8811e-05
2.55028e-05
3.24172e-05
3.24179e-05
3.19797e-05
3.198e-05
7.86783e-05
7.8721e-05
7.86775e-05
7.87201e-05
7.87013e-05
7.88348e-05
7.87002e-05
7.88352e-05
3.27207e-05
3.27216e-05
2.48079e-05
3.35743e-05
3.35747e-05
7.89387e-05
7.88787e-05
7.89387e-05
7.88777e-05
2.47953e-05
3.43307e-05
3.43327e-05
3.38391e-05
3.38406e-05
2.79929e-05
6.92579e-05
2.79185e-05
6.96036e-05
2.37912e-05
2.67409e-05
2.61281e-05
2.55559e-05
2.38316e-05
2.70215e-05
2.60009e-05
2.37912e-05
2.67414e-05
2.6128e-05
2.55557e-05
2.38317e-05
2.70221e-05
2.60009e-05
2.80762e-05
6.98625e-05
6.97005e-05
2.82349e-05
2.80763e-05
6.9865e-05
6.97027e-05
2.82351e-05
2.38002e-05
2.5518e-05
2.76305e-05
2.58912e-05
2.72555e-05
2.59283e-05
2.39003e-05
2.38002e-05
2.55177e-05
2.76313e-05
2.58911e-05
2.72561e-05
2.59283e-05
2.39003e-05
3.27214e-05
3.27196e-05
2.4808e-05
3.35752e-05
3.35717e-05
7.86998e-05
7.88311e-05
7.89383e-05
7.88782e-05
2.47953e-05
3.43319e-05
3.43266e-05
3.38402e-05
3.38387e-05
7.89348e-05
7.88763e-05
2.37909e-05
2.67407e-05
2.6128e-05
2.55562e-05
2.38313e-05
2.70207e-05
2.60009e-05
2.79926e-05
6.92582e-05
2.79176e-05
6.96019e-05
2.37908e-05
2.61279e-05
2.67405e-05
2.55555e-05
2.38312e-05
2.60007e-05
2.70193e-05
2.80771e-05
6.98649e-05
6.97035e-05
2.82362e-05
2.38e-05
2.55183e-05
2.76312e-05
2.58911e-05
2.72561e-05
2.59283e-05
2.39005e-05
2.80769e-05
6.98608e-05
6.97011e-05
2.82359e-05
2.37999e-05
2.55176e-05
2.5891e-05
2.76305e-05
2.59281e-05
2.72565e-05
2.39003e-05
2.79927e-05
6.92585e-05
2.79183e-05
6.96023e-05
2.3791e-05
2.61281e-05
2.67407e-05
2.55558e-05
2.38315e-05
2.60009e-05
2.70213e-05
2.79925e-05
6.92566e-05
2.7918e-05
6.96019e-05
2.38001e-05
2.55185e-05
2.76299e-05
2.58912e-05
2.72555e-05
2.59283e-05
2.39003e-05
2.80762e-05
6.98616e-05
6.97016e-05
2.8235e-05
2.38e-05
2.55179e-05
2.58911e-05
2.76302e-05
2.59283e-05
2.72552e-05
2.39001e-05
2.8076e-05
6.9863e-05
6.9701e-05
2.82348e-05
3.27222e-05
3.27215e-05
2.48076e-05
3.35745e-05
3.3575e-05
7.87012e-05
7.88348e-05
7.89344e-05
7.88761e-05
2.47951e-05
3.43292e-05
3.43314e-05
3.38412e-05
3.38397e-05
7.89386e-05
7.88787e-05