/*--------------------------------*- C++ -*----------------------------------*\
| =========                 |                                                 |
| \\      /  F ield         | OpenFOAM: The Open Source CFD Toolbox           |
|  \\    /   O peration     | Version:  2206                                  |
|   \\  /    A nd           | Website:  www.openfoam.com                      |
|    \\/     M anipulation  |                                                 |
\*---------------------------------------------------------------------------*/
FoamFile
{
    version     2.0;
    format      ascii;
    arch        "LSB;label=32;scalar=64";
    class       volScalarField;
    location    "32";
    object      epsilon;
}
// * * * * * * * * * * * * * * * * * * * * * * * * * * * * * * * * * * * * * //

dimensions      [0 2 -3 0 0 0 0];

internalField   nonuniform List<scalar> 
28335
(
2.66137e-07
2.9421e-07
2.94221e-07
3.28369e-07
2.66139e-07
2.94213e-07
2.94224e-07
3.28374e-07
2.6614e-07
2.94217e-07
2.94228e-07
3.28381e-07
2.6614e-07
2.9422e-07
2.94231e-07
3.28389e-07
2.66137e-07
2.94222e-07
2.94232e-07
3.28397e-07
2.66135e-07
2.94223e-07
2.94234e-07
3.28402e-07
2.66125e-07
2.94212e-07
2.94223e-07
3.28395e-07
2.66039e-07
2.94118e-07
2.94129e-07
3.28295e-07
2.66019e-07
2.94099e-07
2.9411e-07
3.28255e-07
2.66019e-07
2.94099e-07
2.9411e-07
3.28268e-07
2.66018e-07
2.94098e-07
2.94109e-07
3.28264e-07
2.66018e-07
2.94098e-07
2.94109e-07
3.28265e-07
2.66018e-07
2.94098e-07
2.94109e-07
3.28262e-07
2.66018e-07
2.94098e-07
2.94109e-07
3.28262e-07
2.66018e-07
2.94098e-07
2.9411e-07
3.28265e-07
2.66018e-07
2.94098e-07
2.9411e-07
3.28265e-07
2.66018e-07
2.94098e-07
2.94109e-07
3.28264e-07
3.28094e-07
2.94232e-07
2.94238e-07
3.28085e-07
2.94216e-07
2.94245e-07
2.9421e-07
2.94236e-07
3.28102e-07
2.94221e-07
2.94219e-07
3.28101e-07
3.28364e-07
3.281e-07
2.94235e-07
2.94241e-07
2.94235e-07
2.94241e-07
3.28355e-07
3.2809e-07
2.94219e-07
2.94248e-07
2.94219e-07
2.94248e-07
2.94239e-07
2.94213e-07
2.94238e-07
3.28371e-07
3.28107e-07
2.94222e-07
2.94224e-07
2.94222e-07
3.28106e-07
3.2837e-07
3.28106e-07
2.94238e-07
2.94244e-07
2.94239e-07
2.94244e-07
3.28361e-07
3.28097e-07
2.94222e-07
2.94251e-07
2.94223e-07
2.94251e-07
2.94241e-07
2.94216e-07
2.94241e-07
3.28377e-07
3.28114e-07
2.94225e-07
2.94228e-07
2.94225e-07
3.28113e-07
3.28376e-07
3.28114e-07
2.94242e-07
2.94247e-07
2.94243e-07
2.94248e-07
3.28367e-07
3.28105e-07
2.94226e-07
2.94254e-07
2.94226e-07
2.94255e-07
2.94245e-07
2.9422e-07
2.94246e-07
3.28383e-07
3.28122e-07
2.94228e-07
2.94231e-07
2.94229e-07
3.28121e-07
3.28385e-07
3.28122e-07
2.94246e-07
2.94251e-07
2.94246e-07
2.94251e-07
3.28376e-07
3.28113e-07
2.94229e-07
2.94259e-07
2.94229e-07
2.94258e-07
2.94249e-07
2.94222e-07
2.94248e-07
3.28392e-07
3.28129e-07
2.94232e-07
2.94232e-07
2.94231e-07
3.28128e-07
3.28392e-07
3.28128e-07
2.94248e-07
2.94253e-07
2.94246e-07
2.94251e-07
3.28383e-07
3.28118e-07
2.94232e-07
2.94261e-07
2.9423e-07
2.94258e-07
2.9425e-07
2.94223e-07
2.94248e-07
3.28399e-07
3.28135e-07
2.94233e-07
2.94234e-07
2.94231e-07
3.28134e-07
3.28398e-07
3.28125e-07
2.94247e-07
2.94253e-07
2.94244e-07
2.94249e-07
3.28389e-07
3.28116e-07
2.94231e-07
2.9426e-07
2.94228e-07
2.94257e-07
2.9425e-07
2.94221e-07
2.94247e-07
3.28405e-07
3.28133e-07
2.94233e-07
2.94232e-07
2.9423e-07
3.28131e-07
3.28391e-07
3.28035e-07
2.94236e-07
2.94241e-07
2.94162e-07
2.94167e-07
3.28382e-07
3.28025e-07
2.9422e-07
2.94249e-07
2.94146e-07
2.94175e-07
2.94239e-07
2.94139e-07
2.94165e-07
3.28398e-07
3.28042e-07
2.94222e-07
2.9415e-07
2.94148e-07
3.28042e-07
3.2829e-07
3.27977e-07
2.94143e-07
2.94148e-07
2.94122e-07
2.94128e-07
3.28281e-07
3.27967e-07
2.94127e-07
2.94155e-07
2.94106e-07
2.94135e-07
2.94146e-07
2.94099e-07
2.94126e-07
3.28297e-07
3.27985e-07
2.94129e-07
2.9411e-07
2.94109e-07
3.27986e-07
3.28249e-07
3.27994e-07
2.94124e-07
2.94129e-07
2.94123e-07
2.94128e-07
3.2824e-07
3.27984e-07
2.94108e-07
2.94137e-07
2.94107e-07
2.94135e-07
2.94127e-07
2.94099e-07
2.94126e-07
3.28256e-07
3.28001e-07
2.9411e-07
2.9411e-07
2.94109e-07
3.28002e-07
3.28262e-07
3.27989e-07
2.94124e-07
2.94129e-07
2.94121e-07
2.94127e-07
3.28253e-07
3.27979e-07
2.94108e-07
2.94136e-07
2.94106e-07
2.94134e-07
2.94127e-07
2.94098e-07
2.94125e-07
3.28269e-07
3.27996e-07
2.9411e-07
2.94109e-07
2.94108e-07
3.27996e-07
3.28259e-07
3.27989e-07
2.94123e-07
2.94128e-07
2.94121e-07
2.94127e-07
3.28249e-07
3.27979e-07
2.94107e-07
2.94136e-07
2.94106e-07
2.94134e-07
2.94126e-07
2.94099e-07
2.94125e-07
3.28265e-07
3.27996e-07
2.94109e-07
2.94109e-07
2.94108e-07
3.27997e-07
3.2826e-07
3.27987e-07
2.94123e-07
2.94129e-07
2.94121e-07
2.94127e-07
3.2825e-07
3.27977e-07
2.94107e-07
2.94136e-07
2.94106e-07
2.94134e-07
2.94127e-07
2.94098e-07
2.94125e-07
3.28266e-07
3.27994e-07
2.94109e-07
2.94109e-07
2.94108e-07
3.27994e-07
3.28256e-07
3.27989e-07
2.94123e-07
2.94129e-07
2.94121e-07
2.94127e-07
3.28247e-07
3.27979e-07
2.94108e-07
2.94136e-07
2.94106e-07
2.94134e-07
2.94127e-07
2.94098e-07
2.94125e-07
3.28264e-07
3.27996e-07
2.9411e-07
2.94109e-07
2.94108e-07
3.27997e-07
3.28258e-07
3.2799e-07
2.94123e-07
2.94128e-07
2.94121e-07
2.94127e-07
3.28248e-07
3.2798e-07
2.94107e-07
2.94136e-07
2.94106e-07
2.94134e-07
2.94126e-07
2.94098e-07
2.94125e-07
3.28265e-07
3.27997e-07
2.94109e-07
2.9411e-07
2.94108e-07
3.27999e-07
3.28259e-07
3.2799e-07
2.94123e-07
2.94129e-07
2.94121e-07
2.94127e-07
3.2825e-07
3.2798e-07
2.94107e-07
2.94136e-07
2.94106e-07
2.94134e-07
2.94127e-07
2.94098e-07
2.94125e-07
3.28266e-07
3.27997e-07
2.94109e-07
2.9411e-07
2.94107e-07
3.27998e-07
3.28259e-07
3.2799e-07
2.94123e-07
2.94129e-07
2.94121e-07
2.94127e-07
3.28249e-07
3.2798e-07
2.94108e-07
2.94136e-07
2.94106e-07
2.94134e-07
2.94127e-07
2.94098e-07
2.94125e-07
3.28265e-07
3.27997e-07
2.94109e-07
2.94109e-07
2.94107e-07
3.27998e-07
3.28259e-07
2.94123e-07
2.94128e-07
3.28249e-07
2.94107e-07
2.94135e-07
2.94126e-07
3.28265e-07
2.94109e-07
1.78391e-06
8.8919e-06
2.17502e-05
1.78381e-06
8.89342e-06
2.66137e-07
2.66138e-07
2.66142e-07
2.6614e-07
5.4959e-07
2.9421e-07
1.42352e-06
2.75844e-07
2.17498e-05
5.4961e-07
2.94221e-07
2.75847e-07
1.42349e-06
3.28091e-07
3.12664e-06
3.12753e-06
1.78413e-06
8.89205e-06
1.78466e-06
8.89164e-06
2.17484e-05
2.17476e-05
1.78404e-06
8.89357e-06
1.78451e-06
8.89312e-06
2.6614e-07
2.66143e-07
2.66142e-07
2.66139e-07
2.66139e-07
2.66143e-07
2.66141e-07
5.49623e-07
1.42448e-06
2.75843e-07
2.94213e-07
5.49776e-07
1.42369e-06
2.75846e-07
2.17485e-05
2.17475e-05
5.49643e-07
2.75846e-07
1.42442e-06
2.94224e-07
5.498e-07
2.75848e-07
1.42367e-06
3.12751e-06
3.12837e-06
3.28103e-07
3.12707e-06
3.12793e-06
1.78423e-06
8.89195e-06
1.7848e-06
8.89152e-06
2.17468e-05
2.17465e-05
1.78413e-06
8.89342e-06
1.78465e-06
8.89298e-06
2.66139e-07
2.66143e-07
2.66141e-07
2.6614e-07
2.66138e-07
2.66142e-07
2.6614e-07
5.49652e-07
1.4246e-06
2.75845e-07
2.94216e-07
5.49808e-07
1.42378e-06
2.75848e-07
2.1747e-05
2.17465e-05
5.49672e-07
2.75847e-07
1.42454e-06
2.94227e-07
5.49832e-07
2.7585e-07
1.42376e-06
3.12774e-06
3.12859e-06
3.28109e-07
3.12719e-06
3.12805e-06
1.78426e-06
8.8918e-06
1.78485e-06
8.89141e-06
2.17465e-05
2.17465e-05
1.78416e-06
8.89327e-06
1.78469e-06
8.89287e-06
2.66141e-07
2.66144e-07
2.66142e-07
2.66141e-07
2.6614e-07
2.66144e-07
2.66142e-07
5.49674e-07
1.42465e-06
2.75847e-07
2.9422e-07
5.49833e-07
1.42382e-06
2.7585e-07
2.17464e-05
2.17462e-05
5.49693e-07
2.75849e-07
1.42458e-06
2.94231e-07
5.49856e-07
2.75852e-07
1.42378e-06
3.12777e-06
3.12863e-06
3.28116e-07
3.12723e-06
3.1281e-06
1.78424e-06
8.89177e-06
1.78484e-06
8.89141e-06
2.17467e-05
2.17468e-05
1.78413e-06
8.89326e-06
1.78467e-06
8.89289e-06
2.6614e-07
2.66144e-07
2.66142e-07
2.66138e-07
2.66138e-07
2.66142e-07
2.6614e-07
5.49685e-07
1.42467e-06
2.75848e-07
2.94223e-07
5.49847e-07
1.42384e-06
2.7585e-07
2.17466e-05
2.17466e-05
5.49702e-07
2.75851e-07
1.4246e-06
2.94234e-07
5.49869e-07
2.75853e-07
1.4238e-06
3.12786e-06
3.12872e-06
3.28124e-07
3.12734e-06
3.12821e-06
1.78423e-06
8.89183e-06
1.78481e-06
8.8915e-06
2.17472e-05
2.17474e-05
1.78412e-06
8.89334e-06
1.78465e-06
8.893e-06
2.66138e-07
2.66141e-07
2.66139e-07
2.66135e-07
2.66134e-07
2.66137e-07
2.66135e-07
5.49695e-07
1.42468e-06
2.75848e-07
2.94223e-07
5.49856e-07
1.42384e-06
2.75847e-07
2.17473e-05
2.17473e-05
5.49714e-07
2.75849e-07
1.42461e-06
2.94234e-07
5.49879e-07
2.75849e-07
1.4238e-06
3.12795e-06
3.12881e-06
3.28131e-07
3.12738e-06
3.12824e-06
1.78428e-06
8.89206e-06
1.78481e-06
8.89192e-06
2.1748e-05
2.17481e-05
1.78418e-06
8.89346e-06
1.78465e-06
8.89324e-06
2.66134e-07
2.66137e-07
2.66135e-07
2.66131e-07
2.6613e-07
2.66134e-07
2.66132e-07
5.49704e-07
1.4247e-06
2.75844e-07
2.94225e-07
5.49865e-07
1.4239e-06
2.75845e-07
2.17481e-05
2.1748e-05
5.4972e-07
2.75847e-07
1.42463e-06
2.94236e-07
5.49886e-07
2.75847e-07
1.42387e-06
3.12793e-06
3.12879e-06
3.28135e-07
3.12744e-06
3.12831e-06
1.78438e-06
8.8925e-06
1.78504e-06
8.89216e-06
2.1747e-05
2.17466e-05
1.78427e-06
8.8938e-06
1.78488e-06
8.8934e-06
2.66125e-07
2.66129e-07
2.66127e-07
2.66059e-07
2.66058e-07
2.66062e-07
2.6606e-07
5.49652e-07
1.42481e-06
2.75836e-07
2.94193e-07
5.49863e-07
1.42392e-06
2.75821e-07
2.17473e-05
2.17467e-05
5.49671e-07
2.75838e-07
1.42474e-06
2.94204e-07
5.49885e-07
2.75823e-07
1.42388e-06
3.12809e-06
3.12894e-06
3.28105e-07
3.12746e-06
3.12832e-06
1.78411e-06
8.89241e-06
1.78478e-06
8.89198e-06
2.17463e-05
2.17463e-05
1.78401e-06
8.89365e-06
1.78462e-06
8.89318e-06
2.6604e-07
2.66043e-07
2.66041e-07
2.66019e-07
2.6602e-07
2.66024e-07
2.66022e-07
5.49528e-07
1.42462e-06
2.75748e-07
2.94108e-07
5.49726e-07
1.42371e-06
2.75738e-07
2.17465e-05
2.17463e-05
5.49546e-07
2.7575e-07
1.42456e-06
2.94119e-07
5.49746e-07
2.7574e-07
1.42368e-06
3.12784e-06
3.1287e-06
3.27994e-07
3.12718e-06
3.12805e-06
1.78403e-06
8.89228e-06
1.78464e-06
8.89191e-06
2.17463e-05
2.17463e-05
1.78393e-06
8.8935e-06
1.78448e-06
8.89309e-06
2.66022e-07
2.66025e-07
2.66024e-07
2.66019e-07
2.6602e-07
2.66024e-07
2.66022e-07
5.49504e-07
1.42451e-06
2.75729e-07
2.94101e-07
5.49672e-07
1.42365e-06
2.75732e-07
2.17464e-05
2.17462e-05
5.49522e-07
2.75731e-07
1.42444e-06
2.94112e-07
5.49693e-07
2.75734e-07
1.42363e-06
3.12768e-06
3.12853e-06
3.27998e-07
3.1271e-06
3.12796e-06
1.78402e-06
8.89226e-06
1.78462e-06
8.8919e-06
2.17463e-05
2.17463e-05
1.78393e-06
8.89346e-06
1.78446e-06
8.89307e-06
2.66021e-07
2.66025e-07
2.66023e-07
2.66018e-07
2.6602e-07
2.66023e-07
2.66022e-07
5.49503e-07
1.42449e-06
2.75729e-07
2.941e-07
5.4967e-07
1.42365e-06
2.7573e-07
2.17464e-05
2.17462e-05
5.49521e-07
2.75731e-07
1.42443e-06
2.94111e-07
5.49692e-07
2.75732e-07
1.42362e-06
3.12766e-06
3.12851e-06
3.27997e-07
3.12709e-06
3.12795e-06
1.78402e-06
8.89226e-06
1.78462e-06
8.8919e-06
2.17463e-05
2.17463e-05
1.78393e-06
8.89345e-06
1.78446e-06
8.89306e-06
2.66021e-07
2.66025e-07
2.66023e-07
2.66018e-07
2.6602e-07
2.66024e-07
2.66022e-07
5.49501e-07
1.42449e-06
2.75729e-07
2.941e-07
5.49667e-07
1.42365e-06
2.7573e-07
2.17464e-05
2.17462e-05
5.4952e-07
2.75731e-07
1.42443e-06
2.94111e-07
5.4969e-07
2.75732e-07
1.42362e-06
3.12766e-06
3.12851e-06
3.27996e-07
3.12709e-06
3.12795e-06
1.78402e-06
8.89226e-06
1.78462e-06
8.8919e-06
2.17463e-05
2.17463e-05
1.78393e-06
8.89345e-06
1.78446e-06
8.89306e-06
2.66021e-07
2.66025e-07
2.66023e-07
2.66018e-07
2.6602e-07
2.66023e-07
2.66022e-07
5.49502e-07
1.42449e-06
2.75729e-07
2.941e-07
5.49667e-07
1.42365e-06
2.7573e-07
2.17464e-05
2.17462e-05
5.49526e-07
2.75731e-07
1.42443e-06
2.94111e-07
5.49692e-07
2.75732e-07
1.42362e-06
3.12766e-06
3.12851e-06
3.27999e-07
3.12709e-06
3.12795e-06
1.78402e-06
8.89226e-06
1.78462e-06
8.8919e-06
2.17463e-05
2.17463e-05
1.78392e-06
8.89344e-06
1.78446e-06
8.89306e-06
2.66021e-07
2.66025e-07
2.66023e-07
2.66018e-07
2.6602e-07
2.66023e-07
2.66022e-07
5.49502e-07
1.42449e-06
2.75729e-07
2.941e-07
5.49668e-07
1.42365e-06
2.7573e-07
2.17464e-05
2.17462e-05
5.49535e-07
2.75731e-07
1.42443e-06
2.94111e-07
5.49701e-07
2.75733e-07
1.42362e-06
3.12766e-06
3.12851e-06
3.27999e-07
3.12709e-06
3.12795e-06
1.78402e-06
8.89226e-06
1.78462e-06
8.8919e-06
2.17463e-05
2.17463e-05
1.78392e-06
8.89344e-06
1.78446e-06
8.89306e-06
2.66021e-07
2.66025e-07
2.66023e-07
2.66018e-07
2.6602e-07
2.66024e-07
2.66022e-07
5.495e-07
1.42449e-06
2.75729e-07
2.941e-07
5.49666e-07
1.42365e-06
2.7573e-07
2.17464e-05
2.17462e-05
5.49539e-07
2.75731e-07
1.42443e-06
2.94111e-07
5.49708e-07
2.75732e-07
1.42362e-06
3.12765e-06
3.12851e-06
3.27996e-07
3.12709e-06
3.12795e-06
1.78402e-06
8.89226e-06
1.78462e-06
8.8919e-06
2.17463e-05
2.17463e-05
1.78392e-06
8.89344e-06
1.78446e-06
8.89306e-06
2.66021e-07
2.66025e-07
2.66023e-07
2.66018e-07
2.6602e-07
2.66024e-07
2.66022e-07
5.49501e-07
1.42449e-06
2.75729e-07
2.941e-07
5.49667e-07
1.42365e-06
2.7573e-07
2.17464e-05
2.17462e-05
5.4954e-07
2.75731e-07
1.42443e-06
2.94111e-07
5.4971e-07
2.75733e-07
1.42362e-06
3.12765e-06
3.12851e-06
3.27995e-07
3.12709e-06
3.12795e-06
1.78402e-06
8.89226e-06
1.78462e-06
8.8919e-06
2.17463e-05
2.17463e-05
1.78392e-06
8.89344e-06
1.78446e-06
8.89306e-06
2.66021e-07
2.66025e-07
2.66023e-07
2.66018e-07
2.6602e-07
2.66023e-07
2.66022e-07
5.49502e-07
1.42449e-06
2.75729e-07
2.941e-07
5.49668e-07
1.42365e-06
2.7573e-07
2.17464e-05
2.17462e-05
5.49538e-07
2.75731e-07
1.42443e-06
2.94111e-07
5.49709e-07
2.75733e-07
1.42362e-06
3.12765e-06
3.12851e-06
3.27996e-07
3.12709e-06
3.12795e-06
1.78402e-06
8.89226e-06
1.78461e-06
8.8919e-06
2.17463e-05
2.17463e-05
1.78392e-06
8.89344e-06
1.78446e-06
8.89306e-06
2.66021e-07
2.66024e-07
2.66022e-07
5.49504e-07
1.42449e-06
2.75729e-07
2.94099e-07
5.49668e-07
1.42365e-06
2.75731e-07
2.17464e-05
2.17462e-05
5.49538e-07
2.75731e-07
1.42443e-06
2.94111e-07
5.49706e-07
2.75733e-07
1.42362e-06
3.12765e-06
3.12851e-06
3.27996e-07
3.12718e-06
3.12811e-06
2.17494e-05
2.17505e-05
3.28084e-07
3.12661e-06
3.12742e-06
2.17477e-05
2.17491e-05
2.17488e-05
2.17502e-05
3.28359e-07
3.1268e-06
3.12764e-06
3.12717e-06
3.128e-06
1.78393e-06
8.89281e-06
5.49587e-07
2.94232e-07
1.42344e-06
2.75845e-07
5.49591e-07
2.94238e-07
1.42363e-06
2.75846e-07
1.78453e-06
8.89172e-06
8.89221e-06
1.78404e-06
1.78456e-06
8.89261e-06
8.89312e-06
1.78407e-06
5.49761e-07
2.94232e-07
1.42354e-06
2.75844e-07
1.42426e-06
2.75844e-07
5.49603e-07
5.49766e-07
2.94238e-07
1.42374e-06
2.75846e-07
1.42447e-06
2.75846e-07
5.49607e-07
3.28074e-07
3.12738e-06
3.12633e-06
2.17472e-05
2.17486e-05
2.17499e-05
3.2835e-07
3.12783e-06
3.12666e-06
3.12808e-06
3.12704e-06
2.17458e-05
2.17473e-05
5.49611e-07
2.94216e-07
1.42374e-06
2.75847e-07
1.7838e-06
8.8929e-06
5.49599e-07
2.94245e-07
2.7585e-07
1.4238e-06
1.78438e-06
8.89323e-06
8.89375e-06
1.78394e-06
5.49782e-07
2.94216e-07
1.42384e-06
2.75847e-07
1.42456e-06
2.75847e-07
5.49627e-07
1.78437e-06
8.89271e-06
8.89323e-06
1.78393e-06
5.49772e-07
2.94245e-07
2.7585e-07
1.42391e-06
2.7585e-07
1.42467e-06
5.49615e-07
1.78395e-06
8.89231e-06
5.49596e-07
2.94236e-07
2.75847e-07
1.4235e-06
1.78394e-06
8.89294e-06
5.49763e-07
2.9421e-07
1.42362e-06
2.75843e-07
1.42438e-06
2.75844e-07
5.49606e-07
1.78457e-06
8.89212e-06
8.89265e-06
1.78408e-06
5.49768e-07
2.94236e-07
2.75846e-07
1.4236e-06
2.75846e-07
1.42433e-06
5.49612e-07
1.78456e-06
8.89275e-06
8.89325e-06
1.78407e-06
3.28091e-07
3.1274e-06
3.12665e-06
2.17502e-05
2.17484e-05
2.17498e-05
3.28366e-07
3.1278e-06
3.12686e-06
3.12815e-06
3.12723e-06
2.17485e-05
2.17499e-05
5.49614e-07
2.94219e-07
2.75846e-07
1.42367e-06
1.78379e-06
8.89309e-06
1.7838e-06
8.89372e-06
5.49787e-07
2.94221e-07
2.75846e-07
1.42359e-06
2.75846e-07
1.42432e-06
5.49626e-07
5.49791e-07
2.94219e-07
2.75846e-07
1.42377e-06
2.75846e-07
1.42451e-06
5.49631e-07
1.78437e-06
8.89289e-06
8.89339e-06
1.78392e-06
1.78438e-06
8.89353e-06
8.89403e-06
1.78393e-06
2.17503e-05
2.17509e-05
3.28365e-07
3.1269e-06
3.12777e-06
3.12725e-06
3.12812e-06
2.17487e-05
2.175e-05
2.17493e-05
2.17506e-05
2.17475e-05
2.17467e-05
2.17486e-05
2.17478e-05
3.12736e-06
3.1282e-06
3.28097e-07
3.12697e-06
3.1278e-06
2.17461e-05
2.17466e-05
2.17471e-05
2.17477e-05
3.28368e-07
3.12708e-06
3.1279e-06
3.12753e-06
3.12835e-06
1.78416e-06
8.89294e-06
1.78467e-06
8.89251e-06
5.49621e-07
1.42436e-06
2.75846e-07
2.94235e-07
5.49778e-07
1.42362e-06
2.75846e-07
5.49625e-07
1.42457e-06
2.75847e-07
2.94241e-07
5.49782e-07
1.42382e-06
2.75847e-07
1.78474e-06
8.8916e-06
8.89199e-06
1.7842e-06
1.78476e-06
8.89245e-06
8.89286e-06
1.78422e-06
5.49795e-07
2.94235e-07
1.42368e-06
2.75845e-07
1.42444e-06
2.75845e-07
5.49637e-07
5.49799e-07
2.9424e-07
1.42387e-06
2.75846e-07
1.42464e-06
2.75846e-07
5.4964e-07
3.12842e-06
3.12732e-06
3.28087e-07
3.12798e-06
3.12685e-06
2.17459e-05
2.17449e-05
2.17469e-05
2.17475e-05
3.28358e-07
3.12801e-06
3.12694e-06
3.12853e-06
3.12748e-06
2.17443e-05
2.1745e-05
5.49645e-07
1.42466e-06
2.75849e-07
2.94219e-07
5.49798e-07
1.42392e-06
2.75849e-07
1.78402e-06
8.89307e-06
1.78449e-06
8.89263e-06
5.49632e-07
2.75851e-07
1.42477e-06
2.94248e-07
5.49788e-07
2.75851e-07
1.42398e-06
1.78458e-06
8.89306e-06
8.89348e-06
1.7841e-06
5.49816e-07
2.94219e-07
1.42398e-06
2.75847e-07
1.42473e-06
2.75847e-07
5.49661e-07
1.78457e-06
8.89257e-06
8.893e-06
1.78408e-06
5.49805e-07
2.94248e-07
2.7585e-07
1.42404e-06
2.7585e-07
1.42484e-06
5.49648e-07
1.78417e-06
8.89247e-06
1.78469e-06
8.892e-06
5.49629e-07
2.75847e-07
1.42443e-06
2.94239e-07
5.49785e-07
2.75847e-07
1.42368e-06
1.78417e-06
8.89308e-06
1.78468e-06
8.89265e-06
5.49796e-07
2.94213e-07
1.42375e-06
2.75845e-07
1.42454e-06
2.75845e-07
5.49638e-07
1.78477e-06
8.89193e-06
8.89237e-06
1.78423e-06
5.49801e-07
2.94238e-07
2.75846e-07
1.42374e-06
2.75846e-07
1.4245e-06
5.49644e-07
1.78477e-06
8.89258e-06
8.89299e-06
1.78423e-06
3.12847e-06
3.12742e-06
3.28104e-07
3.12795e-06
3.12702e-06
2.17483e-05
2.17475e-05
2.17469e-05
2.17476e-05
3.28375e-07
3.12796e-06
3.12712e-06
3.12857e-06
3.12757e-06
2.17468e-05
2.17474e-05
5.49649e-07
2.75847e-07
1.4246e-06
2.94222e-07
5.49809e-07
2.75847e-07
1.42385e-06
1.78402e-06
8.89322e-06
1.78449e-06
8.89279e-06
1.78403e-06
8.89386e-06
1.7845e-06
8.89343e-06
5.4982e-07
2.94224e-07
2.75847e-07
1.42373e-06
2.75848e-07
1.42449e-06
5.49658e-07
5.49827e-07
2.94221e-07
2.75846e-07
1.42391e-06
2.75846e-07
1.42468e-06
5.49665e-07
1.78457e-06
8.89272e-06
8.89314e-06
1.78408e-06
1.78458e-06
8.89338e-06
8.89378e-06
1.78409e-06
2.17485e-05
2.17477e-05
2.1749e-05
2.17482e-05
3.28374e-07
3.12716e-06
3.12803e-06
3.12763e-06
3.12849e-06
2.1747e-05
2.17475e-05
2.17475e-05
2.17481e-05
2.17461e-05
2.17458e-05
2.17471e-05
2.17469e-05
3.12761e-06
3.12844e-06
3.28103e-07
3.12711e-06
3.12794e-06
2.17456e-05
2.17458e-05
2.17467e-05
2.17469e-05
3.28374e-07
3.12711e-06
3.12796e-06
3.12762e-06
3.12847e-06
1.78425e-06
8.89279e-06
1.78481e-06
8.89235e-06
5.49651e-07
1.42449e-06
2.75848e-07
2.94238e-07
5.49811e-07
1.42371e-06
2.75848e-07
5.49655e-07
1.42468e-06
2.75849e-07
2.94244e-07
5.49815e-07
1.4239e-06
2.75849e-07
1.78482e-06
8.89145e-06
8.89186e-06
1.78426e-06
1.78484e-06
8.89227e-06
8.89269e-06
1.78427e-06
5.49825e-07
2.94238e-07
1.42373e-06
2.75847e-07
1.42451e-06
2.75847e-07
5.49665e-07
5.49829e-07
2.94243e-07
1.42391e-06
2.75848e-07
1.42471e-06
2.75848e-07
5.49668e-07
3.12854e-06
3.12757e-06
3.28093e-07
3.128e-06
3.12701e-06
2.17444e-05
2.17439e-05
2.17465e-05
2.17466e-05
3.28364e-07
3.12803e-06
3.12707e-06
3.12854e-06
3.12763e-06
2.17437e-05
2.17441e-05
5.49676e-07
1.42478e-06
2.7585e-07
2.94222e-07
5.49831e-07
1.42401e-06
2.7585e-07
1.78412e-06
8.89294e-06
1.78462e-06
8.89248e-06
5.49663e-07
2.75853e-07
1.42489e-06
2.94251e-07
5.49821e-07
2.75853e-07
1.42407e-06
1.78467e-06
8.8929e-06
8.89333e-06
1.78415e-06
5.49846e-07
2.94222e-07
1.42403e-06
2.75849e-07
1.42481e-06
2.75848e-07
5.49689e-07
1.78466e-06
8.8924e-06
8.89285e-06
1.78414e-06
5.49835e-07
2.94251e-07
2.75852e-07
1.42409e-06
2.75852e-07
1.42492e-06
5.49676e-07
1.78427e-06
8.8923e-06
1.78482e-06
8.89184e-06
5.49659e-07
2.75849e-07
1.42455e-06
2.94241e-07
5.49816e-07
2.75849e-07
1.42377e-06
1.78426e-06
8.89293e-06
1.78482e-06
8.89249e-06
5.49825e-07
2.94216e-07
1.4238e-06
2.75847e-07
1.42462e-06
2.75847e-07
5.49665e-07
1.78486e-06
8.89177e-06
8.89221e-06
1.78429e-06
5.49831e-07
2.94241e-07
2.75848e-07
1.42379e-06
2.75848e-07
1.42458e-06
5.49673e-07
1.78485e-06
8.89241e-06
8.89283e-06
1.78428e-06
3.12857e-06
3.12766e-06
3.2811e-07
3.12798e-06
3.12715e-06
2.17469e-05
2.17465e-05
2.17463e-05
2.17467e-05
3.28381e-07
3.12802e-06
3.12717e-06
3.12859e-06
3.12768e-06
2.17464e-05
2.17466e-05
5.4968e-07
2.75849e-07
1.42473e-06
2.94225e-07
5.49843e-07
2.75849e-07
1.42394e-06
1.78411e-06
8.89307e-06
1.78462e-06
8.89263e-06
1.78412e-06
8.89373e-06
1.78463e-06
8.8933e-06
5.49848e-07
2.94227e-07
2.75849e-07
1.42377e-06
2.75849e-07
1.42456e-06
5.49684e-07
5.49857e-07
2.94224e-07
2.75848e-07
1.42396e-06
2.75848e-07
1.42476e-06
5.49693e-07
1.78465e-06
8.89255e-06
8.89297e-06
1.78413e-06
1.78466e-06
8.89323e-06
8.89364e-06
1.78414e-06
2.1747e-05
2.17467e-05
2.17475e-05
2.17473e-05
3.2838e-07
3.1272e-06
3.12807e-06
3.12772e-06
3.12858e-06
2.17466e-05
2.17467e-05
2.17472e-05
2.17473e-05
2.17457e-05
2.17457e-05
2.17468e-05
2.17468e-05
3.12763e-06
3.12849e-06
3.2811e-07
3.12715e-06
3.128e-06
2.17458e-05
2.17458e-05
2.17469e-05
2.17469e-05
3.28381e-07
3.12721e-06
3.12805e-06
3.12768e-06
3.12853e-06
1.78428e-06
8.89263e-06
1.78486e-06
8.89224e-06
5.49676e-07
1.42453e-06
2.7585e-07
2.94242e-07
5.49839e-07
1.42375e-06
2.7585e-07
5.49679e-07
1.42473e-06
2.75851e-07
2.94247e-07
5.49841e-07
1.42393e-06
2.75851e-07
1.78485e-06
8.8914e-06
8.89177e-06
1.78426e-06
1.78486e-06
8.89224e-06
8.8926e-06
1.78428e-06
5.49849e-07
2.94242e-07
1.42376e-06
2.7585e-07
1.42454e-06
2.75849e-07
5.49684e-07
5.49851e-07
2.94248e-07
1.42394e-06
2.75851e-07
1.42474e-06
2.7585e-07
5.49686e-07
3.12857e-06
3.12769e-06
3.281e-07
3.12807e-06
3.12712e-06
2.17439e-05
2.17436e-05
2.17467e-05
2.17466e-05
3.28372e-07
3.12812e-06
3.12718e-06
3.12861e-06
3.12774e-06
2.17438e-05
2.17439e-05
5.49699e-07
1.42482e-06
2.75851e-07
2.94226e-07
5.49858e-07
1.42404e-06
2.75852e-07
1.78414e-06
8.89278e-06
1.78467e-06
8.89236e-06
5.49686e-07
2.75855e-07
1.42493e-06
2.94254e-07
5.49848e-07
2.75855e-07
1.4241e-06
1.78468e-06
8.89287e-06
8.89325e-06
1.78414e-06
5.49867e-07
2.94226e-07
1.42406e-06
2.75851e-07
1.42484e-06
2.75851e-07
5.49704e-07
1.78467e-06
8.89235e-06
8.89274e-06
1.78413e-06
5.49857e-07
2.94255e-07
2.75854e-07
1.42411e-06
2.75854e-07
1.42495e-06
5.49692e-07
1.78429e-06
8.89215e-06
1.78487e-06
8.89174e-06
5.49683e-07
2.75851e-07
1.42459e-06
2.94245e-07
5.49844e-07
2.75851e-07
1.4238e-06
1.78429e-06
8.89276e-06
1.78487e-06
8.89238e-06
5.49845e-07
2.9422e-07
1.42383e-06
2.75848e-07
1.42465e-06
2.75849e-07
5.49681e-07
1.78487e-06
8.89174e-06
8.89213e-06
1.78429e-06
5.49854e-07
2.94245e-07
2.75851e-07
1.42381e-06
2.7585e-07
1.4246e-06
5.4969e-07
1.78487e-06
8.89238e-06
8.89274e-06
1.78429e-06
3.12863e-06
3.1277e-06
3.28117e-07
3.12806e-06
3.12721e-06
2.17465e-05
2.17465e-05
2.17463e-05
2.17464e-05
3.28388e-07
3.12811e-06
3.12726e-06
3.12868e-06
3.12774e-06
2.17466e-05
2.17466e-05
5.49703e-07
2.75851e-07
1.42477e-06
2.94228e-07
5.49869e-07
2.75851e-07
1.42398e-06
1.78413e-06
8.8929e-06
1.78466e-06
8.89252e-06
1.78414e-06
8.89358e-06
1.78468e-06
8.89319e-06
5.49868e-07
2.94231e-07
2.75851e-07
1.42379e-06
2.75851e-07
1.42459e-06
5.49698e-07
5.49877e-07
2.94228e-07
2.75851e-07
1.42398e-06
2.75851e-07
1.42479e-06
5.49709e-07
1.78466e-06
8.89252e-06
8.89288e-06
1.78412e-06
1.78468e-06
8.89317e-06
8.89355e-06
1.78413e-06
2.17467e-05
2.17466e-05
2.17472e-05
2.17472e-05
3.28387e-07
3.12729e-06
3.12815e-06
3.12777e-06
3.12863e-06
2.17468e-05
2.17467e-05
2.17473e-05
2.17473e-05
2.1746e-05
2.1746e-05
2.1747e-05
2.17471e-05
3.12774e-06
3.12859e-06
3.28118e-07
3.12727e-06
3.12811e-06
2.17463e-05
2.17462e-05
2.17474e-05
2.17473e-05
3.28389e-07
3.1273e-06
3.12815e-06
3.12779e-06
3.12864e-06
1.78426e-06
8.89262e-06
1.78485e-06
8.89226e-06
5.49689e-07
1.42455e-06
2.75852e-07
2.94246e-07
5.49856e-07
1.42376e-06
2.75852e-07
5.49692e-07
1.42475e-06
2.75853e-07
2.94251e-07
5.49858e-07
1.42395e-06
2.75853e-07
1.78482e-06
8.89145e-06
8.89178e-06
1.78424e-06
1.78484e-06
8.89232e-06
8.89264e-06
1.78426e-06
5.49861e-07
2.94245e-07
1.42377e-06
2.75851e-07
1.42456e-06
2.75852e-07
5.49695e-07
5.49864e-07
2.94251e-07
1.42395e-06
2.75851e-07
1.42476e-06
2.75852e-07
5.49699e-07
3.12867e-06
3.1278e-06
3.28108e-07
3.12817e-06
3.12724e-06
2.17441e-05
2.17441e-05
2.17471e-05
2.1747e-05
3.2838e-07
3.1282e-06
3.12728e-06
3.12871e-06
3.12786e-06
2.17444e-05
2.17444e-05
5.49709e-07
1.42485e-06
2.75854e-07
2.9423e-07
5.49872e-07
1.42406e-06
2.75854e-07
1.78412e-06
8.89275e-06
1.78465e-06
8.89237e-06
5.49698e-07
2.75857e-07
1.42496e-06
2.94259e-07
5.49863e-07
2.75857e-07
1.42412e-06
1.78465e-06
8.89295e-06
8.89328e-06
1.78413e-06
5.49878e-07
2.94229e-07
1.42407e-06
2.75852e-07
1.42485e-06
2.75852e-07
5.49717e-07
1.78464e-06
8.89243e-06
8.89277e-06
1.78412e-06
5.49869e-07
2.94258e-07
2.75854e-07
1.42413e-06
2.75856e-07
1.42497e-06
5.49706e-07
1.78427e-06
8.89214e-06
1.78486e-06
8.89177e-06
5.49695e-07
2.75853e-07
1.42461e-06
2.94249e-07
5.49859e-07
2.75853e-07
1.42382e-06
1.78427e-06
8.89275e-06
1.78486e-06
8.8924e-06
5.49855e-07
2.94223e-07
1.42384e-06
2.75849e-07
1.42467e-06
2.75849e-07
5.4969e-07
1.78485e-06
8.89182e-06
8.89217e-06
1.78427e-06
5.49865e-07
2.94248e-07
2.7585e-07
1.42382e-06
2.75852e-07
1.42462e-06
5.49701e-07
1.78485e-06
8.89245e-06
8.89277e-06
1.78426e-06
3.12873e-06
3.1278e-06
3.28125e-07
3.12817e-06
3.12732e-06
2.17468e-05
2.17468e-05
2.1747e-05
2.17469e-05
3.28396e-07
3.12821e-06
3.12736e-06
3.12879e-06
3.12785e-06
2.17471e-05
2.1747e-05
5.49714e-07
2.75854e-07
1.42479e-06
2.94232e-07
5.49883e-07
2.75853e-07
1.42399e-06
1.7841e-06
8.89289e-06
1.78465e-06
8.89254e-06
1.78411e-06
8.89353e-06
1.78466e-06
8.89316e-06
5.49877e-07
2.94234e-07
2.75851e-07
1.42381e-06
2.75852e-07
1.4246e-06
5.49708e-07
5.49888e-07
2.94231e-07
2.75852e-07
1.42399e-06
2.75853e-07
1.4248e-06
5.49721e-07
1.78463e-06
8.89259e-06
8.89291e-06
1.7841e-06
1.78465e-06
8.89319e-06
8.89352e-06
1.78411e-06
2.17469e-05
2.17469e-05
2.17474e-05
2.17475e-05
3.28395e-07
3.12738e-06
3.12824e-06
3.12788e-06
3.12874e-06
2.17473e-05
2.17471e-05
2.17478e-05
2.17477e-05
2.17465e-05
2.17467e-05
2.17476e-05
2.17478e-05
3.12782e-06
3.12868e-06
3.28126e-07
3.1273e-06
3.12815e-06
2.17472e-05
2.17469e-05
2.17483e-05
2.1748e-05
3.28397e-07
3.12728e-06
3.12812e-06
3.12781e-06
3.12866e-06
1.78425e-06
8.8927e-06
1.78483e-06
8.89236e-06
5.497e-07
1.42456e-06
2.75851e-07
2.94248e-07
5.49867e-07
1.42376e-06
2.75849e-07
5.49704e-07
1.42476e-06
2.75851e-07
2.94253e-07
5.49871e-07
1.42395e-06
2.7585e-07
1.78482e-06
8.89164e-06
8.89188e-06
1.78423e-06
1.78484e-06
8.89251e-06
8.89275e-06
1.78425e-06
5.49871e-07
2.94246e-07
1.42378e-06
2.75845e-07
1.42456e-06
2.75846e-07
5.49697e-07
5.49875e-07
2.94251e-07
1.42396e-06
2.75847e-07
1.42476e-06
2.75848e-07
5.49702e-07
3.12874e-06
3.12788e-06
3.28115e-07
3.1282e-06
3.12727e-06
2.17447e-05
2.17448e-05
2.1748e-05
2.17476e-05
3.28387e-07
3.12817e-06
3.12724e-06
3.12872e-06
3.12786e-06
2.17453e-05
2.17451e-05
5.49722e-07
1.42486e-06
2.75851e-07
2.94232e-07
5.49885e-07
1.42406e-06
2.7585e-07
1.78411e-06
8.89284e-06
1.78463e-06
8.89248e-06
5.49711e-07
2.75854e-07
1.42497e-06
2.94261e-07
5.49876e-07
2.75854e-07
1.42413e-06
1.78466e-06
8.89303e-06
8.8934e-06
1.78413e-06
5.49889e-07
2.9423e-07
1.42407e-06
2.75847e-07
1.42485e-06
2.75847e-07
5.49719e-07
1.78465e-06
8.89262e-06
8.89289e-06
1.78412e-06
5.4988e-07
2.94258e-07
2.75851e-07
1.42414e-06
2.75851e-07
1.42497e-06
5.49708e-07
1.78426e-06
8.89223e-06
1.78484e-06
8.89187e-06
5.49706e-07
2.75851e-07
1.42462e-06
2.9425e-07
5.4987e-07
2.7585e-07
1.42382e-06
1.78426e-06
8.89283e-06
1.78484e-06
8.8925e-06
5.49865e-07
2.94223e-07
1.42385e-06
2.75844e-07
1.42467e-06
2.75845e-07
5.49698e-07
1.78485e-06
8.89202e-06
8.89228e-06
1.78426e-06
5.49875e-07
2.94248e-07
2.75847e-07
1.42383e-06
2.75848e-07
1.42462e-06
5.49706e-07
1.78485e-06
8.89265e-06
8.89289e-06
1.78426e-06
3.12882e-06
3.12788e-06
3.28132e-07
3.12821e-06
3.12736e-06
2.17473e-05
2.17474e-05
2.17478e-05
2.17477e-05
3.28403e-07
3.12817e-06
3.12733e-06
3.1288e-06
3.12787e-06
2.17479e-05
2.17477e-05
5.49725e-07
2.75851e-07
1.4248e-06
2.94233e-07
5.49894e-07
2.7585e-07
1.42398e-06
1.7841e-06
8.89297e-06
1.78462e-06
8.89264e-06
1.7841e-06
8.89356e-06
1.78463e-06
8.89322e-06
5.49889e-07
2.94234e-07
2.75847e-07
1.42381e-06
2.75848e-07
1.4246e-06
5.49717e-07
5.49898e-07
2.94231e-07
2.75846e-07
1.42399e-06
2.75847e-07
1.42479e-06
5.49723e-07
1.78464e-06
8.89279e-06
8.89302e-06
1.7841e-06
1.78464e-06
8.89335e-06
8.8936e-06
1.7841e-06
2.17474e-05
2.17476e-05
2.17479e-05
2.17481e-05
3.28402e-07
3.12735e-06
3.12822e-06
3.12789e-06
3.12875e-06
2.17481e-05
2.17478e-05
2.17486e-05
2.17483e-05
2.17473e-05
2.17473e-05
2.17484e-05
2.17484e-05
3.1278e-06
3.12866e-06
3.28129e-07
3.12737e-06
3.12821e-06
2.17466e-05
2.17472e-05
2.17477e-05
2.17483e-05
3.28399e-07
3.12744e-06
3.12829e-06
3.12792e-06
3.12877e-06
1.7843e-06
8.89294e-06
1.78483e-06
8.89279e-06
5.49697e-07
1.42458e-06
2.75846e-07
2.94247e-07
5.49866e-07
1.42383e-06
2.75846e-07
5.49702e-07
1.42478e-06
2.75848e-07
2.94253e-07
5.49871e-07
1.42401e-06
2.75847e-07
1.78492e-06
8.89213e-06
8.89234e-06
1.78442e-06
1.78494e-06
8.89299e-06
8.8932e-06
1.78445e-06
5.4987e-07
2.94246e-07
1.42388e-06
2.75842e-07
1.42465e-06
2.75844e-07
5.49696e-07
5.49875e-07
2.94252e-07
1.42406e-06
2.75843e-07
1.42484e-06
2.75845e-07
5.497e-07
3.12872e-06
3.12786e-06
3.2812e-07
3.12826e-06
3.12733e-06
2.17456e-05
2.17454e-05
2.17472e-05
2.17481e-05
3.2839e-07
3.12839e-06
3.12741e-06
3.12882e-06
3.12797e-06
2.17448e-05
2.17455e-05
5.49719e-07
1.42492e-06
2.75846e-07
2.94232e-07
5.49884e-07
1.42415e-06
2.75847e-07
1.78417e-06
8.89308e-06
1.78464e-06
8.8929e-06
5.49709e-07
2.75852e-07
1.42499e-06
2.9426e-07
5.49876e-07
2.75851e-07
1.42419e-06
1.78476e-06
8.89341e-06
8.89367e-06
1.78432e-06
5.49888e-07
2.94231e-07