/*--------------------------------*- C++ -*----------------------------------*\
| =========                 |                                                 |
| \\      /  F ield         | OpenFOAM: The Open Source CFD Toolbox           |
|  \\    /   O peration     | Version:  2206                                  |
|   \\  /    A nd           | Website:  www.openfoam.com                      |
|    \\/     M anipulation  |                                                 |
\*---------------------------------------------------------------------------*/
FoamFile
{
    version     2.0;
    format      ascii;
    arch        "LSB;label=32;scalar=64";
    class       volScalarField;
    location    "32";
    object      nut;
}
// * * * * * * * * * * * * * * * * * * * * * * * * * * * * * * * * * * * * * //

dimensions      [0 2 -1 0 0 0 0];

internalField   nonuniform List<scalar> 
28687
(
0.00021558
0.000185144
0.000185136
0.000157166
0.00021558
0.000185145
0.000185138
0.000157203
0.000215579
0.000185146
0.000185137
0.000157201
0.000215577
0.000185145
0.000185135
0.0001572
0.000215578
0.000185144
0.000185135
0.000157199
0.000215579
0.000185144
0.000185133
0.000157198
0.000215576
0.000185138
0.000185128
0.000157193
0.000215552
0.000185106
0.000185102
0.000157154
0.00021555
0.000185099
0.000185089
0.000157146
0.000215554
0.0001851
0.000185091
0.000157146
0.000215554
0.000185101
0.000185092
0.000157144
0.000215554
0.000185101
0.000185092
0.000157146
0.000215554
0.000185101
0.000185093
0.000157144
0.000215554
0.000185101
0.000185093
0.000157144
0.000215554
0.000185101
0.000185093
0.000157146
0.000215554
0.000185101
0.000185093
0.000157145
0.000215554
0.000185101
0.000185093
0.000157145
0.000215554
0.000185101
0.000185093
0.000157145
0.000185118
0.000157395
0.000185144
0.00015717
0.00015739
0.000185124
0.000185119
0.000185126
0.000185121
0.000157209
0.000157392
0.000185141
0.00018511
0.000185142
0.000185112
0.000185123
0.000185145
0.000185124
0.000157161
0.000157381
0.000185143
0.000185137
0.000185144
0.000157387
0.000157209
0.000157389
0.000185126
0.000185121
0.000185126
0.000185121
0.00015721
0.000157391
0.000185142
0.000185112
0.000185142
0.000185112
0.000185125
0.000185146
0.000185125
0.0001572
0.00015738
0.000185144
0.000185138
0.000185144
0.000157385
0.000157207
0.000157389
0.000185126
0.000185121
0.000185124
0.00018512
0.000157209
0.000157391
0.000185142
0.000185112
0.000185141
0.000185111
0.000185124
0.000185146
0.000185123
0.000157198
0.000157379
0.000185144
0.000185136
0.000185143
0.000157384
0.000157206
0.000157388
0.000185124
0.000185121
0.000185122
0.000185121
0.000157208
0.000157391
0.00018514
0.000185111
0.000185139
0.00018511
0.000185123
0.000185144
0.000185123
0.000157197
0.000157378
0.000185143
0.000185135
0.000185142
0.000157382
0.000157205
0.000157386
0.000185123
0.000185121
0.000185122
0.000185123
0.000157208
0.00015739
0.00018514
0.000185111
0.00018514
0.000185111
0.000185124
0.000185144
0.000185124
0.000157196
0.000157377
0.000185143
0.000185134
0.000185143
0.000157381
0.000157204
0.000157383
0.00018512
0.000185123
0.000185118
0.00018512
0.000157208
0.000157386
0.000185139
0.000185111
0.000185135
0.000185107
0.000185124
0.000185139
0.000185121
0.000157195
0.000157374
0.000185142
0.00018513
0.000185141
0.000157379
0.0001572
0.000157354
0.000185115
0.000185117
0.000185098
0.00018509
0.000157201
0.00015735
0.000185132
0.000185104
0.000185117
0.000185088
0.000185118
0.000185118
0.000185099
0.000157191
0.000157346
0.000185138
0.000185115
0.000185118
0.000157349
0.000157162
0.000157332
0.000185086
0.00018508
0.000185073
0.000185072
0.000157158
0.000157339
0.000185104
0.000185075
0.00018509
0.000185061
0.000185086
0.000185097
0.000185073
0.000157154
0.000157324
0.000185106
0.000185087
0.000185093
0.000157329
0.000157152
0.000157335
0.000185076
0.000185074
0.000185078
0.000185074
0.000157159
0.000157338
0.000185093
0.000185063
0.000185095
0.000185065
0.000185076
0.0001851
0.000185077
0.000157144
0.000157327
0.000185095
0.000185092
0.000185097
0.000157331
0.000157152
0.000157331
0.000185079
0.000185074
0.000185079
0.000185075
0.000157154
0.000157337
0.000185096
0.000185065
0.000185096
0.000185066
0.000185078
0.000185101
0.000185078
0.000157144
0.000157322
0.000185097
0.000185092
0.000185098
0.000157327
0.000157149
0.000157333
0.00018508
0.000185075
0.00018508
0.000185075
0.000157155
0.000157338
0.000185096
0.000185066
0.000185097
0.000185066
0.000185079
0.000185101
0.000185079
0.000157142
0.000157325
0.000185098
0.000185093
0.000185098
0.000157329
0.000157151
0.000157332
0.00018508
0.000185076
0.00018508
0.000185075
0.000157155
0.000157336
0.000185097
0.000185067
0.000185097
0.000185066
0.000185079
0.000185101
0.000185079
0.000157143
0.000157323
0.000185097
0.000185093
0.000185096
0.000157328
0.00015715
0.000157334
0.000185081
0.000185076
0.00018508
0.000185076
0.000157154
0.000157336
0.000185098
0.000185067
0.000185098
0.000185066
0.000185079
0.000185101
0.000185079
0.000157142
0.000157325
0.000185096
0.000185093
0.000185095
0.000157329
0.000157151
0.000157334
0.00018508
0.000185076
0.00018508
0.000185076
0.000157153
0.000157338
0.000185098
0.000185066
0.000185098
0.000185066
0.000185079
0.000185101
0.000185079
0.000157142
0.000157325
0.000185096
0.000185093
0.000185096
0.00015733
0.000157152
0.000157333
0.00018508
0.000185076
0.00018508
0.000185076
0.000157155
0.000157338
0.000185098
0.000185067
0.000185098
0.000185066
0.000185079
0.000185101
0.000185079
0.000157143
0.000157325
0.000185096
0.000185093
0.000185096
0.000157329
0.000157151
0.000157333
0.00018508
0.000185076
0.00018508
0.000185076
0.000157155
0.000157337
0.000185098
0.000185067
0.000185098
0.000185066
0.000185079
0.000185101
0.000185079
0.000157143
0.000157324
0.000185096
0.000185093
0.000185096
0.000157329
0.000157151
0.000157332
0.00018508
0.000185076
0.00018508
0.000185076
0.000157155
0.000157336
0.000185098
0.000185067
0.000185098
0.000185066
0.000185079
0.000185101
0.000185079
0.000157143
0.000157324
0.000185096
0.000185093
0.000185096
0.000157328
0.000157151
0.00018508
0.000185076
0.000157154
0.000185098
0.000185066
0.000185079
0.000157143
0.000185096
3.99105e-05
4.95226e-05
3.99038e-05
4.95216e-05
2.49463e-05
2.49458e-05
3.99168e-05
4.95188e-05
3.99106e-05
4.95178e-05
0.000215582
0.000215575
0.000215579
0.00021558
0.000215581
0.000215576
0.000215579
8.70977e-05
4.84029e-05
0.000203276
0.000185145
8.70735e-05
4.84158e-05
0.000203276
2.49437e-05
2.49432e-05
8.71013e-05
0.000203273
4.84053e-05
0.000185137
8.70773e-05
0.000203273
4.84171e-05
3.62616e-05
3.62577e-05
0.000157385
3.6264e-05
3.62592e-05
3.99144e-05
4.9522e-05
3.99073e-05
4.95213e-05
2.49454e-05
2.49452e-05
3.99206e-05
4.95181e-05
3.9914e-05
4.95173e-05
0.000215581
0.000215576
0.000215579
0.000215579
0.00021558
0.000215575
0.000215579
8.70993e-05
4.84062e-05
0.000203278
0.000185145
8.70746e-05
4.84185e-05
0.000203278
2.49428e-05
2.49426e-05
8.71024e-05
0.000203276
4.84081e-05
0.000185138
8.70779e-05
0.000203276
4.84203e-05
3.62653e-05
3.62608e-05
0.000157386
3.62684e-05
3.62638e-05
3.9918e-05
4.95218e-05
3.99111e-05
4.95211e-05
2.4945e-05
2.49451e-05
3.9924e-05
4.95178e-05
3.99177e-05
4.9517e-05
0.00021558
0.000215573
0.000215577
0.000215578
0.00021558
0.000215571
0.000215575
8.70998e-05
4.84087e-05
0.000203277
0.000185146
8.70752e-05
4.84211e-05
0.000203276
2.49424e-05
2.49423e-05
8.71026e-05
0.000203274
4.8411e-05
0.000185137
8.70779e-05
0.000203272
4.84228e-05
3.62677e-05
3.62634e-05
0.000157385
3.62698e-05
3.62654e-05
3.99205e-05
4.95217e-05
3.99141e-05
4.9521e-05
2.49448e-05
2.49449e-05
3.99261e-05
4.95176e-05
3.99204e-05
4.95168e-05
0.00021558
0.000215572
0.000215575
0.000215577
0.000215579
0.000215573
0.000215577
8.71005e-05
4.84112e-05
0.000203275
0.000185145
8.70756e-05
4.84233e-05
0.000203274
2.49423e-05
2.49422e-05
8.71027e-05
0.000203272
4.84132e-05
0.000185135
8.70779e-05
0.000203273
4.84249e-05
3.62693e-05
3.62651e-05
0.000157383
3.62721e-05
3.62679e-05
3.99223e-05
4.95216e-05
3.99161e-05
4.9521e-05
2.4945e-05
2.49451e-05
3.99279e-05
4.95176e-05
3.9922e-05
4.95169e-05
0.000215581
0.000215575
0.000215578
0.00021558
0.000215582
0.000215573
0.000215579
8.71012e-05
4.84129e-05
0.000203274
0.000185145
8.70764e-05
4.84247e-05
0.000203276
2.49424e-05
2.49424e-05
8.7103e-05
0.000203273
4.8415e-05
0.000185136
8.70779e-05
0.000203274
4.84265e-05
3.62725e-05
3.62684e-05
0.000157382
3.62751e-05
3.6271e-05
3.99233e-05
4.95218e-05
3.99178e-05
4.95212e-05
2.49452e-05
2.49455e-05
3.99293e-05
4.95178e-05
3.99241e-05
4.95172e-05
0.000215581
0.000215572
0.00021558
0.000215576
0.000215579
0.00021557
0.000215579
8.71025e-05
4.84138e-05
0.000203277
0.000185142
8.70779e-05
4.84249e-05
0.000203276
2.49427e-05
2.49427e-05
8.71048e-05
0.000203271
4.84162e-05
0.000185131
8.70799e-05
0.000203269
4.84273e-05
3.62745e-05
3.62704e-05
0.000157381
3.62761e-05
3.62721e-05
3.99162e-05
4.95227e-05
3.99148e-05
4.95224e-05
2.49453e-05
2.4945e-05
3.99223e-05
4.95184e-05
3.99214e-05
4.95181e-05
0.000215578
0.00021557
0.000215578
0.000215565
0.000215561
0.000215562
0.000215564
8.70864e-05
4.84101e-05
0.000203274
0.000185135
8.70706e-05
4.84178e-05
0.000203271
2.4943e-05
2.49428e-05
8.70893e-05
0.000203268
4.84139e-05
0.000185126
8.70731e-05
0.000203266
4.84217e-05
3.62732e-05
3.62691e-05
0.00015737
3.62738e-05
3.62696e-05
3.9906e-05
4.9523e-05
3.99037e-05
4.9522e-05
2.49449e-05
2.4945e-05
3.99121e-05
4.9519e-05
3.99102e-05
4.95182e-05
0.00021555
0.00021555
0.00021555
0.000215547
0.000215549
0.000215543
0.000215546
8.70473e-05
4.83985e-05
0.000203242
0.0001851
8.70451e-05
4.84056e-05
0.000203236
2.49425e-05
2.49423e-05
8.70499e-05
0.000203243
4.84034e-05
0.000185094
8.70487e-05
0.000203234
4.84099e-05
3.62699e-05
3.62656e-05
0.00015733
3.62697e-05
3.62654e-05
3.99014e-05
4.95224e-05
3.98969e-05
4.95214e-05
2.4945e-05
2.49452e-05
3.99077e-05
4.9519e-05
3.99035e-05
4.95185e-05
0.000215553
0.000215547
0.00021555
0.000215554
0.000215555
0.00021555
0.000215553
8.70519e-05
4.83904e-05
0.000203237
0.0001851
8.70242e-05
4.8401e-05
0.000203239
2.49423e-05
2.49422e-05
8.70557e-05
0.000203234
4.83945e-05
0.000185091
8.70281e-05
0.000203236
4.84045e-05
3.62653e-05
3.62611e-05
0.000157335
3.62661e-05
3.62619e-05
3.99006e-05
4.95217e-05
3.98951e-05
4.95209e-05
2.49452e-05
2.49452e-05
3.99069e-05
4.95193e-05
3.99019e-05
4.95187e-05
0.000215555
0.00021555
0.000215554
0.000215554
0.000215555
0.00021555
0.000215553
8.70534e-05
4.83891e-05
0.000203239
0.0001851
8.70287e-05
4.84005e-05
0.000203239
2.49423e-05
2.49422e-05
8.70558e-05
0.000203236
4.83928e-05
0.000185092
8.70313e-05
0.000203236
4.84036e-05
3.62638e-05
3.62596e-05
0.000157327
3.62654e-05
3.62612e-05
3.99005e-05
4.95214e-05
3.98949e-05
4.95206e-05
2.49452e-05
2.49453e-05
3.99069e-05
4.95195e-05
3.99017e-05
4.95189e-05
0.000215555
0.00021555
0.000215554
0.000215554
0.000215555
0.00021555
0.000215554
8.70536e-05
4.8389e-05
0.00020324
0.000185101
8.70287e-05
4.84004e-05
0.00020324
2.49423e-05
2.49422e-05
8.70564e-05
0.000203237
4.83926e-05
0.000185093
8.70312e-05
0.000203237
4.84036e-05
3.62637e-05
3.62595e-05
0.00015733
3.62654e-05
3.62612e-05
3.99005e-05
4.95212e-05
3.98948e-05
4.95205e-05
2.49453e-05
2.49453e-05
3.99069e-05
4.95196e-05
3.99017e-05
4.9519e-05
0.000215555
0.00021555
0.000215554
0.000215554
0.000215555
0.00021555
0.000215553
8.70531e-05
4.8389e-05
0.00020324
0.000185101
8.70285e-05
4.84004e-05
0.00020324
2.49423e-05
2.49422e-05
8.70556e-05
0.000203237
4.83926e-05
0.000185093
8.70308e-05
0.000203237
4.84036e-05
3.62637e-05
3.62595e-05
0.00015733
3.62654e-05
3.62612e-05
3.99005e-05
4.95211e-05
3.98948e-05
4.95204e-05
2.49453e-05
2.49453e-05
3.99069e-05
4.95197e-05
3.99017e-05
4.95191e-05
0.000215555
0.00021555
0.000215554
0.000215554
0.000215555
0.00021555
0.000215553
8.70535e-05
4.8389e-05
0.00020324
0.000185101
8.70286e-05
4.84005e-05
0.00020324
2.49423e-05
2.49422e-05
8.70564e-05
0.000203237
4.83926e-05
0.000185093
8.70313e-05
0.000203237
4.84036e-05
3.62637e-05
3.62595e-05
0.00015733
3.62654e-05
3.62612e-05
3.99005e-05
4.9521e-05
3.98949e-05
4.95203e-05
2.49453e-05
2.49453e-05
3.99069e-05
4.95198e-05
3.99017e-05
4.95191e-05
0.000215555
0.00021555
0.000215553
0.000215555
0.000215555
0.00021555
0.000215553
8.70533e-05
4.8389e-05
0.00020324
0.000185101
8.70286e-05
4.84005e-05
0.00020324
2.49423e-05
2.49422e-05
8.70559e-05
0.000203237
4.83926e-05
0.000185093
8.70313e-05
0.000203237
4.84036e-05
3.62637e-05
3.62595e-05
0.000157328
3.62654e-05
3.62612e-05
3.99005e-05
4.9521e-05
3.98949e-05
4.95203e-05
2.49453e-05
2.49453e-05
3.99069e-05
4.95198e-05
3.99017e-05
4.95191e-05
0.000215555
0.00021555
0.000215553
0.000215555
0.000215555
0.00021555
0.000215553
8.70536e-05
4.8389e-05
0.00020324
0.000185101
8.70287e-05
4.84005e-05
0.00020324
2.49423e-05
2.49422e-05
8.70563e-05
0.000203237
4.83926e-05
0.000185093
8.70314e-05
0.000203237
4.84036e-05
3.62637e-05
3.62595e-05
0.000157328
3.62654e-05
3.62612e-05
3.99005e-05
4.9521e-05
3.98949e-05
4.95202e-05
2.49453e-05
2.49453e-05
3.99069e-05
4.95198e-05
3.99018e-05
4.95191e-05
0.000215555
0.00021555
0.000215553
0.000215555
0.000215555
0.00021555
0.000215553
8.70535e-05
4.8389e-05
0.00020324
0.000185101
8.70289e-05
4.84005e-05
0.00020324
2.49423e-05
2.49422e-05
8.70561e-05
0.000203237
4.83926e-05
0.000185093
8.70314e-05
0.000203237
4.84036e-05
3.62637e-05
3.62595e-05
0.000157329
3.62654e-05
3.62612e-05
3.99005e-05
4.95209e-05
3.98949e-05
4.95202e-05
2.49453e-05
2.49453e-05
3.99069e-05
4.95198e-05
3.99018e-05
4.95191e-05
0.000215555
0.00021555
0.000215553
0.000215555
0.000215555
0.00021555
0.000215553
8.70531e-05
4.8389e-05
0.00020324
0.000185101
8.70284e-05
4.84005e-05
0.00020324
2.49423e-05
2.49422e-05
8.70556e-05
0.000203237
4.83926e-05
0.000185093
8.7031e-05
0.000203237
4.84036e-05
3.62637e-05
3.62595e-05
0.000157329
3.62654e-05
3.62612e-05
3.99006e-05
4.95209e-05
3.98949e-05
4.95202e-05
2.49453e-05
2.49453e-05
3.99071e-05
4.95198e-05
3.99018e-05
4.95192e-05
0.000215555
0.00021555
0.000215553
8.70533e-05
4.8389e-05
0.00020324
0.000185101
8.70286e-05
4.84005e-05
0.00020324
2.49423e-05
2.49422e-05
8.70573e-05
0.000203237
4.83926e-05
0.000185093
8.70311e-05
0.000203237
4.84038e-05
3.62637e-05
3.62595e-05
0.000157331
3.62654e-05
3.62632e-05
4.9522e-05
4.84175e-05
2.49465e-05
3.626e-05
3.62651e-05
2.49468e-05
4.84138e-05
4.95203e-05
2.49479e-05
2.49474e-05
2.49454e-05
2.4945e-05
3.62632e-05
3.62604e-05
0.000157389
3.62645e-05
3.62609e-05
2.49469e-05
2.49473e-05
2.49445e-05
2.49448e-05
0.000157208
3.62676e-05
3.62632e-05
3.62632e-05
3.62597e-05
3.99112e-05
4.95225e-05
3.99046e-05
4.95216e-05
8.7099e-05
4.84079e-05
0.000203276
0.000185124
8.70745e-05
4.84199e-05
0.000203276
8.70998e-05
4.84073e-05
0.000203275
0.00018512
8.70757e-05
4.84194e-05
0.000203275
3.99057e-05
4.95214e-05
4.95222e-05
3.99125e-05
3.99064e-05
4.95214e-05
4.95222e-05
3.99132e-05
8.70762e-05
0.000185125
4.84217e-05
0.000203277
4.84098e-05
0.000203276
8.71006e-05
8.70769e-05
0.00018512
4.84211e-05
0.000203276
4.84092e-05
0.000203276
8.71013e-05
3.6259e-05
3.62626e-05
0.00015739
3.62625e-05
3.62638e-05
2.49468e-05
2.49463e-05
2.49454e-05
2.49458e-05
0.000157208
3.62645e-05
3.62619e-05
3.62612e-05
3.62612e-05
2.4946e-05
2.49463e-05
8.71004e-05
4.84002e-05
0.000203274
0.000185141
8.70769e-05
4.84124e-05
0.000203274
3.99158e-05
4.95153e-05
3.99096e-05
4.95143e-05
8.70994e-05
0.000203269
4.83945e-05
0.000185111
8.70752e-05
0.000203269
4.84069e-05
3.99125e-05
4.95174e-05
4.95184e-05
3.99187e-05
8.70779e-05
0.000185142
4.8414e-05
0.000203275
4.84019e-05
0.000203275
8.71019e-05
3.99115e-05
4.95141e-05
4.9515e-05
3.99177e-05
8.70767e-05
0.000185111
0.00020327
4.84086e-05
0.00020327
4.83964e-05
8.71009e-05
3.99105e-05
4.9521e-05
3.99038e-05
4.952e-05
8.70974e-05
0.000203274
4.84052e-05
0.000185123
8.70733e-05
0.000203274
4.84171e-05
3.99103e-05
4.95191e-05
3.99036e-05
4.95181e-05
8.7075e-05
0.000185145
4.84173e-05
0.000203278
4.84054e-05
0.000203277
8.70994e-05
3.99057e-05
4.95198e-05
4.95207e-05
3.99124e-05
8.70749e-05
0.000185124
0.000203275
4.84189e-05
0.000203275
4.8407e-05
8.7099e-05
3.99055e-05
4.95179e-05
4.95187e-05
3.99123e-05
3.62477e-05
3.62618e-05
0.000157381
3.62503e-05
3.62637e-05
2.49464e-05
2.4946e-05
2.49428e-05
2.49433e-05
0.000157199
3.62519e-05
3.62662e-05
3.62484e-05
3.62625e-05
2.49455e-05
2.49459e-05
8.71028e-05
0.000203275
4.84033e-05
0.000185143
8.70784e-05
0.000203275
4.84153e-05
3.99165e-05
4.95188e-05
3.99103e-05
4.95179e-05
3.99168e-05
4.9519e-05
3.99106e-05
4.95181e-05
8.70785e-05
0.000185137
0.000203275
4.84188e-05
0.000203274
4.84071e-05
8.71031e-05
8.70798e-05
0.000185144
0.000203277
4.8417e-05
0.000203276
4.84051e-05
8.71043e-05
3.99122e-05
4.95176e-05
4.95185e-05
3.99184e-05
3.99124e-05
4.95178e-05
4.95187e-05
3.99187e-05
2.49462e-05
2.49458e-05
2.49452e-05
2.49447e-05
0.000157204
3.62665e-05
3.62619e-05
3.62627e-05
3.6258e-05
2.49453e-05
2.49457e-05
2.49442e-05
2.49446e-05
2.49469e-05
2.49466e-05
2.49444e-05
2.49442e-05
3.62666e-05
3.62619e-05
0.000157391
3.62705e-05
3.62651e-05
2.49465e-05
2.49466e-05
2.4944e-05
2.49441e-05
0.000157208
3.62711e-05
3.6266e-05
3.62689e-05
3.62636e-05
3.99151e-05
4.9522e-05
3.99084e-05
4.95213e-05
8.71013e-05
4.84116e-05
0.000203276
0.000185126
8.70777e-05
4.84234e-05
0.000203276
8.7102e-05
4.84108e-05
0.000203276
0.000185121
8.70783e-05
4.84225e-05
0.000203276
3.99096e-05
4.95212e-05
4.9522e-05
3.99163e-05
3.99103e-05
4.95211e-05
4.95219e-05
3.9917e-05
8.7078e-05
0.000185126
4.84249e-05
0.000203276
4.84132e-05
0.000203276
8.71013e-05
8.70787e-05
0.000185121
4.84238e-05
0.000203274
4.84122e-05
0.000203275
8.71019e-05
3.6263e-05
3.62593e-05
0.000157392
3.62658e-05
3.62605e-05
2.4946e-05
2.49457e-05
2.49451e-05
2.49451e-05
0.000157209
3.62668e-05
3.6261e-05
3.62642e-05
3.62583e-05
2.49456e-05
2.49458e-05
8.71024e-05
4.84035e-05
0.000203276
0.000185142
8.70793e-05
4.84155e-05
0.000203275
3.99196e-05
4.95148e-05
3.99134e-05
4.9514e-05
8.71013e-05
0.00020327
4.83981e-05
0.000185112
8.7078e-05
0.00020327
4.84101e-05
3.99163e-05
4.95171e-05
4.9518e-05
3.99224e-05
8.70794e-05
0.000185143
4.84167e-05
0.000203275
4.84049e-05
0.000203276
8.71021e-05
3.99153e-05
4.95138e-05
4.95147e-05
3.99215e-05
8.70781e-05
0.000185112
0.000203269
4.84115e-05
0.00020327
4.83995e-05
8.7101e-05
3.99144e-05
4.95205e-05
3.99076e-05
4.95197e-05
8.70998e-05
0.000203275
4.84087e-05
0.000185125
8.70764e-05
0.000203275
4.84204e-05
3.99142e-05
4.95185e-05
3.99075e-05
4.95177e-05
8.70765e-05
0.000185145
4.84198e-05
0.000203277
4.8408e-05
0.000203278
8.71002e-05
3.99096e-05
4.95195e-05
4.95203e-05
3.99163e-05
8.7077e-05
0.000185125
0.000203275
4.84217e-05
0.000203275
4.84101e-05
8.70999e-05
3.99094e-05
4.95176e-05
4.95184e-05
3.99161e-05
3.625e-05
3.62649e-05
0.000157381
3.62532e-05
3.62682e-05
2.49454e-05
2.49451e-05
2.49424e-05
2.49426e-05
0.000157199
3.62541e-05
3.62692e-05
3.62512e-05
3.62667e-05
2.4945e-05
2.49451e-05
8.71047e-05
0.000203277
4.84068e-05
0.000185144
8.70812e-05
0.000203277
4.84185e-05
3.99203e-05
4.95182e-05
3.99141e-05
4.95175e-05
3.99206e-05
4.95184e-05
3.99144e-05
4.95177e-05
8.70793e-05
0.000185138
0.000203274
4.84217e-05
0.000203275
4.84102e-05
8.71031e-05
8.70813e-05
0.000185145
0.000203275
4.84198e-05
0.000203276
4.84082e-05
8.71046e-05
3.9916e-05
4.95173e-05
4.95181e-05
3.99222e-05
3.99162e-05
4.95175e-05
4.95183e-05
3.99224e-05
2.49452e-05
2.4945e-05
2.49442e-05
2.49439e-05
0.000157204
3.62693e-05
3.62649e-05
3.62667e-05
3.62623e-05
2.49448e-05
2.49449e-05
2.49438e-05
2.49439e-05
2.49465e-05
2.49464e-05
2.49439e-05
2.49439e-05
3.62692e-05
3.62644e-05
0.000157389
3.62712e-05
3.62665e-05
2.49464e-05
2.49464e-05
2.49439e-05
2.49439e-05
0.000157207
3.6272e-05
3.62675e-05
3.62694e-05
3.62649e-05
3.99187e-05
4.95217e-05
3.99122e-05
4.9521e-05
8.71016e-05
4.84146e-05
0.000203275
0.000185125
8.70781e-05
4.84261e-05
0.000203275
8.71023e-05
4.84134e-05
0.000203273
0.000185121
8.70786e-05
4.8425e-05
0.000203273
3.99131e-05
4.9521e-05
4.95217e-05
3.99194e-05
3.99138e-05
4.9521e-05
4.95216e-05
3.99201e-05
8.70786e-05
0.000185125
4.84273e-05
0.000203274
4.84158e-05
0.000203275
8.71024e-05
8.70792e-05
0.00018512
4.8426e-05
0.000203274
4.84146e-05
0.000203274
8.71031e-05
3.62651e-05
3.62592e-05
0.000157391
3.62678e-05
3.62627e-05
2.49456e-05
2.49455e-05
2.49448e-05
2.49451e-05
0.000157209
3.62689e-05
3.62644e-05
3.62662e-05
3.62609e-05
2.49455e-05
2.49456e-05
8.71025e-05
4.84061e-05
0.000203275
0.000185142
8.70792e-05
4.84178e-05
0.000203275
3.99231e-05
4.95145e-05
3.99171e-05
4.95137e-05
8.71015e-05
0.000203268
4.84009e-05
0.000185112
8.70779e-05
0.000203268
4.84128e-05
3.99196e-05
4.95169e-05
4.95176e-05
3.99253e-05
8.70798e-05
0.000185141
4.84189e-05
0.000203274
4.84072e-05
0.000203275
8.71036e-05
3.99187e-05
4.95136e-05
4.95144e-05
3.99244e-05
8.70786e-05
0.000185111
0.000203267
4.84139e-05
0.000203268
4.84022e-05
8.71026e-05
3.99179e-05
4.95201e-05
3.99115e-05
4.95193e-05
8.71001e-05
0.000203274
4.84114e-05
0.000185124
8.70771e-05
0.000203274
4.84229e-05
3.99177e-05
4.95182e-05
3.99112e-05
4.95174e-05
8.70769e-05
0.000185146
4.84223e-05
0.000203275
4.84106e-05
0.000203276
8.71006e-05
3.9913e-05
4.95193e-05
4.952e-05
3.99192e-05
8.70773e-05
0.000185124
0.000203272
4.84239e-05
0.000203273
4.84126e-05
8.71007e-05
3.99128e-05
4.95173e-05
4.95181e-05
3.99191e-05
3.6252e-05
3.62675e-05
0.00015738
3.62551e-05
3.62698e-05
2.4945e-05
2.49449e-05
2.49422e-05
2.49423e-05
0.000157198
3.62563e-05
3.62707e-05
3.62531e-05
3.6268e-05
2.49449e-05
2.49449e-05
8.71053e-05
0.000203274
4.84095e-05
0.000185144
8.70814e-05
0.000203274
4.84211e-05
3.99238e-05
4.9518e-05
3.99178e-05
4.95171e-05
3.99241e-05
4.95181e-05
3.99181e-05
4.95173e-05
8.70795e-05
0.000185137
0.000203272
4.84239e-05
0.000203271
4.84127e-05
8.71032e-05
8.70822e-05
0.000185144
0.000203273
4.84222e-05
0.000203274
4.84107e-05
8.71058e-05
3.99193e-05
4.9517e-05
4.95178e-05
3.99249e-05
3.99196e-05
4.95172e-05
4.9518e-05
3.99253e-05
2.49448e-05
2.49447e-05
2.49438e-05
2.49437e-05
0.000157203
3.62707e-05
3.62664e-05
3.6268e-05
3.62637e-05
2.49447e-05
2.49447e-05
2.49437e-05
2.49437e-05
2.49464e-05
2.49464e-05
2.49439e-05
2.49439e-05
3.62704e-05
3.62661e-05
0.000157388
3.62735e-05
3.62691e-05
2.49465e-05
2.49465e-05
2.4944e-05
2.49439e-05
0.000157205
3.62752e-05
3.62709e-05
3.6272e-05
3.62678e-05
3.99212e-05
4.95216e-05
3.99152e-05
4.95209e-05
8.71034e-05
4.84169e-05
0.000203274
0.000185123
8.70795e-05
4.84284e-05
0.000203274
8.71041e-05
4.84156e-05
0.000203274
0.000185121
8.70801e-05
4.8427e-05
0.000203274
3.99155e-05
4.9521e-05
4.95216e-05
3.99214e-05
3.99162e-05
4.9521e-05
4.95216e-05
3.99222e-05
8.70803e-05
0.000185123
4.84294e-05
0.000203275
4.8418e-05
0.000203275
8.7104e-05
8.7081e-05
0.000185121
4.84278e-05
0.000203275
4.84166e-05
0.000203275
8.71048e-05
3.62674e-05
3.62627e-05
0.00015739
3.62704e-05
3.6266e-05
2.49456e-05
2.49455e-05
2.4945e-05
2.49449e-05
0.000157208
3.62718e-05
3.62674e-05
3.62689e-05
3.62642e-05
2.49456e-05
2.49456e-05
8.71039e-05
4.84083e-05
0.000203274
0.00018514
8.70809e-05
4.842e-05
0.000203273
3.99252e-05
4.95143e-05
3.99199e-05
4.95135e-05
8.71029e-05
0.000203266
4.84033e-05
0.000185111
8.70796e-05
0.000203266
4.8415e-05
3.99215e-05
4.95169e-05
4.95176e-05
3.99269e-05
8.7081e-05
0.00018514
4.8421e-05
0.000203273
4.84094e-05
0.000203274
8.7104e-05
3.99207e-05
4.95135e-05
4.95142e-05
3.9926e-05
8.70797e-05
0.000185111
0.000203266
4.84159e-05
0.000203266
4.84043e-05
8.7103e-05
3.99202e-05
4.952e-05
3.99143e-05
4.95193e-05
8.71014e-05
0.000203272
4.84137e-05
0.000185123
8.7078e-05
0.000203272
4.8425e-05
3.99201e-05
4.9518e-05
3.99141e-05
4.95173e-05
8.70777e-05
0.000185145
4.84242e-05
0.000203274
4.84127e-05
0.000203274
8.71014e-05
3.99152e-05
4.95193e-05
4.952e-05
3.99211e-05
8.70785e-05
0.000185123
0.000203272
4.84259e-05
0.000203272
4.84147e-05
8.71016e-05
3.9915e-05
4.95173e-05
4.9518e-05
3.99209e-05
3.62544e-05
3.62691e-05
0.000157378
3.62578e-05
3.62722e-05
2.49449e-05
2.49449e-05
2.49423e-05
2.49423e-05
0.000157196
3.62593e-05
3.62739e-05
3.62559e-05
3.62707e-05
2.4945e-05
2.4945e-05
8.71057e-05
0.000203272
4.84118e-05
0.000185143
8.70825e-05
0.000203272
4.84232e-05
3.99256e-05
4.95177e-05
3.99203e-05
4.9517e-05
3.9926e-05
4.95179e-05
3.99207e-05
4.95172e-05
8.70795e-05
0.000185135
0.000203273
4.84258e-05
0.000203273
4.84147e-05
8.71031e-05
8.70824e-05
0.000185143
0.000203273
4.84242e-05
0.000203273
4.84129e-05
8.71058e-05
3.9921e-05
4.95171e-05
4.95177e-05
3.99263e-05
3.99214e-05
4.95172e-05
4.95179e-05
3.99268e-05
2.49448e-05
2.49447e-05
2.49437e-05
2.49437e-05
0.000157201
3.62738e-05
3.62696e-05
3.62706e-05
3.62664e-05
2.49448e-05
2.49448e-05
2.49438e-05
2.49438e-05
2.49465e-05
2.49466e-05
2.4944e-05
2.49441e-05
3.62737e-05
3.62696e-05
0.000157387
3.62767e-05
3.62724e-05
2.49467e-05
2.49466e-05
2.49442e-05
2.49441e-05
0.000157204
3.62776e-05
3.62734e-05
3.62751e-05
3.6271e-05
3.99231e-05
4.95217e-05
3.99172e-05
4.95211e-05
8.71047e-05
4.8419e-05
0.000203275
0.000185123
8.70809e-05
4.84302e-05
0.000203275
8.71055e-05
4.84174e-05
0.000203275
0.000185121
8.70816e-05
4.84285e-05
0.000203276
3.99173e-05
4.95211e-05
4.95217e-05
3.99233e-05
3.99181e-05
4.95212e-05
4.95218e-05
3.99241e-05
8.70817e-05
0.000185123
4.84308e-05
0.000203277
4.84198e-05
0.000203276
8.71061e-05
8.70826e-05
0.000185122
4.8429e-05
0.000203279
4.8418e-05
0.000203278
8.7107e-05
3.62703e-05
3.62655e-05
0.00015739
3.62729e-05
3.62683e-05
2.49457e-05
2.49458e-05
2.49452e-05
2.49451e-05
0.000157207
3.62735e-05
3.62688e-05
3.62713e-05
3.62664e-05
2.49459e-05
2.49459e-05
8.71048e-05
4.84103e-05
0.000203272
0.00018514
8.70812e-05
4.84218e-05
0.000203271
3.9927e-05
4.95143e-05
3.99216e-05
4.95136e-05
8.71039e-05
0.000203266
4.84052e-05
0.000185111
8.708e-05
0.000203266
4.84167e-05
3.99234e-05
4.9517e-05
4.95177e-05
3.99291e-05
8.70823e-05
0.00018514
4.84225e-05
0.000203269
4.84111e-05
0.00020327
8.71066e-05
3.99226e-05
4.95137e-05
4.95143e-05
3.99282e-05
8.70812e-05
0.000185111
0.000203269
4.84174e-05
0.000203268
4.8406e-05
8.71057e-05
3.99219e-05
4.95201e-05
3.99161e-05
4.95194e-05
8.71022e-05
0.000203273
4.84156e-05
0.000185123
8.70788e-05
0.000203273
4.84267e-05
3.99218e-05
4.9518e-05
3.99159e-05
4.95174e-05
8.70785e-05
0.000185145
4.84252e-05
0.000203277
4.8414e-05
0.000203275
8.71028e-05
3.99168e-05
4.95195e-05
4.95202e-05
3.99228e-05
8.70797e-05
0.000185124
0.000203276
4.84273e-05
0.000203275
4.84163e-05
8.71036e-05
3.99168e-05
4.95175e-05
4.95181e-05
3.99228e-05
3.62575e-05
3.62724e-05
0.000157377
3.62607e-05
3.62754e-05
2.4945e-05
2.49451e-05
2.49426e-05
2.49426e-05
0.000157195
3.62616e-05
3.62763e-05
3.62587e-05
3.62738e-05
2.49452e-05
2.49451e-05
8.71067e-05
0.000203274
4.84138e-05
0.000185143
8.70826e-05
0.000203274
4.8425e-05
3.99273e-05
4.95177e-05
3.99218e-05
4.95171e-05
3.99278e-05
4.95179e-05
3.99223e-05
4.95173e-05
8.70801e-05
0.000185135
0.000203272
4.84271e-05
0.000203273
4.84162e-05
8.71049e-05
8.70837e-05
0.000185143
0.000203275
4.84256e-05
0.000203274
4.84146e-05
8.71083e-05
3.99228e-05
4.95172e-05
4.95178e-05
3.99284e-05
3.99233e-05
4.95174e-05
4.9518e-05
3.99289e-05
2.49449e-05
2.49449e-05
2.49438e-05
2.49439e-05
0.0001572
3.6276e-05
3.62719e-05
3.62735e-05
3.62694e-05
2.4945e-05
2.4945e-05
2.4944e-05
2.49439e-05
2.49467e-05
2.49468e-05
2.49442e-05
2.49444e-05
3.62758e-05
3.62718e-05
0.000157385
3.62776e-05
3.62736e-05
2.4947e-05
2.49469e-05
2.49445e-05
2.49444e-05
0.000157203
3.62767e-05
3.62726e-05
3.62756e-05
3.62717e-05
3.99241e-05
4.95219e-05
3.9919e-05
4.95214e-05
8.71048e-05
4.84203e-05
0.000203276
0.00018512
8.7083e-05
4.84309e-05
0.000203275
8.71058e-05
4.84185e-05
0.000203278
0.000185123
8.70839e-05
4.84283e-05
0.000203277
3.99179e-05
4.95218e-05
4.95219e-05
3.99215e-05
3.99186e-05
4.95217e-05
4.95222e-05
3.99223e-05
8.708e-05
0.000185119
4.84292e-05
0.000203272
4.84202e-05
0.000203273
8.70963e-05
8.70808e-05
0.000185123
4.84246e-05
0.000203273
4.84165e-05
0.000203274
8.70968e-05
3.62717e-05
3.62667e-05
0.00015739
3.62724e-05
3.62687e-05
2.4946e-05
2.49461e-05
2.49454e-05
2.49456e-05
0.000157207
3.62697e-05
3.62678e-05
3.62694e-05
3.62664e-05
2.49461e-05
2.49462e-05
8.71053e-05
4.84117e-05
0.000203271
0.000185138
8.70839e-05
4.84227e-05
0.000203272
3.99284e-05
4.95144e-05
3.99236e-05
4.95138e-05
8.71043e-05
0.000203271
4.84066e-05
0.000185111
8.70827e-05
0.000203271
4.84175e-05
3.99244e-05
4.95176e-05
4.9518e-05
3.99276e-05
8.70807e-05
0.000185137
4.84209e-05
0.000203272
4.84116e-05
0.000203273
8.70965e-05
3.99235e-05
4.95142e-05
4.95146e-05
3.99268e-05
8.70795e-05
0.000185109
0.00020327
4.84159e-05
0.000203271
4.84064e-05
8.70957e-05
3.99229e-05
4.95203e-05
3.99177e-05
4.95199e-05
8.71025e-05
0.000203275
4.84168e-05
0.000185123
8.70808e-05
0.000203275
4.84274e-05
3.99229e-05
4.95182e-05
3.99177e-05
4.95176e-05
8.70792e-05
0.000185141
4.84226e-05
0.000203275
4.84137e-05
0.000203275
8.70976e-05
3.99176e-05
4.95204e-05
4.95207e-05
3.99215e-05
8.70786e-05
0.000185122
0.000203275
4.84259e-05
0.000203275
4.84167e-05
8.70951e-05
3.99175e-05
4.9518e-05
4.95184e-05
3.99213e-05
3.62594e-05
3.62745e-05
0.000157376
3.62616e-05
3.62765e-05
2.49453e-05
2.49454e-05
2.49429e-05
2.49429e-05
0.000157194
3.62607e-05
3.62756e-05
3.62592e-05
3.62745e-05
2.49455e-05
2.49454e-05
8.71072e-05
0.000203276
4.84151e-05
0.000185142
8.70851e-05
0.000203276
4.84258e-05
3.99287e-05
4.95179e-05
3.99238e-05
4.95174e-05
3.99291e-05
4.95181e-05
3.99243e-05
4.95176e-05
8.70814e-05
0.00018513
0.000203268
4.84258e-05
0.000203268
4.84167e-05
8.71003e-05
8.70826e-05
0.000185142
0.000203274
4.84241e-05
0.000203275
4.8415e-05
8.70996e-05
3.99239e-05
4.95178e-05
4.95181e-05
3.99274e-05
3.99242e-05
4.9518e-05
4.95183e-05
3.99276e-05
2.49451e-05
2.49452e-05
2.4944e-05
2.49441e-05
0.000157199
3.62753e-05
3.62712e-05
3.62741e-05
3.627e-05
2.49453e-05
2.49453e-05
2.49443e-05
2.49442e-05
2.4947e-05
2.49466e-05
2.49445e-05
2.49445e-05
3.62743e-05
3.62705e-05
0.000157374
3.62748e-05
3.62711e-05
2.49464e-05
2.49466e-05
2.49441e-05
2.49443e-05
0.000157186
3.62732e-05
3.62694e-05
3.62725e-05
3.62689e-05