/*--------------------------------*- C++ -*----------------------------------*\
| =========                 |                                                 |
| \\      /  F ield         | OpenFOAM: The Open Source CFD Toolbox           |
|  \\    /   O peration     | Version:  2206                                  |
|   \\  /    A nd           | Website:  www.openfoam.com                      |
|    \\/     M anipulation  |                                                 |
\*---------------------------------------------------------------------------*/
FoamFile
{
    version     2.0;
    format      ascii;
    arch        "LSB;label=32;scalar=64";
    class       volScalarField;
    location    "38.5";
    object      k;
}
// * * * * * * * * * * * * * * * * * * * * * * * * * * * * * * * * * * * * * //

dimensions      [0 2 -2 0 0 0 0];

internalField   nonuniform List<scalar> 
28688
(
3.58932e-05
3.58912e-05
3.58912e-05
3.59955e-05
3.39294e-05
3.38889e-05
3.38889e-05
3.3962e-05
3.21584e-05
3.20086e-05
3.20086e-05
3.1952e-05
3.0537e-05
3.02306e-05
3.02305e-05
2.99882e-05
2.90294e-05
2.85509e-05
2.85508e-05
2.81212e-05
2.76339e-05
2.69882e-05
2.69881e-05
2.63934e-05
2.63431e-05
2.55366e-05
2.55364e-05
2.48047e-05
2.50863e-05
2.41725e-05
2.41723e-05
2.33968e-05
2.39211e-05
2.29273e-05
2.29271e-05
2.2083e-05
2.35312e-05
2.26682e-05
2.2668e-05
2.1866e-05
2.34904e-05
2.26993e-05
2.26991e-05
2.19886e-05
2.34905e-05
2.27108e-05
2.27106e-05
2.20111e-05
3.6307e-05
3.6291e-05
3.6291e-05
3.6307e-05
3.6291e-05
3.6291e-05
3.64231e-05
3.64231e-05
3.64231e-05
3.64231e-05
3.6291e-05
3.6291e-05
3.6307e-05
3.6291e-05
3.6291e-05
3.6307e-05
3.59955e-05
3.42689e-05
3.58912e-05
3.58912e-05
3.43769e-05
3.43768e-05
3.59955e-05
3.42689e-05
3.58911e-05
3.58912e-05
3.43769e-05
3.43768e-05
3.58912e-05
3.43769e-05
3.43769e-05
3.59955e-05
3.42689e-05
3.58912e-05
3.43769e-05
3.43769e-05
3.42689e-05
3.3962e-05
3.22637e-05
3.38889e-05
3.38888e-05
3.24689e-05
3.24688e-05
3.39621e-05
3.22638e-05
3.38889e-05
3.38888e-05
3.24689e-05
3.24687e-05
3.38889e-05
3.2469e-05
3.24688e-05
3.3962e-05
3.22637e-05
3.38889e-05
3.2469e-05
3.24689e-05
3.22637e-05
3.1952e-05
3.02994e-05
3.20085e-05
3.20084e-05
3.0664e-05
3.06638e-05
3.19521e-05
3.02995e-05
3.20085e-05
3.20083e-05
3.06641e-05
3.06637e-05
3.20084e-05
3.06642e-05
3.06639e-05
3.1952e-05
3.02993e-05
3.20085e-05
3.06642e-05
3.0664e-05
3.02993e-05
2.99882e-05
2.84243e-05
3.02303e-05
3.02301e-05
2.89596e-05
2.89594e-05
2.99883e-05
2.84245e-05
3.02304e-05
3.023e-05
2.89598e-05
2.89592e-05
3.02302e-05
2.896e-05
2.89595e-05
2.99882e-05
2.84242e-05
3.02304e-05
2.89599e-05
2.89597e-05
2.84242e-05
2.81214e-05
2.6677e-05
2.85505e-05
2.85503e-05
2.73743e-05
2.73741e-05
2.81214e-05
2.66772e-05
2.85507e-05
2.85502e-05
2.73746e-05
2.73739e-05
2.85504e-05
2.73749e-05
2.73742e-05
2.81212e-05
2.66769e-05
2.85507e-05
2.73747e-05
2.73746e-05
2.66769e-05
2.63936e-05
2.50597e-05
2.69877e-05
2.69874e-05
2.58745e-05
2.58743e-05
2.63937e-05
2.50599e-05
2.6988e-05
2.69872e-05
2.58749e-05
2.58741e-05
2.69876e-05
2.58752e-05
2.58745e-05
2.63934e-05
2.50596e-05
2.69879e-05
2.58751e-05
2.58749e-05
2.50595e-05
2.48048e-05
2.36335e-05
2.55359e-05
2.55356e-05
2.45371e-05
2.45368e-05
2.4805e-05
2.36336e-05
2.55363e-05
2.55354e-05
2.45376e-05
2.45366e-05
2.55358e-05
2.45379e-05
2.4537e-05
2.48047e-05
2.36333e-05
2.55363e-05
2.45377e-05
2.45375e-05
2.36332e-05
2.3397e-05
2.22343e-05
2.41717e-05
2.41714e-05
2.31501e-05
2.31497e-05
2.33972e-05
2.22345e-05
2.41722e-05
2.41712e-05
2.31506e-05
2.31495e-05
2.41716e-05
2.3151e-05
2.315e-05
2.33968e-05
2.22341e-05
2.41722e-05
2.31507e-05
2.31506e-05
2.2234e-05
2.20833e-05
2.18623e-05
2.29265e-05
2.29261e-05
2.26725e-05
2.26722e-05
2.20833e-05
2.18623e-05
2.2927e-05
2.29259e-05
2.26729e-05
2.26719e-05
2.29264e-05
2.26732e-05
2.26724e-05
2.2083e-05
2.1862e-05
2.2927e-05
2.2673e-05
2.2673e-05
2.1862e-05
2.18663e-05
2.19891e-05
2.26675e-05
2.26673e-05
2.26904e-05
2.26902e-05
2.18664e-05
2.19891e-05
2.2668e-05
2.2667e-05
2.26909e-05
2.26899e-05
2.26674e-05
2.2691e-05
2.26904e-05
2.1866e-05
2.19888e-05
2.2668e-05
2.26909e-05
2.26909e-05
2.1989e-05
2.19889e-05
2.20146e-05
2.26988e-05
2.26986e-05
2.27091e-05
2.27089e-05
2.19888e-05
2.20146e-05
2.26993e-05
2.26983e-05
2.27097e-05
2.27086e-05
2.26988e-05
2.27097e-05
2.27092e-05
2.19885e-05
2.20142e-05
2.26994e-05
2.27096e-05
2.27098e-05
2.20146e-05
2.20113e-05
2.2018e-05
2.27102e-05
2.27101e-05
2.27115e-05
2.20112e-05
2.27108e-05
2.27098e-05
2.2712e-05
2.2711e-05
2.27103e-05
2.27115e-05
2.20109e-05
2.20176e-05
2.27109e-05
2.2712e-05
2.27121e-05
2.2018e-05
3.73774e-05
3.73765e-05
3.7377e-05
3.7377e-05
3.73703e-05
3.73777e-05
3.73043e-05
3.73768e-05
3.73703e-05
3.73777e-05
3.73768e-05
3.73043e-05
3.73742e-05
3.72959e-05
3.72959e-05
3.58829e-05
4.08804e-05
3.66017e-05
4.51365e-05
5.5115e-05
6.48807e-05
3.58834e-05
4.08797e-05
3.66018e-05
4.51362e-05
3.58932e-05
3.58932e-05
3.58932e-05
3.44008e-05
3.44008e-05
3.44008e-05
3.44008e-05
3.52768e-05
3.56355e-05
3.58928e-05
3.5377e-05
3.60469e-05
3.42403e-05
3.53821e-05
5.5117e-05
6.48845e-05
3.52768e-05
3.58929e-05
3.56351e-05
3.5377e-05
3.60468e-05
3.53821e-05
3.42412e-05
3.65907e-05
3.65912e-05
3.52792e-05
3.40703e-05
3.40695e-05
3.39725e-05
5.13634e-05
3.46739e-05
5.46123e-05
7.65597e-05
8.085e-05
3.39757e-05
5.13645e-05
3.46733e-05
5.46128e-05
3.39294e-05
3.39294e-05
3.39294e-05
3.25865e-05
3.25865e-05
3.25865e-05
3.25865e-05
3.3056e-05
3.2471e-05
3.39293e-05
3.34084e-05
3.38945e-05
3.15793e-05
3.34673e-05
7.65612e-05
8.08537e-05
3.30562e-05
3.39293e-05
3.24698e-05
3.34083e-05
3.38941e-05
3.34673e-05
3.15813e-05
3.17097e-05
3.1709e-05
3.32638e-05
3.09315e-05
3.093e-05
3.22547e-05
5.91806e-05
3.29172e-05
6.1427e-05
8.44008e-05
8.5065e-05
3.22588e-05
5.91825e-05
3.29138e-05
6.14292e-05
3.21584e-05
3.21584e-05
3.21584e-05
3.09283e-05
3.09283e-05
3.09283e-05
3.09283e-05
3.07913e-05
3.051e-05
3.21381e-05
3.15536e-05
3.16348e-05
2.98872e-05
3.17094e-05
8.4403e-05
8.50675e-05
3.07914e-05
3.2138e-05
3.05096e-05
3.15536e-05
3.16341e-05
3.17094e-05
2.98886e-05
3.02096e-05
3.02087e-05
3.12733e-05
3.00082e-05
3.00067e-05
3.07637e-05
6.43663e-05
3.13442e-05
6.57106e-05
8.4632e-05
8.38898e-05
3.07652e-05
6.43679e-05
3.13427e-05
6.5714e-05
3.0537e-05
3.0537e-05
3.0537e-05
2.93936e-05
2.93935e-05
2.93935e-05
2.93935e-05
2.8606e-05
2.91433e-05
3.04711e-05
2.98024e-05
2.94093e-05
2.86754e-05
3.00706e-05
8.46326e-05
8.38919e-05
2.86058e-05
3.04711e-05
2.91438e-05
2.98023e-05
2.94088e-05
3.00705e-05
2.86764e-05
2.9942e-05
2.99409e-05
2.93495e-05
3.00355e-05
3.00345e-05
2.95131e-05
6.73296e-05
3.00008e-05
6.80229e-05
8.22365e-05
8.11955e-05
2.95115e-05
6.73315e-05
3.0003e-05
6.80272e-05
2.90295e-05
2.90294e-05
2.90294e-05
2.79827e-05
2.79827e-05
2.79827e-05
2.79827e-05
2.65704e-05
2.81242e-05
2.88998e-05
2.81524e-05
2.73134e-05
2.77826e-05
2.85268e-05
8.22362e-05
8.1197e-05
2.657e-05
2.88997e-05
2.81244e-05
2.81523e-05
2.73132e-05
2.85267e-05
2.77837e-05
3.04499e-05
3.04492e-05
2.75323e-05
3.07695e-05
3.07687e-05
2.85849e-05
6.87516e-05
2.89674e-05
6.90368e-05
7.9465e-05
7.84978e-05
2.85871e-05
6.87547e-05
2.89685e-05
6.90404e-05
2.76339e-05
2.76338e-05
2.76339e-05
2.6641e-05
2.6641e-05
2.66409e-05
2.66409e-05
2.47468e-05
2.74079e-05
2.74287e-05
2.66049e-05
2.54129e-05
2.71941e-05
2.70652e-05
7.94641e-05
7.84991e-05
2.47471e-05
2.74286e-05
2.74081e-05
2.66047e-05
2.54122e-05
2.7065e-05
2.71951e-05
3.15797e-05
3.15799e-05
2.5849e-05
3.21153e-05
3.21156e-05
2.80003e-05
6.9273e-05
2.82688e-05
6.93244e-05
7.70547e-05
7.62406e-05
2.8001e-05
6.92764e-05
2.82662e-05
6.9328e-05
2.63432e-05
2.63431e-05
2.63431e-05
2.54261e-05
2.54261e-05
2.5426e-05
2.5426e-05
2.31638e-05
2.69974e-05
2.60521e-05
2.52096e-05
2.37402e-05
2.69112e-05
2.57391e-05
7.7054e-05
7.62415e-05
2.31636e-05
2.6052e-05
2.69981e-05
2.52094e-05
2.37395e-05
2.5739e-05
2.69121e-05
3.32099e-05
3.32109e-05
2.43313e-05
3.39198e-05
3.39213e-05
2.77672e-05
6.92387e-05
2.7945e-05
6.91579e-05
7.52451e-05
7.5016e-05
2.77661e-05
6.92416e-05
2.79456e-05
6.91615e-05
2.50863e-05
2.50862e-05
2.50863e-05
2.41445e-05
2.41445e-05
2.41443e-05
2.41444e-05
2.1814e-05
2.68913e-05
2.47328e-05
2.37994e-05
2.23606e-05
2.67187e-05
2.43718e-05
7.52449e-05
7.50164e-05
2.18137e-05
2.47326e-05
2.68915e-05
2.37991e-05
2.23604e-05
2.43716e-05
2.67155e-05
3.50992e-05
3.51016e-05
2.29e-05
3.55944e-05
3.55964e-05
2.76477e-05
6.91467e-05
2.75327e-05
6.93453e-05
7.50189e-05
7.51245e-05
2.76467e-05
6.915e-05
2.75315e-05
6.93482e-05
2.39212e-05
2.3921e-05
2.39211e-05
2.35734e-05
2.35734e-05
2.35733e-05
2.35734e-05
2.10475e-05
2.66183e-05
2.3501e-05
2.27814e-05
2.11138e-05
2.67187e-05
2.33349e-05
7.50175e-05
7.51213e-05
2.10474e-05
2.35008e-05
2.66185e-05
2.27812e-05
2.11135e-05
2.33348e-05
2.67204e-05
3.63355e-05
3.63381e-05
2.19017e-05
3.68496e-05
3.6853e-05
2.80975e-05
6.9576e-05
2.80062e-05
6.96184e-05
7.52199e-05
7.52414e-05
2.80974e-05
6.95792e-05
2.80071e-05
6.9622e-05
2.35313e-05
2.35311e-05
2.35312e-05
2.34919e-05
2.3492e-05
2.34918e-05
2.34919e-05
2.12585e-05
2.73171e-05
2.31309e-05
2.267e-05
2.11677e-05
2.7489e-05
2.31166e-05
7.52167e-05
7.52377e-05
2.12589e-05
2.31308e-05
2.73174e-05
2.26698e-05
2.11681e-05
2.31165e-05
2.74889e-05
3.75629e-05
3.7567e-05
2.19362e-05
3.7716e-05
3.77205e-05
2.81561e-05
6.96394e-05
2.81562e-05
6.96392e-05
7.52464e-05
7.52475e-05
2.81582e-05
6.96434e-05
2.81581e-05
6.96426e-05
2.34904e-05
2.34903e-05
2.34904e-05
2.34904e-05
2.34904e-05
2.34902e-05
2.34903e-05
2.13358e-05
2.76147e-05
2.31118e-05
2.27047e-05
2.13272e-05
2.76162e-05
2.31128e-05
7.52425e-05
7.52435e-05
2.13363e-05
2.31117e-05
2.7616e-05
2.27046e-05
2.13278e-05
2.31127e-05
2.76176e-05
3.78192e-05
3.78236e-05
2.2008e-05
3.78183e-05
3.78228e-05
2.81594e-05
6.96415e-05
2.81617e-05
6.964e-05
7.52468e-05
7.52476e-05
2.81613e-05
6.96446e-05
2.81633e-05
6.96428e-05
2.34906e-05
2.34904e-05
2.34906e-05
2.3491e-05
2.34911e-05
2.34908e-05
2.34909e-05
2.13429e-05
2.76272e-05
2.31149e-05
2.27116e-05
2.13419e-05
2.76224e-05
2.31153e-05
7.52428e-05
7.52436e-05
2.13434e-05
2.31148e-05
2.76281e-05
2.27115e-05
2.13424e-05
2.31153e-05
2.76237e-05
3.78218e-05
3.78263e-05
2.20169e-05
3.78195e-05
3.7824e-05
3.73742e-05
3.72959e-05
3.72959e-05
5.31119e-05
3.71932e-05
5.31139e-05
3.71932e-05
3.70928e-05
3.72451e-05
3.72455e-05
3.71762e-05
3.71762e-05
3.73703e-05
3.73777e-05
3.73043e-05
3.73768e-05
3.73703e-05
3.73777e-05
3.73043e-05
3.73768e-05
3.71732e-05
3.94122e-05
3.7168e-05
3.67256e-05
3.71732e-05
3.94121e-05
3.7168e-05
3.67257e-05
3.70956e-05
3.71021e-05
3.60276e-05
3.64211e-05
3.71636e-05
3.71109e-05
3.6306e-05
3.70956e-05
3.71021e-05
3.6028e-05
3.64211e-05
3.71636e-05
3.71109e-05
3.6306e-05
3.73742e-05
3.72959e-05
3.72959e-05
5.31121e-05
3.71933e-05
3.70928e-05
3.7246e-05
3.72446e-05
3.71762e-05
3.71762e-05
5.31137e-05
3.71933e-05
3.73703e-05
3.73777e-05
3.73043e-05
3.73768e-05
3.73703e-05
3.73777e-05
3.73768e-05
3.73043e-05
3.71732e-05
3.94126e-05
3.7168e-05
3.67259e-05
3.70956e-05
3.71021e-05
3.60276e-05
3.64211e-05
3.71636e-05
3.71109e-05
3.6306e-05
3.71732e-05
3.94128e-05
3.7168e-05
3.67256e-05
3.70956e-05
3.71021e-05
3.64211e-05
3.60277e-05
3.71109e-05
3.71636e-05
3.6306e-05
3.73774e-05
3.73765e-05
3.7377e-05
3.7377e-05
3.73774e-05
3.73765e-05
3.7377e-05
3.7377e-05
3.73774e-05
3.73765e-05
3.7377e-05
3.7377e-05
3.71133e-05
3.71099e-05
3.64242e-05
3.64242e-05
3.71125e-05
3.71125e-05
3.64262e-05
3.71133e-05
3.71099e-05
3.64242e-05
3.64242e-05
3.71125e-05
3.71125e-05
3.64262e-05
3.71133e-05
3.71099e-05
3.64242e-05
3.64242e-05
3.71125e-05
3.71125e-05
3.64262e-05
3.71133e-05
3.71099e-05
3.64242e-05
3.64242e-05
3.71125e-05
3.71125e-05
3.64262e-05
3.73703e-05
3.73777e-05
3.73768e-05
3.73043e-05
3.70956e-05
3.71021e-05
3.60274e-05
3.64211e-05
3.71636e-05
3.71109e-05
3.6306e-05
3.71732e-05
3.94123e-05
3.7168e-05
3.67258e-05
3.70956e-05
3.71021e-05
3.64211e-05
3.6028e-05
3.71109e-05
3.71636e-05
3.6306e-05
3.71732e-05
3.94128e-05
3.7168e-05
3.67256e-05
3.73742e-05
3.72959e-05
3.72959e-05
5.31143e-05
3.71933e-05
3.70928e-05
3.72454e-05
3.72458e-05
3.71762e-05
3.71762e-05
5.31144e-05
3.71933e-05
3.73703e-05
3.73777e-05
3.73768e-05
3.73043e-05
3.70956e-05
3.71021e-05
3.64211e-05
3.6028e-05
3.71109e-05
3.71636e-05
3.63061e-05
3.70956e-05
3.71021e-05
3.64211e-05
3.6028e-05
3.71109e-05
3.71636e-05
3.63061e-05
3.71732e-05
3.94128e-05
3.7168e-05
3.67256e-05
3.71732e-05
3.94128e-05
3.7168e-05
3.67259e-05
3.70928e-05
3.72455e-05
3.72461e-05
3.71762e-05
3.71762e-05
5.31142e-05
3.71933e-05
5.31141e-05
3.71932e-05
5.51149e-05
6.48805e-05
5.51167e-05
6.48835e-05
3.6591e-05
3.65919e-05
3.52792e-05
3.40701e-05
3.40689e-05
7.47162e-05
6.76863e-05
7.472e-05
6.76902e-05
3.49727e-05
3.20454e-05
3.20448e-05
3.34608e-05
3.3461e-05
3.58829e-05
4.08798e-05
3.66019e-05
4.51348e-05
3.52766e-05
3.56356e-05
3.58928e-05
3.5377e-05
3.60469e-05
3.42408e-05
3.53821e-05
3.52767e-05
3.56351e-05
3.58928e-05
3.53769e-05
3.60469e-05
3.42416e-05
3.5382e-05
3.56296e-05
5.02035e-05
4.6463e-05
3.48981e-05
3.56299e-05
5.02024e-05
4.64626e-05
3.48987e-05
3.49981e-05
3.48726e-05
3.27345e-05
3.44021e-05
3.38598e-05
3.48858e-05
3.41811e-05
3.49982e-05
3.48726e-05
3.27356e-05
3.4402e-05
3.38587e-05
3.48858e-05
3.41813e-05
3.65909e-05
3.65921e-05
3.52792e-05
3.40703e-05
3.40678e-05
5.51161e-05
6.48828e-05
7.47169e-05
6.76887e-05
3.49727e-05
3.2046e-05
3.20429e-05
3.346e-05
3.34624e-05
7.47187e-05
6.76881e-05
3.52768e-05
3.56354e-05
3.58929e-05
3.5377e-05
3.60469e-05
3.42408e-05
3.53821e-05
3.5883e-05
4.08808e-05
3.66015e-05
4.51376e-05
3.52767e-05
3.58928e-05
3.56356e-05
3.5377e-05
3.60469e-05
3.53821e-05
3.42407e-05
3.56294e-05
5.02034e-05
4.64627e-05
3.48994e-05
3.4998e-05
3.48726e-05
3.27345e-05
3.4402e-05
3.38591e-05
3.48858e-05
3.41815e-05
3.56294e-05
5.02052e-05
4.64645e-05
3.4899e-05
3.4998e-05
3.48726e-05
3.44021e-05
3.27342e-05
3.48858e-05
3.38594e-05
3.41813e-05
3.58831e-05
4.08785e-05
3.66018e-05
4.51368e-05
3.52767e-05
3.58928e-05
3.56352e-05
3.5377e-05
3.60469e-05
3.53821e-05
3.42416e-05
3.58831e-05
4.08813e-05
3.66014e-05
4.51366e-05
3.49982e-05
3.48726e-05
3.27336e-05
3.44021e-05
3.38595e-05
3.48858e-05
3.41814e-05
3.56298e-05
5.0203e-05
4.64605e-05
3.48987e-05
3.49981e-05
3.48726e-05
3.44021e-05
3.27355e-05
3.48858e-05
3.38586e-05
3.41812e-05
3.56293e-05
5.02038e-05
4.64648e-05
3.48986e-05
3.65914e-05
3.65908e-05
3.52792e-05
3.4069e-05
3.40697e-05
5.51171e-05
6.48822e-05
7.4721e-05
6.76897e-05
3.49727e-05
3.20438e-05
3.20466e-05
3.34608e-05
3.34602e-05
7.47184e-05
6.76902e-05
3.52769e-05
3.58929e-05
3.56351e-05
3.5377e-05
3.60468e-05
3.53821e-05
3.42414e-05
3.58837e-05
4.08806e-05
3.66014e-05
4.51372e-05
3.58839e-05
4.08797e-05
3.66017e-05
4.51361e-05
3.4998e-05
3.48726e-05
3.44021e-05
3.27354e-05
3.48858e-05
3.38588e-05
3.41814e-05
3.4998e-05
3.48726e-05
3.44021e-05
3.27353e-05
3.48858e-05
3.38584e-05
3.41816e-05
3.56286e-05
5.02047e-05
4.64645e-05
3.48993e-05
3.56289e-05
5.02043e-05
4.64625e-05
3.48996e-05
5.51167e-05
6.4882e-05
5.51167e-05
6.48827e-05
3.49727e-05
3.20465e-05
3.20452e-05
3.34597e-05
3.346e-05
7.47175e-05
6.76895e-05
7.47191e-05
6.7691e-05
7.65571e-05
8.0849e-05
7.65613e-05
8.08534e-05
3.17106e-05
3.17097e-05
3.32638e-05
3.09298e-05
3.0929e-05
8.39971e-05
8.18609e-05
8.40008e-05
8.18644e-05
3.29542e-05
3.03123e-05
3.03131e-05
3.07409e-05
3.07384e-05
3.39732e-05
5.13631e-05
3.4674e-05
5.46121e-05
3.30557e-05
3.24711e-05
3.39293e-05
3.34083e-05
3.38944e-05
3.15801e-05
3.34673e-05
3.30559e-05
3.24697e-05
3.39293e-05
3.34082e-05
3.38944e-05
3.15814e-05
3.34673e-05
3.37739e-05
5.83562e-05
5.56084e-05
3.30889e-05
3.37739e-05
5.83564e-05
5.56077e-05
3.30895e-05
3.27675e-05
3.29351e-05
3.06528e-05
3.25733e-05
3.13896e-05
3.30157e-05
3.19199e-05
3.27675e-05
3.2935e-05
3.06543e-05
3.25733e-05
3.13878e-05
3.30157e-05
3.19202e-05
3.17092e-05
3.17114e-05
3.32638e-05
3.09303e-05
3.09263e-05
7.65588e-05
8.08509e-05
8.39979e-05
8.18629e-05
3.29542e-05
3.03141e-05
3.03095e-05
3.07386e-05
3.07419e-05
8.39988e-05
8.18625e-05
3.30563e-05
3.24703e-05
3.39293e-05
3.34083e-05
3.38942e-05
3.15805e-05
3.34673e-05
3.3975e-05
5.13654e-05
3.46733e-05
5.46153e-05
3.3056e-05
3.39293e-05
3.24709e-05
3.34082e-05
3.38941e-05
3.34673e-05
3.15795e-05
3.37709e-05
5.83573e-05
5.56099e-05
3.30927e-05
3.27671e-05
3.29351e-05
3.0653e-05
3.25733e-05
3.1388e-05
3.30158e-05
3.19206e-05
3.3771e-05
5.83596e-05
5.56102e-05
3.30921e-05
3.2767e-05
3.2935e-05
3.25733e-05
3.06522e-05
3.30157e-05
3.13893e-05
3.19203e-05
3.39736e-05
5.13623e-05
3.46738e-05
5.46122e-05
3.30558e-05
3.39293e-05
3.247e-05
3.34082e-05
3.38944e-05
3.34673e-05
3.15818e-05
3.39729e-05
5.13651e-05
3.46739e-05
5.46134e-05
3.27676e-05
3.29352e-05
3.06521e-05
3.25733e-05
3.13891e-05
3.30157e-05
3.19202e-05
3.37733e-05
5.83567e-05
5.56071e-05
3.30896e-05
3.27674e-05
3.29351e-05
3.25733e-05
3.06545e-05
3.30157e-05
3.13881e-05
3.192e-05
3.37731e-05
5.83582e-05
5.56097e-05
3.30892e-05
3.17105e-05
3.17094e-05
3.32638e-05
3.09279e-05
3.09303e-05
7.65607e-05
8.08509e-05
8.40013e-05
8.18652e-05
3.29542e-05
3.03111e-05
3.03146e-05
3.07406e-05
3.074e-05
8.39986e-05
8.18638e-05
3.30563e-05
3.39293e-05
3.24693e-05
3.34083e-05
3.38942e-05
3.34673e-05
3.15813e-05
3.39754e-05
5.13651e-05
3.46731e-05
5.46144e-05
3.39753e-05
5.13638e-05
3.46733e-05
5.46135e-05
3.27669e-05
3.29352e-05
3.25733e-05
3.06542e-05
3.30157e-05
3.13881e-05
3.19204e-05
3.27671e-05
3.29352e-05
3.25733e-05
3.06541e-05
3.30157e-05
3.13876e-05
3.19207e-05
3.37705e-05
5.83584e-05
5.56098e-05
3.30924e-05
3.3771e-05
5.8358e-05
5.56091e-05
3.30928e-05
7.65605e-05
8.08509e-05
7.65623e-05
8.08524e-05
3.29542e-05
3.03151e-05
3.03136e-05
3.07391e-05
3.07383e-05
8.39988e-05
8.18638e-05
8.40001e-05
8.18653e-05
8.44001e-05
8.50647e-05
8.44021e-05
8.50669e-05
3.02102e-05
3.02089e-05
3.12733e-05
3.00042e-05
3.00067e-05
8.48363e-05
8.50736e-05
8.48385e-05
8.50751e-05
3.09606e-05
2.99321e-05
2.99306e-05
2.99654e-05
2.9964e-05
3.22552e-05
5.918e-05
3.29173e-05
6.14279e-05
3.0791e-05
3.0511e-05
3.2138e-05
3.15534e-05
3.16347e-05
2.98879e-05
3.17094e-05
3.07913e-05
3.05092e-05
3.2138e-05
3.15533e-05
3.16348e-05
2.98884e-05
3.17094e-05
3.21067e-05
6.38583e-05
6.20861e-05
3.14788e-05
3.21069e-05
6.38597e-05
6.20854e-05
3.14792e-05
3.05108e-05
3.11049e-05
2.92397e-05
3.08763e-05
2.9775e-05
3.12886e-05
2.96831e-05
3.0511e-05
3.11047e-05
2.924e-05
3.08763e-05
2.97741e-05
3.12886e-05
2.96833e-05
3.02092e-05
3.02092e-05
3.12734e-05
3.00073e-05
3.00013e-05
8.44007e-05
8.50656e-05
8.4836e-05
8.50738e-05
3.09606e-05
2.99312e-05
2.99303e-05
2.99645e-05
2.99638e-05
8.48374e-05
8.5074e-05
3.07915e-05
3.05098e-05
3.2138e-05
3.15535e-05
3.16343e-05
2.98876e-05
3.17094e-05
3.22583e-05
5.91825e-05
3.29137e-05
6.14309e-05
3.07913e-05
3.2138e-05
3.05102e-05
3.15533e-05
3.16342e-05
3.17094e-05
2.98873e-05
3.21041e-05
6.38612e-05
6.20878e-05
3.14807e-05
3.05106e-05
3.1105e-05
2.92397e-05
3.08763e-05
2.97746e-05
3.12886e-05
2.96833e-05
3.21039e-05
6.38626e-05
6.20878e-05
3.14803e-05
3.05104e-05
3.11047e-05
3.08762e-05
2.92393e-05
3.12885e-05
2.97744e-05
2.96831e-05
3.22552e-05
5.91794e-05
3.29173e-05
6.14283e-05
3.0791e-05
3.2138e-05
3.05094e-05
3.15534e-05
3.16347e-05
3.17094e-05
2.98885e-05
3.22548e-05
5.91818e-05
3.2917e-05
6.14295e-05
3.0511e-05
3.11051e-05
2.92392e-05
3.08764e-05
2.97742e-05
3.12886e-05
2.96833e-05
3.21069e-05
6.38603e-05
6.2085e-05
3.14791e-05
3.05108e-05
3.11048e-05
3.08763e-05
2.92401e-05
3.12886e-05
2.97742e-05
2.96831e-05
3.21065e-05
6.3861e-05
6.2087e-05
3.14787e-05
3.02088e-05
3.02103e-05
3.12733e-05
3.0003e-05
3.00081e-05
8.44016e-05
8.50656e-05
8.48386e-05
8.50756e-05
3.09605e-05
2.99311e-05
2.99323e-05
2.99641e-05
2.99653e-05
8.48364e-05
8.50744e-05
3.07916e-05
3.2138e-05
3.05089e-05
3.15535e-05
3.16343e-05
3.17094e-05
2.98881e-05
3.22585e-05
5.91819e-05
3.29134e-05
6.14296e-05
3.22589e-05
5.91816e-05
3.29138e-05
6.14297e-05
3.05104e-05
3.1105e-05
3.08763e-05
2.92402e-05
3.12886e-05
2.97743e-05
2.96832e-05
3.05106e-05
3.11049e-05
3.08763e-05
2.92397e-05
3.12886e-05
2.97738e-05
2.96834e-05
3.21037e-05
6.38612e-05
6.20871e-05
3.14803e-05
3.21041e-05
6.38616e-05
6.20872e-05
3.14807e-05
8.44018e-05
8.50658e-05
8.44029e-05
8.50667e-05
3.09605e-05
2.99318e-05
2.99307e-05
2.99651e-05
2.9964e-05
8.48367e-05
8.50746e-05
8.4837e-05
8.50752e-05
8.46321e-05
8.38907e-05
8.46319e-05
8.38919e-05
2.99421e-05
2.99409e-05
2.93496e-05
3.00355e-05
3.00345e-05
8.25994e-05
8.3572e-05
8.26001e-05
8.35716e-05
2.90413e-05
3.03212e-05
3.03207e-05
3.01089e-05
3.01073e-05
3.07641e-05
6.43656e-05
3.13445e-05
6.57121e-05
2.86058e-05
2.91439e-05
3.04711e-05
2.9802e-05
2.94091e-05
2.86762e-05
3.00705e-05
2.8606e-05
2.91437e-05
3.04711e-05
2.98018e-05
2.94093e-05
2.86764e-05
3.00705e-05
3.06497e-05
6.70682e-05
6.60865e-05
3.00934e-05
3.065e-05
6.70702e-05
6.60862e-05
3.00938e-05
2.83431e-05
2.93778e-05
2.81936e-05
2.92822e-05
2.8595e-05
2.96735e-05
2.75622e-05
2.83433e-05
2.93777e-05
2.81937e-05
2.92822e-05
2.85953e-05
2.96734e-05
2.75624e-05
2.99415e-05
2.99407e-05
2.93497e-05
3.0035e-05
3.00337e-05
8.46315e-05
8.38912e-05
8.25984e-05
8.35721e-05
2.90413e-05
3.0321e-05
3.03193e-05
3.01079e-05
3.01084e-05
8.25999e-05
8.35716e-05
2.8606e-05
2.91435e-05
3.04711e-05
2.98022e-05
2.9409e-05
2.86762e-05
3.00705e-05
3.07648e-05
6.43678e-05
3.13423e-05
6.57146e-05
2.86057e-05
3.0471e-05
2.91435e-05
2.98017e-05
2.94088e-05
3.00704e-05
2.86756e-05
3.06479e-05
6.70723e-05
6.60883e-05
3.00958e-05
2.83428e-05
2.9378e-05
2.81934e-05
2.92822e-05
2.8595e-05
2.96735e-05
2.75626e-05
3.06476e-05
6.70718e-05
6.60882e-05
3.00953e-05
2.83426e-05
2.93775e-05
2.92821e-05
2.8193e-05
2.96734e-05
2.85949e-05
2.75624e-05
3.0764e-05
6.43653e-05
3.13445e-05
6.57129e-05
2.86057e-05
3.04711e-05
2.91437e-05
2.9802e-05
2.94091e-05
3.00705e-05
2.86764e-05
3.07636e-05
6.43668e-05
3.13441e-05
6.5713e-05
2.83433e-05
2.93782e-05
2.81928e-05
2.92823e-05
2.85947e-05
2.96735e-05
2.75624e-05
3.06499e-05
6.70709e-05
6.60861e-05
3.00938e-05
2.83431e-05
2.93778e-05
2.92822e-05
2.81935e-05
2.96734e-05
2.85952e-05
2.75621e-05
3.06495e-05
6.70707e-05
6.6087e-05
3.00934e-05
2.99413e-05
2.99423e-05
2.93495e-05
3.00347e-05
3.00358e-05
8.46326e-05
8.38902e-05
8.26002e-05
8.35721e-05
2.90412e-05
3.03206e-05
3.03219e-05
3.01089e-05
3.01087e-05
8.25989e-05
8.35728e-05
2.86061e-05
3.04711e-05
2.91433e-05
2.98021e-05
2.9409e-05
3.00705e-05
2.86761e-05
3.07648e-05
6.4367e-05
3.13423e-05
6.57133e-05
3.07652e-05
6.43674e-05
3.13427e-05
6.5714e-05
2.83427e-05
2.93781e-05
2.92822e-05
2.81936e-05
2.96734e-05
2.85953e-05
2.75625e-05
2.83428e-05
2.9378e-05
2.92822e-05
2.81933e-05
2.96734e-05
2.8595e-05
2.75627e-05
3.06475e-05
6.70711e-05
6.60874e-05
3.00955e-05
3.06479e-05
6.70721e-05
6.6088e-05
3.00958e-05
8.46328e-05
8.38904e-05
8.46331e-05
8.38903e-05
2.90412e-05
3.03215e-05
3.03207e-05
3.01084e-05
3.01074e-05
8.25991e-05
8.35729e-05
8.25986e-05
8.35728e-05
8.22369e-05
8.11964e-05
8.22357e-05
8.11969e-05
3.04494e-05
3.04491e-05
2.75324e-05
3.07703e-05
3.07678e-05
7.98183e-05
8.08254e-05
7.98185e-05
8.08236e-05
2.72391e-05
3.13693e-05
3.1367e-05
3.09465e-05
3.09476e-05
2.95132e-05
6.73298e-05
3.00013e-05
6.80252e-05
2.65703e-05
2.81246e-05
2.88997e-05
2.81519e-05
2.73132e-05
2.77835e-05
2.85267e-05
2.65704e-05
2.81246e-05
2.88997e-05
2.81517e-05
2.73134e-05
2.77839e-05
2.85267e-05
2.94136e-05
6.86401e-05
6.8195e-05
2.90378e-05
2.94138e-05
6.86419e-05
6.81963e-05
2.90384e-05
2.63262e-05
2.77615e-05
2.74502e-05
2.77948e-05
2.77276e-05
2.81601e-05
2.56406e-05
2.63264e-05
2.77612e-05
2.74503e-05
2.77948e-05
2.7728e-05
2.816e-05
2.56408e-05
3.04494e-05
3.04484e-05
2.75326e-05
3.0769e-05
3.07675e-05
8.2236e-05
8.1197e-05
7.98172e-05
8.08247e-05
2.72392e-05
3.13685e-05
3.13627e-05
3.09468e-05
3.095e-05
7.98189e-05
8.08242e-05
2.65701e-05
2.81244e-05
2.88997e-05
2.81522e-05
2.73133e-05
2.77835e-05
2.85267e-05
2.95113e-05
6.73313e-05
3.00025e-05
6.80262e-05
2.65699e-05
2.88996e-05
2.81244e-05
2.81516e-05
2.73131e-05
2.85266e-05
2.77828e-05
2.94107e-05
6.86438e-05
6.81978e-05
2.90436e-05
2.63258e-05
2.77618e-05
2.745e-05
2.77948e-05
2.77277e-05
2.81601e-05
2.56412e-05
2.94105e-05
6.86428e-05
6.81967e-05
2.9043e-05
2.63256e-05
2.77611e-05
2.77947e-05
2.74497e-05
2.81599e-05
2.77275e-05
2.56409e-05
2.95131e-05
6.73297e-05
3.00013e-05
6.80259e-05
2.65701e-05
2.88997e-05
2.81244e-05
2.81519e-05
2.73132e-05
2.85267e-05
2.77836e-05
2.95127e-05
6.73302e-05
3.00008e-05
6.80252e-05
2.63264e-05
2.7762e-05
2.74493e-05
2.77949e-05
2.77273e-05
2.81601e-05
2.56407e-05
2.94136e-05
6.86426e-05
6.81961e-05
2.90383e-05
2.63262e-05
2.77614e-05
2.77948e-05
2.74499e-05
2.81601e-05
2.77276e-05
2.56405e-05
2.94133e-05
6.86414e-05
6.81961e-05
2.90379e-05
3.04495e-05
3.04502e-05
2.75323e-05
3.07691e-05
3.07703e-05
8.22372e-05
8.1196e-05
7.98186e-05
8.08241e-05
2.7239e-05
3.13666e-05
3.13694e-05
3.09499e-05
3.09474e-05
7.9818e-05
8.08254e-05
2.65702e-05
2.88997e-05
2.81242e-05
2.81521e-05
2.73133e-05
2.85267e-05
2.77835e-05
2.95112e-05
6.73305e-05
3.00027e-05
6.80256e-05
2.95115e-05
6.73315e-05
3.0003e-05
6.80269e-05
2.63257e-05
2.77619e-05
2.77948e-05
2.745e-05
2.81601e-05
2.77277e-05
2.56411e-05
2.63259e-05
2.77617e-05
2.77948e-05
2.74499e-05
2.816e-05
2.77276e-05
2.56413e-05
2.94104e-05
6.86418e-05
6.81965e-05
2.90433e-05
2.94107e-05
6.86434e-05
6.81979e-05
2.90436e-05
8.22373e-05
8.11961e-05
8.22368e-05
8.11954e-05
2.7239e-05
3.1369e-05
3.13687e-05
3.09473e-05
3.0947e-05
7.98181e-05
8.08254e-05
7.98171e-05
8.08247e-05
7.94659e-05
7.8499e-05
7.94637e-05
7.84988e-05
3.158e-05
3.15808e-05
2.58491e-05
3.21146e-05
3.2114e-05
7.73488e-05
7.81802e-05
7.73483e-05
7.81778e-05
2.55746e-05
3.29401e-05
3.29395e-05
3.23394e-05
3.23417e-05
2.85853e-05
6.87533e-05
2.89677e-05
6.90388e-05
2.47466e-05
2.74083e-05
2.74286e-05
2.66042e-05
2.54129e-05
2.71951e-05
2.70651e-05
2.47469e-05
2.74085e-05
2.74286e-05
2.6604e-05
2.5413e-05
2.71956e-05
2.7065e-05
2.85363e-05
6.92224e-05
6.90764e-05
2.83113e-05
2.85367e-05
6.92245e-05
6.90783e-05
2.83115e-05
2.45381e-05
2.62311e-05
2.70129e-05
2.63736e-05
2.71643e-05
2.67113e-05
2.39326e-05
2.45383e-05
2.62309e-05
2.70133e-05
2.63735e-05
2.71647e-05
2.67113e-05
2.39327e-05
3.15795e-05
3.15835e-05
2.58493e-05
3.21152e-05
3.21078e-05
7.94644e-05
7.84994e-05
7.73476e-05
7.81789e-05
2.55747e-05
3.294e-05
3.29313e-05
3.23407e-05
3.23448e-05
7.73489e-05
7.81786e-05
2.47471e-05
2.74083e-05
2.74286e-05
2.66046e-05
2.54123e-05
2.71952e-05
2.7065e-05
2.85867e-05
6.87535e-05
2.89682e-05
6.9039e-05
2.47469e-05
2.74285e-05
2.74083e-05
2.66038e-05
2.54122e-05
2.70649e-05
2.71946e-05
2.85391e-05
6.9226e-05
6.90794e-05
2.83103e-05
2.45385e-05
2.62315e-05
2.70129e-05
2.63735e-05
2.71644e-05
2.67113e-05
2.39324e-05
2.85387e-05
6.92242e-05
6.90781e-05
2.83102e-05
2.45383e-05
2.62307e-05
2.63734e-05
2.70122e-05
2.67111e-05
2.71645e-05
2.39322e-05
2.85852e-05
6.87534e-05
2.89676e-05
6.90393e-05
2.47466e-05
2.74286e-05
2.74081e-05
2.66042e-05
2.54128e-05
2.7065e-05
2.7195e-05
2.85849e-05
6.87528e-05
2.89672e-05
6.90378e-05
2.45382e-05
2.62317e-05
2.70116e-05
2.63737e-05
2.71639e-05
2.67114e-05
2.39327e-05
2.85366e-05
6.92249e-05
6.90783e-05
2.83113e-05
2.45381e-05
2.6231e-05
2.63736e-05
2.70127e-05
2.67113e-05
2.71641e-05
2.39325e-05
2.85363e-05
6.92233e-05
6.90772e-05
2.8311e-05
3.15838e-05
3.15799e-05
2.5849e-05
3.21125e-05
3.21158e-05
7.94657e-05
7.84986e-05
7.73486e-05
7.81783e-05
2.55744e-05
3.29358e-05
3.29406e-05
3.23455e-05
3.23407e-05
7.73484e-05
7.81798e-05
2.47473e-05
2.74286e-05
2.74081e-05
2.66045e-05
2.54123e-05
2.7065e-05
2.71951e-05
2.85869e-05
6.87533e-05
2.89682e-05
6.90383e-05
2.85871e-05
6.87548e-05
2.89685e-05
6.90401e-05
2.45384e-05
2.62316e-05
2.63736e-05
2.70128e-05
2.67113e-05
2.71642e-05
2.39323e-05
2.45386e-05
2.62314e-05
2.63735e-05
2.70129e-05
2.67113e-05
2.71643e-05
2.39325e-05
2.85389e-05
6.92238e-05
6.90777e-05
2.83101e-05
2.85392e-05
6.92257e-05
6.90795e-05
2.83103e-05
7.94657e-05
7.84987e-05
7.94647e-05
7.84975e-05
2.55744e-05
3.29399e-05
3.29408e-05
3.23407e-05
3.23411e-05
7.73484e-05
7.81798e-05
7.73471e-05
7.81787e-05
7.7056e-05
7.62418e-05
7.70536e-05
7.62409e-05
3.3209e-05
3.32114e-05
2.43316e-05
3.39191e-05
3.39198e-05
7.53928e-05
7.59782e-05
7.53916e-05
7.5976e-05
2.40907e-05
3.47974e-05
3.47995e-05
3.41671e-05
3.41703e-05
2.80005e-05
6.92751e-05
2.82689e-05
6.93267e-05
2.31638e-05
2.69982e-05
2.6052e-05
2.52089e-05
2.37402e-05
2.69121e-05
2.5739e-05
2.31639e-05
2.69987e-05
2.60519e-05
2.52086e-05
2.37403e-05
2.69127e-05
2.57389e-05
2.79555e-05
6.92611e-05
6.93135e-05
2.79317e-05
2.79556e-05
6.92632e-05
6.93157e-05
2.79318e-05
2.29798e-05
2.48808e-05
2.68862e-05
2.50871e-05
2.69066e-05
2.54216e-05
2.25083e-05
2.29799e-05
2.48805e-05
2.68869e-05
2.5087e-05
2.69072e-05
2.54215e-05
2.25084e-05
3.321e-05
3.32087e-05
2.43317e-05
3.39207e-05
3.39169e-05
7.70544e-05
7.62418e-05
7.53915e-05
7.59768e-05
2.40909e-05
3.47999e-05
3.47963e-05
3.41696e-05
3.417e-05
7.53925e-05
7.59769e-05
2.31636e-05
2.69984e-05
2.6052e-05
2.52093e-05
2.37396e-05
2.69124e-05
2.57389e-05
2.80007e-05
6.92747e-05
2.82661e-05
6.93258e-05
2.31635e-05
2.60518e-05
2.69981e-05
2.52083e-05
2.37394e-05
2.57388e-05
2.6912e-05
2.79549e-05
6.92641e-05
6.9317e-05
2.79328e-05
2.29795e-05
2.48812e-05
2.68864e-05
2.5087e-05
2.6907e-05
2.54215e-05
2.25086e-05
2.79548e-05
6.92619e-05
6.9315e-05
2.79327e-05
2.29794e-05
2.48803e-05
2.50868e-05
2.68864e-05
2.54213e-05
2.69072e-05
2.25084e-05
2.80004e-05
6.92752e-05
2.82687e-05
6.93268e-05
2.31636e-05
2.6052e-05
2.69981e-05
2.52088e-05
2.374e-05
2.5739e-05
2.69119e-05
2.80001e-05
6.92738e-05
2.82685e-05
6.93251e-05
2.29799e-05
2.48815e-05
2.68853e-05
2.50872e-05
2.69063e-05
2.54216e-05
2.25083e-05
2.79555e-05
6.9263e-05
6.93161e-05
2.79316e-05
2.29797e-05
2.48807e-05
2.5087e-05
2.6886e-05
2.54215e-05
2.69064e-05
2.25082e-05
2.79552e-05
6.92613e-05
6.93141e-05
2.79314e-05
3.32111e-05
3.321e-05
2.43314e-05
3.39209e-05
3.39203e-05
7.70556e-05
7.62414e-05
7.53923e-05
7.59765e-05
2.40905e-05
3.48002e-05
3.47989e-05
3.41727e-05
3.41688e-05
7.53924e-05
7.59779e-05
2.31637e-05