/*--------------------------------*- C++ -*----------------------------------*\
| =========                 |                                                 |
| \\      /  F ield         | OpenFOAM: The Open Source CFD Toolbox           |
|  \\    /   O peration     | Version:  2206                                  |
|   \\  /    A nd           | Website:  www.openfoam.com                      |
|    \\/     M anipulation  |                                                 |
\*---------------------------------------------------------------------------*/
FoamFile
{
    version     2.0;
    format      ascii;
    arch        "LSB;label=32;scalar=64";
    class       volScalarField;
    location    "40";
    object      nut;
}
// * * * * * * * * * * * * * * * * * * * * * * * * * * * * * * * * * * * * * //

dimensions      [0 2 -1 0 0 0 0];

internalField   nonuniform List<scalar> 
28381
(
0.000176299
0.000176279
0.000196868
0.00019688
0.000196864
0.000176277
0.000196875
0.000196869
0.000196878
0.000220198
0.000220195
0.0002202
5.89098e-05
5.89115e-05
5.72594e-06
5.72561e-06
5.87365e-05
5.87375e-05
1.5823e-05
8.27448e-05
8.2746e-05
8.66973e-05
0.000210353
0.000135275
0.000210343
0.000135275
1.58212e-05
8.27425e-05
8.6696e-05
0.000210359
0.000135272
1.58206e-05
8.27421e-05
0.000210355
8.66914e-05
0.000135271
5.72534e-06
5.8734e-05
5.87357e-05
5.7256e-06
0.000210346
8.66974e-05
0.000135264
1.58215e-05
8.27444e-05
8.7228e-05
1.58068e-05
8.7228e-05
1.58065e-05
5.72744e-06
5.72753e-06
8.54219e-05
0.000116926
1.50991e-05
5.87348e-05
8.56384e-05
0.000116822
1.50959e-05
8.53942e-05
0.000116916
1.50935e-05
5.87372e-05
8.56102e-05
0.000116812
1.50902e-05
5.40151e-05
4.81836e-06
4.81723e-06
5.4042e-05
4.81763e-06
4.81657e-06
5.7279e-06
5.7276e-06
8.56387e-05
0.000116824
5.89119e-05
1.50962e-05
1.50995e-05
0.000116927
8.5422e-05
8.56104e-05
0.000116812
5.89123e-05
1.50897e-05
1.50931e-05
0.000116916
8.53942e-05
5.40416e-05
4.81771e-06
4.81649e-06
4.81842e-06
4.81714e-06
5.40151e-05
4.6688e-06
1.58084e-05
5.51446e-05
4.66954e-06
5.54667e-05
9.90106e-06
8.27596e-05
1.14331e-05
7.62657e-05
9.88732e-06
1.14506e-05
7.6335e-05
4.669e-06
5.5153e-05
5.5473e-05
4.66974e-06
9.90159e-06
8.27605e-05
1.14332e-05
7.627e-05
1.14506e-05
7.63381e-05
9.8879e-06
4.66904e-06
1.58067e-05
5.51503e-05
4.66973e-06
5.54716e-05
9.90137e-06
8.27576e-05
7.62668e-05
1.14327e-05
9.88763e-06
7.63361e-05
1.14502e-05
4.66868e-06
1.5806e-05
5.51418e-05
5.54637e-05
4.66941e-06
9.90074e-06
8.27572e-05
1.14328e-05
7.62629e-05
1.14503e-05
7.63323e-05
9.887e-06
5.7273e-06
8.56095e-05
0.000116809
5.89086e-05
1.50897e-05
0.000116913
1.50931e-05
8.53933e-05
8.56388e-05
0.000116823
5.89114e-05
1.50962e-05
1.50995e-05
0.000116927
8.54221e-05
5.40417e-05
4.81645e-06
4.81756e-06
4.81708e-06
4.81829e-06
5.40152e-05
5.72758e-06
4.66899e-06
1.58069e-05
5.51441e-05
5.54658e-05
4.66972e-06
9.90126e-06
8.27584e-05
7.62665e-05
1.14333e-05
7.63353e-05
1.14506e-05
9.88758e-06
1.58215e-05
4.66984e-06
5.54711e-05
1.5821e-05
4.66913e-06
5.51503e-05
5.72551e-06
5.72559e-06
0.000127264
0.000155334
0.000155318
0.000176278
0.000127371
0.000155286
0.000155271
0.000127372
0.000176296
0.000155287
0.000155271
0.000155332
0.000155317
0.000127264
0.000127372
0.000176294
0.000155269
0.000155286
0.000155315
0.000155331
0.000127264
0.000227378
0.000227391
0.000231798
0.000227387
0.000227381
0.000231798
0.000154121
0.000137877
8.72302e-05
0.000113475
0.000138017
0.000113636
0.000154057
0.000165992
0.000135303
0.000128775
0.000170983
0.000128829
0.000170994
0.000165964
0.000154106
0.000113475
0.000113634
0.000154039
0.000165987
0.000135303
0.000128776
0.000170981
0.000128829
0.000170992
0.000165959
0.000154122
0.000137872
8.72288e-05
0.000113477
0.000138012
0.000113638
0.000154057
0.000165993
0.000135301
0.000128775
0.000170983
0.000128829
0.000170994
0.000165964
0.000154114
0.000137866
8.7224e-05
0.00011347
0.000113631
0.000138006
0.000154049
0.000165989
0.000135299
0.00017098
0.00012877
0.000170992
0.000128825
0.00016596
0.000154121
0.000137878
8.72305e-05
0.000113475
0.000154057
0.000138018
0.000113636
0.000165987
0.000135293
0.000170961
0.000128772
0.000165957
0.000170976
0.000128826
0.000138017
8.66955e-05
0.000137876
0.000154057
0.000138013
0.000113638
8.66956e-05
0.000137872
0.000154118
0.000113477
0.000196888
0.000176311
0.00022022
0.000196893
0.000196887
0.000176311
0.00022022
0.000196893
0.000196886
0.000176309
0.00022022
0.000196893
0.000196886
0.000176309
0.00022022
0.000196893
0.000196886
0.000176309
0.00022022
0.000196893
0.000196886
0.000176309
0.00022022
0.000196893
0.000196886
0.000176309
0.00022022
0.000196893
0.000196886
0.000176309
0.00022022
0.000196893
0.000196886
0.000176309
0.00022022
0.000196893
0.000196886
0.000176309
0.00022022
0.000196893
0.000196886
0.000176309
0.00022022
0.000196893
0.000196886
0.000176309
0.00022022
0.000196893
0.000196886
0.000176309
0.00022022
0.000196893
0.000196886
0.000176309
0.00022022
0.000196893
0.000196886
0.000176309
0.00022022
0.000196893
0.000196886
0.000176309
0.000220206
0.000196887
0.00019688
0.000176306
0.000176309
0.000176282
0.000196883
0.000196888
0.000196879
0.000176284
0.000176311
0.000176284
0.000196879
0.00019688
0.000196879
0.00019688
0.000176313
0.000176287
0.000196889
0.000196873
0.000196889
0.000196873
0.000196881
0.000196893
0.000196878
0.000176308
0.000176281
0.000196882
0.000196886
0.000196887
0.000176282
0.00017631
0.000176284
0.000196879
0.00019688
0.000196879
0.00019688
0.000176313
0.000176287
0.000196889
0.000196872
0.000196889
0.000196873
0.000196877
0.000196893
0.000196877
0.000176307
0.000176281
0.000196887
0.000196886
0.000196887
0.000176282
0.00017631
0.000176284
0.000196879
0.00019688
0.000196879
0.00019688
0.000176313
0.000176287
0.000196889
0.000196872
0.000196889
0.000196872
0.000196877
0.000196893
0.000196877
0.000176307
0.000176281
0.000196887
0.000196886
0.000196887
0.000176282
0.00017631
0.000176284
0.000196879
0.00019688
0.000196879
0.00019688
0.000176313
0.000176287
0.000196889
0.000196872
0.000196889
0.000196873
0.000196877
0.000196893
0.000196877
0.000176307
0.000176281
0.000196887
0.000196886
0.000196887
0.000176282
0.00017631
0.000176284
0.000196879
0.00019688
0.000196879
0.00019688
0.000176313
0.000176287
0.000196889
0.000196872
0.000196889
0.000196873
0.000196877
0.000196893
0.000196877
0.000176307
0.000176281
0.000196887
0.000196886
0.000196887
0.000176282
0.00017631
0.000176284
0.000196879
0.00019688
0.000196879
0.00019688
0.000176313
0.000176287
0.000196889
0.000196872
0.000196889
0.000196873
0.000196877
0.000196893
0.000196877
0.000176307
0.000176281
0.000196887
0.000196886
0.000196887
0.000176282
0.00017631
0.000176284
0.000196879
0.00019688
0.000196879
0.00019688
0.000176313
0.000176287
0.000196889
0.000196872
0.000196889
0.000196873
0.000196877
0.000196893
0.000196877
0.000176307
0.000176281
0.000196887
0.000196886
0.000196887
0.000176282
0.00017631
0.000176284
0.000196879
0.00019688
0.000196879
0.00019688
0.000176313
0.000176287
0.000196889
0.000196872
0.000196889
0.000196873
0.000196877
0.000196893
0.000196877
0.000176307
0.000176281
0.000196887
0.000196886
0.000196887
0.000176282
0.00017631
0.000176284
0.000196879
0.00019688
0.000196879
0.00019688
0.000176313
0.000176287
0.000196889
0.000196872
0.000196889
0.000196873
0.000196877
0.000196893
0.000196877
0.000176307
0.000176281
0.000196887
0.000196886
0.000196887
0.000176282
0.00017631
0.000176284
0.000196879
0.00019688
0.000196879
0.00019688
0.000176313
0.000176287
0.000196889
0.000196873
0.000196889
0.000196873
0.000196877
0.000196893
0.000196877
0.000176307
0.000176281
0.000196887
0.000196886
0.000196887
0.000176282
0.00017631
0.000176284
0.000196879
0.00019688
0.000196879
0.00019688
0.000176313
0.000176287
0.000196889
0.000196872
0.000196889
0.000196873
0.000196877
0.000196893
0.000196877
0.000176307
0.000176281
0.000196887
0.000196886
0.000196887
0.000176282
0.00017631
0.000176284
0.000196879
0.00019688
0.000196879
0.00019688
0.000176313
0.000176287
0.000196889
0.000196872
0.000196889
0.000196873
0.000196877
0.000196893
0.000196877
0.000176307
0.000176281
0.000196887
0.000196886
0.000196887
0.000176282
0.00017631
0.000176284
0.000196879
0.00019688
0.000196879
0.00019688
0.000176313
0.000176287
0.000196889
0.000196872
0.000196889
0.000196873
0.000196877
0.000196893
0.000196877
0.000176307
0.000176281
0.000196887
0.000196886
0.000196887
0.000176282
0.00017631
0.000176284
0.000196879
0.00019688
0.000196879
0.00019688
0.000176313
0.000176288
0.000196889
0.000196873
0.000196889
0.000196873
0.000196877
0.000196893
0.000196877
0.000176307
0.000176281
0.000196887
0.000196886
0.000196887
0.000176282
0.00017631
0.000176286
0.000196879
0.00019688
0.000196882
0.000196878
0.000176314
0.000176288
0.000196889
0.000196872
0.000196883
0.000196872
0.000196877
0.000196891
0.000196876
0.000176307
0.000176282
0.000196887
0.000196885
0.000196886
0.000176282
0.000196873
0.000176311
0.000196875
0.000196867
0.00019687
0.000176305
0.00019688
5.72701e-06
5.72513e-06
0.000135272
0.000210372
8.72262e-05
0.000196888
8.66941e-05
0.000135305
0.000210372
5.8906e-05
5.8909e-05
0.000176284
5.87339e-05
5.87322e-05
8.2741e-05
1.58076e-05
1.58225e-05
8.27552e-05
5.72757e-06
5.7257e-06
8.27392e-05
1.5806e-05
1.58208e-05
8.27533e-05
0.000220221
0.000220217
0.000220218
0.000220219
0.000220221
0.000220216
0.000220218
0.000135275
8.72292e-05
0.000210377
0.000196893
8.66969e-05
0.000210377
0.000135308
5.72701e-06
5.72514e-06
0.000135271
0.000210372
8.72262e-05
0.000196887
0.000135305
0.000210372
8.66936e-05
5.89066e-05
5.89081e-05
0.000176283
5.87322e-05
5.87338e-05
8.2741e-05
1.58076e-05
8.27552e-05
1.58225e-05
5.72752e-06
5.72564e-06
8.2739e-05
1.58059e-05
8.27533e-05
1.58207e-05
0.000220221
0.000220216
0.000220218
0.000220219
0.000220221
0.000220216
0.000220218
0.000135275
8.72294e-05
0.000210377
0.000196893
0.000135308
8.6697e-05
0.000210377
5.72702e-06
5.72514e-06
0.000135271
0.000210372
8.7226e-05
0.000196886
0.000135304
0.000210372
8.66937e-05
5.89065e-05
5.8908e-05
0.000176283
5.87321e-05
5.87342e-05
8.2741e-05
1.58076e-05
8.27552e-05
1.58225e-05
5.72751e-06
5.72564e-06
8.2739e-05
1.58059e-05
8.27532e-05
1.58207e-05
0.000220221
0.000220216
0.000220218
0.000220219
0.000220221
0.000220216
0.000220218
0.000135275
8.72294e-05
0.000210377
0.000196893
0.000135308
8.6697e-05
0.000210377
5.72702e-06
5.72514e-06
0.000135271
0.000210372
8.72261e-05
0.000196886
0.000135304
0.000210372
8.66937e-05
5.89065e-05
5.8908e-05
0.000176283
5.87321e-05
5.87342e-05
8.2741e-05
1.58076e-05
8.27552e-05
1.58225e-05
5.72751e-06
5.72572e-06
8.2739e-05
1.58059e-05
8.27532e-05
1.58207e-05
0.000220221
0.000220216
0.000220218
0.000220219
0.000220221
0.000220216
0.000220218
0.000135275
8.72294e-05
0.000210377
0.000196893
0.000135308
8.6697e-05
0.000210377
5.72702e-06
5.72514e-06
0.000135271
0.000210372
8.72261e-05
0.000196886
0.000135304
0.000210372
8.66937e-05
5.89065e-05
5.8908e-05
0.000176283
5.87321e-05
5.87342e-05
8.2741e-05
1.58077e-05
8.27552e-05
1.58226e-05
5.72758e-06
5.72562e-06
8.2739e-05
1.58059e-05
8.27532e-05
1.58207e-05
0.000220221
0.000220216
0.000220218
0.000220219
0.000220221
0.000220216
0.000220218
0.000135275
8.72294e-05
0.000210377
0.000196893
0.000135308
8.6697e-05
0.000210377
5.72702e-06
5.72514e-06
0.000135271
0.000210372
8.72261e-05
0.000196886
0.000135304
0.000210372
8.66936e-05
5.89065e-05
5.89081e-05
0.000176283
5.87321e-05
5.87342e-05
8.27409e-05
1.58076e-05
8.27552e-05
1.58224e-05
5.72752e-06
5.72569e-06
8.2739e-05
1.58059e-05
8.27532e-05
1.58207e-05
0.000220221
0.000220216
0.000220218
0.000220219
0.000220221
0.000220216
0.000220218
0.000135275
8.72294e-05
0.000210377
0.000196893
0.000135308
8.6697e-05
0.000210377
5.72702e-06
5.72514e-06
0.000135271
0.000210372
8.72261e-05
0.000196886
0.000135304
0.000210372
8.66937e-05
5.89065e-05
5.8908e-05
0.000176283
5.87321e-05
5.87342e-05
8.27408e-05
1.58075e-05
8.27551e-05
1.58223e-05
5.7276e-06
5.72578e-06
8.2739e-05
1.5806e-05
8.27533e-05
1.58208e-05
0.000220221
0.000220216
0.000220218
0.00022022
0.000220221
0.000220216
0.000220218
0.000135275
8.72295e-05
0.000210377
0.000196893
0.000135308
8.6697e-05
0.000210377
5.72702e-06
5.72514e-06
0.000135271
0.000210372
8.72261e-05
0.000196886
0.000135304
0.000210372
8.66937e-05
5.89065e-05
5.8908e-05
0.000176283
5.87321e-05
5.87342e-05
8.27408e-05
1.58074e-05
8.2755e-05
1.58223e-05
5.72765e-06
5.72578e-06
8.27391e-05
1.5806e-05
8.27533e-05
1.58208e-05
0.000220221
0.000220216
0.000220218
0.00022022
0.000220221
0.000220216
0.000220218
0.000135275
8.72295e-05
0.000210377
0.000196893
0.000135308
8.6697e-05
0.000210377
5.72702e-06
5.72514e-06
0.000135271
0.000210372
8.72261e-05
0.000196886
0.000135304
0.000210372
8.66937e-05
5.89065e-05
5.8908e-05
0.000176283
5.87321e-05
5.87342e-05
8.27408e-05
1.58074e-05
8.2755e-05
1.58223e-05
5.72765e-06
5.72578e-06
8.27391e-05
1.5806e-05
8.27533e-05
1.58208e-05
0.000220221
0.000220216
0.000220218
0.00022022
0.000220221
0.000220216
0.000220218
0.000135275
8.72295e-05
0.000210377
0.000196893
0.000135308
8.66971e-05
0.000210377
5.72702e-06
5.72514e-06
0.000135271
0.000210372
8.72261e-05
0.000196886
0.000135304
0.000210372
8.66936e-05
5.89065e-05
5.89081e-05
0.000176283
5.87321e-05
5.87342e-05
8.27408e-05
1.58074e-05
8.2755e-05
1.58223e-05
5.72765e-06
5.72578e-06
8.27391e-05
1.5806e-05
8.27533e-05
1.58208e-05
0.000220221
0.000220216
0.000220218
0.00022022
0.000220221
0.000220216
0.000220218
0.000135275
8.72295e-05
0.000210377
0.000196893
0.000135308
8.66971e-05
0.000210377
5.72702e-06
5.72514e-06
0.000135271
0.000210372
8.72261e-05
0.000196886
0.000135304
0.000210372
8.66937e-05
5.89065e-05
5.8908e-05
0.000176282
5.8732e-05
5.87341e-05
8.27408e-05
1.58074e-05
8.2755e-05
1.58223e-05
5.72765e-06
5.72578e-06
8.27391e-05
1.5806e-05
8.27533e-05
1.58208e-05
0.000220221
0.000220216
0.000220218
0.00022022
0.000220221
0.000220216
0.000220218
0.000135275
8.72295e-05
0.000210377
0.000196893
0.000135308
8.66971e-05
0.000210377
5.72702e-06
5.72514e-06
0.000135271
0.000210372
8.72261e-05
0.000196886
0.000135304
0.000210372
8.66937e-05
5.89064e-05
5.8908e-05
0.000176283
5.8732e-05
5.87341e-05
8.27408e-05
1.58074e-05
8.2755e-05
1.58223e-05
5.72765e-06
5.72578e-06
8.27391e-05
1.5806e-05
8.27533e-05
1.58208e-05
0.000220221
0.000220216
0.000220218
0.000220219
0.000220221
0.000220216
0.000220218
0.000135275
8.72295e-05
0.000210377
0.000196893
0.000135308
8.66971e-05
0.000210377
5.72702e-06
5.72514e-06
0.000135271
0.000210372
8.72261e-05
0.000196886
0.000135304
0.000210372
8.66937e-05
5.89065e-05
5.8908e-05
0.000176283
5.87321e-05
5.87341e-05
8.27408e-05
1.58074e-05
8.2755e-05
1.58223e-05
5.72765e-06
5.72578e-06
8.27391e-05
1.5806e-05
8.27533e-05
1.58208e-05
0.000220221
0.000220216
0.000220218
0.000220219
0.000220221
0.000220216
0.000220218
0.000135275
8.72295e-05
0.000210377
0.000196893
0.000135308
8.66971e-05
0.000210377
5.72702e-06
5.72514e-06
0.000135271
0.000210372
8.72261e-05
0.000196886
0.000135304
0.000210372
8.66936e-05
5.89065e-05
5.8908e-05
0.000176283
5.87321e-05
5.87342e-05
8.27408e-05
1.58074e-05
8.2755e-05
1.58223e-05
5.72765e-06
5.72578e-06
8.27391e-05
1.5806e-05
8.27533e-05
1.58208e-05
0.000220221
0.000220216
0.000220218
0.000220219
0.000220221
0.000220216
0.000220218
0.000135275
8.72295e-05
0.000210377
0.000196893
0.000135308
8.66972e-05
0.000210377
5.72702e-06
5.72514e-06
0.000135271
0.000210372
8.72261e-05
0.000196886
0.000135304
0.000210372
8.66937e-05
5.89065e-05
5.8908e-05
0.000176283
5.8732e-05
5.87342e-05
8.27408e-05
1.58074e-05
8.2755e-05
1.58223e-05
5.72766e-06
5.72578e-06
8.2739e-05
1.5806e-05
8.27533e-05
1.58207e-05
0.000220221
0.000220216
0.000220218
0.000220214
0.000220215
0.000220211
0.000220212
0.000135275
8.72295e-05
0.000210377
0.000196893
0.000135308
8.66971e-05
0.000210377
5.72702e-06
5.72514e-06
0.000135271
0.000210372
8.72261e-05
0.000196886
0.000135304
0.000210372
8.66937e-05
5.89065e-05
5.8908e-05
0.000176283
5.87321e-05
5.87341e-05
5.72788e-06
1.58062e-05
8.27574e-05
0.000220206
0.000220202
0.000220203
8.72335e-05
0.000210364
0.00013531
5.72726e-06
0.000210359
8.72303e-05
0.000135306
5.89102e-05
5.89119e-05
5.89047e-05
5.89074e-05
0.000176283
5.87326e-05
5.87309e-05
5.72727e-06
5.72539e-06
5.72513e-06
5.72701e-06
0.000176308
5.87311e-05
5.87324e-05
5.89075e-05
5.89047e-05
5.72539e-06
5.72728e-06
0.000135273
0.000210372
8.72246e-05
0.000196883
8.66931e-05
0.000135305
0.000210372
8.27396e-05
1.5806e-05
1.58209e-05
8.27531e-05
8.27402e-05
1.58057e-05
1.58208e-05
8.27537e-05
0.000135305
0.000196888
0.000210373
8.66939e-05
8.72266e-05
0.000135272
0.000210372
0.000135306
0.00019688
0.000210373
8.66922e-05
8.72248e-05
0.000135273
0.000210373
8.27538e-05
1.58209e-05
1.5806e-05
8.27395e-05
8.27544e-05
1.58205e-05
1.58059e-05
8.27401e-05
5.72718e-06
5.72535e-06
5.72727e-06
5.72534e-06
0.00017631
5.87319e-05
5.87346e-05
5.89074e-05
5.89073e-05
5.72532e-06
5.72725e-06
5.7254e-06
5.72721e-06
5.72761e-06
5.72574e-06
5.72731e-06
5.72541e-06
5.8908e-05
5.89083e-05
0.000176284
5.87334e-05
5.87344e-05
5.72574e-06
5.72761e-06
5.72541e-06
5.72731e-06
0.00017631
5.87334e-05
5.87343e-05
5.89079e-05
5.89083e-05
8.27416e-05
1.58071e-05
1.58219e-05
8.27558e-05
0.000135274
8.72262e-05
0.000210376
0.000196879
8.66939e-05
0.000210376
0.000135307
0.000135275
8.72248e-05
0.000210376
0.000196879
8.66929e-05
0.000210376
0.000135308
8.27551e-05
1.58225e-05
1.58076e-05
8.2741e-05
8.27557e-05
1.58219e-05
1.58071e-05
8.27416e-05
0.000135307
0.000196879
8.6694e-05
0.000210376
8.72261e-05
0.000210375
0.000135274
0.000135308
0.000196879
8.66927e-05
0.000210376
8.72249e-05
0.000210376
0.000135275
5.89092e-05
5.89099e-05
0.000176287
5.87355e-05
5.8735e-05
5.72754e-06
5.72565e-06
5.72564e-06
5.72757e-06
0.000176313
5.87356e-05
5.8735e-05
5.89091e-05
5.89098e-05
5.7257e-06
5.72759e-06
0.000135271
8.72246e-05
0.000210374
0.000196889
8.66924e-05
0.000210374
0.000135305
8.27386e-05
1.58052e-05
1.58201e-05
8.27526e-05
0.00013527
0.000210371
8.72201e-05
0.000196873
0.000210371
8.6688e-05
0.000135303
8.27534e-05
1.58206e-05
1.5806e-05
8.27391e-05
0.000135305
0.000196889
8.66924e-05
0.000210374
8.72246e-05
0.000210374
0.000135271
8.27528e-05
1.58201e-05
1.58052e-05
8.27387e-05
0.000135303
0.000196872
0.000210371
8.66878e-05
0.00021037
8.72201e-05
0.00013527
8.27411e-05
1.58069e-05
1.58217e-05
8.2755e-05
0.000135274
0.000210374
8.7225e-05
0.000196878
0.000210374
8.66928e-05
0.000135306
8.27405e-05
1.58061e-05
1.5821e-05
8.27543e-05
0.000135308
0.000196893
8.6697e-05
0.000210377
8.72294e-05
0.000210377
0.000135275
8.27553e-05
1.58217e-05
1.58069e-05
8.27413e-05
0.000135307
0.000196877
0.000210374
8.66927e-05
0.000210374
8.7225e-05
0.000135274
8.27548e-05
1.5821e-05
1.58061e-05
8.27408e-05
5.89048e-05
5.89074e-05
0.000176281
5.8731e-05
5.87324e-05
5.72727e-06
5.72539e-06
5.72514e-06
5.72702e-06
0.000176307
5.87307e-05
5.87325e-05
5.89047e-05
5.89074e-05
5.72539e-06
5.72727e-06
0.000135272
0.000210372
8.72241e-05
0.000196886
0.000135306
0.000210372
8.66919e-05
8.27391e-05
1.5806e-05
8.27536e-05
1.58209e-05
8.27397e-05
1.58057e-05
8.27542e-05
1.58205e-05
0.000135304
0.000196886
0.000210372
8.66935e-05
0.000210372
8.7226e-05
0.000135271
0.000135305
0.000196887
0.000210372
8.66919e-05
0.000210372
8.72241e-05
0.000135272
8.27531e-05
1.58209e-05
1.5806e-05
8.27389e-05
8.27537e-05
1.58205e-05
1.58057e-05
8.27395e-05
5.72719e-06
5.72533e-06
5.72727e-06
5.72538e-06
0.000176309
5.87322e-05
5.87341e-05
5.89066e-05
5.89079e-05
5.72533e-06
5.7272e-06
5.72539e-06
5.72727e-06
5.72761e-06
5.72574e-06
5.72731e-06
5.72541e-06
5.8908e-05
5.89083e-05
0.000176284
5.87334e-05
5.87343e-05
5.72574e-06
5.72761e-06
5.72541e-06
5.72731e-06
0.00017631
5.87335e-05
5.87343e-05
5.8908e-05
5.89083e-05
8.27416e-05
1.58071e-05
8.27558e-05
1.58219e-05
0.000135274
8.72263e-05
0.000210376
0.000196879
0.000135307
8.6694e-05
0.000210376
0.000135275
8.72249e-05
0.000210376
0.00019688
0.000135308
8.66928e-05
0.000210376
8.27552e-05
1.58225e-05
1.58076e-05
8.27411e-05
8.27557e-05
1.58219e-05
1.58071e-05
8.27417e-05
0.000135307
0.000196879
8.66941e-05
0.000210376
8.72263e-05
0.000210376
0.000135274
0.000135308
0.000196879
8.66927e-05
0.000210376
8.72248e-05
0.000210376
0.000135275
5.89092e-05
5.89098e-05
0.000176287
5.87356e-05
5.8735e-05
5.7276e-06
5.7257e-06
5.72564e-06
5.72751e-06
0.000176313
5.87354e-05
5.8735e-05
5.8909e-05
5.89098e-05
5.7257e-06
5.72759e-06
0.000135271
8.72247e-05
0.000210374
0.000196889
0.000135304
8.66925e-05
0.000210374
8.27386e-05
1.58052e-05
8.27528e-05
1.58201e-05
0.00013527
0.00021037
8.72199e-05
0.000196872
0.000135303
0.00021037
8.66878e-05
8.27532e-05
1.58206e-05
1.58059e-05
8.2739e-05
0.000135304
0.000196889
8.66924e-05
0.000210374
8.72247e-05
0.000210373
0.000135271
8.27527e-05
1.582e-05
1.58052e-05
8.27386e-05
0.000135303
0.000196872
0.00021037
8.66877e-05
0.00021037
8.72199e-05
0.000135269
8.27412e-05
1.58069e-05
8.27554e-05
1.58218e-05
0.000135274
0.000210374
8.72249e-05
0.000196877
0.000135307
0.000210374
8.66926e-05
8.27407e-05
1.58061e-05
8.27549e-05
1.5821e-05
0.000135308
0.000196893
8.6697e-05
0.000210377
8.72294e-05
0.000210377
0.000135275
8.27554e-05
1.58217e-05
1.58069e-05
8.27412e-05
0.000135307
0.000196877
0.000210374
8.66926e-05
0.000210374
8.72248e-05
0.000135274
8.27549e-05
1.5821e-05
1.58061e-05
8.27408e-05
5.89045e-05
5.89074e-05
0.000176281
5.87307e-05
5.87325e-05
5.72727e-06
5.72539e-06
5.72514e-06
5.72702e-06
0.000176307
5.87307e-05
5.87325e-05
5.89045e-05
5.89074e-05
5.72538e-06
5.72727e-06
0.000135272
0.000210372
8.72242e-05
0.000196887
0.000135305
0.000210372
8.66921e-05
8.27389e-05
1.5806e-05
8.27531e-05
1.58209e-05
8.27395e-05
1.58057e-05
8.27537e-05
1.58205e-05
0.000135304
0.000196885
0.000210372
8.66936e-05
0.000210371
8.72261e-05
0.000135271
0.000135305
0.000196887
0.000210372
8.66921e-05
0.000210372
8.72242e-05
0.000135272
8.2753e-05
1.58209e-05
1.5806e-05
8.27389e-05
8.27536e-05
1.58205e-05
1.58057e-05
8.27395e-05
5.72719e-06
5.72533e-06
5.72727e-06
5.72539e-06
0.000176308
5.87321e-05
5.87342e-05
5.89065e-05
5.89081e-05
5.72533e-06
5.72719e-06
5.72539e-06
5.72728e-06
5.72761e-06
5.72574e-06
5.72731e-06
5.72541e-06
5.89082e-05
5.89083e-05
0.000176284
5.87336e-05
5.87343e-05
5.72574e-06
5.72761e-06
5.72541e-06
5.72731e-06
0.00017631
5.87336e-05
5.87343e-05
5.89082e-05
5.89083e-05
8.27416e-05
1.58071e-05
8.27558e-05
1.58219e-05
0.000135274
8.72264e-05
0.000210376
0.000196879
0.000135307
8.66941e-05
0.000210376
0.000135275
8.72249e-05
0.000210376
0.00019688
0.000135308
8.66928e-05
0.000210376
8.27552e-05
1.58225e-05
1.58076e-05
8.27411e-05
8.27558e-05
1.58219e-05
1.58071e-05
8.27417e-05
0.000135307
0.000196879
8.66941e-05
0.000210376
8.72264e-05
0.000210376
0.000135274
0.000135308
0.000196879
8.66927e-05
0.000210376
8.72248e-05
0.000210376
0.000135275
5.8909e-05
5.89098e-05
0.000176287
5.87354e-05
5.8735e-05
5.72759e-06
5.7257e-06
5.72564e-06
5.72751e-06
0.000176313
5.87354e-05
5.8735e-05
5.8909e-05
5.89097e-05
5.7257e-06
5.72759e-06
0.000135271
8.72247e-05
0.000210373
0.000196889
0.000135304
8.66924e-05
0.000210374
8.27385e-05
1.58052e-05
8.27528e-05
1.58201e-05
0.000135269
0.00021037
8.72199e-05
0.000196872
0.000135303
0.00021037
8.66877e-05
8.27531e-05
1.58207e-05
1.58059e-05
8.2739e-05
0.000135304
0.000196889
8.66924e-05
0.000210374
8.72247e-05
0.000210373
0.000135271
8.27527e-05
1.582e-05
1.58052e-05
8.27386e-05
0.000135303
0.000196872
0.00021037
8.66877e-05
0.00021037
8.72198e-05
0.000135269
8.27412e-05
1.58069e-05
8.27554e-05
1.58217e-05
0.000135274
0.000210374
8.72248e-05
0.000196877
0.000135307
0.000210374
8.66926e-05
8.27407e-05
1.58061e-05
8.27549e-05
1.5821e-05
0.000135308
0.000196893
8.6697e-05
0.000210377
8.72294e-05
0.000210377
0.000135275
8.27553e-05
1.58217e-05
1.58069e-05
8.27412e-05
0.000135307
0.000196877
0.000210374
8.66926e-05
0.000210374
8.72248e-05
0.000135274
8.27549e-05
1.5821e-05
1.58061e-05
8.27408e-05
5.89045e-05
5.89074e-05
0.000176281
5.87307e-05
5.87326e-05
5.72727e-06
5.72539e-06
5.72514e-06
5.72702e-06
0.000176307
5.87307e-05
5.87325e-05
5.89044e-05
5.89074e-05
5.72538e-06
5.72727e-06
0.000135272
0.000210372
8.72242e-05
0.000196887
0.000135305
0.000210372
8.66921e-05
8.27389e-05
1.5806e-05
8.27531e-05
1.58209e-05
8.27395e-05
1.58057e-05
8.27537e-05
1.58205e-05
0.000135304
0.000196886
0.000210372
8.66937e-05
0.000210372
8.72261e-05
0.000135271
0.000135305
0.000196887
0.000210372
8.6692e-05
0.000210372
8.72242e-05
0.000135272
8.27531e-05
1.58209e-05
1.5806e-05
8.27389e-05
8.27537e-05
1.58205e-05
1.58057e-05
8.27395e-05
5.72719e-06
5.72533e-06
5.72727e-06
5.72539e-06
0.000176308
5.87321e-05
5.87342e-05
5.89065e-05
5.89081e-05
5.72533e-06
5.72719e-06
5.72539e-06
5.72727e-06
5.72761e-06
5.72574e-06
5.72731e-06
5.72541e-06
5.89082e-05
5.89083e-05
0.000176284
5.87336e-05
5.87343e-05
5.72574e-06
5.72761e-06
5.72541e-06
5.72731e-06
0.00017631
5.87336e-05
5.87343e-05
5.89082e-05
5.89083e-05
8.27416e-05
1.58071e-05
8.27558e-05
1.5822e-05
0.000135274
8.72265e-05
0.000210376
0.000196879
0.000135307
8.66941e-05
0.000210376
0.000135275
8.72248e-05
0.000210376
0.00019688
0.000135308
8.66927e-05
0.000210376
8.27552e-05
1.58225e-05
1.58076e-05
8.2741e-05
8.27558e-05
1.5822e-05
1.58072e-05
8.27417e-05
0.000135307
0.000196879
8.66941e-05
0.000210376
8.72264e-05
0.000210376
0.000135274
0.000135308
0.000196879
8.66926e-05
0.000210376
8.72248e-05
0.000210376
0.000135275
5.89089e-05
5.89098e-05
0.000176287
5.87352e-05
5.87351e-05
5.72759e-06
5.7257e-06
5.72572e-06
5.7276e-06
0.000176313
5.87355e-05
5.8735e-05
5.89088e-05
5.89098e-05
5.7257e-06
5.72759e-06
0.000135271
8.72247e-05
0.000210373
0.000196889
0.000135304
8.66924e-05
0.000210374
8.27385e-05
1.58052e-05
8.27528e-05
1.58201e-05
0.000135269
0.00021037
8.72199e-05
0.000196872
0.000135303
0.00021037
8.66877e-05
8.27531e-05
1.58206e-05
1.58059e-05
8.2739e-05
0.000135304
0.000196889
8.66924e-05
0.000210374
8.72246e-05
0.000210373
0.000135271
8.27527e-05
1.58201e-05
1.58052e-05
8.27386e-05
0.000135303
0.000196872
0.00021037
8.66877e-05
0.00021037
8.72198e-05
0.000135269
8.27412e-05
1.58069e-05
8.27554e-05
1.58217e-05
0.000135274
0.000210374
8.72248e-05
0.000196877
0.000135307
0.000210374
8.66926e-05
8.27407e-05
1.58061e-05
8.27549e-05
1.5821e-05
0.000135308
0.000196893
8.6697e-05
0.000210377
8.72294e-05
0.000210377
0.000135275
8.27553e-05
1.58217e-05
1.58069e-05
8.27412e-05
0.000135307
0.000196877
0.000210374
8.66926e-05
0.000210374
8.72248e-05
0.000135274
8.27548e-05
1.5821e-05
1.58061e-05
8.27407e-05
5.89045e-05
5.89075e-05
0.000176281
5.87307e-05
5.87326e-05
5.72727e-06
5.72539e-06
5.72514e-06
5.72702e-06
0.000176307
5.87307e-05
5.87325e-05
5.89044e-05
5.89074e-05
5.72538e-06
5.72727e-06
0.000135272
0.000210372
8.72242e-05
0.000196887
0.000135305
0.000210372
8.66921e-05
8.27389e-05
1.5806e-05
8.27531e-05
1.58209e-05
8.27395e-05
1.58057e-05
8.27537e-05
1.58205e-05
0.000135304
0.000196886
0.000210372
8.66937e-05
0.000210372
8.72261e-05
0.000135271
0.000135305
0.000196887
0.000210372
8.66921e-05
0.000210372
8.72242e-05
0.000135272
8.27531e-05
1.58209e-05
1.5806e-05
8.27389e-05
8.27536e-05
1.58205e-05
1.58057e-05
8.27395e-05
5.72719e-06
5.72533e-06
5.72727e-06
5.72539e-06
0.000176308
5.87321e-05
5.87342e-05
5.89065e-05
5.89081e-05
5.72533e-06
5.72719e-06
5.72539e-06
5.72727e-06
5.72761e-06
5.72565e-06
5.72731e-06
5.72541e-06
5.89081e-05
5.89084e-05
0.000176284
5.87335e-05
5.87344e-05
5.72564e-06
5.72751e-06
5.72541e-06
5.72731e-06
0.00017631
5.87331e-05
5.87343e-05
5.89079e-05
5.89083e-05
8.27417e-05
1.58072e-05
8.27558e-05
1.58219e-05
0.000135274
8.72263e-05
0.000210376
0.000196879
0.000135307
8.66939e-05
0.000210376
0.000135275
8.72248e-05
0.000210376
0.000196879
0.000135308
8.66925e-05
0.000210376
8.27551e-05
1.58226e-05
1.58077e-05
8.2741e-05
8.27558e-05
1.5822e-05
1.58071e-05
8.27417e-05
0.000135307
0.000196879
8.66936e-05
0.000210376
8.72261e-05
0.000210376
0.000135274
0.000135308
0.000196879
8.66926e-05
0.000210376
8.72248e-05
0.000210376
0.000135275
5.89093e-05
5.89098e-05
0.000176287
5.87357e-05
5.8735e-05
5.72759e-06
5.7257e-06
5.72565e-06
5.72745e-06
0.000176313
5.87358e-05
5.8735e-05
5.89092e-05
5.89097e-05
5.7257e-06
5.72759e-06
0.000135271
8.72247e-05
0.000210373
0.000196889
0.000135304
8.66925e-05
0.000210374
8.27385e-05
1.58052e-05
8.27528e-05
1.58201e-05
0.00013527
0.00021037
8.72199e-05
0.000196872
0.000135303
0.00021037
8.66878e-05
8.27532e-05
1.58207e-05
1.58059e-05
8.27391e-05
0.000135304
0.000196889
8.66924e-05
0.000210374
8.72247e-05
0.000210373
0.000135271
8.27527e-05
1.58201e-05
1.58052e-05
8.27386e-05
0.000135303
0.000196872
0.00021037
8.66877e-05
0.00021037
8.72199e-05
0.000135269
8.27412e-05
1.58069e-05
8.27554e-05
1.58217e-05
0.000135274
0.000210374
8.72248e-05
0.000196877
0.000135307
0.000210374
8.66926e-05
8.27407e-05
1.58061e-05
8.27549e-05
1.5821e-05
0.000135308
0.000196893
8.6697e-05
0.000210377
8.72294e-05
0.000210377
0.000135275
8.27553e-05
1.58217e-05
1.58069e-05
8.27412e-05
0.000135307
0.000196877
0.000210374
8.66925e-05
0.000210374
8.72248e-05
0.000135274
8.27548e-05
1.5821e-05
1.58061e-05
8.27407e-05
5.89045e-05
5.89074e-05
0.000176281
5.87307e-05
5.87325e-05
5.72727e-06
5.72538e-06
5.72514e-06
5.72702e-06
0.000176307
5.87307e-05
5.87326e-05
5.89045e-05
5.89074e-05
5.72539e-06
5.72727e-06
0.000135272
0.000210372
8.72243e-05
0.000196887
0.000135305
0.000210372
8.66921e-05
8.27389e-05
1.5806e-05
8.27531e-05
1.58209e-05
8.27395e-05
1.58057e-05
8.27537e-05
1.58205e-05
0.000135304
0.000196885
0.000210372
8.66937e-05
0.000210371
8.7226e-05
0.000135271
0.000135305
0.000196887
0.000210372
8.66921e-05
0.000210372
8.72242e-05
0.000135272
8.27531e-05
1.58209e-05
1.5806e-05
8.27389e-05
8.27537e-05
1.58205e-05
1.58057e-05
8.27395e-05
5.72719e-06
5.72533e-06
5.72727e-06
5.72539e-06
0.000176308
5.87321e-05
5.87342e-05
5.89065e-05
5.89081e-05
5.72533e-06
5.72719e-06
5.72539e-06
5.72728e-06
5.72751e-06
5.72574e-06
5.72731e-06
5.72541e-06
5.89078e-05
5.89084e-05
0.000176284
5.87333e-05
5.87344e-05
5.72572e-06
5.72761e-06
5.72541e-06
5.72731e-06
0.00017631
5.87337e-05
5.87344e-05
5.89078e-05