/*--------------------------------*- C++ -*----------------------------------*\
| =========                 |                                                 |
| \\      /  F ield         | OpenFOAM: The Open Source CFD Toolbox           |
|  \\    /   O peration     | Version:  2206                                  |
|   \\  /    A nd           | Website:  www.openfoam.com                      |
|    \\/     M anipulation  |                                                 |
\*---------------------------------------------------------------------------*/
FoamFile
{
    version     2.0;
    format      ascii;
    arch        "LSB;label=32;scalar=64";
    class       volVectorField;
    location    "13";
    object      U;
}
// * * * * * * * * * * * * * * * * * * * * * * * * * * * * * * * * * * * * * //

dimensions      [0 1 -1 0 0 0 0];

internalField   nonuniform List<vector> 
28688
(
(0.000107181 0.000107119 0.1003)
(-0.000186671 0.000116994 0.100386)
(0.000117076 -0.000186671 0.100386)
(-0.000237864 -0.000237888 0.100396)
(9.09624e-05 9.09265e-05 0.100852)
(-0.000159426 9.66567e-05 0.100941)
(9.66628e-05 -0.00015942 0.100941)
(-0.000194889 -0.000194938 0.100971)
(8.06694e-05 8.06417e-05 0.10136)
(-0.000118126 6.96896e-05 0.101435)
(6.97049e-05 -0.000118135 0.101435)
(-0.000167102 -0.000167143 0.101459)
(1.88098e-05 1.87863e-05 0.101562)
(-2.31262e-05 1.56038e-05 0.101575)
(1.56192e-05 -2.31207e-05 0.101575)
(-5.8115e-05 -5.81371e-05 0.101572)
(1.27715e-06 1.27716e-06 0.101585)
(-2.10238e-06 1.72256e-06 0.101578)
(1.71848e-06 -2.10305e-06 0.101578)
(-3.87399e-05 -3.87547e-05 0.101564)
(-3.58145e-07 -3.50046e-07 0.101586)
(-3.70087e-07 5.51972e-07 0.101577)
(5.39816e-07 -3.69391e-07 0.101577)
(-3.75592e-05 -3.75713e-05 0.101562)
(-4.46548e-07 -4.42054e-07 0.101586)
(-3.03334e-07 4.92307e-07 0.101577)
(4.89983e-07 -3.05205e-07 0.101577)
(-3.75153e-05 -3.75295e-05 0.101562)
(-4.49163e-07 -4.46659e-07 0.101586)
(-3.01966e-07 4.91413e-07 0.101577)
(4.88653e-07 -3.03433e-07 0.101577)
(-3.75134e-05 -3.7529e-05 0.101562)
(-4.51755e-07 -4.49772e-07 0.101586)
(-3.0116e-07 4.89499e-07 0.101577)
(4.87757e-07 -3.02836e-07 0.101577)
(-3.75125e-05 -3.75285e-05 0.101562)
(-4.502e-07 -4.47242e-07 0.101586)
(-3.01033e-07 4.90566e-07 0.101577)
(4.88112e-07 -3.02853e-07 0.101577)
(-3.75127e-05 -3.75288e-05 0.101562)
(-4.4709e-07 -4.42626e-07 0.101586)
(-3.00781e-07 4.90912e-07 0.101577)
(4.88368e-07 -3.02785e-07 0.101577)
(-3.75105e-05 -3.75272e-05 0.101562)
(-4.51692e-07 -4.51223e-07 0.101586)
(-3.00932e-07 4.86727e-07 0.101577)
(4.88566e-07 -3.04114e-07 0.101577)
(-3.75039e-05 -3.75215e-05 0.101562)
(0.000135792 0.00013578 0.100282)
(0.00012481 0.000153842 0.100228)
(-0.000124805 0.000153824 0.100228)
(-0.000135786 0.000135746 0.100282)
(0.000153876 0.000124756 0.100228)
(0.000153847 -0.000124778 0.100228)
(9.06942e-05 9.06352e-05 0.10015)
(-9.06823e-05 9.06339e-05 0.10015)
(9.06634e-05 -9.06878e-05 0.10015)
(-9.06592e-05 -9.06869e-05 0.10015)
(-0.000153874 0.00012476 0.100228)
(-0.000153854 -0.000124773 0.100228)
(0.000135776 -0.000135799 0.100282)
(0.000124758 -0.000153877 0.100228)
(-0.000124754 -0.000153861 0.100228)
(-0.000135784 -0.000135772 0.100282)
(0.000237905 0.000237881 0.100396)
(0.000115311 0.00011519 0.100893)
(0.000117127 0.00018657 0.100386)
(-0.000117068 0.00018661 0.100386)
(8.43638e-05 0.000141868 0.100825)
(-8.43263e-05 0.000141866 0.100825)
(-0.000237921 0.000237835 0.100396)
(-0.000115269 0.000115148 0.100893)
(0.00018671 0.000117026 0.100386)
(0.000186647 -0.000117083 0.100386)
(0.000141847 8.43379e-05 0.100825)
(0.000141874 -8.43577e-05 0.100825)
(-0.000186633 -0.000117088 0.100386)
(-0.000141811 8.43419e-05 0.100825)
(-0.000141839 -8.43539e-05 0.100825)
(0.00023784 -0.000237933 0.100396)
(0.000115266 -0.000115274 0.100893)
(-0.000117055 -0.000186696 0.100386)
(8.43499e-05 -0.000141811 0.100825)
(-8.43299e-05 -0.000141838 0.100825)
(-0.000115264 -0.000115278 0.100893)
(0.000194971 0.000194807 0.100971)
(0.000103788 0.000103703 0.101399)
(9.66671e-05 0.000159452 0.100941)
(-9.66443e-05 0.000159456 0.100941)
(8.82184e-05 0.00014739 0.101326)
(-8.82152e-05 0.000147389 0.101326)
(-0.000194934 0.000194769 0.100971)
(-0.000103784 0.000103694 0.101399)
(0.000159457 9.66458e-05 0.100941)
(0.00015947 -9.66653e-05 0.100941)
(0.000147362 8.82469e-05 0.101326)
(0.000147391 -8.82385e-05 0.101326)
(-0.000159436 -9.66569e-05 0.100941)
(-0.000147349 8.82567e-05 0.101326)
(-0.000147359 -8.82331e-05 0.101326)
(0.000194888 -0.000194945 0.100971)
(0.00010375 -0.000103768 0.101399)
(-9.66448e-05 -0.000159443 0.100941)
(8.82593e-05 -0.000147358 0.101326)
(-8.82626e-05 -0.000147375 0.101326)
(-0.000103748 -0.000103767 0.101399)
(0.000167154 0.00016703 0.101459)
(-1.13633e-05 -1.13912e-05 0.101573)
(6.96933e-05 0.000118174 0.101435)
(-6.96798e-05 0.000118151 0.101435)
(2.47358e-05 3.8228e-05 0.101566)
(-2.47363e-05 3.82345e-05 0.101566)
(-0.000167151 0.000167011 0.101459)
(1.13746e-05 -1.13922e-05 0.101573)
(0.000118135 6.96982e-05 0.101435)
(0.000118168 -6.96964e-05 0.101435)
(3.82544e-05 2.46954e-05 0.101566)
(3.8256e-05 -2.47433e-05 0.101566)
(-0.000118153 -6.96949e-05 0.101435)
(-3.82515e-05 2.46935e-05 0.101566)
(-3.82436e-05 -2.47299e-05 0.101566)
(0.000167077 -0.00016715 0.101459)
(-1.13354e-05 1.13974e-05 0.101573)
(-6.97072e-05 -0.000118164 0.101435)
(2.47129e-05 -3.82469e-05 0.101566)
(-2.47122e-05 -3.82492e-05 0.101566)
(1.13716e-05 1.13803e-05 0.101573)
(5.81402e-05 5.80838e-05 0.101572)
(-3.70723e-05 -3.70565e-05 0.101565)
(1.56387e-05 2.31085e-05 0.101575)
(-1.5639e-05 2.31209e-05 0.101575)
(3.0005e-06 3.92772e-06 0.101578)
(-3.00631e-06 3.94248e-06 0.101578)
(-5.81398e-05 5.80787e-05 0.101572)
(3.70749e-05 -3.70492e-05 0.101565)
(2.31321e-05 1.56042e-05 0.101575)
(2.31372e-05 -1.56415e-05 0.101575)
(3.92315e-06 2.98429e-06 0.101578)
(3.93443e-06 -3.00165e-06 0.101578)
(-2.31238e-05 -1.56362e-05 0.101575)
(-3.92302e-06 2.98664e-06 0.101578)
(-3.93692e-06 -2.99884e-06 0.101578)
(5.81185e-05 -5.81426e-05 0.101572)
(-3.70485e-05 3.70795e-05 0.101565)
(-1.56175e-05 -2.31265e-05 0.101575)
(2.98634e-06 -3.92168e-06 0.101578)
(-2.98522e-06 -3.92198e-06 0.101578)
(3.70532e-05 3.70718e-05 0.101565)
(3.87466e-05 3.87261e-05 0.101564)
(-3.88532e-05 -3.88249e-05 0.101563)
(1.73125e-06 2.1085e-06 0.101578)
(-1.73966e-06 2.12336e-06 0.101577)
(6.15844e-07 4.85264e-07 0.101577)
(-6.29398e-07 5.00945e-07 0.101577)
(-3.87492e-05 3.87293e-05 0.101564)
(3.88501e-05 -3.88131e-05 0.101563)
(2.10481e-06 1.7194e-06 0.101578)
(2.11269e-06 -1.73256e-06 0.101578)
(4.71528e-07 6.10485e-07 0.101577)
(4.84854e-07 -6.18262e-07 0.101577)
(-2.11518e-06 -1.72996e-06 0.101578)
(-4.75753e-07 6.17528e-07 0.101577)
(-4.85613e-07 -6.14756e-07 0.101577)
(3.87272e-05 -3.87618e-05 0.101564)
(-3.88243e-05 3.88578e-05 0.101563)
(-1.71825e-06 -2.10031e-06 0.101578)
(6.05092e-07 -4.71994e-07 0.101577)
(-6.06143e-07 -4.70872e-07 0.101577)
(3.88281e-05 3.88499e-05 0.101563)
(3.75606e-05 3.75504e-05 0.101562)
(-3.8914e-05 -3.88856e-05 0.101563)
(5.50276e-07 3.81994e-07 0.101577)
(-5.64251e-07 3.97837e-07 0.101577)
(5.03597e-07 3.20464e-07 0.101577)
(-5.04869e-07 3.21095e-07 0.101577)
(-3.7568e-05 3.75581e-05 0.101562)
(3.89154e-05 -3.8889e-05 0.101563)
(3.69793e-07 5.45472e-07 0.101577)
(3.80328e-07 -5.51861e-07 0.101577)
(3.04951e-07 4.96714e-07 0.101577)
(3.18502e-07 -5.01757e-07 0.101577)
(-3.80767e-07 -5.48758e-07 0.101577)
(-3.04544e-07 4.95547e-07 0.101577)
(-3.17034e-07 -4.99007e-07 0.101577)
(3.75458e-05 -3.75777e-05 0.101562)
(-3.88875e-05 3.89222e-05 0.101563)
(-5.40422e-07 -3.66373e-07 0.101577)
(4.90398e-07 -3.04408e-07 0.101577)
(-4.89147e-07 -3.03238e-07 0.101577)
(3.88936e-05 3.89138e-05 0.101563)
(3.75239e-05 3.75108e-05 0.101562)
(-3.89135e-05 -3.88813e-05 0.101563)
(5.06292e-07 3.20216e-07 0.101577)
(-5.03107e-07 3.2085e-07 0.101577)
(5.08049e-07 3.19829e-07 0.101577)
(-5.01227e-07 3.19496e-07 0.101577)
(-3.75231e-05 3.75005e-05 0.101562)
(3.89177e-05 -3.88895e-05 0.101563)
(3.0744e-07 4.97653e-07 0.101577)
(3.17125e-07 -5.00478e-07 0.101577)
(3.02229e-07 4.95642e-07 0.101577)
(3.14915e-07 -4.97772e-07 0.101577)
(-3.158e-07 -4.98941e-07 0.101577)
(-3.00275e-07 4.91681e-07 0.101577)
(-3.12383e-07 -4.96954e-07 0.101577)
(3.7504e-05 -3.75353e-05 0.101562)
(-3.88892e-05 3.89243e-05 0.101563)
(-4.88503e-07 -3.02811e-07 0.101577)
(4.87072e-07 -3.00023e-07 0.101577)
(-4.84839e-07 -2.99662e-07 0.101577)
(3.88959e-05 3.89145e-05 0.101563)
(3.75228e-05 3.7509e-05 0.101562)
(-3.89153e-05 -3.88924e-05 0.101563)
(5.04779e-07 3.176e-07 0.101577)
(-5.0235e-07 3.1942e-07 0.101577)
(5.02926e-07 3.14207e-07 0.101577)
(-5.0193e-07 3.14601e-07 0.101577)
(-3.75218e-05 3.75016e-05 0.101562)
(3.89177e-05 -3.88921e-05 0.101563)
(3.05253e-07 4.93524e-07 0.101577)
(3.15542e-07 -4.98968e-07 0.101577)
(3.01054e-07 4.90274e-07 0.101577)
(3.13833e-07 -4.98483e-07 0.101577)
(-3.13681e-07 -4.98533e-07 0.101577)
(-3.00542e-07 4.89679e-07 0.101577)
(-3.11495e-07 -4.96998e-07 0.101577)
(3.75025e-05 -3.75337e-05 0.101562)
(-3.88901e-05 3.89241e-05 0.101563)
(-4.86271e-07 -3.01354e-07 0.101577)
(4.86291e-07 -2.99669e-07 0.101577)
(-4.84005e-07 -2.99086e-07 0.101577)
(3.8897e-05 3.8915e-05 0.101563)
(3.75211e-05 3.75006e-05 0.101562)
(-3.89161e-05 -3.88922e-05 0.101563)
(5.01885e-07 3.13025e-07 0.101577)
(-5.02161e-07 3.17641e-07 0.101577)
(5.02299e-07 3.13251e-07 0.101577)
(-5.01024e-07 3.11762e-07 0.101577)
(-3.75211e-05 3.7498e-05 0.101562)
(3.89205e-05 -3.88918e-05 0.101563)
(3.04694e-07 4.91204e-07 0.101577)
(3.14626e-07 -4.99457e-07 0.101577)
(3.00639e-07 4.90484e-07 0.101577)
(3.14081e-07 -4.97628e-07 0.101577)
(-3.12553e-07 -4.9855e-07 0.101577)
(-3.00063e-07 4.89934e-07 0.101577)
(-3.11015e-07 -4.9655e-07 0.101577)
(3.75017e-05 -3.75337e-05 0.101562)
(-3.889e-05 3.89247e-05 0.101563)
(-4.85637e-07 -3.00641e-07 0.101577)
(4.8602e-07 -2.9908e-07 0.101577)
(-4.8351e-07 -2.98725e-07 0.101577)
(3.88973e-05 3.89153e-05 0.101563)
(3.75221e-05 3.75036e-05 0.101562)
(-3.89099e-05 -3.8872e-05 0.101563)
(5.05497e-07 3.17607e-07 0.101577)
(-5.01481e-07 3.22853e-07 0.101577)
(5.13977e-07 3.28193e-07 0.101577)
(-5.00996e-07 3.13474e-07 0.101577)
(-3.75204e-05 3.74991e-05 0.101562)
(3.89234e-05 -3.88887e-05 0.101563)
(3.05349e-07 4.9374e-07 0.101577)
(3.15254e-07 -4.98602e-07 0.101577)
(3.02432e-07 5.00196e-07 0.101577)
(3.15349e-07 -4.97312e-07 0.101577)
(-3.12758e-07 -4.98302e-07 0.101577)
(-2.99642e-07 4.91171e-07 0.101577)
(-3.11698e-07 -4.97418e-07 0.101577)
(3.75025e-05 -3.75338e-05 0.101562)
(-3.88874e-05 3.89231e-05 0.101563)
(-4.85414e-07 -3.00767e-07 0.101577)
(4.87166e-07 -2.99832e-07 0.101577)
(-4.84105e-07 -2.99716e-07 0.101577)
(3.88953e-05 3.89129e-05 0.101563)
(3.75239e-05 3.75188e-05 0.101562)
(-3.89076e-05 -3.88866e-05 0.101563)
(5.12967e-07 3.25399e-07 0.101577)
(-5.00958e-07 3.24371e-07 0.101577)
(5.03123e-07 3.12114e-07 0.101577)
(-5.03409e-07 3.11504e-07 0.101577)
(-3.75185e-05 3.74988e-05 0.101562)
(3.89191e-05 -3.88891e-05 0.101563)
(3.05874e-07 4.99104e-07 0.101577)
(3.15864e-07 -4.98016e-07 0.101577)
(2.99512e-07 4.87839e-07 0.101577)
(3.12347e-07 -4.96768e-07 0.101577)
(-3.12447e-07 -4.9876e-07 0.101577)
(-2.9982e-07 4.89515e-07 0.101577)
(-3.0884e-07 -4.96455e-07 0.101577)
(3.7501e-05 -3.75316e-05 0.101562)
(-3.88845e-05 3.89186e-05 0.101563)
(-4.85426e-07 -3.01039e-07 0.101577)
(4.84889e-07 -2.9766e-07 0.101577)
(-4.81851e-07 -2.97531e-07 0.101577)
(3.88919e-05 3.89084e-05 0.101563)
(3.75157e-05 3.74934e-05 0.101562)
(-3.89044e-05 -3.88849e-05 0.101563)
(5.05301e-07 3.15514e-07 0.101577)
(-5.01448e-07 3.18214e-07 0.101577)
(4.97533e-07 2.96153e-07 0.101577)
(-3.75151e-05 3.74915e-05 0.101562)
(3.07332e-07 4.92087e-07 0.101577)
(3.15925e-07 -5.00484e-07 0.101577)
(2.88878e-07 4.80582e-07 0.101577)
(3.01662e-07 -4.93366e-07 0.101577)
(-3.13077e-07 -5.00729e-07 0.101577)
(-2.98077e-07 -4.92916e-07 0.101577)
(3.74939e-05 -3.75263e-05 0.101562)
(-3.8881e-05 3.89143e-05 0.101563)
(-4.85536e-07 -3.02934e-07 0.101577)
(4.80005e-07 -2.87277e-07 0.101577)
(-4.75714e-07 -2.89719e-07 0.101577)
(3.88886e-05 3.89038e-05 0.101563)
(-3.57784e-07 -3.60309e-07 0.099999)
(1.68764e-05 1.6871e-05 0.100003)
(-4.74965e-07 1.39376e-05 0.100001)
(1.39452e-05 -4.77235e-07 0.100001)
(-4.71582e-05 5.70749e-06 0.100008)
(-1.53754e-05 1.56889e-05 0.1)
(-0.000128193 6.04685e-05 0.100057)
(-1.31592e-05 -8.6182e-07 0.0999958)
(5.70101e-06 -4.71444e-05 0.100008)
(1.56923e-05 -1.53756e-05 0.1)
(-8.59963e-07 -1.31583e-05 0.0999958)
(6.0483e-05 -0.000128123 0.100057)
(-1.91513e-05 -1.91547e-05 0.100003)
(-0.0001352 -8.10904e-05 0.100054)
(-8.10987e-05 -0.00013518 0.100054)
(-3.53775e-05 0.000138463 0.100721)
(0.000177425 0.000384608 0.0994284)
(2.42985e-06 0.000301868 0.100522)
(-8.23869e-05 0.000245031 0.0991297)
(-0.000302071 0.000834283 0.0977896)
(-0.000133821 0.000307488 0.0956949)
(0.000138195 -3.55193e-05 0.100721)
(0.000385217 0.000176382 0.0994292)
(0.000302611 2.28916e-06 0.100522)
(0.000245173 -8.22936e-05 0.0991303)
(-0.000107167 0.000107121 0.1003)
(0.000107156 -0.000107165 0.1003)
(-0.000107149 -0.000107173 0.1003)
(9.02074e-05 9.01396e-05 0.100743)
(-9.01599e-05 9.01538e-05 0.100743)
(9.0197e-05 -9.02079e-05 0.100743)
(-9.01771e-05 -9.02152e-05 0.100743)
(-0.000283835 6.36366e-06 0.100754)
(-0.00039352 0.000227991 0.100534)
(-0.000172549 3.7389e-05 0.100334)
(-0.000158032 9.68058e-05 0.100558)
(-0.000356015 1.557e-05 0.100481)
(-0.000152602 0.000199487 0.100733)
(-0.000155849 3.3425e-05 0.100497)
(0.000833244 -0.000300207 0.0977887)
(0.000307448 -0.000133402 0.0956953)
(6.31237e-06 -0.000283751 0.100753)
(3.74212e-05 -0.000172532 0.100334)
(0.000228068 -0.000393488 0.100534)
(9.67464e-05 -0.000158019 0.100558)
(1.55664e-05 -0.000355889 0.100481)
(3.34784e-05 -0.000155831 0.100497)
(0.000199542 -0.000152618 0.100733)
(-0.000368535 -0.000139089 0.100377)
(-0.00013928 -0.000368785 0.100377)
(-0.000113796 -0.000113897 0.100658)
(7.10835e-06 -8.1204e-05 0.100577)
(-8.14588e-05 7.11827e-06 0.100577)
(-1.63743e-05 0.000186347 0.100858)
(-5.73555e-05 0.000286015 0.0983322)
(-1.99147e-05 0.000213551 0.100791)
(-4.72863e-05 0.000273283 0.0979426)
(-0.000145383 0.00030863 0.0926165)
(-0.000143568 0.00027689 0.0910365)
(0.000186256 -1.65492e-05 0.100858)
(0.000286272 -5.7247e-05 0.0983326)
(0.00021361 -2.00457e-05 0.100792)
(0.000273405 -4.71957e-05 0.0979429)
(-9.09211e-05 9.09398e-05 0.100852)
(9.09815e-05 -9.09703e-05 0.100852)
(-9.09621e-05 -9.0967e-05 0.100852)
(9.24997e-05 9.24855e-05 0.101242)
(-9.24691e-05 9.25016e-05 0.101242)
(9.25154e-05 -9.25026e-05 0.101243)
(-9.25074e-05 -9.25002e-05 0.101243)
(-0.000255452 1.27037e-05 0.101154)
(-0.000217038 0.000216455 0.100832)
(-0.000161548 2.98755e-05 0.100894)
(-0.000158789 9.7227e-05 0.101061)
(-0.0002979 1.43475e-05 0.100982)
(-0.000181178 0.000191793 0.100937)
(-0.000167561 3.14505e-05 0.101012)
(0.000308669 -0.00014517 0.0926158)
(0.000276987 -0.000143382 0.0910371)
(1.27821e-05 -0.000255438 0.101154)
(2.99487e-05 -0.000161554 0.100894)
(0.00021652 -0.000217083 0.100832)
(9.72247e-05 -0.000158802 0.101061)
(1.44318e-05 -0.000297854 0.100982)
(3.15152e-05 -0.000167565 0.101012)
(0.000191776 -0.000181119 0.100937)
(-8.46322e-05 -9.46135e-05 0.100462)
(-9.47178e-05 -8.46571e-05 0.100462)
(-0.000114593 -0.000114588 0.101149)
(-8.01374e-05 -8.38056e-05 0.100413)
(-8.39528e-05 -8.01869e-05 0.100413)
(-1.84252e-05 7.40942e-05 0.100902)
(-2.8511e-05 0.000234894 0.0971747)
(-2.03057e-05 0.000199479 0.100948)
(-2.91628e-05 0.000118742 0.0968963)
(-8.18764e-05 0.000167912 0.0884301)
(-2.83766e-05 3.93361e-05 0.0878578)
(7.41112e-05 -1.85251e-05 0.100902)
(0.000235058 -2.84603e-05 0.097175)
(0.000199524 -2.04047e-05 0.100949)
(0.000118862 -2.91286e-05 0.0968963)
(-8.06339e-05 8.06645e-05 0.10136)
(8.06835e-05 -8.06723e-05 0.10136)
(-8.06692e-05 -8.06668e-05 0.10136)
(3.05732e-05 3.05439e-05 0.10154)
(-3.05591e-05 3.05427e-05 0.10154)
(3.05697e-05 -3.05767e-05 0.10154)
(-3.05691e-05 -3.05802e-05 0.10154)
(-0.000105802 4.09235e-06 0.101479)
(-0.000166475 0.000154748 0.101058)
(-0.000134963 2.72331e-05 0.101395)
(-8.73514e-05 5.23223e-05 0.101506)
(-0.000247027 8.06323e-06 0.10142)
(-5.65987e-05 6.02687e-05 0.10104)
(-0.000100505 2.19261e-05 0.101476)
(0.000167805 -8.1661e-05 0.0884286)
(3.93982e-05 -2.82996e-05 0.0878578)
(4.11244e-06 -0.000105753 0.101479)
(2.72854e-05 -0.000134975 0.101395)
(0.000154769 -0.000166505 0.101058)
(5.23418e-05 -8.73511e-05 0.101506)
(8.11598e-06 -0.000246993 0.10142)
(2.19759e-05 -0.000100505 0.101476)
(6.0274e-05 -5.65273e-05 0.10104)
(-7.84175e-05 -5.75741e-05 0.100252)
(-5.76589e-05 -7.84775e-05 0.100252)
(-3.7353e-05 -3.73018e-05 0.101548)
(-9.79845e-06 2.26863e-06 0.100122)
(2.21964e-06 -9.86774e-06 0.100122)
(-1.24631e-06 -6.91926e-06 0.100773)
(-9.23682e-06 2.04617e-05 0.0967969)
(-4.76556e-06 9.90976e-06 0.100791)
(-3.3564e-06 -3.89429e-06 0.0968025)
(-9.72776e-06 -3.38585e-06 0.08783)
(-1.95563e-06 -3.97319e-06 0.0878538)
(-6.96316e-06 -1.26084e-06 0.100773)
(2.05056e-05 -9.26799e-06 0.0967968)
(9.96841e-06 -4.78186e-06 0.100791)
(-3.88308e-06 -3.36297e-06 0.0968023)
(-1.87998e-05 1.87868e-05 0.101562)
(1.88076e-05 -1.88136e-05 0.101562)
(-1.88074e-05 -1.8816e-05 0.101562)
(2.89274e-06 2.88948e-06 0.101583)
(-2.89507e-06 2.89082e-06 0.101583)
(2.89578e-06 -2.89549e-06 0.101583)
(-2.89658e-06 -2.89855e-06 0.101583)
(6.36859e-06 4.70481e-07 0.101444)
(-2.08099e-05 1.11323e-05 0.100955)
(-2.55976e-05 7.06845e-06 0.10157)
(-1.32845e-05 9.31589e-06 0.101577)
(-2.91256e-05 1.33122e-06 0.101455)
(7.11925e-06 -8.84239e-07 0.100935)
(-1.45692e-05 4.07017e-06 0.101577)
(-3.48701e-06 -9.64402e-06 0.0878282)
(-3.87282e-06 -2.00281e-06 0.0878535)
(4.88773e-07 6.37422e-06 0.101444)
(7.09278e-06 -2.55974e-05 0.10157)
(1.1174e-05 -2.08158e-05 0.100955)
(9.32577e-06 -1.32817e-05 0.101577)
(1.35166e-06 -2.91207e-05 0.101455)
(4.08511e-06 -1.45611e-05 0.101577)
(-8.84973e-07 7.16685e-06 0.100935)
(-2.88252e-06 -3.26636e-07 0.0999455)
(-3.12884e-07 -2.88512e-06 0.0999451)
(3.09894e-05 3.10037e-05 0.101569)
(3.02139e-06 4.23102e-06 0.099913)
(4.22684e-06 3.01528e-06 0.0999126)
(-2.48491e-08 -7.0209e-06 0.100765)
(6.60626e-07 5.50062e-06 0.0967977)
(-1.07839e-07 7.14594e-06 0.100763)
(-9.23971e-07 -5.58106e-06 0.0968026)
(-1.83867e-06 1.58645e-06 0.0878522)
(1.14009e-06 -1.78664e-06 0.0878572)
(-7.06627e-06 -1.80845e-08 0.100765)
(5.4774e-06 6.31912e-07 0.0967974)
(7.18553e-06 -9.3911e-08 0.100764)
(-5.55844e-06 -8.88584e-07 0.0968026)
(-1.28157e-06 1.27993e-06 0.101585)
(1.28016e-06 -1.27984e-06 0.101585)
(-1.28265e-06 -1.28226e-06 0.101585)
(-2.47796e-07 -2.39245e-07 0.101586)
(2.39402e-07 -2.33984e-07 0.101586)
(-2.42258e-07 2.44972e-07 0.101586)
(2.39585e-07 2.43858e-07 0.101586)
(1.15268e-05 -4.26236e-10 0.101438)
(-1.15879e-05 3.62316e-06 0.10092)
(-2.30408e-06 4.51694e-07 0.101584)
(-1.16726e-06 1.07879e-06 0.101577)
(-1.28636e-05 6.97585e-08 0.101438)
(1.03321e-05 -3.33519e-06 0.100923)
(-1.29307e-06 1.44457e-07 0.101584)
(1.51323e-06 -1.77327e-06 0.0878502)
(-1.7941e-06 1.19587e-06 0.0878568)
(5.09459e-09 1.15301e-05 0.101438)
(4.49974e-07 -2.30447e-06 0.101584)
(3.64986e-06 -1.16218e-05 0.10092)
(1.06914e-06 -1.16534e-06 0.101577)
(6.35463e-08 -1.28696e-05 0.101438)
(1.39187e-07 -1.28809e-06 0.101584)
(-3.36808e-06 1.03594e-05 0.100923)
(-3.73718e-06 -4.49394e-06 0.0998945)
(-4.4831e-06 -3.73091e-06 0.0998942)
(3.85268e-05 3.85473e-05 0.101563)
(3.3283e-06 3.99125e-06 0.0998974)
(3.98233e-06 3.32384e-06 0.0998971)
(-5.62479e-09 -7.10072e-06 0.100765)
(7.48598e-07 5.65071e-06 0.0967977)
(-2.80973e-08 6.96444e-06 0.100762)
(-9.33623e-07 -5.52856e-06 0.0968023)
(-1.4834e-06 1.82365e-06 0.0878519)
(1.20978e-06 -1.69555e-06 0.0878572)
(-7.14464e-06 9.39701e-10 0.100765)
(5.60391e-06 7.1566e-07 0.0967971)
(7.00582e-06 -7.53267e-09 0.100762)
(-5.50153e-06 -8.88751e-07 0.0968025)
(3.49551e-07 -3.44021e-07 0.101586)
(-3.53262e-07 3.55871e-07 0.101586)
(3.49986e-07 3.54831e-07 0.101586)
(-4.4294e-07 -4.35606e-07 0.101586)
(4.38646e-07 -4.35641e-07 0.101586)
(-4.39421e-07 4.42939e-07 0.101586)
(4.38492e-07 4.42016e-07 0.101586)
(1.18243e-05 -1.30288e-08 0.101437)
(-1.09753e-05 3.27611e-06 0.100919)
(-4.60748e-07 -1.14382e-07 0.101584)
(-3.28273e-07 5.22855e-07 0.101577)
(-1.19683e-05 1.69316e-08 0.101436)
(1.05502e-05 -3.42678e-06 0.100923)
(-4.10917e-07 -1.27913e-07 0.101584)
(1.72213e-06 -1.38781e-06 0.08785)
(-1.73985e-06 1.29909e-06 0.0878568)
(-1.03964e-08 1.18291e-05 0.101437)
(-1.24385e-07 -4.58628e-07 0.101584)
(3.29143e-06 -1.10079e-05 0.100919)
(5.08658e-07 -3.26757e-07 0.101577)
(4.87929e-09 -1.19738e-05 0.101436)
(-1.37345e-07 -4.04228e-07 0.101584)
(-3.46423e-06 1.05778e-05 0.100922)
(-3.53799e-06 -4.22883e-06 0.0998928)
(-4.2217e-06 -3.52951e-06 0.0998925)
(3.88809e-05 3.89015e-05 0.101563)
(3.39581e-06 4.09526e-06 0.0998969)
(4.08413e-06 3.39183e-06 0.0998966)
(1.11272e-08 -7.10234e-06 0.100765)
(7.54675e-07 5.65409e-06 0.0967977)
(-1.32963e-08 6.95515e-06 0.100762)
(-8.87725e-07 -5.51778e-06 0.0968023)
(-1.44298e-06 1.82113e-06 0.087852)
(1.33548e-06 -1.80394e-06 0.087857)
(-7.1465e-06 2.67597e-09 0.100765)
(5.61657e-06 7.16554e-07 0.0967971)
(6.99777e-06 -4.71809e-09 0.100762)
(-5.4958e-06 -8.86328e-07 0.0968025)
(4.45117e-07 -4.43389e-07 0.101586)
(-4.44666e-07 4.47887e-07 0.101586)
(4.43266e-07 4.46171e-07 0.101586)
(-4.48603e-07 -4.43535e-07 0.101586)
(4.50914e-07 -4.47259e-07 0.101586)
(-4.47495e-07 4.52059e-07 0.101586)
(4.47806e-07 4.49932e-07 0.101586)
(1.1832e-05 -1.66232e-08 0.101437)
(-1.09498e-05 3.26019e-06 0.100919)
(-3.78861e-07 -1.4002e-07 0.101584)
(-3.02473e-07 4.93729e-07 0.101577)
(-1.19346e-05 1.31057e-08 0.101436)
(1.05555e-05 -3.43603e-06 0.100923)
(-3.75873e-07 -1.4184e-07 0.101584)
(1.73056e-06 -1.37497e-06 0.08785)
(-1.73771e-06 1.30387e-06 0.0878568)
(-9.53099e-09 1.18372e-05 0.101437)
(-1.44478e-07 -3.7785e-07 0.101584)
(3.28416e-06 -1.09824e-05 0.100919)
(4.87926e-07 -3.01151e-07 0.101577)
(4.66102e-09 -1.19398e-05 0.101436)
(-1.44648e-07 -3.70793e-07 0.101584)
(-3.46528e-06 1.05842e-05 0.100922)
(-3.52968e-06 -4.21286e-06 0.0998927)
(-4.2046e-06 -3.52271e-06 0.0998924)
(3.88928e-05 3.89117e-05 0.101563)
(3.39823e-06 4.10084e-06 0.0998969)
(4.09102e-06 3.39304e-06 0.0998966)
(5.1367e-09 -7.10253e-06 0.100765)
(7.46605e-07 5.64771e-06 0.0967977)
(-9.28985e-09 6.95658e-06 0.100762)
(-9.21955e-07 -5.52471e-06 0.0968024)
(-1.43479e-06 1.81592e-06 0.0878519)
(1.34614e-06 -1.81759e-06 0.087857)
(-7.14665e-06 4.2057e-10 0.100765)
(5.61371e-06 7.1588e-07 0.0967971)
(6.99739e-06 -5.07084e-09 0.100762)
(-5.49164e-06 -8.89453e-07 0.0968026)
(4.50731e-07 -4.48213e-07 0.101586)
(-4.4829e-07 4.52004e-07 0.101586)
(4.47808e-07 4.49781e-07 0.101586)
(-4.51995e-07 -4.48942e-07 0.101586)
(4.51811e-07 -4.50203e-07 0.101586)
(-4.48439e-07 4.51702e-07 0.101586)
(4.48578e-07 4.50094e-07 0.101586)
(1.18332e-05 -1.77391e-08 0.101437)
(-1.0949e-05 3.25927e-06 0.100919)
(-3.76208e-07 -1.41928e-07 0.101584)
(-3.0091e-07 4.90494e-07 0.101577)
(-1.19329e-05 1.1726e-08 0.101436)
(1.05559e-05 -3.43845e-06 0.100923)
(-3.74335e-07 -1.427e-07 0.101584)
(1.73068e-06 -1.37418e-06 0.08785)
(-1.73743e-06 1.3039e-06 0.0878568)
(-9.77838e-09 1.18388e-05 0.101437)
(-1.44322e-07 -3.75602e-07 0.101584)
(3.2834e-06 -1.09813e-05 0.100919)
(4.87157e-07 -3.00512e-07 0.101577)
(5.25517e-09 -1.19396e-05 0.101436)
(-1.44528e-07 -3.70206e-07 0.101584)
(-3.4652e-06 1.05848e-05 0.100922)
(-3.52876e-06 -4.21108e-06 0.0998927)
(-4.20187e-06 -3.52241e-06 0.0998924)
(3.8894e-05 3.8912e-05 0.101563)
(3.3997e-06 4.10027e-06 0.0998969)
(4.09144e-06 3.3938e-06 0.0998966)
(6.56846e-09 -7.10321e-06 0.100765)
(7.49175e-07 5.64054e-06 0.0967976)
(-1.50492e-08 6.95353e-06 0.100762)
(-9.21765e-07 -5.51498e-06 0.0968024)
(-1.42632e-06 1.80949e-06 0.087852)
(1.34831e-06 -1.81895e-06 0.087857)
(-7.14642e-06 1.51667e-10 0.100765)
(5.60797e-06 7.09842e-07 0.0967971)
(6.99685e-06 -7.01713e-09 0.100762)
(-5.48274e-06 -8.85775e-07 0.0968026)
(4.51588e-07 -4.5017e-07 0.101586)
(-4.48742e-07 4.51751e-07 0.101586)
(4.48206e-07 4.49647e-07 0.101586)
(-4.51678e-07 -4.48079e-07 0.101586)
(4.52548e-07 -4.49205e-07 0.101586)
(-4.48068e-07 4.523e-07 0.101586)
(4.48854e-07 4.50333e-07 0.101586)
(1.18335e-05 -1.77587e-08 0.101437)
(-1.09492e-05 3.25831e-06 0.100919)
(-3.74963e-07 -1.42923e-07 0.101584)
(-3.00341e-07 4.89522e-07 0.101577)
(-1.19323e-05 1.1189e-08 0.101436)
(1.05552e-05 -3.4385e-06 0.100923)
(-3.72904e-07 -1.43088e-07 0.101584)
(1.73063e-06 -1.37468e-06 0.08785)
(-1.73764e-06 1.30368e-06 0.0878568)
(-1.07587e-08 1.18415e-05 0.101437)
(-1.44425e-07 -3.74643e-07 0.101584)
(3.28325e-06 -1.09814e-05 0.100919)
(4.86293e-07 -2.9957e-07 0.101577)
(6.81406e-09 -1.19415e-05 0.101436)
(-1.44483e-07 -3.68314e-07 0.101584)
(-3.46475e-06 1.05847e-05 0.100922)
(-3.52863e-06 -4.21193e-06 0.0998927)
(-4.20185e-06 -3.52251e-06 0.0998924)
(3.88946e-05 3.89123e-05 0.101563)
(3.39871e-06 4.10005e-06 0.0998969)
(4.09157e-06 3.39271e-06 0.0998966)
(1.24106e-08 -7.10391e-06 0.100765)
(7.40453e-07 5.63889e-06 0.0967976)
(-1.13423e-08 6.95727e-06 0.100762)
(-9.06353e-07 -5.53021e-06 0.0968024)
(-1.43236e-06 1.82404e-06 0.087852)
(1.35832e-06 -1.8368e-06 0.0878569)
(-7.14898e-06 1.735e-09 0.100765)
(5.60669e-06 7.07294e-07 0.0967971)
(7.00041e-06 -4.87176e-09 0.100762)
(-5.4897e-06 -8.76405e-07 0.0968026)
(4.51831e-07 -4.47871e-07 0.101586)
(-4.48052e-07 4.52072e-07 0.101586)
(4.48319e-07 4.49882e-07 0.101586)
(-4.47392e-07 -4.41038e-07 0.101586)
(4.5338e-07 -4.454e-07 0.101586)
(-4.46858e-07 4.52351e-07 0.101586)
(4.48531e-07 4.50088e-07 0.101586)
(1.18356e-05 -1.68648e-08 0.101437)
(-1.09527e-05 3.26246e-06 0.100919)
(-3.74568e-07 -1.42125e-07 0.101584)
(-3.00643e-07 4.91809e-07 0.101577)
(-1.19347e-05 1.17482e-08 0.101436)
(1.05575e-05 -3.43922e-06 0.100923)
(-3.72933e-07 -1.42141e-07 0.101584)
(1.73617e-06 -1.37683e-06 0.08785)
(-1.75368e-06 1.31352e-06 0.0878567)
(-1.07784e-08 1.18437e-05 0.101437)
(-1.44027e-07 -3.74628e-07 0.101584)
(3.28565e-06 -1.09839e-05 0.100919)
(4.87504e-07 -3.00134e-07 0.101577)
(6.39495e-09 -1.19428e-05 0.101436)
(-1.44021e-07 -3.68923e-07 0.101584)
(-3.46765e-06 1.05871e-05 0.100922)
(-3.52958e-06 -4.21368e-06 0.0998927)
(-4.20397e-06 -3.52357e-06 0.0998924)
(3.88944e-05 3.89121e-05 0.101563)
(3.39806e-06 4.10437e-06 0.0998969)
(4.09554e-06 3.39223e-06 0.0998966)
(8.8984e-09 -7.10362e-06 0.100765)
(8.53303e-07 5.66318e-06 0.0967978)
(-2.51605e-09 6.95199e-06 0.100762)
(-9.54821e-07 -5.53969e-06 0.0968023)
(-1.42376e-06 1.81559e-06 0.0878521)
(1.36279e-06 -1.83423e-06 0.0878569)
(-7.14834e-06 2.25622e-09 0.100765)
(5.5938e-06 7.2269e-07 0.0967971)
(6.99207e-06 -5.14855e-09 0.100762)
(-5.48405e-06 -8.89952e-07 0.0968026)
(4.53292e-07 -4.45537e-07 0.101586)
(-4.47659e-07 4.52513e-07 0.101586)
(4.48529e-07 4.49799e-07 0.101586)
(-4.51422e-07 -4.50161e-07 0.101586)
(4.53259e-07 -4.46576e-07 0.101586)
(-4.47945e-07 4.5216e-07 0.101586)
(4.49279e-07 4.49561e-07 0.101586)
(1.18333e-05 -1.7878e-08 0.101437)
(-1.09407e-05 3.25636e-06 0.100919)
(-3.74253e-07 -1.42282e-07 0.101584)
(-3.00046e-07 4.90981e-07 0.101577)
(-1.19265e-05 1.17251e-08 0.101436)
(1.05565e-05 -3.44164e-06 0.100923)
(-3.72527e-07 -1.4272e-07 0.101584)
(1.73389e-06 -1.37367e-06 0.0878502)
(-1.7515e-06 1.31243e-06 0.0878567)
(-1.07747e-08 1.18412e-05 0.101437)
(-1.43686e-07 -3.74784e-07 0.101584)
(3.27899e-06 -1.09739e-05 0.100919)
(4.8699e-07 -3.00132e-07 0.101577)
(5.87234e-09 -1.19347e-05 0.101436)
(-1.43917e-07 -3.69056e-07 0.101584)
(-3.46494e-06 1.05842e-05 0.100922)
(-3.52145e-06 -4.20512e-06 0.0998928)
(-4.19538e-06 -3.51548e-06 0.0998924)
(3.88942e-05 3.89111e-05 0.101563)
(3.40678e-06 4.0967e-06 0.0998969)
(4.08822e-06 3.40085e-06 0.0998966)
(5.41351e-09 -7.10351e-06 0.100765)
(7.49923e-07 5.64663e-06 0.0967978)
(-1.54913e-08 6.94547e-06 0.100762)
(-9.12177e-07 -5.52371e-06 0.0968023)
(-1.42055e-06 1.79604e-06 0.0878521)
(1.32884e-06 -1.79419e-06 0.087857)
(-7.14458e-06 -1.6989e-09 0.100765)
(5.59889e-06 7.08848e-07 0.0967972)
(6.98712e-06 -9.38406e-09 0.100762)
(-5.47336e-06 -8.78671e-07 0.0968026)
(4.56145e-07 -4.48997e-07 0.101586)
(-4.48981e-07 4.5215e-07 0.101586)
(4.49685e-07 4.48317e-07 0.101586)
(-4.55599e-07 -4.59054e-07 0.101586)
(4.71501e-07 -4.53004e-07 0.101586)
(-4.54188e-07 4.58461e-07 0.101586)
(4.58118e-07 4.51619e-07 0.101586)
(1.18335e-05 -2.20769e-08 0.101437)
(-1.0938e-05 3.25908e-06 0.100919)
(-3.73941e-07 -1.45399e-07 0.101584)
(-2.98775e-07 4.84726e-07 0.101577)
(-1.19244e-05 9.50151e-09 0.101436)
(1.05536e-05 -3.44167e-06 0.100923)
(-3.69238e-07 -1.46489e-07 0.101584)
(1.71667e-06 -1.36319e-06 0.0878501)
(-1.70151e-06 1.28538e-06 0.0878567)
(-1.10083e-08 1.18409e-05 0.101437)
(-1.44058e-07 -3.74851e-07 0.101584)
(3.27585e-06 -1.09682e-05 0.100919)
(4.8485e-07 -2.96872e-07 0.101577)
(5.82919e-09 -1.19325e-05 0.101436)
(-1.44517e-07 -3.65837e-07 0.101584)
(-3.46235e-06 1.05807e-05 0.100922)
(-3.52454e-06 -4.2052e-06 0.0998928)
(-4.19379e-06 -3.51944e-06 0.0998924)
(3.88911e-05 3.89065e-05 0.101563)
(3.39041e-06 4.09692e-06 0.0998969)
(4.0908e-06 3.38217e-06 0.0998966)
(1.91563e-05 1.91446e-05 0.100003)
(8.10761e-05 0.000135178 0.100054)
(0.000135238 8.10887e-05 0.100054)
(0.000414611 0.00104375 0.0978676)
(0.000115176 0.000204388 0.100125)
(0.00104285 0.000411996 0.0978677)
(0.000204535 0.000115204 0.100125)
(0.0001015 0.000101463 0.100042)
(0.000119498 0.000516253 0.100266)
(0.00051513 0.000119126 0.100266)
(0.000117175 0.000180059 0.100097)
(0.000180198 0.000117194 0.100097)
(5.70462e-06 4.7127e-05 0.100008)
(1.56963e-05 1.53722e-05 0.1)
(6.04722e-05 0.000128128 0.100057)
(-8.58529e-07 1.31515e-05 0.0999958)
(-5.71679e-06 4.71362e-05 0.100008)
(-1.56937e-05 1.53673e-05 0.1)
(-6.04451e-05 0.000128117 0.100057)
(8.58971e-07 1.31525e-05 0.0999958)
(4.59629e-06 0.000154489 0.100054)
(0.000326862 0.000318223 0.0993423)
(9.83137e-05 0.000167483 0.100057)
(7.27489e-06 0.000330328 0.100415)
(-4.63529e-06 0.000154504 0.100054)
(-0.000326329 0.000318952 0.0993425)