/*--------------------------------*- C++ -*----------------------------------*\
| =========                 |                                                 |
| \\      /  F ield         | OpenFOAM: The Open Source CFD Toolbox           |
|  \\    /   O peration     | Version:  2206                                  |
|   \\  /    A nd           | Website:  www.openfoam.com                      |
|    \\/     M anipulation  |                                                 |
\*---------------------------------------------------------------------------*/
FoamFile
{
    version     2.0;
    format      ascii;
    arch        "LSB;label=32;scalar=64";
    class       volScalarField;
    location    "5.5";
    object      epsilon;
}
// * * * * * * * * * * * * * * * * * * * * * * * * * * * * * * * * * * * * * //

dimensions      [0 2 -3 0 0 0 0];

internalField   nonuniform List<scalar> 
28688
(
4.93699e-07
4.964e-07
4.964e-07
4.99743e-07
4.66485e-07
4.6923e-07
4.69231e-07
4.73386e-07
4.65644e-07
4.67494e-07
4.67495e-07
4.7018e-07
4.65643e-07
4.67482e-07
4.67482e-07
4.7015e-07
4.65643e-07
4.67481e-07
4.67482e-07
4.70151e-07
4.65643e-07
4.67481e-07
4.67482e-07
4.70151e-07
4.65643e-07
4.67481e-07
4.67482e-07
4.70151e-07
4.65643e-07
4.67481e-07
4.67482e-07
4.70151e-07
4.65643e-07
4.67481e-07
4.67482e-07
4.70151e-07
4.65643e-07
4.67481e-07
4.67482e-07
4.70151e-07
4.65643e-07
4.67481e-07
4.67482e-07
4.70151e-07
4.65643e-07
4.67481e-07
4.67482e-07
4.70151e-07
5.06796e-07
5.06377e-07
5.06375e-07
5.06796e-07
5.06376e-07
5.06375e-07
5.10219e-07
5.10218e-07
5.10218e-07
5.10218e-07
5.06379e-07
5.06377e-07
5.06796e-07
5.06378e-07
5.06376e-07
5.06796e-07
4.99743e-07
4.74561e-07
4.96402e-07
4.96407e-07
4.71569e-07
4.71573e-07
4.99743e-07
4.74559e-07
4.96405e-07
4.96407e-07
4.71571e-07
4.71574e-07
4.96402e-07
4.71565e-07
4.71569e-07
4.99743e-07
4.74562e-07
4.96405e-07
4.71565e-07
4.71571e-07
4.74559e-07
4.73391e-07
4.70161e-07
4.69234e-07
4.69236e-07
4.67541e-07
4.67541e-07
4.7339e-07
4.70159e-07
4.69234e-07
4.69237e-07
4.6754e-07
4.67542e-07
4.69234e-07
4.6754e-07
4.67542e-07
4.73392e-07
4.70161e-07
4.69235e-07
4.67541e-07
4.67541e-07
4.70163e-07
4.70181e-07
4.70116e-07
4.67499e-07
4.67499e-07
4.67483e-07
4.67483e-07
4.70179e-07
4.70114e-07
4.67498e-07
4.675e-07
4.67482e-07
4.67484e-07
4.675e-07
4.67482e-07
4.67483e-07
4.70181e-07
4.70116e-07
4.67498e-07
4.67483e-07
4.67482e-07
4.70121e-07
4.7015e-07
4.70117e-07
4.67486e-07
4.67487e-07
4.67483e-07
4.67483e-07
4.70149e-07
4.70116e-07
4.67486e-07
4.67488e-07
4.67482e-07
4.67484e-07
4.67486e-07
4.67482e-07
4.67483e-07
4.70151e-07
4.70118e-07
4.67486e-07
4.67483e-07
4.67482e-07
4.7012e-07
4.70151e-07
4.70117e-07
4.67486e-07
4.67486e-07
4.67483e-07
4.67483e-07
4.7015e-07
4.70115e-07
4.67485e-07
4.67488e-07
4.67482e-07
4.67484e-07
4.67486e-07
4.67482e-07
4.67483e-07
4.70152e-07
4.70117e-07
4.67485e-07
4.67483e-07
4.67482e-07
4.7012e-07
4.70151e-07
4.70117e-07
4.67486e-07
4.67486e-07
4.67483e-07
4.67483e-07
4.70149e-07
4.70116e-07
4.67485e-07
4.67488e-07
4.67482e-07
4.67484e-07
4.67486e-07
4.67482e-07
4.67483e-07
4.70151e-07
4.70118e-07
4.67486e-07
4.67483e-07
4.67482e-07
4.7012e-07
4.70151e-07
4.70117e-07
4.67486e-07
4.67486e-07
4.67483e-07
4.67483e-07
4.7015e-07
4.70116e-07
4.67486e-07
4.67488e-07
4.67482e-07
4.67484e-07
4.67486e-07
4.67482e-07
4.67483e-07
4.70151e-07
4.70117e-07
4.67485e-07
4.67483e-07
4.67482e-07
4.7012e-07
4.70151e-07
4.70117e-07
4.67486e-07
4.67486e-07
4.67483e-07
4.67483e-07
4.7015e-07
4.70116e-07
4.67486e-07
4.67488e-07
4.67482e-07
4.67484e-07
4.67486e-07
4.67482e-07
4.67483e-07
4.70151e-07
4.70117e-07
4.67485e-07
4.67483e-07
4.67482e-07
4.7012e-07
4.70151e-07
4.70117e-07
4.67486e-07
4.67486e-07
4.67483e-07
4.67483e-07
4.7015e-07
4.70116e-07
4.67486e-07
4.67488e-07
4.67482e-07
4.67484e-07
4.67486e-07
4.67482e-07
4.67483e-07
4.70151e-07
4.70117e-07
4.67486e-07
4.67483e-07
4.67482e-07
4.7012e-07
4.70151e-07
4.70117e-07
4.67486e-07
4.67486e-07
4.67483e-07
4.67483e-07
4.7015e-07
4.70116e-07
4.67486e-07
4.67488e-07
4.67482e-07
4.67484e-07
4.67486e-07
4.67482e-07
4.67483e-07
4.70151e-07
4.70118e-07
4.67485e-07
4.67483e-07
4.67482e-07
4.7012e-07
4.70151e-07
4.70117e-07
4.67486e-07
4.67486e-07
4.67483e-07
4.67483e-07
4.7015e-07
4.70116e-07
4.67486e-07
4.67488e-07
4.67482e-07
4.67484e-07
4.67486e-07
4.67482e-07
4.67483e-07
4.70152e-07
4.70118e-07
4.67485e-07
4.67483e-07
4.67482e-07
4.7012e-07
4.7015e-07
4.7012e-07
4.67486e-07
4.67486e-07
4.67488e-07
4.7015e-07
4.67486e-07
4.67488e-07
4.67487e-07
4.6749e-07
4.67486e-07
4.67488e-07
4.70152e-07
4.70121e-07
4.67486e-07
4.67488e-07
4.67487e-07
4.70125e-07
5.3599e-07
5.35848e-07
5.35977e-07
5.35977e-07
5.34573e-07
5.35548e-07
5.33635e-07
5.35958e-07
5.34573e-07
5.35548e-07
5.35958e-07
5.33635e-07
5.35299e-07
5.35987e-07
5.35987e-07
1.12617e-06
3.87989e-06
9.23721e-07
4.59869e-06
1.26054e-05
1.66365e-05
1.12621e-06
3.88011e-06
9.23736e-07
4.5991e-06
4.93699e-07
4.93699e-07
4.93699e-07
4.68122e-07
4.68121e-07
4.68122e-07
4.68122e-07
5.46029e-07
1.22502e-06
4.93738e-07
4.83895e-07
5.24221e-07
1.20302e-06
4.80432e-07
1.2607e-05
1.66385e-05
5.46034e-07
4.93739e-07
1.225e-06
4.83895e-07
5.24216e-07
4.80433e-07
1.20302e-06
2.52086e-06
2.52156e-06
4.83286e-07
2.36689e-06
2.36727e-06
1.07896e-06
5.34935e-06
1.10856e-06
5.46256e-06
1.86409e-05
1.8732e-05
1.07913e-06
5.34996e-06
1.10874e-06
5.4633e-06
4.66486e-07
4.66487e-07
4.66487e-07
4.65657e-07
4.65657e-07
4.65657e-07
4.65657e-07
5.42959e-07
9.96515e-07
4.66823e-07
4.68134e-07
5.5019e-07
9.38868e-07
4.66222e-07
1.86432e-05
1.87345e-05
5.42967e-07
4.66823e-07
9.96448e-07
4.68134e-07
5.50189e-07
4.66221e-07
9.3894e-07
1.80041e-06
1.80077e-06
4.70825e-07
1.69133e-06
1.69165e-06
1.07242e-06
5.47412e-06
1.07295e-06
5.47365e-06
1.87383e-05
1.87372e-05
1.07236e-06
5.47481e-06
1.07288e-06
5.47438e-06
4.65648e-07
4.65648e-07
4.65648e-07
4.65645e-07
4.65643e-07
4.65643e-07
4.65643e-07
5.40628e-07
9.26843e-07
4.65945e-07
4.67487e-07
5.40804e-07
9.26205e-07
4.65947e-07
1.87411e-05
1.87399e-05
5.4063e-07
4.65945e-07
9.26838e-07
4.67488e-07
5.4081e-07
4.65947e-07
9.26208e-07
1.67567e-06
1.67598e-06
4.7012e-07
1.67503e-06
1.67536e-06
1.0723e-06
5.47376e-06
1.07248e-06
5.47361e-06
1.87376e-05
1.8737e-05
1.07221e-06
5.47452e-06
1.07237e-06
5.47436e-06
4.65647e-07
4.65647e-07
4.65647e-07
4.65644e-07
4.65643e-07
4.65644e-07
4.65643e-07
5.40603e-07
9.26352e-07
4.65943e-07
4.67485e-07
5.40651e-07
9.26105e-07
4.65946e-07
1.87399e-05
1.87394e-05
5.40593e-07
4.65943e-07
9.26307e-07
4.67485e-07
5.40647e-07
4.65946e-07
9.26076e-07
1.67512e-06
1.67544e-06
4.70117e-07
1.67492e-06
1.67524e-06
1.0723e-06
5.47378e-06
1.07247e-06
5.47362e-06
1.87375e-05
1.8737e-05
1.07221e-06
5.47452e-06
1.07235e-06
5.47435e-06
4.65647e-07
4.65647e-07
4.65646e-07
4.65644e-07
4.65643e-07
4.65644e-07
4.65643e-07
5.406e-07
9.26338e-07
4.65943e-07
4.67485e-07
5.40648e-07
9.26101e-07
4.65946e-07
1.87397e-05
1.87394e-05
5.40596e-07
4.65943e-07
9.26286e-07
4.67485e-07
5.40647e-07
4.65946e-07
9.26069e-07
1.67512e-06
1.67543e-06
4.70117e-07
1.67492e-06
1.67524e-06
1.0723e-06
5.47377e-06
1.07247e-06
5.47362e-06
1.8738e-05
1.87375e-05
1.0722e-06
5.47451e-06
1.07235e-06
5.47434e-06
4.65647e-07
4.65647e-07
4.65647e-07
4.65644e-07
4.65643e-07
4.65643e-07
4.65643e-07
5.40599e-07
9.26337e-07
4.65943e-07
4.67485e-07
5.40649e-07
9.26101e-07
4.65946e-07
1.87397e-05
1.87394e-05
5.40595e-07
4.65943e-07
9.26285e-07
4.67485e-07
5.40646e-07
4.65946e-07
9.26069e-07
1.67512e-06
1.67543e-06
4.70117e-07
1.67492e-06
1.67524e-06
1.0723e-06
5.47374e-06
1.07248e-06
5.47364e-06
1.87382e-05
1.87374e-05
1.0722e-06
5.47452e-06
1.07235e-06
5.47434e-06
4.65647e-07
4.65647e-07
4.65647e-07
4.65644e-07
4.65643e-07
4.65643e-07
4.65643e-07
5.406e-07
9.26337e-07
4.65943e-07
4.67485e-07
5.40649e-07
9.26101e-07
4.65946e-07
1.87397e-05
1.87394e-05
5.40594e-07
4.65943e-07
9.26285e-07
4.67485e-07
5.40646e-07
4.65946e-07
9.26069e-07
1.67512e-06
1.67543e-06
4.70117e-07
1.67492e-06
1.67524e-06
1.0723e-06
5.47375e-06
1.07247e-06
5.47364e-06
1.87378e-05
1.87373e-05
1.0722e-06
5.47452e-06
1.07235e-06
5.47434e-06
4.65647e-07
4.65647e-07
4.65647e-07
4.65644e-07
4.65643e-07
4.65643e-07
4.65643e-07
5.406e-07
9.26337e-07
4.65943e-07
4.67485e-07
5.40649e-07
9.26101e-07
4.65946e-07
1.87397e-05
1.87394e-05
5.40595e-07
4.65943e-07
9.26285e-07
4.67485e-07
5.40646e-07
4.65946e-07
9.26069e-07
1.67512e-06
1.67543e-06
4.70117e-07
1.67492e-06
1.67524e-06
1.0723e-06
5.47374e-06
1.07247e-06
5.47364e-06
1.87378e-05
1.87373e-05
1.0722e-06
5.47452e-06
1.07235e-06
5.47434e-06
4.65647e-07
4.65647e-07
4.65647e-07
4.65644e-07
4.65643e-07
4.65643e-07
4.65643e-07
5.406e-07
9.26338e-07
4.65943e-07
4.67485e-07
5.4065e-07
9.26101e-07
4.65946e-07
1.87397e-05
1.87394e-05
5.40595e-07
4.65943e-07
9.26285e-07
4.67485e-07
5.40647e-07
4.65946e-07
9.26069e-07
1.67512e-06
1.67543e-06
4.70117e-07
1.67492e-06
1.67524e-06
1.0723e-06
5.47369e-06
1.07247e-06
5.47354e-06
1.87378e-05
1.87373e-05
1.0722e-06
5.47446e-06
1.07235e-06
5.47428e-06
4.65647e-07
4.65647e-07
4.65647e-07
4.65644e-07
4.65643e-07
4.65644e-07
4.65643e-07
5.40599e-07
9.26337e-07
4.65943e-07
4.67485e-07
5.40649e-07
9.26101e-07
4.65946e-07
1.87397e-05
1.87394e-05
5.40594e-07
4.65943e-07
9.26285e-07
4.67485e-07
5.40647e-07
4.65946e-07
9.26069e-07
1.67512e-06
1.67543e-06
4.70117e-07
1.67492e-06
1.67524e-06
1.0723e-06
5.47366e-06
1.07247e-06
5.47356e-06
1.87378e-05
1.87373e-05
1.0722e-06
5.47444e-06
1.07235e-06
5.47427e-06
4.65647e-07
4.65647e-07
4.65647e-07
4.65644e-07
4.65643e-07
4.65643e-07
4.65643e-07
5.406e-07
9.26337e-07
4.65943e-07
4.67485e-07
5.40649e-07
9.26101e-07
4.65946e-07
1.87397e-05
1.87394e-05
5.40595e-07
4.65943e-07
9.26285e-07
4.67485e-07
5.40647e-07
4.65946e-07
9.26069e-07
1.67512e-06
1.67543e-06
4.70117e-07
1.67492e-06
1.67524e-06
1.0723e-06
5.47367e-06
1.07248e-06
5.47356e-06
1.87378e-05
1.87373e-05
1.07221e-06
5.47444e-06
1.07235e-06
5.47426e-06
4.65647e-07
4.65647e-07
4.65647e-07
4.6565e-07
4.65655e-07
4.65649e-07
4.65649e-07
5.40599e-07
9.26338e-07
4.65943e-07
4.67483e-07
5.4065e-07
9.26101e-07
4.65946e-07
1.87397e-05
1.87394e-05
5.40594e-07
4.65943e-07
9.26286e-07
4.67485e-07
5.40646e-07
4.65946e-07
9.26069e-07
1.67512e-06
1.67544e-06
4.70117e-07
1.67493e-06
1.67525e-06
5.35299e-07
5.3599e-07
5.35988e-07
1.0914e-05
5.81348e-07
1.09153e-05
5.8134e-07
5.28202e-07
2.43125e-06
2.43219e-06
5.40832e-07
5.40829e-07
5.34573e-07
5.35548e-07
5.33635e-07
5.35959e-07
5.34573e-07
5.35548e-07
5.33634e-07
5.35959e-07
5.30398e-07
3.47191e-06
5.68207e-07
8.22919e-07
5.30398e-07
3.47193e-06
5.68206e-07
8.22941e-07
5.29519e-07
5.28349e-07
1.16743e-06
5.10144e-07
5.32664e-07
5.2773e-07
5.19204e-07
5.29519e-07
5.28349e-07
1.16758e-06
5.10144e-07
5.32663e-07
5.2773e-07
5.19208e-07
5.35299e-07
5.35989e-07
5.35988e-07
1.09142e-05
5.81327e-07
5.28202e-07
2.43174e-06
2.43188e-06
5.40833e-07
5.40829e-07
1.09149e-05
5.81321e-07
5.34573e-07
5.35548e-07
5.33635e-07
5.35959e-07
5.34573e-07
5.35548e-07
5.35959e-07
5.33635e-07
5.30398e-07
3.47225e-06
5.68204e-07
8.23081e-07
5.29519e-07
5.28349e-07
1.16771e-06
5.10144e-07
5.32663e-07
5.2773e-07
5.19213e-07
5.30398e-07
3.47234e-06
5.68202e-07
8.22975e-07
5.29519e-07
5.28349e-07
5.10144e-07
1.16763e-06
5.2773e-07
5.32663e-07
5.19207e-07
5.3599e-07
5.35849e-07
5.35977e-07
5.35977e-07
5.3599e-07
5.35849e-07
5.35977e-07
5.35977e-07
5.3599e-07
5.35849e-07
5.35977e-07
5.35977e-07
5.27789e-07
5.27891e-07
5.10282e-07
5.10282e-07
5.2776e-07
5.2776e-07
5.10344e-07
5.27789e-07
5.27891e-07
5.10282e-07
5.10282e-07
5.2776e-07
5.2776e-07
5.10345e-07
5.27789e-07
5.27891e-07
5.10282e-07
5.10282e-07
5.2776e-07
5.2776e-07
5.10345e-07
5.27789e-07
5.27891e-07
5.10282e-07
5.10282e-07
5.2776e-07
5.2776e-07
5.10345e-07
5.34573e-07
5.35548e-07
5.35959e-07
5.33635e-07
5.29519e-07
5.28349e-07
1.16766e-06
5.10145e-07
5.32662e-07
5.2773e-07
5.19211e-07
5.30398e-07
3.47213e-06
5.68198e-07
8.22999e-07
5.29519e-07
5.28349e-07
5.10144e-07
1.16752e-06
5.2773e-07
5.32662e-07
5.19207e-07
5.30398e-07
3.47227e-06
5.68203e-07
8.22921e-07
5.35299e-07
5.35987e-07
5.35986e-07
1.09155e-05
5.81337e-07
5.28202e-07
2.43203e-06
2.43184e-06
5.40829e-07
5.40826e-07
1.09153e-05
5.81316e-07
5.34573e-07
5.35548e-07
5.35959e-07
5.33635e-07
5.29519e-07
5.28349e-07
5.10145e-07
1.1676e-06
5.2773e-07
5.32661e-07
5.19209e-07
5.29519e-07
5.28349e-07
5.10144e-07
1.16772e-06
5.2773e-07
5.32663e-07
5.19212e-07
5.30398e-07
3.47229e-06
5.68197e-07
8.22953e-07
5.30398e-07
3.47231e-06
5.68208e-07
8.23048e-07
5.28202e-07
2.43166e-06
2.43233e-06
5.40827e-07
5.40828e-07
1.09152e-05
5.8132e-07
1.09154e-05
5.81334e-07
1.26051e-05
1.66357e-05
1.26067e-05
1.66386e-05
2.52081e-06
2.52156e-06
4.83283e-07
2.36667e-06
2.36743e-06
1.85439e-05
1.75116e-05
1.85469e-05
1.75144e-05
4.79862e-07
1.88835e-06
1.88901e-06
2.27417e-06
2.27493e-06
1.12609e-06
3.87978e-06
9.23739e-07
4.59874e-06
5.46018e-07
1.2249e-06
4.93738e-07
4.83896e-07
5.24233e-07
1.20297e-06
4.80431e-07
5.46016e-07
1.22508e-06
4.93738e-07
4.83903e-07
5.24234e-07
1.2032e-06
4.80431e-07
1.14259e-06
5.25235e-06
4.78402e-06
1.12533e-06
1.14263e-06
5.25244e-06
4.78385e-06
1.12537e-06
5.50702e-07
4.75976e-07
1.03074e-06
4.6846e-07
1.16829e-06
4.72379e-07
5.51761e-07
5.50705e-07
4.75982e-07
1.03093e-06
4.6846e-07
1.16843e-06
4.72379e-07
5.51767e-07
2.5213e-06
2.52102e-06
4.83282e-07
2.36719e-06
2.36686e-06
1.26059e-05
1.66367e-05
1.85458e-05
1.75137e-05
4.79861e-07
1.88887e-06
1.88857e-06
2.27471e-06
2.27449e-06
1.85447e-05
1.75125e-05
5.46038e-07
1.22516e-06
4.93738e-07
4.839e-07
5.2424e-07
1.20323e-06
4.80431e-07
1.12616e-06
3.88037e-06
9.23585e-07
4.59953e-06
5.46033e-07
4.93739e-07
1.22513e-06
4.83905e-07
5.24228e-07
4.80431e-07
1.20325e-06
1.14273e-06
5.25288e-06
4.78426e-06
1.12545e-06
5.50718e-07
4.7598e-07
1.03091e-06
4.68461e-07
1.16847e-06
4.72379e-07
5.51782e-07
1.14269e-06
5.25327e-06
4.78465e-06
1.1254e-06
5.50715e-07
4.75984e-07
4.68461e-07
1.03096e-06
4.7238e-07
1.16849e-06
5.5178e-07
1.12614e-06
3.87993e-06
9.23643e-07
4.59893e-06
5.46026e-07
4.93738e-07
1.22498e-06
4.83896e-07
5.24212e-07
4.80431e-07
1.20309e-06
1.12614e-06
3.88023e-06
9.23517e-07
4.59927e-06
5.50704e-07
4.75969e-07
1.03073e-06
4.68461e-07
1.1683e-06
4.72376e-07
5.5177e-07
1.14268e-06
5.25247e-06
4.78366e-06
1.12542e-06
5.507e-07
4.75976e-07
4.6846e-07
1.03078e-06
4.72379e-07
1.16826e-06
5.51763e-07
1.14258e-06
5.25275e-06
4.78437e-06
1.1254e-06
2.52148e-06
2.52097e-06
4.83284e-07
2.36735e-06
2.36671e-06
1.26067e-05
1.66377e-05
1.85482e-05
1.75159e-05
4.79863e-07
1.88901e-06
1.88862e-06
2.27485e-06
2.27431e-06
1.85461e-05
1.75135e-05
5.46039e-07
4.93739e-07
1.22516e-06
4.83901e-07
5.24229e-07
4.80431e-07
1.20322e-06
1.12625e-06
3.88025e-06
9.23574e-07
4.59931e-06
1.1263e-06
3.8802e-06
9.23693e-07
4.59915e-06
5.5071e-07
4.7597e-07
4.68461e-07
1.03079e-06
4.72377e-07
1.16835e-06
5.5177e-07
5.50716e-07
4.75979e-07
4.68461e-07
1.03093e-06
4.72379e-07
1.16843e-06
5.51781e-07
1.14257e-06
5.25298e-06
4.78439e-06
1.12541e-06
1.14263e-06
5.25303e-06
4.7842e-06
1.12549e-06
1.26063e-05
1.66376e-05
1.26068e-05
1.66384e-05
4.7986e-07
1.88842e-06
1.88884e-06
2.27414e-06
2.27494e-06
1.85453e-05
1.7513e-05
1.85468e-05
1.75143e-05
1.86386e-05
1.87303e-05
1.86418e-05
1.87335e-05
1.80009e-06
1.80071e-06
4.70825e-07
1.69113e-06
1.69162e-06
1.87374e-05
1.87357e-05
1.87403e-05
1.87387e-05
4.70566e-07
1.67571e-06
1.67605e-06
1.68277e-06
1.68311e-06
1.07898e-06
5.34949e-06
1.10855e-06
5.46279e-06
5.42951e-07
9.9637e-07
4.66824e-07
4.68137e-07
5.50172e-07
9.38893e-07
4.66223e-07
5.42956e-07
9.96524e-07
4.66824e-07
4.68138e-07
5.50184e-07
9.39023e-07
4.66223e-07
1.07659e-06
5.47404e-06
5.47046e-06
1.07293e-06
1.0766e-06
5.47431e-06
5.47065e-06
1.07293e-06
5.42123e-07
4.67694e-07
9.26858e-07
4.65959e-07
9.33585e-07
4.66019e-07
5.40807e-07
5.42125e-07
4.67695e-07
9.26902e-07
4.65959e-07
9.33661e-07
4.66019e-07
5.40807e-07
1.80053e-06
1.80028e-06
4.70824e-07
1.69153e-06
1.69101e-06
1.86394e-05
1.87304e-05
1.8738e-05
1.87372e-05
4.70564e-07
1.67595e-06
1.67579e-06
1.68302e-06
1.6829e-06
1.87371e-05
1.87367e-05
5.42967e-07
9.96603e-07
4.66824e-07
4.68136e-07
5.50195e-07
9.39053e-07
4.66223e-07
1.07912e-06
5.35032e-06
1.10865e-06
5.46361e-06
5.42968e-07
4.66824e-07
9.96579e-07
4.68139e-07
5.50193e-07
4.66223e-07
9.39055e-07
1.0766e-06
5.47471e-06
5.47113e-06
1.07292e-06
5.42135e-07
4.67693e-07
9.26935e-07
4.65959e-07
9.33701e-07
4.66019e-07
5.40814e-07
1.0766e-06
5.47512e-06
5.47152e-06
1.07292e-06
5.42139e-07
4.67696e-07
4.65959e-07
9.27021e-07
4.66019e-07
9.33786e-07
5.40818e-07
1.07905e-06
5.34951e-06
1.10856e-06
5.46279e-06
5.42956e-07
4.66824e-07
9.96425e-07
4.68137e-07
5.50174e-07
4.66223e-07
9.38981e-07
1.079e-06
5.34986e-06
1.10857e-06
5.4631e-06
5.42122e-07
4.67691e-07
9.26848e-07
4.6596e-07
9.33606e-07
4.6602e-07
5.40804e-07
1.07655e-06
5.47432e-06
5.4707e-06
1.07292e-06
5.42123e-07
4.67694e-07
4.65959e-07
9.26871e-07
4.66019e-07
9.33629e-07
5.40808e-07
1.07662e-06
5.47468e-06
5.47102e-06
1.07295e-06
1.80077e-06
1.80009e-06
4.70826e-07
1.69156e-06
1.69117e-06
1.86401e-05
1.87324e-05
1.87406e-05
1.87405e-05
4.70566e-07
1.67627e-06
1.67572e-06
1.6834e-06
1.68276e-06
1.87392e-05
1.87379e-05
5.42964e-07
4.66824e-07
9.9652e-07
4.68137e-07
5.50188e-07
4.66223e-07
9.39072e-07
1.07912e-06
5.34996e-06
1.10866e-06
5.46321e-06
1.07903e-06
5.34996e-06
1.10867e-06
5.46336e-06
5.42128e-07
4.67692e-07
4.6596e-07
9.26843e-07
4.6602e-07
9.33588e-07
5.40812e-07
5.42128e-07
4.67693e-07
4.65959e-07
9.26939e-07
4.66019e-07
9.33692e-07
5.40812e-07
1.07659e-06
5.4747e-06
5.47106e-06
1.07291e-06
1.07661e-06
5.47491e-06
5.47126e-06
1.07292e-06
1.86403e-05
1.87325e-05
1.86418e-05
1.87337e-05
4.70565e-07
1.67581e-06
1.67613e-06
1.68284e-06
1.68314e-06
1.87393e-05
1.8738e-05
1.87405e-05
1.87392e-05
1.87363e-05
1.87353e-05
1.87388e-05
1.87386e-05
1.67571e-06
1.67588e-06
4.70119e-07
1.67515e-06
1.67539e-06
1.8735e-05
1.87341e-05
1.87386e-05
1.87371e-05
4.70152e-07
1.67513e-06
1.67527e-06
1.67528e-06
1.6754e-06
1.07243e-06
5.47412e-06
1.07293e-06
5.47392e-06
5.40626e-07
9.26843e-07
4.65948e-07
4.67489e-07
5.40804e-07
9.26236e-07
4.65946e-07
5.40629e-07
9.26849e-07
4.65948e-07
4.67489e-07
5.40805e-07
9.26248e-07
4.65946e-07
1.07249e-06
5.47353e-06
5.47343e-06
1.07231e-06
1.07251e-06
5.47372e-06
5.47372e-06
1.07232e-06
5.40666e-07
4.67483e-07
9.26145e-07
4.65942e-07
9.26379e-07
4.65942e-07
5.40602e-07
5.40668e-07
4.67483e-07
9.26144e-07
4.65943e-07
9.26368e-07
4.65943e-07
5.40604e-07
1.67583e-06
1.67581e-06
4.70118e-07
1.67535e-06
1.67517e-06
1.87358e-05
1.87352e-05
1.87364e-05
1.87357e-05
4.70151e-07
1.67522e-06
1.67515e-06
1.67535e-06
1.67534e-06
1.87353e-05
1.87341e-05
5.40629e-07
9.26881e-07
4.65949e-07
4.67488e-07
5.40813e-07
9.26302e-07
4.65946e-07
1.0724e-06
5.47496e-06
1.07287e-06
5.47473e-06
5.40635e-07
4.65949e-07
9.27003e-07
4.6749e-07
5.40815e-07
4.65946e-07
9.26388e-07
1.07238e-06
5.47432e-06
5.47417e-06
1.07222e-06
5.40667e-07
4.67482e-07
9.26222e-07
4.65943e-07
9.26449e-07
4.65943e-07
5.40598e-07
1.07242e-06
5.47452e-06
5.47454e-06
1.07227e-06
5.40673e-07
4.67484e-07
4.65943e-07
9.26296e-07
4.65943e-07
9.26532e-07
5.40607e-07
1.07243e-06
5.4742e-06
1.07292e-06
5.47394e-06
5.40629e-07
4.65949e-07
9.26816e-07
4.67489e-07
5.40804e-07
4.65946e-07
9.26203e-07
1.07244e-06
5.47448e-06
1.07295e-06
5.47429e-06
5.40665e-07
4.67484e-07
9.26122e-07
4.65943e-07
9.2635e-07
4.65946e-07
5.40602e-07
1.07251e-06
5.47372e-06
5.47376e-06
1.07233e-06
5.40667e-07
4.67483e-07
4.65943e-07
9.26098e-07
4.65943e-07
9.26323e-07
5.40603e-07
1.07252e-06
5.47411e-06
5.47406e-06
1.07233e-06
1.67627e-06
1.67563e-06
4.7012e-07
1.67571e-06
1.67511e-06
1.87376e-05
1.87376e-05
1.8739e-05
1.87386e-05
4.70152e-07
1.67562e-06
1.67499e-06
1.67584e-06
1.67511e-06
1.87376e-05
1.87363e-05
5.40628e-07
4.65949e-07
9.26881e-07
4.67488e-07
5.40808e-07
4.65946e-07
9.26276e-07
1.07239e-06
5.47454e-06
1.07286e-06
5.47437e-06
1.0724e-06
5.47472e-06
1.07287e-06
5.47451e-06
5.40667e-07
4.67485e-07
4.65944e-07
9.26101e-07
4.65946e-07
9.26324e-07
5.40601e-07
5.40665e-07
4.67482e-07
4.65942e-07
9.26173e-07
4.65942e-07
9.26398e-07
5.40597e-07
1.07242e-06
5.47419e-06
5.47417e-06
1.07225e-06
1.07242e-06
5.47434e-06
5.47429e-06
1.07225e-06
1.87378e-05
1.87376e-05
1.8739e-05
1.87387e-05
4.70154e-07
1.67496e-06
1.67528e-06
1.67503e-06
1.67536e-06
1.87378e-05
1.87363e-05
1.87388e-05
1.87373e-05
1.87343e-05
1.87347e-05
1.87381e-05
1.87387e-05
1.67529e-06
1.67527e-06
4.70118e-07
1.67508e-06
1.67525e-06
1.87353e-05
1.87332e-05
1.87385e-05
1.87372e-05
4.70153e-07
1.67492e-06
1.67524e-06
1.67508e-06
1.67525e-06
1.0723e-06
5.47354e-06
1.07242e-06
5.47374e-06
5.40599e-07
9.26327e-07
4.65946e-07
4.67486e-07
5.40647e-07
9.26138e-07
4.65946e-07
5.40602e-07
9.26301e-07
4.65947e-07
4.67487e-07
5.40649e-07
9.2613e-07
4.65946e-07
1.0724e-06
5.47358e-06
5.47341e-06
1.07229e-06
1.07241e-06
5.4737e-06
5.47355e-06
1.0723e-06
5.40646e-07
4.67484e-07
9.26084e-07
4.65943e-07
9.26286e-07
4.65944e-07
5.40602e-07
5.4065e-07
4.67484e-07
9.26125e-07
4.65942e-07
9.26289e-07
4.65943e-07
5.40603e-07
1.67524e-06
1.67538e-06
4.70116e-07
1.67522e-06
1.67509e-06
1.87341e-05
1.87348e-05
1.87362e-05
1.87355e-05
4.70151e-07
1.67519e-06
1.67511e-06
1.67523e-06
1.67529e-06
1.8735e-05
1.87336e-05
5.40592e-07
9.26374e-07
4.65947e-07
4.67485e-07
5.40641e-07
9.26185e-07
4.65946e-07
1.07224e-06
5.47433e-06
1.07232e-06
5.47453e-06
5.40603e-07
4.65947e-07
9.26473e-07
4.67488e-07
5.4065e-07
4.65946e-07
9.26285e-07
1.07228e-06
5.47432e-06
5.47418e-06
1.07219e-06
5.40639e-07
4.67483e-07
9.26158e-07
4.65943e-07
9.26341e-07
4.65943e-07
5.40592e-07
1.07231e-06
5.47448e-06
5.47433e-06
1.07224e-06
5.4065e-07
4.67485e-07
4.65943e-07
9.26277e-07
4.65943e-07
9.26465e-07
5.40602e-07
1.07232e-06
5.47353e-06
1.07243e-06
5.47371e-06
5.40602e-07
4.65947e-07
9.26252e-07
4.67486e-07
5.40647e-07
4.65946e-07
9.2608e-07
1.07231e-06
5.47392e-06
1.07243e-06
5.4741e-06
5.40649e-07
4.67484e-07
9.26103e-07
4.65943e-07
9.26283e-07
4.65946e-07
5.406e-07
1.07242e-06
5.47367e-06
5.47351e-06
1.07231e-06
5.40649e-07
4.67484e-07
4.65942e-07
9.26079e-07
4.65943e-07
9.26242e-07
5.406e-07
1.07242e-06
5.47409e-06
5.47389e-06
1.07231e-06
1.67581e-06
1.675e-06
4.70118e-07
1.67561e-06
1.67497e-06
1.87371e-05
1.87374e-05
1.87388e-05
1.87381e-05
4.70154e-07
1.67558e-06
1.67495e-06
1.67582e-06
1.67497e-06
1.87374e-05
1.87359e-05
5.40589e-07
4.65946e-07
9.2633e-07
4.67485e-07
5.4064e-07
4.65946e-07
9.26156e-07
1.07222e-06
5.47401e-06
1.07231e-06
5.47418e-06
1.07222e-06
5.47415e-06
1.0723e-06
5.47433e-06
5.40639e-07
4.67485e-07
4.65943e-07
9.26071e-07
4.65945e-07
9.26232e-07
5.40596e-07
5.40637e-07
4.67483e-07
4.65942e-07
9.26155e-07
4.65943e-07
9.2632e-07
5.40593e-07
1.07229e-06
5.47416e-06
5.47398e-06
1.07222e-06
1.07229e-06
5.47431e-06
5.47412e-06
1.07222e-06
1.87373e-05
1.87376e-05
1.87384e-05
1.87387e-05
4.70153e-07
1.67494e-06
1.67526e-06
1.67494e-06
1.67525e-06
1.87376e-05
1.87362e-05
1.87387e-05
1.87373e-05
1.87349e-05
1.87355e-05
1.87381e-05
1.87386e-05
1.67492e-06
1.67525e-06
4.70118e-07
1.67487e-06
1.67524e-06
1.87354e-05
1.8734e-05
1.87385e-05
1.87372e-05
4.70153e-07
1.67486e-06
1.67524e-06
1.67487e-06
1.67525e-06
1.0723e-06
5.47354e-06
1.0724e-06
5.47372e-06
5.40598e-07
9.26243e-07
4.65946e-07
4.67486e-07
5.4065e-07
9.26065e-07
4.65946e-07
5.40603e-07
9.26288e-07
4.65946e-07
4.67486e-07
5.40651e-07
9.26126e-07
4.65946e-07
1.0724e-06
5.47359e-06
5.47343e-06
1.07229e-06
1.0724e-06
5.4737e-06
5.47352e-06
1.0723e-06
5.40643e-07
4.67484e-07
9.26048e-07
4.65943e-07
9.26225e-07
4.65944e-07
5.40602e-07
5.40648e-07
4.67484e-07
9.26124e-07
4.65943e-07
9.26286e-07
4.65943e-07
5.406e-07
1.67522e-06
1.67531e-06
4.70116e-07
1.6752e-06
1.67512e-06
1.87343e-05
1.87348e-05
1.87367e-05
1.87355e-05
4.70151e-07
1.67518e-06
1.67509e-06
1.67522e-06
1.67533e-06
1.8735e-05
1.87336e-05
5.40593e-07
9.26323e-07
4.65946e-07
4.67485e-07
5.40639e-07
9.26182e-07
4.65946e-07
1.07223e-06
5.4743e-06
1.0723e-06
5.47452e-06
5.40602e-07
4.65946e-07
9.2646e-07
4.67488e-07
5.40649e-07
4.65946e-07
9.26281e-07
1.07227e-06
5.47432e-06
5.47416e-06
1.07219e-06
5.40639e-07
4.67483e-07
9.26185e-07
4.65943e-07
9.26339e-07
4.65943e-07
5.40591e-07
1.07231e-06
5.47447e-06
5.47432e-06
1.07224e-06
5.40648e-07
4.67485e-07
4.65943e-07
9.26276e-07
4.65943e-07
9.26462e-07
5.40602e-07
1.07231e-06
5.4735e-06
1.07241e-06
5.47371e-06
5.40601e-07
4.65946e-07
9.26241e-07
4.67486e-07
5.40645e-07
4.65946e-07
9.26077e-07
1.07231e-06
5.47393e-06
1.07241e-06
5.47408e-06
5.40647e-07
4.67484e-07
9.26102e-07
4.65943e-07
9.26281e-07
4.65945e-07
5.406e-07
1.07241e-06
5.47367e-06
5.47351e-06
1.07231e-06
5.40648e-07
4.67484e-07
4.65942e-07
9.26078e-07
4.65943e-07
9.26239e-07
5.40601e-07
1.07241e-06
5.47409e-06
5.47387e-06
1.07231e-06
1.67574e-06
1.67497e-06
4.70118e-07
1.67563e-06
1.67496e-06
1.87369e-05
1.87373e-05
1.87387e-05
1.87381e-05
4.70153e-07
1.67558e-06
1.67495e-06
1.67582e-06
1.67497e-06
1.87374e-05
1.87359e-05
5.40592e-07
4.65946e-07
9.26319e-07
4.67485e-07
5.40641e-07
4.65946e-07
9.26152e-07
1.07222e-06
5.47402e-06
1.07229e-06
5.47418e-06
1.07221e-06
5.47415e-06
1.07228e-06
5.4743e-06
5.4064e-07
4.67485e-07
4.65943e-07
9.2607e-07
4.65945e-07
9.26227e-07
5.40595e-07
5.40639e-07
4.67483e-07
4.65943e-07
9.26154e-07
4.65943e-07
9.26317e-07
5.40592e-07
1.07229e-06
5.47416e-06
5.47398e-06
1.07222e-06
1.07229e-06
5.47431e-06
5.47409e-06
1.07222e-06
1.87372e-05
1.87375e-05
1.87383e-05
1.87387e-05
4.70153e-07
1.67494e-06
1.67526e-06
1.67494e-06
1.67526e-06
1.87376e-05
1.87361e-05
1.87387e-05
1.87373e-05
1.87348e-05
1.87351e-05
1.87381e-05
1.87386e-05
1.67488e-06
1.67525e-06
4.70118e-07
1.67488e-06
1.67524e-06
1.87352e-05
1.87337e-05
1.87385e-05
1.87372e-05
4.70153e-07
1.67488e-06
1.67524e-06
1.67489e-06
1.67525e-06
1.0723e-06
5.47358e-06
1.0724e-06
5.47374e-06
5.40598e-07
9.26213e-07
4.65946e-07
4.67486e-07
5.40651e-07
9.26052e-07
4.65946e-07
5.40601e-07
9.2629e-07
4.65946e-07
4.67486e-07
5.40649e-07
9.26129e-07
4.65946e-07
1.0724e-06
5.47355e-06
5.47341e-06
1.07229e-06
1.0724e-06
5.4737e-06
5.47354e-06
1.0723e-06
5.40643e-07
4.67484e-07
9.26043e-07
4.65943e-07
9.26213e-07
4.65944e-07
5.40603e-07
5.40647e-07
4.67484e-07
9.26127e-07
4.65943e-07
9.26289e-07
4.65943e-07
5.40601e-07
1.67524e-06
1.67531e-06
4.70116e-07
1.67525e-06
1.67512e-06
1.87344e-05
1.87348e-05
1.87371e-05
1.8736e-05
4.70152e-07
1.67522e-06
1.67509e-06
1.67526e-06
1.67533e-06
1.8735e-05
1.87336e-05
5.40593e-07
9.26347e-07
4.65946e-07
4.67485e-07
5.40639e-07
9.26198e-07
4.65946e-07
1.07223e-06
5.4743e-06
1.0723e-06
5.47452e-06
5.40603e-07
4.65946e-07
9.26459e-07
4.67488e-07
5.4065e-07
4.65946e-07
9.2628e-07
1.07227e-06
5.47432e-06
5.47416e-06
1.07219e-06
5.40638e-07
4.67483e-07
9.26192e-07
4.65943e-07
9.26353e-07
4.65943e-07
5.40592e-07
1.07231e-06
5.47447e-06
5.47432e-06
1.07223e-06
5.40648e-07
4.67485e-07
4.65943e-07
9.26276e-07
4.65943e-07
9.26461e-07
5.40602e-07
1.07231e-06
5.4735e-06
1.07241e-06
5.47371e-06
5.406e-07
4.65946e-07
9.26241e-07
4.67486e-07
5.40646e-07
4.65946e-07
9.26076e-07
1.07231e-06
5.47395e-06
1.07241e-06
5.47408e-06
5.40645e-07
4.67484e-07
9.26101e-07
4.65943e-07
9.2628e-07
4.65945e-07
5.406e-07
1.07241e-06
5.47367e-06
5.47351e-06
1.07231e-06
5.40647e-07
4.67484e-07
4.65943e-07
9.26078e-07
4.65943e-07
9.26239e-07
5.406e-07
1.07241e-06
5.47409e-06
5.47387e-06
1.07231e-06
1.67574e-06
1.67497e-06
4.70118e-07
1.67563e-06
1.67496e-06
1.8737e-05
1.87373e-05
1.87387e-05
1.87381e-05
4.70153e-07
1.67558e-06
1.67495e-06
1.67582e-06
1.67497e-06
1.87374e-05
1.87359e-05
5.40592e-07
4.65946e-07
9.26318e-07
4.67485e-07
5.4064e-07
4.65946e-07
9.26152e-07
1.07222e-06
5.47402e-06
1.07229e-06
5.47417e-06
1.07221e-06
5.47418e-06
1.07228e-06
5.4743e-06
5.4064e-07
4.67485e-07
4.65944e-07
9.2607e-07
4.65946e-07
9.26227e-07
5.40596e-07
5.40639e-07
4.67483e-07
4.65942e-07
9.26153e-07
4.65943e-07
9.26316e-07
5.40592e-07
1.07229e-06
5.47416e-06
5.47398e-06
1.07222e-06
1.07229e-06
5.47431e-06
5.47409e-06
1.07221e-06
1.87372e-05
1.87375e-05
1.87383e-05
1.87387e-05
4.70153e-07
1.67494e-06
1.67526e-06
1.67494e-06
1.67526e-06
1.87376e-05
1.87362e-05
1.87387e-05
1.87373e-05
1.87348e-05
1.87351e-05
1.87381e-05
1.87386e-05
1.6749e-06
1.67525e-06
4.70118e-07
1.67489e-06
1.67524e-06
1.87353e-05
1.87338e-05
1.87385e-05
1.87372e-05
4.70153e-07
1.67489e-06
1.67524e-06
1.67491e-06
1.67525e-06
1.0723e-06
5.47356e-06
1.0724e-06
5.47372e-06
5.40598e-07
9.2621e-07
4.65946e-07
4.67486e-07
5.40651e-07
9.26051e-07
4.65946e-07
5.40601e-07
9.2629e-07
4.65946e-07
4.67486e-07
5.40649e-07
9.26126e-07
4.65946e-07
1.0724e-06
5.47356e-06
5.47344e-06
1.07229e-06
1.0724e-06
5.47369e-06
5.47352e-06
1.0723e-06
5.40643e-07
4.67484e-07
9.26044e-07
4.65943e-07
9.26213e-07
4.65944e-07
5.40602e-07
5.40648e-07
4.67484e-07
9.26123e-07
4.65943e-07
9.26286e-07
4.65944e-07
5.40601e-07
1.67525e-06
1.67531e-06
4.70116e-07
1.67521e-06
1.67512e-06
1.87344e-05
1.87348e-05
1.87366e-05
1.87359e-05
4.70151e-07
1.67518e-06
1.67509e-06
1.67523e-06
1.67533e-06
1.8735e-05
1.87336e-05
5.40593e-07
9.26352e-07
4.65946e-07
4.67485e-07
5.4064e-07
9.26199e-07
4.65946e-07
1.07223e-06
5.4743e-06
1.0723e-06
5.47452e-06
5.40602e-07
4.65946e-07
9.26459e-07
4.67487e-07
5.4065e-07
4.65946e-07
9.2628e-07
1.07227e-06
5.47432e-06
5.47416e-06
1.07219e-06
5.40638e-07
4.67483e-07
9.26193e-07
4.65943e-07
9.26354e-07
4.65943e-07
5.40592e-07
1.07231e-06
5.47447e-06
5.47432e-06
1.07223e-06
5.40648e-07
4.67485e-07
4.65942e-07
9.26276e-07
4.65943e-07
9.26461e-07
5.40602e-07
1.07231e-06
5.4735e-06
1.07241e-06
5.47371e-06
5.40601e-07
4.65946e-07
9.2624e-07
4.67486e-07
5.40646e-07
4.65946e-07
9.26076e-07
1.07231e-06
5.47395e-06
1.07241e-06
5.47408e-06
5.40646e-07
4.67484e-07
9.26102e-07
4.65943e-07
9.2628e-07
4.65945e-07
5.406e-07
1.07241e-06
5.47367e-06
5.4735e-06
1.07231e-06
5.40647e-07
4.67484e-07
4.65943e-07
9.26078e-07
4.65943e-07
9.26239e-07
5.406e-07
1.07241e-06
5.47409e-06
5.47387e-06
1.07231e-06
1.67574e-06
1.67497e-06
4.70118e-07
1.67563e-06
1.67496e-06
1.8737e-05
1.87373e-05
1.87387e-05
1.87381e-05
4.70153e-07
1.67558e-06