/*--------------------------------*- C++ -*----------------------------------*\
| =========                 |                                                 |
| \\      /  F ield         | OpenFOAM: The Open Source CFD Toolbox           |
|  \\    /   O peration     | Version:  2206                                  |
|   \\  /    A nd           | Website:  www.openfoam.com                      |
|    \\/     M anipulation  |                                                 |
\*---------------------------------------------------------------------------*/
FoamFile
{
    version     2.0;
    format      ascii;
    arch        "LSB;label=32;scalar=64";
    class       volScalarField;
    location    "5.5";
    object      k;
}
// * * * * * * * * * * * * * * * * * * * * * * * * * * * * * * * * * * * * * //

dimensions      [0 2 -2 0 0 0 0];

internalField   nonuniform List<scalar> 
28688
(
3.58218e-05
3.58485e-05
3.58485e-05
3.6018e-05
3.47765e-05
3.47598e-05
3.47598e-05
3.47342e-05
3.47464e-05
3.47403e-05
3.47403e-05
3.47299e-05
3.47463e-05
3.47404e-05
3.47404e-05
3.47303e-05
3.47463e-05
3.47404e-05
3.47404e-05
3.47303e-05
3.47463e-05
3.47404e-05
3.47404e-05
3.47303e-05
3.47463e-05
3.47404e-05
3.47404e-05
3.47303e-05
3.47463e-05
3.47404e-05
3.47404e-05
3.47303e-05
3.47463e-05
3.47404e-05
3.47404e-05
3.47303e-05
3.47463e-05
3.47404e-05
3.47404e-05
3.47303e-05
3.47463e-05
3.47404e-05
3.47404e-05
3.47303e-05
3.47463e-05
3.47404e-05
3.47404e-05
3.47303e-05
3.63127e-05
3.63245e-05
3.63245e-05
3.63127e-05
3.63245e-05
3.63245e-05
3.6444e-05
3.6444e-05
3.6444e-05
3.6444e-05
3.63245e-05
3.63245e-05
3.63127e-05
3.63245e-05
3.63245e-05
3.63127e-05
3.6018e-05
3.47568e-05
3.58485e-05
3.58485e-05
3.48147e-05
3.48147e-05
3.6018e-05
3.47568e-05
3.58485e-05
3.58485e-05
3.48147e-05
3.48147e-05
3.58485e-05
3.48148e-05
3.48147e-05
3.6018e-05
3.47568e-05
3.58485e-05
3.48148e-05
3.48147e-05
3.47568e-05
3.47345e-05
3.47298e-05
3.47599e-05
3.47599e-05
3.47403e-05
3.47402e-05
3.47345e-05
3.47298e-05
3.47599e-05
3.47599e-05
3.47403e-05
3.47402e-05
3.47599e-05
3.47403e-05
3.47402e-05
3.47345e-05
3.47297e-05
3.47599e-05
3.47403e-05
3.47402e-05
3.47299e-05
3.47302e-05
3.47306e-05
3.47404e-05
3.47404e-05
3.47404e-05
3.47404e-05
3.47301e-05
3.47305e-05
3.47404e-05
3.47404e-05
3.47404e-05
3.47404e-05
3.47404e-05
3.47404e-05
3.47404e-05
3.47301e-05
3.47305e-05
3.47404e-05
3.47404e-05
3.47404e-05
3.47306e-05
3.47308e-05
3.47305e-05
3.47406e-05
3.47406e-05
3.47404e-05
3.47404e-05
3.47308e-05
3.47305e-05
3.47406e-05
3.47406e-05
3.47404e-05
3.47403e-05
3.47406e-05
3.47404e-05
3.47404e-05
3.47308e-05
3.47305e-05
3.47406e-05
3.47404e-05
3.47404e-05
3.47306e-05
3.47308e-05
3.47305e-05
3.47405e-05
3.47405e-05
3.47404e-05
3.47404e-05
3.47308e-05
3.47305e-05
3.47405e-05
3.47405e-05
3.47404e-05
3.47404e-05
3.47405e-05
3.47404e-05
3.47404e-05
3.47308e-05
3.47305e-05
3.47405e-05
3.47404e-05
3.47404e-05
3.47306e-05
3.47308e-05
3.47305e-05
3.47405e-05
3.47405e-05
3.47404e-05
3.47404e-05
3.47308e-05
3.47305e-05
3.47405e-05
3.47405e-05
3.47404e-05
3.47404e-05
3.47405e-05
3.47404e-05
3.47404e-05
3.47308e-05
3.47305e-05
3.47405e-05
3.47404e-05
3.47404e-05
3.47306e-05
3.47308e-05
3.47305e-05
3.47405e-05
3.47405e-05
3.47404e-05
3.47404e-05
3.47308e-05
3.47305e-05
3.47405e-05
3.47405e-05
3.47404e-05
3.47404e-05
3.47405e-05
3.47404e-05
3.47404e-05
3.47308e-05
3.47305e-05
3.47405e-05
3.47404e-05
3.47404e-05
3.47306e-05
3.47308e-05
3.47305e-05
3.47405e-05
3.47405e-05
3.47404e-05
3.47404e-05
3.47308e-05
3.47305e-05
3.47405e-05
3.47405e-05
3.47404e-05
3.47404e-05
3.47405e-05
3.47404e-05
3.47404e-05
3.47308e-05
3.47305e-05
3.47405e-05
3.47404e-05
3.47404e-05
3.47306e-05
3.47308e-05
3.47305e-05
3.47405e-05
3.47405e-05
3.47404e-05
3.47404e-05
3.47308e-05
3.47305e-05
3.47405e-05
3.47405e-05
3.47404e-05
3.47404e-05
3.47405e-05
3.47404e-05
3.47404e-05
3.47308e-05
3.47305e-05
3.47405e-05
3.47404e-05
3.47404e-05
3.47306e-05
3.47308e-05
3.47305e-05
3.47405e-05
3.47405e-05
3.47404e-05
3.47404e-05
3.47308e-05
3.47305e-05
3.47405e-05
3.47405e-05
3.47404e-05
3.47404e-05
3.47405e-05
3.47404e-05
3.47404e-05
3.47308e-05
3.47305e-05
3.47405e-05
3.47404e-05
3.47404e-05
3.47306e-05
3.47308e-05
3.47306e-05
3.47405e-05
3.47405e-05
3.47404e-05
3.47404e-05
3.47308e-05
3.47305e-05
3.47405e-05
3.47405e-05
3.47404e-05
3.47404e-05
3.47405e-05
3.47404e-05
3.47404e-05
3.47308e-05
3.47305e-05
3.47405e-05
3.47404e-05
3.47404e-05
3.47306e-05
3.47308e-05
3.47311e-05
3.47405e-05
3.47405e-05
3.47406e-05
3.47308e-05
3.47405e-05
3.47405e-05
3.47406e-05
3.47406e-05
3.47405e-05
3.47406e-05
3.47308e-05
3.47311e-05
3.47405e-05
3.47407e-05
3.47406e-05
3.47313e-05
3.73879e-05
3.73834e-05
3.73874e-05
3.73874e-05
3.73699e-05
3.73765e-05
3.73043e-05
3.73865e-05
3.73699e-05
3.73765e-05
3.73865e-05
3.73043e-05
3.73701e-05
3.72959e-05
3.72959e-05
3.58843e-05
4.08653e-05
3.65915e-05
4.51028e-05
5.5107e-05
6.4998e-05
3.58844e-05
4.08643e-05
3.65918e-05
4.5103e-05
3.58218e-05
3.58218e-05
3.58218e-05
3.48383e-05
3.48383e-05
3.48383e-05
3.48383e-05
3.52372e-05
3.5614e-05
3.58238e-05
3.53007e-05
3.60573e-05
3.41518e-05
3.53088e-05
5.51092e-05
6.50006e-05
3.52371e-05
3.58238e-05
3.56141e-05
3.53007e-05
3.60573e-05
3.53089e-05
3.4152e-05
3.64983e-05
3.64982e-05
3.52146e-05
3.39059e-05
3.39057e-05
3.49947e-05
4.98795e-05
3.49444e-05
5.05977e-05
7.01653e-05
7.03973e-05
3.49951e-05
4.98802e-05
3.49443e-05
5.05991e-05
3.47765e-05
3.47765e-05
3.47765e-05
3.47467e-05
3.47467e-05
3.47467e-05
3.47467e-05
3.46306e-05
3.43162e-05
3.47746e-05
3.47445e-05
3.46281e-05
3.48214e-05
3.47537e-05
7.01674e-05
7.03997e-05
3.46306e-05
3.47746e-05
3.43161e-05
3.47445e-05
3.46281e-05
3.47537e-05
3.48217e-05
3.39955e-05
3.39948e-05
3.47266e-05
3.51549e-05
3.51547e-05
3.50497e-05
5.06719e-05
3.50478e-05
5.0669e-05
7.04141e-05
7.04112e-05
3.50496e-05
5.06737e-05
3.50475e-05
5.06708e-05
3.47465e-05
3.47465e-05
3.47465e-05
3.47464e-05
3.47464e-05
3.47464e-05
3.47463e-05
3.4647e-05
3.49521e-05
3.47452e-05
3.47405e-05
3.46458e-05
3.49545e-05
3.47453e-05
7.04166e-05
7.04135e-05
3.46469e-05
3.47452e-05
3.49521e-05
3.47405e-05
3.46458e-05
3.47453e-05
3.49545e-05
3.54034e-05
3.54035e-05
3.47305e-05
3.54076e-05
3.54076e-05
3.50506e-05
5.06696e-05
3.5051e-05
5.06687e-05
7.04121e-05
7.04107e-05
3.50509e-05
5.06715e-05
3.50511e-05
5.06705e-05
3.47465e-05
3.47465e-05
3.47465e-05
3.47464e-05
3.47463e-05
3.47463e-05
3.47463e-05
3.46475e-05
3.49558e-05
3.47452e-05
3.47405e-05
3.46474e-05
3.49554e-05
3.47453e-05
7.04134e-05
7.04122e-05
3.46476e-05
3.47452e-05
3.49558e-05
3.47405e-05
3.46475e-05
3.47453e-05
3.49555e-05
3.54089e-05
3.54089e-05
3.47306e-05
3.54088e-05
3.54088e-05
3.50506e-05
5.06699e-05
3.5051e-05
5.06689e-05
7.04118e-05
7.04105e-05
3.50509e-05
5.06715e-05
3.50512e-05
5.06704e-05
3.47465e-05
3.47465e-05
3.47465e-05
3.47464e-05
3.47463e-05
3.47463e-05
3.47463e-05
3.46475e-05
3.49559e-05
3.47452e-05
3.47405e-05
3.46475e-05
3.49554e-05
3.47453e-05
7.04131e-05
7.04122e-05
3.46475e-05
3.47452e-05
3.49559e-05
3.47405e-05
3.46475e-05
3.47453e-05
3.49555e-05
3.54089e-05
3.54089e-05
3.47306e-05
3.54087e-05
3.54088e-05
3.50506e-05
5.06698e-05
3.5051e-05
5.06689e-05
7.04131e-05
7.04114e-05
3.50509e-05
5.06715e-05
3.50512e-05
5.06704e-05
3.47465e-05
3.47465e-05
3.47465e-05
3.47464e-05
3.47463e-05
3.47463e-05
3.47463e-05
3.46475e-05
3.49559e-05
3.47452e-05
3.47405e-05
3.46475e-05
3.49554e-05
3.47453e-05
7.0413e-05
7.04122e-05
3.46475e-05
3.47452e-05
3.49559e-05
3.47405e-05
3.46475e-05
3.47453e-05
3.49555e-05
3.54089e-05
3.54089e-05
3.47306e-05
3.54087e-05
3.54088e-05
3.50506e-05
5.06697e-05
3.5051e-05
5.0669e-05
7.04133e-05
7.04113e-05
3.50509e-05
5.06715e-05
3.50512e-05
5.06704e-05
3.47465e-05
3.47465e-05
3.47465e-05
3.47464e-05
3.47463e-05
3.47463e-05
3.47463e-05
3.46475e-05
3.49559e-05
3.47452e-05
3.47405e-05
3.46475e-05
3.49554e-05
3.47453e-05
7.0413e-05
7.04122e-05
3.46475e-05
3.47452e-05
3.49559e-05
3.47405e-05
3.46475e-05
3.47453e-05
3.49555e-05
3.54089e-05
3.54089e-05
3.47306e-05
3.54087e-05
3.54088e-05
3.50506e-05
5.06697e-05
3.5051e-05
5.0669e-05
7.04122e-05
7.0411e-05
3.50509e-05
5.06715e-05
3.50512e-05
5.06704e-05
3.47465e-05
3.47465e-05
3.47465e-05
3.47464e-05
3.47463e-05
3.47463e-05
3.47463e-05
3.46475e-05
3.49559e-05
3.47452e-05
3.47405e-05
3.46475e-05
3.49554e-05
3.47453e-05
7.04131e-05
7.04122e-05
3.46475e-05
3.47452e-05
3.49559e-05
3.47405e-05
3.46475e-05
3.47453e-05
3.49555e-05
3.54089e-05
3.54089e-05
3.47306e-05
3.54087e-05
3.54088e-05
3.50506e-05
5.06697e-05
3.5051e-05
5.0669e-05
7.04122e-05
7.0411e-05
3.50509e-05
5.06715e-05
3.50512e-05
5.06704e-05
3.47465e-05
3.47465e-05
3.47465e-05
3.47464e-05
3.47463e-05
3.47463e-05
3.47463e-05
3.46475e-05
3.49559e-05
3.47452e-05
3.47405e-05
3.46475e-05
3.49554e-05
3.47453e-05
7.04131e-05
7.04122e-05
3.46475e-05
3.47452e-05
3.49559e-05
3.47405e-05
3.46475e-05
3.47453e-05
3.49555e-05
3.54089e-05
3.54089e-05
3.47306e-05
3.54087e-05
3.54088e-05
3.50506e-05
5.06695e-05
3.5051e-05
5.06686e-05
7.04122e-05
7.04111e-05
3.50509e-05
5.06713e-05
3.50512e-05
5.06701e-05
3.47465e-05
3.47465e-05
3.47465e-05
3.47464e-05
3.47463e-05
3.47463e-05
3.47463e-05
3.46475e-05
3.49559e-05
3.47452e-05
3.47405e-05
3.46475e-05
3.49554e-05
3.47453e-05
7.04131e-05
7.04122e-05
3.46475e-05
3.47452e-05
3.49559e-05
3.47405e-05
3.46475e-05
3.47453e-05
3.49555e-05
3.54089e-05
3.54089e-05
3.47306e-05
3.54087e-05
3.54088e-05
3.50506e-05
5.06695e-05
3.5051e-05
5.06689e-05
7.04123e-05
7.04111e-05
3.50509e-05
5.06711e-05
3.50512e-05
5.06701e-05
3.47465e-05
3.47465e-05
3.47465e-05
3.47464e-05
3.47463e-05
3.47463e-05
3.47463e-05
3.46475e-05
3.49559e-05
3.47452e-05
3.47405e-05
3.46475e-05
3.49554e-05
3.47453e-05
7.04131e-05
7.04122e-05
3.46475e-05
3.47452e-05
3.49559e-05
3.47405e-05
3.46475e-05
3.47453e-05
3.49555e-05
3.54089e-05
3.5409e-05
3.47306e-05
3.54087e-05
3.54088e-05
3.50506e-05
5.06695e-05
3.5051e-05
5.06688e-05
7.04122e-05
7.0411e-05
3.50509e-05
5.06711e-05
3.50512e-05
5.06701e-05
3.47465e-05
3.47465e-05
3.47465e-05
3.47466e-05
3.47469e-05
3.47466e-05
3.47466e-05
3.46475e-05
3.49559e-05
3.47452e-05
3.47404e-05
3.46475e-05
3.49554e-05
3.47453e-05
7.0413e-05
7.04121e-05
3.46475e-05
3.47452e-05
3.49559e-05
3.47405e-05
3.46475e-05
3.47453e-05
3.49555e-05
3.54089e-05
3.5409e-05
3.47306e-05
3.54087e-05
3.54088e-05
3.73701e-05
3.72959e-05
3.72959e-05
5.31055e-05
3.71933e-05
5.31075e-05
3.71933e-05
3.70996e-05
3.72402e-05
3.72412e-05
3.71762e-05
3.71762e-05
3.73699e-05
3.73764e-05
3.73043e-05
3.73865e-05
3.73699e-05
3.73764e-05
3.73043e-05
3.73865e-05
3.71732e-05
3.94099e-05
3.71679e-05
3.67226e-05
3.71732e-05
3.94098e-05
3.71679e-05
3.67227e-05
3.70969e-05
3.71035e-05
3.6039e-05
3.64408e-05
3.71635e-05
3.70902e-05
3.63127e-05
3.70969e-05
3.71035e-05
3.60389e-05
3.64408e-05
3.71635e-05
3.70902e-05
3.63127e-05
3.73701e-05
3.72959e-05
3.72959e-05
5.31056e-05
3.71933e-05
3.70996e-05
3.7241e-05
3.7241e-05
3.71761e-05
3.71762e-05
5.31072e-05
3.71933e-05
3.73699e-05
3.73764e-05
3.73043e-05
3.73865e-05
3.73699e-05
3.73764e-05
3.73865e-05
3.73043e-05
3.71732e-05
3.94103e-05
3.71679e-05
3.67228e-05
3.70969e-05
3.71035e-05
3.60389e-05
3.64408e-05
3.71635e-05
3.70902e-05
3.63127e-05
3.71732e-05
3.94106e-05
3.71679e-05
3.67225e-05
3.70969e-05
3.71035e-05
3.64408e-05
3.60391e-05
3.70902e-05
3.71635e-05
3.63127e-05
3.73879e-05
3.73834e-05
3.73874e-05
3.73874e-05
3.73879e-05
3.73834e-05
3.73874e-05
3.73874e-05
3.73879e-05
3.73834e-05
3.73874e-05
3.73874e-05
3.70913e-05
3.70947e-05
3.64436e-05
3.64436e-05
3.70905e-05
3.70905e-05
3.64457e-05
3.70913e-05
3.70947e-05
3.64436e-05
3.64436e-05
3.70905e-05
3.70905e-05
3.64457e-05
3.70913e-05
3.70947e-05
3.64436e-05
3.64436e-05
3.70905e-05
3.70905e-05
3.64457e-05
3.70913e-05
3.70947e-05
3.64436e-05
3.64436e-05
3.70905e-05
3.70905e-05
3.64457e-05
3.73699e-05
3.73764e-05
3.73865e-05
3.73043e-05
3.70969e-05
3.71035e-05
3.60388e-05
3.64408e-05
3.71635e-05
3.70902e-05
3.63127e-05
3.71732e-05
3.941e-05
3.7168e-05
3.67228e-05
3.70969e-05
3.71035e-05
3.64408e-05
3.60389e-05
3.70902e-05
3.71635e-05
3.63127e-05
3.71732e-05
3.94105e-05
3.7168e-05
3.67225e-05
3.73701e-05
3.72959e-05
3.72959e-05
5.31079e-05
3.71933e-05
3.70996e-05
3.72411e-05
3.7241e-05
3.71762e-05
3.71762e-05
5.3108e-05
3.71933e-05
3.73699e-05
3.73764e-05
3.73865e-05
3.73043e-05
3.70969e-05
3.71035e-05
3.64408e-05
3.60389e-05
3.70903e-05
3.71635e-05
3.63127e-05
3.70969e-05
3.71035e-05
3.64408e-05
3.60389e-05
3.70902e-05
3.71635e-05
3.63127e-05
3.71732e-05
3.94105e-05
3.71679e-05
3.67226e-05
3.71732e-05
3.94105e-05
3.71679e-05
3.67228e-05
3.70996e-05
3.72406e-05
3.72415e-05
3.71762e-05
3.71762e-05
5.31078e-05
3.71933e-05
5.31077e-05
3.71933e-05
5.51069e-05
6.49981e-05
5.51088e-05
6.50016e-05
3.64981e-05
3.64985e-05
3.52146e-05
3.39061e-05
3.39057e-05
6.99205e-05
6.72675e-05
6.99239e-05
6.72709e-05
3.50137e-05
3.34291e-05
3.3428e-05
3.32672e-05
3.32664e-05
3.58842e-05
4.08641e-05
3.65917e-05
4.51022e-05
3.52371e-05
3.56142e-05
3.58238e-05
3.53007e-05
3.60573e-05
3.41522e-05
3.53088e-05
3.52372e-05
3.56143e-05
3.58238e-05
3.53006e-05
3.60573e-05
3.41522e-05
3.53088e-05
3.55957e-05
4.92667e-05
4.62931e-05
3.49755e-05
3.55962e-05
4.92664e-05
4.62913e-05
3.49755e-05
3.50094e-05
3.49674e-05
3.40576e-05
3.48365e-05
3.39219e-05
3.49908e-05
3.46546e-05
3.50095e-05
3.49674e-05
3.40575e-05
3.48364e-05
3.39217e-05
3.49908e-05
3.46546e-05
3.64982e-05
3.64978e-05
3.52146e-05
3.39064e-05
3.39055e-05
5.51082e-05
6.50001e-05
6.99234e-05
6.72709e-05
3.50137e-05
3.34283e-05
3.34285e-05
3.32669e-05
3.32666e-05
6.99222e-05
6.72695e-05
3.52372e-05
3.56142e-05
3.58238e-05
3.53006e-05
3.60573e-05
3.41518e-05
3.53088e-05
3.58841e-05
4.08655e-05
3.65914e-05
4.51048e-05
3.52371e-05
3.58238e-05
3.56142e-05
3.53006e-05
3.60573e-05
3.53088e-05
3.4152e-05
3.5596e-05
4.92671e-05
4.62921e-05
3.49756e-05
3.50095e-05
3.49674e-05
3.40571e-05
3.48365e-05
3.39215e-05
3.49908e-05
3.46546e-05
3.55958e-05
4.92683e-05
4.62935e-05
3.49757e-05
3.50094e-05
3.49674e-05
3.48364e-05
3.40575e-05
3.49908e-05
3.39215e-05
3.46545e-05
3.58843e-05
4.08638e-05
3.65916e-05
4.51034e-05
3.52371e-05
3.58238e-05
3.56144e-05
3.53007e-05
3.60573e-05
3.53088e-05
3.4152e-05
3.58842e-05
4.08654e-05
3.65913e-05
4.51043e-05
3.50094e-05
3.49673e-05
3.40572e-05
3.48365e-05
3.39215e-05
3.49907e-05
3.46545e-05
3.55959e-05
4.92665e-05
4.62898e-05
3.49755e-05
3.50094e-05
3.49674e-05
3.48365e-05
3.40575e-05
3.49908e-05
3.39216e-05
3.46546e-05
3.55956e-05
4.9267e-05
4.62932e-05
3.49757e-05
3.64978e-05
3.64981e-05
3.52146e-05
3.39055e-05
3.39051e-05
5.51092e-05
6.50009e-05
6.99258e-05
6.72734e-05
3.50137e-05
3.34284e-05
3.34289e-05
3.32666e-05
3.3267e-05
6.99235e-05
6.72697e-05
3.52372e-05
3.58238e-05
3.56143e-05
3.53006e-05
3.60573e-05
3.53088e-05
3.41518e-05
3.58846e-05
4.08651e-05
3.65914e-05
4.51046e-05
3.58849e-05
4.08646e-05
3.65916e-05
4.51031e-05
3.50094e-05
3.49673e-05
3.48365e-05
3.40575e-05
3.49907e-05
3.39216e-05
3.46545e-05
3.50095e-05
3.49674e-05
3.48365e-05
3.40572e-05
3.49908e-05
3.39215e-05
3.46546e-05
3.55952e-05
4.92678e-05
4.62931e-05
3.49757e-05
3.55955e-05
4.92677e-05
4.62915e-05
3.49756e-05
5.51088e-05
6.50006e-05
5.51088e-05
6.50015e-05
3.50137e-05
3.34289e-05
3.34281e-05
3.3267e-05
3.32667e-05
6.99221e-05
6.72693e-05
6.99237e-05
6.72709e-05
7.01616e-05
7.03954e-05
7.0165e-05
7.03988e-05
3.39965e-05
3.39957e-05
3.47266e-05
3.51546e-05
3.51542e-05
7.0413e-05
7.04092e-05
7.04166e-05
7.04126e-05
3.47279e-05
3.53963e-05
3.53963e-05
3.5287e-05
3.52869e-05
3.49946e-05
4.98796e-05
3.49443e-05
5.05981e-05
3.46306e-05
3.43169e-05
3.47747e-05
3.47445e-05
3.46284e-05
3.48215e-05
3.47537e-05
3.46305e-05
3.43167e-05
3.47748e-05
3.47445e-05
3.46283e-05
3.48217e-05
3.47537e-05
3.50196e-05
5.06714e-05
5.06483e-05
3.5044e-05
3.50195e-05
5.06727e-05
5.06486e-05
3.5044e-05
3.46373e-05
3.47408e-05
3.49463e-05
3.47455e-05
3.48889e-05
3.47471e-05
3.4645e-05
3.46372e-05
3.47408e-05
3.49464e-05
3.47454e-05
3.48889e-05
3.47471e-05
3.46449e-05
3.39956e-05
3.39957e-05
3.47265e-05
3.51544e-05
3.51539e-05
7.01632e-05
7.03953e-05
7.04133e-05
7.04111e-05
3.47279e-05
3.53962e-05
3.53964e-05
3.52868e-05
3.5287e-05
7.04125e-05
7.04112e-05
3.46306e-05
3.43167e-05
3.47747e-05
3.47445e-05
3.46283e-05
3.48216e-05
3.47537e-05
3.4995e-05
4.98813e-05
3.49444e-05
5.05995e-05
3.46305e-05
3.47748e-05
3.43168e-05
3.47445e-05
3.46283e-05
3.47537e-05
3.48216e-05
3.50193e-05
5.0673e-05
5.06494e-05
3.5044e-05
3.46372e-05
3.47408e-05
3.49462e-05
3.47455e-05
3.48888e-05
3.47471e-05
3.46449e-05
3.50193e-05
5.06739e-05
5.06502e-05
3.50441e-05
3.46372e-05
3.47408e-05
3.47454e-05
3.49463e-05
3.47471e-05
3.48891e-05
3.46449e-05
3.49947e-05
4.98795e-05
3.49443e-05
5.0598e-05
3.46306e-05
3.47747e-05
3.43168e-05
3.47446e-05
3.46284e-05
3.47537e-05
3.48218e-05
3.49947e-05
4.98804e-05
3.49444e-05
5.05983e-05
3.46372e-05
3.47409e-05
3.49464e-05
3.47455e-05
3.4889e-05
3.47472e-05
3.4645e-05
3.50193e-05
5.06725e-05
5.06487e-05
3.50441e-05
3.46373e-05
3.47408e-05
3.47455e-05
3.49463e-05
3.47471e-05
3.48889e-05
3.4645e-05
3.50195e-05
5.06731e-05
5.06491e-05
3.5044e-05
3.3996e-05
3.3996e-05
3.47265e-05
3.51543e-05
3.51544e-05
7.01632e-05
7.03975e-05
7.04153e-05
7.04147e-05
3.47279e-05
3.53962e-05
3.53967e-05
3.52872e-05
3.5287e-05
7.04154e-05
7.04119e-05
3.46306e-05
3.47747e-05
3.43165e-05
3.47446e-05
3.46283e-05
3.47537e-05
3.48217e-05
3.4995e-05
4.98807e-05
3.49444e-05
5.05989e-05
3.49947e-05
4.98802e-05
3.49443e-05
5.05991e-05
3.46372e-05
3.47409e-05
3.47455e-05
3.49463e-05
3.47472e-05
3.48888e-05
3.4645e-05
3.46373e-05
3.47408e-05
3.47455e-05
3.49464e-05
3.47471e-05
3.48889e-05
3.4645e-05
3.50193e-05
5.06733e-05
5.06493e-05
3.50441e-05
3.50194e-05
5.06737e-05
5.06497e-05
3.50441e-05
7.01636e-05
7.03974e-05
7.01654e-05
7.03987e-05
3.4728e-05
3.53965e-05
3.53966e-05
3.52869e-05
3.52869e-05
7.04153e-05
7.04118e-05
7.04167e-05
7.04131e-05
7.04102e-05
7.04076e-05
7.04129e-05
7.04122e-05
3.54038e-05
3.54034e-05
3.47305e-05
3.54074e-05
3.54075e-05
7.04073e-05
7.04047e-05
7.04122e-05
7.04086e-05
3.47308e-05
3.54078e-05
3.54085e-05
3.54084e-05
3.54084e-05
3.50496e-05
5.06715e-05
3.50478e-05
5.06703e-05
3.4647e-05
3.49523e-05
3.47453e-05
3.47404e-05
3.46461e-05
3.49546e-05
3.47453e-05
3.4647e-05
3.49522e-05
3.47453e-05
3.47404e-05
3.46461e-05
3.49547e-05
3.47453e-05
3.50508e-05
5.06682e-05
5.06677e-05
3.50507e-05
3.50508e-05
5.06691e-05
5.06691e-05
3.50505e-05
3.46475e-05
3.47404e-05
3.49553e-05
3.47452e-05
3.4956e-05
3.47452e-05
3.46476e-05
3.46474e-05
3.47404e-05
3.49556e-05
3.47452e-05
3.4956e-05
3.47452e-05
3.46475e-05
3.54033e-05
3.54037e-05
3.47305e-05
3.54074e-05
3.54069e-05
7.04094e-05
7.04078e-05
7.04093e-05
7.04076e-05
3.47308e-05
3.54084e-05
3.54074e-05
3.54084e-05
3.54079e-05
7.04078e-05
7.04049e-05
3.4647e-05
3.4952e-05
3.47453e-05
3.47404e-05
3.46461e-05
3.49546e-05
3.47453e-05
3.50494e-05
5.06729e-05
3.50475e-05
5.06715e-05
3.46469e-05
3.47453e-05
3.49524e-05
3.47404e-05
3.4646e-05
3.47453e-05
3.49547e-05
3.50505e-05
5.06703e-05
5.06695e-05
3.50508e-05
3.46475e-05
3.47404e-05
3.49556e-05
3.47452e-05
3.49561e-05
3.47452e-05
3.46476e-05
3.50504e-05
5.06702e-05
5.06704e-05
3.50505e-05
3.46474e-05
3.47404e-05
3.47452e-05
3.49554e-05
3.47452e-05
3.4956e-05
3.46475e-05
3.50496e-05
5.06718e-05
3.50478e-05
5.06702e-05
3.4647e-05
3.47453e-05
3.4952e-05
3.47404e-05
3.46461e-05
3.47453e-05
3.49545e-05
3.50495e-05
5.06718e-05
3.50477e-05
5.06707e-05
3.46475e-05
3.47405e-05
3.49554e-05
3.47453e-05
3.49559e-05
3.47453e-05
3.46475e-05
3.50507e-05
5.06688e-05
5.06691e-05
3.50506e-05
3.46474e-05
3.47404e-05
3.47452e-05
3.49554e-05
3.47452e-05
3.49557e-05
3.46476e-05
3.50506e-05
5.06696e-05
5.06693e-05
3.50505e-05
3.54036e-05
3.54038e-05
3.47305e-05
3.54073e-05
3.54075e-05
7.04116e-05
7.04113e-05
7.04112e-05
7.04102e-05
3.47308e-05
3.54077e-05
3.54084e-05
3.54083e-05
3.54082e-05
7.04115e-05
7.04081e-05
3.4647e-05
3.47453e-05
3.49521e-05
3.47404e-05
3.46461e-05
3.47453e-05
3.49546e-05
3.50494e-05
5.06721e-05
3.50475e-05
5.06709e-05
3.50494e-05
5.06725e-05
3.50475e-05
5.06713e-05
3.46474e-05
3.47405e-05
3.47453e-05
3.49554e-05
3.47453e-05
3.49557e-05
3.46475e-05
3.46474e-05
3.47404e-05
3.47452e-05
3.49555e-05
3.47452e-05
3.49558e-05
3.46476e-05
3.50503e-05
5.06698e-05
5.06697e-05
3.50506e-05
3.50503e-05
5.06702e-05
5.067e-05
3.50506e-05
7.04115e-05
7.04111e-05
7.04128e-05
7.04121e-05
3.4731e-05
3.54086e-05
3.54087e-05
3.54084e-05
3.54084e-05
7.04115e-05
7.04079e-05
7.04123e-05
7.04087e-05
7.04054e-05
7.04065e-05
7.04111e-05
7.04125e-05
3.54082e-05
3.54091e-05
3.47306e-05
3.54078e-05
3.54086e-05
7.04084e-05
7.04034e-05
7.0412e-05
7.04088e-05
3.4731e-05
3.54081e-05
3.54085e-05
3.54083e-05
3.54091e-05
3.50505e-05
5.0668e-05
3.50512e-05
5.06692e-05
3.46476e-05
3.49563e-05
3.47454e-05
3.47406e-05
3.4648e-05
3.49554e-05
3.47453e-05
3.46475e-05
3.49565e-05
3.47453e-05
3.47406e-05
3.46479e-05
3.49557e-05
3.47453e-05
3.50514e-05
5.06687e-05
5.06676e-05
3.50507e-05
3.50512e-05
5.06689e-05
5.0668e-05
3.50506e-05
3.46479e-05
3.47404e-05
3.49554e-05
3.47452e-05
3.49563e-05
3.47452e-05
3.46476e-05
3.46478e-05
3.47404e-05
3.49556e-05
3.47452e-05
3.49565e-05
3.47452e-05
3.46476e-05
3.5409e-05
3.54079e-05
3.47306e-05
3.54086e-05
3.54072e-05
7.0405e-05
7.04067e-05
7.04088e-05
7.0407e-05
3.4731e-05
3.54083e-05
3.54075e-05
3.5409e-05
3.54079e-05
7.04072e-05
7.04038e-05
3.46477e-05
3.49565e-05
3.47454e-05
3.47406e-05
3.4648e-05
3.49556e-05
3.47453e-05
3.50506e-05
5.0669e-05
3.50511e-05
5.06702e-05
3.46476e-05
3.47453e-05
3.49564e-05
3.47405e-05
3.46479e-05
3.47453e-05
3.49554e-05
3.50516e-05
5.06703e-05
5.06694e-05
3.5051e-05
3.4648e-05
3.47404e-05
3.49555e-05
3.47452e-05
3.49564e-05
3.47452e-05
3.46477e-05
3.50513e-05
5.06699e-05
5.0669e-05
3.50507e-05
3.46479e-05
3.47404e-05
3.47452e-05
3.49555e-05
3.47452e-05
3.49564e-05
3.46476e-05
3.50505e-05
5.06676e-05
3.50512e-05
5.06688e-05
3.46475e-05
3.47453e-05
3.49562e-05
3.47406e-05
3.46479e-05
3.47453e-05
3.49555e-05
3.50504e-05
5.06684e-05
3.50511e-05
5.06695e-05
3.46479e-05
3.47405e-05
3.49555e-05
3.47452e-05
3.49563e-05
3.47453e-05
3.46475e-05
3.50512e-05
5.06685e-05
5.06675e-05
3.50507e-05
3.46479e-05
3.47404e-05
3.47452e-05
3.49554e-05
3.47452e-05
3.49563e-05
3.46476e-05
3.50512e-05
5.06694e-05
5.06682e-05
3.50506e-05
3.54082e-05
3.5409e-05
3.47305e-05
3.54077e-05
3.54085e-05
7.04102e-05
7.04108e-05
7.04106e-05
7.04091e-05
3.4731e-05
3.54079e-05
3.54085e-05
3.54083e-05
3.5409e-05
7.04108e-05
7.04073e-05
3.46476e-05
3.47453e-05
3.49564e-05
3.47406e-05
3.4648e-05
3.47453e-05
3.49556e-05
3.50507e-05
5.06686e-05
3.50513e-05
5.06697e-05
3.50507e-05
5.0669e-05
3.50512e-05
5.06701e-05
3.46479e-05
3.47405e-05
3.47452e-05
3.49556e-05
3.47453e-05
3.49564e-05
3.46476e-05
3.46479e-05
3.47404e-05
3.47452e-05
3.49556e-05
3.47452e-05
3.49564e-05
3.46477e-05
3.50513e-05
5.06696e-05
5.06685e-05
3.50508e-05
3.50513e-05
5.067e-05
5.06688e-05
3.50508e-05
7.04104e-05
7.0411e-05
7.04113e-05
7.04121e-05
3.47311e-05
3.54088e-05
3.54088e-05
3.54092e-05
3.54093e-05
7.0411e-05
7.04075e-05
7.04121e-05
7.04086e-05
7.04075e-05
7.04089e-05
7.0411e-05
7.04124e-05
3.54087e-05
3.54091e-05
3.47306e-05
3.54085e-05
3.54086e-05
7.04088e-05
7.04054e-05
7.0412e-05
7.04087e-05
3.4731e-05
3.54086e-05
3.54085e-05
3.5409e-05
3.54091e-05
3.50505e-05
5.06679e-05
3.50512e-05
5.06691e-05
3.46476e-05
3.49562e-05
3.47453e-05
3.47405e-05
3.46479e-05
3.49554e-05
3.47453e-05
3.46475e-05
3.49565e-05
3.47453e-05
3.47405e-05
3.46479e-05
3.49557e-05
3.47453e-05
3.50514e-05
5.06687e-05
5.06678e-05
3.50507e-05
3.50513e-05
5.06689e-05
5.06679e-05
3.50506e-05
3.46479e-05
3.47404e-05
3.49555e-05
3.47452e-05
3.49563e-05
3.47452e-05
3.46476e-05
3.46478e-05
3.47404e-05
3.49556e-05
3.47452e-05
3.49565e-05
3.47452e-05
3.46476e-05
3.54089e-05
3.54081e-05
3.47306e-05
3.54085e-05
3.54072e-05
7.04055e-05
7.04066e-05
7.04099e-05
7.0407e-05
3.4731e-05
3.54084e-05
3.54075e-05
3.54089e-05
3.54078e-05
7.04072e-05
7.04037e-05
3.46477e-05
3.49564e-05
3.47453e-05
3.47405e-05
3.4648e-05
3.49557e-05
3.47453e-05
3.50506e-05
5.06688e-05
3.50512e-05
5.06702e-05
3.46476e-05
3.47453e-05
3.49564e-05
3.47405e-05
3.46479e-05
3.47453e-05
3.49555e-05
3.50516e-05
5.06703e-05
5.06693e-05
3.5051e-05
3.4648e-05
3.47404e-05
3.49557e-05
3.47452e-05
3.49566e-05
3.47452e-05
3.46477e-05
3.50513e-05
5.06699e-05
5.0669e-05
3.50507e-05
3.46479e-05
3.47404e-05
3.47452e-05
3.49555e-05
3.47452e-05
3.49564e-05
3.46476e-05
3.50505e-05
5.06674e-05
3.50513e-05
5.06687e-05
3.46475e-05
3.47453e-05
3.49563e-05
3.47405e-05
3.46479e-05
3.47453e-05
3.49555e-05
3.50505e-05
5.06684e-05
3.50512e-05
5.06694e-05
3.46479e-05
3.47405e-05
3.49555e-05
3.47452e-05
3.49563e-05
3.47453e-05
3.46475e-05
3.50512e-05
5.06685e-05
5.06675e-05
3.50507e-05
3.46479e-05
3.47405e-05
3.47452e-05
3.49554e-05
3.47452e-05
3.49563e-05
3.46476e-05
3.50512e-05
5.06694e-05
5.06681e-05
3.50506e-05
3.54085e-05
3.54091e-05
3.47306e-05
3.54079e-05
3.54086e-05
7.04098e-05
7.04107e-05
7.04106e-05
7.04091e-05
3.4731e-05
3.54079e-05
3.54086e-05
3.54084e-05
3.54091e-05
7.04108e-05
7.04072e-05
3.46476e-05
3.47453e-05
3.49564e-05
3.47405e-05
3.4648e-05
3.47453e-05
3.49556e-05
3.50506e-05
5.06687e-05
3.50513e-05
5.06697e-05
3.50507e-05
5.0669e-05
3.50513e-05
5.067e-05
3.46479e-05
3.47405e-05
3.47452e-05
3.49556e-05
3.47453e-05
3.49564e-05
3.46475e-05
3.46479e-05
3.47405e-05
3.47452e-05
3.49556e-05
3.47452e-05
3.49564e-05
3.46477e-05
3.50513e-05
5.06696e-05
5.06685e-05
3.50508e-05
3.50513e-05
5.067e-05
5.06687e-05
3.50508e-05
7.041e-05
7.04109e-05
7.04112e-05
7.04121e-05
3.47311e-05
3.54087e-05
3.54088e-05
3.54092e-05
3.54093e-05
7.0411e-05
7.04075e-05
7.04121e-05
7.04086e-05
7.04077e-05
7.04083e-05
7.0411e-05
7.04124e-05
3.54092e-05
3.54091e-05
3.47306e-05
3.54085e-05
3.54086e-05
7.04086e-05
7.04049e-05
7.0412e-05
7.04087e-05
3.4731e-05
3.54084e-05
3.54085e-05
3.54088e-05
3.54091e-05
3.50505e-05
5.06682e-05
3.50513e-05
5.06692e-05
3.46476e-05
3.49563e-05
3.47453e-05
3.47405e-05
3.4648e-05
3.49555e-05
3.47453e-05
3.46475e-05
3.49566e-05
3.47453e-05
3.47405e-05
3.46479e-05
3.49557e-05
3.47453e-05
3.50514e-05
5.06685e-05
5.06676e-05
3.50508e-05
3.50513e-05
5.06689e-05
5.0668e-05
3.50506e-05
3.46479e-05
3.47404e-05
3.49554e-05
3.47452e-05
3.49564e-05
3.47452e-05
3.46476e-05
3.46478e-05
3.47404e-05
3.49557e-05
3.47452e-05
3.49566e-05
3.47452e-05
3.46476e-05
3.5409e-05
3.54081e-05
3.47306e-05
3.54087e-05
3.54073e-05
7.04056e-05
7.04066e-05
7.04104e-05
7.04078e-05
3.4731e-05
3.54086e-05
3.54075e-05
3.54091e-05
3.54078e-05
7.04072e-05
7.04037e-05
3.46477e-05
3.49565e-05
3.47453e-05
3.47405e-05
3.4648e-05
3.49557e-05
3.47453e-05
3.50506e-05
5.06688e-05
3.50512e-05
5.06702e-05
3.46476e-05
3.47453e-05
3.49564e-05
3.47405e-05
3.46479e-05
3.47453e-05
3.49555e-05
3.50516e-05
5.06703e-05
5.06693e-05
3.5051e-05
3.4648e-05
3.47404e-05
3.49556e-05
3.47452e-05
3.49565e-05
3.47452e-05
3.46477e-05
3.50513e-05
5.06699e-05
5.0669e-05
3.50507e-05
3.46479e-05
3.47404e-05
3.47452e-05
3.49555e-05
3.47452e-05
3.49564e-05
3.46476e-05
3.50505e-05
5.06674e-05
3.50513e-05
5.06687e-05
3.46475e-05
3.47453e-05
3.49563e-05
3.47405e-05
3.46479e-05
3.47453e-05
3.49555e-05
3.50505e-05
5.06686e-05
3.50512e-05
5.06694e-05
3.46479e-05
3.47405e-05
3.49555e-05
3.47452e-05
3.49563e-05
3.47453e-05
3.46475e-05
3.50512e-05
5.06685e-05
5.06675e-05
3.50507e-05
3.46479e-05
3.47404e-05
3.47452e-05
3.49554e-05
3.47452e-05
3.49563e-05
3.46476e-05
3.50512e-05
5.06694e-05
5.06681e-05
3.50506e-05
3.54085e-05
3.54091e-05
3.47305e-05
3.54078e-05
3.54086e-05
7.04098e-05
7.04107e-05
7.04106e-05
7.04091e-05
3.4731e-05
3.54079e-05
3.54086e-05
3.54084e-05
3.54091e-05
7.04108e-05
7.04072e-05
3.46476e-05
3.47453e-05
3.49564e-05
3.47405e-05
3.4648e-05
3.47453e-05
3.49556e-05
3.50506e-05
5.06687e-05
3.50513e-05
5.06697e-05
3.50507e-05
5.06692e-05
3.50513e-05
5.067e-05
3.46479e-05
3.47405e-05
3.47452e-05
3.49556e-05
3.47453e-05
3.49564e-05
3.46475e-05
3.46479e-05
3.47405e-05
3.47452e-05
3.49555e-05
3.47452e-05
3.49564e-05
3.46477e-05
3.50513e-05
5.06696e-05
5.06685e-05
3.50508e-05
3.50513e-05
5.067e-05
5.06687e-05
3.50508e-05
7.041e-05
7.04109e-05
7.04112e-05
7.04121e-05
3.47311e-05
3.54087e-05
3.54088e-05
3.54092e-05
3.54093e-05
7.0411e-05
7.04075e-05
7.0412e-05
7.04086e-05
7.04075e-05
7.04084e-05
7.04109e-05
7.04124e-05
3.5409e-05
3.54091e-05
3.47306e-05
3.54086e-05
3.54086e-05
7.04086e-05
7.0405e-05
7.0412e-05
7.04087e-05
3.4731e-05
3.54084e-05
3.54085e-05
3.5409e-05
3.54091e-05
3.50505e-05
5.06681e-05
3.50512e-05
5.06691e-05
3.46476e-05
3.49563e-05
3.47453e-05
3.47405e-05
3.4648e-05
3.49555e-05
3.47453e-05
3.46475e-05
3.49566e-05
3.47453e-05
3.47405e-05
3.46479e-05
3.49557e-05
3.47453e-05
3.50513e-05
5.06685e-05
5.06679e-05
3.50507e-05
3.50512e-05
5.06689e-05
5.06679e-05
3.50506e-05
3.46479e-05
3.47404e-05
3.49554e-05
3.47452e-05
3.49564e-05
3.47452e-05
3.46476e-05
3.46478e-05
3.47404e-05
3.49556e-05
3.47452e-05
3.49565e-05
3.47452e-05
3.46476e-05
3.54091e-05
3.54081e-05
3.47306e-05
3.54085e-05
3.54073e-05
7.04056e-05
7.04067e-05
7.04092e-05
7.04076e-05
3.4731e-05
3.54084e-05
3.54075e-05
3.5409e-05
3.54078e-05
7.04072e-05
7.04038e-05
3.46477e-05
3.49565e-05
3.47453e-05
3.47405e-05
3.4648e-05
3.49557e-05
3.47453e-05
3.50506e-05
5.06688e-05
3.50512e-05
5.06702e-05
3.46476e-05
3.47453e-05
3.49564e-05
3.47405e-05
3.46479e-05
3.47453e-05
3.49555e-05
3.50516e-05
5.06703e-05
5.06693e-05
3.5051e-05
3.4648e-05
3.47404e-05
3.49556e-05
3.47452e-05
3.49565e-05
3.47452e-05
3.46477e-05
3.50513e-05
5.06699e-05
5.0669e-05
3.50507e-05
3.46479e-05
3.47404e-05
3.47452e-05
3.49554e-05
3.47452e-05
3.49564e-05
3.46476e-05
3.50505e-05
5.06674e-05
3.50513e-05
5.06687e-05
3.46475e-05
3.47453e-05
3.49563e-05
3.47405e-05
3.46479e-05
3.47453e-05
3.49555e-05
3.50505e-05
5.06686e-05
3.50512e-05
5.06694e-05
3.46479e-05
3.47405e-05
3.49555e-05
3.47452e-05
3.49563e-05
3.47453e-05
3.46475e-05
3.50512e-05
5.06685e-05
5.06675e-05
3.50507e-05
3.46479e-05
3.47405e-05
3.47452e-05
3.49554e-05
3.47452e-05
3.49563e-05
3.46476e-05
3.50512e-05
5.06694e-05
5.06681e-05
3.50506e-05
3.54085e-05
3.54091e-05
3.47306e-05
3.54078e-05