/*--------------------------------*- C++ -*----------------------------------*\
| =========                 |                                                 |
| \\      /  F ield         | OpenFOAM: The Open Source CFD Toolbox           |
|  \\    /   O peration     | Version:  2206                                  |
|   \\  /    A nd           | Website:  www.openfoam.com                      |
|    \\/     M anipulation  |                                                 |
\*---------------------------------------------------------------------------*/
FoamFile
{
    version     2.0;
    format      ascii;
    arch        "LSB;label=32;scalar=64";
    class       volScalarField;
    location    "5.5";
    object      nut;
}
// * * * * * * * * * * * * * * * * * * * * * * * * * * * * * * * * * * * * * //

dimensions      [0 2 -1 0 0 0 0];

internalField   nonuniform List<scalar> 
28688
(
0.000233924
0.000232998
0.000232998
0.000233633
0.000233333
0.000231746
0.000231745
0.000229373
0.00023335
0.000232345
0.000232344
0.000230879
0.00023335
0.000232352
0.000232352
0.0002309
0.00023335
0.000232352
0.000232352
0.000230899
0.00023335
0.000232352
0.000232352
0.000230899
0.00023335
0.000232352
0.000232352
0.000230899
0.00023335
0.000232352
0.000232352
0.000230899
0.00023335
0.000232352
0.000232352
0.000230899
0.00023335
0.000232352
0.000232352
0.000230899
0.00023335
0.000232352
0.000232352
0.000230899
0.00023335
0.000232352
0.000232352
0.000230899
0.000234167
0.000234514
0.000234515
0.000234167
0.000234514
0.000234515
0.000234282
0.000234282
0.000234282
0.000234282
0.000234513
0.000234514
0.000234167
0.000234513
0.000234514
0.000234167
0.000233633
0.000229102
0.000232998
0.000232995
0.000231326
0.000231323
0.000233633
0.000229103
0.000232995
0.000232995
0.000231324
0.000231322
0.000232997
0.000231328
0.000231325
0.000233633
0.000229102
0.000232995
0.000231328
0.000231325
0.000229103
0.000229375
0.000230888
0.000231746
0.000231744
0.000232321
0.000232321
0.000229375
0.000230888
0.000231745
0.000231744
0.000232322
0.00023232
0.000231745
0.000232322
0.000232321
0.000229374
0.000230887
0.000231745
0.000232321
0.000232321
0.000230888
0.000230883
0.00023092
0.000232344
0.000232344
0.000232352
0.000232352
0.000230883
0.00023092
0.000232345
0.000232343
0.000232353
0.000232351
0.000232343
0.000232353
0.000232352
0.000230882
0.000230919
0.000232344
0.000232353
0.000232353
0.000230917
0.000230906
0.000230919
0.000232353
0.000232353
0.000232351
0.000232351
0.000230907
0.00023092
0.000232354
0.000232352
0.000232352
0.000232351
0.000232353
0.000232353
0.000232351
0.000230906
0.000230919
0.000232353
0.000232352
0.000232352
0.000230918
0.000230906
0.000230919
0.000232352
0.000232352
0.000232352
0.000232351
0.000230906
0.00023092
0.000232352
0.000232351
0.000232352
0.000232351
0.000232352
0.000232353
0.000232352
0.000230905
0.000230919
0.000232352
0.000232352
0.000232352
0.000230918
0.000230906
0.000230919
0.000232352
0.000232352
0.000232352
0.000232351
0.000230906
0.00023092
0.000232352
0.000232351
0.000232352
0.000232351
0.000232352
0.000232353
0.000232351
0.000230905
0.000230919
0.000232352
0.000232352
0.000232352
0.000230918
0.000230906
0.000230919
0.000232352
0.000232352
0.000232352
0.000232351
0.000230906
0.00023092
0.000232352
0.000232351
0.000232352
0.000232351
0.000232352
0.000232353
0.000232351
0.000230905
0.000230919
0.000232352
0.000232352
0.000232352
0.000230918
0.000230906
0.000230919
0.000232352
0.000232352
0.000232352
0.000232351
0.000230906
0.00023092
0.000232352
0.000232351
0.000232352
0.000232351
0.000232352
0.000232353
0.000232351
0.000230905
0.000230919
0.000232352
0.000232352
0.000232352
0.000230918
0.000230906
0.000230919
0.000232352
0.000232352
0.000232352
0.000232351
0.000230906
0.000230919
0.000232352
0.000232351
0.000232352
0.000232351
0.000232352
0.000232353
0.000232351
0.000230905
0.000230919
0.000232352
0.000232352
0.000232352
0.000230918
0.000230906
0.000230919
0.000232352
0.000232352
0.000232352
0.000232351
0.000230906
0.00023092
0.000232352
0.000232351
0.000232352
0.000232351
0.000232352
0.000232353
0.000232352
0.000230905
0.000230919
0.000232352
0.000232352
0.000232352
0.000230918
0.000230906
0.000230919
0.000232352
0.000232352
0.000232352
0.000232351
0.000230906
0.00023092
0.000232352
0.000232351
0.000232352
0.000232351
0.000232352
0.000232353
0.000232351
0.000230905
0.000230919
0.000232352
0.000232352
0.000232352
0.000230918
0.000230906
0.000230925
0.000232352
0.000232352
0.000232353
0.000230906
0.000232352
0.000232351
0.000232353
0.000232352
0.000232352
0.000232353
0.000230905
0.000230925
0.000232352
0.000232353
0.000232353
0.000230925
0.000234719
0.000234724
0.000234718
0.000234718
0.000235114
0.000234769
0.000234702
0.000234715
0.000235114
0.000234769
0.000234715
0.000234702
0.000234799
0.000233567
0.000233566
0.000102908
3.87376e-05
0.000130455
3.98122e-05
2.1682e-05
2.2855e-05
0.000102904
3.87336e-05
0.000130455
3.98089e-05
0.000233924
0.000233924
0.000233924
0.000233344
0.000233344
0.000233344
0.000233344
0.000204658
9.31837e-05
0.000233931
0.000231771
0.00022321
8.72566e-05
0.000233549
2.1681e-05
2.28541e-05
0.000204656
0.000233932
9.31857e-05
0.00023177
0.000223213
0.000233548
8.72571e-05
4.75599e-05
4.75464e-05
0.000230932
4.37134e-05
4.3706e-05
0.000102151
4.18587e-05
9.91376e-05
4.218e-05
2.37695e-05
2.38106e-05
0.000102137
4.18551e-05
9.91208e-05
4.21768e-05
0.000233333
0.000233333
0.000233333
0.000233348
0.000233348
0.000233348
0.000233348
0.00019879
0.000106355
0.000233139
0.000232084
0.00019615
0.000116233
0.000233159
2.3768e-05
2.3809e-05
0.000198788
0.000233139
0.000106361
0.000232084
0.00019615
0.000233159
0.000116226
5.77716e-05
5.77574e-05
0.000230519
6.57638e-05
6.57506e-05
0.000103097
4.22146e-05
0.000103035
4.22134e-05
2.38139e-05
2.38134e-05
0.000103102
4.22122e-05
0.00010304
4.22108e-05
0.00023335
0.00023335
0.000233349
0.00023335
0.00023335
0.00023335
0.00023335
0.000199837
0.000118627
0.000233183
0.000232352
0.000199758
0.000118725
0.000233184
2.3812e-05
2.38115e-05
0.000199835
0.000233183
0.000118628
0.000232351
0.000199755
0.000233184
0.000118725
6.73199e-05
6.73078e-05
0.000230917
6.73615e-05
6.73485e-05
0.000103114
4.22136e-05
0.000103098
4.22132e-05
2.38135e-05
2.38133e-05
0.000103124
4.22108e-05
0.00010311
4.22104e-05
0.00023335
0.00023335
0.00023335
0.00023335
0.00023335
0.00023335
0.00023335
0.000199852
0.000118715
0.000233184
0.000232353
0.000199833
0.000118744
0.000233184
2.38115e-05
2.38113e-05
0.000199856
0.000233184
0.000118721
0.000232352
0.000199835
0.000233184
0.000118748
6.73627e-05
6.735e-05
0.00023092
6.73706e-05
6.73578e-05
0.000103114
4.22139e-05
0.000103099
4.22135e-05
2.38135e-05
2.38132e-05
0.000103125
4.22108e-05
0.000103113
4.22104e-05
0.00023335
0.00023335
0.00023335
0.00023335
0.00023335
0.00023335
0.00023335
0.000199853
0.000118717
0.000233184
0.000232353
0.000199834
0.000118744
0.000233184
2.38114e-05
2.38113e-05
0.000199855
0.000233184
0.000118724
0.000232352
0.000199835
0.000233184
0.000118749
6.7363e-05
6.73504e-05
0.00023092
6.73705e-05
6.73578e-05
0.000103114
4.22139e-05
0.0001031
4.22135e-05
2.38136e-05
2.38132e-05
0.000103125
4.22108e-05
0.000103113
4.22104e-05
0.00023335
0.00023335
0.00023335
0.00023335
0.00023335
0.00023335
0.00023335
0.000199853
0.000118717
0.000233184
0.000232353
0.000199834
0.000118744
0.000233184
2.38114e-05
2.38113e-05
0.000199855
0.000233184
0.000118724
0.000232352
0.000199836
0.000233184
0.000118749
6.7363e-05
6.73504e-05
0.00023092
6.73704e-05
6.73577e-05
0.000103114
4.22138e-05
0.000103099
4.22135e-05
2.38135e-05
2.38132e-05
0.000103125
4.22108e-05
0.000103113
4.22104e-05
0.00023335
0.00023335
0.00023335
0.00023335
0.00023335
0.00023335
0.00023335
0.000199853
0.000118717
0.000233184
0.000232353
0.000199834
0.000118744
0.000233184
2.38114e-05
2.38113e-05
0.000199855
0.000233184
0.000118724
0.000232352
0.000199836
0.000233184
0.000118749
6.7363e-05
6.73504e-05
0.00023092
6.73704e-05
6.73578e-05
0.000103114
4.22138e-05
0.000103099
4.22135e-05
2.38133e-05
2.38131e-05
0.000103125
4.22108e-05
0.000103113
4.22104e-05
0.00023335
0.00023335
0.00023335
0.00023335
0.00023335
0.00023335
0.00023335
0.000199853
0.000118717
0.000233184
0.000232353
0.000199834
0.000118744
0.000233184
2.38114e-05
2.38113e-05
0.000199855
0.000233184
0.000118724
0.000232352
0.000199835
0.000233184
0.000118749
6.7363e-05
6.73504e-05
0.00023092
6.73705e-05
6.73577e-05
0.000103114
4.22138e-05
0.0001031
4.22135e-05
2.38133e-05
2.38131e-05
0.000103125
4.22108e-05
0.000103113
4.22104e-05
0.00023335
0.00023335
0.00023335
0.00023335
0.00023335
0.00023335
0.00023335
0.000199853
0.000118717
0.000233184
0.000232353
0.000199834
0.000118744
0.000233184
2.38114e-05
2.38113e-05
0.000199855
0.000233184
0.000118724
0.000232352
0.000199835
0.000233184
0.000118749
6.7363e-05
6.73504e-05
0.00023092
6.73704e-05
6.73577e-05
0.000103114
4.22139e-05
0.0001031
4.22135e-05
2.38133e-05
2.38131e-05
0.000103125
4.2211e-05
0.000103113
4.22105e-05
0.00023335
0.00023335
0.00023335
0.00023335
0.00023335
0.00023335
0.00023335
0.000199853
0.000118717
0.000233184
0.000232353
0.000199834
0.000118744
0.000233184
2.38114e-05
2.38113e-05
0.000199855
0.000233184
0.000118724
0.000232352
0.000199835
0.000233184
0.000118749
6.7363e-05
6.73504e-05
0.00023092
6.73704e-05
6.73577e-05
0.000103114
4.22141e-05
0.000103099
4.22139e-05
2.38133e-05
2.38131e-05
0.000103125
4.22109e-05
0.000103113
4.22104e-05
0.00023335
0.00023335
0.00023335
0.00023335
0.00023335
0.00023335
0.00023335
0.000199853
0.000118717
0.000233184
0.000232353
0.000199834
0.000118744
0.000233184
2.38114e-05
2.38113e-05
0.000199855
0.000233184
0.000118724
0.000232352
0.000199835
0.000233184
0.000118749
6.7363e-05
6.73506e-05
0.00023092
6.73704e-05
6.73578e-05
0.000103114
4.22141e-05
0.000103099
4.22138e-05
2.38133e-05
2.38131e-05
0.000103125
4.22109e-05
0.000103113
4.22104e-05
0.00023335
0.00023335
0.00023335
0.000233351
0.000233352
0.00023335
0.00023335
0.000199853
0.000118717
0.000233184
0.000232352
0.000199834
0.000118744
0.000233184
2.38114e-05
2.38113e-05
0.000199855
0.000233184
0.000118724
0.000232352
0.000199836
0.000233184
0.000118749
6.73628e-05
6.73505e-05
0.00023092
6.73702e-05
6.73577e-05
0.000234798
0.000233565
0.000233566
2.32561e-05
0.000214158
2.32551e-05
0.000214161
0.000234521
5.13378e-05
5.13205e-05
0.00022999
0.000229991
0.000235114
0.000234769
0.000234702
0.000234715
0.000235114
0.000234769
0.000234702
0.000234715
0.000234477
4.02611e-05
0.000218813
0.000147486
0.000234477
4.02605e-05
0.000218813
0.000147483
0.000233904
0.000234505
0.000100128
0.000234275
0.000233357
0.000234612
0.000228571
0.000233904
0.000234505
0.000100115
0.000234275
0.000233358
0.000234612
0.000228569
0.000234798
0.000233565
0.000233566
2.32559e-05
0.000214167
0.000234521
5.13295e-05
5.13268e-05
0.00022999
0.000229992
2.32557e-05
0.000214169
0.000235114
0.000234769
0.000234702
0.000234715
0.000235114
0.000234769
0.000234715
0.000234702
0.000234477
4.02579e-05
0.000218814
0.000147459
0.000233904
0.000234505
0.000100104
0.000234275
0.000233358
0.000234612
0.000228567
0.000234477
4.02574e-05
0.000218815
0.000147476
0.000233904
0.000234505
0.000234275
0.000100112
0.000234612
0.000233358
0.000228569
0.000234719
0.000234724
0.000234718
0.000234718
0.000234719
0.000234724
0.000234718
0.000234718
0.000234719
0.000234724
0.000234718
0.000234718
0.000234599
0.000234596
0.000234248
0.000234248
0.000234602
0.000234602
0.000234246
0.000234599
0.000234596
0.000234248
0.000234248
0.000234602
0.000234602
0.000234246
0.000234599
0.000234596
0.000234248
0.000234248
0.000234602
0.000234602
0.000234246
0.000234599
0.000234596
0.000234248
0.000234248
0.000234602
0.000234602
0.000234246
0.000235114
0.000234769
0.000234715
0.000234702
0.000233903
0.000234505
0.000100108
0.000234275
0.000233358
0.000234612
0.000228568
0.000234477
4.02586e-05
0.000218816
0.000147473
0.000233904
0.000234505
0.000234275
0.00010012
0.000234612
0.000233358
0.00022857
0.000234477
4.02581e-05
0.000218815
0.000147485
0.000234798
0.000233566
0.000233567
2.32551e-05
0.000214163
0.000234521
5.13238e-05
5.13273e-05
0.000229992
0.000229993
2.32555e-05
0.000214171
0.000235114
0.000234769
0.000234715
0.000234702
0.000233904
0.000234505
0.000234275
0.000100113
0.000234612
0.000233358
0.000228569
0.000233904
0.000234505
0.000234275
0.000100104
0.000234612
0.000233358
0.000228568
0.000234477
4.02577e-05
0.000218817
0.00014748
0.000234477
4.02575e-05
0.000218812
0.000147465
0.000234521
5.13302e-05
5.13187e-05
0.000229992
0.000229992
2.32556e-05
0.000214169
2.32551e-05
0.000214164
2.16824e-05
2.28561e-05
2.16811e-05
2.28547e-05
4.756e-05
4.7547e-05
0.000230934
4.3718e-05
4.3703e-05
2.37275e-05
2.32556e-05
2.37259e-05
2.32543e-05
0.000229933
5.3261e-05
5.32389e-05
4.37979e-05
4.37812e-05
0.000102914
3.87365e-05
0.000130454
3.98107e-05
0.000204662
9.31944e-05
0.000233932
0.00023177
0.000223205
8.7262e-05
0.000233549
0.000204663
9.31805e-05
0.000233932
0.000231766
0.000223205
8.72451e-05
0.000233549
9.98037e-05
4.15906e-05
4.03165e-05
9.78345e-05
9.98032e-05
4.15894e-05
4.03148e-05
9.78308e-05
0.000200307
0.000231199
0.000101279
0.000233151
8.86445e-05
0.000233271
0.00019589
0.000200306
0.000231195
0.00010126
0.000233151
8.86327e-05
0.00023327
0.000195888
4.75511e-05
4.75552e-05
0.000230934
4.3709e-05
4.37128e-05
2.16821e-05
2.28562e-05
2.37269e-05
2.32551e-05
0.000229934
5.32439e-05
5.3253e-05
4.37865e-05
4.37902e-05
2.37276e-05
2.32558e-05
0.000204655
9.31745e-05
0.000233932
0.000231767
0.000223202
8.72412e-05
0.000233549
0.000102907
3.87331e-05
0.000130474
3.98084e-05
0.000204656
0.000233932
9.31763e-05
0.000231765
0.000223207
0.000233548
8.72406e-05
9.97936e-05
4.15871e-05
4.03127e-05
9.78244e-05
0.000200302
0.000231196
0.00010126
0.000233151
8.86286e-05
0.000233271
0.000195883
9.97958e-05
4.1586e-05
4.03118e-05
9.78292e-05
0.000200302
0.000231194
0.000233151
0.000101258
0.00023327
8.86272e-05
0.000195883
0.00010291
3.87343e-05
0.000130467
3.98111e-05
0.000204658
0.000233932
9.31888e-05
0.000231769
0.000223214
0.000233549
8.72523e-05
0.00010291
3.87344e-05
0.000130483
3.98098e-05
0.000200306
0.000231201
0.000101279
0.000233152
8.86417e-05
0.000233271
0.000195886
9.97973e-05
4.15893e-05
4.03137e-05
9.7826e-05
0.000200307
0.000231198
0.000233151
0.000101275
0.000233271
8.86451e-05
0.00019589
9.98042e-05
4.1588e-05
4.03137e-05
9.7829e-05
4.75467e-05
4.75572e-05
0.000230933
4.3704e-05
4.37148e-05
2.16815e-05
2.28553e-05
2.37255e-05
2.32539e-05
0.000229933
5.32401e-05
5.32528e-05
4.37831e-05
4.37945e-05
2.37267e-05
2.32546e-05
0.000204655
0.000233932
9.31752e-05
0.000231767
0.000223207
0.000233549
8.72418e-05
0.000102902
3.87336e-05
0.000130475
3.98099e-05
0.000102899
3.87332e-05
0.00013046
3.98087e-05
0.000200303
0.0002312
0.000233152
0.000101274
0.000233271
8.86389e-05
0.000195886
0.000200302
0.000231196
0.000233151
0.000101258
0.000233271
8.86319e-05
0.000195883
9.98025e-05
4.15875e-05
4.03134e-05
9.78282e-05
9.97994e-05
4.1587e-05
4.03122e-05
9.78212e-05
2.16819e-05
2.28553e-05
2.1681e-05
2.28548e-05
0.000229934
5.32584e-05
5.32438e-05
4.3798e-05
4.37817e-05
2.37268e-05
2.32549e-05
2.37259e-05
2.32543e-05
2.37699e-05
2.38115e-05
2.37682e-05
2.38098e-05
5.77851e-05
5.77626e-05
0.000230519
6.57702e-05
6.57497e-05
2.38144e-05
2.3814e-05
2.38131e-05
2.38124e-05
0.000230664
6.72915e-05
6.7278e-05
6.65962e-05
6.65818e-05
0.000102148
4.18578e-05
9.91383e-05
4.21791e-05
0.000198793
0.000106374
0.00023314
0.000232083
0.000196159
0.000116231
0.000233158
0.000198791
0.000106357
0.000233141
0.000232082
0.000196154
0.000116216
0.000233158
0.000102522
4.22144e-05
4.22035e-05
0.000103015
0.00010252
4.22144e-05
4.22026e-05
0.000103014
0.000199174
0.000232253
0.000118586
0.00023318
0.000117345
0.000233172
0.000199747
0.000199173
0.000232252
0.00011858
0.000233179
0.000117335
0.000233172
0.000199747
5.7768e-05
5.77764e-05
0.000230519
6.57539e-05
6.57721e-05
2.377e-05
2.38113e-05
2.38138e-05
2.38133e-05
0.000230664
6.72816e-05
6.72884e-05
6.6585e-05
6.65905e-05
2.38144e-05
2.3814e-05
0.000198787
0.000106348
0.00023314
0.000232083
0.00019615
0.000116211
0.000233158
0.000102137
4.18541e-05
9.91291e-05
4.21751e-05
0.000198787
0.000233141
0.000106351
0.000232082
0.000196151
0.000233158
0.000116211
0.000102519
4.22119e-05
4.22002e-05
0.000103015
0.000199169
0.000232253
0.000118575
0.00023318
0.000117329
0.000233172
0.000199744
0.000102519
4.22102e-05
4.21985e-05
0.000103016
0.000199167
0.000232252
0.000233179
0.000118565
0.000233171
0.000117321
0.000199742
0.000102142
4.18574e-05
9.91367e-05
4.21789e-05
0.000198792
0.00023314
0.000106368
0.000232083
0.000196158
0.000233158
0.000116222
0.000102147
4.18562e-05
9.91369e-05
4.2177e-05
0.000199174
0.000232255
0.000118587
0.00023318
0.000117343
0.000233173
0.000199749
0.000102524
4.22141e-05
4.22023e-05
0.000103016
0.000199174
0.000232253
0.00023318
0.000118584
0.000233172
0.000117339
0.000199747
0.000102518
4.22122e-05
4.22005e-05
0.000103013
5.77615e-05
5.77834e-05
0.000230518
6.57527e-05
6.57679e-05
2.37692e-05
2.38102e-05
2.38118e-05
2.38116e-05
0.000230664
6.72684e-05
6.72926e-05
6.65715e-05
6.65962e-05
2.38137e-05
2.3813e-05
0.000198788
0.00023314
0.000106356
0.000232083
0.000196153
0.000233158
0.00011621
0.000102137
4.18559e-05
9.91291e-05
4.21771e-05
0.000102144
4.1855e-05
9.91271e-05
4.21763e-05
0.000199171
0.000232254
0.00023318
0.000118588
0.000233173
0.000117344
0.000199745
0.000199172
0.000232253
0.00023318
0.000118576
0.000233172
0.000117331
0.000199745
0.00010252
4.22124e-05
4.22006e-05
0.000103017
0.000102518
4.22115e-05
4.21997e-05
0.000103016
2.37692e-05
2.381e-05
2.37685e-05
2.38093e-05
0.000230666
6.72881e-05
6.72755e-05
6.65927e-05
6.65808e-05
2.38135e-05
2.38128e-05
2.38129e-05
2.38121e-05
2.38139e-05
2.38135e-05
2.38125e-05
2.38123e-05
6.73198e-05
6.73114e-05
0.000230917
6.73559e-05
6.73467e-05
2.38135e-05
2.3813e-05
2.38123e-05
2.38117e-05
0.000230906
6.73581e-05
6.73555e-05
6.73546e-05
6.73499e-05
0.000103095
4.2214e-05
0.000103036
4.22135e-05
0.000199838
0.000118628
0.000233184
0.000232349
0.000199762
0.000118722
0.000233184
0.000199836
0.000118627
0.000233183
0.000232349
0.00019976
0.000118721
0.000233184
0.000103097
4.2213e-05
4.22128e-05
0.000103114
0.000103095
4.22129e-05
4.2213e-05
0.000103112
0.000199829
0.000232353
0.000118738
0.000233185
0.000118712
0.000233185
0.000199853
0.000199827
0.000232352
0.00011874
0.000233184
0.000118714
0.000233185
0.000199852
6.73132e-05
6.73157e-05
0.000230918
6.73481e-05
6.73532e-05
2.38139e-05
2.38136e-05
2.38131e-05
2.38128e-05
0.000230906
6.73571e-05
6.73561e-05
6.73515e-05
6.73507e-05
2.38136e-05
2.38131e-05
0.000199836
0.000118622
0.000233184
0.00023235
0.000199758
0.000118713
0.000233184
0.000103097
4.22098e-05
0.000103041
4.22092e-05
0.000199834
0.000233183
0.000118608
0.000232348
0.000199757
0.000233184
0.000118703
0.000103106
4.22103e-05
4.22102e-05
0.000103122
0.000199828
0.000232353
0.00011873
0.000233185
0.000118704
0.000233185
0.000199855
0.000103101
4.22086e-05
4.22088e-05
0.000103117
0.000199825
0.000232352
0.000233184
0.000118719
0.000233184
0.000118693
0.000199851
0.000103095
4.22138e-05
0.000103038
4.22131e-05
0.000199836
0.000233183
0.00011863
0.000232349
0.000199761
0.000233184
0.000118725
0.000103094
4.22117e-05
0.000103035
4.22113e-05
0.000199828
0.000232353
0.000118742
0.000233185
0.000118716
0.000233185
0.000199852
0.000103095
4.22125e-05
4.22127e-05
0.00010311
0.000199827
0.000232352
0.000233185
0.000118744
0.000233185
0.000118718
0.000199852
0.000103093
4.22108e-05
4.22107e-05
0.00010311
6.72966e-05
6.73228e-05
0.000230917
6.73333e-05
6.7358e-05
2.38131e-05
2.3813e-05
2.38111e-05
2.3811e-05
0.000230905
6.73381e-05
6.73662e-05
6.73319e-05
6.7361e-05
2.3813e-05
2.38125e-05
0.000199837
0.000233183
0.000118622
0.000232349
0.00019976
0.000233184
0.000118716
0.000103098
4.22117e-05
0.000103042
4.2211e-05
0.000103097
4.22111e-05
0.000103041
4.22106e-05
0.000199827
0.000232353
0.000233185
0.000118745
0.000233185
0.000118718
0.000199853
0.000199828
0.000232353
0.000233185
0.000118735
0.000233185
0.000118709
0.000199855
0.000103101
4.22105e-05
4.22105e-05
0.000103118
0.000103101
4.22101e-05
4.221e-05
0.000103119
2.38129e-05
2.38128e-05
2.38122e-05
2.38121e-05
0.000230906
6.73686e-05
6.73558e-05
6.73647e-05
6.73516e-05
2.38129e-05
2.38123e-05
2.38121e-05
2.38115e-05
2.38132e-05
2.38134e-05
2.38121e-05
2.38124e-05
6.73536e-05
6.73576e-05
0.000230919
6.73606e-05
6.73567e-05
2.3814e-05
2.38132e-05
2.38123e-05
2.38118e-05
0.000230908
6.73681e-05
6.73568e-05
6.73624e-05
6.73582e-05
0.000103113
4.22125e-05
0.000103106
4.2213e-05
0.000199854
0.000118721
0.000233185
0.000232353
0.000199841
0.000118739
0.000233185
0.000199852
0.000118726
0.000233184
0.000232352
0.00019984
0.000118742
0.000233184
0.000103108
4.22134e-05
4.2213e-05
0.000103115
0.000103107
4.22129e-05
4.22125e-05
0.000103113
0.00019984
0.000232352
0.000118746
0.000233184
0.000118726
0.000233184
0.000199853
0.000199838
0.000232351
0.000118743
0.000233184
0.000118728
0.000233184
0.000199853
6.73586e-05
6.73488e-05
0.00023092
6.73578e-05
6.73579e-05
2.38132e-05
2.38134e-05
2.3813e-05
2.38127e-05
0.000230908
6.7358e-05
6.73582e-05
6.73589e-05
6.73524e-05
2.38135e-05
2.38129e-05
0.000199858
0.000118717
0.000233185
0.000232353
0.000199844
0.000118735
0.000233185
0.00010312
4.22082e-05
0.000103115
4.22086e-05
0.000199852
0.000233184
0.000118703
0.000232352
0.000199839
0.000233184
0.000118721
0.000103122
4.22103e-05
4.221e-05
0.000103127
0.000199844
0.000232352
0.000118738
0.000233184
0.00011872
0.000233184
0.000199858
0.000103117
4.22085e-05
4.22081e-05
0.000103121
0.000199838
0.000232351
0.000233184
0.000118722
0.000233184
0.000118704
0.000199853
0.000103112
4.2212e-05
0.000103105
4.22125e-05
0.000199852
0.000233184
0.000118731
0.000232352
0.000199841
0.000233184
0.000118747
0.000103112
4.22103e-05
0.000103105
4.22107e-05
0.000199839
0.000232353
0.000118745
0.000233184
0.000118727
0.000233185
0.000199853
0.000103106
4.22124e-05
4.2212e-05
0.000103113
0.000199839
0.000232352
0.000233184
0.000118747
0.000233184
0.000118732
0.000199854
0.000103106
4.22107e-05
4.22102e-05
0.000103113
6.73326e-05
6.73679e-05
0.000230918
6.73388e-05
6.73679e-05
2.38128e-05
2.38129e-05
2.3811e-05
2.38108e-05
0.000230907
6.73406e-05
6.73683e-05
6.73328e-05
6.73693e-05
2.38129e-05
2.38124e-05
0.000199858
0.000233185
0.000118721
0.000232353
0.000199844
0.000233185
0.000118738
0.000103122
4.22101e-05
0.000103117
4.22105e-05
0.000103122
4.22096e-05
0.000103117
4.221e-05
0.000199843
0.000232353
0.000233185
0.000118749
0.000233185
0.000118734
0.000199855
0.000199844
0.000232352
0.000233184
0.000118738
0.000233184
0.000118723
0.000199857
0.000103119
4.22104e-05
4.221e-05
0.000103122
0.000103119
4.221e-05
4.22095e-05
0.000103123
2.38127e-05
2.38128e-05
2.38119e-05
2.38121e-05
0.000230909
6.73696e-05
6.73569e-05
6.73717e-05
6.7359e-05
2.38128e-05
2.38122e-05
2.38121e-05
2.38115e-05
2.38138e-05
2.38141e-05
2.38121e-05
2.38124e-05
6.73704e-05
6.73585e-05
0.000230919
6.73714e-05
6.73569e-05
2.3814e-05
2.38135e-05
2.38123e-05
2.38117e-05
0.000230908
6.73726e-05
6.73569e-05
6.73734e-05
6.73584e-05
0.000103114
4.22124e-05
0.000103108
4.22129e-05
0.000199855
0.000118732
0.000233184
0.000232352
0.000199839
0.000118749
0.000233184
0.000199852
0.000118728
0.000233184
0.000232352
0.000199839
0.000118743
0.000233184
0.000103109
4.22134e-05
4.2213e-05
0.000103115
0.000103108
4.22129e-05
4.22125e-05
0.000103114
0.000199842
0.000232352
0.000118752
0.000233184
0.000118735
0.000233184
0.000199853
0.000199839
0.000232352
0.000118743
0.000233184
0.000118728
0.000233184
0.000199854
6.73589e-05
6.73524e-05
0.00023092
6.73581e-05
6.73565e-05
2.38132e-05
2.38134e-05
2.38131e-05
2.38126e-05
0.000230909
6.73586e-05
6.73588e-05
6.73592e-05
6.73505e-05
2.38135e-05
2.38129e-05
0.000199857
0.000118722
0.000233184
0.000232352
0.000199845
0.000118736
0.000233184
0.000103121
4.2208e-05
0.000103118
4.22086e-05
0.000199853
0.000233184
0.000118705
0.000232351
0.00019984
0.000233184
0.000118722
0.000103122
4.22103e-05
4.22099e-05
0.000103127
0.000199844
0.000232353
0.000118735
0.000233184
0.000118722
0.000233184
0.000199858
0.000103117
4.22085e-05
4.22081e-05
0.000103121
0.000199839
0.000232351
0.000233184
0.000118722
0.000233184
0.000118705
0.000199853
0.000103112
4.22119e-05
0.000103108
4.22125e-05
0.000199853
0.000233184
0.000118732
0.000232352
0.000199841
0.000233184
0.000118748
0.000103112
4.22103e-05
0.000103107
4.22107e-05
0.00019984
0.000232353
0.000118745
0.000233185
0.000118727
0.000233185
0.000199853
0.000103107
4.22124e-05
4.2212e-05
0.000103114
0.000199839
0.000232352
0.000233184
0.000118747
0.000233184
0.000118733
0.000199854
0.000103106
4.22107e-05
4.22102e-05
0.000103113
6.73366e-05
6.73696e-05
0.000230919
6.73386e-05
6.73686e-05
2.38127e-05
2.38129e-05
2.3811e-05
2.38108e-05
0.000230908
6.73405e-05
6.73686e-05
6.73327e-05
6.73699e-05
2.38129e-05
2.38123e-05
0.000199857
0.000233184
0.000118723
0.000232352
0.000199843
0.000233184
0.000118739
0.000103122
4.221e-05
0.000103119
4.22105e-05
0.000103123
4.22096e-05
0.00010312
4.221e-05
0.000199843
0.000232352
0.000233185
0.00011875
0.000233185
0.000118735
0.000199855
0.000199843
0.000232353
0.000233184
0.000118739
0.000233184
0.000118723
0.000199857
0.000103119
4.22104e-05
4.221e-05
0.000103122
0.000103119
4.221e-05
4.22095e-05
0.000103123
2.38126e-05
2.38128e-05
2.38119e-05
2.38121e-05
0.000230909
6.73696e-05
6.73569e-05
6.73716e-05
6.7359e-05
2.38128e-05
2.38122e-05
2.38121e-05
2.38115e-05
2.3814e-05
2.38141e-05
2.38121e-05
2.38124e-05
6.73737e-05
6.73586e-05
0.000230919
6.73709e-05
6.73569e-05
2.38142e-05
2.38136e-05
2.38123e-05
2.38117e-05
0.000230908
6.73705e-05
6.73569e-05
6.73718e-05
6.73584e-05
0.000103114
4.22125e-05
0.000103109
4.2213e-05
0.000199855
0.000118736
0.000233184
0.000232352
0.000199839
0.000118751
0.000233184
0.000199853
0.000118728
0.000233184
0.000232352
0.00019984
0.000118743
0.000233184
0.000103109
4.22133e-05
4.22129e-05
0.000103115
0.000103108
4.22129e-05
4.22125e-05
0.000103114
0.000199842
0.000232352
0.000118752
0.000233184
0.000118736
0.000233184
0.000199853
0.000199839
0.000232352
0.000118743
0.000233184
0.000118728
0.000233184
0.000199853
6.73584e-05
6.73523e-05
0.00023092
6.73567e-05
6.73567e-05
2.38132e-05
2.38134e-05
2.3813e-05
2.38126e-05
0.000230908
6.73578e-05
6.73588e-05
6.73582e-05
6.73506e-05
2.38135e-05
2.38129e-05
0.000199857
0.00011872
0.000233184
0.000232352
0.000199844
0.000118734
0.000233184
0.00010312
4.2208e-05
0.000103118
4.22086e-05
0.000199852
0.000233184
0.000118705
0.000232351
0.000199839
0.000233184
0.000118722
0.000103122
4.22103e-05
4.22099e-05
0.000103127
0.000199844
0.000232352
0.000118734
0.000233184
0.00011872
0.000233184
0.000199858
0.000103117
4.22085e-05
4.22081e-05
0.000103121
0.000199839
0.000232351
0.000233184
0.000118722
0.000233184
0.000118705
0.000199853
0.000103113
4.22119e-05
0.000103108
4.22125e-05
0.000199853
0.000233184
0.000118732
0.000232352
0.000199841
0.000233184
0.000118748
0.000103112
4.22103e-05
0.000103107
4.22107e-05
0.00019984
0.000232353
0.000118745
0.000233185
0.000118728
0.000233185
0.000199853
0.000103107
4.22124e-05
4.2212e-05
0.000103113
0.00019984
0.000232352
0.000233184
0.000118747
0.000233184
0.000118733
0.000199854
0.000103107
4.22107e-05
4.22102e-05
0.000103113
6.73363e-05
6.73697e-05
0.000230919
6.73386e-05
6.73685e-05
2.38127e-05
2.38129e-05
2.3811e-05
2.38108e-05
0.000230907
6.73405e-05
6.73686e-05
6.73327e-05
6.73698e-05
2.38129e-05
2.38123e-05
0.000199857
0.000233184
0.000118723
0.000232352
0.000199844
0.000233184
0.000118739
0.000103122
4.221e-05
0.000103119
4.22105e-05
0.000103123
4.22096e-05
0.00010312
4.221e-05
0.000199843
0.000232353
0.000233184
0.00011875
0.000233184
0.000118735
0.000199855
0.000199843
0.000232353
0.000233184
0.000118739
0.000233184
0.000118724
0.000199858
0.000103119
4.22104e-05
4.221e-05
0.000103122
0.00010312
4.221e-05
4.22095e-05
0.000103123
2.38126e-05
2.38128e-05
2.38119e-05
2.38121e-05
0.000230909
6.73696e-05
6.73568e-05
6.73716e-05
6.7359e-05
2.38128e-05
2.38122e-05
2.3812e-05
2.38115e-05
2.3814e-05
2.38141e-05
2.38121e-05
2.38124e-05
6.7372e-05
6.73585e-05
0.000230919
6.73712e-05
6.73569e-05
2.38141e-05
2.38135e-05
2.38123e-05
2.38117e-05
0.000230908
6.73705e-05
6.73568e-05
6.73722e-05
6.73584e-05
0.000103114
4.22125e-05
0.000103108
4.2213e-05
0.000199855
0.000118736
0.000233184
0.000232352
0.000199839
0.000118752
0.000233184
0.000199853
0.000118728
0.000233184
0.000232352
0.000199839
0.000118743
0.000233184
0.000103109
4.22133e-05
4.22131e-05
0.000103115
0.000103108
4.22128e-05
4.22125e-05
0.000103114
0.000199842
0.000232352
0.000118752
0.000233184
0.000118737
0.000233184
0.000199853
0.000199839
0.000232352
0.000118743
0.000233184
0.000118728
0.000233184
0.000199853
6.73587e-05
6.73523e-05
0.00023092
6.73579e-05
6.73566e-05
2.38132e-05
2.38134e-05
2.38128e-05
2.38126e-05
0.000230908
6.73587e-05
6.73587e-05
6.7359e-05
6.73505e-05
2.38135e-05
2.38129e-05
0.000199858
0.000118719
0.000233184
0.000232352
0.000199844
0.000118734
0.000233184
0.00010312
4.2208e-05
0.000103118
4.22086e-05
0.000199853
0.000233184
0.000118705
0.000232351
0.000199839
0.000233184
0.000118722
0.000103122
4.22103e-05
4.22099e-05
0.000103127
0.000199845
0.000232352
0.000118734
0.000233184
0.00011872
0.000233184
0.000199858
0.000103117
4.22085e-05
4.22081e-05
0.000103121
0.000199839
0.000232351
0.000233184
0.000118722
0.000233184
0.000118705
0.000199853
0.000103113
4.22119e-05
0.000103108
4.22125e-05
0.000199853
0.000233184
0.000118732
0.000232352
0.000199841
0.000233184
0.000118748
0.000103112
4.22103e-05
0.000103107
4.22107e-05
0.00019984
0.000232353
0.000118745
0.000233185
0.000118728
0.000233185
0.000199853
0.000103107
4.22124e-05
4.2212e-05
0.000103113
0.00019984
0.000232352
0.000233184
0.000118747
0.000233184
0.000118733
0.000199854
0.000103107
4.22107e-05
4.22102e-05
0.000103113
6.73363e-05
6.73697e-05
0.000230919
6.73386e-05
6.73685e-05
2.38128e-05
2.38129e-05
2.3811e-05
2.38108e-05
0.000230908
6.73405e-05
6.73686e-05
6.73327e-05
6.73698e-05
2.38129e-05