/*--------------------------------*- C++ -*----------------------------------*\
| =========                 |                                                 |
| \\      /  F ield         | OpenFOAM: The Open Source CFD Toolbox           |
|  \\    /   O peration     | Version:  2206                                  |
|   \\  /    A nd           | Website:  www.openfoam.com                      |
|    \\/     M anipulation  |                                                 |
\*---------------------------------------------------------------------------*/
FoamFile
{
    version     2.0;
    format      ascii;
    arch        "LSB;label=32;scalar=64";
    class       surfaceScalarField;
    location    "5.5";
    object      phi;
}
// * * * * * * * * * * * * * * * * * * * * * * * * * * * * * * * * * * * * * //

dimensions      [0 3 -1 0 0 0 0];

oriented        oriented;

internalField   nonuniform List<scalar> 
83438
(
-0.00104213
-1.46198e-05
-1.45161e-05
9.35107e-06
9.18105e-06
0.00105273
-0.000261467
-5.61711e-06
1.44967e-05
6.86802e-06
0.00105943
-4.51297e-06
-1.64907e-06
-2.24972e-06
-2.62758e-06
-6.56164e-06
-7.01386e-06
-3.21351e-06
-0.000263314
-0.000259732
-0.000262837
-0.000261444
-5.62208e-06
1.45257e-05
6.95727e-06
0.00105922
-4.51806e-06
-1.65921e-06
-2.25731e-06
-2.6319e-06
-6.55573e-06
-7.00995e-06
-3.21574e-06
-0.000259704
-0.000263285
-0.000262801
-0.00026058
5.59259e-06
5.63268e-06
-4.84077e-06
-4.83479e-06
0.00025903
-7.35563e-07
-7.37179e-07
-0.00105989
5.12214e-07
5.12285e-07
0.00106034
-0.00106142
-1.3274e-06
7.31381e-07
3.57341e-07
0.00106145
-3.41175e-07
1.05149e-06
1.2393e-07
7.02453e-07
-3.6992e-07
-1.0165e-06
6.08559e-08
-0.0010611
-1.32235e-06
7.41864e-07
3.52691e-07
0.00106113
-3.41251e-07
1.04595e-06
1.23817e-07
6.99778e-07
-3.72445e-07
-1.01627e-06
6.37087e-08
-0.000261126
1.36028e-06
1.32239e-06
-3.62801e-07
-3.65456e-07
0.000259171
-3.30296e-08
-3.31898e-08
-0.0010607
2.73576e-08
2.72827e-08
0.00106071
-0.00106143
-1.16296e-06
3.82111e-08
1.62947e-08
0.00106143
-2.17713e-07
1.15401e-06
2.07979e-07
8.213e-07
-2.02602e-07
-8.40535e-07
1.86175e-07
-0.00106111
-1.1577e-06
3.31578e-08
2.14405e-08
0.0010611
-2.17751e-07
1.14869e-06
2.07958e-07
8.21126e-07
-2.02555e-07
-8.35103e-07
1.88811e-07
-0.00026105
1.19324e-06
1.15778e-06
-2.09852e-07
-2.17476e-07
0.000259127
-1.39852e-09
-1.39555e-09
-0.00106073
7.45097e-10
7.49694e-10
0.00106074
-0.00106142
-1.15742e-06
1.39458e-09
1.76436e-09
0.00106142
-2.15523e-07
1.1583e-06
2.14555e-07
8.2715e-07
-1.93345e-07
-8.28018e-07
1.91614e-07
-0.00106109
-1.15212e-06
1.39885e-09
1.76429e-09
0.00106109
-2.12819e-07
1.15298e-06
2.11847e-07
8.2698e-07
-1.95921e-07
-8.27888e-07
1.94228e-07
-0.00026104
1.18504e-06
1.15223e-06
-2.04653e-07
-2.09808e-07
0.000259118
4.27387e-10
4.90081e-10
-0.00106074
-5.27381e-10
-4.89846e-10
0.00106074
-0.00106142
-1.1572e-06
-4.66629e-10
1.1576e-09
0.00106142
-2.15335e-07
1.15846e-06
2.14693e-07
8.27464e-07
-1.9301e-07
-8.27639e-07
1.91901e-07
-0.00106109
-1.15188e-06
-4.85104e-10
1.09196e-09
0.00106109
-2.12608e-07
1.15317e-06
2.12017e-07
8.27289e-07
-1.9559e-07
-8.27513e-07
1.94508e-07
-0.00026104
1.1848e-06
1.152e-06
-2.04451e-07
-2.09602e-07
0.000259117
5.13292e-10
6.10659e-10
-0.00106074
-6.1015e-10
-5.51805e-10
0.00106074
-0.00106142
-1.15722e-06
-5.63797e-10
1.18232e-09
0.00106142
-2.15353e-07
1.15844e-06
2.14673e-07
8.27482e-07
-1.92989e-07
-8.27619e-07
1.91918e-07
-0.00106109
-1.15187e-06
-6.0686e-10
1.06917e-09
0.00106109
-2.12598e-07
1.15318e-06
2.12026e-07
8.27305e-07
-1.95573e-07
-8.27494e-07
1.94523e-07
-0.00026104
1.18478e-06
1.15199e-06
-2.04443e-07
-2.09591e-07
0.000259117
5.20177e-10
6.0517e-10
-0.00106074
-5.83462e-10
-5.58084e-10
0.00106074
-0.00106142
-1.15718e-06
-6.10725e-10
1.10227e-09
0.00106142
-2.15312e-07
1.15848e-06
2.14722e-07
8.27479e-07
-1.92983e-07
-8.27617e-07
1.9192e-07
-0.00106109
-1.15187e-06
-6.22168e-10
1.06768e-09
0.00106109
-2.12596e-07
1.15318e-06
2.12028e-07
8.27309e-07
-1.95568e-07
-8.2749e-07
1.94527e-07
-0.00026104
1.18478e-06
1.15198e-06
-2.04438e-07
-2.09589e-07
0.000259117
5.48921e-10
5.94842e-10
-0.00106074
-5.72539e-10
-5.68118e-10
0.00106074
-0.00106142
-1.15717e-06
-6.2717e-10
1.08566e-09
0.00106142
-2.15304e-07
1.15849e-06
2.1473e-07
8.27481e-07
-1.92985e-07
-8.27616e-07
1.91919e-07
-0.00106109
-1.15187e-06
-6.20097e-10
1.0717e-09
0.00106109
-2.12597e-07
1.15318e-06
2.12027e-07
8.27308e-07
-1.9557e-07
-8.27492e-07
1.94526e-07
-0.00026104
1.18478e-06
1.15198e-06
-2.04437e-07
-2.09592e-07
0.000259117
5.52292e-10
5.90595e-10
-0.00106074
-5.80846e-10
-5.77836e-10
0.00106074
-0.00106142
-1.15718e-06
-6.11075e-10
1.08531e-09
0.00106142
-2.15306e-07
1.15849e-06
2.14729e-07
8.27479e-07
-1.9299e-07
-8.2762e-07
1.91915e-07
-0.00106109
-1.15187e-06
-6.03316e-10
1.07561e-09
0.00106109
-2.12599e-07
1.15318e-06
2.12025e-07
8.27306e-07
-1.95573e-07
-8.27495e-07
1.94523e-07
-0.00026104
1.18479e-06
1.15198e-06
-2.04439e-07
-2.09595e-07
0.000259117
5.43872e-10
5.89817e-10
-0.00106074
-5.70737e-10
-5.60531e-10
0.00106074
-0.00106142
-1.15717e-06
-6.29163e-10
1.0866e-09
0.00106142
-2.15304e-07
1.15849e-06
2.14728e-07
8.27483e-07
-1.92985e-07
-8.27615e-07
1.9192e-07
-0.00106109
-1.15187e-06
-6.19826e-10
1.07244e-09
0.00106109
-2.12596e-07
1.15318e-06
2.12028e-07
8.2731e-07
-1.95569e-07
-8.27491e-07
1.94527e-07
-0.00026104
1.18479e-06
1.15198e-06
-2.04437e-07
-2.09593e-07
0.000259117
4.56769e-10
5.76875e-10
-0.00106074
-5.37077e-10
-5.23355e-10
0.00106074
-0.00106142
-1.15717e-06
-6.56961e-10
1.08462e-09
0.00106142
-2.12619e-07
1.15849e-06
2.12043e-07
8.27487e-07
-1.92957e-07
-8.27612e-07
1.91903e-07
-0.00106109
-1.15187e-06
-6.33514e-10
1.07023e-09
0.00106109
-2.12595e-07
1.15318e-06
2.12029e-07
8.27312e-07
-1.95566e-07
-8.27488e-07
1.9453e-07
-0.00026104
1.18478e-06
1.15197e-06
-2.04434e-07
-2.09591e-07
0.000259117
6.30653e-10
6.21989e-10
-0.00106074
-5.95014e-10
-6.27306e-10
0.00106074
-0.00106142
-1.15715e-06
-6.86752e-10
1.02454e-09
0.00106142
-2.12591e-07
1.1585e-06
2.1205e-07
8.27478e-07
-1.92933e-07
-8.27594e-07
1.9188e-07
-0.00106109
-1.15186e-06
-6.43251e-10
1.05565e-09
0.00106109
-2.12586e-07
1.15318e-06
2.1203e-07
8.27311e-07
-1.95562e-07
-8.27478e-07
1.94531e-07
-0.00026104
1.18478e-06
1.15197e-06
-2.04426e-07
-2.09586e-07
0.000259117
5.20374e-06
5.21457e-06
0.000260582
-0.000259168
-5.92348e-06
-5.90936e-06
5.04725e-06
0.000261416
-0.000258689
-5.92746e-06
3.35692e-06
-5.20382e-06
5.04221e-06
0.000261449
-0.000258704
-5.93545e-06
3.35208e-06
5.20441e-06
0.000260595
-0.00025917
-5.8949e-06
-5.9381e-06
5.04028e-06
0.00026148
-0.000258719
-5.93292e-06
3.34676e-06
5.04704e-06
-5.20605e-06
0.000261423
-0.000258689
3.36198e-06
-5.93765e-06
1.06764e-05
1.05827e-05
-0.00025265
-0.000256079
-0.000255119
-0.000255119
-6.41362e-06
-4.09024e-06
-6.66017e-06
-6.41401e-06
-4.09111e-06
-6.66573e-06
-5.03525e-06
0.00104215
1.0636e-05
1.0588e-05
-0.000252652
-0.000256076
-0.000255121
-0.000255122
-6.41624e-06
-4.09051e-06
-6.66291e-06
-6.41146e-06
-4.08591e-06
-6.65813e-06
-5.0349e-06
0.00104203
1.06963e-05
1.06486e-05
-0.000252645
-0.000256071
-0.000255119
-0.000255114
-6.4161e-06
-4.09787e-06
-6.66285e-06
-6.4163e-06
-4.08814e-06
-6.66046e-06
-5.04962e-06
-5.0377e-06
0.00104209
1.06916e-05
1.05929e-05
-0.000252647
-0.000256074
-0.000255119
-0.000255119
-6.41099e-06
-4.09283e-06
-6.65785e-06
-6.41643e-06
-4.09096e-06
-6.66318e-06
-0.000258714
-5.9253e-06
3.34171e-06
-5.20366e-06
0.00026141
-0.000258686
3.35697e-06
-5.92739e-06
5.2068e-06
0.000260575
-0.000259155
-5.89717e-06
-5.9353e-06
-0.000258699
3.34926e-06
-5.92242e-06
-5.21456e-06
0.000261477
-0.000258714
3.34426e-06
-5.9304e-06
-0.000259165
-5.92334e-06
-5.90938e-06
5.59284e-06
5.63007e-06
-4.84101e-06
-4.83477e-06
0.000259035
-9.4798e-07
-9.12575e-07
0.000261136
-0.000259217
-3.32637e-08
-2.53096e-08
7.12034e-06
0.00105883
-4.51033e-06
-1.6024e-06
-2.24434e-06
-2.62869e-06
-6.57613e-06
-7.01968e-06
-3.22054e-06
-0.000263275
-0.000259688
-0.000262801
-5.60331e-06
1.45934e-05
7.05977e-06
0.0010592
-4.52946e-06
-1.59476e-06
-2.24747e-06
-2.63967e-06
-6.60764e-06
-7.03659e-06
-3.2362e-06
-0.000263349
-0.000259719
-0.000262842
0.00106067
1.53647e-06
-0.00106043
7.35241e-07
-1.56719e-06
4.11199e-09
-5.16426e-07
-1.25423e-06
-8.65953e-08
-5.87019e-07
5.49355e-07
9.55918e-07
0.00106109
1.53662e-06
-0.00106085
7.29807e-07
-1.57772e-06
1.35482e-08
-5.21982e-07
-1.25996e-06
-8.67725e-08
-5.87429e-07
5.5473e-07
-4.83905e-06
-4.8317e-06
0.000259045
-9.15093e-07
0.000261162
-0.000259237
-3.06745e-08
-2.26846e-08
6.84172e-06
0.00105967
-4.53462e-06
-1.66189e-06
-2.26065e-06
-2.63798e-06
-6.5901e-06
-7.03197e-06
-3.23146e-06
-0.00026337
-0.000259747
-0.000262855
-5.60301e-06
1.46278e-05
7.15367e-06
0.00105898
-4.52927e-06
-1.60487e-06
-2.25253e-06
-2.64158e-06
-6.60694e-06
-7.03544e-06
-3.23585e-06
-0.000259688
-0.000263326
-0.000262814
0.00106168
1.54445e-06
-0.00106143
7.23709e-07
-1.53696e-06
8.04466e-10
-5.16412e-07
-1.25739e-06
-8.68363e-08
-5.84922e-07
5.51652e-07
9.45433e-07
0.00106078
1.54754e-06
-0.00106056
7.45575e-07
-1.56722e-06
7.45188e-09
-5.16586e-07
-1.25723e-06
-8.43684e-08
-5.89955e-07
5.49157e-07
1.46247e-05
7.14094e-06
0.00105878
-4.51023e-06
-1.60228e-06
-2.24169e-06
-2.62869e-06
-6.57609e-06
-3.22054e-06
-7.01734e-06
-0.000259683
-0.00026327
-0.000262796
1.54367e-06
-0.00106118
7.2885e-07
-1.53693e-06
4.48168e-09
-5.13661e-07
-1.25473e-06
-8.91817e-08
5.46475e-07
-5.84773e-07
9.45411e-07
0.00106057
1.54697e-06
-0.00106035
7.45544e-07
-1.56715e-06
7.50079e-09
-5.16423e-07
-1.25708e-06
-8.66957e-08
-5.87158e-07
5.51817e-07
-4.84389e-06
-4.83149e-06
0.000259025
-9.06952e-07
0.000261113
-0.000259199
-3.37375e-08
-2.78565e-08
1.45259e-05
6.85999e-06
0.00105962
-4.53473e-06
-1.66185e-06
-2.26066e-06
-2.63783e-06
-6.58998e-06
-3.23138e-06
-7.02923e-06
-0.000259737
-0.000263367
-0.00026285
1.54885e-06
-0.00106088
7.45078e-07
-1.53443e-06
6.46378e-10
-5.1638e-07
-1.25159e-06
-8.42478e-08
5.46497e-07
-5.87161e-07
9.07136e-07
0.00106159
1.54945e-06
-0.00106136
7.34528e-07
-1.53192e-06
5.73174e-10
-5.13888e-07
-1.25464e-06
-8.66331e-08
-5.87337e-07
5.46731e-07
-0.000259214
-3.087e-08
-2.79469e-08
1.36032e-06
1.32481e-06
-3.59975e-07
-3.68112e-07
0.000259179
-1.18183e-06
-1.14385e-06
0.000261063
-0.000259135
1.95132e-07
2.02692e-07
3.58217e-07
0.00106069
-3.43907e-07
1.08424e-06
1.29142e-07
7.02491e-07
-3.69756e-07
-1.01887e-06
6.09593e-08
-1.36564e-06
7.35808e-07
3.52848e-07
0.00106112
-3.4669e-07
1.09228e-06
1.29185e-07
7.07921e-07
-3.72584e-07
-1.02446e-06
6.36732e-08
0.00106067
8.08911e-08
-0.00106068
3.7403e-08
-1.20494e-06
2.11448e-07
-2.31349e-07
-8.48447e-07
1.80018e-07
-2.10236e-07
8.14866e-07
1.18717e-06
0.0010611
8.09123e-08
-0.00106111
3.22747e-08
-1.21019e-06
2.11481e-07
-2.31383e-07
-8.51298e-07
1.80093e-07
-2.10312e-07
8.17701e-07
-3.60378e-07
-3.67746e-07
0.000259197
-1.14905e-06
0.000261089
-0.000259148
1.95332e-07
2.00068e-07
3.5214e-07
0.00106171
-3.41211e-07
1.04886e-06
1.26697e-07
7.05032e-07
-3.72747e-07
-1.02191e-06
6.36113e-08
-1.36033e-06
7.41306e-07
3.58215e-07
0.0010608
-3.46649e-07
1.08431e-06
1.2917e-07
7.02457e-07
-3.72527e-07
-1.0191e-06
6.37625e-08
0.00106169
8.1154e-08
-0.00106171
3.71634e-08
-1.16686e-06
2.06265e-07
-2.26048e-07
-8.45991e-07
1.82739e-07
-2.10388e-07
8.17615e-07
1.17669e-06
0.00106078
8.10879e-08
-0.00106079
3.74048e-08
-1.20235e-06
2.08749e-07
-2.31379e-07
-8.48585e-07
1.79994e-07
-2.10303e-07
8.17592e-07
7.35934e-07
3.58229e-07
0.0010606
-3.46558e-07
1.08171e-06
1.26395e-07
7.02363e-07
-3.72494e-07
6.35838e-08
-1.019e-06
8.10685e-08
-0.00106145
4.22371e-08
-1.17463e-06
2.03513e-07
-2.26028e-07
-8.45889e-07
1.82694e-07
8.1753e-07
-2.10329e-07
1.17925e-06
0.00106058
7.59038e-08
-0.00106058
3.74396e-08
-1.2023e-06
2.08753e-07
-2.31349e-07
-8.48513e-07
1.7996e-07
-2.10265e-07
8.1491e-07
-3.63147e-07
-3.65152e-07
0.000259159
-1.14111e-06
0.000261037
-0.000259115
1.95245e-07
2.00063e-07
7.37008e-07
3.47268e-07
0.00106163
-3.41265e-07
1.04351e-06
1.21053e-07
6.9992e-07
-3.69925e-07
5.83256e-08
-1.01639e-06
8.10889e-08
-0.00106112
3.73028e-08
-1.16414e-06
2.03462e-07
-2.26055e-07
-8.40437e-07
1.80043e-07
8.09509e-07
-2.10281e-07
1.14382e-06
0.0010616
8.11511e-08
-0.00106161
3.7258e-08
-1.16428e-06
2.03526e-07
-2.26091e-07
-8.48553e-07
1.80076e-07
-2.1301e-07
8.14978e-07
-0.000259122
1.95121e-07
2.00246e-07
1.19583e-06
1.16299e-06
-2.07304e-07
-2.14965e-07
0.000259127
-1.19087e-06
-1.15546e-06
0.000261056
-0.00025912
2.02898e-07
2.08031e-07
1.64577e-08
0.00106067
-2.25726e-07
1.18682e-06
2.15898e-07
8.21248e-07
-1.99872e-07
-8.35221e-07
1.83469e-07
-1.20115e-06
3.30574e-08
2.65639e-08
0.00106109
-2.25773e-07
1.19215e-06
2.15974e-07
8.26733e-07
-2.02624e-07
-8.40695e-07
1.88851e-07
0.00106067
3.45908e-09
-0.00106067
2.66426e-09
-1.19056e-06
2.16885e-07
-2.18375e-07
-8.28408e-07
1.88562e-07
-1.91006e-07
8.26729e-07
1.1962e-06
0.00106108
3.50497e-09
-0.00106109
2.65342e-09
-1.19589e-06
2.19643e-07
-2.21131e-07
-8.36544e-07
1.93939e-07
-1.96412e-07
8.34849e-07
-2.09998e-07
-2.12284e-07
0.000259147
-1.15807e-06
0.000261084
-0.000259146
2.05633e-07
2.1039e-07
1.62684e-08
0.0010617
-2.23132e-07
1.15143e-06
2.10693e-07
8.23959e-07
-2.02648e-07
-8.4059e-07
1.8885e-07
-1.19326e-06
3.31855e-08
2.15133e-08
0.00106077
-2.25765e-07
1.18425e-06
2.15965e-07
8.23951e-07
-2.02606e-07
-8.37949e-07
1.88788e-07
0.00106169
3.46045e-09
-0.00106169
2.5894e-09
-1.15513e-06
2.14346e-07
-2.15801e-07
-8.31124e-07
1.93965e-07
-1.9641e-07
8.2947e-07
1.19092e-06
0.00106077
3.49649e-09
-0.00106077
2.66074e-09
-1.19062e-06
2.19632e-07
-2.21123e-07
-8.31076e-07
1.93903e-07
-1.96366e-07
8.29391e-07
3.82239e-08
1.64642e-08
0.00106058
-2.23027e-07
1.18161e-06
2.1053e-07
8.23896e-07
-2.02529e-07
1.86101e-07
-8.37878e-07
3.45437e-09
-0.00106143
2.59342e-09
-1.15773e-06
2.14348e-07
-2.15794e-07
-8.28465e-07
1.91285e-07
8.2679e-07
-1.93743e-07
1.18565e-06
0.00106057
3.49893e-09
-0.00106057
2.66409e-09
-1.18535e-06
2.14205e-07
-2.15681e-07
-8.28442e-07
1.91185e-07
-1.93659e-07
8.2675e-07
-2.09998e-07
-2.14781e-07
0.000259111
-1.15275e-06
0.000261035
-0.000259105
2.03099e-07
2.10354e-07
3.31672e-08
2.14246e-08
0.0010616
-2.17776e-07
1.14361e-06
2.05333e-07
8.21412e-07
-1.99953e-07
1.86192e-07
-8.3535e-07
3.46439e-09
-0.00106109
2.59975e-09
-1.15243e-06
2.11642e-07
-2.13091e-07
-8.28291e-07
1.93879e-07
8.26672e-07
-1.96338e-07
1.15285e-06
0.0010616
3.50525e-09
-0.0010616
2.59573e-09
-1.15254e-06
2.1169e-07
-2.13147e-07
-8.25942e-07
1.91277e-07
-1.93739e-07
8.24271e-07
-0.000259118
2.05399e-07
2.10558e-07
1.19025e-06
1.15483e-06
-2.02138e-07
-2.07273e-07
0.00025912
-1.19129e-06
-1.15587e-06
0.000261055
-0.00025912
2.03213e-07
2.0836e-07
1.80639e-09
0.00106067
-2.18096e-07
1.19111e-06
2.17103e-07
8.2709e-07
-1.90616e-07
-8.27965e-07
1.88881e-07
-1.19558e-06
1.46159e-09
1.81004e-09
0.00106108
-2.20856e-07
1.19643e-06
2.19854e-07
8.35207e-07
-1.96022e-07
-8.36099e-07
1.94261e-07
0.00106067
-3.02255e-10
-0.00106067
1.14277e-09
-1.19003e-06
2.17266e-07
-2.17899e-07
-8.27624e-07
1.89147e-07
-1.90311e-07
8.27369e-07
1.19661e-06
0.00106108
-2.50742e-10
-0.00106108
1.19764e-09
-1.19536e-06
2.20005e-07
-2.20669e-07
-8.35753e-07
1.94513e-07
-1.95713e-07
8.35485e-07
-2.04863e-07
-2.09631e-07
0.000259146
-1.15846e-06
0.000261084
-0.000259145
2.0593e-07
2.1071e-07
1.7539e-09
0.00106169
-2.1553e-07
1.15569e-06
2.14557e-07
8.29832e-07
-1.96015e-07
-8.3068e-07
1.94286e-07
-1.19031e-06
1.43556e-09
1.82179e-09
0.00106077
-2.20848e-07
1.19116e-06
2.19843e-07
8.2975e-07
-1.95972e-07
-8.30632e-07
1.94228e-07
0.00106169
-3.82425e-10
-0.00106169
1.13304e-09
-1.15461e-06
2.14711e-07
-2.15343e-07
-8.30318e-07
1.94566e-07
-1.95692e-07
8.30127e-07
1.19134e-06
0.00106077
-3.16793e-10
-0.00106077
1.15049e-09
-1.19009e-06
2.20007e-07
-2.20651e-07
-8.30279e-07
1.94502e-07
-1.95651e-07
8.30039e-07
1.43363e-09
1.81371e-09
0.00106057
-2.15413e-07
1.18588e-06
2.14413e-07
8.27109e-07
-1.93264e-07
1.91513e-07
-8.27998e-07
-3.58553e-10
-0.00106142
1.1657e-09
-1.15721e-06
2.14699e-07
-2.15341e-07
-8.27662e-07
1.91885e-07
8.27446e-07
-1.93029e-07
1.18607e-06
0.00106057
-3.07349e-10
-0.00106057
1.14132e-09
-1.18481e-06
2.14582e-07
-2.15208e-07
-8.27651e-07
1.91783e-07
-1.92946e-07
8.27397e-07
-2.02342e-07
-2.09603e-07
0.000259105
-1.15316e-06
0.000261035
-0.000259105
2.0342e-07
2.10677e-07
1.43905e-09
1.77016e-09
0.0010616
-2.12878e-07
1.15308e-06
2.11897e-07
8.2463e-07
-1.93344e-07
1.91604e-07
-8.25495e-07
-3.75562e-10
-0.00106109
1.11136e-09
-1.1519e-06
2.12013e-07
-2.12622e-07
-8.27488e-07
1.94474e-07
8.27323e-07
-1.95627e-07
1.15326e-06
0.0010616
-3.72727e-10
-0.0010616
1.12603e-09
-1.15201e-06
2.12062e-07
-2.12677e-07
-8.25137e-07
1.9188e-07
-1.93021e-07
8.24927e-07
-0.000259117
2.05719e-07
2.10883e-07
1.19001e-06
1.1546e-06
-2.01942e-07
-2.07064e-07
0.00025912
-1.19132e-06
-1.15588e-06
0.000261055
-0.00025912
2.03224e-07
2.08378e-07
1.10592e-09
0.00106067
-2.17883e-07
1.1913e-06
2.17276e-07
8.27387e-07
-1.90296e-07
-8.27597e-07
1.89154e-07
-1.19535e-06
-3.51274e-10
1.18003e-09
0.00106108
-2.20658e-07
1.19661e-06
2.20006e-07
8.35494e-07
-1.95711e-07
-8.35738e-07
1.94507e-07
0.00106067
-5.04893e-10
-0.00106067
1.06265e-09
-1.19e-06
2.17289e-07
-2.17874e-07
-8.27592e-07
1.89171e-07
-1.90283e-07
8.27392e-07
1.19662e-06
0.00106108
-4.09804e-10
-0.00106108
1.18303e-09
-1.19534e-06
2.20018e-07
-2.20658e-07
-8.35731e-07
1.94519e-07
-1.95703e-07
8.35505e-07
-2.04682e-07
-2.0943e-07
0.000259145
-1.15846e-06
0.000261084
-0.000259145
2.05926e-07
2.10724e-07
1.11449e-09
0.00106168
-2.15329e-07
1.15587e-06
2.14717e-07
8.30144e-07
-1.95678e-07
-8.30301e-07
1.9457e-07
-1.19007e-06
-4.4098e-10
1.12957e-09
0.00106077
-2.20635e-07
1.19135e-06
2.20015e-07
8.30056e-07
-1.95637e-07
-8.30258e-07
1.94511e-07
0.00106169
-6.18979e-10
-0.00106169
1.09872e-09
-1.15459e-06
2.14725e-07
-2.15326e-07
-8.3028e-07
1.94594e-07
-1.95659e-07
8.30158e-07
1.19136e-06
0.00106077
-5.42806e-10
-0.00106077
1.09485e-09
-1.19006e-06
2.20027e-07
-2.20628e-07
-8.30243e-07
1.94529e-07
-1.95619e-07
8.30068e-07
-4.20418e-10
1.11422e-09
0.00106057
-2.15199e-07
1.18607e-06
2.14587e-07
8.27416e-07
-1.9293e-07
1.91797e-07
-8.27629e-07
-5.59424e-10
-0.00106142
1.17212e-09
-1.15721e-06
2.14699e-07
-2.1535e-07
-8.27622e-07
1.91918e-07
8.27479e-07
-1.92993e-07
1.18609e-06
0.00106057
-5.1932e-10
-0.00106057
1.07382e-09
-1.18478e-06
2.14601e-07
-2.15185e-07
-8.27617e-07
1.91808e-07
-1.92916e-07
8.27425e-07
-2.02137e-07
-2.09397e-07
0.000259105
-1.15318e-06
0.000261035
-0.000259105
2.03435e-07
2.10695e-07
-4.89533e-10
1.11365e-09
0.0010616
-2.1267e-07
1.15327e-06
2.12065e-07
8.24947e-07
-1.93003e-07
1.91895e-07
-8.25113e-07
-6.07579e-10
-0.00106109
1.06175e-09
-1.15187e-06
2.12031e-07
-2.12601e-07
-8.2745e-07
1.94502e-07
8.27354e-07
-1.95594e-07
1.15328e-06
0.0010616
-6.07049e-10
-0.0010616
1.08577e-09
-1.15198e-06
2.12077e-07
-2.12659e-07
-8.25099e-07
1.91909e-07
-1.92987e-07
8.24958e-07
-0.000259117
2.05732e-07
2.10899e-07
1.18999e-06
1.15459e-06
-2.01934e-07
-2.07053e-07
0.00025912
-1.19131e-06
-1.15588e-06
0.000261055
-0.00025912
2.03227e-07
2.08378e-07
1.06784e-09
0.00106067
-2.17871e-07
1.19132e-06
2.17287e-07
8.27396e-07
-1.90281e-07
-8.2759e-07
1.89164e-07
-1.19535e-06
-3.85814e-10
1.19714e-09
0.00106108
-2.20666e-07
1.19661e-06
2.19998e-07
8.35484e-07
-1.95743e-07
-8.35743e-07
1.94478e-07
0.00106067
-5.26606e-10
-0.00106067
1.09163e-09
-1.19e-06
2.17285e-07
-2.17881e-07
-8.27586e-07
1.89172e-07
-1.90281e-07
8.27397e-07
1.19663e-06
0.00106108
-5.1356e-10
-0.00106108
1.11605e-09
-1.19532e-06
2.2004e-07
-2.20626e-07
-8.35696e-07
1.94551e-07
-1.95664e-07
8.35527e-07
-2.04716e-07
-2.09422e-07
0.000259145
-1.15848e-06
0.000261084
-0.000259145
2.05954e-07
2.10732e-07
1.10311e-09
0.00106169
-2.15322e-07
1.15588e-06
2.14724e-07
8.30159e-07
-1.95662e-07
-8.30283e-07
1.94585e-07
-1.19006e-06
-5.51701e-10
1.09863e-09
0.00106077
-2.20624e-07
1.19136e-06
2.20025e-07
8.3007e-07
-1.95622e-07
-8.30241e-07
1.94523e-07
0.00106169
-6.21978e-10
-0.00106169
1.09982e-09
-1.15459e-06
2.14727e-07
-2.15325e-07
-8.30277e-07
1.94596e-07
-1.95657e-07
8.30161e-07
1.19136e-06
0.00106077
-5.64482e-10
-0.00106077
1.08179e-09
-1.19005e-06
2.20031e-07
-2.20623e-07
-8.30238e-07
1.94534e-07
-1.95614e-07
8.30073e-07
-5.2555e-10
1.07808e-09
0.00106057
-2.15187e-07
1.18609e-06
2.14597e-07
8.2743e-07
-1.92915e-07
1.9181e-07
-8.27612e-07
-5.98803e-10
-0.00106142
1.11538e-09
-1.15718e-06
2.14726e-07
-2.15313e-07
-8.27616e-07
1.91922e-07
8.27479e-07
-1.92983e-07
1.18609e-06
0.00106057
-5.50835e-10
-0.00106057
1.08007e-09
-1.18478e-06
2.14604e-07
-2.15181e-07
-8.2761e-07
1.91815e-07
-1.92909e-07
8.27432e-07
-2.02127e-07
-2.09385e-07
0.000259105
-1.15318e-06
0.000261035
-0.000259105
2.03438e-07
2.10698e-07
-6.14877e-10
1.09457e-09
0.0010616
-2.12661e-07
1.15328e-06
2.12072e-07
8.24963e-07
-1.92985e-07
1.91911e-07
-8.25094e-07
-6.28296e-10
-0.00106109
1.06067e-09
-1.15187e-06
2.12032e-07
-2.12599e-07
-8.27445e-07
1.94507e-07
8.27359e-07
-1.95589e-07
1.15329e-06
0.0010616
-6.31259e-10
-0.0010616
1.07026e-09
-1.15198e-06
2.12083e-07
-2.12652e-07
-8.25093e-07
1.91915e-07
-1.9298e-07
8.24963e-07
-0.000259117
2.05738e-07
2.10902e-07
1.19001e-06
1.15459e-06
-2.0194e-07
-2.07056e-07
0.00025912
-1.19392e-06
-1.15586e-06
0.000261058
-0.00025912
2.03235e-07
2.08374e-07
1.12581e-09
0.00106066
-2.17887e-07
1.19392e-06
2.19957e-07
8.27392e-07
-1.90289e-07
-8.27589e-07
1.8915e-07
-1.19533e-06
-5.1772e-10
1.10676e-09
0.00106108
-2.20629e-07
1.19663e-06
2.20037e-07
8.35524e-07
-1.95683e-07
-8.35706e-07
1.94548e-07
0.00106066
-5.0193e-10
-0.00106066
1.15996e-09
-1.19263e-06
2.19953e-07
-2.20588e-07
-8.276e-07
1.89163e-07
-1.903e-07
8.27383e-07
1.19664e-06
0.00106108
-5.36956e-10
-0.00106108
1.07633e-09
-1.19532e-06
2.20042e-07
-2.2063e-07
-8.33079e-07
1.94563e-07
-1.95666e-07
8.32905e-07
-2.04663e-07
-2.09412e-07
0.000259145
-1.15849e-06
0.000261084
-0.000259145
2.05962e-07
2.10734e-07
1.1138e-09
0.00106169
-2.15325e-07
1.15587e-06
2.14718e-07
8.30163e-07
-1.9566e-07
-8.3028e-07
1.94588e-07
-1.19005e-06
-5.61682e-10
1.08843e-09
0.00106077
-2.20619e-07
1.19136e-06
2.20029e-07
8.30074e-07
-1.95617e-07
-8.30237e-07
1.94527e-07
0.00106169
-6.02097e-10
-0.00106169
1.11962e-09
-1.1546e-06
2.14706e-07
-2.1535e-07
-8.30275e-07
1.94599e-07
-1.95653e-07
8.30162e-07
1.19137e-06
0.00106077
-5.61544e-10
-0.00106077
1.07459e-09
-1.19005e-06
2.20031e-07
-2.20623e-07
-8.30237e-07
1.94532e-07
-1.95614e-07
8.30072e-07
-5.48938e-10
1.09439e-09
0.00106057
-2.15186e-07
1.18609e-06
2.14597e-07
8.27435e-07
-1.9291e-07
1.91814e-07
-8.27606e-07
-6.33564e-10
-0.00106142
1.08757e-09
-1.15718e-06
2.14732e-07
-2.1531e-07
-8.27617e-07
1.91921e-07
8.27481e-07
-1.92986e-07
1.18609e-06
0.00106057
-5.65551e-10
-0.00106057
1.09452e-09
-1.18478e-06
2.14601e-07
-2.15182e-07
-8.27607e-07
1.91816e-07
-1.92907e-07
8.27433e-07
-2.02125e-07
-2.09381e-07
0.000259105
-1.15318e-06
0.000261035
-0.000259105
2.03437e-07
2.10698e-07
-6.19916e-10
1.08213e-09
0.0010616
-2.12656e-07
1.15328e-06
2.12077e-07
8.24965e-07
-1.92982e-07
1.91913e-07
-8.25091e-07
-6.35484e-10
-0.00106109
1.06198e-09
-1.15187e-06
2.12032e-07
-2.12599e-07
-8.27444e-07
1.94507e-07
8.2736e-07
-1.95588e-07
1.15329e-06
0.0010616
-6.23169e-10
-0.0010616
1.0623e-09
-1.15198e-06
2.12084e-07
-2.1265e-07
-8.25094e-07
1.91912e-07
-1.92982e-07
8.24962e-07
-0.000259117
2.05738e-07
2.10899e-07
1.19262e-06
1.15459e-06
-2.01967e-07
-2.07059e-07
0.00025912
-1.19392e-06
-1.15589e-06
0.000261058
-0.00025912
2.03265e-07
2.08375e-07
1.11614e-09
0.00106066
-2.20562e-07
1.19392e-06
2.19995e-07
8.27404e-07
-1.90276e-07
-8.27586e-07
1.91833e-07
-1.19532e-06
-5.39362e-10
1.08734e-09
0.00106108
-2.20626e-07
1.19664e-06
2.20038e-07
8.32906e-07
-1.95668e-07
-8.33076e-07
1.94558e-07
0.00106066
-5.51691e-10
-0.00106066
1.11761e-09
-1.19262e-06
2.19991e-07
-2.20593e-07
-8.27578e-07
1.91841e-07
-1.92931e-07
8.27403e-07
1.19664e-06
0.00106108
-5.42941e-10
-0.00106108
1.10627e-09
-1.19533e-06
2.20036e-07
-2.20635e-07
-8.33079e-07
1.94562e-07
-1.95665e-07
8.32904e-07
-2.0465e-07
-2.0941e-07
0.000259145
-1.15849e-06
0.000261084
-0.000259145
2.05962e-07
2.1073e-07
1.09358e-09
0.00106169
-2.15326e-07
1.15589e-06
2.1473e-07
8.3016e-07
-1.95657e-07
-8.3028e-07
1.94589e-07
-1.19005e-06
-5.55867e-10
1.09003e-09
0.00106077
-2.2062e-07
1.19136e-06
2.20028e-07
8.30072e-07
-1.95619e-07
-8.30239e-07
1.94525e-07
0.00106169
-6.08154e-10
-0.00106169
1.07457e-09
-1.15458e-06
2.14732e-07
-2.15318e-07
-8.30282e-07
1.94591e-07
-1.95659e-07
8.30154e-07
1.19136e-06
0.00106077
-5.45802e-10
-0.00106077
1.10124e-09
-1.19006e-06
2.20026e-07
-2.20628e-07
-8.30241e-07
1.94529e-07
-1.95618e-07
8.30069e-07
-5.60696e-10
1.10401e-09
0.00106057
-2.15189e-07
1.18608e-06
2.14594e-07
8.27436e-07
-1.92909e-07
1.91815e-07
-8.27605e-07
-6.11428e-10
-0.00106142
1.08847e-09
-1.15718e-06
2.14731e-07
-2.1531e-07
-8.27622e-07
1.91916e-07
8.27477e-07
-1.92992e-07
1.18608e-06
0.00106057
-5.53818e-10
-0.00106057
1.10864e-09
-1.18479e-06
2.14598e-07
-2.15187e-07
-8.27609e-07
1.91815e-07
-1.92909e-07
8.27432e-07
-2.02125e-07
-2.09382e-07
0.000259105
-1.15318e-06
0.000261035
-0.000259105
2.03435e-07
2.10694e-07
-6.14648e-10
1.0756e-09
0.0010616
-2.12655e-07
1.15328e-06
2.12077e-07
8.24964e-07
-1.92984e-07
1.91911e-07
-8.25093e-07
-6.13386e-10
-0.00106109
1.06981e-09
-1.15187e-06
2.12029e-07
-2.12601e-07
-8.2745e-07
1.94503e-07
8.27356e-07
-1.95593e-07
1.15329e-06
0.0010616
-6.03935e-10
-0.0010616
1.06623e-09
-1.15198e-06
2.12083e-07
-2.12652e-07
-8.25098e-07
1.9191e-07
-1.92986e-07
8.24959e-07
-0.000259117
2.05738e-07
2.10897e-07
1.19262e-06
1.15458e-06
-2.0196e-07
-2.07061e-07
0.00025912
-1.19392e-06
-1.15589e-06
0.000261058
-0.00025912
2.03268e-07
2.08376e-07
1.12227e-09
0.00106066
-2.20586e-07
1.19392e-06
2.19988e-07
8.27404e-07
-1.92933e-07
-8.27579e-07
1.91831e-07
-1.19533e-06
-5.44775e-10
1.10508e-09
0.00106108
-2.20631e-07
1.19663e-06
2.20035e-07
8.32905e-07
-1.95668e-07
-8.33077e-07
1.94557e-07
0.00106066
-5.46802e-10
-0.00106066
1.13197e-09
-1.19262e-06
2.19987e-07
-2.20596e-07
-8.2758e-07
1.91846e-07
-1.92932e-07
8.27405e-07
1.19664e-06
0.00106108
-5.5082e-10
-0.00106108
1.1036e-09
-1.19532e-06
2.20044e-07
-2.20631e-07
-8.33077e-07
1.94569e-07
-1.95659e-07
8.3291e-07
-2.0465e-07
-2.09414e-07
0.000259145
-1.15849e-06
0.000261084
-0.000259145
2.05961e-07
2.10737e-07
1.08276e-09
0.00106169
-2.15312e-07
1.15588e-06
2.14729e-07
8.30155e-07
-1.95663e-07
-8.30285e-07
1.9458e-07
-1.19006e-06
-5.48424e-10
1.10774e-09
0.00106077
-2.20625e-07
1.19136e-06
2.20024e-07
8.3007e-07
-1.95622e-07
-8.30241e-07
1.94523e-07
0.00106169
-6.07514e-10
-0.00106169
1.08639e-09
-1.15458e-06
2.14729e-07
-2.1532e-07
-8.3028e-07
1.94593e-07
-1.95657e-07
8.30158e-07
1.19136e-06
0.00106077
-5.57647e-10
-0.00106077
1.08641e-09
-1.19005e-06
2.20031e-07
-2.20624e-07
-8.30238e-07
1.94533e-07
-1.95615e-07
8.30072e-07
-5.52543e-10
1.11495e-09
0.00106057
-2.15192e-07
1.18608e-06
2.14591e-07
8.27434e-07
-1.9291e-07
1.91813e-07
-8.27607e-07
-6.27619e-10
-0.00106142
1.08549e-09
-1.15718e-06
2.14732e-07
-2.15308e-07
-8.27619e-07
1.91919e-07
8.2748e-07
-1.92989e-07
1.18609e-06
0.00106057
-5.62833e-10
-0.00106057
1.10504e-09
-1.18478e-06
2.14599e-07
-2.15186e-07
-8.27607e-07
1.91817e-07
-1.92907e-07
8.27434e-07
-2.02128e-07
-2.09386e-07
0.000259105
-1.15318e-06
0.000261035
-0.000259105
2.03437e-07
2.10698e-07
-5.97616e-10
1.07718e-09
0.0010616
-2.12657e-07
1.15328e-06
2.12076e-07
8.2496e-07
-1.92987e-07
1.91908e-07
-8.25096e-07
-6.28267e-10
-0.00106109
1.06148e-09
-1.15187e-06
2.12033e-07
-2.12599e-07
-8.27446e-07
1.94507e-07
8.2736e-07
-1.95589e-07
1.15329e-06
0.0010616
-6.11056e-10
-0.0010616
1.06326e-09
-1.15198e-06
2.12084e-07
-2.12651e-07
-8.25095e-07
1.91912e-07
-1.92983e-07
8.24961e-07
-0.000259117
2.05739e-07
2.10898e-07
1.19262e-06
1.15458e-06
-2.01969e-07
-2.07062e-07
0.00025912
-1.19391e-06
-1.15585e-06
0.000261058
-0.00025912
2.03202e-07
2.08372e-07
1.13824e-09
0.00106066
-2.20594e-07
1.19392e-06
2.19984e-07
8.27405e-07
-1.92942e-07
-8.27583e-07
1.91834e-07
-1.19532e-06
-5.14864e-10
-4.1548e-09
0.00106109
-2.20624e-07
1.19665e-06
2.20046e-07
8.32877e-07
-1.95665e-07
-8.3308e-07
1.94564e-07
0.00106066
-4.14162e-10
-0.00106066
1.23548e-09
-1.19264e-06
2.19954e-07
-2.20632e-07
-8.27623e-07
1.91786e-07
-1.93002e-07
8.27368e-07
1.19666e-06
0.00106108
-5.3138e-10
-0.00106109
6.10091e-09
-1.19532e-06
2.20054e-07
-2.20623e-07
-8.33033e-07
1.94586e-07
-1.95657e-07
8.32924e-07
-2.04646e-07
-2.09408e-07
0.000259145
-1.15849e-06
0.000261084
-0.000259145
2.0596e-07
2.10749e-07
1.0985e-09
0.00106169
-2.15321e-07
1.15588e-06
2.14722e-07
8.30159e-07
-1.95663e-07
-8.30283e-07
1.94582e-07
-1.19005e-06
-5.52521e-10
1.09194e-09
0.00106077
-2.2062e-07
1.19136e-06
2.20029e-07
8.30072e-07
-1.95619e-07
-8.30239e-07
1.94525e-07
0.00106169
-5.95012e-10
-0.00106169
1.15134e-09
-1.15462e-06
2.14687e-07
-2.15364e-07
-8.30275e-07
1.94601e-07
-1.95653e-07
8.30167e-07
1.19137e-06
0.00106077
-5.60233e-10
-0.00106077
1.06382e-09
-1.19005e-06
2.20034e-07
-2.2062e-07
-8.30237e-07
1.94534e-07
-1.95613e-07
8.30074e-07
-5.59776e-10
1.10807e-09
0.00106057
-2.1519e-07
1.18608e-06
2.14593e-07
8.27436e-07
-1.92907e-07
1.91816e-07
-8.27604e-07
-6.52079e-10
-0.00106142
1.08726e-09
-1.15717e-06
2.12045e-07
-2.12623e-07
-8.27616e-07
1.91901e-07
8.27484e-07
-1.9296e-07
1.18609e-06
0.00106057
-5.732e-10
-0.00106057
1.09931e-09
-1.18478e-06
2.14601e-07
-2.15184e-07
-8.27605e-07
1.91819e-07
-1.92904e-07
8.27437e-07
-2.02125e-07
-2.09381e-07
0.000259105
-1.15319e-06
0.000261035
-0.000259105
2.03438e-07
2.10701e-07
-6.10236e-10
1.07327e-09
0.0010616
-2.12655e-07
1.15328e-06
2.12078e-07
8.24963e-07
-1.92984e-07
1.91911e-07
-8.25093e-07
-6.43186e-10
-0.00106109
1.06074e-09
-1.15187e-06
2.12034e-07
-2.12597e-07
-8.27442e-07
1.94511e-07
8.27363e-07
-1.95585e-07
1.15329e-06
0.0010616
-6.24065e-10
-0.0010616
1.05522e-09
-1.15197e-06
2.12087e-07
-2.12648e-07
-8.25093e-07
1.91914e-07
-1.92981e-07
8.24963e-07
-0.000259117
2.05742e-07