/*--------------------------------*- C++ -*----------------------------------*\
| =========                 |                                                 |
| \\      /  F ield         | OpenFOAM: The Open Source CFD Toolbox           |
|  \\    /   O peration     | Version:  2206                                  |
|   \\  /    A nd           | Website:  www.openfoam.com                      |
|    \\/     M anipulation  |                                                 |
\*---------------------------------------------------------------------------*/
FoamFile
{
    version     2.0;
    format      ascii;
    arch        "LSB;label=32;scalar=64";
    class       volVectorField;
    location    "5.5";
    object      U;
}
// * * * * * * * * * * * * * * * * * * * * * * * * * * * * * * * * * * * * * //

dimensions      [0 1 -1 0 0 0 0];

internalField   nonuniform List<vector> 
28688
(
(0.000108938 0.000108871 0.100294)
(-0.000202948 0.000127183 0.100384)
(0.000127224 -0.000202939 0.100384)
(-0.000224475 -0.000224492 0.100398)
(3.84712e-05 3.84127e-05 0.100724)
(-4.34144e-05 2.70173e-05 0.10076)
(2.70654e-05 -4.34157e-05 0.10076)
(-8.21623e-05 -8.21711e-05 0.10078)
(2.99722e-06 2.98785e-06 0.100768)
(-3.35659e-06 2.17115e-06 0.100771)
(2.1799e-06 -3.35935e-06 0.100771)
(-3.47591e-05 -3.47862e-05 0.100772)
(-5.0593e-08 -5.17527e-08 0.100771)
(-3.56876e-07 4.12359e-07 0.100771)
(4.1222e-07 -3.53468e-07 0.100771)
(-3.26557e-05 -3.26712e-05 0.10077)
(-2.50396e-07 -2.46493e-07 0.100771)
(-1.84872e-07 3.35387e-07 0.100771)
(3.28286e-07 -1.85565e-07 0.100771)
(-3.25705e-05 -3.25842e-05 0.10077)
(-2.62572e-07 -2.56334e-07 0.100771)
(-1.77808e-07 3.37618e-07 0.100771)
(3.24618e-07 -1.78027e-07 0.100771)
(-3.25666e-05 -3.25793e-05 0.10077)
(-2.60536e-07 -2.57564e-07 0.100771)
(-1.75487e-07 3.27535e-07 0.100771)
(3.23782e-07 -1.7636e-07 0.100771)
(-3.25644e-05 -3.25787e-05 0.10077)
(-2.58732e-07 -2.5844e-07 0.100771)
(-1.74751e-07 3.25328e-07 0.100771)
(3.24026e-07 -1.76481e-07 0.100771)
(-3.25641e-05 -3.25795e-05 0.10077)
(-2.60147e-07 -2.5925e-07 0.100771)
(-1.76418e-07 3.25734e-07 0.100771)
(3.2472e-07 -1.77594e-07 0.100771)
(-3.25648e-05 -3.25809e-05 0.10077)
(-2.59589e-07 -2.57501e-07 0.100771)
(-1.74575e-07 3.25814e-07 0.100771)
(3.242e-07 -1.76297e-07 0.100771)
(-3.2564e-05 -3.258e-05 0.10077)
(-2.55785e-07 -2.53121e-07 0.100771)
(-1.72696e-07 3.25423e-07 0.100771)
(3.23408e-07 -1.75253e-07 0.100771)
(-3.25626e-05 -3.25791e-05 0.10077)
(-2.61828e-07 -2.65076e-07 0.100771)
(-1.71433e-07 3.18598e-07 0.100771)
(3.21246e-07 -1.7417e-07 0.100771)
(-3.2559e-05 -3.25766e-05 0.10077)
(0.000132901 0.000132882 0.100285)
(0.000114373 0.000138052 0.10023)
(-0.000114367 0.000138026 0.10023)
(-0.0001329 0.000132854 0.100285)
(0.00013806 0.000114325 0.10023)
(0.000138045 -0.000114342 0.10023)
(8.54881e-05 8.54506e-05 0.100148)
(-8.54827e-05 8.54467e-05 0.100148)
(8.54698e-05 -8.54849e-05 0.100148)
(-8.54719e-05 -8.54814e-05 0.100148)
(-0.00013806 0.000114322 0.10023)
(-0.000138058 -0.000114343 0.10023)
(0.000132882 -0.000132903 0.100285)
(0.000114332 -0.000138068 0.10023)
(-0.000114328 -0.000138048 0.10023)
(-0.000132892 -0.000132877 0.100285)
(0.00022451 0.000224495 0.100398)
(3.78421e-05 3.76734e-05 0.100774)
(0.000127291 0.000202812 0.100384)
(-0.000127238 0.000202865 0.100384)
(4.85283e-05 7.8325e-05 0.100737)
(-4.85342e-05 7.83374e-05 0.100737)
(-0.000224524 0.000224443 0.100398)
(-3.79202e-05 3.77939e-05 0.100774)
(0.000202987 0.000127204 0.100384)
(0.00020291 -0.000127237 0.100384)
(7.84233e-05 4.84739e-05 0.100737)
(7.83993e-05 -4.85447e-05 0.100737)
(-0.000202889 -0.000127232 0.100384)
(-7.83764e-05 4.85059e-05 0.100737)
(-7.8341e-05 -4.85368e-05 0.100737)
(0.000224447 -0.000224539 0.100398)
(3.78245e-05 -3.77676e-05 0.100774)
(-0.000127207 -0.000202969 0.100384)
(4.85259e-05 -7.83491e-05 0.100737)
(-4.85015e-05 -7.83818e-05 0.100737)
(-3.78184e-05 -3.77798e-05 0.100774)
(8.22027e-05 8.20561e-05 0.10078)
(-3.02325e-05 -3.02284e-05 0.100773)
(2.70761e-05 4.33957e-05 0.10076)
(-2.70575e-05 4.34129e-05 0.10076)
(4.0986e-06 6.44753e-06 0.100772)
(-4.09088e-06 6.45193e-06 0.100772)
(-8.22073e-05 8.20897e-05 0.10078)
(3.02446e-05 -3.02345e-05 0.100773)
(4.34608e-05 2.70279e-05 0.10076)
(4.34451e-05 -2.70838e-05 0.10076)
(6.46343e-06 4.07631e-06 0.100772)
(6.46699e-06 -4.09146e-06 0.100772)
(-4.34388e-05 -2.70719e-05 0.10076)
(-6.45775e-06 4.07339e-06 0.100772)
(-6.46322e-06 -4.0982e-06 0.100772)
(8.21837e-05 -8.21756e-05 0.10078)
(-3.02243e-05 3.02498e-05 0.100773)
(-2.70315e-05 -4.34307e-05 0.10076)
(4.08152e-06 -6.45229e-06 0.100772)
(-4.08251e-06 -6.45535e-06 0.100772)
(3.02283e-05 3.02429e-05 0.100773)
(3.47811e-05 3.47503e-05 0.100772)
(-3.34132e-05 -3.33945e-05 0.100771)
(2.18816e-06 3.35312e-06 0.100771)
(-2.18796e-06 3.36078e-06 0.100771)
(5.24201e-07 5.52984e-07 0.100771)
(-5.24627e-07 5.59863e-07 0.100771)
(-3.47783e-05 3.47463e-05 0.100772)
(3.34155e-05 -3.33961e-05 0.100771)
(3.36588e-06 2.16942e-06 0.100771)
(3.37003e-06 -2.18461e-06 0.100771)
(5.51018e-07 5.14123e-07 0.100771)
(5.56962e-07 -5.23441e-07 0.100771)
(-3.36078e-06 -2.18221e-06 0.100771)
(-5.52135e-07 5.14929e-07 0.100771)
(-5.59291e-07 -5.21012e-07 0.100771)
(3.47568e-05 -3.47867e-05 0.100772)
(-3.33919e-05 3.34214e-05 0.100771)
(-2.17209e-06 -3.35862e-06 0.100771)
(5.13141e-07 -5.49604e-07 0.100771)
(-5.13206e-07 -5.53496e-07 0.100771)
(3.33964e-05 3.34138e-05 0.100771)
(3.26635e-05 3.26446e-05 0.10077)
(-3.35491e-05 -3.3525e-05 0.10077)
(4.19435e-07 3.55929e-07 0.100771)
(-4.20699e-07 3.64714e-07 0.100771)
(3.37581e-07 1.99125e-07 0.100771)
(-3.43661e-07 2.05326e-07 0.100771)
(-3.26653e-05 3.26411e-05 0.10077)
(3.35472e-05 -3.35208e-05 0.10077)
(3.54113e-07 4.12505e-07 0.100771)
(3.5916e-07 -4.19862e-07 0.100771)
(1.90643e-07 3.34464e-07 0.100771)
(1.98036e-07 -3.37549e-07 0.100771)
(-3.63164e-07 -4.18061e-07 0.100771)
(-1.90875e-07 3.37067e-07 0.100771)
(-1.98632e-07 -3.3532e-07 0.100771)
(3.26436e-05 -3.26762e-05 0.10077)
(-3.35244e-05 3.35549e-05 0.10077)
(-4.1112e-07 -3.56921e-07 0.100771)
(3.30639e-07 -1.90397e-07 0.100771)
(-3.30652e-07 -1.90032e-07 0.100771)
(3.35291e-05 3.35483e-05 0.10077)
(3.25758e-05 3.25622e-05 0.10077)
(-3.35573e-05 -3.35304e-05 0.10077)
(3.32443e-07 1.91552e-07 0.100771)
(-3.40537e-07 1.99945e-07 0.100771)
(3.27232e-07 1.87463e-07 0.100771)
(-3.38999e-07 1.97513e-07 0.100771)
(-3.25818e-05 3.25636e-05 0.10077)
(3.35534e-05 -3.35217e-05 0.10077)
(1.85829e-07 3.3137e-07 0.100771)
(1.91005e-07 -3.34079e-07 0.100771)
(1.76789e-07 3.28142e-07 0.100771)
(1.85517e-07 -3.29623e-07 0.100771)
(-1.92486e-07 -3.32214e-07 0.100771)
(-1.77248e-07 3.3521e-07 0.100771)
(-1.86523e-07 -3.26971e-07 0.100771)
(3.25575e-05 -3.25896e-05 0.10077)
(-3.35316e-05 3.35631e-05 0.10077)
(-3.28389e-07 -1.83684e-07 0.100771)
(3.23418e-07 -1.76906e-07 0.100771)
(-3.24291e-07 -1.76697e-07 0.100771)
(3.35351e-05 3.35558e-05 0.10077)
(3.25706e-05 3.25581e-05 0.10077)
(-3.35561e-05 -3.35301e-05 0.10077)
(3.27861e-07 1.87676e-07 0.100771)
(-3.42235e-07 2.01391e-07 0.100771)
(3.28614e-07 1.85602e-07 0.100771)
(-3.32287e-07 1.88253e-07 0.100771)
(-3.25799e-05 3.25711e-05 0.10077)
(3.35568e-05 -3.35308e-05 0.10077)
(1.78554e-07 3.28867e-07 0.100771)
(1.8451e-07 -3.29639e-07 0.100771)
(1.76089e-07 3.27629e-07 0.100771)
(1.83194e-07 -3.27766e-07 0.100771)
(-1.85885e-07 -3.27658e-07 0.100771)
(-1.75299e-07 3.27967e-07 0.100771)
(-1.8389e-07 -3.26439e-07 0.100771)
(3.2553e-05 -3.25843e-05 0.10077)
(-3.35323e-05 3.35644e-05 0.10077)
(-3.24968e-07 -1.75934e-07 0.100771)
(3.22571e-07 -1.75231e-07 0.100771)
(-3.22173e-07 -1.74463e-07 0.100771)
(3.35375e-05 3.35567e-05 0.10077)
(3.25736e-05 3.25585e-05 0.10077)
(-3.35544e-05 -3.35216e-05 0.10077)
(3.34599e-07 1.87985e-07 0.100771)
(-3.32358e-07 1.89041e-07 0.100771)
(3.37045e-07 1.87855e-07 0.100771)
(-3.28369e-07 1.86399e-07 0.100771)
(-3.25738e-05 3.25558e-05 0.10077)
(3.35583e-05 -3.35334e-05 0.10077)
(1.77419e-07 3.29901e-07 0.100771)
(1.83441e-07 -3.28264e-07 0.100771)
(1.75274e-07 3.29582e-07 0.100771)
(1.8278e-07 -3.26677e-07 0.100771)
(-1.8405e-07 -3.28093e-07 0.100771)
(-1.73513e-07 3.25215e-07 0.100771)
(-1.8228e-07 -3.27234e-07 0.100771)
(3.25522e-05 -3.25828e-05 0.10077)
(-3.35322e-05 3.35644e-05 0.10077)
(-3.2329e-07 -1.75333e-07 0.100771)
(3.22098e-07 -1.73969e-07 0.100771)
(-3.21076e-07 -1.74343e-07 0.100771)
(3.3538e-05 3.3556e-05 0.10077)
(3.25729e-05 3.25568e-05 0.10077)
(-3.35553e-05 -3.35318e-05 0.10077)
(3.3102e-07 1.84133e-07 0.100771)
(-3.29698e-07 1.86368e-07 0.100771)
(3.31919e-07 1.83937e-07 0.100771)
(-3.31404e-07 1.86366e-07 0.100771)
(-3.25722e-05 3.25516e-05 0.10077)
(3.35566e-05 -3.35334e-05 0.10077)
(1.77245e-07 3.26081e-07 0.100771)
(1.83596e-07 -3.28159e-07 0.100771)
(1.7672e-07 3.25228e-07 0.100771)
(1.84821e-07 -3.29641e-07 0.100771)
(-1.82517e-07 -3.28692e-07 0.100771)
(-1.763e-07 3.2618e-07 0.100771)
(-1.83753e-07 -3.29221e-07 0.100771)
(3.25521e-05 -3.25828e-05 0.10077)
(-3.35313e-05 3.35628e-05 0.10077)
(-3.22442e-07 -1.74909e-07 0.100771)
(3.23625e-07 -1.75849e-07 0.100771)
(-3.2214e-07 -1.76249e-07 0.100771)
(3.35376e-05 3.35548e-05 0.10077)
(3.25732e-05 3.25527e-05 0.10077)
(-3.35558e-05 -3.35326e-05 0.10077)
(3.32327e-07 1.84351e-07 0.100771)
(-3.31341e-07 1.85949e-07 0.100771)
(3.33314e-07 1.8425e-07 0.100771)
(-3.3002e-07 1.84385e-07 0.100771)
(-3.25738e-05 3.25519e-05 0.10077)
(3.35601e-05 -3.35334e-05 0.10077)
(1.7938e-07 3.26699e-07 0.100771)
(1.84288e-07 -3.30022e-07 0.100771)
(1.76901e-07 3.26549e-07 0.100771)
(1.83451e-07 -3.27842e-07 0.100771)
(-1.83611e-07 -3.30203e-07 0.100771)
(-1.74638e-07 3.25668e-07 0.100771)
(-1.82618e-07 -3.28559e-07 0.100771)
(3.25535e-05 -3.25847e-05 0.10077)
(-3.35322e-05 3.35642e-05 0.10077)
(-3.23175e-07 -1.7676e-07 0.100771)
(3.22217e-07 -1.74386e-07 0.100771)
(-3.21614e-07 -1.75515e-07 0.100771)
(3.35378e-05 3.35551e-05 0.10077)
(3.25738e-05 3.25551e-05 0.10077)
(-3.35528e-05 -3.35145e-05 0.10077)
(3.32837e-07 1.84029e-07 0.100771)
(-3.30803e-07 1.88969e-07 0.100771)
(3.44548e-07 1.99483e-07 0.100771)
(-3.29827e-07 1.83195e-07 0.100771)
(-3.2571e-05 3.25513e-05 0.10077)
(3.3567e-05 -3.35339e-05 0.10077)
(1.78971e-07 3.27867e-07 0.100771)
(1.84039e-07 -3.28604e-07 0.100771)
(1.75707e-07 3.3457e-07 0.100771)
(1.82817e-07 -3.25786e-07 0.100771)
(-1.82871e-07 -3.29255e-07 0.100771)
(-1.73176e-07 3.25793e-07 0.100771)
(-1.81565e-07 -3.27656e-07 0.100771)
(3.25521e-05 -3.25828e-05 0.10077)
(-3.35329e-05 3.35656e-05 0.10077)
(-3.22396e-07 -1.75501e-07 0.100771)
(3.21819e-07 -1.73505e-07 0.100771)
(-3.20324e-07 -1.74163e-07 0.100771)
(3.35392e-05 3.35561e-05 0.10077)
(3.25763e-05 3.25727e-05 0.10077)
(-3.3554e-05 -3.35331e-05 0.10077)
(3.42201e-07 1.93383e-07 0.100771)
(-3.2969e-07 1.89241e-07 0.100771)
(3.32035e-07 1.79492e-07 0.100771)
(-3.29078e-07 1.76814e-07 0.100771)
(-3.25698e-05 3.25501e-05 0.10077)
(3.35666e-05 -3.35376e-05 0.10077)
(1.77199e-07 3.33143e-07 0.100771)
(1.83018e-07 -3.26764e-07 0.100771)
(1.7428e-07 3.22449e-07 0.100771)
(1.81787e-07 -3.26778e-07 0.100771)
(-1.8089e-07 -3.28338e-07 0.100771)
(-1.72448e-07 3.2072e-07 0.100771)
(-1.79171e-07 -3.27914e-07 0.100771)
(3.25514e-05 -3.25816e-05 0.10077)
(-3.35332e-05 3.35647e-05 0.10077)
(-3.20878e-07 -1.7446e-07 0.100771)
(3.208e-07 -1.72146e-07 0.100771)
(-3.1878e-07 -1.73867e-07 0.100771)
(3.35398e-05 3.3555e-05 0.10077)
(3.25698e-05 3.2546e-05 0.10077)
(-3.35686e-05 -3.35477e-05 0.10077)
(3.31037e-07 1.77391e-07 0.100771)
(-3.2793e-07 1.8195e-07 0.100771)
(3.18124e-07 1.53931e-07 0.100771)
(-3.25632e-05 3.25397e-05 0.10077)
(1.759e-07 3.21357e-07 0.100771)
(1.79886e-07 -3.26523e-07 0.100771)
(1.50311e-07 3.08271e-07 0.100771)
(1.58167e-07 -3.13825e-07 0.100771)
(-1.78328e-07 -3.28385e-07 0.100771)
(-1.56774e-07 -3.13524e-07 0.100771)
(3.25479e-05 -3.25793e-05 0.10077)
(-3.35471e-05 3.3578e-05 0.10077)
(-3.18593e-07 -1.73174e-07 0.100771)
(3.07117e-07 -1.50167e-07 0.100771)
(-3.0496e-07 -1.51563e-07 0.100771)
(3.35523e-05 3.35699e-05 0.10077)
(-5.36749e-07 -5.39481e-07 0.0999994)
(1.61567e-05 1.61503e-05 0.100003)
(-4.46584e-07 1.24039e-05 0.100001)
(1.24103e-05 -4.48877e-07 0.100001)
(-4.68725e-05 5.54731e-06 0.100008)
(-1.62877e-05 1.59231e-05 0.1)
(-0.000128268 6.05966e-05 0.100057)
(-1.0987e-05 -8.4395e-07 0.099996)
(5.53976e-06 -4.68605e-05 0.100008)
(1.59275e-05 -1.62881e-05 0.1)
(-8.42546e-07 -1.09864e-05 0.099996)
(6.06104e-05 -0.000128198 0.100057)
(-1.95966e-05 -1.96022e-05 0.100004)
(-0.000135521 -8.11263e-05 0.100054)
(-8.11312e-05 -0.000135501 0.100054)
(-4.52702e-05 0.00012767 0.100746)
(0.000176762 0.000390053 0.0994612)
(1.03694e-06 0.000292111 0.100523)
(-7.80246e-05 0.000215151 0.0991382)
(-0.000290747 0.000833855 0.0978306)
(-0.000164455 0.000293214 0.0956234)
(0.000127398 -4.53573e-05 0.100747)
(0.00039065 0.000175673 0.0994619)
(0.000292818 8.83996e-07 0.100523)
(0.000215321 -7.79204e-05 0.0991389)
(-0.000108914 0.000108873 0.100294)
(0.000108909 -0.000108919 0.100294)
(-0.000108894 -0.00010893 0.100294)
(5.98405e-05 5.97563e-05 0.100684)
(-5.97934e-05 5.97575e-05 0.100684)
(5.98242e-05 -5.98307e-05 0.100684)
(-5.97974e-05 -5.98385e-05 0.100684)
(-0.000271497 2.8317e-06 0.100762)
(-0.000387956 0.000222428 0.100547)
(-0.000186729 3.77172e-05 0.100329)
(-0.000139589 8.76632e-05 0.10057)
(-0.000346512 1.30086e-05 0.100482)
(-0.000110379 0.000179034 0.100738)
(-0.000150179 3.32514e-05 0.10051)
(0.000832819 -0.000288855 0.0978299)
(0.000293134 -0.000163949 0.0956236)
(2.79268e-06 -0.000271454 0.100762)
(3.77571e-05 -0.000186712 0.100329)
(0.000222501 -0.000387938 0.100547)
(8.76438e-05 -0.000139582 0.10057)
(1.30076e-05 -0.00034641 0.100482)
(3.33078e-05 -0.00015016 0.10051)
(0.000179078 -0.000110424 0.100738)
(-0.000361683 -0.000136456 0.100386)
(-0.00013663 -0.000361946 0.100386)
(-0.000115774 -0.000115885 0.100665)
(1.74021e-05 -6.63865e-05 0.100596)
(-6.6529e-05 1.74151e-05 0.100596)
(-3.38645e-06 -2.78398e-06 0.10058)
(-2.90126e-05 8.13778e-05 0.0988789)
(-1.60822e-05 1.39779e-05 0.100637)
(-7.44921e-06 8.43941e-06 0.098856)
(-3.7789e-05 3.93319e-05 0.0943998)
(-8.17829e-06 -2.55535e-07 0.0943665)
(-2.77119e-06 -3.42866e-06 0.10058)
(8.16098e-05 -2.89991e-05 0.0988789)
(1.40349e-05 -1.60966e-05 0.100637)
(8.48081e-06 -7.46181e-06 0.0988559)
(-3.84401e-05 3.84177e-05 0.100724)
(3.84664e-05 -3.8461e-05 0.100724)
(-3.84502e-05 -3.84686e-05 0.100724)
(6.03444e-06 6.01797e-06 0.100765)
(-6.02689e-06 6.0164e-06 0.100765)
(6.03604e-06 -6.03658e-06 0.100765)
(-6.02879e-06 -6.03637e-06 0.100765)
(-7.20486e-06 1.13036e-06 0.100756)
(-2.32679e-05 4.16966e-05 0.100672)
(-5.14683e-05 1.35226e-05 0.100742)
(-2.37321e-05 1.48373e-05 0.100769)
(-6.8743e-05 2.61862e-06 0.100778)
(-9.88119e-07 7.28771e-06 0.100631)
(-2.79887e-05 7.98754e-06 0.100757)
(3.93596e-05 -3.77071e-05 0.0943994)
(-2.22401e-07 -8.15464e-06 0.0943664)
(1.15348e-06 -7.19511e-06 0.100756)
(1.3581e-05 -5.14452e-05 0.100742)
(4.18336e-05 -2.33046e-05 0.100672)
(1.48598e-05 -2.37006e-05 0.100769)
(2.69171e-06 -6.86536e-05 0.100778)
(8.02121e-06 -2.7984e-05 0.100757)
(7.29927e-06 -9.44212e-07 0.100631)
(2.82526e-05 6.52031e-07 0.100434)
(6.44708e-07 2.83717e-05 0.100434)
(1.76827e-05 1.77169e-05 0.100776)
(5.2241e-06 2.02132e-06 0.100359)
(2.00698e-06 5.19011e-06 0.100359)
(-1.76415e-09 -4.3279e-06 0.10056)
(6.31521e-07 3.83523e-06 0.0988481)
(-2.30638e-08 5.27853e-06 0.100562)
(-4.97748e-07 -3.93013e-06 0.0988477)
(-1.7363e-06 6.20272e-07 0.094368)
(6.15361e-07 -1.10685e-06 0.0943676)
(-4.35431e-06 -5.56014e-09 0.10056)
(3.86427e-06 6.02696e-07 0.0988479)
(5.30454e-06 -3.32756e-08 0.100562)
(-3.94255e-06 -4.9764e-07 0.0988476)
(-2.99577e-06 2.98564e-06 0.100768)
(3.00044e-06 -2.99981e-06 0.100768)
(-2.99735e-06 -3.00202e-06 0.100768)
(1.60375e-07 1.58665e-07 0.10077)
(-1.57432e-07 1.60432e-07 0.10077)
(1.62099e-07 -1.62672e-07 0.10077)
(-1.60081e-07 -1.66233e-07 0.10077)
(7.98976e-06 3.91777e-09 0.100747)
(-8.78217e-06 3.12676e-06 0.100611)
(-3.68248e-06 9.62692e-07 0.10077)
(-1.75836e-06 1.20483e-06 0.100771)
(-1.11195e-05 2.09133e-07 0.100748)
(6.52294e-06 -2.07478e-06 0.10061)
(-1.88213e-06 4.0394e-07 0.100771)
(5.848e-07 -1.70806e-06 0.0943672)
(-1.04626e-06 5.78109e-07 0.0943672)
(1.71305e-08 7.98898e-06 0.100747)
(9.71845e-07 -3.68642e-06 0.10077)
(3.15279e-06 -8.79058e-06 0.100611)
(1.20821e-06 -1.75741e-06 0.100771)
(2.11274e-07 -1.11186e-05 0.100748)
(4.1132e-07 -1.8801e-06 0.100771)
(-2.08461e-06 6.54224e-06 0.10061)
(-2.82666e-06 -3.35655e-06 0.10033)
(-3.34291e-06 -2.82333e-06 0.10033)
(3.2846e-05 3.28648e-05 0.100771)
(1.93711e-06 2.3376e-06 0.100328)
(2.33906e-06 1.92805e-06 0.100328)
(-9.20161e-09 -4.59943e-06 0.10056)
(5.53284e-07 3.93501e-06 0.0988462)
(1.0562e-08 4.58906e-06 0.100559)
(-5.88104e-07 -3.87427e-06 0.0988471)
(-9.7513e-07 1.01294e-06 0.0943665)
(8.5086e-07 -1.01352e-06 0.094367)
(-4.62402e-06 -1.07663e-08 0.10056)
(3.9421e-06 5.45095e-07 0.0988461)
(4.61024e-06 1.43244e-08 0.100559)
(-3.87801e-06 -5.76433e-07 0.0988469)
(5.38194e-08 -4.79392e-08 0.100771)
(-4.74427e-08 4.92453e-08 0.100771)
(5.17951e-08 4.48668e-08 0.100771)
(-2.38054e-07 -2.34432e-07 0.100771)
(2.34588e-07 -2.32745e-07 0.100771)
(-2.35501e-07 2.36822e-07 0.100771)
(2.34665e-07 2.35992e-07 0.100771)
(8.73696e-06 -4.28842e-08 0.100747)
(-7.34956e-06 2.30312e-06 0.100609)
(-3.9247e-07 -5.46184e-08 0.100771)
(-2.54764e-07 3.65069e-07 0.100771)
(-8.96323e-06 4.87087e-08 0.100747)
(7.04202e-06 -2.3169e-06 0.100609)
(-2.98107e-07 -8.23418e-08 0.100771)
(9.52058e-07 -9.36266e-07 0.0943656)
(-9.45261e-07 8.07912e-07 0.0943666)
(-3.6222e-08 8.73946e-06 0.100747)
(-5.43135e-08 -3.91844e-07 0.100771)
(2.31974e-06 -7.36577e-06 0.100609)
(3.62903e-07 -2.51741e-07 0.100771)
(4.42396e-08 -8.9657e-06 0.100747)
(-8.36359e-08 -2.9543e-07 0.100771)
(-2.33264e-06 7.05754e-06 0.100609)
(-2.22996e-06 -2.70736e-06 0.100327)
(-2.69801e-06 -2.22585e-06 0.100327)
(3.35065e-05 3.3525e-05 0.10077)
(2.1554e-06 2.58485e-06 0.100327)
(2.57819e-06 2.15246e-06 0.100327)
(-1.82459e-08 -4.61188e-06 0.10056)
(5.28438e-07 3.95082e-06 0.0988461)
(8.96305e-10 4.54907e-06 0.100559)
(-6.0665e-07 -3.88587e-06 0.098847)
(-9.51026e-07 1.04144e-06 0.0943664)
(7.06825e-07 -8.52917e-07 0.094367)
(-4.63789e-06 -1.00148e-08 0.10056)
(3.94451e-06 5.2251e-07 0.098846)
(4.57024e-06 1.23667e-08 0.100559)
(-3.87382e-06 -5.81453e-07 0.0988469)
(2.45757e-07 -2.42794e-07 0.100771)
(-2.48016e-07 2.49434e-07 0.100771)
(2.46294e-07 2.48266e-07 0.100771)
(-2.62222e-07 -2.54815e-07 0.100771)
(2.5313e-07 -2.49634e-07 0.100771)
(-2.58871e-07 2.60606e-07 0.100771)
(2.5616e-07 2.6028e-07 0.100771)
(8.77442e-06 -4.05176e-08 0.100747)
(-7.26745e-06 2.27336e-06 0.100608)
(-2.23785e-07 -9.62217e-08 0.100771)
(-1.80383e-07 3.36785e-07 0.100771)
(-8.84969e-06 4.61326e-08 0.100747)
(7.07244e-06 -2.3211e-06 0.100609)
(-2.18532e-07 -9.57086e-08 0.100771)
(9.73054e-07 -9.00326e-07 0.0943655)
(-9.37727e-07 8.21804e-07 0.0943665)
(-3.83461e-08 8.77838e-06 0.100747)
(-1.02065e-07 -2.22743e-07 0.100771)
(2.28287e-06 -7.28588e-06 0.100608)
(3.25142e-07 -1.79238e-07 0.100771)
(3.66122e-08 -8.85249e-06 0.100747)
(-1.03104e-07 -2.13206e-07 0.100771)
(-2.3446e-06 7.08395e-06 0.100609)
(-2.20135e-06 -2.66529e-06 0.100327)
(-2.65938e-06 -2.19629e-06 0.100327)
(3.35336e-05 3.35539e-05 0.10077)
(2.16397e-06 2.60126e-06 0.100327)
(2.59192e-06 2.16256e-06 0.100327)
(-2.05934e-08 -4.61294e-06 0.10056)
(5.42535e-07 3.97573e-06 0.0988463)
(-4.45289e-09 4.54626e-06 0.100559)
(-6.12677e-07 -3.89617e-06 0.0988469)
(-1.01118e-06 1.08564e-06 0.0943662)
(7.01161e-07 -8.54581e-07 0.0943671)
(-4.63916e-06 -9.64702e-09 0.10056)
(3.94257e-06 5.21912e-07 0.098846)
(4.56638e-06 1.31111e-08 0.100559)
(-3.87322e-06 -5.80059e-07 0.0988469)
(2.54328e-07 -2.49685e-07 0.100771)
(-2.59264e-07 2.61541e-07 0.100771)
(2.56503e-07 2.6076e-07 0.100771)
(-2.61981e-07 -2.5633e-07 0.100771)
(2.57546e-07 -2.56844e-07 0.100771)
(-2.60035e-07 2.62287e-07 0.100771)
(2.58593e-07 2.61973e-07 0.100771)
(8.77738e-06 -4.01746e-08 0.100747)
(-7.26025e-06 2.27544e-06 0.100608)
(-2.15464e-07 -9.35377e-08 0.100771)
(-1.75687e-07 3.39561e-07 0.100771)
(-8.84296e-06 4.84919e-08 0.100747)
(7.07537e-06 -2.32075e-06 0.100609)
(-2.13884e-07 -9.37192e-08 0.100771)
(9.7318e-07 -8.98213e-07 0.0943655)
(-9.37911e-07 8.22767e-07 0.0943665)
(-3.81963e-08 8.78115e-06 0.100747)
(-1.02917e-07 -2.12918e-07 0.100771)
(2.28076e-06 -7.2808e-06 0.100608)
(3.22745e-07 -1.74361e-07 0.100771)
(3.67269e-08 -8.84592e-06 0.100747)
(-1.03366e-07 -2.0725e-07 0.100771)
(-2.34545e-06 7.08646e-06 0.100609)
(-2.19903e-06 -2.66011e-06 0.100327)
(-2.65598e-06 -2.19328e-06 0.100327)
(3.35357e-05 3.35558e-05 0.10077)
(2.16566e-06 2.60264e-06 0.100327)
(2.59313e-06 2.16434e-06 0.100327)
(-1.04237e-09 -4.61388e-06 0.10056)
(5.66043e-07 3.97806e-06 0.0988462)
(7.43286e-09 4.54315e-06 0.100559)
(-5.67718e-07 -3.88973e-06 0.0988469)
(-9.40869e-07 1.02537e-06 0.0943663)
(8.56979e-07 -9.99578e-07 0.0943669)
(-4.63922e-06 -8.28335e-09 0.10056)
(3.94084e-06 5.22825e-07 0.098846)
(4.56477e-06 1.3992e-08 0.100559)
(-3.87417e-06 -5.78031e-07 0.0988469)
(2.5955e-07 -2.5826e-07 0.100771)
(-2.59815e-07 2.62361e-07 0.100771)
(2.58415e-07 2.60966e-07 0.100771)
(-2.57986e-07 -2.54745e-07 0.100771)
(2.61397e-07 -2.58767e-07 0.100771)
(-2.59146e-07 2.62195e-07 0.100771)
(2.59344e-07 2.6053e-07 0.100771)
(8.77824e-06 -4.36302e-08 0.100747)
(-7.26076e-06 2.26728e-06 0.100608)
(-2.12506e-07 -9.91318e-08 0.100771)
(-1.73968e-07 3.26287e-07 0.100771)
(-8.84223e-06 4.48492e-08 0.100747)
(7.07296e-06 -2.32854e-06 0.100609)
(-2.10376e-07 -1.00168e-07 0.100771)
(9.73665e-07 -8.97447e-07 0.0943655)
(-9.37415e-07 8.2315e-07 0.0943665)
(-3.75624e-08 8.78246e-06 0.100747)
(-1.0238e-07 -2.11417e-07 0.100771)
(2.28059e-06 -7.27923e-06 0.100608)
(3.22483e-07 -1.74104e-07 0.100771)
(3.70185e-08 -8.84463e-06 0.100746)
(-1.02718e-07 -2.0697e-07 0.100771)
(-2.34504e-06 7.0869e-06 0.100609)
(-2.1972e-06 -2.66199e-06 0.100327)
(-2.65625e-06 -2.1928e-06 0.100327)
(3.35374e-05 3.35558e-05 0.10077)
(2.16612e-06 2.60095e-06 0.100327)
(2.5934e-06 2.16364e-06 0.100327)
(-7.04408e-09 -4.61286e-06 0.10056)
(5.28561e-07 3.97241e-06 0.0988463)
(9.81685e-09 4.54788e-06 0.100559)
(-6.07362e-07 -3.89849e-06 0.0988469)
(-9.30368e-07 1.02879e-06 0.0943664)
(8.55995e-07 -9.95559e-07 0.0943669)
(-4.63674e-06 -9.8077e-09 0.10056)
(3.94199e-06 5.23076e-07 0.098846)
(4.56783e-06 1.39464e-08 0.100559)
(-3.87235e-06 -5.80838e-07 0.0988469)
(2.61545e-07 -2.59106e-07 0.100771)
(-2.59033e-07 2.62143e-07 0.100771)
(2.58772e-07 2.59688e-07 0.100771)
(-2.60382e-07 -2.58805e-07 0.100771)
(2.60596e-07 -2.59684e-07 0.100771)
(-2.58643e-07 2.60502e-07 0.100771)
(2.58934e-07 2.59345e-07 0.100771)
(8.77701e-06 -4.4676e-08 0.100747)
(-7.26334e-06 2.26651e-06 0.100608)
(-2.10401e-07 -1.00379e-07 0.100771)
(-1.74793e-07 3.25342e-07 0.100771)
(-8.84292e-06 4.35918e-08 0.100747)
(7.07126e-06 -2.32888e-06 0.100609)
(-2.10205e-07 -1.01035e-07 0.100771)
(9.74513e-07 -8.96989e-07 0.0943655)
(-9.37319e-07 8.22303e-07 0.0943665)
(-3.79026e-08 8.78174e-06 0.100747)
(-1.01817e-07 -2.1056e-07 0.100771)
(2.28122e-06 -7.28139e-06 0.100608)
(3.22557e-07 -1.74253e-07 0.100771)
(3.72058e-08 -8.84647e-06 0.100747)
(-1.02242e-07 -2.07242e-07 0.100771)
(-2.34437e-06 7.08578e-06 0.100609)
(-2.19895e-06 -2.66366e-06 0.100327)
(-2.65665e-06 -2.19533e-06 0.100327)
(3.35375e-05 3.3555e-05 0.10077)
(2.16544e-06 2.60011e-06 0.100327)
(2.59312e-06 2.16269e-06 0.100327)
(-8.38563e-09 -4.61441e-06 0.10056)
(5.44497e-07 3.96653e-06 0.0988462)
(7.00932e-09 4.54377e-06 0.100559)
(-6.04773e-07 -3.88508e-06 0.0988469)
(-9.31413e-07 1.02975e-06 0.0943664)
(8.55897e-07 -1.0017e-06 0.0943669)
(-4.63786e-06 -1.04445e-08 0.10056)
(3.93779e-06 5.1898e-07 0.098846)
(4.56631e-06 1.2037e-08 0.100559)
(-3.86487e-06 -5.79581e-07 0.0988469)
(2.60593e-07 -2.59541e-07 0.100771)
(-2.5852e-07 2.60539e-07 0.100771)
(2.58535e-07 2.58782e-07 0.100771)
(-2.60412e-07 -2.58224e-07 0.100771)
(2.61547e-07 -2.59077e-07 0.100771)
(-2.59197e-07 2.61436e-07 0.100771)
(2.59249e-07 2.59758e-07 0.100771)
(8.77752e-06 -4.52521e-08 0.100747)
(-7.26325e-06 2.26623e-06 0.100608)
(-2.11785e-07 -1.00874e-07 0.100771)
(-1.75612e-07 3.26052e-07 0.100771)
(-8.84246e-06 4.29413e-08 0.100747)
(7.07208e-06 -2.32971e-06 0.100609)
(-2.10834e-07 -1.01361e-07 0.100771)
(9.73425e-07 -8.98511e-07 0.0943655)
(-9.37937e-07 8.22672e-07 0.0943665)
(-3.87418e-08 8.78386e-06 0.100747)
(-1.01715e-07 -2.11966e-07 0.100771)
(2.28077e-06 -7.28133e-06 0.100608)
(3.23185e-07 -1.75114e-07 0.100771)
(3.87989e-08 -8.84883e-06 0.100747)
(-1.02257e-07 -2.07457e-07 0.100771)
(-2.34423e-06 7.08584e-06 0.100609)
(-2.19817e-06 -2.66339e-06 0.100327)
(-2.65641e-06 -2.19452e-06 0.100327)
(3.35373e-05 3.35543e-05 0.10077)
(2.16566e-06 2.60004e-06 0.100327)
(2.59284e-06 2.16257e-06 0.100327)
(6.78363e-10 -4.61252e-06 0.10056)
(5.60709e-07 3.96408e-06 0.0988462)
(1.00061e-08 4.54475e-06 0.100559)
(-6.19219e-07 -3.88629e-06 0.0988469)
(-9.30464e-07 1.03179e-06 0.0943664)
(8.56138e-07 -1.0027e-06 0.0943669)
(-4.63862e-06 -8.37988e-09 0.10056)
(3.93402e-06 5.19519e-07 0.098846)
(4.56646e-06 1.35658e-08 0.100559)
(-3.86065e-06 -5.73201e-07 0.0988469)
(2.61663e-07 -2.57943e-07 0.100771)
(-2.58934e-07 2.61928e-07 0.100771)
(2.58977e-07 2.59575e-07 0.100771)
(-2.57287e-07 -2.52427e-07 0.100771)
(2.64079e-07 -2.54762e-07 0.100771)
(-2.5898e-07 2.63005e-07 0.100771)
(2.59869e-07 2.60512e-07 0.100771)
(8.77862e-06 -4.43952e-08 0.100747)
(-7.26189e-06 2.26665e-06 0.100608)
(-2.10688e-07 -1.00659e-07 0.100771)
(-1.74141e-07 3.27498e-07 0.100771)
(-8.84164e-06 4.33844e-08 0.100747)
(7.07286e-06 -2.32872e-06 0.100609)
(-2.08606e-07 -1.00751e-07 0.100771)
(9.73677e-07 -8.97676e-07 0.0943655)
(-9.37662e-07 8.23256e-07 0.0943665)
(-3.87199e-08 8.78541e-06 0.100747)
(-1.0185e-07 -2.11376e-07 0.100771)
(2.28132e-06 -7.28056e-06 0.100608)
(3.22984e-07 -1.73725e-07 0.100771)
(3.87745e-08 -8.84687e-06 0.100747)
(-1.02071e-07 -2.06102e-07 0.100771)
(-2.34452e-06 7.08707e-06 0.100609)
(-2.19761e-06 -2.66281e-06 0.100327)
(-2.65553e-06 -2.19408e-06 0.100327)
(3.35383e-05 3.35555e-05 0.10077)
(2.16592e-06 2.60095e-06 0.100327)
(2.59422e-06 2.16285e-06 0.100327)
(-8.70076e-09 -4.61324e-06 0.10056)
(6.53197e-07 3.99946e-06 0.0988463)
(2.3409e-08 4.54673e-06 0.100559)
(-6.14008e-07 -3.90089e-06 0.0988469)
(-9.28097e-07 1.03717e-06 0.0943664)
(8.65823e-07 -1.02007e-06 0.0943669)
(-4.6378e-06 -9.32426e-09 0.10056)
(3.93184e-06 5.23501e-07 0.098846)
(4.56625e-06 1.53588e-08 0.100559)
(-3.86127e-06 -5.75974e-07 0.098847)
(2.64305e-07 -2.55201e-07 0.100771)
(-2.58817e-07 2.63084e-07 0.100771)
(2.59748e-07 2.59982e-07 0.100771)
(-2.614e-07 -2.62289e-07 0.100771)
(2.65465e-07 -2.58914e-07 0.100771)
(-2.60503e-07 2.62713e-07 0.100771)
(2.61767e-07 2.59863e-07 0.100771)
(8.77934e-06 -4.55078e-08 0.100747)
(-7.26195e-06 2.26798e-06 0.100608)
(-2.07772e-07 -1.0071e-07 0.100771)
(-1.72106e-07 3.24283e-07 0.100771)
(-8.84104e-06 4.36507e-08 0.100747)
(7.074e-06 -2.33259e-06 0.100609)
(-2.06267e-07 -1.01738e-07 0.100771)
(9.75077e-07 -8.96565e-07 0.0943655)
(-9.40769e-07 8.24113e-07 0.0943665)
(-3.84934e-08 8.78581e-06 0.100747)
(-1.01471e-07 -2.09784e-07 0.100771)
(2.28181e-06 -7.2803e-06 0.100608)
(3.21288e-07 -1.71711e-07 0.100771)
(3.91039e-08 -8.84663e-06 0.100747)
(-1.01849e-07 -2.04043e-07 0.100771)
(-2.34466e-06 7.08745e-06 0.100609)
(-2.19808e-06 -2.66308e-06 0.100327)
(-2.6555e-06 -2.195e-06 0.100327)
(3.35395e-05 3.35559e-05 0.10077)
(2.1656e-06 2.60094e-06 0.100327)
(2.59543e-06 2.1626e-06 0.100327)
(7.66276e-09 -4.61562e-06 0.10056)
(5.37497e-07 4.00945e-06 0.0988463)
(1.42093e-08 4.54268e-06 0.100559)
(-6.45765e-07 -3.89283e-06 0.0988469)
(-9.72898e-07 1.12284e-06 0.0943669)
(8.82143e-07 -1.02913e-06 0.0943667)
(-4.63426e-06 -7.737e-09 0.10056)
(3.97329e-06 5.05306e-07 0.0988461)
(4.56781e-06 1.30053e-08 0.100559)
(-3.85251e-06 -6.24295e-07 0.0988469)
(2.68231e-07 -2.60878e-07 0.100771)
(-2.61677e-07 2.63706e-07 0.100771)
(2.62746e-07 2.59996e-07 0.100771)
(-2.77834e-07 -2.81677e-07 0.100771)
(2.95216e-07 -2.79266e-07 0.100771)
(-2.77937e-07 2.80626e-07 0.100771)
(2.79738e-07 2.75615e-07 0.100771)
(8.7747e-06 -5.49243e-08 0.100747)
(-7.26027e-06 2.25967e-06 0.100608)
(-2.04072e-07 -1.05654e-07 0.100771)
(-1.65388e-07 3.08598e-07 0.100771)
(-8.84305e-06 3.83078e-08 0.100747)
(7.05768e-06 -2.33055e-06 0.100609)
(-1.98457e-07 -1.09876e-07 0.100771)
(1.06323e-06 -9.46827e-07 0.0943658)
(-9.78288e-07 8.44308e-07 0.094366)
(-3.82204e-08 8.77878e-06 0.100747)
(-1.02257e-07 -2.06973e-07 0.100771)
(2.28781e-06 -7.28314e-06 0.100608)
(3.17928e-07 -1.68314e-07 0.100771)
(3.86529e-08 -8.84967e-06 0.100747)
(-1.03496e-07 -1.99082e-07 0.100771)
(-2.3336e-06 7.07662e-06 0.100609)
(-2.18179e-06 -2.67362e-06 0.100327)
(-2.66434e-06 -2.17978e-06 0.100327)
(3.35365e-05 3.3552e-05 0.10077)
(2.16872e-06 2.5822e-06 0.100327)
(2.57716e-06 2.16453e-06 0.100327)
(1.96048e-05 1.9591e-05 0.100004)
(8.11103e-05 0.000135499 0.100054)
(0.000135561 8.11227e-05 0.100054)
(0.000414792 0.0010352 0.0978705)
(0.000115125 0.000204442 0.100125)
(0.00103429 0.00041211 0.0978707)
(0.000204592 0.000115149 0.100125)
(9.95621e-05 9.95301e-05 0.10004)
(0.000118617 0.000504141 0.100274)
(0.00050298 0.000118241 0.100274)
(0.000116766 0.000179293 0.100097)
(0.000179433 0.000116779 0.100097)
(5.54333e-06 4.68413e-05 0.100008)
(1.59327e-05 1.62848e-05 0.1)
(6.06001e-05 0.000128202 0.100057)
(-8.42275e-07 1.09828e-05 0.099996)
(-5.55704e-06 4.68503e-05 0.100008)
(-1.59295e-05 1.62816e-05 0.1)
(-6.05739e-05 0.000128193 0.100057)
(8.41913e-07 1.09828e-05 0.099996)
(4.66114e-06 0.000153283 0.100054)
(0.000323581 0.00031535 0.0993596)
(9.78228e-05 0.00016706 0.100058)
(6.64939e-06 0.000326421 0.100418)
(-4.70122e-06 0.0001533 0.100054)
(-0.000323082 0.000316154 0.0993598)
(-9.7762e-05 0.000167018 0.100058)
(-6.65283e-06 0.000326533 0.100418)
(1.40809e-05 0.000157673 0.100055)
(6.05809e-05 8.39796e-05 0.100031)