/*--------------------------------*- C++ -*----------------------------------*\
| =========                 |                                                 |
| \\      /  F ield         | OpenFOAM: The Open Source CFD Toolbox           |
|  \\    /   O peration     | Version:  2206                                  |
|   \\  /    A nd           | Website:  www.openfoam.com                      |
|    \\/     M anipulation  |                                                 |
\*---------------------------------------------------------------------------*/
FoamFile
{
    version     2.0;
    format      ascii;
    arch        "LSB;label=32;scalar=64";
    class       surfaceScalarField;
    location    "21.5";
    object      phi;
}
// * * * * * * * * * * * * * * * * * * * * * * * * * * * * * * * * * * * * * //

dimensions      [0 3 -1 0 0 0 0];

oriented        oriented;

internalField   nonuniform List<scalar> 
82717
(
1.27585e-09
1.36343e-09
-1.35046e-09
-1.32154e-09
0.00107879
-0.00107912
-1.19267e-06
-1.38846e-09
2.31395e-09
0.00107912
-2.43209e-07
1.19495e-06
2.42303e-07
8.75507e-07
-2.39389e-07
-8.75345e-07
2.36953e-07
-1.18728e-06
-1.37624e-09
2.31002e-09
0.00107878
-2.43186e-07
1.18954e-06
2.42276e-07
8.75336e-07
-2.42044e-07
-8.75222e-07
2.39614e-07
1.22076e-06
1.1874e-06
-2.24004e-07
-2.29262e-07
0.000263305
1.46224e-09
1.53408e-09
-0.00107879
-1.40619e-09
-1.40414e-09
0.00107879
-0.00107912
-1.19263e-06
-1.57968e-09
2.20578e-09
0.00107912
-2.43148e-07
1.19498e-06
2.42356e-07
8.75561e-07
-2.393e-07
-8.75284e-07
2.37032e-07
-0.00107878
-1.18726e-06
-1.56302e-09
2.22585e-09
0.00107878
-2.43143e-07
1.18957e-06
2.4232e-07
8.75398e-07
-2.41939e-07
-8.75155e-07
2.39713e-07
-0.00026526
1.22073e-06
1.18737e-06
-2.23968e-07
-2.29226e-07
0.000263305
1.6993e-09
1.84249e-09
-0.00107879
-1.5323e-09
-1.48916e-09
0.00107879
-0.00107912
-1.19259e-06
-1.82279e-09
2.12075e-09
0.00107912
-2.43106e-07
1.19505e-06
2.42435e-07
8.75658e-07
-2.39204e-07
-8.75217e-07
2.3717e-07
-0.00107878
-1.1872e-06
-1.84583e-09
2.07001e-09
0.00107878
-2.4308e-07
1.18963e-06
2.42395e-07
8.75469e-07
-2.41855e-07
-8.75098e-07
2.39818e-07
-0.000265259
1.22067e-06
1.18732e-06
-2.23907e-07
-2.29159e-07
0.000263304
1.97541e-09
2.26398e-09
-0.00107879
-1.72899e-09
-1.55843e-09
0.00107879
-0.00107911
-1.19248e-06
-2.22941e-09
1.93146e-09
0.00107911
-2.43012e-07
1.19522e-06
2.42598e-07
8.7584e-07
-2.39095e-07
-8.75126e-07
2.37358e-07
-0.00107877
-1.18715e-06
-2.21946e-09
1.84545e-09
0.00107877
-2.43033e-07
1.18977e-06
2.4254e-07
8.75622e-07
-2.41804e-07
-8.75057e-07
2.39969e-07
-0.000265259
1.22062e-06
1.18728e-06
-2.23896e-07
-2.29131e-07
0.000263304
-1.55401e-10
-9.32704e-12
-0.00107879
-7.19823e-10
-6.40781e-10
0.00107879
-0.00107911
-1.19304e-06
5.60112e-11
2.95352e-09
0.00107911
-2.43678e-07
1.19468e-06
2.41965e-07
8.74983e-07
-2.40137e-07
-8.75971e-07
2.36304e-07
-0.00107877
-1.18765e-06
1.21215e-11
2.9302e-09
0.00107877
-2.43626e-07
1.18922e-06
2.41898e-07
8.74848e-07
-2.42633e-07
-8.75772e-07
2.39026e-07
-0.000265258
1.2211e-06
1.18777e-06
-2.24464e-07
-2.2969e-07
0.000263304
1.1702e-09
1.25612e-09
-0.00107879
-1.25464e-09
-1.27351e-09
0.00107879
-0.00107912
-1.19268e-06
-1.38276e-09
2.22812e-09
0.00107912
-2.43208e-07
1.19499e-06
2.42356e-07
8.75594e-07
-2.39542e-07
-8.75401e-07
2.36972e-07
-0.00107878
-1.18731e-06
-1.2914e-09
2.25269e-09
0.00107878
-2.43209e-07
1.18961e-06
2.42377e-07
8.75387e-07
-2.42246e-07
-8.75315e-07
2.39598e-07
-0.00026526
1.22079e-06
1.18742e-06
-2.24032e-07
-2.29299e-07
0.000263305
1.10716e-09
1.38813e-09
-0.00107879
-1.31462e-09
-1.23091e-09
0.00107879
-0.00107912
-1.19274e-06
-1.38511e-09
2.44378e-09
0.00107912
-2.43294e-07
1.19493e-06
2.42265e-07
8.75578e-07
-2.39469e-07
-8.75402e-07
2.37008e-07
-0.00107878
-1.18731e-06
-1.44016e-09
2.27929e-09
0.00107878
-2.43215e-07
1.18959e-06
2.42346e-07
8.75404e-07
-2.421e-07
-8.75273e-07
2.39686e-07
-0.00026526
1.22078e-06
1.18742e-06
-2.24025e-07
-2.29275e-07
0.000263305
1.18035e-09
1.31132e-09
-0.00107879
-1.26491e-09
-1.24201e-09
0.00107879
-0.00107912
-1.19267e-06
-1.43174e-09
2.27211e-09
0.00107912
-2.43196e-07
1.195e-06
2.42381e-07
8.75568e-07
-2.39454e-07
-8.75401e-07
2.37013e-07
-0.00107878
-1.18732e-06
-1.41889e-09
2.30247e-09
0.00107878
-2.43227e-07
1.18959e-06
2.42336e-07
8.75398e-07
-2.42105e-07
-8.75279e-07
2.3968e-07
-0.00026526
1.22078e-06
1.18743e-06
-2.24033e-07
-2.29282e-07
0.000263305
1.15574e-09
1.26609e-09
-0.00107878
-1.2875e-09
-1.30777e-09
0.00107878
-0.00107912
-1.1927e-06
-1.36373e-09
2.33948e-09
0.00107912
-2.45979e-07
1.19498e-06
2.45028e-07
8.7556e-07
-2.39509e-07
-8.75419e-07
2.37014e-07
-0.00107878
-1.18732e-06
-1.37963e-09
2.30302e-09
0.00107878
-2.43227e-07
1.18959e-06
2.42334e-07
8.75392e-07
-2.4211e-07
-8.75283e-07
2.39674e-07
-0.00026526
1.22079e-06
1.18743e-06
-2.24032e-07
-2.29285e-07
0.000263305
1.28621e-09
1.36281e-09
-0.00107879
-1.30897e-09
-1.31399e-09
0.00107879
-0.00107912
-1.19268e-06
-1.38096e-09
2.30431e-09
0.00107912
-2.45982e-07
1.19497e-06
2.45083e-07
8.75561e-07
-2.39501e-07
-8.75413e-07
2.37016e-07
-0.00107878
-1.18732e-06
-1.38464e-09
2.29062e-09
0.00107878
-2.43224e-07
1.18959e-06
2.42338e-07
8.75393e-07
-2.42108e-07
-8.75282e-07
2.39676e-07
-0.00026526
1.22079e-06
1.18743e-06
-2.2403e-07
-2.29283e-07
0.000263305
1.27481e-09
1.37007e-09
-0.00107879
-1.32886e-09
-1.31696e-09
0.00107879
-0.00107912
-1.19268e-06
-1.38393e-09
2.30792e-09
0.00107912
-2.45977e-07
1.19497e-06
2.45087e-07
8.75564e-07
-2.39499e-07
-8.7541e-07
2.3702e-07
-0.00107878
-1.18732e-06
-1.37339e-09
2.28903e-09
0.00107878
-2.43224e-07
1.18959e-06
2.42337e-07
8.75391e-07
-2.4211e-07
-8.75284e-07
2.39673e-07
-0.00026526
1.22079e-06
1.18743e-06
-2.24031e-07
-2.29285e-07
0.000263305
1.28099e-09
1.38124e-09
-0.00107879
-1.33579e-09
-1.32009e-09
0.00107879
-0.00107912
-1.19268e-06
-1.38806e-09
2.30804e-09
0.00107912
-2.45977e-07
1.19497e-06
2.45089e-07
8.75564e-07
-2.39499e-07
-8.75409e-07
2.3702e-07
-0.00107878
-1.18731e-06
-1.37493e-09
2.28676e-09
0.00107878
-2.43223e-07
1.18959e-06
2.42339e-07
8.75391e-07
-2.4211e-07
-8.75284e-07
2.39674e-07
-0.00026526
1.22079e-06
1.18743e-06
-2.2403e-07
-2.29283e-07
0.000263305
1.27739e-09
1.38195e-09
-0.00107879
-1.33909e-09
-1.31903e-09
0.00107879
-0.00107912
-1.19268e-06
-1.3794e-09
2.31023e-09
0.00107912
-2.45977e-07
1.19497e-06
2.45089e-07
8.75562e-07
-2.39501e-07
-8.75412e-07
2.37018e-07
-0.00107878
-1.18732e-06
-1.36754e-09
2.28945e-09
0.00107878
-2.43224e-07
1.18959e-06
2.42337e-07
8.7539e-07
-2.42112e-07
-8.75285e-07
2.39672e-07
-0.00026526
1.22079e-06
1.18743e-06
-2.24032e-07
-2.29286e-07
0.000263305
1.27209e-09
1.37508e-09
-0.00107879
-1.33398e-09
-1.31491e-09
0.00107879
-0.00107912
-1.19268e-06
-1.37842e-09
2.31231e-09
0.00107912
-2.45979e-07
1.19497e-06
2.45088e-07
8.75562e-07
-2.39501e-07
-8.75411e-07
2.37019e-07
-0.00107878
-1.18732e-06
-1.3639e-09
2.29334e-09
0.00107878
-2.43226e-07
1.18959e-06
2.42337e-07
8.75389e-07
-2.42114e-07
-8.75287e-07
2.39672e-07
-0.00026526
1.22079e-06
1.18743e-06
-2.24034e-07
-2.29288e-07
0.000263305
1.25941e-09
1.37145e-09
-0.00107879
-1.32936e-09
-1.30853e-09
0.00107879
-0.00107912
-1.19268e-06
-1.37518e-09
2.31523e-09
0.00107912
-2.45976e-07
1.19497e-06
2.45083e-07
8.75561e-07
-2.39498e-07
-8.75411e-07
2.37014e-07
-0.00107878
-1.18732e-06
-1.36194e-09
2.2964e-09
0.00107878
-2.43223e-07
1.18959e-06
2.42334e-07
8.75385e-07
-2.42109e-07
-8.75284e-07
2.39667e-07
-0.00026526
1.22079e-06
1.18743e-06
-2.24032e-07
-2.29283e-07
0.000263305
1.25417e-09
1.36993e-09
-0.00107879
-1.32771e-09
-1.30461e-09
0.00107879
-0.00107912
-1.19268e-06
-1.37615e-09
2.31484e-09
0.00107912
-2.45979e-07
1.19497e-06
2.45083e-07
8.75559e-07
-2.395e-07
-8.7541e-07
2.37013e-07
-0.00107878
-1.18731e-06
-1.36108e-09
2.29522e-09
0.00107878
-2.4322e-07
1.18958e-06
2.42331e-07
8.75381e-07
-2.42105e-07
-8.7528e-07
2.39661e-07
-0.00026526
1.22079e-06
1.18743e-06
-2.24032e-07
-2.29281e-07
0.000263305
1.25641e-09
1.3732e-09
-0.00107879
-1.33316e-09
-1.30806e-09
0.00107879
-0.00107912
-1.19268e-06
-1.37731e-09
2.31415e-09
0.00107912
-2.45973e-07
1.19497e-06
2.45082e-07
8.75552e-07
-2.39489e-07
-8.75402e-07
2.37006e-07
-0.00107878
-1.18731e-06
-1.36131e-09
2.29641e-09
0.00107878
-2.43219e-07
1.18958e-06
2.4233e-07
8.75377e-07
-2.42099e-07
-8.75275e-07
2.39656e-07
-0.00026526
1.22078e-06
1.18743e-06
-2.24028e-07
-2.29281e-07
0.000263305
1.26344e-09
1.37982e-09
-0.00107879
-1.33359e-09
-1.3095e-09
0.00107879
-0.00107912
-1.19267e-06
-1.38997e-09
2.31027e-09
0.00107912
-2.45958e-07
1.19496e-06
2.4507e-07
8.75531e-07
-2.39461e-07
-8.75373e-07
2.36984e-07
-0.00107878
-1.1873e-06
-1.36983e-09
2.29479e-09
0.00107878
-2.43197e-07
1.18957e-06
2.42311e-07
8.75355e-07
-2.42065e-07
-8.75244e-07
2.3963e-07
-0.00026526
1.22077e-06
1.18741e-06
-2.24012e-07
-2.29264e-07
0.000263305
1.23372e-06
0.00107877
-1.23148e-06
2.50382e-07
-2.51363e-07
-8.80897e-07
2.39631e-07
-2.42201e-07
8.81004e-07
-1.19495e-06
0.000265304
-0.000263334
2.26494e-07
2.31315e-07
-1.19267e-06
2.423e-07
-2.4321e-07
2.36933e-07
-2.39407e-07
1.22606e-06
1.19005e-06
-2.21488e-07
-2.2669e-07
0.00026331
-1.22831e-06
-1.19232e-06
0.000265278
-0.00026331
2.23773e-07
2.28972e-07
2.46853e-09
0.00107834
-2.51318e-07
1.2283e-06
2.50324e-07
8.75403e-07
-2.39398e-07
-8.75321e-07
2.3687e-07
-1.23149e-06
-1.09848e-09
-2.83703e-09
0.00107878
-2.51368e-07
1.23371e-06
2.50379e-07
8.8097e-07
-2.42188e-07
-8.80937e-07
2.39645e-07
0.00107834
-1.44081e-09
-0.00107834
2.41761e-09
-1.22604e-06
2.50352e-07
-2.51292e-07
-8.7526e-07
2.36956e-07
-2.39305e-07
8.75463e-07
1.23374e-06
0.00107878
-1.32155e-09
-0.00107878
2.30296e-09
-1.23146e-06
2.50422e-07
-2.51324e-07
-8.80837e-07
2.39717e-07
-2.42106e-07
8.81018e-07
-2.2423e-07
-2.2906e-07
0.000263334
-1.19498e-06
0.000265304
-0.000263333
2.26544e-07
2.31354e-07
2.31191e-09
0.00107938
-2.45953e-07
1.19231e-06
2.45015e-07
8.78256e-07
-2.42162e-07
-8.78055e-07
2.39688e-07
-1.22612e-06
-1.23225e-09
2.45428e-09
0.00107845
-2.51363e-07
1.22835e-06
2.5036e-07
8.78115e-07
-2.42126e-07
-8.78042e-07
2.39601e-07
0.00107938
-1.4998e-09
-0.00107938
2.23842e-09
-1.19003e-06
2.45049e-07
-2.45927e-07
-8.78e-07
2.39765e-07
-2.42077e-07
8.78301e-07
1.22836e-06
0.00107845
-1.371e-09
-0.00107845
2.39503e-09
-1.22611e-06
2.50384e-07
-2.51336e-07
-8.77978e-07
2.39683e-07
-2.42035e-07
8.7817e-07
-1.25525e-09
2.44541e-09
0.00107825
-2.45834e-07
1.22298e-06
2.44856e-07
8.75438e-07
-2.39372e-07
2.36843e-07
-8.75353e-07
-1.56276e-09
-0.00107912
2.19526e-09
-1.19263e-06
2.42353e-07
-2.43155e-07
-8.75291e-07
2.37023e-07
8.75551e-07
-2.39308e-07
1.22299e-06
0.00107825
-1.38071e-09
-0.00107825
2.40988e-09
-1.22074e-06
2.4488e-07
-2.45809e-07
-8.75301e-07
2.36916e-07
-2.39287e-07
8.75477e-07
-2.21678e-07
-2.29032e-07
0.000263292
-1.18956e-06
0.000265255
-0.000263292
2.23953e-07
2.31301e-07
-1.33644e-09
2.30515e-09
0.00107929
-2.43243e-07
1.18965e-06
2.42331e-07
8.72963e-07
-2.39464e-07
2.3698e-07
-8.72797e-07
-1.52596e-09
-0.00107878
2.24821e-09
-1.18726e-06
2.42304e-07
-2.43157e-07
-8.75116e-07
2.39671e-07
8.75436e-07
-2.41975e-07
1.18966e-06
0.00107929
-1.45325e-09
-0.00107929
2.25336e-09
-1.18738e-06
2.42355e-07
-2.43218e-07
-8.72745e-07
2.37052e-07
-2.39381e-07
8.73003e-07
-0.000263305
2.26266e-07
2.31526e-07
1.22604e-06
1.19003e-06
-2.21453e-07
-2.26656e-07
0.00026331
-1.22836e-06
-1.19503e-06
0.000265275
-0.00026331
2.26383e-07
2.31647e-07
2.38963e-09
0.00107834
-2.51278e-07
1.22831e-06
2.50375e-07
8.75471e-07
-2.39296e-07
-8.75254e-07
2.36968e-07
-1.23145e-06
-1.31219e-09
2.32082e-09
0.00107878
-2.51318e-07
1.23375e-06
2.50428e-07
8.81013e-07
-2.42105e-07
-8.80842e-07
2.39717e-07
0.00107834
-1.65267e-09
-0.00107833
2.28575e-09
-1.22599e-06
2.50431e-07
-2.51221e-07
-8.77873e-07
2.37061e-07
-2.41916e-07
8.75536e-07
1.2338e-06
0.00107877
-1.64636e-09
-0.00107878
2.20888e-09
-1.2314e-06
2.50488e-07
-2.51269e-07
-8.80776e-07
2.39824e-07
-2.4202e-07
8.81093e-07
-2.24177e-07
-2.29014e-07
0.000263333
-1.19503e-06
0.000265304
-0.000263333
2.266e-07
2.31426e-07
2.22955e-09
0.00107938
-2.45915e-07
1.19233e-06
2.45101e-07
8.78314e-07
-2.42063e-07
-8.77991e-07
2.39782e-07
-1.2261e-06
-1.42076e-09
2.37482e-09
0.00107845
-2.51322e-07
1.22837e-06
2.50401e-07
8.7818e-07
-2.42021e-07
-8.77968e-07
2.397e-07
0.00107938
-1.75157e-09
-0.00107938
2.1395e-09
-1.19264e-06
2.47877e-07
-2.48617e-07
-8.77947e-07
2.39868e-07
-2.41998e-07
8.78375e-07
1.22842e-06
0.00107845
-1.6011e-09
-0.00107845
2.27771e-09
-1.22605e-06
2.50463e-07
-2.51265e-07
-8.77937e-07
2.39784e-07
-2.41956e-07
8.78231e-07
-1.44416e-09
2.37268e-09
0.00107825
-2.45793e-07
1.223e-06
2.44901e-07
8.75496e-07
-2.39269e-07
2.36941e-07
-8.75287e-07
-1.81707e-09
-0.00107912
2.08806e-09
-1.19259e-06
2.42405e-07
-2.43107e-07
-8.75229e-07
2.37132e-07
8.75631e-07
-2.39222e-07
1.22305e-06
0.00107825
-1.61995e-09
-0.00107825
2.28811e-09
-1.22069e-06
2.44959e-07
-2.45737e-07
-8.75248e-07
2.3702e-07
-2.39204e-07
8.7555e-07
-2.2164e-07
-2.28998e-07
0.000263292
-1.18961e-06
0.000265254
-0.000263292
2.24029e-07
2.3138e-07
-1.51762e-09
2.22304e-09
0.00107929
-2.43201e-07
1.18968e-06
2.42377e-07
8.73022e-07
-2.39363e-07
2.37076e-07
-8.72732e-07
-1.76564e-09
-0.00107878
2.13055e-09
-1.18722e-06
2.4238e-07
-2.43088e-07
-8.75062e-07
2.39775e-07
8.75509e-07
-2.41893e-07
1.18972e-06
0.00107929
-1.72585e-09
-0.00107929
2.15285e-09
-1.18733e-06
2.42433e-07
-2.43147e-07
-8.7269e-07
2.3716e-07
-2.39295e-07
8.73079e-07
-0.000263305
2.26343e-07
2.31607e-07
1.22597e-06
1.19262e-06
-2.2394e-07
-2.29193e-07
0.00026331
-1.22837e-06
-1.19502e-06
0.000265274
-0.000263309
2.26385e-07
2.31672e-07
2.2063e-09
0.00107833
-2.51214e-07
1.22838e-06
2.50444e-07
8.78199e-07
-2.3922e-07
-8.75208e-07
2.39759e-07
-1.23138e-06
-1.57684e-09
2.24559e-09
0.00107877
-2.51257e-07
1.23384e-06
2.50522e-07
8.81121e-07
-2.42017e-07
-8.8077e-07
2.39849e-07
0.00107833
-1.65969e-09
-0.00107833
2.2472e-09
-1.22599e-06
2.50446e-07
-2.51228e-07
-8.779e-07
2.39764e-07
-2.41926e-07
8.78191e-07
1.23389e-06
0.00107877
-1.8904e-09
-0.00107877
2.11448e-09
-1.23138e-06
2.5058e-07
-2.51263e-07
-8.80763e-07
2.39919e-07
-2.42025e-07
8.81197e-07
-2.24135e-07
-2.2895e-07
0.000263333
-1.19509e-06
0.000265303
-0.000263333
2.26644e-07
2.31523e-07
2.09159e-09
0.00107938
-2.4861e-07
1.19505e-06
2.47891e-07
8.78391e-07
-2.41978e-07
-8.77931e-07
2.39891e-07
-1.22604e-06
-1.70178e-09
2.21528e-09
0.00107845
-2.51257e-07
1.22844e-06
2.50479e-07
8.78248e-07
-2.41937e-07
-8.77919e-07
2.39806e-07
0.00107937
-1.8313e-09
-0.00107937
2.18652e-09
-1.19266e-06
2.47869e-07
-2.48644e-07
-8.77946e-07
2.39898e-07
-2.41987e-07
8.78384e-07
1.22842e-06
0.00107845
-1.67938e-09
-0.00107845
2.25653e-09
-1.22606e-06
2.50466e-07
-2.51283e-07
-8.77938e-07
2.39811e-07
-2.41952e-07
8.78239e-07
-1.70698e-09
2.20868e-09
0.00107825
-2.45729e-07
1.22307e-06
2.44974e-07
8.75564e-07
-2.39186e-07
2.37044e-07
-8.75233e-07
-2.02205e-09
-0.00107911
2.0141e-09
-1.19261e-06
2.42467e-07
-2.43142e-07
-8.75203e-07
2.37232e-07
8.75708e-07
-2.39196e-07
1.22305e-06
0.00107824
-1.64675e-09
-0.00107824
2.25697e-09
-1.22069e-06
2.44971e-07
-2.45749e-07
-8.75264e-07
2.37039e-07
-2.39205e-07
8.75543e-07
-2.21576e-07
-2.28932e-07
0.000263292
-1.18961e-06
0.000265254
-0.000263291
2.24043e-07
2.31394e-07
-1.84252e-09
2.09883e-09
0.00107929
-2.43141e-07
1.18974e-06
2.42447e-07
8.73099e-07
-2.39274e-07
2.37188e-07
-8.72671e-07
-1.82909e-09
-0.00107878
2.11994e-09
-1.18722e-06
2.4238e-07
-2.43109e-07
-8.75069e-07
2.39799e-07
8.7551e-07
-2.41888e-07
1.18971e-06
0.00107929
-1.82523e-09
-0.00107929
2.18331e-09
-1.18735e-06
2.42426e-07
-2.43176e-07
-8.72685e-07
2.37194e-07
-2.39282e-07
8.73092e-07
-0.000263304
2.26346e-07
2.31628e-07
1.22591e-06
1.19259e-06
-2.23931e-07
-2.29161e-07
0.000263309
-1.22811e-06
-1.19473e-06
0.000265274
-0.000263309
2.26018e-07
2.31323e-07
1.91828e-09
0.00107833
-2.5115e-07
1.22853e-06
2.50606e-07
8.78333e-07
-2.41875e-07
-8.77849e-07
2.39894e-07
-1.23127e-06
-1.95616e-09
2.02834e-09
0.00107877
-2.51147e-07
1.234e-06
2.50679e-07
8.81295e-07
-2.41902e-07
-8.80655e-07
2.40038e-07
0.00107833
-3.36522e-10
-0.00107833
2.66852e-09
-1.22617e-06
2.5012e-07
-2.51475e-07
-8.78257e-07
2.39266e-07
-2.42299e-07
8.77751e-07
1.23338e-06
0.00107877
9.06708e-11
-0.00107877
3.32782e-09
-1.23183e-06
2.50005e-07
-2.51815e-07
-8.78672e-07
2.364e-07
-2.40024e-07
8.77875e-07
-2.24025e-07
-2.28813e-07
0.000263333
-1.19456e-06
0.0002653
-0.000263329
2.28566e-07
2.28371e-07
1.9372e-09
0.00107937
-2.48572e-07
1.19516e-06
2.48023e-07
8.78554e-07
-2.41921e-07
-8.77881e-07
2.40053e-07
-1.22599e-06
-2.08276e-09
1.98074e-09
0.00107845
-2.51209e-07
1.22857e-06
2.50623e-07
8.78405e-07
-2.41885e-07
-8.77873e-07
2.39962e-07
0.00107937
-6.91043e-10
-0.00107937
2.83156e-09
-1.19287e-06
2.47517e-07
-2.48925e-07
-8.7827e-07
2.39437e-07
-2.42331e-07
8.77976e-07
1.22815e-06
0.00107845
-4.53457e-10
-0.00107844
2.86897e-09
-1.22627e-06
2.50122e-07
-2.51555e-07
-8.78269e-07
2.3934e-07
-2.42308e-07
8.77824e-07
-2.01901e-09
1.92944e-09
0.00107824
-2.45671e-07
1.22321e-06
2.4513e-07
8.75703e-07
-2.39146e-07
2.37184e-07
-8.75203e-07
-1.04846e-10
-0.00107911
3.25736e-09
-1.19306e-06
2.41819e-07
-2.43691e-07
-8.75714e-07
2.36447e-07
8.75094e-07
-2.39849e-07
1.2228e-06
0.00107824
-3.4166e-10
-0.00107824
2.70846e-09
-1.22088e-06
2.44641e-07
-2.46004e-07
-8.75615e-07
2.36552e-07
-2.39578e-07
8.75112e-07
-2.21554e-07
-2.28912e-07
0.000263291
-1.18934e-06
0.000265253
-0.00026329
2.23685e-07
2.31035e-07
-2.26363e-09
1.92819e-09
0.00107929
-2.43104e-07
1.18986e-06
2.4258e-07
8.73263e-07
-2.39216e-07
2.37348e-07
-8.7262e-07
-6.26473e-10
-0.00107877
2.7352e-09
-1.18743e-06
2.42036e-07
-2.43383e-07
-8.75396e-07
2.39334e-07
8.751e-07
-2.42237e-07
1.18943e-06
0.00107929
-6.80756e-10
-0.00107929
2.82662e-09
-1.18756e-06
2.42071e-07
-2.43462e-07
-8.73008e-07
2.36738e-07
-2.39623e-07
8.72686e-07
-0.000263303
2.25982e-07
2.31281e-07
1.2264e-06
1.19308e-06
-2.24495e-07
-2.29722e-07
0.000263309
-1.2283e-06
-1.19499e-06
0.000265276
-0.00026331
2.2627e-07
2.31522e-07
3.01563e-09
0.00107833
-2.51732e-07
1.22798e-06
2.4997e-07
8.77579e-07
-2.42704e-07
-8.78566e-07
2.38955e-07
-1.23184e-06
7.61445e-11
3.03983e-09
0.00107877
-2.51858e-07
1.23345e-06
2.5011e-07
8.77881e-07
-2.40231e-07
-8.78789e-07
2.36341e-07
0.00107833
-9.4867e-10
-0.00107833
2.57542e-09
-1.22617e-06
2.50366e-07
-2.51436e-07
-8.78183e-07
2.3942e-07
-2.42453e-07
8.78066e-07
1.23376e-06
0.00107878
-1.09322e-09
-0.00107878
2.30734e-09
-1.23149e-06
2.47759e-07
-2.48677e-07
-8.78362e-07
2.36874e-07
-2.39721e-07
8.78325e-07
-2.27279e-07
-2.27022e-07
0.00026333
-1.19501e-06
0.000265302
-0.000263328
2.26537e-07
2.2881e-07
2.98195e-09
0.00107937
-2.49161e-07
1.19463e-06
2.47387e-07
8.77773e-07
-2.42756e-07
-8.78602e-07
2.39101e-07
-1.22648e-06
1.17504e-10
3.07048e-09
0.00107845
-2.51801e-07
1.22803e-06
2.49987e-07
8.77631e-07
-2.42717e-07
-8.78591e-07
2.3902e-07
0.00107938
-9.87058e-10
-0.00107938
2.34072e-09
-1.1928e-06
2.47831e-07
-2.48811e-07
-8.78265e-07
2.39531e-07
-2.42553e-07
8.78231e-07
1.22838e-06
0.00107845
-8.62416e-10
-0.00107845
2.48345e-09
-1.22622e-06
2.50415e-07
-2.51468e-07
-8.78258e-07
2.3944e-07
-2.42523e-07
8.78088e-07
1.37922e-10
3.00555e-09
0.00107824
-2.46255e-07
1.22268e-06
2.44499e-07
8.7494e-07
-2.39979e-07
2.36245e-07
-8.75921e-07
-1.20881e-09
-0.00107912
2.18086e-09
-1.19268e-06
2.42372e-07
-2.43207e-07
-8.75506e-07
2.36876e-07
8.75533e-07
-2.39678e-07
1.223e-06
0.00107825
-9.22818e-10
-0.00107825
2.56174e-09
-1.22087e-06
2.44897e-07
-2.45951e-07
-8.75554e-07
2.36688e-07
-2.39757e-07
8.75419e-07
-2.2212e-07
-2.29478e-07
0.000263291
-1.18957e-06
0.000265255
-0.000263292
2.23911e-07
2.3127e-07
-9.63661e-12
2.98076e-09
0.00107929
-2.43699e-07
1.18932e-06
2.41943e-07
8.72485e-07
-2.40041e-07
2.36406e-07
-8.73337e-07
-1.03109e-09
-0.00107878
2.34789e-09
-1.18739e-06
2.42325e-07
-2.43297e-07
-8.75378e-07
2.39437e-07
8.75368e-07
-2.42449e-07
1.18969e-06
0.00107929
-9.91444e-10
-0.00107929
2.34317e-09
-1.18749e-06
2.42386e-07
-2.43347e-07
-8.73006e-07
2.36821e-07
-2.39852e-07
8.72939e-07
-0.000263305
2.26237e-07
2.31486e-07
1.22609e-06
1.19273e-06
-2.24062e-07
-2.29337e-07
0.00026331
-1.22835e-06
-1.19499e-06
0.000265276
-0.00026331
2.26283e-07
2.31599e-07
2.42491e-09
0.00107833
-2.51347e-07
1.22835e-06
2.50424e-07
8.7813e-07
-2.42275e-07
-8.78082e-07
2.39548e-07
-1.23146e-06
-1.21268e-09
2.32889e-09
0.00107878
-2.48656e-07
1.23377e-06
2.47765e-07
8.78356e-07
-2.39621e-07
-8.78309e-07
2.36948e-07
0.00107833
-1.19925e-09
-0.00107833
2.39243e-09
-1.22607e-06
2.50405e-07
-2.5134e-07
-8.78069e-07
2.39583e-07
-2.42166e-07
8.78105e-07
1.23374e-06
0.00107878
-1.13883e-09
-0.00107878
2.44551e-09
-1.23148e-06
2.47714e-07
-2.48697e-07
-8.78326e-07
2.36948e-07
-2.39591e-07
8.78328e-07
-2.24249e-07
-2.2654e-07
0.000263328
-1.19494e-06
0.000265302
-0.000263328
2.26477e-07
2.28826e-07
2.25993e-09
0.00107938
-2.48727e-07
1.19503e-06
2.4788e-07
8.78304e-07
-2.42373e-07
-8.78154e-07
2.39669e-07
-1.22614e-06
-1.15332e-09
2.37893e-09
0.00107845
-2.5138e-07
1.22842e-06
2.50465e-07
8.7817e-07
-2.42332e-07
-8.78136e-07
2.39588e-07
0.00107938
-1.42434e-09
-0.00107938
2.33949e-09
-1.19275e-06
2.47832e-07
-2.48747e-07
-8.78103e-07
2.39764e-07
-2.42227e-07
8.78331e-07
1.22841e-06
0.00107845
-1.28185e-09
-0.00107845
2.3521e-09
-1.22613e-06
2.50447e-07
-2.51374e-07
-8.7809e-07
2.39678e-07
-2.4218e-07
8.78184e-07
-1.19721e-09
2.4318e-09
0.00107825
-2.45863e-07
1.22304e-06
2.44949e-07
8.75494e-07
-2.3957e-07
2.36832e-07
-8.75439e-07
-1.4128e-09
-0.00107912
2.39768e-09
-1.19272e-06
2.42291e-07
-2.43268e-07
-8.75393e-07
2.37013e-07
8.75581e-07
-2.39464e-07
1.22304e-06
0.00107825
-1.28665e-09
-0.00107825
2.36566e-09
-1.22077e-06
2.44939e-07
-2.4585e-07
-8.75408e-07
2.3691e-07
-2.39431e-07
8.75496e-07
-2.21712e-07
-2.29063e-07
0.000263292
-1.1896e-06
0.000265255
-0.000263292
2.23975e-07
2.31332e-07
-1.28263e-09
2.2492e-09
0.00107929
-2.4326e-07
1.18973e-06
2.42436e-07
8.73018e-07
-2.39666e-07
2.36967e-07
-8.72888e-07
-1.46352e-09
-0.00107878
2.25375e-09
-1.1873e-06
2.42357e-07
-2.43203e-07
-8.75217e-07
2.3967e-07
8.7546e-07
-2.42116e-07
1.18971e-06
0.00107929
-1.43902e-09
-0.00107929
2.26867e-09
-1.18742e-06
2.42408e-07
-2.43264e-07
-8.72842e-07
2.37057e-07
-2.39515e-07
8.73034e-07
-0.000263305
2.26287e-07
2.31554e-07
1.22608e-06
1.19277e-06
-2.24102e-07
-2.29307e-07
0.00026331
-1.22834e-06
-1.19232e-06
0.000265273
-0.00026331
2.26273e-07
2.31548e-07
2.41873e-09
0.00107833
-2.51354e-07
1.22834e-06
2.50395e-07
8.78077e-07
-2.42204e-07
-8.78108e-07
2.39542e-07
-1.23149e-06
-1.07132e-09
2.4625e-09
0.00107878
-2.4872e-07
1.23374e-06
2.47692e-07
8.78312e-07
-2.39616e-07
-8.78348e-07
2.36924e-07
0.00107834
-1.16431e-09
-0.00107833
2.46583e-09
-1.22609e-06
2.50389e-07
-2.51357e-07
-8.78064e-07
2.36898e-07
-2.4215e-07
8.75446e-07
1.23377e-06
0.00107877
-1.14695e-09
-0.00107877
2.37788e-09
-1.2315e-06
2.50468e-07
-2.51404e-07
-8.80994e-07
2.397e-07
-2.4228e-07
8.81008e-07
-2.24319e-07
-2.26548e-07
0.000263328
-1.19497e-06
0.000265305
-0.000263331
2.26523e-07
2.2883e-07
2.38533e-09
0.00107938
-2.48769e-07
1.19496e-06
2.47808e-07
8.78328e-07
-2.42231e-07
-8.7811e-07
2.3976e-07
-1.22614e-06
-1.26499e-09
2.36777e-09
0.00107845
-2.51384e-07
1.22841e-06
2.5044e-07
8.78178e-07
-2.42187e-07
-8.78098e-07
2.39669e-07
0.00107938
-1.34637e-09
-0.00107938
2.40101e-09
-1.19277e-06
2.45081e-07
-2.48775e-07
-8.7811e-07
2.39764e-07
-2.4223e-07
8.78328e-07
1.2284e-06
0.00107845
-1.22733e-09
-0.00107845
2.37595e-09
-1.22615e-06
2.50432e-07
-2.51392e-07
-8.78106e-07
2.39664e-07
-2.42193e-07
8.78171e-07
-1.27526e-09
2.36377e-09
0.00107825
-2.45856e-07
1.22304e-06
2.44934e-07
8.75495e-07
-2.39435e-07
2.36907e-07
-8.75414e-07
-1.41038e-09
-0.00107912
2.3511e-09
-1.19271e-06
2.42332e-07
-2.43253e-07
-8.754e-07
2.37014e-07
8.7557e-07
-2.39457e-07
1.22303e-06
0.00107825
-1.25034e-09
-0.00107825
2.39929e-09
-1.22078e-06
2.44928e-07
-2.45864e-07
-8.75422e-07
2.36896e-07
-2.39444e-07
8.75485e-07
-2.21696e-07
-2.29044e-07
0.000263292
-1.18959e-06
0.000265255
-0.000263292
2.23962e-07
2.31322e-07
-1.42351e-09
2.28298e-09
0.00107929
-2.43273e-07
1.1897e-06
2.424e-07
8.73033e-07
-2.39518e-07
2.37054e-07
-8.72846e-07
-1.44241e-09
-0.00107878
2.29141e-09
-1.18732e-06
2.4234e-07
-2.43224e-07
-8.75225e-07
2.39663e-07
8.75454e-07
-2.42121e-07
1.18969e-06
0.00107929
-1.31803e-09
-0.00107929
2.28082e-09
-1.18743e-06
2.4239e-07
-2.43285e-07
-8.72862e-07
2.37037e-07
-2.39532e-07
8.73014e-07
-0.000263305
2.26275e-07
2.31545e-07
1.2261e-06
1.19009e-06
-2.24082e-07
-2.29289e-07
0.00026331
-1.23098e-06
-1.19235e-06
0.000265278
-0.00026331
2.23746e-07
2.31541e-07
2.48342e-09
0.00107834
-2.48641e-07
1.22833e-06
2.47652e-07
8.75438e-07
-2.39438e-07
-8.75399e-07
2.36858e-07
-1.23148e-06
-1.25263e-09
2.29736e-09
0.00107877
-2.51351e-07
1.23379e-06
2.50511e-07
8.8104e-07
-2.4222e-07
-8.80956e-07
2.39748e-07
0.00107834
-1.10478e-09
-0.00107834
2.48226e-09
-1.2261e-06
2.50383e-07
-2.51362e-07
-8.75408e-07
2.34174e-07
-2.39479e-07
8.75432e-07
1.23375e-06
0.00107878
-1.19759e-09
-0.00107878
2.37974e-09
-1.23151e-06
2.50427e-07
-2.51411e-07
-8.83683e-07
2.39695e-07
-2.42271e-07
8.83718e-07
-2.24234e-07
-2.26519e-07
0.000263331
-1.19497e-06
0.000265302
-0.000263331
2.26562e-07
2.31339e-07
2.37671e-09
0.00107938
-2.46044e-07
1.19231e-06
2.45074e-07
8.78322e-07
-2.42236e-07
-8.78117e-07
2.39758e-07
-1.22615e-06
-1.22293e-09
2.39388e-09
0.00107845
-2.51395e-07
1.2284e-06
2.50429e-07
8.7817e-07
-2.42196e-07
-8.78107e-07
2.39659e-07
0.00107939
-1.23488e-08
-0.00107938
2.35167e-09
-1.19008e-06
2.45127e-07
-2.46014e-07
-8.78112e-07
2.3977e-07
-2.42229e-07
8.7833e-07
1.2284e-06
0.00107845
-1.21355e-09
-0.00107845
2.40026e-09
-1.22615e-06
2.50426e-07
-2.51396e-07
-8.78105e-07
2.39661e-07
-2.42194e-07
8.78169e-07
-1.2635e-09
2.41484e-09
0.00107825
-2.45864e-07
1.22303e-06
2.44926e-07
8.75488e-07
-2.39444e-07
2.36897e-07
-8.7542e-07
-1.39703e-09
-0.00107912
2.3112e-09
-1.19268e-06
2.45035e-07
-2.4596e-07
-8.75418e-07
2.37014e-07
8.75555e-07
-2.39506e-07
1.22302e-06
0.00107825
-1.25834e-09
-0.00107825
2.43711e-09
-1.22079e-06
2.4492e-07
-2.45869e-07
-8.75418e-07
2.36899e-07
-2.39439e-07
8.75486e-07
-2.21706e-07
-2.29053e-07
0.000263292
-1.18959e-06
0.000265255
-0.000263292
2.23961e-07
2.31317e-07
-1.30459e-09
2.28212e-09
0.00107929
-2.43284e-07
1.1897e-06
2.42391e-07
8.73014e-07
-2.39536e-07
2.37035e-07
-8.72864e-07
-1.40492e-09
-0.00107878
2.29567e-09
-1.18732e-06
2.42336e-07
-2.43226e-07
-8.75229e-07
2.39657e-07
8.75448e-07
-2.42125e-07
1.1897e-06
0.00107929
-1.34791e-09
-0.00107929
2.29494e-09
-1.18743e-06
2.42391e-07
-2.43284e-07
-8.7286e-07
2.37039e-07
-2.39531e-07
8.73017e-07
-0.000263305
2.26276e-07
2.31541e-07
1.22873e-06
1.1901e-06
-2.21538e-07
-2.29237e-07
0.00026331
-1.23098e-06
-1.19235e-06
0.000265276
-0.00026331
2.23795e-07
2.34064e-07
2.47321e-09
0.00107834
-2.51326e-07
1.23098e-06
2.50386e-07
8.75421e-07
-2.36757e-07
-8.75435e-07
2.34188e-07
-1.23151e-06
-1.22458e-09
2.3988e-09
0.00107878
-2.51423e-07
1.23377e-06
2.50432e-07
8.8374e-07
-2.4226e-07
-8.83671e-07
2.39717e-07
0.00107833
-1.24466e-09
-0.00107833
2.42693e-09
-1.22873e-06
2.50382e-07
-2.51331e-07
-8.78018e-07
2.34213e-07
-2.36752e-07
8.78115e-07
1.23377e-06
0.00107878
-1.23324e-09
-0.00107878
2.40605e-09
-1.23149e-06
2.50449e-07
-2.51399e-07
-8.83663e-07
2.39692e-07
-2.42274e-07
8.8373e-07
-2.24253e-07
-2.26564e-07
0.000263328
-1.19497e-06
0.000265299
-0.000263328
2.26536e-07
2.31362e-07
2.34158e-09
0.00107939
-2.46004e-07
1.19234e-06
2.4512e-07
8.7832e-07
-2.42229e-07
-8.78115e-07
2.39759e-07
-1.22615e-06
-1.2188e-09
2.41138e-09
0.00107845
-2.51398e-07
1.2284e-06
2.50425e-07
8.78169e-07
-2.42197e-07
-8.78107e-07
2.39658e-07
0.00107939
-1.36676e-09
-0.00107939
2.30176e-09
-1.19009e-06
2.45116e-07
-2.46017e-07
-8.78124e-07
2.39751e-07
-2.42237e-07
8.7831e-07
1.2284e-06
0.00107845
-1.23939e-09
-0.00107845
2.41751e-09
-1.22615e-06
2.50426e-07
-2.51396e-07
-8.78102e-07
2.39665e-07
-2.4219e-07
8.78173e-07
-1.26116e-09
2.42443e-09
0.00107825
-2.45869e-07
1.22303e-06
2.44921e-07
8.7549e-07
-2.3944e-07
2.36901e-07
-8.75417e-07
-1.38929e-09
-0.00107912
2.29672e-09
-1.19267e-06
2.45086e-07
-2.45977e-07
-8.75409e-07
2.3702e-07
8.7556e-07
-2.39495e-07
1.22303e-06
0.00107825
-1.25539e-09
-0.00107825
2.4211e-09
-1.22079e-06
2.44922e-07
-2.45868e-07
-8.75418e-07
2.369e-07
-2.39439e-07
8.75487e-07
-2.21706e-07
-2.29056e-07
0.000263292
-1.18959e-06
0.000265255
-0.000263292
2.23964e-07
2.31317e-07
-1.3624e-09
2.2994e-09
0.00107929
-2.43283e-07
1.1897e-06
2.42392e-07
8.73021e-07
-2.39531e-07
2.37041e-07
-8.72858e-07
-1.40314e-09
-0.00107878
2.28287e-09
-1.18731e-06
2.4234e-07
-2.43223e-07
-8.7523e-07
2.39658e-07
8.75448e-07
-2.42125e-07
1.1897e-06
0.00107929
-1.36438e-09
-0.00107929
2.29679e-09
-1.18743e-06
2.42392e-07
-2.43282e-07
-8.72857e-07
2.37042e-07
-2.39528e-07
8.7302e-07
-0.000263305
2.26277e-07
2.31543e-07
1.22873e-06
1.19008e-06
-2.21546e-07
-2.31789e-07
0.00026331
-1.23098e-06
-1.19236e-06
0.000265276
-0.00026331
2.23798e-07
2.34065e-07
2.42522e-09
0.00107833
-2.5133e-07
1.23098e-06
2.50379e-07
8.78116e-07
-2.36753e-07
-8.78019e-07
2.34213e-07
-1.2315e-06
-1.24137e-09
2.42188e-09
0.00107878
-2.51402e-07
1.23377e-06
2.50445e-07
8.83733e-07
-2.42269e-07
-8.83664e-07
2.39697e-07
0.00107833
-1.25903e-09
-0.00107833
2.42638e-09
-1.22873e-06
2.50375e-07
-2.51338e-07
-8.78016e-07
2.34215e-07
-2.36758e-07
8.7812e-07
1.23376e-06
0.00107878
-1.24676e-09
-0.00107878
2.43524e-09
-1.2315e-06
2.50444e-07
-2.51404e-07
-8.8366e-07
2.39699e-07
-2.42263e-07
8.83732e-07
-2.24256e-07
-2.29075e-07
0.000263328
-1.19497e-06
0.000265299
-0.000263328
2.26533e-07
2.31356e-07
2.29611e-09
0.00107939
-2.4601e-07
1.19235e-06
2.45118e-07
8.78312e-07
-2.42238e-07
-8.78123e-07
2.3975e-07
-1.22615e-06
-1.24426e-09
2.42775e-09
0.00107845
-2.51398e-07
1.2284e-06
2.50425e-07
8.78173e-07
-2.42193e-07
-8.78102e-07
2.39662e-07
0.00107939
-1.39253e-09
-0.00107939
2.28686e-09
-1.19008e-06
2.45123e-07
-2.46007e-07