/*--------------------------------*- C++ -*----------------------------------*\
| =========                 |                                                 |
| \\      /  F ield         | OpenFOAM: The Open Source CFD Toolbox           |
|  \\    /   O peration     | Version:  2206                                  |
|   \\  /    A nd           | Website:  www.openfoam.com                      |
|    \\/     M anipulation  |                                                 |
\*---------------------------------------------------------------------------*/
FoamFile
{
    version     2.0;
    format      ascii;
    arch        "LSB;label=32;scalar=64";
    class       volScalarField;
    location    "32.5";
    object      k;
}
// * * * * * * * * * * * * * * * * * * * * * * * * * * * * * * * * * * * * * //

dimensions      [0 2 -2 0 0 0 0];

internalField   nonuniform List<scalar> 
28673
(
2.44485e-05
2.3786e-05
2.51076e-05
2.44487e-05
2.44484e-05
2.37892e-05
2.51076e-05
2.44487e-05
2.44484e-05
2.37893e-05
2.51077e-05
2.44488e-05
2.44485e-05
2.37895e-05
2.51077e-05
2.44488e-05
2.44486e-05
2.37897e-05
2.51076e-05
2.44488e-05
2.44486e-05
2.37899e-05
2.51074e-05
2.44486e-05
2.44484e-05
2.37899e-05
2.51061e-05
2.44453e-05
2.4447e-05
2.37868e-05
2.5101e-05
2.44409e-05
2.44412e-05
2.37816e-05
2.51004e-05
2.44409e-05
2.44407e-05
2.3781e-05
2.51005e-05
2.4441e-05
2.44408e-05
2.3781e-05
2.51007e-05
2.44412e-05
2.44411e-05
2.37816e-05
2.51254e-05
2.44853e-05
2.44852e-05
2.38717e-05
2.4448e-05
2.37934e-05
2.44485e-05
2.37907e-05
2.44481e-05
2.4448e-05
2.4448e-05
2.4448e-05
2.37893e-05
2.37935e-05
2.44484e-05
2.44476e-05
2.44481e-05
2.44487e-05
2.44481e-05
2.3793e-05
2.44485e-05
2.44484e-05
2.44484e-05
2.37934e-05
2.37871e-05
2.37937e-05
2.44482e-05
2.44482e-05
2.44482e-05
2.44481e-05
2.37895e-05
2.37937e-05
2.44485e-05
2.44477e-05
2.44486e-05
2.44477e-05
2.44482e-05
2.44487e-05
2.44481e-05
2.3789e-05
2.37932e-05
2.44485e-05
2.44484e-05
2.44485e-05
2.37936e-05
2.37897e-05
2.3794e-05
2.44483e-05
2.44483e-05
2.44483e-05
2.44482e-05
2.37897e-05
2.3794e-05
2.44487e-05
2.44479e-05
2.44487e-05
2.44478e-05
2.44482e-05
2.44488e-05
2.44482e-05
2.37892e-05
2.37934e-05
2.44486e-05
2.44485e-05
2.44485e-05
2.37937e-05
2.379e-05
2.37943e-05
2.44485e-05
2.44484e-05
2.44485e-05
2.44484e-05
2.379e-05
2.37942e-05
2.44488e-05
2.44479e-05
2.44489e-05
2.44479e-05
2.44483e-05
2.44488e-05
2.44483e-05
2.37894e-05
2.37937e-05
2.44486e-05
2.44486e-05
2.44486e-05
2.37939e-05
2.37903e-05
2.37945e-05
2.44486e-05
2.44486e-05
2.44486e-05
2.44486e-05
2.37902e-05
2.37944e-05
2.4449e-05
2.44481e-05
2.4449e-05
2.44481e-05
2.44484e-05
2.44488e-05
2.44484e-05
2.37897e-05
2.37939e-05
2.44488e-05
2.44486e-05
2.44488e-05
2.37941e-05
2.37905e-05
2.37947e-05
2.44488e-05
2.44487e-05
2.44486e-05
2.44483e-05
2.37904e-05
2.37944e-05
2.44491e-05
2.44483e-05
2.44491e-05
2.44481e-05
2.44485e-05
2.44487e-05
2.44483e-05
2.37899e-05
2.37941e-05
2.4449e-05
2.44485e-05
2.44487e-05
2.37942e-05
2.37907e-05
2.37929e-05
2.44485e-05
2.44482e-05
2.44474e-05
2.44464e-05
2.37903e-05
2.37914e-05
2.44491e-05
2.44481e-05
2.44483e-05
2.44474e-05
2.44482e-05
2.4447e-05
2.4447e-05
2.37901e-05
2.37928e-05
2.44486e-05
2.44478e-05
2.44474e-05
2.3792e-05
2.37881e-05
2.37869e-05
2.44461e-05
2.44447e-05
2.44415e-05
2.44407e-05
2.37863e-05
2.37859e-05
2.44474e-05
2.44467e-05
2.44424e-05
2.44417e-05
2.44455e-05
2.44413e-05
2.44411e-05
2.37882e-05
2.3787e-05
2.44459e-05
2.44422e-05
2.44415e-05
2.37863e-05
2.37823e-05
2.37852e-05
2.44409e-05
2.44404e-05
2.44404e-05
2.44402e-05
2.37816e-05
2.37853e-05
2.44416e-05
2.44408e-05
2.44408e-05
2.44399e-05
2.44407e-05
2.44409e-05
2.44403e-05
2.37823e-05
2.37848e-05
2.44411e-05
2.44407e-05
2.44407e-05
2.37853e-05
2.37813e-05
2.37853e-05
2.44406e-05
2.44404e-05
2.44405e-05
2.44404e-05
2.37813e-05
2.37852e-05
2.44409e-05
2.44401e-05
2.44409e-05
2.44401e-05
2.44405e-05
2.4441e-05
2.44405e-05
2.37809e-05
2.37849e-05
2.44409e-05
2.44408e-05
2.44408e-05
2.37852e-05
2.37813e-05
2.37857e-05
2.44406e-05
2.44405e-05
2.4441e-05
2.44409e-05
2.37812e-05
2.37858e-05
2.4441e-05
2.44402e-05
2.44414e-05
2.44406e-05
2.44407e-05
2.44415e-05
2.4441e-05
2.37809e-05
2.37853e-05
2.4441e-05
2.44414e-05
2.44414e-05
2.37857e-05
2.37818e-05
2.38224e-05
2.44407e-05
2.44406e-05
2.44754e-05
2.44753e-05
2.37818e-05
2.38223e-05
2.44412e-05
2.44403e-05
2.44757e-05
2.44751e-05
2.44407e-05
2.44756e-05
2.44754e-05
2.37815e-05
2.38221e-05
2.44411e-05
2.44756e-05
2.44757e-05
2.38223e-05
2.38719e-05
2.44851e-05
2.44851e-05
2.38718e-05
2.44854e-05
2.44849e-05
2.51254e-05
2.51253e-05
2.51254e-05
2.44852e-05
2.38715e-05
2.44854e-05
2.81016e-05
6.99379e-05
2.8103e-05
6.99352e-05
7.74355e-05
7.74328e-05
2.81022e-05
6.99376e-05
2.51078e-05
2.51076e-05
2.51077e-05
2.51078e-05
2.51076e-05
2.51075e-05
2.29116e-05
2.76485e-05
2.48124e-05
2.44487e-05
2.29118e-05
2.76446e-05
2.48124e-05
7.74316e-05
2.29108e-05
2.48122e-05
2.44484e-05
2.2911e-05
2.48122e-05
2.7644e-05
3.56547e-05
3.56575e-05
2.37934e-05
3.56531e-05
3.56559e-05
2.81043e-05
6.99362e-05
2.81061e-05
6.99341e-05
7.74297e-05
7.74288e-05
2.81054e-05
6.99387e-05
2.81068e-05
6.99365e-05
2.51077e-05
2.51076e-05
2.51075e-05
2.51076e-05
2.51076e-05
2.51075e-05
2.51074e-05
2.29126e-05
2.7651e-05
2.48123e-05
2.44488e-05
2.29125e-05
2.76467e-05
2.48124e-05
7.74284e-05
7.74263e-05
2.29117e-05
2.48121e-05
2.76507e-05
2.44485e-05
2.29116e-05
2.48122e-05
2.76468e-05
3.56583e-05
3.5661e-05
2.37935e-05
3.56572e-05
3.56599e-05
2.81061e-05
6.99357e-05
2.81082e-05
6.99336e-05
7.74279e-05
7.74278e-05
2.81075e-05
6.99383e-05
2.81092e-05
6.99362e-05
2.51077e-05
2.51075e-05
2.51074e-05
2.51077e-05
2.51077e-05
2.51074e-05
2.51073e-05
2.29132e-05
2.76526e-05
2.48123e-05
2.44488e-05
2.29133e-05
2.7648e-05
2.48124e-05
7.7425e-05
7.7424e-05
2.29124e-05
2.48121e-05
2.76528e-05
2.44485e-05
2.29124e-05
2.48122e-05
2.76485e-05
3.56607e-05
3.56635e-05
2.37937e-05
3.56585e-05
3.56613e-05
2.81073e-05
6.99352e-05
2.81096e-05
6.99333e-05
7.74279e-05
7.74282e-05
2.81086e-05
6.99378e-05
2.81107e-05
6.99358e-05
2.51077e-05
2.51075e-05
2.51074e-05
2.51077e-05
2.51075e-05
2.51075e-05
2.51074e-05
2.29137e-05
2.76536e-05
2.48123e-05
2.44489e-05
2.29138e-05
2.76489e-05
2.48124e-05
7.7424e-05
7.74234e-05
2.29129e-05
2.48121e-05
2.76539e-05
2.44486e-05
2.2913e-05
2.48122e-05
2.76494e-05
3.56616e-05
3.56644e-05
2.37939e-05
3.56598e-05
3.56627e-05
2.81077e-05
6.99351e-05
2.81103e-05
6.99334e-05
7.74287e-05
7.74294e-05
2.81089e-05
6.99378e-05
2.81112e-05
6.99361e-05
2.51076e-05
2.51076e-05
2.51076e-05
2.51076e-05
2.51075e-05
2.51074e-05
2.51076e-05
2.2914e-05
2.76543e-05
2.48123e-05
2.44489e-05
2.29141e-05
2.76494e-05
2.48125e-05
7.74242e-05
7.74244e-05
2.29131e-05
2.48122e-05
2.76546e-05
2.44487e-05
2.29132e-05
2.48123e-05
2.765e-05
3.56636e-05
3.56665e-05
2.3794e-05
3.56618e-05
3.56648e-05
2.81082e-05
6.99353e-05
2.81108e-05
6.99353e-05
7.74302e-05
7.74335e-05
2.81096e-05
6.99382e-05
2.81118e-05
6.99381e-05
2.51075e-05
2.51074e-05
2.51076e-05
2.51074e-05
2.51073e-05
2.51072e-05
2.51073e-05
2.29144e-05
2.76543e-05
2.48124e-05
2.44488e-05
2.29145e-05
2.76488e-05
2.48124e-05
7.74255e-05
7.74283e-05
2.29135e-05
2.48122e-05
2.76547e-05
2.44486e-05
2.29136e-05
2.48121e-05
2.76494e-05
3.56649e-05
3.56679e-05
2.37943e-05
3.56623e-05
3.56653e-05
2.81062e-05
6.99384e-05
2.81099e-05
6.99414e-05
7.7432e-05
7.7439e-05
2.81081e-05
6.99411e-05
2.81115e-05
6.99439e-05
2.51073e-05
2.51071e-05
2.51072e-05
2.51069e-05
2.51064e-05
2.51067e-05
2.51064e-05
2.29125e-05
2.76535e-05
2.48122e-05
2.44484e-05
2.29139e-05
2.76461e-05
2.48121e-05
7.74286e-05
7.74369e-05
2.29118e-05
2.4812e-05
2.76538e-05
2.44484e-05
2.29132e-05
2.48119e-05
2.76467e-05
3.56654e-05
3.56685e-05
2.37937e-05
3.56619e-05
3.56649e-05
2.81042e-05
6.99385e-05
2.81103e-05
6.99436e-05
7.74286e-05
7.7441e-05
2.8107e-05
6.99415e-05
2.81125e-05
6.99469e-05
2.51049e-05
2.51062e-05
2.51053e-05
2.51019e-05
2.51011e-05
2.51019e-05
2.51013e-05
2.29063e-05
2.76521e-05
2.48096e-05
2.44437e-05
2.29105e-05
2.76405e-05
2.48081e-05
7.74268e-05
7.74389e-05
2.29059e-05
2.48102e-05
2.76535e-05
2.44454e-05
2.29099e-05
2.48086e-05
2.76426e-05
3.56664e-05
3.56692e-05
2.3789e-05
3.56595e-05
3.56622e-05
2.81007e-05
6.99374e-05
2.81054e-05
6.99505e-05
7.7424e-05
7.74398e-05
2.81027e-05
6.9941e-05
2.81075e-05
6.99539e-05
2.51008e-05
2.5101e-05
2.51008e-05
2.51004e-05
2.51005e-05
2.51003e-05
2.51004e-05
2.29039e-05
2.76463e-05
2.48051e-05
2.44409e-05
2.29049e-05
2.76322e-05
2.4805e-05
7.74232e-05
7.74394e-05
2.29029e-05
2.48051e-05
2.76478e-05
2.44409e-05
2.29041e-05
2.48049e-05
2.76335e-05
3.56639e-05
3.56665e-05
2.37854e-05
3.56601e-05
3.56628e-05
2.81015e-05
6.99388e-05
2.81041e-05
6.99611e-05
7.74048e-05
7.74261e-05
2.8103e-05
6.99424e-05
2.81054e-05
6.99651e-05
2.51006e-05
2.51004e-05
2.51005e-05
2.51005e-05
2.51005e-05
2.51004e-05
2.51004e-05
2.29033e-05
2.76439e-05
2.48049e-05
2.4441e-05
2.29052e-05
2.76259e-05
2.4805e-05
7.74055e-05
7.74269e-05
2.29025e-05
2.48048e-05
2.7645e-05
2.44408e-05
2.29042e-05
2.48049e-05
2.76275e-05
3.56654e-05
3.56678e-05
2.37853e-05
3.56636e-05
3.5666e-05
2.81061e-05
6.99248e-05
2.81059e-05
6.99604e-05
7.73642e-05
7.7392e-05
2.81074e-05
6.99288e-05
2.8107e-05
6.99643e-05
2.51006e-05
2.51005e-05
2.51005e-05
2.51007e-05
2.51008e-05
2.51006e-05
2.51007e-05
2.29024e-05
2.76553e-05
2.4805e-05
2.44411e-05
2.2906e-05
2.76299e-05
2.4805e-05
7.73659e-05
7.73929e-05
2.29017e-05
2.48049e-05
2.7657e-05
2.4441e-05
2.29053e-05
2.48049e-05
2.76316e-05
3.56622e-05
3.56642e-05
2.37853e-05
3.56621e-05
3.56641e-05
2.81109e-05
6.98817e-05
2.81045e-05
6.99397e-05
7.72774e-05
7.7303e-05
2.81126e-05
6.98856e-05
2.81058e-05
6.99433e-05
2.51009e-05
2.51008e-05
2.51008e-05
2.51081e-05
2.51081e-05
2.51081e-05
2.51081e-05
2.29002e-05
2.7684e-05
2.48061e-05
2.44452e-05
2.29074e-05
2.76113e-05
2.48051e-05
7.72779e-05
7.7303e-05
2.28995e-05
2.48059e-05
2.76852e-05
2.44451e-05
2.29067e-05
2.4805e-05
2.7612e-05
3.56438e-05
3.56458e-05
2.3791e-05
3.563e-05
3.56319e-05
2.53475e-05
6.79832e-05
2.79745e-05
5.97206e-05
7.32344e-05
4.88754e-05
2.53488e-05
6.79905e-05
2.79766e-05
5.97265e-05
2.53984e-05
2.52965e-05
2.52965e-05
2.50504e-05
2.53937e-05
2.52729e-05
2.52729e-05
2.29293e-05
2.73237e-05
2.4848e-05
2.45298e-05
2.29285e-05
3.01912e-05
2.49204e-05
7.32339e-05
4.88737e-05
2.29288e-05
2.48479e-05
2.73235e-05
2.45298e-05
2.2928e-05
2.49203e-05
3.019e-05
3.58265e-05
3.58282e-05
2.3983e-05
3.38265e-05
3.38247e-05
6.99392e-05
2.76453e-05
7.74365e-05
3.56545e-05
3.56464e-05
7.74321e-05
2.76431e-05
6.9936e-05
7.74375e-05
7.74348e-05
7.74357e-05
3.56547e-05
2.37883e-05
3.5653e-05
3.56537e-05
7.74317e-05
7.74342e-05
7.7432e-05
7.74349e-05
2.37846e-05
3.56552e-05
3.56563e-05
3.56556e-05
3.56565e-05
2.8102e-05
6.99408e-05
2.81034e-05
6.99382e-05
2.29117e-05
2.76484e-05
2.48123e-05
2.44481e-05
2.29119e-05
2.76448e-05
2.48123e-05
2.29118e-05
2.76506e-05
2.48124e-05
2.4448e-05
2.29119e-05
2.76468e-05
2.48124e-05
2.81047e-05
6.99344e-05
6.99368e-05
2.81031e-05
2.81052e-05
6.99376e-05
6.99399e-05
2.81035e-05
2.29123e-05
2.4448e-05
2.76461e-05
2.48123e-05
2.76499e-05
2.48123e-05
2.29122e-05
2.29124e-05
2.4448e-05
2.76481e-05
2.48123e-05
2.76521e-05
2.48124e-05
2.29123e-05
3.56575e-05
3.56497e-05
2.37934e-05
3.56573e-05
3.56492e-05
7.74321e-05
7.74289e-05
7.74303e-05
7.74322e-05
2.37894e-05
3.56594e-05
3.56511e-05
3.56601e-05
3.56521e-05
7.74268e-05
7.7429e-05
2.29123e-05
2.44484e-05
2.76453e-05
2.48123e-05
2.81018e-05
6.99343e-05
2.29121e-05
2.44476e-05
2.48121e-05
2.76438e-05
2.81052e-05
6.99369e-05
6.99394e-05
2.8104e-05
2.29129e-05
2.44484e-05
2.76466e-05
2.48122e-05
2.76504e-05
2.48123e-05
2.29127e-05
2.81048e-05
6.99333e-05
6.9936e-05
2.81035e-05
2.29127e-05
2.44476e-05
2.48121e-05
2.76453e-05
2.48121e-05
2.76494e-05
2.29125e-05
2.81018e-05
6.99378e-05
2.81032e-05
6.99351e-05
2.29116e-05
2.48123e-05
2.76482e-05
2.44481e-05
2.29118e-05
2.48123e-05
2.76445e-05
2.81017e-05
6.99394e-05
2.81031e-05
6.99367e-05
2.29122e-05
2.44487e-05
2.76458e-05
2.48123e-05
2.765e-05
2.48124e-05
2.29122e-05
2.8105e-05
6.99345e-05
6.99369e-05
2.81034e-05
2.29123e-05
2.44481e-05
2.48122e-05
2.76458e-05
2.48122e-05
2.76497e-05
2.29122e-05
2.81049e-05
6.99358e-05
6.99383e-05
2.81032e-05
2.3793e-05
3.56489e-05
3.56516e-05
7.74366e-05
7.74284e-05
7.74316e-05
2.3789e-05
3.56517e-05
3.56542e-05
3.56521e-05
3.56544e-05
7.74328e-05
7.74359e-05
2.29107e-05
2.48122e-05
2.7649e-05
2.44485e-05
2.29109e-05
2.48122e-05
2.76453e-05
2.81006e-05
2.81023e-05
6.9937e-05
2.81005e-05
6.99419e-05
2.81022e-05
6.99392e-05
2.29114e-05
2.44484e-05
2.48121e-05
2.76456e-05
2.48122e-05
2.76493e-05
2.29113e-05
2.29114e-05
2.44484e-05
2.48121e-05
2.76466e-05
2.48122e-05
2.76505e-05
2.29112e-05
2.81041e-05
6.99361e-05
6.99386e-05
2.81021e-05
2.81039e-05
6.99384e-05
6.99408e-05
2.81019e-05
7.74371e-05
7.74344e-05
7.74364e-05
7.74338e-05
2.37894e-05
3.56554e-05
3.56581e-05
3.56558e-05
3.56585e-05
7.74314e-05
7.74338e-05
7.74307e-05
7.74331e-05
7.74312e-05
7.74298e-05
7.74313e-05
7.74295e-05
3.56577e-05
3.56589e-05
2.37932e-05
3.56569e-05
3.56583e-05
7.74289e-05
7.74295e-05
7.7428e-05
7.74292e-05
2.37894e-05
3.5658e-05
3.56597e-05
3.56593e-05
3.56608e-05
2.81048e-05
6.99394e-05
2.81066e-05
6.99373e-05
2.29126e-05
2.76512e-05
2.48124e-05
2.44482e-05
2.29128e-05
2.76471e-05
2.48124e-05
2.29128e-05
2.76532e-05
2.48123e-05
2.44482e-05
2.2913e-05
2.7649e-05
2.48123e-05
2.81074e-05
6.99339e-05
6.9936e-05
2.81053e-05
2.81078e-05
6.99368e-05
6.99391e-05
2.81058e-05
2.29133e-05
2.44482e-05
2.7648e-05
2.48123e-05
2.76522e-05
2.48123e-05
2.2913e-05
2.29134e-05
2.44481e-05
2.76497e-05
2.48122e-05
2.76541e-05
2.48122e-05
2.29132e-05
3.56619e-05
3.56538e-05
2.37936e-05
3.56607e-05
3.56523e-05
7.7427e-05
7.74254e-05
7.74281e-05
7.74284e-05
2.37896e-05
3.56615e-05
3.56532e-05
3.56631e-05
3.56549e-05
7.74245e-05
7.74257e-05
2.29131e-05
2.76517e-05
2.48123e-05
2.44486e-05
2.29133e-05
2.76478e-05
2.48123e-05
2.81049e-05
6.99351e-05
2.81064e-05
6.99327e-05
2.29128e-05
2.48122e-05
2.76508e-05
2.44477e-05
2.2913e-05
2.48122e-05
2.76466e-05
2.81082e-05
6.99364e-05
6.99385e-05
2.81066e-05
2.29137e-05
2.44486e-05
2.76487e-05
2.48123e-05
2.76528e-05
2.48123e-05
2.29135e-05
2.81078e-05
6.99324e-05
6.99346e-05
2.81061e-05
2.29134e-05
2.44477e-05
2.48121e-05
2.76476e-05
2.48121e-05
2.7652e-05
2.29132e-05
2.81046e-05
6.99364e-05
2.81065e-05
6.99341e-05
2.29127e-05
2.48123e-05
2.7651e-05
2.44482e-05
2.29128e-05
2.48123e-05
2.76469e-05
2.81045e-05
6.99376e-05
2.81063e-05
6.99355e-05
2.29132e-05
2.44488e-05
2.76474e-05
2.48124e-05
2.7652e-05
2.48124e-05
2.2913e-05
2.81077e-05
6.99336e-05
6.9936e-05
2.81057e-05
2.29133e-05
2.44481e-05
2.48123e-05
2.76477e-05
2.48123e-05
2.7652e-05
2.2913e-05
2.81075e-05
6.99351e-05
6.99373e-05
2.81055e-05
3.56546e-05
3.56568e-05
2.37931e-05
3.56536e-05
3.56562e-05
7.74322e-05
7.74304e-05
7.7425e-05
7.74266e-05
2.37892e-05
3.56547e-05
3.56576e-05
3.56563e-05
3.56587e-05
7.74288e-05
7.743e-05
2.29117e-05
2.48121e-05
2.76518e-05
2.44485e-05
2.29119e-05
2.48121e-05
2.76477e-05
2.81033e-05
6.99379e-05
2.81055e-05
6.99357e-05
2.81031e-05
6.99402e-05
2.81053e-05
6.99381e-05
2.29123e-05
2.44485e-05
2.48121e-05
2.76478e-05
2.48122e-05
2.76519e-05
2.29122e-05
2.29123e-05
2.44485e-05
2.48121e-05
2.76485e-05
2.48121e-05
2.76528e-05
2.29121e-05
2.81066e-05
6.99356e-05
6.99375e-05
2.81044e-05
2.81064e-05
6.99379e-05
6.99399e-05
2.81041e-05
7.74308e-05
7.74295e-05
7.74301e-05
7.74288e-05
2.37895e-05
3.56582e-05
3.56609e-05
3.56596e-05
3.56623e-05
7.74285e-05
7.74291e-05
7.74279e-05
7.74284e-05
7.74287e-05
7.74283e-05
7.74278e-05
7.74274e-05
3.56602e-05
3.5662e-05
2.37939e-05
3.56584e-05
3.56604e-05
7.74283e-05
7.74284e-05
7.7427e-05
7.74272e-05
2.37899e-05
3.56589e-05
3.56607e-05
3.56605e-05
3.56625e-05
2.81066e-05
6.99386e-05
2.81087e-05
6.99364e-05
2.29133e-05
2.7653e-05
2.48124e-05
2.44483e-05
2.29136e-05
2.76486e-05
2.48124e-05
2.29135e-05
2.76547e-05
2.48123e-05
2.44483e-05
2.29137e-05
2.76502e-05
2.48123e-05
2.81091e-05
6.99334e-05
6.99354e-05
2.81068e-05
2.81095e-05
6.99362e-05
6.99382e-05
2.81072e-05
2.29139e-05
2.44483e-05
2.7649e-05
2.48124e-05
2.76535e-05
2.48124e-05
2.29137e-05
2.2914e-05
2.44483e-05
2.76507e-05
2.48123e-05
2.76552e-05
2.48123e-05
2.29138e-05
3.56638e-05
3.56558e-05
2.37939e-05
3.56622e-05
3.56542e-05
7.74248e-05
7.74239e-05
7.7428e-05
7.74281e-05
2.37899e-05
3.5663e-05
3.56551e-05
3.56645e-05
3.56568e-05
7.74238e-05
7.74243e-05
2.29138e-05
2.76537e-05
2.48124e-05
2.44487e-05
2.2914e-05
2.76494e-05
2.48124e-05
2.8107e-05
6.99344e-05
2.81089e-05
6.9932e-05
2.29135e-05
2.48122e-05
2.76529e-05
2.44479e-05
2.29137e-05
2.48122e-05
2.76483e-05
2.81102e-05
6.99359e-05
6.99381e-05
2.81082e-05
2.29144e-05
2.44487e-05
2.76499e-05
2.48123e-05
2.76543e-05
2.48123e-05
2.29142e-05
2.81097e-05
6.99317e-05
6.9934e-05
2.81077e-05
2.29141e-05
2.44478e-05
2.48121e-05
2.76489e-05
2.48121e-05
2.76536e-05
2.29138e-05
2.81065e-05
6.99355e-05
2.81086e-05
6.99332e-05
2.29133e-05
2.48123e-05
2.76527e-05
2.44482e-05
2.29136e-05
2.48123e-05
2.76483e-05
2.81063e-05
6.99369e-05
2.81085e-05
6.99347e-05
2.29138e-05
2.44488e-05
2.76485e-05
2.48124e-05
2.76532e-05
2.48124e-05
2.29135e-05
2.81094e-05
6.9933e-05
6.99352e-05
2.81071e-05
2.29139e-05
2.44482e-05
2.48122e-05
2.76487e-05
2.48123e-05
2.76533e-05
2.29136e-05
2.81092e-05
6.99344e-05
6.99365e-05
2.81069e-05
3.56573e-05
3.56599e-05
2.37933e-05
3.56556e-05
3.56583e-05
7.74287e-05
7.74282e-05
7.74235e-05
7.74244e-05
2.37893e-05
3.56566e-05
3.56587e-05
3.56581e-05
3.56605e-05
7.74279e-05
7.74281e-05
2.29124e-05
2.48122e-05
2.76536e-05
2.44486e-05
2.29127e-05
2.48121e-05
2.76491e-05
2.81051e-05
6.99374e-05
2.81076e-05
6.99353e-05
2.81049e-05
6.99396e-05
2.81074e-05
6.99374e-05
2.2913e-05
2.44485e-05
2.48121e-05
2.7649e-05
2.48121e-05
2.76535e-05
2.29127e-05
2.2913e-05
2.44485e-05
2.48121e-05
2.76495e-05
2.48121e-05
2.76541e-05
2.29127e-05
2.81083e-05
6.99349e-05
6.99371e-05
2.81058e-05
2.81081e-05
6.99371e-05
6.99392e-05
2.81055e-05
7.74283e-05
7.74279e-05
7.74276e-05
7.74273e-05
2.37897e-05
3.5659e-05
3.56618e-05
3.56607e-05
3.56635e-05
7.74279e-05
7.7428e-05
7.74272e-05
7.74273e-05
7.74285e-05
7.74285e-05
7.74272e-05
7.74271e-05
3.56611e-05
3.56628e-05
2.37941e-05
3.56599e-05
3.56613e-05
7.74289e-05
7.74288e-05
7.74273e-05
7.74273e-05
2.37902e-05
3.5661e-05
3.56623e-05
3.56622e-05
3.56636e-05
2.81076e-05
6.99381e-05
2.81101e-05
6.99362e-05
2.2914e-05
2.7654e-05
2.48126e-05
2.44485e-05
2.29143e-05
2.76495e-05
2.48126e-05
2.29141e-05
2.76557e-05
2.48125e-05
2.44484e-05
2.29144e-05
2.76511e-05
2.48125e-05
2.81101e-05
6.99333e-05
6.99352e-05
2.81075e-05
2.81104e-05
6.99364e-05
6.99382e-05
2.81078e-05
2.29146e-05
2.44485e-05
2.76498e-05
2.48125e-05
2.76544e-05
2.48125e-05
2.29143e-05
2.29147e-05
2.44484e-05
2.76514e-05
2.48125e-05
2.7656e-05
2.48125e-05
2.29144e-05
3.56653e-05
3.56577e-05
2.37941e-05
3.56639e-05
3.56562e-05
7.74243e-05
7.74242e-05
7.74286e-05
7.74284e-05
2.37901e-05
3.56649e-05
3.56573e-05
3.56663e-05
3.56588e-05
7.74247e-05
7.74248e-05
2.29145e-05
2.76547e-05
2.48124e-05
2.44488e-05
2.29147e-05
2.76503e-05
2.48124e-05
2.81082e-05
6.99337e-05
2.81104e-05
6.99315e-05
2.29141e-05
2.48122e-05
2.76542e-05
2.44479e-05
2.29144e-05
2.48122e-05
2.76494e-05
2.81111e-05
6.99358e-05
6.99378e-05
2.81088e-05
2.2915e-05
2.44488e-05
2.76507e-05
2.48124e-05
2.76552e-05
2.48124e-05
2.29147e-05
2.81107e-05
6.99315e-05
6.99335e-05
2.81084e-05
2.29147e-05
2.44479e-05
2.48122e-05
2.76498e-05
2.48122e-05
2.76546e-05
2.29144e-05
2.81074e-05
6.99351e-05
2.81099e-05
6.9933e-05
2.29139e-05
2.48123e-05
2.76537e-05
2.44483e-05
2.29142e-05
2.48123e-05
2.76491e-05
2.81073e-05
6.99363e-05
2.81098e-05
6.99343e-05
2.29143e-05
2.44489e-05
2.76492e-05
2.48123e-05
2.76541e-05
2.48124e-05
2.29139e-05
2.81102e-05
6.99332e-05
6.99351e-05
2.81076e-05
2.29145e-05
2.44483e-05
2.48123e-05
2.76495e-05
2.48123e-05
2.76541e-05
2.29141e-05
2.81101e-05
6.99344e-05
6.99362e-05
2.81075e-05
3.56592e-05
3.56609e-05
2.37935e-05
3.56577e-05
3.56595e-05
7.7428e-05
7.7428e-05
7.74236e-05
7.74239e-05
2.37896e-05
3.56587e-05
3.56605e-05
3.56603e-05
3.56618e-05
7.74282e-05
7.74282e-05
2.29129e-05
2.48122e-05
2.76545e-05
2.44486e-05
2.29133e-05
2.48122e-05
2.76499e-05
2.81061e-05
6.99368e-05
2.81089e-05
6.99348e-05
2.81059e-05
6.9939e-05
2.81087e-05
6.9937e-05
2.29134e-05
2.44486e-05
2.48122e-05
2.76498e-05
2.48122e-05
2.76544e-05
2.2913e-05
2.29135e-05
2.44486e-05
2.48121e-05
2.76503e-05
2.48121e-05
2.76549e-05
2.29131e-05
2.81092e-05
6.99348e-05
6.99367e-05
2.81063e-05
2.8109e-05
6.9937e-05
6.99388e-05
2.81061e-05
7.74281e-05
7.74281e-05
7.74274e-05
7.74274e-05
2.37899e-05
3.56609e-05
3.56638e-05
3.56621e-05
3.5665e-05
7.74285e-05
7.74284e-05
7.74278e-05
7.74277e-05
7.74291e-05
7.74295e-05
7.74275e-05
7.74279e-05
3.56634e-05
3.56646e-05
2.37944e-05
3.56621e-05
3.56634e-05
7.74307e-05
7.74296e-05
7.74291e-05
7.7428e-05
2.37904e-05
3.56627e-05
3.56643e-05
3.56643e-05
3.56657e-05
2.8108e-05
6.99383e-05
2.81106e-05
6.99368e-05
2.29145e-05
2.76547e-05
2.48126e-05
2.44486e-05
2.29149e-05
2.76501e-05
2.48126e-05
2.29146e-05
2.76563e-05
2.48126e-05
2.44486e-05
2.29149e-05
2.76516e-05
2.48126e-05
2.81106e-05
6.99341e-05
6.99352e-05
2.8108e-05
2.81109e-05
6.99375e-05
6.99386e-05
2.81084e-05
2.29151e-05
2.44486e-05
2.76501e-05
2.48125e-05
2.7655e-05
2.48126e-05
2.29148e-05
2.29152e-05
2.44486e-05
2.76515e-05
2.48125e-05
2.76565e-05
2.48125e-05
2.29149e-05
3.56673e-05
3.56599e-05
2.37943e-05
3.56657e-05
3.56581e-05
7.74254e-05
7.74257e-05
7.74305e-05
7.74294e-05
2.37903e-05
3.5666e-05
3.56584e-05
3.5668e-05
3.56607e-05
7.7427e-05
7.74262e-05
2.29148e-05
2.76555e-05
2.48125e-05
2.4449e-05
2.29152e-05
2.7651e-05
2.48125e-05
2.81085e-05
6.99335e-05
2.81109e-05
6.99317e-05
2.29146e-05
2.48123e-05
2.7655e-05
2.44481e-05
2.29149e-05
2.48123e-05
2.76501e-05
2.81115e-05
6.99369e-05
6.9938e-05
2.81093e-05
2.29154e-05
2.4449e-05
2.76511e-05
2.48125e-05
2.76558e-05
2.48125e-05
2.29151e-05
2.81111e-05
6.99324e-05
6.99336e-05
2.81089e-05
2.29151e-05
2.44481e-05
2.48123e-05
2.76501e-05
2.48123e-05
2.76552e-05
2.29149e-05
2.81078e-05
6.99353e-05
2.81104e-05
6.99336e-05
2.29142e-05
2.48124e-05
2.76544e-05
2.44484e-05
2.29146e-05
2.48124e-05
2.76497e-05
2.81077e-05
6.99363e-05
2.81103e-05
6.99347e-05
2.29146e-05
2.44488e-05
2.76494e-05
2.48124e-05
2.76545e-05
2.48125e-05
2.29143e-05
2.81107e-05
6.99344e-05
6.99355e-05
2.81081e-05
2.29148e-05
2.44484e-05
2.48124e-05
2.76497e-05
2.48124e-05
2.76546e-05
2.29145e-05
2.81106e-05
6.99354e-05
6.99365e-05
2.81081e-05
3.56613e-05
3.56629e-05
2.37938e-05
3.56596e-05
3.56616e-05
7.74284e-05
7.74288e-05
7.74258e-05
7.74248e-05
2.37898e-05
3.56601e-05
3.56624e-05
3.56621e-05
3.56639e-05
7.743e-05
7.74289e-05
2.29132e-05
2.48122e-05
2.76552e-05
2.44488e-05
2.29136e-05
2.48122e-05
2.76505e-05
2.81065e-05
6.99367e-05
2.81094e-05
6.9935e-05
2.81064e-05
6.99389e-05
2.81092e-05
6.99373e-05
2.29137e-05
2.44487e-05
2.48122e-05
2.765e-05
2.48122e-05
2.76549e-05
2.29134e-05
2.29138e-05
2.44488e-05
2.48122e-05
2.76505e-05
2.48122e-05
2.76555e-05
2.29135e-05
2.81096e-05
6.99356e-05
6.99368e-05
2.81068e-05
2.81095e-05
6.9938e-05
6.99391e-05
2.81067e-05
7.74287e-05
7.74291e-05
7.7428e-05
7.74284e-05
2.37901e-05
3.56624e-05
3.56654e-05
3.56641e-05
3.5667e-05
7.74303e-05
7.74292e-05
7.74296e-05
7.74285e-05
7.74306e-05
7.74334e-05
7.74289e-05
7.74315e-05
3.56648e-05
3.56665e-05
2.37946e-05
3.56626e-05
3.56647e-05
7.74378e-05
7.7432e-05
7.74362e-05
7.74301e-05
2.37907e-05
3.56622e-05
3.56646e-05
3.56648e-05
3.5667e-05
2.81086e-05
6.99389e-05
2.81112e-05
6.99392e-05
2.29147e-05
2.76549e-05
2.48125e-05
2.44488e-05
2.29153e-05
2.76495e-05
2.48124e-05
2.29149e-05
2.76563e-05
2.48124e-05
2.44486e-05
2.29154e-05
2.76509e-05
2.48124e-05
2.8111e-05
6.9938e-05
6.9936e-05
2.81076e-05
2.81114e-05
6.99425e-05
6.99401e-05
2.8108e-05
2.29151e-05
2.44487e-05
2.76483e-05
2.48122e-05
2.76545e-05
2.48123e-05
2.29137e-05
2.29153e-05
2.44485e-05
2.76497e-05
2.48122e-05
2.76559e-05
2.48123e-05
2.2914e-05
3.56682e-05
3.56608e-05
2.37945e-05
3.56658e-05
3.56581e-05
7.74271e-05
7.743e-05
7.74371e-05
7.7432e-05
2.37905e-05
3.56658e-05
3.56581e-05
3.56682e-05
3.56608e-05
7.74337e-05
7.74286e-05
2.29154e-05
2.76558e-05
2.48126e-05
2.44491e-05
2.29157e-05
2.76506e-05
2.48126e-05
2.81092e-05
6.99338e-05
2.81116e-05
6.99335e-05
2.29151e-05
2.48123e-05
2.76552e-05
2.44483e-05
2.29155e-05
2.48123e-05
2.76495e-05
2.81121e-05
6.99406e-05
6.9939e-05
2.81094e-05
2.29159e-05
2.44491e-05
2.76495e-05
2.48125e-05
2.76555e-05
2.48126e-05
2.29149e-05
2.81118e-05
6.99358e-05
6.99345e-05
2.8109e-05
2.29156e-05
2.44482e-05
2.48122e-05
2.76483e-05
2.48122e-05
2.76548e-05
2.29147e-05
2.81084e-05
6.99359e-05
2.8111e-05
6.99359e-05
2.29146e-05
2.48125e-05
2.76545e-05
2.44485e-05
2.29151e-05
2.48125e-05
2.76491e-05
2.81083e-05
6.99366e-05
2.81109e-05
6.99367e-05
2.29149e-05
2.44488e-05
2.76476e-05
2.48122e-05
2.7654e-05
2.48123e-05
2.29139e-05
2.81111e-05
6.99393e-05
6.99373e-05
2.81078e-05
2.2915e-05
2.44484e-05
2.48123e-05
2.76479e-05
2.48124e-05
2.76541e-05
2.29137e-05
2.81111e-05
6.99394e-05
6.99373e-05
2.81077e-05
3.56626e-05
3.56646e-05
2.3794e-05
3.56603e-05
3.56627e-05
7.74299e-05
7.74325e-05
7.74331e-05
7.74271e-05
2.37901e-05
3.56598e-05
3.56621e-05
3.56628e-05
3.56649e-05
7.74373e-05
7.74311e-05
2.29136e-05
2.48124e-05
2.76554e-05
2.4449e-05
2.29141e-05
2.48123e-05
2.765e-05
2.81071e-05
6.99369e-05
2.811e-05
6.99368e-05
2.8107e-05
6.99393e-05
2.81099e-05
6.99393e-05
2.29141e-05
2.44486e-05
2.4812e-05
2.76481e-05
2.48121e-05
2.76543e-05
2.29132e-05
2.29141e-05
2.44489e-05
2.4812e-05
2.76487e-05
2.48122e-05
2.7655e-05
2.2913e-05
2.81101e-05
6.99389e-05
6.99373e-05
2.81067e-05
2.811e-05
6.99421e-05
6.994e-05
2.81064e-05
7.74302e-05
7.7433e-05
7.74295e-05
7.74322e-05
2.37903e-05
3.5662e-05
3.56651e-05
3.56646e-05
3.56676e-05
7.74374e-05
7.74316e-05
7.74366e-05
7.74309e-05
7.74332e-05
7.744e-05
7.74317e-05
7.74394e-05
3.56652e-05
3.56677e-05
2.37944e-05
3.56621e-05
3.56645e-05
7.74401e-05
7.74322e-05
7.744e-05
7.74318e-05
2.37901e-05
3.56613e-05
3.56637e-05
3.56662e-05
3.56686e-05
2.81066e-05
6.99428e-05
2.81104e-05
6.99454e-05
2.29126e-05
2.7654e-05
2.48121e-05
2.44483e-05
2.2914e-05
2.76469e-05
2.4812e-05
2.29127e-05
2.76555e-05
2.48122e-05
2.4448e-05
2.29142e-05
2.76482e-05
2.4812e-05
2.81099e-05
6.99429e-05
6.99397e-05
2.81053e-05
2.81103e-05
6.99464e-05
6.99435e-05
2.81057e-05
2.2913e-05
2.4448e-05
2.76452e-05
2.48113e-05
2.76541e-05
2.48118e-05
2.29107e-05
2.29131e-05
2.44475e-05
2.7646e-05
2.48111e-05
2.76554e-05
2.48118e-05
2.29108e-05
3.5669e-05
3.56615e-05
2.37935e-05
3.56655e-05
3.56579e-05
7.74292e-05
7.74361e-05
7.74394e-05
7.74312e-05
2.3789e-05
3.56638e-05
3.56564e-05
3.56696e-05
3.56622e-05
7.74367e-05
7.74286e-05
2.29136e-05
2.76552e-05
2.48125e-05
2.4449e-05
2.29151e-05
2.76482e-05
2.48124e-05
2.81077e-05
6.99365e-05
2.81112e-05
6.99392e-05
2.29133e-05
2.48121e-05
2.76544e-05
2.44479e-05
2.29149e-05
2.4812e-05
2.76471e-05
2.81115e-05
6.99457e-05
6.99423e-05
2.81075e-05
2.29141e-05
2.44487e-05
2.7647e-05
2.48119e-05
2.76555e-05
2.48122e-05
2.29125e-05
2.81111e-05
6.99412e-05
6.99378e-05
2.81071e-05
2.29139e-05
2.44477e-05
2.48116e-05
2.76459e-05
2.48118e-05
2.76547e-05
2.29122e-05
2.81065e-05
6.99399e-05
2.81102e-05
6.99422e-05
2.29125e-05
2.48122e-05
2.76537e-05
2.44481e-05
2.2914e-05
2.4812e-05
2.76465e-05
2.81063e-05
6.99397e-05
2.81101e-05
6.99427e-05
2.29129e-05
2.4448e-05
2.76439e-05
2.48111e-05
2.76535e-05
2.48118e-05
2.29106e-05
2.81101e-05
6.99433e-05
6.99405e-05
2.81055e-05
2.29129e-05
2.44477e-05
2.48111e-05
2.76448e-05
2.48117e-05
2.76538e-05
2.29106e-05
2.811e-05
6.99442e-05
6.9941e-05
2.81054e-05
3.56631e-05
3.5665e-05
2.37939e-05
3.56595e-05
3.56617e-05
7.74329e-05
7.74404e-05
7.74375e-05
7.74295e-05
2.37897e-05
3.56593e-05
3.56614e-05
3.5664e-05
3.56659e-05
7.74405e-05
7.74326e-05
2.29118e-05
2.4812e-05
2.76546e-05
2.44484e-05
2.29134e-05
2.48119e-05
2.76473e-05
2.81052e-05
6.99392e-05
2.81089e-05
6.99423e-05
2.81051e-05
6.99424e-05
2.81091e-05
6.99453e-05
2.29122e-05
2.44482e-05
2.48113e-05
2.76454e-05
2.48117e-05
2.7654e-05
2.29099e-05
2.29122e-05
2.44481e-05
2.48111e-05
2.76456e-05
2.48116e-05
2.76546e-05
2.29098e-05
2.81088e-05
6.99444e-05
6.99407e-05
2.81039e-05
2.8109e-05
6.99468e-05
6.99436e-05
2.81042e-05
7.74327e-05
7.74396e-05
7.7432e-05
7.74389e-05
2.37894e-05
3.56611e-05
3.56639e-05
3.5666e-05
3.5669e-05
7.74398e-05
7.74318e-05
7.74392e-05
7.74311e-05
7.74297e-05
7.74416e-05
7.74294e-05
7.74409e-05
3.56662e-05
3.56687e-05
2.379e-05
3.56597e-05
3.56624e-05
7.74416e-05
7.74283e-05
7.74406e-05
7.74275e-05
2.37848e-05
3.56593e-05
3.56621e-05
3.56648e-05
3.56676e-05
2.81046e-05
6.9942e-05
2.81107e-05
6.99471e-05
2.29063e-05
2.76533e-05
2.481e-05
2.44443e-05
2.29107e-05
2.76421e-05
2.48083e-05
2.29064e-05
2.76541e-05
2.48096e-05
2.4443e-05
2.29108e-05
2.76426e-05
2.4808e-05
2.81082e-05
6.99463e-05
6.99376e-05
2.81023e-05
2.81086e-05
6.99499e-05
6.99412e-05
2.81028e-05
2.29064e-05
2.44428e-05
2.76379e-05
2.48057e-05
2.76506e-05
2.48069e-05
2.29043e-05
2.29065e-05
2.44417e-05
2.76385e-05
2.48055e-05
2.76511e-05
2.48066e-05
2.29044e-05
3.56686e-05
3.56616e-05
2.37881e-05
3.56616e-05
3.56544e-05
7.74264e-05
7.74385e-05
7.7441e-05
7.74277e-05
2.37831e-05
3.5661e-05
3.56538e-05
3.56667e-05
3.56598e-05
7.74399e-05
7.74258e-05
2.29096e-05
2.76553e-05
2.48112e-05
2.44456e-05
2.29129e-05
2.76444e-05
2.48096e-05
2.81066e-05
6.99372e-05
2.81122e-05
6.99424e-05
2.29094e-05
2.4811e-05
2.76545e-05
2.4445e-05
2.29127e-05
2.48095e-05
2.76434e-05
2.81108e-05
6.99498e-05
6.99411e-05
2.81048e-05
2.29092e-05
2.4444e-05
2.764e-05
2.48065e-05
2.76529e-05
2.48081e-05
2.29056e-05
2.81104e-05
6.99453e-05
6.99367e-05
2.81044e-05
2.2909e-05
2.44434e-05
2.48064e-05
2.76389e-05
2.48079e-05
2.76522e-05
2.29053e-05
2.81045e-05
6.99391e-05
2.81106e-05
6.9944e-05
2.29063e-05
2.48097e-05
2.7653e-05
2.44438e-05
2.29107e-05
2.48081e-05
2.76417e-05
2.81044e-05
6.99399e-05
2.81105e-05
6.9945e-05
2.29064e-05