/*--------------------------------*- C++ -*----------------------------------*\
| =========                 |                                                 |
| \\      /  F ield         | OpenFOAM: The Open Source CFD Toolbox           |
|  \\    /   O peration     | Version:  2206                                  |
|   \\  /    A nd           | Website:  www.openfoam.com                      |
|    \\/     M anipulation  |                                                 |
\*---------------------------------------------------------------------------*/
FoamFile
{
    version     2.0;
    format      ascii;
    arch        "LSB;label=32;scalar=64";
    class       volScalarField;
    location    "32.5";
    object      nut;
}
// * * * * * * * * * * * * * * * * * * * * * * * * * * * * * * * * * * * * * //

dimensions      [0 2 -1 0 0 0 0];

internalField   nonuniform List<scalar> 
28673
(
0.00018421
0.00015607
0.000215073
0.00018421
0.0001842
0.000156103
0.000215073
0.000184209
0.000184199
0.000156102
0.000215072
0.000184208
0.000184197
0.000156101
0.000215073
0.000184206
0.000184197
0.0001561
0.000215072
0.000184205
0.000184196
0.000156099
0.000215072
0.000184201
0.000184193
0.000156096
0.000215057
0.000184174
0.000184179
0.000156063
0.000215039
0.000184163
0.000184151
0.000156048
0.000215047
0.00018417
0.000184161
0.000156054
0.000215048
0.000184178
0.000184168
0.000156056
0.000215051
0.000184182
0.000184173
0.000156085
0.000216143
0.000187321
0.000187318
0.00016021
0.000184184
0.000156299
0.000184211
0.000156253
0.00018419
0.000184184
0.000184188
0.000184184
0.000156115
0.000156296
0.000184204
0.000184174
0.000184188
0.000184211
0.000184187
0.000156282
0.000184204
0.000184201
0.000184204
0.000156288
0.000156077
0.000156289
0.000184189
0.000184185
0.000184189
0.000184184
0.000156113
0.000156295
0.000184204
0.000184174
0.000184205
0.000184174
0.000184187
0.000184209
0.000184186
0.0001561
0.000156282
0.000184203
0.000184199
0.000184202
0.000156287
0.000156107
0.000156291
0.000184189
0.000184184
0.000184188
0.000184183
0.000156113
0.000156295
0.000184205
0.000184175
0.000184204
0.000184174
0.000184186
0.000184208
0.000184185
0.0001561
0.000156281
0.000184202
0.000184197
0.000184201
0.000156286
0.000156108
0.00015629
0.000184188
0.000184184
0.000184188
0.000184183
0.000156112
0.000156294
0.000184204
0.000184173
0.000184204
0.000184173
0.000184184
0.000184206
0.000184184
0.000156099
0.00015628
0.000184201
0.000184197
0.0001842
0.000156284
0.000156108
0.00015629
0.000184188
0.000184184
0.000184188
0.000184184
0.000156111
0.000156293
0.000184204
0.000184173
0.000184204
0.000184173
0.000184185
0.000184205
0.000184184
0.000156099
0.00015628
0.000184201
0.000184196
0.000184201
0.000156283
0.000156108
0.000156289
0.000184189
0.000184184
0.000184187
0.000184179
0.00015611
0.00015629
0.000184205
0.000184174
0.000184206
0.000184174
0.000184184
0.000184202
0.000184183
0.000156098
0.000156279
0.000184202
0.000184194
0.0001842
0.000156282
0.000156107
0.000156268
0.000184184
0.000184177
0.000184173
0.00018416
0.000156106
0.00015626
0.000184205
0.000184172
0.000184195
0.000184163
0.000184181
0.000184187
0.000184167
0.000156097
0.000156263
0.000184198
0.000184186
0.000184184
0.000156257
0.000156078
0.000156235
0.000184161
0.000184147
0.00018414
0.000184134
0.000156067
0.000156242
0.000184185
0.000184156
0.000184157
0.000184127
0.000184154
0.000184161
0.000184138
0.000156075
0.000156228
0.00018417
0.000184154
0.000184154
0.000156232
0.000156052
0.000156243
0.000184141
0.000184137
0.000184149
0.000184143
0.000156062
0.000156246
0.000184156
0.000184125
0.000184165
0.000184134
0.000184139
0.000184171
0.000184146
0.000156044
0.000156236
0.000184155
0.000184161
0.000184163
0.000156239
0.000156061
0.000156242
0.000184152
0.000184145
0.000184156
0.000184152
0.000156063
0.000156246
0.000184167
0.000184136
0.000184173
0.000184142
0.000184148
0.000184179
0.000184154
0.000156054
0.000156232
0.000184166
0.000184168
0.000184171
0.000156237
0.000156061
0.000156268
0.000184157
0.000184153
0.000184197
0.000184193
0.000156066
0.000156274
0.000184174
0.000184144
0.000184214
0.000184184
0.000184157
0.00018422
0.000184195
0.000156052
0.00015626
0.000184172
0.000184212
0.000184214
0.000156265
0.00015609
0.000157972
0.000184159
0.000184155
0.000186262
0.000186259
0.000156095
0.000157974
0.000184177
0.000184146
0.000186275
0.000186255
0.000184156
0.000186276
0.000186261
0.000156083
0.000157967
0.000184176
0.000186273
0.000186275
0.000157971
0.000160212
0.000187311
0.000187308
0.000160213
0.000187321
0.000187305
0.000216143
0.000216142
0.000216143
0.00018731
0.000160207
0.000187321
3.97492e-05
4.95183e-05
3.97426e-05
4.95174e-05
2.49128e-05
2.49124e-05
3.9755e-05
4.95131e-05
0.000215075
0.000215071
0.000215073
0.000215074
0.000215069
0.000215071
8.62133e-05
4.81694e-05
0.000202536
0.000184212
8.61896e-05
4.81819e-05
0.000202536
2.49102e-05
8.62037e-05
0.000202531
0.000184202
8.61803e-05
0.000202531
4.81843e-05
3.63927e-05
3.63875e-05
0.00015629
3.63944e-05
3.63897e-05
3.9753e-05
4.95177e-05
3.97461e-05
4.9517e-05
2.49119e-05
2.49117e-05
3.97589e-05
4.95135e-05
3.97524e-05
4.95127e-05
0.000215074
0.000215068
0.000215071
0.000215073
0.000215073
0.000215066
0.00021507
8.62148e-05
4.81727e-05
0.000202536
0.00018421
8.61901e-05
4.81849e-05
0.000202535
2.49096e-05
2.49093e-05
8.6205e-05
0.000202531
4.81757e-05
0.0001842
8.61803e-05
0.000202531
4.81878e-05
3.63959e-05
3.63913e-05
0.000156288
3.6399e-05
3.63945e-05
3.97566e-05
4.95175e-05
3.97498e-05
4.95168e-05
2.49116e-05
2.49116e-05
3.97625e-05
4.95134e-05
3.97561e-05
4.95126e-05
0.000215073
0.000215066
0.000215068
0.000215072
0.000215073
0.000215066
0.000215067
8.62152e-05
4.81754e-05
0.000202534
0.000184209
8.61908e-05
4.81875e-05
0.000202533
2.49091e-05
2.49089e-05
8.62057e-05
0.000202529
4.81787e-05
0.000184198
8.61811e-05
0.000202528
4.81905e-05
3.63986e-05
3.63943e-05
0.000156287
3.64006e-05
3.63963e-05
3.97592e-05
4.95174e-05
3.97529e-05
4.95167e-05
2.49116e-05
2.49116e-05
3.97651e-05
4.95132e-05
3.97593e-05
4.95125e-05
0.000215071
0.000215067
0.000215068
0.000215073
0.00021507
0.000215068
0.000215069
8.62158e-05
4.81777e-05
0.000202532
0.000184207
8.6191e-05
4.81897e-05
0.000202532
2.49089e-05
2.49089e-05
8.62063e-05
0.000202528
4.81809e-05
0.000184197
8.61815e-05
0.000202528
4.81924e-05
3.64e-05
3.63957e-05
0.000156285
3.64026e-05
3.63984e-05
3.9761e-05
4.95173e-05
3.97549e-05
4.95167e-05
2.49117e-05
2.49118e-05
3.97665e-05
4.95132e-05
3.97609e-05
4.95126e-05
0.000215072
0.000215067
0.00021507
0.000215072
0.000215073
0.000215066
0.000215072
8.62166e-05
4.81796e-05
0.000202532
0.000184206
8.61917e-05
4.81912e-05
0.000202533
2.4909e-05
2.4909e-05
8.62067e-05
0.000202528
4.81828e-05
0.000184197
8.6182e-05
0.000202528
4.81941e-05
3.6403e-05
3.63988e-05
0.000156284
3.64056e-05
3.64015e-05
3.97615e-05
4.95174e-05
3.97562e-05
4.95174e-05
2.4912e-05
2.49125e-05
3.97679e-05
4.95133e-05
3.97624e-05
4.95133e-05
0.000215072
0.000215066
0.000215072
0.000215072
0.000215071
0.000215065
0.00021507
8.62178e-05
4.81818e-05
0.000202534
0.000184203
8.61933e-05
4.81921e-05
0.000202533
2.49092e-05
2.49097e-05
8.62079e-05
0.000202529
4.81851e-05
0.000184196
8.61833e-05
0.000202529
4.81955e-05
3.6406e-05
3.6402e-05
0.000156283
3.6408e-05
3.6404e-05
3.97567e-05
4.95185e-05
3.97554e-05
4.95195e-05
2.49122e-05
2.49134e-05
3.97658e-05
4.95143e-05
3.97636e-05
4.95153e-05
0.00021507
0.000215065
0.000215069
0.000215066
0.000215061
0.000215061
0.00021506
8.62054e-05
4.81835e-05
0.000202531
0.000184199
8.61899e-05
4.81883e-05
0.00020253
2.49097e-05
2.4911e-05
8.61968e-05
0.000202527
4.81888e-05
0.000184191
8.61812e-05
0.000202526
4.81941e-05
3.64119e-05
3.64079e-05
0.000156275
3.64113e-05
3.64072e-05
3.97411e-05
4.95185e-05
3.97405e-05
4.95203e-05
2.49117e-05
2.49137e-05
3.97497e-05
4.95145e-05
3.97498e-05
4.95164e-05
0.000215047
0.000215055
0.000215047
0.000215038
0.00021504
0.000215034
0.000215037
8.61685e-05
4.8176e-05
0.000202506
0.000184167
8.61636e-05
4.81768e-05
0.000202497
2.49094e-05
2.49113e-05
8.61618e-05
0.000202508
4.81828e-05
0.000184168
8.61558e-05
0.000202498
4.81831e-05
3.64122e-05
3.64079e-05
0.000156236
3.64092e-05
3.64048e-05
3.97338e-05
4.95182e-05
3.97304e-05
4.95228e-05
2.49109e-05
2.49135e-05
3.97409e-05
4.95143e-05
3.97384e-05
4.95189e-05
0.000215043
0.000215035
0.00021504
0.000215047
0.000215048
0.000215042
0.000215045
8.61668e-05
4.81779e-05
0.000202494
0.000184168
8.61424e-05
4.81763e-05
0.000202498
2.49088e-05
2.49114e-05
8.61587e-05
0.00020249
4.81831e-05
0.000184156
8.6134e-05
0.000202493
4.81803e-05
3.64098e-05
3.64054e-05
0.000156239
3.63987e-05
3.63943e-05
3.97274e-05
4.95186e-05
3.97232e-05
4.95265e-05
2.49079e-05
2.49113e-05
3.9734e-05
4.95151e-05
3.97304e-05
4.95231e-05
0.000215048
0.000215043
0.000215046
0.000215047
0.000215049
0.000215043
0.000215046
8.61668e-05
4.81955e-05
0.0002025
0.000184173
8.61484e-05
4.8178e-05
0.000202501
2.4906e-05
2.49094e-05
8.61601e-05
0.000202496
4.81979e-05
0.000184164
8.61412e-05
0.000202497
4.81785e-05
3.63898e-05
3.63853e-05
0.000156235
3.63615e-05
3.63571e-05
3.97138e-05
4.95137e-05
3.97084e-05
4.95263e-05
2.49013e-05
2.49058e-05
3.97204e-05
4.95105e-05
3.97156e-05
4.9523e-05
0.000215049
0.000215044
0.000215047
0.000215061
0.000215062
0.000215057
0.000215059
8.61636e-05
4.82024e-05
0.000202505
0.000184188
8.61505e-05
4.81495e-05
0.000202504
2.48996e-05
2.49039e-05
8.61575e-05
0.0002025
4.82015e-05
0.000184179
8.61443e-05
0.000202499
4.81479e-05
3.63396e-05
3.6335e-05
0.000156242
3.62809e-05
3.62762e-05
3.97621e-05
4.95021e-05
3.96788e-05
4.95426e-05
2.48892e-05
2.49023e-05
3.9766e-05
4.94985e-05
3.96854e-05
4.95396e-05
0.000215054
0.000215049
0.000215051
0.000215366
0.000215366
0.000215363
0.000215365
8.63171e-05
4.81975e-05
0.000202561
0.000184434
8.61752e-05
4.815e-05
0.000202497
2.48871e-05
2.49003e-05
8.63124e-05
0.000202558
4.81959e-05
0.000184427
8.61695e-05
0.000202495
4.81492e-05
3.62298e-05
3.62251e-05
0.000156526
3.60826e-05
3.60796e-05
4.41531e-05
5.28769e-05
4.00161e-05
8.30659e-05
2.73039e-05
2.83421e-05
4.41559e-05
5.2875e-05
4.00187e-05
8.30563e-05
0.00022668
0.000223038
0.00022304
0.000213125
0.000226534
0.000222157
0.000222159
9.159e-05
4.95696e-05
0.000204433
0.000189888
8.82658e-05
5.98037e-05
0.000207538
2.73023e-05
2.83411e-05
9.15846e-05
0.000204431
4.95695e-05
0.000189886
8.8262e-05
0.000207536
5.98033e-05
3.69952e-05
3.69887e-05
0.000165507
3.77978e-05
3.77914e-05
4.95175e-05
4.81842e-05
2.4913e-05
3.63911e-05
3.63861e-05
2.49134e-05
4.81801e-05
4.95158e-05
2.49142e-05
2.49137e-05
2.4912e-05
3.63937e-05
0.000156225
3.63947e-05
3.63879e-05
2.49132e-05
2.49136e-05
2.49115e-05
2.49119e-05
0.000156045
3.63974e-05
3.63909e-05
3.63936e-05
3.6387e-05
3.97499e-05
4.95181e-05
3.97434e-05
4.95172e-05
8.62144e-05
4.81749e-05
0.000202535
0.000184189
8.61907e-05
4.81864e-05
0.000202535
8.62149e-05
4.81742e-05
0.000202535
0.000184184
8.61904e-05
4.81861e-05
0.000202535
3.97445e-05
4.95171e-05
4.95179e-05
3.97511e-05
3.97452e-05
4.9517e-05
4.95178e-05
3.97519e-05
8.61915e-05
0.000184188
4.81881e-05
0.000202535
4.81767e-05
0.000202535
8.62155e-05
8.6192e-05
0.000184185
4.81877e-05
0.000202535
4.8176e-05
0.000202535
8.62161e-05
3.63901e-05
3.63846e-05
0.000156296
3.63937e-05
3.6388e-05
2.49134e-05
2.49129e-05
2.4912e-05
2.49123e-05
0.000156113
3.63956e-05
3.63896e-05
3.63923e-05
3.63863e-05
2.49126e-05
2.49129e-05
8.62163e-05
0.000184204
4.8178e-05
0.000202533
3.9754e-05
4.951e-05
8.62162e-05
0.000184175
0.000202528
4.81731e-05
3.97507e-05
4.95129e-05
4.95137e-05
3.9757e-05
8.61936e-05
0.000184204
4.81803e-05
0.000202533
4.81684e-05
0.000202533
8.62166e-05
3.97497e-05
4.95096e-05
4.95106e-05
3.97559e-05
8.61932e-05
0.000184174
0.000202527
4.8175e-05
0.000202528
4.81629e-05
8.62165e-05
3.97492e-05
4.95165e-05
3.97425e-05
4.95155e-05
8.62129e-05
0.000202534
4.81719e-05
0.000184188
8.61895e-05
0.000202534
4.81836e-05
3.9749e-05
4.95146e-05
3.97424e-05
4.95136e-05
8.61907e-05
0.000184212
4.81835e-05
0.000202536
4.81717e-05
0.000202537
8.62149e-05
3.97445e-05
4.95153e-05
4.95161e-05
3.97512e-05
8.61903e-05
0.000184188
0.000202533
4.81853e-05
0.000202534
4.81737e-05
8.62141e-05
3.97443e-05
4.95133e-05
4.95142e-05
3.9751e-05
0.000156287
3.638e-05
3.63927e-05
2.49129e-05
2.49097e-05
2.49102e-05
0.000156102
3.63818e-05
3.63957e-05
3.63783e-05
3.63919e-05
2.49123e-05
2.49128e-05
8.62026e-05
0.000202531
4.81692e-05
0.000184204
8.6179e-05
0.000202531
4.81809e-05
3.97414e-05
3.97344e-05
4.95133e-05
3.9741e-05
4.95144e-05
3.97341e-05
4.95134e-05
8.6181e-05
0.000184202
0.000202531
4.81861e-05
0.000202532
4.81744e-05
8.6205e-05
8.61802e-05
0.000184204
0.000202531
4.81827e-05
0.000202532
4.81709e-05
8.62039e-05
3.97362e-05
4.9513e-05
4.95139e-05
3.97433e-05
3.97358e-05
4.95131e-05
4.9514e-05
3.97429e-05
2.49128e-05
2.49124e-05
2.49118e-05
2.49113e-05
0.000156107
3.63969e-05
3.63924e-05
3.63931e-05
3.63885e-05
2.49119e-05
2.49123e-05
2.49108e-05
2.49112e-05
2.49131e-05
2.49129e-05
2.49113e-05
2.49111e-05
3.63962e-05
3.63896e-05
0.000156284
3.63996e-05
3.63933e-05
2.49128e-05
2.49129e-05
2.49108e-05
2.4911e-05
0.000156104
3.64009e-05
3.6395e-05
3.63981e-05
3.63919e-05
3.97538e-05
4.95176e-05
3.97472e-05
4.95169e-05
8.62163e-05
4.81783e-05
0.000202534
0.000184189
8.61926e-05
4.81897e-05
0.000202534
8.62169e-05
4.81776e-05
0.000202532
0.000184185
8.61931e-05
4.81891e-05
0.000202532
3.97484e-05
4.95169e-05
4.95176e-05
3.97549e-05
3.97491e-05
4.95167e-05
4.95175e-05
3.97556e-05
8.61932e-05
0.000184189
4.81911e-05
0.000202534
4.81798e-05
0.000202534
8.62166e-05
8.61937e-05
0.000184184
4.81903e-05
0.000202531
4.8179e-05
0.000202532
8.62171e-05
3.63942e-05
3.63878e-05
0.000156296
3.6397e-05
3.63908e-05
2.49126e-05
2.49123e-05
2.49116e-05
2.49117e-05
0.000156113
3.63979e-05
3.63919e-05
3.63954e-05
3.63889e-05
2.49122e-05
2.49124e-05
8.62168e-05
4.81706e-05
0.000202532
0.000184204
8.61939e-05
4.81823e-05
0.000202532
3.97579e-05
4.95103e-05
3.97517e-05
4.95094e-05
8.62167e-05
0.000202528
4.81647e-05
0.000184174
8.61935e-05
0.000202527
4.81767e-05
3.97546e-05
4.95127e-05
4.95134e-05
3.97608e-05
8.61941e-05
0.000184205
4.8184e-05
0.000202532
4.81725e-05
0.000202533
8.62169e-05
3.97536e-05
4.95093e-05
4.95101e-05
3.97598e-05
8.61936e-05
0.000184174
0.000202527
4.81782e-05
0.000202527
4.81664e-05
8.62166e-05
3.97531e-05
4.9516e-05
3.97465e-05
4.95152e-05
8.62149e-05
0.000202533
4.81754e-05
0.000184187
8.61915e-05
0.000202533
4.81869e-05
3.97529e-05
4.9514e-05
3.97462e-05
4.95132e-05
8.61921e-05
0.00018421
4.81863e-05
0.000202535
4.81746e-05
0.000202536
8.62158e-05
3.97484e-05
4.9515e-05
4.95158e-05
3.9755e-05
8.61922e-05
0.000184187
0.000202532
4.81882e-05
0.000202533
4.81768e-05
8.62152e-05
3.97481e-05
4.95131e-05
4.95139e-05
3.97547e-05
3.638e-05
3.63945e-05
0.000156283
3.63834e-05
3.63981e-05
2.49122e-05
2.49119e-05
2.49091e-05
2.49094e-05
0.000156101
3.63845e-05
3.63998e-05
3.63815e-05
3.63967e-05
2.49117e-05
2.49119e-05
8.62047e-05
0.000202529
4.81726e-05
0.000184203
8.61814e-05
0.000202529
4.81842e-05
3.97452e-05
4.95137e-05
3.97381e-05
4.95129e-05
3.97447e-05
4.95137e-05
3.97377e-05
4.9513e-05
8.61823e-05
0.0001842
0.000202529
4.81893e-05
0.00020253
4.81779e-05
8.6206e-05
8.61821e-05
0.000184203
0.000202529
4.81856e-05
0.000202529
4.81741e-05
8.62053e-05
3.974e-05
4.95128e-05
4.95135e-05
3.9747e-05
3.97396e-05
4.95129e-05
4.95137e-05
3.97466e-05
2.49118e-05
2.49116e-05
2.49108e-05
2.49105e-05
0.000156106
3.64001e-05
3.63957e-05
3.63974e-05
3.6393e-05
2.49114e-05
2.49115e-05
2.49104e-05
2.49105e-05
2.49127e-05
2.49127e-05
2.49108e-05
2.49107e-05
3.63992e-05
3.63933e-05
0.000156291
3.64016e-05
3.63957e-05
2.49127e-05
2.49127e-05
2.49106e-05
2.49107e-05
0.000156109
3.64024e-05
3.63963e-05
3.63998e-05
3.63939e-05
3.97573e-05
4.95173e-05
3.97509e-05
4.95166e-05
8.62167e-05
4.81812e-05
0.000202534
0.000184189
8.61935e-05
4.81923e-05
0.000202533
8.62172e-05
4.81802e-05
0.000202531
0.000184184
8.61939e-05
4.81915e-05
0.000202531
3.97518e-05
4.95167e-05
4.95174e-05
3.97581e-05
3.97525e-05
4.95165e-05
4.95172e-05
3.97587e-05
8.61937e-05
0.000184189
4.81934e-05
0.000202534
4.81824e-05
0.000202534
8.62176e-05
8.61941e-05
0.000184183
4.81925e-05
0.000202532
4.81813e-05
0.000202532
8.6218e-05
3.63963e-05
3.63901e-05
0.000156296
3.63988e-05
3.63933e-05
2.49122e-05
2.49121e-05
2.49116e-05
2.49116e-05
0.000156113
3.64e-05
3.63946e-05
3.63972e-05
3.63915e-05
2.49121e-05
2.49122e-05
8.62169e-05
4.81741e-05
0.000202532
0.000184205
8.61941e-05
4.81854e-05
0.000202532
3.97616e-05
4.951e-05
3.97555e-05
4.95092e-05
8.62167e-05
0.000202527
4.81678e-05
0.000184175
8.61935e-05
0.000202527
4.81796e-05
3.97582e-05
4.95125e-05
4.95133e-05
3.97641e-05
8.61943e-05
0.000184205
4.81865e-05
0.000202532
4.81755e-05
0.000202532
8.62177e-05
3.97573e-05
4.95091e-05
4.95099e-05
3.97631e-05
8.61938e-05
0.000184174
0.000202527
4.81808e-05
0.000202527
4.81692e-05
8.62172e-05
3.97566e-05
4.95157e-05
3.97502e-05
4.95148e-05
8.62152e-05
0.000202532
4.81781e-05
0.000184186
8.61924e-05
0.000202531
4.81894e-05
3.97564e-05
4.95137e-05
3.975e-05
4.95129e-05
8.61924e-05
0.000184209
4.81886e-05
0.000202533
4.81772e-05
0.000202534
8.62159e-05
3.97518e-05
4.95148e-05
4.95155e-05
3.9758e-05
8.61925e-05
0.000184185
0.00020253
4.81904e-05
0.000202531
4.81793e-05
8.62159e-05
3.97516e-05
4.95128e-05
4.95136e-05
3.97578e-05
3.63825e-05
3.63982e-05
0.000156283
3.63855e-05
3.64006e-05
2.49116e-05
2.49116e-05
2.49089e-05
2.4909e-05
0.0001561
3.63869e-05
3.64013e-05
3.63836e-05
3.63989e-05
2.49115e-05
2.49115e-05
8.62053e-05
0.000202528
4.81754e-05
0.000184202
8.61826e-05
0.000202528
4.81868e-05
3.97487e-05
4.95135e-05
3.97418e-05
4.95127e-05
3.97482e-05
4.95136e-05
3.97414e-05
4.95128e-05
8.61828e-05
0.000184198
0.000202528
4.81915e-05
0.000202528
4.81804e-05
8.62064e-05
8.61826e-05
0.000184202
0.000202527
4.81878e-05
0.000202528
4.81766e-05
8.62058e-05
3.97434e-05
4.95126e-05
4.95134e-05
3.97501e-05
3.9743e-05
4.95127e-05
4.95134e-05
3.97496e-05
2.49114e-05
2.49113e-05
2.49104e-05
2.49103e-05
0.000156104
3.64014e-05
3.63971e-05
3.63988e-05
3.63945e-05
2.49113e-05
2.49113e-05
2.49103e-05
2.49103e-05
2.49127e-05
2.49127e-05
2.49107e-05
2.49107e-05
3.64008e-05
3.63946e-05
0.000156291
3.64038e-05
3.63973e-05
2.49128e-05
2.49128e-05
2.49107e-05
2.49107e-05
0.000156109
3.64055e-05
3.63988e-05
3.64024e-05
3.63958e-05
3.97598e-05
4.95172e-05
3.97538e-05
4.95165e-05
8.62185e-05
4.81835e-05
0.000202535
0.000184189
8.61946e-05
4.81945e-05
0.000202535
8.62189e-05
4.81824e-05
0.000202532
0.000184184
8.6195e-05
4.81936e-05
0.000202532
3.97543e-05
4.95167e-05
4.95173e-05
3.97602e-05
3.97548e-05
4.95166e-05
4.95172e-05
3.97607e-05
8.61956e-05
0.000184188
4.81955e-05
0.000202534
4.81845e-05
0.000202534
8.62194e-05
8.61959e-05
0.000184183
4.81944e-05
0.000202532
4.81834e-05
0.000202532
8.62197e-05
3.63985e-05
3.63929e-05
0.000156295
3.64014e-05
3.63962e-05
2.49122e-05
2.49121e-05
2.49117e-05
2.49117e-05
0.000156112
3.64029e-05
3.63978e-05
3.63999e-05
3.63944e-05
2.49122e-05
2.49122e-05
8.62183e-05
4.81766e-05
0.000202532
0.000184204
8.61951e-05
4.81876e-05
0.000202531
3.97641e-05
4.95098e-05
3.97587e-05
4.9509e-05
8.62179e-05
0.000202526
4.81703e-05
0.000184173
8.61943e-05
0.000202526
4.81819e-05
3.97606e-05
4.95125e-05
4.95132e-05
3.97658e-05
8.61957e-05
0.000184204
4.81887e-05
0.000202532
4.81777e-05
0.000202532
8.62188e-05
3.97596e-05
4.9509e-05
4.95097e-05
3.97649e-05
8.6195e-05
0.000184173
0.000202526
4.81829e-05
0.000202526
4.81715e-05
8.62187e-05
3.9759e-05
4.95155e-05
3.97531e-05
4.95148e-05
8.62165e-05
0.000202529
4.81803e-05
0.000184184
8.61932e-05
0.000202529
4.81915e-05
3.97588e-05
4.95135e-05
3.97529e-05
4.95128e-05
8.6193e-05
0.000184207
4.81906e-05
0.000202532
4.81793e-05
0.000202532
8.62166e-05
3.9754e-05
4.95148e-05
4.95155e-05
3.97598e-05
8.61937e-05
0.000184184
0.000202529
4.81924e-05
0.000202529
4.81814e-05
8.62168e-05
3.97539e-05
4.95128e-05
4.95135e-05
3.97597e-05
3.6385e-05
3.63996e-05
0.000156281
3.63885e-05
3.64024e-05
2.49115e-05
2.49115e-05
2.49089e-05
2.49089e-05
0.000156099
3.63901e-05
3.6404e-05
3.63867e-05
3.64009e-05
2.49116e-05
2.49116e-05
8.62063e-05
0.000202527
4.81776e-05
0.000184201
8.61832e-05
0.000202527
4.81889e-05
3.9751e-05
4.95133e-05
3.97447e-05
4.95126e-05
3.97507e-05
4.95133e-05
3.97443e-05
4.95126e-05
8.61835e-05
0.000184197
0.000202528
4.81934e-05
0.000202528
4.81824e-05
8.62069e-05
8.61836e-05
0.000184201
0.000202527
4.81898e-05
0.000202527
4.81787e-05
8.62066e-05
3.97456e-05
4.95126e-05
4.95132e-05
3.97518e-05
3.97453e-05
4.95126e-05
4.95133e-05
3.97515e-05
2.49114e-05
2.49114e-05
2.49103e-05
2.49103e-05
0.000156103
3.64042e-05
3.64e-05
3.64011e-05
3.63969e-05
2.49114e-05
2.49114e-05
2.49104e-05
2.49104e-05
2.49128e-05
2.49129e-05
2.49107e-05
2.49108e-05
3.64041e-05
3.63974e-05
0.000156291
3.6407e-05
3.64005e-05
2.49131e-05
2.49129e-05
2.4911e-05
2.49108e-05
0.000156108
3.64082e-05
3.64019e-05
3.64056e-05
3.63991e-05
3.97615e-05
4.95172e-05
3.97557e-05
4.95167e-05
8.62201e-05
4.81855e-05
0.000202534
0.000184188
8.61965e-05
4.81963e-05
0.000202534
8.62204e-05
4.81843e-05
0.000202532
0.000184183
8.61967e-05
4.81951e-05
0.000202532
3.9756e-05
4.9517e-05
4.95174e-05
3.97617e-05
3.97565e-05
4.9517e-05
4.95173e-05
3.97623e-05
8.61972e-05
0.000184188
4.8197e-05
0.000202535
4.81866e-05
0.000202534
8.62211e-05
8.61974e-05
0.000184184
4.81958e-05
0.000202534
4.81851e-05
0.000202534
8.62215e-05
3.64014e-05
3.6396e-05
0.000156294
3.64041e-05
3.6399e-05
2.49123e-05
2.49124e-05
2.4912e-05
2.49118e-05
0.000156111
3.6405e-05
3.63999e-05
3.64026e-05
3.63973e-05
2.49126e-05
2.49125e-05
8.62192e-05
4.81788e-05
0.000202531
0.000184204
8.61961e-05
4.81897e-05
0.000202531
3.97657e-05
4.95097e-05
3.97604e-05
4.95091e-05
8.62193e-05
0.000202525
4.81725e-05
0.000184173
8.61958e-05
0.000202525
4.81838e-05
3.9762e-05
4.95128e-05
4.95132e-05
3.97674e-05
8.61967e-05
0.000184204
4.81905e-05
0.000202531
4.818e-05
0.000202532
8.62204e-05
3.97612e-05
4.95093e-05
4.95097e-05
3.97665e-05
8.61965e-05
0.000184173
0.000202526
4.81845e-05
0.000202525
4.81736e-05
8.62205e-05
3.97605e-05
4.95156e-05
3.97548e-05
4.9515e-05
8.62173e-05
0.00020253
4.81823e-05
0.000184185
8.61941e-05
0.00020253
4.81932e-05
3.97605e-05
4.95135e-05
3.97547e-05
4.95129e-05
8.61938e-05
0.000184205
4.81918e-05
0.000202534
4.8181e-05
0.000202533
8.62178e-05
3.97555e-05
4.95153e-05
4.95157e-05
3.97613e-05
8.61947e-05
0.000184184
0.000202532
4.81938e-05
0.000202531
4.81833e-05
8.62185e-05
3.97554e-05
4.95132e-05
4.95136e-05
3.97613e-05
3.63882e-05
3.64025e-05
0.000156281
3.63913e-05
3.64056e-05
2.49116e-05
2.49117e-05
2.49092e-05
2.49091e-05
0.000156099
3.63925e-05
3.6407e-05
3.63895e-05
3.64043e-05
2.49119e-05
2.49117e-05
8.62069e-05
0.000202527
4.81796e-05
0.000184201
8.61839e-05
0.000202527
4.81906e-05
3.97525e-05
4.95132e-05
3.97464e-05
4.95127e-05
3.97523e-05
4.95133e-05
3.97461e-05
4.95127e-05
8.6184e-05
0.000184196
0.000202529
4.81948e-05
0.000202527
4.81843e-05
8.62078e-05
8.61844e-05
0.000184201
0.00020253
4.81913e-05
0.000202528
4.81806e-05
8.62081e-05
3.9747e-05
4.95129e-05
4.95133e-05
3.97533e-05
3.97468e-05
4.9513e-05
4.95134e-05
3.97531e-05
2.49115e-05
2.49115e-05
2.49104e-05
2.49105e-05
0.000156102
3.64068e-05
3.64027e-05
3.64042e-05
3.64001e-05
2.49117e-05
2.49115e-05
2.49107e-05
2.49105e-05
2.49131e-05
2.49135e-05
2.4911e-05
2.49114e-05
3.64073e-05
3.64011e-05
0.000156291
3.64094e-05
3.64038e-05
2.49142e-05
2.49133e-05
2.49121e-05
2.49111e-05
0.000156108
3.64112e-05
3.64067e-05
3.64099e-05
3.64045e-05
3.97623e-05
4.95174e-05
3.97572e-05
4.95176e-05
8.622e-05
4.81881e-05
0.000202534
0.000184189
8.61984e-05
4.81977e-05
0.000202533
8.62207e-05
4.81865e-05
0.000202533
0.000184183
8.61987e-05
4.81961e-05
0.000202532
3.97565e-05
4.95183e-05
4.95176e-05
3.97604e-05
3.97572e-05
4.95187e-05
4.95179e-05
3.97612e-05
8.61968e-05
0.000184189
4.81977e-05
0.000202531
4.81902e-05
0.000202532
8.62142e-05
8.61976e-05
0.000184181
4.81954e-05
0.000202531
4.81882e-05
0.000202531
8.62152e-05
3.6404e-05
3.63985e-05
0.000156293
3.6406e-05
3.64008e-05
2.49126e-05
2.49131e-05
2.49131e-05
2.49122e-05
0.00015611
3.64078e-05
3.64029e-05
3.64064e-05
3.6401e-05
2.49137e-05
2.49128e-05
8.62213e-05
4.81816e-05
0.000202533
0.000184205
8.61983e-05
4.81915e-05
0.000202534
3.97671e-05
4.95098e-05
3.9762e-05
4.95097e-05
8.62214e-05
0.000202527
4.8175e-05
0.000184174
8.61981e-05
0.000202527
4.81854e-05
3.97635e-05
4.95142e-05
4.95136e-05
3.97677e-05
8.61994e-05
0.000184206
4.81923e-05
0.000202536
4.81842e-05
0.000202536
8.62184e-05
3.97627e-05
4.95105e-05
4.95101e-05
3.97669e-05
8.61991e-05
0.000184175
0.000202527
4.81861e-05
0.000202528
4.81775e-05
8.62187e-05
3.97612e-05
4.95158e-05
3.97561e-05
4.95158e-05
8.62181e-05
0.000202534
4.81847e-05
0.000184184
8.61961e-05
0.000202534
4.81945e-05
3.97612e-05
4.95136e-05
3.97561e-05
4.95136e-05
8.61957e-05
0.000184203
4.81915e-05
0.000202532
4.8184e-05
0.000202532
8.62149e-05
3.97562e-05
4.9517e-05
4.95163e-05
3.97604e-05
8.61956e-05
0.000184185
0.000202532
4.81945e-05
0.000202534
4.81869e-05
8.62128e-05
3.97562e-05
4.95146e-05
4.95139e-05
3.97602e-05
3.63911e-05
3.64061e-05
0.000156281
3.63939e-05
3.64086e-05
2.49118e-05
2.49123e-05
2.49104e-05
2.49094e-05
0.000156099
3.63964e-05
3.64106e-05
3.63941e-05
3.64091e-05
2.4913e-05
2.4912e-05
8.62081e-05
0.000202531
4.81821e-05
0.000184202
8.61859e-05
0.00020253
4.8192e-05
3.97533e-05
4.95133e-05
3.97476e-05
4.95133e-05
3.97531e-05
4.95134e-05
3.97476e-05
4.95135e-05
8.61859e-05
0.000184195
0.000202527
4.81961e-05
0.000202528
4.8188e-05
8.62061e-05
8.61859e-05
0.000184202
0.000202528
4.8192e-05
0.000202529
4.81843e-05
8.62046e-05
3.97478e-05
4.9514e-05
4.95135e-05
3.97524e-05
3.97477e-05
4.95144e-05
4.95137e-05
3.97523e-05
2.49117e-05
2.49122e-05
2.49107e-05
2.49111e-05
0.000156101
3.64099e-05
3.64059e-05
3.64085e-05
3.64045e-05
2.49129e-05
2.49119e-05
2.49118e-05
2.49109e-05
2.49135e-05
2.49146e-05
2.49114e-05
2.49127e-05
3.6413e-05
3.64084e-05
0.000156284
3.64127e-05
3.64079e-05
2.49146e-05
2.49133e-05
2.49128e-05
2.49114e-05
0.000156099
3.6412e-05
3.64066e-05
3.64138e-05
3.64087e-05
3.97575e-05
4.95188e-05
3.97565e-05
4.95197e-05
8.62071e-05
4.81909e-05
0.00020253
0.000184182
8.61906e-05
4.8195e-05
0.000202529
8.62069e-05
4.81881e-05
0.00020253
0.000184174
8.61914e-05
4.81921e-05
0.000202529
3.97498e-05
4.95201e-05
4.95189e-05
3.97496e-05
3.97505e-05
4.95201e-05
4.95191e-05
3.97503e-05
8.61811e-05
0.000184179
4.81895e-05
0.000202521
4.81879e-05
0.000202527
8.61944e-05
8.61809e-05
0.00018417
4.81862e-05
0.000202518
4.81847e-05
0.000202526
8.61946e-05
3.64096e-05
3.64045e-05
0.00015628
3.6409e-05
3.6405e-05
2.49129e-05
2.49141e-05
2.49134e-05
2.49121e-05
0.000156092
3.64072e-05
3.64039e-05
3.64098e-05
3.64058e-05
2.49142e-05
2.49129e-05
8.62114e-05
4.81859e-05
0.000202536
0.000184203
8.61954e-05
4.81909e-05
0.000202535
3.9765e-05
4.95108e-05
3.97631e-05
4.95117e-05
8.6211e-05
0.000202526
4.81791e-05
0.000184169
8.6195e-05
0.000202525
4.81847e-05
3.97596e-05
4.95159e-05
4.95148e-05
3.97587e-05
8.61864e-05
0.000184199
4.81859e-05
0.000202528
4.8184e-05
0.000202533
8.62019e-05
3.97588e-05
4.95124e-05
4.95112e-05
3.97578e-05
8.61859e-05
0.000184167
0.000202521
4.81797e-05
0.000202524
4.81773e-05
8.6202e-05
3.97568e-05
4.95172e-05
3.97557e-05
4.9518e-05
8.62051e-05
0.000202531
4.81876e-05
0.000184178
8.61893e-05
0.000202529
4.8192e-05
3.97565e-05
4.95147e-05
3.97555e-05
4.95158e-05
8.61797e-05
0.000184195
4.81825e-05
0.00020252
4.81807e-05
0.000202527
8.6193e-05
3.97498e-05
4.95184e-05
4.95174e-05
3.97496e-05
8.61795e-05
0.000184174
0.000202518
4.81865e-05
0.000202525
4.81847e-05
8.61928e-05
3.97495e-05
4.95163e-05
4.95152e-05
3.97494e-05
3.6398e-05
3.64123e-05
0.000156277
3.63988e-05
3.64119e-05
2.49123e-05
2.49135e-05
2.49111e-05
2.49098e-05
0.000156093
3.63985e-05
3.64116e-05
3.63996e-05
3.6413e-05
2.49136e-05
2.49123e-05
8.61961e-05
0.000202527
4.8185e-05
0.000184195
8.61815e-05
0.000202526
4.81893e-05
3.97495e-05
4.95141e-05
3.97482e-05
4.95152e-05
3.97486e-05
4.95145e-05
3.97471e-05
4.95156e-05
8.61711e-05
0.000184189
0.00020252
4.81889e-05
0.000202524
4.81871e-05
8.61849e-05
8.61702e-05
0.000184191
0.000202518
4.81838e-05
0.000202523
4.8182e-05
8.61832e-05
3.97428e-05
4.9516e-05
4.95146e-05
3.97435e-05
3.97412e-05
4.95161e-05
4.95149e-05
3.97415e-05
2.49121e-05
2.49132e-05
2.49111e-05
2.49122e-05
0.000156089
3.64105e-05
3.64062e-05
3.64123e-05
3.64082e-05
2.49133e-05
2.4912e-05
2.49122e-05
2.49109e-05
2.49129e-05
2.49148e-05
2.4911e-05
2.49129e-05
3.64135e-05
3.64081e-05
0.000156245
3.64106e-05
3.64055e-05
2.49148e-05
2.49127e-05
2.49129e-05
2.49107e-05
0.000156055
3.64073e-05
3.64024e-05
3.64138e-05
3.64088e-05
3.97418e-05
4.95185e-05
3.97415e-05
4.95203e-05
8.61692e-05
4.8184e-05
0.000202508
0.000184151
8.61648e-05
4.81838e-05
0.000202498
8.61692e-05
4.81803e-05
0.000202504
0.00018414
8.61649e-05
4.81804e-05
0.000202495
3.97341e-05
4.95213e-05
4.95182e-05
3.97363e-05
3.97348e-05
4.95214e-05
4.95182e-05
3.9737e-05
8.61448e-05
0.000184143
4.81812e-05
0.000202491
4.81824e-05
0.000202492
8.61647e-05
8.61449e-05
0.000184134
4.81783e-05
0.00020249
4.81789e-05
0.00020249
8.61652e-05
3.64085e-05
3.64049e-05
0.000156243
3.64053e-05
3.64025e-05
2.49125e-05
2.49145e-05
2.49137e-05
2.49115e-05
0.000156056
3.64021e-05
3.64014e-05
3.64085e-05
3.6406e-05
2.49147e-05
2.49124e-05
8.61834e-05
4.81804e-05
0.000202519
0.000184172
8.61752e-05
4.81801e-05
0.000202501
3.97487e-05
4.9511e-05
3.97493e-05
4.95129e-05
8.61836e-05
0.000202514
4.81737e-05
0.000184142
8.61749e-05
0.000202498
4.8174e-05
3.9743e-05
4.95174e-05
4.95143e-05
3.97441e-05
8.61563e-05
0.000184162
4.81765e-05
0.000202489
4.81785e-05
0.000202494
8.61654e-05
3.97421e-05
4.95139e-05
4.95108e-05
3.97431e-05
8.61559e-05
0.000184132
0.000202484
4.81705e-05
0.000202489
4.81719e-05
8.61652e-05
3.9741e-05
4.95169e-05
3.97408e-05
4.95187e-05
8.61679e-05
0.000202504
4.81808e-05
0.000184146
8.61639e-05
0.000202495
4.81807e-05
3.97408e-05
4.95148e-05
3.97406e-05
4.95166e-05