/*--------------------------------*- C++ -*----------------------------------*\
| =========                 |                                                 |
| \\      /  F ield         | OpenFOAM: The Open Source CFD Toolbox           |
|  \\    /   O peration     | Version:  2206                                  |
|   \\  /    A nd           | Website:  www.openfoam.com                      |
|    \\/     M anipulation  |                                                 |
\*---------------------------------------------------------------------------*/
FoamFile
{
    version     2.0;
    format      ascii;
    arch        "LSB;label=32;scalar=64";
    class       volVectorField;
    location    "32.5";
    object      U;
}
// * * * * * * * * * * * * * * * * * * * * * * * * * * * * * * * * * * * * * //

dimensions      [0 1 -1 0 0 0 0];

internalField   nonuniform List<vector> 
28673
(
(-5.56023e-07 8.45134e-07 0.10348)
(-4.62424e-05 -4.62499e-05 0.103351)
(-8.20868e-07 -8.2435e-07 0.103573)
(-5.48323e-07 8.38981e-07 0.10348)
(8.43782e-07 -5.43468e-07 0.10348)
(-4.62375e-05 -4.62471e-05 0.103351)
(-8.23156e-07 -8.26787e-07 0.103573)
(-5.41375e-07 8.3615e-07 0.10348)
(8.4019e-07 -5.37193e-07 0.10348)
(-4.62307e-05 -4.62424e-05 0.103351)
(-8.30722e-07 -8.34056e-07 0.103573)
(-5.30885e-07 8.29995e-07 0.10348)
(8.31483e-07 -5.20218e-07 0.103479)
(-4.62218e-05 -4.62323e-05 0.103351)
(-8.54417e-07 -8.58086e-07 0.103573)
(-4.9508e-07 8.05246e-07 0.103479)
(8.14173e-07 -4.91051e-07 0.103479)
(-4.6204e-05 -4.62134e-05 0.10335)
(-8.69667e-07 -8.65717e-07 0.103573)
(-4.76808e-07 7.71668e-07 0.103479)
(8.04973e-07 -5.06702e-07 0.103479)
(-4.61483e-05 -4.61487e-05 0.10335)
(-8.65359e-07 -7.94947e-07 0.103574)
(-7.25572e-07 9.99413e-07 0.103479)
(8.84441e-07 -6.55403e-07 0.103479)
(-4.60342e-05 -4.60218e-05 0.10335)
(-5.58245e-07 -6.10813e-07 0.103575)
(-8.91055e-07 9.70067e-07 0.10348)
(1.06744e-06 -9.42627e-07 0.10348)
(-4.57845e-05 -4.5812e-05 0.10335)
(-6.64729e-07 -6.71382e-07 0.103576)
(-1.18233e-06 1.23956e-06 0.10348)
(1.23175e-06 -1.17502e-06 0.10348)
(-4.51585e-05 -4.5178e-05 0.10335)
(-4.75382e-07 -4.66804e-07 0.103577)
(-2.05465e-06 1.86874e-06 0.103479)
(1.864e-06 -2.05331e-06 0.103479)
(-4.37744e-05 -4.37845e-05 0.10335)
(-3.96842e-07 -3.82816e-07 0.103579)
(-3.70423e-06 3.20576e-06 0.103477)
(3.19589e-06 -3.68755e-06 0.103477)
(-4.05337e-05 -4.05333e-05 0.103351)
(-5.80339e-06 -5.74739e-06 0.103577)
(-2.46271e-06 3.57083e-06 0.103472)
(3.53466e-06 -2.44667e-06 0.103472)
(-2.67186e-05 -2.66939e-05 0.103353)
(-4.10549e-05 -4.09281e-05 0.10351)
(4.2157e-05 -3.38147e-05 0.103427)
(-3.38977e-05 4.21377e-05 0.103427)
(4.60996e-05 4.6144e-05 0.103317)
(-8.75359e-07 5.86699e-07 0.10348)
(4.85107e-05 -4.84853e-05 0.103357)
(-5.53261e-07 8.44613e-07 0.10348)
(-4.85074e-05 -4.8484e-05 0.103357)
(8.70367e-07 5.77358e-07 0.10348)
(-8.76134e-07 5.88689e-07 0.10348)
(8.69349e-07 5.63644e-07 0.10348)
(-8.70159e-07 5.81894e-07 0.10348)
(-4.62412e-05 4.6211e-05 0.103351)
(4.85131e-05 -4.84872e-05 0.103357)
(5.53167e-07 8.44286e-07 0.10348)
(5.77485e-07 -8.71136e-07 0.103479)
(-5.85758e-07 -8.61944e-07 0.10348)
(-5.48492e-07 8.3968e-07 0.10348)
(-5.78226e-07 -8.59442e-07 0.10348)
(-4.84783e-05 4.85143e-05 0.103357)
(-8.43075e-07 -5.65842e-07 0.10348)
(8.45299e-07 -5.44292e-07 0.10348)
(-8.3917e-07 -5.59073e-07 0.10348)
(4.84791e-05 4.85047e-05 0.103357)
(4.62431e-05 4.62247e-05 0.103351)
(-4.85094e-05 -4.84861e-05 0.103357)
(8.69441e-07 5.68305e-07 0.10348)
(-8.69737e-07 5.8148e-07 0.10348)
(8.68766e-07 5.5582e-07 0.103479)
(-8.65937e-07 5.73701e-07 0.103479)
(-4.62334e-05 4.6204e-05 0.103351)
(4.85194e-05 -4.84937e-05 0.103357)
(5.52711e-07 8.44317e-07 0.10348)
(5.73692e-07 -8.70441e-07 0.103479)
(5.4858e-07 8.42801e-07 0.10348)
(5.71202e-07 -8.68896e-07 0.103479)
(-5.78012e-07 -8.59569e-07 0.103479)
(-5.40312e-07 8.36193e-07 0.10348)
(-5.70345e-07 -8.58361e-07 0.103479)
(4.62231e-05 -4.62569e-05 0.103351)
(-4.8483e-05 4.85171e-05 0.103357)
(-8.38183e-07 -5.60047e-07 0.10348)
(8.42671e-07 -5.36867e-07 0.10348)
(-8.35633e-07 -5.54236e-07 0.10348)
(4.84849e-05 4.8508e-05 0.103357)
(4.62367e-05 4.62169e-05 0.103351)
(-4.85176e-05 -4.84919e-05 0.103357)
(8.66382e-07 5.60662e-07 0.103479)
(-8.66143e-07 5.74395e-07 0.103479)
(8.63915e-07 5.49336e-07 0.103479)
(-8.58618e-07 5.66577e-07 0.103479)
(-4.62273e-05 4.61969e-05 0.103351)
(4.85303e-05 -4.85019e-05 0.103357)
(5.45709e-07 8.40743e-07 0.10348)
(5.6646e-07 -8.68199e-07 0.103479)
(5.43547e-07 8.39076e-07 0.10348)
(5.71375e-07 -8.67665e-07 0.103479)
(-5.69707e-07 -8.56255e-07 0.103479)
(-5.31158e-07 8.29793e-07 0.10348)
(-5.60975e-07 -8.5248e-07 0.103479)
(4.62173e-05 -4.62522e-05 0.103351)
(-4.84868e-05 4.85247e-05 0.103357)
(-8.32996e-07 -5.5444e-07 0.10348)
(8.42259e-07 -5.30547e-07 0.103479)
(-8.29372e-07 -5.45191e-07 0.10348)
(4.84929e-05 4.85164e-05 0.103357)
(4.62265e-05 4.62109e-05 0.103351)
(-4.85219e-05 -4.84988e-05 0.103357)
(8.55762e-07 5.47644e-07 0.103479)
(-8.5892e-07 5.65214e-07 0.103479)
(8.68834e-07 5.40544e-07 0.103479)
(-8.55133e-07 5.50257e-07 0.103479)
(-4.62142e-05 4.61866e-05 0.103351)
(4.85389e-05 -4.85136e-05 0.103357)
(5.3124e-07 8.29011e-07 0.10348)
(5.53174e-07 -8.58372e-07 0.103479)
(5.42525e-07 8.44367e-07 0.103479)
(5.71569e-07 -8.75914e-07 0.103479)
(-5.54997e-07 -8.44016e-07 0.103479)
(-5.17008e-07 8.25462e-07 0.103479)
(-5.55165e-07 -8.5711e-07 0.103479)
(4.6212e-05 -4.62422e-05 0.103351)
(-4.84921e-05 4.85265e-05 0.103357)
(-8.21376e-07 -5.36657e-07 0.103479)
(8.51567e-07 -5.31143e-07 0.103479)
(-8.35517e-07 -5.38805e-07 0.103479)
(4.84962e-05 4.85221e-05 0.103357)
(4.62081e-05 4.61869e-05 0.10335)
(-4.8498e-05 -4.84688e-05 0.103357)
(8.32119e-07 5.08833e-07 0.103479)
(-8.35886e-07 5.27517e-07 0.103479)
(8.83629e-07 5.75321e-07 0.103479)
(-8.78134e-07 5.715e-07 0.103479)
(-4.61931e-05 4.61626e-05 0.10335)
(4.84963e-05 -4.84731e-05 0.103357)
(5.00311e-07 8.0975e-07 0.103479)
(5.25896e-07 -8.43775e-07 0.103479)
(5.50733e-07 8.65518e-07 0.103479)
(5.76642e-07 -8.84956e-07 0.103479)
(-5.17947e-07 -8.20049e-07 0.103479)
(-5.40014e-07 8.45646e-07 0.103479)
(-5.91636e-07 -8.79824e-07 0.103479)
(4.61924e-05 -4.62256e-05 0.10335)
(-4.84758e-05 4.85064e-05 0.103357)
(-7.98347e-07 -4.99777e-07 0.103479)
(8.57948e-07 -5.55427e-07 0.103479)
(-8.65631e-07 -5.66594e-07 0.103479)
(4.84563e-05 4.84892e-05 0.103357)
(4.61332e-05 4.61262e-05 0.10335)
(-4.82698e-05 -4.81972e-05 0.103357)
(8.13681e-07 5.17952e-07 0.103479)
(-8.04001e-07 5.05949e-07 0.103479)
(8.48321e-07 5.70371e-07 0.103479)
(-9.59449e-07 6.15913e-07 0.103479)
(-4.61308e-05 4.60979e-05 0.10335)
(4.81511e-05 -4.81312e-05 0.103357)
(5.06947e-07 8.12959e-07 0.103479)
(5.40461e-07 -8.44873e-07 0.103479)
(4.75143e-07 8.61159e-07 0.103479)
(4.84029e-07 -8.34534e-07 0.103479)
(-5.25567e-07 -8.03492e-07 0.103479)
(-5.8647e-07 9.22117e-07 0.103479)
(-5.88969e-07 -8.68771e-07 0.103479)
(4.61108e-05 -4.6153e-05 0.10335)
(-4.8264e-05 4.82765e-05 0.103357)
(-7.92857e-07 -5.00138e-07 0.103479)
(7.96156e-07 -4.99665e-07 0.103479)
(-8.82523e-07 -5.3861e-07 0.103479)
(4.81793e-05 4.82294e-05 0.103357)
(4.59605e-05 4.60026e-05 0.10335)
(-4.80535e-05 -4.80726e-05 0.103358)
(9.42235e-07 7.36158e-07 0.103479)
(-1.03628e-06 7.54184e-07 0.103479)
(7.79301e-07 4.18433e-07 0.103479)
(-7.09891e-07 4.12347e-07 0.103479)
(-4.60919e-05 4.60566e-05 0.10335)
(4.8158e-05 -4.81309e-05 0.103358)
(6.16724e-07 9.76337e-07 0.103479)
(6.20041e-07 -9.4238e-07 0.103479)
(4.52482e-07 7.33384e-07 0.103479)
(4.8614e-07 -7.90564e-07 0.103479)
(-7.45123e-07 -9.68052e-07 0.103479)
(-3.78587e-07 6.81777e-07 0.103479)
(-4.3155e-07 -7.50431e-07 0.103479)
(4.59047e-05 -4.59688e-05 0.10335)
(-4.80055e-05 4.80604e-05 0.103357)
(-9.83526e-07 -6.98158e-07 0.103479)
(7.75829e-07 -4.28953e-07 0.103479)
(-7.15897e-07 -4.23136e-07 0.103479)
(4.80772e-05 4.8089e-05 0.103358)
(4.58533e-05 4.57702e-05 0.10335)
(-4.752e-05 -4.75084e-05 0.103358)
(1.06653e-06 9.27608e-07 0.10348)
(-9.94692e-07 9.26058e-07 0.10348)
(5.33913e-07 3.78118e-08 0.10348)
(-5.29159e-07 5.96355e-08 0.10348)
(-4.57412e-05 4.57147e-05 0.10335)
(4.75278e-05 -4.74969e-05 0.103358)
(9.77934e-07 9.93696e-07 0.10348)
(1.01137e-06 -1.06417e-06 0.10348)
(3.54204e-08 4.88347e-07 0.10348)
(6.42375e-08 -5.2501e-07 0.10348)
(-9.37451e-07 -1.0299e-06 0.10348)
(-2.0615e-08 5.01749e-07 0.10348)
(-4.72926e-08 -5.22621e-07 0.10348)
(4.58626e-05 -4.5857e-05 0.10335)
(-4.74956e-05 4.75349e-05 0.103358)
(-9.85186e-07 -9.37204e-07 0.10348)
(5.0616e-07 -2.13839e-08 0.10348)
(-4.86472e-07 -3.52375e-08 0.10348)
(4.75035e-05 4.75187e-05 0.103358)
(4.51671e-05 4.51475e-05 0.10335)
(-4.63951e-05 -4.63594e-05 0.103358)
(1.26087e-06 1.20032e-06 0.10348)
(-1.26627e-06 1.21474e-06 0.10348)
(6.97378e-11 -5.9762e-07 0.10348)
(-1.48277e-08 -5.85659e-07 0.10348)
(-4.51662e-05 4.51405e-05 0.10335)
(4.63912e-05 -4.63649e-05 0.103358)
(1.18571e-06 1.23117e-06 0.10348)
(1.20236e-06 -1.25679e-06 0.10348)
(-6.2684e-07 -1.54239e-08 0.10348)
(-5.99074e-07 -4.61988e-09 0.10348)
(-1.20431e-06 -1.25289e-06 0.10348)
(6.20526e-07 -1.50802e-08 0.10348)
(5.96422e-07 -4.69297e-10 0.10348)
(4.5143e-05 -4.51743e-05 0.10335)
(-4.63736e-05 4.63971e-05 0.103358)
(-1.22644e-06 -1.19294e-06 0.10348)
(-2.66566e-08 6.29834e-07 0.10348)
(1.94563e-08 6.21362e-07 0.10348)
(4.63599e-05 4.63862e-05 0.103358)
(4.37698e-05 4.37667e-05 0.10335)
(-4.39699e-05 -4.39391e-05 0.103358)
(1.88589e-06 2.0794e-06 0.103479)
(-1.89569e-06 2.09211e-06 0.103479)
(-1.26045e-06 -1.99801e-06 0.103482)
(1.24689e-06 -1.98668e-06 0.103482)
(-4.37753e-05 4.3745e-05 0.10335)
(4.39745e-05 -4.39428e-05 0.103358)
(2.05292e-06 1.87145e-06 0.103479)
(2.07653e-06 -1.89227e-06 0.103479)
(-2.03511e-06 -1.27326e-06 0.103482)
(-2.00275e-06 1.25983e-06 0.103482)
(-2.08149e-06 -1.88058e-06 0.103479)
(2.02412e-06 -1.26815e-06 0.103482)
(1.99982e-06 1.25656e-06 0.103482)
(4.37536e-05 -4.37883e-05 0.10335)
(-4.3947e-05 4.39707e-05 0.103358)
(-1.8652e-06 -2.05945e-06 0.103479)
(-1.28147e-06 2.03115e-06 0.103482)
(1.27377e-06 2.02631e-06 0.103482)
(4.39296e-05 4.39676e-05 0.103358)
(4.05228e-05 4.05247e-05 0.103351)
(-3.61422e-05 -3.60808e-05 0.103357)
(3.2157e-06 3.71822e-06 0.103477)
(-3.22575e-06 3.7376e-06 0.103477)
(-5.18462e-06 -6.75228e-06 0.103485)
(5.16122e-06 -6.74456e-06 0.103485)
(-4.05258e-05 4.05129e-05 0.103351)
(3.61089e-05 -3.60959e-05 0.103357)
(3.6919e-06 3.20018e-06 0.103477)
(3.7138e-06 -3.21298e-06 0.103477)
(-6.79665e-06 -5.17363e-06 0.103485)
(-6.77304e-06 5.17739e-06 0.103485)
(-3.72236e-06 -3.20506e-06 0.103477)
(6.77132e-06 -5.15643e-06 0.103485)
(6.76092e-06 5.18057e-06 0.103485)
(4.05181e-05 -4.05412e-05 0.103351)
(-3.6118e-05 3.6113e-05 0.103357)
(-3.19669e-06 -3.69832e-06 0.103477)
(-5.18733e-06 6.77701e-06 0.103485)
(5.17724e-06 6.78015e-06 0.103485)
(3.6091e-05 3.61186e-05 0.103357)
(2.66618e-05 2.67325e-05 0.103353)
(-4.21975e-05 -4.20181e-05 0.103325)
(3.53403e-06 2.49545e-06 0.103472)
(-3.56082e-06 2.50788e-06 0.103472)
(-3.47707e-05 -5.3904e-05 0.103461)
(3.47645e-05 -5.39432e-05 0.103461)
(-2.67102e-05 2.67288e-05 0.103353)
(4.21977e-05 -4.20305e-05 0.103325)
(2.416e-06 3.55476e-06 0.103472)
(2.44245e-06 -3.53255e-06 0.103472)
(-5.41087e-05 -3.46769e-05 0.103461)
(-5.40447e-05 3.47702e-05 0.103461)
(-2.46052e-06 -3.52678e-06 0.103472)
(5.40907e-05 -3.46891e-05 0.103461)
(5.40419e-05 3.47845e-05 0.103461)
(2.66775e-05 -2.67105e-05 0.103353)
(-4.21281e-05 4.21876e-05 0.103325)
(-3.53733e-06 -2.44327e-06 0.103472)
(-3.47539e-05 5.4063e-05 0.103461)
(3.47649e-05 5.40974e-05 0.103461)
(4.21322e-05 4.21881e-05 0.103325)
(-4.61576e-05 -4.59754e-05 0.103317)
(-3.39192e-05 -4.19672e-05 0.103427)
(3.39072e-05 -4.19976e-05 0.103427)
(4.61483e-05 -4.59776e-05 0.103317)
(-4.21761e-05 -3.38072e-05 0.103427)
(-4.21196e-05 3.39104e-05 0.103427)
(4.10467e-05 -4.09246e-05 0.10351)
(-4.10233e-05 4.1061e-05 0.10351)
(4.10445e-05 4.10742e-05 0.10351)
(4.21209e-05 3.3927e-05 0.103427)
(-4.6092e-05 4.61434e-05 0.103317)
(3.39101e-05 4.21739e-05 0.103427)
(8.3786e-08 -1.00252e-05 0.100227)
(6.53632e-07 7.15176e-06 0.0916857)
(-1.0558e-07 9.68075e-06 0.100207)
(-1.18547e-06 -6.87114e-06 0.0917114)
(-2.09726e-06 3.12e-06 0.0790781)
(2.08073e-06 -3.02769e-06 0.079104)
(-1.00936e-05 7.28754e-08 0.100226)
(-6.85654e-06 -1.16773e-06 0.0917111)
(8.21953e-07 -8.13009e-07 0.103573)
(8.25084e-07 8.0689e-07 0.103573)
(-8.20793e-07 -8.22683e-07 0.103573)
(8.27119e-07 -8.18044e-07 0.103573)
(-8.12936e-07 8.25057e-07 0.103573)
(8.27986e-07 8.09194e-07 0.103573)
(1.64693e-05 1.23136e-07 0.102773)
(-1.59891e-05 4.49506e-06 0.100689)
(-7.09001e-07 -2.09359e-07 0.103543)
(-5.55101e-07 8.43671e-07 0.10348)
(-1.66493e-05 -1.38508e-07 0.102764)
(1.52336e-05 -4.98495e-06 0.100719)
(-7.08668e-07 -2.10587e-07 0.103543)
(-2.87243e-06 1.99764e-06 0.079105)
(1.20626e-07 1.64473e-05 0.102773)
(-2.08622e-07 -7.02164e-07 0.103543)
(8.44741e-07 -5.50326e-07 0.10348)
(-1.3668e-07 -1.66355e-05 0.102764)
(-2.0833e-07 -7.06935e-07 0.103543)
(-5.02307e-06 1.52955e-05 0.100718)
(-4.75876e-06 -5.81527e-06 0.0972328)
(-5.80483e-06 -4.75206e-06 0.0972319)
(4.84757e-05 4.85026e-05 0.103357)
(4.37475e-06 5.64465e-06 0.0972613)
(5.64299e-06 4.36828e-06 0.09726)
(8.41617e-08 -1.00415e-05 0.100227)
(6.59474e-07 7.12249e-06 0.0916858)
(-1.03721e-07 9.66335e-06 0.100207)
(-1.16509e-06 -6.89093e-06 0.0917115)
(-2.08015e-06 3.08992e-06 0.0790782)
(2.08186e-06 -3.05069e-06 0.0791041)
(-1.01082e-05 7.04726e-08 0.100226)
(7.116e-06 6.36297e-07 0.0916854)
(9.74686e-06 -8.91187e-08 0.100208)
(-6.87875e-06 -1.15684e-06 0.0917112)
(8.28527e-07 -8.19337e-07 0.103573)
(-8.13468e-07 8.25547e-07 0.103573)
(8.30574e-07 8.09171e-07 0.103573)
(-8.22925e-07 -8.27248e-07 0.103573)
(8.30886e-07 -8.20924e-07 0.103573)
(-8.15103e-07 8.27554e-07 0.103573)
(8.32026e-07 8.11234e-07 0.103573)
(1.64926e-05 1.23246e-07 0.102773)
(-1.59746e-05 4.48358e-06 0.100689)
(-7.01024e-07 -2.13371e-07 0.103543)
(-5.46084e-07 8.39257e-07 0.10348)
(-1.66256e-05 -1.38754e-07 0.102764)
(1.52557e-05 -5.00371e-06 0.100719)
(-6.97605e-07 -2.14563e-07 0.103543)
(2.97898e-06 -2.01853e-06 0.0790749)
(-2.92135e-06 2.01777e-06 0.0791049)
(1.2216e-07 1.64717e-05 0.102773)
(-2.06562e-07 -6.95951e-07 0.103543)
(4.5322e-06 -1.60337e-05 0.100689)
(8.43768e-07 -5.41121e-07 0.10348)
(-1.33991e-07 -1.66119e-05 0.102764)
(-2.06533e-07 -6.97579e-07 0.103543)
(-5.04184e-06 1.53185e-05 0.100718)
(-4.76078e-06 -5.80978e-06 0.0972329)
(-5.79793e-06 -4.75511e-06 0.097232)
(4.8481e-05 4.85052e-05 0.103357)
(4.3664e-06 5.65477e-06 0.0972614)
(5.65514e-06 4.35781e-06 0.0972601)
(9.34526e-08 -1.00578e-05 0.100227)
(6.79099e-07 7.09536e-06 0.0916859)
(-9.83401e-08 9.64302e-06 0.100207)
(-1.17758e-06 -6.91397e-06 0.0917118)
(-2.07827e-06 3.0818e-06 0.0790784)
(2.08647e-06 -3.05945e-06 0.0791043)
(-1.01278e-05 7.83263e-08 0.100226)
(7.10324e-06 6.52953e-07 0.0916855)
(9.7315e-06 -8.48634e-08 0.100208)
(-6.90511e-06 -1.15527e-06 0.0917114)
(8.31214e-07 -8.21281e-07 0.103573)
(-8.16504e-07 8.27084e-07 0.103573)
(8.33178e-07 8.10845e-07 0.103573)
(-8.25421e-07 -8.30516e-07 0.103573)
(8.34569e-07 -8.23155e-07 0.103573)
(-8.15953e-07 8.31083e-07 0.103573)
(8.37105e-07 8.16506e-07 0.103573)
(1.65114e-05 1.2247e-07 0.102773)
(-1.59526e-05 4.4669e-06 0.100689)
(-6.90005e-07 -2.15162e-07 0.103543)
(-5.42469e-07 8.38e-07 0.10348)
(-1.66022e-05 -1.41391e-07 0.102764)
(1.5272e-05 -5.03069e-06 0.100719)
(-6.9034e-07 -2.16233e-07 0.103543)
(2.9621e-06 -2.01728e-06 0.079075)
(-2.94016e-06 2.03e-06 0.0791051)
(1.20317e-07 1.64894e-05 0.102773)
(-2.07827e-07 -6.85911e-07 0.103543)
(4.51501e-06 -1.60185e-05 0.100689)
(8.41e-07 -5.37801e-07 0.10348)
(-1.34293e-07 -1.65928e-05 0.102763)
(-2.07487e-07 -6.92227e-07 0.103543)
(-5.06358e-06 1.53346e-05 0.100718)
(-4.7592e-06 -5.80627e-06 0.0972329)
(-5.79106e-06 -4.75682e-06 0.097232)
(4.84883e-05 4.8511e-05 0.103357)
(4.37173e-06 5.65944e-06 0.0972614)
(5.66336e-06 4.36029e-06 0.0972602)
(9.19045e-08 -1.00745e-05 0.100227)
(6.46466e-07 7.08901e-06 0.0916863)
(-9.72335e-08 9.63461e-06 0.100207)
(-1.18551e-06 -6.93722e-06 0.0917122)
(-2.07537e-06 3.06149e-06 0.0790789)
(2.10939e-06 -3.07853e-06 0.0791051)
(-1.01355e-05 7.83631e-08 0.100226)
(7.08079e-06 6.28865e-07 0.0916858)
(9.71065e-06 -9.05881e-08 0.100208)
(-6.91191e-06 -1.16756e-06 0.0917118)
(8.37441e-07 -8.26417e-07 0.103573)
(-8.2432e-07 8.36764e-07 0.103573)
(8.40787e-07 8.21327e-07 0.103573)
(-8.22218e-07 -8.3248e-07 0.103573)
(8.38642e-07 -8.28492e-07 0.103573)
(-8.12347e-07 8.28314e-07 0.103573)
(8.36959e-07 8.1642e-07 0.103573)
(1.65287e-05 1.22252e-07 0.102773)
(-1.59361e-05 4.43594e-06 0.100688)
(-6.72399e-07 -2.17945e-07 0.103543)
(-5.44664e-07 8.44908e-07 0.103479)
(-1.65891e-05 -1.42802e-07 0.102763)
(1.52875e-05 -5.03438e-06 0.100719)
(-6.90246e-07 -2.14661e-07 0.103543)
(2.9492e-06 -1.99168e-06 0.0790754)
(-2.94818e-06 2.02007e-06 0.0791056)
(1.24556e-07 1.6512e-05 0.102773)
(-2.10559e-07 -6.64135e-07 0.103543)
(4.48722e-06 -1.59974e-05 0.100689)
(8.39407e-07 -5.3264e-07 0.103479)
(-1.34166e-07 -1.65821e-05 0.102763)
(-2.06693e-07 -6.85955e-07 0.103543)
(-5.07486e-06 1.5346e-05 0.100718)
(-4.74991e-06 -5.80627e-06 0.097233)
(-5.79362e-06 -4.74575e-06 0.0972321)
(4.84943e-05 4.85209e-05 0.103357)
(4.37856e-06 5.66734e-06 0.0972616)
(5.66478e-06 4.37231e-06 0.0972603)
(1.76234e-07 -1.01011e-05 0.100227)
(6.94315e-07 6.98573e-06 0.0916863)
(-1.24977e-07 9.58193e-06 0.100207)
(-1.26431e-06 -6.69183e-06 0.0917137)
(-2.05905e-06 3.03542e-06 0.0790797)
(2.14198e-06 -3.02709e-06 0.0791062)
(-1.01906e-05 1.68839e-07 0.100226)
(6.98235e-06 6.76942e-07 0.0916859)
(9.67895e-06 -1.10313e-07 0.100207)
(-6.68586e-06 -1.2352e-06 0.0917133)
(8.58027e-07 -8.48984e-07 0.103573)
(-8.446e-07 8.56703e-07 0.103573)
(8.62626e-07 8.44868e-07 0.103573)
(-7.97133e-07 -7.92765e-07 0.103573)
(8.02808e-07 -7.96641e-07 0.103573)
(-7.9078e-07 7.95292e-07 0.103573)
(7.97345e-07 7.83205e-07 0.103573)
(1.64623e-05 1.62266e-07 0.102773)
(-1.58048e-05 4.45165e-06 0.100688)
(-6.2377e-07 -2.28523e-07 0.103543)
(-5.43214e-07 8.49333e-07 0.103479)
(-1.64985e-05 -1.57189e-07 0.102763)
(1.50328e-05 -5.07575e-06 0.100719)
(-6.94028e-07 -2.02576e-07 0.103543)
(2.92929e-06 -2.02326e-06 0.0790761)
(-2.91866e-06 2.10051e-06 0.0791066)
(1.56049e-07 1.64517e-05 0.102773)
(-2.20865e-07 -6.17764e-07 0.103543)
(4.50311e-06 -1.58803e-05 0.100688)
(8.28789e-07 -5.16151e-07 0.103479)
(-1.45717e-07 -1.64944e-05 0.102763)
(-2.02395e-07 -6.78803e-07 0.103543)
(-5.10807e-06 1.51094e-05 0.100718)
(-4.68506e-06 -5.86952e-06 0.097233)
(-5.85821e-06 -4.68022e-06 0.0972321)
(4.8505e-05 4.85323e-05 0.103357)
(4.20563e-06 5.82327e-06 0.0972616)
(5.81899e-06 4.20155e-06 0.0972603)
(1.42197e-06 -9.17789e-06 0.100228)
(8.54337e-07 5.82761e-06 0.0916799)
(-7.22603e-07 9.35763e-06 0.100207)
(-2.03139e-06 -4.66072e-06 0.0917297)
(-2.53251e-06 2.60547e-06 0.0790795)
(3.28412e-06 -1.82206e-06 0.0791117)
(-9.31739e-06 1.46656e-06 0.100227)
(5.81819e-06 8.91047e-07 0.0916794)
(9.45945e-06 -6.98543e-07 0.100207)
(-4.68702e-06 -1.97249e-06 0.0917293)
(8.74908e-07 -8.68447e-07 0.103573)
(-8.57531e-07 8.66486e-07 0.103573)
(8.72019e-07 8.58793e-07 0.103573)
(-8.07637e-07 -7.52785e-07 0.103572)
(7.20978e-07 -7.21215e-07 0.103572)
(-8.1226e-07 7.94263e-07 0.103572)
(7.51517e-07 7.69875e-07 0.103572)
(1.55839e-05 5.32361e-07 0.102773)
(-1.45917e-05 4.24599e-06 0.100686)
(-5.94147e-07 -2.48205e-07 0.103543)
(-5.00512e-07 8.12391e-07 0.103479)
(-1.61399e-05 -3.39263e-07 0.102763)
(1.30387e-05 -4.44163e-06 0.100724)
(-7.13356e-07 -1.69838e-07 0.103542)
(2.50771e-06 -2.57926e-06 0.0790757)
(-1.69266e-06 3.34373e-06 0.0791118)
(4.82037e-07 1.5584e-05 0.102773)
(-2.49501e-07 -6.02887e-07 0.103543)
(4.2866e-06 -1.46916e-05 0.100686)
(8.14481e-07 -4.98987e-07 0.103479)
(-3.37328e-07 -1.61453e-05 0.102763)
(-1.80816e-07 -7.02719e-07 0.103542)
(-4.51943e-06 1.31424e-05 0.100723)
(-3.45727e-06 -5.90452e-06 0.0972334)
(-5.90805e-06 -3.44462e-06 0.0972325)
(4.8388e-05 4.84292e-05 0.103357)
(1.74937e-06 5.45885e-06 0.097263)
(5.43886e-06 1.75794e-06 0.0972617)
(2.52597e-06 -1.00621e-05 0.100236)
(3.44094e-06 4.25012e-06 0.0916486)
(-2.60844e-06 7.68782e-06 0.100203)
(-3.52338e-06 -5.23359e-06 0.0917664)
(-3.79333e-06 -1.714e-07 0.0790616)
(2.15064e-06 1.93489e-07 0.079138)
(-1.03008e-05 2.59244e-06 0.100235)
(4.12571e-06 3.49841e-06 0.091648)
(7.71947e-06 -2.56402e-06 0.100204)
(-5.3825e-06 -3.52969e-06 0.0917664)
(7.72464e-07 -7.71233e-07 0.103574)
(-8.76701e-07 8.4618e-07 0.103574)
(7.99417e-07 8.13306e-07 0.103574)
(-7.80061e-07 -8.10712e-07 0.103572)
(8.37816e-07 -8.27436e-07 0.103572)
(-7.64584e-07 7.92947e-07 0.103572)
(8.21598e-07 7.88695e-07 0.103572)
(1.62292e-05 6.72116e-07 0.102775)
(-1.38422e-05 2.51219e-06 0.100675)
(-7.66133e-07 -2.05563e-07 0.103543)
(-5.87889e-07 8.90798e-07 0.103479)
(-1.51553e-05 -6.95966e-07 0.102762)
(1.3802e-05 -2.06587e-06 0.100739)
(-8.89788e-07 -1.10876e-07 0.103542)
(-3.18667e-07 -3.68774e-06 0.0790594)
(2.94433e-07 1.94497e-06 0.0791401)
(6.05453e-07 1.62442e-05 0.102775)
(-2.87237e-07 -7.10393e-07 0.103543)
(2.34295e-06 -1.38238e-05 0.100675)
(8.46499e-07 -5.6514e-07 0.103479)
(-7.55184e-07 -1.51202e-05 0.102763)
(-1.65748e-07 -8.68468e-07 0.103542)
(-2.21441e-06 1.39231e-05 0.100738)
(-1.63311e-06 -3.93134e-06 0.097219)
(-3.95241e-06 -1.62247e-06 0.0972181)
(4.81132e-05 4.81566e-05 0.103357)
(2.47029e-06 1.37056e-06 0.0972898)
(1.38254e-06 2.47883e-06 0.0972885)
(2.01634e-06 -1.02572e-05 0.100242)
(-3.41392e-07 6.89495e-06 0.0916062)
(-1.91308e-06 1.29868e-05 0.100191)
(-1.95075e-06 -4.22471e-06 0.0918101)
(-1.33241e-06 1.03297e-06 0.0790266)
(1.44552e-06 6.6196e-07 0.0791638)
(-1.02215e-05 1.94737e-06 0.100241)
(6.94829e-06 -4.48182e-07 0.0916064)
(1.30981e-05 -1.98467e-06 0.100192)
(-4.05494e-06 -1.98171e-06 0.0918103)
(6.36798e-07 -6.23035e-07 0.103575)
(-5.36943e-07 5.75946e-07 0.103575)
(6.24701e-07 5.81939e-07 0.103575)
(-8.90005e-07 -9.086e-07 0.103571)
(9.11909e-07 -9.02615e-07 0.103571)
(-8.80339e-07 8.96698e-07 0.103571)
(9.14337e-07 8.9075e-07 0.103571)
(1.39788e-05 6.1207e-07 0.102775)
(-1.36524e-05 8.48051e-07 0.100658)
(-8.23397e-07 -2.65237e-07 0.103545)
(-1.76075e-07 5.79046e-07 0.103479)
(-1.71439e-05 -5.37773e-07 0.10276)
(1.03897e-05 -2.3991e-07 0.100753)
(-6.6994e-07 -1.32165e-07 0.103542)
(9.35415e-07 -1.29691e-06 0.0790244)
(7.50349e-07 1.40618e-06 0.0791648)
(6.71862e-07 1.39511e-05 0.102775)
(-1.95489e-07 -8.55316e-07 0.103545)
(1.0167e-06 -1.37349e-05 0.100659)
(6.47311e-07 -2.08666e-07 0.103479)
(-4.75945e-07 -1.71645e-05 0.10276)
(-7.07737e-08 -6.98877e-07 0.103542)
(-1.55409e-07 1.03979e-05 0.100752)
(-1.75457e-06 5.05976e-07 0.0971859)
(5.19112e-07 -1.77056e-06 0.0971851)
(4.77522e-05 4.77537e-05 0.103358)
(-2.20916e-07 -1.46803e-06 0.09732)
(-1.44117e-06 -2.42443e-07 0.0973186)
(3.76916e-06 -8.46466e-06 0.100261)
(2.18961e-06 2.68461e-08 0.0915429)
(-3.29348e-06 8.37253e-06 0.100183)
(-4.46364e-06 2.00516e-06 0.091894)
(1.04374e-06 -4.52839e-06 0.0790109)
(-2.47841e-06 8.99902e-06 0.0791838)
(-8.48809e-06 3.78612e-06 0.10026)
(1.18172e-08 2.18553e-06 0.0915425)
(8.44285e-06 -3.31114e-06 0.100183)
(2.07266e-06 -4.43669e-06 0.0918939)
(6.73056e-07 -6.64017e-07 0.103576)
(-6.58136e-07 6.68176e-07 0.103576)
(6.75919e-07 6.58757e-07 0.103576)
(-9.22195e-07 -9.14266e-07 0.10357)
(9.15601e-07 -9.12134e-07 0.10357)
(-9.16343e-07 9.20668e-07 0.10357)
(9.13691e-07 9.15624e-07 0.10357)
(1.36975e-05 8.14831e-07 0.10278)
(-7.91713e-06 -2.15404e-06 0.100641)
(-7.44176e-07 -3.11665e-07 0.103545)
(2.43359e-07 2.65273e-07 0.10348)
(-1.49581e-05 -8.42644e-07 0.102759)
(5.87016e-06 2.06937e-06 0.100777)
(-5.98737e-07 -7.76733e-08 0.103541)
(-4.60445e-06 1.1008e-06 0.0790083)
(9.06236e-06 -2.52374e-06 0.0791843)
(8.05132e-07 1.36912e-05 0.10278)
(-3.03925e-07 -7.43112e-07 0.103545)
(-2.11253e-06 -7.98528e-06 0.100641)
(2.51193e-07 2.50856e-07 0.10348)
(-8.23817e-07 -1.49728e-05 0.102759)
(-7.87105e-08 -6.00143e-07 0.103541)
(2.0318e-06 5.9102e-06 0.100776)
(3.15501e-06 7.81023e-06 0.0971438)
(7.83074e-06 3.15067e-06 0.097143)
(4.74028e-05 4.7426e-05 0.103358)
(-5.18915e-06 -1.05752e-05 0.0973767)
(-1.05719e-05 -5.1814e-06 0.0973753)
(5.4607e-06 -5.93517e-06 0.100301)
(2.53431e-06 -7.06592e-06 0.0914189)
(-5.07862e-06 6.80046e-06 0.100152)
(-5.54583e-06 1.20973e-05 0.0920488)
(6.80413e-06 -1.67174e-05 0.0789844)
(-9.54234e-06 2.34211e-05 0.0792062)
(-5.93257e-06 5.47574e-06 0.100301)
(-7.16641e-06 2.54199e-06 0.0914185)
(6.80762e-06 -5.0825e-06 0.100152)
(1.21912e-05 -5.5346e-06 0.0920486)
(4.67963e-07 -4.64178e-07 0.103577)
(-4.68155e-07 4.72395e-07 0.103577)
(4.648e-07 4.67982e-07 0.103577)
(-7.74444e-07 -7.62155e-07 0.103568)
(7.66668e-07 -7.61879e-07 0.103568)
(-7.6736e-07 7.73414e-07 0.103568)
(7.63524e-07 7.73096e-07 0.103568)
(1.1424e-05 9.89066e-07 0.102785)
(-1.62656e-06 -5.83951e-06 0.100614)
(-8.59951e-07 -3.52966e-07 0.103547)
(1.16759e-06 -5.07362e-07 0.103481)
(-1.29607e-05 -1.11795e-06 0.102754)
(-2.41664e-06 5.8798e-06 0.100807)
(-5.37144e-07 9.30935e-08 0.103539)
(-1.67459e-05 6.82992e-06 0.0789821)
(2.34212e-05 -9.53813e-06 0.0792064)
(9.80185e-07 1.14261e-05 0.102785)
(-3.56962e-07 -8.54384e-07 0.103547)
(-5.83347e-06 -1.66648e-06 0.100614)
(-5.18744e-07 1.17753e-06 0.103481)
(-1.124e-06 -1.29679e-05 0.102755)
(8.71818e-08 -5.33036e-07 0.103539)
(5.84409e-06 -2.37463e-06 0.100807)
(9.35721e-06 1.84745e-05 0.0970621)
(1.84572e-05 9.34641e-06 0.0970614)
(4.58247e-05 4.58518e-05 0.103359)
(-1.34526e-05 -2.33428e-05 0.097477)
(-2.33213e-05 -1.34316e-05 0.0974755)
(7.09675e-06 -1.7475e-06 0.100381)
(5.65309e-06 -2.17147e-05 0.0911886)
(-6.84055e-06 3.16694e-06 0.100091)
(-4.7245e-06 2.99666e-05 0.0923425)
(1.78177e-05 -3.93102e-05 0.07896)
(-2.49059e-05 5.33146e-05 0.0792249)
(-1.68977e-06 7.13714e-06 0.100381)
(-2.18454e-05 5.67659e-06 0.0911883)
(3.12402e-06 -6.84734e-06 0.100091)
(3.01191e-05 -4.7085e-06 0.0923423)
(3.88517e-07 -3.80056e-07 0.103579)
(-3.90785e-07 3.96806e-07 0.103579)
(3.86402e-07 3.98353e-07 0.103579)
(-2.55056e-06 -2.50962e-06 0.103562)
(2.53078e-06 -2.50737e-06 0.103562)
(-2.52958e-06 2.54572e-06 0.103562)
(2.52357e-06 2.5512e-06 0.103562)
(8.20653e-06 1.16178e-06 0.102787)
(8.1454e-06 -9.4091e-06 0.10058)
(-8.88519e-07 -4.47098e-07 0.10355)
(3.3997e-06 -2.49933e-06 0.103483)
(-9.55873e-06 -1.24199e-06 0.102751)
(-1.27946e-05 1.00217e-05 0.100844)
(-5.85218e-08 2.82089e-07 0.103536)
(-3.92938e-05 1.78333e-05 0.0789588)
(5.33501e-05 -2.49475e-05 0.0792245)
(1.14364e-06 8.21142e-06 0.102787)
(-4.525e-07 -8.79546e-07 0.10355)
(-9.40254e-06 8.12584e-06 0.100579)
(-2.51776e-06 3.41661e-06 0.103483)
(-1.24961e-06 -9.56572e-06 0.102751)
(2.68073e-07 -4.71673e-08 0.103536)
(9.99639e-06 -1.27616e-05 0.100844)
(1.94092e-05 3.36088e-05 0.0969227)
(3.35769e-05 1.93994e-05 0.096922)
(4.11804e-05 4.12132e-05 0.103358)
(-2.50015e-05 -4.16139e-05 0.0976504)
(-4.15915e-05 -2.49862e-05 0.0976489)
(4.45387e-06 -4.56578e-06 0.100543)
(1.06889e-06 -4.83732e-05 0.09075)
(-7.81997e-06 -5.30292e-06 0.0999784)
(7.5988e-06 5.62205e-05 0.0929299)
(4.66519e-05 -9.06428e-05 0.0789583)
(-6.84862e-05 0.000125616 0.079235)
(-4.54487e-06 4.46741e-06 0.100543)
(-4.86748e-05 1.10459e-06 0.0907495)
(-5.36674e-06 -7.83884e-06 0.0999782)
(5.6385e-05 7.50688e-06 0.0929298)
(5.78068e-06 -5.74127e-06 0.103577)
(-5.77375e-06 5.79745e-06 0.103577)
(5.76989e-06 5.80743e-06 0.103577)
(-2.73447e-05 -2.7239e-05 0.103509)
(2.7342e-05 -2.72429e-05 0.103509)
(-2.7316e-05 2.73577e-05 0.103509)
(2.73321e-05 2.73668e-05 0.103509)
(2.30148e-05 -3.71022e-07 0.102771)
(2.22411e-05 -1.39217e-05 0.100549)
(5.00886e-06 -2.12046e-06 0.10355)
(1.85671e-05 -1.26161e-05 0.103482)
(-8.87232e-08 -1.5714e-06 0.102762)
(-8.93318e-06 3.31549e-06 0.100896)
(1.22426e-05 -2.11296e-06 0.103522)
(-9.06051e-05 4.66715e-05 0.0789573)
(0.000125322 -6.82922e-05 0.0792345)
(-4.0142e-07 2.29817e-05 0.102771)
(-2.1519e-06 5.00115e-06 0.10355)
(-1.39471e-05 2.22326e-05 0.100549)
(-1.26657e-05 1.85656e-05 0.103482)
(-1.59795e-06 -9.18236e-08 0.102762)
(-2.15429e-06 1.22009e-05 0.103522)
(3.22356e-06 -8.91845e-06 0.100895)
(3.93031e-05 5.72189e-05 0.0966931)
(5.70997e-05 3.93018e-05 0.0966925)
(3.29289e-05 3.30202e-05 0.103352)
(-4.6242e-05 -6.05999e-05 0.0979659)
(-6.06473e-05 -4.60798e-05 0.0979642)
(-1.97031e-05 -0.000121059 0.101083)
(-0.000130024 -0.000185019 0.090394)
(-2.20376e-05 -7.92945e-05 0.0998445)
(-0.000266709 -0.000123971 0.0949394)
(0.000276376 -0.000431406 0.0797435)
(0.000157225 -0.000336585 0.0879927)
(-0.000121228 -1.96224e-05 0.101083)
(-0.000185846 -0.000129435 0.090393)
(-8.00069e-05 -2.19749e-05 0.0998441)
(-0.000124162 -0.000266669 0.0949387)
(-9.50837e-06 -9.41128e-06 0.103463)
(-1.28004e-05 -3.54106e-05 0.103524)
(-3.5546e-05 -1.27055e-05 0.103524)
(-4.26528e-05 -4.25039e-05 0.103429)
(-1.09224e-05 -1.0828e-05 0.103528)
(-1.05613e-05 -3.87424e-05 0.103453)
(-3.88901e-05 -1.04701e-05 0.103453)
(0.000118509 2.79402e-06 0.102679)
(0.000115462 -6.90778e-05 0.100731)
(5.85083e-05 -1.60917e-05 0.103485)
(5.57524e-05 -4.65115e-05 0.10336)
(7.93966e-05 -1.08764e-05 0.102814)
(7.24137e-05 -6.06502e-05 0.101001)
(5.79387e-05 -1.2434e-05 0.103418)
(-0.000431531 0.000276085 0.079743)
(-0.000336524 0.00015704 0.0879925)
(2.78906e-06 0.000118421 0.102679)
(-1.61607e-05 5.84661e-05 0.103485)
(-6.92225e-05 0.000115466 0.10073)
(-4.6637e-05 5.57535e-05 0.10336)
(-1.08801e-05 7.93545e-05 0.102814)
(-1.2508e-05 5.79136e-05 0.103418)
(-6.07664e-05 7.21871e-05 0.101)
(0.000249654 9.54697e-05 0.0967467)
(9.53961e-05 0.000249836 0.0967466)
(5.92418e-05 5.92583e-05 0.103253)
(6.17302e-05 -5.15596e-05 0.100071)
(-5.17083e-05 6.18757e-05 0.100071)
(1.17606e-06 -6.87632e-06 0.0917112)
(5.01906e-06 -1.52744e-05 0.100718)
(2.05265e-06 -2.99392e-06 0.079104)
(5.58497e-06 -4.31665e-06 0.0972609)
(4.24254e-06 -5.53643e-06 0.0972635)
(2.86266e-06 -1.98901e-06 0.0791063)
(1.52291e-05 -4.98727e-06 0.100719)
(6.81319e-06 -1.15472e-06 0.0917121)
(2.11175e-06 3.1551e-06 0.0790795)