/*--------------------------------*- C++ -*----------------------------------*\
| =========                 |                                                 |
| \\      /  F ield         | OpenFOAM: The Open Source CFD Toolbox           |
|  \\    /   O peration     | Version:  2206                                  |
|   \\  /    A nd           | Website:  www.openfoam.com                      |
|    \\/     M anipulation  |                                                 |
\*---------------------------------------------------------------------------*/
FoamFile
{
    version     2.0;
    format      ascii;
    arch        "LSB;label=32;scalar=64";
    class       volVectorField;
    location    "23.5";
    object      U;
}
// * * * * * * * * * * * * * * * * * * * * * * * * * * * * * * * * * * * * * //

dimensions      [0 1 -1 0 0 0 0];

internalField   nonuniform List<vector> 
28687
(
(-6.56557e-07 -6.5622e-07 0.10269)
(-4.51586e-07 6.74671e-07 0.102646)
(6.74287e-07 -4.45172e-07 0.102646)
(-4.25295e-05 -4.25465e-05 0.102582)
(-6.6404e-07 -6.6543e-07 0.10269)
(-4.34351e-07 6.62084e-07 0.102646)
(6.66752e-07 -4.3038e-07 0.102646)
(-4.25207e-05 -4.25373e-05 0.102582)
(-6.78476e-07 -6.75907e-07 0.10269)
(-4.02284e-07 6.50645e-07 0.102646)
(6.61431e-07 -4.1415e-07 0.102646)
(-4.25033e-05 -4.25201e-05 0.102582)
(-6.84389e-07 -6.76246e-07 0.10269)
(-3.95581e-07 6.49289e-07 0.102646)
(6.72515e-07 -4.24475e-07 0.102646)
(-4.24978e-05 -4.25092e-05 0.102582)
(-6.63028e-07 -6.34659e-07 0.10269)
(-5.17909e-07 7.91845e-07 0.102646)
(7.13096e-07 -4.74634e-07 0.102646)
(-4.25075e-05 -4.25082e-05 0.102581)
(-6.05437e-07 -6.07603e-07 0.10269)
(-4.83083e-07 6.56853e-07 0.102646)
(6.85683e-07 -5.01173e-07 0.102646)
(-4.26233e-05 -4.2645e-05 0.102582)
(-6.6359e-07 -6.51604e-07 0.10269)
(-4.36499e-07 6.85256e-07 0.102646)
(6.60792e-07 -4.34028e-07 0.102646)
(-4.25331e-05 -4.25495e-05 0.102582)
(-6.51729e-07 -6.46909e-07 0.10269)
(-4.385e-07 6.6519e-07 0.102646)
(6.71286e-07 -4.38868e-07 0.102646)
(-4.25454e-05 -4.25585e-05 0.102582)
(-6.46734e-07 -6.48919e-07 0.10269)
(-4.45445e-07 6.78045e-07 0.102646)
(6.72542e-07 -4.4211e-07 0.102646)
(-4.2545e-05 -4.25608e-05 0.102582)
(-6.56066e-07 -6.55049e-07 0.10269)
(-4.42464e-07 6.72806e-07 0.102646)
(6.71273e-07 -4.41932e-07 0.102646)
(-4.25446e-05 -4.25605e-05 0.102582)
(-6.57707e-07 -6.55038e-07 0.10269)
(-4.40372e-07 6.7178e-07 0.102646)
(6.7074e-07 -4.42464e-07 0.102646)
(-4.25439e-05 -4.25606e-05 0.102582)
(-6.58737e-07 -6.55027e-07 0.10269)
(-4.39921e-07 6.71923e-07 0.102646)
(6.70553e-07 -4.42619e-07 0.102646)
(-4.2544e-05 -4.25606e-05 0.102582)
(-6.5962e-07 -6.55324e-07 0.10269)
(-4.39997e-07 6.71699e-07 0.102646)
(6.70306e-07 -4.42726e-07 0.102646)
(-4.25447e-05 -4.25609e-05 0.102582)
(-6.5922e-07 -6.54573e-07 0.10269)
(-4.40766e-07 6.7238e-07 0.102646)
(6.71016e-07 -4.43417e-07 0.102646)
(-4.25454e-05 -4.25613e-05 0.102582)
(-6.58569e-07 -6.54038e-07 0.10269)
(-4.4045e-07 6.72145e-07 0.102646)
(6.71513e-07 -4.4381e-07 0.102646)
(-4.25458e-05 -4.25623e-05 0.102582)
(-6.58513e-07 -6.53442e-07 0.10269)
(-4.41233e-07 6.72866e-07 0.102646)
(6.71635e-07 -4.44019e-07 0.102646)
(-4.25455e-05 -4.25617e-05 0.102582)
(-6.58492e-07 -6.5332e-07 0.10269)
(-4.39896e-07 6.72046e-07 0.102646)
(6.70979e-07 -4.43645e-07 0.102646)
(-4.25431e-05 -4.25588e-05 0.102582)
(-6.58336e-07 -6.53214e-07 0.10269)
(-4.38657e-07 6.71518e-07 0.102646)
(6.71061e-07 -4.42719e-07 0.102646)
(-4.25351e-05 -4.2551e-05 0.102582)
(-6.9875e-07 4.72858e-07 0.102646)
(4.43994e-05 -4.43716e-05 0.102585)
(-4.48334e-07 6.75464e-07 0.102646)
(4.25351e-05 4.25152e-05 0.102582)
(-4.44017e-05 -4.43794e-05 0.102585)
(6.97454e-07 4.60855e-07 0.102646)
(-6.989e-07 4.77826e-07 0.102646)
(6.91992e-07 4.4792e-07 0.102646)
(-6.87446e-07 4.61663e-07 0.102646)
(-4.25399e-05 4.25119e-05 0.102582)
(4.44037e-05 -4.43825e-05 0.102585)
(4.46625e-07 6.79818e-07 0.102646)
(4.63814e-07 -6.96801e-07 0.102646)
(4.36049e-07 6.71788e-07 0.102646)
(4.55547e-07 -6.90761e-07 0.102646)
(-4.63934e-07 -6.92917e-07 0.102646)
(-4.40075e-07 6.65115e-07 0.102646)
(-4.56342e-07 -6.87788e-07 0.102646)
(4.25187e-05 -4.25507e-05 0.102582)
(-4.43752e-05 4.44099e-05 0.102585)
(-6.71744e-07 -4.4458e-07 0.102646)
(6.68438e-07 -4.34016e-07 0.102646)
(-6.66004e-07 -4.37523e-07 0.102646)
(4.43793e-05 4.43973e-05 0.102585)
(4.25265e-05 4.25093e-05 0.102582)
(-4.44132e-05 -4.43936e-05 0.102585)
(6.91809e-07 4.4663e-07 0.102646)
(-6.85513e-07 4.56528e-07 0.102646)
(6.86291e-07 4.37749e-07 0.102646)
(-6.85632e-07 4.41684e-07 0.102646)
(-4.25299e-05 4.2497e-05 0.102582)
(4.44284e-05 -4.43989e-05 0.102585)
(4.33099e-07 6.7452e-07 0.102646)
(4.48396e-07 -6.89148e-07 0.102646)
(4.23821e-07 6.69484e-07 0.102646)
(4.4357e-07 -6.86526e-07 0.102646)
(-4.4959e-07 -6.85701e-07 0.102646)
(-4.19762e-07 6.64229e-07 0.102646)
(-4.42004e-07 -6.82073e-07 0.102646)
(4.25085e-05 -4.25417e-05 0.102582)
(-4.43894e-05 4.44251e-05 0.102585)
(-6.6437e-07 -4.30599e-07 0.102646)
(6.63889e-07 -4.21369e-07 0.102646)
(-6.61175e-07 -4.223e-07 0.102646)
(4.43962e-05 4.44141e-05 0.102585)
(4.25114e-05 4.24961e-05 0.102582)
(-4.44492e-05 -4.44245e-05 0.102584)
(6.8175e-07 4.32522e-07 0.102646)
(-6.71684e-07 4.21442e-07 0.102646)
(6.81663e-07 4.39568e-07 0.102646)
(-7.06643e-07 4.56889e-07 0.102646)
(-4.2511e-05 4.24849e-05 0.102582)
(4.44326e-05 -4.43907e-05 0.102584)
(4.17265e-07 6.66658e-07 0.102646)
(4.33933e-07 -6.83475e-07 0.102646)
(4.20548e-07 6.73171e-07 0.102646)
(4.40778e-07 -6.86622e-07 0.102646)
(-4.31776e-07 -6.79277e-07 0.102646)
(-4.23753e-07 6.86519e-07 0.102646)
(-4.42065e-07 -6.81109e-07 0.102646)
(4.24939e-05 -4.25251e-05 0.102582)
(-4.44236e-05 4.44588e-05 0.102584)
(-6.58972e-07 -4.12297e-07 0.102646)
(6.64425e-07 -4.19133e-07 0.102646)
(-6.64995e-07 -4.16871e-07 0.102646)
(4.44264e-05 4.44488e-05 0.102584)
(4.24992e-05 4.249e-05 0.102582)
(-4.45083e-05 -4.44691e-05 0.102584)
(6.88754e-07 4.44186e-07 0.102646)
(-6.69066e-07 4.08846e-07 0.102646)
(6.38545e-07 4.05436e-07 0.102646)
(-7.38065e-07 4.82815e-07 0.102645)
(-4.25182e-05 4.25098e-05 0.102582)
(4.44207e-05 -4.43808e-05 0.102584)
(4.26319e-07 6.81885e-07 0.102646)
(4.42437e-07 -6.94067e-07 0.102646)
(3.68048e-07 6.47745e-07 0.102646)
(3.9454e-07 -6.53938e-07 0.102646)
(-4.43505e-07 -6.88534e-07 0.102646)
(-4.2577e-07 7.23921e-07 0.102646)
(-4.0374e-07 -6.39748e-07 0.102646)
(4.24849e-05 -4.25163e-05 0.102582)
(-4.44742e-05 4.45119e-05 0.102584)
(-6.73811e-07 -4.19343e-07 0.102646)
(6.32034e-07 -3.71761e-07 0.102646)
(-6.38932e-07 -3.65763e-07 0.102646)
(4.44734e-05 4.45063e-05 0.102584)
(4.24968e-05 4.25007e-05 0.102581)
(-4.42999e-05 -4.42836e-05 0.102584)
(7.15266e-07 5.10695e-07 0.102645)
(-8.04083e-07 5.62473e-07 0.102645)
(7.48128e-07 5.60515e-07 0.102646)
(-7.04232e-07 5.29119e-07 0.102646)
(-4.26098e-05 4.26061e-05 0.102581)
(4.43651e-05 -4.43613e-05 0.102585)
(4.71878e-07 7.27798e-07 0.102646)
(4.94127e-07 -7.34311e-07 0.102645)
(5.50958e-07 7.26726e-07 0.102646)
(5.70371e-07 -7.42952e-07 0.102646)
(-5.0351e-07 -7.17472e-07 0.102645)
(-5.2458e-07 6.77583e-07 0.102646)
(-5.65026e-07 -7.41911e-07 0.102646)
(4.24908e-05 -4.25203e-05 0.102581)
(-4.42788e-05 4.43157e-05 0.102584)
(-7.18912e-07 -4.65622e-07 0.102646)
(7.21267e-07 -5.45964e-07 0.102646)
(-7.18605e-07 -5.4632e-07 0.102646)
(4.42878e-05 4.43024e-05 0.102584)
(4.26383e-05 4.26151e-05 0.102582)
(-4.44285e-05 -4.43959e-05 0.102585)
(7.11615e-07 5.17394e-07 0.102646)
(-6.81333e-07 4.9606e-07 0.102646)
(6.80951e-07 4.59242e-07 0.102646)
(-6.89485e-07 4.71433e-07 0.102646)
(-4.25865e-05 4.25445e-05 0.102582)
(4.4432e-05 -4.43842e-05 0.102585)
(5.0718e-07 6.90135e-07 0.102646)
(5.22801e-07 -7.06552e-07 0.102646)
(4.36491e-07 6.68564e-07 0.102646)
(4.54179e-07 -6.7457e-07 0.102646)
(-5.15463e-07 -7.08082e-07 0.102646)
(-4.34822e-07 6.76417e-07 0.102646)
(-4.52799e-07 -6.75098e-07 0.102646)
(4.26183e-05 -4.2647e-05 0.102582)
(-4.44061e-05 4.44424e-05 0.102585)
(-6.81071e-07 -4.99488e-07 0.102646)
(6.55424e-07 -4.3193e-07 0.102646)
(-6.53311e-07 -4.32339e-07 0.102646)
(4.44108e-05 4.44281e-05 0.102585)
(4.25427e-05 4.25399e-05 0.102582)
(-4.4421e-05 -4.4383e-05 0.102585)
(6.85985e-07 4.7108e-07 0.102646)
(-6.96333e-07 4.77737e-07 0.102646)
(6.926e-07 4.61725e-07 0.102646)
(-6.906e-07 4.69624e-07 0.102646)
(-4.25463e-05 4.25429e-05 0.102582)
(4.44281e-05 -4.4391e-05 0.102585)
(4.38828e-07 6.77777e-07 0.102646)
(4.54475e-07 -6.79334e-07 0.102646)
(4.40483e-07 6.82296e-07 0.102646)
(4.59452e-07 -6.86823e-07 0.102646)
(-4.54562e-07 -6.77775e-07 0.102646)
(-4.3858e-07 6.75198e-07 0.102646)
(-4.648e-07 -6.84538e-07 0.102646)
(4.25219e-05 -4.25526e-05 0.102582)
(-4.4393e-05 4.44312e-05 0.102585)
(-6.58441e-07 -4.32941e-07 0.102646)
(6.68848e-07 -4.34735e-07 0.102646)
(-6.65793e-07 -4.43057e-07 0.102646)
(4.43963e-05 4.44185e-05 0.102585)
(4.2554e-05 4.25434e-05 0.102582)
(-4.44238e-05 -4.43848e-05 0.102585)
(6.94719e-07 4.63215e-07 0.102646)
(-6.81193e-07 4.60051e-07 0.102646)
(6.97951e-07 4.7398e-07 0.102646)
(-6.95529e-07 4.71268e-07 0.102646)
(-4.25371e-05 4.25195e-05 0.102582)
(4.44152e-05 -4.43934e-05 0.102585)
(4.45832e-07 6.80795e-07 0.102646)
(4.60986e-07 -6.89461e-07 0.102646)
(4.48223e-07 6.75527e-07 0.102646)
(4.62037e-07 -6.90649e-07 0.102646)
(-4.65704e-07 -6.86587e-07 0.102646)
(-4.44737e-07 6.76334e-07 0.102646)
(-4.60622e-07 -6.88866e-07 0.102646)
(4.25337e-05 -4.25628e-05 0.102582)
(-4.43907e-05 4.4428e-05 0.102585)
(-6.67191e-07 -4.45281e-07 0.102646)
(6.71571e-07 -4.38408e-07 0.102646)
(-6.68124e-07 -4.40457e-07 0.102646)
(4.4396e-05 4.4415e-05 0.102585)
(4.25519e-05 4.25387e-05 0.102582)
(-4.44217e-05 -4.43873e-05 0.102585)
(6.99789e-07 4.7136e-07 0.102646)
(-6.94777e-07 4.64656e-07 0.102646)
(6.9193e-07 4.60711e-07 0.102646)
(-6.93103e-07 4.63575e-07 0.102646)
(-4.25543e-05 4.2527e-05 0.102582)
(4.44268e-05 -4.43949e-05 0.102585)
(4.5081e-07 6.76614e-07 0.102646)
(4.62728e-07 -6.91955e-07 0.102646)
(4.43417e-07 6.75517e-07 0.102646)
(4.61208e-07 -6.91452e-07 0.102646)
(-4.60318e-07 -6.89225e-07 0.102646)
(-4.40935e-07 6.72174e-07 0.102646)
(-4.60458e-07 -6.88207e-07 0.102646)
(4.25347e-05 -4.25647e-05 0.102582)
(-4.43913e-05 4.44274e-05 0.102585)
(-6.69226e-07 -4.40057e-07 0.102646)
(6.70545e-07 -4.39085e-07 0.102646)
(-6.68464e-07 -4.3963e-07 0.102646)
(4.43963e-05 4.44154e-05 0.102585)
(4.25551e-05 4.25323e-05 0.102582)
(-4.44219e-05 -4.43904e-05 0.102585)
(6.92265e-07 4.57887e-07 0.102646)
(-6.96117e-07 4.64176e-07 0.102646)
(6.92226e-07 4.58892e-07 0.102646)
(-6.96181e-07 4.63743e-07 0.102646)
(-4.25454e-05 4.25276e-05 0.102582)
(4.44227e-05 -4.43959e-05 0.102585)
(4.44707e-07 6.75304e-07 0.102646)
(4.6126e-07 -6.9269e-07 0.102646)
(4.40976e-07 6.72964e-07 0.102646)
(4.60422e-07 -6.91619e-07 0.102646)
(-4.59887e-07 -6.88891e-07 0.102646)
(-4.39379e-07 6.71809e-07 0.102646)
(-4.59714e-07 -6.88872e-07 0.102646)
(4.25339e-05 -4.25651e-05 0.102582)
(-4.43918e-05 4.44274e-05 0.102585)
(-6.69231e-07 -4.39097e-07 0.102646)
(6.69683e-07 -4.39178e-07 0.102646)
(-6.68688e-07 -4.38499e-07 0.102646)
(4.4397e-05 4.44151e-05 0.102585)
(4.25554e-05 4.25305e-05 0.102582)
(-4.44219e-05 -4.439e-05 0.102585)
(6.92845e-07 4.57172e-07 0.102646)
(-6.9711e-07 4.63531e-07 0.102646)
(6.92632e-07 4.59813e-07 0.102646)
(-6.97321e-07 4.64344e-07 0.102646)
(-4.2548e-05 4.25258e-05 0.102582)
(4.44219e-05 -4.43947e-05 0.102585)
(4.44484e-07 6.73601e-07 0.102646)
(4.61074e-07 -6.92727e-07 0.102646)
(4.40302e-07 6.72495e-07 0.102646)
(4.60493e-07 -6.9169e-07 0.102646)
(-4.59775e-07 -6.89392e-07 0.102646)
(-4.39149e-07 6.72158e-07 0.102646)
(-4.60034e-07 -6.88943e-07 0.102646)
(4.25334e-05 -4.2565e-05 0.102582)
(-4.43917e-05 4.44274e-05 0.102585)
(-6.69485e-07 -4.38321e-07 0.102646)
(6.69519e-07 -4.39548e-07 0.102646)
(-6.68589e-07 -4.37349e-07 0.102646)
(4.43969e-05 4.44152e-05 0.102585)
(4.25557e-05 4.2531e-05 0.102582)
(-4.44227e-05 -4.43909e-05 0.102585)
(6.93302e-07 4.57395e-07 0.102646)
(-6.98118e-07 4.64005e-07 0.102646)
(6.9219e-07 4.59184e-07 0.102646)
(-6.97262e-07 4.64144e-07 0.102646)
(-4.25486e-05 4.25269e-05 0.102582)
(4.44219e-05 -4.4395e-05 0.102585)
(4.44034e-07 6.73331e-07 0.102646)
(4.60966e-07 -6.92754e-07 0.102646)
(4.39734e-07 6.71437e-07 0.102646)
(4.60002e-07 -6.91514e-07 0.102646)
(-4.59656e-07 -6.89327e-07 0.102646)
(-4.38777e-07 6.71788e-07 0.102646)
(-4.59434e-07 -6.88864e-07 0.102646)
(4.25334e-05 -4.2565e-05 0.102582)
(-4.43923e-05 4.44276e-05 0.102585)
(-6.69422e-07 -4.38811e-07 0.102646)
(6.6905e-07 -4.39411e-07 0.102646)
(-6.68786e-07 -4.39159e-07 0.102646)
(4.43965e-05 4.4415e-05 0.102585)
(4.2555e-05 4.25301e-05 0.102582)
(-4.44221e-05 -4.43906e-05 0.102585)
(6.92652e-07 4.56967e-07 0.102646)
(-6.9821e-07 4.64053e-07 0.102646)
(6.92933e-07 4.59926e-07 0.102646)
(-6.97922e-07 4.64947e-07 0.102646)
(-4.25489e-05 4.25268e-05 0.102582)
(4.44213e-05 -4.43942e-05 0.102585)
(4.43685e-07 6.72267e-07 0.102646)
(4.60736e-07 -6.92809e-07 0.102646)
(4.40445e-07 6.71478e-07 0.102646)
(4.60621e-07 -6.92126e-07 0.102646)
(-4.59347e-07 -6.89381e-07 0.102646)
(-4.39561e-07 6.72385e-07 0.102646)
(-4.59982e-07 -6.89328e-07 0.102646)
(4.25332e-05 -4.2565e-05 0.102582)
(-4.43915e-05 4.44267e-05 0.102585)
(-6.69578e-07 -4.39748e-07 0.102646)
(6.69824e-07 -4.40219e-07 0.102646)
(-6.69287e-07 -4.40462e-07 0.102646)
(4.43958e-05 4.44144e-05 0.102585)
(4.25555e-05 4.25306e-05 0.102582)
(-4.44215e-05 -4.43899e-05 0.102585)
(6.93611e-07 4.57678e-07 0.102646)
(-6.98796e-07 4.64712e-07 0.102646)
(6.93897e-07 4.60287e-07 0.102646)
(-6.97613e-07 4.6502e-07 0.102646)
(-4.25499e-05 4.25278e-05 0.102582)
(4.44201e-05 -4.43935e-05 0.102585)
(4.44491e-07 6.7259e-07 0.102646)
(4.61291e-07 -6.93247e-07 0.102646)
(4.40682e-07 6.71924e-07 0.102646)
(4.60994e-07 -6.92139e-07 0.102646)
(-4.59998e-07 -6.90004e-07 0.102646)
(-4.39491e-07 6.72477e-07 0.102646)
(-4.59748e-07 -6.89274e-07 0.102646)
(4.25337e-05 -4.25656e-05 0.102582)
(-4.43913e-05 4.44269e-05 0.102585)
(-6.70129e-07 -4.40941e-07 0.102646)
(6.70173e-07 -4.40361e-07 0.102646)
(-6.69282e-07 -4.40706e-07 0.102646)
(4.43951e-05 4.44147e-05 0.102585)
(4.25573e-05 4.25328e-05 0.102582)
(-4.44204e-05 -4.43873e-05 0.102585)
(6.94959e-07 4.58758e-07 0.102646)
(-6.98531e-07 4.64971e-07 0.102646)
(6.94662e-07 4.61657e-07 0.102646)
(-6.97782e-07 4.65872e-07 0.102646)
(-4.25491e-05 4.25275e-05 0.102582)
(4.44191e-05 -4.43919e-05 0.102585)
(4.44893e-07 6.73396e-07 0.102646)
(4.61934e-07 -6.93332e-07 0.102646)
(4.40889e-07 6.72711e-07 0.102646)
(4.61533e-07 -6.9223e-07 0.102646)
(-4.5978e-07 -6.89749e-07 0.102646)
(-4.40043e-07 6.73023e-07 0.102646)
(-4.60299e-07 -6.8958e-07 0.102646)
(4.25352e-05 -4.25667e-05 0.102582)
(-4.43899e-05 4.44258e-05 0.102585)
(-6.70218e-07 -4.41332e-07 0.102646)
(6.70508e-07 -4.40857e-07 0.102646)
(-6.69889e-07 -4.41445e-07 0.102646)
(4.43941e-05 4.4413e-05 0.102585)
(4.25561e-05 4.25327e-05 0.102582)
(-4.44195e-05 -4.43864e-05 0.102585)
(6.95178e-07 4.59452e-07 0.102646)
(-6.9905e-07 4.65775e-07 0.102646)
(6.94099e-07 4.61009e-07 0.102646)
(-6.97191e-07 4.65386e-07 0.102646)
(-4.2548e-05 4.25268e-05 0.102582)
(4.44194e-05 -4.43919e-05 0.102585)
(4.44833e-07 6.73812e-07 0.102646)
(4.62169e-07 -6.9339e-07 0.102646)
(4.39992e-07 6.72248e-07 0.102646)
(4.60162e-07 -6.91135e-07 0.102646)
(-4.60356e-07 -6.9033e-07 0.102646)
(-4.39909e-07 6.72886e-07 0.102646)
(-4.59838e-07 -6.89259e-07 0.102646)
(4.25342e-05 -4.25655e-05 0.102582)
(-4.43896e-05 4.44254e-05 0.102585)
(-6.70629e-07 -4.41866e-07 0.102646)
(6.69425e-07 -4.39624e-07 0.102646)
(-6.69274e-07 -4.4068e-07 0.102646)
(4.43932e-05 4.44119e-05 0.102585)
(4.25532e-05 4.25299e-05 0.102582)
(-4.4415e-05 -4.4382e-05 0.102585)
(6.94959e-07 4.59571e-07 0.102646)
(-6.98637e-07 4.65029e-07 0.102646)
(6.93141e-07 4.5967e-07 0.102646)
(-6.96243e-07 4.64049e-07 0.102646)
(-4.25476e-05 4.2526e-05 0.102582)
(4.44161e-05 -4.43886e-05 0.102585)
(4.44722e-07 6.73651e-07 0.102646)
(4.61673e-07 -6.9276e-07 0.102646)
(4.38725e-07 6.71323e-07 0.102646)
(4.59431e-07 -6.91086e-07 0.102646)
(-4.59661e-07 -6.89782e-07 0.102646)
(-4.39254e-07 6.72414e-07 0.102646)
(-4.59153e-07 -6.88537e-07 0.102646)
(4.25308e-05 -4.25622e-05 0.102582)
(-4.43842e-05 4.44199e-05 0.102585)
(-6.70406e-07 -4.41795e-07 0.102646)
(6.6932e-07 -4.38849e-07 0.102646)
(-6.68383e-07 -4.39304e-07 0.102646)
(4.43883e-05 4.44075e-05 0.102585)
(4.25454e-05 4.2522e-05 0.102582)
(6.94526e-07 4.58199e-07 0.102646)
(-6.98601e-07 4.64551e-07 0.102646)
(-4.25418e-05 4.252e-05 0.102582)
(4.43583e-07 6.73192e-07 0.102646)
(4.60828e-07 -6.92833e-07 0.102646)
(-4.57949e-07 -6.89285e-07 0.102646)
(4.25239e-05 -4.25554e-05 0.102582)
(-6.69877e-07 -4.40759e-07 0.102646)
(6.38066e-08 -9.08598e-06 0.100641)
(7.26227e-07 6.64354e-06 0.0938787)
(-6.41451e-08 8.82193e-06 0.100631)
(-1.10025e-06 -6.51846e-06 0.0938938)
(-1.85681e-06 2.64905e-06 0.0820657)
(1.78411e-06 -2.60375e-06 0.0820813)
(-9.14397e-06 5.3354e-08 0.10064)
(6.58948e-06 6.81159e-07 0.0938777)
(8.88927e-06 -5.03283e-08 0.100631)
(-6.45299e-06 -1.06553e-06 0.0938945)
(6.66473e-07 -6.43683e-07 0.10269)
(-6.5142e-07 6.57487e-07 0.10269)
(6.5399e-07 6.49741e-07 0.10269)
(-6.60068e-07 -6.60486e-07 0.10269)
(6.74256e-07 -6.55604e-07 0.10269)
(-6.55579e-07 6.627e-07 0.10269)
(6.59676e-07 6.54323e-07 0.10269)
(1.46926e-05 5.87979e-08 0.102241)
(-1.42704e-05 4.09077e-06 0.100957)
(-5.68242e-07 -1.77116e-07 0.102677)
(-4.45628e-07 6.68785e-07 0.102646)
(-1.48081e-05 -7.28745e-08 0.102237)
(1.36789e-05 -4.43968e-06 0.100972)
(-5.63081e-07 -1.79408e-07 0.102677)
(2.59039e-06 -1.82949e-06 0.082063)
(-2.50483e-06 1.73773e-06 0.0820818)
(7.1708e-08 1.47032e-05 0.102241)
(-1.78259e-07 -5.58835e-07 0.102677)
(4.13145e-06 -1.43339e-05 0.100957)
(6.73364e-07 -4.40434e-07 0.102646)
(-7.53058e-08 -1.48209e-05 0.102237)
(-1.78744e-07 -5.50082e-07 0.102677)
(-4.46878e-06 1.37212e-05 0.100971)
(-4.40982e-06 -5.40431e-06 0.0986194)
(-5.39041e-06 -4.40439e-06 0.0986188)
(4.43724e-05 4.43902e-05 0.102585)
(4.16766e-06 5.23646e-06 0.0986352)
(5.23036e-06 4.15918e-06 0.0986343)
(6.13995e-08 -9.10248e-06 0.100641)
(7.13581e-07 6.58801e-06 0.093879)
(-5.68959e-08 8.78974e-06 0.100631)
(-1.09424e-06 -6.54924e-06 0.0938941)
(-1.83867e-06 2.60388e-06 0.0820658)
(1.81223e-06 -2.66626e-06 0.0820819)
(-9.16885e-06 4.76032e-08 0.10064)
(6.53603e-06 6.69302e-07 0.093878)
(8.85923e-06 -4.97589e-08 0.100631)
(-6.4909e-06 -1.05524e-06 0.0938948)
(6.76844e-07 -6.59415e-07 0.10269)
(-6.60887e-07 6.66902e-07 0.10269)
(6.63292e-07 6.58648e-07 0.10269)
(-6.70103e-07 -6.67367e-07 0.10269)
(6.77341e-07 -6.72699e-07 0.10269)
(-6.63604e-07 6.69704e-07 0.10269)
(6.65661e-07 6.65006e-07 0.10269)
(1.47279e-05 5.66267e-08 0.102241)
(-1.42388e-05 4.0557e-06 0.100957)
(-5.46328e-07 -1.85269e-07 0.102677)
(-4.27043e-07 6.62097e-07 0.102646)
(-1.47675e-05 -7.57913e-08 0.102237)
(1.37133e-05 -4.47563e-06 0.100972)
(-5.34165e-07 -1.84592e-07 0.102677)
(2.50767e-06 -1.77855e-06 0.082063)
(-2.55e-06 1.76778e-06 0.0820821)
(6.95054e-08 1.47408e-05 0.102241)
(-1.82814e-07 -5.40297e-07 0.102677)
(4.09358e-06 -1.42921e-05 0.100957)
(6.62936e-07 -4.2234e-07 0.102646)
(-7.60796e-08 -1.47788e-05 0.102237)
(-1.8426e-07 -5.24981e-07 0.102677)
(-4.50244e-06 1.37595e-05 0.100971)
(-4.41083e-06 -5.39509e-06 0.0986195)
(-5.38132e-06 -4.40578e-06 0.0986189)
(4.43836e-05 4.44017e-05 0.102585)
(4.14677e-06 5.24835e-06 0.0986352)
(5.24164e-06 4.13836e-06 0.0986344)
(5.0741e-08 -9.1559e-06 0.100641)
(7.27018e-07 6.55422e-06 0.0938794)
(-6.43388e-08 8.75342e-06 0.100631)
(-1.08812e-06 -6.57843e-06 0.0938946)
(-1.80097e-06 2.53326e-06 0.0820668)
(1.79816e-06 -2.64623e-06 0.0820831)
(-9.21617e-06 4.4789e-08 0.10064)
(6.50129e-06 6.83195e-07 0.0938785)
(8.81844e-06 -5.187e-08 0.100631)
(-6.52109e-06 -1.04836e-06 0.0938953)
(6.8158e-07 -6.76351e-07 0.10269)
(-6.72662e-07 6.7835e-07 0.10269)
(6.73674e-07 6.73489e-07 0.10269)
(-6.86342e-07 -6.75419e-07 0.10269)
(6.79165e-07 -6.71292e-07 0.10269)
(-6.78372e-07 6.84046e-07 0.10269)
(6.75869e-07 6.8174e-07 0.10269)
(1.4781e-05 5.54133e-08 0.102241)
(-1.41992e-05 4.01686e-06 0.100957)
(-5.10316e-07 -1.89018e-07 0.102677)
(-3.86822e-07 6.45729e-07 0.102646)
(-1.47274e-05 -7.64359e-08 0.102237)
(1.37747e-05 -4.49795e-06 0.100972)
(-4.92078e-07 -1.86502e-07 0.102677)
(2.44756e-06 -1.74059e-06 0.0820638)
(-2.57997e-06 1.74397e-06 0.0820832)
(6.46522e-08 1.47897e-05 0.102241)
(-1.90176e-07 -5.15416e-07 0.102677)
(4.07187e-06 -1.42534e-05 0.100957)
(6.43141e-07 -3.88325e-07 0.102646)
(-8.02293e-08 -1.47426e-05 0.102237)
(-1.901e-07 -4.86506e-07 0.102677)
(-4.53981e-06 1.38063e-05 0.100971)
(-4.42517e-06 -5.38682e-06 0.0986195)
(-5.37538e-06 -4.41855e-06 0.0986189)
(4.44048e-05 4.44243e-05 0.102584)
(4.16525e-06 5.25427e-06 0.0986352)
(5.24551e-06 4.16066e-06 0.0986344)
(4.22672e-08 -9.19866e-06 0.100641)
(7.0783e-07 6.52384e-06 0.09388)
(-8.85195e-08 8.71724e-06 0.100631)
(-1.08223e-06 -6.59243e-06 0.0938953)
(-1.94814e-06 2.61827e-06 0.0820684)
(1.95807e-06 -2.70919e-06 0.0820848)
(-9.26358e-06 4.29651e-08 0.10064)
(6.46922e-06 6.7432e-07 0.093879)
(8.78204e-06 -5.85698e-08 0.100631)
(-6.54117e-06 -1.03119e-06 0.093896)
(6.8364e-07 -6.80827e-07 0.10269)
(-6.79102e-07 6.84134e-07 0.10269)
(6.75987e-07 6.80475e-07 0.10269)
(-7.09803e-07 -6.76648e-07 0.10269)
(6.54273e-07 -6.38633e-07 0.10269)
(-6.91229e-07 6.97137e-07 0.10269)
(6.79216e-07 7.04165e-07 0.10269)
(1.48036e-05 6.1966e-08 0.102241)
(-1.41642e-05 4.0208e-06 0.100957)
(-5.11609e-07 -1.83784e-07 0.102677)
(-3.45922e-07 6.04414e-07 0.102646)
(-1.46953e-05 -7.59345e-08 0.102237)
(1.38142e-05 -4.56354e-06 0.100972)
(-4.77243e-07 -1.90177e-07 0.102677)
(2.41025e-06 -1.74995e-06 0.0820653)
(-2.54962e-06 1.76507e-06 0.0820846)
(6.06671e-08 1.48132e-05 0.102241)
(-1.92785e-07 -5.22049e-07 0.102677)
(4.02111e-06 -1.42177e-05 0.100957)
(6.28026e-07 -3.69964e-07 0.102646)
(-8.56235e-08 -1.47081e-05 0.102237)
(-1.92273e-07 -4.76421e-07 0.102677)
(-4.55737e-06 1.38376e-05 0.100971)
(-4.37227e-06 -5.3655e-06 0.0986195)
(-5.35925e-06 -4.36117e-06 0.0986189)
(4.4421e-05 4.44462e-05 0.102584)
(4.16114e-06 5.29651e-06 0.0986353)
(5.28079e-06 4.15909e-06 0.0986344)
(5.07375e-08 -9.00141e-06 0.100641)
(6.79951e-07 6.52775e-06 0.0938807)
(-1.42255e-07 8.70855e-06 0.100631)
(-1.02716e-06 -6.3652e-06 0.0938961)
(-2.10429e-06 2.66688e-06 0.0820697)
(1.5772e-06 -2.34983e-06 0.0820845)
(-9.07335e-06 9.45634e-08 0.10064)
(6.46604e-06 6.75492e-07 0.0938797)
(8.74214e-06 -5.34211e-08 0.100631)
(-6.32338e-06 -9.92089e-07 0.0938967)
(5.96039e-07 -5.84887e-07 0.10269)
(-6.47801e-07 6.53211e-07 0.10269)
(6.36445e-07 6.58186e-07 0.10269)
(-5.73351e-07 -5.73929e-07 0.10269)
(5.97481e-07 -6.02549e-07 0.10269)
(-5.70977e-07 5.76354e-07 0.10269)
(5.73469e-07 5.701e-07 0.10269)
(1.45109e-05 1.29995e-07 0.102241)
(-1.42461e-05 4.17116e-06 0.100956)
(-5.94546e-07 -1.23363e-07 0.102677)
(-5.67385e-07 7.84412e-07 0.102646)
(-1.46919e-05 -3.06709e-08 0.102236)
(1.34632e-05 -4.24097e-06 0.100972)
(-6.84496e-07 -1.18096e-07 0.102677)
(2.42843e-06 -1.82881e-06 0.0820674)
(-2.32226e-06 1.5278e-06 0.0820858)
(8.64738e-08 1.45352e-05 0.102241)
(-1.82066e-07 -5.61595e-07 0.102677)
(4.02391e-06 -1.42222e-05 0.100957)
(7.62362e-07 -5.5511e-07 0.102646)
(-8.32908e-08 -1.46828e-05 0.102236)
(-1.5755e-07 -6.66662e-07 0.102677)
(-4.40063e-06 1.35886e-05 0.100971)
(-4.33615e-06 -5.379e-06 0.0986197)
(-5.38068e-06 -4.31759e-06 0.0986191)
(4.42584e-05 4.42867e-05 0.102584)
(4.02987e-06 5.12354e-06 0.0986354)
(5.11177e-06 4.02696e-06 0.0986345)
(6.5994e-08 -8.92297e-06 0.100641)
(8.02696e-07 7.12597e-06 0.0938799)
(-5.112e-08 9.09909e-06 0.100631)
(-1.0433e-06 -6.21589e-06 0.0938943)
(-1.74973e-06 2.70163e-06 0.0820654)
(1.83065e-06 -2.501e-06 0.082082)
(-8.97862e-06 1.93796e-08 0.10064)
(7.09413e-06 7.50086e-07 0.0938791)
(9.17192e-06 -9.2545e-08 0.100631)
(-6.17752e-06 -1.01216e-06 0.0938949)
(6.33278e-07 -6.34103e-07 0.10269)
(-6.03048e-07 6.08617e-07 0.10269)
(6.07149e-07 6.02169e-07 0.10269)
(-6.63677e-07 -6.53537e-07 0.10269)
(6.65799e-07 -6.53441e-07 0.10269)
(-6.59454e-07 6.6697e-07 0.10269)
(6.60708e-07 6.6239e-07 0.10269)
(1.45438e-05 3.77909e-08 0.102241)
(-1.45139e-05 4.22577e-06 0.100957)
(-6.4993e-07 -1.83967e-07 0.102677)
(-4.52078e-07 6.57116e-07 0.102646)
(-1.51622e-05 -9.16478e-08 0.102237)
(1.35676e-05 -4.36284e-06 0.100972)
(-6.02077e-07 -1.86146e-07 0.102677)
(2.69991e-06 -1.78285e-06 0.0820642)
(-2.41448e-06 1.76965e-06 0.0820822)
(7.12794e-08 1.45465e-05 0.102241)
(-1.59124e-07 -6.60667e-07 0.102677)
(4.35953e-06 -1.46022e-05 0.100957)
(6.6226e-07 -4.59344e-07 0.102646)
(-6.24726e-08 -1.5178e-05 0.102237)
(-1.71255e-07 -6.04529e-07 0.102677)
(-4.33993e-06 1.35813e-05 0.100971)
(-4.50663e-06 -5.40611e-06 0.0986193)
(-5.39057e-06 -4.50595e-06 0.0986187)
(4.43986e-05 4.44111e-05 0.102585)
(4.12484e-06 5.26403e-06 0.098635)
(5.25976e-06 4.11385e-06 0.0986341)
(6.11799e-08 -9.06066e-06 0.100641)
(7.87795e-07 6.69722e-06 0.0938786)
(-6.37344e-08 8.8415e-06 0.100631)
(-9.50515e-07 -6.40344e-06 0.0938939)
(-1.92282e-06 2.70488e-06 0.0820656)
(1.75707e-06 -2.57186e-06 0.0820811)
(-9.13256e-06 5.00154e-08 0.10064)
(6.64883e-06 7.10393e-07 0.0938779)
(8.89982e-06 -4.79696e-08 0.100631)
(-6.41868e-06 -1.03428e-06 0.0938942)
(6.62643e-07 -6.48553e-07 0.10269)
(-6.5983e-07 6.68342e-07 0.10269)
(6.61296e-07 6.62713e-07 0.10269)
(-6.53924e-07 -6.44369e-07 0.10269)
(6.6235e-07 -6.47551e-07 0.10269)
(-6.5223e-07 6.64332e-07 0.10269)
(6.61211e-07 6.51762e-07 0.10269)
(1.46817e-05 6.95829e-08 0.102241)
(-1.42773e-05 4.10296e-06 0.100957)
(-5.58392e-07 -1.70946e-07 0.102677)
(-4.37082e-07 6.86592e-07 0.102646)
(-1.4817e-05 -6.77097e-08 0.102237)
(1.36789e-05 -4.41974e-06 0.100972)
(-5.55262e-07 -1.68983e-07 0.102677)
(2.53616e-06 -1.76722e-06 0.082063)
(-2.49721e-06 1.74772e-06 0.0820819)
(7.01784e-08 1.46922e-05 0.102241)
(-1.80986e-07 -5.54563e-07 0.102677)
(4.12778e-06 -1.43383e-05 0.100957)
(6.64061e-07 -4.31939e-07 0.102646)
(-7.74405e-08 -1.48326e-05 0.102237)
(-1.80256e-07 -5.46369e-07 0.102677)
(-4.47737e-06 1.37198e-05 0.100971)
(-4.42399e-06 -5.3903e-06 0.0986194)
(-5.37836e-06 -4.4174e-06 0.0986187)
(4.44002e-05 4.44211e-05 0.102585)
(4.14367e-06 5.25104e-06 0.0986351)
(5.24155e-06 4.1376e-06 0.0986343)
(6.6708e-08 -9.07118e-06 0.100641)
(7.36682e-07 6.63374e-06 0.0938786)
(-6.04879e-08 8.82305e-06 0.100631)
(-1.0381e-06 -6.43014e-06 0.093894)
(-1.80048e-06 2.63067e-06 0.0820656)
(1.92808e-06 -2.67202e-06 0.0820809)
(-9.13455e-06 4.57162e-08 0.10064)
(6.63432e-06 7.11095e-07 0.093878)
(8.88054e-06 -4.7707e-08 0.100631)
(-6.44002e-06 -1.04715e-06 0.0938941)
(6.64555e-07 -6.53637e-07 0.10269)
(-6.51008e-07 6.62642e-07 0.10269)
(6.6115e-07 6.4896e-07 0.10269)
(-6.46264e-07 -6.46345e-07 0.10269)
(6.62486e-07 -6.56222e-07 0.10269)
(-6.49432e-07 6.58447e-07 0.10269)
(6.54272e-07 6.50906e-07 0.10269)
(1.46753e-05 5.97402e-08 0.102241)
(-1.4276e-05 4.0797e-06 0.100957)
(-5.57354e-07 -1.77368e-07 0.102677)
(-4.39024e-07 6.6143e-07 0.102646)
(-1.48169e-05 -7.05082e-08 0.102237)
(1.36684e-05 -4.44642e-06 0.100972)
(-5.55109e-07 -1.81061e-07 0.102677)
(2.52408e-06 -1.77994e-06 0.082063)
(-2.49968e-06 1.74289e-06 0.0820819)
(7.03732e-08 1.4688e-05 0.102241)
(-1.79187e-07 -5.55872e-07 0.102677)
(4.12287e-06 -1.43256e-05 0.100957)
(6.71277e-07 -4.365e-07 0.102646)
(-7.60895e-08 -1.48271e-05 0.102237)
(-1.79048e-07 -5.50874e-07 0.102677)
(-4.47338e-06 1.37197e-05 0.100971)
(-4.42431e-06 -5.39622e-06 0.0986194)
(-5.38506e-06 -4.41771e-06 0.0986188)
(4.43946e-05 4.44153e-05 0.102585)
(4.14402e-06 5.24834e-06 0.0986351)
(5.24067e-06 4.1368e-06 0.0986343)
(6.50548e-08 -9.07246e-06 0.100641)
(7.97029e-07 6.6625e-06 0.0938783)
(-5.32337e-08 8.82424e-06 0.100631)
(-1.04033e-06 -6.38804e-06 0.0938943)
(-1.80141e-06 2.46011e-06 0.0820657)
(1.79148e-06 -2.69691e-06 0.0820812)
(-9.13442e-06 4.17223e-08 0.10064)
(6.66401e-06 7.12673e-07 0.0938783)
(8.88078e-06 -5.19781e-08 0.100631)
(-6.45342e-06 -1.05698e-06 0.0938939)
(6.57535e-07 -6.52924e-07 0.10269)
(-6.50452e-07 6.57429e-07 0.10269)
(6.53166e-07 6.51251e-07 0.10269)
(-6.55518e-07 -6.52619e-07 0.10269)
(6.57736e-07 -6.51636e-07 0.10269)
(-6.51768e-07 6.57585e-07 0.10269)
(6.53224e-07 6.52128e-07 0.10269)
(1.46758e-05 6.37245e-08 0.102241)
(-1.42772e-05 4.09311e-06 0.100957)
(-5.60239e-07 -1.77531e-07 0.102677)
(-4.43108e-07 6.74842e-07 0.102646)
(-1.48176e-05 -6.97014e-08 0.102237)
(1.36724e-05 -4.43066e-06 0.100972)
(-5.59447e-07 -1.76621e-07 0.102677)
(2.52383e-06 -1.78121e-06 0.082063)
(-2.50007e-06 1.74171e-06 0.0820819)
(7.02721e-08 1.46867e-05 0.102241)
(-1.79087e-07 -5.57983e-07 0.102677)
(4.12403e-06 -1.43267e-05 0.100957)
(6.71548e-07 -4.39208e-07 0.102646)
(-7.61842e-08 -1.48295e-05 0.102237)
(-1.79317e-07 -5.51309e-07 0.102677)
(-4.47368e-06 1.37188e-05 0.100971)
(-4.42377e-06 -5.3966e-06 0.0986194)
(-5.38463e-06 -4.4178e-06 0.0986188)
(4.43948e-05 4.44141e-05 0.102585)
(4.14428e-06 5.24838e-06 0.0986351)
(5.24078e-06 4.13748e-06 0.0986343)
(5.14538e-08 -9.07227e-06 0.100641)
(7.30875e-07 6.61277e-06 0.0938782)
(-6.73061e-08 8.82091e-06 0.100631)
(-1.05855e-06 -6.40499e-06 0.0938942)
(-1.85882e-06 2.62583e-06 0.0820658)
(1.80148e-06 -2.62093e-06 0.0820813)
(-9.1342e-06 3.98379e-08 0.10064)
(6.66618e-06 7.13392e-07 0.0938783)
(8.88174e-06 -5.36683e-08 0.100631)
(-6.44776e-06 -1.05451e-06 0.093894)
(6.57448e-07 -6.54633e-07 0.10269)
(-6.52503e-07 6.5735e-07 0.10269)
(6.52925e-07 6.5334e-07 0.10269)
(-6.58125e-07 -6.53528e-07 0.10269)
(6.57275e-07 -6.56259e-07 0.10269)
(-6.52667e-07 6.57056e-07 0.10269)
(6.52612e-07 6.54369e-07 0.10269)
(1.46765e-05 6.22941e-08 0.102241)
(-1.42771e-05 4.08494e-06 0.100957)
(-5.57374e-07 -1.78529e-07 0.102677)
(-4.40665e-07 6.72748e-07 0.102646)
(-1.48178e-05 -7.13507e-08 0.102237)
(1.36711e-05 -4.43255e-06 0.100972)
(-5.54796e-07 -1.77929e-07 0.102677)
(2.52314e-06 -1.78231e-06 0.082063)
(-2.50055e-06 1.74085e-06 0.0820819)
(6.9701e-08 1.46868e-05 0.102241)
(-1.79727e-07 -5.56497e-07 0.102677)
(4.12351e-06 -1.43269e-05 0.100957)