/*--------------------------------*- C++ -*----------------------------------*\
| =========                 |                                                 |
| \\      /  F ield         | OpenFOAM: The Open Source CFD Toolbox           |
|  \\    /   O peration     | Version:  2206                                  |
|   \\  /    A nd           | Website:  www.openfoam.com                      |
|    \\/     M anipulation  |                                                 |
\*---------------------------------------------------------------------------*/
FoamFile
{
    version     2.0;
    format      ascii;
    arch        "LSB;label=32;scalar=64";
    class       volScalarField;
    location    "4.5";
    object      epsilon;
}
// * * * * * * * * * * * * * * * * * * * * * * * * * * * * * * * * * * * * * //

dimensions      [0 2 -3 0 0 0 0];

internalField   nonuniform List<scalar> 
28673
(
4.79199e-07
4.80659e-07
4.7802e-07
4.78959e-07
4.79115e-07
4.80509e-07
4.77805e-07
4.78905e-07
4.78908e-07
4.8039e-07
4.77804e-07
4.78906e-07
4.78907e-07
4.80391e-07
4.77804e-07
4.78906e-07
4.78906e-07
4.80391e-07
4.77804e-07
4.78906e-07
4.78906e-07
4.80391e-07
4.77804e-07
4.78906e-07
4.78906e-07
4.80391e-07
4.77804e-07
4.78906e-07
4.78906e-07
4.80391e-07
4.77804e-07
4.78906e-07
4.78906e-07
4.80391e-07
4.77804e-07
4.78906e-07
4.78906e-07
4.80391e-07
4.77804e-07
4.78906e-07
4.78906e-07
4.80391e-07
4.77804e-07
4.789e-07
4.78901e-07
4.80384e-07
4.77792e-07
4.78355e-07
4.78355e-07
4.80061e-07
4.79204e-07
4.80641e-07
4.79203e-07
4.80636e-07
4.79203e-07
4.792e-07
4.79133e-07
4.79034e-07
4.80667e-07
4.80427e-07
4.7918e-07
4.79181e-07
4.79202e-07
4.79039e-07
4.79124e-07
4.80634e-07
4.79201e-07
4.79179e-07
4.79124e-07
4.80544e-07
4.8063e-07
4.8037e-07
4.79032e-07
4.78961e-07
4.78909e-07
4.78906e-07
4.80433e-07
4.80368e-07
4.79127e-07
4.79128e-07
4.78917e-07
4.78918e-07
4.7902e-07
4.78905e-07
4.78908e-07
4.80638e-07
4.80373e-07
4.7902e-07
4.78916e-07
4.78908e-07
4.8037e-07
4.80392e-07
4.8037e-07
4.7891e-07
4.7891e-07
4.78907e-07
4.78907e-07
4.80392e-07
4.80369e-07
4.78912e-07
4.78913e-07
4.78907e-07
4.78908e-07
4.7891e-07
4.78907e-07
4.78907e-07
4.80393e-07
4.8037e-07
4.7891e-07
4.78908e-07
4.78907e-07
4.80372e-07
4.80394e-07
4.8037e-07
4.78911e-07
4.7891e-07
4.78907e-07
4.78907e-07
4.80393e-07
4.80369e-07
4.7891e-07
4.78911e-07
4.78907e-07
4.78908e-07
4.78911e-07
4.78907e-07
4.78907e-07
4.80394e-07
4.8037e-07
4.7891e-07
4.78907e-07
4.78907e-07
4.80372e-07
4.80394e-07
4.8037e-07
4.78911e-07
4.7891e-07
4.78907e-07
4.78907e-07
4.80393e-07
4.80369e-07
4.7891e-07
4.78911e-07
4.78907e-07
4.78908e-07
4.78911e-07
4.78907e-07
4.78907e-07
4.80394e-07
4.8037e-07
4.7891e-07
4.78907e-07
4.78907e-07
4.80372e-07
4.80394e-07
4.8037e-07
4.78911e-07
4.7891e-07
4.78907e-07
4.78907e-07
4.80393e-07
4.80369e-07
4.7891e-07
4.78911e-07
4.78907e-07
4.78908e-07
4.78911e-07
4.78907e-07
4.78907e-07
4.80394e-07
4.8037e-07
4.7891e-07
4.78907e-07
4.78907e-07
4.80372e-07
4.80394e-07
4.8037e-07
4.78911e-07
4.78911e-07
4.78907e-07
4.78907e-07
4.80393e-07
4.80369e-07
4.7891e-07
4.78911e-07
4.78907e-07
4.78908e-07
4.78911e-07
4.78907e-07
4.78907e-07
4.80393e-07
4.8037e-07
4.7891e-07
4.78907e-07
4.78907e-07
4.80372e-07
4.80394e-07
4.8037e-07
4.78911e-07
4.78911e-07
4.78907e-07
4.78907e-07
4.80393e-07
4.80369e-07
4.7891e-07
4.78911e-07
4.78907e-07
4.78908e-07
4.78911e-07
4.78907e-07
4.78907e-07
4.80394e-07
4.8037e-07
4.7891e-07
4.78907e-07
4.78907e-07
4.80372e-07
4.80394e-07
4.8037e-07
4.78911e-07
4.78911e-07
4.78907e-07
4.78907e-07
4.80393e-07
4.80369e-07
4.7891e-07
4.78911e-07
4.78907e-07
4.78908e-07
4.78911e-07
4.78907e-07
4.78907e-07
4.80394e-07
4.8037e-07
4.7891e-07
4.78907e-07
4.78907e-07
4.80372e-07
4.80394e-07
4.8037e-07
4.78911e-07
4.78911e-07
4.78907e-07
4.78907e-07
4.80393e-07
4.80369e-07
4.7891e-07
4.78911e-07
4.78907e-07
4.78908e-07
4.78911e-07
4.78907e-07
4.78907e-07
4.80394e-07
4.8037e-07
4.7891e-07
4.78907e-07
4.78907e-07
4.80372e-07
4.80394e-07
4.80368e-07
4.78911e-07
4.7891e-07
4.78903e-07
4.78903e-07
4.80393e-07
4.80366e-07
4.7891e-07
4.78911e-07
4.78903e-07
4.78904e-07
4.7891e-07
4.78906e-07
4.78903e-07
4.80394e-07
4.80367e-07
4.7891e-07
4.78906e-07
4.78903e-07
4.80371e-07
4.80391e-07
4.80197e-07
4.78909e-07
4.78908e-07
4.78592e-07
4.78592e-07
4.8039e-07
4.80197e-07
4.78908e-07
4.78909e-07
4.78592e-07
4.78592e-07
4.78908e-07
4.78594e-07
4.78592e-07
4.80391e-07
4.80198e-07
4.78908e-07
4.78594e-07
4.78592e-07
4.80197e-07
4.80064e-07
4.78358e-07
4.78357e-07
4.80063e-07
4.78358e-07
4.78357e-07
4.77788e-07
4.77788e-07
4.77789e-07
4.78358e-07
4.80064e-07
4.78358e-07
9.96156e-07
5.12099e-06
9.9626e-07
5.12118e-06
1.69144e-05
1.69174e-05
9.96049e-07
5.12191e-06
4.78119e-07
4.78114e-07
4.7809e-07
4.78022e-07
4.7809e-07
4.78031e-07
5.3475e-07
8.71585e-07
4.78275e-07
4.79187e-07
5.34806e-07
8.7152e-07
4.78269e-07
1.69183e-05
5.34763e-07
4.78273e-07
4.79205e-07
5.34826e-07
4.78268e-07
8.7137e-07
1.51237e-06
1.51264e-06
4.80639e-07
1.51248e-06
1.51276e-06
9.98004e-07
5.12872e-06
9.97731e-07
5.12972e-06
1.69658e-05
1.69648e-05
9.97721e-07
5.12426e-06
9.96608e-07
5.13014e-06
4.77916e-07
4.78029e-07
4.77924e-07
4.77814e-07
4.77805e-07
4.77814e-07
4.77805e-07
5.34879e-07
8.72919e-07
4.78074e-07
4.78926e-07
5.3488e-07
8.72777e-07
4.78011e-07
1.69316e-05
1.69652e-05
5.34892e-07
4.78084e-07
8.71956e-07
4.79018e-07
5.34892e-07
4.78017e-07
8.72541e-07
1.51586e-06
1.51614e-06
4.80383e-07
1.51631e-06
1.51659e-06
9.98011e-07
5.13004e-06
9.98161e-07
5.12981e-06
1.69662e-05
1.69649e-05
9.97919e-07
5.13081e-06
9.98058e-07
5.13057e-06
4.77807e-07
4.77809e-07
4.77808e-07
4.77806e-07
4.77804e-07
4.77804e-07
4.77804e-07
5.34879e-07
8.72982e-07
4.77963e-07
4.7891e-07
5.3492e-07
8.72771e-07
4.77968e-07
1.69684e-05
1.69671e-05
5.34895e-07
4.77963e-07
8.72932e-07
4.7891e-07
5.34942e-07
4.77968e-07
8.72741e-07
1.51647e-06
1.51675e-06
4.80375e-07
1.51627e-06
1.51655e-06
9.98011e-07
5.13003e-06
9.98157e-07
5.12981e-06
1.69662e-05
1.6965e-05
9.97916e-07
5.13078e-06
9.98048e-07
5.13057e-06
4.77807e-07
4.77807e-07
4.77808e-07
4.77804e-07
4.77804e-07
4.77804e-07
4.77804e-07
5.34881e-07
8.72982e-07
4.77963e-07
4.7891e-07
5.34922e-07
8.72772e-07
4.77967e-07
1.69682e-05
1.69671e-05
5.34898e-07
4.77964e-07
8.72931e-07
4.7891e-07
5.34943e-07
4.77967e-07
8.7274e-07
1.51646e-06
1.51674e-06
4.80376e-07
1.51627e-06
1.51655e-06
9.98011e-07
5.13003e-06
9.98157e-07
5.12981e-06
1.69662e-05
1.6965e-05
9.97916e-07
5.13078e-06
9.98048e-07
5.13057e-06
4.77807e-07
4.77807e-07
4.77808e-07
4.77805e-07
4.77804e-07
4.77804e-07
4.77804e-07
5.34881e-07
8.72982e-07
4.77963e-07
4.78909e-07
5.34923e-07
8.72771e-07
4.77967e-07
1.69682e-05
1.69671e-05
5.34898e-07
4.77963e-07
8.72931e-07
4.7891e-07
5.34942e-07
4.77967e-07
8.7274e-07
1.51646e-06
1.51674e-06
4.80376e-07
1.51627e-06
1.51655e-06
9.98011e-07
5.13003e-06
9.98158e-07
5.12981e-06
1.69662e-05
1.6965e-05
9.97916e-07
5.13078e-06
9.98048e-07
5.13057e-06
4.77807e-07
4.77807e-07
4.77808e-07
4.77805e-07
4.77804e-07
4.77804e-07
4.77804e-07
5.34881e-07
8.72982e-07
4.77963e-07
4.78909e-07
5.34921e-07
8.72771e-07
4.77967e-07
1.69682e-05
1.69671e-05
5.34898e-07
4.77963e-07
8.72931e-07
4.7891e-07
5.34942e-07
4.77967e-07
8.7274e-07
1.51646e-06
1.51674e-06
4.80375e-07
1.51627e-06
1.51655e-06
9.98011e-07
5.13003e-06
9.98157e-07
5.12981e-06
1.69662e-05
1.6965e-05
9.97916e-07
5.13078e-06
9.98047e-07
5.13057e-06
4.77807e-07
4.77807e-07
4.77808e-07
4.77805e-07
4.77804e-07
4.77804e-07
4.77804e-07
5.34881e-07
8.72982e-07
4.77963e-07
4.7891e-07
5.34921e-07
8.72771e-07
4.77967e-07
1.69682e-05
1.69671e-05
5.34896e-07
4.77963e-07
8.72931e-07
4.7891e-07
5.34941e-07
4.77967e-07
8.7274e-07
1.51646e-06
1.51674e-06
4.80376e-07
1.51627e-06
1.51655e-06
9.98011e-07
5.13003e-06
9.98158e-07
5.12981e-06
1.69662e-05
1.6965e-05
9.97916e-07
5.13078e-06
9.98048e-07
5.13057e-06
4.77807e-07
4.77807e-07
4.77808e-07
4.77805e-07
4.77804e-07
4.77804e-07
4.77804e-07
5.34881e-07
8.72982e-07
4.77963e-07
4.7891e-07
5.34922e-07
8.72771e-07
4.77967e-07
1.69682e-05
1.69671e-05
5.34889e-07
4.77963e-07
8.72931e-07
4.7891e-07
5.34934e-07
4.77967e-07
8.7274e-07
1.51646e-06
1.51674e-06
4.80376e-07
1.51627e-06
1.51655e-06
9.98011e-07
5.13003e-06
9.98158e-07
5.12981e-06
1.69662e-05
1.6965e-05
9.97916e-07
5.13078e-06
9.98048e-07
5.13057e-06
4.77807e-07
4.77807e-07
4.77808e-07
4.77805e-07
4.77804e-07
4.77804e-07
4.77804e-07
5.34882e-07
8.72982e-07
4.77963e-07
4.78909e-07
5.34922e-07
8.72771e-07
4.77967e-07
1.69682e-05
1.69671e-05
5.34888e-07
4.77963e-07
8.72931e-07
4.7891e-07
5.34929e-07
4.77967e-07
8.7274e-07
1.51646e-06
1.51674e-06
4.80376e-07
1.51627e-06
1.51655e-06
9.98011e-07
5.13003e-06
9.98157e-07
5.12981e-06
1.69662e-05
1.6965e-05
9.97916e-07
5.13073e-06
9.98047e-07
5.13052e-06
4.77807e-07
4.77807e-07
4.77808e-07
4.77805e-07
4.77804e-07
4.77804e-07
4.77804e-07
5.34881e-07
8.72982e-07
4.77963e-07
4.78909e-07
5.34921e-07
8.72771e-07
4.77967e-07
1.69682e-05
1.69671e-05
5.34888e-07
4.77963e-07
8.72931e-07
4.7891e-07
5.34929e-07
4.77967e-07
8.7274e-07
1.51646e-06
1.51674e-06
4.80376e-07
1.51627e-06
1.51655e-06
9.97992e-07
5.13003e-06
9.98152e-07
5.12983e-06
1.69663e-05
1.6965e-05
9.97897e-07
5.13071e-06
9.98038e-07
5.13051e-06
4.77807e-07
4.77807e-07
4.77807e-07
4.77804e-07
4.77804e-07
4.77804e-07
4.77804e-07
5.34877e-07
8.72978e-07
4.77963e-07
4.78909e-07
5.34922e-07
8.72758e-07
4.77967e-07
1.69682e-05
1.69673e-05
5.34886e-07
4.77963e-07
8.72928e-07
4.7891e-07
5.3493e-07
4.77967e-07
8.72727e-07
1.51646e-06
1.51673e-06
4.80375e-07
1.51626e-06
1.51652e-06
9.96689e-07
5.12866e-06
9.97968e-07
5.1274e-06
1.69616e-05
1.69557e-05
9.9672e-07
5.12944e-06
9.9791e-07
5.12809e-06
4.77807e-07
4.77807e-07
4.77807e-07
4.77803e-07
4.778e-07
4.778e-07
4.778e-07
5.34556e-07
8.72547e-07
4.77961e-07
4.78885e-07
5.34879e-07
8.72976e-07
4.77965e-07
1.6964e-05
1.69579e-05
5.34562e-07
4.77961e-07
8.72577e-07
4.78885e-07
5.34887e-07
4.77966e-07
8.72995e-07
1.51629e-06
1.51654e-06
4.80347e-07
1.51923e-06
1.51938e-06
7.61282e-07
4.62268e-06
9.89561e-07
1.97222e-06
1.36193e-05
4.65165e-06
7.61299e-07
4.62357e-06
9.89615e-07
1.97245e-06
4.7777e-07
4.77771e-07
4.77771e-07
4.77806e-07
4.77769e-07
4.77772e-07
4.77772e-07
5.24532e-07
8.47534e-07
4.77917e-07
4.78155e-07
5.31803e-07
8.65387e-07
4.77814e-07
1.36208e-05
4.65144e-06
5.24537e-07
4.77917e-07
8.47523e-07
4.78155e-07
5.31805e-07
4.77814e-07
8.65381e-07
1.50462e-06
1.50508e-06
4.79698e-07
1.29e-06
1.29e-06
5.12115e-06
8.71415e-07
1.69145e-05
1.51249e-06
1.51236e-06
1.69132e-05
8.71381e-07
5.1212e-06
1.69158e-05
1.69147e-05
1.69157e-05
1.51233e-06
4.80668e-07
1.51243e-06
1.51243e-06
1.6945e-05
1.69146e-05
1.69185e-05
1.69152e-05
4.8069e-07
1.51434e-06
1.513e-06
1.51245e-06
1.51246e-06
9.96151e-07
5.12119e-06
9.96276e-07
5.12195e-06
5.3475e-07
8.71656e-07
4.78271e-07
4.79198e-07
5.34804e-07
8.71416e-07
4.78266e-07
5.3475e-07
8.71568e-07
4.78273e-07
4.79185e-07
5.34806e-07
8.71564e-07
4.78267e-07
9.96281e-07
5.12636e-06
5.1213e-06
9.96951e-07
9.9627e-07
5.12964e-06
5.12353e-06
9.96926e-07
5.34793e-07
4.79183e-07
8.71963e-07
4.7819e-07
8.71586e-07
4.78248e-07
5.34804e-07
5.34791e-07
4.79139e-07
8.72567e-07
4.78185e-07
8.71892e-07
4.78247e-07
5.34803e-07
1.51256e-06
1.51259e-06
4.80634e-07
1.51283e-06
1.51269e-06
1.69132e-05
1.69161e-05
1.69635e-05
1.69272e-05
4.80639e-07
1.51623e-06
1.51601e-06
1.51361e-06
1.51358e-06
1.69617e-05
1.69258e-05
5.34744e-07
4.79201e-07
8.71482e-07
4.7827e-07
9.9602e-07
5.12179e-06
5.34746e-07
4.79202e-07
4.7827e-07
8.71532e-07
9.96118e-07
5.12245e-06
5.12191e-06
9.96202e-07
5.34782e-07
4.79196e-07
8.71638e-07
4.78248e-07
8.71623e-07
4.78264e-07
5.34759e-07
9.96095e-07
5.12244e-06
5.12179e-06
9.96188e-07
5.34784e-07
4.79196e-07
4.78248e-07
8.71679e-07
4.78264e-07
8.717e-07
5.34761e-07
9.9616e-07
5.12126e-06
9.96285e-07
5.122e-06
5.3475e-07
4.7827e-07
8.71687e-07
4.79197e-07
5.34806e-07
4.78265e-07
8.71443e-07
9.96161e-07
5.12171e-06
9.96289e-07
5.12184e-06
5.34789e-07
4.79143e-07
8.72534e-07
4.78187e-07
8.719e-07
4.7825e-07
5.34799e-07
9.96279e-07
5.12965e-06
5.1236e-06
9.96931e-07
5.3479e-07
4.7918e-07
4.78189e-07
8.7199e-07
4.78248e-07
8.71615e-07
5.34799e-07
9.96279e-07
5.12698e-06
5.12187e-06
9.96934e-07
4.80644e-07
1.51286e-06
1.51229e-06
1.6915e-05
1.69206e-05
1.69179e-05
4.80668e-07
1.51315e-06
1.51259e-06
1.51302e-06
1.51232e-06
1.69174e-05
1.69144e-05
5.34764e-07
4.78271e-07
8.71762e-07
4.79196e-07
5.34828e-07
4.78266e-07
8.71515e-07
9.96247e-07
9.96454e-07
5.12148e-06
9.9625e-07
5.12191e-06
9.96465e-07
5.12204e-06
5.34802e-07
4.79198e-07
4.78196e-07
8.71547e-07
4.78251e-07
8.71525e-07
5.34812e-07
5.34803e-07
4.7918e-07
4.7819e-07
8.72062e-07
4.78248e-07
8.71689e-07
5.34813e-07
9.96436e-07
5.12221e-06
5.12148e-06
9.97027e-07
9.96439e-07
5.12719e-06
5.12207e-06
9.97033e-07
1.69173e-05
1.69163e-05
1.69183e-05
1.69173e-05
4.80659e-07
1.51448e-06
1.51477e-06
1.51252e-06
1.5128e-06
1.69473e-05
1.69162e-05
1.69484e-05
1.69172e-05
1.69563e-05
1.6964e-05
1.69293e-05
1.69643e-05
1.51569e-06
1.514e-06
4.80414e-07
1.51631e-06
1.51631e-06
1.69642e-05
1.69625e-05
1.69663e-05
1.6965e-05
4.80423e-07
1.5163e-06
1.51662e-06
1.51631e-06
1.51669e-06
9.98016e-07
5.12986e-06
9.97672e-07
5.12992e-06
5.34883e-07
8.72535e-07
4.78083e-07
4.78962e-07
5.3488e-07
8.72719e-07
4.78014e-07
5.34884e-07
8.72877e-07
4.78078e-07
4.78928e-07
5.34881e-07
8.72793e-07
4.78011e-07
9.98088e-07
5.12975e-06
5.12946e-06
9.98002e-07
9.98097e-07
5.12998e-06
5.1297e-06
9.98008e-07
5.34924e-07
4.78921e-07
8.72729e-07
4.77964e-07
8.72854e-07
4.77975e-07
5.34881e-07
5.34925e-07
4.78909e-07
8.72795e-07
4.77964e-07
8.72923e-07
4.77974e-07
5.34882e-07
1.51669e-06
1.51658e-06
4.80372e-07
1.51657e-06
1.51651e-06
1.69625e-05
1.69631e-05
1.69654e-05
1.69631e-05
4.80392e-07
1.51656e-06
1.51648e-06
1.51658e-06
1.51669e-06
1.69634e-05
1.69618e-05
5.34857e-07
8.71989e-07
4.78194e-07
4.79025e-07
5.34819e-07
8.72651e-07
4.78086e-07
9.97745e-07
5.12427e-06
9.96548e-07
5.13039e-06
5.3486e-07
4.78194e-07
8.72073e-07
4.79026e-07
5.34824e-07
4.78086e-07
8.72694e-07
9.9799e-07
5.13057e-06
5.13033e-06
9.9793e-07
5.34915e-07
4.7895e-07
8.72858e-07
4.77974e-07
8.72932e-07
4.78009e-07
5.34883e-07
9.98014e-07
5.13076e-06
5.13067e-06
9.9795e-07
5.34919e-07
4.78952e-07
4.77974e-07
8.72937e-07
4.78009e-07
8.73039e-07
5.34886e-07
9.98026e-07
5.12992e-06
9.97678e-07
5.12996e-06
5.34881e-07
4.78082e-07
8.7256e-07
4.78956e-07
5.34876e-07
4.78013e-07
8.72743e-07
9.98025e-07
5.12912e-06
9.97681e-07
5.13044e-06
5.34921e-07
4.78911e-07
8.72778e-07
4.77964e-07
8.72924e-07
4.77976e-07
5.34881e-07
9.98106e-07
5.13002e-06
5.12974e-06
9.98016e-07
5.34922e-07
4.78918e-07
4.77964e-07
8.72757e-07
4.77974e-07
8.72882e-07
5.34882e-07
9.98106e-07
5.13037e-06
5.13017e-06
9.98018e-07
1.51411e-06
1.51339e-06
4.80425e-07
1.51647e-06
1.51596e-06
1.69275e-05
1.69633e-05
1.69674e-05
1.69659e-05
4.80432e-07
1.51689e-06
1.51635e-06
1.51701e-06
1.5164e-06
1.69655e-05
1.69641e-05
5.34894e-07
4.78082e-07
8.72633e-07
4.78955e-07
5.34888e-07
4.78014e-07
8.72816e-07
9.9813e-07
5.12417e-06
9.97807e-07
5.13013e-06
9.98134e-07
5.12933e-06
9.97812e-07
5.13065e-06
5.34935e-07
4.78948e-07
4.77965e-07
8.72743e-07
4.77978e-07
8.72822e-07
5.34902e-07
5.34937e-07
4.78918e-07
4.77964e-07
8.72831e-07
4.77975e-07
8.72958e-07
5.34903e-07
9.98288e-07
5.13044e-06
5.13033e-06
9.98154e-07
9.98294e-07
5.13057e-06
5.13038e-06
9.98162e-07
1.69583e-05
1.69655e-05
1.69593e-05
1.69665e-05
4.80401e-07
1.51634e-06
1.51662e-06
1.51631e-06
1.51659e-06
1.69657e-05
1.6964e-05
1.69667e-05
1.6965e-05
1.69634e-05
1.69637e-05
1.69655e-05
1.69658e-05
1.5163e-06
1.51662e-06
4.80371e-07
1.51628e-06
1.51658e-06
1.69643e-05
1.69622e-05
1.69663e-05
1.69643e-05
4.80394e-07
1.5163e-06
1.5166e-06
1.51628e-06
1.51659e-06
9.98011e-07
5.12977e-06
9.98086e-07
5.12986e-06
5.34879e-07
8.72865e-07
4.77967e-07
4.7891e-07
5.34915e-07
8.72737e-07
4.77967e-07
5.34881e-07
8.72925e-07
4.77966e-07
4.7891e-07
5.34917e-07
8.72792e-07
4.77966e-07
9.98089e-07
5.12975e-06
5.12954e-06
9.97998e-07
9.98092e-07
5.12998e-06
5.12964e-06
9.98008e-07
5.3492e-07
4.78909e-07
8.72729e-07
4.77964e-07
8.7286e-07
4.77965e-07
5.34883e-07
5.34921e-07
4.78908e-07
8.72795e-07
4.77963e-07
8.72921e-07
4.77964e-07
5.34884e-07
1.51659e-06
1.51663e-06
4.80371e-07
1.51656e-06
1.51646e-06
1.6962e-05
1.6963e-05
1.69654e-05
1.69632e-05
4.80393e-07
1.51657e-06
1.51647e-06
1.51657e-06
1.51661e-06
1.69634e-05
1.69619e-05
5.34871e-07
8.72989e-07
4.77968e-07
4.7891e-07
5.34916e-07
8.72863e-07
4.77967e-07
9.97951e-07
5.1305e-06
9.97987e-07
5.13067e-06
5.34877e-07
4.77968e-07
8.73084e-07
4.78911e-07
5.3492e-07
4.77967e-07
8.72935e-07
9.97958e-07
5.13051e-06
5.13029e-06
9.97915e-07
5.34911e-07
4.78907e-07
8.72855e-07
4.77963e-07
8.72982e-07
4.77963e-07
5.34877e-07
9.97995e-07
5.13074e-06
5.13044e-06
9.97947e-07
5.34918e-07
4.78908e-07
4.77963e-07
8.72934e-07
4.77963e-07
8.73079e-07
5.34882e-07
9.98019e-07
5.12977e-06
9.98093e-07
5.12994e-06
5.3488e-07
4.77967e-07
8.72883e-07
4.7891e-07
5.34917e-07
4.77966e-07
8.72751e-07
9.9802e-07
5.13018e-06
9.98097e-07
5.13028e-06
5.34917e-07
4.7891e-07
8.72777e-07
4.77965e-07
8.72917e-07
4.77968e-07
5.34882e-07
9.98099e-07
5.13002e-06
5.12971e-06
9.98016e-07
5.34918e-07
4.78908e-07
4.77963e-07
8.72756e-07
4.77965e-07
8.72882e-07
5.34882e-07
9.98101e-07
5.13038e-06
5.13007e-06
9.98019e-07
1.51703e-06
1.51635e-06
4.80371e-07
1.51693e-06
1.51632e-06
1.69647e-05
1.6965e-05
1.69668e-05
1.69654e-05
4.80394e-07
1.51684e-06
1.51633e-06
1.51704e-06
1.51632e-06
1.69655e-05
1.69636e-05
5.34896e-07
4.77967e-07
8.72959e-07
4.7891e-07
5.34939e-07
4.77967e-07
8.72825e-07
9.98139e-07
5.13019e-06
9.98277e-07
5.13033e-06
9.98143e-07
5.13037e-06
9.98285e-07
5.13049e-06
5.34932e-07
4.7891e-07
4.77965e-07
8.72744e-07
4.77968e-07
8.72868e-07
5.349e-07
5.34932e-07
4.78908e-07
4.77964e-07
8.72829e-07
4.77965e-07
8.72957e-07
5.34901e-07
9.98267e-07
5.13045e-06
5.13012e-06
9.98156e-07
9.98272e-07
5.13058e-06
5.13028e-06
9.98163e-07
1.69649e-05
1.69652e-05
1.69659e-05
1.69662e-05
4.80399e-07
1.51632e-06
1.5166e-06
1.51627e-06
1.51655e-06
1.69657e-05
1.69637e-05
1.69668e-05
1.69648e-05
1.69635e-05
1.69637e-05
1.69655e-05
1.69658e-05
1.5163e-06
1.5166e-06
4.80372e-07
1.51628e-06
1.51659e-06
1.69643e-05
1.69622e-05
1.69663e-05
1.69643e-05
4.80394e-07
1.5163e-06
1.5166e-06
1.51629e-06
1.51659e-06
9.98012e-07
5.12975e-06
9.98087e-07
5.12987e-06
5.34878e-07
8.72865e-07
4.77967e-07
4.7891e-07
5.34917e-07
8.72737e-07
4.77967e-07
5.34881e-07
8.72924e-07
4.77966e-07
4.7891e-07
5.34921e-07
8.72792e-07
4.77966e-07
9.98089e-07
5.12975e-06
5.12954e-06
9.97998e-07
9.98091e-07
5.12998e-06
5.12964e-06
9.98009e-07
5.34919e-07
4.78908e-07
8.72729e-07
4.77964e-07
8.72861e-07
4.77965e-07
5.34883e-07
5.3492e-07
4.78909e-07
8.72795e-07
4.77963e-07
8.72921e-07
4.77964e-07
5.34883e-07
1.5166e-06
1.51666e-06
4.80371e-07
1.51656e-06
1.51645e-06
1.69619e-05
1.6963e-05
1.69654e-05
1.69632e-05
4.80394e-07
1.51657e-06
1.51647e-06
1.51657e-06
1.51662e-06
1.69634e-05
1.69619e-05
5.34873e-07
8.72986e-07
4.77967e-07
4.7891e-07
5.34913e-07
8.72863e-07
4.77967e-07
9.9795e-07
5.13054e-06
9.97986e-07
5.13067e-06
5.34879e-07
4.77967e-07
8.73082e-07
4.78911e-07
5.34919e-07
4.77967e-07
8.72934e-07
9.97956e-07
5.13051e-06
5.13029e-06
9.97915e-07
5.34911e-07
4.78908e-07
8.72855e-07
4.77963e-07
8.72983e-07
4.77964e-07
5.34877e-07
9.97994e-07
5.13074e-06
5.13044e-06
9.97946e-07
5.34918e-07
4.78909e-07
4.77964e-07
8.72934e-07
4.77964e-07
8.73079e-07
5.34882e-07
9.98023e-07
5.12978e-06
9.98094e-07
5.12994e-06
5.34881e-07
4.77967e-07
8.72882e-07
4.7891e-07
5.3492e-07
4.77966e-07
8.72751e-07
9.98021e-07
5.13011e-06
9.98098e-07
5.13028e-06
5.34919e-07
4.78909e-07
8.72777e-07
4.77964e-07
8.72917e-07
4.77967e-07
5.34882e-07
9.98102e-07
5.13002e-06
5.12971e-06
9.98019e-07
5.34918e-07
4.78908e-07
4.77963e-07
8.72756e-07
4.77964e-07
8.72881e-07
5.34881e-07
9.981e-07
5.13038e-06
5.13007e-06
9.98019e-07
1.51702e-06
1.51633e-06
4.80372e-07
1.51693e-06
1.51632e-06
1.69647e-05
1.6965e-05
1.69669e-05
1.69654e-05
4.80394e-07
1.51683e-06
1.51633e-06
1.51704e-06
1.51632e-06
1.69655e-05
1.69636e-05
5.34897e-07
4.77967e-07
8.72957e-07
4.7891e-07
5.34941e-07
4.77967e-07
8.72824e-07
9.98147e-07
5.1302e-06
9.98284e-07
5.13033e-06
9.98143e-07
5.13031e-06
9.98289e-07
5.13048e-06
5.34933e-07
4.7891e-07
4.77964e-07
8.72744e-07
4.77967e-07
8.72868e-07
5.349e-07
5.34932e-07
4.78908e-07
4.77964e-07
8.72829e-07
4.77964e-07
8.72956e-07
5.34901e-07
9.98275e-07
5.13045e-06
5.13012e-06
9.98151e-07
9.98272e-07
5.13058e-06
5.13027e-06
9.98162e-07
1.69649e-05
1.69652e-05
1.6966e-05
1.69662e-05
4.80399e-07
1.51632e-06
1.5166e-06
1.51627e-06
1.51655e-06
1.69657e-05
1.69637e-05
1.69668e-05
1.69647e-05
1.69635e-05
1.69637e-05
1.69655e-05
1.69658e-05
1.5163e-06
1.5166e-06
4.80372e-07
1.51628e-06
1.51658e-06
1.69643e-05
1.69622e-05
1.69663e-05
1.69643e-05
4.80394e-07
1.51629e-06
1.5166e-06
1.51628e-06
1.51659e-06
9.98012e-07
5.12976e-06
9.98087e-07
5.12986e-06
5.34878e-07
8.72864e-07
4.77967e-07
4.7891e-07
5.34918e-07
8.72737e-07
4.77967e-07
5.34881e-07
8.72924e-07
4.77966e-07
4.7891e-07
5.34922e-07
8.72792e-07
4.77966e-07
9.98089e-07
5.12975e-06
5.12954e-06
9.97998e-07
9.98091e-07
5.12998e-06
5.12964e-06
9.98008e-07
5.34919e-07
4.78908e-07
8.72729e-07
4.77964e-07
8.7286e-07
4.77965e-07
5.34883e-07
5.3492e-07
4.78908e-07
8.72795e-07
4.77963e-07
8.72921e-07
4.77964e-07
5.34883e-07
1.5166e-06
1.51666e-06
4.80371e-07
1.51656e-06
1.51645e-06
1.69619e-05
1.6963e-05
1.69654e-05
1.69632e-05
4.80393e-07
1.51657e-06
1.51647e-06
1.51657e-06
1.51662e-06
1.69634e-05
1.69619e-05
5.34873e-07
8.72986e-07
4.77967e-07
4.7891e-07
5.34913e-07
8.72863e-07
4.77966e-07
9.9795e-07
5.13055e-06
9.97985e-07
5.13067e-06
5.3488e-07
4.77967e-07
8.73082e-07
4.78911e-07
5.34919e-07
4.77967e-07
8.72934e-07
9.97956e-07
5.13051e-06
5.13029e-06
9.97915e-07
5.34911e-07
4.78908e-07
8.72855e-07
4.77963e-07
8.72982e-07
4.77964e-07
5.34877e-07
9.97994e-07
5.13074e-06
5.13044e-06
9.97946e-07
5.34918e-07
4.78909e-07
4.77963e-07
8.72934e-07
4.77964e-07
8.73079e-07
5.34882e-07
9.98022e-07
5.12978e-06
9.98096e-07
5.12994e-06
5.34882e-07
4.77967e-07
8.72882e-07
4.7891e-07
5.34919e-07
4.77967e-07
8.72751e-07
9.98021e-07
5.13011e-06
9.98097e-07
5.13028e-06
5.34918e-07
4.78909e-07
8.72777e-07
4.77964e-07
8.72917e-07
4.77967e-07
5.3488e-07
9.98101e-07
5.13002e-06
5.12971e-06
9.98016e-07
5.34917e-07
4.78909e-07
4.77964e-07
8.72756e-07
4.77965e-07
8.72881e-07
5.34881e-07
9.981e-07
5.13038e-06
5.13007e-06
9.98018e-07
1.51702e-06
1.51633e-06
4.80372e-07
1.51693e-06
1.51632e-06
1.69647e-05
1.6965e-05
1.69668e-05
1.69654e-05
4.80394e-07
1.51683e-06
1.51633e-06
1.51704e-06
1.51632e-06
1.69655e-05
1.69636e-05
5.34897e-07
4.77967e-07
8.72957e-07
4.7891e-07
5.34941e-07
4.77967e-07
8.72824e-07
9.98149e-07
5.1302e-06
9.9828e-07
5.13033e-06
9.98143e-07
5.13031e-06
9.98288e-07
5.13048e-06
5.34934e-07
4.7891e-07
4.77964e-07
8.72744e-07
4.77967e-07
8.72868e-07
5.34899e-07
5.34932e-07
4.78908e-07
4.77964e-07
8.72829e-07
4.77965e-07
8.72957e-07
5.34901e-07
9.98274e-07
5.13045e-06
5.13012e-06
9.98151e-07
9.98272e-07
5.13058e-06
5.13027e-06
9.98162e-07
1.69649e-05
1.69652e-05
1.6966e-05
1.69662e-05
4.80399e-07
1.51632e-06
1.5166e-06
1.51627e-06
1.51655e-06
1.69657e-05
1.69637e-05
1.69668e-05
1.69647e-05
1.69635e-05
1.69637e-05
1.69655e-05
1.69658e-05
1.5163e-06
1.5166e-06
4.80372e-07
1.51628e-06
1.51659e-06
1.69643e-05
1.69622e-05
1.69663e-05
1.69643e-05
4.80395e-07
1.5163e-06
1.5166e-06
1.51629e-06
1.51659e-06
9.98012e-07
5.12976e-06
9.98087e-07
5.12986e-06
5.34878e-07
8.72864e-07
4.77967e-07
4.7891e-07
5.34918e-07
8.72737e-07
4.77967e-07
5.34881e-07
8.72924e-07
4.77966e-07
4.7891e-07
5.34922e-07
8.72792e-07
4.77966e-07
9.98089e-07
5.12975e-06
5.12954e-06
9.97998e-07
9.98091e-07
5.12998e-06
5.12964e-06
9.98008e-07
5.34919e-07
4.78908e-07
8.72729e-07
4.77964e-07
8.72861e-07
4.77965e-07
5.34883e-07
5.3492e-07
4.78909e-07
8.72795e-07
4.77963e-07
8.72921e-07
4.77964e-07
5.34883e-07
1.5166e-06
1.51666e-06
4.80371e-07
1.51656e-06
1.51645e-06
1.6962e-05
1.6963e-05
1.69654e-05
1.69632e-05
4.80393e-07
1.51657e-06
1.51647e-06
1.51657e-06
1.51662e-06
1.69634e-05
1.69618e-05
5.34873e-07
8.72986e-07
4.77967e-07
4.7891e-07
5.34914e-07
8.72864e-07
4.77967e-07
9.9795e-07
5.13055e-06
9.97985e-07
5.13067e-06
5.3488e-07
4.77967e-07
8.73082e-07
4.78911e-07
5.34919e-07
4.77966e-07
8.72934e-07
9.97956e-07
5.13051e-06
5.13029e-06
9.97915e-07
5.34912e-07
4.78908e-07
8.72856e-07
4.77963e-07
8.72983e-07
4.77964e-07
5.34877e-07
9.97994e-07
5.13074e-06
5.13044e-06
9.97946e-07
5.34918e-07
4.78909e-07
4.77964e-07
8.72934e-07
4.77965e-07
8.73079e-07
5.34882e-07
9.98021e-07
5.12977e-06
9.98093e-07
5.12994e-06
5.34882e-07
4.77967e-07
8.72882e-07
4.78911e-07
5.34919e-07
4.77967e-07
8.72751e-07
9.9802e-07
5.13011e-06
9.98097e-07
5.13028e-06
5.34918e-07
4.78909e-07
8.72777e-07
4.77965e-07
8.72917e-07
4.77967e-07
5.34881e-07
9.981e-07
5.13002e-06
5.12971e-06
9.98015e-07
5.34918e-07
4.78909e-07
4.77964e-07
8.72756e-07
4.77964e-07
8.72881e-07
5.34881e-07
9.981e-07
5.13038e-06
5.13007e-06
9.98018e-07
1.51702e-06
1.51633e-06
4.80372e-07
1.51693e-06
1.51632e-06
1.69647e-05
1.6965e-05
1.69668e-05
1.69654e-05
4.80394e-07
1.51683e-06
1.51633e-06
1.51704e-06
1.51632e-06
1.69655e-05
1.69636e-05
5.34897e-07
4.77967e-07
8.72957e-07
4.7891e-07
5.34941e-07
4.77967e-07
8.72824e-07
9.98148e-07
5.1302e-06
9.98281e-07
5.13033e-06
9.98143e-07
5.13031e-06
9.98288e-07
5.13048e-06
5.34933e-07
4.7891e-07
4.77964e-07
8.72744e-07
4.77967e-07
8.72868e-07
5.34899e-07
5.34932e-07
4.78908e-07
4.77964e-07
8.72829e-07
4.77965e-07
8.72956e-07
5.34901e-07
9.98273e-07
5.13045e-06
5.13012e-06
9.98158e-07
9.98272e-07
5.13058e-06
5.13027e-06
9.98162e-07
1.69649e-05
1.69652e-05
1.6966e-05
1.69662e-05
4.80399e-07
1.51632e-06
1.5166e-06
1.51627e-06
1.51655e-06
1.69657e-05
1.69637e-05
1.69668e-05
1.69647e-05
1.69635e-05
1.69637e-05
1.69655e-05
1.69658e-05
1.5163e-06
1.51661e-06
4.80372e-07
1.51628e-06
1.51658e-06
1.69643e-05
1.69622e-05
1.69663e-05
1.69643e-05
4.80394e-07
1.5163e-06
1.5166e-06
1.51628e-06
1.51659e-06
9.98012e-07
5.12976e-06
9.98087e-07
5.12987e-06
5.34878e-07
8.72864e-07
4.77967e-07
4.7891e-07
5.34918e-07
8.72737e-07
4.77967e-07
5.34881e-07
8.72924e-07
4.77967e-07
4.7891e-07
5.34921e-07
8.72792e-07
4.77966e-07
9.98089e-07
5.12975e-06
5.12954e-06
9.97998e-07
9.98091e-07
5.12998e-06
5.12964e-06
9.98009e-07
5.34919e-07
4.78908e-07
8.72729e-07
4.77963e-07
8.7286e-07
4.77964e-07
5.34883e-07
5.3492e-07
4.78909e-07
8.72795e-07
4.77963e-07
8.72921e-07
4.77964e-07
5.34884e-07
1.5166e-06
1.51666e-06
4.80371e-07
1.51656e-06
1.51645e-06
1.69619e-05
1.6963e-05
1.69654e-05
1.69632e-05
4.80393e-07
1.51657e-06
1.51647e-06
1.51657e-06
1.51662e-06
1.69634e-05
1.69619e-05
5.34872e-07
8.72986e-07
4.77967e-07
4.7891e-07
5.34913e-07
8.72862e-07
4.77966e-07
9.9795e-07
5.13055e-06
9.97985e-07
5.13067e-06
5.34879e-07
4.77967e-07
8.73082e-07
4.78911e-07
5.34919e-07
4.77967e-07
8.72934e-07
9.97956e-07
5.13051e-06
5.13029e-06
9.97915e-07
5.34911e-07
4.78908e-07
8.72855e-07
4.77963e-07
8.72982e-07
4.77964e-07
5.34877e-07
9.97994e-07
5.13074e-06
5.13044e-06
9.97946e-07
5.34918e-07
4.78909e-07
4.77964e-07
8.72934e-07
4.77964e-07
8.73079e-07
5.34882e-07
9.98021e-07
5.12977e-06
9.98092e-07
5.12994e-06
5.34882e-07
4.77967e-07
8.72882e-07
4.7891e-07
5.34919e-07
4.77967e-07
8.72751e-07
9.98021e-07
5.13011e-06
9.98097e-07
5.13028e-06
5.34918e-07
4.78909e-07
8.72777e-07
4.77964e-07
8.72917e-07
4.77967e-07
5.34881e-07
9.981e-07
5.13002e-06
5.12971e-06
9.98019e-07
5.34918e-07
4.78909e-07
4.77963e-07
8.72756e-07
4.77964e-07
8.72881e-07
5.34881e-07
9.981e-07
5.13038e-06
5.13007e-06
9.98019e-07
1.51702e-06
1.51633e-06
4.80372e-07
1.51693e-06
1.51632e-06
1.69647e-05
1.6965e-05
1.69669e-05
1.69654e-05
4.80394e-07
1.51683e-06
1.51633e-06
1.51704e-06
1.51632e-06
1.69655e-05
1.69636e-05
5.34897e-07
4.77967e-07
8.72957e-07
4.7891e-07
5.34941e-07
4.77967e-07
8.72824e-07
9.98123e-07
5.1302e-06
9.98232e-07
5.13033e-06
9.98141e-07
5.13031e-06
9.98288e-07
5.13048e-06
5.3493e-07
4.7891e-07
4.77964e-07
8.72744e-07
4.77967e-07
8.72868e-07
5.34893e-07
5.34931e-07
4.78908e-07
4.77964e-07
8.72829e-07
4.77965e-07
8.72956e-07
5.349e-07
9.98191e-07
5.13045e-06
5.13012e-06
9.98073e-07
9.98269e-07
5.13058e-06
5.13027e-06
9.98156e-07
1.69649e-05
1.69652e-05
1.6966e-05
1.69662e-05
4.80399e-07
1.51632e-06
1.5166e-06
1.51627e-06
1.51655e-06
1.69657e-05
1.69637e-05
1.69668e-05
1.69647e-05
1.69635e-05
1.69637e-05
1.69655e-05
1.69658e-05
1.5163e-06
1.5166e-06
4.80372e-07
1.51628e-06
1.51659e-06
1.69643e-05
1.69622e-05
1.69663e-05
1.69643e-05
4.80394e-07
1.51629e-06
1.5166e-06
1.51628e-06
1.51659e-06
9.98012e-07
5.12976e-06
9.98087e-07
5.12986e-06
5.34878e-07
8.72865e-07
4.77967e-07
4.7891e-07
5.34918e-07
8.72737e-07
4.77966e-07
5.34881e-07
8.72925e-07
4.77967e-07
4.7891e-07
5.34922e-07
8.72792e-07
4.77967e-07
9.98089e-07
5.12975e-06
5.12954e-06
9.97998e-07
9.98091e-07
5.12998e-06
5.12964e-06
9.98009e-07
5.34919e-07
4.78908e-07
8.72729e-07
4.77963e-07
8.7286e-07
4.77964e-07
5.34883e-07
5.3492e-07
4.78909e-07
8.72795e-07
4.77963e-07
8.72921e-07
4.77964e-07
5.34884e-07
1.5166e-06
1.51666e-06
4.80372e-07
1.51656e-06
1.51645e-06
1.69619e-05
1.6963e-05
1.69654e-05
1.69632e-05
4.80394e-07
1.51657e-06
1.51647e-06
1.51657e-06
1.51662e-06
1.69634e-05
1.69619e-05
5.34873e-07
8.72986e-07
4.77967e-07
4.7891e-07
5.34914e-07
8.72863e-07
4.77966e-07
9.97951e-07
5.13055e-06
9.97986e-07
5.13067e-06
5.3488e-07
4.77967e-07
8.73082e-07
4.78911e-07
5.34919e-07
4.77967e-07
8.72934e-07
9.97957e-07
5.13051e-06
5.13029e-06
9.97915e-07
5.34911e-07
4.78908e-07
8.72855e-07
4.77963e-07
8.72982e-07
4.77964e-07
5.34877e-07
9.97994e-07
5.13074e-06
5.13044e-06
9.97947e-07
5.34918e-07
4.78909e-07
4.77963e-07
8.72934e-07
4.77964e-07
8.73079e-07
5.34882e-07
9.98022e-07
5.12977e-06
9.98097e-07
5.12994e-06
5.34882e-07
4.77967e-07
8.72882e-07
4.78911e-07
5.34919e-07
4.77966e-07
8.72751e-07
9.98022e-07
5.13011e-06
9.98098e-07
5.13028e-06
5.34918e-07
4.78909e-07
8.72777e-07
4.77964e-07