/*--------------------------------*- C++ -*----------------------------------*\
| =========                 |                                                 |
| \\      /  F ield         | OpenFOAM: The Open Source CFD Toolbox           |
|  \\    /   O peration     | Version:  2206                                  |
|   \\  /    A nd           | Website:  www.openfoam.com                      |
|    \\/     M anipulation  |                                                 |
\*---------------------------------------------------------------------------*/
FoamFile
{
    version     2.0;
    format      ascii;
    arch        "LSB;label=32;scalar=64";
    class       volScalarField;
    location    "4.5";
    object      p;
}
// * * * * * * * * * * * * * * * * * * * * * * * * * * * * * * * * * * * * * //

dimensions      [0 2 -2 0 0 0 0];

internalField   nonuniform List<scalar> 
28755
(
0.000143673
0.000148585
0.000148593
0.000155939
0.000146158
0.000151058
0.000151073
0.000158267
0.000148715
0.000153646
0.000153637
0.000160783
0.000151285
0.000156216
0.000156215
0.000163394
0.000153818
0.00015876
0.000158743
0.000166051
0.000156263
0.000161194
0.000161213
0.000168584
0.000158783
0.000163676
0.00016368
0.000170924
0.000161321
0.000166241
0.000166251
0.000173377
0.000163916
0.000168686
0.000168694
0.000175548
0.00016596
0.000169977
0.000169951
0.000175475
0.00016711
0.000168403
0.00016839
0.000170893
0.000160593
0.000158713
0.000158714
0.000171882
0.000133637
0.000147991
0.000147987
0.000133569
0.000147989
0.000147995
0.000147983
0.000147991
0.000133583
0.000147992
0.000147982
0.000133587
0.000155892
0.000136235
0.0001486
0.000148597
0.00015045
0.000150442
0.000155929
0.000136231
0.000148586
0.000148593
0.000150439
0.000150446
0.000148595
0.000150432
0.000150435
0.000155933
0.000136221
0.000148586
0.000150448
0.000150439
0.000136231
0.000158275
0.000138863
0.000151067
0.000151059
0.000152982
0.000152984
0.000158262
0.000138837
0.000151071
0.000151067
0.000153
0.000152974
0.000151058
0.00015299
0.000152987
0.000158284
0.000138903
0.000151069
0.000152984
0.000152982
0.000138863
0.000160761
0.000141382
0.000153624
0.000153632
0.000155559
0.000155565
0.000160784
0.0001414
0.000153622
0.000153629
0.000155551
0.000155565
0.000153635
0.000155564
0.000155575
0.000160742
0.000141381
0.000153639
0.000155564
0.000155565
0.000141417
0.000163384
0.000143832
0.000156209
0.000156211
0.000158137
0.000158142
0.000163387
0.00014383
0.000156206
0.000156209
0.000158131
0.000158126
0.000156221
0.000158126
0.000158127
0.000163398
0.000143798
0.000156215
0.00015813
0.000158133
0.000143792
0.000166017
0.000146236
0.000158756
0.000158763
0.000160569
0.000160577
0.000166018
0.000146221
0.000158746
0.000158743
0.000160565
0.000160578
0.000158762
0.000160597
0.000160608
0.000166039
0.000146182
0.000158754
0.000160585
0.000160596
0.000146147
0.000168468
0.000148809
0.000161176
0.000161178
0.00016307
0.000163068
0.000168488
0.000148779
0.00016119
0.000161207
0.000163064
0.00016307
0.00016121
0.000163054
0.00016305
0.000168537
0.000148815
0.000161215
0.000163059
0.000163055
0.000148786
0.00017093
0.000151406
0.000163706
0.000163703
0.000165612
0.000165607
0.000170931
0.000151406
0.000163696
0.000163693
0.000165598
0.000165608
0.000163675
0.000165586
0.000165588
0.000170924
0.00015144
0.000163672
0.00016561
0.00016559
0.000151437
0.000173398
0.000154172
0.000166228
0.000166233
0.000168109
0.000168115
0.000173397
0.000154167
0.00016622
0.000166237
0.000168121
0.000168122
0.00016624
0.000168121
0.000168135
0.000173389
0.000154189
0.000166239
0.000168126
0.000168145
0.000154203
0.000175549
0.000158758
0.000168694
0.000168688
0.000171246
0.000171248
0.000175539
0.000158754
0.000168706
0.0001687
0.000171251
0.000171237
0.000168693
0.000171259
0.000171246
0.000175547
0.000158725
0.000168701
0.000171247
0.000171255
0.000158727
0.000175459
0.000168332
0.000169964
0.000169971
0.000175673
0.000175677
0.000175461
0.000168329
0.000169951
0.000169949
0.000175678
0.000175671
0.000169967
0.000175683
0.000175669
0.000175475
0.000168332
0.000169957
0.000175677
0.000175677
0.000168349
0.000170884
0.000176927
0.0001684
0.000168413
0.000191288
0.000191296
0.000170875
0.000176933
0.000168391
0.000168399
0.000191285
0.000191293
0.000168401
0.000191296
0.000191299
0.000170883
0.000176931
0.000168395
0.000191288
0.000191298
0.000176901
0.000171883
0.000158709
0.000158715
0.000171897
0.000158697
0.000158716
0.0001606
0.000160595
0.000160613
0.000158715
0.000171895
0.000158705
0.000126587
0.000143063
0.000143062
0.000143069
0.000143065
0.000136387
0.000146756
0.000139669
0.000146474
0.000132308
0.000130305
0.000130308
0.000126027
0.000163277
0.000164087
0.000127828
0.000162538
0.000129094
0.000126065
0.00016326
0.000164066
0.000127824
0.00014367
0.000143675
0.000143676
0.000145531
0.000145525
0.000145533
0.00014553
0.000138804
0.000150591
0.000148304
0.000149189
0.000155059
0.000142127
0.000148899
0.000162542
0.000129086
0.000138818
0.000148308
0.000150596
0.000149198
0.000155037
0.00014891
0.000142134
0.000160423
0.000160415
0.000134906
0.000132824
0.000132826
0.000128576
0.000165706
0.000166562
0.000130399
0.00016493
0.000131691
0.000128597
0.00016569
0.00016654
0.000130424
0.00014615
0.000146161
0.000146158
0.000148076
0.000148075
0.000148078
0.000148079
0.000141458
0.000153033
0.00015077
0.00015169
0.00015737
0.000144651
0.000151401
0.000164932
0.000131722
0.000141523
0.000150799
0.000153036
0.000151708
0.000157438
0.000151418
0.000144723
0.000162798
0.00016281
0.000137552
0.000135418
0.000135436
0.000131154
0.000168231
0.000169103
0.000132974
0.000167464
0.000134285
0.000130892
0.000168189
0.000169035
0.000132963
0.000148722
0.000148725
0.000148726
0.00015064
0.000150646
0.000150653
0.000150655
0.000144295
0.000155619
0.000153359
0.000154289
0.000159751
0.000147285
0.000153998
0.000167412
0.00013433
0.000144266
0.00015335
0.000155423
0.000154272
0.000159898
0.000153994
0.000147467
0.000165342
0.000165335
0.000140167
0.000138034
0.000138045
0.000133643
0.000170849
0.000171713
0.000135531
0.000170075
0.000136834
0.000133747
0.000170835
0.000171712
0.000135532
0.000151291
0.000151296
0.000151301
0.000153201
0.000153203
0.000153201
0.000153207
0.000146673
0.000158196
0.000155937
0.000156866
0.00016254
0.000149828
0.000156582
0.000170071
0.000136804
0.000146642
0.000155929
0.000158215
0.00015686
0.000162609
0.000156568
0.000149817
0.000167971
0.000167956
0.000142623
0.00014054
0.000140547
0.000136197
0.00017345
0.000174322
0.000137963
0.000172681
0.00013925
0.000136103
0.000173427
0.000174289
0.000137932
0.000153829
0.000153817
0.000153831
0.000155644
0.00015566
0.000155657
0.000155672
0.000149061
0.000160764
0.000158482
0.000159379
0.00016524
0.000152316
0.0001591
0.000172677
0.000139214
0.000148976
0.000158464
0.000160755
0.000159352
0.000165203
0.000159071
0.000152265
0.000170575
0.000170569
0.000144953
0.00014296
0.000142942
0.000138591
0.000175849
0.000176655
0.00014041
0.000175108
0.000141692
0.000138687
0.000175854
0.000176678
0.000140444
0.000156267
0.00015628
0.000156284
0.00015815
0.000158145
0.000158146
0.000158145
0.000151435
0.000163197
0.000160914
0.000161802
0.000167663
0.000154743
0.000161515
0.000175142
0.000141705
0.00015147
0.000160939
0.000163213
0.000161829
0.000167678
0.000161549
0.000154774
0.000173061
0.000173065
0.00014743
0.000145397
0.000145413
0.000141213
0.000178336
0.000179154
0.000143025
0.000177578
0.000144305
0.0001412
0.000178317
0.000179141
0.000143012
0.000158777
0.000158782
0.000158763
0.000160691
0.000160688
0.000160698
0.000160689
0.000154049
0.000165633
0.000163387
0.000164309
0.000170027
0.000157276
0.000164023
0.000177567
0.000144314
0.000154107
0.000163404
0.000165644
0.000164315
0.000170005
0.000164024
0.000157308
0.000175433
0.000175436
0.000150129
0.000148001
0.000148018
0.000143739
0.000180813
0.000181657
0.00014562
0.000180043
0.000146932
0.000143719
0.000180781
0.000181617
0.000145626
0.000161331
0.000161338
0.000161341
0.00016327
0.000163273
0.000163281
0.000163292
0.000156819
0.000168154
0.000165965
0.000166882
0.000172539
0.000159971
0.000166612
0.000180027
0.000146954
0.000156771
0.000165979
0.000168163
0.000166878
0.000172554
0.000166603
0.000159971
0.000177908
0.000177905
0.000152772
0.000150703
0.000150709
0.000147336
0.000182794
0.000183541
0.000149181
0.000182058
0.000150428
0.00014738
0.000182806
0.000183567
0.000149212
0.000163908
0.000163917
0.000163917
0.000166736
0.000166729
0.000166727
0.000166728
0.000159799
0.000170243
0.000168384
0.000169577
0.000174739
0.000163269
0.000169315
0.000182069
0.000150448
0.000159748
0.000168398
0.000170252
0.000169575
0.000174717
0.000169317
0.000163254
0.000179963
0.000179974
0.000156048
0.000154059
0.000154056
0.000154801
0.000182499
0.000182936
0.000155918
0.000181901
0.00015707
0.000154776
0.000182476
0.000182923
0.000155889
0.000165939
0.000165955
0.00016595
0.000171823
0.000171823
0.000171814
0.000171821
0.000165166
0.000170354
0.000169744
0.000173139
0.000175249
0.000168861
0.000173147
0.000181902
0.000157013
0.000165194
0.000169734
0.000170379
0.000173132
0.000175227
0.000173152
0.000168828
0.00017985
0.000179835
0.000162928
0.00016042
0.000160378
0.000164187
0.000178636
0.000177938
0.000163022
0.000178438
0.000164111
0.0001642
0.000178635
0.00017793
0.00016302
0.000167101
0.000167114
0.000167115
0.000184761
0.000184767
0.000184758
0.000184765
0.000170405
0.000168979
0.000167547
0.000179118
0.000173212
0.000173927
0.000181053
0.000178429
0.000164116
0.000170413
0.000167503
0.000168977
0.000179096
0.000173223
0.000180998
0.000173925
0.000176474
0.000176462
0.00017341
0.000167316
0.00016731
0.000133869
0.00017579
0.000180828
0.000169489
0.000200745
0.000171783
0.000133833
0.000175824
0.000180818
0.00016947
0.000132816
0.00018217
0.000182167
0.00012445
0.000189956
0.000132976
0.000132977
9.74307e-05
0.000176813
0.000158606
0.000135352
0.000179981
0.000165137
0.000133881
0.000200763
0.000171817
9.74247e-05
0.000158607
0.000176811
0.000135366
0.000179989
0.000133886
0.00016515
0.000183745
0.000183752
0.000144426
0.000168398
0.000168409
0.000127865
0.00016129
0.000127855
0.000161324
0.000154691
0.000131603
0.000131598
0.000159174
0.000159206
0.000125304
0.000146759
0.000139686
0.000162841
0.000126578
0.000162044
0.000124811
0.000162852
0.000126541
0.00016207
0.000124799
0.000153801
0.000147369
0.000140936
0.000147708
0.000149349
0.00014708
0.000137648
0.000153822
0.000147375
0.000140921
0.000147702
0.000149362
0.000147086
0.000137637
0.000132328
0.000130328
0.00013033
0.000126584
0.000127816
0.000161328
0.000154715
0.000131559
0.000131565
0.000159208
0.000159209
0.000127816
0.000161332
0.00016291
0.000126565
0.000162083
0.000124773
0.000153885
0.000147386
0.000140922
0.000147712
0.000149392
0.000147122
0.000137627
0.000162917
0.000126538
0.000162113
0.000124764
0.000153893
0.000147396
0.000147708
0.000140916
0.000147118
0.000149404
0.000137624
0.000123503
0.000125292
0.000136377
0.00014676
0.000146473
0.000139668
0.000123501
0.000125278
0.000153839
0.00014737
0.000140909
0.000147709
0.000149373
0.000147089
0.000137629
0.000162872
0.000126536
0.000162084
0.000124814
0.000153838
0.000147376
0.000147715
0.000140917
0.000147092
0.000149381
0.000137627
0.000162872
0.000126533
0.000162104
0.000124807
0.00012782
0.000161364
0.00015474
0.00013156
0.000131572
0.000159241
0.000159226
0.000127842
0.00016135
0.000153856
0.000147384
0.000147711
0.000140913
0.000147107
0.000149391
0.000137621
0.000153861
0.000147378
0.000147702
0.000140904
0.000147108
0.000149386
0.000137604
0.000162891
0.000126555
0.000162101
0.000124823
0.000162891
0.000126543
0.000162099
0.000124812
0.000126559
0.000126572
0.000154758
0.00013156
0.000131554
0.000159227
0.000159231
0.000127812
0.000161354
0.000127823
0.000161356
0.000162514
0.000129125
0.00016251
0.000129118
0.000160394
0.000160393
0.000134926
0.000132853
0.000132849
0.000130418
0.000163713
0.000130418
0.00016371
0.000157078
0.000134135
0.000134133
0.000161596
0.000161596
0.000126019
0.000163285
0.000164084
0.000127808
0.00013884
0.000150583
0.000148317
0.000149205
0.000155046
0.000142161
0.000148915
0.000138843
0.000150581
0.000148316
0.000149205
0.000155044
0.000142158
0.000148917
0.000165291
0.000129117
0.00016448
0.000127315
0.000165291
0.000129103
0.000164481
0.000127313
0.000156183
0.000149828
0.000143427
0.000150168
0.0001518
0.000149544
0.000140226
0.000156194
0.000149823
0.000143415
0.000150165
0.000151797
0.000149542
0.000140227
0.000160415
0.000160417
0.000134897
0.00013283
0.000132829
0.000162543
0.00012909
0.000130396
0.000163723
0.000157085
0.000134117
0.00013412
0.000161608
0.000161599
0.000130402
0.000163716
0.00013886
0.000150567
0.0001483
0.000149197
0.000155022
0.000142158
0.000148918
0.00012605
0.000163286
0.000164068
0.000127798
0.000138853
0.0001483
0.000150581
0.000149201
0.000155032
0.000148912
0.000142154
0.000165296
0.000129115
0.000164469
0.000127365
0.000156231
0.000149817
0.000143415
0.000150166
0.000151786
0.000149539
0.000140157
0.000165293
0.000129118
0.000164483
0.000127371
0.00015623
0.000149821
0.000150166
0.000143433
0.000149536
0.000151788
0.000140141
0.00012603
0.0001633
0.000164105
0.000127794
0.000138801
0.000148319
0.000150596
0.000149191
0.000155061
0.00014889
0.000142133
0.000126022
0.000163308
0.000164102
0.000127791
0.000156179
0.000149809
0.000143391
0.00015015
0.000151796
0.000149529
0.000140179
0.000165297
0.000129097
0.000164481
0.000127308
0.000156181
0.000149813
0.000150149
0.000143397
0.000149528
0.000151789
0.000140164
0.000165291
0.000129091
0.000164476
0.000127293
0.000160423
0.000160419
0.000134876
0.000132823
0.000132829
0.000162544
0.000129102
0.000130408
0.000163728
0.000157101
0.000134128
0.000134136
0.000161611
0.000161597
0.00013042
0.000163714
0.000138822
0.000148302
0.000150579
0.000149199
0.000155024
0.000148921
0.00014214
0.000126032
0.000163297
0.00016409
0.000127805
0.00012603
0.000163279
0.000164079
0.00012781
0.000156164
0.000149817
0.000150174
0.000143418
0.000149527
0.000151792
0.00014023
0.000156164
0.000149812
0.000150171
0.000143415
0.000149529
0.000151785
0.000140236
0.000165266
0.000129119
0.000164471
0.000127335
0.000165262
0.000129121
0.000164457
0.000127341
0.000162549
0.000129089
0.000162534
0.000129103
0.000157083
0.000134116
0.000134128
0.000161594
0.000161592
0.000130398
0.000163711
0.000130416
0.000163704
0.000164929
0.000131708
0.000164927
0.000131729
0.000162812
0.000162814
0.000137554
0.000135421
0.000135438
0.000133011
0.000166173
0.000133042
0.000166179
0.000159506
0.000136716
0.000136751
0.000164058
0.000164067
0.000128572
0.000165702
0.000166562
0.000130388
0.000141485
0.000153038
0.000150774
0.000151695
0.000157438
0.000144687
0.000151398
0.000141474
0.000153032
0.000150774
0.000151692
0.000157442
0.000144678
0.000151403
0.00016782
0.0001317
0.000166958
0.000129873
0.000167818
0.000131691
0.000166957
0.00012985
0.000158655
0.000152336
0.000145973
0.000152701
0.0001543
0.000152049
0.000142804
0.000158652
0.000152337
0.000145977
0.000152699
0.0001543
0.00015205
0.000142807
0.000162816
0.000162806
0.000137532
0.000135407
0.000135411
0.000164918
0.000131696
0.000132996
0.00016618
0.000159496
0.000136713
0.00013673
0.000164069
0.00016405
0.000133016
0.00016616
0.000141461
0.000153021
0.000150791
0.000151702
0.000157413
0.000144697
0.00015141
0.000128601
0.000165699
0.00016654
0.000130421
0.000141488
0.000150786
0.00015302
0.0001517
0.000157408
0.000151408
0.000144713
0.000167756
0.000131747
0.000166948
0.000129774
0.000158451
0.00015235
0.000146077
0.000152711
0.000154304
0.000152062
0.000143046
0.000167756
0.000131737
0.000166925
0.000129734
0.000158468
0.000152334
0.000152701
0.000146095
0.000152054
0.000154289
0.000143018
0.000128529
0.000165691
0.000166531
0.000130382
0.000141452
0.00015077
0.000153014
0.000151694
0.000157353
0.000151403
0.000144683
0.000128528
0.000165684
0.000166523
0.000130394
0.000158415
0.000152331
0.000145966
0.000152703
0.000154293
0.000152039
0.000142953
0.000167744
0.000131703
0.000166935
0.000129696
0.000158428
0.000152339
0.000152703
0.000145971
0.000152041
0.000154293
0.000142984
0.000167746
0.000131699
0.000166945
0.000129707
0.000162816
0.000162808
0.000137574
0.000135434
0.000135456
0.000164924
0.000131745
0.000133039
0.000166152
0.000159494
0.000136762
0.000136781
0.000164044
0.00016405
0.000133067
0.000166165
0.000141496
0.000150794
0.000153029
0.000151705
0.000157449
0.00015142
0.000144708
0.000128633
0.000165696
0.000166549
0.000130444
0.000128617
0.000165692
0.000166554
0.000130425
0.000158626
0.000152339
0.000152699
0.000146148
0.000152056
0.000154323
0.000143053
0.000158599
0.000152339
0.000152698
0.000146019
0.000152057
0.000154295
0.000143053
0.00016779
0.000131777
0.00016695
0.000129888
0.000167774
0.000131738
0.000166933
0.000129875
0.000164911
0.000131707
0.000164923
0.000131727
0.000159509
0.000136728
0.000136745
0.000164054
0.000164057
0.000133012
0.000166165
0.000133031
0.000166165
0.000167445
0.00013429
0.000167426
0.000134275
0.000165331
0.000165312
0.000140126
0.000137994
0.000137996
0.000135576
0.000168736
0.000135554
0.00016871
0.000162051
0.000139279
0.00013927
0.000166624
0.000166608
0.000131147
0.000168239
0.000169106
0.000132973
0.000144088
0.000155582
0.000153348
0.000154265
0.000159929
0.000147243
0.000153989
0.000144082
0.000155586
0.000153346
0.000154276
0.000159933
0.000147259
0.000153992
0.000170369
0.000134269
0.000169517
0.000132468
0.000170362
0.000134269
0.000169519
0.000132462
0.000161144
0.000154911
0.000148546
0.000155272
0.000156869
0.00015463
0.000145472
0.000161148
0.00015492
0.000148548
0.000155274
0.000156869
0.000154633
0.000145471
0.000165353
0.000165354
0.000140132
0.000137999
0.000138033
0.000167465
0.000134324
0.000135574
0.000168751
0.000162075
0.000139282
0.000139287
0.000166643
0.000166656
0.000135572
0.000168773
0.000144163
0.000155482
0.000153337
0.000154254
0.000159734
0.000147294
0.000153975
0.000130905
0.000168182
0.000169037
0.000133021
0.000144168
0.00015334
0.000155437
0.000154274
0.000159729
0.000153985
0.000147404
0.000170268
0.000134254
0.000169474
0.000132391
0.000161064
0.000154903
0.000148536
0.000155264
0.00015683
0.000154621
0.000145394
0.000170268
0.000134264
0.000169493
0.000132391
0.00016103
0.000154916
0.000155272
0.000148546
0.00015463
0.000156811
0.000145374
0.000131191
0.000168248
0.000169042
0.000133027
0.000144252
0.000153358
0.000155597
0.000154282
0.000159794
0.000154002
0.000147282
0.000131202
0.000168235
0.00016905
0.000133023
0.000161278
0.000154923
0.000148533
0.000155276
0.000156921
0.000154631
0.000145392
0.000170472
0.000134262
0.000169569
0.000132424
0.000161258
0.000154927
0.000155282
0.00014857
0.000154639
0.000156921
0.000145436
0.000170463
0.000134299
0.000169571
0.000132453
0.000165293
0.000165292
0.000140179
0.000138056
0.000138064
0.000167411
0.00013435
0.000135568
0.000168726
0.000162043
0.000139278
0.000139292
0.000166614
0.000166582
0.000135583
0.000168693
0.000144268
0.000153349
0.00015553
0.00015428
0.000159854
0.000153994
0.000147395
0.000131097
0.000168186
0.000169114
0.000133057
0.000131095
0.000168224
0.00016911
0.000133033
0.000161109
0.000154916
0.000155272
0.000148577
0.000154637
0.00015668
0.000145625
0.000161063
0.000154914
0.00015528
0.000148633
0.000154637
0.000156733
0.000145602
0.000170324
0.000134278
0.000169453
0.000132407
0.000170313
0.000134299
0.000169468
0.000132414
0.000167452
0.000134327
0.000167451
0.000134327
0.000162069
0.000139306
0.000139305
0.000166655
0.000166602
0.000135601
0.000168773
0.000135593
0.000168713
0.000170064
0.000136835
0.000170057
0.00013683
0.000167948
0.000167946
0.000142626
0.000140545
0.000140547
0.000138066
0.000171377
0.000138053
0.000171387
0.000164722
0.000141785
0.000141779
0.000169262
0.000169272
0.000133647
0.000170854
0.000171718
0.000135533
0.000146684
0.000158186
0.000155913
0.000156857
0.000162462
0.000149833
0.000156559
0.000146713
0.000158194
0.000155918
0.000156859
0.000162469
0.000149833
0.000156565
0.000172996
0.000136775
0.000172153
0.000134927
0.000173004
0.000136773
0.00017216
0.000134916
0.000163866
0.000157495
0.000151108
0.00015786
0.000159483
0.000157201
0.00014796
0.00016389
0.000157501
0.000151109
0.000157861
0.000159491
0.000157207
0.000147953
0.000167962
0.000167952
0.000142635
0.000140547
0.00014055
0.000170064
0.000136837
0.000138062
0.000171388
0.000164706
0.000141789
0.000141776
0.000169276
0.000169267
0.000138053
0.000171382
0.000146616
0.000158177
0.000155917
0.000156859
0.000162564
0.000149836
0.000156576
0.000133744
0.000170844
0.000171707
0.000135509
0.000146597
0.000155918
0.000158177
0.000156853
0.000162555
0.000156572
0.000149827
0.000173029
0.000136761
0.000172161
0.000134978
0.000163934
0.000157501
0.000151085
0.000157852
0.000159488
0.000157224
0.000147846
0.000173025
0.000136743
0.00017216
0.000134973
0.00016393
0.000157495
0.000157849
0.000151081
0.000157219
0.000159472
0.00014784
0.000133726
0.000170848
0.000171728
0.000135536
0.000146656
0.000155936
0.000158223
0.000156864
0.000162574
0.000156582
0.000149822
0.000133713
0.000170877
0.000171747
0.000135521
0.00016388
0.000157493
0.000151074
0.00015783
0.000159503
0.000157194
0.00014788
0.000173032
0.000136753
0.000172168
0.000134929
0.000163867
0.000157494
0.000157832
0.000151081
0.000157195
0.000159488
0.000147904
0.000173025
0.000136744
0.000172164
0.000134917
0.000167961
0.000167954
0.000142587
0.000140527
0.000140534
0.000170066
0.000136817
0.000138029
0.000171393
0.000164746
0.000141759
0.000141757
0.000169277
0.00016927
0.000138025
0.000171387
0.000146651
0.00015593
0.000158193
0.00015686
0.00016258
0.000156572
0.000149827
0.000133639
0.00017085
0.000171729
0.000135517
0.000133636
0.000170843
0.000171723
0.000135535
0.0001639
0.0001575
0.000157852
0.000151066
0.000157217
0.000159497
0.00014783
0.000163904
0.000157508
0.000157849
0.000151067
0.000157223
0.000159512
0.000147836
0.000173011
0.000136734
0.000172165
0.00013489
0.000173012
0.000136734
0.000172168
0.000134869
0.000170086
0.000136829
0.000170066
0.000136832
0.000164725
0.000141763
0.000141761
0.000169272
0.000169283
0.000138039
0.000171386
0.000138026
0.000171394
0.000172669
0.000139253
0.00017266
0.000139231
0.000170548
0.000170543
0.000145015
0.000142981
0.000142966
0.000140461
0.000173885
0.000140455
0.000173866
0.000167244
0.000144187
0.000144188
0.000171763
0.000171754
0.000136199
0.000173451
0.00017432
0.000137962
0.000149023
0.000160765
0.000158482
0.000159355
0.000165279
0.000152307
0.000159071
0.000149025
0.000160763
0.000158481
0.000159368
0.000165274
0.000152314
0.000159075
0.000175481
0.000139167
0.000174653
0.000137405
0.000175486
0.000139157
0.000174667
0.000137404
0.000166411
0.000159965
0.000153511
0.00016028
0.000161955
0.000159684
0.000150199
0.000166414
0.000159978
0.000153509
0.000160282
0.000161964
0.000159689
0.000150194
0.000170563
0.00017055
0.000145015
0.000142985
0.000142995
0.00017267
0.000139261
0.000140446
0.000173912
0.000167282
0.000144179
0.0001442
0.000171792
0.000171803
0.000140465
0.000173926
0.000148999
0.000160745
0.000158465
0.000159347
0.000165205
0.000152273
0.00015906
0.000136109
0.000173438
0.000174288
0.000137926
0.000149005
0.000158464
0.000160745
0.000159352
0.000165207
0.000159066
0.000152277
0.000175447
0.00013916
0.000174619
0.000137362
0.000166374
0.000159948
0.000153505
0.00016028
0.000161932
0.000159654
0.000150225
0.000175455
0.000139143
0.00017465
0.000137353
0.000166389
0.000159957
0.000160282
0.000153508
0.000159659
0.000161955
0.000150225
0.000136145
0.000173447
0.000174314
0.000137968
0.000149058
0.000158482
0.000160774
0.000159382
0.000165264
0.0001591
0.000152311
0.000136144
0.000173469
0.000174324
0.000137947
0.000166476
0.000159992
0.000153528
0.000160326
0.000162
0.000159718
0.000150253
0.000175532
0.000139173
0.000174694
0.000137406
0.000166484
0.000159999
0.000160327
0.000153527
0.00015972
0.000162017
0.000150244
0.000175539
0.000139145
0.00017473
0.0001374
0.000170559
0.000170548
0.000144981
0.000142946
0.000142946
0.000172668
0.000139209
0.00014043
0.000173902
0.000167283
0.00014416
0.00014417
0.000171788
0.000171789
0.000140436
0.000173911
0.00014898
0.000158466
0.000160753
0.000159367
0.000165205
0.000159078
0.000152277
0.000136155
0.000173439
0.000174271
0.000137916
0.000136153
0.000173441
0.000174271
0.000137913
0.000166407
0.000159962
0.000160306
0.000153508
0.000159678
0.000161972
0.000150219
0.000166411
0.000159978
0.000160312
0.000153513
0.000159684
0.000161981
0.00015022
0.000175475
0.000139146
0.000174673
0.00013742
0.000175478
0.000139137
0.000174692
0.00013742
0.000172696
0.000139232
0.000172683
0.000139199
0.000167343
0.000144158
0.000144155
0.000171844
0.000171828
0.000140423
0.00017397
0.000140414
0.000173948
0.000175089
0.000141713
0.000175099
0.000141735
0.000172968
0.000172983
0.000147511
0.000145437
0.000145463
0.000143013
0.000176317
0.000143012
0.00017634
0.0001697
0.000146735
0.000146736
0.000174201
0.000174222
0.000138582
0.000175855
0.000176656
0.000140397
0.000151459
0.000163154
0.000160876
0.0001618
0.000167574
0.000154751
0.000161503
0.000151461
0.000163154
0.000160875
0.0001618
0.000167572
0.000154749
0.000161505
0.000177888
0.000141711
0.000177078
0.000139887
0.000177893
0.000141698
0.000177082
0.000139879
0.000168827
0.000162435
0.000156045
0.000162786
0.000164395
0.000162146
0.000152769
0.000168838
0.000162433
0.000156041
0.000162786
0.000164396
0.000162147
0.000152767
0.00017299
0.00017301
0.000147474
0.000145421
0.000145431
0.000175134
0.000141695
0.000142992
0.000176331
0.000169705
0.000146717
0.000146709
0.000174215
0.000174218
0.000142978
0.000176338
0.000151509
0.000163166
0.000160918
0.000161817
0.000167629
0.000154783
0.000161547
0.000138678
0.000175887
0.000176683
0.000140425
0.000151494
0.00016092
0.000163185
0.000161828
0.00016764
0.000161543
0.000154785
0.000177928
0.00014171
0.000177098
0.000139934
0.000168878
0.000162443
0.00015603
0.000162783
0.000164414
0.000162171
0.000152728
0.000177925
0.000141715
0.000177117
0.000139942
0.000168869
0.00016245
0.000162788
0.000156045
0.000162166
0.000164416
0.000152723
0.000138628
0.000175899
0.000176718
0.000140393
0.000151418
0.000160919
0.00016322
0.000161812
0.00016767
0.000161516
0.000154744
0.000138625
0.000175941
0.000176722
0.000140374
0.000168853
0.000162431
0.000156004
0.000162768
0.000164405
0.000162152
0.000152692
0.000177907
0.000141671
0.000177097
0.000139891
0.000168844
0.000162429
0.000162765
0.000156007
0.000162147
0.000164409
0.000152683
0.000177907
0.000141668
0.00017712
0.000139889
0.000173024
0.000173033
0.000147467
0.000145435
0.000145442
0.000175161
0.00014171
0.000143004
0.000176365
0.000169752
0.000146728
0.000146724
0.000174245
0.000174243
0.000143
0.000176367
0.000151455
0.000160943
0.000163219
0.000161822
0.000167681
0.000161549
0.000154758
0.000138693
0.000175921
0.000176726
0.00014042
0.000138695
0.000175935
0.000176726
0.000140401
0.000168869
0.000162448
0.000162774
0.000156015
0.000162169
0.000164429
0.000152707
0.000168856
0.000162429
0.000162785
0.000156011
0.000162149
0.000164415
0.000152706
0.000177927
0.000141697
0.000177125
0.00013992
0.000177923
0.000141688
0.000177119
0.00013992
0.000175189
0.000141659
0.00017519
0.000141678
0.00016976
0.000146693
0.000146703
0.000174238
0.000174248
0.000142967
0.000176364
0.000142981
0.000176371
0.000177569
0.000144323
0.000177563
0.000144311
0.000175452
0.00017545
0.000150126
0.000148038
0.00014803
0.00014562
0.000178835
0.000145607
0.000178812
0.000172177
0.000149327
0.000149321
0.000176717
0.000176701
0.00014121
0.000178338
0.000179159
0.000143016
0.000154115
0.00016566
0.000163424
0.000164344
0.000170087
0.000157341
0.000164068
0.00015411
0.000165658
0.000163425
0.000164341
0.000170099
0.00015734
0.000164068
0.000180462
0.000144323
0.000179614
0.000142545
0.000180463
0.000144313
0.000179609
0.000142532
0.000171361
0.000164982
0.000158624
0.000165338
0.000166943
0.000164712
0.000155419
0.000171361
0.000164976
0.000158618
0.000165332
0.000166937
0.000164706
0.000155424
0.000175462
0.000175439
0.000150098
0.000148024
0.000147998
0.000177553
0.000144277
0.000145608
0.000178836
0.000172164
0.00014932
0.00014932
0.000176717
0.000176672
0.000145604
0.000178784
0.000154113
0.000165643
0.000163419
0.000164331
0.000170036
0.000157318
0.000164058
0.0001412
0.000178328
0.00017914
0.000143015
0.000154114
0.000163414
0.000165651
0.000164325
0.000170028
0.000164046
0.000157317
0.000180412
0.000144308
0.000179573
0.000142432
0.00017129
0.000164964
0.000158609
0.000165316
0.000166909
0.000164685
0.000155435
0.00018041
0.000144327
0.000179567
0.000142434
0.000171307
0.000164966
0.000165323
0.000158626
0.000164684
0.000166913
0.000155434
0.000141196
0.000178312
0.000179121
0.000142968
0.000154048
0.000163392
0.000165633
0.000164305
0.000170026
0.00016402
0.000157284
0.000141189
0.000178316
0.000179119
0.000142977
0.000171245
0.00016494
0.000158594
0.000165296
0.000166879
0.000164649
0.000155422
0.000180374
0.000144296
0.000179548
0.000142435
0.000171242
0.000164938
0.000165299
0.000158603
0.000164645
0.000166879
0.000155424
0.00018037
0.000144312
0.000179544
0.000142442
0.000175452
0.000175433
0.000150149
0.000148027
0.000148035
0.000177547
0.000144326
0.000145629
0.0001788
0.000172141
0.00014934
0.000149353
0.00017669
0.000176679
0.000145645
0.000178793
0.000154083
0.00016339
0.000165634
0.00016431
0.000170003
0.000164028
0.000157305
0.000141217
0.000178309
0.000179119
0.000143022
0.00014119
0.000178305
0.000179117
0.000143006
0.00017127
0.00016496
0.000165335
0.000158615
0.000164671
0.000166929
0.000155466
0.000171232
0.000164949
0.000165322
0.000158602
0.000164667
0.000166901
0.000155471
0.000180401
0.000144332
0.000179569
0.000142457
0.000180378
0.000144329
0.000179543
0.000142476
0.00017755
0.000144286
0.00017755
0.000144305
0.000172129
0.000149333
0.000149338
0.000176659
0.000176668
0.000145623
0.000178772
0.000145631
0.000178778
0.000180038
0.000146927
0.00018002
0.00014693
0.000177921
0.000177912
0.000152702
0.000150637
0.000150642
0.000148465
0.000181137
0.000148483
0.000181135
0.000174559
0.000152149
0.000152165