/*--------------------------------*- C++ -*----------------------------------*\
| =========                 |                                                 |
| \\      /  F ield         | OpenFOAM: The Open Source CFD Toolbox           |
|  \\    /   O peration     | Version:  2206                                  |
|   \\  /    A nd           | Website:  www.openfoam.com                      |
|    \\/     M anipulation  |                                                 |
\*---------------------------------------------------------------------------*/
FoamFile
{
    version     2.0;
    format      ascii;
    arch        "LSB;label=32;scalar=64";
    class       surfaceScalarField;
    location    "4.5";
    object      phi;
}
// * * * * * * * * * * * * * * * * * * * * * * * * * * * * * * * * * * * * * //

dimensions      [0 3 -1 0 0 0 0];

oriented        oriented;

internalField   nonuniform List<scalar> 
83612
(
8.29451e-08
8.30861e-08
-7.86677e-07
-8.34777e-08
-8.5445e-08
7.89568e-07
-1.84801e-07
3.16498e-07
-7.89167e-08
2.40233e-07
1.86331e-07
3.24224e-07
-3.0075e-07
-1.56016e-07
-4.0659e-07
2.36087e-07
3.20281e-07
-4.96581e-07
-1.87581e-07
3.17306e-07
-8.2369e-08
2.37842e-07
1.88312e-07
3.24866e-07
-2.99798e-07
-1.55217e-07
-4.05977e-07
2.36992e-07
3.21315e-07
-4.9569e-07
2.73629e-07
-3.16296e-07
-3.15367e-07
2.42125e-07
2.45335e-07
-1.29427e-07
8.77829e-08
8.03868e-08
-8.06152e-07
-8.13938e-08
-9.13812e-08
8.10758e-07
-1.96161e-07
3.18154e-07
-8.26588e-08
2.40087e-07
1.99138e-07
3.25691e-07
-3.02207e-07
-1.57259e-07
-4.07825e-07
2.36967e-07
3.22657e-07
-4.96582e-07
-1.95726e-07
3.18058e-07
-8.61423e-08
2.41353e-07
1.98182e-07
3.26516e-07
-3.01957e-07
-1.56066e-07
-4.07316e-07
2.36957e-07
3.22819e-07
-4.9668e-07
2.77523e-07
-3.18832e-07
-3.18332e-07
2.44748e-07
2.47462e-07
-1.32569e-07
8.47668e-08
8.76652e-08
-8.21837e-07
-8.63398e-08
-8.74251e-08
8.23169e-07
-2.04999e-07
3.20881e-07
-9.06251e-08
2.33014e-07
2.05412e-07
3.28728e-07
-2.99908e-07
-1.5469e-07
-4.06514e-07
2.38585e-07
3.25132e-07
-4.95016e-07
-2.05435e-07
3.19787e-07
-8.55499e-08
2.38686e-07
2.07189e-07
3.27483e-07
-3.02181e-07
-1.57128e-07
-4.08084e-07
2.37373e-07
3.2404e-07
-4.9618e-07
2.78829e-07
-3.19907e-07
-3.19259e-07
2.45489e-07
2.48534e-07
-1.33686e-07
8.49471e-08
9.13866e-08
-8.1683e-07
-8.8194e-08
-8.50448e-08
8.13735e-07
-2.0476e-07
3.2013e-07
-8.97305e-08
2.35462e-07
2.04333e-07
3.28023e-07
-3.00249e-07
-1.5514e-07
-4.0585e-07
2.38133e-07
3.24463e-07
-4.94815e-07
-2.07205e-07
3.2138e-07
-9.25854e-08
2.30091e-07
2.04982e-07
3.29011e-07
-2.98017e-07
-1.53207e-07
-4.05118e-07
2.39062e-07
3.25487e-07
-4.9388e-07
2.78476e-07
-3.20603e-07
-3.2062e-07
2.46707e-07
2.4891e-07
-1.32869e-07
9.01735e-08
8.56793e-08
-8.01028e-07
-8.20159e-08
-8.90549e-08
7.96246e-07
-1.9627e-07
3.20412e-07
-9.02412e-08
2.31602e-07
1.93336e-07
3.27989e-07
-2.98007e-07
-1.53314e-07
-4.04332e-07
2.38767e-07
3.24053e-07
-4.93994e-07
-1.97307e-07
3.19217e-07
-9.11549e-08
2.35395e-07
1.95105e-07
3.27866e-07
-2.98413e-07
-1.52885e-07
-4.04117e-07
2.37505e-07
3.23281e-07
-4.9449e-07
2.74706e-07
-3.20428e-07
-3.20401e-07
2.467e-07
2.48676e-07
-1.29253e-07
8.4973e-08
8.70259e-08
-7.8954e-07
-8.46794e-08
-8.75134e-08
7.89734e-07
-1.87874e-07
3.19173e-07
-9.00442e-08
2.33945e-07
1.86436e-07
3.27214e-07
-2.99212e-07
-1.54063e-07
-4.03724e-07
2.38659e-07
3.23325e-07
-4.93836e-07
-1.88906e-07
3.18472e-07
-8.64289e-08
2.35601e-07
1.86738e-07
3.26264e-07
-2.98782e-07
-1.54044e-07
-4.04243e-07
2.37647e-07
3.22073e-07
-4.94392e-07
2.72451e-07
-3.18255e-07
-3.17357e-07
2.43851e-07
2.46937e-07
-1.27627e-07
8.69838e-08
8.23591e-08
-7.96973e-07
-8.21804e-08
-9.13423e-08
8.01153e-07
-1.91125e-07
3.18335e-07
-8.41109e-08
2.3758e-07
1.9304e-07
3.25829e-07
-3.01284e-07
-1.56467e-07
-4.06494e-07
2.37912e-07
3.22531e-07
-4.95747e-07
-1.90479e-07
3.17062e-07
-8.09272e-08
2.43731e-07
1.9403e-07
3.25086e-07
-3.02762e-07
-1.57297e-07
-4.08192e-07
2.3603e-07
3.21294e-07
-4.97575e-07
2.76145e-07
-3.17688e-07
-3.17104e-07
2.43582e-07
2.46677e-07
-1.31612e-07
8.68688e-08
8.73124e-08
-8.06266e-07
-8.51453e-08
-8.76654e-08
8.04895e-07
-1.97978e-07
3.20389e-07
-8.69185e-08
2.35777e-07
1.98869e-07
3.27643e-07
-3.00903e-07
-1.56112e-07
-4.075e-07
2.38778e-07
3.24242e-07
-4.96285e-07
-2.00386e-07
3.21071e-07
-8.97982e-08
2.34672e-07
1.99807e-07
3.28608e-07
-3.00345e-07
-1.55274e-07
-4.06689e-07
2.39047e-07
3.24903e-07
-4.95614e-07
2.77606e-07
-3.21226e-07
-3.20885e-07
2.47134e-07
2.49691e-07
-1.32322e-07
9.25326e-08
9.3055e-08
-7.92322e-07
-8.6043e-08
-8.66916e-08
7.79469e-07
-1.99141e-07
3.25623e-07
-9.51322e-08
2.37753e-07
2.00783e-07
3.32792e-07
-3.05659e-07
-1.59362e-07
-4.11382e-07
2.44849e-07
3.30606e-07
-5.0173e-07
-1.99787e-07
3.26139e-07
-9.74793e-08
2.35965e-07
2.02174e-07
3.33426e-07
-3.05227e-07
-1.588e-07
-4.11108e-07
2.4502e-07
3.31061e-07
-5.01385e-07
2.74229e-07
-3.26342e-07
-3.2618e-07
2.53213e-07
2.55528e-07
-1.30447e-07
-4.28819e-09
-2.53818e-09
-6.74279e-07
-2.5647e-08
-2.82189e-08
7.34971e-07
-1.86727e-07
3.28137e-07
-3.65812e-09
3.7757e-07
3.05856e-07
3.30599e-07
-3.97139e-07
-2.37615e-07
-5.04391e-07
2.4926e-07
3.35947e-07
-5.9784e-07
-1.8628e-07
3.26945e-07
1.49429e-09
3.80056e-07
3.04922e-07
3.29495e-07
-3.97454e-07
-2.37941e-07
-5.04942e-07
2.47824e-07
3.3431e-07
-5.9843e-07
2.37233e-07
-3.28087e-07
-3.27454e-07
2.7551e-07
2.78291e-07
-1.35492e-07
-2.05691e-06
-2.04874e-06
4.06434e-07
7.68014e-07
7.70299e-07
2.1609e-06
-3.85183e-07
1.59392e-07
2.04808e-06
1.97172e-06
1.56487e-07
1.56722e-07
-1.06724e-06
-7.91882e-07
-1.20039e-06
5.76787e-08
1.59898e-07
-1.26528e-06
-3.76333e-07
1.63261e-07
2.05267e-06
1.94412e-06
1.56734e-07
1.6117e-07
-1.06263e-06
-7.87247e-07
-1.20678e-06
5.88693e-08
1.60483e-07
-1.26432e-06
-9.13851e-08
-1.589e-07
-1.64198e-07
2.81873e-07
2.82781e-07
-1.50172e-07
-5.3861e-06
-5.38674e-06
1.03376e-05
1.89063e-05
1.89013e-05
4.27937e-06
9.79033e-07
2.74157e-06
2.74159e-06
-5.63397e-06
-8.51118e-06
-9.91013e-06
-5.63448e-06
-8.51271e-06
-9.9114e-06
-5.33429e-06
-4.02401e-06
5.38481e-06
-2.94139e-06
2.79416e-06
4.12072e-06
-5.3336e-06
5.38546e-06
-4.02503e-06
2.79554e-06
-2.94246e-06
4.12009e-06
-4.2594e-06
4.01808e-06
4.01759e-06
-3.22253e-06
-3.22592e-06
2.67218e-06
2.98741e-07
2.98621e-07
-2.76029e-07
1.30183e-07
-2.25994e-07
-2.25521e-07
2.08642e-07
-8.44269e-08
-2.09204e-07
2.3582e-07
3.18743e-07
-1.53626e-07
3.26718e-07
3.21537e-07
-4.96129e-07
2.36332e-07
-4.05664e-07
-2.97757e-07
2.09569e-07
-8.69072e-08
-2.10243e-07
2.35016e-07
3.17769e-07
-1.53338e-07
3.25827e-07
3.2238e-07
-4.95422e-07
2.37828e-07
-4.04722e-07
2.99254e-07
-2.75213e-07
1.29327e-07
-2.26232e-07
-2.24894e-07
1.87267e-07
-8.54494e-08
-1.87959e-07
2.36258e-07
3.17902e-07
-1.54409e-07
3.25806e-07
3.22073e-07
-4.95366e-07
2.3747e-07
-4.0497e-07
-2.97798e-07
2.11965e-07
-8.90414e-08
-2.11632e-07
2.34559e-07
3.18155e-07
-1.53276e-07
3.26367e-07
3.22166e-07
-4.94904e-07
2.3774e-07
-4.04298e-07
-8.25739e-08
-1.84946e-07
2.36421e-07
3.17349e-07
-1.54679e-07
3.25087e-07
3.21271e-07
-4.95385e-07
-4.05082e-07
2.36989e-07
-2.99886e-07
2.07366e-07
-8.2718e-08
-2.07721e-07
2.41302e-07
3.16684e-07
-1.54323e-07
3.25447e-07
3.20491e-07
-4.96659e-07
2.35562e-07
-4.05544e-07
2.99244e-07
-2.74119e-07
1.28762e-07
-2.26359e-07
-2.25326e-07
-8.34414e-08
-1.86973e-07
2.36452e-07
3.17578e-07
-1.54884e-07
3.25005e-07
3.21254e-07
-4.95138e-07
-4.0528e-07
2.37089e-07
-3.00084e-07
1.86598e-07
-7.82554e-08
-1.86282e-07
2.43485e-07
3.15556e-07
-1.55989e-07
3.23346e-07
3.19969e-07
-4.9745e-07
2.35874e-07
-4.06767e-07
1.28236e-07
-2.27295e-07
-2.27283e-07
-3.18617e-07
-3.17539e-07
2.43959e-07
2.47021e-07
-1.30852e-07
3.00993e-07
3.015e-07
-2.78093e-07
1.32383e-07
-2.28888e-07
-2.27895e-07
2.3674e-07
2.08405e-07
3.26705e-07
-2.99514e-07
-1.54236e-07
-4.06367e-07
2.36447e-07
3.21541e-07
-4.96752e-07
3.17048e-07
-8.45215e-08
2.38555e-07
2.10892e-07
3.25386e-07
-2.99064e-07
-1.54278e-07
-4.06101e-07
2.36858e-07
3.21581e-07
-4.96786e-07
2.18707e-07
-8.73459e-08
-2.15738e-07
2.37996e-07
3.18827e-07
-1.55162e-07
3.27127e-07
3.22644e-07
-4.96389e-07
2.36827e-07
-4.06499e-07
-3.00981e-07
2.20903e-07
-8.37329e-08
-2.17627e-07
2.39831e-07
3.1794e-07
-1.56192e-07
3.26016e-07
3.21961e-07
-4.97282e-07
2.36486e-07
-4.07322e-07
2.44418e-07
2.44206e-07
-1.30291e-07
3.02367e-07
-2.79678e-07
1.33592e-07
-2.29138e-07
-2.28124e-07
2.38587e-07
1.86794e-07
3.25364e-07
-2.99692e-07
-1.55489e-07
-4.05797e-07
2.37383e-07
3.21767e-07
-4.96104e-07
3.17905e-07
-8.71192e-08
2.3662e-07
2.12815e-07
3.26089e-07
-2.98515e-07
-1.53931e-07
-4.05111e-07
2.3721e-07
3.21658e-07
-4.95656e-07
1.9613e-07
-8.01602e-08
-1.92999e-07
2.40795e-07
3.17312e-07
-1.57673e-07
3.24425e-07
3.21339e-07
-4.96972e-07
2.37004e-07
-4.07699e-07
-3.01112e-07
2.18698e-07
-8.05244e-08
-2.17194e-07
2.41193e-07
3.17601e-07
-1.56972e-07
3.25117e-07
3.2111e-07
-4.97045e-07
2.36425e-07
-4.07296e-07
-7.96658e-08
2.42992e-07
2.09475e-07
3.24828e-07
-3.01043e-07
-1.55572e-07
-4.0697e-07
2.34887e-07
-4.9762e-07
3.19759e-07
-8.03414e-08
-1.92962e-07
2.4167e-07
3.1729e-07
-1.57478e-07
3.24903e-07
3.21661e-07
-4.97004e-07
-4.07821e-07
2.36288e-07
-3.0153e-07
2.18623e-07
-8.22886e-08
-2.16019e-07
2.40667e-07
3.18221e-07
-1.56471e-07
3.26167e-07
3.21441e-07
-4.97151e-07
2.35886e-07
-4.07546e-07
2.45055e-07
2.45319e-07
-1.29283e-07
3.01146e-07
-2.7747e-07
1.31814e-07
-2.27705e-07
-2.28898e-07
-7.83997e-08
2.44763e-07
1.88857e-07
3.23409e-07
-3.00964e-07
-1.56532e-07
-4.07516e-07
2.35608e-07
-4.97969e-07
3.19976e-07
-8.51408e-08
-1.93335e-07
2.40244e-07
3.17884e-07
-1.55679e-07
3.26108e-07
3.22326e-07
-4.96675e-07
-4.071e-07
2.36789e-07
-3.01209e-07
1.97745e-07
-8.42736e-08
-1.95134e-07
2.40569e-07
3.17726e-07
-1.56687e-07
3.25564e-07
3.2232e-07
-4.96697e-07
2.37097e-07
-4.0702e-07
1.32087e-07
-2.28582e-07
-2.28721e-07
-3.1907e-07
-3.17582e-07
2.43784e-07
2.47643e-07
-1.32868e-07
3.01555e-07
3.00482e-07
-2.79741e-07
1.34023e-07
-2.27446e-07
-2.28873e-07
2.38093e-07
2.21388e-07
3.27396e-07
-3.011e-07
-1.55317e-07
-4.0669e-07
2.37029e-07
3.23031e-07
-4.9641e-07
3.18742e-07
-8.40501e-08
2.38426e-07
2.24294e-07
3.2646e-07
-3.00871e-07
-1.56303e-07
-4.07618e-07
2.3679e-07
3.2232e-07
-4.97288e-07
2.27111e-07
-8.6933e-08
-2.26223e-07
2.38249e-07
3.19955e-07
-1.56476e-07
3.27502e-07
3.23532e-07
-4.95777e-07
2.37308e-07
-4.06691e-07
-3.00304e-07
2.29851e-07
-8.66987e-08
-2.28958e-07
2.35676e-07
3.19973e-07
-1.56428e-07
3.2714e-07
3.23817e-07
-4.95507e-07
2.38055e-07
-4.06615e-07
2.4551e-07
2.45832e-07
-1.34125e-07
3.00376e-07
-2.80483e-07
1.34494e-07
-2.26757e-07
-2.27934e-07
2.40067e-07
1.98606e-07
3.24711e-07
-3.01537e-07
-1.57797e-07
-4.07968e-07
2.37498e-07
3.22093e-07
-4.96738e-07
3.17678e-07
-7.7033e-08
2.42551e-07
2.21277e-07
3.24811e-07
-3.01854e-07
-1.57872e-07
-4.0896e-07
2.35854e-07
3.20576e-07
-4.9833e-07
2.06181e-07
-8.43412e-08
-2.04272e-07
2.35805e-07
3.19518e-07
-1.56446e-07
3.26585e-07
3.23974e-07
-4.96456e-07
2.38193e-07
-4.0826e-07
-3.02128e-07
2.30039e-07
-8.15323e-08
-2.27117e-07
2.41963e-07
3.18674e-07
-1.57733e-07
3.26095e-07
3.22764e-07
-4.97977e-07
2.36441e-07
-4.09488e-07
-8.28186e-08
2.40308e-07
2.21028e-07
3.26515e-07
-3.01672e-07
-1.56545e-07
-4.07969e-07
2.36284e-07
-4.97364e-07
3.22025e-07
-8.85056e-08
-2.03374e-07
2.34047e-07
3.20305e-07
-1.5534e-07
3.27961e-07
3.24717e-07
-4.95518e-07
-4.07165e-07
2.38249e-07
-3.01318e-07
2.27806e-07
-8.60619e-08
-2.26045e-07
2.39734e-07
3.19424e-07
-1.55935e-07
3.27552e-07
3.23175e-07
-4.96918e-07
2.36481e-07
-4.07894e-07
2.4589e-07
2.44989e-07
-1.32613e-07
3.02918e-07
-2.80902e-07
1.35072e-07
-2.29809e-07
-2.29406e-07
-8.41709e-08
2.39668e-07
1.99811e-07
3.26028e-07
-3.01449e-07
-1.5697e-07
-4.07379e-07
2.37644e-07
-4.96743e-07
3.22972e-07
-8.36403e-08
-2.02362e-07
2.41533e-07
3.18685e-07
-1.57583e-07
3.26663e-07
3.23309e-07
-4.96999e-07
-4.08778e-07
2.36655e-07
-3.01352e-07
2.06942e-07
-8.11139e-08
-2.04957e-07
2.39184e-07
3.18677e-07
-1.57349e-07
3.2604e-07
3.22894e-07
-4.9717e-07
2.3708e-07
-4.08875e-07
1.3327e-07
-2.28777e-07
-2.28334e-07
-3.20084e-07
-3.20057e-07
2.46058e-07
2.48742e-07
-1.34401e-07
3.00246e-07
2.99109e-07
-2.78458e-07
1.33193e-07
-2.26627e-07
-2.27463e-07
2.38188e-07
2.27671e-07
3.27246e-07
-3.01694e-07
-1.57055e-07
-4.07292e-07
2.37348e-07
3.2341e-07
-4.96029e-07
3.20195e-07
-8.46837e-08
2.35341e-07
2.29598e-07
3.26914e-07
-3.00156e-07
-1.56641e-07
-4.06968e-07
2.38175e-07
3.23636e-07
-4.9556e-07
2.26343e-07
-8.40709e-08
-2.27666e-07
2.34603e-07
3.20611e-07
-1.56007e-07
3.27353e-07
3.23722e-07
-4.95523e-07
2.37875e-07
-4.06994e-07
-3.00249e-07
2.28824e-07
-8.36405e-08
-2.29769e-07
2.37189e-07
3.19471e-07
-1.56609e-07
3.26301e-07
3.23594e-07
-4.95895e-07
2.38016e-07
-4.07232e-07
2.48108e-07
2.46941e-07
-1.34457e-07
3.00478e-07
-2.79805e-07
1.34087e-07
-2.27284e-07
-2.27725e-07
2.34879e-07
2.07353e-07
3.27545e-07
-3.00252e-07
-1.55948e-07
-4.07562e-07
2.38776e-07
3.24948e-07
-4.9595e-07
3.19882e-07
-8.45049e-08
2.38615e-07
2.31868e-07
3.27205e-07
-3.01343e-07
-1.57126e-07
-4.08713e-07
2.37317e-07
3.23854e-07
-4.97015e-07
2.05284e-07
-9.28126e-08
-2.07116e-07
2.33341e-07
3.20789e-07
-1.54647e-07
3.28542e-07
3.25542e-07
-4.94251e-07
2.39567e-07
-4.0513e-07
-2.98448e-07
2.3137e-07
-9.19591e-08
-2.33054e-07
2.30636e-07
3.21368e-07
-1.54711e-07
3.2842e-07
3.25247e-07
-4.93669e-07
2.39433e-07
-4.04632e-07
-8.61717e-08
2.38543e-07
2.28183e-07
3.27875e-07
-3.01195e-07
-1.55895e-07
-4.07417e-07
2.36785e-07
-4.96445e-07
3.23635e-07
-8.92011e-08
-2.05195e-07
2.35665e-07
3.20308e-07
-1.55147e-07
3.28281e-07
3.24471e-07
-4.95245e-07
-4.06323e-07
2.38103e-07
-3.00636e-07
2.28132e-07
-8.57302e-08
-2.2856e-07
2.35809e-07
3.20211e-07
-1.56069e-07
3.27587e-07
3.23759e-07
-4.95364e-07
2.3731e-07
-4.06449e-07
2.47449e-07
2.46789e-07
-1.35472e-07
2.98838e-07
-2.77926e-07
1.32985e-07
-2.25766e-07
-2.26578e-07
-8.18744e-08
2.3826e-07
2.07731e-07
3.26536e-07
-3.01019e-07
-1.57065e-07
-4.08645e-07
2.37324e-07
-4.96924e-07
3.23361e-07
-9.17244e-08
-2.08188e-07
2.30328e-07
3.21638e-07
-1.54196e-07
3.28984e-07
3.25594e-07
-4.9409e-07
-4.05744e-07
2.39031e-07
-2.99799e-07
2.07624e-07
-8.8463e-08
-2.08419e-07
2.3561e-07
3.20049e-07
-1.55592e-07
3.27579e-07
3.24888e-07
-4.95305e-07
2.38393e-07
-4.06566e-07
1.33268e-07
-2.27008e-07
-2.2822e-07
-3.20338e-07
-3.2019e-07
2.4645e-07
2.48313e-07
-1.32693e-07
2.9831e-07
2.98273e-07
-2.76048e-07
1.30772e-07
-2.25921e-07
-2.25386e-07
2.3403e-07
2.25421e-07
3.27301e-07
-2.99696e-07
-1.55301e-07
-4.06765e-07
2.37779e-07
3.23665e-07
-4.95482e-07
3.19485e-07
-8.57603e-08
2.35557e-07
2.28663e-07
3.26488e-07
-2.99796e-07
-1.56115e-07
-4.06628e-07
2.38317e-07
3.24076e-07
-4.95463e-07
2.19307e-07
-9.10069e-08
-2.21755e-07
2.33315e-07
3.2027e-07
-1.53299e-07
3.28025e-07
3.23961e-07
-4.94209e-07
2.38104e-07
-4.04403e-07
-2.97104e-07
2.21844e-07
-9.07957e-08
-2.24854e-07
2.28629e-07
3.20846e-07
-1.53447e-07
3.27975e-07
3.2468e-07
-4.93346e-07
2.39496e-07
-4.03924e-07
2.47819e-07
2.46003e-07
-1.34012e-07
2.97961e-07
-2.7725e-07
1.31769e-07
-2.24788e-07
-2.24795e-07
2.335e-07
2.03865e-07
3.27975e-07
-2.99023e-07
-1.54742e-07
-4.04948e-07
2.39227e-07
3.24806e-07
-4.9418e-07
3.20784e-07
-9.01359e-08
2.30597e-07
2.28749e-07
3.2782e-07
-2.98092e-07
-1.54587e-07
-4.04291e-07
2.39353e-07
3.24707e-07
-4.93534e-07
1.97107e-07
-8.61457e-08
-1.99376e-07
2.33159e-07
3.1934e-07
-1.54809e-07
3.26456e-07
3.23151e-07
-4.94215e-07
2.3859e-07
-4.04984e-07
-2.9839e-07
2.20976e-07
-8.19771e-08
-2.23231e-07
2.35202e-07
3.18486e-07
-1.5522e-07
3.25426e-07
3.21938e-07
-4.95031e-07
2.37487e-07
-4.05665e-07
-8.68723e-08
2.33415e-07
2.27232e-07
3.27796e-07
-2.99832e-07
-1.55557e-07
-4.05785e-07
2.37864e-07
-4.94735e-07
3.24003e-07
-9.09238e-08
-1.99642e-07
2.30344e-07
3.2095e-07
-1.53454e-07
3.2843e-07
3.24572e-07
-4.93466e-07
-4.04196e-07
2.39078e-07
-2.97425e-07
2.19828e-07
-9.00596e-08
-2.22568e-07
2.29978e-07
3.20636e-07
-1.53377e-07
3.27906e-07
3.24029e-07
-4.93479e-07
2.38691e-07
-4.0416e-07
2.48642e-07
2.47452e-07
-1.31856e-07
2.97946e-07
-2.75504e-07
1.30229e-07
-2.24637e-07
-2.26423e-07
-9.14353e-08
2.32384e-07
2.06513e-07
3.28249e-07
-2.98842e-07
-1.54656e-07
-4.05387e-07
2.39151e-07
-4.94379e-07
3.25407e-07
-9.1983e-08
-1.99776e-07
2.33672e-07
3.19668e-07
-1.52457e-07
3.28332e-07
3.23842e-07
-4.94323e-07
-4.04291e-07
2.37956e-07
-2.96482e-07
1.99913e-07
-9.45258e-08
-2.02039e-07
2.26954e-07
3.20801e-07
-1.52486e-07
3.28583e-07
3.25097e-07
-4.92738e-07
2.39985e-07
-4.03062e-07
1.29863e-07
-2.24149e-07
-2.24914e-07
-3.19889e-07
-3.18964e-07
2.45101e-07
2.48304e-07
-1.306e-07
2.99195e-07
2.98702e-07
-2.76207e-07
1.30693e-07
-2.26149e-07
-2.26235e-07
2.33475e-07
2.15854e-07
3.27864e-07
-2.9823e-07
-1.53229e-07
-4.04001e-07
2.38142e-07
3.23837e-07
-4.9412e-07
3.20286e-07
-8.91326e-08
2.29633e-07
2.18283e-07
3.2753e-07
-2.97343e-07
-1.53696e-07
-4.03827e-07
2.39425e-07
3.24263e-07
-4.93577e-07
2.09725e-07
-8.45117e-08
-2.10779e-07
2.35594e-07
3.19175e-07
-1.54374e-07
3.2676e-07
3.21888e-07
-4.95643e-07
2.37006e-07
-4.05646e-07
-2.98379e-07
2.11812e-07
-8.45494e-08
-2.13048e-07
2.33715e-07
3.18594e-07
-1.54872e-07
3.25729e-07
3.22574e-07
-4.94827e-07
2.38273e-07
-4.05023e-07
2.47917e-07
2.468e-07
-1.31268e-07
2.98715e-07
-2.76882e-07
1.31025e-07
-2.25382e-07
-2.25855e-07
2.3317e-07
1.94266e-07
3.26234e-07
-2.98033e-07
-1.54505e-07
-4.04935e-07
2.38704e-07
3.23268e-07
-4.94348e-07
3.18287e-07
-8.15988e-08
2.35548e-07
2.18568e-07
3.25307e-07
-2.98539e-07
-1.55185e-07
-4.05655e-07
2.37456e-07
3.22003e-07
-4.95215e-07
1.88594e-07
-8.75429e-08
-1.89861e-07
2.35291e-07
3.18498e-07
-1.54581e-07
3.26153e-07
3.22983e-07
-4.94665e-07
2.38502e-07
-4.04669e-07
-2.9724e-07
2.13429e-07
-8.84369e-08
-2.15395e-07
2.32376e-07
3.19062e-07
-1.53462e-07
3.26487e-07
3.23015e-07
-4.94214e-07
2.38363e-07
-4.03984e-07
-8.9387e-08
2.29633e-07
2.16925e-07
3.27718e-07
-2.97124e-07
-1.53085e-07
-4.03949e-07
2.38594e-07
-4.9365e-07
3.23725e-07
-9.07301e-08
-1.88423e-07
2.33637e-07
3.19031e-07
-1.5355e-07
3.27182e-07
3.23197e-07
-4.94015e-07
-4.03805e-07
2.38316e-07
-2.97335e-07
2.10515e-07
-8.89485e-08
-2.12312e-07
2.32876e-07
3.18756e-07
-1.52552e-07
3.26832e-07
3.22555e-07
-4.94375e-07
2.37612e-07
-4.03625e-07
2.47331e-07
2.44998e-07
-1.30329e-07
2.9825e-07
-2.74626e-07
1.29422e-07
-2.25446e-07
-2.24839e-07
-9.41727e-08
2.27298e-07
1.97118e-07
3.28256e-07
-2.96471e-07
-1.52531e-07
-4.02442e-07
2.40025e-07
-4.92452e-07
3.24884e-07
-8.89118e-08
-1.90376e-07
2.33739e-07
3.19068e-07
-1.53572e-07
3.26895e-07
3.22342e-07
-4.93833e-07
-4.03665e-07
2.37658e-07
-2.97516e-07
1.89391e-07
-8.69297e-08
-1.91451e-07
2.3388e-07
3.17928e-07
-1.53863e-07
3.25521e-07
3.22312e-07
-4.94031e-07
2.38347e-07
-4.03588e-07
1.27528e-07
-2.25378e-07
-2.2455e-07
-3.18944e-07
-3.18143e-07
2.44365e-07
2.47396e-07
-1.30881e-07
2.99914e-07
3.00136e-07
-2.77159e-07
1.31447e-07
-2.27621e-07
-2.26717e-07
2.35979e-07
2.09519e-07
3.26633e-07
-2.99387e-07
-1.54396e-07
-4.0583e-07
2.37028e-07
3.22077e-07
-4.95869e-07
3.18936e-07
-8.46892e-08
2.33715e-07
2.11597e-07
3.26e-07
-2.98351e-07
-1.54615e-07
-4.05705e-07
2.38084e-07
3.2245e-07
-4.95609e-07
2.13645e-07
-8.91354e-08
-2.11949e-07
2.36055e-07
3.19412e-07
-1.543e-07
3.27545e-07
3.23002e-07
-4.95961e-07
2.3744e-07
-4.05839e-07
-2.99099e-07
2.15671e-07
-8.87844e-08
-2.14175e-07
2.34832e-07
3.19203e-07
-1.54409e-07
3.2707e-07
3.23171e-07
-4.95884e-07
2.38238e-07
-4.05834e-07
2.46804e-07
2.45602e-07
-1.31179e-07
3.00634e-07
-2.77598e-07
1.31833e-07
-2.27744e-07
-2.26223e-07
2.35873e-07
1.87775e-07
3.25919e-07
-2.99162e-07
-1.55044e-07
-4.04746e-07
2.38591e-07
3.22998e-07
-4.94728e-07
3.18635e-07
-8.71667e-08
2.34091e-07
2.11852e-07
3.26279e-07
-2.97611e-07
-1.53565e-07
-4.0453e-07
2.37984e-07
3.22551e-07
-4.9509e-07
1.92019e-07
-8.29469e-08
-1.89763e-07
2.36372e-07
3.1814e-07
-1.56345e-07
3.25209e-07
3.22181e-07
-4.96045e-07
2.38052e-07
-4.06738e-07
-3.01348e-07
2.13956e-07
-8.07176e-08
-2.11912e-07
2.44076e-07
3.16845e-07
-1.56564e-07
3.24902e-07
3.20654e-07
-4.98002e-07
2.35907e-07
-4.07797e-07
-8.66865e-08
2.3584e-07
2.0882e-07
3.26485e-07
-2.98096e-07
-1.52947e-07
-4.04474e-07
2.36937e-07
-4.95457e-07
3.21839e-07
-8.44555e-08
-1.8889e-07
2.35638e-07
3.18672e-07
-1.5585e-07
3.26123e-07
3.2224e-07
-4.95574e-07
-4.06285e-07
2.37891e-07
-3.01974e-07
2.12707e-07
-8.07772e-08
-2.09635e-07
2.44382e-07
3.16958e-07
-1.56435e-07
3.25257e-07
3.20252e-07
-4.98073e-07
2.35064e-07
-4.07726e-07
2.46171e-07
2.45399e-07
-1.29089e-07
3.02204e-07
-2.77502e-07
1.31588e-07
-2.28951e-07
-2.28687e-07
-8.36863e-08
2.36694e-07
1.87632e-07
3.24969e-07
-2.98307e-07
-1.54466e-07
-4.04753e-07
2.37715e-07
-4.95252e-07
3.21488e-07
-7.89147e-08
-1.87484e-07
2.4346e-07
3.16694e-07
-1.56868e-07
3.24742e-07
3.20516e-07
-4.9787e-07
-4.0832e-07
2.35769e-07
-3.01746e-07
1.92114e-07
-7.86934e-08
-1.8894e-07
2.42863e-07
3.16246e-07
-1.57283e-07
3.24117e-07
3.20715e-07
-4.97763e-07
2.36305e-07
-4.07933e-07
1.30722e-07
-2.29166e-07
-2.29131e-07
-3.19549e-07
-3.1831e-07
2.44451e-07
2.48195e-07
-1.31946e-07
3.00234e-07
2.9987e-07
-2.77031e-07
1.31948e-07
-2.27464e-07
-2.27558e-07
2.36831e-07
2.14987e-07
3.27581e-07
-3.0043e-07
-1.54868e-07
-4.06558e-07
2.37325e-07
3.22784e-07
-4.96573e-07
3.19051e-07
-8.74697e-08
2.35899e-07
2.17613e-07
3.26915e-07
-2.99728e-07
-1.55106e-07
-4.06326e-07
2.38087e-07
3.23056e-07
-4.96322e-07
2.20587e-07
-8.76109e-08
-2.20783e-07
2.35017e-07
3.20513e-07
-1.55096e-07
3.28036e-07
3.23696e-07
-4.95916e-07
2.37934e-07
-4.06142e-07
-2.99913e-07
2.2326e-07
-8.9115e-08
-2.2266e-07
2.35652e-07
3.19986e-07
-1.55412e-07
3.27616e-07
3.23886e-07
-4.95807e-07
2.38578e-07
-4.06069e-07
2.45892e-07
2.46098e-07
-1.32202e-07
3.01104e-07
-2.78856e-07
1.33187e-07
-2.27984e-07
-2.27365e-07
2.36924e-07
1.93591e-07
3.25506e-07
-3.00525e-07
-1.56594e-07
-4.07216e-07
2.38216e-07
3.22528e-07
-4.96363e-07
3.17275e-07
-8.04242e-08
2.43795e-07
2.17341e-07
3.25127e-07
-3.01989e-07
-1.57375e-07
-4.08366e-07
2.35876e-07
3.20901e-07
-4.98204e-07
1.99158e-07
-8.72457e-08
-1.99326e-07
2.35327e-07
3.19705e-07
-1.5581e-07
3.26912e-07
3.24324e-07
-4.95715e-07
2.39069e-07
-4.06528e-07
-2.99686e-07
2.24391e-07
-8.85874e-08
-2.24204e-07
2.34655e-07
3.20562e-07
-1.55583e-07
3.27763e-07
3.24005e-07
-4.95616e-07
2.38573e-07
-4.06271e-07
-8.11914e-08
2.43456e-07
2.15456e-07
3.25796e-07
-3.02091e-07
-1.56573e-07
-4.08077e-07
2.35485e-07
-4.98069e-07
3.20826e-07
-8.54392e-08
-1.97099e-07
2.3707e-07
3.19657e-07
-1.56352e-07
3.2701e-07
3.23739e-07
-4.96243e-07
-4.07502e-07
2.38285e-07
-3.0093e-07
2.22153e-07
-8.60883e-08
-2.20546e-07
2.36947e-07
3.20177e-07
-1.56111e-07
3.27621e-07
3.23197e-07
-4.96529e-07
2.37444e-07
-4.07333e-07
2.44982e-07
2.44713e-07
-1.32859e-07
3.0035e-07
-2.77977e-07
1.32832e-07
-2.27342e-07
-2.27548e-07
-8.00038e-08
2.41989e-07
1.94996e-07
3.24938e-07
-3.01756e-07
-1.57242e-07
-4.08253e-07
2.36722e-07
-4.97799e-07
3.21418e-07
-8.94975e-08
-1.99853e-07
2.35042e-07
3.20673e-07
-1.55349e-07
3.28283e-07
3.2456e-07
-4.9557e-07
-4.06849e-07
2.38525e-07
-3.0047e-07
2.01795e-07
-8.91952e-08
-2.00445e-07
2.3666e-07
3.19816e-07
-1.56056e-07
3.27418e-07
3.24428e-07
-4.9592e-07
2.38772e-07
-4.06804e-07
1.32541e-07
-2.28004e-07
-2.2833e-07
-3.20455e-07
-3.19711e-07
2.45937e-07
2.49049e-07
-1.31851e-07
3.02802e-07
3.02432e-07
-2.74781e-07
1.30869e-07
-2.30626e-07
-2.30696e-07
2.35778e-07
2.20453e-07
3.28018e-07
-3.00511e-07
-1.55342e-07
-4.0675e-07
2.38082e-07
3.23838e-07
-4.96564e-07
3.20566e-07
-8.91623e-08
2.33971e-07
2.23241e-07
3.28058e-07
-2.99844e-07
-1.55472e-07
-4.0612e-07
2.39281e-07
3.2454e-07
-4.958e-07
2.21332e-07
-8.98828e-08
-2.20299e-07
2.36181e-07
3.2311e-07
-1.57077e-07
3.30424e-07
3.26748e-07
-4.99504e-07
2.40945e-07
-4.09175e-07
-3.02206e-07
2.23359e-07
-9.0598e-08
-2.22932e-07
2.34536e-07
3.22768e-07
-1.57742e-07
3.29598e-07
3.27684e-07
-4.9851e-07
2.42422e-07
-4.0838e-07
2.47804e-07
2.47445e-07
-1.3315e-07
3.02566e-07
-2.75631e-07
1.31455e-07
-2.29958e-07
-2.30639e-07
2.35869e-07
1.98962e-07
3.27159e-07
-3.00172e-07
-1.55994e-07
-4.06803e-07
2.39314e-07
3.24577e-07
-4.96153e-07
3.20924e-07
-8.76828e-08
2.33782e-07
2.23444e-07
3.28043e-07
-2.99649e-07
-1.5564e-07
-4.06447e-07
2.39158e-07
3.24354e-07
-4.95896e-07
1.9951e-07
-8.98892e-08
-1.98676e-07
2.36251e-07
3.22426e-07
-1.57709e-07
3.2957e-07
3.27257e-07
-4.99212e-07
2.4206e-07
-4.09156e-07
-3.02499e-07
2.23756e-07
-8.98789e-08
-2.22631e-07
2.35307e-07
3.22699e-07
-1.58136e-07
3.29491e-07
3.27326e-07
-4.98745e-07
2.42071e-07
-4.0876e-07
-8.77211e-08
2.3501e-07
2.21366e-07
3.28497e-07
-3.00483e-07
-1.55721e-07
-4.06836e-07
2.38564e-07
-4.96114e-07
3.24365e-07
-9.36529e-08
-1.98792e-07
2.3513e-07
3.23131e-07
-1.56904e-07
3.30703e-07
3.28067e-07
-4.98229e-07
-4.08344e-07
2.42316e-07
-3.02457e-07
2.21836e-07
-9.31155e-08
-2.21623e-07
2.33337e-07
3.24041e-07
-1.57208e-07
3.31068e-07
3.27939e-07
-4.97952e-07
2.42278e-07
-4.08143e-07
2.48596e-07
2.47764e-07
-1.32343e-07
3.02549e-07
-2.75171e-07
1.31337e-07
-2.30057e-07
-2.31156e-07
-9.04612e-08
2.3465e-07
2.0047e-07
3.28321e-07
-3.00104e-07
-1.55813e-07
-4.06275e-07
2.39987e-07
-4.95419e-07
3.25553e-07
-9.46074e-08
-1.98576e-07
2.35034e-07
3.23242e-07
-1.56687e-07
3.31014e-07
3.28141e-07
-4.98349e-07
-4.08525e-07
2.42075e-07
-3.01859e-07
2.00738e-07
-9.50575e-08
-2.00582e-07
2.32575e-07
3.23817e-07
-1.57089e-07
3.30952e-07
3.28809e-07
-4.97714e-07
2.4345e-07
-4.08038e-07
1.30754e-07
-2.30149e-07
-2.30692e-07
-3.25639e-07
-3.25013e-07
2.51971e-07
2.54815e-07
-1.30915e-07
3.07909e-07
3.0702e-07
-2.39139e-07
1.18809e-07
-2.47229e-07
-2.47371e-07
2.37635e-07
2.2281e-07
3.32598e-07
-3.05721e-07
-1.59502e-07
-4.11517e-07
2.44068e-07
3.29972e-07
-5.02117e-07
3.25287e-07
-9.2584e-08
2.36598e-07
2.25311e-07
3.31664e-07
-3.0534e-07
-1.60265e-07
-4.11258e-07
2.45179e-07
3.30453e-07
-5.01686e-07
2.11717e-07
-2.18675e-07
-2.42681e-07
1.7706e-07
3.80888e-07
-1.56886e-07
3.81084e-07
3.89253e-07
-5.03627e-07
2.99331e-07
-4.09554e-07
-3.06803e-07
2.13158e-07
-2.20948e-07
-2.43806e-07
1.72526e-07
3.81066e-07
-1.56987e-07
3.80763e-07
3.90263e-07
-5.01968e-07
3.01141e-07
-4.08405e-07
2.53969e-07
2.52743e-07
-1.31433e-07
3.06824e-07
-2.40462e-07
1.19563e-07
-2.45713e-07
-2.47014e-07
2.37527e-07
2.01467e-07
3.31862e-07
-3.05187e-07
-1.5985e-07
-4.11658e-07
2.45052e-07
3.30401e-07
-5.02063e-07
3.25655e-07
-9.35502e-08
2.35468e-07
2.26226e-07
3.31948e-07
-3.05097e-07
-1.60153e-07
-4.11121e-07
2.45201e-07
3.30582e-07
-5.01404e-07
1.85588e-07
-2.21332e-07
-2.20948e-07
1.76504e-07
3.81055e-07
-1.5646e-07
3.8136e-07
3.90553e-07
-5.02354e-07
3.01172e-07
-4.0812e-07
-3.06299e-07
2.12504e-07
-2.20201e-07
-2.44096e-07
1.73031e-07
3.80781e-07
-1.56435e-07
3.80594e-07
3.89825e-07
-5.0208e-07
3.00516e-07
-4.08138e-07
-9.54744e-08
2.34524e-07
2.24724e-07
3.32924e-07
-3.0547e-07
-1.59743e-07
-4.10854e-07
2.45124e-07
-5.01026e-07
3.30765e-07
-2.24486e-07
-2.20181e-07
1.75201e-07
3.81887e-07
-1.55726e-07
3.823e-07
3.90599e-07
-5.0215e-07
-4.08205e-07
3.00858e-07
-3.06368e-07
2.13358e-07
-2.23737e-07
-2.43831e-07
1.71924e-07
3.81775e-07
-1.55738e-07
3.81715e-07
3.90245e-07
-5.01863e-07
3.00474e-07
-4.07955e-07
2.54548e-07
2.53138e-07
-1.31063e-07
3.06493e-07
-2.37172e-07
1.17232e-07
-2.45962e-07
-2.4689e-07
-9.83235e-08
2.33738e-07
2.03695e-07
3.33003e-07
-3.04747e-07
-1.59354e-07
-4.10579e-07
2.46312e-07
-5.00804e-07
3.31617e-07
-2.2332e-07
-2.20945e-07
1.75561e-07
3.81588e-07
-1.55311e-07
3.82166e-07
3.90036e-07
-5.01983e-07
-4.07835e-07
3.00255e-07
-3.05593e-07
1.85678e-07
-2.25558e-07
-2.21457e-07
1.71353e-07
3.82078e-07
-1.55488e-07
3.82055e-07
3.91423e-07
-5.00352e-07
3.02327e-07
-4.06466e-07
1.16945e-07
-2.45895e-07
-2.45778e-07
-3.27041e-07
-3.26446e-07
2.74242e-07
2.76991e-07
-1.36885e-07
2.33234e-07
2.31911e-07
8.8786e-08
-1.06238e-08
-2.71814e-07
-2.71494e-07
3.81885e-07
3.28909e-07
3.29271e-07
-3.9791e-07
-2.3861e-07
-5.05688e-07
2.47425e-07
3.34538e-07
-5.9943e-07
3.27858e-07
3.09162e-09
3.76397e-07
3.29187e-07
3.29373e-07
-3.96617e-07
-2.3855e-07
-5.04801e-07
2.49562e-07
3.35579e-07
-5.97922e-07
4.12967e-07
-1.86627e-06
-4.75245e-07
-7.30014e-07
9.23063e-07
-4.89309e-08
8.29199e-07
9.72917e-07
-3.5569e-07
8.26926e-07
-2.5569e-07
-2.31547e-07
4.13627e-07
-1.87106e-06
-4.7685e-07
-7.36445e-07
9.24798e-07
-4.84397e-08
8.29448e-07
9.7455e-07
-3.53495e-07
8.29538e-07
-2.54123e-07
2.77368e-07
2.75898e-07
-1.37733e-07
2.32189e-07
9.02875e-08
-1.21475e-08
-2.70962e-07
-2.70914e-07
3.79885e-07
3.05196e-07
3.28641e-07
-3.97938e-07
-2.39284e-07
-5.05074e-07
2.48731e-07
3.35082e-07
-5.98634e-07
3.2672e-07
5.93918e-09
3.79006e-07
3.28318e-07
3.28589e-07
-3.96763e-07
-2.38537e-07
-5.05089e-07
2.48241e-07
3.34378e-07
-5.98298e-07
3.81973e-07
-1.86827e-06
-4.50424e-07
-7.32824e-07
9.24686e-07
-4.84404e-08
8.29433e-07
9.74483e-07
-3.53806e-07
8.29622e-07
-2.54519e-07
-2.31814e-07
4.08326e-07
-1.85896e-06
-4.7402e-07
-7.35705e-07
9.2356e-07
-4.89411e-08
8.28458e-07
9.72491e-07
-3.55198e-07
8.27426e-07
-2.5562e-07
7.08689e-10
3.77976e-07
3.2933e-07
3.30261e-07
-3.96742e-07
-2.37483e-07
-5.04534e-07
2.48531e-07
-5.97995e-07
3.35219e-07
-1.87496e-06
-4.53017e-07
-7.33088e-07
9.26226e-07
-4.8131e-08
8.30939e-07
9.75485e-07
-3.52868e-07
-2.5381e-07
8.30232e-07
-2.32677e-07
4.17562e-07
-1.86644e-06
-4.80445e-07
-7.34018e-07
9.24587e-07
-4.86566e-08
8.29981e-07
9.7318e-07
-3.54976e-07
8.27472e-07
-2.55572e-07
2.7661e-07
2.75155e-07
-1.35272e-07
2.31539e-07
8.9424e-08
-1.1593e-08
-2.70441e-07
-2.70743e-07
1.01178e-09
3.7631e-07
3.03351e-07
3.29286e-07
-3.96885e-07
-2.38494e-07
-5.04119e-07
2.49669e-07
-5.97284e-07
3.35377e-07
-1.86731e-06
-4.49231e-07
-7.3417e-07
9.25951e-07
-4.74215e-08
8.31085e-07
9.74613e-07
-3.53363e-07
-2.53969e-07
8.29019e-07
-2.30732e-07
3.76828e-07
-1.87021e-06
-4.50493e-07
-7.3886e-07
9.26876e-07
-4.72066e-08
8.31139e-07
9.76182e-07
-3.51945e-07
8.31285e-07
-2.52864e-07
-1.42469e-08
-2.70256e-07
-2.70291e-07
-1.58126e-07
-1.62052e-07
2.79886e-07
2.8147e-07
-1.52392e-07
9.52177e-08
9.43579e-08
4.25653e-06