/*--------------------------------*- C++ -*----------------------------------*\
| =========                 |                                                 |
| \\      /  F ield         | OpenFOAM: The Open Source CFD Toolbox           |
|  \\    /   O peration     | Version:  2206                                  |
|   \\  /    A nd           | Website:  www.openfoam.com                      |
|    \\/     M anipulation  |                                                 |
\*---------------------------------------------------------------------------*/
FoamFile
{
    version     2.0;
    format      ascii;
    arch        "LSB;label=32;scalar=64";
    class       volVectorField;
    location    "4.5";
    object      U;
}
// * * * * * * * * * * * * * * * * * * * * * * * * * * * * * * * * * * * * * //

dimensions      [0 1 -1 0 0 0 0];

internalField   nonuniform List<vector> 
28673
(
(-1.15532e-07 2.62497e-07 0.100665)
(-3.1883e-05 -3.18915e-05 0.100665)
(-2.01613e-07 -1.98967e-07 0.100665)
(-1.89375e-07 3.0407e-07 0.100665)
(3.14797e-07 -1.94877e-07 0.100665)
(-3.19713e-05 -3.19756e-05 0.100665)
(-2.18906e-07 -2.2716e-07 0.100665)
(-1.57072e-07 2.89802e-07 0.100665)
(2.98695e-07 -1.56305e-07 0.100665)
(-3.19274e-05 -3.19405e-05 0.100665)
(-2.24311e-07 -2.28509e-07 0.100665)
(-1.55862e-07 2.89946e-07 0.100665)
(2.9301e-07 -1.52902e-07 0.100665)
(-3.19264e-05 -3.19373e-05 0.100665)
(-2.2502e-07 -2.2803e-07 0.100665)
(-1.56958e-07 2.90874e-07 0.100665)
(2.91857e-07 -1.52226e-07 0.100665)
(-3.19272e-05 -3.19379e-05 0.100665)
(-2.25656e-07 -2.28452e-07 0.100665)
(-1.55909e-07 2.90079e-07 0.100665)
(2.91748e-07 -1.52044e-07 0.100665)
(-3.19274e-05 -3.19374e-05 0.100665)
(-2.25154e-07 -2.28182e-07 0.100665)
(-1.56967e-07 2.90514e-07 0.100665)
(2.92373e-07 -1.53562e-07 0.100665)
(-3.1928e-05 -3.19378e-05 0.100665)
(-2.25768e-07 -2.28219e-07 0.100665)
(-1.55665e-07 2.8964e-07 0.100665)
(2.90658e-07 -1.51931e-07 0.100665)
(-3.19271e-05 -3.19368e-05 0.100665)
(-2.26648e-07 -2.27792e-07 0.100665)
(-1.54678e-07 2.89715e-07 0.100665)
(2.90256e-07 -1.51448e-07 0.100665)
(-3.19249e-05 -3.19358e-05 0.100665)
(-2.27585e-07 -2.28008e-07 0.100665)
(-1.57399e-07 2.89907e-07 0.100665)
(2.88423e-07 -1.56727e-07 0.100665)
(-3.19209e-05 -3.19345e-05 0.100665)
(-3.5814e-07 -3.52572e-07 0.100665)
(-1.10227e-07 2.56402e-07 0.100665)
(2.49536e-07 -1.07085e-07 0.100665)
(-3.17684e-05 -3.17752e-05 0.100665)
(-4.66647e-06 -4.61284e-06 0.100661)
(8.72722e-08 1.32409e-06 0.100663)
(1.28285e-06 1.05965e-07 0.100663)
(-2.30904e-05 -2.30719e-05 0.100666)
(-4.56264e-05 -4.54921e-05 0.100587)
(4.38011e-05 -3.2914e-05 0.100585)
(-3.30002e-05 4.37869e-05 0.100585)
(4.95117e-05 4.95462e-05 0.100594)
(-2.57158e-07 1.21834e-07 0.100665)
(3.28629e-05 -3.28403e-05 0.100665)
(-1.12415e-07 2.49988e-07 0.100665)
(-3.28212e-05 -3.27457e-05 0.100665)
(2.6232e-07 1.03832e-07 0.100665)
(-2.69247e-07 1.23026e-07 0.100665)
(3.07111e-07 2.06864e-07 0.100665)
(-3.22442e-07 2.01429e-07 0.100665)
(-3.1869e-05 3.18419e-05 0.100665)
(3.28016e-05 -3.27803e-05 0.100665)
(1.66502e-07 3.31097e-07 0.100665)
(1.64321e-07 -3.1071e-07 0.100665)
(-1.12739e-07 -2.53357e-07 0.100665)
(-1.94792e-07 3.13791e-07 0.100665)
(-2.13796e-07 -3.12838e-07 0.100665)
(-3.27903e-05 3.28047e-05 0.100665)
(-2.51964e-07 -1.08409e-07 0.100665)
(2.90002e-07 -1.93488e-07 0.100665)
(-3.24066e-07 -2.029e-07 0.100665)
(3.27627e-05 3.27956e-05 0.100665)
(3.19633e-05 3.19666e-05 0.100665)
(-3.28271e-05 -3.28141e-05 0.100666)
(3.15185e-07 1.99645e-07 0.100665)
(-3.12266e-07 1.96061e-07 0.100665)
(3.05683e-07 1.60314e-07 0.100665)
(-2.96566e-07 1.68213e-07 0.100665)
(-3.19652e-05 3.19378e-05 0.100665)
(3.28368e-05 -3.28144e-05 0.100666)
(1.88303e-07 3.15905e-07 0.100665)
(1.95035e-07 -3.22387e-07 0.100665)
(1.69275e-07 2.92016e-07 0.100665)
(1.74504e-07 -3.05178e-07 0.100665)
(-2.06329e-07 -3.13104e-07 0.100665)
(-1.59744e-07 2.90898e-07 0.100665)
(-1.73096e-07 -2.98308e-07 0.100665)
(3.19525e-05 -3.19898e-05 0.100665)
(-3.28008e-05 3.28346e-05 0.100666)
(-3.14212e-07 -2.01226e-07 0.100665)
(3.03306e-07 -1.59589e-07 0.100665)
(-2.89711e-07 -1.74651e-07 0.100665)
(3.28117e-05 3.28312e-05 0.100666)
(3.19423e-05 3.19156e-05 0.100666)
(-3.28366e-05 -3.28154e-05 0.100666)
(3.01731e-07 1.60041e-07 0.100665)
(-2.96048e-07 1.65458e-07 0.100665)
(2.98124e-07 1.55935e-07 0.100665)
(-2.95412e-07 1.63969e-07 0.100665)
(-3.19351e-05 3.1909e-05 0.100665)
(3.28389e-05 -3.28168e-05 0.100666)
(1.63718e-07 2.91295e-07 0.100665)
(1.663e-07 -3.01723e-07 0.100665)
(1.56494e-07 2.9039e-07 0.100665)
(1.59819e-07 -2.96279e-07 0.100665)
(-1.69467e-07 -2.95916e-07 0.100665)
(-1.55059e-07 2.89222e-07 0.100665)
(-1.67842e-07 -2.93731e-07 0.100665)
(3.19205e-05 -3.195e-05 0.100666)
(-3.28121e-05 3.28417e-05 0.100666)
(-2.87971e-07 -1.71003e-07 0.100665)
(2.92551e-07 -1.51526e-07 0.100665)
(-2.88073e-07 -1.67964e-07 0.100665)
(3.2815e-05 3.2837e-05 0.100666)
(3.19359e-05 3.19158e-05 0.100666)
(-3.28366e-05 -3.28142e-05 0.100666)
(2.98103e-07 1.60042e-07 0.100665)
(-2.96508e-07 1.6406e-07 0.100665)
(2.99057e-07 1.58039e-07 0.100665)
(-2.97889e-07 1.65265e-07 0.100665)
(-3.19346e-05 3.19082e-05 0.100666)
(3.28373e-05 -3.28153e-05 0.100666)
(1.57124e-07 2.92414e-07 0.100665)
(1.5901e-07 -2.99759e-07 0.100665)
(1.56298e-07 2.9289e-07 0.100665)
(1.59439e-07 -2.95905e-07 0.100665)
(-1.67297e-07 -2.9324e-07 0.100665)
(-1.56858e-07 2.91391e-07 0.100665)
(-1.68924e-07 -2.94047e-07 0.100665)
(3.19122e-05 -3.19444e-05 0.100666)
(-3.2812e-05 3.28395e-05 0.100666)
(-2.88147e-07 -1.67169e-07 0.100665)
(2.92215e-07 -1.52013e-07 0.100665)
(-2.8969e-07 -1.68045e-07 0.100665)
(3.28137e-05 3.28359e-05 0.100666)
(3.19361e-05 3.19168e-05 0.100665)
(-3.28382e-05 -3.28152e-05 0.100666)
(2.96973e-07 1.60196e-07 0.100665)
(-2.97849e-07 1.65228e-07 0.100665)
(2.96467e-07 1.56714e-07 0.100665)
(-2.96884e-07 1.6459e-07 0.100665)
(-3.19361e-05 3.19095e-05 0.100666)
(3.28389e-05 -3.28166e-05 0.100666)
(1.56559e-07 2.92337e-07 0.100665)
(1.59276e-07 -2.99719e-07 0.100665)
(1.55056e-07 2.90911e-07 0.100665)
(1.58465e-07 -2.95271e-07 0.100665)
(-1.6923e-07 -2.93982e-07 0.100665)
(-1.55933e-07 2.90475e-07 0.100665)
(-1.68641e-07 -2.93421e-07 0.100665)
(3.19117e-05 -3.19443e-05 0.100665)
(-3.28131e-05 3.28407e-05 0.100666)
(-2.89516e-07 -1.67878e-07 0.100665)
(2.91316e-07 -1.51084e-07 0.100665)
(-2.89305e-07 -1.67507e-07 0.100665)
(3.28143e-05 3.28372e-05 0.100666)
(3.19347e-05 3.1916e-05 0.100665)
(-3.28379e-05 -3.28148e-05 0.100666)
(2.96152e-07 1.59993e-07 0.100665)
(-2.9669e-07 1.64075e-07 0.100665)
(2.97806e-07 1.57463e-07 0.100665)
(-2.97423e-07 1.65057e-07 0.100665)
(-3.1935e-05 3.19089e-05 0.100666)
(3.28383e-05 -3.28163e-05 0.100666)
(1.55933e-07 2.91931e-07 0.100665)
(1.58126e-07 -2.99416e-07 0.100665)
(1.56202e-07 2.92234e-07 0.100665)
(1.59723e-07 -2.96273e-07 0.100665)
(-1.68103e-07 -2.92527e-07 0.100665)
(-1.56898e-07 2.90931e-07 0.100665)
(-1.69929e-07 -2.94033e-07 0.100665)
(3.19113e-05 -3.19435e-05 0.100665)
(-3.28126e-05 3.28402e-05 0.100666)
(-2.88341e-07 -1.66776e-07 0.100665)
(2.92501e-07 -1.52675e-07 0.100665)
(-2.90166e-07 -1.68465e-07 0.100665)
(3.28138e-05 3.28372e-05 0.100666)
(3.19359e-05 3.19173e-05 0.100665)
(-3.28385e-05 -3.28153e-05 0.100666)
(2.97425e-07 1.60829e-07 0.100665)
(-2.97584e-07 1.64703e-07 0.100665)
(2.9624e-07 1.56802e-07 0.100665)
(-2.96661e-07 1.64349e-07 0.100665)
(-3.19361e-05 3.19094e-05 0.100665)
(3.28382e-05 -3.28163e-05 0.100666)
(1.56796e-07 2.93167e-07 0.100665)
(1.58854e-07 -3.00031e-07 0.100665)
(1.54898e-07 2.90846e-07 0.100665)
(1.58519e-07 -2.96356e-07 0.100665)
(-1.68897e-07 -2.93494e-07 0.100665)
(-1.55638e-07 2.89983e-07 0.100665)
(-1.68211e-07 -2.926e-07 0.100665)
(3.19121e-05 -3.19446e-05 0.100665)
(-3.28131e-05 3.28396e-05 0.100666)
(-2.89622e-07 -1.67917e-07 0.100665)
(2.91012e-07 -1.51313e-07 0.100665)
(-2.8894e-07 -1.66984e-07 0.100665)
(3.28143e-05 3.28376e-05 0.100666)
(3.19346e-05 3.19161e-05 0.100665)
(-3.28396e-05 -3.28164e-05 0.100666)
(2.96163e-07 1.60169e-07 0.100665)
(-2.9652e-07 1.63672e-07 0.100665)
(2.9562e-07 1.56394e-07 0.100665)
(-2.96588e-07 1.63032e-07 0.100665)
(-3.19353e-05 3.19085e-05 0.100665)
(3.28393e-05 -3.2817e-05 0.100666)
(1.55812e-07 2.92282e-07 0.100665)
(1.57334e-07 -2.96535e-07 0.100665)
(1.53766e-07 2.90281e-07 0.100665)
(1.57148e-07 -2.9548e-07 0.100665)
(-1.67612e-07 -2.9231e-07 0.100665)
(-1.54871e-07 2.89773e-07 0.100665)
(-1.66583e-07 -2.91964e-07 0.100665)
(3.19106e-05 -3.19429e-05 0.100665)
(-3.28149e-05 3.28423e-05 0.100666)
(-2.88509e-07 -1.66399e-07 0.100665)
(2.90074e-07 -1.50303e-07 0.100665)
(-2.88454e-07 -1.64532e-07 0.100665)
(3.2816e-05 3.28386e-05 0.100666)
(3.19337e-05 3.19152e-05 0.100665)
(-3.28355e-05 -3.28163e-05 0.100666)
(2.95162e-07 1.58961e-07 0.100665)
(-2.96414e-07 1.62021e-07 0.100665)
(2.94944e-07 1.56012e-07 0.100665)
(-2.97829e-07 1.62672e-07 0.100665)
(-3.1934e-05 3.1908e-05 0.100666)
(3.28392e-05 -3.28146e-05 0.100666)
(1.53973e-07 2.91731e-07 0.100665)
(1.56574e-07 -2.9667e-07 0.100665)
(1.55745e-07 2.89817e-07 0.100665)
(1.59168e-07 -2.94514e-07 0.100665)
(-1.65315e-07 -2.9239e-07 0.100665)
(-1.56408e-07 2.89194e-07 0.100665)
(-1.64228e-07 -2.93452e-07 0.100665)
(3.19093e-05 -3.19412e-05 0.100665)
(-3.28145e-05 3.28434e-05 0.100666)
(-2.88907e-07 -1.63289e-07 0.100665)
(2.88174e-07 -1.52181e-07 0.100665)
(-2.89447e-07 -1.58007e-07 0.100665)
(3.28159e-05 3.2836e-05 0.100666)
(3.19303e-05 3.19141e-05 0.100665)
(-3.2851e-05 -3.28281e-05 0.100666)
(2.92801e-07 1.67457e-07 0.100665)
(-2.93978e-07 1.67409e-07 0.100665)
(2.48592e-07 1.40738e-07 0.100665)
(-2.54354e-07 1.46999e-07 0.100665)
(-3.19316e-05 3.19042e-05 0.100665)
(3.28588e-05 -3.28294e-05 0.100666)
(1.58706e-07 2.9112e-07 0.100665)
(1.62066e-07 -2.94199e-07 0.100665)
(1.26574e-07 2.49629e-07 0.100665)
(1.40233e-07 -2.51167e-07 0.100665)
(-1.62501e-07 -2.88188e-07 0.100665)
(-1.38562e-07 2.47654e-07 0.100665)
(-1.33772e-07 -2.52073e-07 0.100665)
(3.19078e-05 -3.19382e-05 0.100665)
(-3.28361e-05 3.28567e-05 0.100666)
(-2.86803e-07 -1.59409e-07 0.100665)
(2.42189e-07 -1.28902e-07 0.100665)
(-2.52251e-07 -1.29481e-07 0.100665)
(3.28234e-05 3.28541e-05 0.100666)
(3.17692e-05 3.17615e-05 0.100665)
(-3.05165e-05 -3.04625e-05 0.100667)
(2.50621e-07 1.16879e-07 0.100665)
(-2.60325e-07 1.20383e-07 0.100665)
(-2.36897e-06 -3.13497e-06 0.100666)
(2.34535e-06 -3.13399e-06 0.100666)
(-3.17721e-05 3.17596e-05 0.100665)
(3.04721e-05 -3.04579e-05 0.100667)
(1.07937e-07 2.50352e-07 0.100665)
(1.08679e-07 -2.51496e-07 0.100665)
(-3.16503e-06 -2.34601e-06 0.100666)
(-3.16793e-06 2.36027e-06 0.100666)
(-1.1748e-07 -2.46005e-07 0.100665)
(3.14187e-06 -2.32782e-06 0.100666)
(3.14769e-06 2.36265e-06 0.100666)
(3.17573e-05 -3.17802e-05 0.100665)
(-3.04917e-05 3.04808e-05 0.100667)
(-2.50765e-07 -1.06784e-07 0.100665)
(-2.35489e-06 3.14795e-06 0.100666)
(2.34619e-06 3.15048e-06 0.100666)
(3.0468e-05 3.04878e-05 0.100667)
(2.30415e-05 2.31093e-05 0.100666)
(-5.0814e-05 -5.0639e-05 0.100629)
(1.26394e-06 -7.71545e-08 0.100663)
(-1.29715e-06 -7.20826e-08 0.100663)
(-3.7615e-05 -6.31233e-05 0.100634)
(3.7609e-05 -6.31574e-05 0.100634)
(-2.30943e-05 2.31225e-05 0.100666)
(5.07927e-05 -5.0662e-05 0.100629)
(-1.36749e-07 1.2947e-06 0.100663)
(-1.25201e-07 -1.26426e-06 0.100663)
(-6.33128e-05 -3.74983e-05 0.100634)
(-6.32684e-05 3.76124e-05 0.100634)
(1.0435e-07 -1.26192e-06 0.100663)
(6.32904e-05 -3.75011e-05 0.100634)
(6.32605e-05 3.76264e-05 0.100634)
(2.30474e-05 -2.30879e-05 0.100666)
(-5.07676e-05 5.0797e-05 0.100629)
(-1.28265e-06 1.09793e-07 0.100663)
(-3.75863e-05 6.32675e-05 0.100634)
(3.75936e-05 6.33176e-05 0.100634)
(5.07688e-05 5.081e-05 0.10063)
(-4.95525e-05 -4.93842e-05 0.100594)
(-3.30292e-05 -4.3642e-05 0.100585)
(3.30239e-05 -4.36708e-05 0.100585)
(4.95433e-05 -4.93887e-05 0.100594)
(-4.38267e-05 -3.29122e-05 0.100585)
(-4.37817e-05 3.30164e-05 0.100585)
(4.56201e-05 -4.54912e-05 0.100587)
(-4.56019e-05 4.56212e-05 0.100587)
(4.56175e-05 4.56389e-05 0.100587)
(4.37821e-05 3.30318e-05 0.100585)
(-4.94993e-05 4.95361e-05 0.100594)
(3.30104e-05 4.38307e-05 0.100585)
(-8.16929e-08 -4.22157e-06 0.100512)
(4.01537e-07 3.30311e-06 0.0991007)
(2.54286e-09 4.1353e-06 0.100513)
(-3.05919e-07 -4.1454e-06 0.0991015)
(-4.0409e-07 1.87122e-07 0.0953898)
(5.07125e-07 -6.87807e-07 0.0953936)
(-4.1781e-06 -2.7641e-08 0.100513)
(-3.88854e-06 -4.35855e-07 0.0991011)
(2.64416e-07 -2.58437e-07 0.100665)
(2.61238e-07 2.46772e-07 0.100665)
(-2.26163e-07 -1.9183e-07 0.100665)
(1.9316e-07 -1.8998e-07 0.100665)
(-2.37127e-07 2.29522e-07 0.100665)
(2.02093e-07 1.9718e-07 0.100665)
(8.43149e-06 -8.73861e-09 0.10065)
(-6.48433e-06 1.90795e-06 0.100549)
(-1.33547e-07 -1.10547e-07 0.100665)
(-1.4078e-07 3.12979e-07 0.100665)
(-8.19647e-06 1.77916e-08 0.10065)
(6.53644e-06 -2.13296e-06 0.100549)
(-1.41908e-07 -8.04e-08 0.100665)
(-1.3914e-06 1.01392e-06 0.0953889)
(-5.48896e-08 8.43901e-06 0.10065)
(-9.50528e-08 -1.28184e-07 0.100665)
(2.48509e-07 -8.79392e-08 0.100665)
(4.15054e-08 -8.19813e-06 0.10065)
(-1.03124e-07 -1.17567e-07 0.100665)
(-2.36724e-06 6.63092e-06 0.100549)
(-2.14177e-06 -2.38033e-06 0.100342)
(-2.37491e-06 -2.13644e-06 0.100342)
(3.28447e-05 3.2876e-05 0.100665)
(1.67666e-06 2.54643e-06 0.100342)
(2.53782e-06 1.68054e-06 0.100342)
(8.00438e-09 -4.14607e-06 0.100513)
(3.55772e-07 4.08833e-06 0.0991009)
(3.96678e-08 4.13658e-06 0.100513)
(-5.61518e-07 -3.54504e-06 0.0991011)
(-8.75199e-07 1.10321e-06 0.095388)
(7.9276e-07 -8.90101e-07 0.0953883)
(-4.16047e-06 4.7899e-10 0.100513)
(4.15312e-06 3.35337e-07 0.099101)
(4.13712e-06 4.91938e-08 0.100512)
(-3.29969e-06 -6.30182e-07 0.0991011)
(2.09157e-07 -2.04961e-07 0.100665)
(-2.00664e-07 2.03244e-07 0.100665)
(2.07564e-07 1.94541e-07 0.100665)
(-2.15254e-07 -2.24621e-07 0.100665)
(2.28048e-07 -2.21339e-07 0.100665)
(-2.10055e-07 2.18275e-07 0.100665)
(2.33318e-07 2.12018e-07 0.100665)
(8.18271e-06 -4.59291e-08 0.10065)
(-6.744e-06 2.20348e-06 0.100549)
(-2.37358e-07 -8.89368e-08 0.100665)
(-1.7604e-07 2.97899e-07 0.100665)
(-8.47078e-06 4.26804e-08 0.10065)
(6.45325e-06 -2.14736e-06 0.10055)
(-2.17147e-07 -9.32624e-08 0.100666)
(1.86779e-06 -1.37074e-06 0.0953912)
(-4.49963e-07 5.58585e-07 0.0953884)
(-1.70077e-08 8.1717e-06 0.10065)
(-8.5145e-08 -2.34714e-07 0.100665)
(2.33957e-06 -6.81212e-06 0.100549)
(3.15964e-07 -1.78089e-07 0.100665)
(4.05268e-08 -8.46323e-06 0.10065)
(-7.3316e-08 -2.22086e-07 0.100665)
(-2.04312e-06 6.42463e-06 0.10055)
(-1.69927e-06 -2.53872e-06 0.100342)
(-2.54485e-06 -1.69109e-06 0.100342)
(3.2796e-05 3.28174e-05 0.100665)
(1.92162e-06 2.3349e-06 0.100342)
(2.3302e-06 1.91674e-06 0.100342)
(-4.49413e-09 -4.1684e-06 0.100513)
(5.12851e-07 3.65359e-06 0.0991006)
(9.83171e-09 4.11382e-06 0.100513)
(-5.39667e-07 -3.59307e-06 0.099101)
(-8.40092e-07 9.26546e-07 0.0953879)
(7.79263e-07 -9.04951e-07 0.0953883)
(-4.18821e-06 -1.10095e-08 0.100513)
(3.64012e-06 4.91268e-07 0.0991004)
(4.14013e-06 8.84472e-09 0.100513)
(-3.58413e-06 -5.35623e-07 0.0991009)
(2.29312e-07 -2.22266e-07 0.100665)
(-2.14702e-07 2.22759e-07 0.100665)
(2.36222e-07 2.14558e-07 0.100665)
(-2.24205e-07 -2.28477e-07 0.100665)
(2.29912e-07 -2.23282e-07 0.100665)
(-2.21141e-07 2.27617e-07 0.100665)
(2.37595e-07 2.17615e-07 0.100665)
(8.22591e-06 -4.20651e-08 0.10065)
(-6.64453e-06 2.10663e-06 0.100549)
(-1.89027e-07 -9.31922e-08 0.100666)
(-1.54914e-07 2.89212e-07 0.100665)
(-8.29291e-06 3.84358e-08 0.10065)
(6.48133e-06 -2.158e-06 0.10055)
(-1.85554e-07 -9.33845e-08 0.100666)
(8.68595e-07 -8.1189e-07 0.0953873)
(-8.53588e-07 7.55642e-07 0.095388)
(-3.8547e-08 8.22122e-06 0.10065)
(-8.55771e-08 -1.91262e-07 0.100666)
(2.12864e-06 -6.66534e-06 0.100549)
(2.95469e-07 -1.52686e-07 0.100665)
(4.45365e-08 -8.29001e-06 0.10065)
(-8.79881e-08 -1.89691e-07 0.100666)
(-2.16947e-06 6.5013e-06 0.10055)
(-1.94155e-06 -2.41122e-06 0.100342)
(-2.4037e-06 -1.94018e-06 0.100342)
(3.28163e-05 3.28372e-05 0.100666)
(1.91282e-06 2.35528e-06 0.100342)
(2.3528e-06 1.90813e-06 0.100342)
(-5.86307e-09 -4.17037e-06 0.100513)
(5.08803e-07 3.65367e-06 0.0991006)
(6.71874e-09 4.11161e-06 0.100513)
(-5.41525e-07 -3.59277e-06 0.099101)
(-8.38813e-07 9.23897e-07 0.0953879)
(7.79213e-07 -9.05933e-07 0.0953883)
(-4.19125e-06 -9.82214e-09 0.100513)
(3.64007e-06 4.96556e-07 0.0991004)
(4.13177e-06 1.11299e-08 0.100513)
(-3.58504e-06 -5.34181e-07 0.0991009)
(2.29694e-07 -2.22954e-07 0.100665)
(-2.21618e-07 2.27814e-07 0.100665)
(2.37517e-07 2.17769e-07 0.100665)
(-2.25407e-07 -2.27849e-07 0.100665)
(2.2871e-07 -2.22708e-07 0.100665)
(-2.22647e-07 2.28105e-07 0.100665)
(2.36297e-07 2.18058e-07 0.100665)
(8.22724e-06 -4.11927e-08 0.10065)
(-6.64276e-06 2.10726e-06 0.100549)
(-1.86643e-07 -9.23457e-08 0.100666)
(-1.55786e-07 2.90252e-07 0.100665)
(-8.28985e-06 4.00436e-08 0.10065)
(6.48167e-06 -2.15767e-06 0.10055)
(-1.86406e-07 -9.23665e-08 0.100666)
(8.84552e-07 -8.21685e-07 0.0953873)
(-8.54819e-07 7.57101e-07 0.095388)
(-4.0523e-08 8.22346e-06 0.10065)
(-9.00683e-08 -1.85507e-07 0.100666)
(2.1211e-06 -6.66163e-06 0.100549)
(2.92213e-07 -1.51249e-07 0.100665)
(3.98354e-08 -8.28533e-06 0.10065)
(-9.04283e-08 -1.87109e-07 0.100666)
(-2.17158e-06 6.50228e-06 0.10055)
(-1.9403e-06 -2.41004e-06 0.100342)
(-2.40428e-06 -1.93709e-06 0.100342)
(3.28162e-05 3.28384e-05 0.100666)
(1.91307e-06 2.35734e-06 0.100342)
(2.35309e-06 1.90935e-06 0.100342)
(-5.88413e-09 -4.16926e-06 0.100513)
(5.08289e-07 3.65386e-06 0.0991006)
(6.55462e-09 4.11066e-06 0.100513)
(-5.42449e-07 -3.59233e-06 0.099101)
(-8.40725e-07 9.23151e-07 0.0953879)
(7.7859e-07 -9.05803e-07 0.0953883)
(-4.19036e-06 -9.52173e-09 0.100513)
(3.63973e-06 4.98663e-07 0.0991004)
(4.13167e-06 1.13841e-08 0.100513)
(-3.58509e-06 -5.33044e-07 0.0991009)
(2.28595e-07 -2.22366e-07 0.100665)
(-2.22244e-07 2.28086e-07 0.100665)
(2.36303e-07 2.17897e-07 0.100665)
(-2.25972e-07 -2.27932e-07 0.100665)
(2.28796e-07 -2.22866e-07 0.100665)
(-2.23209e-07 2.28193e-07 0.100665)
(2.36304e-07 2.18293e-07 0.100665)
(8.22641e-06 -4.15297e-08 0.10065)
(-6.64313e-06 2.10752e-06 0.100549)
(-1.88455e-07 -9.18632e-08 0.100666)
(-1.56713e-07 2.91264e-07 0.100665)
(-8.29016e-06 4.04446e-08 0.10065)
(6.48132e-06 -2.15738e-06 0.10055)
(-1.87304e-07 -9.22197e-08 0.100666)
(8.84331e-07 -8.22612e-07 0.0953873)
(-8.53804e-07 7.57397e-07 0.095388)
(-4.0409e-08 8.22192e-06 0.10065)
(-9.08509e-08 -1.85128e-07 0.100666)
(2.12088e-06 -6.66206e-06 0.100549)
(2.91941e-07 -1.51524e-07 0.100665)
(4.00827e-08 -8.28592e-06 0.10065)
(-9.11053e-08 -1.8704e-07 0.100666)
(-2.17149e-06 6.50127e-06 0.10055)
(-1.94035e-06 -2.41054e-06 0.100342)
(-2.40575e-06 -1.93643e-06 0.100342)
(3.28157e-05 3.2838e-05 0.100666)
(1.91208e-06 2.3572e-06 0.100342)
(2.35228e-06 1.90847e-06 0.100342)
(-6.15899e-09 -4.16953e-06 0.100513)
(5.08527e-07 3.65422e-06 0.0991006)
(6.40674e-09 4.11225e-06 0.100513)
(-5.42002e-07 -3.59296e-06 0.099101)
(-8.4104e-07 9.22895e-07 0.0953879)
(7.78415e-07 -9.06626e-07 0.0953883)
(-4.19158e-06 -9.58234e-09 0.100513)
(3.63993e-06 4.97745e-07 0.0991004)
(4.13189e-06 1.1469e-08 0.100513)
(-3.58541e-06 -5.33858e-07 0.0991009)
(2.29038e-07 -2.22764e-07 0.100665)
(-2.22953e-07 2.28356e-07 0.100665)
(2.36814e-07 2.18283e-07 0.100665)
(-2.25831e-07 -2.28328e-07 0.100665)
(2.28876e-07 -2.23048e-07 0.100665)
(-2.23181e-07 2.28351e-07 0.100665)
(2.3643e-07 2.18212e-07 0.100665)
(8.22745e-06 -4.09465e-08 0.10065)
(-6.64288e-06 2.10734e-06 0.100549)
(-1.8702e-07 -9.19229e-08 0.100666)
(-1.5591e-07 2.9006e-07 0.100665)
(-8.29013e-06 4.03328e-08 0.10065)
(6.48225e-06 -2.15769e-06 0.10055)
(-1.86494e-07 -9.23974e-08 0.100666)
(8.84478e-07 -8.22399e-07 0.0953873)
(-8.55425e-07 7.5647e-07 0.095388)
(-4.11128e-08 8.22511e-06 0.10065)
(-9.09224e-08 -1.84653e-07 0.100666)
(2.1206e-06 -6.66211e-06 0.100549)
(2.91341e-07 -1.51485e-07 0.100665)
(3.99525e-08 -8.28611e-06 0.10065)
(-9.13452e-08 -1.86904e-07 0.100666)
(-2.17204e-06 6.50281e-06 0.10055)
(-1.94071e-06 -2.41057e-06 0.100342)
(-2.40575e-06 -1.93632e-06 0.100342)
(3.28163e-05 3.28393e-05 0.100666)
(1.91305e-06 2.35733e-06 0.100342)
(2.35247e-06 1.90978e-06 0.100342)
(-6.74455e-09 -4.17042e-06 0.100513)
(5.07977e-07 3.6533e-06 0.0991006)
(5.88159e-09 4.11084e-06 0.100513)
(-5.42324e-07 -3.59276e-06 0.099101)
(-8.40162e-07 9.23546e-07 0.0953879)
(7.78932e-07 -9.05656e-07 0.0953883)
(-4.19104e-06 -9.62109e-09 0.100513)
(3.63907e-06 4.97047e-07 0.0991004)
(4.13061e-06 1.15013e-08 0.100513)
(-3.58522e-06 -5.33631e-07 0.0991009)
(2.28743e-07 -2.2268e-07 0.100665)
(-2.22713e-07 2.27973e-07 0.100665)
(2.36577e-07 2.17936e-07 0.100665)
(-2.26001e-07 -2.27992e-07 0.100665)
(2.28672e-07 -2.22551e-07 0.100665)
(-2.23208e-07 2.28211e-07 0.100665)
(2.36358e-07 2.18389e-07 0.100665)
(8.22718e-06 -4.12745e-08 0.10065)
(-6.64294e-06 2.10735e-06 0.100549)
(-1.88036e-07 -9.20351e-08 0.100666)
(-1.56447e-07 2.90681e-07 0.100665)
(-8.29036e-06 4.06443e-08 0.10065)
(6.48175e-06 -2.15784e-06 0.10055)
(-1.86386e-07 -9.2223e-08 0.100666)
(8.84318e-07 -8.22802e-07 0.0953873)
(-8.54801e-07 7.56463e-07 0.095388)
(-4.30528e-08 8.22713e-06 0.10065)
(-9.09919e-08 -1.86133e-07 0.100666)
(2.12004e-06 -6.66198e-06 0.100549)
(2.92145e-07 -1.52137e-07 0.100665)
(3.97538e-08 -8.28812e-06 0.10065)
(-9.11554e-08 -1.87004e-07 0.100666)
(-2.17214e-06 6.50225e-06 0.10055)
(-1.94002e-06 -2.40903e-06 0.100342)
(-2.40438e-06 -1.93634e-06 0.100342)
(3.28155e-05 3.28386e-05 0.100666)
(1.91257e-06 2.3572e-06 0.100342)
(2.35224e-06 1.90919e-06 0.100342)
(-6.26982e-09 -4.16865e-06 0.100513)
(5.08516e-07 3.65398e-06 0.0991006)
(6.03685e-09 4.11259e-06 0.100513)
(-5.41383e-07 -3.59251e-06 0.099101)
(-8.40288e-07 9.23627e-07 0.0953879)
(7.78643e-07 -9.06094e-07 0.0953883)
(-4.19015e-06 -9.54371e-09 0.100513)
(3.63966e-06 4.97968e-07 0.0991004)
(4.13263e-06 1.13629e-08 0.100513)
(-3.58522e-06 -5.32885e-07 0.0991009)
(2.28968e-07 -2.22448e-07 0.100665)
(-2.23082e-07 2.28528e-07 0.100665)
(2.36592e-07 2.18153e-07 0.100665)
(-2.27163e-07 -2.2824e-07 0.100665)
(2.28659e-07 -2.23689e-07 0.100665)
(-2.2394e-07 2.28562e-07 0.100665)
(2.35397e-07 2.19803e-07 0.100665)
(8.22681e-06 -4.14605e-08 0.10065)
(-6.64324e-06 2.10791e-06 0.100549)
(-1.8602e-07 -9.19153e-08 0.100666)
(-1.54582e-07 2.89745e-07 0.100665)
(-8.29046e-06 4.02328e-08 0.10065)
(6.4816e-06 -2.15747e-06 0.10055)
(-1.84604e-07 -9.21587e-08 0.100666)
(8.84576e-07 -8.22315e-07 0.0953873)
(-8.54653e-07 7.56967e-07 0.095388)
(-4.21624e-08 8.22682e-06 0.10065)
(-9.13394e-08 -1.83563e-07 0.100666)
(2.12073e-06 -6.66221e-06 0.100549)
(2.90311e-07 -1.49728e-07 0.100665)
(3.99754e-08 -8.28861e-06 0.10065)
(-9.1499e-08 -1.84822e-07 0.100666)
(-2.17171e-06 6.5019e-06 0.10055)
(-1.94127e-06 -2.41156e-06 0.100342)
(-2.40661e-06 -1.93705e-06 0.100342)
(3.28169e-05 3.28402e-05 0.100666)
(1.91214e-06 2.35662e-06 0.100342)
(2.35149e-06 1.9094e-06 0.100342)
(-6.6027e-09 -4.16986e-06 0.100513)
(5.09019e-07 3.65368e-06 0.0991006)
(5.94123e-09 4.11211e-06 0.100513)
(-5.42555e-07 -3.59226e-06 0.099101)
(-8.40722e-07 9.22859e-07 0.0953879)
(7.77984e-07 -9.06009e-07 0.0953883)
(-4.19088e-06 -8.98948e-09 0.100513)
(3.63702e-06 4.98282e-07 0.0991004)
(4.13166e-06 1.16288e-08 0.100513)
(-3.57796e-06 -5.31063e-07 0.0991009)
(2.2814e-07 -2.23766e-07 0.100665)
(-2.2378e-07 2.28258e-07 0.100665)
(2.34568e-07 2.1985e-07 0.100665)
(-2.25923e-07 -2.25137e-07 0.100665)
(2.26173e-07 -2.23698e-07 0.100665)
(-2.24618e-07 2.27366e-07 0.100665)
(2.23374e-07 2.22968e-07 0.100665)
(8.22791e-06 -4.1012e-08 0.10065)
(-6.64235e-06 2.1075e-06 0.100549)
(-1.84452e-07 -9.16781e-08 0.100666)
(-1.54798e-07 2.90138e-07 0.100665)
(-8.28927e-06 4.03203e-08 0.10065)
(6.48222e-06 -2.15764e-06 0.10055)
(-1.83586e-07 -9.20056e-08 0.100666)
(8.83977e-07 -8.22613e-07 0.0953873)
(-8.54619e-07 7.57023e-07 0.095388)
(-4.22177e-08 8.22707e-06 0.10065)
(-9.16259e-08 -1.81997e-07 0.100666)
(2.12022e-06 -6.6619e-06 0.100549)
(2.90266e-07 -1.50362e-07 0.100665)
(4.01922e-08 -8.28712e-06 0.10065)
(-9.18797e-08 -1.84096e-07 0.100666)
(-2.17186e-06 6.5027e-06 0.10055)
(-1.94022e-06 -2.40905e-06 0.100342)
(-2.40486e-06 -1.93567e-06 0.100342)
(3.28174e-05 3.28384e-05 0.100666)
(1.91316e-06 2.35713e-06 0.100342)
(2.35144e-06 1.91041e-06 0.100342)
(-9.69089e-09 -4.16918e-06 0.100513)
(5.0707e-07 3.65019e-06 0.0991006)
(4.60699e-09 4.10955e-06 0.100513)
(-5.40435e-07 -3.58839e-06 0.099101)
(-8.29949e-07 9.16135e-07 0.0953879)
(7.3586e-07 -8.67853e-07 0.0953884)
(-4.19007e-06 -6.65563e-09 0.100513)
(3.64047e-06 4.99139e-07 0.0991004)
(4.12805e-06 1.19908e-08 0.100513)
(-3.58714e-06 -5.31025e-07 0.0991009)
(2.26049e-07 -2.22236e-07 0.100665)
(-2.25558e-07 2.27585e-07 0.100665)
(2.25056e-07 2.22404e-07 0.100665)
(-2.28255e-07 -2.26665e-07 0.100665)
(2.18075e-07 -2.20547e-07 0.100665)
(-2.26489e-07 2.28661e-07 0.100665)
(2.20645e-07 2.32196e-07 0.100665)
(8.22985e-06 -3.93509e-08 0.10065)
(-6.64148e-06 2.10772e-06 0.100549)
(-1.87828e-07 -9.17913e-08 0.100666)
(-1.60903e-07 2.8466e-07 0.100665)
(-8.28568e-06 4.03138e-08 0.10065)
(6.48444e-06 -2.15691e-06 0.10055)
(-1.80356e-07 -9.22219e-08 0.100666)
(8.86324e-07 -8.21366e-07 0.0953873)
(-8.61166e-07 7.56297e-07 0.095388)
(-4.13712e-08 8.22747e-06 0.10065)
(-9.36777e-08 -1.82013e-07 0.100666)
(2.11795e-06 -6.65841e-06 0.100549)
(2.81545e-07 -1.531e-07 0.100665)
(3.90288e-08 -8.28312e-06 0.10065)
(-9.26199e-08 -1.78646e-07 0.100666)
(-2.16866e-06 6.50402e-06 0.10055)
(-1.93943e-06 -2.40848e-06 0.100342)
(-2.40524e-06 -1.93397e-06 0.100342)
(3.28208e-05 3.28429e-05 0.100666)
(1.91426e-06 2.35732e-06 0.100342)
(2.35131e-06 1.91217e-06 0.100342)
(1.24083e-07 -3.93767e-06 0.100513)
(4.88194e-07 3.54148e-06 0.0991006)
(-1.31078e-08 3.98297e-06 0.100513)
(-6.57052e-07 -2.12638e-06 0.0991033)
(-8.05341e-07 8.36446e-07 0.0953879)
(8.73045e-07 -6.28485e-07 0.09539)
(-3.93475e-06 1.3122e-07 0.100513)
(3.53023e-06 4.9693e-07 0.0991004)
(3.98744e-06 2.34615e-09 0.100513)
(-2.12696e-06 -6.48491e-07 0.0991031)
(3.48418e-07 -3.51208e-07 0.100665)
(-3.55781e-07 3.57674e-07 0.100665)
(3.5263e-07 3.61149e-07 0.100665)
(-2.04254e-06 -2.008e-06 0.100662)
(2.01832e-06 -2.00382e-06 0.100662)
(-2.03008e-06 2.03294e-06 0.100662)
(2.02056e-06 2.03972e-06 0.100662)
(8.26172e-06 1.13445e-08 0.10065)
(-6.51065e-06 2.05683e-06 0.100549)
(-1.60116e-08 -1.60558e-07 0.100665)
(2.28414e-07 -6.66913e-08 0.100666)
(-8.08798e-06 2.6353e-08 0.10065)
(6.17639e-06 -1.92772e-06 0.100551)
(1.55006e-07 -5.43625e-08 0.100665)
(8.82424e-07 -8.22383e-07 0.0953874)
(-5.06321e-07 7.88481e-07 0.0953894)
(7.41307e-10 8.26911e-06 0.10065)
(-1.62923e-07 -1.74117e-08 0.100665)
(2.06039e-06 -6.5236e-06 0.100549)
(-7.94025e-08 2.35218e-07 0.100666)
(1.72571e-08 -8.08478e-06 0.10065)
(-7.02535e-08 1.6777e-07 0.100665)
(-1.95025e-06 6.18434e-06 0.100551)
(-1.8633e-06 -2.37393e-06 0.100342)
(-2.38064e-06 -1.85057e-06 0.100342)
(3.26463e-05 3.26739e-05 0.100666)
(1.95961e-06 2.44125e-06 0.100343)
(2.4134e-06 1.95671e-06 0.100343)
(1.67272e-05 4.97775e-06 0.100523)
(-1.97648e-06 -6.08383e-05 0.0990294)
(-6.40105e-06 -3.25501e-06 0.100516)
(2.08081e-05 0.000101138 0.0994375)
(3.64314e-06 -2.44595e-05 0.0953658)
(-2.66782e-05 7.38269e-05 0.0955083)
(5.02045e-06 1.67913e-05 0.100523)
(-6.09688e-05 -1.90045e-06 0.0990293)
(-3.29841e-06 -6.42994e-06 0.100516)
(0.000101269 2.07472e-05 0.0994374)
(4.64399e-06 -4.60614e-06 0.100661)
(-4.64198e-06 4.65845e-06 0.100661)
(4.63551e-06 4.67147e-06 0.100661)
(-2.63706e-05 -2.62768e-05 0.100607)
(2.63663e-05 -2.62775e-05 0.100607)
(-2.63536e-05 2.63774e-05 0.100607)
(2.63663e-05 2.63892e-05 0.100607)
(2.08075e-05 1.67498e-06 0.100654)
(1.1224e-05 -5.21653e-06 0.100545)
(5.19081e-06 -1.76548e-06 0.100664)
(1.83885e-05 -1.24082e-05 0.100662)
(-3.22514e-07 -1.09252e-06 0.100652)
(-1.57538e-05 2.40993e-06 0.100565)
(1.2064e-05 -1.73504e-06 0.100655)
(-2.45003e-05 3.68303e-06 0.0953654)
(7.34641e-05 -2.66936e-05 0.0955078)
(1.64942e-06 2.0806e-05 0.100654)
(-1.79537e-06 5.18729e-06 0.100664)
(-5.29908e-06 1.12004e-05 0.100545)
(-1.24512e-05 1.83921e-05 0.100662)
(-1.10877e-06 -3.25939e-07 0.100652)
(-1.77714e-06 1.20297e-05 0.100655)
(2.28117e-06 -1.57197e-05 0.100565)
(-8.70005e-06 -9.33101e-07 0.100344)
(-9.59122e-07 -8.64072e-06 0.100344)
(2.70158e-05 2.71026e-05 0.100665)
(-1.18876e-05 -2.73556e-05 0.100335)
(-2.73569e-05 -1.16664e-05 0.100335)
(-8.35164e-06 -0.000113855 0.100383)
(-0.000139546 -0.00025781 0.0984318)
(-3.01229e-05 -8.73427e-05 0.10048)
(-0.000221974 -5.15894e-05 0.10021)
(0.000276424 -0.000351067 0.095334)
(0.00011974 -0.000281163 0.098737)
(-0.000114119 -8.50798e-06 0.100383)
(-0.000258595 -0.000138671 0.0984316)
(-8.81504e-05 -3.00577e-05 0.10048)
(-5.1798e-05 -0.000222012 0.10021)
(-9.58528e-06 -9.50186e-06 0.100515)
(-1.47381e-05 -3.98065e-05 0.100584)
(-3.99462e-05 -1.46488e-05 0.100584)
(-3.94608e-05 -3.93202e-05 0.100499)
(-1.21347e-05 -1.20419e-05 0.100581)
(-1.03019e-05 -3.60297e-05 0.10051)
(-3.61721e-05 -1.0224e-05 0.10051)
(9.42801e-05 7.49637e-06 0.100461)
(0.000121837 -6.03832e-05 0.100581)
(6.80233e-05 -1.7865e-05 0.100588)
(5.08741e-05 -4.07944e-05 0.100498)
(9.20035e-05 -1.07127e-05 0.10059)
(8.1882e-05 -3.82191e-05 0.10044)
(5.67595e-05 -1.33089e-05 0.100506)
(-0.000351106 0.00027638 0.0953339)
(-0.000281632 0.000119827 0.0987367)
(7.5221e-06 9.41038e-05 0.100461)
(-1.79215e-05 6.79951e-05 0.100588)
(-6.05948e-05 0.000121887 0.100581)
(-4.09173e-05 5.08538e-05 0.100498)
(-1.07312e-05 9.19165e-05 0.10059)
(-1.33637e-05 5.67331e-05 0.100506)
(-3.83048e-05 8.17505e-05 0.10044)
(0.000171344 7.42776e-05 0.100409)
(7.43595e-05 0.000171403 0.100409)
(4.9017e-05 4.90183e-05 0.100494)
(6.04265e-05 -7.90143e-05 0.1005)
(-7.90248e-05 6.03617e-05 0.1005)
(5.42669e-07 -3.87344e-06 0.0991013)
(2.29968e-06 -6.57879e-06 0.10055)
(1.05939e-06 -1.41431e-06 0.0953893)
(2.4602e-06 -1.59792e-06 0.100342)
(1.60333e-06 -2.42621e-06 0.100342)
(1.41421e-06 -1.05024e-06 0.0953896)
(6.56969e-06 -2.28442e-06 0.10055)
(3.85885e-06 -5.57947e-07 0.0991013)
(4.2916e-07 1.20359e-07 0.0953886)