/*--------------------------------*- C++ -*----------------------------------*\
| =========                 |                                                 |
| \\      /  F ield         | OpenFOAM: The Open Source CFD Toolbox           |
|  \\    /   O peration     | Version:  2206                                  |
|   \\  /    A nd           | Website:  www.openfoam.com                      |
|    \\/     M anipulation  |                                                 |
\*---------------------------------------------------------------------------*/
FoamFile
{
    version     2.0;
    format      ascii;
    arch        "LSB;label=32;scalar=64";
    class       surfaceScalarField;
    location    "2.5";
    object      phi;
}
// * * * * * * * * * * * * * * * * * * * * * * * * * * * * * * * * * * * * * //

dimensions      [0 3 -1 0 0 0 0];

oriented        oriented;

internalField   nonuniform List<scalar> 
83348
(
1.42557e-10
1.3331e-10
-0.00105747
-2.35752e-10
-2.56492e-10
0.00105747
-0.00105816
-1.15057e-06
-2.36977e-10
6.86518e-10
0.00105816
-2.10433e-07
1.15144e-06
2.09897e-07
8.1852e-07
-1.85131e-07
-8.1877e-07
1.84334e-07
-0.00105783
-1.14533e-06
-1.45311e-10
7.46233e-10
0.00105783
-2.07802e-07
1.14619e-06
2.07216e-07
8.18379e-07
-1.87867e-07
-8.18663e-07
1.86954e-07
-0.00026024
1.17815e-06
1.14543e-06
-2.01026e-07
-2.0618e-07
0.000258323
2.9888e-10
3.20792e-10
-0.00105747
-3.26003e-10
-3.16279e-10
0.00105747
-0.00105816
-1.15057e-06
-2.97876e-10
6.93369e-10
0.00105816
-2.10448e-07
1.15148e-06
2.0997e-07
8.18593e-07
-1.8516e-07
-8.18742e-07
1.84478e-07
-0.00105783
-1.1453e-06
-3.16136e-10
6.69458e-10
0.00105783
-2.07738e-07
1.14622e-06
2.07276e-07
8.18425e-07
-1.87723e-07
-8.18609e-07
1.87076e-07
-0.00026024
1.17811e-06
1.14541e-06
-2.00971e-07
-2.06112e-07
0.000258323
3.24431e-10
3.37175e-10
-0.00105747
-3.34925e-10
-3.32481e-10
0.00105747
-0.00105816
-1.15056e-06
-3.4248e-10
6.64973e-10
0.00105816
-2.10436e-07
1.15149e-06
2.09981e-07
8.18602e-07
-1.85147e-07
-8.18731e-07
1.84489e-07
-0.00105783
-1.1453e-06
-3.36603e-10
6.61646e-10
0.00105783
-2.07734e-07
1.14623e-06
2.07281e-07
8.1843e-07
-1.87718e-07
-8.18604e-07
1.87081e-07
-0.00026024
1.17811e-06
1.14541e-06
-2.00965e-07
-2.06107e-07
0.000258323
3.3781e-10
3.49389e-10
-0.00105747
-3.38638e-10
-3.37024e-10
0.00105747
-0.00105816
-1.15056e-06
-3.48728e-10
6.59972e-10
0.00105816
-2.10435e-07
1.1515e-06
2.09981e-07
8.18603e-07
-1.85144e-07
-8.18728e-07
1.8449e-07
-0.00105783
-1.1453e-06
-3.41728e-10
6.56816e-10
0.00105783
-2.07732e-07
1.14623e-06
2.07281e-07
8.18432e-07
-1.87714e-07
-8.18601e-07
1.87083e-07
-0.00026024
1.1781e-06
1.14541e-06
-2.00964e-07
-2.06106e-07
0.000258323
3.28904e-10
3.42095e-10
-0.00105747
-3.36955e-10
-3.33825e-10
0.00105747
-0.00105816
-1.15056e-06
-3.45725e-10
6.61322e-10
0.00105816
-2.10435e-07
1.1515e-06
2.09982e-07
8.18601e-07
-1.85146e-07
-8.1873e-07
1.84489e-07
-0.00105783
-1.1453e-06
-3.42495e-10
6.56564e-10
0.00105783
-2.07731e-07
1.14623e-06
2.07282e-07
8.18431e-07
-1.87716e-07
-8.18603e-07
1.87083e-07
-0.00026024
1.17811e-06
1.14541e-06
-2.00964e-07
-2.06109e-07
0.000258323
3.38393e-10
3.49855e-10
-0.00105747
-3.3812e-10
-3.36709e-10
0.00105747
-0.00105816
-1.15056e-06
-3.54537e-10
6.60768e-10
0.00105816
-2.10432e-07
1.15149e-06
2.0998e-07
8.18602e-07
-1.85141e-07
-8.18724e-07
1.84489e-07
-0.00105783
-1.1453e-06
-3.50409e-10
6.57449e-10
0.00105783
-2.07728e-07
1.14623e-06
2.07281e-07
8.18432e-07
-1.8771e-07
-8.18597e-07
1.87083e-07
-0.00026024
1.1781e-06
1.1454e-06
-2.00959e-07
-2.06103e-07
0.000258323
3.22383e-10
3.32408e-10
-0.00105747
-3.31855e-10
-3.31564e-10
0.00105747
-0.00105816
-1.15056e-06
-3.3547e-10
6.69198e-10
0.00105816
-2.10437e-07
1.15149e-06
2.09977e-07
8.18597e-07
-1.85148e-07
-8.18731e-07
1.84484e-07
-0.00105783
-1.1453e-06
-3.28272e-10
6.68164e-10
0.00105783
-2.07735e-07
1.14622e-06
2.07277e-07
8.18427e-07
-1.87718e-07
-8.18605e-07
1.87077e-07
-0.00026024
1.17811e-06
1.14541e-06
-2.00966e-07
-2.06108e-07
0.000258323
3.24776e-10
3.35732e-10
-0.00105747
-3.32424e-10
-3.31264e-10
0.00105747
-0.00105816
-1.15056e-06
-3.4409e-10
6.65002e-10
0.00105816
-2.10434e-07
1.15149e-06
2.09978e-07
8.18599e-07
-1.85145e-07
-8.18728e-07
1.84486e-07
-0.00105783
-1.1453e-06
-3.36919e-10
6.63257e-10
0.00105783
-2.07732e-07
1.14622e-06
2.07278e-07
8.18428e-07
-1.87715e-07
-8.18601e-07
1.87079e-07
-0.00026024
1.1781e-06
1.14541e-06
-2.00963e-07
-2.06106e-07
0.000258323
3.16601e-10
3.29286e-10
-0.00105747
-3.31926e-10
-3.29517e-10
0.00105747
-0.00105816
-1.15057e-06
-3.30009e-10
6.73651e-10
0.00105816
-2.1044e-07
1.15149e-06
2.09976e-07
8.18597e-07
-1.8515e-07
-8.18734e-07
1.84484e-07
-0.00105783
-1.1453e-06
-3.15494e-10
6.68162e-10
0.00105783
-2.07736e-07
1.14622e-06
2.07277e-07
8.18429e-07
-1.87723e-07
-8.18609e-07
1.8708e-07
-0.00026024
1.17811e-06
1.14541e-06
-2.00966e-07
-2.06111e-07
0.000258323
3.32603e-10
3.22966e-10
-0.00105747
-3.46537e-10
-3.5175e-10
0.00105747
-0.00105816
-1.15057e-06
-3.45734e-10
6.69662e-10
0.00105816
-2.10444e-07
1.1515e-06
2.0998e-07
8.18603e-07
-1.85145e-07
-8.18729e-07
1.84491e-07
-0.00105783
-1.1453e-06
-3.20932e-10
6.38381e-10
0.00105783
-2.07731e-07
1.14623e-06
2.07284e-07
8.18433e-07
-1.87725e-07
-8.18609e-07
1.87086e-07
-0.00026024
1.17812e-06
1.14539e-06
-2.00957e-07
-2.06111e-07
0.000258323
2.17211e-10
-9.61968e-09
-0.00105746
-3.3157e-10
-3.29879e-10
0.00105747
-0.00105816
-1.15056e-06
-3.57722e-10
6.68039e-10
0.00105816
-2.10397e-07
1.1515e-06
2.09955e-07
8.18602e-07
-1.85145e-07
-8.18728e-07
1.84486e-07
-0.00105783
-1.1453e-06
-3.2809e-10
6.58031e-10
0.00105783
-2.07734e-07
1.14622e-06
2.07281e-07
8.18434e-07
-1.87725e-07
-8.18609e-07
1.87087e-07
-0.00026024
1.17811e-06
1.1454e-06
-2.00961e-07
-2.06109e-07
0.000258323
2.95989e-10
3.57985e-10
-0.00105747
-3.60176e-10
-3.18716e-10
0.00105747
-0.00105816
-1.15061e-06
-3.21181e-10
7.60259e-10
0.00105816
-2.07789e-07
1.15145e-06
2.07219e-07
8.18611e-07
-1.8512e-07
-8.18726e-07
1.84474e-07
-0.00105783
-1.1453e-06
-3.50056e-10
6.56937e-10
0.00105783
-2.07733e-07
1.14623e-06
2.07283e-07
8.18438e-07
-1.87721e-07
-8.18608e-07
1.87091e-07
-0.00026024
1.1781e-06
1.14541e-06
-2.00965e-07
-2.06104e-07
0.000258323
3.1091e-10
3.5199e-10
-0.00105747
-3.42514e-10
-3.26453e-10
0.00105747
-0.00105816
-1.15057e-06
-3.50425e-10
6.76711e-10
0.00105816
-2.07739e-07
1.1515e-06
2.07275e-07
8.18604e-07
-1.85117e-07
-8.18725e-07
1.84468e-07
-0.00105783
-1.1453e-06
-3.57573e-10
6.56518e-10
0.00105783
-2.07729e-07
1.14623e-06
2.07284e-07
8.18439e-07
-1.87718e-07
-8.18604e-07
1.87092e-07
-0.00026024
1.1781e-06
1.1454e-06
-2.00961e-07
-2.06101e-07
0.000258323
3.16159e-10
3.39548e-10
-0.00105747
-3.35986e-10
-3.32457e-10
0.00105747
-0.00105816
-1.15057e-06
-3.43154e-10
6.68676e-10
0.00105816
-2.07738e-07
1.1515e-06
2.07276e-07
8.18601e-07
-1.85121e-07
-8.18729e-07
1.84465e-07
-0.00105783
-1.1453e-06
-3.42087e-10
6.62885e-10
0.00105783
-2.07733e-07
1.14622e-06
2.0728e-07
8.18436e-07
-1.87721e-07
-8.18607e-07
1.87088e-07
-0.00026024
1.1781e-06
1.14541e-06
-2.00963e-07
-2.06106e-07
0.000258323
3.20045e-10
3.39955e-10
-0.00105747
-3.35042e-10
-3.34048e-10
0.00105747
-0.00105816
-1.15057e-06
-3.44942e-10
6.64437e-10
0.00105816
-2.07736e-07
1.1515e-06
2.07276e-07
8.186e-07
-1.85119e-07
-8.18727e-07
1.84464e-07
-0.00105783
-1.1453e-06
-3.43052e-10
6.54783e-10
0.00105783
-2.0773e-07
1.14622e-06
2.07281e-07
8.18434e-07
-1.87719e-07
-8.18605e-07
1.87087e-07
-0.00026024
1.1781e-06
1.14541e-06
-2.00962e-07
-2.06105e-07
0.000258323
3.03037e-10
3.23564e-10
-0.00105747
-3.27506e-10
-3.27528e-10
0.00105747
-0.00105816
-1.15057e-06
-3.34374e-10
6.74114e-10
0.00105816
-2.0774e-07
1.1515e-06
2.07273e-07
8.18597e-07
-1.85124e-07
-8.18732e-07
1.84461e-07
-0.00105783
-1.1453e-06
-3.31524e-10
6.67406e-10
0.00105783
-2.07735e-07
1.14622e-06
2.07278e-07
8.18432e-07
-1.87725e-07
-8.18611e-07
1.87084e-07
-0.00026024
1.17811e-06
1.14541e-06
-2.00965e-07
-2.06108e-07
0.000258323
3.17909e-10
3.34665e-10
-0.00105747
-3.34753e-10
-3.36888e-10
0.00105747
-0.00105816
-1.15057e-06
-3.50531e-10
6.66118e-10
0.00105816
-2.07737e-07
1.1515e-06
2.07277e-07
8.18601e-07
-1.8512e-07
-8.18728e-07
1.84466e-07
-0.00105783
-1.1453e-06
-3.48495e-10
6.61871e-10
0.00105783
-2.07732e-07
1.14622e-06
2.07282e-07
8.18433e-07
-1.87721e-07
-8.18605e-07
1.87088e-07
-0.00026024
1.1781e-06
1.1454e-06
-2.00962e-07
-2.06106e-07
0.000258323
4.87123e-10
5.02454e-10
-0.00105747
-3.96214e-10
-3.9665e-10
-0.00105816
-1.15053e-06
-5.11674e-10
5.91753e-10
-2.07677e-07
1.15153e-06
2.07317e-07
8.18669e-07
-1.85043e-07
-8.18663e-07
1.84513e-07
-0.00105783
-1.14526e-06
-5.09716e-10
5.87234e-10
-2.07672e-07
1.14625e-06
2.07322e-07
8.18502e-07
-1.87645e-07
-8.1854e-07
1.87136e-07
-0.00026024
1.17806e-06
1.14536e-06
-2.00916e-07
-2.06058e-07
0.000258323
-1.18676e-06
-1.14888e-06
0.000260255
-0.000258328
1.99377e-07
2.09428e-07
0.00105739
-2.37571e-10
-0.00105739
7.66889e-10
-1.18589e-06
2.15111e-07
-2.15668e-07
-8.2131e-07
1.81616e-07
-1.82394e-07
8.21038e-07
1.18956e-06
0.00105783
-3.67821e-10
-0.00105783
5.35236e-10
-1.18854e-06
2.15325e-07
-2.15614e-07
-8.26785e-07
1.87134e-07
-1.87674e-07
8.26565e-07
-1.1515e-06
0.000260278
-0.000258346
2.0214e-07
2.06911e-07
0.00105843
-2.4528e-10
-0.00105843
6.95156e-10
-1.148e-06
2.09928e-07
-2.10455e-07
-8.21413e-07
1.86992e-07
-1.87774e-07
8.21166e-07
1.18423e-06
0.00105751
-2.21408e-10
-0.00105751
7.21983e-10
-1.18335e-06
2.15161e-07
-2.15707e-07
-8.21365e-07
1.86944e-07
-1.87729e-07
8.21091e-07
-5.18357e-10
5.67003e-10
-1.15051e-06
2.10026e-07
-2.10329e-07
-8.18661e-07
1.84617e-07
8.18572e-07
-1.84945e-07
1.17895e-06
0.00105731
-3.55541e-10
-0.00105731
7.66644e-10
-1.17811e-06
2.09747e-07
-2.10305e-07
-8.18653e-07
1.84364e-07
-1.84876e-07
8.18491e-07
-1.14617e-06
0.000260235
-0.00025831
1.99514e-07
2.06757e-07
-2.57615e-10
-0.00105783
7.06855e-10
-1.1453e-06
2.07196e-07
-2.07728e-07
-8.18591e-07
1.86914e-07
8.18381e-07
-1.87702e-07
1.14629e-06
0.00105833
-2.16964e-10
-0.00105833
6.66484e-10
-1.14539e-06
2.07266e-07
-2.07764e-07
-8.18864e-07
1.86973e-07
-1.87755e-07
8.186e-07
-0.000258323
2.01829e-07
2.06949e-07
1.18593e-06
1.14804e-06
-1.98589e-07
-2.08645e-07
0.000258328
-1.18681e-06
-1.14892e-06
0.000260255
-0.000258328
1.99436e-07
2.09492e-07
7.99965e-10
0.00105739
-2.15746e-07
1.18678e-06
2.15132e-07
8.2109e-07
-1.82587e-07
-8.21324e-07
1.81632e-07
-1.18861e-06
-2.00823e-10
7.00209e-10
0.00105783
-2.15727e-07
1.1921e-06
2.17861e-07
8.26566e-07
-1.8785e-07
-8.26805e-07
1.86989e-07
0.00105739
-2.6933e-10
-0.00105739
6.92184e-10
-1.1859e-06
2.15188e-07
-2.15682e-07
-8.21294e-07
1.81745e-07
-1.82448e-07
8.21121e-07
1.18953e-06
0.00105783
-2.49486e-10
-0.00105783
7.22827e-10
-1.19124e-06
2.15244e-07
-2.18427e-07
-8.2679e-07
1.87101e-07
-1.87826e-07
8.26614e-07
-2.01198e-07
-2.05945e-07
0.000258346
-1.15149e-06
0.000260278
-0.000258346
2.02088e-07
2.06845e-07
7.39305e-10
0.00105843
-2.10532e-07
1.1489e-06
2.09946e-07
8.2121e-07
-1.87957e-07
-8.21444e-07
1.87012e-07
-1.18339e-06
-1.24543e-10
7.65182e-10
0.00105751
-2.15784e-07
1.18424e-06
2.1518e-07
8.21138e-07
-1.87906e-07
-8.21393e-07
1.86968e-07
0.00105843
-3.14202e-10
-0.00105843
6.75779e-10
-1.14802e-06
2.09998e-07
-2.10474e-07
-8.2139e-07
1.87126e-07
-1.8782e-07
8.21255e-07
1.18427e-06
0.00105751
-2.76947e-10
-0.00105751
6.95301e-10
-1.18337e-06
2.15232e-07
-2.15725e-07
-8.21344e-07
1.87074e-07
-1.87776e-07
8.21182e-07
-1.6417e-10
7.97865e-10
0.00105731
-2.10379e-07
1.17898e-06
2.0977e-07
8.18495e-07
-1.85179e-07
1.8423e-07
-8.18773e-07
-2.68949e-10
-0.00105816
7.0334e-10
-1.15058e-06
2.0996e-07
-2.1046e-07
-8.18752e-07
1.84462e-07
8.18587e-07
-1.85182e-07
1.17902e-06
0.00105731
-2.60602e-10
-0.00105731
6.90493e-10
-1.17811e-06
2.09832e-07
-2.10317e-07
-8.18725e-07
1.84371e-07
-1.85082e-07
8.1855e-07
-1.98728e-07
-2.0597e-07
0.000258311
-1.14622e-06
0.000260235
-0.000258311
1.99576e-07
2.06816e-07
-1.25771e-10
7.27243e-10
0.00105833
-2.07843e-07
1.14629e-06
2.07269e-07
8.18648e-07
-1.87945e-07
1.86996e-07
-8.18893e-07
-3.09604e-10
-0.00105783
6.69856e-10
-1.14531e-06
2.07269e-07
-2.07743e-07
-8.1857e-07
1.87045e-07
8.18469e-07
-1.87752e-07
1.14632e-06
0.00105834
-3.02132e-10
-0.00105834
6.80898e-10
-1.14542e-06
2.07317e-07
-2.07798e-07
-8.1884e-07
1.87112e-07
-1.87806e-07
8.18697e-07
-0.000258323
2.0187e-07
2.07019e-07
1.1859e-06
1.14801e-06
-1.98528e-07
-2.08579e-07
0.000258328
-1.18682e-06
-1.14893e-06
0.000260255
-0.000258328
1.99444e-07
2.095e-07
6.8941e-10
0.00105739
-2.15677e-07
1.18682e-06
2.15197e-07
8.21134e-07
-1.82445e-07
-8.21275e-07
1.81753e-07
-1.18863e-06
-2.90082e-10
7.2318e-10
0.00105783
-2.15755e-07
1.19213e-06
2.17923e-07
8.26621e-07
-1.87812e-07
-8.26783e-07
1.87119e-07
0.00105739
-3.1365e-10
-0.00105739
6.8404e-10
-1.1859e-06
2.15198e-07
-2.15672e-07
-8.21282e-07
1.81758e-07
-1.82435e-07
8.21134e-07
1.19214e-06
0.00105783
-3.13135e-10
-0.00105783
6.96638e-10
-1.19122e-06
2.17933e-07
-2.1841e-07
-8.26775e-07
1.87121e-07
-1.87805e-07
8.2663e-07
-2.01182e-07
-2.0595e-07
0.000258346
-1.15149e-06
0.000260281
-0.000258346
2.02132e-07
2.06864e-07
6.73337e-10
0.00105843
-2.10468e-07
1.14893e-06
2.10005e-07
8.21257e-07
-1.87813e-07
-8.21388e-07
1.87135e-07
-1.18336e-06
-2.99282e-10
6.92432e-10
0.00105751
-2.15719e-07
1.18428e-06
2.15241e-07
8.21184e-07
-1.87766e-07
-8.21336e-07
1.87087e-07
0.00105843
-3.50403e-10
-0.00105843
6.59844e-10
-1.14801e-06
2.10007e-07
-2.10464e-07
-8.21379e-07
1.87138e-07
-1.87808e-07
8.21267e-07
1.18428e-06
0.00105751
-3.12562e-10
-0.00105751
6.83855e-10
-1.18336e-06
2.1524e-07
-2.15716e-07
-8.21333e-07
1.87085e-07
-1.87765e-07
8.21192e-07
-2.86266e-10
6.83709e-10
0.00105731
-2.10312e-07
1.17902e-06
2.09841e-07
8.18555e-07
-1.85068e-07
1.84387e-07
-8.18716e-07
-3.39528e-10
-0.00105816
6.70983e-10
-1.15056e-06
2.09975e-07
-2.10439e-07
-8.18731e-07
1.84482e-07
8.18603e-07
-1.85152e-07
1.17902e-06
0.00105731
-3.1103e-10
-0.00105731
6.85918e-10
-1.17811e-06
2.09839e-07
-2.10308e-07
-8.18709e-07
1.84385e-07
-1.85063e-07
8.18564e-07
-1.98666e-07
-2.05907e-07
0.000258311
-1.14622e-06
0.000260235
-0.000258311
1.99583e-07
2.06823e-07
-3.21834e-10
6.77608e-10
0.00105834
-2.07793e-07
1.14632e-06
2.07327e-07
8.18701e-07
-1.87795e-07
1.87126e-07
-8.18833e-07
-3.42798e-10
-0.00105783
6.59454e-10
-1.1453e-06
2.07276e-07
-2.07734e-07
-8.18559e-07
1.87056e-07
8.18479e-07
-1.87739e-07
1.14633e-06
0.00105834
-3.34679e-10
-0.00105834
6.64843e-10
-1.14541e-06
2.07326e-07
-2.07788e-07
-8.18829e-07
1.87123e-07
-1.87792e-07
8.18707e-07
-0.000258323
2.01879e-07
2.07026e-07
1.1859e-06
1.14801e-06
-1.98524e-07
-2.08575e-07
0.000258328
-1.18682e-06
-1.14893e-06
0.000260255
-0.000258328
1.99445e-07
2.09501e-07
6.86727e-10
0.00105739
-2.15672e-07
1.18682e-06
2.15202e-07
8.21141e-07
-1.82439e-07
-8.21269e-07
1.8176e-07
-1.19122e-06
-3.23108e-10
6.90835e-10
0.00105783
-2.18408e-07
1.19215e-06
2.17938e-07
8.26631e-07
-1.87799e-07
-8.26772e-07
1.8713e-07
0.00105739
-3.24496e-10
-0.00105739
6.80612e-10
-1.18589e-06
2.15199e-07
-2.15669e-07
-8.21277e-07
1.81759e-07
-1.82431e-07
8.21135e-07
1.19215e-06
0.00105783
-3.25733e-10
-0.00105783
6.8363e-10
-1.19122e-06
2.17936e-07
-2.18404e-07
-8.2677e-07
1.87122e-07
-1.878e-07
8.26631e-07
-2.01206e-07
-2.05939e-07
0.000258346
-1.15149e-06
0.000260281
-0.000258346
2.02133e-07
2.06866e-07
6.62757e-10
0.00105843
-2.10464e-07
1.14893e-06
2.10011e-07
8.21263e-07
-1.87808e-07
-8.21384e-07
1.87141e-07
-1.18336e-06
-3.1897e-10
6.85002e-10
0.00105751
-2.15715e-07
1.18428e-06
2.15245e-07
8.21192e-07
-1.8776e-07
-8.2133e-07
1.87094e-07
0.00105843
-3.58365e-10
-0.00105843
6.53034e-10
-1.14801e-06
2.10009e-07
-2.10461e-07
-8.21374e-07
1.87139e-07
-1.87804e-07
8.21268e-07
1.18428e-06
0.00105751
-3.22402e-10
-0.00105751
6.76415e-10
-1.18336e-06
2.15242e-07
-2.15712e-07
-8.2133e-07
1.87086e-07
-1.87761e-07
8.21194e-07
-3.24025e-10
6.76733e-10
0.00105731
-2.10306e-07
1.17903e-06
2.09846e-07
8.18565e-07
-1.85057e-07
1.84396e-07
-8.18705e-07
-3.54273e-10
-0.00105816
6.62922e-10
-1.15056e-06
2.09976e-07
-2.10435e-07
-8.18726e-07
1.84485e-07
8.18605e-07
-1.85147e-07
1.17902e-06
0.00105731
-3.25233e-10
-0.00105731
6.80926e-10
-1.1781e-06
2.09841e-07
-2.10304e-07
-8.18704e-07
1.84387e-07
-1.85059e-07
8.18566e-07
-1.98662e-07
-2.05904e-07
0.000258311
-1.14622e-06
0.000260235
-0.000258311
1.99583e-07
2.06825e-07
-3.43507e-10
6.5984e-10
0.00105834
-2.07786e-07
1.14633e-06
2.07333e-07
8.18707e-07
-1.87786e-07
1.87133e-07
-8.18826e-07
-3.53337e-10
-0.00105783
6.5581e-10
-1.1453e-06
2.07277e-07
-2.07732e-07
-8.18555e-07
1.87058e-07
8.18481e-07
-1.87735e-07
1.14633e-06
0.00105834
-3.43773e-10
-0.00105834
6.56649e-10
-1.14541e-06
2.07327e-07
-2.07784e-07
-8.18824e-07
1.87124e-07
-1.87788e-07
8.18708e-07
-0.000258323
2.0188e-07
2.07027e-07
1.18589e-06
1.14801e-06
-1.98521e-07
-2.08572e-07
0.000258328
-1.18682e-06
-1.14893e-06
0.000260255
-0.000258328
1.99445e-07
2.09501e-07
6.79157e-10
0.00105739
-2.15668e-07
1.18682e-06
2.15204e-07
8.21144e-07
-1.82434e-07
-8.21264e-07
1.81763e-07
-1.19122e-06
-3.33728e-10
6.8458e-10
0.00105783
-2.18404e-07
1.19215e-06
2.1794e-07
8.26632e-07
-1.87796e-07
-8.26769e-07
1.87131e-07
0.00105739
-3.19107e-10
-0.00105739
6.81761e-10
-1.18589e-06
2.15198e-07
-2.15671e-07
-8.21279e-07
1.81759e-07
-1.82432e-07
8.21135e-07
1.19214e-06
0.00105783
-3.18902e-10
-0.00105783
6.89181e-10
-1.19122e-06
2.17933e-07
-2.18407e-07
-8.26773e-07
1.87121e-07
-1.87802e-07
8.2663e-07
-2.01205e-07
-2.05936e-07
0.000258346
-1.15149e-06
0.000260281
-0.000258346
2.02132e-07
2.06864e-07
6.53154e-10
0.00105843
-2.1046e-07
1.14894e-06
2.10013e-07
8.21265e-07
-1.87803e-07
-8.21379e-07
1.87143e-07
-1.18336e-06
-3.29725e-10
6.79287e-10
0.00105751
-2.15712e-07
1.18428e-06
2.15247e-07
8.21194e-07
-1.87757e-07
-8.21327e-07
1.87095e-07
0.00105843
-3.5563e-10
-0.00105843
6.54795e-10
-1.14801e-06
2.10009e-07
-2.10461e-07
-8.21376e-07
1.87139e-07
-1.87805e-07
8.21268e-07
1.18428e-06
0.00105751
-3.20571e-10
-0.00105751
6.78289e-10
-1.18336e-06
2.15241e-07
-2.15714e-07
-8.21331e-07
1.87087e-07
-1.87761e-07
8.21194e-07
-3.26607e-10
6.78153e-10
0.00105731
-2.10305e-07
1.17902e-06
2.09845e-07
8.18565e-07
-1.85056e-07
1.84396e-07
-8.18703e-07
-3.46797e-10
-0.00105816
6.66555e-10
-1.15056e-06
2.09975e-07
-2.10437e-07
-8.18729e-07
1.84482e-07
8.18603e-07
-1.8515e-07
1.17902e-06
0.00105731
-3.16009e-10
-0.00105731
6.84719e-10
-1.17811e-06
2.09838e-07
-2.10307e-07
-8.18707e-07
1.84386e-07
-1.85062e-07
8.18564e-07
-1.98661e-07
-2.05901e-07
0.000258311
-1.14623e-06
0.000260235
-0.000258311
1.99584e-07
2.06824e-07
-3.45242e-10
6.58717e-10
0.00105834
-2.07784e-07
1.14633e-06
2.07333e-07
8.18707e-07
-1.87785e-07
1.87132e-07
-8.18825e-07
-3.48981e-10
-0.00105783
6.5226e-10
-1.1453e-06
2.07278e-07
-2.07731e-07
-8.18557e-07
1.87057e-07
8.18479e-07
-1.87737e-07
1.14633e-06
0.00105834
-3.37508e-10
-0.00105834
6.57157e-10
-1.14541e-06
2.07328e-07
-2.07784e-07
-8.18828e-07
1.87122e-07
-1.87792e-07
8.18705e-07
-0.000258323
2.01881e-07
2.07026e-07
1.18589e-06
1.14801e-06
-1.98523e-07
-2.08574e-07
0.000258328
-1.18682e-06
-1.14893e-06
0.000260255
-0.000258328
1.99445e-07
2.095e-07
6.82814e-10
0.00105739
-2.15671e-07
1.18682e-06
2.15202e-07
8.21142e-07
-1.82436e-07
-8.21267e-07
1.81761e-07
-1.19122e-06
-3.26623e-10
6.86635e-10
0.00105783
-2.18406e-07
1.19215e-06
2.17938e-07
8.2663e-07
-1.87798e-07
-8.26772e-07
1.8713e-07
0.00105739
-3.28464e-10
-0.00105739
6.78923e-10
-1.18589e-06
2.15198e-07
-2.15667e-07
-8.21274e-07
1.81759e-07
-1.82427e-07
8.21135e-07
1.19215e-06
0.00105783
-3.28305e-10
-0.00105783
6.81379e-10
-1.19122e-06
2.17935e-07
-2.18402e-07
-8.26767e-07
1.87122e-07
-1.87796e-07
8.26631e-07
-2.01206e-07
-2.05939e-07
0.000258346
-1.15149e-06
0.000260281
-0.000258346
2.02133e-07
2.06865e-07
6.57653e-10
0.00105843
-2.10462e-07
1.14893e-06
2.10011e-07
8.21263e-07
-1.87806e-07
-8.21382e-07
1.87141e-07
-1.18336e-06
-3.23598e-10
6.79563e-10
0.00105751
-2.15713e-07
1.18428e-06
2.15246e-07
8.21192e-07
-1.87758e-07
-8.21329e-07
1.87095e-07
0.00105843
-3.62394e-10
-0.00105843
6.50614e-10
-1.148e-06
2.10009e-07
-2.10458e-07
-8.21372e-07
1.87138e-07
-1.87801e-07
8.21267e-07
1.18428e-06
0.00105751
-3.2739e-10
-0.00105751
6.72422e-10
-1.18335e-06
2.15242e-07
-2.15709e-07
-8.21325e-07
1.87087e-07
-1.87756e-07
8.21194e-07
-3.21767e-10
6.77193e-10
0.00105731
-2.10307e-07
1.17902e-06
2.09845e-07
8.18564e-07
-1.85057e-07
1.84395e-07
-8.18706e-07
-3.61495e-10
-0.00105816
6.61053e-10
-1.15056e-06
2.09976e-07
-2.10432e-07
-8.18722e-07
1.84485e-07
8.18605e-07
-1.85144e-07
1.17902e-06
0.00105731
-3.35603e-10
-0.00105731
6.74571e-10
-1.1781e-06
2.09841e-07
-2.10301e-07
-8.18699e-07
1.84389e-07
-1.85053e-07
8.18568e-07
-1.98661e-07
-2.05903e-07
0.000258311
-1.14623e-06
0.000260235
-0.000258311
1.99583e-07
2.06824e-07
-3.45267e-10
6.58765e-10
0.00105834
-2.07784e-07
1.14633e-06
2.07334e-07
8.18707e-07
-1.87787e-07
1.87132e-07
-8.18827e-07
-3.61434e-10
-0.00105783
6.51215e-10
-1.1453e-06
2.07278e-07
-2.07727e-07
-8.1855e-07
1.87058e-07
8.1848e-07
-1.87731e-07
1.14633e-06
0.00105834
-3.5336e-10
-0.00105834
6.48323e-10
-1.1454e-06
2.0733e-07
-2.07779e-07
-8.1882e-07
1.87125e-07
-1.87784e-07
8.18708e-07
-0.000258323
2.01882e-07
2.07027e-07
1.18589e-06
1.148e-06
-1.98519e-07
-2.0857e-07
0.000258328
-1.18682e-06
-1.14893e-06
0.000260255
-0.000258328
1.99442e-07
2.09498e-07
6.79396e-10
0.00105739
-2.15667e-07
1.18682e-06
2.15203e-07
8.21142e-07
-1.82432e-07
-8.21262e-07
1.81762e-07
-1.19122e-06
-3.32389e-10
6.82649e-10
0.00105783
-2.18402e-07
1.19215e-06
2.17938e-07
8.2663e-07
-1.87793e-07
-8.26766e-07
1.8713e-07
0.00105739
-3.1257e-10
-0.00105739
6.89762e-10
-1.1859e-06
2.15195e-07
-2.15671e-07
-8.2128e-07
1.81754e-07
-1.82433e-07
8.21131e-07
1.19214e-06
0.00105783
-3.12289e-10
-0.00105783
6.92728e-10
-1.19122e-06
2.17931e-07
-2.18406e-07
-8.26773e-07
1.87117e-07
-1.87803e-07
8.26626e-07
-2.01202e-07
-2.05934e-07
0.000258346
-1.15149e-06
0.000260281
-0.000258346
2.0213e-07
2.06863e-07
6.53233e-10
0.00105843
-2.10458e-07
1.14893e-06
2.10012e-07
8.21264e-07
-1.87801e-07
-8.21377e-07
1.87142e-07
-1.18335e-06
-3.28621e-10
6.76901e-10
0.00105751
-2.15709e-07
1.18428e-06
2.15246e-07
8.21192e-07
-1.87754e-07
-8.21324e-07
1.87094e-07
0.00105843
-3.45033e-10
-0.00105843
6.61726e-10
-1.14801e-06
2.10004e-07
-2.10463e-07
-8.21377e-07
1.87134e-07
-1.87806e-07
8.21263e-07
1.18428e-06
0.00105751
-3.09263e-10
-0.00105751
6.86038e-10
-1.18336e-06
2.15238e-07
-2.15714e-07
-8.21332e-07
1.87081e-07
-1.87764e-07
8.21189e-07
-3.36104e-10
6.71003e-10
0.00105731
-2.10301e-07
1.17902e-06
2.09846e-07
8.18565e-07
-1.8505e-07
1.84397e-07
-8.18698e-07
-3.42242e-10
-0.00105816
6.71569e-10
-1.15056e-06
2.09972e-07
-2.10437e-07
-8.18729e-07
1.8448e-07
8.186e-07
-1.8515e-07
1.17902e-06
0.00105731
-3.14468e-10
-0.00105731
6.90002e-10
-1.17811e-06
2.09837e-07
-2.10307e-07
-8.18706e-07
1.84383e-07
-1.85062e-07
8.18562e-07
-1.98657e-07
-2.05899e-07
0.000258311
-1.14622e-06
0.000260235
-0.000258311
1.9958e-07
2.06821e-07
-3.56224e-10
6.5196e-10
0.00105834
-2.07779e-07
1.14633e-06
2.07334e-07
8.18708e-07
-1.8778e-07
1.87133e-07
-8.18819e-07
-3.39277e-10
-0.00105783
6.63924e-10
-1.1453e-06
2.07273e-07
-2.07733e-07
-8.18558e-07
1.87053e-07
8.18475e-07
-1.87739e-07
1.14632e-06
0.00105834
-3.3001e-10
-0.00105834
6.64005e-10
-1.14541e-06
2.07324e-07
-2.07786e-07
-8.18828e-07
1.8712e-07
-1.87791e-07
8.18703e-07
-0.000258323
2.01878e-07
2.07025e-07
1.1859e-06
1.14801e-06
-1.98524e-07
-2.08574e-07
0.000258328
-1.18682e-06
-1.14893e-06
0.000260255
-0.000258328
1.99441e-07
2.09497e-07
6.89173e-10
0.00105739
-2.15672e-07
1.18682e-06
2.15199e-07
8.21138e-07
-1.82438e-07
-8.21268e-07
1.81757e-07
-1.19122e-06
-3.17347e-10
6.93319e-10
0.00105783
-2.18407e-07
1.19214e-06
2.17935e-07
8.26626e-07
-1.878e-07
-8.26773e-07
1.87125e-07
0.00105739
-3.14339e-10
-0.00105739
6.87445e-10
-1.1859e-06
2.15195e-07
-2.15671e-07
-8.21279e-07
1.81755e-07
-1.82432e-07
8.21131e-07
1.19214e-06
0.00105783
-3.17018e-10
-0.00105783
6.90078e-10
-1.19122e-06
2.1793e-07
-2.18407e-07
-8.26771e-07
1.87118e-07
-1.87801e-07
8.26627e-07
-2.01206e-07
-2.05939e-07
0.000258346
-1.15149e-06
0.000260281
-0.000258346
2.0213e-07
2.06861e-07
6.62544e-10
0.00105843
-2.10463e-07
1.14893e-06
2.10008e-07
8.21259e-07
-1.87807e-07
-8.21383e-07
1.87138e-07
-1.18336e-06
-3.12153e-10
6.88963e-10
0.00105751
-2.15715e-07
1.18428e-06
2.15242e-07
8.21187e-07
-1.87761e-07
-8.21331e-07
1.87089e-07
0.00105843
-3.48176e-10
-0.00105843
6.59472e-10
-1.14801e-06
2.10004e-07
-2.10462e-07
-8.21376e-07
1.87135e-07
-1.87805e-07
8.21263e-07
1.18428e-06
0.00105751
-3.1597e-10
-0.00105751
6.82057e-10
-1.18336e-06
2.15238e-07
-2.15714e-07
-8.2133e-07
1.87083e-07
-1.87761e-07
8.2119e-07
-3.11686e-10
6.88051e-10
0.00105731
-2.10308e-07
1.17902e-06
2.09841e-07
8.18559e-07
-1.85059e-07
1.8439e-07
-8.18707e-07
-3.46729e-10
-0.00105816
6.66765e-10
-1.15056e-06
2.09973e-07
-2.10436e-07
-8.18727e-07
1.8448e-07
8.186e-07
-1.85149e-07
1.17902e-06
0.00105731
-3.1649e-10
-0.00105731
6.87554e-10
-1.17811e-06
2.09836e-07
-2.10306e-07
-8.18705e-07
1.84383e-07
-1.8506e-07
8.18561e-07
-1.98663e-07
-2.05904e-07
0.000258311
-1.14622e-06
0.000260235
-0.000258311
1.9958e-07
2.06821e-07
-3.30279e-10
6.69089e-10
0.00105834
-2.07787e-07
1.14633e-06
2.07328e-07
8.18702e-07
-1.87789e-07
1.87127e-07
-8.18828e-07
-3.44592e-10
-0.00105783
6.57983e-10
-1.1453e-06
2.07274e-07
-2.07732e-07
-8.18556e-07
1.87054e-07
8.18475e-07
-1.87737e-07
1.14632e-06
0.00105834
-3.32999e-10
-0.00105834
6.61806e-10
-1.14541e-06
2.07324e-07
-2.07785e-07
-8.18826e-07
1.87119e-07
-1.8779e-07
8.18702e-07
-0.000258323
2.01877e-07
2.07023e-07
1.18589e-06
1.14801e-06
-1.98523e-07
-2.08573e-07
0.000258328
-1.18681e-06
-1.14893e-06
0.000260255
-0.000258328
1.99441e-07
2.09497e-07
6.88454e-10
0.00105739
-2.15671e-07
1.18682e-06
2.15199e-07
8.21138e-07
-1.82437e-07
-8.21266e-07
1.81757e-07
-1.19122e-06
-3.21954e-10
6.90169e-10
0.00105783
-2.18406e-07
1.19214e-06
2.17935e-07
8.26627e-07
-1.87796e-07
-8.2677e-07
1.87127e-07
0.00105739
-3.07891e-10
-0.00105739
6.90485e-10
-1.1859e-06
2.15194e-07
-2.15673e-07
-8.21282e-07
1.81754e-07
-1.82435e-07
8.21129e-07
1.19214e-06
0.00105783
-3.075e-10
-0.00105783
6.96587e-10
-1.19122e-06
2.17929e-07
-2.18409e-07
-8.26775e-07
1.87116e-07
-1.87804e-07
8.26625e-07
-2.01204e-07
-2.05937e-07
0.000258346
-1.15149e-06
0.000260281
-0.000258346
2.02129e-07
2.06861e-07
6.6252e-10
0.00105843
-2.10462e-07
1.14893e-06
2.10008e-07
8.2126e-07
-1.87806e-07
-8.21381e-07
1.87138e-07
-1.18336e-06
-3.18194e-10
6.85475e-10
0.00105751
-2.15714e-07
1.18428e-06
2.15242e-07
8.21189e-07
-1.87757e-07
-8.21328e-07
1.87091e-07
0.00105843
-3.42457e-10
-0.00105843
6.62888e-10
-1.14801e-06
2.10004e-07
-2.10464e-07
-8.21379e-07
1.87133e-07
-1.87808e-07
8.21262e-07
1.18427e-06
0.00105751
-3.07114e-10
-0.00105751
6.87571e-10
-1.18336e-06
2.15237e-07
-2.15717e-07
-8.21333e-07
1.87081e-07
-1.87765e-07
8.21189e-07
-3.22574e-10
6.80518e-10
0.00105731
-2.10305e-07
1.17902e-06
2.09843e-07
8.18562e-07
-1.85055e-07
1.84393e-07
-8.18703e-07
-3.36393e-10
-0.00105816
6.74525e-10
-1.15056e-06
2.09971e-07
-2.10439e-07
-8.18731e-07
1.84478e-07
8.18599e-07
-1.85152e-07
1.17902e-06
0.00105731
-3.07805e-10
-0.00105731
6.92777e-10
-1.17811e-06
2.09835e-07
-2.1031e-07
-8.18709e-07
1.84382e-07
-1.85064e-07
8.1856e-07
-1.9866e-07
-2.05902e-07
0.000258311
-1.14622e-06
0.000260235
-0.000258311
1.99579e-07
2.0682e-07
-3.4118e-10
6.61941e-10
0.00105834
-2.07784e-07
1.14633e-06
2.0733e-07
8.18704e-07
-1.87785e-07
1.8713e-07
-8.18824e-07
-3.38637e-10
-0.00105783
6.64184e-10
-1.1453e-06
2.07272e-07
-2.07735e-07
-8.18559e-07
1.87054e-07
8.18475e-07
-1.8774e-07
1.14632e-06
0.00105834
-3.24949e-10
-0.00105834
6.66751e-10
-1.14541e-06
2.07323e-07
-2.07788e-07
-8.1883e-07
1.87118e-07
-1.87794e-07
8.18701e-07
-0.000258323
2.01877e-07
2.07022e-07
1.1859e-06
1.14801e-06
-1.98526e-07
-2.08577e-07
0.000258328
-1.18682e-06
-1.14893e-06
0.000260255
-0.000258328
1.99449e-07
2.09496e-07
6.90423e-10
0.00105739
-2.15675e-07
1.18682e-06
2.15199e-07
8.21138e-07
-1.82441e-07
-8.21271e-07
1.81757e-07
-1.19122e-06
-3.10187e-10
6.99322e-10
0.00105783
-2.1841e-07
1.19214e-06
2.17934e-07
8.26625e-07
-1.87802e-07
-8.26775e-07
1.87124e-07
0.00105739
-3.03338e-10
-0.00105739
6.77617e-10
-1.18589e-06
2.15198e-07
-2.15669e-07
-8.21278e-07
1.81763e-07
-1.82432e-07
8.21135e-07
1.19214e-06
0.00105783
-2.87138e-10
-0.00105783
7.12216e-10
-1.19122e-06
2.1793e-07
-2.18411e-07
-8.26779e-07
1.87116e-07
-1.8781e-07
8.26625e-07
-2.01209e-07
-2.05941e-07
0.000258346
-1.15149e-06
0.000260281
-0.000258346
2.02129e-07
2.06863e-07
6.64954e-10
0.00105843
-2.10465e-07
1.14893e-06
2.10009e-07
8.21259e-07
-1.8781e-07
-8.21386e-07
1.87137e-07
-1.18336e-06
-3.0887e-10
6.91828e-10
0.00105751
-2.15718e-07
1.18428e-06
2.15242e-07
8.21188e-07
-1.87763e-07
-8.21333e-07
1.8709e-07
0.00105843
-3.28497e-10
-0.00105843
6.54604e-10
-1.14801e-06
2.10007e-07
-2.10463e-07
-8.21382e-07
1.8713e-07
-1.87811e-07
8.21259e-07
1.18427e-06
0.00105751
-2.95983e-10
-0.00105751
6.9108e-10
-1.18336e-06
2.15235e-07
-2.15719e-07
-8.21335e-07
1.8708e-07
-1.87766e-07
8.21188e-07
-3.05965e-10
6.888e-10
0.00105731
-2.10311e-07
1.17902e-06
2.0984e-07
8.18559e-07
-1.85061e-07
1.8439e-07
-8.18709e-07
-3.35961e-10
-0.00105816
6.80475e-10
-1.15057e-06
2.0997e-07
-2.10444e-07
-8.18731e-07
1.8448e-07
8.18601e-07
-1.85153e-07
1.17901e-06
0.00105731
-2.80114e-10
-0.00105731
6.91074e-10
-1.17812e-06
2.0983e-07
-2.10315e-07
-8.18712e-07
1.84379e-07
-1.85068e-07
8.18559e-07
-1.98664e-07
-2.05906e-07
0.000258311
-1.14622e-06
0.000260235
-0.000258311
1.99582e-07
2.06819e-07
-3.25908e-10
6.69648e-10
0.00105834
-2.07788e-07
1.14633e-06
2.07329e-07
8.18701e-07
-1.87791e-07
1.87126e-07
-8.1883e-07
-3.24922e-10
-0.00105783
6.57811e-10
-1.1453e-06
2.07277e-07
-2.07733e-07
-8.18568e-07
1.87057e-07
8.18477e-07
-1.87751e-07
1.14633e-06
0.00105834
-2.88342e-10
-0.00105834
6.63261e-10
-1.1454e-06
2.07333e-07
-2.0778e-07
-8.18825e-07
1.87124e-07
-1.87791e-07
8.18709e-07
-0.000258323