/*--------------------------------*- C++ -*----------------------------------*\
| =========                 |                                                 |
| \\      /  F ield         | OpenFOAM: The Open Source CFD Toolbox           |
|  \\    /   O peration     | Version:  2206                                  |
|   \\  /    A nd           | Website:  www.openfoam.com                      |
|    \\/     M anipulation  |                                                 |
\*---------------------------------------------------------------------------*/
FoamFile
{
    version     2.0;
    format      ascii;
    arch        "LSB;label=32;scalar=64";
    class       surfaceScalarField;
    location    "2.5";
    object      phi;
}
// * * * * * * * * * * * * * * * * * * * * * * * * * * * * * * * * * * * * * //

dimensions      [0 3 -1 0 0 0 0];

oriented        oriented;

internalField   nonuniform List<scalar> 
83375
(
2.0534e-06
2.05276e-06
-4.18897e-07
1.23441e-07
-1.90289e-06
-1.90781e-06
-2.86502e-07
-5.796e-07
5.74801e-07
1.87676e-06
-9.5947e-07
1.29161e-06
1.68048e-06
-1.62834e-06
1.29827e-06
-1.80012e-06
5.85512e-07
-2.04646e-06
-2.8822e-07
-5.85286e-07
5.71306e-07
1.87776e-06
-9.55914e-07
1.28909e-06
1.68093e-06
-1.62901e-06
1.29883e-06
-1.80092e-06
5.87886e-07
2.05016e-06
1.18932e-07
-1.90012e-06
-1.89656e-06
-4.18878e-07
-2.887e-07
-5.52755e-07
5.74114e-07
1.87743e-06
-9.57495e-07
1.28959e-06
1.68153e-06
-1.62894e-06
1.2997e-06
-1.80059e-06
5.58883e-07
-2.04645e-06
-2.92395e-07
-5.78069e-07
5.6701e-07
1.87831e-06
-9.55299e-07
1.28963e-06
1.68134e-06
-1.62791e-06
1.29945e-06
-1.79996e-06
5.84339e-07
-2.90108e-07
-5.5547e-07
5.73672e-07
1.8803e-06
-9.58178e-07
1.29238e-06
1.681e-06
-1.62863e-06
1.29839e-06
-1.80051e-06
5.57319e-07
-2.04774e-06
-2.93075e-07
5.68056e-07
1.88043e-06
-9.57161e-07
1.29306e-06
1.68167e-06
-1.62662e-06
1.29956e-06
-1.79908e-06
5.83727e-07
-5.82841e-07
2.04974e-06
1.19457e-07
-1.90081e-06
-1.89791e-06
-4.16924e-07
-2.89781e-07
5.73817e-07
1.8798e-06
-9.57484e-07
1.29274e-06
1.68115e-06
-1.62767e-06
1.29875e-06
-1.79987e-06
5.60405e-07
-5.62137e-07
-2.04705e-06
-2.94464e-07
5.68067e-07
1.88079e-06
-9.55081e-07
1.29074e-06
1.68245e-06
-1.62735e-06
1.30103e-06
-1.79966e-06
5.56631e-07
-5.56099e-07
1.14222e-07
-1.89576e-06
-1.90035e-06
-4.12901e-07
1.72605e-06
1.73212e-06
-1.20166e-07
-1.87801e-06
-1.87888e-06
1.14839e-07
-1.89601e-06
-1.89983e-06
2.04721e-06
2.0469e-06
-4.1311e-07
-1.26105e-06
-2.90777e-07
-2.91379e-07
1.268e-06
-1.26508e-06
-2.90791e-07
-2.90304e-07
1.26785e-06
-2.85709e-07
-2.88401e-07
1.26464e-06
-1.2727e-06
-2.9356e-07
-2.95061e-07
1.2588e-06
-1.25772e-06
4.18065e-07
-1.27227e-07
-5.73947e-08
-2.33444e-07
-3.45988e-08
-2.56289e-07
2.32985e-07
5.79031e-08
4.16727e-07
-1.25974e-07
-5.71931e-08
-2.3356e-07
-3.2957e-08
-2.57957e-07
2.32167e-07
5.87464e-08
-1.87906e-06
-1.88072e-06
-1.15051e-07
1.72812e-06
1.73331e-06
4.13407e-07
6.2008e-07
-1.2253e-07
7.05012e-07
-5.03848e-07
-2.80649e-07
6.19702e-07
-1.23516e-07
7.03677e-07
-5.0238e-07
-2.80755e-07
-6.29807e-07
4.89308e-08
-7.97402e-08
5.03562e-07
1.22455e-07
-6.30447e-07
5.01386e-08
-7.82612e-08
5.02573e-07
1.23038e-07
6.40792e-10
-8.96274e-07
4.8713e-07
-1.00863e-07
3.85164e-07
1.24201e-07
1.2821e-06
-4.08879e-07
-9.0362e-07
-9.68297e-08
-1.2453e-06
4.8297e-07
4.08073e-07
9.7966e-08
-2.63193e-10
7.72048e-07
-3.84204e-07
-4.38371e-07
1.76022e-07
-1.25232e-07
-8.96277e-07
4.87135e-07
-9.96942e-08
3.8519e-07
1.24287e-07
1.28277e-06
1.24409e-07
-4.09184e-07
-9.01263e-07
-9.67275e-08
-1.24614e-06
2.57281e-07
4.82739e-07
4.08726e-07
9.73906e-08
7.72271e-07
-3.84347e-07
-4.38523e-07
1.75471e-07
-1.25135e-07
5.31217e-10
2.08477e-07
-1.51625e-06
2.80361e-07
1.30609e-07
5.70809e-07
-2.88725e-07
-2.0493e-06
1.29195e-06
-9.58215e-07
-1.8002e-06
1.29848e-06
-1.6279e-06
1.68062e-06
-5.76176e-07
1.36467e-06
-3.31542e-07
9.37033e-07
-6.79825e-08
-8.04563e-07
8.72921e-10
2.929e-07
1.76514e-06
-1.59172e-06
1.73999e-06
-1.63712e-06
8.09296e-07
-1.06554e-06
-1.20875e-06
3.31797e-07
6.73903e-08
-1.40252e-09
2.95562e-07
-1.63807e-06
1.73947e-06
1.76463e-06
-1.59269e-06
-8.01259e-07
4.17695e-10
-2.79394e-07
-1.38732e-07
1.3213e-06
-1.31546e-07
2.09585e-07
-1.51652e-06
2.80883e-07
1.30303e-07
5.73052e-07
1.8777e-06
-2.86241e-07
-1.80156e-06
1.29873e-06
1.68066e-06
-1.62955e-06
-2.04684e-06
1.28885e-06
-9.56132e-07
-5.83966e-07
-6.20454e-07
1.3653e-06
-3.3061e-07
9.37134e-07
-6.86073e-08
-8.08479e-07
2.93798e-07
1.7652e-06
-1.59212e-06
1.7399e-06
-1.63789e-06
8.11772e-07
6.30705e-07
-1.06667e-06
-1.20894e-06
3.31809e-07
6.69608e-08
2.97647e-07
-1.63895e-06
1.73933e-06
1.76466e-06
-1.59316e-06
-8.06352e-07
-2.80015e-07
-1.37938e-07
1.32172e-06
-1.31076e-07
4.15409e-07
-2.33953e-07
-5.70474e-08
-3.38488e-08
2.33463e-07
5.7667e-08
-1.88031e-06
-1.17797e-07
1.73258e-06
1.72768e-06
4.15551e-07
7.02425e-07
-5.02118e-07
-2.82066e-07
-1.23285e-07
-4.16776e-07
6.19781e-07
7.04539e-07
-5.04584e-07
-2.81081e-07
-1.21879e-07
4.9471e-08
-7.7854e-08
5.02467e-07
1.22771e-07
3.52017e-08
-6.30858e-07
4.93517e-08
-8.0015e-08
5.05124e-07
1.21196e-07
-1.26224e-07
-2.32996e-07
-5.75554e-08
-2.55513e-07
2.32036e-07
5.86798e-08
-8.9659e-07
-9.86422e-11
-1.00236e-07
4.87569e-07
3.85045e-07
1.2431e-07
1.28256e-06
-4.09941e-07
-9.02605e-07
-9.59876e-08
-1.24657e-06
4.82149e-07
4.08183e-07
9.82851e-08
7.72176e-07
9.12949e-11
-3.84012e-07
1.75571e-07
-4.38477e-07
-1.25349e-07
4.29672e-11
2.08497e-07
-1.51696e-06
2.82711e-07
1.29118e-07
5.7048e-07
-2.89049e-07
-2.04776e-06
1.29099e-06
-9.55161e-07
-1.8002e-06
1.30085e-06
-1.62816e-06
1.68253e-06
-5.58006e-07
1.36514e-06
-3.31442e-07
9.36966e-07
-6.84006e-08
-8.06967e-07
1.99654e-09
2.94554e-07
1.76462e-06
-1.59238e-06
1.73938e-06
-1.63779e-06
8.10701e-07
-1.06579e-06
-1.21079e-06
3.33005e-07
6.65518e-08
-1.10425e-09
2.98246e-07
-1.63906e-06
1.73873e-06
1.76403e-06
-1.59354e-06
-8.03798e-07
3.74014e-11
-2.81485e-07
-1.38493e-07
1.32261e-06
-1.3049e-07
-8.96428e-07
4.87285e-07
-1.00416e-07
3.85396e-07
1.24065e-07
1.28215e-06
1.25043e-07
-4.0756e-07
-9.02044e-07
-9.75892e-08
-1.24554e-06
2.57436e-07
4.82702e-07
4.06759e-07
9.8643e-08
7.72139e-07
-3.84445e-07
-4.38379e-07
1.75845e-07
-1.25069e-07
-1.51724e-06
2.08888e-07
2.82917e-07
1.29044e-07
5.76683e-07
1.87737e-06
-1.80109e-06
1.29827e-06
1.68025e-06
-1.62915e-06
-2.04683e-06
1.28864e-06
-9.56495e-07
-5.81184e-07
-2.84524e-07
-8.09149e-07
2.921e-07
1.76512e-06
-1.59192e-06
1.73979e-06
-1.63774e-06
8.10799e-07
-6.19954e-07
1.36476e-06
-3.32128e-07
9.37009e-07
-6.75386e-08
2.97079e-07
-1.63813e-06
1.73957e-06
1.76497e-06
-1.59266e-06
-8.04409e-07
6.30042e-07
-1.06605e-06
-1.20884e-06
3.33253e-07
6.60567e-08
-2.8205e-07
1.32254e-06
-1.38291e-07
-1.30019e-07
8.95605e-07
-2.23603e-09
2.106e-07
-1.51616e-06
2.82266e-07
1.29922e-07
5.75268e-07
-2.89164e-07
-2.05052e-06
1.29238e-06
-9.58354e-07
-1.801e-06
1.2985e-06
1.68098e-06
-1.62908e-06
-5.54801e-07
-1.28199e-06
1.36508e-06
-3.31052e-07
9.36217e-07
-6.84763e-08
-8.07051e-07
1.99164e-09
2.96736e-07
1.76436e-06
-1.59242e-06
1.73921e-06
-1.63784e-06
8.08686e-07
1.245e-06
-1.06695e-06
-1.20816e-06
3.32105e-07
6.71448e-08
3.12115e-09
2.98085e-07
-1.63846e-06
1.73887e-06
1.764e-06
-1.59299e-06
-8.04406e-07
-7.7149e-07
-2.25262e-09
-2.82112e-07
-1.36262e-07
1.32223e-06
-1.30116e-07
-1.94616e-09
-9.9056e-08
4.86666e-07
3.85698e-07
1.24244e-07
-4.08155e-07
-9.02819e-07
-9.72423e-08
4.83707e-07
4.07132e-07
9.86512e-08
-9.76985e-10
-3.85413e-07
1.7682e-07
-4.37326e-07
-1.24593e-07
8.95458e-07
-1.51662e-06
2.0639e-07
2.83292e-07
1.29241e-07
-8.06202e-07
2.90894e-07
1.76584e-06
-1.59145e-06
1.74022e-06
-1.63686e-06
8.07602e-07
-1.28097e-06
-6.20029e-07
1.36321e-06
-3.32893e-07
9.37755e-07
-6.70791e-08
2.92209e-07
-1.63734e-06
1.73956e-06
1.76531e-06
-1.59201e-06
-8.02746e-07
-5.68068e-07
-7.71411e-07
-2.83439e-07
1.32209e-06
-1.40347e-07
-1.29147e-07
4.86155e-07
-1.02618e-07
3.85844e-07
1.24132e-07
1.26898e-07
-4.06421e-07
-9.03329e-07
-9.81146e-08
-3.8578e-07
-4.37526e-07
1.75204e-07
-1.24285e-07
4.15488e-07
-2.32373e-07
-5.80727e-08
-3.30704e-08
2.31604e-07
5.89026e-08
-1.18337e-07
1.73305e-06
4.13681e-07
-1.87953e-06
1.7285e-06
7.02634e-07
-5.03129e-07
-2.81234e-07
-1.22736e-07
-4.17428e-07
6.19245e-07
7.04682e-07
-5.02864e-07
-2.80684e-07
-1.22951e-07
-7.78211e-08
5.03619e-07
1.22002e-07
4.917e-08
-1.26929e-07
-2.33195e-07
-5.73036e-08
2.33036e-09
2.94763e-07
1.76414e-06
-1.59264e-06
1.73881e-06
-1.63806e-06
8.0832e-07
-8.0385e-07
-1.28123e-06
1.36407e-06
-3.32154e-07
9.36136e-07
-6.7579e-08
-1.54184e-09
-7.71473e-07
-2.83037e-07
1.32294e-06
-1.37116e-07
-1.29776e-07
2.92783e-07
1.76489e-06
-1.59222e-06
1.73921e-06
-1.63765e-06
8.08962e-07
-8.05577e-07
-1.28172e-06
-6.20095e-07
1.36384e-06
-3.32511e-07
9.37983e-07
-6.74992e-08
-7.71883e-07
-2.83549e-07
1.32329e-06
-1.39999e-07
-1.29401e-07
-4.07866e-07
-9.03143e-07
-9.71492e-08
-1.38276e-09
-3.85259e-07
1.77077e-07
-4.37118e-07
-1.24791e-07
1.25515e-07
-4.06657e-07
-9.0256e-07
-9.80185e-08
-3.85591e-07
1.74659e-07
-4.37672e-07
-1.24662e-07
-4.16776e-07
7.02753e-07
-5.02064e-07
-2.80528e-07
-1.23414e-07
-4.15418e-07
7.01724e-07
-5.02706e-07
-2.80699e-07
-1.22996e-07
-2.31646e-07
-5.82314e-08
-2.31763e-07
-5.81406e-08
-3.45322e-08
2.33184e-07
-2.56046e-07
4.18519e-07
-5.79193e-08
-2.32764e-07
-1.27836e-07
-3.33232e-08
2.3356e-07
-2.5743e-07
4.17363e-07
-5.77528e-08
-2.33112e-07
-1.26498e-07
-7.93694e-08
4.8903e-08
5.03247e-07
-6.29843e-07
-7.83002e-08
4.99022e-08
5.01622e-07
-6.30064e-07
-4.17171e-07
1.18485e-07
-1.89418e-06
-1.89875e-06
2.04608e-06
2.04554e-06
-1.22174e-07
-2.80253e-07
-5.03365e-07
7.0414e-07
6.20171e-07
-1.23237e-07
-2.80778e-07
-5.01664e-07
7.02896e-07
6.20146e-07
4.18074e-07
-2.3022e-07
-1.28258e-07
-5.95967e-08
-3.2803e-08
2.31722e-07
-2.56839e-07
4.16817e-07
-2.30371e-07
-1.26915e-07
-5.95305e-08
-3.17283e-08
2.3196e-07
-2.57985e-07
-1.16589e-07
1.72934e-06
1.73536e-06
-1.88225e-06
-1.88304e-06
7.03272e-07
-5.05263e-07
-2.79497e-07
6.20069e-07
-1.20507e-07
7.01851e-07
-5.03486e-07
-2.80058e-07
6.20182e-07
-1.21672e-07
4.87934e-08
-7.88379e-08
5.04305e-07
-6.29239e-07
4.97305e-08
-7.79516e-08
5.0255e-07
-6.29295e-07
5.7336e-08
-3.48638e-08
-2.55916e-07
4.17526e-07
-1.27205e-07
5.74893e-08
-3.37518e-08
-2.57297e-07
4.15762e-07
-1.26105e-07
-4.17735e-07
4.71169e-07
4.71472e-07
-2.11403e-07
-2.10052e-07
-1.03451e-07
5.52568e-07
1.93878e-07
-7.88922e-07
4.24758e-08
5.5351e-07
1.93777e-07
-7.89722e-07
4.2435e-08
2.94999e-07
2.90454e-07
1.02892e-07
7.06372e-07
-4.13252e-08
7.0664e-07
-4.13903e-08
1.16487e-06
6.98453e-07
3.28028e-07
8.26624e-08
-2.94507e-07
-1.97951e-06
-3.2712e-07
3.5396e-07
-1.12542e-07
1.01903e-06
-2.28311e-07
4.89553e-08
-7.96164e-08
1.22168e-07
-6.30218e-07
-3.61223e-07
8.49991e-07
-7.063e-07
-6.3117e-08
6.36711e-08
7.88933e-07
1.10955e-07
-6.09506e-07
7.90267e-07
2.10485e-07
-8.40739e-08
1.40557e-06
1.16472e-06
6.94115e-07
3.2824e-07
8.25478e-08
-2.90043e-07
-1.97958e-06
-3.26364e-07
3.51971e-07
-1.13136e-07
1.01892e-06
-2.27718e-07
5.00964e-08
-7.85874e-08
1.22891e-07
-6.30532e-07
-3.61842e-07
8.50061e-07
-7.06516e-07
-6.24586e-08
6.32214e-08
7.89755e-07
1.11185e-07
-6.10895e-07
7.88873e-07
2.08799e-07
-8.3777e-08
1.40525e-06
-3.29685e-07
-8.49267e-07
-3.54526e-07
1.40474e-06
-1.16453e-06
3.5964e-07
6.48968e-08
-6.98689e-07
3.27807e-07
-6.09084e-07
7.90401e-07
1.09825e-07
-2.80415e-07
7.03834e-07
6.19836e-07
-1.97944e-06
8.15326e-08
1.01665e-06
-2.28585e-07
-3.29464e-07
-8.49409e-07
-3.53188e-07
1.40456e-06
-1.1642e-06
3.59697e-07
6.49222e-08
-6.94338e-07
3.27802e-07
-6.10228e-07
7.88602e-07
1.09901e-07
-2.80148e-07
7.02455e-07
6.18919e-07
-1.97928e-06
8.1727e-08
1.01709e-06
-2.28833e-07
-5.51981e-07
-5.52828e-07
4.16808e-07
-1.95627e-07
-4.70025e-07
-4.06476e-08
-1.95536e-07
-4.70334e-07
-4.06449e-08
-1.04267e-07
-3.33985e-07
-4.77909e-08
3.80399e-07
7.98836e-08
-7.85067e-08
1.87455e-09
3.89445e-07
-1.6377e-10
9.59737e-08
4.38343e-07
3.81523e-07
-1.58112e-07
-8.79961e-07
1.17344e-07
-4.38221e-07
1.76242e-07
-1.24839e-07
-3.67506e-10
7.72349e-07
2.75647e-08
7.86672e-08
-9.59393e-08
-6.27979e-10
3.32289e-07
-1.18107e-07
7.2398e-07
-2.27744e-07
2.01929e-07
5.333e-08
-2.75151e-08
4.83262e-07
9.68125e-08
-1.24487e-06
-5.14545e-07
-3.35462e-07
-3.31924e-07
4.25537e-07
-1.47227e-07
1.46859e-07
1.58151e-07
-5.64038e-07
-7.99484e-08
-5.3585e-08
-2.01804e-07
3.35018e-07
2.28012e-07
5.14947e-07
-5.64725e-07
1.46623e-07
-9.0393e-07
1.28161e-06
5.37723e-08
4.25183e-07
-1.96806e-09
-4.37975e-07
3.3392e-07
4.87054e-07
-1.00851e-07
6.70807e-10
-8.95918e-07
-3.89266e-07
4.79943e-08
-7.62212e-10
-9.63381e-08
-3.80474e-07
-3.80926e-07
7.24038e-07
-1.18541e-07
-1.19187e-10
-8.79256e-07
-7.89593e-08
-3.34841e-07
-4.65727e-08
3.81037e-07
7.8562e-08
-7.81856e-08
1.43652e-09
3.89661e-07
9.58729e-08
4.38798e-07
3.80571e-07
-1.57155e-07
-8.80161e-07
1.18253e-07
-4.38392e-07
1.75576e-07
-1.24849e-07
7.72487e-07
2.72999e-08
7.80935e-08
-9.59313e-08
3.31002e-07
-1.18571e-07
7.24752e-07
-2.28199e-07
2.02904e-07
5.26988e-08
-2.7404e-08
4.82712e-07
9.65269e-08
2.57315e-07
-1.24574e-06
-5.13945e-07
-3.34532e-07
-3.30834e-07
4.25669e-07
-1.47621e-07
1.47331e-07
1.5716e-07
-5.63923e-07
-7.85025e-08
-5.3125e-08
-2.03141e-07
3.34402e-07
2.28665e-07
5.14032e-07
-5.64591e-07
1.47477e-07
-9.01276e-07
1.24246e-07
1.28228e-06
5.28242e-08
4.25491e-07
-1.56067e-09
-4.3834e-07
3.34311e-07
4.86796e-07
-9.96708e-08
-8.95651e-07
-3.89184e-07
4.65035e-08
-9.66051e-08
-3.80099e-07
-3.81093e-07
7.24592e-07
-1.18764e-07
-8.7952e-07
-7.87812e-08
5.69936e-08
-3.36313e-08
4.14702e-07
-4.18281e-07
4.72045e-07
4.71586e-07
-2.10161e-07
-2.12042e-07
-1.03147e-07
5.52881e-07
1.94689e-07
-7.89309e-07
4.17389e-08
5.52377e-07
1.94421e-07
-7.88791e-07
4.1993e-08
2.90843e-07
2.936e-07
1.02536e-07
7.07701e-07
-4.09672e-08
7.07098e-07
-4.10912e-08
6.94975e-07
1.1646e-06
3.293e-07
8.17698e-08
-2.90603e-07
-1.98004e-06
-3.26328e-07
3.52876e-07
1.01635e-06
-2.2866e-07
-1.1181e-07
-7.74056e-08
4.92656e-08
1.23052e-07
-6.30662e-07
-3.61648e-07
8.49993e-07
-7.07693e-07
-6.27186e-08
1.11132e-07
-6.0922e-07
7.8933e-07
6.29912e-08
7.89223e-07
2.09555e-07
1.40516e-06
-8.25512e-08
1.16431e-06
6.9748e-07
3.26699e-07
8.36032e-08
-2.93564e-07
-1.97853e-06
-3.25769e-07
3.55138e-07
1.01724e-06
-2.29834e-07
-1.12231e-07
4.92847e-08
-7.97937e-08
1.21623e-07
3.50928e-08
-6.30791e-07
-3.61153e-07
8.50078e-07
-7.06987e-07
-6.30192e-08
6.36636e-08
7.8878e-07
1.11509e-07
-6.08884e-07
7.89293e-07
2.11341e-07
1.40488e-06
-8.43084e-08
-3.52981e-07
-3.30991e-07
-8.49257e-07
1.40484e-06
-1.16464e-06
3.60422e-07
6.43771e-08
3.28125e-07
-6.95008e-07
7.89099e-07
-6.09933e-07
1.09863e-07
7.01922e-07
-2.81857e-07
6.20155e-07
-2.28346e-07
1.01654e-06
-1.9805e-06
8.07095e-08
-3.28311e-07
-8.49187e-07
-3.55529e-07
1.40459e-06
-1.16415e-06
3.59387e-07
6.53223e-08
-6.97233e-07
3.27623e-07
-6.09507e-07
7.88944e-07
1.10158e-07
-2.80961e-07
7.03868e-07
-4.15532e-07
6.19371e-07
-1.97864e-06
8.2551e-08
1.01746e-06
-2.29993e-07
-5.52523e-07
-5.51965e-07
4.17177e-07
-1.95732e-07
-4.71233e-07
-4.07276e-08
-1.95722e-07
-4.70598e-07
-4.06667e-08
-1.03759e-07
5.77336e-08
-2.55636e-07
-1.25762e-07
-3.34037e-07
3.8042e-07
-4.70758e-08
7.90419e-08
-7.83494e-08
4.39067e-07
3.80641e-07
-1.57599e-07
-8.80389e-07
1.18043e-07
1.47246e-09
3.89468e-07
3.86576e-10
9.62418e-08
1.75857e-07
-4.37868e-07
-1.25043e-07
-1.71988e-11
7.72115e-07
2.74962e-08
7.90046e-08
3.3161e-07
-1.18752e-07
7.24058e-07
-9.57479e-08
2.70283e-10
-2.28158e-07
2.02913e-07
5.2795e-08
-2.75504e-08
4.82736e-07
9.64032e-08
-1.24638e-06
-5.139e-07
-3.35203e-07
-3.31158e-07
4.25341e-07
-1.47687e-07
1.47545e-07
1.57625e-07
-5.64492e-07
-7.92825e-08
-5.30081e-08
-2.02668e-07
3.34504e-07
2.28509e-07
5.13803e-07
-5.65327e-07
1.47565e-07
-9.02993e-07
1.28147e-06
5.33364e-08
4.24469e-07
-4.38493e-07
-1.73703e-09
3.34329e-07
-1.0019e-07
4.87229e-07
-5.83655e-11
-8.96037e-07
-3.79916e-07
-3.81214e-07
7.24384e-07
-1.18843e-07
-3.89621e-07
4.74053e-08
-8.99878e-11
-9.61725e-08
-8.79725e-07
1.22854e-10
-7.87614e-08
-3.33252e-07
-4.74493e-08
3.80377e-07
7.91885e-08
-7.88637e-08
2.15979e-09
3.89251e-07
9.62603e-08
4.38159e-07
3.82145e-07
-1.57814e-07
-8.8002e-07
1.17114e-07
-4.37937e-07
1.75863e-07
-1.24653e-07
7.72103e-07
2.79612e-08
7.9105e-08
-9.58663e-08
3.31665e-07
-1.17461e-07
7.2418e-07
-2.27204e-07
2.01303e-07
5.35924e-08
-2.76911e-08
4.82854e-07
9.74962e-08
2.5755e-07
-1.24546e-06
-5.14906e-07
-3.34291e-07
-3.3144e-07
4.25433e-07
-1.46842e-07
1.46464e-07
1.57748e-07
-5.63468e-07
-7.89962e-08
-5.3992e-08
-2.01474e-07
3.34254e-07
2.27377e-07
5.15178e-07
-5.64075e-07
1.46407e-07
-9.0227e-07
1.24792e-07
1.28173e-06
5.38642e-08
4.25288e-07
-1.81896e-09
-4.3767e-07
3.32935e-07
4.86683e-07
-1.00258e-07
-8.95582e-07
-3.89119e-07
4.71959e-08
-9.65457e-08
-3.81437e-07
-3.80693e-07
7.24403e-07
-1.17867e-07
-8.7908e-07
-7.95602e-08
-3.33306e-07
3.79979e-07
-4.53647e-08
7.80022e-08
-7.93107e-08
4.38475e-07
3.80834e-07
-1.5715e-07
-8.79424e-07
1.1821e-07
-1.92663e-10
3.87939e-07
2.18583e-09
9.67333e-08
1.77088e-07
-4.37819e-07
-1.24359e-07
-1.34378e-09
7.72131e-07
2.60819e-08
7.88938e-08
3.3255e-07
-1.18453e-07
7.23805e-07
-9.74176e-08
2.17217e-09
-2.29117e-07
2.02278e-07
5.31781e-08
-2.63392e-08
4.83527e-07
9.74015e-08
-1.24472e-06
-5.13658e-07
-3.33863e-07
-3.32321e-07
4.24982e-07
-1.4796e-07
1.47795e-07
1.57191e-07
-5.64234e-07
-7.8262e-08
-5.33214e-08
-2.02469e-07
3.3365e-07
2.29702e-07
5.13626e-07
-5.64587e-07
1.47815e-07
-9.02692e-07
1.28146e-06
5.33144e-08
4.24929e-07
-4.38422e-07
-1.23759e-10
3.32896e-07
-9.91372e-08
4.86672e-07
-1.70403e-09
-8.95603e-07
-3.80453e-07
-3.79749e-07
7.23406e-07
-1.18704e-07
-3.87211e-07
4.5709e-08
1.78698e-09
-9.76111e-08
-8.79275e-07
1.91899e-09
-7.94056e-08
-3.33177e-07
-4.93061e-08
3.81283e-07
8.0799e-08
-7.95989e-08
4.07615e-09
3.87746e-07
9.65189e-08
4.36813e-07
3.80892e-07
-1.59791e-07
-8.78904e-07
1.18371e-07
-4.38139e-07
1.7479e-07
-1.24095e-07
7.71944e-07
2.89703e-08
7.87414e-08
-9.75271e-08
3.30876e-07
-1.18128e-07
7.24218e-07
-2.26196e-07
2.01332e-07
5.35976e-08
-2.87334e-08
4.83547e-07
2.56e-07
-1.24425e-06
9.82772e-08
-5.13655e-07
-3.35598e-07
-3.31444e-07
4.25043e-07
-1.47677e-07
1.47682e-07
1.59501e-07
-5.63484e-07
-8.03673e-08
-5.38995e-08
-2.02188e-07
3.36584e-07
2.26229e-07
5.13532e-07
-5.63802e-07
-4.83556e-07
1.47807e-07
5.30148e-08
4.25616e-07
9.03055e-07
-3.73133e-09
-4.36664e-07
3.32063e-07
4.85934e-07
-1.02289e-07
-8.95224e-07
-3.86593e-07
4.87681e-08
-9.7914e-08
-3.81022e-07
-3.80584e-07
7.23566e-07
-1.182e-07
-8.78599e-07
-8.0122e-08
5.7893e-08
-3.27159e-08
4.14288e-07
4.72155e-07
4.71771e-07
-2.10279e-07
-2.1256e-07
-1.02043e-07
-4.19045e-07
7.07429e-07
-4.18187e-08
-1.93454e-07
7.06806e-07
-4.14415e-08
-1.93594e-07
6.95522e-07
1.16442e-06
3.287e-07
8.19743e-08
-2.91287e-07
-1.97933e-06
-3.26276e-07
3.52598e-07
1.01688e-06
-2.28548e-07
-1.12018e-07
-7.70753e-08
4.95957e-08
1.22089e-07
-6.30454e-07
-3.60758e-07
8.50005e-07
-7.07406e-07
-6.30761e-08
1.11075e-07
-6.08294e-07
7.8939e-07
6.36732e-08
7.89587e-07
2.09248e-07
1.4052e-06
-8.31433e-08
1.16365e-06
6.97754e-07
3.294e-07
8.16141e-08
-2.94361e-07
-1.97805e-06
-3.27652e-07
3.5509e-07
1.0183e-06
-2.29795e-07
-1.11263e-07
4.97311e-08
-7.89417e-08
1.22337e-07
3.4586e-08
-6.30576e-07
-3.59655e-07
8.49729e-07
-7.06859e-07
-6.3901e-08
6.44501e-08
7.89274e-07
1.0986e-07
-6.07624e-07
7.88925e-07
2.11643e-07
1.40527e-06
-8.26933e-08
-3.52926e-07
-8.49316e-07
1.40411e-06
-3.30171e-07
3.27872e-07
7.89749e-07
-6.10261e-07
1.10021e-07
-6.95202e-07
7.01196e-07
-2.81171e-07
6.19969e-07
-2.27596e-07
1.01481e-06
-3.59387e-07
-8.48616e-07
-3.55293e-07
1.40424e-06
-3.31281e-07
-2.80658e-07
7.02938e-07
-4.1567e-07
-5.03586e-07
6.19312e-07
-3.5802e-07
1.01592e-06
-3.29505e-07
-2.28913e-07
-5.5308e-07
-5.52839e-07
4.18227e-07
-1.94689e-07
-4.7165e-07
-4.10668e-08
-1.94993e-07
-4.70853e-07
-4.10122e-08
-1.03387e-07
5.74988e-08
-2.56108e-07
-2.31996e-07
-1.26174e-07
-2.28858e-07
2.01838e-07
-2.65425e-08
5.35629e-08
4.8316e-07
-1.24473e-06
9.76e-08
-5.13572e-07
-3.33687e-07
-3.32588e-07
4.24544e-07
-1.4784e-07
1.57721e-07
-5.64404e-07
1.47412e-07
-7.85512e-08
-5.32981e-08
-4.38183e-07
-3.87475e-10
3.32443e-07
7.95855e-08
-9.98499e-08
4.86767e-07
-7.35126e-10
-8.95641e-07
1.24201e-07
-3.80748e-07
-3.79519e-07
7.2326e-07
-1.18502e-07
-3.87486e-07
4.62941e-08
1.17719e-09
-9.71024e-08
-8.78919e-07
1.17857e-07
1.52858e-09
9.73639e-08
-7.93345e-08
-2.26596e-07
2.01468e-07
-2.8515e-08
5.36433e-08
4.83145e-07
2.57546e-07
-1.24557e-06
9.82218e-08
-5.14546e-07
-3.35042e-07
-3.30759e-07
4.25157e-07
-1.47371e-07
1.58791e-07
-5.63856e-07
1.47068e-07
-7.96893e-08
-5.38858e-08
-4.37233e-07
-3.27513e-09
3.32144e-07
7.98481e-08
-1.0133e-07
4.86338e-07
-8.95418e-07
1.24083e-07
-3.81909e-07
-3.80615e-07
7.2436e-07
-1.17936e-07
-3.87188e-07
4.81045e-08
-9.74111e-08
-8.79216e-07
1.17535e-07
9.74022e-08
-8.00552e-08
6.99126e-07
1.16387e-06
3.30498e-07
-2.95657e-07
-1.97926e-06
8.1422e-08
-3.29226e-07
3.54611e-07
1.01574e-06
-2.28176e-07
-1.10198e-07
-7.91751e-08
4.8885e-08
3.40136e-08
-6.29123e-07
1.23336e-07
-3.5877e-07
8.48809e-07
-7.06209e-07
-6.43578e-08
-6.09714e-07
7.90806e-07
1.09635e-07
7.88955e-07
6.50317e-08
2.11567e-07
1.40429e-06
-8.19396e-08
6.95173e-07
1.16397e-06
3.30143e-07
-2.9125e-07
-1.97954e-06
8.15048e-08
-3.27554e-07
3.52148e-07
1.01554e-06
-2.27233e-07
-1.11178e-07
-7.82036e-08
4.98902e-08
3.25923e-08
-6.29651e-07
1.22665e-07
-3.59258e-07
8.49001e-07
-7.06496e-07
-6.39464e-08
-6.11218e-07
7.89918e-07
1.10717e-07
7.90049e-07
6.45563e-08
2.09568e-07
1.40383e-06
-8.21028e-08
-5.53234e-07
-5.5435e-07
4.17572e-07
1.03105e-07
-1.93329e-07
-4.70908e-07
-4.1972e-08
-1.93344e-07
-4.71185e-07
-4.19674e-08
4.23916e-08
4.23551e-08
-1.03382e-07
5.83675e-08
5.8375e-08
-5.77229e-08
4.18543e-07
-1.27635e-07
-3.39706e-08
-2.56517e-07
-5.74445e-08
4.17431e-07
-1.26427e-07
-3.27806e-08
-2.57776e-07
-5.5258e-07
-5.53418e-07
4.15754e-07
1.04579e-07
2.94964e-07
2.907e-07
-1.95595e-07
-4.69431e-07
7.06106e-07
-4.10796e-08
-1.95565e-07
-4.69718e-07
7.06383e-07
-4.11006e-08
4.08927e-08
-7.89067e-07
4.08879e-08
-7.8987e-07
-2.10607e-07
-2.08563e-07
-1.04223e-07
-3.26295e-07
-8.5066e-07
-3.54762e-07
2.10407e-07
-8.43634e-08
1.40567e-06
-6.98878e-07
3.24543e-07
-6.08443e-07
7.90867e-07
-1.16456e-06
3.61356e-07
7.88991e-07
-2.8035e-07
7.0489e-07
-1.22751e-07
6.2e-07
-2.94899e-07
-1.97891e-06
-7.06314e-07
-6.33414e-08
-1.12452e-07
1.01664e-06
-2.29517e-07
-3.26589e-07
-8.50692e-07
-3.52355e-07
2.08466e-07
-8.40515e-08
1.40522e-06
-6.94841e-07
3.23305e-07
-6.09636e-07
7.89737e-07
-1.16448e-06
3.62163e-07
7.89765e-07
-2.80778e-07
7.03714e-07
-1.23721e-07
6.19836e-07
-2.90599e-07
-1.97909e-06
-7.0662e-07
-6.26861e-08
-1.13106e-07
1.01638e-06
-2.2861e-07
-4.15963e-07
4.69539e-07
4.69877e-07
5.52461e-07
1.95882e-07
5.53265e-07
1.95855e-07
1.16457e-06
3.26642e-07
6.98869e-07
-1.97948e-06
-3.61097e-07
8.50372e-07
-6.34228e-08
4.89312e-08
-7.92931e-08
-6.29726e-07
3.5479e-07
-3.25472e-07
-1.11599e-07
1.01558e-06
-2.29155e-07
-8.35584e-08
1.40475e-06
-6.08915e-07
7.90566e-07
1.16452e-06
3.26958e-07
6.94909e-07
-1.97973e-06
-3.6189e-07
8.50324e-07
-6.28298e-08
4.99295e-08
-7.82886e-08
-6.29806e-07
3.52231e-07
-3.24102e-07
-1.12338e-07
1.01521e-06
-2.28108e-07
-8.32381e-08
1.40419e-06
-6.10271e-07
7.89683e-07
5.88504e-08
-3.19789e-08
-2.57091e-07
4.18673e-07
-1.28099e-07
5.8735e-08
-3.08377e-08
-2.58269e-07
4.17406e-07
-1.2671e-07
-4.16537e-07
4.69345e-07
4.69687e-07
-2.1064e-07
-2.0842e-07
-1.03435e-07
5.5354e-07
1.94589e-07
-7.89209e-07
5.5445e-07
1.94488e-07
-7.9004e-07
2.95728e-07
2.91502e-07
7.05913e-07
-4.19778e-08
7.06212e-07
-4.20367e-08
1.16298e-06
6.9958e-07
3.30924e-07
8.20371e-08
-2.96366e-07
-1.97915e-06
-3.30609e-07
3.54935e-07
1.01527e-06
-1.07927e-07
-2.28401e-07
4.88077e-08
-7.84505e-08
1.21459e-07
-6.29058e-07
-3.57776e-07
8.49641e-07
-7.05636e-07
-6.57237e-08
6.45215e-08
7.89485e-07
1.09935e-07
-6.10053e-07
7.90638e-07
2.11221e-07
1.40459e-06
-8.03109e-08
1.1631e-06
6.95817e-07
3.31283e-07
8.1723e-08
-2.9228e-07
-1.97964e-06
-3.29306e-07
3.51911e-07
1.01492e-06
-1.08762e-07
-2.26915e-07
4.98197e-08
-7.76933e-08
1.22531e-07
-6.2898e-07
-3.58546e-07
8.49399e-07
-7.05878e-07
-6.50326e-08
6.39938e-08
7.90379e-07
1.10704e-07
-6.11944e-07
7.90058e-07
2.08876e-07
1.40368e-06
-7.99591e-08
-3.2856e-07
-8.50305e-07
-3.54671e-07
1.40493e-06
-1.16376e-06
3.59921e-07
-6.99243e-07
3.27909e-07
-6.09824e-07
7.90721e-07
-2.8005e-07
7.03979e-07
6.20508e-07
-1.97939e-06
1.01567e-06
-2.28517e-07
-3.28873e-07
-8.50138e-07
-3.51849e-07
1.40416e-06
-1.16374e-06
3.60605e-07
-6.95355e-07
3.26527e-07
-6.11352e-07
7.89889e-07
-2.80673e-07
7.02658e-07
6.20501e-07
-1.97971e-06
1.01534e-06
-2.273e-07
-5.54493e-07
-5.55392e-07
4.17805e-07
-1.93014e-07
-4.69968e-07
-4.26545e-08
-1.9295e-07
-4.70282e-07
-4.26451e-08
-1.02349e-07
-2.13292e-06
-2.13535e-06
2.33761e-07
7.54192e-08
1.72872e-06
1.73445e-06
4.14463e-07
-1.37538e-07
-1.56011e-06
-1.45687e-07
-1.36098e-07
-1.5621e-06
-1.48184e-07
1.40368e-07
1.41697e-07
-7.7628e-08
-2.13356e-06
-2.13299e-06
2.3077e-07
7.72121e-08
1.73198e-06
1.72735e-06
4.17658e-07
-1.35056e-07
-1.56003e-06
-1.44601e-07
-1.33772e-07
-1.55857e-06
-1.4516e-07
1.4323e-07
1.44087e-07
-7.77817e-08
-2.13317e-06
-2.13276e-06
2.31816e-07
7.67252e-08
1.73112e-06
1.72611e-06
4.20342e-07
-1.35572e-07
-1.56074e-06
-1.42915e-07
-1.34045e-07
-1.55864e-06
-1.44415e-07
1.43715e-07
1.44422e-07
-7.70951e-08
-2.13326e-06
-2.13526e-06
2.34667e-07
7.50444e-08
1.72851e-06
1.73464e-06
4.12296e-07
-1.37869e-07
-1.5581e-06
-1.41209e-07
-1.37471e-07
-1.56048e-06
-1.41948e-07
1.40733e-07
1.41433e-07
-7.57923e-08
-2.2958e-07
1.55817e-06
1.56011e-06
-7.78004e-08
2.13158e-06
1.32552e-07
-1.29221e-06
2.13363e-06
1.30991e-07
-1.29033e-06
-1.89489e-06
-1.89973e-06
-4.19625e-07
2.0474e-06
2.04668e-06
-1.45018e-07
9.57487e-07
-1.47676e-07
9.55422e-07
-2.13437e-06
-2.13653e-06
2.37473e-07
7.46319e-08
1.73045e-06
1.73625e-06
4.15057e-07
-1.88309e-06
-1.88383e-06
-1.40771e-07
-1.55754e-06
9.56432e-07
-1.3886e-07
-1.38074e-07
-1.56068e-06
9.54631e-07
-1.40783e-07
1.4064e-07
-1.29539e-06
1.42725e-07
-1.29302e-06
-7.24823e-08
-2.9017e-07
-2.91069e-07
-1.25759e-06
-5.69412e-07
2.49236e-09
6.41296e-11
5.68977e-07
-5.60278e-07
1.25415e-09
-4.10889e-09
5.66306e-07
1.70049e-09
-7.29186e-10
-5.64991e-07
7.99328e-10
3.92247e-09
-5.57823e-07
5.10527e-07
-8.04875e-10
1.17361e-09
-5.08397e-07
-1.62899e-10
1.69759e-09
5.12739e-07
-2.90138e-07
-2.89221e-07
-1.26113e-06
-5.65466e-07
1.49749e-09
5.67039e-07
-5.6457e-07
2.24256e-09
3.33592e-09
5.65423e-07
2.67738e-09
-5.61364e-07
2.57678e-09
4.16487e-09
-5.62448e-07
5.09441e-07
2.68235e-09
-5.07676e-07
1.22407e-09
5.11795e-07
-5.6548e-07
3.18263e-10
5.67445e-07
-1.72955e-10
6.44823e-09
5.65654e-07
-5.65567e-07
9.70566e-10
-5.61515e-07
2.96063e-07
5.11293e-07
9.15728e-10
-5.08409e-07
-1.65634e-09
3.22267e-10
5.12814e-07
-5.6413e-07
3.87717e-10
5.64414e-07
1.26821e-10
5.6521e-07
-5.61167e-07
-8.46551e-10
-5.60864e-07
2.93954e-07
5.09457e-07
-5.07865e-07
1.1598e-09
5.1152e-07
-2.34416e-07
1.55879e-06
1.56034e-06
-1.89634e-06
-1.9013e-06
2.13236e-06
1.38743e-07
1.39885e-07
2.13563e-06
1.37348e-07
1.41092e-07
7.48563e-08
-1.10725e-07
-1.36379e-06
-4.68792e-08
1.11694e-07
-2.28364e-07
-1.57281e-06
2.72218e-07
4.97146e-07
1.31964e-07
-9.31556e-08
1.28392e-07
3.69176e-10
1.87611e-07
-1.38579e-07
1.32232e-06
-1.31194e-07
1.64731e-10
-2.38957e-07
2.26895e-07
-3.73223e-07
-1.3295e-07
-1.88986e-07
1.25072e-10
-4.675e-07
1.55024e-06
1.4422e-07
2.15335e-07
2.38191e-07
-3.00531e-07
-7.91585e-08
-1.12288e-07
-1.20833e-06
-1.06614e-06
6.78439e-08
-2.9565e-07
1.40735e-06
3.7334e-07
-1.22474e-07
1.1217e-07
1.21894e-07
-4.97489e-07
-1.1161e-07
-2.16098e-07
7.91334e-08
-1.44802e-07
-1.40751e-06
-1.55093e-06
2.96747e-07
1.21063e-07
3.01004e-07
4.67966e-07
1.11164e-07
1.36418e-06
9.36905e-07
2.13889e-07
1.57208e-06
9.27448e-08
1.10148e-07
2.08671e-07
-1.51575e-06
5.78054e-10
-2.71052e-07
1.36297e-06
-1.33276e-07
-1.27673e-07
4.67732e-08
4.76714e-10
-1.89995e-07
3.25604e-10
-2.28836e-07
-1.09797e-07
-1.36436e-06
-4.68223e-08
1.11761e-07
-2.29731e-07
-1.57259e-06
2.71411e-07
4.98131e-07
1.32473e-07
-9.20887e-08
1.29191e-07
1.86083e-07
-1.38139e-07
1.32269e-06
-1.31014e-07
-2.38197e-07
2.28377e-07
-3.72863e-07
-1.33479e-07
-1.87982e-07
1.54975e-06
-4.67545e-07
1.43546e-07
2.16869e-07
2.38316e-07
-2.99576e-07
-7.97438e-08
-1.13051e-07
-1.06667e-06
-1.20851e-06
6.8174e-08
-2.94725e-07
1.40774e-06
3.72792e-07
-1.2301e-07
1.22646e-07
-4.98221e-07
1.12531e-07
-1.1214e-07
-2.17229e-07
-1.43848e-07
-1.40825e-06
7.91667e-08
-1.55037e-06
2.95924e-07
1.21317e-07
4.66967e-07
3.00823e-07
1.11098e-07
9.37049e-07
1.36537e-06
2.15213e-07
1.57211e-06
9.20248e-08
1.09656e-07
2.09687e-07
-1.51579e-06
-2.70574e-07
1.36359e-06
-1.33567e-07
-1.28477e-07
4.70622e-08
-1.88514e-07
-2.29728e-07
1.56041e-06
-2.32504e-07
1.55873e-06
-1.90044e-06
-1.89706e-06
1.36394e-07
2.13375e-06
1.4135e-07
2.13376e-06
1.35129e-07
1.41671e-07
7.5857e-08
-1.12759e-07
-1.36521e-06
-4.65323e-08
1.10765e-07
-2.25322e-07
-1.57368e-06
2.73987e-07
4.96849e-07
1.30947e-07
-9.31807e-08
1.29967e-07
-2.25754e-11
1.8501e-07
-1.38424e-07
1.32345e-06
-1.2986e-07
-3.43094e-10
-2.39359e-07
2.23771e-07
-3.73541e-07
-1.32049e-07
-1.86432e-07
-2.21073e-10
-4.67482e-07
1.55019e-06
1.42392e-07
2.17689e-07
2.38737e-07
-2.98235e-07
-7.91378e-08
-1.1415e-07
-1.20965e-06
-1.06605e-06
6.73499e-08
-2.9462e-07
1.40688e-06
3.73399e-07
-1.2335e-07
1.132e-07
1.22259e-07
-4.97233e-07
-1.10814e-07
-2.19646e-07
7.90908e-08
-1.4415e-07
-1.40669e-06
-1.55202e-06
2.96823e-07
1.20935e-07
3.0063e-07
4.67144e-07
1.10885e-07
1.36407e-06
9.36675e-07
2.14148e-07
1.5729e-06
9.30975e-08
1.1203e-07
2.08616e-07
-1.51635e-06
3.50401e-10
-2.72514e-07
1.36432e-06
-1.32514e-07
-1.2938e-07
4.64249e-08
3.87099e-10
-1.87211e-07
3.22412e-10
-2.25828e-07
-1.10959e-07
-4.63634e-08
-1.3641e-06
1.1131e-07
-2.28022e-07
-9.28966e-08
1.29925e-07
1.85284e-07
-1.57365e-06
2.73463e-07