/*--------------------------------*- C++ -*----------------------------------*\
| =========                 |                                                 |
| \\      /  F ield         | OpenFOAM: The Open Source CFD Toolbox           |
|  \\    /   O peration     | Version:  2206                                  |
|   \\  /    A nd           | Website:  www.openfoam.com                      |
|    \\/     M anipulation  |                                                 |
\*---------------------------------------------------------------------------*/
FoamFile
{
    version     2.0;
    format      ascii;
    arch        "LSB;label=32;scalar=64";
    class       volVectorField;
    location    "23.5";
    object      U;
}
// * * * * * * * * * * * * * * * * * * * * * * * * * * * * * * * * * * * * * //

dimensions      [0 1 -1 0 0 0 0];

internalField   nonuniform List<vector> 
28688
(
(0.000108183 0.000108117 0.100299)
(-0.000190232 0.000119215 0.100385)
(0.000119287 -0.000190224 0.100385)
(-0.000239247 -0.000239267 0.100397)
(9.49964e-05 9.49457e-05 0.100859)
(-0.000160545 9.80523e-05 0.100941)
(9.80616e-05 -0.000160544 0.100941)
(-0.000200428 -0.000200478 0.100968)
(9.58342e-05 9.58213e-05 0.101369)
(-0.000157782 9.4313e-05 0.101449)
(9.43018e-05 -0.000157789 0.101449)
(-0.000199419 -0.000199468 0.101472)
(9.00633e-05 9.00496e-05 0.101886)
(-0.000147169 8.66081e-05 0.101957)
(8.66199e-05 -0.000147176 0.101957)
(-0.000190809 -0.000190854 0.101965)
(7.47821e-05 7.47613e-05 0.102376)
(-0.000115671 6.48408e-05 0.102433)
(6.48379e-05 -0.000115673 0.102433)
(-0.000162416 -0.00016245 0.102422)
(3.17065e-05 3.16859e-05 0.102623)
(-4.23851e-05 2.72784e-05 0.102623)
(2.72842e-05 -4.23791e-05 0.102623)
(-8.04362e-05 -8.04446e-05 0.102588)
(5.51021e-06 5.50363e-06 0.102684)
(-7.78356e-06 5.98356e-06 0.102647)
(5.98958e-06 -7.78716e-06 0.102647)
(-4.86078e-05 -4.86265e-05 0.102587)
(-1.23858e-07 -1.20177e-07 0.10269)
(-9.66095e-07 1.05628e-06 0.102646)
(1.05472e-06 -9.69639e-07 0.102646)
(-4.28809e-05 -4.2897e-05 0.102582)
(-6.32412e-07 -6.28241e-07 0.10269)
(-4.5223e-07 6.86259e-07 0.102646)
(6.84452e-07 -4.55311e-07 0.102646)
(-4.25523e-05 -4.2569e-05 0.102582)
(-6.55527e-07 -6.49985e-07 0.10269)
(-4.39774e-07 6.74773e-07 0.102646)
(6.72031e-07 -4.42562e-07 0.102646)
(-4.25433e-05 -4.25599e-05 0.102582)
(-6.54111e-07 -6.46728e-07 0.10269)
(-4.39352e-07 6.74645e-07 0.102646)
(6.72084e-07 -4.4287e-07 0.102646)
(-4.25425e-05 -4.25593e-05 0.102582)
(-6.58454e-07 -6.54584e-07 0.10269)
(-4.41541e-07 6.72313e-07 0.102646)
(6.71263e-07 -4.42995e-07 0.102646)
(-4.25391e-05 -4.25562e-05 0.102582)
(0.00013522 0.00013521 0.100282)
(0.000124266 0.000152862 0.100229)
(-0.000124258 0.000152843 0.100229)
(-0.000135216 0.000135178 0.100282)
(0.000152892 0.000124218 0.100229)
(0.000152863 -0.000124235 0.100229)
(9.07182e-05 9.06658e-05 0.100151)
(-9.07085e-05 9.06637e-05 0.100151)
(9.0692e-05 -9.07124e-05 0.100151)
(-9.06896e-05 -9.07104e-05 0.100151)
(-0.000152887 0.000124215 0.100229)
(-0.000152872 -0.00012423 0.100229)
(0.000135209 -0.000135229 0.100282)
(0.000124218 -0.000152893 0.100229)
(-0.000124214 -0.000152875 0.100229)
(-0.000135218 -0.000135202 0.100282)
(0.000239291 0.00023927 0.100397)
(0.000112009 0.00011188 0.100893)
(0.000119338 0.000190126 0.100385)
(-0.000119289 0.000190167 0.100385)
(8.90563e-05 0.000147603 0.100824)
(-8.90182e-05 0.000147601 0.100824)
(-0.000239302 0.000239219 0.100397)
(-0.000111968 0.000111848 0.100893)
(0.000190268 0.000119235 0.100385)
(0.000190207 -0.000119296 0.100385)
(0.000147578 8.90235e-05 0.100824)
(0.00014761 -8.90436e-05 0.100824)
(-0.000190189 -0.000119299 0.100385)
(-0.000147548 8.90247e-05 0.100824)
(-0.000147568 -8.90378e-05 0.100824)
(0.000239221 -0.000239312 0.100397)
(0.000111959 -0.000111973 0.100893)
(-0.000119267 -0.000190254 0.100385)
(8.90281e-05 -0.00014754 0.100824)
(-8.90071e-05 -0.000147567 0.100824)
(-0.000111956 -0.000111975 0.100893)
(0.000200515 0.000200348 0.100968)
(0.000106428 0.00010635 0.101396)
(9.80656e-05 0.000160598 0.100941)
(-9.80405e-05 0.000160595 0.100941)
(9.1924e-05 0.000153641 0.101321)
(-9.19233e-05 0.00015364 0.101321)
(-0.000200478 0.000200315 0.100968)
(-0.000106419 0.000106339 0.101396)
(0.00016058 9.8046e-05 0.100941)
(0.000160594 -9.80569e-05 0.100941)
(0.000153591 9.19283e-05 0.101321)
(0.000153633 -9.19305e-05 0.101321)
(-0.000160572 -9.80504e-05 0.100941)
(-0.000153588 9.19338e-05 0.101321)
(-0.000153613 -9.19203e-05 0.101321)
(0.000200426 -0.000200486 0.100968)
(0.000106395 -0.000106406 0.101396)
(-9.80437e-05 -0.000160569 0.100941)
(9.19256e-05 -0.000153593 0.101321)
(-9.19307e-05 -0.000153611 0.101321)
(-0.000106408 -0.000106414 0.101396)
(0.000199483 0.000199359 0.101472)
(9.77213e-05 9.76585e-05 0.101894)
(9.4297e-05 0.000157841 0.101449)
(-9.43029e-05 0.00015784 0.101449)
(8.72933e-05 0.000148041 0.101833)
(-8.72824e-05 0.000148026 0.101833)
(-0.000199475 0.00019934 0.101472)
(-9.77043e-05 9.76521e-05 0.101894)
(0.000157791 9.43105e-05 0.101449)
(0.000157831 -9.4307e-05 0.101449)
(0.000147985 8.72976e-05 0.101833)
(0.000148016 -8.72812e-05 0.101833)
(-0.000157813 -9.42988e-05 0.101449)
(-0.000147982 8.72886e-05 0.101833)
(-0.000148017 -8.72846e-05 0.101833)
(0.000199402 -0.000199475 0.101472)
(9.76722e-05 -9.77103e-05 0.101894)
(-9.43119e-05 -0.000157814 0.101449)
(8.72992e-05 -0.000147986 0.101833)
(-8.7287e-05 -0.000147995 0.101833)
(-9.77322e-05 -9.77364e-05 0.101894)
(0.000190841 0.000190736 0.101965)
(8.18718e-05 8.18408e-05 0.102367)
(8.66241e-05 0.000147229 0.101957)
(-8.66164e-05 0.000147218 0.101957)
(7.80424e-05 0.000136148 0.102327)
(-7.80258e-05 0.000136128 0.102327)
(-0.00019083 0.000190721 0.101965)
(-8.18665e-05 8.1826e-05 0.102367)
(0.00014718 8.66198e-05 0.101957)
(0.000147206 -8.66148e-05 0.101957)
(0.000136067 7.80661e-05 0.102327)
(0.000136102 -7.80194e-05 0.102328)
(-0.000147209 -8.66126e-05 0.101957)
(-0.000136074 7.8056e-05 0.102327)
(-0.000136116 -7.80275e-05 0.102327)
(0.000190745 -0.000190849 0.101965)
(8.18251e-05 -8.18748e-05 0.102367)
(-8.66072e-05 -0.000147181 0.101957)
(7.80719e-05 -0.000136077 0.102327)
(-7.80463e-05 -0.000136072 0.102327)
(-8.18955e-05 -8.18956e-05 0.102367)
(0.000162427 0.000162366 0.102422)
(-2.39465e-07 -2.20735e-07 0.102585)
(6.48679e-05 0.00011575 0.102433)
(-6.4878e-05 0.000115724 0.102433)
(3.45573e-05 5.67536e-05 0.102601)
(-3.45754e-05 5.67687e-05 0.102601)
(-0.000162448 0.000162349 0.102422)
(2.20436e-07 -2.33206e-07 0.102585)
(0.000115664 6.48525e-05 0.102433)
(0.000115705 -6.48732e-05 0.102433)
(5.67681e-05 3.45128e-05 0.102601)
(5.6782e-05 -3.45676e-05 0.102601)
(-0.000115713 -6.48206e-05 0.102433)
(-5.67762e-05 3.45205e-05 0.102601)
(-5.67699e-05 -3.45534e-05 0.102601)
(0.000162351 -0.000162467 0.102422)
(-1.91662e-07 2.54312e-07 0.102585)
(-6.48074e-05 -0.000115654 0.102433)
(3.4525e-05 -5.67617e-05 0.102601)
(-3.4522e-05 -5.67663e-05 0.102601)
(2.20999e-07 2.51882e-07 0.102585)
(8.04475e-05 8.04133e-05 0.102588)
(-3.63153e-05 -3.63052e-05 0.102591)
(2.73147e-05 4.23651e-05 0.102623)
(-2.73314e-05 4.23857e-05 0.102623)
(9.54213e-06 1.28451e-05 0.102645)
(-9.54458e-06 1.28634e-05 0.102645)
(-8.04678e-05 8.04052e-05 0.102588)
(3.63188e-05 -3.63017e-05 0.102591)
(4.239e-05 2.72696e-05 0.102623)
(4.23941e-05 -2.73199e-05 0.102623)
(1.28477e-05 9.51279e-06 0.102645)
(1.28621e-05 -9.54098e-06 0.102645)
(-4.23804e-05 -2.73077e-05 0.102623)
(-1.28416e-05 9.51011e-06 0.102645)
(-1.28584e-05 -9.5392e-06 0.102645)
(8.04402e-05 -8.04563e-05 0.102588)
(-3.62964e-05 3.63243e-05 0.102591)
(-2.72828e-05 -4.238e-05 0.102623)
(9.51657e-06 -1.28405e-05 0.102645)
(-9.51659e-06 -1.28437e-05 0.102645)
(3.62992e-05 3.63149e-05 0.102591)
(4.86204e-05 4.85919e-05 0.102587)
(-4.39058e-05 -4.38758e-05 0.102585)
(6.01825e-06 7.79601e-06 0.102647)
(-6.01383e-06 7.8114e-06 0.102647)
(1.50132e-06 1.56623e-06 0.102646)
(-1.49534e-06 1.57394e-06 0.102646)
(-4.86138e-05 4.85831e-05 0.102587)
(4.39106e-05 -4.38819e-05 0.102585)
(7.79415e-06 5.99162e-06 0.102647)
(7.80526e-06 -6.01321e-06 0.102647)
(1.54876e-06 1.47969e-06 0.102646)
(1.5639e-06 -1.49268e-06 0.102646)
(-7.80611e-06 -6.01103e-06 0.102647)
(-1.54457e-06 1.47331e-06 0.102647)
(-1.56729e-06 -1.49173e-06 0.102646)
(4.85935e-05 -4.86332e-05 0.102587)
(-4.38816e-05 4.39158e-05 0.102585)
(-5.98956e-06 -7.78637e-06 0.102647)
(1.4706e-06 -1.54559e-06 0.102646)
(-1.47176e-06 -1.54481e-06 0.102646)
(4.38835e-05 4.39023e-05 0.102585)
(4.28862e-05 4.28728e-05 0.102582)
(-4.44028e-05 -4.43783e-05 0.102585)
(1.08029e-06 9.86241e-07 0.102646)
(-1.07794e-06 9.94372e-07 0.102646)
(7.28295e-07 4.93573e-07 0.102646)
(-7.27803e-07 4.97379e-07 0.102646)
(-4.28832e-05 4.28616e-05 0.102582)
(4.44061e-05 -4.43792e-05 0.102585)
(9.72286e-07 1.0611e-06 0.102646)
(9.86283e-07 -1.07638e-06 0.102646)
(4.7485e-07 7.08581e-07 0.102646)
(4.94037e-07 -7.24277e-07 0.102646)
(-9.87618e-07 -1.07451e-06 0.102646)
(-4.7273e-07 7.05962e-07 0.102646)
(-4.93623e-07 -7.21968e-07 0.102646)
(4.28679e-05 -4.29004e-05 0.102582)
(-4.43767e-05 4.44121e-05 0.102585)
(-1.055e-06 -9.65705e-07 0.102646)
(7.02943e-07 -4.73321e-07 0.102646)
(-7.01721e-07 -4.71629e-07 0.102646)
(4.43817e-05 4.43997e-05 0.102585)
(4.2559e-05 4.25412e-05 0.102582)
(-4.44181e-05 -4.43926e-05 0.102585)
(7.08921e-07 4.73122e-07 0.102646)
(-7.08463e-07 4.80207e-07 0.102646)
(6.96749e-07 4.61881e-07 0.102646)
(-6.95531e-07 4.64151e-07 0.102646)
(-4.25575e-05 4.25351e-05 0.102582)
(4.44218e-05 -4.43905e-05 0.102585)
(4.57628e-07 6.90791e-07 0.102646)
(4.73767e-07 -7.05743e-07 0.102646)
(4.42178e-07 6.78243e-07 0.102646)
(4.61886e-07 -6.91348e-07 0.102646)
(-4.72193e-07 -7.02875e-07 0.102646)
(-4.39412e-07 6.75496e-07 0.102646)
(-4.60528e-07 -6.89652e-07 0.102646)
(4.25418e-05 -4.25734e-05 0.102582)
(-4.43908e-05 4.44281e-05 0.102585)
(-6.82848e-07 -4.50756e-07 0.102646)
(6.70967e-07 -4.39444e-07 0.102646)
(-6.69545e-07 -4.38539e-07 0.102646)
(4.43963e-05 4.44145e-05 0.102585)
(4.25504e-05 4.25336e-05 0.102582)
(-4.44143e-05 -4.43772e-05 0.102585)
(6.97536e-07 4.63702e-07 0.102646)
(-6.94607e-07 4.72205e-07 0.102646)
(7.04638e-07 4.73488e-07 0.102646)
(-6.94912e-07 4.64659e-07 0.102646)
(-4.25467e-05 4.25266e-05 0.102582)
(4.44265e-05 -4.43904e-05 0.102585)
(4.46303e-07 6.80427e-07 0.102646)
(4.62702e-07 -6.91999e-07 0.102646)
(4.42405e-07 6.85155e-07 0.102646)
(4.61864e-07 -6.89835e-07 0.102646)
(-4.60693e-07 -6.90077e-07 0.102646)
(-4.38658e-07 6.7567e-07 0.102646)
(-4.60193e-07 -6.88854e-07 0.102646)
(4.25334e-05 -4.25632e-05 0.102582)
(-4.43898e-05 4.44277e-05 0.102585)
(-6.70088e-07 -4.39058e-07 0.102646)
(6.70435e-07 -4.39024e-07 0.102646)
(-6.68424e-07 -4.381e-07 0.102646)
(4.43958e-05 4.44139e-05 0.102585)
(4.25526e-05 4.2548e-05 0.102582)
(-4.44137e-05 -4.43914e-05 0.102585)
(7.05344e-07 4.72471e-07 0.102646)
(-6.94063e-07 4.71749e-07 0.102646)
(6.9423e-07 4.58628e-07 0.102646)
(-6.96631e-07 4.61801e-07 0.102646)
(-4.25459e-05 4.25266e-05 0.102582)
(4.44216e-05 -4.43886e-05 0.102585)
(4.46125e-07 6.85872e-07 0.102646)
(4.63114e-07 -6.91563e-07 0.102646)
(4.40835e-07 6.74775e-07 0.102646)
(4.61053e-07 -6.90854e-07 0.102646)
(-4.60709e-07 -6.8976e-07 0.102646)
(-4.39639e-07 6.74124e-07 0.102646)
(-4.59704e-07 -6.88877e-07 0.102646)
(4.25331e-05 -4.25626e-05 0.102582)
(-4.43878e-05 4.44242e-05 0.102585)
(-6.69619e-07 -4.39058e-07 0.102646)
(6.69796e-07 -4.39073e-07 0.102646)
(-6.68041e-07 -4.37959e-07 0.102646)
(4.43934e-05 4.44112e-05 0.102585)
(4.25462e-05 4.25255e-05 0.102582)
(-4.44019e-05 -4.43794e-05 0.102585)
(6.95494e-07 4.6126e-07 0.102646)
(-6.95679e-07 4.67586e-07 0.102646)
(6.93181e-07 4.54491e-07 0.102646)
(-4.25421e-05 4.25192e-05 0.102582)
(4.45677e-07 6.77142e-07 0.102646)
(4.62123e-07 -6.92778e-07 0.102646)
(4.39564e-07 6.7397e-07 0.102646)
(4.60164e-07 -6.92757e-07 0.102646)
(-4.60567e-07 -6.90166e-07 0.102646)
(-4.60449e-07 -6.89964e-07 0.102646)
(4.25289e-05 -4.25599e-05 0.102582)
(-4.43753e-05 4.44103e-05 0.102585)
(-6.69222e-07 -4.39455e-07 0.102646)
(6.7042e-07 -4.38846e-07 0.102646)
(-6.68279e-07 -4.40234e-07 0.102646)
(4.43799e-05 4.43977e-05 0.102585)
(-3.35476e-07 -3.38052e-07 0.0999987)
(1.68433e-05 1.68378e-05 0.100003)
(-4.48513e-07 1.39353e-05 0.1)
(1.3943e-05 -4.50934e-07 0.1)
(-4.6765e-05 5.72284e-06 0.100008)
(-1.52984e-05 1.56108e-05 0.0999999)
(-0.000128023 6.04392e-05 0.100057)
(-1.31288e-05 -8.62833e-07 0.0999958)
(5.71668e-06 -4.67497e-05 0.100008)
(1.56137e-05 -1.5299e-05 0.0999999)
(-8.61001e-07 -1.31283e-05 0.0999958)
(6.04521e-05 -0.000127952 0.100057)
(-1.88081e-05 -1.88116e-05 0.100003)
(-0.000135085 -8.10443e-05 0.100054)
(-8.10526e-05 -0.000135064 0.100054)
(-3.50247e-05 0.00013751 0.100719)
(0.000177249 0.000386729 0.0994251)
(2.42798e-06 0.000304231 0.100521)
(-8.35111e-05 0.000245437 0.0991325)
(-0.000302976 0.000836548 0.0977862)
(-0.000130262 0.00030569 0.0957044)
(0.000137246 -3.51695e-05 0.100719)
(0.000387346 0.000176212 0.0994259)
(0.000304978 2.28998e-06 0.100521)
(0.00024556 -8.34133e-05 0.099133)
(-0.000108167 0.000108119 0.100299)
(0.000108154 -0.000108165 0.100299)
(-0.000108146 -0.000108174 0.100299)
(9.21799e-05 9.2109e-05 0.100739)
(-9.21358e-05 9.21261e-05 0.100739)
(9.21632e-05 -9.21796e-05 0.100739)
(-9.21419e-05 -9.21902e-05 0.100739)
(-0.00028158 6.38385e-06 0.100752)
(-0.000397029 0.000228982 0.100532)
(-0.000175255 3.74858e-05 0.100332)
(-0.000153595 9.47674e-05 0.100558)
(-0.000358261 1.56426e-05 0.10048)
(-0.000151098 0.000199185 0.100733)
(-0.000152854 3.32353e-05 0.100497)
(0.00083552 -0.000301106 0.0977848)
(0.00030568 -0.000129858 0.0957052)
(6.33529e-06 -0.000281494 0.100752)
(3.75217e-05 -0.000175241 0.100332)
(0.000229072 -0.000397006 0.100532)
(9.47236e-05 -0.000153583 0.100558)
(1.56403e-05 -0.000358137 0.10048)
(3.32852e-05 -0.000152829 0.100497)
(0.000199232 -0.000151096 0.100732)
(-0.00037142 -0.000140799 0.100373)
(-0.000140999 -0.000371668 0.100374)
(-0.000112404 -0.000112484 0.100655)
(8.99014e-06 -8.00183e-05 0.100577)
(-8.02784e-05 9.00732e-06 0.100577)
(-1.67798e-05 0.000200865 0.100859)
(-5.52373e-05 0.000285617 0.0983304)
(-2.03935e-05 0.000208088 0.100785)
(-4.36011e-05 0.000274933 0.0979308)
(-0.000148656 0.000310888 0.0926365)
(-0.00013932 0.000276086 0.0909832)
(0.00020079 -1.69397e-05 0.100859)
(0.000285867 -5.51211e-05 0.0983308)
(0.000208127 -2.05282e-05 0.100785)
(0.000275074 -4.35226e-05 0.097931)
(-9.49502e-05 9.49638e-05 0.100859)
(9.50038e-05 -9.50003e-05 0.100859)
(-9.49816e-05 -9.49988e-05 0.100859)
(9.5472e-05 9.54566e-05 0.101237)
(-9.5445e-05 9.54716e-05 0.101237)
(9.54819e-05 -9.54806e-05 0.101237)
(-9.5476e-05 -9.54753e-05 0.101237)
(-0.000266059 1.32849e-05 0.101151)
(-0.000216453 0.00021409 0.100827)
(-0.000166371 3.11493e-05 0.100896)
(-0.000160398 9.77289e-05 0.101064)
(-0.000297248 1.41204e-05 0.100979)
(-0.000187565 0.00019893 0.100936)
(-0.000169112 3.26235e-05 0.101019)
(0.000310879 -0.000148393 0.0926353)
(0.000276163 -0.000139158 0.0909844)
(1.33551e-05 -0.000266034 0.101151)
(3.12294e-05 -0.000166372 0.100896)
(0.000214155 -0.000216517 0.100828)
(9.77282e-05 -0.000160398 0.101064)
(1.42109e-05 -0.000297207 0.100979)
(3.26944e-05 -0.000169112 0.101019)
(0.000198896 -0.000187504 0.100935)
(-8.18218e-05 -9.58491e-05 0.100455)
(-9.59494e-05 -8.18382e-05 0.100455)
(-0.00011386 -0.000113856 0.101144)
(-9.02072e-05 -8.39479e-05 0.100414)
(-8.40869e-05 -9.02531e-05 0.100414)
(-9.35187e-06 0.000213736 0.100947)
(-2.06721e-05 0.000282454 0.0971506)
(-1.13399e-05 0.00022839 0.100911)
(-1.4619e-05 0.00025613 0.0966945)
(-0.000117305 0.000227287 0.0883998)
(-9.87349e-05 0.000186474 0.0870553)
(0.000213671 -9.46911e-06 0.100947)
(0.000282591 -2.06147e-05 0.0971508)
(0.000228442 -1.14553e-05 0.100911)
(0.000256238 -1.45186e-05 0.0966947)
(-9.58074e-05 9.58377e-05 0.101369)
(9.58435e-05 -9.58436e-05 0.101369)
(-9.58363e-05 -9.5839e-05 0.101369)
(9.2757e-05 9.27441e-05 0.101764)
(-9.27361e-05 9.27659e-05 0.101764)
(9.27801e-05 -9.27617e-05 0.101764)
(-9.27618e-05 -9.27633e-05 0.101764)
(-0.000254717 1.21257e-05 0.101578)
(-0.000219242 0.000190296 0.10104)
(-0.000168535 3.27848e-05 0.101406)
(-0.000159773 9.63856e-05 0.101576)
(-0.000288324 1.22321e-05 0.101416)
(-0.000187273 0.000170218 0.10111)
(-0.000171635 3.31846e-05 0.101537)
(0.000227159 -0.000117076 0.0883977)
(0.000186518 -9.86306e-05 0.0870561)
(1.21766e-05 -0.000254704 0.101578)
(3.28272e-05 -0.000168546 0.101406)
(0.000190317 -0.000219281 0.10104)
(9.63803e-05 -0.000159779 0.101576)
(1.22833e-05 -0.000288323 0.101416)
(3.32223e-05 -0.000171636 0.101537)
(0.000170178 -0.000187231 0.101109)
(-0.000116275 -8.9027e-05 0.100202)
(-8.91223e-05 -0.000116345 0.100202)
(-0.000105867 -0.000105872 0.101645)
(-0.000112454 -7.5347e-05 0.100066)
(-7.54364e-05 -0.000112531 0.100066)
(-5.63463e-06 0.000205737 0.100938)
(4.54601e-06 0.000251701 0.0958711)
(-8.66924e-06 0.000234908 0.100947)
(7.11267e-06 0.000232102 0.0954145)
(-6.87801e-05 0.00014154 0.0850014)
(-7.31233e-05 0.000127069 0.0839714)
(0.000205677 -5.73614e-06 0.100937)
(0.000251779 4.58418e-06 0.0958712)
(0.000234974 -8.74777e-06 0.100947)
(0.000232205 7.20522e-06 0.0954147)
(-9.00453e-05 9.00743e-05 0.101886)
(9.00861e-05 -9.00677e-05 0.101886)
(-9.00679e-05 -9.00701e-05 0.101886)
(8.33375e-05 8.33452e-05 0.102266)
(-8.33251e-05 8.33738e-05 0.102266)
(8.33796e-05 -8.33395e-05 0.102266)
(-8.33555e-05 -8.3348e-05 0.102266)
(-0.000235967 1.08878e-05 0.101976)
(-0.000211187 0.00015937 0.101161)
(-0.000157502 3.06822e-05 0.101922)
(-0.000150415 8.90987e-05 0.102079)
(-0.000276983 1.10059e-05 0.101828)
(-0.000179471 0.000142808 0.101197)
(-0.000159898 3.05614e-05 0.102046)
(0.000141395 -6.86065e-05 0.0849989)
(0.000127138 -7.30765e-05 0.0839722)
(1.09289e-05 -0.00023596 0.101976)
(3.07024e-05 -0.000157501 0.101922)
(0.000159416 -0.00021125 0.101162)
(8.91036e-05 -0.000150414 0.102079)
(1.10431e-05 -0.000276993 0.101828)
(3.05769e-05 -0.000159886 0.102046)
(0.000142766 -0.000179417 0.101196)
(-0.000129814 -7.61892e-05 0.0997463)
(-7.62401e-05 -0.000129878 0.0997459)
(-9.52948e-05 -9.52963e-05 0.102135)
(-0.000123428 -6.356e-05 0.099549)
(-6.36305e-05 -0.000123503 0.0995484)
(-1.50786e-05 0.00012723 0.100832)
(1.72571e-05 0.00020418 0.0945882)
(-1.63109e-05 0.000217269 0.100884)
(-7.24102e-06 0.000115315 0.0941853)
(-1.7632e-06 7.03632e-05 0.0823906)
(1.70581e-05 1.48761e-05 0.0820169)
(0.000127194 -1.516e-05 0.100831)
(0.00020418 1.72835e-05 0.0945878)
(0.000217329 -1.63753e-05 0.100884)
(0.000115358 -7.15334e-06 0.0941857)
(-7.47718e-05 7.47837e-05 0.102376)
(7.47908e-05 -7.47957e-05 0.102376)
(-7.47942e-05 -7.47985e-05 0.102376)
(4.17844e-05 4.17664e-05 0.102586)
(-4.17834e-05 4.17683e-05 0.102586)
(4.17848e-05 -4.17917e-05 0.102586)
(-4.17859e-05 -4.17981e-05 0.102586)
(-0.000136011 3.50656e-06 0.102279)
(-0.000178703 0.000118358 0.101201)
(-0.000133453 2.45494e-05 0.102405)
(-9.34838e-05 5.24937e-05 0.102512)
(-0.000243566 5.19851e-06 0.102196)
(-8.84041e-05 5.92772e-05 0.101175)
(-0.000108868 2.06065e-05 0.102491)
(7.02085e-05 -1.60826e-06 0.0823882)
(1.48823e-05 1.71448e-05 0.0820176)
(3.53362e-06 -0.00013599 0.102279)
(2.45685e-05 -0.000133443 0.102405)
(0.000118382 -0.000178766 0.101202)
(5.24903e-05 -9.34898e-05 0.102512)
(5.22744e-06 -0.000243574 0.102196)
(2.06259e-05 -0.000108852 0.102491)
(5.92303e-05 -8.83794e-05 0.101174)
(-0.000121172 -4.39402e-05 0.0991718)
(-4.3979e-05 -0.000121211 0.0991712)
(-3.7309e-05 -3.72294e-05 0.10253)
(-5.14539e-05 -1.79814e-06 0.0989896)
(-1.81956e-06 -5.15069e-05 0.0989887)
(-2.02811e-06 -7.43198e-06 0.100668)
(-2.11502e-05 4.10035e-05 0.0938938)
(-5.04449e-06 2.85134e-05 0.100696)
(-1.24326e-05 4.33976e-06 0.0938893)
(-6.75511e-06 -6.45423e-06 0.0819996)
(-4.47146e-06 -7.73984e-06 0.0820593)
(-7.497e-06 -2.04114e-06 0.100668)
(4.10026e-05 -2.11689e-05 0.093893)
(2.85955e-05 -5.06223e-06 0.100697)
(4.38322e-06 -1.24468e-05 0.0938898)
(-3.17016e-05 3.16895e-05 0.102623)
(3.17045e-05 -3.17112e-05 0.102623)
(-3.1706e-05 -3.17142e-05 0.102623)
(9.50559e-06 9.49749e-06 0.102677)
(-9.50549e-06 9.49842e-06 0.102677)
(9.50626e-06 -9.50775e-06 0.102677)
(-9.50951e-06 -9.5129e-06 0.102677)
(-1.0181e-06 1.86347e-06 0.102263)
(-4.32222e-05 1.50924e-05 0.101052)
(-4.57424e-05 1.12995e-05 0.10263)
(-3.00918e-05 2.04757e-05 0.102635)
(-5.55477e-05 2.56877e-06 0.102277)
(1.9642e-06 -3.71081e-07 0.101017)
(-3.1797e-05 8.38637e-06 0.10265)
(-6.60814e-06 -6.59676e-06 0.0819974)
(-7.66208e-06 -4.37941e-06 0.0820598)
(1.89071e-06 -1.00991e-06 0.102263)
(1.13189e-05 -4.57384e-05 0.10263)
(1.5144e-05 -4.32433e-05 0.101053)
(2.04789e-05 -3.00856e-05 0.102635)
(2.59235e-06 -5.55472e-05 0.102277)
(8.40182e-06 -3.17916e-05 0.10265)
(-3.91794e-07 2.06119e-06 0.101017)
(-1.32056e-05 4.92405e-06 0.098755)
(4.93344e-06 -1.32012e-05 0.0987544)
(2.29755e-05 2.29841e-05 0.102595)
(1.33438e-06 1.07103e-05 0.0986962)
(1.07199e-05 1.31609e-06 0.0986953)
(-1.68209e-07 -9.08963e-06 0.100643)
(-1.03555e-06 7.19853e-06 0.0938774)
(-6.32808e-07 8.51578e-06 0.100636)
(-1.54054e-06 -6.48884e-06 0.0938934)
(-3.49278e-06 1.75059e-06 0.0820644)
(1.30694e-06 -2.8574e-06 0.0820813)
(-9.15692e-06 -1.76152e-07 0.100642)
(7.17304e-06 -1.09928e-06 0.0938766)
(8.58075e-06 -6.14556e-07 0.100637)
(-6.45391e-06 -1.54486e-06 0.0938939)
(-5.50956e-06 5.50327e-06 0.102684)
(5.50983e-06 -5.51042e-06 0.102684)
(-5.51362e-06 -5.51645e-06 0.102684)
(3.86269e-07 3.91011e-07 0.10269)
(-3.85387e-07 3.86361e-07 0.10269)
(3.88903e-07 -3.85449e-07 0.10269)
(-3.91156e-07 -3.90344e-07 0.10269)
(1.33679e-05 1.44026e-07 0.102244)
(-1.66685e-05 5.18246e-06 0.100965)
(-8.16601e-06 2.06273e-06 0.102674)
(-4.55361e-06 3.66698e-06 0.102647)
(-1.81176e-05 2.86863e-07 0.102243)
(1.27452e-05 -4.06136e-06 0.100975)
(-4.82761e-06 1.07846e-06 0.102676)
(1.6437e-06 -3.4123e-06 0.0820616)
(-2.73468e-06 1.25075e-06 0.0820818)
(1.54066e-07 1.33778e-05 0.102244)
(2.06683e-06 -8.16609e-06 0.102674)
(5.23839e-06 -1.67139e-05 0.100966)
(3.6688e-06 -4.55594e-06 0.102647)
(2.86121e-07 -1.81284e-05 0.102243)
(1.08096e-06 -4.82402e-06 0.102676)
(-4.09253e-06 1.27857e-05 0.100974)
(-5.15432e-06 -5.0827e-06 0.0986303)
(-5.0681e-06 -5.1481e-06 0.0986297)
(4.20828e-05 4.21007e-05 0.102587)
(3.82056e-06 5.13604e-06 0.0986383)
(5.1315e-06 3.81301e-06 0.0986374)
(3.72568e-08 -9.07933e-06 0.100641)
(6.96203e-07 6.63022e-06 0.0938785)
(-9.89196e-08 8.82816e-06 0.100631)
(-1.10044e-06 -6.48435e-06 0.0938936)
(-1.92141e-06 2.62561e-06 0.0820658)
(1.78975e-06 -2.62672e-06 0.0820813)
(-9.14423e-06 3.23037e-08 0.10064)
(6.58684e-06 6.6114e-07 0.0938777)
(8.8897e-06 -8.75162e-08 0.100631)
(-6.44792e-06 -1.05956e-06 0.0938941)
(1.24345e-07 -1.22428e-07 0.10269)
(-1.20991e-07 1.24602e-07 0.10269)
(1.18664e-07 1.20352e-07 0.10269)
(-6.01596e-07 -5.96584e-07 0.10269)
(6.00223e-07 -5.98746e-07 0.10269)
(-5.96018e-07 6.00313e-07 0.10269)
(5.95429e-07 5.97538e-07 0.10269)
(1.46271e-05 5.89777e-08 0.102242)
(-1.44338e-05 4.11192e-06 0.100957)
(-1.11456e-06 -1.63276e-08 0.102677)
(-6.67666e-07 8.49889e-07 0.102646)
(-1.50156e-05 -7.45794e-08 0.102238)
(1.36317e-05 -4.4402e-06 0.100972)
(-8.11591e-07 -1.0572e-07 0.102677)
(2.50469e-06 -1.8422e-06 0.0820629)
(-2.51042e-06 1.72893e-06 0.0820818)
(6.77994e-08 1.46347e-05 0.102241)
(-1.81137e-08 -1.1142e-06 0.102677)
(4.14796e-06 -1.44826e-05 0.100957)
(8.46748e-07 -6.68736e-07 0.102646)
(-7.94764e-08 -1.5028e-05 0.102238)
(-1.07866e-07 -8.07461e-07 0.102677)
(-4.48324e-06 1.3679e-05 0.100972)
(-4.46235e-06 -5.44304e-06 0.0986197)
(-5.42954e-06 -4.45572e-06 0.0986191)
(4.43002e-05 4.43195e-05 0.102585)
(4.1371e-06 5.23745e-06 0.0986351)
(5.22998e-06 4.13019e-06 0.0986343)
(5.12697e-08 -9.07551e-06 0.100641)
(7.32952e-07 6.64815e-06 0.0938785)
(-6.98156e-08 8.80783e-06 0.100631)
(-1.0812e-06 -6.45098e-06 0.0938937)
(-1.8569e-06 2.63823e-06 0.0820658)
(1.80434e-06 -2.61657e-06 0.0820813)
(-9.13878e-06 4.35094e-08 0.10064)
(6.60948e-06 6.98156e-07 0.0938778)
(8.87386e-06 -5.41707e-08 0.100631)
(-6.41129e-06 -1.04321e-06 0.0938942)
(6.31199e-07 -6.29782e-07 0.10269)
(-6.27477e-07 6.31416e-07 0.10269)
(6.2665e-07 6.28787e-07 0.10269)
(-6.55459e-07 -6.49277e-07 0.10269)
(6.54713e-07 -6.51136e-07 0.10269)
(-6.50081e-07 6.55676e-07 0.10269)
(6.50175e-07 6.52847e-07 0.10269)
(1.46789e-05 6.24517e-08 0.102241)
(-1.42741e-05 4.07938e-06 0.100957)
(-5.74587e-07 -1.72667e-07 0.102677)
(-4.42992e-07 6.79053e-07 0.102646)
(-1.48148e-05 -7.1676e-08 0.102237)
(1.36753e-05 -4.43835e-06 0.100972)
(-5.61132e-07 -1.75342e-07 0.102677)
(2.52268e-06 -1.78313e-06 0.082063)
(-2.50032e-06 1.73788e-06 0.0820818)
(7.02253e-08 1.46894e-05 0.102241)
(-1.74955e-07 -5.73446e-07 0.102677)
(4.11392e-06 -1.4323e-05 0.100957)
(6.75312e-07 -4.4335e-07 0.102646)
(-7.69403e-08 -1.48279e-05 0.102237)
(-1.77835e-07 -5.5578e-07 0.102677)
(-4.47602e-06 1.37193e-05 0.100971)
(-4.41905e-06 -5.39403e-06 0.0986194)
(-5.38184e-06 -4.41242e-06 0.0986188)
(4.43947e-05 4.44128e-05 0.102585)
(4.14501e-06 5.24566e-06 0.0986351)
(5.23774e-06 4.13827e-06 0.0986342)
(5.90688e-08 -9.06644e-06 0.100641)
(7.3675e-07 6.65069e-06 0.0938785)
(-6.41641e-08 8.81512e-06 0.100631)
(-1.07019e-06 -6.45323e-06 0.0938936)
(-1.85269e-06 2.64097e-06 0.0820657)
(1.80693e-06 -2.61717e-06 0.0820813)
(-9.13134e-06 4.46161e-08 0.10064)
(6.61132e-06 6.98594e-07 0.0938777)
(8.88042e-06 -5.15511e-08 0.100631)
(-6.4037e-06 -1.03643e-06 0.0938943)
(6.56181e-07 -6.52487e-07 0.10269)
(-6.51278e-07 6.56861e-07 0.10269)
(6.51027e-07 6.53599e-07 0.10269)
(-6.54673e-07 -6.45747e-07 0.10269)
(6.57755e-07 -6.50646e-07 0.10269)
(-6.51437e-07 6.5831e-07 0.10269)
(6.52153e-07 6.54914e-07 0.10269)
(1.46748e-05 6.29606e-08 0.102241)
(-1.42726e-05 4.08402e-06 0.100957)
(-5.5758e-07 -1.76388e-07 0.102677)
(-4.38981e-07 6.7631e-07 0.102646)
(-1.48139e-05 -6.99773e-08 0.102237)
(1.36699e-05 -4.432e-06 0.100972)
(-5.55167e-07 -1.76107e-07 0.102677)
(2.52552e-06 -1.78362e-06 0.082063)
(-2.50243e-06 1.74263e-06 0.0820818)
(7.05601e-08 1.4685e-05 0.102241)
(-1.79032e-07 -5.56123e-07 0.102677)
(4.12171e-06 -1.43249e-05 0.100957)
(6.71122e-07 -4.39182e-07 0.102646)
(-7.63142e-08 -1.48263e-05 0.102237)
(-1.78968e-07 -5.49975e-07 0.102677)
(-4.4721e-06 1.37149e-05 0.100971)
(-4.42497e-06 -5.39651e-06 0.0986194)
(-5.38457e-06 -4.41828e-06 0.0986188)
(4.43947e-05 4.4413e-05 0.102585)
(4.14472e-06 5.24598e-06 0.0986351)
(5.2379e-06 4.13779e-06 0.0986343)
(5.47386e-08 -9.06576e-06 0.100641)
(8.25929e-07 6.68312e-06 0.0938787)
(-5.1846e-08 8.81726e-06 0.100631)
(-1.09563e-06 -6.46462e-06 0.0938936)
(-1.84679e-06 2.63275e-06 0.0820658)
(1.79891e-06 -2.60744e-06 0.0820814)
(-9.13277e-06 4.37666e-08 0.10064)
(6.60578e-06 7.0204e-07 0.0938777)
(8.87987e-06 -4.99503e-08 0.100631)
(-6.40429e-06 -1.03298e-06 0.0938943)
(6.58209e-07 -6.51825e-07 0.10269)
(-6.51849e-07 6.58191e-07 0.10269)
(6.52105e-07 6.54755e-07 0.10269)
(-6.58496e-07 -6.53239e-07 0.10269)
(6.57416e-07 -6.51676e-07 0.10269)
(-6.5217e-07 6.57847e-07 0.10269)
(6.52444e-07 6.54416e-07 0.10269)
(1.4674e-05 6.26341e-08 0.102241)
(-1.42722e-05 4.08761e-06 0.100957)
(-5.57439e-07 -1.7604e-07 0.102677)
(-4.38366e-07 6.75141e-07 0.102646)
(-1.48136e-05 -7.00116e-08 0.102237)
(1.36667e-05 -4.4313e-06 0.100972)
(-5.54262e-07 -1.76149e-07 0.102677)
(2.51736e-06 -1.77637e-06 0.082063)
(-2.49159e-06 1.73805e-06 0.0820818)
(7.04912e-08 1.46843e-05 0.102241)
(-1.78703e-07 -5.56718e-07 0.102677)
(4.12374e-06 -1.43222e-05 0.100957)
(6.70463e-07 -4.38328e-07 0.102646)
(-7.59215e-08 -1.48261e-05 0.102237)
(-1.78772e-07 -5.49064e-07 0.102677)
(-4.47104e-06 1.37146e-05 0.100971)
(-4.422e-06 -5.39377e-06 0.0986194)
(-5.38118e-06 -4.41565e-06 0.0986188)
(4.43941e-05 4.4412e-05 0.102585)
(4.1406e-06 5.2468e-06 0.0986351)
(5.23927e-06 4.13323e-06 0.0986343)
(5.01395e-08 -9.06603e-06 0.100641)
(7.38344e-07 6.66349e-06 0.0938787)
(-6.82513e-08 8.81344e-06 0.100631)
(-1.08591e-06 -6.46292e-06 0.0938936)
(-1.84515e-06 2.63209e-06 0.0820657)
(1.79357e-06 -2.60514e-06 0.0820814)
(-9.13039e-06 4.0813e-08 0.10064)
(6.60817e-06 6.92286e-07 0.0938777)
(8.87988e-06 -5.36794e-08 0.100631)
(-6.40232e-06 -1.04057e-06 0.0938944)
(6.59006e-07 -6.5232e-07 0.10269)
(-6.52508e-07 6.5748e-07 0.10269)
(6.52374e-07 6.53291e-07 0.10269)
(-6.56969e-07 -6.54914e-07 0.10269)
(6.64284e-07 -6.44624e-07 0.10269)
(-6.51235e-07 6.57375e-07 0.10269)
(6.53594e-07 6.50301e-07 0.10269)
(1.46711e-05 6.18121e-08 0.102241)
(-1.42701e-05 4.08566e-06 0.100957)
(-5.58654e-07 -1.77129e-07 0.102677)
(-4.40436e-07 6.73381e-07 0.102646)
(-1.48116e-05 -7.06588e-08 0.102237)
(1.36659e-05 -4.43129e-06 0.100972)
(-5.55908e-07 -1.76427e-07 0.102677)
(2.51632e-06 -1.77977e-06 0.082063)
(-2.49791e-06 1.7415e-06 0.0820819)
(7.03258e-08 1.46817e-05 0.102241)
(-1.78834e-07 -5.56215e-07 0.102677)
(4.12151e-06 -1.43215e-05 0.100957)
(6.69489e-07 -4.38096e-07 0.102646)
(-7.59839e-08 -1.48238e-05 0.102237)
(-1.78692e-07 -5.48651e-07 0.102677)
(-4.47197e-06 1.3713e-05 0.100971)
(-4.42267e-06 -5.39568e-06 0.0986194)
(-5.38277e-06 -4.41678e-06 0.0986188)
(4.43887e-05 4.44065e-05 0.102585)
(4.1457e-06 5.24595e-06 0.0986351)
(5.23884e-06 4.13781e-06 0.0986343)
(1.8813e-05 1.88022e-05 0.100003)
(8.10306e-05 0.000135062 0.100054)
(0.000135123 8.1042e-05 0.100054)
(0.000413879 0.00104242 0.0978713)
(0.000115166 0.000204363 0.100125)
(0.00104151 0.000411255 0.0978713)
(0.000204511 0.000115194 0.100125)
(0.000102264 0.000102227 0.100042)
(0.000117945 0.000514454 0.100269)
(0.000513318 0.000117569 0.100269)
(0.000117277 0.000180223 0.100097)
(0.000180362 0.000117298 0.100097)
(5.72057e-06 4.67341e-05 0.100008)
(1.5618e-05 1.52965e-05 0.0999999)
(6.0441e-05 0.000127959 0.100057)
(-8.59777e-07 1.31213e-05 0.0999958)
(-5.73176e-06 4.67429e-05 0.100008)
(-1.56157e-05 1.52914e-05 0.0999999)
(-6.04137e-05 0.000127947 0.100057)
(8.60251e-07 1.3122e-05 0.0999958)
(4.58896e-06 0.000154568 0.100054)
(0.00032659 0.000316434 0.0993461)
(9.83508e-05 0.000167634 0.100056)
(7.2853e-06 0.000328494 0.100415)
(-4.62858e-06 0.000154583 0.100054)
(-0.000326054 0.000317145 0.099346)