/*--------------------------------*- C++ -*----------------------------------*\
| =========                 |                                                 |
| \\      /  F ield         | OpenFOAM: The Open Source CFD Toolbox           |
|  \\    /   O peration     | Version:  2206                                  |
|   \\  /    A nd           | Website:  www.openfoam.com                      |
|    \\/     M anipulation  |                                                 |
\*---------------------------------------------------------------------------*/
FoamFile
{
    version     2.0;
    format      ascii;
    arch        "LSB;label=32;scalar=64";
    class       volScalarField;
    location    "15.5";
    object      epsilon;
}
// * * * * * * * * * * * * * * * * * * * * * * * * * * * * * * * * * * * * * //

dimensions      [0 2 -3 0 0 0 0];

internalField   nonuniform List<scalar> 
28687
(
3.67587e-07
3.82447e-07
3.82455e-07
4.04377e-07
3.67585e-07
3.8245e-07
3.82454e-07
4.04397e-07
3.67584e-07
3.82453e-07
3.82456e-07
4.04404e-07
3.67562e-07
3.82417e-07
3.82439e-07
4.04401e-07
3.67402e-07
3.82287e-07
3.823e-07
4.04286e-07
3.67382e-07
3.82279e-07
3.82284e-07
4.04268e-07
3.67382e-07
3.82278e-07
3.82284e-07
4.04272e-07
3.67382e-07
3.82278e-07
3.82284e-07
4.04275e-07
3.67382e-07
3.82278e-07
3.82284e-07
4.04273e-07
3.67382e-07
3.82278e-07
3.82284e-07
4.04273e-07
3.67382e-07
3.82278e-07
3.82284e-07
4.04273e-07
3.67382e-07
3.82278e-07
3.82284e-07
4.04273e-07
3.67381e-07
3.82278e-07
3.82284e-07
4.04273e-07
3.67382e-07
3.82279e-07
3.82284e-07
4.04273e-07
3.67381e-07
3.82279e-07
3.82284e-07
4.04273e-07
3.67381e-07
3.82278e-07
3.82284e-07
4.04273e-07
3.67382e-07
3.82278e-07
3.82284e-07
4.04273e-07
3.67381e-07
3.82278e-07
3.82284e-07
4.04273e-07
3.82463e-07
4.04198e-07
3.82447e-07
4.04373e-07
4.04212e-07
3.8246e-07
3.82463e-07
3.82459e-07
3.82462e-07
4.04387e-07
4.04213e-07
3.82452e-07
3.82469e-07
3.82451e-07
3.82468e-07
3.82462e-07
3.8245e-07
3.82461e-07
4.04381e-07
4.04219e-07
3.82452e-07
3.82454e-07
3.82451e-07
4.04216e-07
4.04396e-07
4.04218e-07
3.82464e-07
3.82467e-07
3.82463e-07
3.82465e-07
4.04397e-07
4.04218e-07
3.82456e-07
3.82472e-07
3.82454e-07
3.82471e-07
3.82465e-07
3.82454e-07
3.82464e-07
4.04403e-07
4.04226e-07
3.82455e-07
3.82456e-07
3.82454e-07
4.04223e-07
4.04403e-07
4.04218e-07
3.82465e-07
3.82468e-07
3.82458e-07
3.82454e-07
4.04402e-07
4.04213e-07
3.82457e-07
3.82473e-07
3.82449e-07
3.82465e-07
3.82466e-07
3.82442e-07
3.82458e-07
4.0441e-07
4.04225e-07
3.82456e-07
3.8245e-07
3.82448e-07
4.04223e-07
4.044e-07
4.04116e-07
3.82447e-07
3.82429e-07
3.82331e-07
3.82317e-07
4.04391e-07
4.04092e-07
3.82438e-07
3.82454e-07
3.82323e-07
3.82339e-07
3.82447e-07
3.82305e-07
3.82331e-07
4.04407e-07
4.04123e-07
3.82437e-07
3.82324e-07
3.82321e-07
4.04119e-07
4.04286e-07
4.0408e-07
3.82309e-07
3.82302e-07
3.82292e-07
3.82291e-07
4.04267e-07
4.0408e-07
3.823e-07
3.82316e-07
3.82283e-07
3.82299e-07
3.82309e-07
3.82279e-07
3.82292e-07
4.04292e-07
4.04088e-07
3.82299e-07
3.82284e-07
3.82282e-07
4.04085e-07
4.04267e-07
4.0409e-07
3.82295e-07
3.82294e-07
3.82293e-07
3.82291e-07
4.04266e-07
4.04082e-07
3.82286e-07
3.82302e-07
3.82284e-07
3.823e-07
3.82295e-07
3.82278e-07
3.82292e-07
4.04274e-07
4.04097e-07
3.82285e-07
3.82284e-07
3.82283e-07
4.04094e-07
4.04272e-07
4.0409e-07
3.82294e-07
3.82293e-07
3.82292e-07
3.82293e-07
4.04263e-07
4.04085e-07
3.82286e-07
3.82302e-07
3.82283e-07
3.82299e-07
3.82294e-07
3.82278e-07
3.82292e-07
4.04278e-07
4.04097e-07
3.82284e-07
3.82284e-07
3.82282e-07
4.04094e-07
4.04274e-07
4.04089e-07
3.82295e-07
3.82295e-07
3.82292e-07
3.82293e-07
4.04267e-07
4.04084e-07
3.82286e-07
3.82302e-07
3.82283e-07
3.82299e-07
3.82294e-07
3.82278e-07
3.82292e-07
4.0428e-07
4.04096e-07
3.82284e-07
3.82284e-07
3.82282e-07
4.04092e-07
4.04273e-07
4.04089e-07
3.82294e-07
3.82295e-07
3.82291e-07
3.82293e-07
4.04267e-07
4.04083e-07
3.82285e-07
3.82302e-07
3.82283e-07
3.82299e-07
3.82294e-07
3.82278e-07
3.82292e-07
4.0428e-07
4.04095e-07
3.82284e-07
3.82284e-07
3.82282e-07
4.04092e-07
4.04273e-07
4.04088e-07
3.82293e-07
3.82295e-07
3.82291e-07
3.82293e-07
4.04268e-07
4.04083e-07
3.82285e-07
3.82302e-07
3.82282e-07
3.82299e-07
3.82294e-07
3.82278e-07
3.82292e-07
4.04279e-07
4.04096e-07
3.82284e-07
3.82284e-07
3.82282e-07
4.04092e-07
4.04272e-07
4.04089e-07
3.82293e-07
3.82295e-07
3.8229e-07
3.82292e-07
4.04268e-07
4.04083e-07
3.82284e-07
3.82302e-07
3.82282e-07
3.82299e-07
3.82294e-07
3.82279e-07
3.82292e-07
4.04279e-07
4.04096e-07
3.82284e-07
3.82284e-07
3.82283e-07
4.04092e-07
4.04273e-07
4.04089e-07
3.82293e-07
3.82295e-07
3.82291e-07
3.82292e-07
4.04268e-07
4.04084e-07
3.82284e-07
3.82302e-07
3.82282e-07
3.82299e-07
3.82294e-07
3.82279e-07
3.82292e-07
4.0428e-07
4.04095e-07
3.82286e-07
3.82284e-07
3.82283e-07
4.04092e-07
4.04273e-07
4.04089e-07
3.82293e-07
3.82295e-07
3.82291e-07
3.82292e-07
4.04268e-07
4.04084e-07
3.82284e-07
3.82302e-07
3.82282e-07
3.82299e-07
3.82294e-07
3.82279e-07
3.82292e-07
4.04279e-07
4.04096e-07
3.82286e-07
3.82284e-07
3.82283e-07
4.04092e-07
4.04273e-07
4.04089e-07
3.82293e-07
3.82295e-07
3.82291e-07
3.82292e-07
4.04268e-07
4.04084e-07
3.82284e-07
3.82302e-07
3.82282e-07
3.82299e-07
3.82294e-07
3.82279e-07
3.82292e-07
4.04279e-07
4.04096e-07
3.82286e-07
3.82284e-07
3.82283e-07
4.04092e-07
4.04273e-07
4.04089e-07
3.82293e-07
3.82295e-07
3.82291e-07
3.82292e-07
4.04269e-07
4.04084e-07
3.82284e-07
3.82302e-07
3.82282e-07
3.82299e-07
3.82294e-07
3.82279e-07
3.82292e-07
4.0428e-07
4.04095e-07
3.82286e-07
3.82284e-07
3.82283e-07
4.04092e-07
4.04273e-07
4.04089e-07
3.82293e-07
3.82295e-07
3.82291e-07
3.82292e-07
4.04268e-07
4.04084e-07
3.82284e-07
3.82302e-07
3.82282e-07
3.82299e-07
3.82294e-07
3.82279e-07
3.82292e-07
4.04279e-07
4.04095e-07
3.82286e-07
3.82284e-07
3.82284e-07
4.04092e-07
4.04273e-07
4.04089e-07
3.82293e-07
3.82295e-07
3.82291e-07
3.82292e-07
4.04268e-07
4.04083e-07
3.82284e-07
3.82302e-07
3.82282e-07
3.82299e-07
3.82294e-07
3.82279e-07
3.82292e-07
4.04279e-07
4.04096e-07
3.82286e-07
3.82284e-07
3.82283e-07
4.04092e-07
4.04273e-07
3.82292e-07
3.82294e-07
4.04268e-07
3.82283e-07
3.82301e-07
3.82293e-07
4.04279e-07
3.82285e-07
1.55535e-06
8.01735e-06
1.55591e-06
8.01672e-06
2.4879e-05
2.48754e-05
1.55523e-06
8.0185e-06
1.55585e-06
8.0178e-06
3.67591e-07
3.67589e-07
3.67588e-07
3.67585e-07
3.67589e-07
3.67587e-07
3.67586e-07
5.84187e-07
1.25981e-06
3.71729e-07
3.8245e-07
5.84295e-07
1.25934e-06
3.71729e-07
2.48816e-05
2.4878e-05
5.84179e-07
3.71729e-07
1.25974e-06
3.82455e-07
5.84288e-07
3.71729e-07
1.25929e-06
2.59213e-06
2.59266e-06
4.0421e-07
2.5916e-06
2.59215e-06
1.55523e-06
8.01685e-06
1.55565e-06
8.01638e-06
2.48737e-05
2.48724e-05
1.55509e-06
8.01796e-06
1.55547e-06
8.01745e-06
3.67589e-07
3.67587e-07
3.67586e-07
3.67585e-07
3.67586e-07
3.67585e-07
3.67584e-07
5.84211e-07
1.25992e-06
3.71727e-07
3.82455e-07
5.84325e-07
1.25937e-06
3.71731e-07
2.48754e-05
2.48737e-05
5.84204e-07
3.71726e-07
1.25988e-06
3.82458e-07
5.84319e-07
3.7173e-07
1.25936e-06
2.59214e-06
2.59268e-06
4.04219e-07
2.59179e-06
2.59234e-06
1.55519e-06
8.0166e-06
1.55561e-06
8.01624e-06
2.48727e-05
2.48731e-05
1.55504e-06
8.01772e-06
1.55542e-06
8.01734e-06
3.67586e-07
3.67585e-07
3.67584e-07
3.67575e-07
3.67575e-07
3.67576e-07
3.67575e-07
5.84195e-07
1.25989e-06
3.71726e-07
3.82453e-07
5.8431e-07
1.25939e-06
3.71726e-07
2.48738e-05
2.48734e-05
5.84184e-07
3.71726e-07
1.25983e-06
3.82456e-07
5.84301e-07
3.71726e-07
1.25933e-06
2.59221e-06
2.59276e-06
4.04225e-07
2.59176e-06
2.59231e-06
1.5558e-06
8.01787e-06
1.55593e-06
8.02e-06
2.48797e-05
2.488e-05
1.55566e-06
8.01904e-06
1.55573e-06
8.02098e-06
3.67558e-07
3.67564e-07
3.67562e-07
3.6743e-07
3.67422e-07
3.6743e-07
3.67429e-07
5.84234e-07
1.26026e-06
3.71703e-07
3.82376e-07
5.84344e-07
1.25979e-06
3.71665e-07
2.48784e-05
2.48806e-05
5.84225e-07
3.71706e-07
1.26005e-06
3.82407e-07
5.84335e-07
3.71672e-07
1.25969e-06
2.5926e-06
2.59314e-06
4.04197e-07
2.59244e-06
2.593e-06
1.55577e-06
8.02107e-06
1.55621e-06
8.02066e-06
2.48804e-05
2.48799e-05
1.55563e-06
8.02219e-06
1.55602e-06
8.02176e-06
3.674e-07
3.67404e-07
3.67404e-07
3.67382e-07
3.67383e-07
3.67384e-07
3.67383e-07
5.84193e-07
1.26025e-06
3.71551e-07
3.82283e-07
5.84316e-07
1.25969e-06
3.71542e-07
2.48815e-05
2.48806e-05
5.84185e-07
3.71553e-07
1.26019e-06
3.82291e-07
5.84308e-07
3.71544e-07
1.25966e-06
2.59263e-06
2.59318e-06
4.04082e-07
2.59217e-06
2.59272e-06
1.55576e-06
8.02099e-06
1.55617e-06
8.02063e-06
2.48804e-05
2.48788e-05
1.55561e-06
8.02212e-06
1.55598e-06
8.02173e-06
3.67386e-07
3.67387e-07
3.67386e-07
3.67382e-07
3.67383e-07
3.67384e-07
3.67384e-07
5.84192e-07
1.26022e-06
3.71536e-07
3.82281e-07
5.84306e-07
1.25969e-06
3.71538e-07
2.48813e-05
2.48805e-05
5.84183e-07
3.71536e-07
1.26016e-06
3.82287e-07
5.84298e-07
3.71539e-07
1.25965e-06
2.59256e-06
2.5931e-06
4.04096e-07
2.59216e-06
2.59271e-06
1.55576e-06
8.0209e-06
1.55617e-06
8.02057e-06
2.48794e-05
2.48795e-05
1.55561e-06
8.02212e-06
1.55598e-06
8.02173e-06
3.67385e-07
3.67387e-07
3.67386e-07
3.67382e-07
3.67383e-07
3.67385e-07
3.67384e-07
5.84192e-07
1.26022e-06
3.71535e-07
3.8228e-07
5.84307e-07
1.25969e-06
3.71537e-07
2.48813e-05
2.48805e-05
5.84182e-07
3.71536e-07
1.26015e-06
3.82286e-07
5.84299e-07
3.71538e-07
1.25965e-06
2.59256e-06
2.5931e-06
4.04089e-07
2.59216e-06
2.59271e-06
1.55576e-06
8.02095e-06
1.55617e-06
8.02063e-06
2.48802e-05
2.48797e-05
1.55561e-06
8.02212e-06
1.55598e-06
8.02173e-06
3.67385e-07
3.67387e-07
3.67386e-07
3.67382e-07
3.67383e-07
3.67384e-07
3.67384e-07
5.84192e-07
1.26022e-06
3.71535e-07
3.8228e-07
5.84307e-07
1.25968e-06
3.71537e-07
2.48813e-05
2.48805e-05
5.84183e-07
3.71536e-07
1.26015e-06
3.82286e-07
5.84298e-07
3.71538e-07
1.25965e-06
2.59256e-06
2.5931e-06
4.04091e-07
2.59216e-06
2.59271e-06
1.55576e-06
8.02101e-06
1.55618e-06
8.02066e-06
2.488e-05
2.48791e-05
1.55561e-06
8.02209e-06
1.55598e-06
8.02179e-06
3.67385e-07
3.67387e-07
3.67386e-07
3.67382e-07
3.67383e-07
3.67384e-07
3.67384e-07
5.84192e-07
1.26022e-06
3.71535e-07
3.82281e-07
5.84307e-07
1.25968e-06
3.71537e-07
2.48813e-05
2.48805e-05
5.84183e-07
3.71536e-07
1.26015e-06
3.82286e-07
5.84298e-07
3.71538e-07
1.25965e-06
2.59256e-06
2.5931e-06
4.04092e-07
2.59216e-06
2.59271e-06
1.55576e-06
8.02095e-06
1.55618e-06
8.02053e-06
2.48797e-05
2.48791e-05
1.55561e-06
8.02221e-06
1.55598e-06
8.02189e-06
3.67385e-07
3.67387e-07
3.67386e-07
3.67382e-07
3.67383e-07
3.67384e-07
3.67383e-07
5.84192e-07
1.26022e-06
3.71535e-07
3.82281e-07
5.84307e-07
1.25968e-06
3.71537e-07
2.48813e-05
2.48805e-05
5.84182e-07
3.71536e-07
1.26015e-06
3.82286e-07
5.84298e-07
3.71538e-07
1.25965e-06
2.59256e-06
2.5931e-06
4.04092e-07
2.59216e-06
2.59271e-06
1.55576e-06
8.02086e-06
1.55618e-06
8.02046e-06
2.48797e-05
2.48791e-05
1.55561e-06
8.0223e-06
1.55598e-06
8.02194e-06
3.67385e-07
3.67387e-07
3.67386e-07
3.67382e-07
3.67383e-07
3.67384e-07
3.67384e-07
5.84192e-07
1.26022e-06
3.71535e-07
3.82281e-07
5.84307e-07
1.25969e-06
3.71537e-07
2.48813e-05
2.48805e-05
5.84183e-07
3.71536e-07
1.26016e-06
3.82286e-07
5.84298e-07
3.71538e-07
1.25965e-06
2.59256e-06
2.59311e-06
4.04092e-07
2.59216e-06
2.59271e-06
1.55576e-06
8.02081e-06
1.55618e-06
8.02043e-06
2.48797e-05
2.48792e-05
1.55561e-06
8.02233e-06
1.55598e-06
8.02196e-06
3.67385e-07
3.67387e-07
3.67386e-07
3.67382e-07
3.67383e-07
3.67384e-07
3.67384e-07
5.84192e-07
1.26022e-06
3.71535e-07
3.82281e-07
5.84307e-07
1.25968e-06
3.71537e-07
2.48813e-05
2.48805e-05
5.84183e-07
3.71536e-07
1.26016e-06
3.82286e-07
5.84298e-07
3.71538e-07
1.25965e-06
2.59256e-06
2.59311e-06
4.04092e-07
2.59216e-06
2.59271e-06
1.55576e-06
8.02081e-06
1.55617e-06
8.02042e-06
2.48797e-05
2.48792e-05
1.55561e-06
8.02234e-06
1.55598e-06
8.02197e-06
3.67385e-07
3.67387e-07
3.67386e-07
3.67382e-07
3.67383e-07
3.67384e-07
3.67384e-07
5.84192e-07
1.26022e-06
3.71535e-07
3.82281e-07
5.84307e-07
1.25968e-06
3.71537e-07
2.48813e-05
2.48805e-05
5.84183e-07
3.71536e-07
1.26016e-06
3.82286e-07
5.84298e-07
3.71538e-07
1.25965e-06
2.59256e-06
2.59311e-06
4.04092e-07
2.59216e-06
2.59271e-06
1.55576e-06
8.0208e-06
1.55618e-06
8.02042e-06
2.48797e-05
2.48792e-05
1.55561e-06
8.02234e-06
1.55598e-06
8.02197e-06
3.67385e-07
3.67387e-07
3.67386e-07
3.67382e-07
3.67383e-07
3.67384e-07
3.67384e-07
5.84192e-07
1.26022e-06
3.71535e-07
3.82281e-07
5.84307e-07
1.25968e-06
3.71537e-07
2.48813e-05
2.48805e-05
5.84184e-07
3.71536e-07
1.26016e-06
3.82286e-07
5.84299e-07
3.71538e-07
1.25965e-06
2.59256e-06
2.59311e-06
4.04092e-07
2.59216e-06
2.59271e-06
1.55576e-06
8.0208e-06
1.55618e-06
8.02042e-06
2.48797e-05
2.48792e-05
1.55561e-06
8.02235e-06
1.55598e-06
8.02197e-06
3.67385e-07
3.67387e-07
3.67386e-07
3.67382e-07
3.67383e-07
3.67384e-07
3.67384e-07
5.84192e-07
1.26022e-06
3.71535e-07
3.82281e-07
5.84307e-07
1.25968e-06
3.71537e-07
2.48813e-05
2.48805e-05
5.84184e-07
3.71536e-07
1.26016e-06
3.82286e-07
5.843e-07
3.71538e-07
1.25965e-06
2.59256e-06
2.59311e-06
4.04092e-07
2.59216e-06
2.59271e-06
1.55576e-06
8.0208e-06
1.55618e-06
8.02042e-06
2.48797e-05
2.48792e-05
1.55561e-06
8.02234e-06
1.55598e-06
8.02197e-06
3.67385e-07
3.67387e-07
3.67386e-07
3.67382e-07
3.67383e-07
3.67384e-07
3.67384e-07
5.84192e-07
1.26022e-06
3.71535e-07
3.82281e-07
5.84307e-07
1.25969e-06
3.71537e-07
2.48813e-05
2.48805e-05
5.84184e-07
3.71536e-07
1.26016e-06
3.82286e-07
5.843e-07
3.71538e-07
1.25965e-06
2.59256e-06
2.59311e-06
4.04092e-07
2.59216e-06
2.59271e-06
1.55576e-06
8.0208e-06
1.55618e-06
8.02042e-06
2.48797e-05
2.48792e-05
1.55561e-06
8.02235e-06
1.55598e-06
8.02197e-06
3.67385e-07
3.67387e-07
3.67386e-07
3.67382e-07
3.67383e-07
3.67384e-07
3.67384e-07
5.84192e-07
1.26022e-06
3.71535e-07
3.82281e-07
5.84307e-07
1.25968e-06
3.71537e-07
2.48813e-05
2.48805e-05
5.84184e-07
3.71536e-07
1.26015e-06
3.82286e-07
5.843e-07
3.71538e-07
1.25965e-06
2.59256e-06
2.59311e-06
4.04092e-07
2.59216e-06
2.59271e-06
1.55591e-06
8.0208e-06
1.55618e-06
8.02051e-06
2.48797e-05
2.48792e-05
1.5559e-06
8.02235e-06
1.55597e-06
8.02208e-06
3.67384e-07
3.67386e-07
3.67385e-07
5.84192e-07
1.26022e-06
3.71535e-07
3.8228e-07
5.84307e-07
1.25968e-06
3.71538e-07
2.48813e-05
2.48806e-05
5.84186e-07
3.71536e-07
1.26015e-06
3.82287e-07
5.843e-07
3.71539e-07
1.25964e-06
2.59256e-06
2.5931e-06
4.04092e-07
2.59216e-06
2.59296e-06
8.0173e-06
1.25929e-06
2.48793e-05
2.59189e-06
2.59133e-06
2.48763e-05
1.25926e-06
8.01696e-06
2.4879e-05
2.48756e-05
2.48818e-05
2.48784e-05
2.59199e-06
2.59259e-06
4.04206e-07
2.59148e-06
2.59207e-06
2.48728e-05
2.48754e-05
2.48756e-05
2.48782e-05
4.0439e-07
2.59161e-06
2.59218e-06
2.59186e-06
2.59244e-06
1.55535e-06
8.01749e-06
1.55591e-06
8.01713e-06
5.84187e-07
1.25968e-06
3.71728e-07
3.8246e-07
5.84298e-07
1.25921e-06
3.71728e-07
5.84185e-07
1.25981e-06
3.71729e-07
3.82463e-07
5.84297e-07
1.25939e-06
3.71729e-07
1.55569e-06
8.01653e-06
8.01685e-06
1.55525e-06
1.55569e-06
8.01693e-06
8.01726e-06
1.55525e-06
5.84306e-07
3.82459e-07
1.25929e-06
3.71726e-07
1.25972e-06
3.71726e-07
5.84207e-07
5.84303e-07
3.82462e-07
1.25943e-06
3.71728e-07
1.2599e-06
3.71728e-07
5.842e-07
2.59233e-06
2.59189e-06
4.04209e-07
2.59211e-06
2.59165e-06
2.48764e-05
2.48725e-05
2.48734e-05
2.48753e-05
4.04393e-07
2.59222e-06
2.5918e-06
2.5925e-06
2.59214e-06
2.48705e-05
2.48727e-05
5.84186e-07
1.26001e-06
3.71728e-07
3.82452e-07
5.84295e-07
1.2595e-06
3.71728e-07
1.55524e-06
8.01877e-06
1.55586e-06
8.01807e-06
5.84189e-07
3.7173e-07
1.26009e-06
3.82469e-07
5.843e-07
3.7173e-07
1.25956e-06
1.55552e-06
8.01761e-06
8.01796e-06
1.55512e-06
5.84303e-07
3.82451e-07
1.25958e-06
3.71726e-07
1.26004e-06
3.71726e-07
5.84206e-07
1.55552e-06
8.01787e-06
8.01823e-06
1.55513e-06
5.84307e-07
3.82468e-07
3.71729e-07
1.25964e-06
3.71728e-07
1.2601e-06
5.84209e-07
1.55537e-06
8.01718e-06
1.55593e-06
8.01678e-06
5.84191e-07
3.71728e-07
1.25975e-06
3.82462e-07
5.84301e-07
3.71728e-07
1.25929e-06
1.55538e-06
8.0184e-06
1.55613e-06
8.01777e-06
5.84304e-07
3.8245e-07
1.25939e-06
3.71727e-07
1.25988e-06
3.71727e-07
5.84205e-07
1.55571e-06
8.01658e-06
8.01694e-06
1.55527e-06
5.84308e-07
3.82461e-07
3.71727e-07
1.25937e-06
3.71727e-07
1.2598e-06
5.8421e-07
1.55571e-06
8.01756e-06
8.01789e-06
1.55527e-06
2.59287e-06
2.5921e-06
4.04213e-07
2.59233e-06
2.59158e-06
2.48808e-05
2.48774e-05
2.48751e-05
2.48781e-05
4.04397e-07
2.59251e-06
2.5917e-06
2.59281e-06
2.59196e-06
2.48746e-05
2.48772e-05
5.84175e-07
3.71728e-07
1.25987e-06
3.82452e-07
5.84286e-07
3.71728e-07
1.2594e-06
1.55523e-06
8.01854e-06
1.55585e-06
8.01791e-06
1.55523e-06
8.01886e-06
1.55585e-06
8.01823e-06
5.84298e-07
3.82453e-07
3.71726e-07
1.25937e-06
3.71727e-07
1.2598e-06
5.84199e-07
5.84294e-07
3.82451e-07
3.71726e-07
1.25947e-06
3.71726e-07
1.25991e-06
5.84195e-07
1.55551e-06
8.0177e-06
8.01804e-06
1.55511e-06
1.55551e-06
8.01802e-06
8.01835e-06
1.55511e-06
2.4881e-05
2.48777e-05
2.48821e-05
2.48788e-05
4.04395e-07
2.59173e-06
2.59228e-06
2.59199e-06
2.59253e-06
2.48748e-05
2.48774e-05
2.48759e-05
2.48785e-05
2.48729e-05
2.48713e-05
2.48757e-05
2.48742e-05
2.59197e-06
2.59253e-06
4.04215e-07
2.59168e-06
2.59224e-06
2.48708e-05
2.48717e-05
2.48736e-05
2.48745e-05
4.04398e-07
2.5917e-06
2.59226e-06
2.59201e-06
2.59257e-06
1.55523e-06
8.01707e-06
1.55561e-06
8.01676e-06
5.84213e-07
1.25979e-06
3.7173e-07
3.82464e-07
5.84326e-07
1.25929e-06
3.7173e-07
5.84208e-07
1.25992e-06
3.71731e-07
3.82467e-07
5.84319e-07
1.25941e-06
3.71731e-07
1.5556e-06
8.01626e-06
8.01652e-06
1.5552e-06
1.5556e-06
8.01668e-06
8.01692e-06
1.55521e-06
5.84325e-07
3.82462e-07
1.25926e-06
3.71727e-07
1.25977e-06
3.71729e-07
5.842e-07
5.84321e-07
3.82465e-07
1.25939e-06
3.71727e-07
1.25989e-06
3.71729e-07
5.842e-07
2.59259e-06
2.59226e-06
4.04215e-07
2.59226e-06
2.59185e-06
2.48709e-05
2.48694e-05
2.48721e-05
2.48729e-05
4.04399e-07
2.59227e-06
2.59188e-06
2.59262e-06
2.59229e-06
2.48692e-05
2.48701e-05
5.84212e-07
1.26011e-06
3.71731e-07
3.82456e-07
5.84324e-07
1.25958e-06
3.71731e-07
1.5551e-06
8.01804e-06
1.55544e-06
8.01769e-06
5.84215e-07
3.71733e-07
1.26017e-06
3.82472e-07
5.84327e-07
3.71732e-07
1.25964e-06
1.55541e-06
8.01733e-06
8.01763e-06
1.55506e-06
5.84322e-07
3.82454e-07
1.25955e-06
3.71728e-07
1.26008e-06
3.71729e-07
5.84197e-07
1.55542e-06
8.01757e-06
8.01786e-06
1.55508e-06
5.84326e-07
3.82471e-07
3.71729e-07
1.25962e-06
3.71731e-07
1.26015e-06
5.84201e-07
1.55525e-06
8.01675e-06
1.55563e-06
8.0164e-06
5.84216e-07
3.71731e-07
1.25986e-06
3.82465e-07
5.84328e-07
3.7173e-07
1.25936e-06
1.55525e-06
8.01769e-06
1.55563e-06
8.01736e-06
5.84321e-07
3.82454e-07
1.25936e-06
3.71728e-07
1.25988e-06
3.7173e-07
5.84197e-07
1.55562e-06
8.01631e-06
8.01659e-06
1.55523e-06
5.84325e-07
3.82464e-07
3.71726e-07
1.25934e-06
3.71728e-07
1.25984e-06
5.84203e-07
1.55562e-06
8.01723e-06
8.0175e-06
1.55523e-06
2.59297e-06
2.59206e-06
4.04222e-07
2.59261e-06
2.59177e-06
2.48747e-05
2.48731e-05
2.48731e-05
2.48742e-05
4.04405e-07
2.59264e-06
2.59179e-06
2.59304e-06
2.5921e-06
2.48725e-05
2.48735e-05
5.84201e-07
3.7173e-07
1.25997e-06
3.82455e-07
5.84314e-07
3.71729e-07
1.25947e-06
1.55508e-06
8.01784e-06
1.55543e-06
8.01751e-06
1.55508e-06
8.01816e-06
1.55543e-06
8.01783e-06
5.84314e-07
3.82457e-07
3.71728e-07
1.25934e-06
3.71728e-07
1.25983e-06
5.84188e-07
5.84312e-07
3.82454e-07
3.71726e-07
1.25945e-06
3.71728e-07
1.25995e-06
5.84186e-07
1.5554e-06
8.01738e-06
8.01765e-06
1.55506e-06
1.5554e-06
8.01771e-06
8.01797e-06
1.55506e-06
2.48749e-05
2.48733e-05
2.48761e-05
2.48745e-05
4.04403e-07
2.59181e-06
2.59237e-06
2.59213e-06
2.59268e-06
2.48728e-05
2.48737e-05
2.48739e-05
2.48748e-05
2.48713e-05
2.48709e-05
2.4874e-05
2.48737e-05
2.59204e-06
2.5926e-06
4.0422e-07
2.59165e-06
2.59222e-06
2.48734e-05
2.48718e-05
2.48762e-05
2.48745e-05
4.04403e-07
2.59191e-06
2.59248e-06
2.59199e-06
2.59255e-06
1.55521e-06
8.01686e-06
1.55559e-06
8.01688e-06
5.84196e-07
1.25975e-06
3.71726e-07
3.82464e-07
5.84312e-07
1.25925e-06
3.71724e-07
5.84198e-07
1.25987e-06
3.71727e-07
3.82466e-07
5.84313e-07
1.25942e-06
3.71725e-07
1.55557e-06
8.01692e-06
8.01648e-06
1.55537e-06
1.55558e-06
8.01857e-06
8.01722e-06
1.55537e-06
5.84313e-07
3.82462e-07
1.2594e-06
3.71718e-07
1.25976e-06
3.71722e-07
5.84218e-07
5.84315e-07
3.82462e-07
1.25966e-06
3.71718e-07
1.25996e-06
3.71722e-07
5.84218e-07
2.59258e-06
2.59228e-06
4.04218e-07
2.59226e-06
2.59186e-06
2.487e-05
2.48702e-05
2.48775e-05
2.48745e-05
4.04401e-07
2.59278e-06
2.59235e-06
2.59274e-06
2.59238e-06
2.48743e-05
2.48717e-05
5.84191e-07
1.26007e-06
3.71728e-07
3.82456e-07
5.84307e-07
1.25955e-06
3.71726e-07
1.55506e-06
8.01777e-06
1.5554e-06
8.01758e-06
5.84196e-07
3.71728e-07
1.26014e-06
3.82472e-07
5.84312e-07
3.71726e-07
1.25962e-06
1.55536e-06
8.01802e-06
8.01763e-06
1.55522e-06
5.84305e-07
3.82452e-07
1.2597e-06
3.71719e-07
1.26008e-06
3.71723e-07
5.84213e-07
1.55538e-06
8.01821e-06
8.01786e-06
1.55522e-06
5.84311e-07
3.82469e-07
3.71719e-07
1.25976e-06
3.71723e-07
1.26015e-06
5.84217e-07
1.55522e-06
8.01653e-06
1.55561e-06
8.01662e-06
5.84199e-07
3.71725e-07
1.25982e-06
3.82465e-07
5.84313e-07
3.71724e-07
1.25933e-06
1.55522e-06
8.0174e-06
1.55561e-06
8.01723e-06
5.8431e-07
3.8245e-07
1.25964e-06
3.71718e-07
1.25995e-06
3.71723e-07
5.84216e-07
1.55559e-06
8.01833e-06
8.01706e-06
1.55538e-06
5.84313e-07
3.82462e-07
3.71718e-07
1.25947e-06
3.71721e-07
1.25983e-06
5.8422e-07
1.55559e-06
8.01784e-06
8.01747e-06
1.55538e-06
2.59307e-06
2.59213e-06
4.04227e-07
2.5926e-06
2.59174e-06
2.4873e-05
2.48726e-05
2.4876e-05
2.48746e-05
4.04409e-07
2.59287e-06
2.592e-06
2.59303e-06
2.59208e-06
2.48751e-05
2.48735e-05
5.8418e-07
3.71726e-07
1.25994e-06
3.82455e-07
5.84297e-07
3.71724e-07
1.25944e-06
1.55505e-06
8.01755e-06
1.55539e-06
8.01737e-06
1.55505e-06
8.01788e-06
1.55539e-06
8.01771e-06
5.843e-07
3.82454e-07
3.71719e-07
1.25947e-06
3.71723e-07
1.25982e-06
5.84205e-07
5.84296e-07
3.82452e-07
3.71717e-07
1.25958e-06
3.71721e-07
1.25995e-06
5.84202e-07
1.55537e-06
8.01799e-06
8.01761e-06
1.5552e-06
1.55537e-06
8.01832e-06
8.01795e-06
1.5552e-06
2.48733e-05
2.48729e-05
2.48744e-05
2.4874e-05
4.04408e-07
2.59203e-06
2.59257e-06
2.59211e-06
2.59265e-06
2.48754e-05
2.48738e-05
2.48765e-05
2.48749e-05
2.48755e-05
2.48782e-05
2.48784e-05
2.48811e-05
2.59243e-06
2.59299e-06
4.04194e-07
2.59233e-06
2.59291e-06
2.48783e-05
2.48789e-05
2.48812e-05
2.48817e-05
4.04359e-07
2.59216e-06
2.59274e-06
2.59268e-06
2.59325e-06
1.55579e-06
8.02002e-06
1.55589e-06
8.02136e-06
5.84236e-07
1.25997e-06
3.71706e-07
3.82413e-07
5.84347e-07
1.25963e-06
3.7167e-07
5.84231e-07
1.26023e-06
3.71704e-07
3.82386e-07
5.84345e-07
1.25979e-06
3.71665e-07
1.55623e-06
8.02074e-06
8.02088e-06
1.55581e-06
1.55623e-06
8.02133e-06
8.02155e-06
1.55582e-06
5.84346e-07
3.82368e-07
1.25962e-06
3.71579e-07
1.26014e-06
3.7162e-07
5.84206e-07
5.84342e-07
3.82347e-07
1.25974e-06
3.71576e-07
1.26028e-06
3.71615e-07
5.84205e-07
2.59327e-06
2.59298e-06
4.04156e-07
2.59288e-06
2.59256e-06
2.48768e-05
2.48773e-05
2.488e-05
2.48806e-05
4.04321e-07
2.59265e-06
2.59232e-06
2.59316e-06
2.59295e-06
2.4877e-05
2.4878e-05
5.84234e-07
1.26029e-06
3.71706e-07
3.82405e-07
5.8434e-07
1.25992e-06
3.71671e-07
1.55566e-06
8.01905e-06
1.55569e-06
8.0212e-06
5.84237e-07
3.71708e-07
1.26036e-06
3.82421e-07
5.84345e-07
3.71673e-07
1.26e-06
1.55604e-06
8.02182e-06
8.02193e-06
1.55567e-06
5.84342e-07
3.8236e-07
1.25992e-06
3.71581e-07
1.26046e-06
3.71621e-07
5.84205e-07
1.55605e-06
8.02217e-06
8.02225e-06
1.55569e-06
5.84346e-07
3.82376e-07
3.71582e-07
1.26e-06
3.71623e-07
1.26054e-06
5.8421e-07
1.55581e-06
8.01976e-06
1.5559e-06
8.02106e-06
5.84238e-07
3.71706e-07
1.26003e-06
3.82414e-07
5.84345e-07
3.71671e-07
1.2597e-06
1.55581e-06
8.01862e-06
1.5559e-06
8.02087e-06
5.84342e-07
3.82334e-07
1.25973e-06
3.71577e-07
1.2603e-06
3.71614e-07
5.84206e-07
1.55625e-06
8.02104e-06
8.02131e-06
1.55584e-06
5.84346e-07
3.82368e-07
3.71579e-07
1.2597e-06
3.7162e-07
1.26021e-06
5.8421e-07
1.55625e-06
8.0218e-06
8.02189e-06
1.55584e-06
2.59348e-06
2.59252e-06
4.04201e-07
2.59332e-06
2.59242e-06
2.48773e-05
2.48799e-05
2.48808e-05
2.48816e-05
4.04365e-07
2.59313e-06
2.59225e-06
2.59376e-06
2.59277e-06
2.48801e-05
2.48806e-05
5.84221e-07
3.71706e-07
1.26015e-06
3.82404e-07
5.8433e-07
3.71671e-07
1.25981e-06
1.55564e-06
8.01878e-06
1.55568e-06
8.02104e-06
1.55564e-06
8.0191e-06
1.55568e-06
8.02135e-06
5.84335e-07
3.8236e-07
3.71581e-07
1.2597e-06
3.7162e-07
1.26021e-06
5.84197e-07
5.84331e-07
3.82358e-07
3.7158e-07
1.25982e-06
3.71621e-07
1.26033e-06
5.84193e-07
1.55603e-06
8.02195e-06
8.02204e-06
1.55567e-06
1.55603e-06
8.02227e-06
8.02237e-06
1.55567e-06
2.48775e-05
2.48802e-05
2.48786e-05
2.48813e-05
4.04362e-07
2.59227e-06
2.59282e-06
2.5928e-06
2.59335e-06
2.48803e-05
2.48809e-05
2.48814e-05
2.4882e-05
2.48787e-05
2.48781e-05
2.48816e-05
2.48809e-05
2.59246e-06
2.59304e-06
4.04079e-07
2.59207e-06
2.59264e-06
2.4878e-05
2.48786e-05
2.48809e-05
2.48814e-05
4.04261e-07
2.59203e-06
2.59262e-06
2.5924e-06
2.59297e-06
1.55578e-06
8.02149e-06
1.55618e-06
8.02128e-06
5.84195e-07
1.2601e-06
3.71555e-07
3.82299e-07
5.84317e-07
1.25958e-06
3.71544e-07
5.84194e-07
1.26023e-06
3.71553e-07
3.82296e-07
5.84316e-07
1.25971e-06
3.71543e-07
1.55615e-06
8.02064e-06
8.02083e-06
1.55576e-06
1.55615e-06
8.02126e-06
8.02145e-06
1.55576e-06
5.84309e-07
3.82293e-07
1.25957e-06
3.71536e-07
1.26007e-06
3.71536e-07
5.84193e-07
5.84308e-07
3.82291e-07
1.2597e-06
3.71536e-07
1.2602e-06
3.71536e-07
5.84191e-07
2.59297e-06
2.59272e-06
4.04072e-07
2.59258e-06
2.59225e-06
2.48777e-05
2.48769e-05
2.48799e-05
2.48804e-05
4.04256e-07
2.59256e-06
2.59224e-06
2.59291e-06
2.59268e-06
2.48768e-05
2.48776e-05
5.84193e-07
1.26042e-06
3.71555e-07
3.8229e-07
5.84314e-07
1.25988e-06
3.71544e-07
1.55565e-06
8.02235e-06
1.55601e-06
8.02207e-06
5.84198e-07
3.71557e-07
1.2605e-06
3.82306e-07
5.8432e-07
3.71546e-07
1.25995e-06
1.55596e-06
8.02173e-06
8.02197e-06
1.55562e-06
5.84304e-07
3.82284e-07
1.25987e-06
3.71537e-07
1.2604e-06
3.71537e-07
5.8419e-07
1.55598e-06
8.02202e-06
8.02226e-06
1.55563e-06
5.8431e-07
3.823e-07
3.71538e-07
1.25994e-06
3.71539e-07
1.26047e-06
5.84195e-07
1.5558e-06
8.02122e-06
1.55621e-06
8.02096e-06
5.84198e-07
3.71555e-07
1.26018e-06
3.82299e-07
5.84319e-07
3.71544e-07
1.25966e-06
1.5558e-06
8.02196e-06
1.55621e-06
8.02172e-06
5.84306e-07
3.8228e-07
1.25969e-06
3.71536e-07
1.26021e-06
3.71537e-07
5.84191e-07
1.55617e-06
8.02093e-06
8.02115e-06
1.55578e-06
5.8431e-07
3.82292e-07
3.71537e-07
1.25965e-06
3.71537e-07
1.26015e-06
5.84196e-07
1.55617e-06
8.02168e-06
8.02189e-06
1.55578e-06
2.59351e-06
2.59256e-06
4.04086e-07
2.593e-06
2.59216e-06
2.48805e-05
2.48799e-05
2.48805e-05
2.48813e-05
4.04267e-07
2.59298e-06
2.59214e-06
2.59342e-06
2.5925e-06
2.48798e-05
2.48804e-05
5.84182e-07
3.71555e-07
1.2603e-06
3.82289e-07
5.84304e-07
3.71544e-07
1.25978e-06
1.55563e-06
8.0221e-06
1.55599e-06
8.02186e-06
1.55563e-06
8.02243e-06
1.55599e-06
8.02219e-06
5.84298e-07
3.82286e-07
3.71536e-07
1.25965e-06
3.71538e-07
1.26014e-06
5.84182e-07
5.84295e-07
3.82282e-07
3.71536e-07
1.25977e-06
3.71537e-07
1.26027e-06
5.84179e-07
1.55596e-06
8.02182e-06
8.02203e-06
1.55562e-06
1.55596e-06
8.02215e-06
8.02235e-06
1.55562e-06
2.48808e-05
2.48801e-05
2.48819e-05
2.48812e-05
4.04264e-07
2.59216e-06
2.59271e-06
2.59252e-06
2.59306e-06
2.488e-05
2.48806e-05
2.48812e-05
2.48818e-05
2.48786e-05
2.4878e-05
2.48814e-05
2.48809e-05
2.59237e-06
2.59296e-06
4.04092e-07
2.59201e-06
2.59262e-06
2.4878e-05
2.48786e-05
2.48809e-05
2.48814e-05
4.04277e-07
2.59201e-06
2.59262e-06
2.59235e-06
2.59295e-06
1.55576e-06
8.02144e-06
1.55614e-06
8.0211e-06
5.84194e-07
1.26007e-06
3.71539e-07
3.82295e-07
5.84307e-07
1.25957e-06
3.71539e-07
5.84192e-07
1.2602e-06
3.7154e-07
3.82294e-07
5.84306e-07
1.25973e-06
3.7154e-07
1.55614e-06
8.02057e-06
8.02081e-06
1.55576e-06
1.55614e-06
8.02102e-06
8.02129e-06
1.55576e-06
5.84309e-07
3.82293e-07
1.25957e-06
3.71537e-07
1.26006e-06
3.71538e-07
5.84195e-07
5.84308e-07
3.82292e-07
1.25979e-06
3.71536e-07
1.26027e-06
3.71538e-07
5.84194e-07
2.5929e-06
2.59268e-06
4.04088e-07
2.59266e-06
2.59225e-06
2.48776e-05
2.48768e-05
2.48786e-05
2.48795e-05
4.04271e-07
2.5928e-06
2.59225e-06
2.59313e-06
2.59268e-06
2.48768e-05
2.48776e-05
5.84191e-07
1.26039e-06
3.71539e-07
3.82286e-07
5.84302e-07
1.25987e-06
3.7154e-07
1.55563e-06
8.02222e-06
1.55596e-06
8.022e-06
5.84195e-07
3.71542e-07
1.26046e-06
3.82302e-07
5.84308e-07
3.71542e-07
1.25994e-06
1.55595e-06
8.02172e-06
8.02195e-06
1.55561e-06
5.84304e-07
3.82284e-07
1.25987e-06
3.71537e-07
1.26039e-06
3.71537e-07
5.84192e-07
1.55596e-06
8.022e-06
8.02221e-06
1.55563e-06
5.8431e-07
3.82301e-07
3.71539e-07
1.25994e-06
3.7154e-07
1.26046e-06
5.84197e-07
1.55578e-06
8.02114e-06
1.55616e-06
8.02092e-06
5.84196e-07
3.7154e-07
1.26014e-06
3.82295e-07
5.84308e-07
3.7154e-07
1.25965e-06
1.55578e-06
8.02186e-06
1.55616e-06
8.02167e-06
5.84306e-07
3.82281e-07
1.25969e-06
3.71535e-07
1.2602e-06
3.71538e-07
5.84193e-07
1.55616e-06
8.02092e-06
8.02113e-06
1.55578e-06
5.84309e-07
3.82293e-07
3.71537e-07
1.25965e-06
3.71538e-07
1.26014e-06
5.84198e-07
1.55616e-06
8.02166e-06
8.02185e-06
1.55578e-06
2.59341e-06
2.59249e-06
4.04099e-07
2.59298e-06
2.59214e-06
2.48804e-05
2.48798e-05
2.48805e-05
2.48813e-05
4.04283e-07
2.59298e-06
2.59214e-06
2.59341e-06
2.59249e-06
2.48798e-05
2.48804e-05
5.8418e-07
3.71539e-07
1.26026e-06
3.82285e-07
5.84293e-07
3.71539e-07
1.25977e-06
1.55561e-06
8.022e-06
1.55595e-06
8.02181e-06
1.55561e-06
8.02232e-06
1.55595e-06
8.02213e-06
5.84297e-07
3.82287e-07
3.71536e-07
1.25965e-06
3.71538e-07
1.26013e-06
5.84183e-07
5.84294e-07
3.82284e-07
3.71536e-07
1.25977e-06
3.71538e-07
1.26026e-06
5.84181e-07
1.55595e-06
8.02181e-06
8.02199e-06
1.55561e-06
1.55595e-06
8.02213e-06
8.02231e-06
1.55561e-06
2.48806e-05
2.488e-05
2.48817e-05
2.48812e-05
4.04281e-07
2.59216e-06
2.59271e-06
2.59251e-06
2.59305e-06
2.488e-05
2.48806e-05
2.48812e-05
2.48817e-05
2.48786e-05
2.48785e-05
2.48814e-05
2.48809e-05
2.59237e-06
2.59296e-06
4.04085e-07
2.59205e-06
2.59262e-06
2.48785e-05
2.48791e-05