/*--------------------------------*- C++ -*----------------------------------*\
| =========                 |                                                 |
| \\      /  F ield         | OpenFOAM: The Open Source CFD Toolbox           |
|  \\    /   O peration     | Version:  2206                                  |
|   \\  /    A nd           | Website:  www.openfoam.com                      |
|    \\/     M anipulation  |                                                 |
\*---------------------------------------------------------------------------*/
FoamFile
{
    version     2.0;
    format      ascii;
    arch        "LSB;label=32;scalar=64";
    class       volScalarField;
    location    "15.5";
    object      k;
}
// * * * * * * * * * * * * * * * * * * * * * * * * * * * * * * * * * * * * * //

dimensions      [0 2 -2 0 0 0 0];

internalField   nonuniform List<scalar> 
28687
(
3.06019e-05
3.04439e-05
3.04439e-05
3.02194e-05
3.06018e-05
3.0444e-05
3.04438e-05
3.02198e-05
3.06017e-05
3.0444e-05
3.04437e-05
3.022e-05
3.05999e-05
3.04405e-05
3.04419e-05
3.02177e-05
3.05928e-05
3.04339e-05
3.0434e-05
3.02092e-05
3.05924e-05
3.04338e-05
3.04338e-05
3.02091e-05
3.05924e-05
3.04338e-05
3.04338e-05
3.02091e-05
3.05924e-05
3.04338e-05
3.04338e-05
3.02091e-05
3.05924e-05
3.04338e-05
3.04338e-05
3.02091e-05
3.05924e-05
3.04338e-05
3.04338e-05
3.02091e-05
3.05924e-05
3.04338e-05
3.04338e-05
3.02091e-05
3.05924e-05
3.04338e-05
3.04338e-05
3.02091e-05
3.05924e-05
3.04338e-05
3.04338e-05
3.02091e-05
3.05924e-05
3.04338e-05
3.04338e-05
3.02091e-05
3.05924e-05
3.04338e-05
3.04338e-05
3.02091e-05
3.05924e-05
3.04338e-05
3.04338e-05
3.02091e-05
3.05924e-05
3.04338e-05
3.04338e-05
3.02091e-05
3.05924e-05
3.04338e-05
3.04338e-05
3.02091e-05
3.04439e-05
3.02217e-05
3.0444e-05
3.02193e-05
3.02216e-05
3.04438e-05
3.04439e-05
3.04438e-05
3.04438e-05
3.02202e-05
3.02217e-05
3.04439e-05
3.04437e-05
3.04439e-05
3.04437e-05
3.04439e-05
3.0444e-05
3.04438e-05
3.02192e-05
3.02215e-05
3.0444e-05
3.04438e-05
3.04439e-05
3.02215e-05
3.02202e-05
3.02216e-05
3.04438e-05
3.04439e-05
3.04437e-05
3.04439e-05
3.02203e-05
3.02218e-05
3.04439e-05
3.04437e-05
3.04438e-05
3.04436e-05
3.04438e-05
3.0444e-05
3.04437e-05
3.022e-05
3.02215e-05
3.04439e-05
3.04437e-05
3.04438e-05
3.02217e-05
3.02202e-05
3.02205e-05
3.04437e-05
3.04439e-05
3.0443e-05
3.04425e-05
3.02203e-05
3.02193e-05
3.04438e-05
3.04435e-05
3.04431e-05
3.04429e-05
3.04437e-05
3.04428e-05
3.0443e-05
3.022e-05
3.02204e-05
3.04438e-05
3.04431e-05
3.04431e-05
3.02205e-05
3.02182e-05
3.02114e-05
3.04419e-05
3.044e-05
3.04348e-05
3.04342e-05
3.02161e-05
3.02109e-05
3.0442e-05
3.04418e-05
3.04349e-05
3.04347e-05
3.04419e-05
3.04344e-05
3.04348e-05
3.0218e-05
3.02112e-05
3.0442e-05
3.04349e-05
3.04349e-05
3.02114e-05
3.02095e-05
3.02108e-05
3.04341e-05
3.04339e-05
3.04337e-05
3.04337e-05
3.02093e-05
3.02108e-05
3.04342e-05
3.0434e-05
3.04338e-05
3.04336e-05
3.04341e-05
3.04338e-05
3.04337e-05
3.02094e-05
3.02107e-05
3.04342e-05
3.04338e-05
3.04338e-05
3.02108e-05
3.02094e-05
3.02108e-05
3.04338e-05
3.04338e-05
3.04337e-05
3.04337e-05
3.02093e-05
3.02107e-05
3.04339e-05
3.04337e-05
3.04338e-05
3.04336e-05
3.04338e-05
3.04338e-05
3.04337e-05
3.02093e-05
3.02106e-05
3.04339e-05
3.04338e-05
3.04338e-05
3.02108e-05
3.02093e-05
3.02108e-05
3.04338e-05
3.04338e-05
3.04337e-05
3.04337e-05
3.02093e-05
3.02107e-05
3.04339e-05
3.04337e-05
3.04338e-05
3.04336e-05
3.04338e-05
3.04339e-05
3.04337e-05
3.02092e-05
3.02106e-05
3.04339e-05
3.04338e-05
3.04338e-05
3.02108e-05
3.02093e-05
3.02107e-05
3.04338e-05
3.04338e-05
3.04337e-05
3.04337e-05
3.02093e-05
3.02107e-05
3.04339e-05
3.04337e-05
3.04338e-05
3.04336e-05
3.04338e-05
3.04339e-05
3.04337e-05
3.02092e-05
3.02106e-05
3.04339e-05
3.04338e-05
3.04338e-05
3.02108e-05
3.02093e-05
3.02107e-05
3.04338e-05
3.04338e-05
3.04337e-05
3.04337e-05
3.02093e-05
3.02107e-05
3.04339e-05
3.04337e-05
3.04338e-05
3.04336e-05
3.04338e-05
3.04339e-05
3.04337e-05
3.02092e-05
3.02106e-05
3.04339e-05
3.04338e-05
3.04338e-05
3.02108e-05
3.02093e-05
3.02108e-05
3.04338e-05
3.04338e-05
3.04337e-05
3.04337e-05
3.02093e-05
3.02107e-05
3.04339e-05
3.04337e-05
3.04338e-05
3.04336e-05
3.04338e-05
3.04339e-05
3.04337e-05
3.02092e-05
3.02106e-05
3.04339e-05
3.04338e-05
3.04338e-05
3.02108e-05
3.02093e-05
3.02107e-05
3.04338e-05
3.04338e-05
3.04337e-05
3.04337e-05
3.02093e-05
3.02107e-05
3.04339e-05
3.04337e-05
3.04338e-05
3.04336e-05
3.04338e-05
3.04339e-05
3.04337e-05
3.02092e-05
3.02106e-05
3.04339e-05
3.04338e-05
3.04338e-05
3.02108e-05
3.02093e-05
3.02107e-05
3.04338e-05
3.04338e-05
3.04337e-05
3.04337e-05
3.02093e-05
3.02107e-05
3.04339e-05
3.04337e-05
3.04338e-05
3.04336e-05
3.04338e-05
3.04339e-05
3.04337e-05
3.02092e-05
3.02106e-05
3.04339e-05
3.04338e-05
3.04338e-05
3.02108e-05
3.02093e-05
3.02107e-05
3.04338e-05
3.04338e-05
3.04337e-05
3.04337e-05
3.02093e-05
3.02107e-05
3.04339e-05
3.04337e-05
3.04338e-05
3.04336e-05
3.04338e-05
3.04339e-05
3.04337e-05
3.02092e-05
3.02106e-05
3.04339e-05
3.04338e-05
3.04338e-05
3.02108e-05
3.02093e-05
3.02107e-05
3.04338e-05
3.04338e-05
3.04337e-05
3.04337e-05
3.02093e-05
3.02107e-05
3.04339e-05
3.04337e-05
3.04338e-05
3.04336e-05
3.04338e-05
3.04339e-05
3.04337e-05
3.02092e-05
3.02106e-05
3.04339e-05
3.04338e-05
3.04338e-05
3.02108e-05
3.02093e-05
3.02107e-05
3.04338e-05
3.04338e-05
3.04337e-05
3.04337e-05
3.02093e-05
3.02107e-05
3.04339e-05
3.04337e-05
3.04338e-05
3.04336e-05
3.04338e-05
3.04339e-05
3.04337e-05
3.02092e-05
3.02106e-05
3.04339e-05
3.04338e-05
3.04338e-05
3.02108e-05
3.02093e-05
3.02107e-05
3.04338e-05
3.04338e-05
3.04337e-05
3.04337e-05
3.02093e-05
3.02107e-05
3.04339e-05
3.04337e-05
3.04338e-05
3.04336e-05
3.04338e-05
3.04339e-05
3.04337e-05
3.02092e-05
3.02106e-05
3.04339e-05
3.04338e-05
3.04338e-05
3.02108e-05
3.02093e-05
3.02107e-05
3.04338e-05
3.04338e-05
3.04337e-05
3.04337e-05
3.02093e-05
3.02107e-05
3.04339e-05
3.04337e-05
3.04338e-05
3.04336e-05
3.04338e-05
3.04339e-05
3.04337e-05
3.02092e-05
3.02106e-05
3.04339e-05
3.04338e-05
3.04338e-05
3.02108e-05
3.02093e-05
3.04338e-05
3.04338e-05
3.02093e-05
3.04339e-05
3.04337e-05
3.04338e-05
3.02092e-05
3.04339e-05
3.14038e-05
6.53046e-05
3.14046e-05
6.53012e-05
8.49324e-05
8.49241e-05
3.14044e-05
6.53068e-05
3.1405e-05
6.53029e-05
3.06022e-05
3.06019e-05
3.06019e-05
3.06019e-05
3.06021e-05
3.06019e-05
3.06019e-05
2.96697e-05
3.10847e-05
3.05498e-05
3.04442e-05
2.96699e-05
3.1083e-05
3.05498e-05
8.49336e-05
8.49254e-05
2.96699e-05
3.05496e-05
3.10842e-05
3.04439e-05
2.967e-05
3.05496e-05
3.10825e-05
3.33047e-05
3.3305e-05
3.02216e-05
3.33067e-05
3.3307e-05
3.14064e-05
6.53019e-05
3.14069e-05
6.52993e-05
8.49203e-05
8.49175e-05
3.1407e-05
6.53039e-05
3.14072e-05
6.5301e-05
3.06021e-05
3.06018e-05
3.06019e-05
3.06017e-05
3.06019e-05
3.06017e-05
3.06017e-05
2.96701e-05
3.10857e-05
3.05496e-05
3.04441e-05
2.96698e-05
3.10844e-05
3.05496e-05
8.49195e-05
8.49155e-05
2.96702e-05
3.05495e-05
3.10848e-05
3.04438e-05
2.96698e-05
3.05495e-05
3.10835e-05
3.33117e-05
3.3312e-05
3.02216e-05
3.33127e-05
3.33131e-05
3.14073e-05
6.53005e-05
3.14086e-05
6.52985e-05
8.4918e-05
8.4919e-05
3.14079e-05
6.53025e-05
3.1409e-05
6.53005e-05
3.06019e-05
3.06017e-05
3.06017e-05
3.06011e-05
3.0601e-05
3.06011e-05
3.06011e-05
2.96702e-05
3.10874e-05
3.05496e-05
3.04439e-05
2.96705e-05
3.10853e-05
3.05495e-05
8.49159e-05
8.49147e-05
2.96702e-05
3.05494e-05
3.10866e-05
3.04436e-05
2.96705e-05
3.05494e-05
3.10849e-05
3.33161e-05
3.33164e-05
3.02216e-05
3.33154e-05
3.33158e-05
3.14028e-05
6.53073e-05
3.14071e-05
6.53187e-05
8.49334e-05
8.49343e-05
3.14034e-05
6.53095e-05
3.14074e-05
6.532e-05
3.05994e-05
3.06e-05
3.06e-05
3.05937e-05
3.05934e-05
3.05937e-05
3.05937e-05
2.96632e-05
3.10854e-05
3.05473e-05
3.04378e-05
2.96687e-05
3.10791e-05
3.05448e-05
8.49261e-05
8.4931e-05
2.96634e-05
3.05476e-05
3.10856e-05
3.04392e-05
2.96688e-05
3.05451e-05
3.10804e-05
3.33149e-05
3.33152e-05
3.02161e-05
3.33113e-05
3.33116e-05
3.13954e-05
6.53247e-05
3.13975e-05
6.53225e-05
8.49352e-05
8.49339e-05
3.13961e-05
6.53268e-05
3.13979e-05
6.53244e-05
3.05928e-05
3.05929e-05
3.05929e-05
3.05924e-05
3.05924e-05
3.05924e-05
3.05924e-05
2.96575e-05
3.1076e-05
3.05402e-05
3.04339e-05
2.96575e-05
3.10732e-05
3.05401e-05
8.49331e-05
8.49311e-05
2.96577e-05
3.05402e-05
3.10766e-05
3.04339e-05
2.96576e-05
3.05401e-05
3.10736e-05
3.33025e-05
3.33028e-05
3.02108e-05
3.33008e-05
3.33011e-05
3.13951e-05
6.53243e-05
3.13964e-05
6.53223e-05
8.4935e-05
8.49322e-05
3.13959e-05
6.53264e-05
3.1397e-05
6.53242e-05
3.05926e-05
3.05926e-05
3.05926e-05
3.05924e-05
3.05924e-05
3.05924e-05
3.05924e-05
2.96575e-05
3.10751e-05
3.05399e-05
3.04339e-05
2.96573e-05
3.1073e-05
3.054e-05
8.49327e-05
8.4931e-05
2.96577e-05
3.05399e-05
3.10752e-05
3.04339e-05
2.96575e-05
3.054e-05
3.10732e-05
3.33017e-05
3.3302e-05
3.02108e-05
3.33008e-05
3.3301e-05
3.13951e-05
6.53241e-05
3.13964e-05
6.53222e-05
8.49332e-05
8.49328e-05
3.13959e-05
6.53263e-05
3.13969e-05
6.53242e-05
3.05926e-05
3.05925e-05
3.05925e-05
3.05924e-05
3.05925e-05
3.05924e-05
3.05924e-05
2.96575e-05
3.10751e-05
3.05399e-05
3.04339e-05
2.96574e-05
3.1073e-05
3.054e-05
8.49326e-05
8.4931e-05
2.96577e-05
3.05398e-05
3.10751e-05
3.04339e-05
2.96575e-05
3.054e-05
3.10732e-05
3.33017e-05
3.3302e-05
3.02109e-05
3.33008e-05
3.33011e-05
3.13951e-05
6.5324e-05
3.13964e-05
6.53221e-05
8.49347e-05
8.49338e-05
3.13959e-05
6.53264e-05
3.1397e-05
6.53242e-05
3.05926e-05
3.05925e-05
3.05925e-05
3.05924e-05
3.05925e-05
3.05924e-05
3.05924e-05
2.96575e-05
3.10751e-05
3.05399e-05
3.04339e-05
2.96573e-05
3.1073e-05
3.054e-05
8.49327e-05
8.4931e-05
2.96577e-05
3.05398e-05
3.10751e-05
3.04339e-05
2.96575e-05
3.054e-05
3.10732e-05
3.33017e-05
3.3302e-05
3.02109e-05
3.33008e-05
3.3301e-05
3.13951e-05
6.53241e-05
3.13964e-05
6.5322e-05
8.49349e-05
8.49333e-05
3.13959e-05
6.53264e-05
3.1397e-05
6.53248e-05
3.05926e-05
3.05925e-05
3.05925e-05
3.05924e-05
3.05924e-05
3.05924e-05
3.05924e-05
2.96575e-05
3.10751e-05
3.05399e-05
3.04339e-05
2.96573e-05
3.1073e-05
3.054e-05
8.49327e-05
8.4931e-05
2.96577e-05
3.05398e-05
3.10751e-05
3.04339e-05
2.96575e-05
3.054e-05
3.10732e-05
3.33017e-05
3.3302e-05
3.02109e-05
3.33008e-05
3.33011e-05
3.13951e-05
6.53236e-05
3.13964e-05
6.53213e-05
8.49345e-05
8.49333e-05
3.13959e-05
6.5327e-05
3.1397e-05
6.53253e-05
3.05926e-05
3.05925e-05
3.05925e-05
3.05924e-05
3.05925e-05
3.05924e-05
3.05924e-05
2.96575e-05
3.10751e-05
3.05399e-05
3.04339e-05
2.96573e-05
3.1073e-05
3.054e-05
8.49327e-05
8.4931e-05
2.96577e-05
3.05398e-05
3.10751e-05
3.04339e-05
2.96575e-05
3.054e-05
3.10732e-05
3.33018e-05
3.3302e-05
3.02109e-05
3.33008e-05
3.33011e-05
3.13951e-05
6.53231e-05
3.13964e-05
6.53209e-05
8.49345e-05
8.49333e-05
3.13959e-05
6.53275e-05
3.1397e-05
6.53256e-05
3.05926e-05
3.05925e-05
3.05925e-05
3.05924e-05
3.05925e-05
3.05924e-05
3.05924e-05
2.96575e-05
3.10751e-05
3.05399e-05
3.04339e-05
2.96573e-05
3.1073e-05
3.054e-05
8.49327e-05
8.4931e-05
2.96577e-05
3.05398e-05
3.10751e-05
3.04339e-05
2.96575e-05
3.054e-05
3.10732e-05
3.33018e-05
3.3302e-05
3.02109e-05
3.33008e-05
3.33011e-05
3.13951e-05
6.53228e-05
3.13964e-05
6.53207e-05
8.49346e-05
8.49334e-05
3.13959e-05
6.53277e-05
3.1397e-05
6.53257e-05
3.05926e-05
3.05925e-05
3.05925e-05
3.05924e-05
3.05925e-05
3.05924e-05
3.05924e-05
2.96575e-05
3.10751e-05
3.05399e-05
3.04339e-05
2.96573e-05
3.1073e-05
3.054e-05
8.49327e-05
8.4931e-05
2.96577e-05
3.05398e-05
3.10751e-05
3.04339e-05
2.96575e-05
3.054e-05
3.10732e-05
3.33018e-05
3.3302e-05
3.02109e-05
3.33008e-05
3.33011e-05
3.13951e-05
6.53228e-05
3.13964e-05
6.53207e-05
8.49346e-05
8.49334e-05
3.13959e-05
6.53278e-05
3.1397e-05
6.53258e-05
3.05926e-05
3.05925e-05
3.05925e-05
3.05924e-05
3.05925e-05
3.05924e-05
3.05924e-05
2.96575e-05
3.10751e-05
3.05399e-05
3.04339e-05
2.96573e-05
3.1073e-05
3.054e-05
8.49327e-05
8.4931e-05
2.96577e-05
3.05398e-05
3.10752e-05
3.04339e-05
2.96575e-05
3.054e-05
3.10732e-05
3.33018e-05
3.3302e-05
3.02109e-05
3.33008e-05
3.33011e-05
3.13951e-05
6.53228e-05
3.13964e-05
6.53207e-05
8.49347e-05
8.49334e-05
3.13959e-05
6.53278e-05
3.1397e-05
6.53258e-05
3.05926e-05
3.05925e-05
3.05925e-05
3.05924e-05
3.05925e-05
3.05924e-05
3.05924e-05
2.96575e-05
3.10751e-05
3.05399e-05
3.04339e-05
2.96573e-05
3.1073e-05
3.054e-05
8.49327e-05
8.4931e-05
2.96577e-05
3.05398e-05
3.10752e-05
3.04339e-05
2.96575e-05
3.054e-05
3.10732e-05
3.33018e-05
3.3302e-05
3.02109e-05
3.33008e-05
3.3301e-05
3.13951e-05
6.53228e-05
3.13964e-05
6.53207e-05
8.49347e-05
8.49334e-05
3.13959e-05
6.53278e-05
3.1397e-05
6.53258e-05
3.05926e-05
3.05925e-05
3.05925e-05
3.05924e-05
3.05925e-05
3.05924e-05
3.05924e-05
2.96575e-05
3.10751e-05
3.05399e-05
3.04339e-05
2.96573e-05
3.1073e-05
3.054e-05
8.49327e-05
8.4931e-05
2.96577e-05
3.05398e-05
3.10752e-05
3.04339e-05
2.96575e-05
3.054e-05
3.10732e-05
3.33018e-05
3.3302e-05
3.02109e-05
3.33008e-05
3.33011e-05
3.13951e-05
6.53228e-05
3.13964e-05
6.53207e-05
8.49347e-05
8.49334e-05
3.13959e-05
6.53278e-05
3.1397e-05
6.53258e-05
3.05926e-05
3.05925e-05
3.05925e-05
3.05924e-05
3.05925e-05
3.05924e-05
3.05924e-05
2.96575e-05
3.10751e-05
3.05399e-05
3.04339e-05
2.96573e-05
3.1073e-05
3.054e-05
8.49327e-05
8.4931e-05
2.96577e-05
3.05398e-05
3.10751e-05
3.04339e-05
2.96575e-05
3.054e-05
3.10732e-05
3.33018e-05
3.3302e-05
3.02109e-05
3.33008e-05
3.33011e-05
3.13951e-05
6.53228e-05
3.13964e-05
6.53207e-05
8.49346e-05
8.49334e-05
3.13959e-05
6.53278e-05
3.1397e-05
6.53258e-05
3.05926e-05
3.05925e-05
3.05925e-05
3.05924e-05
3.05924e-05
3.05924e-05
3.05924e-05
2.96575e-05
3.10751e-05
3.05399e-05
3.04339e-05
2.96573e-05
3.1073e-05
3.054e-05
8.49326e-05
8.4931e-05
2.96577e-05
3.05398e-05
3.10751e-05
3.04339e-05
2.96575e-05
3.054e-05
3.10732e-05
3.33018e-05
3.3302e-05
3.02109e-05
3.33008e-05
3.3301e-05
3.13952e-05
6.53228e-05
3.13964e-05
6.53212e-05
8.49346e-05
8.49334e-05
3.13959e-05
6.53278e-05
3.1397e-05
6.53264e-05
3.05925e-05
3.05925e-05
3.05925e-05
2.96575e-05
3.10751e-05
3.05399e-05
3.04339e-05
2.96573e-05
3.1073e-05
3.054e-05
8.49327e-05
8.49311e-05
2.9658e-05
3.05398e-05
3.10751e-05
3.0434e-05
2.96575e-05
3.054e-05
3.10735e-05
3.33018e-05
3.3302e-05
3.02111e-05
3.33008e-05
3.33009e-05
6.53032e-05
3.10832e-05
8.49331e-05
3.3305e-05
3.33011e-05
8.49287e-05
3.10824e-05
6.53011e-05
8.49352e-05
8.49276e-05
8.49363e-05
8.49287e-05
3.33048e-05
3.3305e-05
3.02216e-05
3.33068e-05
3.33069e-05
8.49211e-05
8.4927e-05
8.49223e-05
8.49281e-05
3.02202e-05
3.33101e-05
3.33102e-05
3.33088e-05
3.33089e-05
3.1404e-05
6.53043e-05
3.14048e-05
6.53023e-05
2.96697e-05
3.10841e-05
3.05496e-05
3.04438e-05
2.96698e-05
3.10824e-05
3.05496e-05
2.96698e-05
3.10858e-05
3.05498e-05
3.04439e-05
2.96699e-05
3.10837e-05
3.05498e-05
3.14058e-05
6.53001e-05
6.53019e-05
3.14053e-05
3.1406e-05
6.53013e-05
6.5303e-05
3.14055e-05
2.96702e-05
3.04438e-05
3.10827e-05
3.05496e-05
3.10849e-05
3.05496e-05
2.967e-05
2.96703e-05
3.04438e-05
3.10841e-05
3.05497e-05
3.10861e-05
3.05497e-05
2.96702e-05
3.33075e-05
3.33041e-05
3.02217e-05
3.3309e-05
3.33053e-05
8.49289e-05
8.492e-05
8.49198e-05
8.4924e-05
3.02203e-05
3.33122e-05
3.33085e-05
3.33111e-05
3.33079e-05
8.49155e-05
8.49205e-05
2.967e-05
3.1085e-05
3.05497e-05
3.04439e-05
2.96701e-05
3.10832e-05
3.05496e-05
3.1404e-05
6.53063e-05
3.14046e-05
6.53025e-05
2.96698e-05
3.05496e-05
3.10842e-05
3.04437e-05
2.96699e-05
3.05496e-05
3.10824e-05
3.14062e-05
6.53019e-05
6.53039e-05
3.14059e-05
2.96705e-05
3.04439e-05
3.10835e-05
3.05496e-05
3.10858e-05
3.05496e-05
2.96703e-05
3.14058e-05
6.53014e-05
6.53034e-05
3.14054e-05
2.96703e-05
3.04437e-05
3.05495e-05
3.10827e-05
3.05496e-05
3.1085e-05
2.96701e-05
3.14039e-05
6.53023e-05
3.14047e-05
6.53001e-05
2.96697e-05
3.05496e-05
3.10841e-05
3.04439e-05
2.96699e-05
3.05496e-05
3.10824e-05
3.14038e-05
6.53068e-05
3.14045e-05
6.53033e-05
2.96703e-05
3.04441e-05
3.10834e-05
3.05497e-05
3.10856e-05
3.05497e-05
2.96698e-05
3.14059e-05
6.5299e-05
6.5301e-05
3.14054e-05
2.96702e-05
3.04438e-05
3.05496e-05
3.10827e-05
3.05496e-05
3.10849e-05
2.967e-05
3.14058e-05
6.53022e-05
6.5304e-05
3.14053e-05
3.33024e-05
3.33046e-05
3.02215e-05
3.33041e-05
3.33065e-05
8.4936e-05
8.49285e-05
8.49187e-05
8.49256e-05
3.02201e-05
3.33077e-05
3.33098e-05
3.33066e-05
3.33085e-05
8.4922e-05
8.49279e-05
2.967e-05
3.05496e-05
3.10846e-05
3.0444e-05
2.96701e-05
3.05496e-05
3.1083e-05
3.14041e-05
6.53072e-05
3.14047e-05
6.53037e-05
3.14042e-05
6.53083e-05
3.14048e-05
6.53048e-05
2.96704e-05
3.04439e-05
3.05496e-05
3.10828e-05
3.05496e-05
3.10849e-05
2.96699e-05
2.96705e-05
3.04439e-05
3.05496e-05
3.10833e-05
3.05496e-05
3.10854e-05
2.96702e-05
3.14059e-05
6.53026e-05
6.53044e-05
3.14055e-05
3.1406e-05
6.53037e-05
6.53055e-05
3.14056e-05
8.49361e-05
8.49286e-05
8.49366e-05
8.49291e-05
3.02202e-05
3.331e-05
3.33103e-05
3.33087e-05
3.3309e-05
8.4922e-05
8.4928e-05
8.49225e-05
8.49284e-05
8.49214e-05
8.49178e-05
8.49225e-05
8.4919e-05
3.33119e-05
3.3312e-05
3.02217e-05
3.33129e-05
3.3313e-05
8.49165e-05
8.49186e-05
8.49178e-05
8.49197e-05
3.02202e-05
3.33148e-05
3.3315e-05
3.33145e-05
3.33146e-05
3.14067e-05
6.5302e-05
3.14074e-05
6.53003e-05
2.96705e-05
3.10852e-05
3.05497e-05
3.04438e-05
2.96706e-05
3.10836e-05
3.05497e-05
2.96707e-05
3.10866e-05
3.05497e-05
3.04439e-05
2.96708e-05
3.1085e-05
3.05497e-05
3.14083e-05
6.52986e-05
6.53001e-05
3.14073e-05
3.14086e-05
6.52999e-05
6.53012e-05
3.14075e-05
2.96711e-05
3.04438e-05
3.10845e-05
3.05495e-05
3.10862e-05
3.05496e-05
2.96709e-05
2.96713e-05
3.04439e-05
3.10858e-05
3.05496e-05
3.10876e-05
3.05496e-05
2.96711e-05
3.3314e-05
3.33108e-05
3.02218e-05
3.33146e-05
3.3311e-05
8.49164e-05
8.4913e-05
8.49166e-05
8.49185e-05
3.02204e-05
3.33162e-05
3.33127e-05
3.33163e-05
3.33129e-05
8.49124e-05
8.49145e-05
2.96707e-05
3.10861e-05
3.05496e-05
3.04438e-05
2.96708e-05
3.10843e-05
3.05496e-05
3.14066e-05
6.53023e-05
3.14072e-05
6.53004e-05
2.96706e-05
3.05495e-05
3.10853e-05
3.04436e-05
2.96707e-05
3.05495e-05
3.10835e-05
3.14087e-05
6.53004e-05
6.53021e-05
3.14078e-05
2.96713e-05
3.04438e-05
3.10853e-05
3.05494e-05
3.1087e-05
3.05495e-05
2.96711e-05
3.14083e-05
6.52998e-05
6.53014e-05
3.14074e-05
2.96711e-05
3.04436e-05
3.05494e-05
3.10845e-05
3.05494e-05
3.10863e-05
2.96709e-05
3.14065e-05
6.52999e-05
3.14073e-05
6.5298e-05
2.96705e-05
3.05496e-05
3.10852e-05
3.04438e-05
2.96706e-05
3.05495e-05
3.10835e-05
3.14064e-05
6.53029e-05
3.14072e-05
6.53011e-05
2.96706e-05
3.04441e-05
3.10852e-05
3.05496e-05
3.10871e-05
3.05496e-05
2.96705e-05
3.14084e-05
6.52976e-05
6.52991e-05
3.14073e-05
2.9671e-05
3.04437e-05
3.05494e-05
3.10844e-05
3.05494e-05
3.10861e-05
2.96708e-05
3.14083e-05
6.53004e-05
6.53019e-05
3.14072e-05
3.33099e-05
3.33117e-05
3.02215e-05
3.33106e-05
3.33126e-05
8.49223e-05
8.49186e-05
8.49143e-05
8.49167e-05
3.02201e-05
3.33125e-05
3.33146e-05
3.33125e-05
3.33142e-05
8.49173e-05
8.49194e-05
2.96707e-05
3.05496e-05
3.10858e-05
3.04439e-05
2.96708e-05
3.05495e-05
3.1084e-05
3.14067e-05
6.53034e-05
3.14072e-05
6.53016e-05
3.14068e-05
6.53045e-05
3.14074e-05
6.53027e-05
2.96707e-05
3.04438e-05
3.05494e-05
3.10845e-05
3.05495e-05
3.10861e-05
2.96706e-05
2.96712e-05
3.04439e-05
3.05494e-05
3.1085e-05
3.05494e-05
3.10866e-05
2.9671e-05
3.14083e-05
6.53009e-05
6.53024e-05
3.14075e-05
3.14085e-05
6.5302e-05
6.53035e-05
3.14076e-05
8.49223e-05
8.49187e-05
8.49228e-05
8.49192e-05
3.02203e-05
3.33147e-05
3.33151e-05
3.33144e-05
3.33147e-05
8.49174e-05
8.49195e-05
8.49179e-05
8.492e-05
8.49177e-05
8.49167e-05
8.49188e-05
8.49179e-05
3.33163e-05
3.33165e-05
3.02215e-05
3.33156e-05
3.33158e-05
8.49223e-05
8.49188e-05
8.49235e-05
8.49199e-05
3.02199e-05
3.33144e-05
3.33146e-05
3.33164e-05
3.33167e-05
3.14077e-05
6.53009e-05
3.14093e-05
6.5301e-05
2.96704e-05
3.10871e-05
3.05495e-05
3.04436e-05
2.96713e-05
3.10849e-05
3.05494e-05
2.96707e-05
3.10882e-05
3.05496e-05
3.04438e-05
2.96716e-05
3.10857e-05
3.05495e-05
3.14088e-05
6.53022e-05
6.52999e-05
3.14061e-05
3.14091e-05
6.53099e-05
6.53028e-05
3.14063e-05
2.96702e-05
3.04434e-05
3.10842e-05
3.05488e-05
3.10873e-05
3.05492e-05
2.96694e-05
2.96705e-05
3.04434e-05
3.1084e-05
3.05487e-05
3.10879e-05
3.05492e-05
2.96694e-05
3.33175e-05
3.33142e-05
3.02214e-05
3.33158e-05
3.33126e-05
8.49144e-05
8.49148e-05
8.49283e-05
8.49221e-05
3.02197e-05
3.33141e-05
3.3311e-05
3.33167e-05
3.33138e-05
8.4924e-05
8.49182e-05
2.96704e-05
3.10879e-05
3.05494e-05
3.04437e-05
2.96713e-05
3.10857e-05
3.05494e-05
3.14076e-05
6.53009e-05
3.1409e-05
6.52999e-05
2.96703e-05
3.05494e-05
3.10872e-05
3.04435e-05
2.96712e-05
3.05493e-05
3.10849e-05
3.14091e-05
6.53041e-05
6.5302e-05
3.14067e-05
2.96703e-05
3.04435e-05
3.10849e-05
3.05488e-05
3.10881e-05
3.05492e-05
2.96695e-05
3.14088e-05
6.53032e-05
6.53014e-05
3.14063e-05
2.96701e-05
3.04433e-05
3.05488e-05
3.10842e-05
3.05491e-05
3.10874e-05
2.96693e-05
3.14074e-05
6.52988e-05
3.14091e-05
6.52992e-05
2.96701e-05
3.05495e-05
3.10869e-05
3.04436e-05
2.96708e-05
3.05494e-05
3.10848e-05
3.14073e-05
6.53014e-05
3.1409e-05
6.53004e-05
2.967e-05
3.04436e-05
3.1084e-05
3.05488e-05
3.10877e-05
3.05493e-05
2.96692e-05
3.14088e-05
6.53083e-05
6.53016e-05
3.14062e-05
2.967e-05
3.04434e-05
3.05488e-05
3.1084e-05
3.05492e-05
3.10871e-05
2.96693e-05
3.14087e-05
6.53037e-05
6.53017e-05
3.14061e-05
3.33142e-05
3.33161e-05
3.02213e-05
3.33133e-05
3.33154e-05
8.49185e-05
8.49175e-05
8.49206e-05
8.49175e-05
3.02198e-05
3.33121e-05
3.33142e-05
3.33144e-05
3.33163e-05
8.49231e-05
8.49196e-05
2.96704e-05
3.05494e-05
3.10875e-05
3.04437e-05
2.96711e-05
3.05494e-05
3.10854e-05
3.14076e-05
6.53018e-05
3.14091e-05
6.53008e-05
3.14077e-05
6.53029e-05
3.14092e-05
6.5302e-05
2.96701e-05
3.04435e-05
3.05488e-05
3.10841e-05
3.05492e-05
3.10872e-05
2.96692e-05
2.96702e-05
3.04435e-05
3.05488e-05
3.10845e-05
3.05492e-05
3.10876e-05
2.96695e-05
3.14088e-05
6.53041e-05
6.53021e-05
3.14064e-05
3.14089e-05
6.53053e-05
6.53033e-05
3.14065e-05
8.49186e-05
8.49176e-05
8.49191e-05
8.4918e-05
3.02201e-05
3.33142e-05
3.33145e-05
3.33163e-05
3.33166e-05
8.49232e-05
8.49197e-05
8.49236e-05
8.49201e-05
8.49271e-05
8.49332e-05
8.49285e-05
8.49346e-05
3.33151e-05
3.33154e-05
3.02162e-05
3.33113e-05
3.33115e-05
8.49335e-05
8.49348e-05
8.49348e-05
8.49361e-05
3.02126e-05
3.33022e-05
3.33025e-05
3.33105e-05
3.33107e-05
3.14027e-05
6.53178e-05
3.14075e-05
6.53252e-05
2.96631e-05
3.10861e-05
3.05476e-05
3.04391e-05
2.96688e-05
3.10806e-05
3.0545e-05
2.96628e-05
3.10855e-05
3.05473e-05
3.04374e-05
2.96688e-05
3.10788e-05
3.05446e-05
3.14031e-05
6.53229e-05
6.53236e-05
3.13968e-05
3.1403e-05
6.53251e-05
6.53263e-05
3.1397e-05
2.96607e-05
3.04365e-05
3.10754e-05
3.0541e-05
3.10815e-05
3.05426e-05
2.96577e-05
2.96605e-05
3.04354e-05
3.10749e-05
3.05408e-05
3.10798e-05
3.05423e-05
2.96578e-05
3.33146e-05
3.33118e-05
3.02136e-05
3.33067e-05
3.3304e-05
8.49297e-05
8.49309e-05
8.49341e-05
8.49355e-05
3.02107e-05
3.33011e-05
3.32976e-05
3.33057e-05
3.3304e-05
8.49303e-05
8.49324e-05
2.96634e-05
3.1087e-05
3.05477e-05
3.04392e-05
2.9669e-05
3.10813e-05
3.05451e-05
3.14029e-05
6.53076e-05
3.14074e-05
6.53192e-05
2.96633e-05
3.05476e-05
3.10863e-05
3.04391e-05
2.96688e-05
3.0545e-05
3.10807e-05
3.14031e-05
6.53247e-05
6.53253e-05
3.13973e-05
2.96609e-05
3.04366e-05
3.10761e-05
3.0541e-05
3.10824e-05
3.05427e-05
2.9658e-05
3.14027e-05
6.53247e-05
6.53251e-05
3.13971e-05
2.96608e-05
3.04365e-05
3.0541e-05
3.10755e-05
3.05426e-05
3.10818e-05
2.96578e-05
3.14029e-05
6.5316e-05
3.14075e-05
6.53232e-05
2.96633e-05
3.05476e-05
3.10859e-05
3.04391e-05
2.96688e-05
3.0545e-05
3.10804e-05
3.14027e-05
6.53078e-05
3.14073e-05
6.53199e-05
2.96609e-05
3.04357e-05
3.10743e-05
3.05409e-05
3.108e-05
3.05424e-05
2.96577e-05
3.14032e-05
6.53232e-05
6.53246e-05
3.1397e-05
2.96608e-05
3.04365e-05
3.0541e-05
3.10754e-05
3.05426e-05
3.10813e-05
2.96577e-05
3.14031e-05
6.53252e-05
6.53256e-05
3.13969e-05
3.33131e-05
3.33149e-05
3.0216e-05
3.33088e-05
3.33111e-05
8.4928e-05
8.4934e-05
8.49316e-05
8.49334e-05
3.02124e-05
3.32999e-05
3.33021e-05
3.33087e-05
3.33102e-05
8.49344e-05
8.49357e-05
2.96634e-05
3.05477e-05
3.10864e-05
3.04392e-05
2.9669e-05
3.0545e-05
3.10809e-05
3.1403e-05
6.53083e-05
3.14074e-05
6.53205e-05
3.14031e-05
6.53094e-05
3.14075e-05
6.53216e-05
2.9661e-05
3.04366e-05
3.0541e-05
3.10754e-05
3.05426e-05
3.10814e-05
2.96578e-05
2.9661e-05
3.04366e-05
3.0541e-05
3.10759e-05
3.05426e-05
3.10819e-05
2.9658e-05
3.14028e-05
6.53256e-05
6.53261e-05
3.13972e-05
3.14029e-05
6.53267e-05
6.53272e-05
3.13973e-05
8.49281e-05
8.49341e-05
8.49284e-05
8.49346e-05
3.02126e-05
3.33021e-05
3.33024e-05
3.33104e-05
3.33108e-05
8.49344e-05
8.49358e-05
8.49349e-05
8.49363e-05
8.49346e-05
8.49331e-05
8.49358e-05
8.49344e-05
3.33027e-05
3.33031e-05
3.02107e-05
3.3301e-05
3.33012e-05
8.4933e-05
8.49343e-05
8.49343e-05
8.49355e-05
3.02093e-05
3.33007e-05
3.33011e-05
3.3302e-05
3.33023e-05
3.13956e-05
6.5326e-05
3.1398e-05
6.53248e-05
2.96576e-05
3.10771e-05
3.05403e-05
3.04339e-05
2.96579e-05
3.10736e-05
3.05401e-05
2.96577e-05
3.10769e-05
3.05403e-05
3.04338e-05
2.9658e-05
3.10739e-05
3.054e-05
3.13969e-05
6.53224e-05
6.53234e-05
3.13952e-05
3.13971e-05
6.53247e-05
6.53257e-05
3.13954e-05
2.96579e-05
3.04337e-05
3.10732e-05
3.05399e-05
3.10758e-05
3.05399e-05
2.96576e-05
2.96581e-05
3.04337e-05
3.10738e-05
3.05399e-05
3.10763e-05
3.05399e-05
2.96577e-05
3.3302e-05
3.32987e-05
3.02107e-05
3.33005e-05
3.32971e-05
8.49318e-05
8.49298e-05
8.4934e-05
8.49351e-05
3.02093e-05
3.33005e-05
3.32971e-05
3.33016e-05
3.32985e-05
8.49298e-05
8.49315e-05
2.96579e-05
3.10779e-05
3.05403e-05
3.0434e-05
2.96582e-05
3.10743e-05
3.05401e-05
3.13957e-05
6.53257e-05
3.1398e-05
6.53241e-05
2.96578e-05
3.05403e-05
3.10772e-05
3.04338e-05
2.96581e-05
3.054e-05
3.10735e-05
3.13975e-05
6.53242e-05
6.53255e-05
3.13959e-05
2.96582e-05
3.04338e-05
3.1074e-05
3.05399e-05
3.10767e-05
3.05399e-05
2.96579e-05
3.13971e-05
6.53239e-05
6.53252e-05
3.13955e-05
2.96581e-05
3.04336e-05
3.05398e-05
3.10731e-05
3.05398e-05
3.10759e-05
2.96577e-05
3.13955e-05
6.53242e-05
3.1398e-05
6.53227e-05
2.96576e-05
3.05403e-05
3.1077e-05
3.04339e-05
2.96579e-05
3.05401e-05
3.10736e-05
3.13954e-05
6.5326e-05
3.13979e-05
6.53247e-05
2.96579e-05
3.04339e-05
3.1073e-05
3.05399e-05
3.10757e-05
3.054e-05
2.96574e-05
3.13971e-05
6.53226e-05
6.53238e-05
3.13953e-05
2.96579e-05
3.04337e-05
3.05399e-05
3.10732e-05
3.05399e-05
3.10758e-05
2.96576e-05
3.13969e-05
6.53245e-05
6.53256e-05
3.13951e-05
3.33003e-05
3.33026e-05
3.02106e-05
3.3298e-05
3.33008e-05
8.49355e-05
8.49339e-05
8.4931e-05
8.49328e-05
3.02092e-05
3.32979e-05
3.33007e-05
3.32992e-05
3.33018e-05
8.49338e-05
8.49351e-05
2.96579e-05
3.05403e-05
3.10775e-05
3.0434e-05
2.96582e-05
3.05401e-05
3.10741e-05
3.13958e-05
6.53265e-05
3.13981e-05
6.53251e-05
3.13959e-05
6.53276e-05
3.13982e-05
6.53263e-05
2.96581e-05
3.04339e-05
3.05399e-05
3.10733e-05
3.054e-05
3.10758e-05
2.96576e-05
2.96583e-05
3.04338e-05
3.05399e-05
3.10737e-05
3.05399e-05
3.10763e-05
2.96579e-05
3.13972e-05
6.53249e-05
6.53261e-05
3.13956e-05
3.13973e-05
6.53261e-05
6.53272e-05
3.13957e-05
8.49356e-05
8.4934e-05
8.4936e-05
8.49345e-05
3.02094e-05
3.33007e-05
3.3301e-05
3.33019e-05
3.33021e-05
8.49339e-05
8.49352e-05
8.49344e-05
8.49357e-05
8.49342e-05
8.49329e-05
8.49354e-05
8.49342e-05
3.33018e-05
3.33022e-05
3.02108e-05
3.33007e-05
3.33011e-05
8.4933e-05
8.49342e-05
8.49342e-05
8.49354e-05
3.02093e-05
3.33006e-05
3.33011e-05
3.33017e-05
3.33022e-05
3.13953e-05
6.53257e-05
3.1397e-05
6.5324e-05
2.96576e-05
3.10756e-05
3.054e-05
3.04338e-05
2.96579e-05
3.10732e-05
3.054e-05
2.96577e-05
3.10762e-05
3.054e-05
3.04338e-05
2.9658e-05
3.1074e-05
3.054e-05
3.13968e-05
6.53221e-05
6.53233e-05
3.13951e-05
3.1397e-05
6.53236e-05
6.5325e-05
3.13953e-05
2.96579e-05
3.04337e-05
3.10732e-05
3.05399e-05
3.10756e-05
3.05399e-05
2.96576e-05
2.9658e-05
3.04338e-05
3.10743e-05
3.05399e-05
3.10766e-05
3.05399e-05
2.96577e-05
3.33016e-05
3.32985e-05
3.02107e-05
3.33007e-05
3.32972e-05
8.49314e-05
8.49298e-05
8.49315e-05
8.49337e-05
3.02093e-05
3.33008e-05
3.32972e-05
3.3302e-05
3.32986e-05
8.49298e-05
8.49314e-05
2.96579e-05
3.10765e-05
3.054e-05
3.04339e-05
2.96581e-05
3.10739e-05
3.054e-05
3.13954e-05
6.5325e-05
3.13969e-05
6.53238e-05
2.96577e-05
3.054e-05
3.10756e-05
3.04337e-05
2.9658e-05
3.054e-05
3.10731e-05
3.13973e-05
6.53242e-05
6.53254e-05
3.13959e-05
2.96582e-05
3.04338e-05
3.10739e-05
3.05399e-05
3.10764e-05
3.05399e-05
2.96579e-05
3.13969e-05
6.53238e-05
6.53249e-05
3.13954e-05
2.96581e-05
3.04336e-05
3.05398e-05
3.10731e-05
3.05399e-05
3.10756e-05
2.96578e-05
3.13952e-05
6.53237e-05
3.13969e-05
6.53225e-05
2.96576e-05
3.054e-05
3.10755e-05
3.04338e-05
2.96579e-05
3.054e-05
3.10732e-05
3.13951e-05
6.53255e-05
3.13968e-05
6.53244e-05
2.96579e-05
3.04339e-05
3.1073e-05
3.05399e-05
3.10756e-05
3.054e-05
2.96574e-05
3.13969e-05
6.53225e-05
6.53237e-05
3.13952e-05
2.9658e-05
3.04338e-05
3.05399e-05
3.10732e-05
3.05399e-05
3.10755e-05
2.96576e-05
3.13968e-05
6.53244e-05
6.53254e-05
3.13951e-05
3.32992e-05
3.33018e-05
3.02106e-05
3.3298e-05
3.33007e-05
8.4935e-05
8.49338e-05
8.4931e-05
8.49327e-05
3.02092e-05
3.3298e-05
3.33007e-05
3.32993e-05
3.33018e-05
8.49338e-05
8.4935e-05
2.96579e-05
3.054e-05
3.10761e-05
3.04339e-05
2.96581e-05
3.054e-05
3.10737e-05
3.13955e-05
6.53259e-05
3.1397e-05
6.53249e-05
3.13956e-05
6.5327e-05
3.13971e-05
6.5326e-05
2.96581e-05
3.04339e-05
3.05398e-05
3.10732e-05
3.05399e-05
3.10756e-05
2.96576e-05
2.96583e-05
3.04339e-05
3.05399e-05
3.10737e-05
3.05399e-05
3.1076e-05
2.96579e-05
3.1397e-05
6.53248e-05
6.53258e-05
3.13955e-05
3.13971e-05
6.5326e-05
6.5327e-05
3.13956e-05
8.49352e-05
8.49339e-05
8.49356e-05
8.49344e-05
3.02094e-05
3.33008e-05
3.33011e-05
3.33019e-05
3.33021e-05
8.49339e-05
8.49351e-05
8.49344e-05
8.49356e-05
8.49342e-05
8.49333e-05
8.49353e-05
8.49342e-05
3.33018e-05
3.33022e-05
3.02109e-05
3.33005e-05
3.33011e-05
8.49333e-05
8.49346e-05
8.49342e-05
8.49353e-05
3.02094e-05
3.33006e-05
3.33011e-05
3.33018e-05
3.33022e-05
3.13953e-05
6.53247e-05
3.1397e-05