/*--------------------------------*- C++ -*----------------------------------*\
| =========                 |                                                 |
| \\      /  F ield         | OpenFOAM: The Open Source CFD Toolbox           |
|  \\    /   O peration     | Version:  2206                                  |
|   \\  /    A nd           | Website:  www.openfoam.com                      |
|    \\/     M anipulation  |                                                 |
\*---------------------------------------------------------------------------*/
FoamFile
{
    version     2.0;
    format      ascii;
    arch        "LSB;label=32;scalar=64";
    class       volScalarField;
    location    "15.5";
    object      nut;
}
// * * * * * * * * * * * * * * * * * * * * * * * * * * * * * * * * * * * * * //

dimensions      [0 2 -1 0 0 0 0];

internalField   nonuniform List<scalar> 
28687
(
0.000229287
0.000218109
0.000218104
0.000203249
0.000229287
0.000218107
0.000218103
0.000203244
0.000229286
0.000218105
0.0002181
0.000203242
0.000229273
0.000218077
0.000218084
0.000203213
0.000229266
0.000218056
0.000218051
0.000203157
0.000229272
0.000218059
0.000218056
0.000203164
0.000229272
0.00021806
0.000218056
0.000203162
0.000229272
0.00021806
0.000218056
0.000203161
0.000229272
0.00021806
0.000218056
0.000203162
0.000229272
0.00021806
0.000218056
0.000203162
0.000229272
0.00021806
0.000218056
0.000203162
0.000229272
0.00021806
0.000218056
0.000203162
0.000229272
0.00021806
0.000218056
0.000203162
0.000229272
0.00021806
0.000218056
0.000203162
0.000229272
0.00021806
0.000218056
0.000203162
0.000229272
0.00021806
0.000218056
0.000203162
0.000229272
0.00021806
0.000218056
0.000203162
0.000229272
0.00021806
0.000218056
0.000203162
0.000218098
0.000203369
0.000218109
0.00020325
0.000203362
0.0002181
0.000218098
0.000218099
0.000218098
0.000203255
0.000203362
0.000218106
0.000218093
0.000218105
0.000218093
0.000218099
0.000218108
0.000218098
0.000203244
0.000203356
0.000218106
0.000218104
0.000218106
0.000203358
0.00020325
0.000203359
0.000218097
0.000218098
0.000218096
0.000218098
0.00020325
0.000203361
0.000218103
0.00021809
0.000218102
0.00021809
0.000218096
0.000218106
0.000218096
0.000203244
0.000203353
0.000218103
0.0002181
0.000218103
0.000203357
0.000203246
0.000203344
0.000218095
0.000218097
0.000218089
0.000218083
0.000203248
0.00020333
0.0002181
0.000218088
0.000218096
0.000218084
0.000218095
0.000218095
0.000218089
0.000203241
0.000203338
0.000218102
0.000218094
0.000218096
0.000203341
0.000203221
0.000203272
0.000218079
0.000218063
0.000218044
0.000218044
0.000203197
0.000203277
0.000218086
0.000218074
0.00021805
0.000218038
0.000218079
0.000218053
0.000218044
0.000203215
0.000203267
0.000218086
0.000218049
0.000218051
0.000203271
0.000203162
0.000203283
0.000218046
0.000218048
0.00021805
0.00021805
0.000203168
0.000203282
0.000218053
0.000218041
0.000218056
0.000218044
0.000218047
0.000218059
0.00021805
0.000203156
0.000203277
0.000218054
0.000218056
0.000218057
0.00020328
0.000203169
0.000203277
0.00021805
0.000218051
0.00021805
0.000218051
0.000203168
0.000203281
0.000218057
0.000218045
0.000218056
0.000218044
0.000218051
0.00021806
0.00021805
0.000203164
0.000203271
0.000218058
0.000218056
0.000218058
0.000203275
0.000203166
0.000203277
0.000218051
0.000218052
0.00021805
0.00021805
0.00020317
0.000203279
0.000218057
0.000218045
0.000218057
0.000218045
0.000218051
0.000218061
0.000218051
0.000203161
0.000203271
0.000218058
0.000218057
0.000218058
0.000203275
0.000203165
0.000203277
0.000218051
0.00021805
0.000218051
0.00021805
0.000203168
0.00020328
0.000218057
0.000218045
0.000218057
0.000218045
0.000218051
0.000218061
0.000218051
0.00020316
0.000203272
0.000218058
0.000218057
0.000218058
0.000203276
0.000203165
0.000203277
0.000218051
0.00021805
0.000218051
0.00021805
0.000203168
0.00020328
0.000218057
0.000218045
0.000218057
0.000218045
0.000218051
0.00021806
0.000218051
0.00020316
0.000203272
0.000218058
0.000218057
0.000218058
0.000203276
0.000203165
0.000203278
0.000218052
0.00021805
0.000218051
0.00021805
0.000203168
0.00020328
0.000218058
0.000218045
0.000218057
0.000218045
0.000218051
0.00021806
0.000218051
0.00020316
0.000203272
0.000218058
0.000218057
0.000218058
0.000203276
0.000203166
0.000203277
0.000218052
0.000218051
0.000218051
0.00021805
0.000203168
0.00020328
0.000218058
0.000218045
0.000218058
0.000218045
0.000218051
0.00021806
0.000218051
0.00020316
0.000203272
0.000218058
0.000218057
0.000218057
0.000203276
0.000203165
0.000203277
0.000218052
0.000218051
0.000218051
0.00021805
0.000203168
0.000203279
0.000218058
0.000218045
0.000218058
0.000218045
0.000218051
0.00021806
0.000218051
0.00020316
0.000203272
0.000218057
0.000218057
0.000218057
0.000203276
0.000203165
0.000203277
0.000218051
0.000218051
0.000218051
0.00021805
0.000203168
0.000203279
0.000218058
0.000218045
0.000218058
0.000218045
0.000218051
0.00021806
0.000218051
0.00020316
0.000203272
0.000218057
0.000218057
0.000218057
0.000203276
0.000203165
0.000203277
0.000218051
0.000218051
0.000218051
0.00021805
0.000203167
0.000203279
0.000218058
0.000218045
0.000218058
0.000218045
0.000218051
0.00021806
0.000218051
0.000203161
0.000203272
0.000218057
0.000218057
0.000218057
0.000203276
0.000203165
0.000203277
0.000218051
0.000218051
0.000218051
0.00021805
0.000203167
0.00020328
0.000218058
0.000218045
0.000218058
0.000218045
0.000218051
0.00021806
0.000218051
0.00020316
0.000203272
0.000218057
0.000218057
0.000218057
0.000203276
0.000203165
0.000203277
0.000218051
0.000218051
0.000218051
0.00021805
0.000203167
0.000203279
0.000218058
0.000218045
0.000218058
0.000218045
0.000218051
0.00021806
0.000218051
0.00020316
0.000203272
0.000218057
0.000218057
0.000218057
0.000203276
0.000203165
0.000203277
0.000218051
0.000218051
0.000218051
0.00021805
0.000203167
0.00020328
0.000218058
0.000218045
0.000218058
0.000218045
0.000218051
0.00021806
0.000218051
0.000203161
0.000203272
0.000218057
0.000218057
0.000218057
0.000203276
0.000203165
0.000218051
0.00021805
0.000203167
0.000218058
0.000218045
0.000218051
0.000203161
0.000218057
5.70662e-05
4.78739e-05
5.70488e-05
4.78727e-05
2.60949e-05
2.60937e-05
5.70729e-05
4.78703e-05
5.70524e-05
4.78689e-05
0.000229289
0.000229286
0.000229287
0.000229287
0.000229288
0.000229286
0.000229287
0.000135618
6.90289e-05
0.00022596
0.00021811
0.000135594
6.90471e-05
0.00022596
2.60929e-05
2.60917e-05
0.000135621
0.000225958
6.90303e-05
0.000218104
0.000135597
0.000225958
6.90474e-05
3.85122e-05
3.8505e-05
0.000203362
3.85245e-05
3.8517e-05
5.70803e-05
4.78729e-05
5.70664e-05
4.7872e-05
2.60931e-05
2.60927e-05
5.70874e-05
4.78692e-05
5.70743e-05
4.78682e-05
0.000229288
0.000229286
0.000229287
0.000229285
0.000229287
0.000229285
0.000229286
0.000135616
6.90271e-05
0.000225959
0.000218107
0.000135586
6.90516e-05
0.000225957
2.60908e-05
2.60901e-05
0.000135619
0.000225959
6.90255e-05
0.000218101
0.000135588
0.000225956
6.90483e-05
3.85281e-05
3.85207e-05
0.000203358
3.85357e-05
3.85282e-05
5.70849e-05
4.78724e-05
5.70742e-05
4.78717e-05
2.60927e-05
2.60929e-05
5.70926e-05
4.78687e-05
5.70827e-05
4.78679e-05
0.000229287
0.000229285
0.000229286
0.000229282
0.000229281
0.000229281
0.000229282
0.00013562
6.90366e-05
0.000225959
0.000218104
0.000135596
6.90544e-05
0.000225958
2.60902e-05
2.609e-05
0.000135623
0.000225957
6.9036e-05
0.000218099
0.000135599
0.000225956
6.90562e-05
3.85372e-05
3.85298e-05
0.000203355
3.85424e-05
3.8535e-05
5.70459e-05
4.78747e-05
5.70568e-05
4.78788e-05
2.60948e-05
2.6095e-05
5.70534e-05
4.78711e-05
5.70654e-05
4.78749e-05
0.000229268
0.000229273
0.000229274
0.000229262
0.000229262
0.000229261
0.000229262
0.000135547
6.90074e-05
0.00022594
0.000218061
0.000135572
6.9005e-05
0.000225925
2.60917e-05
2.60925e-05
0.000135551
0.000225942
6.90196e-05
0.000218064
0.000135575
0.000225925
6.90162e-05
3.85286e-05
3.85213e-05
0.000203295
3.85226e-05
3.85151e-05
5.702e-05
4.78812e-05
5.70115e-05
4.78804e-05
2.60951e-05
2.60949e-05
5.70279e-05
4.78775e-05
5.70202e-05
4.78766e-05
0.000229268
0.000229266
0.000229266
0.000229272
0.000229273
0.000229271
0.000229272
0.000135505
6.89658e-05
0.000225926
0.000218059
0.000135476
6.89843e-05
0.00022593
2.60928e-05
2.60925e-05
0.000135509
0.000225925
6.8972e-05
0.000218054
0.000135479
0.000225929
6.89877e-05
3.84996e-05
3.84921e-05
0.000203282
3.85025e-05
3.84949e-05
5.70196e-05
4.78811e-05
5.70092e-05
4.78803e-05
2.60951e-05
2.6095e-05
5.70276e-05
4.78774e-05
5.70182e-05
4.78766e-05
0.000229273
0.000229272
0.000229272
0.000229272
0.000229272
0.000229271
0.000229272
0.000135506
6.89638e-05
0.000225931
0.00021806
0.000135477
6.89839e-05
0.000225931
2.60927e-05
2.60925e-05
0.000135509
0.000225931
6.89676e-05
0.000218056
0.000135481
0.000225931
6.89867e-05
3.84988e-05
3.84913e-05
0.000203275
3.85026e-05
3.8495e-05
5.70196e-05
4.78813e-05
5.70091e-05
4.78805e-05
2.6095e-05
2.60947e-05
5.70277e-05
4.78774e-05
5.70182e-05
4.78766e-05
0.000229273
0.000229271
0.000229272
0.000229272
0.000229273
0.000229271
0.000229272
0.000135506
6.89639e-05
0.000225932
0.000218061
0.000135477
6.89839e-05
0.000225932
2.60927e-05
2.60925e-05
0.000135509
0.000225931
6.89676e-05
0.000218057
0.000135481
0.000225931
6.89867e-05
3.84988e-05
3.84914e-05
0.000203279
3.85026e-05
3.8495e-05
5.70196e-05
4.7881e-05
5.70091e-05
4.788e-05
2.60951e-05
2.60951e-05
5.70278e-05
4.78774e-05
5.70183e-05
4.78766e-05
0.000229273
0.000229271
0.000229272
0.000229272
0.000229272
0.000229271
0.000229272
0.000135506
6.89638e-05
0.000225932
0.000218061
0.000135477
6.89839e-05
0.000225932
2.60927e-05
2.60925e-05
0.000135509
0.000225931
6.89676e-05
0.000218057
0.00013548
0.000225931
6.89867e-05
3.84988e-05
3.84914e-05
0.000203278
3.85026e-05
3.8495e-05
5.70195e-05
4.78807e-05
5.70091e-05
4.78797e-05
2.60954e-05
2.60954e-05
5.70278e-05
4.78776e-05
5.70184e-05
4.7877e-05
0.000229273
0.000229271
0.000229272
0.000229272
0.000229272
0.000229271
0.000229272
0.000135506
6.89638e-05
0.000225932
0.00021806
0.000135477
6.89839e-05
0.000225932
2.60927e-05
2.60925e-05
0.000135509
0.000225931
6.89676e-05
0.000218057
0.000135481
0.000225931
6.89867e-05
3.84989e-05
3.84914e-05
0.000203277
3.85026e-05
3.8495e-05
5.70195e-05
4.78803e-05
5.7009e-05
4.78794e-05
2.60955e-05
2.60954e-05
5.70278e-05
4.78778e-05
5.70184e-05
4.78772e-05
0.000229273
0.000229271
0.000229272
0.000229272
0.000229272
0.000229271
0.000229272
0.000135506
6.89638e-05
0.000225932
0.00021806
0.000135477
6.89839e-05
0.000225932
2.60927e-05
2.60925e-05
0.000135509
0.000225931
6.89676e-05
0.000218057
0.00013548
0.000225931
6.89867e-05
3.84989e-05
3.84914e-05
0.000203277
3.85026e-05
3.8495e-05
5.70195e-05
4.78801e-05
5.70091e-05
4.78793e-05
2.60955e-05
2.60954e-05
5.70279e-05
4.7878e-05
5.70184e-05
4.78773e-05
0.000229273
0.000229272
0.000229272
0.000229272
0.000229272
0.000229271
0.000229272
0.000135506
6.89638e-05
0.000225932
0.00021806
0.000135477
6.89839e-05
0.000225932
2.60927e-05
2.60925e-05
0.000135509
0.000225931
6.89676e-05
0.000218057
0.00013548
0.000225931
6.89867e-05
3.84989e-05
3.84914e-05
0.000203277
3.85026e-05
3.8495e-05
5.70196e-05
4.788e-05
5.70091e-05
4.78792e-05
2.60956e-05
2.60954e-05
5.70278e-05
4.78781e-05
5.70184e-05
4.78774e-05
0.000229273
0.000229272
0.000229272
0.000229272
0.000229272
0.000229271
0.000229272
0.000135506
6.89638e-05
0.000225932
0.00021806
0.000135477
6.89839e-05
0.000225932
2.60927e-05
2.60925e-05
0.000135509
0.000225931
6.89676e-05
0.000218057
0.00013548
0.000225931
6.89867e-05
3.84989e-05
3.84914e-05
0.000203277
3.85026e-05
3.84951e-05
5.70196e-05
4.788e-05
5.70091e-05
4.78792e-05
2.60956e-05
2.60954e-05
5.70279e-05
4.78781e-05
5.70184e-05
4.78774e-05
0.000229273
0.000229271
0.000229272
0.000229272
0.000229272
0.000229271
0.000229272
0.000135506
6.89638e-05
0.000225932
0.00021806
0.000135477
6.89839e-05
0.000225932
2.60927e-05
2.60925e-05
0.000135509
0.000225931
6.89676e-05
0.000218057
0.00013548
0.000225931
6.89867e-05
3.84989e-05
3.84914e-05
0.000203277
3.85026e-05
3.8495e-05
5.70196e-05
4.788e-05
5.70091e-05
4.78792e-05
2.60956e-05
2.60954e-05
5.70278e-05
4.78781e-05
5.70184e-05
4.78774e-05
0.000229273
0.000229271
0.000229272
0.000229272
0.000229272
0.000229271
0.000229272
0.000135506
6.89638e-05
0.000225932
0.00021806
0.000135477
6.89839e-05
0.000225932
2.60927e-05
2.60925e-05
0.000135509
0.000225931
6.89676e-05
0.000218057
0.00013548
0.000225931
6.89867e-05
3.84989e-05
3.84914e-05
0.000203277
3.85026e-05
3.8495e-05
5.70195e-05
4.788e-05
5.70091e-05
4.78792e-05
2.60956e-05
2.60954e-05
5.70278e-05
4.78781e-05
5.70184e-05
4.78774e-05
0.000229273
0.000229271
0.000229272
0.000229272
0.000229272
0.000229271
0.000229272
0.000135505
6.89638e-05
0.000225932
0.00021806
0.000135477
6.89839e-05
0.000225932
2.60927e-05
2.60925e-05
0.000135509
0.000225931
6.89676e-05
0.000218057
0.00013548
0.000225931
6.89867e-05
3.84989e-05
3.84914e-05
0.000203277
3.85026e-05
3.8495e-05
5.70195e-05
4.788e-05
5.70091e-05
4.78792e-05
2.60956e-05
2.60954e-05
5.70278e-05
4.78781e-05
5.70184e-05
4.78774e-05
0.000229273
0.000229271
0.000229272
0.000229272
0.000229272
0.000229271
0.000229272
0.000135506
6.89638e-05
0.000225932
0.00021806
0.000135477
6.89839e-05
0.000225932
2.60927e-05
2.60925e-05
0.000135509
0.000225931
6.89676e-05
0.000218057
0.00013548
0.000225931
6.89867e-05
3.84989e-05
3.84914e-05
0.000203277
3.85026e-05
3.8495e-05
5.70195e-05
4.788e-05
5.70091e-05
4.78792e-05
2.60956e-05
2.60954e-05
5.70278e-05
4.78781e-05
5.70184e-05
4.78774e-05
0.000229273
0.000229272
0.000229272
0.000229272
0.000229272
0.000229271
0.000229272
0.000135506
6.89638e-05
0.000225932
0.00021806
0.000135477
6.89839e-05
0.000225932
2.60927e-05
2.60925e-05
0.000135509
0.000225931
6.89676e-05
0.000218057
0.00013548
0.000225931
6.89867e-05
3.84989e-05
3.84914e-05
0.000203277
3.85026e-05
3.8495e-05
5.70143e-05
4.788e-05
5.70091e-05
4.78794e-05
2.60956e-05
2.60954e-05
5.70171e-05
4.78781e-05
5.70184e-05
4.78776e-05
0.000229272
0.000229271
0.000229272
0.000135505
6.89638e-05
0.000225932
0.00021806
0.000135477
6.89839e-05
0.000225932
2.60927e-05
2.60925e-05
0.000135511
0.000225931
6.89676e-05
0.000218057
0.00013548
0.000225931
6.89881e-05
3.84989e-05
3.84914e-05
0.000203281
3.85026e-05
3.84909e-05
4.78723e-05
6.90505e-05
2.6095e-05
3.85163e-05
3.85156e-05
2.60955e-05
6.90488e-05
4.78711e-05
2.60967e-05
2.60955e-05
2.60944e-05
2.60933e-05
3.85145e-05
3.85059e-05
0.000203365
3.85265e-05
3.8518e-05
2.60945e-05
2.60954e-05
2.60923e-05
2.60932e-05
0.000203253
3.85323e-05
3.8524e-05
3.85255e-05
3.85172e-05
5.70668e-05
4.78727e-05
5.70492e-05
4.78719e-05
0.000135618
6.9033e-05
0.000225959
0.0002181
0.000135593
6.90514e-05
0.000225959
0.000135619
6.90339e-05
0.00022596
0.000218098
0.000135594
6.90479e-05
0.00022596
5.70611e-05
4.78723e-05
4.78729e-05
5.70752e-05
5.70616e-05
4.78715e-05
4.78722e-05
5.70759e-05
0.000135595
0.0002181
6.90487e-05
0.000225959
6.90344e-05
0.000225959
0.000135617
0.000135597
0.000218098
6.90468e-05
0.00022596
6.90305e-05
0.00022596
0.000135619
3.85155e-05
3.85142e-05
0.000203364
3.85224e-05
3.85206e-05
2.60955e-05
2.60942e-05
2.6093e-05
2.60937e-05
0.000203252
3.8528e-05
3.85257e-05
3.85215e-05
3.85193e-05
2.60935e-05
2.60942e-05
0.00013562
6.90193e-05
0.000225959
0.000218106
0.000135596
6.90393e-05
0.000225959
5.7071e-05
4.7868e-05
5.70503e-05
4.78666e-05
0.000135618
0.000225957
6.90114e-05
0.000218093
0.000135594
0.000225957
6.9032e-05
5.7069e-05
4.78685e-05
4.78692e-05
5.7082e-05
0.000135598
0.000218106
6.90359e-05
0.000225959
6.90214e-05
0.00022596
0.000135619
5.7067e-05
4.78662e-05
4.78669e-05
5.70802e-05
0.000135596
0.000218094
0.000225957
6.9029e-05
0.000225957
6.90142e-05
0.000135617
5.70659e-05
4.78716e-05
5.70483e-05
4.78708e-05
0.000135617
0.000225959
6.90294e-05
0.000218099
0.000135593
0.000225959
6.90473e-05
5.70651e-05
4.78709e-05
5.70402e-05
4.78696e-05
0.000135596
0.00021811
6.9046e-05
0.00022596
6.90291e-05
0.00022596
0.000135615
5.70607e-05
4.78704e-05
4.78711e-05
5.70749e-05
0.000135595
0.000218099
0.000225959
6.90443e-05
0.000225959
6.90302e-05
0.000135616
5.70601e-05
4.78692e-05
4.78699e-05
5.70744e-05
3.84957e-05
3.85123e-05
0.000203359
3.85079e-05
3.85245e-05
2.60953e-05
2.60942e-05
2.60906e-05
2.60917e-05
0.000203247
3.85133e-05
3.85303e-05
3.85064e-05
3.85234e-05
2.60932e-05
2.60941e-05
0.000135623
0.000225959
6.90253e-05
0.000218106
0.000135599
0.000225959
6.90438e-05
5.70719e-05
4.78706e-05
5.70513e-05
4.78694e-05
5.70723e-05
4.78703e-05
5.70516e-05
4.78691e-05
0.000135598
0.000218104
0.000225959
6.90442e-05
0.000225959
6.90304e-05
0.000135617
0.0001356
0.000218107
0.000225959
6.90413e-05
0.00022596
6.90267e-05
0.000135621
5.70679e-05
4.7869e-05
4.78696e-05
5.70811e-05
5.70683e-05
4.78686e-05
4.78693e-05
5.70815e-05
2.60951e-05
2.6094e-05
2.60942e-05
2.60931e-05
0.00020325
3.85303e-05
3.85229e-05
3.85233e-05
3.8516e-05
2.6093e-05
2.60939e-05
2.60921e-05
2.6093e-05
2.60946e-05
2.6094e-05
2.60923e-05
2.60918e-05
3.85312e-05
3.8523e-05
0.000203361
3.85377e-05
3.85294e-05
2.60938e-05
2.60941e-05
2.60916e-05
2.60919e-05
0.000203249
3.85419e-05
3.85338e-05
3.85365e-05
3.85285e-05
5.70812e-05
4.78718e-05
5.70697e-05
4.78712e-05
0.000135619
6.90325e-05
0.000225958
0.000218097
0.000135594
6.90522e-05
0.000225958
0.000135622
6.90315e-05
0.000225958
0.000218098
0.000135597
6.90525e-05
0.000225958
5.70736e-05
4.78717e-05
4.78723e-05
5.70841e-05
5.70744e-05
4.7871e-05
4.78715e-05
5.70849e-05
0.000135598
0.000218097
6.90581e-05
0.000225958
6.90375e-05
0.000225958
0.000135626
0.000135601
0.000218098
6.90568e-05
0.000225959
6.90374e-05
0.000225958
0.000135628
3.85268e-05
3.85241e-05
0.000203362
3.85331e-05
3.85307e-05
2.60936e-05
2.60931e-05
2.60925e-05
2.60928e-05
0.00020325
3.85367e-05
3.85343e-05
3.85316e-05
3.85287e-05
2.6093e-05
2.60933e-05
0.000135621
6.90188e-05
0.000225957
0.000218102
0.000135596
6.90395e-05
0.000225956
5.70856e-05
4.78665e-05
5.70751e-05
4.78658e-05
0.000135619
0.000225954
6.90119e-05
0.00021809
0.000135594
0.000225954
6.90325e-05
5.70818e-05
4.78679e-05
4.78685e-05
5.70914e-05
0.000135601
0.000218102
6.90454e-05
0.000225956
6.90242e-05
0.000225956
0.000135629
5.708e-05
4.78656e-05
4.78662e-05
5.70895e-05
0.000135598
0.00021809
0.000225955
6.90383e-05
0.000225953
6.90171e-05
0.000135626
5.70798e-05
4.78707e-05
5.70686e-05
4.787e-05
0.000135618
0.000225956
6.90283e-05
0.000218096
0.000135593
0.000225956
6.90481e-05
5.70795e-05
4.78695e-05
5.70681e-05
4.78688e-05
0.000135595
0.000218107
6.90559e-05
0.000225958
6.9036e-05
0.000225957
0.000135623
5.7073e-05
4.78698e-05
4.78704e-05
5.70833e-05
0.000135598
0.000218096
0.000225957
6.90536e-05
0.000225956
6.90335e-05
0.000135624
5.70727e-05
4.78685e-05
4.78691e-05
5.70829e-05
3.85115e-05
3.85292e-05
0.000203355
3.85184e-05
3.85357e-05
2.60932e-05
2.60927e-05
2.609e-05
2.60903e-05
0.000203244
3.85226e-05
3.854e-05
3.85165e-05
3.85345e-05
2.60925e-05
2.60928e-05
0.000135624
0.000225957
6.9025e-05
0.000218103
0.000135598
0.000225956
6.90446e-05
5.70863e-05
4.78692e-05
5.70759e-05
4.78686e-05
5.70869e-05
4.78689e-05
5.70764e-05
4.78683e-05
0.000135598
0.0002181
0.000225956
6.9054e-05
0.000225956
6.9034e-05
0.000135626
0.000135603
0.000218104
0.000225957
6.90498e-05
0.000225956
6.90296e-05
0.00013563
5.70807e-05
4.78683e-05
4.78689e-05
5.70901e-05
5.70812e-05
4.7868e-05
4.78686e-05
5.70906e-05
2.6093e-05
2.60925e-05
2.60921e-05
2.60916e-05
0.000203247
3.854e-05
3.85326e-05
3.85344e-05
3.8527e-05
2.60923e-05
2.60926e-05
2.60914e-05
2.60917e-05
2.6094e-05
2.60938e-05
2.60918e-05
2.60916e-05
3.85402e-05
3.85324e-05
0.000203356
3.85443e-05
3.85364e-05
2.60947e-05
2.60942e-05
2.60924e-05
2.60919e-05
0.000203243
3.85378e-05
3.85297e-05
3.85413e-05
3.85335e-05
5.70855e-05
4.78714e-05
5.70774e-05
4.78714e-05
0.000135622
6.90425e-05
0.000225958
0.000218094
0.000135603
6.90604e-05
0.000225957
0.000135625
6.9041e-05
0.000225959
0.000218095
0.000135606
6.90548e-05
0.000225958
5.70763e-05
4.78729e-05
4.78722e-05
5.70739e-05
5.70769e-05
4.78745e-05
4.78721e-05
5.70747e-05
0.000135593
0.000218093
6.90491e-05
0.000225953
6.9043e-05
0.000225956
0.000135607
0.000135595
0.000218092
6.90342e-05
0.000225952
6.90348e-05
0.000225956
0.000135608
3.8535e-05
3.85319e-05
0.000203356
3.85358e-05
3.85343e-05
2.60933e-05
2.60933e-05
2.6094e-05
2.60933e-05
0.000203241
3.85243e-05
3.85235e-05
3.85308e-05
3.85293e-05
2.60947e-05
2.60938e-05
0.000135624
6.90292e-05
0.000225956
0.0002181
0.000135605
6.90474e-05
0.000225956
5.70906e-05
4.7866e-05
5.70832e-05
4.78656e-05
0.000135621
0.000225955
6.9022e-05
0.000218088
0.000135603
0.000225955
6.90403e-05
5.70851e-05
4.78692e-05
4.78685e-05
5.70816e-05
0.000135596
0.000218099
6.90359e-05
0.000225952
6.90293e-05
0.000225955
0.00013561
5.70832e-05
4.78667e-05
4.78661e-05
5.70801e-05
0.000135593
0.000218087
0.000225951
6.90291e-05
0.000225954
6.90222e-05
0.000135607
5.70841e-05
4.78703e-05
5.70758e-05
4.78704e-05
0.000135619
0.000225958
6.90383e-05
0.000218094
0.000135598
0.000225958
6.90558e-05
5.70836e-05
4.78689e-05
5.70754e-05
4.78685e-05
0.000135592
0.000218102
6.9035e-05
0.000225953
6.90343e-05
0.000225957
0.000135607
5.70756e-05
4.78736e-05
4.78712e-05
5.70739e-05
0.000135591
0.000218093
0.000225953
6.90447e-05
0.000225957
6.90386e-05
0.000135607
5.70752e-05
4.78696e-05
4.7869e-05
5.70734e-05
3.85201e-05
3.85384e-05
0.00020335
3.85248e-05
3.85426e-05
2.60926e-05
2.60925e-05
2.60909e-05
2.60904e-05
0.000203238
3.85183e-05
3.8536e-05
3.8521e-05
3.85395e-05
2.60933e-05
2.60928e-05
0.000135625
0.000225957
6.90343e-05
0.000218101
0.000135605
0.000225957
6.90519e-05
5.70912e-05
4.78687e-05
5.70839e-05
4.78683e-05
5.70917e-05
4.78684e-05
5.70843e-05
4.7868e-05
0.000135595
0.000218098
0.000225952
6.9045e-05
0.000225955
6.90393e-05
0.00013561
0.000135597
0.0002181
0.000225953
6.90405e-05
0.000225956
6.90344e-05
0.000135612
5.70839e-05
4.78694e-05
4.78688e-05
5.70809e-05
5.70843e-05
4.78691e-05
4.78685e-05
5.70813e-05
2.60925e-05
2.60923e-05
2.60916e-05
2.60914e-05
0.000203243
3.85357e-05
3.85283e-05
3.85392e-05
3.85319e-05
2.60931e-05
2.60926e-05
2.60922e-05
2.60917e-05
2.60954e-05
2.60963e-05
2.60932e-05
2.60941e-05
3.85318e-05
3.85239e-05
0.000203298
3.85244e-05
3.85163e-05
2.60964e-05
2.60966e-05
2.60942e-05
2.60944e-05
0.000203166
3.85058e-05
3.8498e-05
3.85173e-05
3.85093e-05
5.7046e-05
4.78773e-05
5.706e-05
4.78802e-05
0.000135546
6.90261e-05
0.000225943
0.000218059
0.000135573
6.90206e-05
0.000225926
0.000135544
6.90095e-05
0.000225938
0.00021805
0.000135573
6.90038e-05
0.000225923
5.70313e-05
4.78806e-05
4.78808e-05
5.70236e-05
5.70313e-05
4.78802e-05
4.78806e-05
5.70243e-05
0.000135499
0.000218048
6.89982e-05
0.000225921
6.89964e-05
0.000225921
0.000135504
0.000135498
0.000218044
6.89892e-05
0.000225921
6.89815e-05
0.000225919
0.000135505
3.8518e-05
3.8516e-05
0.000203282
3.85054e-05
3.8504e-05
2.60956e-05
2.60958e-05
2.6095e-05
2.60952e-05
0.000203159
3.8496e-05
3.84929e-05
3.8499e-05
3.84982e-05
2.60957e-05
2.6096e-05
0.000135549
6.90124e-05
0.000225943
0.000218065
0.000135576
6.90077e-05
0.000225926
5.70517e-05
4.78683e-05
5.70665e-05
4.78725e-05
0.000135547
0.000225941
6.90056e-05
0.000218054
0.000135573
0.000225924
6.90009e-05
5.70384e-05
4.78768e-05
4.78769e-05
5.70311e-05
0.000135502
0.000218054
6.89849e-05
0.000225921
6.89829e-05
0.000225921
0.000135506
5.70367e-05
4.78746e-05
4.78747e-05
5.70295e-05
0.0001355
0.000218042
0.00022592
6.89776e-05
0.000225919
6.8976e-05
0.000135504
5.70459e-05
4.78763e-05
5.70594e-05
4.78791e-05
0.000135547
0.000225942
6.90219e-05
0.000218059
0.000135573
0.000225925
6.90158e-05
5.70454e-05
4.7871e-05
5.70589e-05
4.78754e-05
0.000135501
0.000218054
6.89873e-05
0.000225922
6.89812e-05
0.000225921
0.000135504
5.70311e-05
4.78791e-05
4.78797e-05
5.70236e-05
0.0001355
0.000218048
0.000225921
6.89933e-05
0.00022592
6.89919e-05
0.000135503
5.70306e-05
4.78775e-05
4.78776e-05
5.7023e-05
3.85115e-05
3.853e-05
0.000203292
3.8504e-05
3.85225e-05
2.6094e-05
2.6095e-05
2.60926e-05
2.60928e-05
0.000203161
3.84861e-05
3.85041e-05
3.84972e-05
3.85153e-05
2.6095e-05
2.60952e-05
0.000135553
0.000225943
6.90176e-05
0.000218066
0.000135578
0.000225926
6.90118e-05
5.70527e-05
4.78708e-05
5.70674e-05
4.78752e-05
5.7053e-05
4.78705e-05
5.70677e-05
4.78749e-05
0.000135504
0.000218053
0.000225921
6.89935e-05
0.000225921
6.89925e-05
0.000135507
0.000135505
0.000218055
0.000225921
6.89894e-05
0.00022592
6.89877e-05
0.000135509
5.70376e-05
4.78773e-05
4.78774e-05
5.70304e-05
5.70379e-05
4.7877e-05
4.78771e-05
5.70307e-05
2.60938e-05
2.60948e-05
2.60929e-05
2.60939e-05
0.000203164
3.8504e-05
3.84964e-05
3.85154e-05
3.85081e-05
2.60949e-05
2.60951e-05
2.6094e-05
2.60941e-05
2.60965e-05
2.60963e-05
2.60943e-05
2.60941e-05
3.85026e-05
3.84948e-05
0.000203282
3.85043e-05
3.84965e-05
2.60963e-05
2.60965e-05
2.60941e-05
2.60943e-05
0.000203172
3.85043e-05
3.84964e-05
3.85018e-05
3.8494e-05
5.70207e-05
4.78805e-05
5.70146e-05
4.78801e-05
0.000135505
6.89791e-05
0.000225926
0.000218049
0.00013548
6.89921e-05
0.000225929
0.000135507
6.89714e-05
0.000225926
0.00021805
0.000135481
6.89865e-05
0.00022593
5.70119e-05
4.78804e-05
4.78808e-05
5.70197e-05
5.70126e-05
4.78801e-05
4.78804e-05
5.70204e-05
0.000135482
0.000218049
6.8991e-05
0.000225931
6.89752e-05
0.000225931
0.000135506
0.000135483
0.00021805
6.89862e-05
0.000225931
6.89698e-05
0.000225931
0.000135507
3.84933e-05
3.84893e-05
0.000203285
3.84958e-05
3.84928e-05
2.60959e-05
2.60956e-05
2.6095e-05
2.60951e-05
0.000203174
3.8496e-05
3.84929e-05
3.84933e-05
3.84896e-05
2.60956e-05
2.60959e-05
0.000135508
6.89651e-05
0.000225926
0.000218055
0.000135483
6.89788e-05
0.000225929
5.7026e-05
4.7875e-05
5.7021e-05
4.78744e-05
0.000135506
0.000225924
6.89576e-05
0.000218043
0.000135481
0.000225928
6.89712e-05
5.70209e-05
4.78766e-05
4.78771e-05
5.70277e-05
0.000135486
0.000218056
6.89778e-05
0.000225931
6.89612e-05
0.000225931
0.000135509
5.70189e-05
4.78743e-05
4.78748e-05
5.70256e-05
0.000135484
0.000218044
0.000225929
6.89702e-05
0.000225929
6.89535e-05
0.000135507
5.70197e-05
4.78795e-05
5.70137e-05
4.7879e-05
0.000135504
0.000225926
6.89745e-05
0.000218049
0.00013548
0.000225929
6.89874e-05
5.70193e-05
4.78779e-05
5.70132e-05
4.78774e-05
0.000135482
0.00021806
6.89839e-05
0.000225931
6.8967e-05
0.000225932
0.000135504
5.70115e-05
4.78789e-05
4.78794e-05
5.70194e-05
0.000135482
0.00021805
0.000225931
6.89863e-05
0.000225931
6.89706e-05
0.000135505
5.70111e-05
4.78773e-05
4.78777e-05
5.70189e-05
3.84814e-05
3.85007e-05
0.000203276
3.84836e-05
3.85026e-05
2.60952e-05
2.6095e-05
2.60925e-05
2.60927e-05
0.000203166
3.84837e-05
3.85025e-05
3.84802e-05
3.85e-05
2.60949e-05
2.60952e-05
0.000135511
0.000225926
6.89703e-05
0.000218056
0.000135485
0.000225929
6.89835e-05
5.70268e-05
4.78776e-05
5.70219e-05
4.78771e-05
5.70272e-05
4.78773e-05
5.70222e-05
4.78768e-05
0.000135486
0.000218056
0.000225931
6.89867e-05
0.000225931
6.89712e-05
0.000135508
0.000135488
0.000218057
0.000225931
6.89825e-05
0.000225931
6.89665e-05
0.000135511
5.70197e-05
4.7877e-05
4.78775e-05
5.70265e-05
5.70201e-05
4.78768e-05
4.78772e-05
5.70269e-05
2.6095e-05
2.60948e-05
2.60941e-05
2.60939e-05
0.000203171
3.85025e-05
3.84949e-05
3.84998e-05
3.84923e-05
2.60948e-05
2.6095e-05
2.60939e-05
2.60941e-05
2.60965e-05
2.60963e-05
2.60943e-05
2.60941e-05
3.85018e-05
3.8494e-05
0.000203276
3.85044e-05
3.84964e-05
2.60963e-05
2.60965e-05
2.60941e-05
2.60943e-05
0.000203164
3.85044e-05
3.84964e-05
3.85019e-05
3.8494e-05
5.70203e-05
4.78804e-05
5.70124e-05
4.788e-05
0.000135506
6.89744e-05
0.000225932
0.00021805
0.000135482
6.89908e-05
0.000225931
0.000135507
6.89696e-05
0.000225932
0.000218051
0.000135484
6.89855e-05
0.000225931
5.70117e-05
4.78804e-05
4.78807e-05
5.70197e-05
5.70123e-05
4.78798e-05
4.78804e-05
5.70203e-05
0.000135482
0.00021805
6.89909e-05
0.000225931
6.89744e-05
0.000225931
0.000135505
0.000135483
0.000218051
6.89837e-05
0.000225931
6.89675e-05
0.00022593
0.000135507
3.84935e-05
3.84897e-05
0.000203277
3.8495e-05
3.84931e-05
2.60959e-05
2.60956e-05
2.60948e-05
2.60952e-05
0.000203166
3.84929e-05
3.8493e-05
3.84911e-05
3.84898e-05
2.60956e-05
2.60959e-05
0.000135509
6.89605e-05
0.000225931
0.000218057
0.000135486
6.89777e-05
0.000225931
5.70256e-05
4.78747e-05
5.70187e-05
4.78743e-05
0.000135507
0.00022593
6.89529e-05
0.000218045
0.000135483
0.000225929
6.89701e-05
5.70208e-05
4.78766e-05
4.7877e-05
5.70277e-05
0.000135486
0.000218057
6.89777e-05
0.000225931
6.89606e-05
0.000225931
0.000135509
5.70188e-05
4.78743e-05
4.78747e-05
5.70257e-05
0.000135484
0.000218045
0.000225929
6.89701e-05
0.000225929
6.89529e-05
0.000135506
5.70193e-05
4.78793e-05
5.70114e-05
4.78789e-05
0.000135505
0.000225931
6.897e-05
0.000218051
0.000135481
0.000225931
6.89863e-05
5.70189e-05
4.78776e-05
5.70109e-05
4.78773e-05
0.000135483
0.00021806
6.89839e-05
0.000225932
6.89669e-05
0.000225931
0.000135504
5.70113e-05
4.78789e-05
4.78793e-05
5.70193e-05
0.000135482
0.000218051
0.000225931
6.89862e-05
0.000225931
6.89699e-05
0.000135505
5.70109e-05
4.78773e-05
4.78776e-05
5.70189e-05
3.84804e-05
3.85e-05
0.000203271
3.84838e-05
3.85026e-05
2.60951e-05
2.60949e-05
2.60925e-05
2.60927e-05
0.000203159
3.84838e-05
3.85026e-05
3.84805e-05
3.85e-05
2.60949e-05
2.60951e-05
0.000135511
0.000225932
6.89659e-05
0.000218058
0.000135488
0.000225931
6.89824e-05
5.70264e-05
4.78774e-05
5.70196e-05
4.7877e-05
5.70269e-05
4.78771e-05
5.702e-05
4.78767e-05
0.000135486
0.000218056
0.000225931
6.89866e-05
0.000225931
6.89706e-05
0.000135508
0.000135488
0.000218058
0.000225931
6.89823e-05
0.000225931
6.89659e-05
0.000135511
5.70195e-05
4.7877e-05
4.78774e-05
5.70265e-05
5.702e-05
4.78767e-05
4.78771e-05
5.7027e-05
2.6095e-05
2.60948e-05
2.60941e-05
2.60939e-05
0.000203163
3.85026e-05
3.8495e-05
3.84999e-05
3.84924e-05
2.60948e-05
2.6095e-05
2.60939e-05
2.60941e-05
2.60965e-05
2.6096e-05
2.60943e-05
2.60941e-05
3.85017e-05
3.8494e-05
0.00020328
3.85036e-05
3.84965e-05
2.6096e-05
2.60962e-05
2.60941e-05
2.60943e-05
0.000203168
3.85035e-05
3.84965e-05
3.85009e-05
3.84941e-05
5.70202e-05
4.78803e-05