/*--------------------------------*- C++ -*----------------------------------*\
| =========                 |                                                 |
| \\      /  F ield         | OpenFOAM: The Open Source CFD Toolbox           |
|  \\    /   O peration     | Version:  2206                                  |
|   \\  /    A nd           | Website:  www.openfoam.com                      |
|    \\/     M anipulation  |                                                 |
\*---------------------------------------------------------------------------*/
FoamFile
{
    version     2.0;
    format      ascii;
    arch        "LSB;label=32;scalar=64";
    class       volScalarField;
    location    "36.5";
    object      k;
}
// * * * * * * * * * * * * * * * * * * * * * * * * * * * * * * * * * * * * * //

dimensions      [0 2 -2 0 0 0 0];

internalField   nonuniform List<scalar> 
28673
(
2.32733e-05
2.25771e-05
2.40179e-05
2.32735e-05
2.32732e-05
2.258e-05
2.40179e-05
2.32735e-05
2.32732e-05
2.25801e-05
2.40179e-05
2.32736e-05
2.32733e-05
2.25803e-05
2.4018e-05
2.32737e-05
2.32734e-05
2.25805e-05
2.40179e-05
2.32738e-05
2.32735e-05
2.25807e-05
2.40178e-05
2.32737e-05
2.32735e-05
2.25809e-05
2.40177e-05
2.32735e-05
2.32733e-05
2.25808e-05
2.4016e-05
2.327e-05
2.32715e-05
2.25775e-05
2.40115e-05
2.32664e-05
2.32665e-05
2.25731e-05
2.40112e-05
2.32664e-05
2.32662e-05
2.25727e-05
2.40117e-05
2.32667e-05
2.32666e-05
2.25731e-05
2.40408e-05
2.33085e-05
2.33085e-05
2.26612e-05
2.32727e-05
2.25784e-05
2.32733e-05
2.25806e-05
2.32728e-05
2.32726e-05
2.32726e-05
2.32727e-05
2.25748e-05
2.25844e-05
2.32731e-05
2.32723e-05
2.32728e-05
2.32734e-05
2.32728e-05
2.25831e-05
2.32733e-05
2.32732e-05
2.32732e-05
2.25842e-05
2.25769e-05
2.25828e-05
2.32727e-05
2.32728e-05
2.32727e-05
2.32728e-05
2.25804e-05
2.25844e-05
2.32732e-05
2.32724e-05
2.32732e-05
2.32724e-05
2.32729e-05
2.32735e-05
2.32729e-05
2.25795e-05
2.25838e-05
2.32733e-05
2.32733e-05
2.32733e-05
2.25842e-05
2.25791e-05
2.25847e-05
2.32729e-05
2.32729e-05
2.32729e-05
2.32729e-05
2.25804e-05
2.25846e-05
2.32734e-05
2.32725e-05
2.32734e-05
2.32725e-05
2.3273e-05
2.32736e-05
2.32729e-05
2.25798e-05
2.25841e-05
2.32734e-05
2.32733e-05
2.32734e-05
2.25845e-05
2.25807e-05
2.25849e-05
2.32731e-05
2.3273e-05
2.32731e-05
2.32731e-05
2.25807e-05
2.25849e-05
2.32736e-05
2.32727e-05
2.32736e-05
2.32726e-05
2.3273e-05
2.32737e-05
2.3273e-05
2.25801e-05
2.25843e-05
2.32734e-05
2.32734e-05
2.32734e-05
2.25847e-05
2.2581e-05
2.25852e-05
2.32733e-05
2.32732e-05
2.32733e-05
2.32732e-05
2.25809e-05
2.25851e-05
2.32737e-05
2.32727e-05
2.32737e-05
2.32728e-05
2.32732e-05
2.32738e-05
2.32732e-05
2.25804e-05
2.25846e-05
2.32736e-05
2.32735e-05
2.32736e-05
2.25849e-05
2.25812e-05
2.25854e-05
2.32734e-05
2.32733e-05
2.32735e-05
2.32733e-05
2.25811e-05
2.25853e-05
2.32739e-05
2.32729e-05
2.32739e-05
2.32729e-05
2.32733e-05
2.32737e-05
2.32733e-05
2.25806e-05
2.25848e-05
2.32738e-05
2.32735e-05
2.32738e-05
2.25851e-05
2.25814e-05
2.25856e-05
2.32736e-05
2.32735e-05
2.32734e-05
2.3273e-05
2.25813e-05
2.25852e-05
2.3274e-05
2.3273e-05
2.3274e-05
2.32729e-05
2.32735e-05
2.32735e-05
2.32731e-05
2.25808e-05
2.25849e-05
2.32739e-05
2.32733e-05
2.32736e-05
2.25851e-05
2.25815e-05
2.25835e-05
2.32733e-05
2.32729e-05
2.32719e-05
2.32708e-05
2.2581e-05
2.2582e-05
2.3274e-05
2.32728e-05
2.3273e-05
2.3272e-05
2.3273e-05
2.32716e-05
2.32715e-05
2.25809e-05
2.25834e-05
2.32735e-05
2.32726e-05
2.32719e-05
2.25826e-05
2.25788e-05
2.25781e-05
2.32706e-05
2.32693e-05
2.32665e-05
2.32659e-05
2.25771e-05
2.25773e-05
2.32719e-05
2.32711e-05
2.32674e-05
2.32666e-05
2.32701e-05
2.32666e-05
2.32663e-05
2.25788e-05
2.2578e-05
2.32705e-05
2.32673e-05
2.32667e-05
2.25776e-05
2.25737e-05
2.25768e-05
2.32661e-05
2.32658e-05
2.32659e-05
2.32656e-05
2.25731e-05
2.25769e-05
2.32668e-05
2.32659e-05
2.32664e-05
2.32654e-05
2.3266e-05
2.32664e-05
2.32658e-05
2.25736e-05
2.25764e-05
2.32664e-05
2.32662e-05
2.32662e-05
2.25768e-05
2.25729e-05
2.25773e-05
2.32661e-05
2.32658e-05
2.32665e-05
2.32663e-05
2.25729e-05
2.25772e-05
2.32666e-05
2.32656e-05
2.3267e-05
2.3266e-05
2.3266e-05
2.3267e-05
2.32665e-05
2.25725e-05
2.25768e-05
2.32665e-05
2.32669e-05
2.32669e-05
2.25771e-05
2.25734e-05
2.26126e-05
2.32662e-05
2.32661e-05
2.32993e-05
2.32992e-05
2.25733e-05
2.26126e-05
2.32667e-05
2.32658e-05
2.32997e-05
2.3299e-05
2.32662e-05
2.32997e-05
2.32994e-05
2.25729e-05
2.26122e-05
2.32667e-05
2.32996e-05
2.32997e-05
2.26125e-05
2.26614e-05
2.33083e-05
2.33082e-05
2.26613e-05
2.33086e-05
2.3308e-05
2.40408e-05
2.40407e-05
2.40408e-05
2.33083e-05
2.2661e-05
2.33086e-05
2.80675e-05
6.976e-05
2.80691e-05
6.97575e-05
7.59161e-05
7.59147e-05
2.80684e-05
6.97601e-05
2.40181e-05
2.40179e-05
2.40179e-05
2.4018e-05
2.40178e-05
2.40178e-05
2.18202e-05
2.757e-05
2.36679e-05
2.32734e-05
2.18205e-05
2.75654e-05
2.36679e-05
7.59125e-05
2.18194e-05
2.36677e-05
2.32732e-05
2.18197e-05
2.36677e-05
2.75651e-05
3.70489e-05
3.70527e-05
2.25842e-05
3.70462e-05
3.705e-05
2.80702e-05
6.97581e-05
2.80723e-05
6.9756e-05
7.59118e-05
7.59117e-05
2.80715e-05
6.97611e-05
2.80732e-05
6.97589e-05
2.4018e-05
2.40178e-05
2.40178e-05
2.40179e-05
2.40179e-05
2.40177e-05
2.40177e-05
2.18211e-05
2.75726e-05
2.36678e-05
2.32736e-05
2.18211e-05
2.75677e-05
2.36679e-05
7.59094e-05
7.59087e-05
2.18202e-05
2.36676e-05
2.75723e-05
2.32733e-05
2.18202e-05
2.36677e-05
2.75678e-05
3.70512e-05
3.70548e-05
2.25841e-05
3.705e-05
3.70537e-05
2.80722e-05
6.97575e-05
2.80745e-05
6.97557e-05
7.59103e-05
7.59107e-05
2.80737e-05
6.97603e-05
2.80757e-05
6.97584e-05
2.4018e-05
2.40177e-05
2.40177e-05
2.40179e-05
2.40179e-05
2.40176e-05
2.40176e-05
2.1822e-05
2.75744e-05
2.36679e-05
2.32737e-05
2.1822e-05
2.75692e-05
2.3668e-05
7.59069e-05
7.59071e-05
2.1821e-05
2.36676e-05
2.75746e-05
2.32733e-05
2.18211e-05
2.36677e-05
2.75698e-05
3.70547e-05
3.70584e-05
2.25843e-05
3.7053e-05
3.70567e-05
2.80737e-05
6.97575e-05
2.80762e-05
6.97559e-05
7.59101e-05
7.59109e-05
2.80753e-05
6.97603e-05
2.80774e-05
6.97586e-05
2.40181e-05
2.40177e-05
2.40177e-05
2.4018e-05
2.40179e-05
2.40177e-05
2.40177e-05
2.18226e-05
2.75755e-05
2.36679e-05
2.32738e-05
2.18227e-05
2.75701e-05
2.3668e-05
7.5906e-05
7.59066e-05
2.18216e-05
2.36676e-05
2.75761e-05
2.32734e-05
2.18218e-05
2.36677e-05
2.7571e-05
3.70564e-05
3.70602e-05
2.25845e-05
3.7054e-05
3.70579e-05
2.80746e-05
6.97577e-05
2.80773e-05
6.97569e-05
7.59107e-05
7.59125e-05
2.80762e-05
6.97604e-05
2.80787e-05
6.97595e-05
2.40179e-05
2.40178e-05
2.40178e-05
2.4018e-05
2.40179e-05
2.40178e-05
2.40178e-05
2.1823e-05
2.75761e-05
2.36679e-05
2.32738e-05
2.18232e-05
2.75704e-05
2.3668e-05
7.59061e-05
7.59078e-05
2.1822e-05
2.36677e-05
2.75767e-05
2.32735e-05
2.18223e-05
2.36678e-05
2.75713e-05
3.70571e-05
3.7061e-05
2.25848e-05
3.70549e-05
3.70589e-05
2.80745e-05
6.97585e-05
2.80776e-05
6.97595e-05
7.59123e-05
7.59183e-05
2.8076e-05
6.97615e-05
2.80788e-05
6.97623e-05
2.40179e-05
2.40178e-05
2.40179e-05
2.40178e-05
2.40178e-05
2.40176e-05
2.40179e-05
2.18231e-05
2.75762e-05
2.36679e-05
2.32738e-05
2.18235e-05
2.75694e-05
2.36681e-05
7.59075e-05
7.59136e-05
2.18222e-05
2.36678e-05
2.75768e-05
2.32736e-05
2.18225e-05
2.36678e-05
2.75703e-05
3.70588e-05
3.70627e-05
2.2585e-05
3.70561e-05
3.70601e-05
2.80745e-05
6.97587e-05
2.80787e-05
6.97613e-05
7.5914e-05
7.5923e-05
2.80764e-05
6.9762e-05
2.808e-05
6.97643e-05
2.40177e-05
2.40176e-05
2.40178e-05
2.40177e-05
2.40175e-05
2.40174e-05
2.40175e-05
2.18233e-05
2.75772e-05
2.36679e-05
2.32737e-05
2.18239e-05
2.75688e-05
2.36679e-05
7.59091e-05
7.59186e-05
2.18223e-05
2.36676e-05
2.75779e-05
2.32735e-05
2.1823e-05
2.36676e-05
2.75697e-05
3.7061e-05
3.7065e-05
2.25851e-05
3.70558e-05
3.70599e-05
2.80741e-05
6.97595e-05
2.80787e-05
6.97671e-05
7.59134e-05
7.5926e-05
2.80761e-05
6.97626e-05
2.80805e-05
6.97701e-05
2.40175e-05
2.40173e-05
2.40174e-05
2.4017e-05
2.40164e-05
2.40169e-05
2.40165e-05
2.18214e-05
2.7577e-05
2.36677e-05
2.32733e-05
2.18232e-05
2.75657e-05
2.36675e-05
7.59105e-05
7.59245e-05
2.18206e-05
2.36674e-05
2.75775e-05
2.32732e-05
2.18224e-05
2.36673e-05
2.75667e-05
3.70619e-05
3.70659e-05
2.25844e-05
3.70576e-05
3.70615e-05
2.80711e-05
6.97618e-05
2.80763e-05
6.97756e-05
7.59054e-05
7.59221e-05
2.80739e-05
6.97654e-05
2.80787e-05
6.97794e-05
2.4015e-05
2.40162e-05
2.40152e-05
2.40122e-05
2.40116e-05
2.40122e-05
2.40117e-05
2.18157e-05
2.75734e-05
2.36649e-05
2.32686e-05
2.18195e-05
2.75567e-05
2.36635e-05
7.59053e-05
7.59222e-05
2.1815e-05
2.36654e-05
2.75749e-05
2.327e-05
2.18188e-05
2.3664e-05
2.75587e-05
3.70643e-05
3.70679e-05
2.25798e-05
3.70604e-05
3.70639e-05
2.80704e-05
6.97629e-05
2.80731e-05
6.97848e-05
7.58855e-05
7.59087e-05
2.80725e-05
6.9767e-05
2.80752e-05
6.97892e-05
2.40114e-05
2.40115e-05
2.40114e-05
2.40112e-05
2.40112e-05
2.4011e-05
2.40111e-05
2.18126e-05
2.75691e-05
2.3661e-05
2.32664e-05
2.18157e-05
2.7549e-05
2.36609e-05
7.58862e-05
7.59094e-05
2.18117e-05
2.3661e-05
2.75711e-05
2.32663e-05
2.18149e-05
2.36608e-05
2.75513e-05
3.7064e-05
3.70674e-05
2.25768e-05
3.70602e-05
3.70634e-05
2.80746e-05
6.97472e-05
2.80736e-05
6.97826e-05
7.58467e-05
7.58765e-05
2.80762e-05
6.97514e-05
2.80751e-05
6.97867e-05
2.40113e-05
2.40111e-05
2.40112e-05
2.40114e-05
2.40114e-05
2.40112e-05
2.40113e-05
2.18113e-05
2.75814e-05
2.3661e-05
2.32666e-05
2.18164e-05
2.75524e-05
2.3661e-05
7.58483e-05
7.58773e-05
2.18105e-05
2.36608e-05
2.75834e-05
2.32664e-05
2.18155e-05
2.36608e-05
2.75544e-05
3.70581e-05
3.7061e-05
2.25769e-05
3.7055e-05
3.70579e-05
2.80758e-05
6.97035e-05
2.80707e-05
6.97608e-05
7.57638e-05
7.57921e-05
2.80777e-05
6.97075e-05
2.80721e-05
6.97645e-05
2.40118e-05
2.40117e-05
2.40117e-05
2.40206e-05
2.40206e-05
2.40205e-05
2.40206e-05
2.1808e-05
2.76104e-05
2.36623e-05
2.32708e-05
2.18178e-05
2.75298e-05
2.36613e-05
7.57643e-05
7.57922e-05
2.18073e-05
2.36621e-05
2.76118e-05
2.32706e-05
2.1817e-05
2.36612e-05
2.75306e-05
3.70361e-05
3.7039e-05
2.25822e-05
3.70116e-05
3.70143e-05
2.49678e-05
6.78814e-05
2.789e-05
6.11084e-05
7.20883e-05
4.97334e-05
2.49692e-05
6.78878e-05
2.78922e-05
6.1114e-05
2.43925e-05
2.42544e-05
2.42545e-05
2.39554e-05
2.43862e-05
2.42255e-05
2.42255e-05
2.18286e-05
2.71532e-05
2.37106e-05
2.33557e-05
2.18373e-05
3.0198e-05
2.3792e-05
7.20879e-05
4.97321e-05
2.18281e-05
2.37105e-05
2.71531e-05
2.33557e-05
2.18367e-05
2.37919e-05
3.01968e-05
3.71681e-05
3.71706e-05
2.27732e-05
3.46961e-05
3.4696e-05
6.97618e-05
2.75667e-05
7.59175e-05
3.7049e-05
3.70401e-05
7.59131e-05
2.75639e-05
6.97585e-05
7.59179e-05
7.59163e-05
7.59165e-05
3.70489e-05
2.25793e-05
3.70461e-05
3.7048e-05
7.5914e-05
7.59152e-05
7.59138e-05
7.59154e-05
2.25755e-05
3.70478e-05
3.705e-05
3.70486e-05
3.70508e-05
2.8068e-05
6.97634e-05
2.80696e-05
6.97609e-05
2.18203e-05
2.75702e-05
2.36678e-05
2.32728e-05
2.18205e-05
2.7566e-05
2.36678e-05
2.18204e-05
2.75725e-05
2.36679e-05
2.32726e-05
2.18207e-05
2.75681e-05
2.36679e-05
2.80709e-05
6.97566e-05
6.9759e-05
2.8069e-05
2.80713e-05
6.97601e-05
6.97625e-05
2.80695e-05
2.1821e-05
2.32727e-05
2.75673e-05
2.36678e-05
2.75717e-05
2.36678e-05
2.18207e-05
2.18211e-05
2.32726e-05
2.75694e-05
2.36678e-05
2.75739e-05
2.36679e-05
2.18208e-05
3.7052e-05
3.70434e-05
2.25826e-05
3.70513e-05
3.70426e-05
7.59125e-05
7.59108e-05
7.59128e-05
7.59137e-05
2.25791e-05
3.70534e-05
3.70444e-05
3.70541e-05
3.70456e-05
7.5909e-05
7.59101e-05
2.1821e-05
2.32732e-05
2.75665e-05
2.36678e-05
2.80679e-05
6.97563e-05
2.18207e-05
2.32723e-05
2.36676e-05
2.7565e-05
2.80715e-05
6.97594e-05
6.97618e-05
2.80701e-05
2.18217e-05
2.32732e-05
2.75678e-05
2.36677e-05
2.75722e-05
2.36678e-05
2.18214e-05
2.80711e-05
6.97552e-05
6.97579e-05
2.80696e-05
2.18214e-05
2.32723e-05
2.36675e-05
2.75665e-05
2.36675e-05
2.75711e-05
2.18212e-05
2.80678e-05
6.97602e-05
2.80694e-05
6.97576e-05
2.18203e-05
2.36678e-05
2.757e-05
2.32728e-05
2.18205e-05
2.36678e-05
2.75658e-05
2.80678e-05
6.97614e-05
2.80694e-05
6.97589e-05
2.18209e-05
2.32734e-05
2.75667e-05
2.36679e-05
2.75714e-05
2.36679e-05
2.18207e-05
2.80712e-05
6.97568e-05
6.97593e-05
2.80693e-05
2.1821e-05
2.32728e-05
2.36677e-05
2.7567e-05
2.36677e-05
2.75715e-05
2.18207e-05
2.80711e-05
6.9758e-05
6.97604e-05
2.80692e-05
2.25783e-05
3.70429e-05
3.70449e-05
7.59175e-05
7.59103e-05
7.5912e-05
2.2575e-05
3.70454e-05
3.70469e-05
3.70462e-05
3.70477e-05
7.59147e-05
7.59164e-05
2.18193e-05
2.36677e-05
2.7571e-05
2.32733e-05
2.18197e-05
2.36677e-05
2.75667e-05
2.80665e-05
2.80684e-05
6.9759e-05
2.80663e-05
6.97641e-05
2.80683e-05
6.97615e-05
2.18201e-05
2.32732e-05
2.36676e-05
2.75666e-05
2.36677e-05
2.75709e-05
2.18198e-05
2.182e-05
2.32732e-05
2.36676e-05
2.75679e-05
2.36676e-05
2.75725e-05
2.18197e-05
2.80701e-05
6.97583e-05
6.97606e-05
2.80679e-05
2.80699e-05
6.97606e-05
6.9763e-05
2.80677e-05
7.59175e-05
7.59159e-05
7.59168e-05
7.59152e-05
2.25803e-05
3.70481e-05
3.70518e-05
3.70489e-05
3.70526e-05
7.59135e-05
7.59148e-05
7.59128e-05
7.59141e-05
7.59132e-05
7.59124e-05
7.59128e-05
7.59118e-05
3.70505e-05
3.70526e-05
2.25817e-05
3.70497e-05
3.70519e-05
7.59116e-05
7.59119e-05
7.59106e-05
7.59112e-05
2.25779e-05
3.70514e-05
3.70538e-05
3.70523e-05
3.70546e-05
2.80707e-05
6.97617e-05
2.80727e-05
6.97595e-05
2.18211e-05
2.75729e-05
2.36678e-05
2.32727e-05
2.18214e-05
2.75684e-05
2.36678e-05
2.18213e-05
2.75751e-05
2.36678e-05
2.32728e-05
2.18215e-05
2.75704e-05
2.36678e-05
2.80735e-05
6.97557e-05
6.97576e-05
2.80713e-05
2.80739e-05
6.97593e-05
6.97612e-05
2.80718e-05
2.18218e-05
2.32727e-05
2.75693e-05
2.36678e-05
2.7574e-05
2.36678e-05
2.18216e-05
2.1822e-05
2.32728e-05
2.75713e-05
2.36677e-05
2.75761e-05
2.36678e-05
2.18218e-05
3.70561e-05
3.70474e-05
2.25842e-05
3.70552e-05
3.7046e-05
7.59085e-05
7.5908e-05
7.5911e-05
7.59112e-05
2.25802e-05
3.70566e-05
3.70472e-05
3.70579e-05
3.70489e-05
7.59073e-05
7.59076e-05
2.18218e-05
2.75735e-05
2.36678e-05
2.32732e-05
2.18221e-05
2.7569e-05
2.36678e-05
2.8071e-05
6.97569e-05
2.80727e-05
6.97544e-05
2.18216e-05
2.36676e-05
2.75726e-05
2.32724e-05
2.18218e-05
2.36676e-05
2.75678e-05
2.80745e-05
6.97585e-05
6.97606e-05
2.80727e-05
2.18225e-05
2.32732e-05
2.757e-05
2.36678e-05
2.75746e-05
2.36678e-05
2.18222e-05
2.8074e-05
6.9754e-05
6.97562e-05
2.80722e-05
2.18222e-05
2.32724e-05
2.36676e-05
2.75688e-05
2.36676e-05
2.75738e-05
2.1822e-05
2.80706e-05
6.97586e-05
2.80726e-05
6.97563e-05
2.18211e-05
2.36678e-05
2.75727e-05
2.32729e-05
2.18214e-05
2.36678e-05
2.75681e-05
2.80705e-05
6.97596e-05
2.80725e-05
6.97573e-05
2.18218e-05
2.32736e-05
2.75685e-05
2.36679e-05
2.75736e-05
2.36679e-05
2.18216e-05
2.80738e-05
6.9756e-05
6.97581e-05
2.80717e-05
2.18219e-05
2.32729e-05
2.36678e-05
2.75691e-05
2.36678e-05
2.75738e-05
2.18216e-05
2.80737e-05
6.97569e-05
6.9759e-05
2.80716e-05
3.70484e-05
3.70496e-05
2.25839e-05
3.70473e-05
3.70489e-05
7.59137e-05
7.59127e-05
7.59076e-05
7.59081e-05
2.25798e-05
3.70489e-05
3.70508e-05
3.70503e-05
3.70516e-05
7.59115e-05
7.59121e-05
2.18201e-05
2.36677e-05
2.75737e-05
2.32733e-05
2.18204e-05
2.36677e-05
2.7569e-05
2.80691e-05
6.97599e-05
2.80715e-05
6.97576e-05
2.80689e-05
6.97622e-05
2.80713e-05
6.976e-05
2.18209e-05
2.32733e-05
2.36677e-05
2.75689e-05
2.36677e-05
2.75735e-05
2.18206e-05
2.18208e-05
2.32733e-05
2.36676e-05
2.757e-05
2.36676e-05
2.75747e-05
2.18205e-05
2.80726e-05
6.97572e-05
6.97593e-05
2.80702e-05
2.80724e-05
6.97598e-05
6.97617e-05
2.80699e-05
7.59128e-05
7.5912e-05
7.59121e-05
7.59113e-05
2.25801e-05
3.70517e-05
3.70554e-05
3.70527e-05
3.70563e-05
7.59112e-05
7.59115e-05
7.59105e-05
7.59108e-05
7.59111e-05
7.59112e-05
7.59102e-05
7.59101e-05
3.7054e-05
3.70564e-05
2.25841e-05
3.70528e-05
3.70553e-05
7.5911e-05
7.59108e-05
7.59098e-05
7.59097e-05
2.25803e-05
3.70536e-05
3.70563e-05
3.70552e-05
3.70578e-05
2.80727e-05
6.97611e-05
2.8075e-05
6.97592e-05
2.1822e-05
2.75749e-05
2.36679e-05
2.32729e-05
2.18223e-05
2.75701e-05
2.36679e-05
2.18222e-05
2.75769e-05
2.36678e-05
2.32729e-05
2.18225e-05
2.7572e-05
2.36678e-05
2.80754e-05
6.97558e-05
6.97575e-05
2.8073e-05
2.80759e-05
6.97591e-05
6.9761e-05
2.80735e-05
2.18227e-05
2.32729e-05
2.75707e-05
2.36679e-05
2.75756e-05
2.36679e-05
2.18223e-05
2.18229e-05
2.32729e-05
2.75725e-05
2.36678e-05
2.75776e-05
2.36678e-05
2.18225e-05
3.70591e-05
3.705e-05
2.25845e-05
3.70576e-05
3.70481e-05
7.5907e-05
7.5907e-05
7.59107e-05
7.59103e-05
2.25806e-05
3.70582e-05
3.70488e-05
3.706e-05
3.70508e-05
7.59067e-05
7.59067e-05
2.18226e-05
2.75756e-05
2.36679e-05
2.32734e-05
2.18229e-05
2.75709e-05
2.36679e-05
2.80733e-05
6.97559e-05
2.80752e-05
6.97539e-05
2.18223e-05
2.36677e-05
2.75748e-05
2.32725e-05
2.18226e-05
2.36677e-05
2.75697e-05
2.80766e-05
6.97585e-05
6.97603e-05
2.80746e-05
2.18232e-05
2.32734e-05
2.75716e-05
2.36678e-05
2.75764e-05
2.36678e-05
2.18229e-05
2.80762e-05
6.97539e-05
6.97558e-05
2.80741e-05
2.1823e-05
2.32725e-05
2.36676e-05
2.75704e-05
2.36676e-05
2.75756e-05
2.18226e-05
2.80726e-05
6.97579e-05
2.80748e-05
6.97559e-05
2.1822e-05
2.36679e-05
2.75747e-05
2.3273e-05
2.18223e-05
2.36679e-05
2.75698e-05
2.80725e-05
6.97587e-05
2.80748e-05
6.97568e-05
2.18227e-05
2.32736e-05
2.75697e-05
2.36679e-05
2.7575e-05
2.36679e-05
2.18223e-05
2.80757e-05
6.97558e-05
6.97578e-05
2.80734e-05
2.18227e-05
2.32729e-05
2.36678e-05
2.75704e-05
2.36678e-05
2.75754e-05
2.18223e-05
2.80756e-05
6.97568e-05
6.97586e-05
2.80733e-05
3.70518e-05
3.70534e-05
2.2584e-05
3.70501e-05
3.70523e-05
7.5911e-05
7.59109e-05
7.59066e-05
7.59067e-05
2.258e-05
3.7051e-05
3.70533e-05
3.70529e-05
3.70548e-05
7.59107e-05
7.59106e-05
2.18209e-05
2.36677e-05
2.75756e-05
2.32734e-05
2.18212e-05
2.36677e-05
2.75707e-05
2.80711e-05
6.9759e-05
2.80737e-05
6.97571e-05
2.80708e-05
6.97615e-05
2.80734e-05
6.97598e-05
2.18217e-05
2.32733e-05
2.36676e-05
2.75705e-05
2.36677e-05
2.75754e-05
2.18214e-05
2.18216e-05
2.32734e-05
2.36676e-05
2.75713e-05
2.36676e-05
2.75764e-05
2.18212e-05
2.80745e-05
6.97572e-05
6.9759e-05
2.80719e-05
2.80743e-05
6.97598e-05
6.97616e-05
2.80716e-05
7.59107e-05
7.59108e-05
7.591e-05
7.59101e-05
2.25804e-05
3.70537e-05
3.70575e-05
3.70554e-05
3.70591e-05
7.59106e-05
7.59104e-05
7.59099e-05
7.59098e-05
7.59107e-05
7.5911e-05
7.59095e-05
7.59097e-05
3.70558e-05
3.70586e-05
2.25847e-05
3.7054e-05
3.70568e-05
7.59115e-05
7.59108e-05
7.591e-05
7.59094e-05
2.25808e-05
3.70544e-05
3.70571e-05
3.70562e-05
3.70591e-05
2.80741e-05
6.97609e-05
2.80766e-05
6.97592e-05
2.18226e-05
2.75762e-05
2.36681e-05
2.32731e-05
2.1823e-05
2.75711e-05
2.36681e-05
2.18228e-05
2.7578e-05
2.3668e-05
2.3273e-05
2.18232e-05
2.75728e-05
2.3668e-05
2.80768e-05
6.97562e-05
6.97576e-05
2.80742e-05
2.80772e-05
6.97595e-05
6.9761e-05
2.80746e-05
2.18233e-05
2.32731e-05
2.75714e-05
2.3668e-05
2.75766e-05
2.3668e-05
2.18229e-05
2.18235e-05
2.3273e-05
2.75731e-05
2.36679e-05
2.75784e-05
2.36679e-05
2.18231e-05
3.70606e-05
3.70515e-05
2.25848e-05
3.70587e-05
3.70495e-05
7.59065e-05
7.59068e-05
7.59113e-05
7.59106e-05
2.25808e-05
3.70592e-05
3.70502e-05
3.70611e-05
3.70522e-05
7.59073e-05
7.59067e-05
2.18232e-05
2.75771e-05
2.36679e-05
2.32736e-05
2.18236e-05
2.75721e-05
2.36679e-05
2.80748e-05
6.97558e-05
2.8077e-05
6.97539e-05
2.18229e-05
2.36677e-05
2.75763e-05
2.32727e-05
2.18233e-05
2.36677e-05
2.75709e-05
2.80781e-05
6.97588e-05
6.97604e-05
2.80758e-05
2.18239e-05
2.32736e-05
2.75723e-05
2.36679e-05
2.75775e-05
2.36679e-05
2.18235e-05
2.80777e-05
6.97542e-05
6.97558e-05
2.80754e-05
2.18236e-05
2.32726e-05
2.36677e-05
2.75713e-05
2.36677e-05
2.75767e-05
2.18232e-05
2.8074e-05
6.97577e-05
2.80765e-05
6.97559e-05
2.18226e-05
2.36679e-05
2.75759e-05
2.3273e-05
2.1823e-05
2.36678e-05
2.75708e-05
2.80739e-05
6.97586e-05
2.80764e-05
6.97568e-05
2.18232e-05
2.32737e-05
2.75704e-05
2.36679e-05
2.75759e-05
2.36679e-05
2.18228e-05
2.80771e-05
6.97562e-05
6.97578e-05
2.80744e-05
2.18233e-05
2.3273e-05
2.36678e-05
2.75711e-05
2.36678e-05
2.75763e-05
2.18229e-05
2.8077e-05
6.97571e-05
6.97586e-05
2.80744e-05
3.70536e-05
3.70557e-05
2.25842e-05
3.70516e-05
3.70539e-05
7.59103e-05
7.59106e-05
7.59068e-05
7.59063e-05
2.25802e-05
3.70524e-05
3.70543e-05
3.70543e-05
3.70562e-05
7.59109e-05
7.59103e-05
2.18215e-05
2.36677e-05
2.75769e-05
2.32734e-05
2.1822e-05
2.36677e-05
2.75718e-05
2.80725e-05
6.9759e-05
2.80753e-05
6.97573e-05
2.80722e-05
6.97615e-05
2.8075e-05
6.97598e-05
2.18223e-05
2.32734e-05
2.36677e-05
2.75713e-05
2.36677e-05
2.75765e-05
2.18219e-05
2.18222e-05
2.32734e-05
2.36676e-05
2.7572e-05
2.36676e-05
2.75773e-05
2.18218e-05
2.80758e-05
6.97575e-05
6.9759e-05
2.8073e-05
2.80756e-05
6.976e-05
6.97615e-05
2.80727e-05
7.59103e-05
7.59106e-05
7.59096e-05
7.591e-05
2.25806e-05
3.70544e-05
3.70583e-05
3.70563e-05
3.70601e-05
7.5911e-05
7.59103e-05
7.59103e-05
7.59097e-05
7.59111e-05
7.59126e-05
7.59096e-05
7.5911e-05
3.70567e-05
3.70594e-05
2.2585e-05
3.7055e-05
3.70576e-05
7.59151e-05
7.59117e-05
7.59134e-05
7.59101e-05
2.25811e-05
3.70558e-05
3.70583e-05
3.70574e-05
3.706e-05
2.8075e-05
6.97611e-05
2.80777e-05
6.97603e-05
2.18232e-05
2.75768e-05
2.36681e-05
2.32733e-05
2.18236e-05
2.75715e-05
2.36681e-05
2.18233e-05
2.75786e-05
2.3668e-05
2.32732e-05
2.18238e-05
2.75731e-05
2.3668e-05
2.80776e-05
6.97579e-05
6.97579e-05
2.80747e-05
2.8078e-05
6.97615e-05
6.97614e-05
2.80751e-05
2.18239e-05
2.32733e-05
2.75711e-05
2.36681e-05
2.75769e-05
2.36681e-05
2.18234e-05
2.1824e-05
2.32732e-05
2.75727e-05
2.3668e-05
2.75786e-05
2.3668e-05
2.18235e-05
3.70616e-05
3.70529e-05
2.2585e-05
3.70598e-05
3.70509e-05
7.59071e-05
7.59086e-05
7.5915e-05
7.59116e-05
2.2581e-05
3.70604e-05
3.70516e-05
3.70623e-05
3.70537e-05
7.59113e-05
7.59078e-05
2.18237e-05
2.75777e-05
2.3668e-05
2.32737e-05
2.18242e-05
2.75724e-05
2.3668e-05
2.80758e-05
6.97558e-05
2.80782e-05
6.97548e-05
2.18235e-05
2.36678e-05
2.75771e-05
2.32727e-05
2.18239e-05
2.36678e-05
2.75714e-05
2.80789e-05
6.97607e-05
6.97607e-05
2.80763e-05
2.18244e-05
2.32737e-05
2.7572e-05
2.36679e-05
2.75778e-05
2.3668e-05
2.18239e-05
2.80785e-05
6.97557e-05
6.97559e-05
2.80759e-05
2.18241e-05
2.32727e-05
2.36677e-05
2.7571e-05
2.36677e-05
2.75772e-05
2.18236e-05
2.80748e-05
6.97579e-05
2.80775e-05
6.9757e-05
2.18231e-05
2.36679e-05
2.75765e-05
2.32732e-05
2.18235e-05
2.36679e-05
2.75711e-05
2.80747e-05
6.97586e-05
2.80774e-05
6.97578e-05
2.18236e-05
2.32738e-05
2.757e-05
2.36679e-05
2.75762e-05
2.36679e-05
2.18231e-05
2.80778e-05
6.97581e-05
6.97582e-05
2.80749e-05
2.18237e-05
2.32732e-05
2.36679e-05
2.75707e-05
2.36679e-05
2.75766e-05
2.18232e-05
2.80777e-05
6.9759e-05
6.97589e-05
2.80748e-05
3.70551e-05
3.70566e-05
2.25844e-05
3.70532e-05
3.70548e-05
7.59105e-05
7.59119e-05
7.59102e-05
7.59069e-05
2.25805e-05
3.70538e-05
3.70555e-05
3.70559e-05
3.70572e-05
7.59144e-05
7.5911e-05
2.1822e-05
2.36677e-05
2.75775e-05
2.32736e-05
2.18225e-05
2.36677e-05
2.7572e-05
2.80733e-05
6.9759e-05
2.80763e-05
6.97582e-05
2.8073e-05
6.97615e-05
2.80761e-05
6.97606e-05
2.18227e-05
2.32735e-05
2.36678e-05
2.75709e-05
2.36678e-05
2.75767e-05
2.18221e-05
2.18226e-05
2.32736e-05
2.36677e-05
2.75716e-05
2.36677e-05
2.75775e-05
2.18221e-05
2.80766e-05
6.97593e-05
6.97592e-05
2.80734e-05
2.80763e-05
6.97617e-05
6.97616e-05
2.80731e-05
7.59106e-05
7.59121e-05
7.59099e-05
7.59115e-05
2.25808e-05
3.70556e-05
3.70596e-05
3.70574e-05
3.70613e-05
7.59146e-05
7.59112e-05
7.59139e-05
7.59105e-05
7.59126e-05
7.59184e-05
7.59109e-05
7.59167e-05
3.70585e-05
3.70611e-05
2.25853e-05
3.70564e-05
3.70589e-05
7.5921e-05
7.59136e-05
7.59192e-05
7.5912e-05
2.25813e-05
3.70564e-05
3.70593e-05
3.70599e-05
3.70625e-05
2.80749e-05
6.97623e-05
2.80779e-05
6.97632e-05
2.18235e-05
2.75769e-05
2.36683e-05
2.32734e-05
2.18241e-05
2.75705e-05
2.36682e-05
2.18236e-05
2.75786e-05
2.36682e-05
2.32733e-05
2.18242e-05
2.75721e-05
2.36682e-05
2.80776e-05
6.97604e-05
6.97592e-05
2.80742e-05
2.80779e-05
6.97645e-05
6.9763e-05
2.80746e-05
2.18243e-05
2.32734e-05
2.75702e-05
2.36681e-05
2.75774e-05
2.36682e-05
2.18236e-05
2.18244e-05
2.32733e-05
2.75717e-05
2.3668e-05
2.75789e-05
2.36681e-05
2.18237e-05
3.70632e-05
3.70547e-05
2.25853e-05
3.70608e-05
3.7052e-05
7.5909e-05
7.59146e-05
7.59211e-05
7.59135e-05
2.25813e-05
3.70606e-05
3.70518e-05
3.70644e-05
3.70558e-05
7.59174e-05
7.591e-05
2.1824e-05
2.75779e-05
2.3668e-05
2.32739e-05
2.18245e-05
2.75715e-05
2.3668e-05
2.80756e-05
6.97567e-05
2.80784e-05
6.97574e-05
2.18237e-05
2.36678e-05
2.75772e-05
2.32729e-05
2.18243e-05
2.36678e-05
2.75704e-05
2.80788e-05
6.97636e-05
6.97623e-05
2.80757e-05
2.18247e-05
2.32739e-05
2.75713e-05
2.3668e-05
2.75784e-05
2.3668e-05
2.18241e-05
2.80785e-05
6.97586e-05
6.97573e-05
2.80754e-05
2.18245e-05
2.32729e-05
2.36678e-05
2.75702e-05
2.36678e-05
2.75776e-05
2.18239e-05
2.80746e-05
6.97592e-05
2.80777e-05
6.976e-05
2.18233e-05
2.3668e-05
2.75766e-05
2.32733e-05
2.18239e-05
2.3668e-05
2.75701e-05
2.80746e-05
6.97597e-05
2.80776e-05
6.97606e-05
2.18239e-05
2.32738e-05
2.7569e-05
2.36679e-05
2.75765e-05
2.3668e-05
2.18232e-05
2.80777e-05
6.97612e-05
6.97599e-05
2.80743e-05
2.18241e-05
2.32733e-05
2.3668e-05
2.75698e-05
2.3668e-05
2.7577e-05
2.18234e-05
2.80777e-05
6.97617e-05
6.97604e-05
2.80743e-05
3.70569e-05
3.70583e-05
2.25847e-05
3.70543e-05
3.70561e-05
7.59119e-05
7.59177e-05
7.59161e-05
7.5909e-05
2.25808e-05
3.70544e-05
3.70564e-05
3.70582e-05
3.70597e-05
7.59202e-05
7.5913e-05
2.18221e-05
2.36679e-05
2.75775e-05
2.32738e-05
2.18228e-05
2.36679e-05
2.7571e-05
2.80731e-05
6.976e-05
2.80764e-05
6.97609e-05
2.80729e-05
6.97624e-05
2.80762e-05
6.97634e-05
2.18229e-05
2.32736e-05
2.36676e-05
2.757e-05
2.36677e-05
2.75772e-05
2.18222e-05
2.18229e-05
2.32738e-05
2.36678e-05
2.75707e-05
2.36679e-05
2.7578e-05
2.18222e-05
2.80765e-05
6.97619e-05
6.97607e-05
2.80729e-05
2.80763e-05
6.97644e-05
6.97632e-05
2.80726e-05
7.59121e-05
7.59179e-05
7.59114e-05
7.59172e-05
2.2581e-05
3.70562e-05
3.70602e-05
3.70597e-05
3.70637e-05
7.59205e-05
7.59132e-05
7.59198e-05
7.59125e-05
7.59142e-05
7.59234e-05
7.59124e-05
7.59217e-05
3.70608e-05
3.70638e-05
2.25855e-05
3.7056e-05
3.70593e-05
7.59257e-05
7.59143e-05
7.59246e-05
7.59128e-05
2.25816e-05
3.70565e-05
3.70598e-05
3.70614e-05
3.70647e-05
2.8075e-05
6.97629e-05
2.80791e-05
6.97658e-05
2.18234e-05
2.75781e-05
2.3668e-05
2.32735e-05
2.18245e-05
2.75699e-05
2.36679e-05
2.18236e-05
2.75796e-05
2.3668e-05
2.32734e-05
2.18247e-05
2.75714e-05
2.36678e-05
2.80796e-05
6.97635e-05
6.97585e-05
2.80748e-05
2.80801e-05
6.9768e-05
6.97631e-05
2.80753e-05
2.18243e-05
2.32735e-05
2.7569e-05
2.36677e-05
2.75784e-05
2.36678e-05
2.18227e-05
2.18245e-05
2.32732e-05
2.75705e-05
2.36677e-05
2.758e-05
2.36677e-05
2.18229e-05
3.70651e-05
3.70565e-05
2.25854e-05
3.70605e-05
3.70517e-05
7.59107e-05
7.59194e-05
7.59249e-05
7.59138e-05
2.25814e-05
3.70613e-05
3.70526e-05
3.70661e-05
3.70576e-05
7.59214e-05
7.59104e-05
2.18242e-05
2.75791e-05
2.36681e-05
2.3274e-05
2.18251e-05
2.75711e-05
2.36681e-05
2.8076e-05
6.9757e-05
2.80796e-05
6.97592e-05
2.1824e-05
2.36679e-05
2.75784e-05
2.3273e-05
2.18249e-05
2.36679e-05
2.75699e-05
2.80813e-05
6.97665e-05
6.97617e-05
2.80769e-05
2.18252e-05
2.3274e-05
2.75704e-05
2.36681e-05
2.75796e-05
2.36681e-05
2.18238e-05
2.80809e-05
6.97613e-05
6.97566e-05
2.80765e-05
2.1825e-05
2.3273e-05
2.36677e-05
2.75691e-05
2.36678e-05
2.75787e-05
2.18236e-05
2.80748e-05
6.97598e-05
2.80788e-05
6.97625e-05
2.18233e-05
2.36681e-05
2.75777e-05
2.32734e-05
2.18244e-05
2.36681e-05
2.75695e-05
2.80747e-05
6.976e-05
2.80788e-05
6.97626e-05
2.18242e-05
2.32736e-05
2.75679e-05
2.36677e-05
2.75775e-05
2.36678e-05
2.18228e-05
2.80798e-05
6.97647e-05
6.976e-05
2.80751e-05
2.18243e-05
2.32733e-05
2.36678e-05
2.75686e-05
2.36679e-05
2.7578e-05
2.18227e-05
2.80798e-05
6.97648e-05
6.97599e-05
2.8075e-05
3.70592e-05
3.70608e-05
2.25849e-05
3.70542e-05
3.70561e-05
7.59134e-05
7.59227e-05
7.59216e-05
7.59098e-05
2.25809e-05
3.70545e-05
3.70561e-05
3.70598e-05
3.70613e-05
7.59258e-05
7.59138e-05
2.18222e-05
2.36679e-05
2.75787e-05
2.32739e-05
2.18233e-05
2.36678e-05
2.75705e-05
2.80732e-05
6.97602e-05
2.80773e-05
6.97625e-05
2.80731e-05
6.97628e-05
2.80774e-05
6.97654e-05
2.18233e-05
2.32735e-05
2.36675e-05
2.75688e-05
2.36676e-05
2.75781e-05
2.18219e-05
2.18233e-05
2.32737e-05
2.36675e-05
2.75696e-05
2.36676e-05
2.7579e-05
2.18218e-05
2.80781e-05
6.97646e-05
6.97597e-05
2.80733e-05
2.80784e-05
6.97676e-05
6.97627e-05
2.80735e-05
7.59137e-05
7.59229e-05
7.5913e-05
7.59221e-05
2.25812e-05
3.70563e-05
3.70604e-05
3.70613e-05
3.70653e-05
7.59253e-05
7.59138e-05
7.59245e-05
7.59131e-05
7.59145e-05
7.59268e-05
7.59136e-05
7.59263e-05
3.70616e-05
3.70649e-05
2.25851e-05
3.70578e-05
3.70609e-05
7.59259e-05
7.59121e-05
7.59255e-05
7.59117e-05
2.25808e-05
3.70592e-05
3.70623e-05
3.70627e-05
3.70658e-05
2.80746e-05
6.97639e-05
2.80792e-05
6.97711e-05
2.18214e-05
2.75778e-05
2.36676e-05
2.32731e-05
2.18235e-05
2.75669e-05
2.36675e-05
2.18215e-05
2.75794e-05
2.36676e-05
2.32727e-05
2.18237e-05
2.75682e-05
2.36675e-05
2.80778e-05
6.97708e-05
6.97608e-05
2.80728e-05
2.80783e-05
6.97746e-05
6.97647e-05
2.80733e-05
2.18223e-05
2.32727e-05
2.75634e-05
2.36665e-05
2.75767e-05
2.36672e-05
2.1819e-05
2.18224e-05
2.32721e-05
2.75643e-05
2.36663e-05
2.75781e-05
2.36671e-05
2.18191e-05
3.70664e-05
3.70581e-05
2.25843e-05
3.70617e-05
3.70532e-05
7.59104e-05
7.59237e-05
7.59252e-05
7.59113e-05
2.25798e-05
3.7062e-05
3.70539e-05
3.70665e-05
3.70582e-05
7.59242e-05
7.59096e-05
2.18227e-05
2.75791e-05
2.36681e-05
2.32739e-05
2.18246e-05
2.75684e-05
2.36679e-05
2.80758e-05
6.97575e-05
2.80801e-05
6.97651e-05
2.18225e-05
2.36676e-05
2.75782e-05
2.32726e-05
2.18243e-05
2.36675e-05
2.75672e-05
2.80796e-05
6.97742e-05
6.9764e-05
2.80753e-05
2.18237e-05
2.32736e-05
2.75653e-05
2.36673e-05
2.75783e-05
2.36677e-05
2.18211e-05
2.80793e-05
6.97693e-05
6.97591e-05
2.80749e-05
2.18235e-05
2.32724e-05
2.3667e-05
2.75642e-05
2.36673e-05
2.75774e-05
2.18208e-05
2.80744e-05
6.97608e-05
2.8079e-05
6.97678e-05
2.18214e-05
2.36677e-05
2.75774e-05
2.32728e-05
2.18235e-05
2.36675e-05
2.75665e-05
2.80743e-05
6.97609e-05
2.80789e-05
6.97684e-05
2.18223e-05
2.32728e-05
2.75618e-05
2.36663e-05