/*--------------------------------*- C++ -*----------------------------------*\
| =========                 |                                                 |
| \\      /  F ield         | OpenFOAM: The Open Source CFD Toolbox           |
|  \\    /   O peration     | Version:  2206                                  |
|   \\  /    A nd           | Website:  www.openfoam.com                      |
|    \\/     M anipulation  |                                                 |
\*---------------------------------------------------------------------------*/
FoamFile
{
    version     2.0;
    format      ascii;
    arch        "LSB;label=32;scalar=64";
    class       volScalarField;
    location    "5";
    object      epsilon;
}
// * * * * * * * * * * * * * * * * * * * * * * * * * * * * * * * * * * * * * //

dimensions      [0 2 -3 0 0 0 0];

internalField   nonuniform List<scalar> 
28335
(
4.71919e-07
4.7335e-07
4.73351e-07
4.75385e-07
4.71667e-07
4.73113e-07
4.73113e-07
4.75143e-07
4.71663e-07
4.73109e-07
4.73109e-07
4.7514e-07
4.71662e-07
4.73108e-07
4.73109e-07
4.75141e-07
4.71662e-07
4.73108e-07
4.73109e-07
4.75141e-07
4.71662e-07
4.73108e-07
4.73109e-07
4.75141e-07
4.71662e-07
4.73108e-07
4.73109e-07
4.75141e-07
4.71662e-07
4.73108e-07
4.73109e-07
4.75141e-07
4.71662e-07
4.73108e-07
4.73109e-07
4.75141e-07
4.71662e-07
4.73108e-07
4.73109e-07
4.75141e-07
4.71662e-07
4.73108e-07
4.73109e-07
4.75141e-07
4.71662e-07
4.73108e-07
4.73109e-07
4.75141e-07
4.71662e-07
4.73108e-07
4.73109e-07
4.75141e-07
4.71662e-07
4.73108e-07
4.73109e-07
4.75141e-07
4.71662e-07
4.73108e-07
4.73109e-07
4.75141e-07
4.71662e-07
4.73108e-07
4.73109e-07
4.75141e-07
4.71662e-07
4.73108e-07
4.73109e-07
4.75141e-07
4.75372e-07
4.73384e-07
4.73383e-07
4.75371e-07
4.73383e-07
4.73384e-07
4.73382e-07
4.73383e-07
4.75372e-07
4.73382e-07
4.73383e-07
4.75369e-07
4.75393e-07
4.7512e-07
4.73355e-07
4.73354e-07
4.73132e-07
4.73131e-07
4.75392e-07
4.75119e-07
4.73354e-07
4.73356e-07
4.73131e-07
4.73133e-07
4.73354e-07
4.7313e-07
4.73131e-07
4.75393e-07
4.75121e-07
4.73354e-07
4.73131e-07
4.73131e-07
4.75122e-07
4.75145e-07
4.75114e-07
4.73117e-07
4.73117e-07
4.73109e-07
4.73109e-07
4.75144e-07
4.75113e-07
4.73117e-07
4.73118e-07
4.73109e-07
4.7311e-07
4.73117e-07
4.7311e-07
4.73109e-07
4.75145e-07
4.75114e-07
4.73117e-07
4.7311e-07
4.73109e-07
4.75116e-07
4.75142e-07
4.75113e-07
4.73114e-07
4.73113e-07
4.7311e-07
4.7311e-07
4.75141e-07
4.75112e-07
4.73113e-07
4.73114e-07
4.73109e-07
4.73111e-07
4.73113e-07
4.73109e-07
4.7311e-07
4.75143e-07
4.75114e-07
4.73113e-07
4.7311e-07
4.73109e-07
4.75117e-07
4.75142e-07
4.75114e-07
4.73113e-07
4.73113e-07
4.7311e-07
4.7311e-07
4.75141e-07
4.75112e-07
4.73112e-07
4.73114e-07
4.73109e-07
4.73111e-07
4.73113e-07
4.73109e-07
4.7311e-07
4.75142e-07
4.75114e-07
4.73113e-07
4.7311e-07
4.73109e-07
4.75117e-07
4.75142e-07
4.75113e-07
4.73113e-07
4.73113e-07
4.7311e-07
4.7311e-07
4.75141e-07
4.75112e-07
4.73112e-07
4.73114e-07
4.73109e-07
4.73111e-07
4.73113e-07
4.73109e-07
4.7311e-07
4.75142e-07
4.75114e-07
4.73113e-07
4.7311e-07
4.73109e-07
4.75117e-07
4.75142e-07
4.75113e-07
4.73113e-07
4.73113e-07
4.7311e-07
4.7311e-07
4.75141e-07
4.75112e-07
4.73113e-07
4.73114e-07
4.73109e-07
4.73111e-07
4.73113e-07
4.73109e-07
4.7311e-07
4.75142e-07
4.75114e-07
4.73113e-07
4.7311e-07
4.73109e-07
4.75117e-07
4.75142e-07
4.75113e-07
4.73113e-07
4.73113e-07
4.7311e-07
4.7311e-07
4.75141e-07
4.75112e-07
4.73113e-07
4.73114e-07
4.73109e-07
4.73111e-07
4.73113e-07
4.73109e-07
4.7311e-07
4.75142e-07
4.75113e-07
4.73113e-07
4.7311e-07
4.73109e-07
4.75117e-07
4.75142e-07
4.75114e-07
4.73113e-07
4.73113e-07
4.7311e-07
4.7311e-07
4.75141e-07
4.75112e-07
4.73113e-07
4.73114e-07
4.73109e-07
4.73111e-07
4.73113e-07
4.73109e-07
4.7311e-07
4.75142e-07
4.75113e-07
4.73113e-07
4.7311e-07
4.73109e-07
4.75117e-07
4.75142e-07
4.75113e-07
4.73113e-07
4.73113e-07
4.7311e-07
4.7311e-07
4.75141e-07
4.75112e-07
4.73113e-07
4.73114e-07
4.73109e-07
4.73111e-07
4.73113e-07
4.73109e-07
4.7311e-07
4.75142e-07
4.75113e-07
4.73113e-07
4.7311e-07
4.73109e-07
4.75117e-07
4.75142e-07
4.75113e-07
4.73113e-07
4.73113e-07
4.7311e-07
4.7311e-07
4.75141e-07
4.75112e-07
4.73113e-07
4.73114e-07
4.73109e-07
4.73111e-07
4.73113e-07
4.73109e-07
4.7311e-07
4.75142e-07
4.75114e-07
4.73113e-07
4.7311e-07
4.73109e-07
4.75117e-07
4.75142e-07
4.75113e-07
4.73113e-07
4.73113e-07
4.7311e-07
4.7311e-07
4.75141e-07
4.75112e-07
4.73113e-07
4.73114e-07
4.73109e-07
4.73111e-07
4.73113e-07
4.73109e-07
4.7311e-07
4.75142e-07
4.75113e-07
4.73113e-07
4.7311e-07
4.73109e-07
4.75117e-07
4.75142e-07
4.75113e-07
4.73113e-07
4.73113e-07
4.7311e-07
4.7311e-07
4.75141e-07
4.75112e-07
4.73113e-07
4.73114e-07
4.73109e-07
4.73111e-07
4.73113e-07
4.73109e-07
4.7311e-07
4.75142e-07
4.75113e-07
4.73113e-07
4.7311e-07
4.73109e-07
4.75117e-07
4.75142e-07
4.75113e-07
4.73113e-07
4.73113e-07
4.7311e-07
4.7311e-07
4.75141e-07
4.75112e-07
4.73113e-07
4.73114e-07
4.73109e-07
4.73111e-07
4.73113e-07
4.73109e-07
4.7311e-07
4.75142e-07
4.75113e-07
4.73113e-07
4.7311e-07
4.73109e-07
4.75117e-07
4.75142e-07
4.75113e-07
4.73113e-07
4.73113e-07
4.7311e-07
4.7311e-07
4.75141e-07
4.75112e-07
4.73113e-07
4.73114e-07
4.73109e-07
4.73111e-07
4.73113e-07
4.73109e-07
4.7311e-07
4.75142e-07
4.75113e-07
4.73113e-07
4.7311e-07
4.73109e-07
4.75117e-07
4.75142e-07
4.75113e-07
4.73113e-07
4.73113e-07
4.7311e-07
4.7311e-07
4.75141e-07
4.75112e-07
4.73113e-07
4.73114e-07
4.73109e-07
4.73111e-07
4.73113e-07
4.73109e-07
4.7311e-07
4.75142e-07
4.75114e-07
4.73113e-07
4.7311e-07
4.73109e-07
4.75117e-07
4.75142e-07
4.75113e-07
4.73113e-07
4.73113e-07
4.7311e-07
4.7311e-07
4.75141e-07
4.75112e-07
4.73113e-07
4.73114e-07
4.73109e-07
4.73111e-07
4.73113e-07
4.73109e-07
4.7311e-07
4.75142e-07
4.75113e-07
4.73113e-07
4.7311e-07
4.73109e-07
4.75117e-07
4.75142e-07
4.73113e-07
4.73113e-07
4.75141e-07
4.73113e-07
4.73113e-07
4.73112e-07
4.75142e-07
4.73111e-07
1.03413e-06
5.29438e-06
1.78348e-05
1.03405e-06
5.29517e-06
4.71953e-07
4.71953e-07
4.71953e-07
4.71953e-07
5.37513e-07
4.73395e-07
8.98749e-07
4.72187e-07
1.78365e-05
5.37511e-07
4.73396e-07
4.72187e-07
8.98731e-07
4.7537e-07
1.59353e-06
1.59382e-06
1.03538e-06
5.29512e-06
1.03452e-06
5.30155e-06
1.78372e-05
1.78744e-05
1.03533e-06
5.29594e-06
1.03438e-06
5.30234e-06
4.71922e-07
4.71922e-07
4.71922e-07
4.71687e-07
4.71686e-07
4.71686e-07
4.71686e-07
5.37597e-07
8.99176e-07
4.72139e-07
4.73265e-07
5.37577e-07
8.99601e-07
4.72051e-07
1.78394e-05
1.78759e-05
5.37599e-07
4.72139e-07
8.99123e-07
4.73267e-07
5.37579e-07
4.7205e-07
8.99604e-07
1.59414e-06
1.59444e-06
4.75204e-07
1.59651e-06
1.59682e-06
1.03593e-06
5.30307e-06
1.0361e-06
5.30293e-06
1.78819e-05
1.78808e-05
1.03584e-06
5.30392e-06
1.03599e-06
5.30373e-06
4.71671e-07
4.71671e-07
4.71671e-07
4.71664e-07
4.71662e-07
4.71662e-07
4.71662e-07
5.37652e-07
9.00266e-07
4.7189e-07
4.73113e-07
5.37706e-07
9.00042e-07
4.7189e-07
1.78836e-05
1.78827e-05
5.37652e-07
4.7189e-07
9.00212e-07
4.73114e-07
5.3771e-07
4.7189e-07
9.00009e-07
1.59749e-06
1.59779e-06
4.75116e-07
1.59728e-06
1.59757e-06
1.03593e-06
5.30304e-06
1.03609e-06
5.30293e-06
1.78817e-05
1.78808e-05
1.03584e-06
5.30384e-06
1.03597e-06
5.30371e-06
4.71667e-07
4.71667e-07
4.71667e-07
4.71663e-07
4.71663e-07
4.71663e-07
4.71662e-07
5.37656e-07
9.00266e-07
4.71886e-07
4.73112e-07
5.37704e-07
9.00042e-07
4.71889e-07
1.78833e-05
1.78827e-05
5.37654e-07
4.71886e-07
9.00214e-07
4.73112e-07
5.37705e-07
4.71889e-07
9.00009e-07
1.59747e-06
1.59777e-06
4.75116e-07
1.59727e-06
1.59757e-06
1.03593e-06
5.30304e-06
1.03609e-06
5.30293e-06
1.78817e-05
1.78808e-05
1.03584e-06
5.30384e-06
1.03597e-06
5.30371e-06
4.71666e-07
4.71666e-07
4.71666e-07
4.71663e-07
4.71663e-07
4.71663e-07
4.71663e-07
5.37656e-07
9.00266e-07
4.71885e-07
4.73112e-07
5.37701e-07
9.00042e-07
4.71889e-07
1.78833e-05
1.78827e-05
5.37655e-07
4.71885e-07
9.00214e-07
4.73112e-07
5.37704e-07
4.71889e-07
9.00009e-07
1.59747e-06
1.59777e-06
4.75116e-07
1.59727e-06
1.59757e-06
1.03593e-06
5.30304e-06
1.03609e-06
5.30293e-06
1.78817e-05
1.78808e-05
1.03584e-06
5.30384e-06
1.03597e-06
5.30371e-06
4.71666e-07
4.71666e-07
4.71666e-07
4.71663e-07
4.71663e-07
4.71663e-07
4.71662e-07
5.37656e-07
9.00266e-07
4.71885e-07
4.73112e-07
5.37701e-07
9.00042e-07
4.71889e-07
1.78833e-05
1.78827e-05
5.37655e-07
4.71885e-07
9.00214e-07
4.73112e-07
5.37704e-07
4.71889e-07
9.00009e-07
1.59747e-06
1.59777e-06
4.75116e-07
1.59727e-06
1.59757e-06
1.03593e-06
5.30304e-06
1.03609e-06
5.30293e-06
1.78817e-05
1.78808e-05
1.03584e-06
5.30379e-06
1.03597e-06
5.30365e-06
4.71666e-07
4.71666e-07
4.71666e-07
4.71663e-07
4.71663e-07
4.71663e-07
4.71663e-07
5.37657e-07
9.00266e-07
4.71885e-07
4.73112e-07
5.37701e-07
9.00042e-07
4.71889e-07
1.78833e-05
1.78827e-05
5.37654e-07
4.71885e-07
9.00214e-07
4.73112e-07
5.37704e-07
4.71889e-07
9.00009e-07
1.59747e-06
1.59777e-06
4.75116e-07
1.59727e-06
1.59758e-06
1.03593e-06
5.30304e-06
1.03609e-06
5.30293e-06
1.78815e-05
1.78806e-05
1.03584e-06
5.30376e-06
1.03597e-06
5.30364e-06
4.71666e-07
4.71666e-07
4.71666e-07
4.71663e-07
4.71663e-07
4.71663e-07
4.71663e-07
5.37657e-07
9.00266e-07
4.71885e-07
4.73112e-07
5.37701e-07
9.00042e-07
4.71889e-07
1.78833e-05
1.78827e-05
5.37654e-07
4.71885e-07
9.00214e-07
4.73112e-07
5.37704e-07
4.71889e-07
9.00009e-07
1.59747e-06
1.59777e-06
4.75116e-07
1.59727e-06
1.59757e-06
1.03593e-06
5.30304e-06
1.03609e-06
5.30293e-06
1.78815e-05
1.78806e-05
1.03584e-06
5.30376e-06
1.03597e-06
5.30364e-06
4.71666e-07
4.71666e-07
4.71666e-07
4.71663e-07
4.71663e-07
4.71663e-07
4.71662e-07
5.37657e-07
9.00266e-07
4.71885e-07
4.73112e-07
5.37701e-07
9.00042e-07
4.71889e-07
1.78833e-05
1.78827e-05
5.37654e-07
4.71885e-07
9.00214e-07
4.73112e-07
5.37705e-07
4.71889e-07
9.00009e-07
1.59747e-06
1.59777e-06
4.75116e-07
1.59727e-06
1.59757e-06
1.03593e-06
5.30304e-06
1.03609e-06
5.30293e-06
1.78814e-05
1.78806e-05
1.03584e-06
5.30377e-06
1.03597e-06
5.30364e-06
4.71666e-07
4.71666e-07
4.71666e-07
4.71663e-07
4.71662e-07
4.71663e-07
4.71663e-07
5.37657e-07
9.00266e-07
4.71885e-07
4.73112e-07
5.37702e-07
9.00042e-07
4.71889e-07
1.78833e-05
1.78827e-05
5.37654e-07
4.71885e-07
9.00214e-07
4.73112e-07
5.37705e-07
4.71889e-07
9.00009e-07
1.59747e-06
1.59777e-06
4.75116e-07
1.59727e-06
1.59757e-06
1.03593e-06
5.30304e-06
1.03609e-06
5.30293e-06
1.78814e-05
1.78806e-05
1.03584e-06
5.30377e-06
1.03597e-06
5.30364e-06
4.71666e-07
4.71666e-07
4.71666e-07
4.71663e-07
4.71662e-07
4.71663e-07
4.71663e-07
5.37657e-07
9.00266e-07
4.71885e-07
4.73112e-07
5.37702e-07
9.00042e-07
4.71889e-07
1.78833e-05
1.78827e-05
5.37655e-07
4.71885e-07
9.00214e-07
4.73112e-07
5.37705e-07
4.71889e-07
9.00009e-07
1.59747e-06
1.59777e-06
4.75116e-07
1.59727e-06
1.59757e-06
1.03593e-06
5.30304e-06
1.03609e-06
5.30293e-06
1.78814e-05
1.78806e-05
1.03584e-06
5.30377e-06
1.03597e-06
5.30364e-06
4.71666e-07
4.71666e-07
4.71666e-07
4.71663e-07
4.71663e-07
4.71663e-07
4.71663e-07
5.37656e-07
9.00266e-07
4.71885e-07
4.73112e-07
5.37702e-07
9.00042e-07
4.71889e-07
1.78833e-05
1.78827e-05
5.37655e-07
4.71885e-07
9.00214e-07
4.73112e-07
5.37705e-07
4.71889e-07
9.00009e-07
1.59747e-06
1.59777e-06
4.75116e-07
1.59727e-06
1.59757e-06
1.03593e-06
5.30304e-06
1.03609e-06
5.30293e-06
1.78814e-05
1.78806e-05
1.03584e-06
5.30377e-06
1.03597e-06
5.30364e-06
4.71666e-07
4.71666e-07
4.71666e-07
4.71663e-07
4.71662e-07
4.71663e-07
4.71663e-07
5.37657e-07
9.00266e-07
4.71885e-07
4.73112e-07
5.37702e-07
9.00042e-07
4.71889e-07
1.78833e-05
1.78827e-05
5.3766e-07
4.71885e-07
9.00214e-07
4.73112e-07
5.37707e-07
4.71889e-07
9.00009e-07
1.59747e-06
1.59777e-06
4.75116e-07
1.59727e-06
1.59757e-06
1.03593e-06
5.30304e-06
1.03609e-06
5.30293e-06
1.78814e-05
1.78806e-05
1.03584e-06
5.30377e-06
1.03597e-06
5.30364e-06
4.71666e-07
4.71666e-07
4.71666e-07
4.71663e-07
4.71663e-07
4.71662e-07
4.71663e-07
5.37657e-07
9.00266e-07
4.71885e-07
4.73112e-07
5.37702e-07
9.00042e-07
4.71889e-07
1.78833e-05
1.78827e-05
5.37666e-07
4.71885e-07
9.00214e-07
4.73112e-07
5.37717e-07
4.71889e-07
9.00009e-07
1.59747e-06
1.59777e-06
4.75116e-07
1.59727e-06
1.59757e-06
1.03593e-06
5.30304e-06
1.03609e-06
5.30293e-06
1.78814e-05
1.78806e-05
1.03584e-06
5.30377e-06
1.03597e-06
5.30364e-06
4.71666e-07
4.71666e-07
4.71666e-07
4.71663e-07
4.71662e-07
4.71663e-07
4.71663e-07
5.37657e-07
9.00266e-07
4.71885e-07
4.73112e-07
5.377e-07
9.00042e-07
4.71889e-07
1.78833e-05
1.78827e-05
5.37665e-07
4.71885e-07
9.00214e-07
4.73112e-07
5.37713e-07
4.71889e-07
9.00009e-07
1.59747e-06
1.59777e-06
4.75116e-07
1.59727e-06
1.59757e-06
1.03593e-06
5.30304e-06
1.03609e-06
5.30293e-06
1.78814e-05
1.78806e-05
1.03584e-06
5.30377e-06
1.03597e-06
5.30364e-06
4.71666e-07
4.71666e-07
4.71666e-07
4.71663e-07
4.71663e-07
4.71663e-07
4.71663e-07
5.37656e-07
9.00266e-07
4.71885e-07
4.73112e-07
5.37701e-07
9.00042e-07
4.71889e-07
1.78833e-05
1.78827e-05
5.37665e-07
4.71885e-07
9.00214e-07
4.73112e-07
5.37714e-07
4.71889e-07
9.00009e-07
1.59747e-06
1.59777e-06
4.75116e-07
1.59727e-06
1.59757e-06
1.03593e-06
5.30304e-06
1.03609e-06
5.30293e-06
1.78814e-05
1.78806e-05
1.03584e-06
5.30377e-06
1.03597e-06
5.30364e-06
4.71666e-07
4.71666e-07
4.71666e-07
4.71663e-07
4.71663e-07
4.71663e-07
4.71663e-07
5.37656e-07
9.00266e-07
4.71885e-07
4.73112e-07
5.37701e-07
9.00042e-07
4.71889e-07
1.78833e-05
1.78827e-05
5.37665e-07
4.71885e-07
9.00214e-07
4.73112e-07
5.37714e-07
4.71889e-07
9.00009e-07
1.59747e-06
1.59777e-06
4.75116e-07
1.59727e-06
1.59757e-06
1.03593e-06
5.30304e-06
1.03609e-06
5.30293e-06
1.78815e-05
1.78805e-05
1.03584e-06
5.30377e-06
1.03598e-06
5.30364e-06
4.71666e-07
4.71664e-07
4.71664e-07
5.37652e-07
9.00266e-07
4.71885e-07
4.7311e-07
5.37701e-07
9.00042e-07
4.7189e-07
1.78832e-05
1.78825e-05
5.37662e-07
4.71885e-07
9.00214e-07
4.73113e-07
5.37714e-07
4.7189e-07
9.00055e-07
1.59747e-06
1.59777e-06
4.75119e-07
1.5973e-06
1.5976e-06
1.7832e-05
1.78342e-05
4.75373e-07
1.59344e-06
1.59377e-06
1.78315e-05
1.78311e-05
1.78338e-05
1.78333e-05
4.75404e-07
1.59357e-06
1.5939e-06
1.5935e-06
1.59383e-06
1.03408e-06
5.29426e-06
5.37513e-07
4.73397e-07
8.98696e-07
4.72187e-07
5.37511e-07
4.73397e-07
8.98745e-07
4.72186e-07
1.03424e-06
5.29457e-06
5.29438e-06
1.03421e-06
1.0342e-06
5.2945e-06
5.29426e-06
1.03417e-06
5.37556e-07
4.73393e-07
8.98771e-07
4.72173e-07
8.98856e-07
4.72183e-07
5.37524e-07
5.37554e-07
4.73393e-07
8.98825e-07
4.72173e-07
8.98907e-07
4.72183e-07
5.3752e-07
4.75372e-07
1.59376e-06
1.59357e-06
1.78306e-05
1.78342e-05
1.78337e-05
4.75403e-07
1.59393e-06
1.59377e-06
1.59384e-06
1.59378e-06
1.78309e-05
1.78303e-05
5.37507e-07
4.73396e-07
8.98809e-07
4.72187e-07
1.03402e-06
5.29506e-06
5.3751e-07
4.73398e-07
4.72187e-07
8.98883e-07
1.03414e-06
5.29538e-06
5.29517e-06
1.03413e-06
5.3755e-07
4.73393e-07
8.98898e-07
4.72173e-07
8.98968e-07
4.72183e-07
5.37519e-07
1.03411e-06
5.29529e-06
5.29506e-06
1.03412e-06
5.37553e-07
4.73394e-07
4.72173e-07
8.98963e-07
4.72183e-07
8.99064e-07
5.3752e-07
1.03408e-06
5.29428e-06
5.37513e-07
4.73397e-07
4.72186e-07
8.98705e-07
1.03409e-06
5.29465e-06
5.37553e-07
4.73392e-07
8.98821e-07
4.72172e-07
8.98925e-07
4.72183e-07
5.37516e-07
1.0342e-06
5.29452e-06
5.29428e-06
1.03417e-06
5.37553e-07
4.73393e-07
4.72173e-07
8.98789e-07
4.72183e-07
8.98868e-07
5.37518e-07
1.03421e-06
5.29491e-06
5.29465e-06
1.03418e-06
4.75373e-07
1.59408e-06
1.59348e-06
1.78334e-05
1.78362e-05
1.78359e-05
4.75404e-07
1.59423e-06
1.59362e-06
1.59429e-06
1.59355e-06
1.78329e-05
1.78325e-05
5.3751e-07
4.73396e-07
4.72186e-07
8.9878e-07
1.03402e-06
5.29473e-06
1.03401e-06
5.29487e-06
5.37554e-07
4.73392e-07
4.72172e-07
8.98796e-07
4.72183e-07
8.98885e-07
5.37515e-07
5.37553e-07
4.73393e-07
4.72173e-07
8.98865e-07
4.72183e-07
8.98945e-07
5.37515e-07
1.0341e-06
5.29496e-06
5.29473e-06
1.03411e-06
1.0341e-06
5.29512e-06
5.29487e-06
1.03411e-06
1.78335e-05
1.78346e-05
4.75401e-07
1.5937e-06
1.59399e-06
1.59359e-06
1.59388e-06
1.78332e-05
1.78326e-05
1.78343e-05
1.78338e-05
1.78342e-05
1.78726e-05
1.78367e-05
1.78752e-05
1.59388e-06
1.59423e-06
4.75208e-07
1.59645e-06
1.5968e-06
1.78795e-05
1.7877e-05
1.78817e-05
1.78794e-05
4.75213e-07
1.59732e-06
1.59765e-06
1.59724e-06
1.59759e-06
1.03539e-06
5.29511e-06
1.03441e-06
5.30183e-06
5.37604e-07
8.99032e-07
4.72143e-07
4.73269e-07
5.3758e-07
8.99587e-07
4.72053e-07
5.37605e-07
8.99095e-07
4.72142e-07
4.73268e-07
5.37579e-07
8.99651e-07
4.72052e-07
1.03593e-06
5.30287e-06
5.30249e-06
1.03594e-06
1.03594e-06
5.30313e-06
5.30278e-06
1.03594e-06
5.37681e-07
4.7318e-07
8.99988e-07
4.71908e-07
9.00016e-07
4.71959e-07
5.37661e-07
5.37682e-07
4.7318e-07
9.00057e-07
4.71908e-07
9.00083e-07
4.71958e-07
5.37662e-07
1.59428e-06
1.59431e-06
4.75207e-07
1.5968e-06
1.59653e-06
1.78342e-05
1.78723e-05
1.7881e-05
1.78783e-05
4.75212e-07
1.59761e-06
1.59752e-06
1.59757e-06
1.59748e-06
1.78787e-05
1.78768e-05
5.37604e-07
8.99165e-07
4.72142e-07
4.73269e-07
5.37574e-07
8.99717e-07
4.72052e-07
1.03537e-06
5.29588e-06
1.03429e-06
5.30254e-06
5.37607e-07
4.72142e-07
8.99259e-07
4.7327e-07
5.37578e-07
4.72052e-07
8.99766e-07
1.03585e-06
5.30373e-06
5.30333e-06
1.03585e-06
5.37681e-07
4.7318e-07
9.00126e-07
4.71908e-07
9.00137e-07
4.71959e-07
5.37661e-07
1.03587e-06
5.30394e-06
5.30359e-06
1.03587e-06
5.37684e-07
4.73182e-07
4.71908e-07
9.00208e-07
4.71958e-07
9.00229e-07
5.37663e-07
1.0354e-06
5.29516e-06
1.03441e-06
5.30185e-06
5.376e-07
4.72142e-07
8.99057e-07
4.73268e-07
5.37573e-07
4.72051e-07
8.99618e-07
1.0354e-06
5.29553e-06
1.03442e-06
5.30224e-06
5.37675e-07
4.73178e-07
9.00039e-07
4.71908e-07
9.0005e-07
4.71959e-07
5.3766e-07
1.03595e-06
5.30317e-06
5.30284e-06
1.03594e-06
5.37678e-07
4.7318e-07
4.71908e-07
9.0002e-07
4.71958e-07
9.00049e-07
5.37662e-07
1.03595e-06
5.30355e-06
5.30319e-06
1.03594e-06
1.59472e-06
1.59393e-06
4.75209e-07
1.59701e-06
1.59649e-06
1.78355e-05
1.78739e-05
1.78825e-05
1.78803e-05
4.75214e-07
1.59794e-06
1.59735e-06
1.59793e-06
1.59728e-06
1.78809e-05
1.78784e-05
5.37598e-07
4.72142e-07
8.99136e-07
4.73268e-07
5.37572e-07
4.72052e-07
8.99691e-07
1.03536e-06
5.29557e-06
1.03428e-06
5.30229e-06
1.03534e-06
5.29575e-06
1.03427e-06
5.30245e-06
5.37681e-07
4.73179e-07
4.71908e-07
9.00004e-07
4.71958e-07
9.00027e-07
5.37662e-07
5.37681e-07
4.73179e-07
4.71908e-07
9.00096e-07
4.71958e-07
9.00124e-07
5.37662e-07
1.03586e-06
5.30362e-06
5.30326e-06
1.03586e-06
1.03586e-06
5.30377e-06
5.30341e-06
1.03586e-06
1.78361e-05
1.78746e-05
1.78372e-05
1.78757e-05
4.7521e-07
1.59735e-06
1.59765e-06
1.5973e-06
1.5976e-06
1.78811e-05
1.78788e-05
1.78822e-05
1.78799e-05
1.78783e-05
1.78792e-05
1.78806e-05
1.78814e-05
1.59732e-06
1.59765e-06
4.75113e-07
1.59728e-06
1.59761e-06
1.78794e-05
1.78777e-05
1.78816e-05
1.78799e-05
4.75142e-07
1.59729e-06
1.59762e-06
1.59728e-06
1.59761e-06
1.03593e-06
5.30289e-06
1.03602e-06
5.303e-06
5.37651e-07
9.00145e-07
4.71893e-07
4.73113e-07
5.37703e-07
9.00005e-07
4.71889e-07
5.37653e-07
9.0021e-07
4.71893e-07
4.73113e-07
5.37705e-07
9.00062e-07
4.71889e-07
1.03602e-06
5.30282e-06
5.30268e-06
1.03592e-06
1.03602e-06
5.30306e-06
5.30278e-06
1.03593e-06
5.37694e-07
4.73109e-07
8.99995e-07
4.71885e-07
9.00146e-07
4.71885e-07
5.37661e-07
5.37696e-07
4.73109e-07
9.00062e-07
4.71885e-07
9.00208e-07
4.71885e-07
5.3766e-07
1.59765e-06
1.59771e-06
4.75112e-07
1.5976e-06
1.59745e-06
1.78773e-05
1.78782e-05
1.78806e-05
1.78792e-05
4.75141e-07
1.59758e-06
1.59746e-06
1.59762e-06
1.59765e-06
1.78785e-05
1.78769e-05
5.37647e-07
9.00278e-07
4.71893e-07
4.73113e-07
5.37701e-07
9.0014e-07
4.71889e-07
1.03586e-06
5.30371e-06
1.03592e-06
5.30382e-06
5.37652e-07
4.71893e-07
9.00378e-07
4.73114e-07
5.37704e-07
4.71889e-07
9.00214e-07
1.03589e-06
5.30363e-06
5.30348e-06
1.03583e-06
5.37688e-07
4.73109e-07
9.00129e-07
4.71885e-07
9.00276e-07
4.71885e-07
5.37652e-07
1.03592e-06
5.30383e-06
5.3036e-06
1.03586e-06
5.37694e-07
4.7311e-07
4.71885e-07
9.0021e-07
4.71885e-07
9.00376e-07
5.37659e-07
1.03594e-06
5.30294e-06
1.03603e-06
5.30303e-06
5.37653e-07
4.71893e-07
9.00168e-07
4.73113e-07
5.37704e-07
4.71889e-07
9.0002e-07
1.03594e-06
5.30331e-06
1.03603e-06
5.30341e-06
5.37693e-07
4.73112e-07
9.00045e-07
4.71887e-07
9.00204e-07
4.71889e-07
5.37658e-07
1.03603e-06
5.30308e-06
5.30281e-06
1.03594e-06
5.37693e-07
4.73109e-07
4.71885e-07
9.00023e-07
4.71885e-07
9.00166e-07
5.37658e-07
1.03603e-06
5.30347e-06
5.30318e-06
1.03594e-06
1.5981e-06
1.59735e-06
4.75113e-07
1.59796e-06
1.59732e-06
1.78797e-05
1.78806e-05
1.7882e-05
1.78812e-05
4.75142e-07
1.59788e-06
1.59732e-06
1.59813e-06
1.59732e-06
1.78808e-05
1.78791e-05
5.3765e-07
4.71893e-07
9.00246e-07
4.73113e-07
5.37707e-07
4.71889e-07
9.00096e-07
1.03586e-06
5.30339e-06
1.03591e-06
5.30347e-06
1.03586e-06
5.30353e-06
1.03592e-06
5.30363e-06
5.37695e-07
4.73113e-07
4.71887e-07
9.00012e-07
4.71889e-07
9.00153e-07
5.37657e-07
5.37693e-07
4.73109e-07
4.71885e-07
9.00099e-07
4.71885e-07
9.00244e-07
5.37656e-07
1.03592e-06
5.30354e-06
5.30325e-06
1.03586e-06
1.03592e-06
5.30369e-06
5.3034e-06
1.03586e-06
1.78799e-05
1.78808e-05
1.7881e-05
1.78819e-05
4.75148e-07
1.59731e-06
1.59761e-06
1.59728e-06
1.59758e-06
1.7881e-05
1.78793e-05
1.78821e-05
1.78804e-05
1.78788e-05
1.78791e-05
1.7881e-05
1.78813e-05
1.59729e-06
1.59763e-06
4.75116e-07
1.59728e-06
1.59761e-06
1.78794e-05
1.78776e-05
1.78816e-05
1.78798e-05
4.75145e-07
1.59728e-06
1.59762e-06
1.59728e-06
1.59762e-06
1.03593e-06
5.30293e-06
1.03602e-06
5.303e-06
5.37651e-07
9.00146e-07
4.7189e-07
4.73113e-07
5.37702e-07
9.00005e-07
4.71889e-07
5.37656e-07
9.00211e-07
4.7189e-07
4.73113e-07
5.37702e-07
9.00061e-07
4.71889e-07
1.03602e-06
5.30281e-06
5.30268e-06
1.03592e-06
1.03602e-06
5.30306e-06
5.30278e-06
1.03593e-06
5.37695e-07
4.73111e-07
8.99994e-07
4.71885e-07
9.00146e-07
4.71886e-07
5.3766e-07
5.37699e-07
4.73111e-07
9.00062e-07
4.71885e-07
9.00207e-07
4.71885e-07
5.37658e-07
1.59762e-06
1.59767e-06
4.75115e-07
1.59759e-06
1.59747e-06
1.78777e-05
1.78782e-05
1.78805e-05
1.78791e-05
4.75144e-07
1.59758e-06
1.59746e-06
1.59761e-06
1.59765e-06
1.78785e-05
1.7877e-05
5.37648e-07
9.00275e-07
4.71889e-07
4.73112e-07
5.37695e-07
9.00139e-07
4.71888e-07
1.03586e-06
5.30367e-06
1.03592e-06
5.30384e-06
5.37654e-07
4.7189e-07
9.00376e-07
4.73114e-07
5.37701e-07
4.71889e-07
9.00213e-07
1.03589e-06
5.30362e-06
5.30346e-06
1.03583e-06
5.3769e-07
4.7311e-07
9.0013e-07
4.71885e-07
9.00275e-07
4.71886e-07
5.37652e-07
1.03592e-06
5.30383e-06
5.30361e-06
1.03586e-06
5.37697e-07
4.73112e-07
4.71885e-07
9.0021e-07
4.71885e-07
9.00376e-07
5.37657e-07
1.03594e-06
5.30291e-06
1.03603e-06
5.30305e-06
5.37657e-07
4.71889e-07
9.00167e-07
4.73113e-07
5.377e-07
4.71889e-07
9.00019e-07
1.03594e-06
5.30331e-06
1.03603e-06
5.3034e-06
5.37697e-07
4.73111e-07
9.00045e-07
4.71886e-07
9.00204e-07
4.71888e-07
5.37656e-07
1.03603e-06
5.30307e-06
5.30283e-06
1.03594e-06
5.37698e-07
4.73111e-07
4.71885e-07
9.00023e-07
4.71885e-07
9.00165e-07
5.37656e-07
1.03603e-06
5.30347e-06
5.30317e-06
1.03594e-06
1.59805e-06
1.59733e-06
4.75116e-07
1.59797e-06
1.59732e-06
1.78802e-05
1.78805e-05
1.7882e-05
1.78811e-05
4.75145e-07
1.59788e-06
1.59732e-06
1.59813e-06
1.59732e-06
1.78808e-05
1.7879e-05
5.37654e-07
4.7189e-07
9.00245e-07
4.73112e-07
5.37702e-07
4.71889e-07
9.00095e-07
1.03586e-06
5.3034e-06
1.03591e-06
5.30347e-06
1.03586e-06
5.30352e-06
1.03591e-06
5.30362e-06
5.37699e-07
4.73112e-07
4.71886e-07
9.00011e-07
4.71888e-07
9.00153e-07
5.37656e-07
5.37698e-07
4.7311e-07
4.71885e-07
9.00099e-07
4.71885e-07
9.00243e-07
5.37655e-07
1.03592e-06
5.30354e-06
5.30325e-06
1.03586e-06
1.03592e-06
5.30369e-06
5.3034e-06
1.03586e-06
1.78804e-05
1.78807e-05
1.78815e-05
1.78818e-05
4.75147e-07
1.59731e-06
1.59761e-06
1.59728e-06
1.59758e-06
1.7881e-05
1.78792e-05
1.78821e-05
1.78803e-05
1.78788e-05
1.78791e-05
1.7881e-05
1.78813e-05
1.59729e-06
1.59763e-06
4.75116e-07
1.59728e-06
1.59761e-06
1.78794e-05
1.78776e-05
1.78816e-05
1.78798e-05
4.75145e-07
1.59729e-06
1.59761e-06
1.59728e-06
1.59761e-06
1.03593e-06
5.30294e-06
1.03602e-06
5.30299e-06
5.37651e-07
9.00145e-07
4.71889e-07
4.73113e-07
5.37701e-07
9.00005e-07
4.71889e-07
5.37656e-07
9.0021e-07
4.71888e-07
4.73113e-07
5.37701e-07
9.00061e-07
4.71888e-07
1.03602e-06
5.30282e-06
5.30268e-06
1.03592e-06
1.03602e-06
5.30306e-06
5.30277e-06
1.03593e-06
5.37695e-07
4.73111e-07
8.99995e-07
4.71885e-07
9.00146e-07
4.71886e-07
5.3766e-07
5.37699e-07
4.73111e-07
9.00062e-07
4.71885e-07
9.00207e-07
4.71886e-07
5.37658e-07
1.59762e-06
1.59767e-06
4.75115e-07
1.59759e-06
1.59747e-06
1.78774e-05
1.78782e-05
1.78805e-05
1.78791e-05
4.75143e-07
1.59758e-06
1.59746e-06
1.59761e-06
1.59765e-06
1.78785e-05
1.7877e-05
5.37648e-07
9.00275e-07
4.71888e-07
4.73112e-07
5.37695e-07
9.00138e-07
4.71888e-07
1.03586e-06
5.30367e-06
1.03592e-06
5.30384e-06
5.37655e-07
4.71888e-07
9.00376e-07
4.73114e-07
5.377e-07
4.71888e-07
9.00213e-07
1.03589e-06
5.30362e-06
5.30346e-06
1.03583e-06
5.3769e-07
4.7311e-07
9.00128e-07
4.71885e-07
9.00274e-07
4.71886e-07
5.37652e-07
1.03592e-06
5.30383e-06
5.30361e-06
1.03586e-06
5.37697e-07
4.73112e-07
4.71885e-07
9.0021e-07
4.71886e-07
9.00376e-07
5.37657e-07
1.03594e-06
5.3029e-06
1.03603e-06
5.30306e-06
5.37657e-07
4.71888e-07
9.00167e-07
4.73113e-07
5.37698e-07
4.71888e-07
9.00019e-07
1.03594e-06
5.30328e-06
1.03603e-06
5.30339e-06
5.37698e-07
4.73111e-07
9.00045e-07
4.71886e-07
9.00204e-07
4.71888e-07
5.37656e-07
1.03603e-06
5.30307e-06
5.30283e-06
1.03594e-06
5.37699e-07
4.73111e-07
4.71885e-07
9.00023e-07
4.71886e-07
9.00165e-07
5.37655e-07
1.03603e-06
5.30347e-06
5.30317e-06
1.03594e-06
1.59805e-06
1.59733e-06
4.75116e-07
1.59797e-06
1.59732e-06
1.78802e-05
1.78805e-05
1.7882e-05
1.78811e-05
4.75145e-07
1.59788e-06
1.59732e-06
1.59813e-06
1.59732e-06
1.78808e-05
1.7879e-05
5.37655e-07
4.71889e-07
9.00245e-07
4.73112e-07
5.37701e-07
4.71888e-07
9.00095e-07
1.03586e-06
5.3034e-06
1.03591e-06
5.30347e-06
1.03586e-06
5.3035e-06
1.03591e-06
5.30361e-06
5.37699e-07
4.73112e-07
4.71886e-07
9.00011e-07
4.71888e-07
9.00153e-07
5.37656e-07
5.37699e-07
4.7311e-07
4.71885e-07
9.00099e-07
4.71886e-07
9.00244e-07
5.37655e-07
1.03592e-06
5.30354e-06
5.30326e-06
1.03586e-06
1.03592e-06
5.30369e-06
5.30339e-06
1.03586e-06
1.78804e-05
1.78807e-05
1.78815e-05
1.78818e-05
4.75146e-07
1.59731e-06
1.59761e-06
1.59728e-06
1.59758e-06
1.7881e-05
1.78792e-05
1.78821e-05
1.78803e-05
1.78788e-05
1.78791e-05
1.7881e-05
1.78813e-05
1.59729e-06
1.59762e-06
4.75116e-07
1.59728e-06
1.59761e-06
1.78794e-05
1.78776e-05
1.78816e-05
1.78798e-05
4.75145e-07
1.59728e-06
1.59762e-06
1.59728e-06
1.59762e-06
1.03593e-06
5.30294e-06
1.03602e-06
5.30299e-06
5.37651e-07
9.00145e-07
4.71889e-07
4.73113e-07
5.37701e-07
9.00004e-07
4.71889e-07
5.37657e-07
9.00211e-07
4.71888e-07
4.73113e-07
5.37701e-07
9.00061e-07
4.71888e-07
1.03602e-06
5.30281e-06
5.30268e-06
1.03592e-06
1.03602e-06
5.30306e-06
5.30277e-06
1.03593e-06
5.37695e-07
4.73111e-07
8.99994e-07
4.71885e-07
9.00145e-07
4.71886e-07
5.3766e-07
5.37699e-07
4.73111e-07
9.00062e-07
4.71885e-07
9.00207e-07
4.71886e-07
5.37658e-07
1.59762e-06
1.59767e-06
4.75115e-07
1.59759e-06
1.59747e-06
1.78775e-05
1.78782e-05
1.78806e-05
1.78791e-05
4.75143e-07
1.59758e-06
1.59746e-06
1.59761e-06
1.59765e-06
1.78785e-05
1.7877e-05
5.37648e-07
9.00274e-07
4.71888e-07
4.73112e-07
5.37695e-07
9.00138e-07
4.71888e-07
1.03586e-06
5.30367e-06
1.03592e-06
5.30384e-06
5.37655e-07
4.71889e-07
9.00376e-07
4.73114e-07
5.377e-07
4.71888e-07
9.00213e-07
1.03589e-06
5.30357e-06
5.30346e-06
1.03583e-06
5.3769e-07
4.7311e-07
9.00127e-07
4.71885e-07
9.00275e-07
4.71886e-07
5.37652e-07
1.03592e-06
5.30383e-06
5.30361e-06
1.03586e-06
5.37697e-07
4.73112e-07
4.71885e-07
9.0021e-07
4.71886e-07
9.00376e-07
5.37657e-07
1.03594e-06
5.3029e-06
1.03603e-06
5.30305e-06
5.37658e-07
4.71889e-07
9.00167e-07
4.73113e-07
5.37698e-07
4.71888e-07
9.00019e-07
1.03594e-06
5.30328e-06
1.03603e-06
5.30339e-06
5.37698e-07
4.73111e-07
9.00045e-07
4.71886e-07
9.00204e-07
4.71888e-07
5.37656e-07
1.03603e-06
5.30307e-06
5.30283e-06
1.03594e-06
5.37699e-07
4.73111e-07
4.71885e-07
9.00023e-07
4.71886e-07
9.00165e-07
5.37656e-07
1.03603e-06
5.30347e-06
5.30317e-06
1.03594e-06
1.59805e-06
1.59733e-06
4.75116e-07
1.59797e-06
1.59732e-06
1.78802e-05
1.78805e-05
1.7882e-05
1.78811e-05
4.75145e-07
1.59788e-06
1.59732e-06
1.59813e-06
1.59732e-06
1.78808e-05
1.7879e-05
5.37655e-07
4.71889e-07
9.00246e-07
4.73113e-07
5.37701e-07
4.71888e-07
9.00095e-07
1.03586e-06
5.3034e-06
1.03591e-06
5.30347e-06
1.03586e-06
5.3035e-06
1.03591e-06
5.30361e-06
5.377e-07
4.73112e-07
4.71886e-07
9.00011e-07
4.71888e-07
9.00153e-07
5.37656e-07
5.37699e-07
4.7311e-07
4.71885e-07
9.00099e-07
4.71886e-07
9.00244e-07
5.37655e-07
1.03592e-06
5.30354e-06
5.30326e-06
1.03586e-06
1.03592e-06
5.30369e-06
5.30339e-06
1.03586e-06
1.78804e-05
1.78807e-05
1.78815e-05
1.78818e-05
4.75146e-07
1.59731e-06
1.59761e-06
1.59728e-06
1.59758e-06
1.7881e-05
1.78792e-05
1.78821e-05
1.78803e-05
1.78788e-05
1.78791e-05
1.7881e-05
1.78813e-05
1.59729e-06
1.59763e-06
4.75116e-07
1.59728e-06
1.59761e-06
1.78794e-05
1.78776e-05
1.78816e-05
1.78798e-05
4.75145e-07
1.59728e-06
1.59761e-06
1.59728e-06
1.59761e-06
1.03593e-06
5.30294e-06
1.03602e-06
5.30299e-06
5.37651e-07
9.00145e-07
4.71888e-07
4.73113e-07
5.37701e-07
9.00005e-07
4.71888e-07
5.37656e-07
9.0021e-07
4.71888e-07
4.73113e-07
5.37701e-07
9.00061e-07
4.71888e-07
1.03602e-06
5.30282e-06
5.30268e-06
1.03592e-06
1.03602e-06
5.30304e-06
5.30277e-06
1.03593e-06
5.37695e-07
4.73111e-07
8.99995e-07
4.71885e-07
9.00146e-07
4.71886e-07
5.3766e-07
5.37699e-07
4.73111e-07
9.00061e-07
4.71885e-07
9.00206e-07
4.71886e-07
5.37658e-07
1.59762e-06
1.59767e-06
4.75115e-07
1.59759e-06
1.59747e-06
1.78775e-05
1.78782e-05
1.78804e-05
1.78792e-05
4.75143e-07
1.59764e-06
1.59746e-06
1.59761e-06
1.59766e-06
1.78785e-05
1.7877e-05
5.37648e-07
9.00302e-07
4.71889e-07
4.73112e-07
5.37695e-07
9.00151e-07
4.71889e-07
1.03586e-06
5.30367e-06
1.03592e-06
5.30384e-06
5.37655e-07
4.71889e-07
9.00376e-07
4.73114e-07
5.377e-07
4.71889e-07
9.00213e-07