/*--------------------------------*- C++ -*----------------------------------*\
| =========                 |                                                 |
| \\      /  F ield         | OpenFOAM: The Open Source CFD Toolbox           |
|  \\    /   O peration     | Version:  2206                                  |
|   \\  /    A nd           | Website:  www.openfoam.com                      |
|    \\/     M anipulation  |                                                 |
\*---------------------------------------------------------------------------*/
FoamFile
{
    version     2.0;
    format      ascii;
    arch        "LSB;label=32;scalar=64";
    class       volScalarField;
    location    "35.5";
    object      p;
}
// * * * * * * * * * * * * * * * * * * * * * * * * * * * * * * * * * * * * * //

dimensions      [0 2 -2 0 0 0 0];

internalField   nonuniform List<scalar> 
28688
(
0.00388015
0.00388048
0.00388048
0.00388354
0.00382479
0.00382521
0.00382521
0.0038282
0.00377404
0.00377401
0.00377401
0.00377676
0.00372164
0.00372165
0.00372165
0.00372442
0.0036703
0.00367031
0.00367031
0.00367306
0.00362036
0.00362035
0.00362035
0.00362307
0.00357224
0.00357209
0.00357209
0.00357468
0.00352751
0.00352736
0.00352736
0.00352976
0.00348608
0.00348601
0.00348601
0.00348845
0.00344537
0.00344532
0.00344532
0.00344773
0.00340479
0.00340475
0.00340475
0.00340715
0.00336425
0.00336421
0.00336421
0.00336661
0.00389356
0.00389379
0.00389379
0.00389356
0.00389379
0.00389379
0.00389455
0.00389455
0.00389455
0.00389455
0.00389379
0.00389379
0.00389356
0.00389379
0.00389379
0.00389356
0.00388354
0.00383477
0.00388048
0.00388048
0.00383705
0.00383705
0.00388354
0.00383477
0.00388048
0.00388048
0.00383705
0.00383705
0.00388048
0.00383705
0.00383705
0.00388354
0.00383477
0.00388049
0.00383705
0.00383705
0.00383477
0.0038282
0.00378369
0.00382521
0.00382522
0.00378713
0.00378713
0.0038282
0.00378369
0.00382521
0.00382521
0.00378713
0.00378713
0.00382521
0.00378713
0.00378713
0.0038282
0.00378369
0.00382521
0.00378713
0.00378713
0.00378369
0.00377676
0.0037313
0.00377401
0.00377401
0.00373468
0.00373468
0.00377676
0.0037313
0.00377401
0.00377401
0.00373468
0.00373468
0.00377401
0.00373468
0.00373468
0.00377676
0.0037313
0.00377401
0.00373468
0.00373468
0.0037313
0.00372442
0.00367977
0.00372165
0.00372165
0.00368304
0.00368304
0.00372442
0.00367977
0.00372165
0.00372165
0.00368304
0.00368304
0.00372165
0.00368304
0.00368304
0.00372442
0.00367977
0.00372165
0.00368304
0.00368304
0.00367977
0.00367306
0.00362957
0.00367031
0.00367032
0.00363268
0.00363268
0.00367306
0.00362957
0.00367031
0.00367032
0.00363268
0.00363268
0.00367031
0.00363268
0.00363268
0.00367306
0.00362957
0.00367031
0.00363268
0.00363268
0.00362957
0.00362307
0.0035809
0.00362035
0.00362035
0.00358389
0.00358389
0.00362307
0.0035809
0.00362035
0.00362035
0.00358389
0.00358389
0.00362035
0.00358389
0.00358389
0.00362307
0.0035809
0.00362035
0.00358389
0.00358389
0.0035809
0.00357468
0.00353537
0.00357209
0.00357209
0.00353814
0.00353814
0.00357468
0.00353537
0.00357209
0.00357209
0.00353814
0.00353814
0.00357209
0.00353814
0.00353814
0.00357468
0.00353537
0.00357209
0.00353814
0.00353814
0.00353537
0.00352976
0.00349382
0.00352736
0.00352736
0.00349622
0.00349622
0.00352976
0.00349382
0.00352736
0.00352736
0.00349622
0.00349622
0.00352736
0.00349622
0.00349622
0.00352976
0.00349382
0.00352736
0.00349622
0.00349622
0.00349382
0.00348845
0.00345308
0.00348601
0.00348601
0.00345547
0.00345547
0.00348845
0.00345308
0.00348601
0.00348601
0.00345547
0.00345547
0.00348601
0.00345547
0.00345547
0.00348845
0.00345308
0.00348601
0.00345547
0.00345547
0.00345308
0.00344773
0.00341249
0.00344532
0.00344532
0.00341489
0.00341489
0.00344773
0.00341249
0.00344532
0.00344532
0.00341489
0.00341489
0.00344532
0.00341489
0.00341489
0.00344773
0.00341249
0.00344532
0.00341489
0.00341489
0.00341249
0.00340715
0.00337195
0.00340475
0.00340475
0.00337435
0.00337435
0.00340715
0.00337195
0.00340475
0.00340475
0.00337435
0.00337435
0.00340475
0.00337435
0.00337435
0.00340715
0.00337195
0.00340475
0.00337435
0.00337435
0.00337195
0.00336661
0.00333141
0.00336421
0.00336421
0.00333381
0.00336661
0.00336421
0.00336421
0.00333381
0.00333381
0.00336421
0.00333381
0.00336661
0.00333141
0.00336421
0.00333381
0.00333381
0.00333141
0.00390194
0.0039117
0.0039065
0.0039065
0.00392888
0.00391566
0.00394426
0.00390971
0.00392888
0.00391567
0.00390971
0.00394426
0.00392023
0.003948
0.003948
0.00385729
0.00387644
0.00388563
0.00384937
0.00385013
0.00385288
0.00385727
0.00387642
0.00388563
0.00384935
0.00388015
0.00388016
0.00388016
0.00383674
0.00383674
0.00383674
0.00383674
0.0038548
0.00388062
0.00388055
0.00386362
0.00388365
0.0038537
0.0038645
0.00385024
0.00385288
0.0038548
0.00388055
0.00388064
0.00386362
0.00388364
0.0038645
0.00385369
0.0038865
0.00388648
0.00385802
0.00385333
0.00385333
0.00381064
0.00382994
0.0038313
0.00380917
0.00382885
0.00380874
0.00381064
0.00382994
0.0038313
0.00380916
0.00382479
0.00382479
0.00382479
0.0037872
0.0037872
0.0037872
0.0037872
0.00380924
0.00383001
0.00382479
0.00381292
0.0038288
0.00380977
0.00381265
0.00382885
0.00380873
0.00380924
0.00382479
0.00383001
0.00381292
0.0038288
0.00381265
0.00380977
0.00383104
0.00383104
0.00380947
0.0038101
0.0038101
0.00375841
0.00377722
0.00377828
0.00375738
0.00377687
0.00375709
0.00375841
0.00377722
0.00377828
0.00375738
0.00377404
0.00377404
0.00377404
0.00373466
0.00373466
0.00373466
0.00373466
0.00375751
0.00377761
0.00377391
0.00376087
0.00377704
0.00375787
0.00376077
0.00377687
0.00375709
0.0037575
0.00377391
0.00377761
0.00376087
0.00377704
0.00376077
0.00375787
0.00377786
0.00377786
0.00375749
0.00375794
0.00375794
0.0037059
0.00372453
0.00372536
0.0037051
0.00372432
0.00370493
0.0037059
0.00372453
0.00372536
0.0037051
0.00372164
0.00372164
0.00372164
0.00368303
0.00368304
0.00368303
0.00368303
0.00370537
0.00372492
0.00372161
0.0037087
0.00372462
0.00370556
0.00370866
0.00372432
0.00370493
0.00370537
0.00372161
0.00372492
0.0037087
0.00372463
0.00370866
0.00370556
0.00372496
0.00372496
0.00370541
0.0037055
0.0037055
0.00365462
0.00367305
0.0036737
0.00365409
0.00367291
0.00365395
0.00365462
0.00367305
0.0036737
0.00365409
0.0036703
0.0036703
0.0036703
0.00363269
0.00363269
0.00363269
0.00363269
0.00365436
0.0036734
0.00367028
0.00365766
0.00367322
0.00365447
0.00365764
0.00367291
0.00365395
0.00365436
0.00367028
0.0036734
0.00365766
0.00367322
0.00365764
0.00365447
0.00367339
0.00367339
0.00365446
0.00365438
0.00365438
0.00360492
0.00362296
0.00362347
0.00360461
0.00362285
0.00360448
0.00360492
0.00362296
0.00362347
0.00360461
0.00362036
0.00362036
0.00362036
0.00358401
0.00358401
0.00358401
0.00358401
0.00360487
0.00362327
0.00362033
0.00360812
0.00362316
0.00360494
0.0036081
0.00362284
0.00360449
0.00360487
0.00362033
0.00362327
0.00360812
0.00362316
0.0036081
0.00360494
0.00362324
0.00362324
0.003605
0.00360486
0.00360486
0.00355726
0.00357432
0.00357487
0.00355691
0.00357422
0.00355672
0.00355726
0.00357431
0.00357487
0.00355691
0.00357224
0.00357224
0.00357224
0.00353828
0.00353828
0.00353828
0.00353828
0.00355734
0.00357466
0.00357214
0.00356055
0.00357472
0.00355727
0.00356059
0.00357422
0.00355672
0.00355734
0.00357214
0.00357466
0.00356056
0.00357472
0.00356059
0.00355727
0.00357455
0.00357455
0.00355762
0.00355705
0.00355705
0.00351369
0.00352934
0.00352916
0.0035138
0.00352924
0.00351376
0.00351369
0.00352935
0.00352916
0.0035138
0.00352751
0.00352751
0.00352751
0.00349631
0.00349631
0.00349631
0.00349631
0.00351405
0.00352953
0.00352742
0.00351683
0.00352955
0.00351399
0.00351688
0.00352924
0.00351378
0.00351405
0.00352742
0.00352953
0.00351683
0.00352955
0.00351688
0.00351399
0.00352943
0.00352943
0.00351433
0.00351393
0.00351393
0.00347324
0.00348834
0.00348842
0.00347318
0.00348837
0.0034732
0.00347324
0.00348834
0.00348842
0.00347318
0.00348608
0.00348608
0.00348608
0.00345553
0.00345553
0.00345553
0.00345553
0.00347332
0.00348839
0.00348603
0.00347582
0.00348845
0.00347325
0.00347584
0.00348837
0.0034732
0.00347332
0.00348603
0.00348839
0.00347582
0.00348845
0.00347584
0.00347325
0.00348843
0.00348843
0.00347342
0.00347322
0.00347322
0.00343266
0.00344782
0.00344784
0.00343265
0.00344782
0.00343265
0.00343266
0.00344782
0.00344784
0.00343265
0.00344537
0.00344537
0.00344537
0.00341493
0.00341493
0.00341493
0.00341493
0.00343271
0.0034478
0.00344533
0.00343517
0.00344781
0.00343268
0.00343518
0.00344782
0.00343265
0.00343271
0.00344533
0.0034478
0.00343517
0.00344781
0.00343518
0.00343268
0.00344783
0.00344783
0.00343277
0.00343265
0.00343265
0.00339211
0.00340728
0.00340729
0.00339211
0.00340729
0.00339211
0.00339211
0.00340728
0.00340729
0.00339211
0.00340479
0.00340479
0.00340479
0.00337439
0.00337439
0.00337439
0.00337439
0.00339216
0.00340725
0.00340476
0.00339462
0.00340725
0.00339215
0.00339463
0.00340729
0.00339211
0.00339216
0.00340476
0.00340725
0.00339462
0.00340725
0.00339463
0.00339215
0.00340729
0.00340729
0.00339222
0.00339211
0.00339211
0.00335158
0.00336675
0.00336675
0.00335158
0.00336675
0.00335158
0.00335158
0.00336675
0.00336675
0.00335158
0.00336425
0.00336425
0.00336425
0.00333385
0.00333385
0.00333385
0.00333385
0.00335162
0.00336672
0.00336422
0.00335408
0.00336671
0.00335161
0.00335409
0.00336675
0.00335158
0.00335162
0.00336422
0.00336672
0.00335408
0.00336671
0.00335409
0.00335161
0.00336675
0.00336675
0.00335168
0.00335157
0.00335157
0.00392023
0.00394799
0.00394801
0.00391237
0.00394753
0.00391234
0.00394755
0.00391708
0.00390415
0.00390416
0.00394281
0.00394283
0.00392886
0.00391566
0.00394425
0.0039097
0.00392886
0.00391566
0.00394425
0.0039097
0.00393338
0.00390444
0.00394466
0.00389924
0.00393338
0.00390442
0.00394467
0.00389925
0.00392447
0.00391319
0.00389562
0.00389601
0.00393953
0.00390814
0.00389624
0.00392447
0.00391319
0.00389562
0.00389601
0.00393954
0.00390814
0.00389624
0.00392023
0.00394799
0.003948
0.00391233
0.00394753
0.00391708
0.00390414
0.00390417
0.00394282
0.00394282
0.00391236
0.00394754
0.00392888
0.00391566
0.00394427
0.00390971
0.00392888
0.00391567
0.00390971
0.00394427
0.0039334
0.00390442
0.00394468
0.00389926
0.00392448
0.00391319
0.00389562
0.00389601
0.00393955
0.00390815
0.00389625
0.0039334
0.00390444
0.00394468
0.00389925
0.00392448
0.00391319
0.00389601
0.00389562
0.00390815
0.00393954
0.00389625
0.00390194
0.0039117
0.0039065
0.0039065
0.00390194
0.0039117
0.0039065
0.0039065
0.00390194
0.0039117
0.0039065
0.0039065
0.0039007
0.00390978
0.00389267
0.00389267
0.00390506
0.00390507
0.00389084
0.0039007
0.00390978
0.00389267
0.00389267
0.00390506
0.00390507
0.00389084
0.0039007
0.00390979
0.00389267
0.00389267
0.00390507
0.00390507
0.00389084
0.0039007
0.00390978
0.00389267
0.00389267
0.00390507
0.00390507
0.00389084
0.00392888
0.00391566
0.00390971
0.00394426
0.00392448
0.00391319
0.00389561
0.00389601
0.00393954
0.00390815
0.00389625
0.00393341
0.00390443
0.00394468
0.00389925
0.00392448
0.00391319
0.00389601
0.00389562
0.00390815
0.00393954
0.00389624
0.0039334
0.00390443
0.00394468
0.00389924
0.00392023
0.00394801
0.003948
0.00391231
0.00394754
0.00391709
0.00390415
0.00390415
0.00394282
0.00394283
0.00391231
0.00394754
0.00392888
0.00391566
0.00390971
0.00394426
0.00392448
0.00391319
0.00389601
0.00389563
0.00390815
0.00393954
0.00389624
0.00392448
0.00391319
0.00389601
0.00389562
0.00390815
0.00393954
0.00389625
0.0039334
0.00390443
0.00394468
0.00389924
0.0039334
0.00390444
0.00394468
0.00389925
0.00391709
0.00390415
0.00390416
0.00394282
0.00394282
0.00391231
0.00394754
0.00391234
0.00394755
0.00385013
0.00385287
0.00385023
0.00385285
0.00388646
0.00388649
0.00385803
0.00385333
0.00385333
0.00383562
0.00385252
0.00383562
0.00385253
0.00385137
0.00383823
0.00383823
0.00385148
0.00385148
0.00385729
0.00387642
0.00388564
0.00384936
0.00385482
0.00388063
0.00388055
0.00386362
0.00388364
0.0038537
0.00386451
0.00385481
0.00388063
0.00388055
0.00386362
0.00388365
0.00385371
0.00386451
0.00385275
0.00383736
0.00385027
0.0038381
0.00385274
0.00383736
0.00385027
0.0038381
0.00384979
0.00384931
0.00383704
0.00383678
0.00385086
0.00384972
0.00383538
0.00384978
0.00384931
0.00383704
0.00383678
0.00385086
0.00384972
0.00383538
0.00388645
0.0038865
0.00385804
0.00385333
0.00385333
0.00385028
0.00385286
0.00383562
0.00385253
0.00385137
0.00383823
0.00383823
0.00385148
0.00385148
0.00383561
0.00385254
0.0038548
0.00388063
0.00388055
0.00386362
0.00388365
0.0038537
0.0038645
0.00385728
0.00387643
0.00388562
0.00384937
0.0038548
0.00388055
0.00388063
0.00386362
0.00388364
0.0038645
0.0038537
0.00385274
0.00383736
0.00385027
0.0038381
0.00384977
0.00384931
0.00383704
0.00383678
0.00385086
0.00384972
0.00383538
0.00385274
0.00383735
0.00385028
0.0038381
0.00384978
0.00384931
0.00383678
0.00383703
0.00384972
0.00385086
0.00383538
0.00385727
0.00387643
0.00388562
0.00384936
0.0038548
0.00388055
0.00388064
0.00386362
0.00388364
0.0038645
0.0038537
0.00385728
0.00387644
0.00388562
0.00384936
0.00384977
0.00384931
0.00383704
0.00383678
0.00385085
0.00384972
0.00383538
0.00385274
0.00383736
0.00385027
0.0038381
0.00384978
0.00384931
0.00383678
0.00383704
0.00384972
0.00385085
0.00383538
0.00385274
0.00383736
0.00385026
0.0038381
0.00388649
0.0038865
0.00385802
0.00385333
0.00385333
0.00385024
0.00385285
0.00383561
0.00385255
0.00385137
0.00383823
0.00383823
0.00385148
0.00385147
0.00383562
0.0038525
0.00385479
0.00388055
0.00388063
0.00386362
0.00388365
0.0038645
0.0038537
0.00385727
0.00387644
0.00388561
0.00384935
0.00385727
0.00387644
0.00388562
0.00384936
0.00384978
0.00384931
0.00383678
0.00383704
0.00384972
0.00385085
0.00383538
0.00384977
0.00384931
0.00383678
0.00383703
0.00384972
0.00385085
0.00383538
0.00385274
0.00383736
0.00385027
0.0038381
0.00385274
0.00383735
0.00385026
0.00383809
0.00385026
0.00385286
0.00385026
0.00385286
0.00385137
0.00383823
0.00383823
0.00385148
0.00385148
0.00383563
0.00385251
0.00383561
0.00385252
0.00382885
0.00380874
0.00382884
0.00380874
0.00383104
0.00383104
0.00380947
0.0038101
0.0038101
0.00378336
0.0038023
0.00378336
0.0038023
0.00380267
0.00378444
0.00378444
0.00380363
0.00380363
0.00381064
0.00382994
0.0038313
0.00380917
0.00380924
0.00383002
0.00382479
0.00381292
0.0038288
0.00380977
0.00381265
0.00380924
0.00383002
0.00382479
0.00381292
0.0038288
0.00380977
0.00381265
0.00380412
0.00378378
0.00380279
0.00378487
0.00380412
0.00378378
0.00380279
0.00378487
0.0038027
0.00380016
0.00378424
0.00378704
0.00380332
0.00380002
0.00378371
0.0038027
0.00380016
0.00378424
0.00378704
0.00380332
0.00380002
0.0037837
0.00383104
0.00383104
0.00380947
0.0038101
0.00381011
0.00382885
0.00380875
0.00378336
0.0038023
0.00380267
0.00378444
0.00378444
0.00380363
0.00380363
0.00378336
0.0038023
0.00380923
0.00383001
0.00382479
0.00381292
0.0038288
0.00380977
0.00381265
0.00381064
0.00382993
0.0038313
0.00380917
0.00380923
0.00382479
0.00383001
0.00381292
0.0038288
0.00381265
0.00380977
0.00380411
0.00378378
0.00380279
0.00378487
0.00380269
0.00380016
0.00378424
0.00378704
0.00380332
0.00380002
0.0037837
0.00380411
0.00378378
0.00380279
0.00378487
0.00380269
0.00380016
0.00378704
0.00378424
0.00380002
0.00380332
0.0037837
0.00381064
0.00382994
0.0038313
0.00380917
0.00380923
0.00382479
0.00383002
0.00381292
0.0038288
0.00381265
0.00380977
0.00381064
0.00382994
0.0038313
0.00380917
0.0038027
0.00380016
0.00378424
0.00378704
0.00380332
0.00380002
0.0037837
0.00380412
0.00378378
0.00380279
0.00378487
0.0038027
0.00380016
0.00378704
0.00378424
0.00380002
0.00380332
0.0037837
0.00380411
0.00378378
0.00380279
0.00378487
0.00383104
0.00383104
0.00380947
0.0038101
0.0038101
0.00382885
0.00380874
0.00378336
0.0038023
0.00380267
0.00378444
0.00378444
0.00380363
0.00380363
0.00378336
0.0038023
0.00380924
0.00382479
0.00383001
0.00381292
0.0038288
0.00381265
0.00380977
0.00381065
0.00382994
0.0038313
0.00380917
0.00381065
0.00382994
0.0038313
0.00380917
0.0038027
0.00380016
0.00378704
0.00378424
0.00380002
0.00380332
0.0037837
0.0038027
0.00380016
0.00378704
0.00378424
0.00380002
0.00380332
0.0037837
0.00380412
0.00378378
0.00380279
0.00378487
0.00380412
0.00378378
0.00380279
0.00378487
0.00382885
0.00380874
0.00382884
0.00380874
0.00380267
0.00378444
0.00378444
0.00380363
0.00380363
0.00378336
0.0038023
0.00378336
0.0038023
0.00377687
0.00375709
0.00377687
0.00375709
0.00377786
0.00377786
0.0037575
0.00375794
0.00375794
0.00373082
0.00375044
0.00373082
0.00375044
0.00375054
0.00373149
0.00373149
0.00375125
0.00375125
0.00375841
0.00377722
0.00377828
0.00375738
0.0037575
0.00377761
0.00377391
0.00376087
0.00377704
0.00375787
0.00376077
0.0037575
0.00377761
0.00377391
0.00376087
0.00377704
0.00375787
0.00376077
0.00375171
0.00373104
0.0037507
0.00373193
0.00375171
0.00373104
0.0037507
0.00373193
0.00375077
0.00374775
0.00373152
0.00373461
0.00375114
0.00374767
0.00373127
0.00375077
0.00374775
0.00373152
0.00373461
0.00375114
0.00374767
0.00373127
0.00377786
0.00377786
0.00375749
0.00375794
0.00375794
0.00377687
0.00375709
0.00373082
0.00375044
0.00375054
0.00373149
0.00373149
0.00375125
0.00375125
0.00373082
0.00375044
0.0037575
0.00377761
0.00377391
0.00376087
0.00377704
0.00375787
0.00376077
0.00375841
0.00377722
0.00377828
0.00375738
0.0037575
0.00377391
0.00377761
0.00376087
0.00377704
0.00376077
0.00375787
0.00375171
0.00373104
0.0037507
0.00373193
0.00375077
0.00374775
0.00373152
0.00373461
0.00375114
0.00374767
0.00373127
0.00375171
0.00373104
0.0037507
0.00373193
0.00375077
0.00374775
0.00373461
0.00373152
0.00374767
0.00375114
0.00373127
0.00375841
0.00377722
0.00377828
0.00375738
0.0037575
0.00377391
0.00377761
0.00376087
0.00377704
0.00376077
0.00375787
0.00375841
0.00377722
0.00377828
0.00375738
0.00375077
0.00374775
0.00373152
0.00373461
0.00375114
0.00374767
0.00373127
0.00375171
0.00373104
0.0037507
0.00373193
0.00375077
0.00374775
0.00373461
0.00373152
0.00374767
0.00375114
0.00373127
0.00375171
0.00373104
0.0037507
0.00373193
0.00377786
0.00377786
0.00375749
0.00375794
0.00375794
0.00377687
0.00375709
0.00373082
0.00375044
0.00375054
0.00373149
0.00373149
0.00375125
0.00375125
0.00373082
0.00375044
0.0037575
0.00377391
0.00377761
0.00376087
0.00377704
0.00376077
0.00375787
0.00375841
0.00377722
0.00377828
0.00375738
0.00375841
0.00377722
0.00377828
0.00375738
0.00375077
0.00374775
0.00373461
0.00373152
0.00374767
0.00375114
0.00373127
0.00375077
0.00374775
0.00373461
0.00373152
0.00374767
0.00375114
0.00373127
0.00375171
0.00373104
0.0037507
0.00373193
0.00375171
0.00373104
0.0037507
0.00373193
0.00377687
0.00375709
0.00377687
0.00375709
0.00375054
0.00373149
0.00373149
0.00375125
0.00375125
0.00373082
0.00375044
0.00373082
0.00375044
0.00372432
0.00370493
0.00372432
0.00370493
0.00372496
0.00372496
0.00370541
0.0037055
0.0037055
0.00367927
0.00369843
0.00367926
0.00369843
0.0036986
0.00367976
0.00367976
0.00369898
0.00369898
0.0037059
0.00372453
0.00372536
0.00370511
0.00370537
0.00372492
0.00372161
0.0037087
0.00372462
0.00370556
0.00370866
0.00370537
0.00372492
0.00372161
0.0037087
0.00372462
0.00370556
0.00370866
0.00369936
0.00367941
0.0036986
0.00368006
0.00369936
0.00367942
0.0036986
0.00368006
0.00369877
0.00369584
0.00367983
0.00368301
0.00369898
0.00369581
0.00367969
0.00369877
0.00369584
0.00367983
0.00368301
0.00369898
0.00369581
0.00367969
0.00372496
0.00372496
0.00370541
0.0037055
0.0037055
0.00372432
0.00370493
0.00367927
0.00369843
0.0036986
0.00367976
0.00367976
0.00369898
0.00369898
0.00367927
0.00369843
0.00370537
0.00372492
0.00372161
0.0037087
0.00372462
0.00370556
0.00370866
0.0037059
0.00372453
0.00372536
0.0037051
0.00370537
0.00372161
0.00372492
0.0037087
0.00372462
0.00370866
0.00370556
0.00369936
0.00367941
0.0036986
0.00368006
0.00369877
0.00369584
0.00367983
0.00368301
0.00369898
0.00369581
0.00367969
0.00369936
0.00367941
0.0036986
0.00368006
0.00369877
0.00369584
0.00368301
0.00367983
0.00369581
0.00369898
0.00367969
0.0037059
0.00372453
0.00372536
0.0037051
0.00370537
0.00372161
0.00372492
0.0037087
0.00372462
0.00370866
0.00370556
0.0037059
0.00372453
0.00372536
0.0037051
0.00369877
0.00369584
0.00367983
0.00368301
0.00369898
0.00369581
0.00367969
0.00369936
0.00367941
0.0036986
0.00368006
0.00369877
0.00369584
0.00368301
0.00367983
0.00369581
0.00369898
0.00367969
0.00369936
0.00367941
0.0036986
0.00368006
0.00372496
0.00372496
0.00370541
0.0037055
0.0037055
0.00372432
0.00370493
0.00367926
0.00369843
0.0036986
0.00367976
0.00367976
0.00369898
0.00369898
0.00367927
0.00369843
0.00370537
0.00372161
0.00372492
0.0037087
0.00372463
0.00370866
0.00370556
0.0037059
0.00372453
0.00372536
0.0037051
0.0037059
0.00372453
0.00372536
0.0037051
0.00369877
0.00369584
0.00368301
0.00367983
0.00369581
0.00369898
0.00367969
0.00369877
0.00369584
0.00368301
0.00367983
0.00369581
0.00369898
0.00367969
0.00369936
0.00367941
0.0036986
0.00368006
0.00369936
0.00367941
0.0036986
0.00368006
0.00372432
0.00370493
0.00372432
0.00370493
0.0036986
0.00367976
0.00367976
0.00369898
0.00369898
0.00367927
0.00369843
0.00367926
0.00369843
0.00367291
0.00365395
0.00367291
0.00365395
0.00367339
0.00367339
0.00365446
0.00365438
0.00365438
0.00362903
0.00364766
0.00362903
0.00364766
0.00364784
0.00362944
0.00362944
0.00364809
0.00364809
0.00365462
0.00367305
0.0036737
0.00365409
0.00365436
0.0036734
0.00367028
0.00365766
0.00367322
0.00365447
0.00365764
0.00365436
0.0036734
0.00367028
0.00365767
0.00367322
0.00365447
0.00365764
0.00364828
0.00362914
0.00364779
0.00362968
0.00364828
0.00362915
0.00364779
0.00362968
0.00364796
0.00364511
0.00362953
0.00363266
0.0036481
0.00364509
0.00362947
0.00364796
0.00364512
0.00362954
0.00363266
0.0036481
0.00364509
0.00362947
0.0036734
0.00367339
0.00365446
0.00365438
0.00365438
0.00367291
0.00365395
0.00362903
0.00364765
0.00364784
0.00362944
0.00362944
0.00364809
0.00364809
0.00362903
0.00364766
0.00365436
0.0036734
0.00367028
0.00365766
0.00367322
0.00365447
0.00365764
0.00365462
0.00367305
0.0036737
0.00365409
0.00365436
0.00367028
0.0036734
0.00365767
0.00367322
0.00365764
0.00365447
0.00364828
0.00362914
0.00364779
0.00362968
0.00364796
0.00364511
0.00362953
0.00363266
0.0036481
0.0036451
0.00362947
0.00364828
0.00362915
0.00364779
0.00362968
0.00364796
0.00364512
0.00363266
0.00362954
0.00364509
0.0036481
0.00362947
0.00365462
0.00367305
0.0036737
0.00365409
0.00365436
0.00367028
0.0036734
0.00365767
0.00367322
0.00365764
0.00365447
0.00365462
0.00367305
0.0036737
0.00365409
0.00364796
0.00364511
0.00362954
0.00363266
0.0036481
0.0036451
0.00362947
0.00364828
0.00362914
0.00364779
0.00362968
0.00364796
0.00364511
0.00363266
0.00362953
0.00364509
0.0036481
0.00362947
0.00364828
0.00362914
0.00364779
0.00362968
0.00367339
0.00367339
0.00365446
0.00365438
0.00365438
0.00367291
0.00365395
0.00362903
0.00364766
0.00364784
0.00362944
0.00362944
0.00364809
0.00364809
0.00362903
0.00364766
0.00365436
0.00367028
0.0036734
0.00365766
0.00367322
0.00365764
0.00365447
0.00365462
0.00367305
0.0036737
0.00365409
0.00365462
0.00367305
0.0036737
0.00365409
0.00364796
0.00364511
0.00363266
0.00362953
0.0036451
0.0036481
0.00362947
0.00364796
0.00364511
0.00363266
0.00362953
0.0036451
0.0036481
0.00362947
0.00364828
0.00362914
0.00364779
0.00362968
0.00364828
0.00362914
0.00364779
0.00362968
0.00367291
0.00365395
0.00367291
0.00365395
0.00364784
0.00362944
0.00362944
0.00364809
0.00364809
0.00362903
0.00364766
0.00362903
0.00364766
0.00362284
0.00360449
0.00362284
0.00360449
0.00362324
0.00362324
0.003605
0.00360486
0.00360486
0.0035802
0.00359834
0.0035802
0.00359834
0.00359858
0.00358054
0.00358054
0.0035987
0.0035987
0.00360492
0.00362296
0.00362347
0.00360461
0.00360487
0.00362327
0.00362033
0.00360812
0.00362316
0.00360494
0.0036081
0.00360487
0.00362327
0.00362033
0.00360812
0.00362316
0.00360494
0.0036081
0.00359875
0.00358029
0.00359844
0.00358079
0.00359875
0.00358029
0.00359843
0.00358079
0.00359864
0.00359594
0.00358068
0.00358393
0.00359871
0.00359595
0.00358076
0.00359864
0.00359594
0.00358068
0.00358393
0.00359871
0.00359595
0.00358076
0.00362324
0.00362324
0.003605
0.00360485
0.00360485
0.00362284
0.00360449
0.0035802
0.00359833
0.00359858
0.00358054
0.00358054
0.0035987
0.0035987
0.0035802
0.00359833
0.00360487
0.00362327
0.00362033
0.00360812
0.00362316
0.00360494
0.0036081
0.00360492
0.00362296
0.00362347
0.00360461
0.00360487
0.00362033
0.00362327
0.00360812
0.00362316
0.0036081
0.00360494
0.00359875
0.00358029
0.00359844
0.00358079
0.00359864
0.00359594
0.00358068
0.00358393
0.00359871
0.00359595
0.00358076
0.00359875
0.00358029
0.00359844
0.00358079
0.00359864
0.00359594
0.00358393
0.00358068
0.00359595
0.00359871
0.00358076
0.00360492
0.00362296
0.00362347
0.00360461
0.00360487
0.00362033
0.00362327
0.00360812
0.00362316
0.0036081
0.00360494
0.00360492
0.00362296
0.00362347
0.00360461
0.00359864
0.00359594
0.00358068
0.00358393
0.00359871
0.00359595
0.00358076
0.00359875
0.00358029
0.00359844
0.00358079
0.00359864
0.00359594
0.00358393
0.00358068
0.00359595
0.00359871
0.00358076
0.00359875
0.00358029
0.00359844
0.00358079
0.00362324
0.00362324
0.003605
0.00360485
0.00360486
0.00362284
0.00360449
0.0035802
0.00359833
0.00359858
0.00358054
0.00358054
0.0035987
0.0035987
0.0035802
0.00359834
0.00360487
0.00362033
0.00362327
0.00360812
0.00362316
0.0036081
0.00360494
0.00360492
0.00362296
0.00362347
0.00360461
0.00360492
0.00362296
0.00362347
0.00360461
0.00359864
0.00359594
0.00358393
0.00358068
0.00359595
0.00359871
0.00358076
0.00359864
0.00359594
0.00358393
0.00358068
0.00359595
0.00359871
0.00358076
0.00359875
0.00358029
0.00359844
0.00358079
0.00359875
0.00358029
0.00359844
0.00358079
0.00362284
0.00360449
0.00362284
0.00360449
0.00359858
0.00358054
0.00358054
0.0035987
0.0035987
0.0035802
0.00359834
0.0035802
0.00359834
0.00357422
0.00355672
0.00357422
0.00355672
0.00357455
0.00357455
0.00355763
0.00355705
0.00355705
0.00353456
0.003551
0.00353456
0.003551
0.00355162
0.00353476
0.00353477
0.00355131
0.00355131
0.00355726
0.00357431
0.00357487
0.00355691
0.00355734
0.00357466
0.00357214
0.00356055
0.00357472
0.00355727
0.00356059
0.00355734
0.00357466
0.00357213
0.00356055
0.00357472
0.00355727
0.00356059
0.0035514
0.0035347
0.00355121
0.00353454
0.0035514
0.00353471
0.00355121
0.00353454
0.0035515
0.00354921
0.00353495
0.00353819
0.00355147
0.00354926
0.003535
0.0035515
0.00354921
0.00353495
0.00353819
0.00355147
0.00354926
0.003535
0.00357455
0.00357455
0.00355763
0.00355705
0.00355705
0.00357422
0.00355672
0.00353456
0.003551
0.00355162
0.00353477
0.00353476
0.00355132
0.00355131
0.00353456
0.003551
0.00355734
0.00357466
0.00357214
0.00356056
0.00357472
0.00355727
0.00356059
0.00355726
0.00357431
0.00357487
0.00355691
0.00355734
0.00357214
0.00357466
0.00356055
0.00357472
0.00356059
0.00355727
0.0035514
0.00353471
0.00355121
0.00353454
0.0035515
0.00354922
0.00353495
0.0035382
0.00355147
0.00354926
0.003535
0.0035514
0.00353471
0.00355121
0.00353454
0.0035515
0.00354921
0.0035382
0.00353495
0.00354926
0.00355147
0.003535
0.00355726
0.00357431
0.00357487
0.00355691
0.00355734
0.00357214
0.00357466
0.00356055
0.00357472
0.00356059
0.00355727
0.00355726
0.00357431
0.00357487
0.00355691
0.0035515
0.00354921
0.00353495
0.0035382
0.00355147
0.00354926
0.003535
0.0035514
0.00353471
0.00355121
0.00353454
0.0035515
0.00354921
0.0035382
0.00353495
0.00354926
0.00355147
0.003535
0.0035514
0.00353471
0.00355121
0.00353454
0.00357455
0.00357455
0.00355763
0.00355705
0.00355705
0.00357422
0.00355672
0.00353456
0.00355099
0.00355162
0.00353477
0.00353477
0.00355131
0.00355131
0.00353456
0.003551
0.00355734
0.00357214
0.00357466
0.00356056
0.00357472
0.00356059
0.00355727
0.00355726
0.00357432
0.00357487
0.00355691
0.00355726
0.00357431
0.00357487
0.00355691
0.0035515
0.00354922
0.0035382
0.00353495
0.00354926
0.00355147
0.003535
0.0035515
0.00354921
0.0035382
0.00353495
0.00354926
0.00355147
0.003535
0.0035514
0.00353471
0.00355121
0.00353454
0.0035514
0.00353471
0.00355121
0.00353454
0.00357422
0.00355672
0.00357422
0.00355672
0.00355162
0.00353477
0.00353476
0.00355131
0.00355131
0.00353456
0.003551
0.00353456
0.00355099
0.00352923
0.00351376
0.00352924
0.00351377
0.00352943
0.00352943
0.00351433
0.00351393
0.00351393
0.00349347
0.00350867
0.00349347
0.00350867
0.00350891
0.00349354
0.00349354
0.00350879
0.00350879
0.00351369
0.00352935
0.00352916
0.0035138
0.00351405
0.00352953
0.00352742
0.00351683
0.00352955
0.00351399
0.00351688
0.00351405
0.00352953
0.00352742
0.00351683
0.00352955
0.00351399
0.00351689
0.0035086
0.00349343
0.00350866
0.0034935
0.0035086
0.00349343
0.00350866
0.0034935
0.00350879
0.00350648
0.00349357
0.00349625
0.00350876
0.00350651
0.00349365
0.00350879
0.00350648
0.00349357
0.00349625
0.00350876
0.00350651
0.00349365
0.00352943
0.00352943
0.00351433
0.00351393
0.00351393
0.00352924
0.00351378
0.00349347
0.00350867
0.00350891
0.00349354
0.00349354
0.00350879
0.00350879
0.00349347
0.00350867
0.00351405
0.00352953
0.00352742
0.00351683
0.00352955
0.00351399
0.00351688
0.00351369
0.00352935
0.00352916
0.0035138
0.00351405
0.00352742
0.00352953
0.00351683
0.00352955
0.00351688
0.00351399
0.0035086
0.00349343
0.00350866
0.0034935
0.00350879
0.00350648
0.00349357
0.00349625
0.00350876
0.00350651
0.00349365
0.0035086
0.00349343
0.00350866
0.0034935
0.00350879
0.00350648
0.00349625
0.00349357
0.00350651
0.00350876
0.00349365
0.00351369
0.00352935
0.00352916
0.0035138
0.00351405
0.00352742
0.00352953
0.00351683
0.00352955
0.00351688
0.00351399
0.00351369
0.00352934
0.00352916
0.0035138
0.00350879
0.00350648
0.00349357
0.00349625
0.00350876
0.00350651
0.00349365
0.0035086
0.00349343
0.00350866
0.0034935
0.00350879
0.00350648
0.00349625
0.00349357
0.00350651
0.00350876
0.00349365
0.0035086
0.00349343
0.00350866
0.0034935
0.00352943
0.00352943
0.00351433
0.00351393
0.00351393
0.00352924
0.00351377
0.00349347
0.00350867
0.00350891
0.00349354
0.00349354
0.00350879
0.00350879
0.00349347
0.00350867
0.00351405
0.00352742
0.00352953
0.00351683
0.00352955
0.00351688
0.00351399