/*--------------------------------*- C++ -*----------------------------------*\
| =========                 |                                                 |
| \\      /  F ield         | OpenFOAM: The Open Source CFD Toolbox           |
|  \\    /   O peration     | Version:  2206                                  |
|   \\  /    A nd           | Website:  www.openfoam.com                      |
|    \\/     M anipulation  |                                                 |
\*---------------------------------------------------------------------------*/
FoamFile
{
    version     2.0;
    format      ascii;
    arch        "LSB;label=32;scalar=64";
    class       volVectorField;
    location    "30";
    object      U;
}
// * * * * * * * * * * * * * * * * * * * * * * * * * * * * * * * * * * * * * //

dimensions      [0 1 -1 0 0 0 0];

internalField   nonuniform List<vector> 
28448
(
(-7.74967e-07 -7.74197e-07 0.103334)
(-5.24569e-07 7.95634e-07 0.103255)
(7.94623e-07 -5.17186e-07 0.103255)
(-4.52342e-05 -4.52424e-05 0.103146)
(-7.80597e-07 -7.77856e-07 0.103334)
(-5.12946e-07 7.91649e-07 0.103255)
(7.89965e-07 -5.07449e-07 0.103255)
(-4.52268e-05 -4.52348e-05 0.103146)
(-7.87629e-07 -7.82959e-07 0.103334)
(-4.99355e-07 7.86138e-07 0.103255)
(7.80858e-07 -4.93326e-07 0.103255)
(-4.52171e-05 -4.52228e-05 0.103146)
(-7.97353e-07 -7.91649e-07 0.103333)
(-4.8133e-07 7.82074e-07 0.103255)
(7.66534e-07 -4.61527e-07 0.103255)
(-4.521e-05 -4.52135e-05 0.103146)
(-7.94152e-07 -7.91289e-07 0.103333)
(-5.00275e-07 7.90951e-07 0.103255)
(7.7268e-07 -4.56725e-07 0.103255)
(-4.52268e-05 -4.5226e-05 0.103146)
(-7.62986e-07 -7.94239e-07 0.103333)
(-5.80883e-07 7.93604e-07 0.103255)
(8.73064e-07 -6.23866e-07 0.103255)
(-4.53025e-05 -4.5317e-05 0.103146)
(-7.10138e-07 -6.87034e-07 0.103334)
(-5.81189e-07 8.54316e-07 0.103255)
(7.97617e-07 -5.43934e-07 0.103255)
(-4.53036e-05 -4.53028e-05 0.103146)
(-7.92553e-07 -7.86885e-07 0.103334)
(-4.98828e-07 7.72687e-07 0.103255)
(7.7804e-07 -4.97017e-07 0.103255)
(-4.52292e-05 -4.52318e-05 0.103146)
(-7.80062e-07 -7.81061e-07 0.103334)
(-5.17715e-07 7.86272e-07 0.103255)
(7.90246e-07 -5.14431e-07 0.103255)
(-4.52465e-05 -4.52553e-05 0.103146)
(-7.76043e-07 -7.76228e-07 0.103334)
(-5.21793e-07 7.91192e-07 0.103255)
(7.92797e-07 -5.16509e-07 0.103255)
(-4.52492e-05 -4.52574e-05 0.103146)
(-7.75462e-07 -7.75559e-07 0.103334)
(-5.22058e-07 7.9196e-07 0.103255)
(7.93263e-07 -5.16653e-07 0.103255)
(-4.52498e-05 -4.52576e-05 0.103146)
(-7.74739e-07 -7.75077e-07 0.103334)
(-5.2223e-07 7.92216e-07 0.103255)
(7.94259e-07 -5.17519e-07 0.103255)
(-4.52502e-05 -4.52581e-05 0.103146)
(-7.74641e-07 -7.74631e-07 0.103334)
(-5.22372e-07 7.92637e-07 0.103255)
(7.93869e-07 -5.16864e-07 0.103255)
(-4.52501e-05 -4.52577e-05 0.103146)
(-7.75054e-07 -7.74833e-07 0.103334)
(-5.22542e-07 7.92565e-07 0.103255)
(7.93671e-07 -5.16503e-07 0.103255)
(-4.52493e-05 -4.52567e-05 0.103146)
(-7.75229e-07 -7.75138e-07 0.103334)
(-5.21736e-07 7.91846e-07 0.103255)
(7.93333e-07 -5.16631e-07 0.103255)
(-4.52491e-05 -4.52567e-05 0.103146)
(-7.75446e-07 -7.75155e-07 0.103334)
(-5.21516e-07 7.91918e-07 0.103255)
(7.93029e-07 -5.16166e-07 0.103255)
(-4.52478e-05 -4.52553e-05 0.103146)
(-7.75561e-07 -7.75197e-07 0.103334)
(-5.21573e-07 7.91808e-07 0.103255)
(7.92615e-07 -5.1622e-07 0.103255)
(-4.52446e-05 -4.52522e-05 0.103146)
(-7.74408e-07 -7.74331e-07 0.103334)
(7.92582e-07 -5.17665e-07 0.103255)
(-4.73873e-05 -4.73591e-05 0.103152)
(8.20156e-07 5.39649e-07 0.103255)
(-8.2348e-07 5.55959e-07 0.103255)
(4.73908e-05 -4.7365e-05 0.103152)
(5.24337e-07 7.99882e-07 0.103255)
(5.47042e-07 -8.21665e-07 0.103255)
(-5.24565e-07 7.95116e-07 0.103255)
(-5.53687e-07 -8.11506e-07 0.103255)
(-4.73596e-05 4.73932e-05 0.103152)
(7.96024e-07 -5.18231e-07 0.103255)
(-7.93032e-07 -5.33982e-07 0.103255)
(4.73582e-05 4.7385e-05 0.103152)
(4.52379e-05 4.5225e-05 0.103146)
(-4.73904e-05 -4.73603e-05 0.103152)
(8.19512e-07 5.45528e-07 0.103255)
(-8.23904e-07 5.57019e-07 0.103255)
(8.17207e-07 5.33762e-07 0.103255)
(-8.19014e-07 5.49969e-07 0.103255)
(-4.52337e-05 4.52052e-05 0.103146)
(4.73963e-05 -4.73681e-05 0.103152)
(5.2648e-07 8.01482e-07 0.103255)
(5.4492e-07 -8.20228e-07 0.103255)
(5.16567e-07 7.9863e-07 0.103255)
(5.36529e-07 -8.14669e-07 0.103255)
(-5.52222e-07 -8.10369e-07 0.103255)
(-5.13852e-07 7.92525e-07 0.103255)
(-5.42692e-07 -8.05238e-07 0.103255)
(4.52178e-05 -4.52523e-05 0.103146)
(-4.73641e-05 4.73995e-05 0.103152)
(-7.92069e-07 -5.32532e-07 0.103255)
(7.90961e-07 -5.06108e-07 0.103255)
(-7.88163e-07 -5.22435e-07 0.103255)
(4.7363e-05 4.73898e-05 0.103152)
(4.523e-05 4.5219e-05 0.103146)
(-4.73995e-05 -4.73683e-05 0.103152)
(8.14851e-07 5.35473e-07 0.103255)
(-8.18334e-07 5.46814e-07 0.103255)
(8.12761e-07 5.28848e-07 0.103255)
(-8.15513e-07 5.44237e-07 0.103255)
(-4.52241e-05 4.51978e-05 0.103146)
(4.74041e-05 -4.73744e-05 0.103152)
(5.15207e-07 7.97923e-07 0.103255)
(5.37353e-07 -8.14772e-07 0.103255)
(5.08193e-07 7.94771e-07 0.103255)
(5.26699e-07 -8.07576e-07 0.103255)
(-5.42978e-07 -8.04432e-07 0.103255)
(-5.04629e-07 7.90062e-07 0.103255)
(-5.32015e-07 -7.97182e-07 0.103255)
(4.52111e-05 -4.52438e-05 0.103146)
(-4.73741e-05 4.74095e-05 0.103152)
(-7.87321e-07 -5.23966e-07 0.103255)
(7.8406e-07 -4.94733e-07 0.103255)
(-7.81126e-07 -5.10644e-07 0.103255)
(4.73731e-05 4.7401e-05 0.103152)
(4.5221e-05 4.52107e-05 0.103146)
(-4.74092e-05 -4.738e-05 0.103151)
(8.07393e-07 5.25077e-07 0.103255)
(-8.11155e-07 5.36563e-07 0.103255)
(8.17136e-07 5.24739e-07 0.103255)
(-8.20973e-07 5.40633e-07 0.103255)
(-4.52155e-05 4.51909e-05 0.103146)
(4.74128e-05 -4.73858e-05 0.103151)
(5.02766e-07 7.91995e-07 0.103255)
(5.21694e-07 -8.04448e-07 0.103255)
(5.05166e-07 7.9845e-07 0.103255)
(5.15432e-07 -8.05265e-07 0.103255)
(-5.29966e-07 -7.93708e-07 0.103255)
(-5.02163e-07 7.94813e-07 0.103255)
(-5.2019e-07 -7.94517e-07 0.103255)
(4.52002e-05 -4.52339e-05 0.103146)
(-4.73831e-05 4.74216e-05 0.103151)
(-7.78864e-07 -5.07217e-07 0.103255)
(7.83226e-07 -4.8008e-07 0.103255)
(-7.80705e-07 -4.95364e-07 0.103255)
(4.73824e-05 4.74134e-05 0.103151)
(4.52137e-05 4.52019e-05 0.103146)
(-4.74313e-05 -4.74046e-05 0.103151)
(8.04712e-07 5.11084e-07 0.103255)
(-8.08653e-07 5.21026e-07 0.103255)
(8.18219e-07 5.21535e-07 0.103255)
(-8.24381e-07 5.35821e-07 0.103255)
(-4.521e-05 4.51837e-05 0.103146)
(4.74329e-05 -4.74058e-05 0.103151)
(4.86479e-07 7.87886e-07 0.103255)
(4.97777e-07 -7.87766e-07 0.103255)
(5.09434e-07 7.96682e-07 0.103255)
(5.30273e-07 -8.21057e-07 0.103255)
(-5.02269e-07 -7.7745e-07 0.103255)
(-5.12756e-07 7.95288e-07 0.103255)
(-5.39614e-07 -8.13619e-07 0.103255)
(4.51945e-05 -4.5223e-05 0.103146)
(-4.73835e-05 4.74283e-05 0.103151)
(-7.64752e-07 -4.76242e-07 0.103255)
(8.03599e-07 -4.91689e-07 0.103255)
(-8.03058e-07 -5.10222e-07 0.103255)
(4.73804e-05 4.74163e-05 0.103151)
(4.52137e-05 4.51971e-05 0.103146)
(-4.74725e-05 -4.74621e-05 0.103151)
(8.23993e-07 5.28297e-07 0.103255)
(-8.28434e-07 5.37206e-07 0.103255)
(7.81523e-07 4.60006e-07 0.103255)
(-7.93007e-07 4.74792e-07 0.103255)
(-4.52124e-05 4.51807e-05 0.103146)
(4.74673e-05 -4.74627e-05 0.103151)
(5.08706e-07 8.00197e-07 0.103255)
(4.99472e-07 -7.92399e-07 0.103255)
(4.71633e-07 7.41571e-07 0.103255)
(5.38104e-07 -8.57029e-07 0.103255)
(-5.05131e-07 -7.80719e-07 0.103255)
(-4.90672e-07 7.42991e-07 0.103255)
(-5.56671e-07 -8.48743e-07 0.103255)
(4.52079e-05 -4.5234e-05 0.103146)
(-4.73861e-05 4.74072e-05 0.103151)
(-7.71152e-07 -4.70853e-07 0.103255)
(8.18277e-07 -5.32932e-07 0.103255)
(-8.21487e-07 -5.46085e-07 0.103255)
(4.73768e-05 4.73991e-05 0.103151)
(4.52132e-05 4.51787e-05 0.103146)
(-4.72627e-05 -4.72254e-05 0.103151)
(8.47851e-07 5.40969e-07 0.103255)
(-8.62799e-07 5.48121e-07 0.103255)
(8.90972e-07 6.76006e-07 0.103255)
(-8.88258e-07 6.9149e-07 0.103255)
(-4.52232e-05 4.51628e-05 0.103146)
(4.72777e-05 -4.72291e-05 0.103151)
(5.57268e-07 8.00577e-07 0.103255)
(6.17975e-07 -9.24075e-07 0.103255)
(6.47899e-07 8.81022e-07 0.103255)
(6.38455e-07 -8.40735e-07 0.103255)
(-6.43099e-07 -9.11e-07 0.103255)
(-6.34325e-07 8.80779e-07 0.103255)
(-6.39988e-07 -8.33214e-07 0.103255)
(4.52751e-05 -4.53278e-05 0.103146)
(-4.72929e-05 4.73396e-05 0.103151)
(-8.78093e-07 -6.3535e-07 0.103255)
(8.29002e-07 -5.96041e-07 0.103255)
(-8.23359e-07 -6.15501e-07 0.103255)
(4.72982e-05 4.73309e-05 0.103151)
(4.53704e-05 4.53738e-05 0.103146)
(-4.74392e-05 -4.74008e-05 0.103152)
(8.4794e-07 6.412e-07 0.103255)
(-8.44468e-07 6.52623e-07 0.103255)
(7.9181e-07 5.267e-07 0.103255)
(-7.92513e-07 5.44113e-07 0.103255)
(-4.53531e-05 4.53588e-05 0.103146)
(4.74463e-05 -4.74076e-05 0.103152)
(5.98612e-07 8.52552e-07 0.103255)
(5.93396e-07 -7.97958e-07 0.103255)
(4.99859e-07 7.82371e-07 0.103255)
(5.29711e-07 -7.87686e-07 0.103255)
(-5.9252e-07 -7.93784e-07 0.103255)
(-4.96829e-07 7.76604e-07 0.103255)
(-5.33882e-07 -7.79325e-07 0.103255)
(4.52952e-05 -4.531e-05 0.103146)
(-4.74039e-05 4.7446e-05 0.103152)
(-7.91216e-07 -5.60205e-07 0.103255)
(7.74254e-07 -4.90951e-07 0.103255)
(-7.71157e-07 -5.08305e-07 0.103255)
(4.74026e-05 4.74368e-05 0.103152)
(4.52214e-05 4.52146e-05 0.103146)
(-4.74147e-05 -4.73891e-05 0.103152)
(7.94678e-07 5.25167e-07 0.103255)
(-7.97964e-07 5.3734e-07 0.103255)
(8.11233e-07 5.27473e-07 0.103255)
(-8.15458e-07 5.4361e-07 0.103255)
(-4.52152e-05 4.5194e-05 0.103146)
(4.74175e-05 -4.73955e-05 0.103152)
(5.00935e-07 7.80432e-07 0.103255)
(5.29625e-07 -7.9912e-07 0.103255)
(5.13768e-07 7.88617e-07 0.103255)
(5.37544e-07 -8.16774e-07 0.103255)
(-5.36499e-07 -7.89164e-07 0.103255)
(-5.14055e-07 7.83721e-07 0.103255)
(-5.44866e-07 -8.05997e-07 0.103255)
(4.52119e-05 -4.52416e-05 0.103146)
(-4.73867e-05 4.74174e-05 0.103152)
(-7.76192e-07 -5.12355e-07 0.103255)
(7.88733e-07 -5.10406e-07 0.103255)
(-7.87431e-07 -5.26301e-07 0.103255)
(4.73838e-05 4.74098e-05 0.103152)
(4.52461e-05 4.52304e-05 0.103146)
(-4.74093e-05 -4.73824e-05 0.103152)
(8.13558e-07 5.3584e-07 0.103255)
(-8.18519e-07 5.467e-07 0.103255)
(8.17223e-07 5.34963e-07 0.103255)
(-8.2109e-07 5.5098e-07 0.103255)
(-4.5243e-05 4.52104e-05 0.103146)
(4.74128e-05 -4.73885e-05 0.103152)
(5.18659e-07 7.9245e-07 0.103255)
(5.39341e-07 -8.19164e-07 0.103255)
(5.20632e-07 7.95266e-07 0.103255)
(5.4191e-07 -8.19848e-07 0.103255)
(-5.47578e-07 -8.08389e-07 0.103255)
(-5.20772e-07 7.9087e-07 0.103255)
(-5.49084e-07 -8.09561e-07 0.103255)
(4.5228e-05 -4.5266e-05 0.103146)
(-4.73829e-05 4.74146e-05 0.103152)
(-7.89418e-07 -5.29943e-07 0.103255)
(7.92595e-07 -5.14683e-07 0.103255)
(-7.91313e-07 -5.31075e-07 0.103255)
(4.73799e-05 4.74064e-05 0.103152)
(4.52502e-05 4.52359e-05 0.103146)
(-4.74087e-05 -4.73811e-05 0.103152)
(8.16953e-07 5.40795e-07 0.103255)
(-8.21705e-07 5.51815e-07 0.103255)
(8.1781e-07 5.35963e-07 0.103255)
(-8.21458e-07 5.51993e-07 0.103255)
(-4.52466e-05 4.52163e-05 0.103146)
(4.74124e-05 -4.73872e-05 0.103152)
(5.22694e-07 7.96873e-07 0.103255)
(5.42366e-07 -8.20472e-07 0.103255)
(5.21197e-07 7.9656e-07 0.103255)
(5.42741e-07 -8.19702e-07 0.103255)
(-5.50532e-07 -8.10099e-07 0.103255)
(-5.21316e-07 7.92188e-07 0.103255)
(-5.49802e-07 -8.09541e-07 0.103255)
(4.52309e-05 -4.52675e-05 0.103146)
(-4.7382e-05 4.74146e-05 0.103152)
(-7.91906e-07 -5.32608e-07 0.103255)
(7.93272e-07 -5.14799e-07 0.103255)
(-7.91996e-07 -5.31551e-07 0.103255)
(4.73792e-05 4.74062e-05 0.103152)
(4.52505e-05 4.52368e-05 0.103146)
(-4.74086e-05 -4.7381e-05 0.103152)
(8.17341e-07 5.41432e-07 0.103255)
(-8.2183e-07 5.52445e-07 0.103255)
(8.18093e-07 5.36381e-07 0.103255)
(-8.21419e-07 5.5259e-07 0.103255)
(-4.52468e-05 4.52172e-05 0.103146)
(4.74125e-05 -4.7387e-05 0.103152)
(5.23128e-07 7.97714e-07 0.103255)
(5.42908e-07 -8.2033e-07 0.103255)
(5.21894e-07 7.9687e-07 0.103255)
(5.43666e-07 -8.20299e-07 0.103255)
(-5.50854e-07 -8.10078e-07 0.103255)
(-5.21461e-07 7.92504e-07 0.103255)
(-5.50027e-07 -8.09919e-07 0.103255)
(4.52315e-05 -4.52675e-05 0.103146)
(-4.73812e-05 4.7414e-05 0.103152)
(-7.9233e-07 -5.33022e-07 0.103255)
(7.94209e-07 -5.15614e-07 0.103255)
(-7.92381e-07 -5.32379e-07 0.103255)
(4.73789e-05 4.74058e-05 0.103152)
(4.52511e-05 4.52372e-05 0.103146)
(-4.74075e-05 -4.73798e-05 0.103152)
(8.17623e-07 5.41862e-07 0.103255)
(-8.21817e-07 5.53004e-07 0.103255)
(8.18364e-07 5.36923e-07 0.103255)
(-8.21724e-07 5.5306e-07 0.103255)
(-4.52466e-05 4.52173e-05 0.103146)
(4.74122e-05 -4.73867e-05 0.103152)
(5.2379e-07 7.97963e-07 0.103255)
(5.43935e-07 -8.2102e-07 0.103255)
(5.22139e-07 7.97368e-07 0.103255)
(5.4379e-07 -8.20128e-07 0.103255)
(-5.51109e-07 -8.10398e-07 0.103255)
(-5.21761e-07 7.92935e-07 0.103255)
(-5.49959e-07 -8.09641e-07 0.103255)
(4.52327e-05 -4.52684e-05 0.103146)
(-4.73806e-05 4.74136e-05 0.103152)
(-7.92751e-07 -5.33782e-07 0.103255)
(7.94288e-07 -5.15405e-07 0.103255)
(-7.92555e-07 -5.31907e-07 0.103255)
(4.73782e-05 4.74054e-05 0.103152)
(4.52508e-05 4.52376e-05 0.103146)
(-4.7408e-05 -4.73799e-05 0.103152)
(8.1788e-07 5.42328e-07 0.103255)
(-8.22154e-07 5.53321e-07 0.103255)
(8.18086e-07 5.36644e-07 0.103255)
(-8.21785e-07 5.52921e-07 0.103255)
(-4.52478e-05 4.52184e-05 0.103146)
(4.74111e-05 -4.73855e-05 0.103152)
(5.23743e-07 7.98419e-07 0.103255)
(5.43552e-07 -8.20401e-07 0.103255)
(5.21817e-07 7.9717e-07 0.103255)
(5.43536e-07 -8.19555e-07 0.103255)
(-5.51071e-07 -8.09957e-07 0.103255)
(-5.21858e-07 7.93009e-07 0.103255)
(-5.50292e-07 -8.09438e-07 0.103255)
(4.52317e-05 -4.52674e-05 0.103146)
(-4.73818e-05 4.74149e-05 0.103152)
(-7.92822e-07 -5.33077e-07 0.103255)
(7.93881e-07 -5.14781e-07 0.103255)
(-7.9273e-07 -5.31528e-07 0.103255)
(4.7378e-05 4.74055e-05 0.103152)
(4.52499e-05 4.52363e-05 0.103146)
(-4.74084e-05 -4.73804e-05 0.103152)
(8.17527e-07 5.4201e-07 0.103255)
(-8.22097e-07 5.53133e-07 0.103255)
(8.17575e-07 5.3604e-07 0.103255)
(-8.21316e-07 5.52449e-07 0.103255)
(-4.52464e-05 4.52171e-05 0.103146)
(4.74117e-05 -4.73862e-05 0.103152)
(5.23398e-07 7.98242e-07 0.103255)
(5.43481e-07 -8.20134e-07 0.103255)
(5.21468e-07 7.96813e-07 0.103255)
(5.43313e-07 -8.19546e-07 0.103255)
(-5.51467e-07 -8.10055e-07 0.103255)
(-5.21341e-07 7.9251e-07 0.103255)
(-5.49789e-07 -8.09239e-07 0.103255)
(4.52315e-05 -4.5267e-05 0.103146)
(-4.73817e-05 4.74146e-05 0.103152)
(-7.93163e-07 -5.32903e-07 0.103255)
(7.93562e-07 -5.14835e-07 0.103255)
(-7.9231e-07 -5.31455e-07 0.103255)
(4.73783e-05 4.74055e-05 0.103152)
(4.52497e-05 4.52361e-05 0.103146)
(-4.74078e-05 -4.738e-05 0.103152)
(8.17393e-07 5.41848e-07 0.103255)
(-8.2135e-07 5.52486e-07 0.103255)
(8.17604e-07 5.35845e-07 0.103255)
(-8.21189e-07 5.5211e-07 0.103255)
(-4.52456e-05 4.52163e-05 0.103146)
(4.74111e-05 -4.73855e-05 0.103152)
(5.23036e-07 7.97801e-07 0.103255)
(5.42985e-07 -8.19979e-07 0.103255)
(5.2144e-07 7.9679e-07 0.103255)
(5.43207e-07 -8.19424e-07 0.103255)
(-5.51121e-07 -8.0988e-07 0.103255)
(-5.20733e-07 7.92414e-07 0.103255)
(-5.48985e-07 -8.08564e-07 0.103255)
(4.52313e-05 -4.5267e-05 0.103146)
(-4.73809e-05 4.74139e-05 0.103152)
(-7.92693e-07 -5.33051e-07 0.103255)
(7.93624e-07 -5.14403e-07 0.103255)
(-7.9167e-07 -5.30729e-07 0.103255)
(4.73783e-05 4.74056e-05 0.103152)
(4.52492e-05 4.52357e-05 0.103146)
(-4.74061e-05 -4.73782e-05 0.103152)
(8.17272e-07 5.41611e-07 0.103255)
(-8.21379e-07 5.5251e-07 0.103255)
(8.17457e-07 5.35786e-07 0.103255)
(-8.21332e-07 5.52042e-07 0.103255)
(-4.52443e-05 4.5215e-05 0.103146)
(4.74074e-05 -4.7382e-05 0.103152)
(5.22688e-07 7.97853e-07 0.103255)
(5.42602e-07 -8.19747e-07 0.103255)
(5.21062e-07 7.96427e-07 0.103255)
(5.42479e-07 -8.18968e-07 0.103255)
(-5.50315e-07 -8.09251e-07 0.103255)
(-5.20879e-07 7.92413e-07 0.103255)
(-5.49314e-07 -8.08846e-07 0.103255)
(4.52304e-05 -4.52659e-05 0.103146)
(-4.73798e-05 4.74124e-05 0.103152)
(-7.9221e-07 -5.32348e-07 0.103255)
(7.92906e-07 -5.14182e-07 0.103255)
(-7.91817e-07 -5.30956e-07 0.103255)
(4.73755e-05 4.74028e-05 0.103152)
(4.52461e-05 4.52328e-05 0.103146)
(-4.73997e-05 -4.73702e-05 0.103152)
(8.16874e-07 5.41515e-07 0.103255)
(-8.21382e-07 5.52392e-07 0.103255)
(8.17399e-07 5.36154e-07 0.103255)
(-4.52398e-05 4.52105e-05 0.103146)
(5.22421e-07 7.97572e-07 0.103255)
(5.42437e-07 -8.19687e-07 0.103255)
(5.20848e-07 7.96635e-07 0.103255)
(5.42132e-07 -8.18822e-07 0.103255)
(-5.50639e-07 -8.09504e-07 0.103255)
(-5.49138e-07 -8.08876e-07 0.103255)
(4.52275e-05 -4.52633e-05 0.103146)
(-4.73727e-05 4.74055e-05 0.103152)
(-7.92253e-07 -5.32641e-07 0.103255)
(7.92617e-07 -5.14648e-07 0.103255)
(-7.9147e-07 -5.31195e-07 0.103255)
(4.73651e-05 4.7392e-05 0.103152)
(4.52398e-05 4.52267e-05 0.103146)
(5.22939e-07 7.98953e-07 0.103255)
(5.42525e-07 -8.19952e-07 0.103255)
(4.52194e-05 -4.52549e-05 0.103146)
(-7.75189e-07 -7.73873e-07 0.103334)
(7.78337e-07 -7.68635e-07 0.103334)
(-7.67573e-07 7.78299e-07 0.103334)
(7.79786e-07 7.62743e-07 0.103334)
(7.49756e-08 -9.81424e-06 0.100365)
(6.5965e-07 7.01675e-06 0.0922586)
(-9.43643e-08 9.48152e-06 0.100348)
(-1.15203e-06 -6.78604e-06 0.0922814)
(-2.03721e-06 3.00764e-06 0.0797834)
(2.00766e-06 -2.93486e-06 0.0798065)
(-9.88693e-06 7.13743e-08 0.100365)
(6.98351e-06 6.36452e-07 0.0922581)
(9.55605e-06 -7.11076e-08 0.100349)
(-6.75676e-06 -1.12585e-06 0.0922813)
(7.7839e-07 -7.68834e-07 0.103334)
(-7.67676e-07 7.78791e-07 0.103334)
(7.81159e-07 7.62788e-07 0.103334)
(-7.79451e-07 -7.7561e-07 0.103334)
(7.83227e-07 -7.70502e-07 0.103334)
(-7.72178e-07 7.85661e-07 0.103334)
(7.84787e-07 7.69699e-07 0.103334)
(1.60233e-05 1.11846e-07 0.102639)
(-1.55855e-05 4.40702e-06 0.100786)
(-6.66375e-07 -2.00319e-07 0.103309)
(-5.20219e-07 7.94883e-07 0.103255)
(-1.61635e-05 -1.17666e-07 0.102631)
(1.48862e-05 -4.85079e-06 0.100812)
(-6.61423e-07 -1.9961e-07 0.103309)
(2.87337e-06 -1.95852e-06 0.0797803)
(-2.81448e-06 1.93714e-06 0.0798073)
(1.1138e-07 1.60145e-05 0.102639)
(-2.00202e-07 -6.59648e-07 0.103309)
(4.44241e-06 -1.56418e-05 0.100786)
(7.93471e-07 -5.12262e-07 0.103255)
(-1.2679e-07 -1.61614e-05 0.102631)
(-2.00596e-07 -6.58435e-07 0.103309)
(-4.89844e-06 1.49538e-05 0.100811)
(-4.6832e-06 -5.7385e-06 0.0976309)
(-5.72924e-06 -4.67534e-06 0.0976301)
(4.73611e-05 4.73878e-05 0.103152)
(4.33343e-06 5.57699e-06 0.0976558)
(5.57211e-06 4.32751e-06 0.0976546)
(8.23399e-08 -9.82973e-06 0.100365)
(6.81574e-07 6.99019e-06 0.0922588)
(-8.96646e-08 9.46472e-06 0.100348)
(-1.1401e-06 -6.8215e-06 0.0922816)
(-2.02661e-06 2.97485e-06 0.0797835)
(2.00575e-06 -2.95149e-06 0.0798065)
(-9.90345e-06 7.36933e-08 0.100365)
(6.95292e-06 6.62467e-07 0.0922582)
(9.54017e-06 -6.33625e-08 0.100349)
(-6.79069e-06 -1.10952e-06 0.0922815)
(7.83991e-07 -7.72282e-07 0.103334)
(-7.72216e-07 7.85265e-07 0.103334)
(7.86139e-07 7.6953e-07 0.103334)
(-7.84615e-07 -7.78379e-07 0.103334)
(7.88258e-07 -7.72747e-07 0.103334)
(-7.78111e-07 7.92193e-07 0.103334)
(7.90484e-07 7.77802e-07 0.103334)
(1.60457e-05 1.11684e-07 0.102639)
(-1.55674e-05 4.38376e-06 0.100786)
(-6.53545e-07 -1.99957e-07 0.103309)
(-5.12879e-07 7.92032e-07 0.103255)
(-1.614e-05 -1.15146e-07 0.102631)
(1.4907e-05 -4.87036e-06 0.100812)
(-6.51381e-07 -2.00735e-07 0.103309)
(2.84969e-06 -1.95844e-06 0.0797804)
(-2.83112e-06 1.95742e-06 0.0798075)
(1.08657e-07 1.60352e-05 0.102639)
(-2.02097e-07 -6.47032e-07 0.103309)
(4.4207e-06 -1.56248e-05 0.100786)
(7.90638e-07 -5.06508e-07 0.103255)
(-1.271e-07 -1.61381e-05 0.102631)
(-2.02522e-07 -6.50307e-07 0.103309)
(-4.92666e-06 1.49765e-05 0.100811)
(-4.68966e-06 -5.73036e-06 0.097631)
(-5.72115e-06 -4.68356e-06 0.0976302)
(4.73674e-05 4.73939e-05 0.103152)
(4.33449e-06 5.58534e-06 0.0976559)
(5.58279e-06 4.32646e-06 0.0976547)
(7.45757e-08 -9.84275e-06 0.100365)
(6.66602e-07 6.96985e-06 0.0922591)
(-8.91673e-08 9.44856e-06 0.100348)
(-1.14964e-06 -6.84509e-06 0.0922819)
(-2.01889e-06 2.961e-06 0.0797837)
(2.01561e-06 -2.97543e-06 0.079807)
(-9.92605e-06 8.59918e-08 0.100365)
(6.92858e-06 6.51244e-07 0.0922585)
(9.52184e-06 -7.0992e-08 0.100349)
(-6.81067e-06 -1.12499e-06 0.0922819)
(7.90457e-07 -7.76831e-07 0.103334)
(-7.78507e-07 7.91443e-07 0.103333)
(7.90864e-07 7.77739e-07 0.103334)
(-7.90989e-07 -7.8382e-07 0.103333)
(7.93612e-07 -7.77788e-07 0.103333)
(-7.85593e-07 8.02577e-07 0.103333)
(7.97636e-07 7.88737e-07 0.103333)
(1.60754e-05 1.12899e-07 0.102639)
(-1.55466e-05 4.35957e-06 0.100786)
(-6.35715e-07 -2.01631e-07 0.103309)
(-4.99952e-07 7.8461e-07 0.103255)
(-1.61239e-05 -1.17679e-07 0.102631)
(1.49344e-05 -4.89466e-06 0.100812)
(-6.35286e-07 -2.02102e-07 0.103309)
(2.83141e-06 -1.93015e-06 0.0797808)
(-2.86183e-06 1.95621e-06 0.079808)
(1.11278e-07 1.60687e-05 0.102639)
(-2.03927e-07 -6.28458e-07 0.103309)
(4.39175e-06 -1.55993e-05 0.100786)
(7.86743e-07 -4.98097e-07 0.103255)
(-1.26394e-07 -1.61217e-05 0.102631)
(-2.041e-07 -6.35589e-07 0.103309)
(-4.94091e-06 1.5003e-05 0.100811)
(-4.682e-06 -5.72473e-06 0.0976311)
(-5.71803e-06 -4.67403e-06 0.0976303)
(4.73766e-05 4.74073e-05 0.103151)
(4.34036e-06 5.58362e-06 0.097656)
(5.57554e-06 4.33697e-06 0.0976548)
(7.93414e-08 -9.9002e-06 0.100365)
(6.64376e-07 6.93896e-06 0.0922595)
(-9.34135e-08 9.42158e-06 0.100348)
(-1.15186e-06 -6.8593e-06 0.0922823)
(-1.9999e-06 2.92587e-06 0.0797845)
(2.01275e-06 -2.98569e-06 0.0798078)
(-9.96998e-06 5.87134e-08 0.100364)
(6.89931e-06 6.44875e-07 0.092259)
(9.48992e-06 -6.08021e-08 0.100349)
(-6.82807e-06 -1.12325e-06 0.0922823)
(7.99887e-07 -7.85744e-07 0.103333)
(-7.89246e-07 8.06223e-07 0.103333)
(8.02214e-07 7.92025e-07 0.103333)
(-7.93833e-07 -7.92475e-07 0.103333)
(7.94073e-07 -7.88737e-07 0.103333)
(-7.84787e-07 8.01596e-07 0.103333)
(7.94627e-07 7.87235e-07 0.103333)
(1.61005e-05 1.08764e-07 0.102639)
(-1.55188e-05 4.35744e-06 0.100786)
(-6.11938e-07 -2.02771e-07 0.103309)
(-4.70059e-07 7.65293e-07 0.103255)
(-1.60829e-05 -1.14851e-07 0.102631)
(1.4961e-05 -4.90887e-06 0.100812)
(-6.01767e-07 -2.08368e-07 0.103309)
(2.81607e-06 -1.9632e-06 0.0797816)
(-2.87381e-06 2.013e-06 0.079809)
(1.05012e-07 1.61049e-05 0.102639)
(-2.06326e-07 -5.94984e-07 0.103309)
(4.38882e-06 -1.55706e-05 0.100786)
(7.71437e-07 -4.68366e-07 0.103255)
(-1.29225e-07 -1.60721e-05 0.102631)
(-2.09226e-07 -6.00966e-07 0.103309)
(-4.95763e-06 1.50436e-05 0.100811)
(-4.67243e-06 -5.72653e-06 0.0976311)
(-5.72169e-06 -4.66305e-06 0.0976303)
(4.74027e-05 4.74361e-05 0.103151)
(4.35395e-06 5.60782e-06 0.097656)
(5.5966e-06 4.35371e-06 0.0976548)
(7.49129e-08 -9.92919e-06 0.100365)
(6.73325e-07 6.93701e-06 0.09226)
(-9.77658e-08 9.38876e-06 0.100348)
(-1.17159e-06 -6.87287e-06 0.0922829)
(-2.06343e-06 2.93641e-06 0.0797856)
(2.07694e-06 -2.98758e-06 0.0798089)
(-9.97852e-06 1.78983e-08 0.100364)
(6.90301e-06 6.40547e-07 0.0922595)
(9.45444e-06 -6.93195e-08 0.100349)
(-6.83432e-06 -1.15934e-06 0.0922829)
(7.96915e-07 -7.86658e-07 0.103333)
(-7.91504e-07 8.12344e-07 0.103333)
(8.02888e-07 7.97837e-07 0.103333)
(-7.99123e-07 -8.24506e-07 0.103333)
(7.90778e-07 -8.21067e-07 0.103333)
(-7.71799e-07 7.57669e-07 0.103333)
(7.78126e-07 7.47405e-07 0.103333)
(1.60894e-05 8.50545e-08 0.102639)
(-1.55104e-05 4.32505e-06 0.100786)
(-6.35242e-07 -2.07157e-07 0.103309)
(-4.57039e-07 7.5425e-07 0.103255)
(-1.60595e-05 -1.23625e-07 0.102631)
(1.49859e-05 -4.94091e-06 0.100812)
(-5.8648e-07 -2.15122e-07 0.103309)
(2.82676e-06 -1.9543e-06 0.0797826)
(-2.88426e-06 2.06164e-06 0.0798102)
(1.17328e-07 1.60976e-05 0.102639)
(-2.04872e-07 -5.9648e-07 0.103309)
(4.38853e-06 -1.55328e-05 0.100786)
(7.40885e-07 -4.24567e-07 0.103255)
(-1.39568e-07 -1.60101e-05 0.102631)
(-2.1162e-07 -5.68056e-07 0.103308)
(-4.97805e-06 1.50645e-05 0.100811)
(-4.65043e-06 -5.7023e-06 0.0976312)
(-5.70558e-06 -4.63047e-06 0.0976304)
(4.74389e-05 4.74731e-05 0.103151)
(4.39272e-06 5.62505e-06 0.0976561)
(5.61281e-06 4.3981e-06 0.0976549)
(1.18106e-07 -9.79704e-06 0.100365)
(6.63488e-07 6.95911e-06 0.0922606)
(-9.39354e-08 9.38453e-06 0.100348)
(-1.08485e-06 -6.70863e-06 0.0922835)
(-2.14247e-06 2.96086e-06 0.0797871)
(1.85185e-06 -2.8342e-06 0.0798096)
(-9.79725e-06 -6.42458e-08 0.100364)
(6.9491e-06 5.84815e-07 0.0922601)
(9.47937e-06 -1.24098e-07 0.100349)
(-6.64878e-06 -1.07313e-06 0.0922836)
(7.49917e-07 -7.91776e-07 0.103333)
(-7.26147e-07 7.05521e-07 0.103333)
(7.31452e-07 6.97155e-07 0.103333)
(-6.83097e-07 -6.68379e-07 0.103333)
(6.95143e-07 -6.6383e-07 0.103333)
(-6.95642e-07 7.206e-07 0.103333)
(7.13821e-07 7.07479e-07 0.103334)
(1.57319e-05 7.89148e-08 0.102639)
(-1.55659e-05 4.29158e-06 0.100786)
(-7.33491e-07 -2.36755e-07 0.103308)
(-6.51887e-07 8.48967e-07 0.103255)
(-1.61363e-05 -1.44987e-07 0.102631)
(1.47366e-05 -4.85529e-06 0.100812)
(-8.20036e-07 -2.1202e-07 0.103308)
(2.91449e-06 -2.15233e-06 0.0797836)
(-2.69052e-06 1.87945e-06 0.0798095)
(1.23638e-07 1.57012e-05 0.102639)
(-1.82921e-07 -7.63215e-07 0.103308)
(4.44293e-06 -1.56692e-05 0.100786)
(8.87594e-07 -6.6427e-07 0.103255)
(-1.13021e-07 -1.61556e-05 0.102631)
(-1.70327e-07 -8.35434e-07 0.103308)
(-4.80144e-06 1.47441e-05 0.100811)
(-4.7111e-06 -5.80892e-06 0.0976315)
(-5.79582e-06 -4.70907e-06 0.0976306)
(4.72201e-05 4.72397e-05 0.103151)
(4.1696e-06 5.49996e-06 0.0976561)
(5.49751e-06 4.15666e-06 0.097655)
(4.64195e-08 -9.58796e-06 0.100365)
(7.28433e-07 7.39267e-06 0.0922601)
(-1.33958e-07 9.80175e-06 0.100348)
(-1.12803e-06 -6.51377e-06 0.092282)
(-1.97706e-06 3.09609e-06 0.0797847)
(2.05512e-06 -2.8727e-06 0.079807)
(-9.70313e-06 1.3943e-07 0.100364)
(7.33762e-06 7.52676e-07 0.0922595)
(9.84827e-06 -2.82435e-08 0.100349)
(-6.50792e-06 -1.06714e-06 0.092282)
(7.25121e-07 -6.82521e-07 0.103334)
(-7.29208e-07 7.62091e-07 0.103334)
(7.49883e-07 7.47814e-07 0.103334)
(-7.89381e-07 -7.77931e-07 0.103334)
(7.94199e-07 -7.72337e-07 0.103334)
(-7.81058e-07 8.02645e-07 0.103334)
(7.9463e-07 7.87481e-07 0.103334)
(1.59138e-05 1.55815e-07 0.102639)
(-1.58403e-05 4.62454e-06 0.100786)
(-7.48077e-07 -1.45379e-07 0.103309)
(-5.33563e-07 8.19486e-07 0.103255)
(-1.64432e-05 -7.20862e-08 0.102631)
(1.47404e-05 -4.67073e-06 0.100812)
(-6.94675e-07 -1.60387e-07 0.103309)
(2.95662e-06 -1.88136e-06 0.079781)
(-2.76774e-06 1.99495e-06 0.0798076)
(1.07587e-07 1.59144e-05 0.102639)
(-1.85125e-07 -7.1672e-07 0.103309)
(4.59854e-06 -1.58615e-05 0.100786)
(7.79351e-07 -5.0572e-07 0.103255)
(-1.17364e-07 -1.64201e-05 0.102631)
(-1.95079e-07 -6.74114e-07 0.103309)
(-4.80376e-06 1.48471e-05 0.100811)
(-4.8134e-06 -5.72556e-06 0.0976308)
(-5.72944e-06 -4.79806e-06 0.0976299)
(4.73936e-05 4.74334e-05 0.103152)
(4.2711e-06 5.59536e-06 0.0976555)
(5.57864e-06 4.27461e-06 0.0976543)
(7.16481e-08 -9.80027e-06 0.100365)
(6.92916e-07 7.07779e-06 0.0922587)
(-1.01659e-07 9.52347e-06 0.100348)
(-1.1353e-06 -6.75945e-06 0.0922813)
(-2.01422e-06 3.00001e-06 0.0797835)
(2.0097e-06 -2.93205e-06 0.0798065)
(-9.87551e-06 5.87188e-08 0.100364)
(7.03707e-06 6.68016e-07 0.0922582)
(9.58667e-06 -6.96782e-08 0.100349)
(-6.72498e-06 -1.11469e-06 0.0922813)
(7.95355e-07 -7.81043e-07 0.103334)
(-7.81234e-07 7.96918e-07 0.103334)
(7.94697e-07 7.82016e-07 0.103334)
(-7.83237e-07 -7.83255e-07 0.103334)
(7.84638e-07 -7.77482e-07 0.103334)
(-7.73441e-07 7.82011e-07 0.103334)
(7.84657e-07 7.67418e-07 0.103334)
(1.60203e-05 1.03856e-07 0.102639)
(-1.56056e-05 4.41549e-06 0.100786)
(-6.51421e-07 -2.02682e-07 0.103309)
(-5.035e-07 7.75512e-07 0.103255)
(-1.61745e-05 -1.1535e-07 0.102631)
(1.48836e-05 -4.86645e-06 0.100812)
(-6.50657e-07 -2.06463e-07 0.103309)
(2.87398e-06 -1.94697e-06 0.0797804)
(-2.81356e-06 1.94751e-06 0.0798073)
(1.05822e-07 1.60021e-05 0.102639)
(-2.03291e-07 -6.43653e-07 0.103309)
(4.44108e-06 -1.56521e-05 0.100786)
(7.82703e-07 -5.01901e-07 0.103255)
(-1.24807e-07 -1.61528e-05 0.102631)
(-2.03051e-07 -6.49657e-07 0.103309)
(-4.90673e-06 1.49504e-05 0.100811)
(-4.69636e-06 -5.73251e-06 0.0976307)
(-5.72735e-06 -4.68711e-06 0.0976299)
(4.73902e-05 4.7418e-05 0.103152)
(4.3248e-06 5.57504e-06 0.0976557)
(5.57299e-06 4.31531e-06 0.0976545)
(7.30857e-08 -9.80609e-06 0.100365)
(6.83318e-07 7.02998e-06 0.0922586)
(-9.75805e-08 9.4864e-06 0.100348)
(-1.14327e-06 -6.76745e-06 0.0922813)
(-2.02583e-06 2.98387e-06 0.0797835)
(2.00698e-06 -2.93748e-06 0.0798065)
(-9.87863e-06 6.12753e-08 0.100365)
(6.99555e-06 6.57314e-07 0.0922581)
(9.56218e-06 -8.22397e-08 0.100349)
(-6.73375e-06 -1.11817e-06 0.0922813)
(7.82021e-07 -7.75169e-07 0.103334)
(-7.71787e-07 7.79988e-07 0.103334)
(7.84243e-07 7.65135e-07 0.103334)
(-7.76955e-07 -7.76541e-07 0.103334)
(7.7876e-07 -7.7094e-07 0.103334)
(-7.69151e-07 7.78119e-07 0.103334)
(7.80664e-07 7.6323e-07 0.103334)
(1.6012e-05 1.07064e-07 0.102639)
(-1.55946e-05 4.38946e-06 0.100786)
(-6.60844e-07 -2.04645e-07 0.103309)
(-5.18665e-07 7.88607e-07 0.103255)
(-1.61779e-05 -1.22055e-07 0.102631)
(1.48807e-05 -4.86126e-06 0.100812)
(-6.6e-07 -2.04063e-07 0.103309)
(2.86446e-06 -1.95449e-06 0.0797803)
(-2.81609e-06 1.94676e-06 0.0798073)
(1.0594e-07 1.59915e-05 0.102639)
(-2.00653e-07 -6.55992e-07 0.103309)
(4.43068e-06 -1.56503e-05 0.100786)
(7.9128e-07 -5.13488e-07 0.103255)
(-1.21909e-07 -1.61616e-05 0.102631)
(-2.00469e-07 -6.59213e-07 0.103309)
(-4.90496e-06 1.49464e-05 0.100811)
(-4.69777e-06 -5.73711e-06 0.0976308)
(-5.72589e-06 -4.69319e-06 0.09763)
(4.7381e-05 4.74068e-05 0.103152)
(4.32115e-06 5.57446e-06 0.0976557)
(5.57381e-06 4.31185e-06 0.0976545)
(7.34408e-08 -9.80483e-06 0.100365)
(6.811e-07 7.03201e-06 0.0922586)
(-9.72413e-08 9.48761e-06 0.100348)
(-1.14397e-06 -6.7661e-06 0.0922813)
(-2.02515e-06 2.9836e-06 0.0797835)
(2.00825e-06 -2.93718e-06 0.0798065)
(-9.87791e-06 6.26992e-08 0.100365)
(6.99624e-06 6.5753e-07 0.0922581)
(9.56296e-06 -7.97936e-08 0.100349)
(-6.73304e-06 -1.11791e-06 0.0922813)
(7.78333e-07 -7.70513e-07 0.103334)
(-7.68884e-07 7.78064e-07 0.103334)
(7.81523e-07 7.62922e-07 0.103334)
(-7.76083e-07 -7.75358e-07 0.103334)
(7.78285e-07 -7.69907e-07 0.103334)
(-7.68441e-07 7.7811e-07 0.103334)
(7.79966e-07 7.63008e-07 0.103334)
(1.60113e-05 1.08492e-07 0.102639)
(-1.5595e-05 4.39496e-06 0.100786)
(-6.65141e-07 -2.02111e-07 0.103309)
(-5.20966e-07 7.91924e-07 0.103255)
(-1.61786e-05 -1.19708e-07 0.102631)
(1.48804e-05 -4.85961e-06 0.100812)