/*--------------------------------*- C++ -*----------------------------------*\
| =========                 |                                                 |
| \\      /  F ield         | OpenFOAM: The Open Source CFD Toolbox           |
|  \\    /   O peration     | Version:  2206                                  |
|   \\  /    A nd           | Website:  www.openfoam.com                      |
|    \\/     M anipulation  |                                                 |
\*---------------------------------------------------------------------------*/
FoamFile
{
    version     2.0;
    format      ascii;
    arch        "LSB;label=32;scalar=64";
    class       volScalarField;
    location    "36";
    object      nut;
}
// * * * * * * * * * * * * * * * * * * * * * * * * * * * * * * * * * * * * * //

dimensions      [0 2 -1 0 0 0 0];

internalField   nonuniform List<scalar> 
28897
(
0.000211444
0.000177822
0.000177813
0.000148839
0.000211444
0.000177823
0.000177811
0.000148836
0.000211444
0.000177821
0.00017781
0.000148836
0.000211444
0.00017782
0.00017781
0.000148835
0.000211442
0.000177819
0.000177808
0.000148835
0.000211443
0.000177817
0.000177807
0.000148834
0.000211442
0.000177815
0.000177804
0.000148831
0.000211435
0.000177807
0.000177794
0.000148813
0.00021141
0.000177775
0.000177764
0.00014878
0.000211417
0.000177776
0.000177767
0.00014879
0.000211417
0.000177776
0.000177767
0.000148783
0.000211417
0.000177778
0.000177768
0.000148786
0.000211417
0.000177778
0.000177768
0.000148785
0.000211417
0.000177778
0.000177768
0.000148785
0.000211417
0.000177778
0.000177768
0.000148784
0.000211417
0.000177778
0.000177768
0.000148785
0.000211418
0.000177778
0.000177768
0.000148786
0.000211418
0.000177778
0.000177768
0.000148785
0.000149031
0.000177799
0.000177793
0.000148962
0.000177819
0.000177784
0.000177823
0.000177798
0.000149022
0.000177813
0.000177817
0.000149026
0.000148845
0.000149027
0.000177801
0.000177795
0.000177799
0.000177793
0.000148779
0.000149011
0.00017782
0.000177786
0.000177819
0.000177785
0.000177799
0.000177823
0.000177798
0.000148837
0.000149017
0.000177818
0.000177812
0.000177817
0.000149022
0.000148841
0.000149027
0.000177799
0.000177794
0.000177798
0.000177792
0.00014883
0.000149031
0.000177819
0.000177784
0.000177818
0.000177784
0.000177798
0.000177822
0.000177798
0.000148832
0.000149017
0.000177817
0.00017781
0.000177816
0.000149022
0.000148842
0.000149026
0.000177799
0.000177793
0.000177798
0.000177792
0.000148844
0.00014903
0.000177819
0.000177785
0.000177818
0.000177784
0.000177798
0.00017782
0.000177797
0.000148832
0.000149016
0.000177815
0.00017781
0.000177815
0.000149021
0.000148841
0.000149025
0.000177798
0.000177791
0.000177797
0.000177791
0.000148845
0.000149029
0.000177818
0.000177785
0.000177818
0.000177784
0.000177797
0.000177819
0.000177797
0.000148831
0.000149015
0.000177815
0.000177808
0.000177815
0.00014902
0.00014884
0.000149023
0.000177798
0.000177791
0.000177795
0.000177791
0.000148844
0.000149029
0.000177817
0.000177785
0.000177814
0.000177781
0.000177797
0.000177817
0.000177798
0.000148831
0.000149014
0.000177815
0.000177807
0.000177815
0.00014902
0.000148837
0.000149023
0.000177795
0.000177791
0.000177795
0.00017779
0.000148843
0.000149027
0.000177815
0.000177779
0.000177815
0.000177776
0.000177796
0.000177815
0.000177794
0.000148829
0.000149011
0.000177814
0.000177804
0.000177809
0.000149017
0.000148838
0.00014901
0.000177794
0.000177788
0.000177787
0.00017778
0.000148841
0.000149019
0.000177814
0.000177774
0.000177806
0.000177769
0.000177792
0.00017781
0.000177785
0.000148826
0.000149
0.000177807
0.000177798
0.000177802
0.000149005
0.00014882
0.000148976
0.000177781
0.000177776
0.000177753
0.000177749
0.000148829
0.000148983
0.000177801
0.000177766
0.000177772
0.000177738
0.00017778
0.00017778
0.000177752
0.000148811
0.000148967
0.000177798
0.000177768
0.00017777
0.000148971
0.000148788
0.00014898
0.00017775
0.000177745
0.000177752
0.000177746
0.000148793
0.000148985
0.000177769
0.000177735
0.000177772
0.000177737
0.000177749
0.000177775
0.00017775
0.00014878
0.000148971
0.000177767
0.000177767
0.00017777
0.000148976
0.000148795
0.000148975
0.000177753
0.000177746
0.000177753
0.000177747
0.0001488
0.000148979
0.000177773
0.000177738
0.000177773
0.000177738
0.000177751
0.000177776
0.000177751
0.000148786
0.000148966
0.00017777
0.000177767
0.00017777
0.000148969
0.000148789
0.000148976
0.000177754
0.000177748
0.000177754
0.000177748
0.000148793
0.000148979
0.000177773
0.000177739
0.000177774
0.00017774
0.000177752
0.000177778
0.000177753
0.000148781
0.000148968
0.000177771
0.000177768
0.000177772
0.000148972
0.000148792
0.000148975
0.000177754
0.000177749
0.000177754
0.000177749
0.000148795
0.000148979
0.000177774
0.00017774
0.000177773
0.000177739
0.000177753
0.000177778
0.000177753
0.000148784
0.000148966
0.000177772
0.000177768
0.000177772
0.000148971
0.00014879
0.000148974
0.000177754
0.000177749
0.000177754
0.000177749
0.000148794
0.000148979
0.000177773
0.00017774
0.000177773
0.00017774
0.000177753
0.000177778
0.000177753
0.000148782
0.000148966
0.000177772
0.000177769
0.000177772
0.000148971
0.00014879
0.000148974
0.000177755
0.00017775
0.000177754
0.000177749
0.000148794
0.00014898
0.000177773
0.00017774
0.000177773
0.00017774
0.000177753
0.000177778
0.000177753
0.000148782
0.000148966
0.000177772
0.000177768
0.000177772
0.00014897
0.000148789
0.000148976
0.000177755
0.000177749
0.000177755
0.000177749
0.000148794
0.000148981
0.000177773
0.00017774
0.000177773
0.00017774
0.000177753
0.000177779
0.000177753
0.000148781
0.000148967
0.000177772
0.000177768
0.000177772
0.000148971
0.000148791
0.000148976
0.000177755
0.000177749
0.000177755
0.000177749
0.000148796
0.00014898
0.000177773
0.00017774
0.000177773
0.00017774
0.000177753
0.000177779
0.000177753
0.000148782
0.000148967
0.000177772
0.000177769
0.000177772
0.000148972
0.000148791
0.000148975
0.000177755
0.00017775
0.000177755
0.000177749
0.000148795
0.000148979
0.000177773
0.00017774
0.000177773
0.00017774
0.000177753
0.000177778
0.000177753
0.000148783
0.000148966
0.000177772
0.000177768
0.000177772
0.000148971
0.00014879
0.000177756
0.00017775
0.000148794
0.000177773
0.00017774
0.000177753
0.000148781
0.000177772
0.000211444
0.000211445
0.000211439
0.000211443
3.89546e-05
4.94622e-05
3.89484e-05
4.94613e-05
2.46967e-05
2.46964e-05
3.8961e-05
4.94612e-05
3.89552e-05
4.94603e-05
0.000211446
0.00021144
0.000211443
0.000211444
0.000211446
0.000211439
0.000211442
8.05957e-05
4.68925e-05
0.000197375
0.000177824
8.0571e-05
4.69035e-05
0.000197375
2.46934e-05
2.46932e-05
8.05992e-05
0.000197371
4.68965e-05
0.000177812
8.05745e-05
0.000197372
4.69071e-05
3.74528e-05
3.7451e-05
0.000149024
3.74558e-05
3.74544e-05
3.89582e-05
4.94617e-05
3.8952e-05
4.9461e-05
2.4696e-05
2.46959e-05
3.89646e-05
4.94607e-05
3.89588e-05
4.946e-05
0.000211444
0.000211439
0.000211444
0.000211444
0.000211445
0.000211438
0.000211444
8.05964e-05
4.68962e-05
0.000197375
0.000177823
8.0572e-05
4.6907e-05
0.000197374
2.46929e-05
2.46929e-05
8.05995e-05
0.000197372
4.68998e-05
0.000177811
8.05749e-05
0.000197371
4.69102e-05
3.7457e-05
3.74561e-05
0.000149022
3.746e-05
3.74592e-05
3.89615e-05
4.94616e-05
3.89555e-05
4.94609e-05
2.46957e-05
2.46958e-05
3.89679e-05
4.94605e-05
3.89623e-05
4.94599e-05
0.000211445
0.000211438
0.000211443
0.000211444
0.000211445
0.000211438
0.000211443
8.05977e-05
4.68991e-05
0.000197374
0.000177821
8.0573e-05
4.69096e-05
0.000197374
2.46927e-05
2.46927e-05
8.06002e-05
0.00019737
4.69025e-05
0.000177811
8.05755e-05
0.000197371
4.69126e-05
3.7461e-05
3.74596e-05
0.000149021
3.74637e-05
3.74617e-05
3.8964e-05
4.94616e-05
3.89583e-05
4.94609e-05
2.46957e-05
2.46958e-05
3.89702e-05
4.94605e-05
3.89651e-05
4.94599e-05
0.000211444
0.000211437
0.000211444
0.000211443
0.000211443
0.000211437
0.000211445
8.0599e-05
4.69013e-05
0.000197374
0.00017782
8.05745e-05
4.69117e-05
0.000197374
2.46926e-05
2.46927e-05
8.06011e-05
0.00019737
4.69044e-05
0.000177809
8.05764e-05
0.00019737
4.69144e-05
3.74643e-05
3.7461e-05
0.000149021
3.74668e-05
3.7463e-05
3.89656e-05
4.94616e-05
3.89603e-05
4.9461e-05
2.46958e-05
2.46959e-05
3.89716e-05
4.94606e-05
3.89667e-05
4.946e-05
0.000211446
0.000211437
0.000211445
0.000211443
0.000211445
0.000211436
0.000211443
8.06009e-05
4.69031e-05
0.000197374
0.000177819
8.05758e-05
4.69133e-05
0.000197373
2.46927e-05
2.46929e-05
8.0602e-05
0.00019737
4.6906e-05
0.000177808
8.05772e-05
0.000197368
4.69158e-05
3.74669e-05
3.74629e-05
0.00014902
3.74691e-05
3.74651e-05
3.89664e-05
4.94618e-05
3.89615e-05
4.94612e-05
2.4696e-05
2.46961e-05
3.89726e-05
4.94608e-05
3.8968e-05
4.94602e-05
0.000211444
0.000211435
0.000211443
0.000211443
0.000211442
0.000211434
0.00021144
8.06033e-05
4.69044e-05
0.000197371
0.000177816
8.05784e-05
4.69143e-05
0.00019737
2.4693e-05
2.46931e-05
8.06032e-05
0.000197366
4.69071e-05
0.000177805
8.05784e-05
0.000197365
4.69166e-05
3.74685e-05
3.74645e-05
0.000149019
3.74702e-05
3.74661e-05
3.89633e-05
4.94622e-05
3.89607e-05
4.94618e-05
2.46963e-05
2.46964e-05
3.89696e-05
4.94612e-05
3.89673e-05
4.94609e-05
0.00021144
0.000211434
0.00021144
0.000211439
0.000211437
0.000211433
0.000211437
8.05966e-05
4.69043e-05
0.000197369
0.000177813
8.0578e-05
4.69126e-05
0.000197368
2.46932e-05
2.46933e-05
8.05973e-05
0.000197364
4.69066e-05
0.000177802
8.05779e-05
0.000197363
4.69143e-05
3.74684e-05
3.7464e-05
0.000149014
3.74691e-05
3.74649e-05
3.89549e-05
4.94628e-05
3.89528e-05
4.94621e-05
2.4696e-05
2.4696e-05
3.89612e-05
4.94617e-05
3.89593e-05
4.94611e-05
0.000211436
0.00021143
0.000211434
0.000211411
0.000211414
0.000211406
0.00021141
8.05743e-05
4.68985e-05
0.000197362
0.000177801
8.05598e-05
4.69049e-05
0.000197355
2.4693e-05
2.46929e-05
8.05735e-05
0.000197357
4.69004e-05
0.000177786
8.056e-05
0.000197348
4.69064e-05
3.74659e-05
3.74623e-05
0.000148988
3.74664e-05
3.74629e-05
3.89495e-05
4.94625e-05
3.89461e-05
4.94616e-05
2.46957e-05
2.46958e-05
3.89558e-05
4.94615e-05
3.89527e-05
4.94607e-05
0.000211412
0.000211405
0.000211409
0.000211416
0.000211417
0.000211411
0.000211415
8.05546e-05
4.68895e-05
0.000197333
0.000177774
8.05301e-05
4.68967e-05
0.000197333
2.46927e-05
2.46927e-05
8.05579e-05
0.000197329
4.68917e-05
0.000177765
8.05299e-05
0.000197329
4.68991e-05
3.74629e-05
3.74591e-05
0.000148973
3.74631e-05
3.74594e-05
3.89478e-05
4.94622e-05
3.89433e-05
4.94615e-05
2.46957e-05
2.46958e-05
3.89542e-05
4.94612e-05
3.89501e-05
4.94605e-05
0.000211418
0.000211412
0.000211415
0.000211417
0.000211418
0.000211412
0.000211415
8.05602e-05
4.68849e-05
0.000197336
0.000177777
8.0535e-05
4.6894e-05
0.000197337
2.46926e-05
2.46927e-05
8.05624e-05
0.000197333
4.68882e-05
0.000177767
8.05373e-05
0.000197334
4.68972e-05
3.74603e-05
3.74567e-05
0.000148973
3.74614e-05
3.74579e-05
3.89475e-05
4.94626e-05
3.89427e-05
4.94623e-05
2.46953e-05
2.46954e-05
3.89539e-05
4.94608e-05
3.89495e-05
4.94599e-05
0.000211418
0.000211412
0.000211416
0.000211417
0.000211418
0.000211412
0.000211416
8.05594e-05
4.68839e-05
0.000197336
0.000177777
8.05354e-05
4.68935e-05
0.000197337
2.46926e-05
2.46927e-05
8.05617e-05
0.000197333
4.68876e-05
0.000177768
8.05374e-05
0.000197334
4.6897e-05
3.74597e-05
3.74562e-05
0.000148969
3.74611e-05
3.74577e-05
3.89475e-05
4.94633e-05
3.89426e-05
4.94628e-05
2.46952e-05
2.46952e-05
3.89539e-05
4.94603e-05
3.89494e-05
4.94596e-05
0.000211418
0.000211413
0.000211416
0.000211417
0.000211418
0.000211412
0.000211416
8.05601e-05
4.68838e-05
0.000197337
0.000177778
8.05356e-05
4.68935e-05
0.000197337
2.46926e-05
2.46927e-05
8.05613e-05
0.000197334
4.68876e-05
0.000177768
8.05369e-05
0.000197334
4.6897e-05
3.74596e-05
3.74562e-05
0.000148972
3.74611e-05
3.74577e-05
3.89475e-05
4.94635e-05
3.89426e-05
4.9463e-05
2.46951e-05
2.46952e-05
3.89539e-05
4.94602e-05
3.89494e-05
4.94595e-05
0.000211419
0.000211413
0.000211416
0.000211417
0.000211418
0.000211412
0.000211416
8.056e-05
4.68838e-05
0.000197337
0.000177778
8.05356e-05
4.68935e-05
0.000197338
2.46926e-05
2.46927e-05
8.05604e-05
0.000197334
4.68877e-05
0.000177769
8.05357e-05
0.000197334
4.68971e-05
3.74596e-05
3.74562e-05
0.000148971
3.74611e-05
3.74577e-05
3.89475e-05
4.94637e-05
3.89427e-05
4.94631e-05
2.46951e-05
2.46952e-05
3.89539e-05
4.94601e-05
3.89494e-05
4.94595e-05
0.000211419
0.000211413
0.000211416
0.000211418
0.000211418
0.000211412
0.000211416
8.05601e-05
4.68838e-05
0.000197337
0.000177779
8.05358e-05
4.68935e-05
0.000197337
2.46926e-05
2.46927e-05
8.05601e-05
0.000197334
4.68877e-05
0.000177768
8.05353e-05
0.000197334
4.68971e-05
3.74596e-05
3.74562e-05
0.000148972
3.74611e-05
3.74577e-05
3.89475e-05
4.94638e-05
3.89426e-05
4.94632e-05
2.46951e-05
2.46952e-05
3.89539e-05
4.94601e-05
3.89494e-05
4.94594e-05
0.000211419
0.000211413
0.000211416
0.000211418
0.000211418
0.000211412
0.000211416
8.05598e-05
4.68838e-05
0.000197337
0.000177779
8.05355e-05
4.68935e-05
0.000197337
2.46926e-05
2.46927e-05
8.05597e-05
0.000197333
4.68877e-05
0.000177769
8.05348e-05
0.000197334
4.68971e-05
3.74596e-05
3.74562e-05
0.000148972
3.74611e-05
3.74577e-05
3.89475e-05
4.94638e-05
3.89427e-05
4.94632e-05
2.46951e-05
2.46952e-05
3.89539e-05
4.94601e-05
3.89494e-05
4.94594e-05
0.000211419
0.000211413
0.000211416
0.000211418
0.000211418
0.000211412
0.000211416
8.05598e-05
4.68838e-05
0.000197337
0.000177779
8.05356e-05
4.68935e-05
0.000197337
2.46926e-05
2.46927e-05
8.05592e-05
0.000197334
4.68877e-05
0.000177768
8.05345e-05
0.000197334
4.68971e-05
3.74596e-05
3.74562e-05
0.00014897
3.74611e-05
3.74577e-05
3.89475e-05
4.94639e-05
3.89427e-05
4.94633e-05
2.46951e-05
2.46952e-05
3.89539e-05
4.94601e-05
3.89494e-05
4.94594e-05
0.000211419
0.000211413
0.000211416
0.000211418
0.000211418
0.000211412
0.000211416
8.05596e-05
4.68838e-05
0.000197337
0.000177779
8.05355e-05
4.68935e-05
0.000197338
2.46926e-05
2.46927e-05
8.05591e-05
0.000197334
4.68877e-05
0.000177769
8.05343e-05
0.000197334
4.68971e-05
3.74596e-05
3.74562e-05
0.000148971
3.74611e-05
3.74577e-05
4.94639e-05
3.89427e-05
2.46951e-05
4.94601e-05
3.89494e-05
0.000211419
0.000211413
0.000211417
4.68838e-05
0.000197338
8.05355e-05
2.46926e-05
0.000197335
4.68878e-05
8.05343e-05
3.74596e-05
3.74563e-05
2.46964e-05
2.46967e-05
2.46953e-05
2.46955e-05
0.000148811
3.74627e-05
3.74534e-05
3.74618e-05
3.74537e-05
3.89468e-05
4.94616e-05
4.94625e-05
3.89528e-05
3.89477e-05
4.94642e-05
4.94651e-05
3.89537e-05
8.05741e-05
0.000177799
4.69029e-05
0.000197371
4.68919e-05
0.000197371
8.05974e-05
8.05753e-05
0.000177794
4.69068e-05
0.00019737
4.68966e-05
0.00019737
8.05987e-05
2.46969e-05
3.74508e-05
3.74494e-05
2.4697e-05
3.89537e-05
4.94606e-05
4.94615e-05
3.89593e-05
8.05747e-05
0.000177819
4.69048e-05
0.000197372
4.68946e-05
0.000197373
8.05978e-05
3.89527e-05
4.94558e-05
4.94568e-05
3.89582e-05
8.05743e-05
0.000177785
0.000197367
4.6896e-05
0.000197367
4.68853e-05
8.05976e-05
4.69018e-05
0.000197375
0.000197375
8.05951e-05
4.94619e-05
3.89527e-05
0.000177798
0.000197372
4.69051e-05
0.000197372
8.05947e-05
4.94598e-05
3.89526e-05
2.46935e-05
2.46938e-05
0.000148803
3.7444e-05
3.74555e-05
3.74422e-05
3.74544e-05
2.46962e-05
2.46965e-05
8.05755e-05
0.000177814
0.000197371
4.69054e-05
0.00019737
4.68952e-05
8.0599e-05
8.0574e-05
0.000177817
0.000197372
4.6904e-05
0.000197372
4.68937e-05
8.05979e-05
3.89534e-05
4.94594e-05
4.94603e-05
3.8959e-05
3.89536e-05
4.94597e-05
4.94606e-05
3.89593e-05
0.000148807
3.74538e-05
3.74518e-05
3.74512e-05
2.46962e-05
2.4695e-05
2.46953e-05
2.46964e-05
2.46961e-05
2.46951e-05
2.46949e-05
3.74603e-05
3.74524e-05
0.000149029
3.74615e-05
3.7456e-05
2.46959e-05
2.4696e-05
2.46947e-05
2.46948e-05
0.000148844
3.74606e-05
3.74584e-05
3.74592e-05
3.7455e-05
3.89555e-05
4.94647e-05
3.89495e-05
4.94638e-05
8.05976e-05
4.68941e-05
0.000197372
0.0001778
8.05747e-05
4.69048e-05
0.000197372
8.05988e-05
4.68983e-05
0.000197371
0.000177794
8.05759e-05
4.69085e-05
0.000197371
3.89504e-05
4.9461e-05
4.94619e-05
3.89565e-05
3.89512e-05
4.94636e-05
4.94644e-05
3.89573e-05
8.05749e-05
0.0001778
4.69064e-05
0.000197372
4.68959e-05
0.000197373
8.05979e-05
8.0576e-05
0.000177793
4.69101e-05
0.000197371
4.68999e-05
0.000197372
8.05991e-05
3.745e-05
3.74479e-05
0.000148983
3.74538e-05
3.7451e-05
2.46969e-05
2.46966e-05
2.46961e-05
2.46963e-05
0.000148802
3.74564e-05
3.74526e-05
3.74526e-05
3.74493e-05
2.46963e-05
2.46965e-05
8.0598e-05
4.68962e-05
0.000197374
0.00017782
8.05755e-05
4.69065e-05
0.000197373
3.896e-05
4.94564e-05
3.89544e-05
4.94555e-05
8.05978e-05
0.000197368
4.6887e-05
0.000177786
8.0575e-05
0.000197368
4.68977e-05
3.89572e-05
4.94601e-05
4.94609e-05
3.89629e-05
8.05756e-05
0.000177819
4.69081e-05
0.000197374
4.68979e-05
0.000197374
8.05983e-05
3.89562e-05
4.94553e-05
4.94561e-05
3.89619e-05
8.05751e-05
0.000177785
0.000197368
4.68993e-05
0.000197368
4.68887e-05
8.05981e-05
3.89545e-05
4.94625e-05
3.89485e-05
4.94616e-05
8.05956e-05
0.000197373
4.68964e-05
0.000177799
8.05726e-05
0.000197373
4.69067e-05
3.89545e-05
4.94603e-05
3.89484e-05
4.94594e-05
8.05733e-05
0.000177824
4.69054e-05
0.000197375
4.68947e-05
0.000197376
8.05963e-05
3.89502e-05
4.94614e-05
4.94622e-05
3.8956e-05
8.05732e-05
0.000177798
0.000197372
4.69084e-05
0.000197373
4.6898e-05
8.05962e-05
3.89502e-05
4.94592e-05
4.946e-05
3.8956e-05
3.74422e-05
3.74543e-05
0.00014902
3.74454e-05
3.74581e-05
2.4696e-05
2.46958e-05
2.4693e-05
2.46931e-05
0.000148835
3.74471e-05
3.74606e-05
3.74437e-05
3.74569e-05
2.46956e-05
2.46957e-05
8.05982e-05
0.000197373
4.68953e-05
0.000177818
8.05747e-05
0.000197373
4.69057e-05
3.89608e-05
4.946e-05
3.89551e-05
4.94591e-05
3.89611e-05
4.94603e-05
3.89554e-05
4.94594e-05
8.05764e-05
0.000177812
0.000197372
4.69087e-05
0.000197372
4.68985e-05
8.05995e-05
8.05749e-05
0.000177817
0.000197373
4.69074e-05
0.000197373
4.6897e-05
8.05985e-05
3.89569e-05
4.94589e-05
4.94597e-05
3.89626e-05
3.89572e-05
4.94592e-05
4.946e-05
3.89629e-05
2.4696e-05
2.46957e-05
2.46948e-05
2.46946e-05
0.000148839
3.74579e-05
3.7457e-05
3.74545e-05
3.74533e-05
2.46954e-05
2.46955e-05
2.46943e-05
2.46945e-05
2.46959e-05
2.46958e-05
2.46946e-05
2.46946e-05
3.74583e-05
3.74573e-05
0.000149026
3.74597e-05
3.74605e-05
2.46957e-05
2.46957e-05
2.46945e-05
2.46945e-05
0.000148842
3.74588e-05
3.7462e-05
3.74574e-05
3.74593e-05
3.89591e-05
4.94642e-05
3.89531e-05
4.94635e-05
8.05984e-05
4.68974e-05
0.00019737
0.000177799
8.05753e-05
4.69077e-05
0.00019737
8.05996e-05
4.69015e-05
0.000197369
0.000177793
8.05764e-05
4.69116e-05
0.000197369
3.8954e-05
4.9461e-05
4.94617e-05
3.896e-05
3.89548e-05
4.94635e-05
4.94641e-05
3.89608e-05
8.05758e-05
0.000177799
4.69087e-05
0.000197369
4.68986e-05
0.000197369
8.05991e-05
8.05769e-05
0.000177793
4.6913e-05
0.000197368
4.6903e-05
0.000197368
8.06002e-05
3.74552e-05
3.74509e-05
0.000149028
3.74587e-05
3.74542e-05
2.46962e-05
2.46961e-05
2.46958e-05
2.46959e-05
0.000148845
3.74606e-05
3.74556e-05
3.74574e-05
3.74525e-05
2.4696e-05
2.46961e-05
8.05987e-05
4.68995e-05
0.000197374
0.000177819
8.0576e-05
4.69096e-05
0.000197374
3.89636e-05
4.94559e-05
3.8958e-05
4.94552e-05
8.05986e-05
0.000197366
4.68903e-05
0.000177784
8.05755e-05
0.000197365
4.69008e-05
3.89607e-05
4.94599e-05
4.94606e-05
3.89663e-05
8.05764e-05
0.000177819
4.69109e-05
0.000197373
4.6901e-05
0.000197374
8.05994e-05
3.89598e-05
4.94552e-05
4.94559e-05
3.89654e-05
8.0576e-05
0.000177784
0.000197365
4.69021e-05
0.000197365
4.68918e-05
8.05993e-05
3.8957e-05
4.9462e-05
3.89516e-05
4.94612e-05
8.05967e-05
0.000197372
4.68997e-05
0.000177798
8.05739e-05
0.000197372
4.69098e-05
3.8957e-05
4.94598e-05
3.89516e-05
4.9459e-05
8.05739e-05
0.000177823
4.69084e-05
0.000197374
4.68981e-05
0.000197374
8.05972e-05
3.89525e-05
4.94612e-05
4.94619e-05
3.89578e-05
8.05744e-05
0.000177798
0.000197372
4.69108e-05
0.000197372
4.6901e-05
8.05975e-05
3.89525e-05
4.94589e-05
4.94596e-05
3.89578e-05
3.74454e-05
3.74594e-05
0.000149017
3.74486e-05
3.74628e-05
2.46955e-05
2.46954e-05
2.46928e-05
2.46928e-05
0.000148833
3.74498e-05
3.74644e-05
3.74468e-05
3.74615e-05
2.46954e-05
2.46954e-05
8.05988e-05
0.000197371
4.68986e-05
0.000177817
8.05752e-05
0.000197371
4.69089e-05
3.89643e-05
4.94595e-05
3.89587e-05
4.94587e-05
3.89646e-05
4.94598e-05
3.8959e-05
4.9459e-05
8.05768e-05
0.000177811
0.00019737
4.69115e-05
0.00019737
4.69016e-05
8.06e-05
8.05755e-05
0.000177816
0.00019737
4.69102e-05
0.00019737
4.69001e-05
8.05992e-05
3.89604e-05
4.94587e-05
4.94594e-05
3.8966e-05
3.89607e-05
4.9459e-05
4.94597e-05
3.89663e-05
2.46953e-05
2.46952e-05
2.46943e-05
2.46942e-05
0.000148838
3.7462e-05
3.74608e-05
3.74587e-05
3.74579e-05
2.46951e-05
2.46951e-05
2.46941e-05
2.46941e-05
2.46956e-05
2.46956e-05
2.46944e-05
2.46944e-05
3.74566e-05
3.74606e-05
0.000149026
3.74586e-05
3.74628e-05
2.46956e-05
2.46956e-05
2.46944e-05
2.46943e-05
0.000148841
3.74591e-05
3.74634e-05
3.74566e-05
3.74613e-05
3.89623e-05
4.94641e-05
3.89565e-05
4.94634e-05
8.05995e-05
4.68997e-05
0.000197368
0.000177799
8.05764e-05
4.69097e-05
0.000197368
8.06007e-05
4.69043e-05
0.000197368
0.000177793
8.05775e-05
4.69142e-05
0.000197368
3.89572e-05
4.94609e-05
4.94616e-05
3.89629e-05
3.8958e-05
4.94634e-05
4.94641e-05
3.89637e-05
8.05768e-05
0.000177798
4.69107e-05
0.000197368
4.69006e-05
0.000197368
8.06001e-05
8.05779e-05
0.000177792
4.69151e-05
0.000197368
4.69055e-05
0.000197368
8.06012e-05
3.74592e-05
3.74539e-05
0.00014903
3.74618e-05
3.74567e-05
2.4696e-05
2.46959e-05
2.46958e-05
2.46957e-05
0.000148845
3.74625e-05
3.74578e-05
3.74602e-05
3.74549e-05
2.46959e-05
2.46959e-05
8.06e-05
4.69022e-05
0.000197373
0.000177819
8.05772e-05
4.6912e-05
0.000197372
3.89669e-05
4.94558e-05
3.89615e-05
4.94551e-05
8.05999e-05
0.000197364
4.6893e-05
0.000177785
8.05768e-05
0.000197364
4.69033e-05
3.8964e-05
4.94598e-05
4.94605e-05
3.89693e-05
8.05778e-05
0.000177818
4.6913e-05
0.000197372
4.69033e-05
0.000197373
8.06008e-05
3.8963e-05
4.94551e-05
4.94558e-05
3.89683e-05
8.05773e-05
0.000177784
0.000197364
4.69043e-05
0.000197364
4.68942e-05
8.06006e-05
3.89591e-05
4.94619e-05
3.89533e-05
4.94612e-05
8.05982e-05
0.000197371
4.69019e-05
0.000177798
8.05753e-05
0.000197371
4.69114e-05
3.89591e-05
4.94595e-05
3.89534e-05
4.94589e-05
8.05753e-05
0.000177821
4.69107e-05
0.000197374
4.69006e-05
0.000197374
8.05987e-05
3.89548e-05
4.94612e-05
4.94619e-05
3.89609e-05
8.05759e-05
0.000177797
0.000197372
4.69121e-05
0.000197372
4.69025e-05
8.0599e-05
3.89548e-05
4.94589e-05
4.94595e-05
3.8961e-05
3.74479e-05
3.74629e-05
0.000149017
3.74506e-05
3.74653e-05
2.46953e-05
2.46953e-05
2.46927e-05
2.46927e-05
0.000148832
3.74515e-05
3.74658e-05
3.74487e-05
3.74636e-05
2.46953e-05
2.46953e-05
8.05999e-05
0.000197369
4.69013e-05
0.000177815
8.0576e-05
0.000197369
4.69113e-05
3.89675e-05
4.94593e-05
3.89621e-05
4.94587e-05
3.89679e-05
4.94596e-05
3.89624e-05
4.9459e-05
8.05775e-05
0.000177811
0.00019737
4.69135e-05
0.000197371
4.69039e-05
8.06009e-05
8.05767e-05
0.000177815
0.00019737
4.69123e-05
0.00019737
4.69024e-05
8.06006e-05
3.89635e-05
4.94587e-05
4.94593e-05
3.89687e-05
3.89639e-05
4.9459e-05
4.94596e-05
3.89692e-05
2.46951e-05
2.46951e-05
2.46941e-05
2.46941e-05
0.000148837
3.74654e-05
3.74623e-05
3.74624e-05
3.746e-05
2.46951e-05
2.46951e-05
2.46941e-05
2.46941e-05
2.46956e-05
2.46956e-05
2.46944e-05
2.46945e-05
3.74573e-05
3.74619e-05
0.000149026
3.74601e-05
3.74642e-05
2.46957e-05
2.46956e-05
2.46945e-05
2.46944e-05
0.000148841
3.74611e-05
3.74653e-05
3.74583e-05
3.74628e-05
3.89648e-05
4.9464e-05
3.89593e-05
4.94634e-05
8.06008e-05
4.69016e-05
0.000197368
0.000177798
8.05775e-05
4.69116e-05
0.000197368
8.0602e-05
4.69064e-05
0.000197368
0.000177791
8.05786e-05
4.6916e-05
0.000197368
3.89596e-05
4.9461e-05
4.94616e-05
3.89649e-05
3.89603e-05
4.94635e-05
4.94641e-05
3.89656e-05
8.05783e-05
0.000177798
4.69124e-05
0.000197368
4.69025e-05
0.000197368
8.06019e-05
8.05794e-05
0.000177791
4.69168e-05
0.000197367
4.69073e-05
0.000197368
8.06031e-05
3.74609e-05
3.7456e-05
0.00014903
3.74632e-05
3.74588e-05
2.46959e-05
2.46959e-05
2.46958e-05
2.46958e-05
0.000148845
3.74641e-05
3.74599e-05
3.74616e-05
3.74571e-05
2.4696e-05
2.46959e-05
8.06015e-05
4.69042e-05
0.000197372
0.000177818
8.05786e-05
4.69139e-05
0.000197371
3.89692e-05
4.94558e-05
3.89643e-05
4.94551e-05
8.06013e-05
0.000197364
4.68951e-05
0.000177785
8.05781e-05
0.000197363
4.69052e-05
3.89662e-05
4.94599e-05
4.94605e-05
3.8971e-05
8.05793e-05
0.000177818
4.69147e-05
0.000197371
4.69051e-05
0.000197372
8.06022e-05
3.89652e-05
4.94552e-05
4.94558e-05
3.897e-05
8.05788e-05
0.000177784
0.000197363
4.6906e-05
0.000197363
4.68961e-05
8.0602e-05
3.89628e-05
4.94619e-05
3.89567e-05
4.94612e-05
8.05996e-05
0.000197373
4.69032e-05
0.000177797
8.05768e-05
0.000197373
4.69132e-05
3.89629e-05
4.94595e-05
3.89568e-05
4.94589e-05
8.05765e-05
0.00017782
4.69125e-05
0.000197375
4.69026e-05
0.000197374
8.05999e-05
3.89586e-05
4.94613e-05
4.94619e-05
3.89645e-05
8.05773e-05
0.000177797
0.000197373
4.69147e-05
0.000197373
4.69045e-05
8.06005e-05
3.89586e-05
4.9459e-05
4.94596e-05
3.89645e-05
3.74496e-05
3.74642e-05
0.000149016
3.74524e-05
3.74666e-05
2.46953e-05
2.46954e-05
2.46928e-05
2.46927e-05
0.000148831
3.74534e-05
3.74676e-05
3.74506e-05
3.74651e-05
2.46954e-05
2.46953e-05
8.0601e-05
0.00019737
4.69033e-05
0.000177815
8.05774e-05
0.00019737
4.69131e-05
3.89696e-05
4.94593e-05
3.89647e-05
4.94587e-05
3.89702e-05
4.94596e-05
3.89652e-05
4.9459e-05
8.05784e-05
0.000177809
0.00019737
4.69152e-05
0.00019737
4.69056e-05
8.06017e-05
8.05777e-05
0.000177815
0.00019737
4.69139e-05
0.00019737
4.69042e-05
8.06014e-05
3.89655e-05
4.94588e-05
4.94593e-05
3.89702e-05
3.8966e-05
4.9459e-05
4.94596e-05
3.89708e-05
2.46951e-05
2.46952e-05
2.46941e-05
2.46941e-05
0.000148836
3.74681e-05
3.74641e-05
3.74653e-05
3.74615e-05
2.46952e-05
2.46952e-05
2.46942e-05
2.46941e-05
2.46957e-05
2.46958e-05
2.46945e-05
2.46946e-05
3.74594e-05
3.7464e-05
0.000149025
3.74622e-05
3.74664e-05
2.46959e-05
2.46958e-05
2.46947e-05
2.46946e-05
0.000148839
3.7463e-05
3.74673e-05
3.74604e-05
3.7465e-05
3.89664e-05
4.94641e-05
3.89612e-05
4.94635e-05
8.06027e-05
4.69033e-05
0.000197367
0.000177797
8.05794e-05
4.69132e-05
0.000197367
8.06039e-05
4.6908e-05
0.000197366
0.000177791
8.05805e-05
4.69175e-05
0.000197365
3.89611e-05
4.94611e-05
4.94617e-05
3.89662e-05
3.89618e-05
4.94636e-05
4.94642e-05
3.89669e-05
8.05801e-05
0.000177795
4.69137e-05
0.000197366
4.6904e-05
0.000197366
8.06034e-05
8.05812e-05
0.000177791
4.69181e-05
0.000197367
4.69087e-05
0.000197366
8.06046e-05
3.74626e-05
3.74581e-05
0.00014903
3.74652e-05
3.7461e-05
2.4696e-05
2.46961e-05
2.4696e-05
2.46959e-05
0.000148844
3.74661e-05
3.74619e-05
3.74636e-05
3.74592e-05
2.46962e-05
2.46961e-05
8.06028e-05
4.69059e-05
0.00019737
0.000177817
8.058e-05
4.69155e-05
0.000197369
3.89707e-05
4.94559e-05
3.89659e-05
4.94552e-05
8.06027e-05
0.000197362
4.68969e-05
0.000177784
8.05796e-05
0.000197362
4.69068e-05
3.89675e-05
4.94601e-05
4.94607e-05
3.89723e-05
8.05805e-05
0.000177815
4.6916e-05
0.000197368
4.69066e-05
0.000197368
8.06035e-05
3.89666e-05
4.94554e-05
4.9456e-05
3.89713e-05
8.05801e-05
0.000177783
0.000197363
4.69073e-05
0.000197362
4.68976e-05
8.06034e-05
3.89658e-05
4.9462e-05
3.89601e-05
4.94613e-05
8.06017e-05
0.000197373
4.6906e-05
0.000177797
8.05784e-05
0.000197373
4.69161e-05
3.89659e-05
4.94597e-05
3.89602e-05
4.94591e-05
8.05787e-05
0.000177819
4.69139e-05
0.000197371
4.69042e-05
0.000197371
8.06024e-05
3.89614e-05
4.94614e-05
4.9462e-05
3.89667e-05
8.05796e-05
0.000177797
0.000197372
4.69171e-05
0.000197373
4.69073e-05
8.06031e-05
3.89615e-05
4.94592e-05
4.94598e-05
3.89669e-05
3.74516e-05
3.74661e-05
0.000149015
3.74544e-05
3.74687e-05
2.46954e-05
2.46955e-05
2.4693e-05
2.46929e-05
0.00014883
3.74551e-05
3.74695e-05
3.74525e-05
3.74671e-05
2.46956e-05
2.46955e-05
8.0602e-05
0.00019737
4.6905e-05
0.000177815
8.05782e-05
0.00019737
4.69147e-05
3.89709e-05
4.94594e-05
3.89661e-05
4.94588e-05
3.89715e-05
4.94597e-05
3.89667e-05
4.94591e-05
8.05793e-05
0.000177807
0.000197366
4.69163e-05
0.000197367
4.6907e-05
8.06028e-05
8.05788e-05
0.000177815
0.000197371
4.69152e-05
0.00019737
4.69057e-05
8.06028e-05
3.89667e-05
4.94589e-05
4.94595e-05
3.89715e-05
3.89673e-05
4.94592e-05
4.94598e-05
3.89722e-05
2.46952e-05
2.46953e-05
2.46942e-05
2.46943e-05
0.000148836
3.74698e-05
3.74658e-05
3.74675e-05
3.74635e-05
2.46954e-05
2.46953e-05
2.46944e-05
2.46943e-05
2.46959e-05
2.4696e-05
2.46947e-05
2.46949e-05
3.7461e-05
3.74658e-05
0.000149023
3.74632e-05
3.74676e-05
2.46962e-05
2.4696e-05
2.4695e-05
2.46948e-05
0.000148838
3.74628e-05
3.74672e-05
3.74611e-05
3.74659e-05
3.89672e-05
4.94643e-05
3.89624e-05
4.94637e-05
8.06033e-05
4.69045e-05
0.000197367
0.000177795
8.05807e-05
4.6914e-05
0.000197367
8.06047e-05
4.69093e-05
0.000197369
0.000177791
8.0582e-05
4.69185e-05
0.000197369
3.89617e-05
4.94615e-05
4.9462e-05
3.89659e-05
3.89624e-05
4.94639e-05
4.94644e-05
3.89667e-05
8.05803e-05
0.000177795
4.69136e-05
0.000197368
4.69047e-05
0.000197368
8.06019e-05
8.05816e-05
0.000177792
4.69183e-05
0.000197368
4.69096e-05
0.000197369
8.06031e-05
3.74644e-05
3.746e-05
0.000149029
3.74665e-05
3.74624e-05
2.46962e-05
2.46963e-05
2.46963e-05
2.46961e-05
0.000148843
3.74662e-05
3.74621e-05
3.74647e-05
3.74604e-05
2.46965e-05
2.46963e-05
8.06036e-05
4.69071e-05
0.000197369
0.000177815
8.05813e-05
4.69163e-05
0.000197369
3.89717e-05
4.94561e-05
3.89673e-05
4.94554e-05
8.06035e-05
0.000197363
4.68981e-05
0.000177778
8.05809e-05
0.000197362
4.69077e-05
3.89683e-05
4.94605e-05
4.94609e-05
3.89721e-05
8.0581e-05
0.000177815
4.69159e-05
0.000197372
4.69073e-05
0.000197372
8.06021e-05
3.89673e-05
4.94557e-05
4.94562e-05
3.89711e-05
8.05804e-05
0.000177776
0.000197363
4.69071e-05
0.000197363
4.68983e-05
8.06016e-05
3.89673e-05
4.94621e-05
3.89623e-05
4.94615e-05
8.06037e-05
0.000197371
4.69082e-05
0.000177796
8.05809e-05
0.000197369
4.69178e-05
3.89674e-05
4.94599e-05
3.89624e-05
4.94593e-05
8.05807e-05
0.000177816
4.69142e-05
0.000197369
4.69051e-05
0.000197369
8.06029e-05
3.89626e-05