/*--------------------------------*- C++ -*----------------------------------*\
| =========                 |                                                 |
| \\      /  F ield         | OpenFOAM: The Open Source CFD Toolbox           |
|  \\    /   O peration     | Version:  2206                                  |
|   \\  /    A nd           | Website:  www.openfoam.com                      |
|    \\/     M anipulation  |                                                 |
\*---------------------------------------------------------------------------*/
FoamFile
{
    version     2.0;
    format      ascii;
    arch        "LSB;label=32;scalar=64";
    class       volScalarField;
    location    "19.5";
    object      k;
}
// * * * * * * * * * * * * * * * * * * * * * * * * * * * * * * * * * * * * * //

dimensions      [0 2 -2 0 0 0 0];

internalField   nonuniform List<scalar> 
28448
(
2.91639e-05
2.88912e-05
2.88908e-05
2.85392e-05
2.9164e-05
2.88913e-05
2.88908e-05
2.85393e-05
2.91639e-05
2.88911e-05
2.88908e-05
2.85395e-05
2.91637e-05
2.88909e-05
2.88904e-05
2.8539e-05
2.9159e-05
2.88852e-05
2.88835e-05
2.85314e-05
2.91551e-05
2.88814e-05
2.88813e-05
2.85289e-05
2.9155e-05
2.88814e-05
2.88813e-05
2.85289e-05
2.9155e-05
2.88814e-05
2.88814e-05
2.85289e-05
2.9155e-05
2.88814e-05
2.88814e-05
2.85289e-05
2.9155e-05
2.88814e-05
2.88814e-05
2.85289e-05
2.9155e-05
2.88814e-05
2.88814e-05
2.85289e-05
2.9155e-05
2.88814e-05
2.88814e-05
2.85289e-05
2.9155e-05
2.88814e-05
2.88814e-05
2.85289e-05
2.9155e-05
2.88814e-05
2.88814e-05
2.85289e-05
2.9155e-05
2.88814e-05
2.88814e-05
2.85289e-05
2.9155e-05
2.88814e-05
2.88814e-05
2.85289e-05
2.9155e-05
2.88814e-05
2.88814e-05
2.85289e-05
2.91555e-05
2.88817e-05
2.85418e-05
2.88909e-05
2.88908e-05
2.85418e-05
2.8891e-05
2.88906e-05
2.88912e-05
2.88908e-05
2.85415e-05
2.88908e-05
2.88909e-05
2.85417e-05
2.85395e-05
2.85418e-05
2.88909e-05
2.88908e-05
2.88908e-05
2.88908e-05
2.85395e-05
2.85418e-05
2.8891e-05
2.88908e-05
2.8891e-05
2.88907e-05
2.8891e-05
2.88913e-05
2.88909e-05
2.85392e-05
2.85415e-05
2.88912e-05
2.88908e-05
2.88911e-05
2.85418e-05
2.85395e-05
2.85419e-05
2.88909e-05
2.88909e-05
2.88909e-05
2.88909e-05
2.85396e-05
2.8542e-05
2.88911e-05
2.88909e-05
2.88911e-05
2.88907e-05
2.88911e-05
2.88912e-05
2.88909e-05
2.85393e-05
2.85417e-05
2.88912e-05
2.88908e-05
2.88911e-05
2.8542e-05
2.85397e-05
2.85421e-05
2.88911e-05
2.88911e-05
2.88909e-05
2.88908e-05
2.85398e-05
2.85419e-05
2.88913e-05
2.88907e-05
2.88911e-05
2.88905e-05
2.88909e-05
2.8891e-05
2.88907e-05
2.85395e-05
2.85415e-05
2.88911e-05
2.88906e-05
2.88908e-05
2.85418e-05
2.85397e-05
2.85383e-05
2.88908e-05
2.88907e-05
2.88881e-05
2.8888e-05
2.85396e-05
2.85382e-05
2.8891e-05
2.88903e-05
2.88881e-05
2.88854e-05
2.88905e-05
2.88878e-05
2.88856e-05
2.85391e-05
2.85355e-05
2.88906e-05
2.88857e-05
2.88857e-05
2.85357e-05
2.85342e-05
2.85314e-05
2.88855e-05
2.88854e-05
2.88814e-05
2.88814e-05
2.85341e-05
2.85313e-05
2.88855e-05
2.88833e-05
2.88816e-05
2.8881e-05
2.88835e-05
2.88815e-05
2.88812e-05
2.85316e-05
2.85311e-05
2.88836e-05
2.88813e-05
2.88814e-05
2.85313e-05
2.85291e-05
2.85314e-05
2.88814e-05
2.88813e-05
2.88812e-05
2.88812e-05
2.8529e-05
2.85314e-05
2.88815e-05
2.88811e-05
2.88814e-05
2.88811e-05
2.88813e-05
2.88814e-05
2.88813e-05
2.85288e-05
2.85312e-05
2.88815e-05
2.88814e-05
2.88814e-05
2.85314e-05
2.85291e-05
2.85314e-05
2.88814e-05
2.88813e-05
2.88813e-05
2.88812e-05
2.85291e-05
2.85314e-05
2.88815e-05
2.88812e-05
2.88814e-05
2.88811e-05
2.88814e-05
2.88815e-05
2.88813e-05
2.85289e-05
2.85312e-05
2.88815e-05
2.88814e-05
2.88814e-05
2.85315e-05
2.85291e-05
2.85314e-05
2.88814e-05
2.88813e-05
2.88813e-05
2.88812e-05
2.85291e-05
2.85314e-05
2.88815e-05
2.88812e-05
2.88814e-05
2.88811e-05
2.88814e-05
2.88815e-05
2.88813e-05
2.85289e-05
2.85312e-05
2.88815e-05
2.88814e-05
2.88814e-05
2.85314e-05
2.85291e-05
2.85314e-05
2.88814e-05
2.88813e-05
2.88813e-05
2.88812e-05
2.85291e-05
2.85314e-05
2.88815e-05
2.88812e-05
2.88814e-05
2.88811e-05
2.88814e-05
2.88815e-05
2.88813e-05
2.85289e-05
2.85312e-05
2.88815e-05
2.88814e-05
2.88814e-05
2.85314e-05
2.85291e-05
2.85314e-05
2.88814e-05
2.88813e-05
2.88813e-05
2.88812e-05
2.85291e-05
2.85314e-05
2.88815e-05
2.88812e-05
2.88814e-05
2.88811e-05
2.88814e-05
2.88815e-05
2.88813e-05
2.85289e-05
2.85312e-05
2.88815e-05
2.88814e-05
2.88814e-05
2.85314e-05
2.85291e-05
2.85314e-05
2.88814e-05
2.88813e-05
2.88813e-05
2.88812e-05
2.85291e-05
2.85314e-05
2.88815e-05
2.88812e-05
2.88814e-05
2.88811e-05
2.88814e-05
2.88815e-05
2.88813e-05
2.85289e-05
2.85312e-05
2.88815e-05
2.88814e-05
2.88814e-05
2.85314e-05
2.85291e-05
2.85314e-05
2.88814e-05
2.88813e-05
2.88813e-05
2.88812e-05
2.85291e-05
2.85314e-05
2.88815e-05
2.88812e-05
2.88814e-05
2.88811e-05
2.88814e-05
2.88815e-05
2.88813e-05
2.85289e-05
2.85312e-05
2.88815e-05
2.88814e-05
2.88814e-05
2.85314e-05
2.85291e-05
2.85314e-05
2.88814e-05
2.88813e-05
2.88813e-05
2.88812e-05
2.85291e-05
2.85314e-05
2.88815e-05
2.88812e-05
2.88814e-05
2.88811e-05
2.88814e-05
2.88815e-05
2.88813e-05
2.85289e-05
2.85312e-05
2.88815e-05
2.88814e-05
2.88814e-05
2.85314e-05
2.85291e-05
2.85314e-05
2.88814e-05
2.88813e-05
2.88813e-05
2.88812e-05
2.85291e-05
2.85314e-05
2.88815e-05
2.88812e-05
2.88814e-05
2.88811e-05
2.88814e-05
2.88815e-05
2.88813e-05
2.85289e-05
2.85312e-05
2.88815e-05
2.88814e-05
2.88814e-05
2.85314e-05
2.85291e-05
2.85314e-05
2.88814e-05
2.88813e-05
2.88813e-05
2.88812e-05
2.85291e-05
2.85314e-05
2.88815e-05
2.88812e-05
2.88814e-05
2.88811e-05
2.88814e-05
2.88815e-05
2.88813e-05
2.85289e-05
2.85312e-05
2.88815e-05
2.88814e-05
2.88814e-05
2.85314e-05
2.85291e-05
2.85314e-05
2.88814e-05
2.88813e-05
2.88813e-05
2.88812e-05
2.85291e-05
2.85314e-05
2.88815e-05
2.88812e-05
2.88814e-05
2.88811e-05
2.88814e-05
2.88815e-05
2.88813e-05
2.85289e-05
2.85312e-05
2.88815e-05
2.88814e-05
2.88814e-05
2.85314e-05
2.85291e-05
2.85314e-05
2.88814e-05
2.88813e-05
2.88814e-05
2.85291e-05
2.88815e-05
2.88812e-05
2.88814e-05
2.88811e-05
2.88814e-05
2.88815e-05
2.85289e-05
2.85312e-05
2.88815e-05
2.88814e-05
2.88816e-05
2.85317e-05
2.85297e-05
2.88816e-05
2.88812e-05
2.85289e-05
2.91639e-05
2.9164e-05
2.91639e-05
2.91639e-05
3.02141e-05
6.79309e-05
3.02152e-05
6.79278e-05
8.36916e-05
8.36855e-05
3.0215e-05
6.79323e-05
3.0216e-05
6.7929e-05
2.9164e-05
2.91641e-05
2.91641e-05
2.9164e-05
2.91639e-05
2.9164e-05
2.9164e-05
2.78133e-05
2.98416e-05
2.90642e-05
2.88914e-05
2.7813e-05
2.98396e-05
2.90644e-05
8.36852e-05
8.36799e-05
2.78131e-05
2.90641e-05
2.98415e-05
2.88909e-05
2.78129e-05
2.90642e-05
2.98395e-05
3.31827e-05
3.31833e-05
2.85418e-05
3.31838e-05
3.31844e-05
3.02158e-05
6.79284e-05
3.02165e-05
6.79258e-05
8.36818e-05
8.36792e-05
3.0217e-05
6.79298e-05
3.02175e-05
6.79271e-05
2.91639e-05
2.9164e-05
2.91641e-05
2.91639e-05
2.91639e-05
2.91638e-05
2.91639e-05
2.78138e-05
2.98434e-05
2.90643e-05
2.88912e-05
2.78134e-05
2.98409e-05
2.90643e-05
8.36776e-05
8.36751e-05
2.78138e-05
2.90641e-05
2.98427e-05
2.88909e-05
2.78133e-05
2.90642e-05
2.98404e-05
3.31888e-05
3.31894e-05
2.8542e-05
3.31892e-05
3.31898e-05
3.02176e-05
6.79273e-05
3.02188e-05
6.79251e-05
8.36792e-05
8.36784e-05
3.02187e-05
6.79287e-05
3.02198e-05
6.79263e-05
2.9164e-05
2.91638e-05
2.91639e-05
2.91638e-05
2.91637e-05
2.91636e-05
2.91636e-05
2.78147e-05
2.98442e-05
2.90642e-05
2.88911e-05
2.78143e-05
2.98418e-05
2.90642e-05
8.36762e-05
8.36752e-05
2.78143e-05
2.9064e-05
2.98437e-05
2.88908e-05
2.78142e-05
2.9064e-05
2.98415e-05
3.31926e-05
3.31933e-05
2.85421e-05
3.3192e-05
3.31927e-05
3.02167e-05
6.79278e-05
3.02191e-05
6.79286e-05
8.36814e-05
8.36833e-05
3.02173e-05
6.7929e-05
3.02198e-05
6.79297e-05
2.91636e-05
2.91634e-05
2.91635e-05
2.91613e-05
2.91612e-05
2.91593e-05
2.91592e-05
2.78131e-05
2.98448e-05
2.90638e-05
2.88906e-05
2.78141e-05
2.98412e-05
2.90635e-05
8.36804e-05
8.36816e-05
2.78127e-05
2.90636e-05
2.98441e-05
2.88899e-05
2.78137e-05
2.90631e-05
2.98404e-05
3.31927e-05
3.31933e-05
2.85404e-05
3.31904e-05
3.31911e-05
3.02094e-05
6.7942e-05
3.02152e-05
6.79418e-05
8.36868e-05
8.36856e-05
3.02094e-05
6.79434e-05
3.02148e-05
6.79431e-05
2.91589e-05
2.91574e-05
2.91574e-05
2.91553e-05
2.91553e-05
2.91551e-05
2.91551e-05
2.78023e-05
2.98401e-05
2.90579e-05
2.88834e-05
2.78047e-05
2.98339e-05
2.90565e-05
8.36836e-05
8.36819e-05
2.78021e-05
2.90572e-05
2.9838e-05
2.88823e-05
2.78041e-05
2.9056e-05
2.98325e-05
3.31867e-05
3.31874e-05
2.85321e-05
3.31809e-05
3.31815e-05
3.02054e-05
6.79435e-05
3.02076e-05
6.79413e-05
8.36859e-05
8.36849e-05
3.02063e-05
6.7945e-05
3.02082e-05
6.79426e-05
2.91553e-05
2.91552e-05
2.91552e-05
2.91551e-05
2.91551e-05
2.91551e-05
2.91551e-05
2.7802e-05
2.98337e-05
2.90551e-05
2.88815e-05
2.78017e-05
2.98304e-05
2.90552e-05
8.36828e-05
8.36814e-05
2.78017e-05
2.9055e-05
2.98334e-05
2.88814e-05
2.78016e-05
2.90551e-05
2.98305e-05
3.31806e-05
3.31812e-05
2.85315e-05
3.31791e-05
3.31797e-05
3.02053e-05
6.79431e-05
3.02069e-05
6.79411e-05
8.36858e-05
8.36849e-05
3.02062e-05
6.79446e-05
3.02076e-05
6.79425e-05
2.91552e-05
2.91552e-05
2.91552e-05
2.9155e-05
2.91551e-05
2.91551e-05
2.91551e-05
2.78019e-05
2.9833e-05
2.90551e-05
2.88815e-05
2.78018e-05
2.98302e-05
2.90552e-05
8.36827e-05
8.36813e-05
2.78017e-05
2.9055e-05
2.98331e-05
2.88815e-05
2.78016e-05
2.90551e-05
2.98304e-05
3.31804e-05
3.3181e-05
2.85314e-05
3.3179e-05
3.31796e-05
3.02053e-05
6.79431e-05
3.02069e-05
6.79411e-05
8.36858e-05
8.36849e-05
3.02062e-05
6.79446e-05
3.02076e-05
6.79425e-05
2.91552e-05
2.91552e-05
2.91552e-05
2.9155e-05
2.91551e-05
2.91551e-05
2.91551e-05
2.78019e-05
2.9833e-05
2.90551e-05
2.88815e-05
2.78017e-05
2.98302e-05
2.90552e-05
8.36827e-05
8.36813e-05
2.78018e-05
2.9055e-05
2.98331e-05
2.88815e-05
2.78015e-05
2.90551e-05
2.98304e-05
3.31804e-05
3.3181e-05
2.85314e-05
3.3179e-05
3.31796e-05
3.02053e-05
6.79431e-05
3.02069e-05
6.79411e-05
8.36858e-05
8.36849e-05
3.02062e-05
6.79446e-05
3.02076e-05
6.79425e-05
2.91552e-05
2.91552e-05
2.91552e-05
2.9155e-05
2.91551e-05
2.91551e-05
2.91551e-05
2.78019e-05
2.9833e-05
2.90551e-05
2.88815e-05
2.78018e-05
2.98302e-05
2.90552e-05
8.36827e-05
8.36813e-05
2.78018e-05
2.9055e-05
2.98331e-05
2.88815e-05
2.78016e-05
2.90551e-05
2.98304e-05
3.31804e-05
3.3181e-05
2.85315e-05
3.3179e-05
3.31796e-05
3.02053e-05
6.79431e-05
3.02069e-05
6.79411e-05
8.36858e-05
8.36849e-05
3.02062e-05
6.79446e-05
3.02076e-05
6.79425e-05
2.91552e-05
2.91552e-05
2.91552e-05
2.9155e-05
2.91551e-05
2.91551e-05
2.91551e-05
2.78019e-05
2.9833e-05
2.90551e-05
2.88815e-05
2.78018e-05
2.98302e-05
2.90552e-05
8.36827e-05
8.36813e-05
2.78018e-05
2.9055e-05
2.98331e-05
2.88815e-05
2.78017e-05
2.90551e-05
2.98304e-05
3.31804e-05
3.3181e-05
2.85315e-05
3.3179e-05
3.31796e-05
3.02053e-05
6.79431e-05
3.02069e-05
6.79411e-05
8.36858e-05
8.36849e-05
3.02062e-05
6.79446e-05
3.02076e-05
6.79425e-05
2.91552e-05
2.91552e-05
2.91552e-05
2.9155e-05
2.91551e-05
2.91551e-05
2.91551e-05
2.7802e-05
2.9833e-05
2.90551e-05
2.88815e-05
2.78017e-05
2.98302e-05
2.90552e-05
8.36827e-05
8.36813e-05
2.78017e-05
2.9055e-05
2.98331e-05
2.88815e-05
2.78016e-05
2.90551e-05
2.98304e-05
3.31804e-05
3.31809e-05
2.85315e-05
3.3179e-05
3.31796e-05
3.02053e-05
6.79431e-05
3.02069e-05
6.79411e-05
8.36858e-05
8.36849e-05
3.02062e-05
6.79446e-05
3.02076e-05
6.79425e-05
2.91552e-05
2.91552e-05
2.91552e-05
2.9155e-05
2.91551e-05
2.91551e-05
2.91551e-05
2.78019e-05
2.9833e-05
2.90551e-05
2.88815e-05
2.78018e-05
2.98302e-05
2.90552e-05
8.36827e-05
8.36813e-05
2.78015e-05
2.9055e-05
2.98331e-05
2.88815e-05
2.78014e-05
2.90551e-05
2.98304e-05
3.31804e-05
3.31809e-05
2.85315e-05
3.3179e-05
3.31796e-05
3.02053e-05
6.79431e-05
3.02069e-05
6.79411e-05
8.36858e-05
8.36849e-05
3.02062e-05
6.79446e-05
3.02076e-05
6.79424e-05
2.91552e-05
2.91552e-05
2.91552e-05
2.9155e-05
2.91551e-05
2.91551e-05
2.91551e-05
2.78019e-05
2.9833e-05
2.90551e-05
2.88815e-05
2.78017e-05
2.98302e-05
2.90552e-05
8.36827e-05
8.36813e-05
2.78014e-05
2.9055e-05
2.9833e-05
2.88815e-05
2.78013e-05
2.90551e-05
2.98304e-05
3.31804e-05
3.31809e-05
2.85314e-05
3.3179e-05
3.31796e-05
3.02053e-05
6.79431e-05
3.02069e-05
6.79411e-05
8.36858e-05
8.36849e-05
3.02062e-05
6.79446e-05
3.02076e-05
6.79424e-05
2.91552e-05
2.91552e-05
2.91552e-05
2.9155e-05
2.91551e-05
2.91551e-05
2.91551e-05
2.78019e-05
2.9833e-05
2.90551e-05
2.88815e-05
2.78018e-05
2.98302e-05
2.90552e-05
8.36827e-05
8.36813e-05
2.78013e-05
2.9055e-05
2.9833e-05
2.88815e-05
2.78012e-05
2.90551e-05
2.98304e-05
3.31804e-05
3.31809e-05
2.85315e-05
3.3179e-05
3.31796e-05
3.02053e-05
6.79431e-05
3.02069e-05
6.79411e-05
8.36858e-05
8.36849e-05
3.02062e-05
6.79446e-05
3.02076e-05
6.79425e-05
2.91552e-05
2.91552e-05
2.91552e-05
2.9155e-05
2.91551e-05
2.91551e-05
2.91551e-05
2.78019e-05
2.9833e-05
2.90551e-05
2.88815e-05
2.78017e-05
2.98302e-05
2.90552e-05
8.36827e-05
8.36813e-05
2.78013e-05
2.9055e-05
2.9833e-05
2.88815e-05
2.78011e-05
2.90551e-05
2.98304e-05
3.31804e-05
3.31809e-05
2.85315e-05
3.3179e-05
3.31796e-05
3.02053e-05
6.79431e-05
3.02069e-05
6.79411e-05
8.36858e-05
8.36849e-05
3.02062e-05
6.79446e-05
3.02076e-05
6.79424e-05
2.91552e-05
2.91552e-05
2.91552e-05
2.9155e-05
2.91551e-05
2.91551e-05
2.91551e-05
2.78019e-05
2.9833e-05
2.90551e-05
2.88815e-05
2.78017e-05
2.98302e-05
2.90552e-05
8.36827e-05
8.36813e-05
2.78013e-05
2.9055e-05
2.9833e-05
2.88815e-05
2.78013e-05
2.90551e-05
2.98304e-05
3.31804e-05
3.31809e-05
2.85315e-05
3.3179e-05
3.31796e-05
3.02053e-05
6.79431e-05
3.02069e-05
6.79411e-05
8.36858e-05
8.36849e-05
3.02062e-05
6.79446e-05
3.02076e-05
6.79424e-05
2.91552e-05
2.91552e-05
2.91552e-05
2.91552e-05
2.91556e-05
2.91551e-05
2.91553e-05
2.78019e-05
2.9833e-05
2.90551e-05
2.88815e-05
2.78018e-05
2.98302e-05
2.90552e-05
8.36827e-05
8.36814e-05
2.78013e-05
2.9055e-05
2.9833e-05
2.88815e-05
2.78011e-05
2.90551e-05
2.98304e-05
3.31804e-05
3.31809e-05
2.85314e-05
3.3179e-05
3.31796e-05
6.79446e-05
3.02076e-05
2.91554e-05
8.36827e-05
2.98333e-05
8.3692e-05
8.3692e-05
3.31794e-05
3.31796e-05
6.79293e-05
3.02131e-05
6.79319e-05
3.02134e-05
2.98384e-05
2.90643e-05
2.78134e-05
2.98392e-05
2.90643e-05
2.78136e-05
8.36922e-05
3.31802e-05
3.31753e-05
8.36881e-05
6.79305e-05
3.02143e-05
2.98392e-05
2.90644e-05
2.78148e-05
3.02146e-05
6.79296e-05
6.79345e-05
3.02136e-05
2.78137e-05
2.88906e-05
2.90641e-05
2.98385e-05
2.90642e-05
2.98407e-05
2.78136e-05
2.78134e-05
2.98385e-05
2.90642e-05
2.90642e-05
2.78131e-05
3.02145e-05
6.79293e-05
3.02136e-05
2.78135e-05
2.88908e-05
2.90642e-05
2.98386e-05
2.90642e-05
2.98406e-05
2.78133e-05
3.02143e-05
6.79311e-05
6.79357e-05
3.02135e-05
8.36848e-05
8.36919e-05
2.85377e-05
3.31775e-05
3.31805e-05
3.31774e-05
3.318e-05
8.36884e-05
8.3695e-05
2.78132e-05
2.88909e-05
2.90641e-05
2.98386e-05
2.90641e-05
2.98407e-05
2.78129e-05
2.78134e-05
2.8891e-05
2.90642e-05
2.9839e-05
2.90642e-05
2.98411e-05
2.78133e-05
3.02144e-05
6.79315e-05
6.79361e-05
3.02135e-05
3.02143e-05
6.7933e-05
6.79376e-05
3.02134e-05
2.85379e-05
3.31806e-05
3.31812e-05
3.31801e-05
3.31807e-05
8.36884e-05
8.3695e-05
8.36884e-05
8.36951e-05
8.36915e-05
8.36853e-05
8.36915e-05
8.36852e-05
3.31814e-05
3.31816e-05
2.85418e-05
3.31824e-05
3.31825e-05
8.36814e-05
8.36855e-05
8.36813e-05
8.36855e-05
2.85395e-05
3.31857e-05
3.31859e-05
3.31846e-05
3.31847e-05
3.02144e-05
6.79332e-05
3.02158e-05
6.79306e-05
2.78136e-05
2.98417e-05
2.90643e-05
2.88909e-05
2.78137e-05
2.98396e-05
2.90643e-05
2.78138e-05
2.98425e-05
2.90643e-05
2.88908e-05
2.78139e-05
2.98404e-05
2.90642e-05
3.02161e-05
6.79266e-05
6.79289e-05
3.02146e-05
3.02164e-05
6.79294e-05
6.79318e-05
3.02148e-05
2.78141e-05
2.88908e-05
2.98402e-05
2.90642e-05
2.98427e-05
2.90642e-05
2.78139e-05
2.78142e-05
2.88908e-05
2.98411e-05
2.90641e-05
2.98436e-05
2.90642e-05
2.78141e-05
3.31822e-05
3.31775e-05
2.85418e-05
3.31831e-05
3.31785e-05
8.36884e-05
8.36817e-05
8.36816e-05
8.36857e-05
2.85395e-05
3.31865e-05
3.31826e-05
3.31853e-05
3.31816e-05
8.36777e-05
8.36824e-05
2.7815e-05
2.98427e-05
2.90644e-05
2.8891e-05
2.78153e-05
2.98404e-05
2.90644e-05
3.02141e-05
6.79309e-05
3.02155e-05
6.79283e-05
2.7814e-05
2.90644e-05
2.98419e-05
2.88908e-05
2.78142e-05
2.90643e-05
2.98395e-05
3.02168e-05
6.79279e-05
6.79303e-05
3.02157e-05
2.7815e-05
2.8891e-05
2.98411e-05
2.90643e-05
2.98437e-05
2.90643e-05
2.78148e-05
3.0216e-05
6.79274e-05
6.79297e-05
3.02152e-05
2.78145e-05
2.88908e-05
2.90643e-05
2.98402e-05
2.90643e-05
2.98428e-05
2.78143e-05
3.0214e-05
6.79309e-05
3.02157e-05
6.79281e-05
2.78138e-05
2.90644e-05
2.98418e-05
2.8891e-05
2.78139e-05
2.90644e-05
2.98395e-05
3.02142e-05
6.79323e-05
3.02157e-05
6.79298e-05
2.78137e-05
2.88913e-05
2.98405e-05
2.90643e-05
2.9843e-05
2.90644e-05
2.78135e-05
3.02161e-05
6.79271e-05
6.79295e-05
3.02149e-05
2.78143e-05
2.8891e-05
2.90643e-05
2.984e-05
2.90643e-05
2.98426e-05
2.7814e-05
3.02163e-05
6.79288e-05
6.7931e-05
3.02149e-05
3.31799e-05
3.31826e-05
2.85415e-05
3.31813e-05
3.31837e-05
8.36882e-05
8.36834e-05
8.36768e-05
8.36808e-05
2.85393e-05
3.31845e-05
3.31868e-05
3.31838e-05
3.31859e-05
8.36803e-05
8.36839e-05
2.78137e-05
2.90644e-05
2.98423e-05
2.88912e-05
2.78138e-05
2.90644e-05
2.984e-05
3.02139e-05
6.79327e-05
3.02156e-05
6.79302e-05
3.02138e-05
6.79341e-05
3.02152e-05
6.79317e-05
2.78136e-05
2.88909e-05
2.90641e-05
2.98401e-05
2.90642e-05
2.98427e-05
2.78133e-05
2.78141e-05
2.88911e-05
2.90643e-05
2.98405e-05
2.90643e-05
2.98431e-05
2.7814e-05
3.0216e-05
6.79293e-05
6.79314e-05
3.02148e-05
3.02158e-05
6.79308e-05
6.79329e-05
3.02149e-05
8.36882e-05
8.36834e-05
8.36882e-05
8.36834e-05
2.85395e-05
3.31869e-05
3.31875e-05
3.3186e-05
3.31866e-05
8.36804e-05
8.36839e-05
8.36804e-05
8.3684e-05
8.3682e-05
8.3679e-05
8.36819e-05
8.36789e-05
3.31878e-05
3.31879e-05
2.85418e-05
3.31885e-05
3.31886e-05
8.36779e-05
8.368e-05
8.36779e-05
8.368e-05
2.85396e-05
3.31906e-05
3.31907e-05
3.31904e-05
3.31905e-05
3.0216e-05
6.79307e-05
3.0217e-05
6.79286e-05
2.78144e-05
2.98433e-05
2.90642e-05
2.88909e-05
2.78145e-05
2.98406e-05
2.90642e-05
2.78145e-05
2.98442e-05
2.90641e-05
2.88909e-05
2.78146e-05
2.98414e-05
2.90641e-05
3.02181e-05
6.79253e-05
6.79272e-05
3.02169e-05
3.02183e-05
6.79281e-05
6.793e-05
3.02171e-05
2.78149e-05
2.88909e-05
2.9841e-05
2.90641e-05
2.98436e-05
2.90641e-05
2.78148e-05
2.7815e-05
2.88909e-05
2.98418e-05
2.9064e-05
2.98444e-05
2.9064e-05
2.78148e-05
3.31887e-05
3.31851e-05
2.85419e-05
3.31892e-05
3.31853e-05
8.36786e-05
8.36752e-05
8.36782e-05
8.36803e-05
2.85396e-05
3.31913e-05
3.31872e-05
3.31912e-05
3.31874e-05
8.36742e-05
8.36766e-05
2.78152e-05
2.98443e-05
2.90644e-05
2.88911e-05
2.78153e-05
2.98414e-05
2.90644e-05
3.02165e-05
6.79289e-05
3.02173e-05
6.79268e-05
2.78148e-05
2.90643e-05
2.98434e-05
2.88908e-05
2.78149e-05
2.90643e-05
2.98406e-05
3.02191e-05
6.79266e-05
6.79286e-05
3.02182e-05
2.78157e-05
2.88911e-05
2.98418e-05
2.90644e-05
2.98446e-05
2.90644e-05
2.78155e-05
3.02185e-05
6.79264e-05
6.79283e-05
3.02174e-05
2.78153e-05
2.88908e-05
2.90642e-05
2.98411e-05
2.90642e-05
2.98439e-05
2.78152e-05
3.02161e-05
6.79286e-05
3.02171e-05
6.79263e-05
2.78144e-05
2.90643e-05
2.9843e-05
2.8891e-05
2.78145e-05
2.90643e-05
2.98403e-05
3.0216e-05
6.79302e-05
3.02172e-05
6.79282e-05
2.78143e-05
2.88912e-05
2.98413e-05
2.90642e-05
2.98441e-05
2.90643e-05
2.78143e-05
3.02183e-05
6.79258e-05
6.79279e-05
3.0217e-05
2.78149e-05
2.8891e-05
2.90642e-05
2.98409e-05
2.90642e-05
2.98434e-05
2.78147e-05
3.02183e-05
6.79278e-05
6.79296e-05
3.02169e-05
3.31867e-05
3.31887e-05
2.85416e-05
3.31868e-05
3.31891e-05
8.36812e-05
8.36788e-05
8.36747e-05
8.36767e-05
2.85394e-05
3.31885e-05
3.31909e-05
3.31889e-05
3.31909e-05
8.36784e-05
8.36799e-05
2.78144e-05
2.90643e-05
2.98435e-05
2.88912e-05
2.78145e-05
2.90642e-05
2.98408e-05
3.0216e-05
6.79306e-05
3.02171e-05
6.79286e-05
3.02162e-05
6.79321e-05
3.0217e-05
6.79302e-05
2.78143e-05
2.88909e-05
2.90641e-05
2.98409e-05
2.90641e-05
2.98434e-05
2.78142e-05
2.78149e-05
2.88912e-05
2.90642e-05
2.98414e-05
2.90642e-05
2.98439e-05
2.78147e-05
3.02182e-05
6.79282e-05
6.793e-05
3.02169e-05
3.02182e-05
6.79297e-05
6.79315e-05
3.02171e-05
8.36812e-05
8.36788e-05
8.36813e-05
8.36789e-05
2.85398e-05
3.31909e-05
3.31916e-05
3.3191e-05
3.31916e-05
8.36784e-05
8.368e-05
8.36785e-05
8.368e-05
8.36793e-05
8.36782e-05
8.36793e-05
8.36782e-05
3.31923e-05
3.31924e-05
2.85421e-05
3.31921e-05
3.31922e-05
8.36794e-05
8.36797e-05
8.36794e-05
8.36797e-05
2.85399e-05
3.31924e-05
3.31925e-05
3.31937e-05
3.31938e-05
3.02178e-05
6.79295e-05
3.02193e-05
6.79278e-05
2.78153e-05
2.98441e-05
2.90642e-05
2.88911e-05
2.78153e-05
2.98416e-05
2.90642e-05
2.78153e-05
2.98449e-05
2.90642e-05
2.88911e-05
2.78154e-05
2.98424e-05
2.90642e-05
3.02197e-05
6.79253e-05
6.79266e-05
3.02177e-05
3.02199e-05
6.79279e-05
6.79293e-05
3.02179e-05
2.78157e-05
2.8891e-05
2.9842e-05
2.9064e-05
2.98447e-05
2.90641e-05
2.78149e-05
2.78157e-05
2.8891e-05
2.98427e-05
2.90641e-05
2.98455e-05
2.90641e-05
2.78151e-05
3.31931e-05
3.31892e-05
2.85421e-05
3.31928e-05
3.31886e-05
8.36759e-05
8.36745e-05
8.36796e-05
8.36799e-05
2.85398e-05
3.31931e-05
3.31889e-05
3.31945e-05
3.31905e-05
8.36758e-05
8.36763e-05
2.78158e-05
2.9845e-05
2.90644e-05
2.88913e-05
2.78161e-05
2.98424e-05
2.90644e-05
3.0218e-05
6.79281e-05
3.02194e-05
6.79263e-05
2.78156e-05
2.90642e-05
2.98444e-05
2.88907e-05
2.78157e-05
2.90641e-05
2.98416e-05
3.02206e-05
6.79265e-05
6.79279e-05
3.02186e-05
2.78156e-05
2.88912e-05
2.98428e-05
2.90642e-05
2.98457e-05
2.90643e-05
2.78148e-05
3.02198e-05
6.79276e-05
6.79281e-05
3.02176e-05
2.78155e-05
2.88906e-05
2.9064e-05
2.98416e-05
2.90641e-05
2.98448e-05
2.78145e-05
3.02175e-05
6.79274e-05
3.02191e-05
6.79256e-05
2.78149e-05
2.90642e-05
2.9844e-05
2.88909e-05
2.78153e-05
2.90642e-05
2.98415e-05
3.02174e-05
6.79293e-05
3.0219e-05
6.79277e-05
2.78151e-05
2.88911e-05
2.9842e-05
2.9064e-05
2.9845e-05
2.90641e-05
2.78144e-05
3.02195e-05
6.79254e-05
6.79272e-05
3.02171e-05
2.78147e-05
2.88908e-05
2.9064e-05
2.98416e-05
2.90641e-05
2.98446e-05
2.7814e-05
3.02193e-05
6.79288e-05
6.79292e-05
3.02168e-05
3.31904e-05
3.31925e-05
2.85417e-05
3.31895e-05
3.3192e-05
8.36799e-05
8.36788e-05
8.36779e-05
8.36774e-05
2.85395e-05
3.3189e-05
3.31915e-05
3.3191e-05
3.31933e-05
8.36815e-05
8.36806e-05
2.7815e-05
2.90641e-05
2.98445e-05
2.8891e-05
2.78153e-05
2.90641e-05
2.9842e-05
3.02174e-05
6.79297e-05
3.0219e-05
6.7928e-05
3.02176e-05
6.79312e-05
3.0219e-05
6.79296e-05
2.78148e-05
2.88907e-05
2.90638e-05
2.98416e-05
2.90639e-05
2.98445e-05
2.78139e-05
2.78148e-05
2.88909e-05
2.90639e-05
2.98421e-05
2.9064e-05
2.98451e-05
2.78139e-05
3.02194e-05
6.79291e-05
6.79296e-05
3.02169e-05
3.02193e-05
6.79307e-05
6.79311e-05
3.0217e-05
8.36799e-05
8.36788e-05
8.368e-05
8.36789e-05
2.85398e-05
3.31916e-05
3.31922e-05
3.31934e-05
3.3194e-05
8.36815e-05
8.36806e-05
8.36816e-05
8.36807e-05
8.36816e-05
8.36832e-05
8.36817e-05
8.36832e-05
3.31935e-05
3.31936e-05
2.85413e-05
3.31915e-05
3.31915e-05
8.36857e-05
8.36853e-05
8.36855e-05
8.36853e-05
2.85385e-05
3.31897e-05
3.31898e-05
3.31925e-05
3.31926e-05
3.02169e-05
6.79298e-05
3.02197e-05
6.79308e-05
2.78139e-05
2.98449e-05
2.90639e-05
2.88905e-05
2.78146e-05
2.98416e-05
2.90637e-05
2.78139e-05
2.98456e-05
2.90639e-05
2.88904e-05
2.78148e-05
2.98423e-05
2.90637e-05
3.02184e-05
6.79377e-05
6.79315e-05
3.02145e-05
3.02186e-05
6.79396e-05
6.79336e-05
3.02146e-05
2.78136e-05
2.88898e-05
2.98392e-05
2.90616e-05
2.98443e-05
2.90632e-05
2.78105e-05
2.78137e-05
2.88897e-05
2.98399e-05
2.90615e-05
2.9845e-05
2.90631e-05
2.78105e-05
3.31943e-05
3.31902e-05
2.85412e-05
3.31921e-05
3.31878e-05
8.36786e-05
8.368e-05
8.36858e-05
8.36854e-05
2.85384e-05
3.31902e-05
3.31859e-05
3.31932e-05
3.31892e-05
8.36818e-05
8.36824e-05
2.7814e-05
2.98459e-05
2.9064e-05
2.88907e-05
2.78147e-05
2.98424e-05
2.90637e-05
3.02164e-05
6.79301e-05
3.02192e-05
6.79326e-05
2.78134e-05
2.90638e-05
2.98447e-05
2.88897e-05
2.78143e-05
2.90633e-05
2.98405e-05
3.02187e-05
6.79389e-05
6.7933e-05
3.02144e-05
2.78136e-05
2.889e-05
2.984e-05
2.9061e-05
2.98453e-05
2.9063e-05
2.78093e-05
3.02178e-05
6.79415e-05
6.79373e-05
3.0213e-05
2.78128e-05
2.88881e-05
2.90597e-05
2.98367e-05
2.9062e-05
2.98431e-05
2.78077e-05
3.02158e-05
6.79273e-05
3.02188e-05
6.79282e-05
2.78129e-05
2.90638e-05
2.98444e-05
2.88899e-05
2.78139e-05
2.90633e-05
2.98403e-05
3.02154e-05
6.7931e-05
3.02185e-05
6.79338e-05
2.78122e-05
2.88898e-05
2.98384e-05
2.90601e-05
2.9844e-05
2.90623e-05
2.78066e-05
3.02173e-05
6.79372e-05
6.79316e-05
3.02122e-05
2.7812e-05
2.88882e-05
2.90594e-05
2.98365e-05
2.90617e-05
2.98427e-05
2.78061e-05
3.0217e-05
6.79428e-05
6.79384e-05
3.02119e-05
3.31903e-05
3.31926e-05
2.854e-05
3.31878e-05
3.31904e-05
8.36837e-05
8.36849e-05
8.36824e-05
8.36837e-05
2.85366e-05
3.31842e-05
3.31869e-05
3.31889e-05
3.31912e-05
8.36857e-05
8.36867e-05
2.78128e-05
2.90637e-05
2.98449e-05
2.889e-05
2.78137e-05
2.90632e-05
2.98408e-05
3.02155e-05
6.79313e-05
3.02186e-05
6.79342e-05
3.02156e-05
6.79329e-05
3.02185e-05
6.79357e-05
2.78118e-05
2.88883e-05
2.90592e-05
2.98366e-05
2.90615e-05
2.98428e-05
2.7806e-05
2.78119e-05
2.88883e-05
2.90591e-05
2.9837e-05
2.90615e-05
2.98432e-05
2.7806e-05
3.0217e-05
6.79434e-05
6.79389e-05
3.02119e-05
3.02168e-05
6.79449e-05
6.79405e-05
3.02118e-05
8.36837e-05
8.36849e-05
8.36838e-05
8.3685e-05
2.85369e-05
3.31869e-05
3.31876e-05
3.31913e-05
3.3192e-05
8.36859e-05
8.36867e-05
8.36859e-05
8.36868e-05
8.36871e-05
8.36854e-05
8.36869e-05
8.36853e-05
3.31901e-05
3.31902e-05
2.85333e-05
3.31834e-05
3.31836e-05
8.36849e-05
8.36866e-05
8.36848e-05
8.36865e-05
2.85301e-05
3.31799e-05
3.318e-05
3.31833e-05
3.31835e-05
3.02097e-05
6.79439e-05
3.02156e-05
6.79441e-05
2.7803e-05
2.98411e-05
2.90592e-05
2.88835e-05
2.78087e-05
2.98345e-05
2.90573e-05
2.78031e-05
2.98419e-05
2.90591e-05
2.88835e-05
2.78087e-05
2.98352e-05
2.90573e-05
3.02102e-05
6.79416e-05
6.79433e-05
3.02062e-05
3.02105e-05
6.7944e-05
6.79457e-05
3.02066e-05
2.78027e-05
2.88821e-05
2.98316e-05
2.90553e-05
2.98365e-05
2.90559e-05
2.7802e-05
2.78028e-05
2.8882e-05
2.98324e-05
2.90553e-05
2.98373e-05
2.90559e-05
2.78022e-05
3.31908e-05
3.31868e-05
2.85333e-05
3.31842e-05
3.31803e-05
8.36835e-05
8.36816e-05
8.3685e-05
8.36868e-05
2.853e-05
3.31804e-05
3.31757e-05
3.31843e-05
3.31808e-05
8.36811e-05
8.36831e-05
2.78029e-05
2.98421e-05
2.90587e-05
2.88836e-05
2.78074e-05
2.98353e-05
2.9057e-05
3.02082e-05
6.79437e-05
3.02134e-05
6.79424e-05
2.78024e-05
2.90576e-05
2.98387e-05
2.88821e-05
2.78058e-05
2.90563e-05
2.98326e-05
3.02103e-05
6.79429e-05
6.79447e-05
3.0207e-05
2.78029e-05
2.88822e-05
2.98324e-05
2.90552e-05
2.98374e-05
2.90558e-05
2.78024e-05
3.02093e-05
6.79421e-05
6.7944e-05
3.02063e-05
2.78026e-05
2.88813e-05
2.90551e-05
2.98308e-05
2.90553e-05
2.98351e-05
2.78022e-05
3.02076e-05
6.79416e-05
3.02129e-05
6.79418e-05
2.78021e-05
2.90574e-05
2.98383e-05
2.88823e-05
2.78045e-05
2.90562e-05
2.98325e-05
3.02074e-05
6.79448e-05
3.02126e-05
6.79437e-05
2.78025e-05
2.88821e-05
2.98312e-05
2.90551e-05
2.98362e-05
2.90556e-05
2.78018e-05
3.02089e-05
6.79417e-05
6.79435e-05
3.02059e-05
2.78024e-05
2.88814e-05
2.90551e-05
2.98309e-05
2.90553e-05
2.98349e-05
2.78019e-05
3.02087e-05
6.79434e-05
6.79451e-05
3.02057e-05
3.31845e-05
3.31866e-05
2.85318e-05
3.3178e-05
3.31808e-05
8.36869e-05
8.36852e-05
8.36815e-05
8.36835e-05
2.85291e-05
3.31762e-05
3.31793e-05
3.31788e-05
3.31815e-05
8.36849e-05
8.36864e-05
2.78021e-05
2.90572e-05
2.98388e-05
2.88824e-05
2.78044e-05
2.9056e-05
2.9833e-05
3.02074e-05
6.79454e-05
3.02126e-05
6.79442e-05
3.02075e-05
6.79469e-05
3.02123e-05
6.79458e-05
2.78023e-05
2.88816e-05
2.90551e-05
2.98309e-05
2.90553e-05
2.98349e-05
2.78017e-05
2.78024e-05
2.88816e-05
2.90551e-05
2.98314e-05
2.90553e-05
2.98354e-05
2.78019e-05
3.02088e-05
6.79438e-05
6.79456e-05
3.02058e-05
3.02086e-05
6.79454e-05
6.79472e-05
3.02059e-05
8.36871e-05
8.36853e-05
8.36871e-05
8.36853e-05
2.85295e-05
3.31794e-05
3.318e-05
3.31816e-05
3.31822e-05
8.3685e-05
8.36866e-05
8.3685e-05
8.36865e-05
8.36862e-05
8.36847e-05
8.36861e-05
8.36847e-05
3.31809e-05
3.31811e-05
2.85314e-05
3.31792e-05
3.31793e-05
8.36846e-05
8.3686e-05
8.36846e-05
8.3686e-05
2.85292e-05
3.3179e-05
3.31792e-05
3.31804e-05
3.31806e-05
3.02057e-05
6.79454e-05
3.02082e-05
6.79438e-05
2.78019e-05
2.98342e-05
2.90552e-05
2.88814e-05
2.78023e-05
2.98307e-05
2.90552e-05
2.78022e-05
2.9835e-05
2.90552e-05
2.88813e-05
2.78024e-05
2.98315e-05
2.90552e-05
3.02074e-05
6.79411e-05
6.79427e-05
3.02053e-05
3.02077e-05
6.79437e-05
6.79452e-05
3.02056e-05
2.78022e-05
2.88812e-05
2.98305e-05
2.90551e-05
2.98336e-05
2.90551e-05
2.78019e-05
2.78024e-05
2.88812e-05
2.98313e-05
2.90551e-05
2.98344e-05
2.90551e-05
2.78021e-05
3.31815e-05
3.3177e-05
2.85313e-05
3.31797e-05
3.3175e-05
8.36828e-05
8.3681e-05
8.36848e-05
8.36862e-05
2.85291e-05
3.31796e-05
3.31749e-05
3.31811e-05
3.31765e-05
8.3681e-05
8.36827e-05
2.78023e-05
2.98352e-05
2.90552e-05
2.88815e-05
2.78026e-05
2.98315e-05
2.90552e-05
3.02058e-05
6.79437e-05
3.02079e-05
6.79419e-05
2.78022e-05
2.90551e-05
2.98338e-05
2.88811e-05
2.78025e-05
2.90551e-05
2.98304e-05
3.0208e-05
6.79425e-05
6.79442e-05
3.02062e-05
2.78026e-05
2.88814e-05
2.98313e-05
2.90551e-05
2.98346e-05
2.90551e-05
2.78022e-05
3.02076e-05
6.79418e-05
6.79435e-05
3.02057e-05
2.78025e-05
2.88811e-05
2.9055e-05
2.98303e-05
2.90551e-05
2.98335e-05
2.78021e-05
3.02055e-05
6.79433e-05
3.02077e-05
6.79415e-05
2.78019e-05
2.90552e-05
2.98337e-05
2.88813e-05
2.78022e-05
2.90552e-05
2.98305e-05
3.02053e-05
6.79448e-05
3.02075e-05
6.79432e-05
2.78025e-05
2.88815e-05
2.98302e-05
2.90551e-05
2.98334e-05
2.90552e-05
2.78019e-05
3.02074e-05
6.79414e-05
6.79431e-05
3.02054e-05
2.78022e-05
2.88813e-05
2.90551e-05
2.98304e-05
2.90551e-05
2.98334e-05
2.78019e-05
3.02073e-05
6.79432e-05
6.79447e-05
3.02053e-05
3.31776e-05
3.31805e-05
2.85312e-05
3.31759e-05
3.3179e-05
8.36862e-05
8.36848e-05
8.36813e-05
8.36831e-05
2.8529e-05
3.31759e-05
3.3179e-05
3.31774e-05
3.31803e-05
8.36848e-05
8.36862e-05
2.7802e-05
2.90552e-05
2.98342e-05
2.88815e-05
2.78022e-05