/*--------------------------------*- C++ -*----------------------------------*\
| =========                 |                                                 |
| \\      /  F ield         | OpenFOAM: The Open Source CFD Toolbox           |
|  \\    /   O peration     | Version:  2206                                  |
|   \\  /    A nd           | Website:  www.openfoam.com                      |
|    \\/     M anipulation  |                                                 |
\*---------------------------------------------------------------------------*/
FoamFile
{
    version     2.0;
    format      ascii;
    arch        "LSB;label=32;scalar=64";
    class       volScalarField;
    location    "19.5";
    object      nut;
}
// * * * * * * * * * * * * * * * * * * * * * * * * * * * * * * * * * * * * * //

dimensions      [0 2 -1 0 0 0 0];

internalField   nonuniform List<scalar> 
28448
(
0.000226694
0.000210164
0.000210156
0.000190394
0.000226693
0.000210163
0.000210152
0.000190392
0.000226693
0.000210161
0.000210152
0.000190391
0.000226692
0.000210157
0.000210149
0.000190382
0.000226665
0.000210113
0.000210102
0.000190308
0.000226673
0.000210109
0.000210104
0.000190318
0.000226675
0.00021011
0.000210104
0.00019031
0.000226675
0.000210111
0.000210105
0.000190314
0.000226675
0.000210111
0.000210105
0.000190313
0.000226675
0.000210111
0.000210105
0.000190312
0.000226675
0.000210111
0.000210105
0.000190312
0.000226675
0.000210111
0.000210105
0.000190313
0.000226675
0.000210111
0.000210105
0.000190313
0.000226675
0.000210111
0.000210105
0.000190313
0.000226675
0.000210111
0.000210105
0.000190313
0.000226675
0.000210111
0.000210105
0.000190313
0.000226675
0.000210111
0.000210105
0.000190313
0.000226677
0.000210107
0.000190543
0.000210151
0.000210148
0.000190546
0.000210159
0.000210141
0.000210164
0.000210149
0.000190533
0.000210156
0.000210157
0.000190537
0.000190401
0.000190536
0.000210151
0.000210148
0.00021015
0.000210148
0.000190404
0.00019054
0.000210159
0.000210142
0.000210159
0.000210141
0.00021015
0.000210164
0.000210149
0.000190392
0.000190529
0.000210159
0.000210153
0.000210158
0.000190534
0.000190396
0.000190534
0.00021015
0.000210147
0.00021015
0.000210147
0.0001904
0.000190538
0.000210158
0.000210141
0.000210158
0.000210139
0.000210148
0.000210161
0.000210147
0.000190389
0.000190528
0.000210157
0.000210152
0.000210156
0.000190533
0.000190395
0.000190534
0.000210151
0.000210148
0.000210148
0.000210146
0.000190398
0.000190536
0.000210159
0.000210137
0.000210158
0.000210137
0.000210146
0.000210159
0.000210145
0.000190388
0.000190524
0.000210155
0.000210151
0.000210153
0.000190529
0.000190393
0.000190489
0.000210147
0.000210144
0.00021012
0.000210117
0.000190394
0.000190492
0.000210156
0.000210134
0.000210127
0.000210095
0.000210142
0.000210128
0.000210103
0.000190382
0.000190462
0.000210151
0.000210111
0.000210111
0.000190465
0.00019033
0.000190458
0.000210104
0.000210101
0.000210095
0.000210092
0.000190333
0.000190462
0.000210112
0.000210087
0.000210103
0.000210087
0.000210094
0.000210107
0.000210095
0.000190308
0.000190455
0.000210103
0.000210103
0.000210104
0.00019046
0.000190321
0.000190458
0.000210098
0.000210096
0.000210098
0.000210096
0.000190324
0.000190462
0.000210107
0.000210089
0.000210107
0.000210089
0.000210097
0.00021011
0.000210097
0.000190316
0.000190449
0.000210106
0.000210105
0.000210106
0.000190453
0.000190317
0.000190456
0.000210098
0.000210096
0.000210099
0.000210096
0.00019032
0.00019046
0.000210107
0.000210089
0.000210107
0.00021009
0.000210097
0.000210111
0.000210098
0.000190308
0.000190452
0.000210106
0.000210106
0.000210106
0.000190457
0.000190318
0.000190456
0.000210099
0.000210097
0.000210099
0.000210097
0.000190321
0.000190459
0.000210108
0.00021009
0.000210107
0.00021009
0.000210098
0.000210111
0.000210098
0.000190312
0.00019045
0.000210107
0.000210106
0.000210106
0.000190455
0.000190315
0.000190458
0.000210099
0.000210097
0.000210099
0.000210097
0.000190318
0.000190461
0.000210108
0.00021009
0.000210107
0.00021009
0.000210098
0.000210111
0.000210098
0.00019031
0.000190451
0.000210107
0.000210106
0.000210107
0.000190455
0.000190317
0.000190458
0.000210099
0.000210097
0.000210099
0.000210097
0.00019032
0.000190461
0.000210108
0.00021009
0.000210107
0.00021009
0.000210098
0.000210111
0.000210098
0.00019031
0.000190451
0.000210107
0.000210106
0.000210107
0.000190455
0.000190317
0.000190458
0.000210099
0.000210097
0.000210099
0.000210097
0.00019032
0.000190461
0.000210108
0.00021009
0.000210107
0.00021009
0.000210098
0.000210111
0.000210098
0.000190311
0.000190451
0.000210107
0.000210106
0.000210107
0.000190455
0.000190317
0.000190458
0.000210099
0.000210097
0.000210099
0.000210097
0.000190321
0.000190461
0.000210108
0.00021009
0.000210107
0.00021009
0.000210098
0.000210111
0.000210098
0.000190311
0.000190451
0.000210107
0.000210106
0.000210107
0.000190455
0.000190318
0.000190458
0.000210099
0.000210097
0.000210099
0.000210097
0.00019032
0.000190461
0.000210108
0.00021009
0.000210107
0.00021009
0.000210098
0.000210111
0.000210098
0.000190311
0.000190452
0.000210107
0.000210106
0.000210107
0.000190455
0.000190318
0.000190458
0.000210099
0.000210097
0.000210099
0.000210097
0.000190321
0.000190461
0.000210108
0.00021009
0.000210107
0.00021009
0.000210098
0.000210111
0.000210098
0.000190311
0.000190451
0.000210107
0.000210106
0.000210106
0.000190455
0.000190317
0.000190458
0.000210099
0.000210097
0.000210099
0.000210097
0.000190321
0.000190461
0.000210108
0.00021009
0.000210107
0.00021009
0.000210098
0.000210111
0.000210098
0.000190311
0.000190451
0.000210107
0.000210106
0.000210106
0.000190455
0.000190318
0.000190458
0.000210099
0.000210097
0.000210099
0.000210097
0.000190321
0.000190461
0.000210108
0.00021009
0.000210107
0.00021009
0.000210098
0.000210111
0.000210098
0.000190311
0.000190452
0.000210107
0.000210106
0.000210106
0.000190455
0.000190318
0.000190458
0.000210099
0.000210097
0.0002101
0.000190321
0.000210108
0.00021009
0.000210107
0.00021009
0.000210098
0.000210099
0.000190311
0.000190451
0.000210107
0.000210105
0.000210108
0.000190459
0.000190323
0.000210108
0.000210091
0.000190311
0.000226694
0.000226694
0.000226692
0.000226693
4.98172e-05
4.88163e-05
4.98089e-05
4.88152e-05
2.58997e-05
2.58987e-05
4.98228e-05
4.8812e-05
4.9817e-05
4.88109e-05
0.000226694
0.000226692
0.000226693
0.000226693
0.000226694
0.000226692
0.000226692
0.000119161
6.06515e-05
0.000221197
0.000210165
0.000119135
6.06704e-05
0.000221197
2.58966e-05
2.58958e-05
0.000119154
0.000221194
6.06526e-05
0.000210155
0.000119128
0.000221193
6.06707e-05
3.6088e-05
3.60815e-05
0.000190535
3.60961e-05
3.60896e-05
4.98214e-05
4.88154e-05
4.98089e-05
4.88145e-05
2.58982e-05
2.58978e-05
4.98297e-05
4.88111e-05
4.98176e-05
4.88102e-05
0.000226692
0.000226692
0.000226694
0.000226693
0.000226693
0.00022669
0.000226693
0.000119161
6.06544e-05
0.000221196
0.000210161
0.000119133
6.06722e-05
0.000221194
2.58954e-05
2.5895e-05
0.000119155
0.000221192
6.06545e-05
0.000210152
0.000119125
0.000221191
6.0672e-05
3.60999e-05
3.60934e-05
0.000190533
3.6106e-05
3.60994e-05
4.98283e-05
4.8815e-05
4.98176e-05
4.88142e-05
2.58977e-05
2.58976e-05
4.98364e-05
4.88107e-05
4.98268e-05
4.88099e-05
0.000226696
0.00022669
0.000226693
0.000226693
0.000226693
0.00022669
0.000226691
0.000119168
6.06559e-05
0.000221195
0.00021016
0.000119138
6.06752e-05
0.000221195
2.58952e-05
2.5895e-05
0.00011916
0.000221192
6.06579e-05
0.000210152
0.00011913
0.000221192
6.06767e-05
3.6107e-05
3.61005e-05
0.000190532
3.61117e-05
3.61051e-05
4.98221e-05
4.88152e-05
4.98197e-05
4.88154e-05
2.58981e-05
2.58984e-05
4.98276e-05
4.88108e-05
4.98272e-05
4.8811e-05
0.000226692
0.000226688
0.00022669
0.000226673
0.000226672
0.000226664
0.000226665
0.00011915
6.06574e-05
0.000221193
0.000210154
0.000119135
6.06681e-05
0.000221189
2.58958e-05
2.5896e-05
0.00011914
0.00022119
6.06563e-05
0.000210144
0.000119126
0.000221185
6.06632e-05
3.61063e-05
3.60997e-05
0.00019051
3.61047e-05
3.60981e-05
4.97881e-05
4.88202e-05
4.97909e-05
4.88202e-05
2.58989e-05
2.58987e-05
4.97936e-05
4.88159e-05
4.97958e-05
4.88158e-05
0.000226665
0.000226663
0.000226664
0.00022667
0.000226671
0.000226671
0.000226672
0.000119073
6.06272e-05
0.000221157
0.000210107
0.000119058
6.06333e-05
0.000221157
2.58963e-05
2.58961e-05
0.000119067
0.000221153
6.06229e-05
0.0002101
0.000119047
0.000221154
6.06318e-05
3.60907e-05
3.60844e-05
0.000190453
3.60869e-05
3.60803e-05
4.97803e-05
4.88208e-05
4.97721e-05
4.882e-05
2.58988e-05
2.58986e-05
4.97878e-05
4.88165e-05
4.97802e-05
4.88157e-05
0.000226674
0.000226673
0.000226674
0.000226675
0.000226675
0.000226673
0.000226674
0.000119076
6.06077e-05
0.000221163
0.00021011
0.000119047
6.06243e-05
0.000221163
2.58962e-05
2.5896e-05
0.000119069
0.000221161
6.06106e-05
0.000210105
0.00011904
0.000221162
6.06272e-05
3.60818e-05
3.60753e-05
0.000190458
3.60847e-05
3.60782e-05
4.97801e-05
4.88207e-05
4.97712e-05
4.88199e-05
2.58988e-05
2.58986e-05
4.97876e-05
4.88164e-05
4.97795e-05
4.88156e-05
0.000226675
0.000226673
0.000226674
0.000226675
0.000226675
0.000226673
0.000226674
0.000119075
6.06062e-05
0.000221163
0.000210111
0.000119047
6.06239e-05
0.000221164
2.58962e-05
2.5896e-05
0.000119068
0.000221161
6.061e-05
0.000210105
0.00011904
0.000221162
6.0627e-05
3.60816e-05
3.60751e-05
0.000190453
3.60847e-05
3.60781e-05
4.97801e-05
4.88206e-05
4.97712e-05
4.88199e-05
2.58988e-05
2.58986e-05
4.97877e-05
4.88164e-05
4.97795e-05
4.88156e-05
0.000226676
0.000226674
0.000226674
0.000226675
0.000226675
0.000226673
0.000226674
0.000119075
6.06062e-05
0.000221163
0.000210111
0.000119047
6.06239e-05
0.000221163
2.58962e-05
2.5896e-05
0.00011907
0.000221162
6.061e-05
0.000210106
0.000119041
0.000221162
6.0627e-05
3.60817e-05
3.60751e-05
0.000190455
3.60847e-05
3.60781e-05
4.97801e-05
4.88206e-05
4.97712e-05
4.88199e-05
2.58988e-05
2.58986e-05
4.97877e-05
4.88164e-05
4.97795e-05
4.88156e-05
0.000226676
0.000226674
0.000226674
0.000226675
0.000226675
0.000226673
0.000226674
0.000119075
6.06062e-05
0.000221163
0.000210111
0.000119047
6.06239e-05
0.000221164
2.58962e-05
2.5896e-05
0.000119069
0.000221162
6.06099e-05
0.000210106
0.000119042
0.000221162
6.0627e-05
3.60817e-05
3.60751e-05
0.000190456
3.60847e-05
3.60781e-05
4.97801e-05
4.88206e-05
4.97712e-05
4.88199e-05
2.58988e-05
2.58986e-05
4.97877e-05
4.88164e-05
4.97795e-05
4.88156e-05
0.000226676
0.000226674
0.000226674
0.000226675
0.000226675
0.000226673
0.000226674
0.000119075
6.06062e-05
0.000221163
0.000210111
0.000119047
6.06239e-05
0.000221164
2.58962e-05
2.5896e-05
0.000119067
0.000221162
6.06099e-05
0.000210106
0.00011904
0.000221162
6.0627e-05
3.60817e-05
3.60751e-05
0.000190456
3.60847e-05
3.60781e-05
4.97801e-05
4.88206e-05
4.97712e-05
4.88199e-05
2.58988e-05
2.58986e-05
4.97877e-05
4.88164e-05
4.97795e-05
4.88156e-05
0.000226676
0.000226674
0.000226674
0.000226675
0.000226675
0.000226673
0.000226674
0.000119076
6.06062e-05
0.000221164
0.000210111
0.000119047
6.06239e-05
0.000221164
2.58962e-05
2.5896e-05
0.000119065
0.000221162
6.06099e-05
0.000210106
0.000119038
0.000221162
6.0627e-05
3.60817e-05
3.60751e-05
0.000190455
3.60847e-05
3.60781e-05
4.97801e-05
4.88206e-05
4.97712e-05
4.88199e-05
2.58988e-05
2.58986e-05
4.97876e-05
4.88164e-05
4.97795e-05
4.88156e-05
0.000226676
0.000226673
0.000226674
0.000226675
0.000226675
0.000226673
0.000226674
0.000119075
6.06062e-05
0.000221163
0.000210111
0.000119048
6.06239e-05
0.000221164
2.58962e-05
2.5896e-05
0.000119063
0.000221162
6.06099e-05
0.000210106
0.000119036
0.000221162
6.0627e-05
3.60817e-05
3.60751e-05
0.000190455
3.60847e-05
3.60781e-05
4.97801e-05
4.88206e-05
4.97712e-05
4.88199e-05
2.58988e-05
2.58986e-05
4.97877e-05
4.88164e-05
4.97795e-05
4.88156e-05
0.000226676
0.000226673
0.000226674
0.000226675
0.000226675
0.000226673
0.000226674
0.000119075
6.06062e-05
0.000221164
0.000210111
0.000119047
6.06239e-05
0.000221164
2.58962e-05
2.5896e-05
0.000119063
0.000221162
6.06099e-05
0.000210106
0.000119035
0.000221162
6.0627e-05
3.60817e-05
3.60751e-05
0.000190455
3.60847e-05
3.60781e-05
4.97801e-05
4.88206e-05
4.97712e-05
4.88199e-05
2.58988e-05
2.58986e-05
4.97876e-05
4.88164e-05
4.97795e-05
4.88156e-05
0.000226676
0.000226673
0.000226674
0.000226675
0.000226675
0.000226673
0.000226674
0.000119075
6.06062e-05
0.000221164
0.000210111
0.000119047
6.06239e-05
0.000221164
2.58962e-05
2.5896e-05
0.000119062
0.000221162
6.06099e-05
0.000210106
0.000119034
0.000221162
6.0627e-05
3.60817e-05
3.60751e-05
0.000190455
3.60847e-05
3.60781e-05
4.97801e-05
4.88206e-05
4.97712e-05
4.88199e-05
2.58988e-05
2.58986e-05
4.97876e-05
4.88164e-05
4.97795e-05
4.88156e-05
0.000226676
0.000226673
0.000226674
0.000226675
0.000226675
0.000226673
0.000226674
0.000119075
6.06062e-05
0.000221163
0.000210111
0.000119047
6.06239e-05
0.000221164
2.58962e-05
2.5896e-05
0.000119062
0.000221162
6.06099e-05
0.000210106
0.000119034
0.000221162
6.0627e-05
3.60817e-05
3.60751e-05
0.000190455
3.60847e-05
3.60781e-05
4.97801e-05
4.88206e-05
4.97712e-05
4.88199e-05
2.58988e-05
2.58986e-05
4.97877e-05
4.88164e-05
4.97795e-05
4.88156e-05
0.000226676
0.000226673
0.000226674
0.000226675
0.000226675
0.000226673
0.000226674
0.000119075
6.06062e-05
0.000221163
0.000210111
0.000119047
6.06239e-05
0.000221164
2.58962e-05
2.5896e-05
0.000119063
0.000221161
6.06099e-05
0.000210106
0.000119036
0.000221162
6.0627e-05
3.60817e-05
3.60751e-05
0.000190455
3.60847e-05
3.60781e-05
4.97801e-05
4.88206e-05
4.97712e-05
4.88199e-05
2.58988e-05
2.58986e-05
4.97877e-05
4.88164e-05
4.97795e-05
4.88156e-05
0.000226676
0.000226673
0.000226674
0.000226675
0.000226678
0.000226673
0.000226675
0.000119075
6.06062e-05
0.000221164
0.000210111
0.000119047
6.06239e-05
0.000221164
2.58962e-05
2.5896e-05
0.000119062
0.000221161
6.06099e-05
0.000210106
0.000119034
0.000221162
6.0627e-05
3.60817e-05
3.60751e-05
0.000190455
3.60848e-05
3.60781e-05
4.88164e-05
4.97795e-05
0.000226675
2.58962e-05
6.06113e-05
2.59008e-05
2.58989e-05
3.60893e-05
3.60818e-05
4.88157e-05
4.98175e-05
4.88155e-05
4.98183e-05
6.06735e-05
0.000221196
0.000119167
6.06704e-05
0.000221196
0.000119169
2.58998e-05
3.60852e-05
3.6081e-05
2.59003e-05
4.88114e-05
4.98256e-05
6.06629e-05
0.000221197
0.000119176
4.9814e-05
4.88089e-05
4.88107e-05
4.982e-05
0.000119143
0.000210141
0.000221193
6.06548e-05
0.000221193
6.06381e-05
0.000119166
0.00011914
6.0669e-05
0.000221197
0.000221197
0.000119163
4.98062e-05
4.8814e-05
4.98161e-05
0.00011914
0.000210149
0.000221195
6.06687e-05
0.000221195
6.06527e-05
0.000119164
4.98058e-05
4.88122e-05
4.88139e-05
4.98161e-05
2.58965e-05
2.58976e-05
0.000190379
3.60733e-05
3.60896e-05
3.60697e-05
3.60842e-05
2.58991e-05
2.59001e-05
0.000119133
0.000210157
0.000221194
6.06693e-05
0.000221195
6.06534e-05
0.000119156
0.000119141
0.000210158
0.000221194
6.06648e-05
0.000221194
6.06485e-05
0.000119164
4.9805e-05
4.8812e-05
4.88136e-05
4.9815e-05
4.98131e-05
4.88118e-05
4.88134e-05
4.98189e-05
0.000190384
3.60897e-05
3.60831e-05
3.6084e-05
3.60779e-05
2.58989e-05
2.58999e-05
2.58979e-05
2.5899e-05
2.59007e-05
2.58998e-05
2.58988e-05
2.58979e-05
3.60875e-05
3.60799e-05
0.000190537
3.60945e-05
3.60866e-05
2.58992e-05
2.58998e-05
2.58973e-05
2.58979e-05
0.000190397
3.6101e-05
3.6093e-05
3.60938e-05
3.60858e-05
4.98177e-05
4.88159e-05
4.98112e-05
4.8815e-05
0.000119166
6.06588e-05
0.000221196
0.000210151
0.000119142
6.06747e-05
0.000221196
0.000119167
6.06554e-05
0.000221196
0.000210149
0.000119143
6.06716e-05
0.000221196
4.98095e-05
4.88148e-05
4.88156e-05
4.9817e-05
4.98099e-05
4.88146e-05
4.88154e-05
4.98174e-05
0.000119142
0.000210151
6.06756e-05
0.000221196
6.06601e-05
0.000221196
0.000119165
0.000119143
0.000210148
6.06726e-05
0.000221195
6.06566e-05
0.000221196
0.000119166
3.60825e-05
3.60771e-05
0.00019054
3.60884e-05
3.60847e-05
2.59004e-05
2.58993e-05
2.58981e-05
2.58988e-05
0.0001904
3.60949e-05
3.60929e-05
3.60875e-05
3.60848e-05
2.58987e-05
2.58994e-05
0.000119174
6.06473e-05
0.000221197
0.000210159
0.000119153
6.06641e-05
0.000221196
4.98186e-05
4.88094e-05
4.98128e-05
4.88084e-05
0.000119166
0.000221193
6.06393e-05
0.000210142
0.000119143
0.000221193
6.06566e-05
4.98161e-05
4.88104e-05
4.88113e-05
4.98245e-05
0.000119146
0.000210159
6.06652e-05
0.000221195
6.06486e-05
0.000221196
0.000119169
4.98128e-05
4.88081e-05
4.88089e-05
4.98227e-05
0.000119142
0.000210142
0.000221193
6.06581e-05
0.000221193
6.06412e-05
0.000119166
4.98145e-05
4.88145e-05
4.98085e-05
4.88135e-05
0.000119164
0.000221196
6.06539e-05
0.00021015
0.000119141
0.000221196
6.06702e-05
4.98158e-05
4.88126e-05
4.98089e-05
4.88117e-05
0.000119137
0.000210164
6.06719e-05
0.000221197
6.06552e-05
0.000221197
0.00011916
4.98073e-05
4.88132e-05
4.8814e-05
4.9817e-05
0.000119141
0.00021015
0.000221195
6.06708e-05
0.000221196
6.06553e-05
0.000119163
4.98086e-05
4.88114e-05
4.88122e-05
4.98175e-05
3.60712e-05
3.60885e-05
0.00019053
3.60803e-05
3.60962e-05
2.58991e-05
2.58983e-05
2.58953e-05
2.58959e-05
0.00019039
3.60863e-05
3.61019e-05
3.60792e-05
3.60953e-05
2.58979e-05
2.58984e-05
0.000119163
0.000221195
6.06498e-05
0.000210158
0.000119141
0.000221195
6.06662e-05
4.98133e-05
4.88124e-05
4.98073e-05
4.88115e-05
4.98176e-05
4.88122e-05
4.98118e-05
4.88113e-05
0.000119129
0.000210155
0.000221192
6.06714e-05
0.000221194
6.0656e-05
0.000119153
0.00011914
0.000210158
0.000221194
6.0667e-05
0.000221195
6.06513e-05
0.000119163
4.9806e-05
4.88112e-05
4.88119e-05
4.98159e-05
4.98118e-05
4.8811e-05
4.88117e-05
4.98217e-05
2.58989e-05
2.58981e-05
2.58979e-05
2.58972e-05
0.000190395
3.61018e-05
3.60952e-05
3.60951e-05
3.60886e-05
2.58977e-05
2.58982e-05
2.58967e-05
2.58973e-05
2.58993e-05
2.58988e-05
2.58974e-05
2.58969e-05
3.60999e-05
3.60919e-05
0.000190534
3.6106e-05
3.6098e-05
2.58986e-05
2.5899e-05
2.58967e-05
2.5897e-05
0.000190394
3.61099e-05
3.61018e-05
3.61046e-05
3.60965e-05
4.98217e-05
4.8815e-05
4.9811e-05
4.88143e-05
0.000119167
6.06608e-05
0.000221193
0.00021015
0.000119142
6.06759e-05
0.000221193
0.000119167
6.06574e-05
0.000221193
0.000210147
0.000119143
6.06728e-05
0.000221193
4.98154e-05
4.88143e-05
4.8815e-05
4.98256e-05
4.98157e-05
4.88141e-05
4.88148e-05
4.98258e-05
0.000119143
0.00021015
6.06772e-05
0.000221193
6.06612e-05
0.000221193
0.000119168
0.000119144
0.000210148
6.06738e-05
0.000221192
6.06576e-05
0.000221192
0.000119169
3.60937e-05
3.60914e-05
0.000190538
3.60997e-05
3.60974e-05
2.58989e-05
2.58983e-05
2.58976e-05
2.58979e-05
0.000190398
3.61035e-05
3.61009e-05
3.60982e-05
3.60953e-05
2.58982e-05
2.58986e-05
0.000119171
6.06495e-05
0.000221195
0.000210158
0.000119146
6.06654e-05
0.000221195
4.98278e-05
4.88086e-05
4.98177e-05
4.88079e-05
0.000119168
0.00022119
6.06426e-05
0.00021014
0.000119143
0.00022119
6.06592e-05
4.98246e-05
4.881e-05
4.88107e-05
4.9834e-05
0.000119148
0.000210159
6.06666e-05
0.000221196
6.06497e-05
0.000221195
0.000119173
4.98225e-05
4.88078e-05
4.88084e-05
4.98315e-05
0.000119145
0.00021014
0.000221191
6.06609e-05
0.00022119
6.06437e-05
0.00011917
4.98216e-05
4.88137e-05
4.98109e-05
4.88129e-05
0.000119165
0.000221193
6.06558e-05
0.000210148
0.00011914
0.000221193
6.06715e-05
4.98216e-05
4.88119e-05
4.98113e-05
4.88112e-05
0.000119138
0.00021016
6.06731e-05
0.000221194
6.06566e-05
0.000221194
0.000119165
4.98153e-05
4.88127e-05
4.88135e-05
4.98252e-05
0.000119141
0.000210149
0.000221193
6.06737e-05
0.000221192
6.06568e-05
0.000119167
4.98153e-05
4.8811e-05
4.88117e-05
4.9825e-05
3.60843e-05
3.61006e-05
0.000190527
3.60903e-05
3.61061e-05
2.5898e-05
2.58976e-05
2.5895e-05
2.58953e-05
0.000190387
3.60934e-05
3.61095e-05
3.6088e-05
3.61045e-05
2.58976e-05
2.58978e-05
0.000119165
0.000221192
6.06518e-05
0.000210157
0.00011914
0.000221191
6.06676e-05
4.98206e-05
4.88116e-05
4.98098e-05
4.88109e-05
4.98267e-05
4.88115e-05
4.98167e-05
4.88108e-05
0.000119131
0.000210152
0.000221191
6.06742e-05
0.000221191
6.06574e-05
0.000119158
0.000119142
0.000210157
0.000221192
6.06699e-05
0.000221191
6.06528e-05
0.000119167
4.98142e-05
4.88108e-05
4.88114e-05
4.98242e-05
4.98213e-05
4.88106e-05
4.88113e-05
4.98303e-05
2.58978e-05
2.58974e-05
2.58968e-05
2.58965e-05
0.000190393
3.61094e-05
3.61028e-05
3.61043e-05
3.60978e-05
2.58974e-05
2.58976e-05
2.58964e-05
2.58966e-05
2.58988e-05
2.58987e-05
2.58969e-05
2.58968e-05
3.61083e-05
3.61002e-05
0.000190535
3.61128e-05
3.61047e-05
2.58988e-05
2.58989e-05
2.5897e-05
2.5897e-05
0.000190395
3.61141e-05
3.6106e-05
3.61109e-05
3.61027e-05
4.98285e-05
4.88146e-05
4.98195e-05
4.8814e-05
0.000119172
6.0663e-05
0.000221194
0.00021015
0.000119146
6.06798e-05
0.000221194
0.000119173
6.06592e-05
0.000221195
0.000210148
0.000119146
6.06765e-05
0.000221195
4.98215e-05
4.88143e-05
4.88148e-05
4.9829e-05
4.98216e-05
4.8814e-05
4.88145e-05
4.98292e-05
0.000119149
0.00021015
6.06811e-05
0.000221195
6.06655e-05
0.000221195
0.00011917
0.000119149
0.000210148
6.06779e-05
0.000221196
6.06618e-05
0.000221197
0.000119172
3.61019e-05
3.60986e-05
0.000190538
3.61064e-05
3.61033e-05
2.58984e-05
2.58982e-05
2.58978e-05
2.58979e-05
0.000190398
3.61076e-05
3.61043e-05
3.61044e-05
3.61008e-05
2.58984e-05
2.58985e-05
0.000119175
6.06514e-05
0.000221198
0.000210159
0.000119151
6.06693e-05
0.000221198
4.98336e-05
4.88083e-05
4.98259e-05
4.88077e-05
0.000119174
0.000221191
6.06457e-05
0.000210137
0.000119148
0.000221192
6.06631e-05
4.98302e-05
4.88099e-05
4.88105e-05
4.98362e-05
0.000119148
0.000210159
6.06707e-05
0.000221196
6.06541e-05
0.000221197
0.000119168
4.98275e-05
4.88081e-05
4.88084e-05
4.98328e-05
0.000119147
0.000210138
0.000221192
6.06614e-05
0.000221193
6.06475e-05
0.000119165
4.9827e-05
4.88133e-05
4.98187e-05
4.88126e-05
0.000119169
0.000221194
6.06593e-05
0.000210145
0.000119145
0.000221195
6.06764e-05
4.98266e-05
4.88116e-05
4.98185e-05
4.8811e-05
0.000119145
0.000210159
6.0676e-05
0.000221195
6.066e-05
0.000221196
0.000119165
4.982e-05
4.88125e-05
4.88132e-05
4.98261e-05
0.000119141
0.000210146
0.000221194
6.06749e-05
0.000221195
6.06617e-05
0.000119161
4.98195e-05
4.88113e-05
4.88115e-05
4.98253e-05
3.60909e-05
3.61076e-05
0.000190526
3.60955e-05
3.61118e-05
2.58978e-05
2.58976e-05
2.58954e-05
2.58954e-05
0.000190386
3.60944e-05
3.61108e-05
3.60928e-05
3.61097e-05
2.5898e-05
2.58979e-05
0.00011917
0.000221192
6.06553e-05
0.000210154
0.000119145
0.000221193
6.06725e-05
4.98259e-05
4.88113e-05
4.98175e-05
4.88107e-05
4.98321e-05
4.88111e-05
4.98247e-05
4.88105e-05
0.000119137
0.000210152
0.000221192
6.06754e-05
0.000221193
6.06621e-05
0.000119156
0.000119142
0.000210154
0.000221192
6.0671e-05
0.000221193
6.06576e-05
0.000119161
4.98187e-05
4.88111e-05
4.88113e-05
4.98246e-05
4.98258e-05
4.88109e-05
4.88111e-05
4.98306e-05
2.58976e-05
2.58974e-05
2.58966e-05
2.58965e-05
0.000190392
3.61107e-05
3.61041e-05
3.61095e-05
3.6103e-05
2.58978e-05
2.58977e-05
2.58969e-05
2.58967e-05
2.58992e-05
2.58994e-05
2.58973e-05
2.58975e-05
3.61113e-05
3.6103e-05
0.000190524
3.611e-05
3.61018e-05
2.58998e-05
2.58997e-05
2.58979e-05
2.58979e-05
0.000190377
3.61029e-05
3.60949e-05
3.61057e-05
3.60975e-05
4.98228e-05
4.88147e-05
4.98216e-05
4.8815e-05
0.000119158
6.06657e-05
0.000221194
0.000210144
0.000119141
6.06744e-05
0.000221192
0.000119159
6.0662e-05
0.000221195
0.000210141
0.000119142
6.06712e-05
0.000221192
4.98107e-05
4.88186e-05
4.88165e-05
4.98046e-05
4.98113e-05
4.88181e-05
4.8816e-05
4.98052e-05
0.000119127
0.000210137
6.06571e-05
0.000221172
6.06557e-05
0.000221186
0.000119127
0.000119128
0.000210134
6.06541e-05
0.000221171
6.06522e-05
0.000221186
0.000119128
3.61047e-05
3.61007e-05
0.000190526
3.61035e-05
3.60999e-05
2.58988e-05
2.58991e-05
2.58988e-05
2.58987e-05
0.000190379
3.60963e-05
3.60931e-05
3.6099e-05
3.60951e-05
2.58993e-05
2.58994e-05
0.000119157
6.06542e-05
0.000221194
0.000210153
0.00011914
6.06637e-05
0.00022119
4.98213e-05
4.8809e-05
4.98247e-05
4.88099e-05
0.000119151
0.00022119
6.06434e-05
0.000210129
0.000119136
0.000221185
6.06491e-05
4.98165e-05
4.88142e-05
4.88122e-05
4.98088e-05
0.000119126
0.000210146
6.06465e-05
0.000221165
6.0644e-05
0.000221183
0.000119117
4.98098e-05
4.88131e-05
4.88115e-05
4.98028e-05
0.000119119
0.000210113
0.000221158
6.06301e-05
0.000221173
6.06284e-05
0.000119105
4.98134e-05
4.88132e-05
4.98168e-05
4.88135e-05
0.000119147
0.000221191
6.06576e-05
0.000210136
0.000119132
0.000221186
6.06624e-05
4.98125e-05
4.88122e-05
4.9816e-05
4.88131e-05
0.000119114
0.000210147
6.06499e-05
0.000221163
6.06482e-05
0.000221178
0.000119098
4.9801e-05
4.88166e-05
4.88147e-05
4.97955e-05
0.000119112
0.00021012
0.000221159
6.06434e-05
0.000221172
6.06424e-05
0.000119094
4.98e-05
4.88163e-05
4.88147e-05
4.97945e-05
3.60899e-05
3.61069e-05
0.000190505
3.60883e-05
3.61049e-05
2.58984e-05
2.58985e-05
2.58961e-05
2.58963e-05
0.000190351
3.60797e-05
3.60967e-05
3.60831e-05
3.61004e-05
2.58987e-05
2.58988e-05
0.000119147
0.00022119
6.06535e-05
0.000210145
0.000119132
0.000221184
6.06585e-05
4.98118e-05
4.88119e-05
4.98151e-05
4.88128e-05
4.98177e-05
4.88117e-05
4.98221e-05
4.88127e-05
0.000119105
0.000210128
0.000221158
6.06442e-05
0.000221171
6.06433e-05
0.000119088
0.000119112
0.000210129
0.000221157
6.06395e-05
0.00022117
6.06383e-05
0.000119094
4.97993e-05
4.88161e-05
4.88144e-05
4.97944e-05
4.9806e-05
4.8816e-05
4.88143e-05
4.97994e-05
2.58982e-05
2.58984e-05
2.58972e-05
2.58974e-05
0.000190356
3.60965e-05
3.609e-05
3.61001e-05
3.60936e-05
2.58985e-05
2.58986e-05
2.58975e-05
2.58977e-05
2.59e-05
2.58998e-05
2.58981e-05
2.58979e-05
3.60982e-05
3.60903e-05
0.000190456
3.60917e-05
3.60839e-05
2.58997e-05
2.59e-05
2.58978e-05
2.5898e-05
0.000190311
3.60868e-05
3.60789e-05
3.6087e-05
3.60792e-05
4.97889e-05
4.88197e-05
4.9793e-05
4.88198e-05
0.000119074
6.0637e-05
0.000221159
0.000210096
0.000119086
6.06396e-05
0.000221155
0.000119075
6.06336e-05
0.000221158
0.000210094
0.000119086
6.06366e-05
0.000221155
4.97781e-05
4.88201e-05
4.88207e-05
4.97816e-05
4.9779e-05
4.88198e-05
4.88204e-05
4.97825e-05
0.000119047
0.000210093
6.0632e-05
0.000221159
6.06218e-05
0.000221155
0.000119073
0.000119048
0.00021009
6.06289e-05
0.000221158
6.06184e-05
0.000221154
0.000119075
3.60917e-05
3.60884e-05
0.000190459
3.60856e-05
3.60829e-05
2.58996e-05
2.58993e-05
2.58986e-05
2.58989e-05
0.000190314
3.60801e-05
3.60763e-05
3.60811e-05
3.60785e-05
2.58992e-05
2.58995e-05
0.000119074
6.06255e-05
0.000221156
0.000210105
0.000119076
6.06291e-05
0.000221154
4.97903e-05
4.88139e-05
4.9792e-05
4.88135e-05
0.000119072
0.000221153
6.06099e-05
0.000210085
0.000119065
0.000221153
6.06174e-05
4.97852e-05
4.88158e-05
4.88164e-05
4.97888e-05
0.00011905
0.000210101
6.06215e-05
0.000221158
6.06104e-05
0.000221155
0.000119076
4.97823e-05
4.88133e-05
4.8814e-05
4.97867e-05
0.000119048
0.000210085
0.000221158
6.06134e-05
0.000221154
6.06e-05
0.000119075
4.97837e-05
4.88183e-05
4.97841e-05
4.88184e-05
0.000119071
0.000221155
6.0624e-05
0.000210093
0.000119056
0.000221156
6.06311e-05
4.97832e-05
4.88171e-05
4.97832e-05
4.88167e-05
0.000119049
0.000210106
6.06262e-05
0.000221161
6.0615e-05
0.000221159
0.000119074
4.97751e-05
4.88184e-05
4.8819e-05
4.97805e-05
0.000119048
0.000210093
0.000221161
6.06273e-05
0.000221158
6.06144e-05
0.000119073
4.97746e-05
4.88166e-05
4.88172e-05
4.97801e-05
3.60746e-05
3.60915e-05
0.000190448
3.607e-05
3.60871e-05
2.58989e-05
2.58986e-05
2.5896e-05
2.58963e-05
0.00019031
3.60678e-05
3.60852e-05
3.60658e-05
3.60837e-05
2.58985e-05
2.58988e-05
0.000119072
0.000221153
6.062e-05
0.000210102
0.000119056
0.000221154
6.06272e-05
4.97832e-05
4.88169e-05
4.97831e-05
4.88165e-05
4.9789e-05
4.88167e-05
4.97892e-05
4.88163e-05
0.000119042
0.000210101
0.00022116
6.0628e-05
0.000221158
6.06152e-05
0.000119068
0.000119049
0.000210102
0.00022116
6.06235e-05
0.000221157
6.06105e-05
0.000119075
4.97745e-05
4.88163e-05
4.8817e-05
4.97802e-05
4.97815e-05
4.88162e-05
4.88168e-05
4.97863e-05
2.58987e-05
2.58984e-05
2.58977e-05
2.58974e-05
0.000190315
3.6085e-05
3.60785e-05
3.60835e-05
3.60769e-05
2.58984e-05
2.58986e-05
2.58974e-05
2.58976e-05
2.58999e-05
2.58997e-05
2.5898e-05
2.58978e-05
3.60839e-05
3.6076e-05
0.000190462
3.6086e-05
3.60781e-05
2.58996e-05
2.58999e-05
2.58977e-05
2.5898e-05
0.000190322
3.6086e-05
3.60781e-05
3.60835e-05
3.60755e-05
4.97811e-05
4.88203e-05
4.97746e-05
4.88197e-05
0.000119075
6.06162e-05
0.000221162
0.000210099
0.000119049
6.06301e-05
0.000221163
0.000119077
6.06129e-05
0.000221162
0.000210096
0.000119051
6.06271e-05
0.000221163
4.9773e-05
4.88199e-05
4.88205e-05
4.97802e-05
4.97737e-05
4.88197e-05
4.88202e-05
4.97809e-05
0.000119051
0.000210098
6.06297e-05
0.000221163
6.0615e-05
0.000221163
0.000119075
0.000119052
0.000210096
6.06266e-05
0.000221163
6.06116e-05
0.000221163
0.000119077
3.60773e-05
3.60729e-05
0.000190465
3.60795e-05
3.60756e-05
2.58995e-05
2.58992e-05
2.58986e-05
2.58988e-05
0.000190325
3.60794e-05
3.60756e-05
3.60768e-05
3.60725e-05
2.58992e-05
2.58995e-05
0.000119077
6.06048e-05
0.000221162
0.000210107
0.000119052
6.06196e-05
0.000221162
4.9786e-05
4.88139e-05
4.97799e-05
4.88133e-05
0.000119077
0.00022116
6.05972e-05
0.000210089
0.000119051
0.00022116
6.06126e-05
4.97813e-05
4.88156e-05
4.88162e-05
4.97877e-05
0.000119053
0.000210107
6.06192e-05
0.000221162
6.06036e-05
0.000221163
0.000119077
4.97795e-05
4.88132e-05
4.88138e-05
4.97859e-05
0.000119052
0.000210089
0.00022116
6.06123e-05
0.00022116
6.05966e-05
0.000119076
4.97799e-05
4.88189e-05
4.97729e-05
4.88183e-05
0.000119075
0.000221162
6.06118e-05
0.000210097
0.00011905
0.000221162
6.06265e-05
4.97796e-05
4.88171e-05
4.97725e-05
4.88165e-05
0.000119053
0.000210111
6.06239e-05
0.000221163
6.06084e-05
0.000221163
0.000119075
4.97726e-05
4.88182e-05
4.88189e-05
4.97799e-05
0.00011905
0.000210097
0.000221162
6.06263e-05
0.000221163
6.06113e-05
0.000119074
4.97722e-05
4.88165e-05
4.8817e-05
4.97795e-05
3.60645e-05
3.60825e-05
0.000190454
3.60676e-05
3.60849e-05
2.58987e-05
2.58985e-05
2.5896e-05
2.58962e-05
0.000190313
3.60676e-05
3.60849e-05
3.60644e-05
3.60823e-05
2.58985e-05
2.58987e-05
0.000119076
0.000221161
6.06078e-05
0.000210106
0.000119051
0.000221162