/*--------------------------------*- C++ -*----------------------------------*\
| =========                 |                                                 |
| \\      /  F ield         | OpenFOAM: The Open Source CFD Toolbox           |
|  \\    /   O peration     | Version:  2206                                  |
|   \\  /    A nd           | Website:  www.openfoam.com                      |
|    \\/     M anipulation  |                                                 |
\*---------------------------------------------------------------------------*/
FoamFile
{
    version     2.0;
    format      ascii;
    arch        "LSB;label=32;scalar=64";
    class       surfaceScalarField;
    location    "19.5";
    object      phi;
}
// * * * * * * * * * * * * * * * * * * * * * * * * * * * * * * * * * * * * * //

dimensions      [0 3 -1 0 0 0 0];

oriented        oriented;

internalField   nonuniform List<scalar> 
82026
(
1.20881e-09
1.34353e-09
-0.00107661
-1.27404e-09
-1.24039e-09
0.00107661
-0.00107702
-1.18899e-06
-1.39739e-09
2.2007e-09
0.00107702
-2.40234e-07
1.19116e-06
2.39356e-07
8.70656e-07
-2.34728e-07
-8.70461e-07
2.32557e-07
-0.00107668
-1.18362e-06
-1.48118e-09
2.13369e-09
0.00107668
-2.40209e-07
1.1858e-06
2.39386e-07
8.70509e-07
-2.37343e-07
-8.70318e-07
2.35262e-07
-0.00026477
1.21701e-06
1.18374e-06
-2.22024e-07
-2.27251e-07
0.000262819
1.40191e-09
1.5495e-09
-0.00107661
-1.38399e-09
-1.34841e-09
0.00107661
-0.00107702
-1.18895e-06
-1.61263e-09
2.095e-09
0.00107702
-2.4017e-07
1.19121e-06
2.39425e-07
8.70719e-07
-2.34641e-07
-8.70411e-07
2.32661e-07
-0.00107668
-1.18356e-06
-1.75137e-09
1.98935e-09
0.00107668
-2.40128e-07
1.18585e-06
2.39465e-07
8.70569e-07
-2.37243e-07
-8.70263e-07
2.35373e-07
-0.00026477
1.21696e-06
1.18368e-06
-2.21956e-07
-2.27184e-07
0.000262819
1.53935e-09
1.63084e-09
-0.00107661
-1.44726e-09
-1.45007e-09
0.00107661
-0.00107701
-1.18889e-06
-1.71586e-09
2.0014e-09
0.00107701
-2.40116e-07
1.19125e-06
2.39482e-07
8.70726e-07
-2.34584e-07
-8.70396e-07
2.32715e-07
-0.00107668
-1.18354e-06
-1.9519e-09
1.86197e-09
0.00107668
-2.40118e-07
1.18592e-06
2.39535e-07
8.70623e-07
-2.37232e-07
-8.7027e-07
2.35437e-07
-0.00026477
1.21696e-06
1.18367e-06
-2.21948e-07
-2.27191e-07
0.000262818
1.05171e-09
7.36208e-10
-0.00107661
-1.02843e-09
-1.35921e-09
0.00107661
-0.00107701
-1.18893e-06
-4.91812e-10
2.00263e-09
0.00107701
-2.40194e-07
1.19115e-06
2.39332e-07
8.70281e-07
-2.34924e-07
-8.7079e-07
2.3228e-07
-0.00107667
-1.1839e-06
7.16488e-11
2.71439e-09
0.00107667
-2.40572e-07
1.18551e-06
2.39022e-07
8.69981e-07
-2.3789e-07
-8.70858e-07
2.3466e-07
-0.000264769
1.21736e-06
1.18404e-06
-2.22376e-07
-2.27639e-07
0.000262817
5.28051e-10
8.55401e-10
-0.00107661
-1.00598e-09
-8.23023e-10
0.00107661
-0.00107702
-1.18917e-06
-9.71519e-10
2.53284e-09
0.00107702
-2.40445e-07
1.19112e-06
2.39315e-07
8.70615e-07
-2.35212e-07
-8.70673e-07
2.32317e-07
-0.00107668
-1.18371e-06
-1.4067e-09
2.24551e-09
0.00107668
-2.40299e-07
1.18581e-06
2.39415e-07
8.70558e-07
-2.37631e-07
-8.70416e-07
2.35176e-07
-0.00026477
1.21703e-06
1.18382e-06
-2.22128e-07
-2.273e-07
0.000262819
1.18685e-09
1.32132e-09
-0.00107661
-1.26214e-09
-1.22517e-09
0.00107661
-0.00107702
-1.18901e-06
-1.35845e-09
2.17469e-09
0.00107702
-2.40264e-07
1.19121e-06
2.39424e-07
8.70686e-07
-2.34845e-07
-8.70555e-07
2.32575e-07
-0.00107668
-1.18367e-06
-1.43569e-09
2.1885e-09
0.00107668
-2.40269e-07
1.18583e-06
2.39423e-07
8.7053e-07
-2.37472e-07
-8.70416e-07
2.35264e-07
-0.00026477
1.21703e-06
1.18379e-06
-2.22072e-07
-2.27277e-07
0.000262819
1.20788e-09
1.29545e-09
-0.00107661
-1.25052e-09
-1.25762e-09
0.00107661
-0.00107702
-1.18901e-06
-1.31831e-09
2.15062e-09
0.00107702
-2.40267e-07
1.19122e-06
2.39423e-07
8.70679e-07
-2.34857e-07
-8.70565e-07
2.32564e-07
-0.00107668
-1.18366e-06
-1.36065e-09
2.15712e-09
0.00107668
-2.40262e-07
1.18584e-06
2.39429e-07
8.70514e-07
-2.37487e-07
-8.70433e-07
2.35249e-07
-0.00026477
1.21706e-06
1.18378e-06
-2.22067e-07
-2.27297e-07
0.000262819
1.20946e-09
1.28749e-09
-0.00107661
-1.24754e-09
-1.26453e-09
0.00107661
-0.00107702
-1.18902e-06
-1.30259e-09
2.1469e-09
0.00107702
-2.40269e-07
1.19122e-06
2.39421e-07
8.70675e-07
-2.34861e-07
-8.70569e-07
2.3256e-07
-0.00107668
-1.18366e-06
-1.33585e-09
2.1568e-09
0.00107668
-2.40263e-07
1.18583e-06
2.39428e-07
8.70508e-07
-2.37497e-07
-8.70441e-07
2.35241e-07
-0.00026477
1.21706e-06
1.18378e-06
-2.2207e-07
-2.27302e-07
0.000262819
1.20933e-09
1.28145e-09
-0.00107661
-1.24353e-09
-1.26662e-09
0.00107661
-0.00107702
-1.18902e-06
-1.30114e-09
2.14511e-09
0.00107702
-2.40269e-07
1.19122e-06
2.39421e-07
8.70675e-07
-2.34861e-07
-8.70568e-07
2.3256e-07
-0.00107668
-1.18366e-06
-1.32673e-09
2.15902e-09
0.00107668
-2.40263e-07
1.18583e-06
2.39428e-07
8.70506e-07
-2.37498e-07
-8.70442e-07
2.35239e-07
-0.00026477
1.21706e-06
1.18378e-06
-2.22069e-07
-2.27303e-07
0.000262819
1.20355e-09
1.27382e-09
-0.00107661
-1.23836e-09
-1.26307e-09
0.00107661
-0.00107702
-1.18902e-06
-1.29878e-09
2.14602e-09
0.00107702
-2.40269e-07
1.19122e-06
2.39421e-07
8.70674e-07
-2.34862e-07
-8.70569e-07
2.32559e-07
-0.00107668
-1.18366e-06
-1.3209e-09
2.16608e-09
0.00107668
-2.40266e-07
1.18583e-06
2.39426e-07
8.70505e-07
-2.375e-07
-8.70444e-07
2.35237e-07
-0.00026477
1.21706e-06
1.18378e-06
-2.22071e-07
-2.27304e-07
0.000262819
1.20452e-09
1.2785e-09
-0.00107661
-1.2416e-09
-1.26226e-09
0.00107661
-0.00107702
-1.18902e-06
-1.29767e-09
2.14853e-09
0.00107702
-2.4027e-07
1.19122e-06
2.3942e-07
8.70675e-07
-2.34862e-07
-8.70569e-07
2.3256e-07
-0.00107668
-1.18366e-06
-1.3302e-09
2.16202e-09
0.00107668
-2.40263e-07
1.18583e-06
2.39429e-07
8.70507e-07
-2.37498e-07
-8.70442e-07
2.35239e-07
-0.00026477
1.21706e-06
1.18378e-06
-2.2207e-07
-2.27303e-07
0.000262819
1.20903e-09
1.28327e-09
-0.00107661
-1.24513e-09
-1.26579e-09
0.00107661
-0.00107702
-1.18902e-06
-1.29946e-09
2.14555e-09
0.00107702
-2.40269e-07
1.19122e-06
2.39422e-07
8.70674e-07
-2.34863e-07
-8.70569e-07
2.32559e-07
-0.00107668
-1.18366e-06
-1.33072e-09
2.1621e-09
0.00107668
-2.40263e-07
1.18583e-06
2.39428e-07
8.70507e-07
-2.37498e-07
-8.70442e-07
2.35239e-07
-0.00026477
1.21706e-06
1.18379e-06
-2.22071e-07
-2.27303e-07
0.000262819
1.21193e-09
1.28474e-09
-0.00107661
-1.24468e-09
-1.26742e-09
0.00107661
-0.00107702
-1.18901e-06
-1.30896e-09
2.14188e-09
0.00107702
-2.40267e-07
1.19122e-06
2.39424e-07
8.70677e-07
-2.34861e-07
-8.70567e-07
2.32562e-07
-0.00107668
-1.18366e-06
-1.3319e-09
2.16227e-09
0.00107668
-2.40263e-07
1.18583e-06
2.39429e-07
8.70507e-07
-2.37498e-07
-8.70442e-07
2.35239e-07
-0.00026477
1.21706e-06
1.18378e-06
-2.22069e-07
-2.27302e-07
0.000262819
1.21458e-09
1.28935e-09
-0.00107661
-1.24811e-09
-1.26775e-09
0.00107661
-0.00107702
-1.18901e-06
-1.30968e-09
2.14433e-09
0.00107702
-2.40268e-07
1.19122e-06
2.39422e-07
8.70678e-07
-2.34861e-07
-8.70567e-07
2.32562e-07
-0.00107668
-1.18366e-06
-1.34042e-09
2.1574e-09
0.00107668
-2.40262e-07
1.18584e-06
2.39431e-07
8.7051e-07
-2.37497e-07
-8.70441e-07
2.35243e-07
-0.00026477
1.21706e-06
1.18378e-06
-2.22069e-07
-2.27301e-07
0.000262819
1.21399e-09
1.29047e-09
-0.00107661
-1.24867e-09
-1.26874e-09
0.00107661
-0.00107702
-1.18902e-06
-1.30868e-09
2.14225e-09
0.00107702
-2.40271e-07
1.19122e-06
2.39427e-07
8.70677e-07
-2.34862e-07
-8.70567e-07
2.32565e-07
-0.00107668
-1.18366e-06
-1.33647e-09
2.15767e-09
0.00107668
-2.40258e-07
1.18583e-06
2.39426e-07
8.70506e-07
-2.37491e-07
-8.70437e-07
2.35236e-07
-0.00026477
1.21706e-06
1.18378e-06
-2.22068e-07
-2.273e-07
0.000262819
1.21354e-09
1.28649e-09
-0.00107661
-1.24572e-09
-1.26905e-09
0.00107661
-0.00107702
-1.18901e-06
-1.30746e-09
2.14128e-09
0.00107702
-2.40267e-07
1.19122e-06
2.39421e-07
8.70671e-07
-2.34854e-07
-8.70561e-07
2.32554e-07
-0.00107668
-1.18366e-06
-1.33345e-09
2.1601e-09
0.00107668
-2.40257e-07
1.18583e-06
2.3942e-07
8.705e-07
-2.37488e-07
-8.70432e-07
2.35229e-07
-0.00026477
1.21706e-06
1.18378e-06
-2.22062e-07
-2.27295e-07
0.000262819
1.20777e-09
1.27111e-09
-0.00107661
-1.23136e-09
-1.26943e-09
0.00107661
-0.00107702
-1.189e-06
-1.31425e-09
2.13936e-09
0.00107702
-2.40249e-07
1.19121e-06
2.39407e-07
8.70657e-07
-2.34827e-07
-8.70545e-07
2.3253e-07
-0.00107668
-1.18366e-06
-1.32678e-09
2.16795e-09
0.00107668
-2.40255e-07
1.18582e-06
2.39418e-07
8.70488e-07
-2.37477e-07
-8.70422e-07
2.35219e-07
-0.00026477
1.21705e-06
1.18377e-06
-2.22056e-07
-2.27292e-07
0.000262819
1.27991e-09
-0.00107661
-1.2826e-09
-0.00107668
-1.18364e-06
-1.33607e-09
-2.40225e-07
1.1858e-06
2.39382e-07
-2.37422e-07
2.35191e-07
-1.22447e-06
-1.18853e-06
0.000264786
-0.000262824
2.21663e-07
2.29403e-07
0.00107624
-1.20707e-09
2.27704e-09
-1.22233e-06
2.44684e-07
-2.45623e-07
-8.70465e-07
2.32416e-07
-2.34747e-07
8.70534e-07
1.22989e-06
0.00107667
-1.09613e-09
2.25894e-09
-1.22773e-06
2.47467e-07
-2.4839e-07
-8.76046e-07
2.35181e-07
-2.37582e-07
8.76073e-07
-1.19116e-06
0.000264815
-0.000262845
2.24421e-07
2.26714e-07
0.00107728
-1.31019e-09
2.19908e-09
-1.18639e-06
2.42128e-07
-2.43015e-07
-8.73202e-07
2.35254e-07
-2.37537e-07
8.73368e-07
1.22453e-06
0.00107635
-1.19147e-09
-0.00107635
2.25225e-09
-1.22239e-06
2.47448e-07
-2.4838e-07
-8.73172e-07
2.35201e-07
-2.37472e-07
8.73253e-07
-1.33614e-09
2.19319e-09
-1.18899e-06
2.39351e-07
-2.40232e-07
-8.70489e-07
2.32515e-07
8.70632e-07
-2.34774e-07
1.21918e-06
0.00107615
-1.23686e-09
-0.00107615
2.23048e-09
-1.21703e-06
2.4197e-07
-2.42844e-07
-8.70491e-07
2.32449e-07
-2.3472e-07
8.70573e-07
-1.18579e-06
0.000264765
-0.000262806
2.21864e-07
2.29214e-07
-1.40101e-09
-0.00107668
2.16916e-09
-1.18363e-06
2.39369e-07
-2.40223e-07
-8.70302e-07
2.35206e-07
8.70538e-07
-2.37406e-07
1.18589e-06
0.00107719
-1.23297e-09
-0.00107719
2.13814e-09
-1.18375e-06
2.39419e-07
-2.40288e-07
-8.70601e-07
2.35263e-07
-2.37509e-07
8.70757e-07
-0.000262819
2.2418e-07
2.29445e-07
1.22233e-06
1.1864e-06
-2.19545e-07
-2.27232e-07
0.000262824
-1.2245e-06
-1.18855e-06
0.000264786
-0.000262824
2.21713e-07
2.29455e-07
2.2614e-09
0.00107624
-2.45619e-07
1.22447e-06
2.44692e-07
8.70559e-07
-2.34715e-07
-8.70448e-07
2.32451e-07
-1.22773e-06
-1.11673e-09
2.24244e-09
0.00107667
-2.48386e-07
1.22989e-06
2.47475e-07
8.76097e-07
-2.37544e-07
-8.76024e-07
2.3522e-07
0.00107624
-1.3685e-09
-0.00107624
2.182e-09
-1.22229e-06
2.44737e-07
-2.45564e-07
-8.70404e-07
2.32512e-07
-2.34635e-07
8.70576e-07
1.22991e-06
0.00107667
-1.26312e-09
-0.00107667
2.16667e-09
-1.2277e-06
2.47519e-07
-2.48333e-07
-8.75983e-07
2.35277e-07
-2.37471e-07
8.76119e-07
-2.22255e-07
-2.24534e-07
0.000262845
-1.19119e-06
0.000264815
-0.000262845
2.24476e-07
2.26762e-07
2.212e-09
0.00107728
-2.43016e-07
1.18852e-06
2.42132e-07
8.73394e-07
-2.37503e-07
-8.73174e-07
2.35292e-07
-1.22238e-06
-1.26615e-09
2.20116e-09
0.00107635
-2.48362e-07
1.22454e-06
2.47468e-07
8.73275e-07
-2.37432e-07
-8.73135e-07
2.35234e-07
0.00107728
-1.50512e-09
-0.00107728
2.12216e-09
-1.18636e-06
2.42179e-07
-2.4296e-07
-8.73139e-07
2.35355e-07
-2.37422e-07
8.73415e-07
1.22457e-06
0.00107635
-1.37489e-09
-0.00107635
2.14501e-09
-1.22235e-06
2.4752e-07
-2.48313e-07
-8.73132e-07
2.35292e-07
-2.37388e-07
8.73295e-07
-1.30955e-09
2.17716e-09
0.00107615
-2.42825e-07
1.21919e-06
2.41988e-07
8.70595e-07
-2.34679e-07
2.32479e-07
-8.70458e-07
-1.52249e-09
-0.00107702
2.12054e-09
-1.18895e-06
2.39405e-07
-2.40177e-07
-8.70437e-07
2.32611e-07
8.70676e-07
-2.34668e-07
1.21922e-06
0.00107615
-1.4263e-09
-0.00107615
2.12274e-09
-1.21698e-06
2.42038e-07
-2.42781e-07
-8.70447e-07
2.32541e-07
-2.34635e-07
8.70623e-07
-2.19701e-07
-2.27035e-07
0.000262806
-1.18583e-06
0.000264765
-0.000262806
2.21926e-07
2.29277e-07
-1.31619e-09
2.09867e-09
0.00107719
-2.4027e-07
1.1859e-06
2.39435e-07
8.70781e-07
-2.37466e-07
2.35295e-07
-8.70561e-07
-1.6117e-09
-0.00107668
2.08051e-09
-1.18359e-06
2.39438e-07
-2.40162e-07
-8.70258e-07
2.35301e-07
8.70587e-07
-2.37318e-07
1.18593e-06
0.00107719
-1.44855e-09
-0.00107719
2.05587e-09
-1.18371e-06
2.39485e-07
-2.40228e-07
-8.70557e-07
2.35358e-07
-2.37422e-07
8.70806e-07
-0.000262819
2.2424e-07
2.29506e-07
1.22229e-06
1.18635e-06
-2.19497e-07
-2.27181e-07
0.000262824
-1.22457e-06
-1.18864e-06
0.000264785
-0.000262824
2.21833e-07
2.2956e-07
2.17198e-09
0.00107624
-2.45558e-07
1.22452e-06
2.4476e-07
8.70603e-07
-2.34629e-07
-8.7041e-07
2.32547e-07
-1.22769e-06
-1.32265e-09
2.1552e-09
0.00107667
-2.48326e-07
1.22993e-06
2.47542e-07
8.76153e-07
-2.37458e-07
-8.75979e-07
2.35319e-07
0.00107624
-1.57306e-09
-0.00107624
2.11809e-09
-1.22223e-06
2.44827e-07
-2.45501e-07
-8.70326e-07
2.32655e-07
-2.34536e-07
8.70702e-07
1.22998e-06
0.00107667
-1.47891e-09
-0.00107667
2.12548e-09
-1.22764e-06
2.47605e-07
-2.48271e-07
-8.75911e-07
2.3542e-07
-2.3737e-07
8.76238e-07
-2.22201e-07
-2.24487e-07
0.000262845
-1.19127e-06
0.000264814
-0.000262844
2.24582e-07
2.26867e-07
2.10674e-09
0.00107728
-2.42955e-07
1.18857e-06
2.42202e-07
8.73449e-07
-2.37413e-07
-8.73128e-07
2.35393e-07
-1.22232e-06
-1.53933e-09
2.07289e-09
0.00107635
-2.48282e-07
1.22459e-06
2.47544e-07
8.73335e-07
-2.37334e-07
-8.73084e-07
2.35346e-07
0.00107728
-1.62566e-09
-0.00107728
1.99561e-09
-1.18629e-06
2.42281e-07
-2.42887e-07
-8.73085e-07
2.35481e-07
-2.37337e-07
8.73511e-07
1.22457e-06
0.00107635
-1.50532e-09
-0.00107635
2.19241e-09
-1.22232e-06
2.47528e-07
-2.48282e-07
-8.73062e-07
2.35362e-07
-2.37302e-07
8.73341e-07
-1.58718e-09
2.04698e-09
0.00107615
-2.42748e-07
1.21924e-06
2.42061e-07
8.7066e-07
-2.34579e-07
2.32592e-07
-8.70399e-07
-1.61298e-09
-0.00107702
2.0021e-09
-1.18889e-06
2.3949e-07
-2.40116e-07
-8.70368e-07
2.32727e-07
8.70761e-07
-2.34584e-07
1.21922e-06
0.00107615
-1.51973e-09
-0.00107615
2.18745e-09
-1.21696e-06
2.42041e-07
-2.42753e-07
-8.7039e-07
2.326e-07
-2.3456e-07
8.70654e-07
-2.1963e-07
-2.26966e-07
0.000262806
-1.18584e-06
0.000264764
-0.000262805
2.2199e-07
2.29327e-07
-1.59566e-09
1.96386e-09
0.00107719
-2.40193e-07
1.18595e-06
2.39512e-07
8.70843e-07
-2.37366e-07
2.35409e-07
-8.70506e-07
-1.64665e-09
-0.00107668
2.05554e-09
-1.18355e-06
2.3946e-07
-2.40116e-07
-8.70211e-07
2.3535e-07
8.70607e-07
-2.37253e-07
1.18594e-06
0.00107718
-1.49153e-09
-0.00107719
2.05089e-09
-1.18367e-06
2.39501e-07
-2.40189e-07
-8.70507e-07
2.35407e-07
-2.37356e-07
8.70825e-07
-0.000262818
2.243e-07
2.29551e-07
1.22225e-06
1.1863e-06
-2.19399e-07
-2.27105e-07
0.000262823
-1.22466e-06
-1.1888e-06
0.000264785
-0.000262823
2.22002e-07
2.29672e-07
2.16477e-09
0.00107624
-2.45521e-07
1.22452e-06
2.44776e-07
8.70649e-07
-2.34545e-07
-8.70339e-07
2.32618e-07
-1.22766e-06
-1.46274e-09
2.16263e-09
0.00107667
-2.48292e-07
1.22993e-06
2.47554e-07
8.76195e-07
-2.37373e-07
-8.75914e-07
2.35393e-07
0.00107624
-2.05678e-09
-0.00107624
2.00337e-09
-1.22212e-06
2.44913e-07
-2.45394e-07
-8.70157e-07
2.32811e-07
-2.3438e-07
8.70846e-07
1.23004e-06
0.00107667
-1.99573e-09
-0.00107667
2.0954e-09
-1.22755e-06
2.47664e-07
-2.48185e-07
-8.75737e-07
2.35581e-07
-2.37211e-07
8.76385e-07
-2.22112e-07
-2.24416e-07
0.000262844
-1.19143e-06
0.000264814
-0.000262844
2.24759e-07
2.26932e-07
2.02947e-09
0.00107728
-2.42897e-07
1.1886e-06
2.42245e-07
8.73468e-07
-2.37344e-07
-8.73086e-07
2.35449e-07
-1.22232e-06
-1.79414e-09
2.02017e-09
0.00107635
-2.48291e-07
1.22463e-06
2.47589e-07
8.73411e-07
-2.37306e-07
-8.73069e-07
2.35428e-07
0.00107728
-1.72027e-09
-0.00107728
1.51188e-09
-1.18612e-06
2.42427e-07
-2.42726e-07
-8.72993e-07
2.35558e-07
-2.37246e-07
8.73558e-07
1.22438e-06
0.00107635
-9.84612e-10
-0.00107635
2.89054e-09
-1.22244e-06
2.47282e-07
-2.48459e-07
-8.73182e-07
2.3515e-07
-2.37433e-07
8.73154e-07
-1.83269e-09
1.98138e-09
0.00107615
-2.42757e-07
1.21929e-06
2.42113e-07
8.70727e-07
-2.34556e-07
2.32672e-07
-8.70394e-07
-1.45903e-09
-0.00107701
1.5351e-09
-1.18873e-06
2.39641e-07
-2.39962e-07
-8.70383e-07
2.32711e-07
8.70674e-07
-2.34568e-07
1.21903e-06
0.00107614
-8.82189e-10
-0.00107614
2.83873e-09
-1.21708e-06
2.418e-07
-2.42928e-07
-8.70539e-07
2.32355e-07
-2.34712e-07
8.70425e-07
-2.19619e-07
-2.2697e-07
0.000262805
-1.18571e-06
0.000264764
-0.000262805
2.21802e-07
2.29087e-07
-1.80485e-09
1.84945e-09
0.00107718
-2.40187e-07
1.18602e-06
2.39579e-07
8.70898e-07
-2.37353e-07
2.35478e-07
-8.70513e-07
-7.39063e-10
-0.00107667
2.36521e-09
-1.18362e-06
2.39267e-07
-2.40245e-07
-8.704e-07
2.35066e-07
8.70332e-07
-2.37436e-07
1.18579e-06
0.00107718
-6.01522e-10
-0.00107718
2.41016e-09
-1.18376e-06
2.39297e-07
-2.40324e-07
-8.7069e-07
2.35123e-07
-2.37539e-07
8.70555e-07
-0.000262817
2.2409e-07
2.29319e-07
1.22236e-06
1.18634e-06
-2.19425e-07
-2.27192e-07
0.000262823
-1.22435e-06
-1.18837e-06
0.000264786
-0.000262824
2.21399e-07
2.29174e-07
2.54811e-09
0.00107624
-2.45671e-07
1.22436e-06
2.44559e-07
8.70417e-07
-2.34687e-07
-8.70487e-07
2.32375e-07
-1.22781e-06
-1.03199e-09
2.64262e-09
0.00107667
-2.48475e-07
1.22972e-06
2.47305e-07
8.75973e-07
-2.37505e-07
-8.76053e-07
2.35164e-07
0.00107624
-4.93836e-11
-0.00107624
2.6156e-09
-1.22261e-06
2.44533e-07
-2.45973e-07
-8.70946e-07
2.31893e-07
-2.35494e-07
8.70269e-07
1.22978e-06
0.00107667
4.14612e-11
-0.00107667
2.56117e-09
-1.22799e-06
2.47331e-07
-2.48725e-07
-8.76518e-07
2.34662e-07
-2.38317e-07
8.75813e-07
-2.2213e-07
-2.24557e-07
0.000262843
-1.19099e-06
0.000264815
-0.000262845
2.24149e-07
2.26508e-07
2.04225e-09
0.00107728
-2.42985e-07
1.1885e-06
2.42088e-07
8.73128e-07
-2.37575e-07
-8.73343e-07
2.35115e-07
-1.22274e-06
-1.32612e-10
3.2563e-09
0.00107635
-2.488e-07
1.22417e-06
2.47023e-07
8.72849e-07
-2.37889e-07
-8.73566e-07
2.34722e-07
0.00107728
-3.80236e-10
-0.00107728
2.75836e-09
-1.1867e-06
2.41944e-07
-2.43389e-07
-8.73641e-07
2.34772e-07
-2.38256e-07
8.73156e-07
1.22457e-06
0.00107635
-5.57864e-10
-0.00107635
2.13556e-09
-1.22249e-06
2.47501e-07
-2.48503e-07
-8.73488e-07
2.34891e-07
-2.3802e-07
8.73123e-07
-2.86449e-12
3.1518e-09
0.00107614
-2.43259e-07
1.21883e-06
2.41556e-07
8.7011e-07
-2.35186e-07
2.31916e-07
-8.70948e-07
-5.21975e-10
-0.00107702
2.77025e-09
-1.18932e-06
2.3915e-07
-2.40624e-07
-8.70836e-07
2.32071e-07
8.70492e-07
-2.35453e-07
1.21921e-06
0.00107615
-6.53535e-10
-0.00107615
2.17965e-09
-1.21713e-06
2.42009e-07
-2.42977e-07
-8.70779e-07
2.32155e-07
-2.35252e-07
8.70472e-07
-2.2002e-07
-2.27425e-07
0.000262805
-1.18575e-06
0.000264765
-0.000262806
2.21774e-07
2.29196e-07
1.60011e-10
2.76478e-09
0.00107718
-2.40655e-07
1.18559e-06
2.39055e-07
8.70255e-07
-2.38015e-07
2.34697e-07
-8.71101e-07
-1.06941e-09
-0.00107668
2.35028e-09
-1.18379e-06
2.39354e-07
-2.40397e-07
-8.70512e-07
2.34974e-07
8.70523e-07
-2.37881e-07
1.18587e-06
0.00107719
-8.60639e-10
-0.00107719
2.32299e-09
-1.1839e-06
2.39411e-07
-2.40457e-07
-8.70835e-07
2.35018e-07
-2.37999e-07
8.70716e-07
-0.000262819
2.24101e-07
2.29414e-07
1.22246e-06
1.18657e-06
-2.19783e-07
-2.2743e-07
0.000262824
-1.22453e-06
-1.18858e-06
0.000264786
-0.000262824
2.21708e-07
2.29459e-07
2.3826e-09
0.00107624
-2.45782e-07
1.22448e-06
2.44697e-07
8.70444e-07
-2.35267e-07
-8.70753e-07
2.32144e-07
-1.22785e-06
-4.41248e-10
2.32713e-09
0.00107667
-2.48536e-07
1.22991e-06
2.47492e-07
8.75989e-07
-2.38096e-07
-8.76324e-07
2.34911e-07
0.00107624
-1.18275e-09
-0.00107624
2.21453e-09
-1.22234e-06
2.44773e-07
-2.45633e-07
-8.70526e-07
2.32463e-07
-2.34841e-07
8.70594e-07
1.22995e-06
0.00107667
-1.05754e-09
-0.00107667
2.1929e-09
-1.22774e-06
2.47556e-07
-2.48398e-07
-8.76116e-07
2.35222e-07
-2.37682e-07
8.76125e-07
-2.22498e-07
-2.24713e-07
0.000262845
-1.19122e-06
0.000264815
-0.000262845
2.24466e-07
2.26773e-07
2.53225e-09
0.00107728
-2.43219e-07
1.18848e-06
2.42095e-07
8.73339e-07
-2.38006e-07
-8.73418e-07
2.35034e-07
-1.22239e-06
-8.67873e-10
2.01297e-09
0.00107635
-2.48379e-07
1.22463e-06
2.47574e-07
8.73217e-07
-2.37808e-07
-8.73357e-07
2.35068e-07
0.00107728
-1.33836e-09
-0.00107728
2.1916e-09
-1.18642e-06
2.42204e-07
-2.43043e-07
-8.73257e-07
2.35314e-07
-2.37612e-07
8.7343e-07
1.2246e-06
0.00107635
-1.14493e-09
-0.00107635
2.14888e-09
-1.22239e-06
2.47539e-07
-2.48381e-07
-8.73265e-07
2.35211e-07
-2.37594e-07
8.73276e-07
-9.52834e-10
2.03506e-09
0.00107615
-2.42855e-07
1.21927e-06
2.42083e-07
8.70553e-07
-2.35038e-07
2.32323e-07
-8.70652e-07
-1.37356e-09
-0.00107702
2.18973e-09
-1.18902e-06
2.39428e-07
-2.4026e-07
-8.70555e-07
2.32577e-07
8.70689e-07
-2.34853e-07
1.21925e-06
0.00107615
-1.20053e-09
-0.00107615
2.11926e-09
-1.21702e-06
2.42062e-07
-2.42843e-07
-8.70581e-07
2.32459e-07
-2.34839e-07
8.706e-07
-2.19812e-07
-2.27072e-07
0.000262806
-1.18582e-06
0.000264765
-0.000262806
2.21889e-07
2.29266e-07
-1.22827e-09
2.20944e-09
0.00107719
-2.40355e-07
1.18591e-06
2.3947e-07
8.70822e-07
-2.3776e-07
2.35207e-07
-8.70677e-07
-1.49365e-09
-0.00107668
2.20164e-09
-1.18367e-06
2.39424e-07
-2.40265e-07
-8.70356e-07
2.3525e-07
8.70596e-07
-2.37491e-07
1.18593e-06
0.00107719
-1.33076e-09
-0.00107719
2.14975e-09
-1.18379e-06
2.39471e-07
-2.40332e-07
-8.70637e-07
2.35309e-07
-2.37583e-07
8.70818e-07
-0.000262819
2.24205e-07
2.29502e-07
1.22235e-06
1.18642e-06
-2.1957e-07
-2.27252e-07
0.000262824
-1.22452e-06
-1.18858e-06
0.000264786
-0.000262824
2.2171e-07
2.29444e-07
2.22713e-09
0.00107624
-2.45642e-07
1.22453e-06
2.44763e-07
8.7059e-07
-2.34826e-07
-8.7053e-07
2.3247e-07
-1.22775e-06
-1.09022e-09
2.21417e-09
0.00107667
-2.48411e-07
1.22994e-06
2.47543e-07
8.76129e-07
-2.37659e-07
-8.76109e-07
2.35236e-07
0.00107624
-1.23561e-09
-0.00107624
2.25419e-09
-1.22236e-06
2.44751e-07
-2.45659e-07
-8.70523e-07
2.32477e-07
-2.34816e-07
8.70598e-07
1.22993e-06
0.00107667
-1.12457e-09
-0.00107667
2.24497e-09
-1.22777e-06
2.47531e-07
-2.48428e-07
-8.76107e-07
2.35241e-07
-2.37652e-07
8.76135e-07
-2.2228e-07
-2.24555e-07
0.000262845
-1.19122e-06
0.000264815
-0.000262845
2.24469e-07
2.26751e-07
2.18304e-09
0.00107728
-2.43046e-07
1.18858e-06
2.42199e-07
8.73424e-07
-2.37608e-07
-8.73258e-07
2.35314e-07
-1.2224e-06
-1.1689e-09
2.19948e-09
0.00107635
-2.48397e-07
1.22459e-06
2.47525e-07
8.73284e-07
-2.37584e-07
-8.73257e-07
2.3522e-07
0.00107728
-1.31534e-09
-0.00107728
2.15934e-09
-1.18642e-06
2.42199e-07
-2.43048e-07
-8.73272e-07
2.3531e-07
-2.37609e-07
8.73419e-07
1.22457e-06
0.00107635
-1.18216e-09
-0.00107635
2.25372e-09
-1.22242e-06
2.47508e-07
-2.48418e-07
-8.73253e-07
2.35223e-07
-2.37579e-07
8.73288e-07
-1.21085e-09
2.16609e-09
0.00107615
-2.42859e-07
1.21924e-06
2.42047e-07
8.70602e-07
-2.3483e-07
2.32463e-07
-8.70576e-07
-1.33199e-09
-0.00107702
2.15353e-09
-1.18901e-06
2.39424e-07
-2.40265e-07
-8.70565e-07
2.32566e-07
8.7068e-07
-2.34857e-07
1.21923e-06
0.00107615
-1.22015e-09
-0.00107615
2.22923e-09
-1.21705e-06
2.42031e-07
-2.42881e-07
-8.70573e-07
2.32467e-07
-2.34828e-07
8.70609e-07
-2.19748e-07
-2.27061e-07
0.000262806
-1.18583e-06
0.000264765
-0.000262806
2.21898e-07
2.29243e-07
-1.27771e-09
2.14516e-09
0.00107719
-2.40333e-07
1.18593e-06
2.39471e-07
8.70797e-07
-2.37594e-07
2.35296e-07
-8.70661e-07
-1.38078e-09
-0.00107668
2.15859e-09
-1.18366e-06
2.39429e-07
-2.40262e-07
-8.70387e-07
2.35229e-07
8.70572e-07
-2.37511e-07
1.18594e-06
0.00107719
-1.20002e-09
-0.00107719
2.13397e-09
-1.18378e-06
2.39476e-07
-2.4033e-07
-8.70686e-07
2.35283e-07
-2.37613e-07
8.70786e-07
-0.000262819
2.24211e-07
2.29474e-07
1.22236e-06
1.18642e-06
-2.19571e-07
-2.27265e-07
0.000262824
-1.22452e-06
-1.18858e-06
0.000264786
-0.000262824
2.21709e-07
2.29442e-07
2.25643e-09
0.00107624
-2.4566e-07
1.22452e-06
2.4475e-07
8.70591e-07
-2.34821e-07
-8.70531e-07
2.32472e-07
-1.22777e-06
-1.12326e-09
2.24878e-09
0.00107667
-2.4843e-07
1.22993e-06
2.47529e-07
8.76135e-07
-2.3765e-07
-8.76105e-07
2.35243e-07
0.00107624
-1.23806e-09
-0.00107624
2.26097e-09
-1.22236e-06
2.44748e-07
-2.45662e-07
-8.70524e-07
2.32476e-07
-2.34817e-07
8.70598e-07
1.22993e-06
0.00107667
-1.12641e-09
-0.00107667
2.2558e-09
-1.22777e-06
2.47527e-07
-2.48432e-07
-8.76107e-07
2.35241e-07
-2.37652e-07
8.76134e-07
-2.22279e-07
-2.24574e-07
0.000262845
-1.19122e-06
0.000264815
-0.000262845
2.24467e-07
2.26747e-07
2.16496e-09
0.00107728
-2.43051e-07
1.18858e-06
2.42197e-07
8.73417e-07
-2.37616e-07
-8.73268e-07
2.35306e-07
-1.22242e-06
-1.18147e-09
2.26362e-09
0.00107635
-2.48419e-07
1.22457e-06
2.47507e-07
8.73289e-07
-2.37577e-07
-8.7325e-07
2.35226e-07
0.00107728
-1.30496e-09
-0.00107728
2.15356e-09
-1.18642e-06
2.42199e-07
-2.43048e-07
-8.73275e-07
2.35307e-07
-2.37612e-07
8.73417e-07
1.22457e-06
0.00107635
-1.17521e-09
-0.00107635
2.27259e-09
-1.22243e-06
2.47503e-07
-2.48424e-07
-8.73254e-07
2.35222e-07
-2.37579e-07
8.73286e-07
-1.21053e-09
2.2346e-09
0.00107615
-2.42883e-07
1.21922e-06
2.42028e-07
8.70606e-07
-2.34826e-07
2.32466e-07
-8.70572e-07
-1.31041e-09
-0.00107702
2.14923e-09
-1.18902e-06
2.39422e-07
-2.40267e-07
-8.70568e-07
2.32562e-07
8.70677e-07
-2.34862e-07
1.21922e-06
0.00107615
-1.20652e-09
-0.00107615
2.2495e-09
-1.21706e-06
2.42024e-07
-2.42888e-07
-8.70575e-07
2.32465e-07
-2.3483e-07
8.70606e-07
-2.19741e-07
-2.27079e-07
0.000262806
-1.18583e-06
0.000264765
-0.000262806
2.21897e-07
2.29239e-07
-1.20501e-09
2.13149e-09
0.00107719
-2.40328e-07
1.18593e-06
2.39475e-07
8.70784e-07
-2.37607e-07
2.35283e-07
-8.70673e-07
-1.35078e-09
-0.00107668
2.15719e-09
-1.18366e-06
2.39429e-07
-2.40261e-07
-8.7039e-07
2.35221e-07
8.70563e-07
-2.37516e-07
1.18593e-06
0.00107719
-1.17231e-09
-0.00107719
2.13659e-09
-1.18378e-06
2.39474e-07
-2.4033e-07
-8.70689e-07
2.35273e-07
-2.3762e-07
8.70776e-07
-0.000262819
2.24209e-07
2.29469e-07
1.22236e-06
1.18642e-06
-2.19571e-07
-2.27266e-07
0.000262824
-1.22452e-06
-1.18858e-06
0.000264786
-0.000262824
2.21709e-07
2.29442e-07
2.26057e-09
0.00107624
-2.45662e-07
1.22452e-06
2.44748e-07
8.70591e-07
-2.34822e-07
-8.70531e-07
2.32472e-07
-1.22777e-06
-1.1253e-09
2.25559e-09
0.00107667
-2.48433e-07
1.22993e-06
2.47526e-07
8.76135e-07
-2.3765e-07
-8.76105e-07
2.35243e-07
0.00107624
-1.23932e-09
-0.00107624
2.26318e-09
-1.22236e-06
2.44748e-07
-2.45663e-07
-8.70524e-07
2.32476e-07
-2.34817e-07
8.70598e-07
1.22993e-06
0.00107667
-1.13032e-09
-0.00107667
2.25506e-09
-1.22777e-06
2.47528e-07
-2.48432e-07
-8.76106e-07
2.35242e-07
-2.37651e-07
8.76136e-07
-2.22281e-07
-2.24576e-07
0.000262845
-1.19122e-06
0.000264815
-0.000262845
2.24468e-07
2.26748e-07
2.16078e-09
0.00107728
-2.4305e-07
1.18858e-06
2.42197e-07
8.73415e-07
-2.37618e-07
-8.7327e-07
2.35304e-07
-1.22243e-06
-1.17691e-09
2.27895e-09
0.00107635
-2.48424e-07
1.22457e-06
2.47502e-07
8.73288e-07
-2.37578e-07
-8.73252e-07
2.35225e-07
0.00107728
-1.30051e-09
-0.00107728
2.15195e-09
-1.18642e-06
2.42199e-07
-2.43048e-07
-8.73276e-07
2.35306e-07
-2.37613e-07
8.73416e-07
1.22457e-06
0.00107635
-1.17211e-09
-0.00107635
2.27805e-09
-1.22243e-06
2.47501e-07
-2.48426e-07
-8.73254e-07
2.35222e-07
-2.37579e-07
8.73286e-07
-1.20155e-09
2.25181e-09
0.00107615
-2.42888e-07
1.21922e-06
2.42022e-07
8.70603e-07
-2.34828e-07
2.32463e-07
-8.70574e-07
-1.30976e-09
-0.00107702
2.14495e-09
-1.18902e-06
2.39422e-07
-2.40267e-07
-8.70568e-07
2.32562e-07
8.70677e-07
-2.34862e-07
1.21922e-06
0.00107615
-1.20569e-09
-0.00107615
2.25534e-09
-1.21706e-06
2.42022e-07
-2.4289e-07
-8.70575e-07
2.32466e-07
-2.34829e-07
8.70606e-07
-2.19742e-07
-2.27084e-07
0.000262806
-1.18583e-06
0.000264765
-0.000262806
2.21896e-07
2.29238e-07
-1.17057e-09
2.13542e-09
0.00107719
-2.4033e-07
1.18593e-06
2.39474e-07
8.70777e-07
-2.37618e-07
2.35274e-07
-8.7068e-07
-1.34223e-09
-0.00107668
2.1578e-09
-1.18366e-06
2.39429e-07
-2.40261e-07
-8.70392e-07
2.35219e-07
8.70562e-07
-2.37519e-07
1.18593e-06
0.00107719
-1.16939e-09
-0.00107719
2.13692e-09
-1.18378e-06
2.39475e-07
-2.40331e-07
-8.70685e-07
2.35273e-07
-2.37622e-07
8.70777e-07
-0.000262819
2.24209e-07
2.29468e-07
1.22236e-06
1.18642e-06
-2.19572e-07
-2.27267e-07
0.000262824
-1.22452e-06
-1.18858e-06
0.000264786
-0.000262824
2.21708e-07
2.2944e-07
2.26339e-09
0.00107624
-2.45663e-07
1.22452e-06
2.44747e-07
8.70591e-07
-2.34822e-07
-8.70531e-07
2.32471e-07
-1.22777e-06
-1.12535e-09
2.25545e-09
0.00107667
-2.48434e-07
1.22993e-06
2.47526e-07
8.76135e-07
-2.3765e-07
-8.76105e-07
2.35243e-07
0.00107624
-1.23462e-09
-0.00107624
2.26606e-09
-1.22236e-06
2.44747e-07
-2.45664e-07
-8.70526e-07
2.32475e-07
-2.34818e-07
8.70597e-07
1.22993e-06
0.00107667
-1.12488e-09
-0.00107667
2.2552e-09
-1.22777e-06
2.47528e-07
-2.48433e-07
-8.76108e-07
2.3524e-07
-2.37653e-07
8.76134e-07
-2.22281e-07
-2.24576e-07
0.000262845
-1.19122e-06
0.000264815
-0.000262845
2.24468e-07
2.26748e-07
2.16031e-09
0.00107728
-2.43051e-07
1.18858e-06
2.42197e-07
8.73414e-07
-2.3762e-07
-8.73272e-07
2.35302e-07
-1.22243e-06
-1.17217e-09
2.28323e-09
0.00107635
-2.48426e-07
1.22456e-06
2.47501e-07
8.73287e-07
-2.37578e-07
-8.73253e-07
2.35225e-07
0.00107728
-1.29188e-09
-0.00107728
2.15259e-09
-1.18642e-06
2.42199e-07
-2.43049e-07
-8.73278e-07
2.35304e-07
-2.37616e-07
8.73414e-07
1.22456e-06
0.00107635
-1.16371e-09
-0.00107635
2.28388e-09
-1.22243e-06
2.47498e-07
-2.48429e-07
-8.73257e-07
2.3522e-07
-2.37581e-07
8.73284e-07
-1.20295e-09
2.25644e-09
0.00107615
-2.42889e-07
1.21922e-06
2.42021e-07
8.70604e-07
-2.34827e-07
2.32465e-07
-8.70574e-07
-1.30703e-09
-0.00107702
2.14577e-09
-1.18902e-06
2.39423e-07
-2.40267e-07
-8.70569e-07
2.32561e-07
8.70676e-07
-2.34863e-07
1.21922e-06
0.00107615
-1.20597e-09
-0.00107615
2.25924e-09
-1.21706e-06
2.42021e-07
-2.42891e-07
-8.70576e-07
2.32465e-07
-2.34829e-07
8.70605e-07
-2.19742e-07
-2.27085e-07
0.000262806
-1.18583e-06
0.000264765
-0.000262806
2.21894e-07
2.29235e-07
-1.15689e-09
2.13537e-09
0.00107719
-2.40329e-07
1.18593e-06
2.39474e-07
8.70775e-07
-2.3762e-07
2.35271e-07
-8.70684e-07
-1.33334e-09
-0.00107668
2.16593e-09
-1.18366e-06
2.39426e-07
-2.40264e-07
-8.70394e-07
2.35216e-07
8.7056e-07
-2.37522e-07
1.18593e-06
0.00107719
-1.16233e-09
-0.00107719
2.13935e-09
-1.18379e-06
2.39473e-07
-2.40332e-07
-8.70686e-07
2.3527e-07
-2.37624e-07
8.70776e-07
-0.000262819
2.24207e-07
2.29466e-07
1.22236e-06
1.18642e-06
-2.19573e-07
-2.27268e-07
0.000262824
-1.22452e-06
-1.18858e-06
0.000264786
-0.000262824
2.21708e-07
2.2944e-07
2.26615e-09
0.00107624
-2.45664e-07
1.22452e-06
2.44746e-07
8.70589e-07
-2.34824e-07
-8.70533e-07