/*--------------------------------*- C++ -*----------------------------------*\
| =========                 |                                                 |
| \\      /  F ield         | OpenFOAM: The Open Source CFD Toolbox           |
|  \\    /   O peration     | Version:  2206                                  |
|   \\  /    A nd           | Website:  www.openfoam.com                      |
|    \\/     M anipulation  |                                                 |
\*---------------------------------------------------------------------------*/
FoamFile
{
    version     2.0;
    format      ascii;
    arch        "LSB;label=32;scalar=64";
    class       volScalarField;
    location    "24";
    object      nut;
}
// * * * * * * * * * * * * * * * * * * * * * * * * * * * * * * * * * * * * * //

dimensions      [0 2 -1 0 0 0 0];

internalField   nonuniform List<scalar> 
28448
(
0.000223133
0.000200936
0.000200926
0.000177112
0.000223133
0.000200935
0.000200925
0.00017711
0.000223133
0.000200932
0.000200922
0.000177109
0.000223133
0.000200932
0.000200922
0.000177107
0.000223131
0.000200928
0.000200918
0.000177097
0.000223104
0.000200888
0.000200874
0.000177035
0.000223109
0.000200881
0.000200874
0.000177044
0.000223111
0.000200882
0.000200875
0.000177036
0.000223111
0.000200883
0.000200876
0.000177039
0.000223111
0.000200883
0.000200876
0.000177037
0.000223111
0.000200883
0.000200876
0.000177038
0.000223111
0.000200883
0.000200876
0.000177039
0.000223111
0.000200883
0.000200876
0.000177039
0.000223111
0.000200883
0.000200876
0.000177038
0.000223111
0.000200883
0.000200876
0.000177038
0.000223111
0.000200883
0.000200876
0.000177038
0.000223111
0.000200883
0.000200876
0.000177038
0.000223114
0.000200877
0.000177281
0.000200919
0.000200916
0.000177285
0.00020093
0.000200907
0.000200936
0.000200917
0.000177271
0.000200926
0.000200929
0.000177276
0.000177118
0.000177276
0.000200919
0.000200916
0.000200919
0.000200915
0.000177121
0.00017728
0.00020093
0.000200908
0.00020093
0.000200908
0.000200918
0.000200936
0.000200917
0.000177109
0.000177268
0.00020093
0.000200925
0.000200929
0.000177273
0.000177114
0.000177274
0.000200919
0.000200915
0.000200918
0.000200915
0.000177118
0.000177279
0.00020093
0.000200907
0.00020093
0.000200907
0.000200917
0.000200932
0.000200917
0.000177106
0.000177266
0.000200929
0.000200922
0.000200929
0.000177272
0.000177113
0.000177273
0.000200919
0.000200916
0.000200919
0.000200916
0.000177117
0.000177277
0.000200931
0.000200907
0.000200931
0.000200904
0.000200918
0.000200933
0.000200915
0.000177105
0.000177264
0.000200929
0.000200921
0.000200927
0.00017727
0.000177112
0.000177273
0.00020092
0.000200916
0.000200916
0.000200913
0.000177116
0.000177276
0.000200931
0.000200903
0.000200929
0.000200902
0.000200914
0.000200929
0.000200911
0.000177103
0.000177261
0.000200926
0.00020092
0.000200923
0.000177266
0.00017711
0.000177233
0.000200914
0.00020091
0.00020089
0.000200885
0.000177113
0.000177235
0.000200926
0.000200899
0.000200899
0.000200864
0.000200909
0.000200902
0.000200873
0.000177097
0.000177208
0.00020092
0.000200884
0.000200884
0.000177212
0.000177056
0.000177206
0.000200874
0.00020087
0.000200863
0.000200859
0.000177059
0.00017721
0.000200885
0.000200855
0.000200874
0.000200853
0.000200864
0.000200879
0.000200863
0.000177034
0.000177202
0.000200876
0.000200873
0.000200875
0.000177207
0.000177047
0.000177206
0.000200866
0.000200862
0.000200867
0.000200863
0.00017705
0.00017721
0.000200877
0.000200855
0.000200878
0.000200855
0.000200865
0.000200883
0.000200865
0.000177041
0.000177197
0.000200877
0.000200875
0.000200877
0.000177201
0.000177044
0.000177203
0.000200867
0.000200863
0.000200867
0.000200864
0.000177047
0.000177207
0.000200878
0.000200855
0.000200879
0.000200856
0.000200865
0.000200883
0.000200866
0.000177035
0.000177198
0.000200877
0.000200876
0.000200878
0.000177202
0.000177042
0.000177206
0.000200868
0.000200864
0.000200868
0.000200864
0.000177046
0.00017721
0.000200879
0.000200856
0.000200879
0.000200856
0.000200866
0.000200884
0.000200866
0.000177037
0.000177197
0.000200878
0.000200876
0.000200878
0.000177201
0.000177044
0.000177206
0.000200868
0.000200865
0.000200868
0.000200864
0.000177047
0.00017721
0.000200879
0.000200856
0.000200879
0.000200856
0.000200866
0.000200884
0.000200866
0.000177035
0.000177199
0.000200878
0.000200876
0.000200878
0.000177203
0.000177045
0.000177205
0.000200868
0.000200865
0.000200868
0.000200864
0.000177049
0.000177209
0.000200879
0.000200856
0.000200879
0.000200856
0.000200866
0.000200884
0.000200866
0.000177037
0.000177197
0.000200878
0.000200876
0.000200878
0.000177203
0.000177044
0.000177204
0.000200868
0.000200865
0.000200868
0.000200864
0.000177048
0.000177208
0.00020088
0.000200857
0.000200879
0.000200856
0.000200866
0.000200884
0.000200866
0.000177037
0.000177197
0.000200878
0.000200876
0.000200878
0.000177203
0.000177043
0.000177204
0.000200868
0.000200865
0.000200868
0.000200864
0.000177047
0.000177208
0.000200879
0.000200856
0.000200879
0.000200856
0.000200866
0.000200884
0.000200866
0.000177036
0.000177197
0.000200878
0.000200876
0.000200878
0.000177202
0.000177043
0.000177204
0.000200868
0.000200865
0.000200868
0.000200864
0.000177047
0.000177208
0.00020088
0.000200856
0.000200879
0.000200856
0.000200866
0.000200884
0.000200866
0.000177036
0.000177197
0.000200878
0.000200876
0.000200878
0.000177202
0.000177043
0.000177205
0.000200868
0.000200865
0.000200868
0.000200864
0.000177047
0.000177208
0.000200879
0.000200857
0.000200879
0.000200856
0.000200866
0.000200884
0.000200866
0.000177036
0.000177197
0.000200878
0.000200876
0.000200878
0.000177202
0.000177043
0.000177205
0.000200868
0.000200865
0.000200868
0.000200864
0.000177047
0.000177208
0.000200879
0.000200856
0.000200879
0.000200856
0.000200866
0.000200884
0.000200866
0.000177035
0.000177197
0.000200878
0.000200876
0.000200878
0.000177202
0.000177043
0.000177205
0.000200868
0.000200865
0.000200869
0.000177047
0.00020088
0.000200857
0.000200879
0.000200856
0.000200866
0.000200867
0.000177035
0.000177197
0.000200878
0.000200876
0.000200879
0.000177205
0.000177047
0.00020088
0.000200857
0.000177036
0.000223133
0.000223134
0.000223131
0.000223132
4.46231e-05
4.93383e-05
4.4614e-05
4.9337e-05
2.55518e-05
2.5551e-05
4.46311e-05
4.93339e-05
4.46225e-05
4.93326e-05
0.000223134
0.000223131
0.000223133
0.000223133
0.000223134
0.00022313
0.000223132
0.000104934
5.44572e-05
0.000215052
0.000200937
0.000104908
5.44737e-05
0.000215053
2.55487e-05
2.5548e-05
0.000104928
0.000215048
5.44593e-05
0.000200926
0.000104901
0.000215048
5.44751e-05
3.52405e-05
3.52345e-05
0.000177275
3.52436e-05
3.52376e-05
4.46259e-05
4.93372e-05
4.46178e-05
4.93363e-05
2.55505e-05
2.55502e-05
4.46325e-05
4.93329e-05
4.46256e-05
4.93319e-05
0.000223133
0.00022313
0.000223133
0.000223133
0.000223131
0.000223129
0.000223134
0.000104933
5.44602e-05
0.000215052
0.000200933
0.000104907
5.44766e-05
0.000215049
2.55477e-05
2.55474e-05
0.000104927
0.000215047
5.44621e-05
0.000200924
0.000104901
0.000215046
5.44779e-05
3.52446e-05
3.52388e-05
0.000177273
3.52499e-05
3.52441e-05
4.46291e-05
4.93368e-05
4.46198e-05
4.9336e-05
2.55501e-05
2.555e-05
4.46364e-05
4.93324e-05
4.46275e-05
4.93316e-05
0.000223134
0.000223129
0.000223134
0.000223133
0.000223136
0.000223128
0.000223131
0.000104936
5.4463e-05
0.000215049
0.000200933
0.000104907
5.44789e-05
0.000215049
2.55475e-05
2.55473e-05
0.000104929
0.000215046
5.44645e-05
0.000200922
0.000104901
0.000215045
5.44801e-05
3.52519e-05
3.52462e-05
0.000177272
3.52564e-05
3.52507e-05
4.46331e-05
4.93367e-05
4.46247e-05
4.9336e-05
2.55502e-05
2.55502e-05
4.46402e-05
4.93323e-05
4.46327e-05
4.93316e-05
0.000223135
0.000223128
0.000223131
0.000223132
0.000223131
0.000223128
0.00022313
0.000104939
5.44648e-05
0.00021505
0.000200931
0.000104912
5.44808e-05
0.00021505
2.55476e-05
2.55476e-05
0.000104931
0.000215046
5.44669e-05
0.000200921
0.000104904
0.000215046
5.44824e-05
3.52563e-05
3.52506e-05
0.000177271
3.52594e-05
3.52536e-05
4.46258e-05
4.93372e-05
4.46243e-05
4.93374e-05
2.55507e-05
2.55507e-05
4.4631e-05
4.93328e-05
4.46308e-05
4.93329e-05
0.000223131
0.000223127
0.000223129
0.000223113
0.000223113
0.000223103
0.000223104
0.00010492
5.44635e-05
0.000215048
0.000200925
0.000104905
5.44728e-05
0.000215044
2.55482e-05
2.5548e-05
0.000104912
0.000215044
5.44632e-05
0.000200913
0.000104897
0.000215039
5.44708e-05
3.52541e-05
3.52484e-05
0.000177248
3.52538e-05
3.52481e-05
4.46044e-05
4.93397e-05
4.46036e-05
4.93394e-05
2.55506e-05
2.55504e-05
4.46099e-05
4.93354e-05
4.46091e-05
4.9335e-05
0.000223104
0.0002231
0.000223101
0.000223105
0.000223106
0.000223106
0.000223108
0.000104862
5.44425e-05
0.000215011
0.000200881
0.000104849
5.44501e-05
0.000215009
2.55479e-05
2.55477e-05
0.000104857
0.000215007
5.44412e-05
0.000200872
0.000104839
0.000215006
5.445e-05
3.52447e-05
3.52392e-05
0.000177201
3.52435e-05
3.52378e-05
4.45976e-05
4.934e-05
4.45912e-05
4.93392e-05
2.55504e-05
2.55503e-05
4.46044e-05
4.93357e-05
4.45984e-05
4.93348e-05
0.00022311
0.000223108
0.00022311
0.000223111
0.000223112
0.000223108
0.00022311
0.000104868
5.44289e-05
0.000215014
0.000200882
0.00010484
5.4443e-05
0.000215015
2.55478e-05
2.55476e-05
0.00010486
0.000215012
5.44317e-05
0.000200875
0.000104833
0.000215013
5.44458e-05
3.52384e-05
3.52327e-05
0.000177206
3.52404e-05
3.52347e-05
4.45971e-05
4.93399e-05
4.45896e-05
4.93392e-05
2.55504e-05
2.55503e-05
4.4604e-05
4.93355e-05
4.45972e-05
4.93348e-05
0.000223111
0.000223108
0.00022311
0.000223111
0.000223112
0.000223108
0.00022311
0.000104866
5.44272e-05
0.000215015
0.000200883
0.00010484
5.44424e-05
0.000215015
2.55478e-05
2.55476e-05
0.00010486
0.000215012
5.44308e-05
0.000200876
0.000104834
0.000215013
5.44456e-05
3.52379e-05
3.52322e-05
0.000177201
3.52403e-05
3.52346e-05
4.45971e-05
4.93399e-05
4.45896e-05
4.93391e-05
2.55504e-05
2.55503e-05
4.46041e-05
4.93355e-05
4.45971e-05
4.93348e-05
0.000223112
0.000223109
0.00022311
0.000223111
0.000223112
0.000223108
0.00022311
0.000104867
5.44271e-05
0.000215015
0.000200884
0.00010484
5.44424e-05
0.000215015
2.55478e-05
2.55476e-05
0.000104861
0.000215013
5.44308e-05
0.000200876
0.000104835
0.000215013
5.44455e-05
3.52379e-05
3.52322e-05
0.000177204
3.52403e-05
3.52346e-05
4.45971e-05
4.93399e-05
4.45896e-05
4.93391e-05
2.55504e-05
2.55503e-05
4.46041e-05
4.93355e-05
4.45971e-05
4.93348e-05
0.000223112
0.000223109
0.00022311
0.000223111
0.000223112
0.000223109
0.00022311
0.000104865
5.44271e-05
0.000215015
0.000200884
0.00010484
5.44424e-05
0.000215015
2.55478e-05
2.55476e-05
0.00010486
0.000215013
5.44308e-05
0.000200876
0.000104835
0.000215013
5.44455e-05
3.52379e-05
3.52321e-05
0.000177203
3.52403e-05
3.52345e-05
4.45971e-05
4.93399e-05
4.45896e-05
4.93391e-05
2.55504e-05
2.55503e-05
4.4604e-05
4.93355e-05
4.45971e-05
4.93348e-05
0.000223112
0.000223109
0.00022311
0.000223111
0.000223112
0.000223109
0.00022311
0.000104866
5.44271e-05
0.000215015
0.000200884
0.00010484
5.44424e-05
0.000215015
2.55478e-05
2.55476e-05
0.000104858
0.000215013
5.44307e-05
0.000200876
0.000104833
0.000215013
5.44455e-05
3.52379e-05
3.52321e-05
0.000177202
3.52403e-05
3.52345e-05
4.45971e-05
4.93399e-05
4.45896e-05
4.93391e-05
2.55504e-05
2.55503e-05
4.4604e-05
4.93355e-05
4.45971e-05
4.93348e-05
0.000223112
0.000223109
0.000223111
0.000223111
0.000223112
0.000223108
0.00022311
0.000104867
5.44271e-05
0.000215015
0.000200884
0.000104839
5.44424e-05
0.000215016
2.55478e-05
2.55476e-05
0.000104857
0.000215013
5.44307e-05
0.000200876
0.000104831
0.000215013
5.44455e-05
3.52379e-05
3.52321e-05
0.000177202
3.52403e-05
3.52345e-05
4.45971e-05
4.93399e-05
4.45895e-05
4.93391e-05
2.55504e-05
2.55503e-05
4.4604e-05
4.93355e-05
4.45971e-05
4.93348e-05
0.000223112
0.000223109
0.00022311
0.000223111
0.000223112
0.000223108
0.00022311
0.000104865
5.44271e-05
0.000215015
0.000200884
0.000104841
5.44424e-05
0.000215016
2.55478e-05
2.55476e-05
0.000104856
0.000215013
5.44307e-05
0.000200876
0.00010483
0.000215013
5.44455e-05
3.52379e-05
3.52321e-05
0.000177203
3.52403e-05
3.52345e-05
4.45971e-05
4.93399e-05
4.45895e-05
4.93391e-05
2.55504e-05
2.55503e-05
4.4604e-05
4.93355e-05
4.45971e-05
4.93348e-05
0.000223112
0.000223109
0.00022311
0.000223111
0.000223112
0.000223108
0.00022311
0.000104867
5.44271e-05
0.000215015
0.000200884
0.000104839
5.44424e-05
0.000215016
2.55478e-05
2.55476e-05
0.000104856
0.000215013
5.44307e-05
0.000200876
0.00010483
0.000215013
5.44455e-05
3.52379e-05
3.52321e-05
0.000177203
3.52403e-05
3.52345e-05
4.45971e-05
4.93399e-05
4.45896e-05
4.93391e-05
2.55504e-05
2.55503e-05
4.4604e-05
4.93355e-05
4.45971e-05
4.93348e-05
0.000223112
0.000223109
0.00022311
0.000223111
0.000223112
0.000223108
0.00022311
0.000104864
5.44271e-05
0.000215015
0.000200884
0.00010484
5.44424e-05
0.000215016
2.55478e-05
2.55476e-05
0.000104855
0.000215013
5.44307e-05
0.000200876
0.000104829
0.000215013
5.44455e-05
3.52379e-05
3.52321e-05
0.000177203
3.52403e-05
3.52345e-05
4.45971e-05
4.93399e-05
4.45896e-05
4.93391e-05
2.55504e-05
2.55503e-05
4.4604e-05
4.93355e-05
4.45971e-05
4.93348e-05
0.000223112
0.000223109
0.00022311
0.000223111
0.000223112
0.000223108
0.00022311
0.000104867
5.44271e-05
0.000215015
0.000200884
0.000104839
5.44424e-05
0.000215015
2.55478e-05
2.55476e-05
0.000104855
0.000215012
5.44307e-05
0.000200876
0.000104829
0.000215013
5.44455e-05
3.52379e-05
3.52321e-05
0.000177203
3.52403e-05
3.52345e-05
4.45971e-05
4.93399e-05
4.45896e-05
4.93391e-05
2.55504e-05
2.55503e-05
4.46041e-05
4.93355e-05
4.45971e-05
4.93348e-05
0.000223112
0.000223109
0.00022311
0.000223112
0.000223114
0.000223109
0.000223111
0.000104867
5.44271e-05
0.000215015
0.000200883
0.000104841
5.44424e-05
0.000215016
2.55478e-05
2.55476e-05
0.000104855
0.000215012
5.44307e-05
0.000200876
0.000104829
0.000215013
5.44455e-05
3.52379e-05
3.52321e-05
0.000177203
3.52403e-05
3.52345e-05
4.93355e-05
4.45972e-05
0.00022311
2.55478e-05
5.44316e-05
2.5553e-05
2.5551e-05
3.52449e-05
3.52379e-05
4.93378e-05
4.4621e-05
4.93377e-05
4.46217e-05
5.44769e-05
0.000215051
0.000104937
5.44743e-05
0.000215051
0.000104938
2.55519e-05
3.52393e-05
3.52337e-05
2.55524e-05
4.93334e-05
4.46288e-05
5.44675e-05
0.000215051
0.000104944
4.46191e-05
4.93303e-05
4.93322e-05
4.46266e-05
0.000104912
0.000200907
0.000215046
5.44612e-05
0.000215047
5.44458e-05
0.000104937
0.00010491
5.4472e-05
0.000215052
0.000215052
0.000104935
4.46128e-05
4.93361e-05
4.46209e-05
0.00010491
0.000200917
0.00021505
5.44732e-05
0.00021505
5.44585e-05
0.000104935
4.46124e-05
4.93339e-05
4.93357e-05
4.46206e-05
2.55487e-05
2.55496e-05
0.000177087
3.52277e-05
3.5243e-05
3.52239e-05
3.52421e-05
2.55513e-05
2.55521e-05
0.000104902
0.000200927
0.000215048
5.44737e-05
0.000215049
5.4459e-05
0.000104928
0.00010491
0.000200929
0.000215049
5.447e-05
0.000215049
5.44551e-05
0.000104935
4.46118e-05
4.93336e-05
4.93354e-05
4.462e-05
4.46182e-05
4.93335e-05
4.93353e-05
4.46257e-05
0.000177091
3.52431e-05
3.52371e-05
3.52422e-05
3.52359e-05
2.55511e-05
2.55519e-05
2.55501e-05
2.55509e-05
2.55529e-05
2.55521e-05
2.55509e-05
2.55501e-05
3.52421e-05
3.52351e-05
0.000177277
3.5244e-05
3.52372e-05
2.55516e-05
2.55521e-05
2.55496e-05
2.55501e-05
0.000177116
3.5246e-05
3.52391e-05
3.5242e-05
3.52351e-05
4.46239e-05
4.93381e-05
4.46158e-05
4.93369e-05
0.000104937
5.4464e-05
0.000215051
0.000200919
0.000104912
5.44785e-05
0.000215051
0.000104938
5.44611e-05
0.00021505
0.000200916
0.000104913
5.4476e-05
0.00021505
4.46171e-05
4.93366e-05
4.93376e-05
4.4625e-05
4.46179e-05
4.93365e-05
4.93374e-05
4.46257e-05
0.000104912
0.000200919
5.44799e-05
0.000215051
5.44655e-05
0.000215052
0.000104937
0.000104913
0.000200916
5.44774e-05
0.00021505
5.44627e-05
0.000215051
0.000104938
3.52369e-05
3.52318e-05
0.000177282
3.52399e-05
3.52363e-05
2.55525e-05
2.55516e-05
2.55505e-05
2.5551e-05
0.000177119
3.52416e-05
3.52378e-05
3.5238e-05
3.52341e-05
2.55511e-05
2.55517e-05
0.000104943
5.44538e-05
0.000215051
0.000200931
0.000104921
5.44691e-05
0.00021505
4.46286e-05
4.93308e-05
4.46213e-05
4.93297e-05
0.000104939
0.000215047
5.44475e-05
0.000200908
0.000104914
0.000215047
5.44629e-05
4.46257e-05
4.93322e-05
4.93332e-05
4.46324e-05
0.000104919
0.000200931
5.44705e-05
0.00021505
5.44554e-05
0.00021505
0.000104942
4.46231e-05
4.93294e-05
4.93303e-05
4.46294e-05
0.000104914
0.000200908
0.000215047
5.44643e-05
0.000215047
5.44491e-05
0.000104939
4.46228e-05
4.93366e-05
4.46148e-05
4.93353e-05
0.000104937
0.000215051
5.446e-05
0.000200918
0.000104912
0.000215051
5.44747e-05
4.46227e-05
4.93343e-05
4.46146e-05
4.93333e-05
0.000104911
0.000200936
5.44751e-05
0.000215052
5.44601e-05
0.000215052
0.000104934
4.46167e-05
4.93349e-05
4.93359e-05
4.46242e-05
0.000104912
0.000200918
0.00021505
5.44762e-05
0.000215051
5.44615e-05
0.000104937
4.46166e-05
4.93329e-05
4.93339e-05
4.46244e-05
3.52255e-05
3.52405e-05
0.00017727
3.52298e-05
3.52434e-05
2.55513e-05
2.55506e-05
2.55476e-05
2.55481e-05
0.000177108
3.52314e-05
3.52461e-05
3.52274e-05
3.52416e-05
2.55502e-05
2.55507e-05
0.000104937
0.000215049
5.44567e-05
0.00020093
0.000104912
0.000215049
5.44715e-05
4.4622e-05
4.93341e-05
4.46139e-05
4.93331e-05
4.46276e-05
4.9334e-05
4.46204e-05
4.9333e-05
0.000104903
0.000200926
0.000215047
5.44766e-05
0.000215048
5.4462e-05
0.000104929
0.000104913
0.00020093
0.000215049
5.4473e-05
0.000215049
5.44582e-05
0.000104937
4.46158e-05
4.93327e-05
4.93336e-05
4.46234e-05
4.46221e-05
4.93326e-05
4.93335e-05
4.46285e-05
2.55511e-05
2.55504e-05
2.555e-05
2.55494e-05
0.000177113
3.52462e-05
3.52403e-05
3.52417e-05
3.52358e-05
2.55501e-05
2.55505e-05
2.5549e-05
2.55495e-05
2.55517e-05
2.55513e-05
2.55497e-05
2.55493e-05
3.52444e-05
3.52375e-05
0.000177276
3.52495e-05
3.52425e-05
2.55511e-05
2.55514e-05
2.55491e-05
2.55494e-05
0.000177114
3.52535e-05
3.52464e-05
3.52482e-05
3.52411e-05
4.46265e-05
4.9337e-05
4.46195e-05
4.93361e-05
0.00010494
5.44669e-05
0.000215049
0.000200919
0.000104914
5.44813e-05
0.000215048
0.000104941
5.4464e-05
0.000215048
0.000200915
0.000104915
5.44787e-05
0.000215048
4.46196e-05
4.93361e-05
4.93368e-05
4.46269e-05
4.46202e-05
4.93359e-05
4.93367e-05
4.46274e-05
0.000104916
0.000200919
5.44825e-05
0.000215048
5.44683e-05
0.000215048
0.000104939
0.000104917
0.000200915
5.44799e-05
0.000215047
5.44654e-05
0.000215047
0.000104939
3.52399e-05
3.52355e-05
0.00017728
3.52444e-05
3.52405e-05
2.55512e-05
2.55508e-05
2.555e-05
2.55503e-05
0.000177118
3.52481e-05
3.5245e-05
3.5243e-05
3.52389e-05
2.55506e-05
2.55509e-05
0.000104941
5.44567e-05
0.00021505
0.00020093
0.000104919
5.44719e-05
0.000215049
4.463e-05
4.933e-05
4.46237e-05
4.93291e-05
0.00010494
0.000215045
5.44505e-05
0.000200907
0.000104915
0.000215044
5.44658e-05
4.46269e-05
4.93317e-05
4.93325e-05
4.46337e-05
0.000104916
0.00020093
5.44732e-05
0.00021505
5.44582e-05
0.00021505
0.00010494
4.46246e-05
4.9329e-05
4.93298e-05
4.4632e-05
0.000104916
0.000200907
0.000215044
5.44673e-05
0.000215044
5.44521e-05
0.00010494
4.46248e-05
4.93355e-05
4.46178e-05
4.93346e-05
0.000104936
0.000215048
5.44631e-05
0.000200917
0.000104912
0.000215048
5.44777e-05
4.46252e-05
4.93335e-05
4.46181e-05
4.93327e-05
0.00010491
0.000200933
5.4478e-05
0.000215049
5.4463e-05
0.000215049
0.000104934
4.46186e-05
4.93344e-05
4.93353e-05
4.46263e-05
0.000104913
0.000200917
0.000215047
5.44788e-05
0.000215047
5.44645e-05
0.000104936
4.4619e-05
4.93325e-05
4.93333e-05
4.46267e-05
3.52293e-05
3.52447e-05
0.000177268
3.52348e-05
3.525e-05
2.55503e-05
2.555e-05
2.55473e-05
2.55476e-05
0.000177107
3.52386e-05
3.52538e-05
3.5233e-05
3.52487e-05
2.55499e-05
2.55502e-05
0.000104935
0.000215047
5.44597e-05
0.000200929
0.000104912
0.000215046
5.44745e-05
4.46239e-05
4.93333e-05
4.46168e-05
4.93324e-05
4.4629e-05
4.93332e-05
4.46227e-05
4.93323e-05
0.000104903
0.000200924
0.000215046
5.44791e-05
0.000215046
5.44648e-05
0.000104928
0.000104912
0.000200929
0.000215046
5.44756e-05
0.000215046
5.44611e-05
0.000104936
4.46175e-05
4.93323e-05
4.9333e-05
4.46255e-05
4.46235e-05
4.93322e-05
4.93329e-05
4.46309e-05
2.55502e-05
2.55499e-05
2.55491e-05
2.55488e-05
0.000177111
3.52536e-05
3.52479e-05
3.52485e-05
3.52428e-05
2.55498e-05
2.555e-05
2.55487e-05
2.5549e-05
2.55513e-05
2.55511e-05
2.55493e-05
2.55491e-05
3.52522e-05
3.5245e-05
0.000177274
3.52569e-05
3.52497e-05
2.55511e-05
2.55512e-05
2.55491e-05
2.55493e-05
0.000177113
3.52594e-05
3.52522e-05
3.52553e-05
3.52481e-05
4.46295e-05
4.93365e-05
4.46214e-05
4.93358e-05
0.00010494
5.44694e-05
0.000215048
0.000200919
0.000104914
5.44835e-05
0.000215048
0.00010494
5.44665e-05
0.000215048
0.000200916
0.000104915
5.44808e-05
0.000215048
4.46233e-05
4.93359e-05
4.93366e-05
4.46316e-05
4.46237e-05
4.93358e-05
4.93365e-05
4.4632e-05
0.000104916
0.000200919
5.44846e-05
0.000215049
5.44704e-05
0.000215049
0.000104942
0.000104916
0.000200916
5.44819e-05
0.000215049
5.44674e-05
0.000215048
0.000104941
3.52468e-05
3.52433e-05
0.000177279
3.52514e-05
3.52483e-05
2.55508e-05
2.55506e-05
2.555e-05
2.55502e-05
0.000177117
3.52539e-05
3.52504e-05
3.52498e-05
3.52462e-05
2.55507e-05
2.55508e-05
0.000104944
5.44593e-05
0.000215049
0.000200931
0.000104918
5.44741e-05
0.000215049
4.46348e-05
4.93297e-05
4.46269e-05
4.93289e-05
0.000104941
0.000215044
5.44536e-05
0.000200907
0.000104916
0.000215044
5.44686e-05
4.46313e-05
4.93315e-05
4.93322e-05
4.46391e-05
0.000104921
0.000200931
5.44752e-05
0.000215052
5.44603e-05
0.00021505
0.000104945
4.46296e-05
4.9329e-05
4.93297e-05
4.46372e-05
0.000104917
0.000200906
0.000215045
5.44697e-05
0.000215043
5.44548e-05
0.000104943
4.46287e-05
4.93351e-05
4.46204e-05
4.93343e-05
0.000104939
0.000215047
5.44655e-05
0.000200917
0.000104912
0.000215047
5.44798e-05
4.46289e-05
4.93332e-05
4.46207e-05
4.93325e-05
0.000104912
0.000200932
5.44798e-05
0.000215049
5.44652e-05
0.000215049
0.000104938
4.46229e-05
4.93343e-05
4.9335e-05
4.4631e-05
0.000104915
0.000200916
0.000215048
5.44811e-05
0.000215046
5.44666e-05
0.00010494
4.4623e-05
4.93325e-05
4.93331e-05
4.46311e-05
3.52366e-05
3.52523e-05
0.000177266
3.52414e-05
3.52567e-05
2.55501e-05
2.555e-05
2.55474e-05
2.55476e-05
0.000177105
3.52432e-05
3.52586e-05
3.52392e-05
3.52549e-05
2.55501e-05
2.55501e-05
0.000104939
0.000215044
5.44622e-05
0.000200929
0.000104913
0.000215044
5.44767e-05
4.46279e-05
4.93329e-05
4.46195e-05
4.93322e-05
4.46337e-05
4.93328e-05
4.46258e-05
4.93321e-05
0.000104905
0.000200921
0.000215045
5.44813e-05
0.000215045
5.44669e-05
0.000104932
0.000104915
0.000200929
0.000215046
5.44779e-05
0.000215045
5.44633e-05
0.000104941
4.4622e-05
4.93322e-05
4.93329e-05
4.46302e-05
4.46285e-05
4.93322e-05
4.93328e-05
4.46361e-05
2.55499e-05
2.55498e-05
2.55489e-05
2.55488e-05
0.00017711
3.52584e-05
3.52526e-05
3.52547e-05
3.5249e-05
2.55499e-05
2.555e-05
2.55489e-05
2.55489e-05
2.55513e-05
2.55513e-05
2.55494e-05
2.55493e-05
3.52576e-05
3.52503e-05
0.000177275
3.52609e-05
3.52536e-05
2.55516e-05
2.55515e-05
2.55496e-05
2.55495e-05
0.000177113
3.52606e-05
3.52533e-05
3.52589e-05
3.52515e-05
4.46336e-05
4.93365e-05
4.46261e-05
4.93358e-05
0.000104943
5.44716e-05
0.000215051
0.000200919
0.000104919
5.44859e-05
0.000215051
0.000104945
5.44685e-05
0.00021505
0.000200916
0.000104918
5.44832e-05
0.00021505
4.46268e-05
4.93363e-05
4.93367e-05
4.46327e-05
4.46272e-05
4.93361e-05
4.93365e-05
4.46332e-05
0.000104918
0.000200917
5.44854e-05
0.00021505
5.44728e-05
0.00021505
0.000104939
0.00010492
0.000200914
5.44827e-05
0.00021505
5.44697e-05
0.000215051
0.00010494
3.52521e-05
3.52481e-05
0.000177279
3.52554e-05
3.52516e-05
2.55509e-05
2.55508e-05
2.55505e-05
2.55504e-05
0.000177117
3.5255e-05
3.52509e-05
3.52533e-05
3.52491e-05
2.55511e-05
2.55511e-05
0.000104943
5.44614e-05
0.000215052
0.000200931
0.000104921
5.44765e-05
0.000215051
4.46382e-05
4.93297e-05
4.46319e-05
4.93291e-05
0.000104943
0.000215047
5.4456e-05
0.000200903
0.00010492
0.000215047
5.44706e-05
4.46343e-05
4.93318e-05
4.93323e-05
4.46389e-05
0.000104916
0.00020093
5.4476e-05
0.000215049
5.44627e-05
0.000215051
0.000104937
4.46324e-05
4.93297e-05
4.93299e-05
4.46361e-05
0.000104916
0.000200903
0.000215045
5.44674e-05
0.000215047
5.44562e-05
0.000104934
4.4632e-05
4.9335e-05
4.46249e-05
4.93343e-05
0.000104938
0.000215048
5.4468e-05
0.000200913
0.000104916
0.000215049
5.44822e-05
4.46316e-05
4.93331e-05
4.46249e-05
4.93326e-05
0.000104916
0.00020093
5.448e-05
0.00021505
5.4467e-05
0.000215051
0.000104934
4.46256e-05
4.93344e-05
4.9335e-05
4.46298e-05
0.000104911
0.000200913
0.000215048
5.44792e-05
0.000215049
5.44685e-05
0.000104932
4.46251e-05
4.93332e-05
4.93333e-05
4.46291e-05
3.52407e-05
3.52566e-05
0.000177265
3.5244e-05
3.52595e-05
2.55503e-05
2.55502e-05
2.5548e-05
2.55479e-05
0.000177104
3.52421e-05
3.52577e-05
3.52411e-05
3.52571e-05
2.55506e-05
2.55505e-05
0.000104939
0.000215047
5.44646e-05
0.000200925
0.000104917
0.000215048
5.4479e-05
4.4631e-05
4.93329e-05
4.4624e-05
4.93323e-05
4.46367e-05
4.93328e-05
4.46306e-05
4.93322e-05
0.000104907
0.000200921
0.000215046
5.44798e-05
0.000215047
5.44688e-05
0.000104927
0.000104911
0.000200924
0.000215046
5.4476e-05
0.000215047
5.44652e-05
0.000104931
4.46244e-05
4.93329e-05
4.9333e-05
4.46288e-05
4.46308e-05
4.93328e-05
4.9333e-05
4.4634e-05
2.55501e-05
2.555e-05
2.55491e-05
2.5549e-05
0.000177109
3.52575e-05
3.52518e-05
3.52569e-05
3.52512e-05
2.55504e-05
2.55503e-05
2.55494e-05
2.55493e-05
2.55518e-05
2.55518e-05
2.55499e-05
2.55498e-05
3.52577e-05
3.52503e-05
0.000177262
3.52574e-05
3.52501e-05
2.55517e-05
2.5552e-05
2.55497e-05
2.555e-05
0.000177094
3.52532e-05
3.52461e-05
3.5254e-05
3.52468e-05
4.46265e-05
4.93369e-05
4.46259e-05
4.93371e-05
0.000104927
5.44711e-05
0.000215049
0.000200911
0.00010491
5.44791e-05
0.000215046
0.000104928
5.44681e-05
0.000215049
0.000200907
0.000104911
5.44765e-05
0.000215046
4.46162e-05
4.93388e-05
4.93384e-05
4.46142e-05
4.46169e-05
4.93385e-05
4.93381e-05
4.46148e-05
0.000104898
0.000200905
5.44678e-05
0.000215027
5.4463e-05
0.000215041
0.000104905
0.000104898
0.000200901
5.44652e-05
0.000215026
5.44601e-05
0.000215041
0.000104905
3.52521e-05
3.52474e-05
0.000177265
3.52517e-05
3.52476e-05
2.55514e-05
2.55514e-05
2.55506e-05
2.55509e-05
0.000177096
3.52476e-05
3.52439e-05
3.52483e-05
3.52439e-05
2.55512e-05
2.55515e-05
0.000104926
5.44609e-05
0.000215048
0.000200923
0.000104909
5.44696e-05
0.000215044
4.46267e-05
4.93307e-05
4.46285e-05
4.93309e-05
0.000104923
0.000215043
5.44514e-05
0.000200894
0.000104905
0.000215039
5.44584e-05
4.46218e-05
4.93344e-05
4.9334e-05
4.46189e-05
0.000104897
0.000200916
5.44583e-05
0.00021502
5.44528e-05
0.000215037
0.000104897
4.46175e-05
4.9332e-05
4.93319e-05
4.46153e-05
0.000104892
0.000200881
0.000215012
5.44463e-05
0.000215027
5.44412e-05
0.000104889
4.46197e-05
4.93353e-05
4.46212e-05
4.93355e-05
0.000104918
0.000215046
5.44638e-05
0.000200903
0.000104903
0.000215041
5.44701e-05
4.46189e-05
4.93341e-05
4.46205e-05
4.93344e-05
0.000104889
0.000200918
5.4461e-05
0.000215018
5.44559e-05
0.000215034
0.000104884
4.46099e-05
4.9337e-05
4.93366e-05
4.46087e-05
0.000104887
0.000200889
0.000215013
5.4458e-05
0.000215028
5.44535e-05
0.00010488
4.46091e-05
4.93355e-05
4.93354e-05
4.46079e-05
3.52383e-05
3.52544e-05
0.000177244
3.52382e-05
3.52541e-05
2.55508e-05
2.55506e-05
2.55478e-05
2.55482e-05
0.000177071
3.52332e-05
3.5249e-05
3.52342e-05
3.52506e-05
2.55504e-05
2.55507e-05
0.000104918
0.000215044
5.44604e-05
0.000200915
0.000104902
0.000215039
5.44669e-05
4.46189e-05
4.93338e-05
4.46202e-05
4.93342e-05
4.4624e-05
4.93337e-05
4.46261e-05
4.93341e-05
0.000104881
0.0002009
0.000215012
5.44588e-05
0.000215026
5.44543e-05
0.000104875
0.000104887
0.000200901
0.000215011
5.44548e-05
0.000215025
5.44501e-05
0.00010488
4.4609e-05
4.93353e-05
4.93352e-05
4.4608e-05
4.46151e-05
4.93353e-05
4.93351e-05
4.46133e-05
2.55506e-05
2.55504e-05
2.55496e-05
2.55494e-05
0.000177075
3.52487e-05
3.52431e-05
3.52502e-05
3.52446e-05
2.55502e-05
2.55505e-05
2.55492e-05
2.55495e-05
2.55518e-05
2.55515e-05
2.55498e-05
2.55495e-05
3.52495e-05
3.52424e-05
0.000177205
3.52473e-05
3.52403e-05
2.55514e-05
2.55516e-05
2.55494e-05
2.55496e-05
0.000177038
3.52432e-05
3.52361e-05
3.52436e-05
3.52366e-05
4.46051e-05
4.93394e-05
4.46053e-05
4.93392e-05
0.000104864
5.44512e-05
0.000215013
0.000200866
0.00010487
5.44563e-05
0.000215009
0.000104865
5.44483e-05
0.000215012
0.000200863
0.000104871
5.44537e-05
0.000215008
4.45962e-05
4.93393e-05
4.934e-05
4.45994e-05
4.45968e-05
4.93391e-05
4.93398e-05
4.46002e-05
0.000104837
0.000200862
5.44506e-05
0.00021501
5.44409e-05
0.000215007
0.000104864
0.000104838
0.000200858
5.4448e-05
0.000215009
5.4438e-05
0.000215006
0.000104865
3.52439e-05
3.52401e-05
0.000177209
3.52418e-05
3.52383e-05
2.55513e-05
2.5551e-05
2.55503e-05
2.55506e-05
0.000177042
3.52375e-05
3.52334e-05
3.5238e-05
3.52344e-05
2.55509e-05
2.55512e-05
0.000104863
5.4441e-05
0.00021501
0.000200877
0.000104862
5.4447e-05
0.000215007
4.46074e-05
4.93328e-05
4.46069e-05
4.93322e-05
0.000104862
0.000215005
5.44293e-05
0.000200852
0.000104855
0.000215004
5.44374e-05
4.46025e-05
4.93349e-05
4.93357e-05
4.46058e-05
0.00010484
0.000200873
5.44413e-05
0.000215009
5.44308e-05
0.000215006
0.000104866
4.46003e-05
4.93321e-05
4.93329e-05
4.4604e-05
0.000104838
0.000200851
0.000215008
5.44341e-05
0.000215004
5.44221e-05
0.000104865
4.46013e-05
4.93379e-05
4.45997e-05
4.93376e-05
0.000104861
0.000215008
5.44416e-05
0.000200862
0.000104847
0.000215008
5.44494e-05
4.46008e-05
4.93363e-05
4.4599e-05
4.93357e-05
0.000104839
0.000200878
5.44449e-05
0.000215012
5.44342e-05
0.00021501
0.000104867
4.45937e-05
4.93375e-05
4.93383e-05
4.45983e-05
0.000104838
0.000200861
0.000215012
5.44462e-05
0.000215009
5.44346e-05
0.000104864
4.45932e-05
4.93356e-05
4.93364e-05
4.45978e-05
3.52289e-05
3.52452e-05
0.000177195
3.52276e-05
3.52438e-05
2.55505e-05
2.55503e-05
2.55476e-05
2.55479e-05
0.000177034
3.5225e-05
3.52413e-05
3.52238e-05
3.52405e-05
2.55502e-05
2.55504e-05
0.000104862
0.000215006
5.44383e-05
0.000200873
0.000104847
0.000215006