/*--------------------------------*- C++ -*----------------------------------*\
| =========                 |                                                 |
| \\      /  F ield         | OpenFOAM: The Open Source CFD Toolbox           |
|  \\    /   O peration     | Version:  2206                                  |
|   \\  /    A nd           | Website:  www.openfoam.com                      |
|    \\/     M anipulation  |                                                 |
\*---------------------------------------------------------------------------*/
FoamFile
{
    version     2.0;
    format      ascii;
    arch        "LSB;label=32;scalar=64";
    class       volScalarField;
    location    "1";
    object      epsilon;
}
// * * * * * * * * * * * * * * * * * * * * * * * * * * * * * * * * * * * * * //

dimensions      [0 2 -3 0 0 0 0];

internalField   nonuniform List<scalar> 
28688
(
5.24447e-07
5.24511e-07
5.2451e-07
5.2452e-07
5.24426e-07
5.24443e-07
5.24443e-07
5.24447e-07
5.24426e-07
5.24443e-07
5.24443e-07
5.24445e-07
5.24426e-07
5.24443e-07
5.24443e-07
5.24445e-07
5.24426e-07
5.24443e-07
5.24443e-07
5.24445e-07
5.24426e-07
5.24443e-07
5.24443e-07
5.24445e-07
5.24426e-07
5.24443e-07
5.24443e-07
5.24445e-07
5.24426e-07
5.24443e-07
5.24443e-07
5.24445e-07
5.24426e-07
5.24443e-07
5.24443e-07
5.24445e-07
5.24426e-07
5.24443e-07
5.24443e-07
5.24445e-07
5.24426e-07
5.24443e-07
5.24443e-07
5.24445e-07
5.24426e-07
5.24443e-07
5.24443e-07
5.24445e-07
5.24542e-07
5.24487e-07
5.24487e-07
5.24542e-07
5.24488e-07
5.24487e-07
5.24589e-07
5.24589e-07
5.24589e-07
5.24589e-07
5.24487e-07
5.24487e-07
5.24542e-07
5.24487e-07
5.24487e-07
5.24543e-07
5.24531e-07
5.24446e-07
5.24513e-07
5.24513e-07
5.24443e-07
5.24443e-07
5.24531e-07
5.24446e-07
5.24513e-07
5.24513e-07
5.24443e-07
5.24443e-07
5.24513e-07
5.24443e-07
5.24443e-07
5.2453e-07
5.24446e-07
5.24513e-07
5.24443e-07
5.24443e-07
5.24447e-07
5.24457e-07
5.24445e-07
5.24446e-07
5.24447e-07
5.24442e-07
5.24442e-07
5.24457e-07
5.24446e-07
5.24446e-07
5.24447e-07
5.24442e-07
5.24442e-07
5.24447e-07
5.24443e-07
5.24442e-07
5.24457e-07
5.24446e-07
5.24446e-07
5.24443e-07
5.24442e-07
5.24443e-07
5.24457e-07
5.24446e-07
5.24446e-07
5.24448e-07
5.24442e-07
5.24442e-07
5.24458e-07
5.24446e-07
5.24446e-07
5.24447e-07
5.24442e-07
5.24442e-07
5.24446e-07
5.24443e-07
5.24442e-07
5.24458e-07
5.24446e-07
5.24447e-07
5.24443e-07
5.24442e-07
5.24444e-07
5.24457e-07
5.24446e-07
5.24447e-07
5.24448e-07
5.24442e-07
5.24442e-07
5.24457e-07
5.24446e-07
5.24448e-07
5.24447e-07
5.24442e-07
5.24442e-07
5.24447e-07
5.24443e-07
5.24442e-07
5.24458e-07
5.24446e-07
5.24447e-07
5.24443e-07
5.24442e-07
5.24444e-07
5.24457e-07
5.24446e-07
5.24448e-07
5.24447e-07
5.24442e-07
5.24442e-07
5.24458e-07
5.24446e-07
5.24448e-07
5.24447e-07
5.24442e-07
5.24442e-07
5.24447e-07
5.24443e-07
5.24442e-07
5.24458e-07
5.24446e-07
5.24448e-07
5.24443e-07
5.24442e-07
5.24444e-07
5.24456e-07
5.24446e-07
5.24448e-07
5.24447e-07
5.24442e-07
5.24442e-07
5.24458e-07
5.24446e-07
5.24448e-07
5.24447e-07
5.24442e-07
5.24442e-07
5.24447e-07
5.24443e-07
5.24442e-07
5.24458e-07
5.24446e-07
5.24448e-07
5.24443e-07
5.24442e-07
5.24444e-07
5.24457e-07
5.24446e-07
5.24448e-07
5.24447e-07
5.24442e-07
5.24442e-07
5.24458e-07
5.24446e-07
5.24448e-07
5.24447e-07
5.24442e-07
5.24442e-07
5.24447e-07
5.24443e-07
5.24442e-07
5.24458e-07
5.24446e-07
5.24448e-07
5.24443e-07
5.24442e-07
5.24444e-07
5.24458e-07
5.24446e-07
5.24446e-07
5.24447e-07
5.24442e-07
5.24442e-07
5.24458e-07
5.24446e-07
5.24448e-07
5.24447e-07
5.24442e-07
5.24442e-07
5.24447e-07
5.24443e-07
5.24442e-07
5.24458e-07
5.24446e-07
5.24448e-07
5.24443e-07
5.24442e-07
5.24444e-07
5.24458e-07
5.24446e-07
5.24446e-07
5.24447e-07
5.24442e-07
5.24442e-07
5.24457e-07
5.24446e-07
5.24448e-07
5.24447e-07
5.24442e-07
5.24442e-07
5.24447e-07
5.24443e-07
5.24442e-07
5.24458e-07
5.24446e-07
5.24448e-07
5.24443e-07
5.24442e-07
5.24444e-07
5.24458e-07
5.24446e-07
5.24446e-07
5.24447e-07
5.24442e-07
5.24442e-07
5.24458e-07
5.24446e-07
5.24448e-07
5.24447e-07
5.24442e-07
5.24442e-07
5.24447e-07
5.24443e-07
5.24442e-07
5.24458e-07
5.24446e-07
5.24448e-07
5.24443e-07
5.24442e-07
5.24444e-07
5.24458e-07
5.24446e-07
5.24447e-07
5.24446e-07
5.24442e-07
5.24442e-07
5.24458e-07
5.24446e-07
5.24448e-07
5.24447e-07
5.24442e-07
5.24442e-07
5.24447e-07
5.24443e-07
5.24442e-07
5.24457e-07
5.24446e-07
5.24448e-07
5.24443e-07
5.24442e-07
5.24444e-07
5.24457e-07
5.24454e-07
5.24447e-07
5.24447e-07
5.24444e-07
5.24458e-07
5.24448e-07
5.24447e-07
5.24444e-07
5.24444e-07
5.24447e-07
5.24444e-07
5.24458e-07
5.24454e-07
5.24448e-07
5.24446e-07
5.24444e-07
5.24454e-07
5.34958e-07
5.34901e-07
5.34946e-07
5.34946e-07
5.34688e-07
5.34841e-07
5.33423e-07
5.34926e-07
5.34688e-07
5.34841e-07
5.34926e-07
5.33422e-07
5.34618e-07
5.36053e-07
5.36054e-07
6.77226e-07
3.68432e-06
7.28794e-07
3.85885e-06
8.93351e-06
9.44364e-06
6.77192e-07
3.68465e-06
7.28859e-07
3.85922e-06
5.24449e-07
5.24449e-07
5.24449e-07
5.24426e-07
5.24426e-07
5.24426e-07
5.24426e-07
5.29956e-07
7.60433e-07
5.24449e-07
5.24462e-07
5.3245e-07
6.45425e-07
5.24434e-07
8.93419e-06
9.44437e-06
5.29957e-07
5.24449e-07
7.60421e-07
5.24463e-07
5.32448e-07
5.24433e-07
6.45399e-07
1.21052e-06
1.21079e-06
5.24457e-07
8.45924e-07
8.46001e-07
6.70965e-07
3.86391e-06
6.71261e-07
3.86399e-06
9.46043e-06
9.4604e-06
6.70997e-07
3.86431e-06
6.7131e-07
3.86439e-06
5.24431e-07
5.24431e-07
5.2443e-07
5.24426e-07
5.24426e-07
5.24426e-07
5.24426e-07
5.29517e-07
6.34393e-07
5.24427e-07
5.24447e-07
5.29537e-07
6.34117e-07
5.24432e-07
9.46141e-06
9.46144e-06
5.29517e-07
5.24427e-07
6.34377e-07
5.24447e-07
5.2954e-07
5.24431e-07
6.34127e-07
8.31069e-07
8.31161e-07
5.24449e-07
8.30849e-07
8.30941e-07
6.70948e-07
3.86407e-06
6.71043e-07
3.86405e-06
9.46041e-06
9.46031e-06
6.70937e-07
3.8644e-06
6.71002e-07
3.86439e-06
5.24431e-07
5.24429e-07
5.24431e-07
5.24426e-07
5.24426e-07
5.24426e-07
5.24426e-07
5.29516e-07
6.3421e-07
5.24427e-07
5.24448e-07
5.29522e-07
6.34099e-07
5.24432e-07
9.46155e-06
9.46145e-06
5.29514e-07
5.24427e-07
6.34205e-07
5.24448e-07
5.29519e-07
5.24432e-07
6.341e-07
8.30875e-07
8.30968e-07
5.24448e-07
8.30825e-07
8.30919e-07
6.70944e-07
3.86409e-06
6.71041e-07
3.86405e-06
9.46038e-06
9.46029e-06
6.70933e-07
3.86444e-06
6.7099e-07
3.86442e-06
5.2443e-07
5.24431e-07
5.24429e-07
5.24426e-07
5.24426e-07
5.24426e-07
5.24426e-07
5.29514e-07
6.34208e-07
5.24427e-07
5.24448e-07
5.29523e-07
6.34099e-07
5.24432e-07
9.46153e-06
9.46144e-06
5.29513e-07
5.24427e-07
6.3418e-07
5.24447e-07
5.29522e-07
5.24432e-07
6.34091e-07
8.30908e-07
8.30978e-07
5.24448e-07
8.3084e-07
8.30926e-07
6.70944e-07
3.86405e-06
6.71041e-07
3.86403e-06
9.46033e-06
9.46025e-06
6.70933e-07
3.86444e-06
6.7099e-07
3.86442e-06
5.24429e-07
5.24431e-07
5.2443e-07
5.24426e-07
5.24426e-07
5.24426e-07
5.24426e-07
5.29514e-07
6.34208e-07
5.24427e-07
5.24448e-07
5.29523e-07
6.34098e-07
5.24432e-07
9.46153e-06
9.46144e-06
5.29515e-07
5.24427e-07
6.34179e-07
5.24447e-07
5.29521e-07
5.24432e-07
6.34091e-07
8.30905e-07
8.30977e-07
5.24448e-07
8.3084e-07
8.30925e-07
6.70944e-07
3.86405e-06
6.7104e-07
3.86403e-06
9.46042e-06
9.46049e-06
6.70933e-07
3.86444e-06
6.7099e-07
3.86442e-06
5.24429e-07
5.24429e-07
5.2443e-07
5.24426e-07
5.24426e-07
5.24426e-07
5.24426e-07
5.29514e-07
6.34208e-07
5.24427e-07
5.24448e-07
5.29523e-07
6.34098e-07
5.24432e-07
9.46154e-06
9.46144e-06
5.29515e-07
5.24427e-07
6.3418e-07
5.24447e-07
5.29521e-07
5.24432e-07
6.34091e-07
8.30905e-07
8.30975e-07
5.24448e-07
8.3084e-07
8.30922e-07
6.70944e-07
3.86405e-06
6.71041e-07
3.86403e-06
9.46051e-06
9.46043e-06
6.70933e-07
3.86444e-06
6.7099e-07
3.86442e-06
5.24429e-07
5.24429e-07
5.2443e-07
5.24426e-07
5.24426e-07
5.24426e-07
5.24426e-07
5.29515e-07
6.34208e-07
5.24427e-07
5.24448e-07
5.29522e-07
6.34098e-07
5.24432e-07
9.46154e-06
9.46144e-06
5.29515e-07
5.24427e-07
6.3418e-07
5.24447e-07
5.29521e-07
5.24432e-07
6.34091e-07
8.30905e-07
8.30973e-07
5.24448e-07
8.3084e-07
8.30924e-07
6.70944e-07
3.86405e-06
6.71041e-07
3.86403e-06
9.46052e-06
9.46044e-06
6.70933e-07
3.86444e-06
6.7099e-07
3.86442e-06
5.24429e-07
5.2443e-07
5.2443e-07
5.24426e-07
5.24426e-07
5.24426e-07
5.24426e-07
5.29514e-07
6.34208e-07
5.24427e-07
5.24448e-07
5.29523e-07
6.34098e-07
5.24432e-07
9.46154e-06
9.46144e-06
5.29515e-07
5.24427e-07
6.34179e-07
5.24447e-07
5.29521e-07
5.24432e-07
6.34091e-07
8.30905e-07
8.30976e-07
5.24448e-07
8.3084e-07
8.30924e-07
6.70944e-07
3.86405e-06
6.71041e-07
3.86403e-06
9.46052e-06
9.46044e-06
6.70933e-07
3.86444e-06
6.7099e-07
3.86442e-06
5.24429e-07
5.24429e-07
5.2443e-07
5.24426e-07
5.24426e-07
5.24426e-07
5.24426e-07
5.29514e-07
6.34208e-07
5.24427e-07
5.24448e-07
5.29523e-07
6.34098e-07
5.24432e-07
9.46154e-06
9.46145e-06
5.29515e-07
5.24427e-07
6.34179e-07
5.24447e-07
5.29521e-07
5.24432e-07
6.34091e-07
8.30905e-07
8.30975e-07
5.24448e-07
8.3084e-07
8.30926e-07
6.70944e-07
3.86403e-06
6.71041e-07
3.86401e-06
9.46053e-06
9.46044e-06
6.70933e-07
3.86442e-06
6.7099e-07
3.8644e-06
5.24429e-07
5.2443e-07
5.2443e-07
5.24426e-07
5.24426e-07
5.24426e-07
5.24426e-07
5.29516e-07
6.34208e-07
5.24427e-07
5.24448e-07
5.29522e-07
6.34098e-07
5.24432e-07
9.46154e-06
9.46144e-06
5.29513e-07
5.24427e-07
6.34179e-07
5.24447e-07
5.29522e-07
5.24432e-07
6.34091e-07
8.30905e-07
8.30969e-07
5.24448e-07
8.3084e-07
8.30916e-07
6.70945e-07
3.86401e-06
6.71041e-07
3.86399e-06
9.46049e-06
9.46043e-06
6.70933e-07
3.86442e-06
6.7099e-07
3.8644e-06
5.24429e-07
5.24429e-07
5.2443e-07
5.24426e-07
5.24426e-07
5.24426e-07
5.24426e-07
5.29514e-07
6.34208e-07
5.24427e-07
5.24448e-07
5.29523e-07
6.34098e-07
5.24432e-07
9.46154e-06
9.46144e-06
5.29513e-07
5.24427e-07
6.34179e-07
5.24447e-07
5.29522e-07
5.24432e-07
6.34091e-07
8.30905e-07
8.30969e-07
5.24448e-07
8.3084e-07
8.30919e-07
6.70944e-07
3.864e-06
6.71041e-07
3.86399e-06
9.46048e-06
9.46043e-06
6.70933e-07
3.86442e-06
6.7099e-07
3.8644e-06
5.24429e-07
5.2443e-07
5.2443e-07
5.2443e-07
5.24432e-07
5.24428e-07
5.24428e-07
5.29514e-07
6.34208e-07
5.24427e-07
5.24448e-07
5.29523e-07
6.34099e-07
5.24432e-07
9.46154e-06
9.46144e-06
5.29515e-07
5.24427e-07
6.34179e-07
5.24447e-07
5.29521e-07
5.24432e-07
6.34091e-07
8.30905e-07
8.30971e-07
5.24448e-07
8.3084e-07
8.30918e-07
5.34618e-07
5.36056e-07
5.36054e-07
8.10139e-06
5.79517e-07
8.10205e-06
5.79511e-07
5.28269e-07
1.46403e-06
1.46452e-06
5.42024e-07
5.4202e-07
5.34688e-07
5.3484e-07
5.33427e-07
5.34926e-07
5.34688e-07
5.3484e-07
5.33425e-07
5.34926e-07
5.29875e-07
3.34534e-06
5.70044e-07
7.30494e-07
5.29874e-07
3.34543e-06
5.70043e-07
7.30509e-07
5.28258e-07
5.2837e-07
7.69511e-07
5.24589e-07
5.33118e-07
5.28441e-07
5.31816e-07
5.28258e-07
5.2837e-07
7.69599e-07
5.24589e-07
5.33118e-07
5.28441e-07
5.31817e-07
5.34618e-07
5.36055e-07
5.36054e-07
8.10157e-06
5.79502e-07
5.28269e-07
1.46422e-06
1.46435e-06
5.42023e-07
5.42021e-07
8.10179e-06
5.79495e-07
5.34688e-07
5.3484e-07
5.33427e-07
5.34926e-07
5.34687e-07
5.34841e-07
5.34926e-07
5.33425e-07
5.29875e-07
3.3456e-06
5.70041e-07
7.30581e-07
5.28258e-07
5.2837e-07
7.69637e-07
5.24589e-07
5.33117e-07
5.28441e-07
5.31822e-07
5.29875e-07
3.34573e-06
5.70039e-07
7.30456e-07
5.28258e-07
5.2837e-07
5.24589e-07
7.69591e-07
5.28441e-07
5.33117e-07
5.31816e-07
5.34958e-07
5.34901e-07
5.34946e-07
5.34946e-07
5.34958e-07
5.34901e-07
5.34946e-07
5.34946e-07
5.34958e-07
5.34901e-07
5.34946e-07
5.34946e-07
5.28477e-07
5.28422e-07
5.2459e-07
5.2459e-07
5.28461e-07
5.28461e-07
5.24591e-07
5.28477e-07
5.28421e-07
5.2459e-07
5.2459e-07
5.28461e-07
5.28461e-07
5.24591e-07
5.28477e-07
5.28421e-07
5.2459e-07
5.2459e-07
5.28461e-07
5.28461e-07
5.24591e-07
5.28476e-07
5.28422e-07
5.2459e-07
5.2459e-07
5.28461e-07
5.28461e-07
5.24591e-07
5.34688e-07
5.3484e-07
5.34926e-07
5.33421e-07
5.28258e-07
5.2837e-07
7.69612e-07
5.24589e-07
5.33117e-07
5.28441e-07
5.31824e-07
5.29876e-07
3.34553e-06
5.70038e-07
7.305e-07
5.28258e-07
5.28369e-07
5.24589e-07
7.69586e-07
5.2844e-07
5.33117e-07
5.31819e-07
5.29875e-07
3.34563e-06
5.70041e-07
7.30416e-07
5.34618e-07
5.36054e-07
5.36052e-07
8.10211e-06
5.79515e-07
5.28269e-07
1.46427e-06
1.46439e-06
5.42019e-07
5.42017e-07
8.102e-06
5.79484e-07
5.34688e-07
5.3484e-07
5.34926e-07
5.33422e-07
5.28258e-07
5.2837e-07
5.24589e-07
7.69648e-07
5.28441e-07
5.33118e-07
5.31822e-07
5.28258e-07
5.28369e-07
5.2459e-07
7.69687e-07
5.2844e-07
5.33118e-07
5.31824e-07
5.29875e-07
3.34566e-06
5.7004e-07
7.30443e-07
5.29876e-07
3.34571e-06
5.70047e-07
7.30539e-07
5.28269e-07
1.46433e-06
1.46462e-06
5.42018e-07
5.42023e-07
8.1019e-06
5.79495e-07
8.10205e-06
5.79511e-07
8.93214e-06
9.44303e-06
8.93296e-06
9.44416e-06
1.21012e-06
1.21036e-06
5.24453e-07
8.45994e-07
8.46117e-07
9.45956e-06
9.45364e-06
9.46067e-06
9.45465e-06
5.2446e-07
8.31146e-07
8.31259e-07
8.35495e-07
8.35636e-07
6.77187e-07
3.68437e-06
7.28796e-07
3.85898e-06
5.2995e-07
7.60259e-07
5.24451e-07
5.24462e-07
5.32453e-07
6.45425e-07
5.24432e-07
5.2995e-07
7.6034e-07
5.24452e-07
5.24462e-07
5.32459e-07
6.45521e-07
5.24432e-07
6.73975e-07
3.8638e-06
3.86187e-06
6.714e-07
6.7402e-07
3.86391e-06
3.86197e-06
6.71413e-07
5.29737e-07
5.24444e-07
6.34399e-07
5.24427e-07
6.38637e-07
5.24427e-07
5.29536e-07
5.29739e-07
5.24444e-07
6.3447e-07
5.24427e-07
6.38643e-07
5.24427e-07
5.29539e-07
1.21035e-06
1.21002e-06
5.24453e-07
8.46147e-07
8.45972e-07
8.93252e-06
9.44326e-06
9.46032e-06
9.45414e-06
5.24459e-07
8.31262e-07
8.31132e-07
8.35589e-07
8.35516e-07
9.45967e-06
9.45372e-06
5.2995e-07
7.60409e-07
5.24452e-07
5.24462e-07
5.32457e-07
6.45495e-07
5.24432e-07
6.77211e-07
3.68478e-06
7.28709e-07
3.85935e-06
5.29953e-07
5.24452e-07
7.60332e-07
5.24462e-07
5.32456e-07
5.24432e-07
6.45506e-07
6.74023e-07
3.86419e-06
3.86222e-06
6.71461e-07
5.29738e-07
5.24444e-07
6.34452e-07
5.24427e-07
6.38682e-07
5.24427e-07
5.29538e-07
6.74038e-07
3.86434e-06
3.86239e-06
6.71448e-07
5.29739e-07
5.24444e-07
5.24427e-07
6.34488e-07
5.24427e-07
6.38658e-07
5.2954e-07
6.77211e-07
3.68462e-06
7.28765e-07
3.85901e-06
5.29955e-07
5.24452e-07
7.60283e-07
5.24462e-07
5.32446e-07
5.24432e-07
6.45443e-07
6.77216e-07
3.68468e-06
7.28679e-07
3.85919e-06
5.29737e-07
5.24444e-07
6.34411e-07
5.24427e-07
6.38631e-07
5.24428e-07
5.29542e-07
6.74015e-07
3.86392e-06
3.86201e-06
6.71398e-07
5.29735e-07
5.24444e-07
5.24427e-07
6.34443e-07
5.24427e-07
6.38591e-07
5.29542e-07
6.73971e-07
3.86407e-06
3.86217e-06
6.71437e-07
1.21027e-06
1.21003e-06
5.24453e-07
8.46117e-07
8.45911e-07
8.93293e-06
9.44376e-06
9.46128e-06
9.45497e-06
5.24459e-07
8.31305e-07
8.31163e-07
8.35652e-07
8.35551e-07
9.46031e-06
9.45433e-06
5.29957e-07
5.24451e-07
7.60392e-07
5.24462e-07
5.32453e-07
5.24432e-07
6.45479e-07
6.77269e-07
3.68473e-06
7.28723e-07
3.85919e-06
6.77288e-07
3.68472e-06
7.28794e-07
3.85925e-06
5.29736e-07
5.24445e-07
5.24427e-07
6.34422e-07
5.24427e-07
6.38633e-07
5.29543e-07
5.29736e-07
5.24444e-07
5.24427e-07
6.34468e-07
5.24427e-07
6.38669e-07
5.29544e-07
6.73936e-07
3.86416e-06
3.8622e-06
6.71453e-07
6.73946e-07
3.86422e-06
3.86226e-06
6.71457e-07
8.93264e-06
9.44372e-06
8.93301e-06
9.44409e-06
5.2446e-07
8.31178e-07
8.31252e-07
8.35448e-07
8.35615e-07
9.4601e-06
9.45415e-06
9.46071e-06
9.4546e-06
9.45883e-06
9.46002e-06
9.4599e-06
9.46121e-06
8.30896e-07
8.31027e-07
5.24445e-07
8.30872e-07
8.30988e-07
9.46013e-06
9.45931e-06
9.46108e-06
9.46042e-06
5.24455e-07
8.30876e-07
8.30945e-07
8.30656e-07
8.30788e-07
6.70993e-07
3.86391e-06
6.71214e-07
3.86415e-06
5.29509e-07
6.34374e-07
5.24432e-07
5.24445e-07
5.29538e-07
6.3412e-07
5.2443e-07
5.29512e-07
6.34407e-07
5.24431e-07
5.24445e-07
5.29541e-07
6.34166e-07
5.24429e-07
6.70963e-07
3.86406e-06
3.86382e-06
6.70997e-07
6.7099e-07
3.86413e-06
3.86403e-06
6.70999e-07
5.29523e-07
5.24442e-07
6.34143e-07
5.24427e-07
6.34121e-07
5.24426e-07
5.29513e-07
5.29524e-07
5.24442e-07
6.34142e-07
5.24427e-07
6.34166e-07
5.24426e-07
5.29515e-07
8.31003e-07
8.3089e-07
5.24445e-07
8.30977e-07
8.30856e-07
9.45975e-06
9.46008e-06
9.46051e-06
9.45945e-06
5.24455e-07
8.30934e-07
8.30865e-07
8.3077e-07
8.30724e-07
9.46006e-06
9.45923e-06
5.2951e-07
6.34428e-07
5.24432e-07
5.24445e-07
5.2954e-07
6.34174e-07
5.2443e-07
6.71031e-07
3.86437e-06
6.71254e-07
3.86462e-06
5.29514e-07
5.24432e-07
6.34432e-07
5.24445e-07
5.29541e-07
5.2443e-07
6.34189e-07
6.70912e-07
3.86439e-06
3.86425e-06
6.70965e-07
5.2952e-07
5.24442e-07
6.34146e-07
5.24427e-07
6.34177e-07
5.24427e-07
5.29512e-07
6.70984e-07
3.86462e-06
3.86451e-06
6.70972e-07
5.29525e-07
5.24442e-07
5.24427e-07
6.34183e-07
5.24427e-07
6.34199e-07
5.29514e-07
6.71014e-07
3.86393e-06
6.71206e-07
3.86417e-06
5.29514e-07
5.24432e-07
6.34383e-07
5.24445e-07
5.2954e-07
5.24429e-07
6.34156e-07
6.70994e-07
3.86417e-06
6.71229e-07
3.86435e-06
5.29522e-07
5.24443e-07
6.34132e-07
5.24427e-07
6.34135e-07
5.24428e-07
5.29515e-07
6.7094e-07
3.86416e-06
3.86406e-06
6.70975e-07
5.29521e-07
5.24442e-07
5.24427e-07
6.34123e-07
5.24427e-07
6.34158e-07
5.29515e-07
6.71001e-07
3.86437e-06
3.86421e-06
6.70971e-07
8.31061e-07
8.30853e-07
5.24445e-07
8.31024e-07
8.30868e-07
9.46009e-06
9.4608e-06
9.46154e-06
9.4607e-06
5.24455e-07
8.31022e-07
8.30862e-07
8.30861e-07
8.30679e-07
9.46062e-06
9.45974e-06
5.29514e-07
5.24432e-07
6.34409e-07
5.24445e-07
5.2954e-07
5.2443e-07
6.3417e-07
6.71039e-07
3.86414e-06
6.71246e-07
3.86439e-06
6.71004e-07
3.86421e-06
6.71249e-07
3.86448e-06
5.29523e-07
5.24444e-07
5.24427e-07
6.34121e-07
5.24428e-07
6.34131e-07
5.29515e-07
5.29521e-07
5.24442e-07
5.24427e-07
6.3415e-07
5.24426e-07
6.34171e-07
5.29514e-07
6.70983e-07
3.86436e-06
3.86427e-06
6.7096e-07
6.70958e-07
3.86447e-06
3.86436e-06
6.70954e-07
9.45945e-06
9.4609e-06
9.46009e-06
9.4614e-06
5.24456e-07
8.30851e-07
8.30944e-07
8.30683e-07
8.30772e-07
9.46069e-06
9.45954e-06
9.46118e-06
9.46055e-06
9.45916e-06
9.46023e-06
9.45994e-06
9.4612e-06
8.30881e-07
8.30765e-07
5.24445e-07
8.30944e-07
8.30966e-07
9.46001e-06
9.45915e-06
9.46107e-06
9.46047e-06
5.24456e-07
8.30901e-07
8.3095e-07
8.30771e-07
8.3083e-07
6.70983e-07
3.86391e-06
6.70999e-07
3.86414e-06
5.2951e-07
6.34165e-07
5.2443e-07
5.24445e-07
5.29521e-07
6.34136e-07
5.24429e-07
5.29512e-07
6.34146e-07
5.24431e-07
5.24446e-07
5.29526e-07
6.34145e-07
5.24429e-07
6.70994e-07
3.86409e-06
3.86391e-06
6.70995e-07
6.7098e-07
3.86411e-06
3.86395e-06
6.70996e-07
5.29523e-07
5.24442e-07
6.34133e-07
5.24427e-07
6.34149e-07
5.24427e-07
5.29513e-07
5.29524e-07
5.24442e-07
6.34141e-07
5.24427e-07
6.34149e-07
5.24426e-07
5.29515e-07
8.30761e-07
8.30894e-07
5.24446e-07
8.30956e-07
8.30932e-07
9.45906e-06
9.46016e-06
9.46046e-06
9.45944e-06
5.24456e-07
8.30949e-07
8.30888e-07
8.30821e-07
8.30774e-07
9.46e-06
9.45904e-06
5.29507e-07
6.34149e-07
5.24432e-07
5.24445e-07
5.2952e-07
6.34163e-07
5.2443e-07
6.70967e-07
3.86443e-06
6.70959e-07
3.86463e-06
5.29512e-07
5.24432e-07
6.34202e-07
5.24445e-07
5.29523e-07
5.2443e-07
6.34191e-07
6.70869e-07
3.86443e-06
3.86426e-06
6.70955e-07
5.29517e-07
5.24442e-07
6.34164e-07
5.24427e-07
6.34181e-07
5.24426e-07
5.2951e-07
6.70954e-07
3.86461e-06
3.86446e-06
6.7097e-07
5.29523e-07
5.24442e-07
5.24427e-07
6.34184e-07
5.24426e-07
6.34202e-07
5.29514e-07
6.70993e-07
3.86401e-06
6.70998e-07
3.86418e-06
5.29513e-07
5.24432e-07
6.34126e-07
5.24445e-07
5.29523e-07
5.2443e-07
6.34121e-07
6.70989e-07
3.86415e-06
6.70991e-07
3.86439e-06
5.29522e-07
5.24444e-07
6.34131e-07
5.24427e-07
6.34159e-07
5.24428e-07
5.29516e-07
6.70993e-07
3.86415e-06
3.86403e-06
6.70996e-07
5.2952e-07
5.24442e-07
5.24427e-07
6.34123e-07
5.24426e-07
6.34127e-07
5.29516e-07
6.70986e-07
3.86435e-06
3.86417e-06
6.70997e-07
8.31032e-07
8.30674e-07
5.24445e-07
8.31086e-07
8.30896e-07
9.45941e-06
9.46079e-06
9.46152e-06
9.46063e-06
5.24455e-07
8.31046e-07
8.30871e-07
8.3092e-07
8.30749e-07
9.46059e-06
9.45958e-06
5.29512e-07
5.2443e-07
6.34153e-07
5.24445e-07
5.29521e-07
5.24429e-07
6.34153e-07
6.70962e-07
3.86418e-06
6.70881e-07
3.86442e-06
6.70962e-07
3.86426e-06
6.70884e-07
3.86449e-06
5.29521e-07
5.24444e-07
5.24427e-07
6.34118e-07
5.24428e-07
6.34103e-07
5.29515e-07
5.29519e-07
5.24442e-07
5.24427e-07
6.34151e-07
5.24426e-07
6.34158e-07
5.29514e-07
6.70948e-07
3.86439e-06
3.86422e-06
6.70966e-07
6.70903e-07
3.86446e-06
3.86427e-06
6.70956e-07
9.45933e-06
9.46086e-06
9.45992e-06
9.46131e-06
5.24456e-07
8.30893e-07
8.30955e-07
8.30744e-07
8.30837e-07
9.46067e-06
9.45959e-06
9.46112e-06
9.46004e-06
9.45886e-06
9.46015e-06
9.46004e-06
9.46123e-06
8.30774e-07
8.30771e-07
5.24446e-07
8.30938e-07
8.30966e-07
9.45983e-06
9.45925e-06
9.46107e-06
9.46044e-06
5.24456e-07
8.30851e-07
8.3095e-07
8.30714e-07
8.30829e-07
6.70983e-07
3.86388e-06
6.70997e-07
3.86414e-06
5.29509e-07
6.34155e-07
5.24432e-07
5.24445e-07
5.29521e-07
6.34135e-07
5.2443e-07
5.29512e-07
6.34145e-07
5.2443e-07
5.24446e-07
5.29526e-07
6.34144e-07
5.24429e-07
6.70992e-07
3.86404e-06
3.86386e-06
6.70995e-07
6.70983e-07
3.86411e-06
3.86395e-06
6.70995e-07
5.29523e-07
5.24442e-07
6.34109e-07
5.24427e-07
6.34138e-07
5.24427e-07
5.29513e-07
5.29524e-07
5.24442e-07
6.34141e-07
5.24427e-07
6.34146e-07
5.24426e-07
5.29515e-07
8.30769e-07
8.30888e-07
5.24445e-07
8.30945e-07
8.30932e-07
9.45881e-06
9.46015e-06
9.46032e-06
9.45949e-06
5.24455e-07
8.30944e-07
8.30889e-07
8.30788e-07
8.30777e-07
9.46e-06
9.45901e-06
5.29507e-07
6.34165e-07
5.2443e-07
5.24445e-07
5.29518e-07
6.34147e-07
5.24429e-07
6.70966e-07
3.86439e-06
6.70953e-07
3.86463e-06
5.29512e-07
5.24431e-07
6.34199e-07
5.24445e-07
5.29523e-07
5.24429e-07
6.34189e-07
6.70893e-07
3.86443e-06
3.86428e-06
6.70956e-07
5.29518e-07
5.24442e-07
6.34142e-07
5.24427e-07
6.34149e-07
5.24426e-07
5.29511e-07
6.70954e-07
3.8646e-06
3.86444e-06
6.7097e-07
5.29523e-07
5.24442e-07
5.24427e-07
6.34184e-07
5.24426e-07
6.34202e-07
5.29514e-07
6.70991e-07
3.86396e-06
6.70955e-07
3.86418e-06
5.29513e-07
5.2443e-07
6.34126e-07
5.24445e-07
5.29523e-07
5.24429e-07
6.34122e-07
6.70986e-07
3.86412e-06
6.70976e-07
3.86438e-06
5.2952e-07
5.24444e-07
6.3413e-07
5.24427e-07
6.34158e-07
5.24428e-07
5.29516e-07
6.70991e-07
3.86415e-06
3.864e-06
6.70997e-07
5.2952e-07
5.24442e-07
5.24427e-07
6.34123e-07
5.24426e-07
6.34127e-07
5.29516e-07
6.70985e-07
3.86435e-06
3.86417e-06
6.70997e-07
8.30925e-07
8.30686e-07
5.24445e-07
8.31083e-07
8.3087e-07
9.45918e-06
9.46076e-06
9.46152e-06
9.46064e-06
5.24455e-07
8.31046e-07
8.30858e-07
8.30923e-07
8.30709e-07
9.46058e-06
9.45946e-06
5.29512e-07
5.2443e-07
6.34153e-07
5.24445e-07
5.29522e-07
5.24429e-07
6.3415e-07
6.7097e-07
3.86417e-06
6.70934e-07
3.86442e-06
6.70965e-07
3.86422e-06
6.709e-07
3.86449e-06
5.2952e-07
5.24444e-07
5.24427e-07
6.34118e-07
5.24428e-07
6.34116e-07
5.29515e-07
5.29519e-07
5.24442e-07
5.24427e-07
6.34151e-07
5.24426e-07
6.34156e-07
5.29514e-07
6.7095e-07
3.86439e-06
3.86422e-06
6.70965e-07
6.70907e-07
3.86446e-06
3.86427e-06
6.70957e-07
9.45928e-06
9.46085e-06
9.45973e-06
9.4613e-06
5.24456e-07
8.30888e-07
8.30953e-07
8.30741e-07
8.30834e-07
9.46067e-06
9.45958e-06
9.46112e-06
9.46003e-06
9.45931e-06
9.45998e-06
9.45997e-06
9.46122e-06
8.30685e-07
8.3077e-07
5.24446e-07
8.30864e-07
8.30967e-07
9.45988e-06
9.45909e-06
9.46107e-06
9.46042e-06
5.24457e-07
8.30851e-07
8.3095e-07
8.30758e-07
8.30835e-07
6.70982e-07
3.86388e-06
6.7098e-07
3.86414e-06
5.29509e-07
6.34112e-07
5.24432e-07
5.24446e-07
5.29521e-07
6.34114e-07
5.2443e-07
5.29512e-07
6.34144e-07
5.24431e-07
5.24445e-07
5.29525e-07
6.34143e-07
5.24429e-07
6.70992e-07
3.86404e-06
3.8639e-06
6.70995e-07
6.70983e-07
3.86411e-06
3.86394e-06
6.70995e-07
5.29523e-07
5.24442e-07
6.34107e-07
5.24427e-07
6.3412e-07
5.24427e-07
5.29513e-07
5.29524e-07
5.24442e-07
6.3414e-07
5.24427e-07
6.34146e-07
5.24426e-07
5.29515e-07
8.30811e-07
8.30868e-07
5.24445e-07
8.30948e-07
8.30932e-07
9.4588e-06
9.46015e-06
9.46049e-06
9.46036e-06
5.24455e-07
8.30931e-07
8.30889e-07
8.30775e-07
8.30777e-07
9.46e-06
9.459e-06
5.29507e-07
6.34148e-07
5.24431e-07
5.24446e-07
5.29519e-07
6.34168e-07
5.2443e-07
6.70966e-07
3.86438e-06
6.70953e-07
3.86463e-06
5.29512e-07
5.24431e-07
6.34199e-07
5.24445e-07
5.29523e-07
5.24429e-07
6.34189e-07
6.70893e-07
3.86443e-06
3.86428e-06
6.70956e-07
5.29518e-07
5.24442e-07
6.34161e-07
5.24427e-07
6.34173e-07
5.24426e-07
5.29511e-07
6.70954e-07
3.8646e-06
3.86444e-06
6.7097e-07
5.29523e-07
5.24442e-07
5.24427e-07
6.34184e-07
5.24426e-07
6.34202e-07
5.29513e-07
6.70991e-07
3.86395e-06
6.70957e-07
3.86418e-06
5.29513e-07
5.2443e-07
6.34125e-07
5.24445e-07
5.29523e-07
5.24429e-07
6.34122e-07
6.70986e-07
3.86412e-06
6.70975e-07
3.86438e-06
5.29521e-07
5.24444e-07
6.3413e-07
5.24427e-07
6.34158e-07
5.24429e-07
5.29516e-07
6.70991e-07
3.86415e-06
3.864e-06
6.70997e-07
5.2952e-07
5.24442e-07
5.24427e-07
6.34123e-07
5.24426e-07
6.34127e-07
5.29516e-07
6.70985e-07
3.86435e-06
3.86417e-06
6.70997e-07
8.30928e-07
8.30672e-07
5.24445e-07
8.31083e-07
8.3087e-07
9.45917e-06
9.46076e-06
9.46152e-06
9.46064e-06
5.24455e-07
8.31046e-07
8.30858e-07
8.30923e-07
8.30704e-07
9.46058e-06
9.45946e-06
5.29512e-07
5.2443e-07
6.34152e-07
5.24446e-07
5.29522e-07
5.24429e-07
6.3415e-07
6.7097e-07
3.86417e-06
6.70927e-07
3.86442e-06
6.70965e-07
3.86422e-06
6.70901e-07
3.86449e-06
5.29521e-07
5.24444e-07
5.24427e-07
6.34119e-07
5.24428e-07
6.34116e-07
5.29515e-07
5.29519e-07
5.24442e-07
5.24427e-07
6.34151e-07
5.24426e-07
6.34155e-07
5.29514e-07
6.7095e-07
3.86439e-06
3.86422e-06
6.70965e-07
6.70905e-07
3.86446e-06
3.86427e-06
6.70956e-07
9.45928e-06
9.46085e-06
9.45973e-06
9.4613e-06
5.24456e-07
8.30888e-07
8.30952e-07
8.30744e-07
8.30838e-07
9.46067e-06
9.45958e-06
9.46112e-06
9.46003e-06
9.45861e-06
9.45994e-06
9.45995e-06
9.46122e-06
8.3068e-07
8.3077e-07
5.24446e-07
8.30858e-07
8.30967e-07
9.45975e-06
9.45877e-06
9.46107e-06
9.46042e-06
5.24456e-07
8.30844e-07
8.3095e-07
8.30694e-07
8.30835e-07
6.70982e-07
3.86388e-06
6.70989e-07
3.86414e-06
5.29509e-07
6.34112e-07
5.24432e-07
5.24445e-07
5.29521e-07
6.34112e-07
5.2443e-07
5.29512e-07
6.34142e-07
5.24432e-07
5.24445e-07
5.29525e-07
6.34146e-07
5.2443e-07
6.70991e-07
3.86404e-06
3.8639e-06
6.70995e-07
6.70984e-07
3.86411e-06
3.86395e-06
6.70995e-07
5.29523e-07
5.24442e-07
6.34106e-07
5.24427e-07
6.34116e-07
5.24426e-07
5.29513e-07
5.29523e-07
5.24442e-07
6.3414e-07
5.24427e-07
6.34148e-07
5.24427e-07
5.29515e-07
8.3076e-07
8.30877e-07
5.24445e-07
8.30968e-07
8.30932e-07
9.4588e-06
9.46015e-06
9.4606e-06
9.45936e-06
5.24455e-07
8.30941e-07
8.30889e-07
8.30801e-07
8.30777e-07
9.46e-06
9.459e-06
5.29507e-07
6.34164e-07
5.2443e-07
5.24445e-07
5.29519e-07
6.34167e-07
5.24429e-07
6.70966e-07
3.86438e-06
6.70953e-07
3.86463e-06
5.29512e-07
5.2443e-07
6.34199e-07
5.24445e-07
5.29523e-07
5.24429e-07
6.34189e-07
6.70893e-07
3.86443e-06
3.86429e-06
6.70955e-07
5.29518e-07
5.24442e-07
6.34161e-07
5.24427e-07
6.3417e-07
5.24426e-07
5.29511e-07
6.70954e-07
3.8646e-06
3.86444e-06
6.7097e-07
5.29523e-07
5.24442e-07
5.24427e-07
6.34184e-07
5.24426e-07
6.34202e-07
5.29514e-07
6.70991e-07
3.86395e-06
6.70959e-07
3.86418e-06
5.29513e-07
5.24432e-07
6.34125e-07
5.24445e-07
5.29523e-07
5.2443e-07
6.34122e-07
6.70986e-07
3.86412e-06
6.70975e-07
3.86438e-06
5.29521e-07
5.24444e-07
6.3413e-07
5.24427e-07
6.34158e-07
5.24428e-07
5.29516e-07
6.70991e-07
3.86415e-06
3.864e-06
6.70997e-07
5.2952e-07
5.24442e-07
5.24427e-07
6.34123e-07
5.24426e-07
6.34127e-07
5.29516e-07
6.70984e-07
3.86435e-06
3.86417e-06
6.70997e-07
8.30928e-07
8.30672e-07
5.24445e-07
8.31083e-07
8.3087e-07
9.45917e-06
9.46076e-06
9.46152e-06
9.46064e-06
5.24455e-07
8.31046e-07
8.30858e-07
8.30923e-07
8.30704e-07
9.46058e-06
9.45946e-06
5.29512e-07
5.2443e-07
6.34152e-07
5.24446e-07
5.29522e-07
5.24429e-07
6.3415e-07
6.70971e-07
3.86417e-06
6.70927e-07
3.86442e-06
6.70964e-07
3.86422e-06
6.70898e-07
3.86449e-06
5.29521e-07
5.24444e-07
5.24427e-07
6.34119e-07
5.24428e-07
6.34116e-07
5.29515e-07
5.29519e-07
5.24442e-07
5.24427e-07
6.34151e-07
5.24426e-07
6.34156e-07
5.29514e-07
6.7095e-07
3.86439e-06
3.86422e-06
6.70965e-07
6.70905e-07
3.86446e-06
3.86427e-06
6.70956e-07
9.45928e-06
9.46085e-06
9.45973e-06
9.4613e-06
5.24456e-07
8.30888e-07
8.30949e-07
8.30744e-07
8.30836e-07
9.46067e-06
9.45958e-06
9.46112e-06
9.46003e-06
9.45836e-06
9.45992e-06
9.45996e-06
9.46122e-06
8.3066e-07
8.3077e-07
5.24446e-07
8.30869e-07
8.30967e-07
9.45979e-06
9.45872e-06
9.46107e-06
9.46043e-06
5.24455e-07
8.30854e-07
8.3095e-07
8.30761e-07
8.30835e-07
6.70983e-07
3.86388e-06
6.70986e-07
3.86414e-06
5.29509e-07
6.34109e-07
5.2443e-07
5.24446e-07
5.29521e-07
6.34113e-07
5.24429e-07
5.29512e-07
6.34141e-07
5.24432e-07
5.24445e-07
5.29525e-07
6.34144e-07
5.2443e-07
6.70992e-07
3.86404e-06
3.8639e-06
6.70995e-07
6.70983e-07
3.86411e-06
3.86395e-06
6.70995e-07
5.29523e-07
5.24442e-07
6.34107e-07
5.24427e-07
6.34116e-07
5.24426e-07
5.29513e-07
5.29524e-07
5.24442e-07
6.3414e-07
5.24427e-07
6.34147e-07
5.24427e-07
5.29515e-07
8.30768e-07
8.30868e-07
5.24445e-07
8.30947e-07
8.30932e-07
9.4588e-06
9.46015e-06
9.46061e-06
9.45963e-06
5.24455e-07
8.30935e-07
8.30889e-07
8.30789e-07
8.30777e-07
9.46e-06
9.45901e-06
5.29507e-07
6.34164e-07
5.24431e-07
5.24445e-07
5.29519e-07
6.34167e-07
5.24429e-07
6.70966e-07
3.86438e-06
6.70953e-07
3.86463e-06
5.29511e-07
5.2443e-07
6.34199e-07
5.24445e-07
5.29523e-07
5.24429e-07
6.34189e-07
6.70893e-07
3.86443e-06
3.86429e-06
6.70955e-07
5.29518e-07
5.24442e-07
6.34161e-07
5.24427e-07
6.3417e-07
5.24426e-07
5.29511e-07
6.70954e-07
3.8646e-06
3.86444e-06
6.7097e-07
5.29522e-07
5.24442e-07
5.24427e-07
6.34184e-07
5.24426e-07
6.34202e-07
5.29513e-07
6.70991e-07
3.86395e-06
6.70959e-07
3.86418e-06
5.29513e-07
5.24432e-07
6.34125e-07
5.24445e-07
5.29523e-07
5.2443e-07
6.34122e-07
6.70986e-07
3.86412e-06
6.70978e-07
3.86438e-06
5.29522e-07
5.24444e-07
6.3413e-07
5.24427e-07
6.34158e-07
5.24428e-07
5.29516e-07
6.70991e-07
3.86415e-06
3.864e-06
6.70997e-07
5.2952e-07
5.24442e-07
5.24427e-07
6.34123e-07
5.24426e-07
6.34127e-07
5.29516e-07
6.70985e-07
3.86435e-06
3.86417e-06
6.70996e-07
8.30928e-07
8.30672e-07
5.24445e-07
8.31083e-07
8.3087e-07
9.45917e-06
9.46076e-06
9.46152e-06
9.46064e-06
5.24455e-07