/*--------------------------------*- C++ -*----------------------------------*\
| =========                 |                                                 |
| \\      /  F ield         | OpenFOAM: The Open Source CFD Toolbox           |
|  \\    /   O peration     | Version:  2206                                  |
|   \\  /    A nd           | Website:  www.openfoam.com                      |
|    \\/     M anipulation  |                                                 |
\*---------------------------------------------------------------------------*/
FoamFile
{
    version     2.0;
    format      ascii;
    arch        "LSB;label=32;scalar=64";
    class       volScalarField;
    location    "1";
    object      p;
}
// * * * * * * * * * * * * * * * * * * * * * * * * * * * * * * * * * * * * * //

dimensions      [0 2 -2 0 0 0 0];

internalField   nonuniform List<scalar> 
28515
(
-0.00330768
-0.00318378
-0.00318374
-0.00315836
-0.00307745
-0.00307755
-0.00307759
-0.00294731
-0.00293296
-0.00295319
-0.00295323
-0.00282123
-0.00282038
-0.00284079
-0.00284084
-0.00270875
-0.00270806
-0.00272847
-0.00272852
-0.00259646
-0.00259577
-0.00261616
-0.00261622
-0.0024841
-0.00248343
-0.00250385
-0.00250389
-0.00237174
-0.00237113
-0.00239156
-0.0023916
-0.00225952
-0.00225888
-0.0022793
-0.00227934
-0.00214735
-0.00214664
-0.00216703
-0.00216712
-0.00203514
-0.00203442
-0.00205484
-0.00205489
-0.00192281
-0.00192223
-0.00194262
-0.00194269
-0.00181046
-0.00326068
-0.00324867
-0.00324874
-0.00326086
-0.00324869
-0.00324871
-0.00303134
-0.00303136
-0.00303134
-0.0030313
-0.00324876
-0.00324862
-0.00326085
-0.00324874
-0.00324865
-0.00326069
-0.0031584
-0.00323535
-0.00318367
-0.00318376
-0.00307856
-0.0030786
-0.00315858
-0.0032354
-0.0031837
-0.00318373
-0.00307845
-0.00307861
-0.00318363
-0.00307848
-0.0030786
-0.00315852
-0.00323538
-0.00318364
-0.00307849
-0.00307848
-0.00323537
-0.00294728
-0.00314334
-0.00307761
-0.00307761
-0.00298133
-0.0029813
-0.00294726
-0.00314335
-0.00307756
-0.00307763
-0.00298132
-0.00298134
-0.00307761
-0.0029813
-0.00298133
-0.00294734
-0.00314331
-0.00307757
-0.00298134
-0.00298133
-0.0031433
-0.00282119
-0.00303133
-0.00295321
-0.0029532
-0.00286891
-0.0028689
-0.00282115
-0.00303137
-0.00295321
-0.00295324
-0.00286891
-0.00286895
-0.00295321
-0.00286887
-0.00286892
-0.00282124
-0.00303137
-0.00295321
-0.00286892
-0.00286891
-0.00303135
-0.00270878
-0.00291899
-0.00284082
-0.00284081
-0.00275658
-0.00275655
-0.0027087
-0.00291899
-0.00284083
-0.00284087
-0.00275658
-0.00275661
-0.00284083
-0.00275654
-0.00275657
-0.0027088
-0.00291899
-0.00284083
-0.0027566
-0.00275658
-0.00291898
-0.00259644
-0.0028068
-0.0027285
-0.00272848
-0.00264427
-0.00264425
-0.00259639
-0.00280676
-0.00272851
-0.00272854
-0.00264427
-0.0026443
-0.00272849
-0.00264424
-0.00264427
-0.0025965
-0.00280678
-0.0027285
-0.00264429
-0.00264427
-0.00280672
-0.00248398
-0.00269461
-0.00261619
-0.00261617
-0.00253196
-0.00253194
-0.00248399
-0.0026946
-0.00261619
-0.00261622
-0.00253196
-0.00253199
-0.0026162
-0.00253194
-0.00253197
-0.00248406
-0.00269459
-0.0026162
-0.00253198
-0.00253198
-0.00269453
-0.00237168
-0.00258217
-0.00250388
-0.00250387
-0.00241966
-0.00241964
-0.00237163
-0.00258217
-0.00250387
-0.00250391
-0.00241966
-0.00241969
-0.00250389
-0.00241962
-0.00241966
-0.00237173
-0.00258218
-0.00250389
-0.00241966
-0.00241965
-0.00258215
-0.00225952
-0.00246977
-0.0023916
-0.00239158
-0.00230741
-0.00230739
-0.00225948
-0.00246979
-0.00239159
-0.00239163
-0.00230741
-0.00230743
-0.00239159
-0.00230737
-0.00230739
-0.00225954
-0.00246977
-0.00239159
-0.0023074
-0.00230739
-0.00246975
-0.00214735
-0.00235753
-0.00227934
-0.00227932
-0.00219515
-0.00219511
-0.00214729
-0.00235747
-0.00227934
-0.00227937
-0.00219516
-0.00219519
-0.00227932
-0.0021951
-0.00219513
-0.0021474
-0.00235748
-0.00227932
-0.00219517
-0.00219513
-0.00235739
-0.00203503
-0.00224541
-0.00216709
-0.00216705
-0.00208291
-0.0020829
-0.00203503
-0.00224534
-0.00216709
-0.00216713
-0.00208292
-0.00208296
-0.00216706
-0.00208288
-0.00208293
-0.00203513
-0.00224539
-0.00216707
-0.00208295
-0.00208293
-0.0022453
-0.00192274
-0.00213334
-0.00205487
-0.00205486
-0.00197071
-0.00197068
-0.00192272
-0.00213333
-0.00205487
-0.00205491
-0.00197071
-0.00197075
-0.00205488
-0.00197068
-0.00197072
-0.00192281
-0.00213332
-0.00205489
-0.00197074
-0.00197072
-0.00213331
-0.00181041
-0.00194265
-0.00194263
-0.00181037
-0.00194265
-0.0019427
-0.00194266
-0.0018105
-0.00194266
-0.00326775
-0.00331635
-0.00329001
-0.00328999
-0.00342518
-0.00330794
-0.00309743
-0.00330308
-0.00342509
-0.00330789
-0.00330302
-0.00309735
-0.00330649
-0.00311102
-0.003111
-0.00345668
-0.00296865
-0.00299257
-0.00347845
-0.00292893
-0.00348277
-0.00345667
-0.00296867
-0.00299256
-0.00347844
-0.00330771
-0.00330773
-0.00330765
-0.00303185
-0.00303189
-0.00303191
-0.00303191
-0.00345241
-0.00298799
-0.00329744
-0.00314383
-0.00297275
-0.0034549
-0.00308551
-0.00292886
-0.00348278
-0.0034524
-0.00329744
-0.00298792
-0.00314378
-0.00297274
-0.00308546
-0.00345491
-0.00298009
-0.00298013
-0.00324389
-0.00347146
-0.00347146
-0.00347058
-0.00262514
-0.00264563
-0.00349297
-0.00261747
-0.00350367
-0.0034706
-0.00262517
-0.0026456
-0.00349295
-0.00307744
-0.00307749
-0.00307749
-0.00296117
-0.00296115
-0.00296119
-0.00296119
-0.00345261
-0.00266027
-0.00308596
-0.00303622
-0.00266492
-0.00345786
-0.00303279
-0.0026175
-0.0035037
-0.0034526
-0.00308595
-0.0026603
-0.00303624
-0.00266496
-0.0030328
-0.00345789
-0.00263262
-0.00263264
-0.00319736
-0.00348956
-0.00348958
-0.00336287
-0.00249458
-0.00251602
-0.00338594
-0.00248651
-0.00339685
-0.0033629
-0.0024946
-0.00251604
-0.00338594
-0.00293294
-0.00293298
-0.00293297
-0.00284848
-0.00284847
-0.00284851
-0.00284851
-0.00334413
-0.00253039
-0.00295292
-0.00292508
-0.00253619
-0.00335026
-0.00292482
-0.00248659
-0.00339694
-0.00334414
-0.00295293
-0.00253045
-0.00292512
-0.00253623
-0.00292484
-0.00335032
-0.0025018
-0.00250181
-0.00308745
-0.0033827
-0.00338272
-0.00325061
-0.00238199
-0.00240346
-0.0032737
-0.00237393
-0.00328471
-0.00325069
-0.00238203
-0.00240354
-0.00327371
-0.00282036
-0.0028204
-0.0028204
-0.00273614
-0.00273611
-0.00273615
-0.00273613
-0.00323189
-0.00241781
-0.00284053
-0.0028127
-0.00242368
-0.00323805
-0.00281245
-0.00237403
-0.0032848
-0.00323191
-0.00284056
-0.00241787
-0.00281275
-0.00242372
-0.00281248
-0.00323812
-0.00238919
-0.0023892
-0.00297518
-0.00327056
-0.0032706
-0.00313833
-0.00226962
-0.00229111
-0.00316141
-0.00226161
-0.00317243
-0.00313839
-0.00226966
-0.00229122
-0.00316143
-0.00270803
-0.00270807
-0.00270805
-0.00262384
-0.00262381
-0.00262386
-0.00262383
-0.00311957
-0.00230546
-0.0027282
-0.00270039
-0.00231134
-0.00312572
-0.00270013
-0.00226169
-0.00317249
-0.00311959
-0.00272823
-0.00230553
-0.00270045
-0.00231139
-0.00270016
-0.00312579
-0.00227686
-0.0022769
-0.00286284
-0.00315826
-0.0031583
-0.00302619
-0.00215721
-0.00217874
-0.00304923
-0.00214921
-0.00306021
-0.00302626
-0.00215724
-0.00217881
-0.00304923
-0.00259574
-0.00259579
-0.00259576
-0.00251152
-0.00251152
-0.00251155
-0.00251154
-0.00300737
-0.00219308
-0.00261589
-0.00258809
-0.00219898
-0.00301353
-0.00258781
-0.00214926
-0.00306027
-0.0030074
-0.00261591
-0.00219313
-0.00258814
-0.00219903
-0.00258783
-0.00301359
-0.0021645
-0.00216453
-0.00275064
-0.00304604
-0.00304607
-0.0029139
-0.00204494
-0.00206643
-0.00293696
-0.00203686
-0.00294792
-0.00291392
-0.00204495
-0.00206647
-0.00293696
-0.00248343
-0.00248346
-0.00248346
-0.0023992
-0.00239918
-0.00239923
-0.00239921
-0.00289509
-0.00208077
-0.00250358
-0.00247577
-0.00208668
-0.00290126
-0.00247552
-0.00203693
-0.00294797
-0.00289511
-0.0025036
-0.00208082
-0.00247582
-0.00208672
-0.00247554
-0.0029013
-0.00205218
-0.00205218
-0.00263837
-0.00293372
-0.00293374
-0.00280143
-0.00193273
-0.00195422
-0.00282453
-0.00192472
-0.00283554
-0.00280149
-0.00193276
-0.00195426
-0.00282454
-0.00237111
-0.00237115
-0.00237113
-0.00228694
-0.00228692
-0.00228694
-0.00228692
-0.00278269
-0.00196856
-0.00239132
-0.0023635
-0.00197443
-0.00278886
-0.00236325
-0.00192475
-0.0028356
-0.0027827
-0.00239132
-0.00196859
-0.00236353
-0.00197445
-0.00236326
-0.00278891
-0.00193995
-0.00193994
-0.00252595
-0.00282136
-0.00282139
-0.00268907
-0.00182053
-0.00184201
-0.00271218
-0.00181256
-0.00272321
-0.00268912
-0.00182056
-0.00184209
-0.00271221
-0.00225885
-0.00225888
-0.00225885
-0.00217471
-0.00217465
-0.00217472
-0.00217466
-0.0026703
-0.00185636
-0.00227905
-0.00225123
-0.00186223
-0.00267648
-0.00225098
-0.00181262
-0.00272326
-0.00267031
-0.00227907
-0.00185642
-0.00225128
-0.00186225
-0.00225101
-0.00267652
-0.00182778
-0.00182779
-0.00241355
-0.00270899
-0.00270902
-0.00257686
-0.00170823
-0.00172976
-0.00259997
-0.00170028
-0.00261095
-0.00257694
-0.0017083
-0.00172982
-0.00260001
-0.00214659
-0.00214667
-0.00214661
-0.00206247
-0.00206246
-0.0020625
-0.00206249
-0.00255805
-0.00174411
-0.00216679
-0.00213898
-0.00174997
-0.00256424
-0.00213873
-0.00170034
-0.00261103
-0.00255811
-0.00216682
-0.00174419
-0.00213906
-0.00175004
-0.00213877
-0.00256432
-0.00171552
-0.00171557
-0.00230131
-0.00259673
-0.00259679
-0.00246482
-0.00159597
-0.00161746
-0.00248789
-0.00158795
-0.00249883
-0.00246486
-0.001596
-0.0016175
-0.0024879
-0.00203441
-0.00203446
-0.00203445
-0.00195029
-0.00195026
-0.00195032
-0.00195029
-0.00244602
-0.00163183
-0.00205456
-0.00202679
-0.00163771
-0.00245217
-0.0020265
-0.00158801
-0.00249892
-0.00244606
-0.0020546
-0.0016319
-0.00202684
-0.00163776
-0.00202655
-0.00245225
-0.00160323
-0.00160324
-0.00218931
-0.00248465
-0.00248469
-0.00235274
-0.00148367
-0.00150521
-0.00237577
-0.00147562
-0.00238672
-0.00148372
-0.00150527
-0.0019222
-0.00192226
-0.00192222
-0.00233393
-0.00151949
-0.00194233
-0.00191457
-0.00152541
-0.00234008
-0.00191428
-0.0014757
-0.00233395
-0.00194237
-0.00151959
-0.00152549
-0.00191433
-0.00149089
-0.00149093
-0.00207721
-0.00237256
-0.00237259
-0.0033066
-0.00311101
-0.00311099
-0.00327743
-0.00321526
-0.0032774
-0.00321528
-0.00301035
-0.00327201
-0.00327203
-0.00321353
-0.00321352
-0.00342525
-0.00330814
-0.00309768
-0.00330314
-0.00342532
-0.00330796
-0.00309739
-0.00330313
-0.00321797
-0.00329802
-0.00319526
-0.00331562
-0.00321801
-0.00329804
-0.00319519
-0.00331561
-0.00305301
-0.00300974
-0.0033528
-0.00305459
-0.00322453
-0.00303324
-0.00333061
-0.00305299
-0.00300951
-0.00335284
-0.00305461
-0.00322435
-0.00303323
-0.0033306
-0.0033062
-0.00311085
-0.00311085
-0.00327749
-0.00321516
-0.00300991
-0.00327217
-0.00327211
-0.00321331
-0.00321337
-0.00327747
-0.00321521
-0.00342522
-0.00330812
-0.00309758
-0.00330311
-0.003425
-0.0033079
-0.00330307
-0.00309735
-0.00321791
-0.00329796
-0.00319523
-0.00331561
-0.00305297
-0.00300972
-0.00335282
-0.0030546
-0.0032245
-0.00303322
-0.00333059
-0.00321793
-0.00329802
-0.00319514
-0.00331559
-0.00305293
-0.00300946
-0.00305456
-0.00335282
-0.0030332
-0.00322434
-0.00333058
-0.00326775
-0.00331622
-0.00329001
-0.00328997
-0.00326774
-0.00331614
-0.00328996
-0.00328993
-0.00326774
-0.00331627
-0.00328996
-0.00328994
-0.00306874
-0.0030349
-0.00301094
-0.00301095
-0.0030522
-0.00305218
-0.00299732
-0.00306874
-0.00303475
-0.00301095
-0.00301095
-0.00305219
-0.00305217
-0.00299732
-0.00306873
-0.0030347
-0.00301094
-0.00301093
-0.00305216
-0.00305214
-0.00299729
-0.00306873
-0.00303483
-0.00301093
-0.00301092
-0.00305216
-0.00305215
-0.00299728
-0.00342523
-0.00330807
-0.00330308
-0.00309752
-0.00305292
-0.00300948
-0.00335286
-0.00305457
-0.00322436
-0.0030332
-0.00333059
-0.00321791
-0.00329805
-0.00319513
-0.00331564
-0.00305291
-0.00300966
-0.00305454
-0.00335274
-0.0030332
-0.00322453
-0.0033306
-0.00321788
-0.00329793
-0.00319525
-0.00331563
-0.00330614
-0.00311079
-0.00311081
-0.00327746
-0.00321517
-0.00300985
-0.00327214
-0.00327201
-0.00321329
-0.00321337
-0.00327742
-0.00321523
-0.00342513
-0.00330805
-0.00330304
-0.00309752
-0.00305287
-0.00300943
-0.00305453
-0.00335282
-0.00303316
-0.00322435
-0.00333057
-0.00305288
-0.00300964
-0.00305455
-0.00335274
-0.00303317
-0.00322449
-0.00333057
-0.00321787
-0.00329803
-0.00319511
-0.00331559
-0.00321786
-0.00329792
-0.00319524
-0.0033156
-0.00301026
-0.00327189
-0.00327188
-0.00321356
-0.00321353
-0.00327732
-0.00321533
-0.00327728
-0.00321532
-0.00292874
-0.00348274
-0.00292879
-0.00348272
-0.00298012
-0.00298016
-0.00324455
-0.00347153
-0.00347153
-0.00353148
-0.00274093
-0.00353147
-0.00274095
-0.00304263
-0.00351794
-0.00351797
-0.00275535
-0.00275533
-0.00345669
-0.00296875
-0.00299258
-0.00347848
-0.00345243
-0.00298787
-0.00329746
-0.00314381
-0.00297276
-0.00345487
-0.00308548
-0.00345244
-0.00298802
-0.00329751
-0.00314389
-0.00297278
-0.00345492
-0.00308553
-0.00277017
-0.00352139
-0.00274912
-0.00350021
-0.00277021
-0.00352138
-0.00274921
-0.00350019
-0.00278176
-0.00314671
-0.00348835
-0.00306242
-0.00278006
-0.00317179
-0.00348482
-0.00278178
-0.00314675
-0.00348833
-0.00306243
-0.00278017
-0.0031718
-0.00348481
-0.00298038
-0.00298036
-0.00324462
-0.0034716
-0.00347159
-0.0029289
-0.00348279
-0.00353148
-0.00274102
-0.00304268
-0.00351798
-0.00351797
-0.0027554
-0.00275538
-0.00353151
-0.00274095
-0.00345242
-0.00298788
-0.00329747
-0.00314379
-0.00297277
-0.00345487
-0.0030855
-0.00345667
-0.00296869
-0.00299256
-0.0034785
-0.00345241
-0.0032975
-0.00298796
-0.00314384
-0.00297278
-0.00308547
-0.00345492
-0.00277021
-0.00352138
-0.00274915
-0.0035002
-0.00278181
-0.00314675
-0.00348832
-0.00306243
-0.00278011
-0.00317185
-0.0034848
-0.0027702
-0.00352138
-0.00274921
-0.0035002
-0.00278181
-0.00314679
-0.0030624
-0.00348833
-0.00317183
-0.00278017
-0.00348479
-0.00345663
-0.00296873
-0.00299258
-0.00347846
-0.00345239
-0.00329742
-0.00298782
-0.00314373
-0.00297274
-0.00308545
-0.00345481
-0.00345662
-0.00296865
-0.00299255
-0.00347838
-0.00278174
-0.00314678
-0.00348837
-0.00306246
-0.00278009
-0.00317181
-0.00348482
-0.00277016
-0.00352141
-0.00274914
-0.0035002
-0.00278174
-0.00314676
-0.00306239
-0.00348833
-0.00317178
-0.00278006
-0.0034848
-0.00277014
-0.00352137
-0.00274913
-0.00350019
-0.0029803
-0.00298026
-0.00324419
-0.0034716
-0.00347159
-0.00292881
-0.00348279
-0.00353147
-0.00274102
-0.00304309
-0.00351798
-0.00351797
-0.0027554
-0.00275539
-0.00353151
-0.00274096
-0.0034524
-0.00329743
-0.00298785
-0.00314371
-0.00297273
-0.00308547
-0.00345481
-0.00345663
-0.00296866
-0.00299255
-0.00347848
-0.00345663
-0.00296865
-0.00299253
-0.00347837
-0.00278179
-0.00314684
-0.00306241
-0.00348836
-0.00317186
-0.00278011
-0.00348478
-0.0027818
-0.0031468
-0.00306242
-0.0034883
-0.00317185
-0.00278013
-0.00348477
-0.00277017
-0.00352141
-0.00274915
-0.00350019
-0.0027702
-0.00352136
-0.00274917
-0.00350017
-0.00292872
-0.00348267
-0.00292876
-0.00348263
-0.0030432
-0.00351793
-0.00351794
-0.00275533
-0.00275533
-0.00353147
-0.00274092
-0.00353144
-0.00274096
-0.00261743
-0.00350374
-0.00261747
-0.00350372
-0.00263259
-0.00263261
-0.00319738
-0.0034896
-0.00348962
-0.00345234
-0.00254488
-0.00345233
-0.00254491
-0.00287825
-0.00343813
-0.00343816
-0.00256013
-0.00256014
-0.00347059
-0.00262518
-0.00264551
-0.0034929
-0.00345261
-0.00266028
-0.00308594
-0.00303618
-0.00266493
-0.00345787
-0.00303276
-0.00345261
-0.00266032
-0.00308594
-0.00303616
-0.00266491
-0.00345781
-0.00303277
-0.00257392
-0.00344137
-0.00255282
-0.00341839
-0.00257396
-0.00344126
-0.0025528
-0.00341839
-0.00259377
-0.00300945
-0.00340578
-0.00298094
-0.0025885
-0.00300891
-0.00339976
-0.00259377
-0.00300943
-0.00340569
-0.00298093
-0.0025885
-0.00300892
-0.00339975
-0.00263261
-0.00263259
-0.0031974
-0.00348957
-0.00348961
-0.00261743
-0.00350373
-0.00345225
-0.00254488
-0.00287821
-0.00343808
-0.0034381
-0.0025601
-0.00256012
-0.00345231
-0.00254486
-0.00345262
-0.00266031
-0.00308596
-0.00303623
-0.00266495
-0.00345786
-0.00303282
-0.00347058
-0.0026252
-0.00264568
-0.00349294
-0.00345261
-0.00308594
-0.00266034
-0.00303619
-0.00266496
-0.00303278
-0.00345784
-0.00257396
-0.00344135
-0.00255283
-0.00341841
-0.00259381
-0.00300942
-0.00340578
-0.002981
-0.00258853
-0.00300896
-0.00339977
-0.00257396
-0.00344134
-0.00255287
-0.0034184
-0.00259382
-0.00300947
-0.00298095
-0.00340575
-0.00300893
-0.00258857
-0.00339976
-0.00347059
-0.00262514
-0.00264557
-0.00349294
-0.0034526
-0.00308591
-0.0026603
-0.00303618
-0.00266493
-0.00303275
-0.00345784
-0.00347057
-0.00262517
-0.00264564
-0.00349293
-0.00259375
-0.0030094
-0.00340575
-0.00298097
-0.00258847
-0.00300893
-0.00339974
-0.00257393
-0.00344132
-0.00255278
-0.00341837
-0.00259376
-0.00300945
-0.00298094
-0.00340575
-0.0030089
-0.00258851
-0.00339973
-0.00257392
-0.00344133
-0.00255283
-0.00341835
-0.00263264
-0.00263263
-0.00319735
-0.0034896
-0.00348962
-0.00261747
-0.00350376
-0.00345231
-0.00254495
-0.0028783
-0.00343813
-0.00343814
-0.00256017
-0.00256017
-0.00345235
-0.00254492
-0.0034526
-0.00308594
-0.00266034
-0.00303624
-0.00266494
-0.0030328
-0.00345783
-0.00347057
-0.00262517
-0.0026457
-0.00349299
-0.00347057
-0.00262521
-0.00264555
-0.00349291
-0.0025938
-0.00300944
-0.00298099
-0.00340579
-0.00300894
-0.00258852
-0.00339975
-0.00259381
-0.00300943
-0.00298099
-0.00340573
-0.00300895
-0.00258855
-0.00339975
-0.00257395
-0.00344137
-0.00255284
-0.00341838
-0.00257398
-0.00344131
-0.00255285
-0.00341838
-0.00261746
-0.00350371
-0.0026175
-0.00350368
-0.00287828
-0.00343809
-0.00343811
-0.00256014
-0.00256016
-0.00345231
-0.0025449
-0.00345228
-0.00254493
-0.00248653
-0.00339696
-0.00248656
-0.00339696
-0.00250181
-0.00250182
-0.00308749
-0.00338274
-0.00338279
-0.0033409
-0.00243015
-0.00334091
-0.00243019
-0.00276495
-0.00332668
-0.00332673
-0.00244543
-0.00244545
-0.00336287
-0.00249454
-0.00251605
-0.00338583
-0.00334413
-0.00253044
-0.0029529
-0.00292511
-0.00253621
-0.00335028
-0.00292482
-0.00334412
-0.00253043
-0.0029529
-0.0029251
-0.00253621
-0.00335019
-0.00292481
-0.00245968
-0.00332988
-0.00243821
-0.00330678
-0.0024597
-0.00332981
-0.00243817
-0.00330678
-0.00247991
-0.00289699
-0.0032942
-0.00286862
-0.00247409
-0.00289671
-0.00328803
-0.00247991
-0.00289699
-0.00329414
-0.00286861
-0.00247406
-0.0028967
-0.00328802
-0.00250176
-0.00250177
-0.00308749
-0.00338269
-0.00338271
-0.00248648
-0.00339693
-0.00334083
-0.00243012
-0.00276488
-0.00332666
-0.00332668
-0.00244537
-0.00244537
-0.00334089
-0.00243008
-0.00334414
-0.00253047
-0.00295296
-0.00292511
-0.00253625
-0.00335029
-0.00292487
-0.00336288
-0.00249462
-0.00251605
-0.00338593
-0.00334413
-0.00295292
-0.0025305
-0.00292514
-0.00253625
-0.00292484
-0.00335027
-0.00245971
-0.00332989
-0.00243824
-0.00330684
-0.00247996
-0.002897
-0.00329421
-0.00286868
-0.00247413
-0.00289677
-0.00328806
-0.00245972
-0.00332991
-0.00243826
-0.00330682
-0.00247997
-0.00289704
-0.00286865
-0.00329423
-0.00289674
-0.00247415
-0.00328805
-0.00336287
-0.00249452
-0.00251601
-0.00338591
-0.00334412
-0.00295289
-0.00253044
-0.00292511
-0.0025362
-0.0029248
-0.00335025
-0.00336285
-0.00249458
-0.002516
-0.00338591
-0.0024799
-0.00289697
-0.0032942
-0.00286862
-0.00247402
-0.00289672
-0.00328806
-0.00245968
-0.00332986
-0.00243814
-0.00330683
-0.00247991
-0.00289701
-0.0028686
-0.0032942
-0.0028967
-0.00247407
-0.00328804
-0.00245966
-0.00332988
-0.00243819
-0.00330681
-0.00250184
-0.00250182
-0.00308748
-0.00338276
-0.00338276
-0.00248654
-0.00339699
-0.00334093
-0.00243021
-0.00276497
-0.00332675
-0.00332674
-0.00244546
-0.00244542
-0.00334096
-0.00243014
-0.00334414
-0.00295294
-0.00253046
-0.00292511
-0.00253624
-0.00292485
-0.00335024
-0.0033629
-0.00249458
-0.00251602
-0.00338598
-0.00336289
-0.00249459
-0.00251604
-0.00338588
-0.00247993
-0.00289701
-0.00286865
-0.00329427
-0.00289675
-0.00247408
-0.00328808
-0.00247993
-0.002897
-0.00286865
-0.00329419
-0.00289674
-0.00247408
-0.00328807
-0.00245969
-0.00332995
-0.00243821
-0.00330685
-0.00245973
-0.00332984
-0.00243819
-0.00330685
-0.00248654
-0.00339692
-0.00248656
-0.00339689
-0.00276494
-0.00332667
-0.0033267
-0.00244539
-0.00244539
-0.00334089
-0.00243012
-0.00334086
-0.00243013
-0.00237393
-0.00328473
-0.00237398
-0.00328474
-0.00238921
-0.00238924
-0.00297516
-0.00327051
-0.00327057
-0.00322856
-0.00231776
-0.00322858
-0.0023178
-0.00265262
-0.00321435
-0.00321441
-0.00233303
-0.00233306
-0.00325061
-0.00238199
-0.00240347
-0.00327369
-0.00323185
-0.00241788
-0.00284052
-0.00281274
-0.0024237
-0.00323802
-0.00281244
-0.00323185
-0.00241788
-0.00284052
-0.00281272
-0.00242371
-0.00323801
-0.00281245
-0.00234728
-0.00321754
-0.00232581
-0.00319445
-0.00234729
-0.00321753
-0.00232584
-0.00319445
-0.00236752
-0.00278466
-0.00318186
-0.00275627
-0.00236169
-0.00278435
-0.00317569
-0.00236753
-0.00278463
-0.00318185
-0.00275628
-0.00236172
-0.00278436
-0.00317569
-0.00238918
-0.00238915
-0.00297518
-0.00327054
-0.00327054
-0.00237387
-0.00328476
-0.00322855
-0.00231778
-0.00265256
-0.00321438
-0.00321437
-0.00233303
-0.00233298
-0.00322858
-0.0023177
-0.0032319
-0.00241792
-0.00284058
-0.00281275
-0.00242378
-0.00323804
-0.0028125
-0.00325067
-0.00238209
-0.00240354
-0.00327378
-0.00323189
-0.00284056
-0.00241797
-0.00281278
-0.00242379
-0.00281249
-0.00323809
-0.00234739
-0.00321755
-0.00232585
-0.00319453
-0.00236761
-0.00278466
-0.00318188
-0.00275633
-0.00236175
-0.00278441
-0.00317573
-0.00234737
-0.00321761
-0.00232593
-0.00319451
-0.00236762
-0.00278469
-0.00275632
-0.00318192
-0.0027844
-0.00236181
-0.00317573
-0.00325067
-0.00238193
-0.00240346
-0.00327373
-0.00323188
-0.00284051
-0.00241786
-0.00281275
-0.00242369
-0.00281243
-0.00323808
-0.00325065
-0.00238199
-0.00240345
-0.00327375
-0.0023675
-0.00278462
-0.00318187
-0.00275628
-0.00236164
-0.00278437
-0.00317572
-0.00234728
-0.00321755
-0.00232575
-0.0031945
-0.00236752
-0.00278466
-0.00275627
-0.00318191
-0.00278435
-0.0023617
-0.00317571
-0.00234728
-0.0032176
-0.00232583
-0.00319448
-0.00238929
-0.00238921
-0.00297518
-0.00327062
-0.0032706
-0.00237393
-0.00328482
-0.00322863
-0.00231788
-0.00265267
-0.00321445
-0.00321443
-0.00233313
-0.00233305
-0.00322865
-0.00231777
-0.0032319
-0.00284057
-0.00241788
-0.00281275
-0.00242372
-0.00281249
-0.00323808
-0.00325068
-0.00238199
-0.00240348
-0.0032738
-0.00325068
-0.00238199
-0.00240351
-0.00327375
-0.00236755
-0.00278467
-0.00275631
-0.00318194
-0.0027844
-0.0023617
-0.00317573
-0.00236756
-0.00278466
-0.00275633
-0.00318192
-0.00278441
-0.00236174
-0.00317574
-0.00234731
-0.00321762
-0.00232582
-0.00319451
-0.00234732
-0.0032176
-0.00232586
-0.00319451
-0.00237392
-0.00328477
-0.00237394
-0.00328477
-0.00265263
-0.0032144
-0.00321444
-0.00233303
-0.00233306
-0.00322861
-0.00231777
-0.00322861
-0.00231781
-0.00226156
-0.00317244
-0.00226161
-0.00317245
-0.00227684
-0.00227688
-0.00286288
-0.00315823
-0.00315828
-0.00311633
-0.00220536
-0.00311634
-0.00220541
-0.00254023
-0.00310211
-0.00310216
-0.00222064
-0.00222067
-0.00313834
-0.00226966
-0.00229113
-0.00316141
-0.00311956
-0.00230551
-0.00272819
-0.00270043
-0.00231135
-0.00312573
-0.00270011
-0.00311957
-0.00230555
-0.0027282
-0.00270041
-0.00231136
-0.00312573
-0.00270012
-0.00223493
-0.0031053
-0.00221342
-0.00308225
-0.00223495
-0.0031053
-0.00221348
-0.00308226
-0.00225517
-0.00267234
-0.00306963
-0.00264394
-0.00224931
-0.00267202
-0.00306348
-0.00225519
-0.00267233
-0.00306962
-0.00264396
-0.00224937
-0.00267204
-0.00306348
-0.00227686
-0.0022768
-0.00286286
-0.00315826
-0.00315822
-0.00226151
-0.00317243
-0.00311632
-0.00220543
-0.00254021
-0.00310214
-0.00310211
-0.00222068
-0.0022206
-0.00311632
-0.00220532
-0.0031196
-0.00230556
-0.00272825
-0.00270043
-0.00231143
-0.00312575
-0.00270017
-0.00313837
-0.00226974
-0.0022912
-0.00316148
-0.00311959
-0.00272824
-0.00230563
-0.00270046
-0.00231145
-0.00270016
-0.00312579
-0.00223501
-0.00310532
-0.00221346
-0.00308232
-0.00225524
-0.00267235
-0.00306965
-0.002644
-0.00224936
-0.00267208
-0.00306351
-0.00223499
-0.00310537
-0.00221354
-0.0030823
-0.00225525
-0.00267239
-0.00264398
-0.00306968
-0.00267206
-0.00224943
-0.00306351
-0.00313836
-0.00226956
-0.00229113
-0.0031614
-0.00311957
-0.00272819
-0.00230553
-0.00270043
-0.00231136
-0.00270011
-0.00312577
-0.00313834
-0.00226965
-0.00229112
-0.00316145
-0.00225516
-0.00267231
-0.00306961
-0.00264396
-0.00224927
-0.00267204
-0.00306346
-0.00223494
-0.00310528
-0.00221337
-0.00308225
-0.00225518
-0.00267235
-0.00264396
-0.00306965
-0.00267203
-0.00224936
-0.00306346
-0.00223494
-0.00310534
-0.00221348
-0.00308223
-0.00227694
-0.00227687
-0.00286286
-0.00315831
-0.00315828
-0.00226159
-0.00317249
-0.00311638
-0.00220549
-0.0025403
-0.00310219
-0.00310216
-0.00222075
-0.00222066
-0.00311637
-0.00220538
-0.0031196
-0.00272825
-0.00230558
-0.00270043
-0.0023114
-0.00270017
-0.00312578
-0.00313837
-0.00226963
-0.00229115
-0.00316147
-0.00313837
-0.00226969
-0.00229117
-0.00316146
-0.00225521
-0.00267237
-0.00264399
-0.00306967
-0.00267206
-0.00224933
-0.00306349
-0.00225522
-0.00267235
-0.00264401
-0.00306967
-0.00267209
-0.00224941
-0.0030635
-0.00223497
-0.00310535
-0.00221343
-0.00308228
-0.00223498
-0.00310535
-0.00221353
-0.00308227
-0.00226159
-0.00317247
-0.00226164
-0.00317248
-0.00254029
-0.00310214
-0.00310218
-0.00222069
-0.00222072
-0.00311636
-0.00220542
-0.00311637
-0.00220547
-0.00214914
-0.00306025
-0.00214918
-0.00306025
-0.00216443
-0.00216444
-0.00275075
-0.00304604
-0.00304607
-0.00300416
-0.00209298
-0.00300415
-0.002093
-0.0024278
-0.00298994
-0.00298997
-0.00210827
-0.00210826
-0.0030262
-0.00215728
-0.00217876
-0.00304919
-0.00300741
-0.0021931
-0.00261586
-0.00258811
-0.00219898
-0.00301357
-0.00258778
-0.0030074
-0.00219317
-0.00261587
-0.0025881
-0.002199
-0.00301352
-0.00258779
-0.00212258
-0.00299314
-0.00210105
-0.0029701
-0.00212258
-0.00299305
-0.00210108
-0.00297011
-0.00214281
-0.00256004
-0.00295747
-0.00253165
-0.00213693
-0.00255971
-0.0029513
-0.00214282
-0.00256003
-0.0029574
-0.00253164
-0.00213697
-0.00255971
-0.00295129
-0.00216447
-0.00216441
-0.00275069
-0.00304603
-0.00304602
-0.00214913
-0.00306023
-0.00300408
-0.00209301
-0.0024278
-0.00298991
-0.0029899
-0.00210827
-0.00210825
-0.00300412
-0.00209296
-0.00300744
-0.00219314
-0.00261591
-0.00258811
-0.00219905
-0.00301357
-0.00258784
-0.00302624
-0.00215733
-0.00217879
-0.00304926
-0.00300743
-0.00261589
-0.00219322
-0.00258815
-0.00219906
-0.00258782
-0.00301358
-0.00212262
-0.00299313
-0.00210107
-0.00297012
-0.00214286
-0.00256004
-0.00295747
-0.00253169
-0.00213696
-0.00255976
-0.00295131
-0.00212261
-0.00299313
-0.00210114
-0.00297011
-0.00214286
-0.00256008
-0.00253166
-0.00295746
-0.00255974
-0.00213702
-0.0029513
-0.00302617
-0.00215719
-0.00217877
-0.0030492
-0.00300737
-0.00261588
-0.00219318
-0.00258813
-0.00219901
-0.0025878
-0.00301355
-0.00302615
-0.0021573
-0.00217876
-0.00304924
-0.00214283
-0.00256002
-0.00295742
-0.00253166
-0.00213692
-0.00255973
-0.00295127
-0.00212262
-0.00299308
-0.00210102
-0.00297008
-0.00214285
-0.00256005
-0.00253164
-0.00295743
-0.00255972
-0.00213701
-0.00295126
-0.00212259
-0.00299311
-0.00210113
-0.00297006
-0.00216453
-0.00216446
-0.00275072
-0.00304609
-0.00304607
-0.00214918
-0.00306029
-0.00300414
-0.00209307
-0.00242788
-0.00298996
-0.00298995
-0.00210833
-0.0021083
-0.00300417
-0.00209302
-0.0030074
-0.00261593
-0.00219322
-0.00258813
-0.00219905
-0.00258786
-0.00301356
-0.00302619
-0.00215724
-0.0021788
-0.00304927
-0.00302619
-0.00215734
-0.0021788
-0.00304924
-0.00214286
-0.00256006
-0.00253168
-0.00295748
-0.00255976
-0.00213697
-0.00295128
-0.00214288
-0.00256005
-0.0025317
-0.00295743
-0.00255978
-0.00213704
-0.00295128
-0.00212262
-0.00299315
-0.00210109
-0.00297009
-0.00212264
-0.0029931
-0.00210116
-0.00297009
-0.00214923
-0.00306026
-0.00214928
-0.00306025
-0.00242792
-0.00298992
-0.00298994
-0.00210834
-0.00210834
-0.00300413
-0.00209306
-0.00300412
-0.00209309
-0.00203687
-0.00294798
-0.00203688
-0.00294798
-0.00205214
-0.00205214
-0.00263841
-0.00293377
-0.00293381
-0.00289176
-0.00198077
-0.00289178
-0.00198079
-0.0023156
-0.00287755
-0.0028776
-0.00199605
-0.00199605
-0.00291391
-0.00204492
-0.00206648
-0.00293689
-0.00289511
-0.00208081
-0.00250357
-0.00247582
-0.00208667
-0.00290129
-0.0024755
-0.0028951
-0.00208081
-0.00250357
-0.00247579
-0.00208668
-0.00290124
-0.00247551
-0.00201032
-0.00288074
-0.00198883
-0.00285765
-0.00201034
-0.00288072
-0.00198884
-0.00285766
-0.00203055
-0.00244773
-0.00284506
-0.00241937
-0.00202471
-0.00244743
-0.00283888
-0.00203056
-0.00244771
-0.00284504
-0.00241938
-0.00202473
-0.00244744
-0.00283888
-0.00205212
-0.00205211
-0.0026384
-0.00293375
-0.00293373
-0.00203681
-0.00294795
-0.00289174
-0.00198078
-0.00231555
-0.00287757
-0.00287754
-0.00199604
-0.00199599
-0.00289176
-0.0019807
-0.00289511
-0.00208084
-0.00250362
-0.00247581
-0.00208671
-0.00290129
-0.00247556
-0.00291391
-0.00204499
-0.00206648
-0.00293695
-0.0028951
-0.00250359
-0.00208088
-0.00247584
-0.00208672
-0.00247553
-0.00290128
-0.00201034
-0.00288075
-0.00198886
-0.00285769
-0.0020306
-0.00244773
-0.00284507
-0.00241942
-0.00202474
-0.00244749
-0.0028389
-0.00201035
-0.00288076
-0.00198889
-0.00285768
-0.0020306
-0.00244776
-0.00241939
-0.00284509
-0.00244746
-0.00202478
-0.00283889
-0.00291389
-0.00204489
-0.00206647
-0.00293692
-0.00289507
-0.00250356
-0.00208085
-0.00247582
-0.0020867
-0.00247549
-0.00290124
-0.00291387
-0.00204497
-0.00206646
-0.00293691
-0.00203054
-0.00244769
-0.00284506
-0.00241938
-0.00202465
-0.00244745
-0.00283888
-0.0020103
-0.00288073
-0.00198878
-0.00285766
-0.00203055
-0.00244773
-0.00241935
-0.00284506
-0.00244742
-0.0020247
-0.00283886
-0.0020103
-0.00288073
-0.00198883
-0.00285765
-0.00205219
-0.00205216
-0.00263838
-0.00293379
-0.00293377
-0.00203688
-0.00294799
-0.00289178
-0.00198083
-0.00231563
-0.00287761
-0.00287757
-0.00199609
-0.00199602
-0.0028918
-0.00198074
-0.0028951
-0.00250361
-0.00208087
-0.00247581
-0.00208672
-0.00247554
-0.00290124
-0.00291391
-0.00204494
-0.00206648
-0.00293697
-0.00291391
-0.00204499