/*--------------------------------*- C++ -*----------------------------------*\
| =========                 |                                                 |
| \\      /  F ield         | OpenFOAM: The Open Source CFD Toolbox           |
|  \\    /   O peration     | Version:  2206                                  |
|   \\  /    A nd           | Website:  www.openfoam.com                      |
|    \\/     M anipulation  |                                                 |
\*---------------------------------------------------------------------------*/
FoamFile
{
    version     2.0;
    format      ascii;
    arch        "LSB;label=32;scalar=64";
    class       surfaceScalarField;
    location    "1";
    object      phi;
}
// * * * * * * * * * * * * * * * * * * * * * * * * * * * * * * * * * * * * * //

dimensions      [0 3 -1 0 0 0 0];

oriented        oriented;

internalField   nonuniform List<scalar> 
82934
(
1.87441e-05
-2.96446e-05
-2.96753e-05
1.72994e-05
1.72948e-05
5.98147e-06
-1.22772e-05
1.20289e-05
2.9664e-05
2.29193e-05
-1.23024e-05
1.12306e-05
-1.0408e-05
-8.82352e-06
-1.16277e-05
1.33032e-05
1.31806e-05
-1.00586e-05
-1.23774e-05
-1.23183e-05
-1.21337e-05
-1.22754e-05
1.20274e-05
2.96651e-05
2.29213e-05
-1.23036e-05
1.12284e-05
-1.0408e-05
-8.8231e-06
-1.16266e-05
1.32991e-05
1.31778e-05
-1.00583e-05
-1.23167e-05
-1.23758e-05
-1.21315e-05
-3.17742e-06
-1.20232e-05
-1.20287e-05
1.26031e-05
1.26233e-05
2.00291e-06
-3.56049e-07
-3.53901e-07
-2.34475e-06
7.5855e-08
7.38688e-08
2.90498e-06
-2.55018e-06
8.44623e-06
3.54489e-07
1.455e-06
2.12712e-06
6.55905e-06
-8.93537e-06
-6.28492e-06
-9.17339e-06
7.67972e-06
8.59353e-06
-8.27128e-06
-2.55205e-06
8.44712e-06
3.54588e-07
1.45481e-06
2.12627e-06
6.55871e-06
-8.93589e-06
-6.28366e-06
-9.17157e-06
7.67865e-06
8.59254e-06
-8.26951e-06
1.6453e-07
-8.44029e-06
-8.447e-06
8.0356e-06
8.05402e-06
6.33143e-07
4.5832e-07
4.59512e-07
-3.07059e-06
-4.62483e-07
-4.64831e-07
3.08007e-06
-2.29708e-06
8.44862e-06
-4.56975e-07
1.12551e-06
2.30286e-06
6.57115e-06
-8.7877e-06
-6.12867e-06
-8.99878e-06
7.70521e-06
8.60648e-06
-8.09063e-06
-2.29676e-06
8.44878e-06
-4.56341e-07
1.12504e-06
2.30409e-06
6.57054e-06
-8.78798e-06
-6.12773e-06
-8.99724e-06
7.70308e-06
8.60367e-06
-8.08915e-06
2.76118e-07
-8.44295e-06
-8.45e-06
8.0175e-06
8.03593e-06
5.63403e-07
4.72382e-07
4.71987e-07
-3.07717e-06
-4.70393e-07
-4.73263e-07
3.07646e-06
-2.30214e-06
8.4509e-06
-4.75053e-07
1.12016e-06
2.30257e-06
6.57333e-06
-8.78287e-06
-6.12309e-06
-8.99383e-06
7.7074e-06
8.60854e-06
-8.08593e-06
-2.30173e-06
8.45095e-06
-4.77388e-07
1.11986e-06
2.30212e-06
6.57323e-06
-8.7826e-06
-6.12194e-06
-8.99195e-06
7.70594e-06
8.60747e-06
-8.08396e-06
2.77977e-07
-8.44345e-06
-8.45088e-06
8.01879e-06
8.03691e-06
5.60651e-07
4.68636e-07
4.67353e-07
-3.07506e-06
-4.67345e-07
-4.70694e-07
3.07711e-06
-2.29464e-06
8.4519e-06
-4.71822e-07
1.122e-06
2.29697e-06
6.57432e-06
-8.78466e-06
-6.12457e-06
-8.9976e-06
7.70759e-06
8.60907e-06
-8.08856e-06
-2.29422e-06
8.45257e-06
-4.72379e-07
1.12238e-06
2.29604e-06
6.57404e-06
-8.78507e-06
-6.12404e-06
-8.9956e-06
7.70552e-06
8.60741e-06
-8.08666e-06
2.74877e-07
-8.4451e-06
-8.45233e-06
8.01963e-06
8.038e-06
5.64917e-07
4.65385e-07
4.64943e-07
-3.09026e-06
-4.67825e-07
-4.71174e-07
3.09893e-06
-2.30421e-06
8.44864e-06
-4.72748e-07
1.12521e-06
2.30821e-06
6.57166e-06
-8.78284e-06
-6.12349e-06
-8.99519e-06
7.70546e-06
8.60655e-06
-8.08725e-06
-2.30382e-06
8.44721e-06
-4.71231e-07
1.12772e-06
2.31007e-06
6.56989e-06
-8.78256e-06
-6.12273e-06
-8.99332e-06
7.7015e-06
8.6029e-06
-8.08563e-06
2.75747e-07
-8.44207e-06
-8.44939e-06
8.01779e-06
8.03605e-06
5.61877e-07
4.75843e-07
4.79581e-07
-3.10622e-06
-4.74545e-07
-4.76704e-07
3.10204e-06
-2.31718e-06
8.448e-06
-4.74134e-07
1.12155e-06
2.3175e-06
6.57037e-06
-8.78025e-06
-6.12204e-06
-8.99047e-06
7.70494e-06
8.60503e-06
-8.08333e-06
-2.31611e-06
8.44861e-06
-4.73456e-07
1.12144e-06
2.316e-06
6.57051e-06
-8.78051e-06
-6.12131e-06
-8.98936e-06
7.70292e-06
8.60337e-06
-8.08209e-06
2.80127e-07
-8.44161e-06
-8.44902e-06
8.01773e-06
8.03597e-06
5.56812e-07
4.75536e-07
4.75566e-07
-3.08327e-06
-4.72237e-07
-4.75819e-07
3.08023e-06
-2.30496e-06
8.45305e-06
-4.79851e-07
1.11645e-06
2.30195e-06
6.57539e-06
-8.78228e-06
-6.12193e-06
-8.9932e-06
7.70966e-06
8.61048e-06
-8.08477e-06
-2.30423e-06
8.45141e-06
-4.78591e-07
1.11976e-06
2.30297e-06
6.5739e-06
-8.78227e-06
-6.1216e-06
-8.99148e-06
7.70611e-06
8.60749e-06
-8.08347e-06
2.78325e-07
-8.44588e-06
-8.4532e-06
8.02026e-06
8.03847e-06
5.62029e-07
4.69004e-07
4.75727e-07
-3.06725e-06
-4.70306e-07
-4.70801e-07
3.06363e-06
-2.2918e-06
8.45379e-06
-4.78791e-07
1.11997e-06
2.29047e-06
6.57649e-06
-8.78453e-06
-6.12341e-06
-8.99649e-06
7.70998e-06
8.61208e-06
-8.08776e-06
-2.29314e-06
8.45522e-06
-4.81601e-07
1.11817e-06
2.28934e-06
6.57729e-06
-8.78461e-06
-6.1222e-06
-8.99434e-06
7.70917e-06
8.61198e-06
-8.08529e-06
2.74497e-07
-8.44831e-06
-8.45564e-06
8.02167e-06
8.03973e-06
5.68044e-07
4.65947e-07
4.6647e-07
-3.06854e-06
-4.6668e-07
-4.71327e-07
3.07413e-06
-2.28716e-06
8.45394e-06
-4.76929e-07
1.11985e-06
2.2883e-06
6.57645e-06
-8.78614e-06
-6.12473e-06
-8.99795e-06
7.71043e-06
8.61245e-06
-8.08852e-06
-2.28407e-06
8.4518e-06
-4.70123e-07
1.12635e-06
2.28734e-06
6.57388e-06
-8.78738e-06
-6.12565e-06
-8.99769e-06
7.70581e-06
8.60834e-06
-8.0886e-06
2.70549e-07
-8.44888e-06
-8.45609e-06
8.02152e-06
8.04022e-06
5.72688e-07
4.68822e-07
4.73731e-07
-3.08016e-06
-4.71502e-07
-4.728e-07
3.08191e-06
-2.29456e-06
8.44975e-06
-4.65291e-07
1.12453e-06
2.29806e-06
6.57159e-06
-8.78494e-06
-6.12564e-06
-8.99697e-06
7.70548e-06
8.60642e-06
-8.08843e-06
-2.29882e-06
8.45018e-06
-4.69582e-07
1.12239e-06
2.30036e-06
6.57173e-06
-8.78381e-06
-6.12367e-06
-8.99349e-06
7.70409e-06
8.60556e-06
-8.08494e-06
2.74771e-07
-8.44281e-06
-8.45001e-06
8.018e-06
8.03649e-06
5.63561e-07
4.71558e-07
4.69861e-07
-3.10063e-06
-4.71191e-07
-4.75739e-07
3.10614e-06
-2.31627e-06
8.44658e-06
-4.73027e-07
1.1249e-06
2.32089e-06
6.56921e-06
-8.78013e-06
-6.12212e-06
-8.99176e-06
7.70298e-06
8.60339e-06
-8.08464e-06
-2.31267e-06
8.44693e-06
-4.71286e-07
1.12765e-06
6.56883e-06
-8.78113e-06
-6.12218e-06
-8.99074e-06
7.70147e-06
8.60163e-06
-8.08382e-06
2.31532e-06
2.82417e-07
-8.44113e-06
-8.44814e-06
8.01688e-06
8.03546e-06
5.54518e-07
1.56078e-06
1.55965e-06
3.17794e-06
-4.12517e-07
-2.94158e-06
-2.94427e-06
-1.66673e-06
1.22782e-05
-9.72323e-06
-3.6703e-06
4.34283e-06
-1.55796e-06
-1.66885e-06
1.22778e-05
-9.72118e-06
-3.67017e-06
4.34037e-06
1.55721e-06
3.17297e-06
-4.02344e-07
-2.94153e-06
-2.94425e-06
-1.66648e-06
1.22818e-05
-9.72546e-06
-3.67132e-06
4.34106e-06
-1.6686e-06
-1.55786e-06
1.22759e-05
-9.72004e-06
4.34055e-06
-3.66992e-06
-2.77714e-05
-2.7764e-05
-9.62359e-06
-7.17635e-06
-8.54896e-06
-8.54896e-06
2.65152e-05
-4.05556e-07
2.63129e-05
2.65152e-05
-4.04755e-07
2.63113e-05
1.6691e-06
-1.87556e-05
-2.77802e-05
-2.77765e-05
-9.62138e-06
-7.17276e-06
-8.54603e-06
-8.54588e-06
2.65214e-05
-4.06005e-07
2.6315e-05
2.652e-05
-4.03254e-07
2.63133e-05
1.66856e-06
-1.87559e-05
-2.77815e-05
-2.77792e-05
-9.62001e-06
-7.17114e-06
-8.54433e-06
-8.54441e-06
2.65202e-05
-4.05367e-07
2.63144e-05
2.65201e-05
-4.0332e-07
2.63134e-05
1.66606e-06
1.66555e-06
-1.87575e-05
-2.77723e-05
-2.77641e-05
-9.62099e-06
-7.17394e-06
-8.54619e-06
-8.54609e-06
2.6516e-05
-4.04941e-07
2.63124e-05
2.65176e-05
-4.04472e-07
2.63129e-05
-9.72057e-06
-3.67042e-06
4.3401e-06
-1.56143e-06
1.22777e-05
-9.72255e-06
4.34305e-06
-3.67075e-06
1.55746e-06
3.17278e-06
-4.01933e-07
-2.94167e-06
-2.9445e-06
-9.71931e-06
4.3406e-06
-3.67069e-06
-1.56049e-06
1.22813e-05
-9.72463e-06
4.34159e-06
-3.67222e-06
-4.12787e-07
-2.94177e-06
-2.94478e-06
-1.20217e-05
-1.20278e-05
1.26035e-05
1.26227e-05
2.00115e-06
8.88476e-06
8.88993e-06
-1.64074e-07
-5.62478e-07
-8.5155e-06
-8.53264e-06
2.29257e-05
-1.22666e-05
1.12268e-05
-1.04062e-05
-8.8261e-06
-1.16278e-05
1.32988e-05
1.31773e-05
-1.00595e-05
-1.23763e-05
-1.23205e-05
-1.21337e-05
1.2026e-05
2.9643e-05
2.2912e-05
-1.22767e-05
1.12227e-05
-1.04004e-05
-8.81693e-06
-1.16286e-05
1.33062e-05
1.31812e-05
-1.00596e-05
-1.23773e-05
-1.23205e-05
-1.21332e-05
2.58027e-06
-2.10769e-06
-8.53942e-07
1.6986e-07
8.74373e-06
-6.21364e-06
6.87148e-06
8.94661e-06
-8.18231e-06
8.02834e-06
-9.09794e-06
-8.88308e-06
2.58472e-06
-2.10972e-06
-8.51976e-07
1.71588e-07
8.74055e-06
-6.20609e-06
6.86104e-06
8.94962e-06
-8.18671e-06
8.03177e-06
-9.10171e-06
1.26223e-05
1.26076e-05
1.99803e-06
8.89254e-06
-1.67663e-07
-5.57527e-07
-8.5323e-06
-8.51813e-06
2.29259e-05
-1.22923e-05
1.12177e-05
-1.0408e-05
-8.81945e-06
-1.1629e-05
1.33051e-05
1.31815e-05
-1.00613e-05
-1.2382e-05
-1.23224e-05
-1.21372e-05
1.20248e-05
2.96455e-05
2.29128e-05
-1.22773e-05
1.12211e-05
-1.04001e-05
-8.81679e-06
-1.16279e-05
1.33022e-05
1.31779e-05
-1.00593e-05
-1.2319e-05
-1.23761e-05
-1.2132e-05
2.55212e-06
-2.1147e-06
-8.27917e-07
1.68048e-07
8.75128e-06
-6.20521e-06
6.86382e-06
8.95247e-06
-8.18438e-06
8.03483e-06
-9.10042e-06
-8.88296e-06
2.58367e-06
-2.111e-06
-8.5222e-07
1.68622e-07
8.74262e-06
-6.20461e-06
6.86157e-06
8.94831e-06
-8.18471e-06
8.03048e-06
-9.09977e-06
2.96455e-05
2.29268e-05
-1.2271e-05
1.12279e-05
-1.04069e-05
-8.82645e-06
-1.1628e-05
1.32984e-05
-1.00596e-05
1.31772e-05
-1.23195e-05
-1.23767e-05
-1.21329e-05
-2.10897e-06
-8.21715e-07
1.72814e-07
8.74986e-06
-6.21565e-06
6.87145e-06
8.94878e-06
-8.18481e-06
-9.10033e-06
8.03094e-06
-8.88551e-06
2.58369e-06
-2.10447e-06
-8.51487e-07
1.74343e-07
8.74112e-06
-6.21453e-06
6.86939e-06
8.94479e-06
-8.18415e-06
8.02631e-06
-9.09948e-06
1.26205e-05
1.26057e-05
1.99873e-06
8.89303e-06
-1.63989e-07
-5.62065e-07
-8.5321e-06
-8.51783e-06
2.96738e-05
2.29271e-05
-1.22975e-05
1.12189e-05
-1.04089e-05
-8.81955e-06
-1.1629e-05
1.33058e-05
-1.00605e-05
1.31825e-05
-1.23216e-05
-1.23824e-05
-1.21361e-05
-2.1112e-06
-8.23776e-07
1.70146e-07
8.75084e-06
-6.21407e-06
6.87182e-06
8.94703e-06
-8.18208e-06
-9.0975e-06
8.02977e-06
-8.89082e-06
2.55261e-06
-2.11015e-06
-8.24553e-07
1.73988e-07
8.74912e-06
-6.20611e-06
6.86109e-06
8.95023e-06
-8.18619e-06
8.03238e-06
-9.10159e-06
-5.62539e-07
-8.5161e-06
-8.53316e-06
-8.43951e-06
-8.44646e-06
8.03535e-06
8.0542e-06
6.32336e-07
8.78426e-06
8.79067e-06
-2.78276e-07
-5.60689e-07
-8.35953e-06
-8.37643e-06
1.45762e-06
2.15189e-06
6.55858e-06
-8.92737e-06
-6.28337e-06
-9.1714e-06
7.67712e-06
8.59121e-06
-8.26958e-06
8.43915e-06
3.55642e-07
1.45567e-06
2.15628e-06
6.54977e-06
-8.92387e-06
-6.27436e-06
-9.17426e-06
7.6799e-06
8.59462e-06
-8.27382e-06
2.31812e-06
-4.42931e-07
-2.30664e-06
1.12723e-06
8.44298e-06
-6.13198e-06
6.57083e-06
8.60343e-06
-8.09535e-06
7.70187e-06
-9.0033e-06
-8.78112e-06
2.31917e-06
-4.43663e-07
-2.30901e-06
1.12693e-06
8.44218e-06
-6.12351e-06
6.56181e-06
8.60665e-06
-8.09885e-06
7.70503e-06
-9.00563e-06
8.05116e-06
8.03843e-06
6.28121e-07
8.79284e-06
-2.7977e-07
-5.5713e-07
-8.376e-06
-8.36105e-06
1.45397e-06
2.12766e-06
6.55003e-06
-8.93402e-06
-6.27606e-06
-9.17515e-06
7.68202e-06
8.59611e-06
-8.27282e-06
8.44004e-06
3.55237e-07
1.45415e-06
2.15444e-06
6.54941e-06
-8.92449e-06
-6.27323e-06
-9.17275e-06
7.67888e-06
8.59371e-06
-8.27174e-06
2.29907e-06
-4.43309e-07
-2.28662e-06
1.12523e-06
8.45016e-06
-6.12462e-06
6.56197e-06
8.60705e-06
-8.09815e-06
7.70641e-06
-9.00651e-06
-8.78217e-06
2.31971e-06
-4.42515e-07
-2.30845e-06
1.12765e-06
8.44207e-06
-6.12291e-06
6.56055e-06
8.6041e-06
-8.09687e-06
7.70291e-06
-9.00409e-06
3.583e-07
1.45909e-06
2.15332e-06
6.55845e-06
-8.92735e-06
-6.28308e-06
-9.17179e-06
7.67656e-06
-8.27089e-06
8.59078e-06
-4.42626e-07
-2.28525e-06
1.12921e-06
8.45015e-06
-6.13433e-06
6.57115e-06
8.60609e-06
-8.0975e-06
-9.00517e-06
7.70404e-06
-8.78477e-06
2.31873e-06
-4.43993e-07
-2.3094e-06
1.12874e-06
8.4439e-06
-6.13164e-06
6.5708e-06
8.6037e-06
-8.0954e-06
7.70189e-06
-9.00257e-06
8.05141e-06
8.03843e-06
6.33341e-07
8.79315e-06
-2.76283e-07
-5.62594e-07
-8.37546e-06
-8.36098e-06
3.57106e-07
1.45706e-06
2.12658e-06
6.54893e-06
-8.93455e-06
-6.27611e-06
-9.17583e-06
7.68099e-06
-8.2742e-06
8.59563e-06
-4.411e-07
-2.28468e-06
1.12946e-06
8.45003e-06
-6.13352e-06
6.57037e-06
8.60385e-06
-8.09616e-06
-9.00402e-06
7.70217e-06
-8.79075e-06
2.29821e-06
-4.44058e-07
-2.28749e-06
1.12611e-06
8.45139e-06
-6.12415e-06
6.56207e-06
8.60757e-06
-8.09897e-06
7.70636e-06
-9.0063e-06
-5.63356e-07
-8.35922e-06
-8.37682e-06
-8.44154e-06
-8.4486e-06
8.01771e-06
8.0361e-06
5.58043e-07
8.77513e-06
8.78228e-06
-2.76871e-07
-5.62835e-07
-8.35072e-06
-8.36698e-06
1.12363e-06
2.32463e-06
6.57122e-06
-8.77882e-06
-6.12703e-06
-8.99703e-06
7.70313e-06
8.60408e-06
-8.08892e-06
8.44087e-06
-4.58802e-07
1.12376e-06
2.32605e-06
6.56136e-06
-8.77646e-06
-6.11789e-06
-8.99941e-06
7.70552e-06
8.60695e-06
-8.09277e-06
2.31815e-06
-4.75018e-07
-2.32226e-06
1.11683e-06
8.44634e-06
-6.1219e-06
6.57471e-06
8.60778e-06
-8.08394e-06
7.70672e-06
-8.9923e-06
-8.7741e-06
2.32466e-06
-4.70933e-07
-2.32376e-06
1.12292e-06
8.44248e-06
-6.11537e-06
6.56281e-06
8.60925e-06
-8.08939e-06
7.70805e-06
-8.99661e-06
8.03335e-06
8.02023e-06
5.56135e-07
8.78365e-06
-2.8061e-07
-5.56303e-07
-8.36717e-06
-8.35367e-06
1.1219e-06
2.30591e-06
6.56243e-06
-8.78539e-06
-6.11933e-06
-8.99962e-06
7.70742e-06
8.60799e-06
-8.09136e-06
8.4408e-06
-4.57474e-07
1.12473e-06
2.32633e-06
6.56061e-06
-8.77735e-06
-6.11754e-06
-8.9979e-06
7.70313e-06
8.60493e-06
-8.09056e-06
2.29931e-06
-4.73784e-07
-2.30309e-06
1.11586e-06
8.45364e-06
-6.11502e-06
6.56546e-06
8.61155e-06
-8.08696e-06
7.71104e-06
-8.99573e-06
-8.77548e-06
2.32285e-06
-4.69809e-07
-2.323e-06
1.12203e-06
8.44382e-06
-6.11558e-06
6.5627e-06
8.60738e-06
-8.08678e-06
7.70651e-06
-8.99463e-06
-4.56449e-07
1.12637e-06
2.32211e-06
6.5707e-06
-8.78027e-06
-6.12697e-06
-8.99723e-06
7.70241e-06
-8.08951e-06
8.60463e-06
-4.69344e-07
-2.30084e-06
1.12125e-06
8.45024e-06
-6.12471e-06
6.57264e-06
8.60739e-06
-8.087e-06
-8.99488e-06
7.70677e-06
-8.77614e-06
2.32019e-06
-4.66966e-07
-2.32027e-06
1.12414e-06
8.44311e-06
-6.12322e-06
6.57092e-06
8.60435e-06
-8.08537e-06
7.70296e-06
-8.9937e-06
8.03282e-06
8.01961e-06
5.60863e-07
8.78329e-06
-2.77683e-07
-5.60498e-07
-8.36634e-06
-8.35425e-06
-4.58486e-07
1.12345e-06
2.30336e-06
6.56255e-06
-8.78616e-06
-6.11904e-06
-9.00041e-06
7.70738e-06
-8.09309e-06
8.60865e-06
-4.73904e-07
-2.30203e-06
1.11997e-06
8.45161e-06
-6.123e-06
6.5733e-06
8.60658e-06
-8.08425e-06
-8.99258e-06
7.70587e-06
-8.78277e-06
2.30121e-06
-4.68752e-07
-2.3012e-06
1.12268e-06
8.45052e-06
-6.11587e-06
6.56263e-06
8.60897e-06
-8.08831e-06
7.70771e-06
-8.99681e-06
-5.61242e-07
-8.35149e-06
-8.36819e-06
-8.44528e-06
-8.45253e-06
8.02015e-06
8.0385e-06
5.62283e-07
8.77704e-06
8.7843e-06
-2.76239e-07
-5.63563e-07
-8.35273e-06
-8.36881e-06
1.11982e-06
2.31554e-06
6.57423e-06
-8.77586e-06
-6.12307e-06
-8.99387e-06
7.70628e-06
8.60798e-06
-8.08581e-06
8.44307e-06
-4.72188e-07
1.11973e-06
2.32534e-06
6.56284e-06
-8.77391e-06
-6.11484e-06
-8.99597e-06
7.7088e-06
8.61007e-06
-8.08829e-06
2.31438e-06
-4.70455e-07
-2.31596e-06
1.12267e-06
8.44535e-06
-6.12383e-06
6.57376e-06
8.60741e-06
-8.08667e-06
7.70548e-06
-8.99511e-06
-8.77509e-06
2.31917e-06
-4.69481e-07
-2.32044e-06
1.11837e-06
8.44429e-06
-6.11598e-06
6.56352e-06
8.61097e-06
-8.08854e-06
7.70969e-06
-8.99648e-06
8.03502e-06
8.02136e-06
5.56991e-07
8.78394e-06
-2.77797e-07
-5.6057e-07
-8.3664e-06
-8.35426e-06
1.11894e-06
2.29685e-06
6.56506e-06
-8.78303e-06
-6.11623e-06
-8.99666e-06
7.71043e-06
8.61179e-06
-8.0884e-06
8.44327e-06
-4.70484e-07
1.12038e-06
2.32344e-06
6.56216e-06
-8.77524e-06
-6.11522e-06
-8.99409e-06
7.70655e-06
8.60798e-06
-8.08589e-06
2.29483e-06
-4.69422e-07
-2.2965e-06
1.12148e-06
8.45256e-06
-6.11707e-06
6.56442e-06
8.61152e-06
-8.08936e-06
7.70999e-06
-8.99813e-06
-8.77634e-06
2.31753e-06
-4.6879e-07
-2.31892e-06
1.11847e-06
8.44541e-06
-6.11583e-06
6.56318e-06
8.60892e-06
-8.08641e-06
7.70768e-06
-8.99491e-06
-4.70218e-07
1.12265e-06
2.32193e-06
6.57158e-06
-8.77628e-06
-6.12298e-06
-8.99329e-06
7.70341e-06
-8.08524e-06
8.60517e-06
-4.74774e-07
-2.29607e-06
1.12083e-06
8.45263e-06
-6.12416e-06
6.57505e-06
8.61078e-06
-8.08762e-06
-8.99626e-06
7.70891e-06
-8.77662e-06
2.31534e-06
-4.73185e-07
-2.31801e-06
1.11867e-06
8.44628e-06
-6.12267e-06
6.57377e-06
8.60824e-06
-8.08454e-06
7.70638e-06
-8.99363e-06
8.03452e-06
8.02105e-06
5.60959e-07
8.78454e-06
-2.75361e-07
-5.64523e-07
-8.36637e-06
-8.35462e-06
-4.71099e-07
1.12129e-06
2.30343e-06
6.56327e-06
-8.78301e-06
-6.11579e-06
-8.99692e-06
7.70816e-06
-8.08862e-06
8.60963e-06
-4.762e-07
-2.29622e-06
1.12122e-06
8.45355e-06
-6.1235e-06
6.5748e-06
8.60872e-06
-8.08493e-06
-8.99395e-06
7.70684e-06
-8.78362e-06
2.29626e-06
-4.74336e-07
-2.2993e-06
1.11767e-06
8.45351e-06
-6.11568e-06
6.56506e-06
8.61272e-06
-8.08704e-06
7.71091e-06
-8.99616e-06
-5.65816e-07
-8.35162e-06
-8.36792e-06
-8.44367e-06
-8.45091e-06
8.01889e-06
8.03733e-06
5.62115e-07
8.77509e-06
8.78216e-06
-2.8087e-07
-5.57171e-07
-8.35153e-06
-8.36768e-06
1.12429e-06
2.31654e-06
6.57275e-06
-8.77764e-06
-6.12471e-06
-8.99567e-06
7.70451e-06
8.60664e-06
-8.08737e-06
8.44339e-06
-4.6824e-07
1.11899e-06
2.32071e-06
6.56303e-06
-8.77579e-06
-6.11619e-06
-8.99699e-06
7.70911e-06
8.61008e-06
-8.08893e-06
2.32235e-06
-4.65891e-07
-2.31949e-06
1.1272e-06
8.44103e-06
-6.12348e-06
6.56975e-06
8.60268e-06
-8.08646e-06
7.70153e-06
-8.99413e-06
-8.77503e-06
2.32755e-06
-4.63587e-07
-2.32462e-06
1.12081e-06
8.44155e-06
-6.11634e-06
6.56077e-06
8.60659e-06
-8.08847e-06
7.70682e-06
-8.99604e-06
8.03589e-06
8.02145e-06
5.60161e-07
8.78281e-06
-2.80626e-07
-5.57012e-07
-8.36566e-06
-8.35455e-06
1.12305e-06
2.29735e-06
6.56344e-06
-8.78494e-06
-6.1181e-06
-8.99884e-06
7.70896e-06
8.61059e-06
-8.09024e-06
8.44443e-06
-4.67795e-07
1.11911e-06
2.31873e-06
6.56277e-06
-8.77679e-06
-6.11613e-06
-8.99545e-06
7.70711e-06
8.60837e-06
-8.08683e-06
2.30341e-06
-4.63976e-07
-2.30011e-06
1.12534e-06
8.4483e-06
-6.11669e-06
6.56067e-06
8.6063e-06
-8.08952e-06
7.7059e-06
-8.99747e-06
-8.77553e-06
2.32547e-06
-4.61284e-07
-2.32211e-06
1.12382e-06
8.44111e-06
-6.11635e-06
6.55935e-06
8.60388e-06
-8.08704e-06
7.70355e-06
-8.99486e-06
-4.70532e-07
1.11878e-06
2.31662e-06
6.57357e-06
-8.7774e-06
-6.12352e-06
-8.99448e-06
7.70562e-06
-8.08539e-06
8.60697e-06
-4.73958e-07
-2.30138e-06
1.12387e-06
8.44994e-06
-6.12317e-06
6.57274e-06
8.6076e-06
-8.0876e-06
-8.99576e-06
7.70633e-06
-8.77684e-06
2.32321e-06
-4.70856e-07
-2.32102e-06
1.12162e-06
8.44388e-06
-6.12309e-06
6.5718e-06
8.60557e-06
-8.08499e-06
7.704e-06
-8.99329e-06
8.03586e-06
8.02152e-06
5.64267e-07
8.7831e-06
-2.78816e-07
-5.59396e-07
-8.36575e-06
-8.35466e-06
-4.71791e-07
1.11759e-06
2.29753e-06
6.56493e-06
-8.78419e-06
-6.11635e-06
-8.9974e-06
7.71038e-06
-8.08836e-06
8.6116e-06
-4.70181e-07
-2.29994e-06
1.12694e-06
8.44934e-06
-6.12347e-06
6.57118e-06
8.60389e-06
-8.08642e-06
-8.99484e-06
7.70279e-06
-8.78329e-06
2.30493e-06
-4.71781e-07
-2.30238e-06
1.11894e-06
8.45115e-06
-6.11559e-06
6.56317e-06
8.60993e-06
-8.08797e-06
7.70905e-06
-8.99615e-06
-5.63851e-07
-8.35193e-06
-8.3686e-06
-8.43897e-06
-8.44632e-06
8.01656e-06
8.03472e-06
5.53131e-07
8.77111e-06
8.77689e-06
-2.84385e-07
-5.51399e-07
-8.34744e-06
-8.36479e-06
1.12714e-06
2.32802e-06
6.5688e-06
-8.77455e-06
-6.12381e-06
-8.99314e-06
7.70069e-06
8.60144e-06
-8.08583e-06
8.44054e-06
-4.62483e-07
1.12241e-06
2.3321e-06
6.55993e-06
-8.77442e-06
-6.11641e-06
-8.99615e-06
7.70576e-06
8.60524e-06
-8.08896e-06
2.33794e-06
-4.73968e-07
-2.33877e-06
1.11943e-06
8.44171e-06
-6.12007e-06
6.57024e-06
8.60225e-06
-8.08145e-06
7.70225e-06
-8.98845e-06
-8.7702e-06
2.34086e-06
-4.71879e-07
-2.34042e-06
1.1232e-06
8.43939e-06
-6.11283e-06
6.55984e-06
8.60479e-06
-8.08587e-06
7.70502e-06
-8.9919e-06
8.03376e-06
8.01979e-06
5.5501e-07
8.78047e-06
-2.85362e-07
-5.49566e-07
-8.36471e-06
-8.35104e-06
1.12541e-06
2.30972e-06
6.5596e-06
-8.7812e-06
-6.11656e-06
-8.99631e-06
7.7051e-06
8.60507e-06
-8.0888e-06
8.43927e-06
-4.60398e-07
1.1247e-06
2.33183e-06
6.55808e-06
-8.77461e-06
-6.11611e-06
-8.99447e-06
7.70217e-06
8.602e-06
-8.08699e-06
2.31864e-06
-4.79089e-07
-2.32043e-06
1.11813e-06
8.44907e-06
-6.1116e-06
6.56208e-06
8.60748e-06
-8.08395e-06
7.70738e-06
-8.99082e-06
-8.77044e-06
2.3384e-06
-4.7418e-07
-2.33958e-06
1.12266e-06
8.4408e-06
-6.11182e-06
6.56007e-06
8.60401e-06
-8.0835e-06
7.70341e-06
-8.98983e-06
-4.69604e-07
1.12239e-06
2.3291e-06
6.57051e-06
-8.77678e-06
-6.12299e-06
-8.99354e-06
7.70309e-06
-8.08524e-06
8.6042e-06
-4.70538e-07
-2.3157e-06
1.12376e-06
8.44738e-06
-6.12248e-06
6.56992e-06
8.60403e-06
-8.08489e-06
-8.99218e-06
7.70398e-06
-8.77384e-06
2.3346e-06
-4.69226e-07
-2.33405e-06
1.12337e-06
8.4414e-06
-6.1221e-06
6.56926e-06
8.60207e-06
-8.08238e-06
7.70103e-06
-8.99015e-06
8.03269e-06
8.01848e-06
5.56499e-07
8.78024e-06
-2.82611e-07
-5.53482e-07
-8.36397e-06
-8.35061e-06
-4.71307e-07
1.12022e-06
2.3108e-06
6.56208e-06
-8.78314e-06
-6.11534e-06
-8.99626e-06
7.70804e-06
-8.08817e-06
8.60861e-06
-4.7164e-07
-2.31584e-06
1.12271e-06
8.4485e-06
-6.12143e-06
6.57005e-06
8.6026e-06
-8.08264e-06
-8.99051e-06
7.70235e-06
-8.7796e-06
2.31637e-06
-4.73252e-07
-2.31547e-06
1.12143e-06
8.44885e-06
-6.1138e-06
6.56103e-06
8.60708e-06
-8.08566e-06
7.70625e-06
-8.99323e-06
-5.57829e-07
-8.34905e-06
-8.36643e-06
-8.44198e-06
-8.44924e-06
8.01819e-06
8.03688e-06
5.51751e-07
8.77391e-06
8.78033e-06
-2.79196e-07
-5.58505e-07
-8.34998e-06
-8.36656e-06
1.11903e-06
2.33606e-06
6.57123e-06
-8.77157e-06
-6.1203e-06
-8.98847e-06
7.70336e-06
8.60389e-06
-8.08144e-06
8.4402e-06
-4.75019e-07
1.12115e-06
2.34089e-06
6.56059e-06
-8.77011e-06
-6.11245e-06
-8.99111e-06
7.70591e-06
8.60586e-06
-8.08504e-06
2.32351e-06
-4.77555e-07
-2.32871e-06
1.1178e-06
8.44585e-06
-6.12137e-06
6.57434e-06
8.60792e-06
-8.08337e-06
7.7067e-06
-8.9912e-06
-8.77249e-06
2.32729e-06
-4.78909e-07
-2.33246e-06
1.11558e-06
8.44513e-06
-6.11327e-06
6.56492e-06
8.61146e-06
-8.08531e-06
7.71077e-06
-8.99273e-06
8.03353e-06
8.0201e-06
5.49204e-07
8.78099e-06
-2.80433e-07
-5.56322e-07
-8.3644e-06
-8.35233e-06
1.11717e-06
2.31574e-06
6.56298e-06
-8.77756e-06
-6.1124e-06
-8.99102e-06
7.70877e-06
8.60917e-06
-8.08387e-06
8.44114e-06
-4.75599e-07
1.12136e-06
2.33755e-06
6.56067e-06
-8.771e-06
-6.11212e-06
-8.98978e-06
7.70419e-06
8.60511e-06
-8.08314e-06
2.30322e-06
-4.78325e-07
-2.30842e-06
1.11475e-06
8.45313e-06
-6.1139e-06
6.56566e-06
8.61237e-06
-8.08591e-06
7.71176e-06
-8.99399e-06
-8.77381e-06
2.32544e-06
-4.73259e-07
-2.32896e-06
1.11996e-06
8.44365e-06
-6.11426e-06
6.56277e-06
8.60807e-06
-8.08457e-06
7.70712e-06
-8.99215e-06
-4.70247e-07
1.12351e-06
2.33417e-06
6.56953e-06
-8.77368e-06
-6.12177e-06
-8.98998e-06
7.70149e-06
-8.08261e-06
8.60256e-06
-4.79834e-07
-2.30924e-06
1.11522e-06
8.45294e-06
-6.12135e-06
6.57524e-06
8.6099e-06
-8.08413e-06
-8.99234e-06
7.70963e-06
-8.7747e-06
2.32514e-06
-4.74764e-07
-2.32888e-06
1.11949e-06
8.44489e-06
-6.12146e-06
6.57264e-06
8.60601e-06
-8.08239e-06
7.70486e-06
-8.99082e-06
8.03334e-06
8.02004e-06
5.53761e-07
8.78125e-06
-2.7912e-07
-5.58093e-07
-8.36456e-06
-8.35329e-06
-4.75163e-07
1.12112e-06
2.31589e-06
6.56148e-06
-8.77923e-06
-6.1132e-06
-8.99263e-06
7.7069e-06
-8.08554e-06
8.60774e-06
-4.78059e-07
-2.30747e-06
1.11983e-06
8.45138e-06
-6.1214e-06
6.57367e-06
8.60686e-06
-8.08301e-06
-8.99089e-06
7.7061e-06
-8.78022e-06
2.30653e-06
-4.79346e-07
-2.31025e-06
1.11632e-06
8.45237e-06
-6.113e-06
6.56458e-06
8.61122e-06
-8.08513e-06
7.71018e-06
-8.99324e-06
-5.60542e-07
-8.34927e-06
-8.36679e-06
-8.44518e-06
-8.45253e-06
8.02019e-06
8.03864e-06
5.59685e-07
8.77857e-06
8.78394e-06
-2.7533e-07
-5.6494e-07
-8.35232e-06
-8.36993e-06
1.11874e-06
2.32041e-06
6.57416e-06
-8.77486e-06
-6.12189e-06
-8.99292e-06
7.70681e-06
8.60807e-06
-8.08463e-06
8.44531e-06
-4.75889e-07
1.11559e-06
2.32434e-06
6.56477e-06
-8.77385e-06
-6.11435e-06
-8.99478e-06
7.71106e-06
8.61185e-06
-8.08676e-06
2.31148e-06
-4.71819e-07
-2.31497e-06
1.11896e-06
8.44785e-06
-6.1245e-06
6.57538e-06
8.60953e-06
-8.08604e-06
7.70763e-06
-8.99492e-06
-8.77732e-06
2.31465e-06
-4.70589e-07
-2.31672e-06
1.11833e-06
8.44566e-06
-6.11735e-06
6.5646e-06
8.61245e-06
-8.08847e-06
7.71136e-06
-8.99659e-06
8.03668e-06
8.02293e-06
5.58317e-07
8.78449e-06
-2.77003e-07
-5.61763e-07
-8.36684e-06
-8.3562e-06
1.11599e-06
2.30005e-06
6.56549e-06
-8.78126e-06
-6.11451e-06
-8.99592e-06
7.71153e-06
8.61224e-06
-8.08734e-06
8.44385e-06
-4.71971e-07
1.11844e-06
2.32445e-06
6.56276e-06
-8.77476e-06
-6.11471e-06
-8.99331e-06
7.70743e-06
8.60829e-06
-8.08504e-06
2.29165e-06
-4.7684e-07
-2.29533e-06
1.11726e-06
8.45518e-06
-6.116e-06
6.56729e-06
8.6141e-06
-8.08858e-06
7.7125e-06
-8.99729e-06
-8.77711e-06
2.31515e-06
-4.72473e-07
-2.31812e-06
1.11593e-06
8.44703e-06
-6.11585e-06
6.56493e-06
8.6112e-06
-8.08587e-06
7.70975e-06
-8.99457e-06
-4.74468e-07
1.11832e-06
2.3224e-06
6.57341e-06
-8.77562e-06
-6.12204e-06
-8.992e-06
7.70568e-06
-8.08339e-06
8.60699e-06
-4.77299e-07
-2.29353e-06
1.12004e-06
8.45377e-06
-6.12397e-06
6.57634e-06
8.61157e-06
-8.08774e-06
-8.99636e-06
7.70987e-06
-8.77777e-06
2.31312e-06
-4.74091e-07
-2.31498e-06
1.11711e-06
8.44686e-06
-6.12315e-06
6.5746e-06
8.60876e-06
-8.08424e-06
7.70704e-06
-8.99325e-06
8.03532e-06
8.02147e-06
5.59364e-07
8.78371e-06
-2.74348e-07
-5.65759e-07
-8.36549e-06
-8.35522e-06
-4.78033e-07
1.11567e-06
2.30388e-06
6.56547e-06
-8.7812e-06
-6.1136e-06
-8.99477e-06
7.71063e-06
-8.08643e-06
8.61171e-06
-4.81705e-07
-2.29599e-06
1.11782e-06
8.45473e-06
-6.12197e-06
6.57685e-06
8.61075e-06
-8.08476e-06
-8.99393e-06
7.70877e-06
-8.78392e-06
2.29438e-06
-4.78876e-07
-2.29635e-06
1.11623e-06
8.45442e-06
-6.11513e-06
6.56648e-06
8.61408e-06
-8.08718e-06
7.712e-06
-8.99613e-06
-5.66554e-07
-8.35186e-06
-8.36878e-06
-8.44721e-06
-8.45436e-06
8.02102e-06
8.03951e-06
5.65711e-07
8.77921e-06
8.78537e-06
-2.76344e-07
-5.63814e-07
-8.35376e-06
-8.37067e-06
1.12104e-06
2.3082e-06
6.57491e-06
-8.77931e-06
-6.12552e-06
-8.99595e-06
7.70727e-06
8.6097e-06
-8.08706e-06
8.44579e-06
-4.69363e-07
1.1173e-06
2.31351e-06
6.5645e-06
-8.77793e-06
-6.11766e-06
-8.99711e-06
7.71141e-06
8.61281e-06
-8.08861e-06
2.30768e-06
-4.65076e-07
-2.30679e-06
1.1259e-06
8.44507e-06
-6.12593e-06
6.57275e-06
8.60673e-06
-8.08857e-06
7.70475e-06
-8.9973e-06
-8.77811e-06
2.31117e-06
-4.65981e-07
-2.31043e-06
1.11577e-06
8.44596e-06
-6.11786e-06
6.56442e-06
8.61119e-06
-8.08921e-06
7.71098e-06
-8.9979e-06
8.03715e-06
8.02288e-06
5.62549e-07
8.78525e-06
-2.75924e-07
-5.63912e-07
-8.36706e-06
-8.35646e-06
1.11931e-06
2.28766e-06
6.56714e-06
-8.7844e-06
-6.1166e-06
-8.99805e-06
7.71237e-06
8.61497e-06
-8.08938e-06
8.44769e-06
-4.71396e-07
1.11527e-06
2.31199e-06
6.56533e-06
-8.77803e-06
-6.11645e-06
-8.99533e-06
7.71024e-06
8.61212e-06
-8.08627e-06
2.28632e-06
-4.67307e-07
-2.28524e-06
1.12244e-06
8.45221e-06
-6.1181e-06
6.56441e-06
8.6119e-06
-8.09132e-06
7.7102e-06
-9.00015e-06
-8.77974e-06
2.30669e-06
-4.6168e-07
-2.30606e-06
1.12139e-06
8.4455e-06
-6.11849e-06
6.56325e-06
8.60903e-06
-8.08932e-06
7.70767e-06
-8.99823e-06
-4.74535e-07
1.11583e-06
2.31007e-06
6.5757e-06
-8.77849e-06
-6.12373e-06
-8.99383e-06
7.70828e-06
-8.0848e-06
8.61032e-06
-4.80534e-07
-2.28745e-06
1.11942e-06
8.45444e-06
-6.12359e-06
6.5771e-06
8.61326e-06
-8.08806e-06
-8.99744e-06
7.71094e-06
-8.77898e-06
2.30793e-06
-4.76814e-07
-2.30848e-06
1.11611e-06
8.44857e-06
-6.12314e-06
6.57617e-06
8.61054e-06
-8.08525e-06
7.70838e-06
-8.99504e-06
8.03723e-06
8.02325e-06
5.68088e-07
8.787e-06
-2.72802e-07
-5.68468e-07
-8.36808e-06
-8.35739e-06
-4.79983e-07
1.11487e-06
2.29109e-06
6.56767e-06
-8.78459e-06
-6.11548e-06
-8.99656e-06
7.71352e-06
-8.08763e-06
8.61583e-06
-4.73311e-07
-2.28361e-06
1.12505e-06
8.45343e-06
-6.12495e-06
6.57524e-06
8.60977e-06
-8.08825e-06
-8.99781e-06
7.70737e-06
-8.78596e-06
2.28833e-06
-4.76674e-07
-2.28862e-06
1.11261e-06
8.45577e-06
-6.11624e-06
6.56724e-06
8.61558e-06
-8.08803e-06
7.71396e-06
-8.99797e-06
-5.7249e-07
-8.35285e-06
-8.36906e-06
-8.44321e-06
-8.45043e-06
8.01861e-06
8.03735e-06
5.61334e-07
8.77579e-06
8.78189e-06
-2.79164e-07
-5.58851e-07
-8.35138e-06
-8.36828e-06
1.12638e-06
2.31155e-06
6.57207e-06
-8.77874e-06
-6.12583e-06
-8.9966e-06
7.70407e-06
8.60583e-06
-8.08832e-06
8.44583e-06
-4.66866e-07
1.11626e-06
2.31308e-06
6.56432e-06
-8.77767e-06
-6.11719e-06
-8.99815e-06
7.71047e-06
8.61073e-06
-8.08963e-06
2.31877e-06
-4.70646e-07
-2.31718e-06
1.12215e-06
8.44303e-06
-6.12327e-06
6.57172e-06
8.6062e-06
-8.08565e-06
7.70437e-06
-8.9937e-06
-8.77526e-06
2.31866e-06
-4.6905e-07
-2.31664e-06
1.1221e-06
8.4434e-06
-6.11582e-06
6.56278e-06
8.60903e-06
-8.08959e-06
7.70779e-06
-8.9974e-06
8.03702e-06
8.02295e-06
5.63881e-07
8.78488e-06
-2.7835e-07
-5.60597e-07
-8.367e-06
-8.3542e-06
1.12257e-06
2.29039e-06
6.5633e-06
-8.78537e-06
-6.11837e-06
-8.99941e-06
7.70936e-06
8.61065e-06
-8.09078e-06
8.44414e-06
-4.61183e-07
1.12304e-06
2.31107e-06
6.56206e-06
-8.77915e-06
-6.11825e-06
-8.99856e-06
7.70616e-06
8.60733e-06
-8.08998e-06
2.2997e-06
-4.7224e-07
-2.29748e-06
1.12025e-06
8.45045e-06
-6.11562e-06
6.56318e-06
8.61014e-06
-8.08862e-06
7.70891e-06
-8.99678e-06
-8.7753e-06
2.3215e-06
-4.67951e-07
-2.319e-06
1.12257e-06
8.44313e-06
-6.1153e-06
6.56155e-06
8.6063e-06
-8.08711e-06
7.70481e-06
-8.99519e-06
-4.74673e-07
1.1175e-06
2.30674e-06
6.57605e-06
-8.77945e-06
-6.12382e-06
-8.99566e-06
7.70796e-06
-8.08615e-06
8.61056e-06
-4.68142e-07
-2.29246e-06
1.12159e-06
8.45113e-06
-6.12487e-06
6.57304e-06
8.60869e-06
-8.08813e-06
-8.99746e-06
7.70695e-06
-8.77881e-06
2.315e-06
-4.63831e-07
-2.31075e-06
1.12668e-06
8.44277e-06
-6.12527e-06
6.57082e-06
8.60523e-06
-8.08778e-06
7.70291e-06
-8.99698e-06
8.03533e-06
8.0216e-06
5.66207e-07
8.78366e-06
-2.77592e-07
-5.61491e-07
-8.36594e-06
-8.35394e-06
-4.72502e-07
1.11383e-06
2.28791e-06
6.56725e-06
-8.78669e-06
-6.11726e-06
-8.99895e-06
7.71318e-06
-8.0892e-06
8.61467e-06
-4.7101e-07
-2.29626e-06
1.1221e-06
8.45055e-06