/*--------------------------------*- C++ -*----------------------------------*\
| =========                 |                                                 |
| \\      /  F ield         | OpenFOAM: The Open Source CFD Toolbox           |
|  \\    /   O peration     | Version:  2206                                  |
|   \\  /    A nd           | Website:  www.openfoam.com                      |
|    \\/     M anipulation  |                                                 |
\*---------------------------------------------------------------------------*/
FoamFile
{
    version     2.0;
    format      ascii;
    arch        "LSB;label=32;scalar=64";
    class       volVectorField;
    location    "1";
    object      U;
}
// * * * * * * * * * * * * * * * * * * * * * * * * * * * * * * * * * * * * * //

dimensions      [0 1 -1 0 0 0 0];

internalField   nonuniform List<vector> 
28688
(
(5.13168e-05 5.12428e-05 0.100228)
(-7.208e-05 4.32427e-05 0.100259)
(4.33139e-05 -7.20652e-05 0.100259)
(-0.000134856 -0.000134882 0.10025)
(4.02703e-06 4.0005e-06 0.100312)
(-3.15614e-06 1.83054e-06 0.100316)
(1.86003e-06 -3.15819e-06 0.100316)
(-3.57046e-05 -3.57219e-05 0.100317)
(1.79259e-07 1.74e-07 0.100315)
(-2.54518e-07 2.0388e-07 0.100316)
(2.10319e-07 -2.57108e-07 0.100316)
(-3.35798e-05 -3.36076e-05 0.100316)
(-5.06805e-08 -5.12082e-08 0.100316)
(-6.64958e-08 1.07684e-07 0.100316)
(1.07858e-07 -6.37166e-08 0.100316)
(-3.34958e-05 -3.35116e-05 0.100316)
(-6.64238e-08 -6.28951e-08 0.100316)
(-5.24194e-08 1.10158e-07 0.100316)
(1.02259e-07 -5.29636e-08 0.100316)
(-3.3492e-05 -3.35065e-05 0.100316)
(-6.81555e-08 -6.27623e-08 0.100316)
(-5.09923e-08 1.14821e-07 0.100316)
(1.00948e-07 -5.20567e-08 0.100316)
(-3.34927e-05 -3.35065e-05 0.100316)
(-6.40155e-08 -6.33456e-08 0.100316)
(-5.06331e-08 1.03582e-07 0.100316)
(1.00904e-07 -5.14913e-08 0.100316)
(-3.34918e-05 -3.35068e-05 0.100316)
(-6.37115e-08 -6.41526e-08 0.100316)
(-5.22893e-08 1.03737e-07 0.100316)
(1.03169e-07 -5.26936e-08 0.100316)
(-3.34928e-05 -3.35092e-05 0.100316)
(-6.52447e-08 -6.47424e-08 0.100316)
(-5.15664e-08 1.01689e-07 0.100316)
(1.01384e-07 -5.1698e-08 0.100316)
(-3.3493e-05 -3.35097e-05 0.100316)
(-6.39537e-08 -6.29448e-08 0.100316)
(-4.90626e-08 1.00965e-07 0.100316)
(9.97555e-08 -4.99416e-08 0.100316)
(-3.34933e-05 -3.35096e-05 0.100316)
(-6.12877e-08 -5.8837e-08 0.100316)
(-4.83259e-08 1.02179e-07 0.100316)
(1.0079e-07 -5.03702e-08 0.100316)
(-3.34914e-05 -3.35082e-05 0.100316)
(-6.55277e-08 -6.56028e-08 0.100316)
(-5.11782e-08 1.02566e-07 0.100316)
(1.02066e-07 -5.23253e-08 0.100316)
(-3.34913e-05 -3.35075e-05 0.100316)
(7.92813e-05 7.921e-05 0.100205)
(6.8417e-05 9.31479e-05 0.100175)
(-6.83883e-05 9.31324e-05 0.100175)
(-7.92659e-05 7.91701e-05 0.100205)
(9.32311e-05 6.83218e-05 0.100175)
(9.32037e-05 -6.83676e-05 0.100175)
(6.73783e-05 6.72802e-05 0.100149)
(-6.73578e-05 6.72777e-05 0.100149)
(6.73554e-05 -6.73636e-05 0.100149)
(-6.73365e-05 -6.73652e-05 0.100149)
(-9.32122e-05 6.83109e-05 0.100175)
(-9.31911e-05 -6.83687e-05 0.100175)
(7.92441e-05 -7.92687e-05 0.100205)
(6.83776e-05 -9.32135e-05 0.100175)
(-6.83558e-05 -9.32166e-05 0.100175)
(-7.92397e-05 -7.92536e-05 0.100205)
(0.00013491 0.00013484 0.10025)
(-3.05122e-05 -3.05265e-05 0.100316)
(4.33538e-05 7.19702e-05 0.100259)
(-4.33156e-05 7.19893e-05 0.100259)
(3.86788e-06 6.74801e-06 0.100316)
(-3.87454e-06 6.74459e-06 0.100316)
(-0.000134906 0.000134773 0.10025)
(3.05518e-05 -3.0511e-05 0.100316)
(7.21109e-05 4.32514e-05 0.100259)
(7.20561e-05 -4.33056e-05 0.100259)
(6.80299e-06 3.8249e-06 0.100316)
(6.78465e-06 -3.86267e-06 0.100316)
(-7.204e-05 -4.33143e-05 0.100259)
(-6.75086e-06 3.82355e-06 0.100316)
(-6.76136e-06 -3.8662e-06 0.100316)
(0.000134848 -0.000134916 0.10025)
(-3.04933e-05 3.05452e-05 0.100316)
(-4.32928e-05 -7.20929e-05 0.100259)
(3.86349e-06 -6.76136e-06 0.100316)
(-3.85361e-06 -6.76841e-06 0.100316)
(3.05092e-05 3.05147e-05 0.100316)
(3.57335e-05 3.56784e-05 0.100317)
(-3.37599e-05 -3.3742e-05 0.100316)
(1.8634e-06 3.15296e-06 0.100316)
(-1.84917e-06 3.15856e-06 0.100316)
(3.20018e-07 4.27804e-07 0.100316)
(-3.12264e-07 4.29187e-07 0.100316)
(-3.57017e-05 3.56909e-05 0.100317)
(3.37615e-05 -3.37427e-05 0.100316)
(3.18882e-06 1.84176e-06 0.100316)
(3.18959e-06 -1.86754e-06 0.100316)
(4.41689e-07 3.10871e-07 0.100316)
(4.37115e-07 -3.09265e-07 0.100316)
(-3.17385e-06 -1.85961e-06 0.100316)
(-4.36064e-07 3.10951e-07 0.100316)
(-4.29275e-07 -3.18405e-07 0.100316)
(3.57182e-05 -3.57035e-05 0.100317)
(-3.37469e-05 3.37788e-05 0.100316)
(-1.84991e-06 -3.15872e-06 0.100316)
(3.11676e-07 -4.28859e-07 0.100316)
(-3.1333e-07 -4.2953e-07 0.100316)
(3.37489e-05 3.37702e-05 0.100316)
(3.35968e-05 3.35767e-05 0.100316)
(-3.38778e-05 -3.38581e-05 0.100316)
(2.11141e-07 2.53464e-07 0.100316)
(-2.11079e-07 2.56688e-07 0.100316)
(1.15149e-07 7.81539e-08 0.100316)
(-1.14413e-07 8.59376e-08 0.100316)
(-3.36015e-05 3.35728e-05 0.100316)
(3.38815e-05 -3.3856e-05 0.100316)
(2.60124e-07 2.02449e-07 0.100316)
(2.58829e-07 -2.08246e-07 0.100316)
(7.74491e-08 1.11833e-07 0.100316)
(7.96361e-08 -1.14736e-07 0.100316)
(-2.56375e-07 -2.02041e-07 0.100316)
(-8.46606e-08 1.13168e-07 0.100316)
(-8.63408e-08 -1.14071e-07 0.100316)
(3.35739e-05 -3.36063e-05 0.100316)
(-3.38557e-05 3.3891e-05 0.100316)
(-2.02452e-07 -2.53565e-07 0.100316)
(1.11783e-07 -7.76621e-08 0.100316)
(-1.11106e-07 -8.4988e-08 0.100316)
(3.38635e-05 3.38818e-05 0.100316)
(3.35064e-05 3.34872e-05 0.100316)
(-3.38886e-05 -3.38658e-05 0.100316)
(1.08835e-07 6.46032e-08 0.100316)
(-1.09314e-07 6.85015e-08 0.100316)
(1.02208e-07 5.68582e-08 0.100316)
(-1.08265e-07 5.98201e-08 0.100316)
(-3.35105e-05 3.34842e-05 0.100316)
(3.38881e-05 -3.38577e-05 0.100316)
(6.4174e-08 1.0842e-07 0.100316)
(6.47824e-08 -1.09043e-07 0.100316)
(5.23469e-08 1.03375e-07 0.100316)
(5.60914e-08 -1.0398e-07 0.100316)
(-6.77164e-08 -1.07722e-07 0.100316)
(-5.32363e-08 1.08211e-07 0.100316)
(-5.68199e-08 -1.02873e-07 0.100316)
(3.3485e-05 -3.35196e-05 0.100316)
(-3.38643e-05 3.38997e-05 0.100316)
(-1.06007e-07 -6.64256e-08 0.100316)
(1.02091e-07 -5.3341e-08 0.100316)
(-1.03506e-07 -5.4151e-08 0.100316)
(3.38716e-05 3.38905e-05 0.100316)
(3.34993e-05 3.34838e-05 0.100316)
(-3.38932e-05 -3.38681e-05 0.100316)
(1.00733e-07 5.69069e-08 0.100316)
(-1.10396e-07 6.23247e-08 0.100316)
(9.90464e-08 5.7368e-08 0.100316)
(-1.10595e-07 6.33277e-08 0.100316)
(-3.3507e-05 3.34875e-05 0.100316)
(3.38921e-05 -3.38513e-05 0.100316)
(5.2859e-08 1.04956e-07 0.100316)
(5.51885e-08 -1.02963e-07 0.100316)
(4.95847e-08 1.03654e-07 0.100316)
(5.32451e-08 -1.00403e-07 0.100316)
(-5.5425e-08 -1.008e-07 0.100316)
(-5.10671e-08 1.12231e-07 0.100316)
(-5.51918e-08 -9.87995e-08 0.100316)
(3.348e-05 -3.35149e-05 0.100316)
(-3.3867e-05 3.39033e-05 0.100316)
(-1.02325e-07 -5.21609e-08 0.100316)
(9.91773e-08 -5.09495e-08 0.100316)
(-1.0146e-07 -5.0614e-08 0.100316)
(3.3875e-05 3.38952e-05 0.100316)
(3.34999e-05 3.34865e-05 0.100316)
(-3.38915e-05 -3.38664e-05 0.100316)
(9.83806e-08 5.7063e-08 0.100316)
(-1.15833e-07 6.9423e-08 0.100316)
(1.00259e-07 5.51483e-08 0.100316)
(-1.03058e-07 5.61074e-08 0.100316)
(-3.351e-05 3.34991e-05 0.100316)
(3.38954e-05 -3.38647e-05 0.100316)
(5.03689e-08 1.0491e-07 0.100316)
(5.38174e-08 -1.01094e-07 0.100316)
(4.92564e-08 1.0299e-07 0.100316)
(5.38282e-08 -9.98563e-08 0.100316)
(-5.45412e-08 -9.84568e-08 0.100316)
(-4.92815e-08 1.0472e-07 0.100316)
(-5.31379e-08 -9.88794e-08 0.100316)
(3.34804e-05 -3.35145e-05 0.100316)
(-3.38681e-05 3.39044e-05 0.100316)
(-1.01523e-07 -5.03493e-08 0.100316)
(9.9204e-08 -4.97275e-08 0.100316)
(-1.00193e-07 -4.99571e-08 0.100316)
(3.38765e-05 3.38958e-05 0.100316)
(3.35028e-05 3.34874e-05 0.100316)
(-3.38888e-05 -3.3862e-05 0.100316)
(1.0601e-07 5.78159e-08 0.100316)
(-1.01646e-07 5.515e-08 0.100316)
(1.07082e-07 5.8212e-08 0.100316)
(-1.02416e-07 5.69316e-08 0.100316)
(-3.35058e-05 3.34839e-05 0.100316)
(3.38951e-05 -3.38658e-05 0.100316)
(5.13518e-08 1.06335e-07 0.100316)
(5.34273e-08 -9.96968e-08 0.100316)
(5.12776e-08 1.06198e-07 0.100316)
(5.56818e-08 -1.01925e-07 0.100316)
(-5.26206e-08 -9.93135e-08 0.100316)
(-5.19817e-08 1.04555e-07 0.100316)
(-5.42691e-08 -1.02201e-07 0.100316)
(3.34816e-05 -3.3515e-05 0.100316)
(-3.38663e-05 3.39028e-05 0.100316)
(-9.99837e-08 -4.97595e-08 0.100316)
(1.01969e-07 -5.17833e-08 0.100316)
(-1.01296e-07 -5.24573e-08 0.100316)
(3.38762e-05 3.38938e-05 0.100316)
(3.35048e-05 3.34861e-05 0.100316)
(-3.38924e-05 -3.38693e-05 0.100316)
(1.05389e-07 5.88897e-08 0.100316)
(-1.02602e-07 5.58191e-08 0.100316)
(1.0351e-07 5.42547e-08 0.100316)
(-1.0187e-07 5.42987e-08 0.100316)
(-3.35066e-05 3.34833e-05 0.100316)
(3.38962e-05 -3.3869e-05 0.100316)
(5.27125e-08 1.0528e-07 0.100316)
(5.51451e-08 -1.02244e-07 0.100316)
(5.18113e-08 1.01458e-07 0.100316)
(5.37971e-08 -1.00984e-07 0.100316)
(-5.43688e-08 -1.02503e-07 0.100316)
(-5.11654e-08 1.01722e-07 0.100316)
(-5.31128e-08 -1.01177e-07 0.100316)
(3.34832e-05 -3.35168e-05 0.100316)
(-3.38689e-05 3.39045e-05 0.100316)
(-1.01585e-07 -5.29631e-08 0.100316)
(9.94798e-08 -5.04098e-08 0.100316)
(-9.95659e-08 -5.15178e-08 0.100316)
(3.38773e-05 3.38945e-05 0.100316)
(3.35046e-05 3.3483e-05 0.100316)
(-3.38927e-05 -3.3869e-05 0.100316)
(1.02719e-07 5.31362e-08 0.100316)
(-1.025e-07 5.4735e-08 0.100316)
(1.02841e-07 5.32275e-08 0.100316)
(-1.02006e-07 5.39979e-08 0.100316)
(-3.35075e-05 3.3482e-05 0.100316)
(3.3899e-05 -3.38683e-05 0.100316)
(5.22556e-08 1.02595e-07 0.100316)
(5.43385e-08 -1.01889e-07 0.100316)
(5.02615e-08 1.00676e-07 0.100316)
(5.34507e-08 -9.96118e-08 0.100316)
(-5.34143e-08 -1.01873e-07 0.100316)
(-5.035e-08 1.01732e-07 0.100316)
(-5.2266e-08 -1.00055e-07 0.100316)
(3.34825e-05 -3.35171e-05 0.100316)
(-3.38698e-05 3.39064e-05 0.100316)
(-1.00484e-07 -5.16546e-08 0.100316)
(9.91066e-08 -5.00262e-08 0.100316)
(-9.86509e-08 -5.0187e-08 0.100316)
(3.3879e-05 3.38964e-05 0.100316)
(3.35044e-05 3.3484e-05 0.100316)
(-3.38911e-05 -3.38476e-05 0.100316)
(1.04706e-07 5.47398e-08 0.100316)
(-1.02537e-07 5.42898e-08 0.100316)
(1.14419e-07 6.49833e-08 0.100316)
(-1.02231e-07 5.55976e-08 0.100316)
(-3.35038e-05 3.34838e-05 0.100316)
(3.39057e-05 -3.38668e-05 0.100316)
(5.12028e-08 1.04012e-07 0.100316)
(5.23318e-08 -9.87409e-08 0.100316)
(4.85662e-08 1.09589e-07 0.100316)
(5.31828e-08 -9.76908e-08 0.100316)
(-5.1847e-08 -1.00029e-07 0.100316)
(-4.77974e-08 1.02213e-07 0.100316)
(-5.09945e-08 -9.88434e-08 0.100316)
(3.34832e-05 -3.35166e-05 0.100316)
(-3.38684e-05 3.39056e-05 0.100316)
(-9.91634e-08 -5.04499e-08 0.100316)
(9.83351e-08 -4.80061e-08 0.100316)
(-9.77195e-08 -4.94061e-08 0.100316)
(3.38778e-05 3.38953e-05 0.100316)
(3.35053e-05 3.34971e-05 0.100316)
(-3.38898e-05 -3.38677e-05 0.100316)
(1.08354e-07 5.7517e-08 0.100316)
(-1.02935e-07 5.5675e-08 0.100316)
(1.0416e-07 5.29436e-08 0.100316)
(-1.05977e-07 5.14274e-08 0.100316)
(-3.35039e-05 3.34822e-05 0.100316)
(3.39037e-05 -3.38668e-05 0.100316)
(5.04025e-08 1.072e-07 0.100316)
(5.3172e-08 -9.87281e-08 0.100316)
(5.06296e-08 1.00709e-07 0.100316)
(5.34564e-08 -1.00472e-07 0.100316)
(-5.22349e-08 -1.00359e-07 0.100316)
(-5.03088e-08 1.02732e-07 0.100316)
(-5.25802e-08 -1.00775e-07 0.100316)
(3.34816e-05 -3.35145e-05 0.100316)
(-3.38675e-05 3.39039e-05 0.100316)
(-9.93831e-08 -5.04381e-08 0.100316)
(9.97608e-08 -5.02514e-08 0.100316)
(-9.93854e-08 -5.11604e-08 0.100316)
(3.38776e-05 3.3895e-05 0.100316)
(3.35036e-05 3.34803e-05 0.100316)
(-3.38923e-05 -3.38719e-05 0.100316)
(1.04361e-07 5.31597e-08 0.100316)
(-1.06874e-07 5.59952e-08 0.100316)
(1.01787e-07 4.98651e-08 0.100316)
(-3.35043e-05 3.34806e-05 0.100316)
(5.28221e-08 1.02269e-07 0.100316)
(5.47546e-08 -1.02064e-07 0.100316)
(4.78963e-08 9.89284e-08 0.100316)
(5.21961e-08 -1.01134e-07 0.100316)
(-5.27198e-08 -1.0122e-07 0.100316)
(-5.23081e-08 -1.00831e-07 0.100316)
(3.34813e-05 -3.35155e-05 0.100316)
(-3.38701e-05 3.39057e-05 0.100316)
(-1.00109e-07 -5.14308e-08 0.100316)
(9.89938e-08 -4.80485e-08 0.100316)
(-9.95057e-08 -5.15535e-08 0.100316)
(3.38767e-05 3.38965e-05 0.100316)
(1.21351e-06 1.21143e-06 0.0999979)
(1.57058e-05 1.57022e-05 0.1)
(1.43931e-06 1.23531e-05 0.0999986)
(1.23572e-05 1.43701e-06 0.0999986)
(-5.85848e-05 6.03701e-06 0.100008)
(-2.22899e-05 1.8127e-05 0.100001)
(-0.000117865 6.12054e-05 0.100039)
(-1.73161e-05 1.62385e-06 0.099997)
(6.0317e-06 -5.85771e-05 0.100008)
(1.81318e-05 -2.2291e-05 0.100001)
(1.62684e-06 -1.7318e-05 0.099997)
(6.1209e-05 -0.000117817 0.100039)
(-2.895e-05 -2.89529e-05 0.100004)
(-0.000133278 -8.3649e-05 0.100048)
(-8.36553e-05 -0.000133266 0.100048)
(1.0033e-06 1.48201e-05 0.100325)
(9.4115e-05 0.00024289 0.100162)
(1.89645e-05 0.000118869 0.100335)
(2.03314e-06 1.57124e-05 0.0999967)
(-0.000148745 0.000386842 0.0996132)
(-6.657e-06 1.02903e-05 0.0991469)
(1.48554e-05 9.49327e-07 0.100326)
(0.000243196 9.31723e-05 0.100162)
(0.000119621 1.8879e-05 0.100335)
(1.56428e-05 1.63513e-06 0.0999967)
(-5.12979e-05 5.12416e-05 0.100228)
(5.13114e-05 -5.13012e-05 0.100228)
(-5.12968e-05 -5.13067e-05 0.100228)
(7.96571e-06 7.92392e-06 0.100308)
(-7.95281e-06 7.91758e-06 0.100308)
(7.96005e-06 -7.94984e-06 0.100308)
(-7.94487e-06 -7.95996e-06 0.100308)
(-2.56129e-05 2.14043e-06 0.100326)
(-0.000166365 9.71233e-05 0.100341)
(-7.26173e-05 1.91561e-05 0.10024)
(-3.1506e-05 1.84343e-05 0.100304)
(-0.000137736 1.86736e-05 0.10029)
(-1.798e-05 1.33914e-05 0.10033)
(-3.38262e-05 9.49168e-06 0.100286)
(0.000385765 -0.000147415 0.0996118)
(1.01282e-05 -6.5166e-06 0.0991464)
(2.15289e-06 -2.55711e-05 0.100326)
(1.91953e-05 -7.26134e-05 0.10024)
(9.73336e-05 -0.000166342 0.100341)
(1.84632e-05 -3.15075e-05 0.100304)
(1.8666e-05 -0.000137586 0.10029)
(9.52523e-06 -3.38358e-05 0.100286)
(1.34943e-05 -1.78504e-05 0.10033)
(-0.000145651 -5.79258e-05 0.100393)
(-5.80358e-05 -0.000145908 0.100393)
(1.43792e-05 1.43309e-05 0.100319)
(-9.15158e-06 -8.40048e-06 0.100323)
(-8.51672e-06 -9.12419e-06 0.100323)
(8.35852e-08 -1.93131e-06 0.100305)
(8.38187e-07 2.10943e-06 0.0999722)
(2.36126e-07 3.9662e-06 0.100308)
(-4.677e-08 -2.2967e-06 0.0999692)
(-1.07672e-06 3.44739e-07 0.0991284)
(7.4257e-08 -4.93044e-07 0.0991253)
(-1.93027e-06 7.56152e-08 0.100305)
(2.17784e-06 8.71436e-07 0.0999723)
(3.95713e-06 2.32884e-07 0.100308)
(-2.30968e-06 -5.80677e-08 0.0999692)
(-4.01543e-06 3.99892e-06 0.100312)
(4.02715e-06 -4.01707e-06 0.100312)
(-4.01864e-06 -4.02557e-06 0.100312)
(4.20346e-07 4.1544e-07 0.100315)
(-4.17254e-07 4.14964e-07 0.100315)
(4.26098e-07 -4.22473e-07 0.100315)
(-4.18834e-07 -4.22062e-07 0.100315)
(3.4441e-06 5.21785e-08 0.100316)
(-6.66482e-06 2.56847e-06 0.100312)
(-3.72494e-06 1.25812e-06 0.100314)
(-1.53451e-06 9.26952e-07 0.100316)
(-9.86895e-06 2.95702e-07 0.100318)
(2.48639e-06 -1.29627e-06 0.100309)
(-1.83659e-06 5.89743e-07 0.100315)
(5.52154e-07 -1.17233e-06 0.0991284)
(-4.84765e-07 6.63655e-08 0.0991253)
(6.09398e-08 3.4552e-06 0.100316)
(1.28153e-06 -3.70679e-06 0.100314)
(2.60677e-06 -6.65155e-06 0.100312)
(9.3971e-07 -1.51329e-06 0.100316)
(3.22921e-07 -9.80605e-06 0.100318)
(6.04976e-07 -1.82823e-06 0.100315)
(-1.28104e-06 2.48056e-06 0.100309)
(-2.34875e-06 -2.38358e-06 0.100293)
(-2.39188e-06 -2.25324e-06 0.100293)
(3.32916e-05 3.33198e-05 0.100317)
(4.06957e-07 1.14769e-06 0.10029)
(1.1719e-06 4.18985e-07 0.10029)
(9.33798e-09 -2.35534e-06 0.100305)
(2.5937e-07 2.1664e-06 0.0999681)
(5.18828e-09 2.4398e-06 0.100305)
(-2.27669e-07 -2.17272e-06 0.0999681)
(-3.87052e-07 4.00183e-07 0.0991242)
(3.36218e-07 -4.28629e-07 0.0991241)
(-2.36612e-06 8.48841e-09 0.100305)
(2.17707e-06 2.46376e-07 0.0999681)
(2.4453e-06 1.49268e-09 0.100305)
(-2.16155e-06 -2.27653e-07 0.099968)
(-1.78202e-07 1.74376e-07 0.100315)
(1.81079e-07 -1.78908e-07 0.100315)
(-1.81705e-07 -1.81005e-07 0.100315)
(-3.48823e-08 -3.59725e-08 0.100316)
(4.02714e-08 -3.22316e-08 0.100316)
(-3.41281e-08 3.43715e-08 0.100316)
(3.90372e-08 3.09874e-08 0.100316)
(4.82114e-06 -1.96947e-08 0.100316)
(-3.60801e-06 1.62344e-06 0.100308)
(-2.78127e-07 4.10636e-08 0.100316)
(-1.61638e-07 1.49716e-07 0.100316)
(-5.08846e-06 2.90186e-08 0.100316)
(3.40467e-06 -1.56749e-06 0.100308)
(-1.73356e-07 2.84465e-09 0.100316)
(3.70794e-07 -3.82735e-07 0.0991241)
(-4.04158e-07 3.2971e-07 0.099124)
(-6.38925e-09 4.81688e-06 0.100316)
(4.61638e-08 -2.79932e-07 0.100316)
(1.62703e-06 -3.60347e-06 0.100308)
(1.4671e-07 -1.62897e-07 0.100316)
(2.79259e-08 -5.08529e-06 0.100316)
(8.00815e-09 -1.6996e-07 0.100316)
(-1.57629e-06 3.41294e-06 0.100308)
(-8.71211e-07 -1.53273e-06 0.100289)
(-1.52901e-06 -8.65721e-07 0.100289)
(3.38462e-05 3.38668e-05 0.100316)
(8.0094e-07 1.44937e-06 0.100289)
(1.44672e-06 7.95744e-07 0.100289)
(4.41438e-09 -2.37937e-06 0.100304)
(2.2654e-07 2.17674e-06 0.099968)
(-6.44741e-09 2.374e-06 0.100304)
(-2.38146e-07 -2.16293e-06 0.099968)
(-3.52932e-07 4.06145e-07 0.0991241)
(3.45819e-07 -4.24628e-07 0.0991241)
(-2.38963e-06 6.95643e-09 0.100304)
(2.18169e-06 2.26841e-07 0.0999679)
(2.38064e-06 -6.81681e-09 0.100304)
(-2.17438e-06 -2.38539e-07 0.099968)
(5.23188e-08 -4.85598e-08 0.100316)
(-5.01421e-08 5.04047e-08 0.100316)
(5.1911e-08 4.85588e-08 0.100316)
(-6.46221e-08 -6.18857e-08 0.100316)
(6.12355e-08 -5.9457e-08 0.100316)
(-6.40045e-08 6.45978e-08 0.100316)
(6.27307e-08 6.44083e-08 0.100316)
(4.87403e-06 -2.0326e-08 0.100316)
(-3.49342e-06 1.5758e-06 0.100308)
(-7.57503e-08 -2.30244e-08 0.100316)
(-5.77412e-08 1.06331e-07 0.100316)
(-4.91009e-06 2.09416e-08 0.100316)
(3.44104e-06 -1.58341e-06 0.100308)
(-6.72132e-08 -2.39925e-08 0.100316)
(3.81181e-07 -3.46214e-07 0.0991239)
(-3.99346e-07 3.41559e-07 0.0991239)
(-1.23877e-08 4.87251e-06 0.100316)
(-2.34334e-08 -7.51522e-08 0.100316)
(1.58175e-06 -3.49871e-06 0.100308)
(1.04103e-07 -5.65433e-08 0.100316)
(1.40453e-08 -4.90907e-06 0.100316)
(-2.53833e-08 -6.43874e-08 0.100316)
(-1.58775e-06 3.44335e-06 0.100308)
(-8.26672e-07 -1.48615e-06 0.100289)
(-1.48071e-06 -8.2404e-07 0.100289)
(3.38684e-05 3.38868e-05 0.100316)
(8.13427e-07 1.46675e-06 0.100289)
(1.4601e-06 8.11701e-07 0.100289)
(-5.28182e-09 -2.38065e-06 0.100304)
(2.24691e-07 2.17847e-06 0.099968)
(-1.26962e-08 2.37013e-06 0.100304)
(-2.45062e-07 -2.17538e-06 0.099968)
(-3.75315e-07 4.26556e-07 0.099124)
(2.449e-07 -3.18727e-07 0.0991242)
(-2.39221e-06 7.23428e-09 0.100304)
(2.17885e-06 2.24942e-07 0.0999679)
(2.37447e-06 -5.75118e-09 0.100304)
(-2.18117e-06 -2.36672e-07 0.099968)
(6.08377e-08 -5.79779e-08 0.100316)
(-6.50523e-08 6.57522e-08 0.100316)
(6.33229e-08 6.59302e-08 0.100316)
(-6.76457e-08 -6.20041e-08 0.100316)
(5.98788e-08 -5.55744e-08 0.100316)
(-6.59911e-08 6.6934e-08 0.100316)
(6.39572e-08 6.81725e-08 0.100316)
(4.87854e-06 -1.68474e-08 0.100316)
(-3.48386e-06 1.57793e-06 0.100308)
(-6.06689e-08 -2.04413e-08 0.100316)
(-5.16498e-08 1.12029e-07 0.100316)
(-4.90103e-06 2.40158e-08 0.100316)
(3.44701e-06 -1.57743e-06 0.100308)
(-5.98681e-08 -1.90648e-08 0.100316)
(3.80914e-07 -3.43418e-07 0.0991239)
(-4.00922e-07 3.4291e-07 0.0991239)
(-1.28676e-08 4.87676e-06 0.100316)
(-2.61691e-08 -5.9169e-08 0.100316)
(1.57819e-06 -3.49153e-06 0.100308)
(1.00027e-07 -5.15799e-08 0.100316)
(1.36807e-08 -4.90036e-06 0.100316)
(-2.69997e-08 -5.4891e-08 0.100316)
(-1.58949e-06 3.44704e-06 0.100308)
(-8.23857e-07 -1.48114e-06 0.100289)
(-1.47742e-06 -8.19538e-07 0.100289)
(3.38741e-05 3.38936e-05 0.100316)
(8.16063e-07 1.47048e-06 0.100289)
(1.46215e-06 8.15835e-07 0.100289)
(-5.86989e-09 -2.38009e-06 0.100304)
(2.30173e-07 2.19628e-06 0.099968)
(-1.9712e-08 2.3687e-06 0.100304)
(-2.48362e-07 -2.17675e-06 0.099968)
(-3.60994e-07 3.99863e-07 0.0991238)
(3.11004e-07 -3.99005e-07 0.0991243)
(-2.39284e-06 8.29591e-09 0.100304)
(2.17596e-06 2.23971e-07 0.0999679)
(2.37212e-06 -5.27443e-09 0.100304)
(-2.18196e-06 -2.36794e-07 0.099968)
(5.94784e-08 -5.42786e-08 0.100316)
(-6.663e-08 6.7586e-08 0.100316)
(6.4181e-08 6.85524e-08 0.100316)
(-6.5287e-08 -6.17297e-08 0.100316)
(6.31572e-08 -6.05781e-08 0.100316)
(-6.52164e-08 6.71562e-08 0.100316)
(6.4169e-08 6.71511e-08 0.100316)
(4.8811e-06 -1.49251e-08 0.100316)
(-3.48018e-06 1.58203e-06 0.100308)
(-5.91404e-08 -1.70224e-08 0.100316)
(-5.03924e-08 1.12268e-07 0.100316)
(-4.89864e-06 2.66491e-08 0.100316)
(3.44802e-06 -1.57627e-06 0.100308)
(-5.75377e-08 -1.71954e-08 0.100316)
(3.81492e-07 -3.42934e-07 0.0991239)
(-3.99718e-07 3.43635e-07 0.099124)
(-1.21851e-08 4.8793e-06 0.100316)
(-2.64768e-08 -5.72792e-08 0.100316)
(1.57756e-06 -3.48925e-06 0.100308)
(9.95126e-08 -5.10394e-08 0.100316)
(1.34695e-08 -4.89729e-06 0.100316)
(-2.65091e-08 -5.33978e-08 0.100316)
(-1.58933e-06 3.44753e-06 0.100308)
(-8.23019e-07 -1.47929e-06 0.100289)
(-1.47668e-06 -8.1814e-07 0.100289)
(3.38765e-05 3.38968e-05 0.100316)
(8.151e-07 1.47054e-06 0.100289)
(1.46232e-06 8.15079e-07 0.100289)
(1.31456e-08 -2.37955e-06 0.100304)
(2.36781e-07 2.18755e-06 0.099968)
(-5.99738e-09 2.37086e-06 0.100304)
(-2.23621e-07 -2.17367e-06 0.099968)
(-3.49465e-07 4.0466e-07 0.0991241)
(3.50496e-07 -4.20101e-07 0.0991241)
(-2.38997e-06 9.95781e-09 0.100304)
(2.17707e-06 2.26632e-07 0.0999679)
(2.37605e-06 -4.38673e-09 0.100304)
(-2.18196e-06 -2.32193e-07 0.099968)
(6.42039e-08 -6.17315e-08 0.100316)
(-6.49119e-08 6.69128e-08 0.100316)
(6.42039e-08 6.65246e-08 0.100316)
(-6.24149e-08 -6.02261e-08 0.100316)
(6.59289e-08 -6.33907e-08 0.100316)
(-6.44704e-08 6.6726e-08 0.100316)
(6.52038e-08 6.61038e-08 0.100316)
(4.87911e-06 -1.95193e-08 0.100316)
(-3.48591e-06 1.57478e-06 0.100308)
(-5.60135e-08 -2.23507e-08 0.100316)
(-5.03424e-08 1.03674e-07 0.100316)
(-4.90082e-06 2.36835e-08 0.100316)
(3.44301e-06 -1.58282e-06 0.100308)
(-5.58513e-08 -2.30893e-08 0.100316)
(3.82779e-07 -3.41965e-07 0.0991239)
(-3.99604e-07 3.43075e-07 0.099124)
(-1.23587e-08 4.87753e-06 0.100316)
(-2.52975e-08 -5.6018e-08 0.100316)
(1.57847e-06 -3.49238e-06 0.100308)
(9.98557e-08 -4.97989e-08 0.100316)
(1.38079e-08 -4.89975e-06 0.100316)
(-2.54716e-08 -5.27355e-08 0.100316)
(-1.58804e-06 3.44567e-06 0.100308)
(-8.2507e-07 -1.48232e-06 0.100289)
(-1.47848e-06 -8.21361e-07 0.100289)
(3.3876e-05 3.38943e-05 0.100316)
(8.15194e-07 1.46824e-06 0.100289)
(1.46137e-06 8.14073e-07 0.100289)
(6.50812e-09 -2.38176e-06 0.100304)
(2.32736e-07 2.18687e-06 0.099968)
(-2.59535e-09 2.3704e-06 0.100304)
(-2.4373e-07 -2.17812e-06 0.099968)
(-3.50646e-07 4.03005e-07 0.0991241)
(3.49205e-07 -4.2178e-07 0.0991241)
(-2.39084e-06 7.91648e-09 0.100304)
(2.17644e-06 2.25217e-07 0.0999679)
(2.37454e-06 -4.86458e-09 0.100304)
(-2.18097e-06 -2.37369e-07 0.099968)
(6.58465e-08 -6.3918e-08 0.100316)
(-6.46892e-08 6.64696e-08 0.100316)
(6.54362e-08 6.61376e-08 0.100316)
(-6.48608e-08 -6.41822e-08 0.100316)
(6.5935e-08 -6.4901e-08 0.100316)
(-6.48583e-08 6.59879e-08 0.100316)
(6.50928e-08 6.55513e-08 0.100316)
(4.87862e-06 -2.11266e-08 0.100316)
(-3.48474e-06 1.57265e-06 0.100308)
(-5.75162e-08 -2.42925e-08 0.100316)
(-5.20029e-08 1.03248e-07 0.100316)
(-4.89954e-06 2.17047e-08 0.100316)
(3.44364e-06 -1.58489e-06 0.100308)
(-5.68374e-08 -2.49408e-08 0.100316)
(3.80809e-07 -3.43361e-07 0.0991239)
(-4.00168e-07 3.42837e-07 0.099124)
(-1.21994e-08 4.87685e-06 0.100316)
(-2.52534e-08 -5.80805e-08 0.100316)
(1.57866e-06 -3.49109e-06 0.100308)
(1.01332e-07 -5.1883e-08 0.100316)
(1.43301e-08 -4.89895e-06 0.100316)
(-2.57653e-08 -5.52801e-08 0.100316)
(-1.58813e-06 3.44569e-06 0.100308)
(-8.2253e-07 -1.48159e-06 0.100289)
(-1.47683e-06 -8.19288e-07 0.100289)
(3.38762e-05 3.38935e-05 0.100316)
(8.14735e-07 1.468e-06 0.100289)
(1.46151e-06 8.1264e-07 0.100289)
(5.21304e-09 -2.38167e-06 0.100304)
(2.31849e-07 2.18616e-06 0.099968)
(-5.18927e-09 2.36852e-06 0.100304)
(-2.42518e-07 -2.17974e-06 0.099968)
(-3.51199e-07 4.02515e-07 0.0991241)
(3.49152e-07 -4.21598e-07 0.0991241)
(-2.39098e-06 6.85137e-09 0.100304)
(2.17728e-06 2.22585e-07 0.0999679)
(2.37475e-06 -5.50864e-09 0.100304)
(-2.18196e-06 -2.37076e-07 0.099968)
(6.59907e-08 -6.48537e-08 0.100316)
(-6.50778e-08 6.62121e-08 0.100316)
(6.52077e-08 6.57401e-08 0.100316)
(-6.45398e-08 -6.352e-08 0.100316)
(6.61751e-08 -6.39095e-08 0.100316)
(-6.47216e-08 6.66233e-08 0.100316)
(6.51985e-08 6.59285e-08 0.100316)
(4.8802e-06 -2.04605e-08 0.100316)
(-3.48504e-06 1.57247e-06 0.100308)
(-5.67779e-08 -2.48442e-08 0.100316)
(-5.05397e-08 1.01231e-07 0.100316)
(-4.89922e-06 2.12802e-08 0.100316)
(3.44495e-06 -1.58603e-06 0.100308)
(-5.52932e-08 -2.50741e-08 0.100316)
(3.81092e-07 -3.42663e-07 0.0991239)
(-4.00388e-07 3.42851e-07 0.099124)
(-1.36027e-08 4.88152e-06 0.100316)
(-2.53841e-08 -5.71766e-08 0.100316)
(1.5786e-06 -3.49139e-06 0.100308)
(9.9326e-08 -4.98986e-08 0.100316)
(1.62794e-08 -4.9014e-06 0.100316)
(-2.58268e-08 -5.32705e-08 0.100316)
(-1.58953e-06 3.44785e-06 0.100308)
(-8.22372e-07 -1.48136e-06 0.100289)
(-1.47586e-06 -8.19331e-07 0.100289)
(3.38786e-05 3.38959e-05 0.100316)
(8.15667e-07 1.46878e-06 0.100289)
(1.46274e-06 8.13806e-07 0.100289)
(1.34098e-08 -2.37935e-06 0.100304)
(2.32963e-07 2.17178e-06 0.099968)
(-4.40305e-09 2.36971e-06 0.100304)
(-2.37135e-07 -2.15926e-06 0.099968)
(-3.50752e-07 4.10325e-07 0.0991241)
(3.4936e-07 -4.27169e-07 0.0991241)
(-2.39083e-06 1.01675e-08 0.100304)
(2.16995e-06 2.25855e-07 0.099968)
(2.37485e-06 -5.14955e-09 0.100304)
(-2.16359e-06 -2.30256e-07 0.099968)
(6.60529e-08 -6.10791e-08 0.100316)
(-6.46725e-08 6.68036e-08 0.100316)
(6.5345e-08 6.63937e-08 0.100316)
(-5.99531e-08 -5.5739e-08 0.100316)
(6.71672e-08 -5.95388e-08 0.100316)
(-6.42967e-08 6.74478e-08 0.100316)
(6.53456e-08 6.64023e-08 0.100316)
(4.88094e-06 -1.98895e-08 0.100316)
(-3.48562e-06 1.57281e-06 0.100308)
(-5.37678e-08 -2.36459e-08 0.100316)
(-4.82736e-08 1.03063e-07 0.100316)
(-4.90006e-06 2.2645e-08 0.100316)
(3.44555e-06 -1.5832e-06 0.100308)
(-5.30642e-08 -2.37811e-08 0.100316)
(3.83946e-07 -3.43142e-07 0.0991239)
(-3.99358e-07 3.43717e-07 0.099124)
(-1.38351e-08 4.88198e-06 0.100316)
(-2.47972e-08 -5.51754e-08 0.100316)
(1.57837e-06 -3.49177e-06 0.100308)
(9.8437e-08 -4.83063e-08 0.100316)
(1.68229e-08 -4.90192e-06 0.100316)
(-2.54047e-08 -5.15113e-08 0.100316)
(-1.58741e-06 3.44723e-06 0.100308)
(-8.23077e-07 -1.48219e-06 0.100289)
(-1.47692e-06 -8.19855e-07 0.100289)
(3.38794e-05 3.38971e-05 0.100316)
(8.15506e-07 1.46766e-06 0.100289)
(1.46176e-06 8.14097e-07 0.100289)
(9.48522e-09 -2.3789e-06 0.100304)
(2.46939e-07 2.18307e-06 0.099968)
(6.64104e-09 2.37231e-06 0.100304)
(-2.38214e-07 -2.17333e-06 0.099968)
(-3.47041e-07 4.1224e-07 0.0991241)
(3.48431e-07 -4.27005e-07 0.0991241)
(-2.39033e-06 9.63211e-09 0.100304)
(2.16759e-06 2.29937e-07 0.099968)
(2.37465e-06 -2.89835e-09 0.100304)
(-2.16283e-06 -2.33337e-07 0.099968)
(6.67229e-08 -5.99889e-08 0.100316)
(-6.46027e-08 6.74059e-08 0.100316)
(6.53776e-08 6.64288e-08 0.100316)
(-6.49511e-08 -6.41632e-08 0.100316)
(6.61161e-08 -5.99191e-08 0.100316)
(-6.47189e-08 6.62007e-08 0.100316)
(6.54729e-08 6.59566e-08 0.100316)
(4.87966e-06 -2.03228e-08 0.100316)
(-3.48431e-06 1.57446e-06 0.100308)
(-5.38668e-08 -2.33535e-08 0.100316)
(-4.9708e-08 1.03113e-07 0.100316)
(-4.89906e-06 2.25255e-08 0.100316)
(3.44316e-06 -1.58365e-06 0.100308)
(-5.44885e-08 -2.39913e-08 0.100316)
(3.82592e-07 -3.4228e-07 0.0991239)
(-3.9973e-07 3.43517e-07 0.099124)
(-1.39491e-08 4.88042e-06 0.100316)
(-2.49202e-08 -5.56649e-08 0.100316)
(1.57906e-06 -3.4905e-06 0.100308)
(1.00071e-07 -5.063e-08 0.100316)
(1.56873e-08 -4.90068e-06 0.100316)
(-2.53445e-08 -5.37856e-08 0.100316)
(-1.58787e-06 3.44598e-06 0.100308)
(-8.2361e-07 -1.48271e-06 0.100289)
(-1.47773e-06 -8.21115e-07 0.100289)
(3.38762e-05 3.38941e-05 0.100316)
(8.14302e-07 1.46713e-06 0.100289)
(1.46114e-06 8.13054e-07 0.100289)
(5.79842e-09 -2.38368e-06 0.100304)
(2.32273e-07 2.18035e-06 0.099968)
(-5.20238e-09 2.3697e-06 0.100304)
(-2.42966e-07 -2.17418e-06 0.099968)
(-3.48169e-07 4.11249e-07 0.0991241)
(3.47683e-07 -4.39872e-07 0.0991241)
(-2.39222e-06 6.5934e-09 0.100304)
(2.16923e-06 2.24368e-07 0.099968)
(2.37502e-06 -5.53928e-09 0.100304)
(-2.16279e-06 -2.36574e-07 0.099968)
(6.63201e-08 -6.03339e-08 0.100316)
(-6.51172e-08 6.62939e-08 0.100316)
(6.55809e-08 6.59412e-08 0.100316)
(-6.72267e-08 -6.65244e-08 0.100316)
(7.41214e-08 -5.65177e-08 0.100316)
(-6.57672e-08 6.70073e-08 0.100316)
(6.66229e-08 6.41272e-08 0.100316)
(4.88125e-06 -2.28725e-08 0.100316)
(-3.48537e-06 1.57255e-06 0.100308)
(-5.56735e-08 -2.44591e-08 0.100316)
(-5.34464e-08 1.02717e-07 0.100316)
(-4.89939e-06 2.11993e-08 0.100316)
(3.45087e-06 -1.59129e-06 0.100308)
(-5.66789e-08 -2.55961e-08 0.100316)
(3.80699e-07 -3.43239e-07 0.0991239)
(-4.01929e-07 3.4109e-07 0.099124)
(-1.43252e-08 4.88258e-06 0.100316)
(-2.5248e-08 -5.72639e-08 0.100316)
(1.57762e-06 -3.49102e-06 0.100308)
(9.97841e-08 -4.97126e-08 0.100316)
(1.54433e-08 -4.90163e-06 0.100316)
(-2.59941e-08 -5.28089e-08 0.100316)
(-1.5888e-06 3.44713e-06 0.100308)
(-8.22258e-07 -1.48179e-06 0.100289)
(-1.4764e-06 -8.19641e-07 0.100289)
(3.38771e-05 3.38945e-05 0.100316)
(8.16762e-07 1.46893e-06 0.100289)
(1.46349e-06 8.15013e-07 0.100289)
(2.89552e-05 2.89481e-05 0.100004)
(8.36377e-05 0.000133288 0.100048)
(0.000133328 8.36488e-05 0.100048)
(0.000342576 0.000825899 0.0990954)
(0.000122222 0.000203966 0.100136)
(0.000824886 0.000339839 0.0990954)
(0.00020414 0.000122269 0.100136)
(9.21425e-05 9.20655e-05 0.100039)
(6.31377e-05 0.000379739 0.100132)
(0.000378474 6.28317e-05 0.100132)
(0.000123601 0.000191087 0.100109)
(0.000191324 0.000123641 0.100109)
(6.03838e-06 5.85555e-05 0.100008)
(1.81325e-05 2.22894e-05 0.100001)
(6.12138e-05 0.000117839 0.100039)
(1.62679e-06 1.73124e-05 0.099997)
(-6.04331e-06 5.85578e-05 0.100008)
(-1.81292e-05 2.22869e-05 0.100001)
(-6.11947e-05 0.000117852 0.100039)
(-1.62342e-06 1.7312e-05 0.099997)
(3.81229e-06 0.000166073 0.100053)
(0.000301002 0.000282544 0.0998459)
(0.000111867 0.000186223 0.100135)
(2.00259e-05 0.000176674 0.100259)
(-3.8396e-06 0.000166103 0.100053)
(-0.000300154 0.0002831 0.099846)
(-0.000111796 0.000186195 0.100135)
(-2.00416e-05 0.00017689 0.100258)
(1.39461e-05 0.000155133 0.100054)