/*--------------------------------*- C++ -*----------------------------------*\
| =========                 |                                                 |
| \\      /  F ield         | OpenFOAM: The Open Source CFD Toolbox           |
|  \\    /   O peration     | Version:  2206                                  |
|   \\  /    A nd           | Website:  www.openfoam.com                      |
|    \\/     M anipulation  |                                                 |
\*---------------------------------------------------------------------------*/
FoamFile
{
    version     2.0;
    format      ascii;
    arch        "LSB;label=32;scalar=64";
    class       volScalarField;
    location    "9.5";
    object      nut;
}
// * * * * * * * * * * * * * * * * * * * * * * * * * * * * * * * * * * * * * //

dimensions      [0 2 -1 0 0 0 0];

internalField   nonuniform List<scalar> 
28335
(
0.000232085
0.000228114
0.000228113
0.000222073
0.000232065
0.000228092
0.00022809
0.000222047
0.000232073
0.000228079
0.000228077
0.000222004
0.000232076
0.000228082
0.00022808
0.000222004
0.000232076
0.000228082
0.00022808
0.000222006
0.000232076
0.000228082
0.00022808
0.000222006
0.000232076
0.000228082
0.00022808
0.000222006
0.000232076
0.000228082
0.00022808
0.000222006
0.000232076
0.000228082
0.00022808
0.000222006
0.000232076
0.000228082
0.00022808
0.000222006
0.000232076
0.000228082
0.00022808
0.000222006
0.000232076
0.000228082
0.00022808
0.000222006
0.000232076
0.000228082
0.00022808
0.000222006
0.000232076
0.000228082
0.00022808
0.000222006
0.000232076
0.000228082
0.00022808
0.000222006
0.000232076
0.000228082
0.00022808
0.000222006
0.000232076
0.000228082
0.00022808
0.000222006
0.000222132
0.000228112
0.000228111
0.000222134
0.000228114
0.000228109
0.000228115
0.000228112
0.00022213
0.000228113
0.000228113
0.000222129
0.000222078
0.000222117
0.000228112
0.000228111
0.000228105
0.000228105
0.000222079
0.000222119
0.000228114
0.000228109
0.000228107
0.000228103
0.000228111
0.000228108
0.000228105
0.000222075
0.000222115
0.000228113
0.000228107
0.000228107
0.000222118
0.000222051
0.000222055
0.000228089
0.00022809
0.000228071
0.000228071
0.000222052
0.000222056
0.000228092
0.000228087
0.000228073
0.000228068
0.00022809
0.000228074
0.000228071
0.000222049
0.000222052
0.000228092
0.000228073
0.000228073
0.000222055
0.000222007
0.000222064
0.000228076
0.000228076
0.000228078
0.000228078
0.000222008
0.000222066
0.000228078
0.000228073
0.00022808
0.000228075
0.000228076
0.000228082
0.000228078
0.000222004
0.000222062
0.000228078
0.00022808
0.00022808
0.000222062
0.000222009
0.000222064
0.000228078
0.000228078
0.000228078
0.000228078
0.00022201
0.000222065
0.00022808
0.000228075
0.00022808
0.000228075
0.000228078
0.000228082
0.000228078
0.000222006
0.000222062
0.00022808
0.000228081
0.00022808
0.000222063
0.00022201
0.000222063
0.000228079
0.000228078
0.000228078
0.000228078
0.000222011
0.000222065
0.000228081
0.000228076
0.00022808
0.000228075
0.000228078
0.000228082
0.000228078
0.000222007
0.000222061
0.00022808
0.000228081
0.00022808
0.000222063
0.000222009
0.000222064
0.000228079
0.000228078
0.000228078
0.000228078
0.000222011
0.000222065
0.000228081
0.000228076
0.00022808
0.000228075
0.000228078
0.000228082
0.000228078
0.000222007
0.000222061
0.00022808
0.000228081
0.00022808
0.000222063
0.000222009
0.000222064
0.000228079
0.000228078
0.000228078
0.000228078
0.00022201
0.000222065
0.000228081
0.000228076
0.00022808
0.000228075
0.000228078
0.000228082
0.000228078
0.000222007
0.000222061
0.00022808
0.000228081
0.00022808
0.000222063
0.000222009
0.000222063
0.000228079
0.000228078
0.000228078
0.000228078
0.00022201
0.000222065
0.000228081
0.000228076
0.00022808
0.000228075
0.000228078
0.000228082
0.000228078
0.000222007
0.000222061
0.00022808
0.000228081
0.00022808
0.000222063
0.000222009
0.000222063
0.000228079
0.000228078
0.000228078
0.000228078
0.00022201
0.000222065
0.000228081
0.000228076
0.00022808
0.000228075
0.000228078
0.000228082
0.000228078
0.000222007
0.000222061
0.00022808
0.000228081
0.00022808
0.000222063
0.000222009
0.000222064
0.000228079
0.000228078
0.000228078
0.000228078
0.00022201
0.000222065
0.000228081
0.000228076
0.00022808
0.000228075
0.000228078
0.000228082
0.000228078
0.000222007
0.000222061
0.00022808
0.000228081
0.00022808
0.000222063
0.000222009
0.000222063
0.000228079
0.000228078
0.000228078
0.000228078
0.00022201
0.000222065
0.000228081
0.000228076
0.00022808
0.000228075
0.000228078
0.000228082
0.000228078
0.000222007
0.000222061
0.00022808
0.000228081
0.00022808
0.000222063
0.000222009
0.000222063
0.000228079
0.000228078
0.000228078
0.000228078
0.00022201
0.000222065
0.000228081
0.000228076
0.00022808
0.000228075
0.000228078
0.000228082
0.000228078
0.000222007
0.000222061
0.00022808
0.000228081
0.00022808
0.000222063
0.000222009
0.000222063
0.000228079
0.000228078
0.000228078
0.000228078
0.00022201
0.000222065
0.000228081
0.000228076
0.00022808
0.000228075
0.000228078
0.000228082
0.000228078
0.000222007
0.000222061
0.00022808
0.000228081
0.00022808
0.000222063
0.000222009
0.000222063
0.000228079
0.000228078
0.000228078
0.000228078
0.000222011
0.000222065
0.000228081
0.000228076
0.00022808
0.000228075
0.000228078
0.000228082
0.000228078
0.000222007
0.000222061
0.00022808
0.000228081
0.00022808
0.000222063
0.000222009
0.000222063
0.000228079
0.000228078
0.000228078
0.000228078
0.00022201
0.000222065
0.000228081
0.000228076
0.00022808
0.000228075
0.000228078
0.000228082
0.000228078
0.000222007
0.000222061
0.00022808
0.000228081
0.00022808
0.000222063
0.000222009
0.000222064
0.000228079
0.000228078
0.000228078
0.000228078
0.00022201
0.000222065
0.000228081
0.000228076
0.00022808
0.000228075
0.000228078
0.000228082
0.000228078
0.000222007
0.000222061
0.00022808
0.000228081
0.00022808
0.000222063
0.000222009
0.000228079
0.000228078
0.00022201
0.000228081
0.000228076
0.000228078
0.000222007
0.00022808
7.68259e-05
4.51475e-05
2.55761e-05
7.68344e-05
4.51437e-05
0.000232085
0.000232085
0.000232085
0.000232085
0.000169821
0.000228116
9.10068e-05
0.000231177
2.5574e-05
0.000169813
0.000228114
0.000231177
9.10095e-05
0.000222136
4.87793e-05
4.87694e-05
7.68345e-05
4.51478e-05
7.6819e-05
4.5147e-05
2.5575e-05
2.55742e-05
7.68437e-05
4.5144e-05
7.68295e-05
4.51432e-05
0.000232085
0.000232085
0.000232085
0.000232079
0.00023208
0.000232079
0.000232079
0.000169826
9.09958e-05
0.000231177
0.000228114
0.000169798
9.10234e-05
0.000231176
2.55729e-05
2.5572e-05
0.000169827
0.000231176
9.10001e-05
0.000228112
0.000169798
0.000231176
9.10268e-05
4.87839e-05
4.87743e-05
0.000222129
4.87945e-05
4.87846e-05
7.67506e-05
4.51497e-05
7.67962e-05
4.51598e-05
2.55762e-05
2.55822e-05
7.67574e-05
4.51461e-05
7.68061e-05
4.5156e-05
0.000232066
0.000232065
0.000232065
0.000232067
0.000232068
0.000232067
0.000232067
0.000169698
9.09715e-05
0.000231155
0.000228076
0.000169769
9.09366e-05
0.000231145
2.55744e-05
2.55801e-05
0.000169697
0.000231156
9.09761e-05
0.000228074
0.000169768
0.000231146
9.09389e-05
4.8774e-05
4.87641e-05
0.000222059
4.8733e-05
4.87229e-05
7.67113e-05
4.51635e-05
7.66981e-05
4.51626e-05
2.55834e-05
2.5583e-05
7.6721e-05
4.51598e-05
7.67091e-05
4.51588e-05
0.000232073
0.000232073
0.000232073
0.000232076
0.000232076
0.000232076
0.000232075
0.00016965
9.08701e-05
0.000231157
0.000228081
0.000169623
9.08926e-05
0.00023116
2.55815e-05
2.5581e-05
0.00016965
0.000231157
9.08757e-05
0.00022808
0.000169621
0.00023116
9.08969e-05
4.87027e-05
4.86929e-05
0.000222068
4.87082e-05
4.86983e-05
7.67115e-05
4.51632e-05
7.6698e-05
4.51625e-05
2.55834e-05
2.5583e-05
7.67214e-05
4.51595e-05
7.67093e-05
4.51587e-05
0.000232076
0.000232076
0.000232076
0.000232076
0.000232076
0.000232075
0.000232076
0.00016965
9.08683e-05
0.00023116
0.000228082
0.000169625
9.08924e-05
0.00023116
2.55814e-05
2.5581e-05
0.00016965
0.00023116
9.08738e-05
0.00022808
0.000169625
0.00023116
9.08967e-05
4.87033e-05
4.86935e-05
0.000222062
4.87085e-05
4.86986e-05
7.67115e-05
4.51632e-05
7.6698e-05
4.51625e-05
2.55834e-05
2.5583e-05
7.67214e-05
4.51595e-05
7.67094e-05
4.51587e-05
0.000232076
0.000232076
0.000232076
0.000232076
0.000232076
0.000232076
0.000232075
0.00016965
9.08683e-05
0.00023116
0.000228082
0.000169625
9.08924e-05
0.00023116
2.55814e-05
2.5581e-05
0.000169651
0.00023116
9.08738e-05
0.000228081
0.000169624
0.00023116
9.08967e-05
4.87033e-05
4.86936e-05
0.000222063
4.87085e-05
4.86986e-05
7.67115e-05
4.51632e-05
7.6698e-05
4.51625e-05
2.55834e-05
2.5583e-05
7.67215e-05
4.51596e-05
7.67094e-05
4.51588e-05
0.000232076
0.000232076
0.000232076
0.000232076
0.000232076
0.000232075
0.000232076
0.00016965
9.08683e-05
0.00023116
0.000228082
0.000169624
9.08924e-05
0.000231161
2.55814e-05
2.5581e-05
0.000169651
0.00023116
9.08738e-05
0.000228081
0.000169624
0.00023116
9.08967e-05
4.87033e-05
4.86935e-05
0.000222063
4.87085e-05
4.86986e-05
7.67115e-05
4.51632e-05
7.6698e-05
4.51625e-05
2.55836e-05
2.55832e-05
7.67215e-05
4.51595e-05
7.67094e-05
4.51587e-05
0.000232076
0.000232076
0.000232076
0.000232076
0.000232076
0.000232076
0.000232075
0.00016965
9.08683e-05
0.00023116
0.000228082
0.000169624
9.08924e-05
0.000231161
2.55814e-05
2.5581e-05
0.000169651
0.00023116
9.08738e-05
0.000228081
0.000169624
0.00023116
9.08967e-05
4.87033e-05
4.86935e-05
0.000222063
4.87085e-05
4.86986e-05
7.67115e-05
4.51632e-05
7.6698e-05
4.51625e-05
2.55835e-05
2.55832e-05
7.67214e-05
4.51594e-05
7.67094e-05
4.51586e-05
0.000232076
0.000232076
0.000232076
0.000232076
0.000232076
0.000232076
0.000232075
0.00016965
9.08683e-05
0.00023116
0.000228082
0.000169624
9.08924e-05
0.000231161
2.55814e-05
2.5581e-05
0.000169651
0.00023116
9.08738e-05
0.000228081
0.000169623
0.00023116
9.08967e-05
4.87034e-05
4.86936e-05
0.000222063
4.87085e-05
4.86986e-05
7.67115e-05
4.51632e-05
7.6698e-05
4.51625e-05
2.55835e-05
2.55832e-05
7.67214e-05
4.51594e-05
7.67094e-05
4.51586e-05
0.000232076
0.000232076
0.000232076
0.000232076
0.000232076
0.000232076
0.000232076
0.00016965
9.08683e-05
0.00023116
0.000228082
0.000169624
9.08924e-05
0.000231161
2.55814e-05
2.5581e-05
0.000169651
0.00023116
9.08738e-05
0.000228081
0.000169623
0.00023116
9.08967e-05
4.87033e-05
4.86936e-05
0.000222063
4.87085e-05
4.86986e-05
7.67115e-05
4.51632e-05
7.6698e-05
4.51625e-05
2.55835e-05
2.55832e-05
7.67214e-05
4.51594e-05
7.67094e-05
4.51586e-05
0.000232076
0.000232076
0.000232076
0.000232076
0.000232076
0.000232076
0.000232075
0.00016965
9.08683e-05
0.00023116
0.000228082
0.000169624
9.08924e-05
0.00023116
2.55814e-05
2.5581e-05
0.00016965
0.00023116
9.08738e-05
0.000228081
0.000169623
0.00023116
9.08967e-05
4.87033e-05
4.86936e-05
0.000222063
4.87085e-05
4.86986e-05
7.67115e-05
4.51632e-05
7.6698e-05
4.51625e-05
2.55835e-05
2.55832e-05
7.67214e-05
4.51594e-05
7.67094e-05
4.51586e-05
0.000232076
0.000232076
0.000232076
0.000232076
0.000232076
0.000232075
0.000232075
0.00016965
9.08683e-05
0.00023116
0.000228082
0.000169624
9.08924e-05
0.000231161
2.55814e-05
2.5581e-05
0.00016965
0.00023116
9.08738e-05
0.000228081
0.000169623
0.000231161
9.08967e-05
4.87033e-05
4.86936e-05
0.000222063
4.87085e-05
4.86986e-05
7.67115e-05
4.51632e-05
7.6698e-05
4.51625e-05
2.55835e-05
2.55832e-05
7.67214e-05
4.51594e-05
7.67094e-05
4.51586e-05
0.000232076
0.000232076
0.000232076
0.000232076
0.000232076
0.000232075
0.000232075
0.00016965
9.08683e-05
0.00023116
0.000228082
0.000169624
9.08924e-05
0.000231161
2.55814e-05
2.5581e-05
0.000169649
0.00023116
9.08738e-05
0.00022808
0.000169623
0.00023116
9.08967e-05
4.87033e-05
4.86936e-05
0.000222063
4.87085e-05
4.86986e-05
7.67115e-05
4.51632e-05
7.6698e-05
4.51625e-05
2.55835e-05
2.55832e-05
7.67214e-05
4.51594e-05
7.67094e-05
4.51586e-05
0.000232076
0.000232076
0.000232076
0.000232076
0.000232076
0.000232076
0.000232075
0.00016965
9.08683e-05
0.000231161
0.000228082
0.000169624
9.08924e-05
0.000231161
2.55814e-05
2.5581e-05
0.000169646
0.00023116
9.08738e-05
0.000228081
0.000169619
0.00023116
9.08967e-05
4.87033e-05
4.86936e-05
0.000222063
4.87085e-05
4.86986e-05
7.67115e-05
4.51632e-05
7.6698e-05
4.51625e-05
2.55835e-05
2.55832e-05
7.67214e-05
4.51594e-05
7.67094e-05
4.51586e-05
0.000232076
0.000232076
0.000232076
0.000232076
0.000232076
0.000232076
0.000232075
0.00016965
9.08683e-05
0.00023116
0.000228082
0.000169624
9.08924e-05
0.000231161
2.55814e-05
2.5581e-05
0.000169644
0.00023116
9.08738e-05
0.000228081
0.000169617
0.00023116
9.08967e-05
4.87033e-05
4.86935e-05
0.000222063
4.87085e-05
4.86986e-05
7.67115e-05
4.51632e-05
7.6698e-05
4.51625e-05
2.55835e-05
2.55832e-05
7.67214e-05
4.51594e-05
7.67094e-05
4.51586e-05
0.000232076
0.000232076
0.000232076
0.000232076
0.000232076
0.000232075
0.000232075
0.000169651
9.08683e-05
0.00023116
0.000228082
0.000169624
9.08924e-05
0.000231161
2.55814e-05
2.5581e-05
0.000169645
0.00023116
9.08738e-05
0.00022808
0.000169617
0.00023116
9.08967e-05
4.87033e-05
4.86936e-05
0.000222063
4.87085e-05
4.86986e-05
7.67114e-05
4.51632e-05
7.66979e-05
4.51625e-05
2.55835e-05
2.55832e-05
7.67214e-05
4.51594e-05
7.67093e-05
4.51586e-05
0.000232076
0.000232076
0.000232076
0.000232076
0.000232076
0.000232076
0.000232075
0.000169651
9.08683e-05
0.00023116
0.000228082
0.000169624
9.08924e-05
0.000231161
2.55814e-05
2.5581e-05
0.000169645
0.00023116
9.08738e-05
0.000228081
0.000169617
0.00023116
9.08967e-05
4.87033e-05
4.86935e-05
0.000222063
4.87084e-05
4.86986e-05
7.67115e-05
4.51632e-05
7.6698e-05
4.51625e-05
2.55835e-05
2.55832e-05
7.67215e-05
4.51594e-05
7.67094e-05
4.51587e-05
0.000232076
0.000232076
0.000232075
0.000169648
9.08683e-05
0.000231161
0.000228082
0.000169624
9.08925e-05
0.000231161
2.55813e-05
2.5581e-05
0.00016964
0.00023116
9.08738e-05
0.000228081
0.000169617
0.000231161
9.08845e-05
4.87033e-05
4.86935e-05
0.000222068
4.8706e-05
4.86962e-05
2.5577e-05
2.55754e-05
0.00022214
4.87825e-05
4.87712e-05
2.55758e-05
2.55768e-05
2.55743e-05
2.55753e-05
0.000222087
4.87901e-05
4.87788e-05
4.87823e-05
4.87709e-05
7.68298e-05
4.51467e-05
0.000169817
0.000228113
9.10169e-05
0.000231177
0.000169818
0.000228112
9.10117e-05
0.000231177
7.68182e-05
4.51473e-05
4.51476e-05
7.6831e-05
7.68218e-05
4.51463e-05
4.51468e-05
7.68341e-05
0.000169801
0.000228113
9.10259e-05
0.000231177
9.10025e-05
0.000231177
0.000169826
0.000169801
0.000228112
9.10212e-05
0.000231177
9.0997e-05
0.000231177
0.000169826
0.000222142
4.87721e-05
4.87704e-05
2.55766e-05
2.55749e-05
2.55759e-05
0.000222088
4.87791e-05
4.87786e-05
4.87721e-05
4.87699e-05
2.55753e-05
2.55766e-05
0.00016982
0.000228115
9.10067e-05
0.000231177
7.68345e-05
4.51416e-05
0.000169819
0.00022811
0.000231176
9.09943e-05
7.68285e-05
4.51435e-05
4.51439e-05
7.68398e-05
0.000169805
0.000228115
9.1014e-05
0.000231177
9.09919e-05
0.000231177
0.00016983
7.68285e-05
4.51413e-05
4.51418e-05
7.68397e-05
0.000169802
0.00022811
0.000231176
9.1003e-05
0.000231176
9.09782e-05
0.000169826
7.68288e-05
4.51457e-05
0.000169817
0.000228112
0.000231177
9.10136e-05
7.68285e-05
4.51442e-05
0.000169801
0.000228116
9.1018e-05
0.000231177
9.0992e-05
0.000231177
0.000169823
7.68208e-05
4.51454e-05
4.51459e-05
7.68333e-05
0.000169801
0.000228112
0.000231177
9.10227e-05
0.000231177
9.09988e-05
0.000169826
7.68205e-05
4.51438e-05
4.51442e-05
7.6833e-05
0.000222138
4.87583e-05
4.87807e-05
2.55761e-05
2.55728e-05
2.55739e-05
0.000222084
4.87655e-05
4.87881e-05
4.87569e-05
4.87802e-05
2.55749e-05
2.55759e-05
0.000169817
0.000228114
0.000231177
9.10068e-05
7.68355e-05
4.51439e-05
7.68355e-05
4.51435e-05
0.000169797
0.000228114
0.000231177
9.10209e-05
0.000231177
9.09961e-05
0.000169825
0.000169803
0.000228114
0.000231177
9.10157e-05
0.000231177
9.09918e-05
0.000169829
7.68292e-05
4.51436e-05
4.5144e-05
7.68409e-05
7.68292e-05
4.51431e-05
4.51436e-05
7.68408e-05
2.55759e-05
2.55751e-05
0.000222082
4.87867e-05
4.87768e-05
4.87787e-05
4.87691e-05
2.55747e-05
2.55757e-05
2.5574e-05
2.5575e-05
2.55758e-05
2.55752e-05
2.55743e-05
2.55736e-05
4.87906e-05
4.87793e-05
0.000222129
4.87976e-05
4.87865e-05
2.55755e-05
2.55752e-05
2.5574e-05
2.55736e-05
0.000222075
4.87917e-05
4.87804e-05
4.87976e-05
4.87863e-05
7.68373e-05
4.51464e-05
7.68273e-05
4.51462e-05
0.000169824
9.10107e-05
0.000231177
0.000228112
0.000169807
9.10306e-05
0.000231176
0.000169828
9.10058e-05
0.000231177
0.000228111
0.000169808
9.1026e-05
0.000231176
7.68268e-05
4.51477e-05
4.5147e-05
7.68218e-05
7.68295e-05
4.51467e-05
4.51462e-05
7.68242e-05
0.000169799
0.00022811
9.10151e-05
0.000231171
9.10142e-05
0.000231175
0.000169808
0.000169803
0.00022811
9.10103e-05
0.000231171
9.10089e-05
0.000231175
0.000169811
4.87796e-05
4.87775e-05
0.00022213
4.87863e-05
4.87852e-05
2.55753e-05
2.55747e-05
2.55747e-05
2.55743e-05
0.000222076
4.87807e-05
4.87808e-05
4.87863e-05
4.87826e-05
2.55752e-05
2.55747e-05
0.000169826
9.09987e-05
0.000231177
0.000228113
0.000169809
9.1018e-05
0.000231176
7.68435e-05
4.51414e-05
7.68347e-05
4.51412e-05
0.000169827
0.000231176
9.09864e-05
0.000228109
0.000169807
0.000231176
9.10073e-05
7.68378e-05
4.51439e-05
4.51432e-05
7.68306e-05
0.000169802
0.000228112
9.10024e-05
0.000231171
9.10017e-05
0.000231175
0.00016981
7.68375e-05
4.51418e-05
4.51412e-05
7.68303e-05
0.000169803
0.000228107
0.00023117
9.09918e-05
0.000231174
9.0989e-05
0.000169811
7.68366e-05
4.51454e-05
7.68265e-05
4.51452e-05
0.000169826
0.000231177
9.10073e-05
0.000228111
0.000169808
0.000231176
9.10274e-05
7.68362e-05
4.51439e-05
7.68262e-05
4.51437e-05
0.000169802
0.000228113
9.10083e-05
0.000231171
9.10055e-05
0.000231175
0.000169809
7.68288e-05
4.51458e-05
4.51452e-05
7.68236e-05
0.000169801
0.00022811
0.000231171
9.10116e-05
0.000231175
9.10104e-05
0.000169809
7.68283e-05
4.51442e-05
4.51437e-05
7.6823e-05
4.87647e-05
4.87884e-05
0.000222127
4.8772e-05
4.87958e-05
2.55749e-05
2.55742e-05
2.55727e-05
2.55721e-05
0.000222073
4.87674e-05
4.879e-05
4.87698e-05
4.87957e-05
2.55746e-05
2.55742e-05
0.000169826
0.000231177
9.10001e-05
0.000228113
0.000169808
0.000231176
9.10203e-05
7.68445e-05
4.51436e-05
7.68356e-05
4.51434e-05
7.68443e-05
4.51431e-05
7.68354e-05
4.5143e-05
0.000169801
0.000228111
0.00023117
9.10119e-05
0.000231175
9.10103e-05
0.00016981
0.0001698
0.000228111
0.000231171
9.10046e-05
0.000231175
9.10031e-05
0.000169811
7.68382e-05
4.51439e-05
4.51435e-05
7.68315e-05
7.68379e-05
4.51435e-05
4.51431e-05
7.68313e-05
2.55747e-05
2.55741e-05
2.55739e-05
2.55733e-05
0.000222075
4.87883e-05
4.87784e-05
4.87943e-05
4.87844e-05
2.55745e-05
2.55741e-05
2.55737e-05
2.55733e-05
2.55768e-05
2.55831e-05
2.55754e-05
2.55816e-05
4.87807e-05
4.87691e-05
0.000222058
4.87349e-05
4.87233e-05
2.55843e-05
2.55843e-05
2.55828e-05
2.55828e-05
0.000221985
4.87091e-05
4.86979e-05
4.87222e-05
4.87107e-05
7.67505e-05
4.51482e-05
7.68025e-05
4.51593e-05
0.000169696
9.09847e-05
0.000231156
0.000228072
0.00016977
9.09423e-05
0.000231145
0.000169696
9.09794e-05
0.000231156
0.000228073
0.000169771
9.0937e-05
0.000231146
7.67254e-05
4.5163e-05
4.51627e-05
7.67124e-05
7.67255e-05
4.51624e-05
4.51622e-05
7.67128e-05
0.000169648
0.000228068
9.09026e-05
0.000231152
9.09086e-05
0.000231146
0.00016965
0.000169648
0.000228068
9.0897e-05
0.000231152
9.09027e-05
0.000231147
0.000169651
4.87688e-05
4.87646e-05
0.00022206
4.87244e-05
4.87295e-05
2.55768e-05
2.55828e-05
2.55833e-05
2.55832e-05
0.000221987
4.86983e-05
4.86955e-05
4.87118e-05
4.87123e-05
2.5584e-05
2.5584e-05
0.000169695
9.0972e-05
0.000231156
0.000228074
0.000169773
9.0929e-05
0.000231146
7.67542e-05
4.51434e-05
7.68098e-05
4.51541e-05
0.000169694
0.000231156
9.096e-05
0.00022807
0.000169771
0.000231145
9.09192e-05
7.67349e-05
4.51592e-05
4.5159e-05
7.67217e-05
0.000169649
0.00022807
9.08892e-05
0.000231152
9.08957e-05
0.000231147
0.000169651
7.67315e-05
4.51575e-05
4.51573e-05
7.67191e-05
0.000169647
0.000228066
0.000231152
9.08776e-05
0.000231146
9.08843e-05
0.00016965
7.675e-05
4.51475e-05
7.68019e-05
4.51583e-05
0.000169697
0.000231156
9.09808e-05
0.000228073
0.000169771
0.000231146
9.09383e-05
7.67493e-05
4.51457e-05
7.68012e-05
4.51568e-05
0.00016965
0.000228072
9.0896e-05
0.000231152
9.09025e-05
0.000231147
0.000169649
7.67249e-05
4.51615e-05
4.51614e-05
7.6712e-05
0.000169649
0.000228068
0.000231152
9.08988e-05
0.000231147
9.09042e-05
0.000169649
7.67242e-05
4.51599e-05
4.51597e-05
7.67114e-05
4.87515e-05
4.87788e-05
0.000222056
4.87158e-05
4.87329e-05
2.55758e-05
2.55822e-05
2.55812e-05
2.55813e-05
0.000221983
4.86832e-05
4.87075e-05
4.86985e-05
4.87202e-05
2.55834e-05
2.55833e-05
0.000169697
0.000231156
9.09736e-05
0.000228075
0.000169771
0.000231145
9.09315e-05
7.67556e-05
4.51454e-05
7.68109e-05
4.51564e-05
7.67559e-05
4.51451e-05
7.68107e-05
4.51561e-05
0.000169648
0.00022807
0.000231152
9.09003e-05
0.000231147
9.09053e-05
0.000169649
0.000169647
0.00022807
0.000231152
9.08916e-05
0.000231147
9.08971e-05
0.00016965
7.67327e-05
4.51597e-05
4.51594e-05
7.67202e-05
7.67327e-05
4.51593e-05
4.51591e-05
7.67198e-05
2.55758e-05
2.55821e-05
2.5575e-05
2.55813e-05
0.000221986
4.87079e-05
4.86979e-05
4.87205e-05
4.87107e-05
2.55832e-05
2.55832e-05
2.55824e-05
2.55824e-05
2.55843e-05
2.55842e-05
2.55828e-05
2.55827e-05
4.87074e-05
4.86961e-05
0.00022207
4.87096e-05
4.86984e-05
2.55841e-05
2.55842e-05
2.55826e-05
2.55827e-05
0.000222016
4.87098e-05
4.86986e-05
4.8708e-05
4.86968e-05
7.67118e-05
4.51624e-05
7.67038e-05
4.51623e-05
0.00016965
9.08838e-05
0.000231158
0.000228078
0.000169629
9.08989e-05
0.00023116
0.000169651
9.0878e-05
0.000231158
0.000228077
0.000169631
9.08936e-05
0.00023116
7.67034e-05
4.51627e-05
4.51626e-05
7.67116e-05
7.67038e-05
4.51622e-05
4.51623e-05
7.67121e-05
0.000169631
0.000228078
9.08988e-05
0.00023116
9.08823e-05
0.00023116
0.000169652
0.000169631
0.000228078
9.08934e-05
0.00023116
9.08764e-05
0.00023116
0.000169653
4.86962e-05
4.86911e-05
0.000222072
4.86989e-05
4.86959e-05
2.5584e-05
2.55838e-05
2.55832e-05
2.5583e-05
0.000222017
4.8699e-05
4.86966e-05
4.86972e-05
4.8692e-05
2.55838e-05
2.55839e-05
0.000169653
9.08706e-05
0.000231158
0.00022808
0.000169631
9.08857e-05
0.00023116
7.67182e-05
4.51575e-05
7.67119e-05
4.51573e-05
0.000169651
0.000231157
9.08574e-05
0.000228075
0.00016963
0.000231159
9.08741e-05
7.67148e-05
4.51589e-05
4.51588e-05
7.67212e-05
0.000169634
0.00022808
9.08856e-05
0.00023116
9.08692e-05
0.00023116
0.000169655
7.67119e-05
4.51571e-05
4.51573e-05
7.67186e-05
0.000169631
0.000228075
0.00023116
9.0874e-05
0.00023116
9.08558e-05
0.000169653
7.67108e-05
4.51616e-05
7.6703e-05
4.51613e-05
0.00016965
0.000231158
9.088e-05
0.000228077
0.000169629
0.00023116
9.08955e-05
7.67103e-05
4.516e-05
7.67024e-05
4.51597e-05
0.000169631
0.000228082
9.08923e-05
0.00023116
9.08744e-05
0.000231161
0.00016965
7.67028e-05
4.51612e-05
4.51613e-05
7.67111e-05
0.000169631
0.000228078
0.00023116
9.08952e-05
0.00023116
9.08783e-05
0.000169652
7.67023e-05
4.51597e-05
4.51597e-05
7.67106e-05
4.86791e-05
4.87056e-05
0.000222068
4.86838e-05
4.87078e-05
2.55834e-05
2.55833e-05
2.5581e-05
2.55811e-05
0.000222013
4.86843e-05
4.8708e-05
4.86803e-05
4.87061e-05
2.55832e-05
2.55833e-05
0.00016965
0.000231157
9.08726e-05
0.000228079
0.000169628
0.00023116
9.08883e-05
7.67191e-05
4.51597e-05
7.67127e-05
4.51595e-05
7.67187e-05
4.51593e-05
7.67122e-05
4.51591e-05
0.00016963
0.00022808
0.00023116
9.08965e-05
0.00023116
9.08799e-05
0.000169652
0.000169629
0.00022808
0.00023116
9.0888e-05
0.00023116
9.08708e-05
0.000169653
7.67125e-05
4.51594e-05
4.51596e-05
7.67196e-05
7.67121e-05
4.5159e-05
4.51591e-05
7.67191e-05
2.55832e-05
2.55831e-05
2.55824e-05
2.55823e-05
0.000222014
4.87083e-05
4.86984e-05
4.87064e-05
4.86966e-05
2.55831e-05
2.55831e-05
2.55823e-05
2.55823e-05
2.55842e-05
2.55841e-05
2.55826e-05
2.55826e-05
4.87082e-05
4.8697e-05
0.000222065
4.87098e-05
4.86987e-05
2.55841e-05
2.55841e-05
2.55826e-05
2.55826e-05
0.000222012
4.87097e-05
4.86986e-05
4.87081e-05
4.86969e-05
7.67119e-05
4.51622e-05
7.67039e-05
4.51622e-05
0.00016965
9.08819e-05
0.00023116
0.000228078
0.000169631
9.08988e-05
0.00023116
0.000169651
9.08762e-05
0.00023116
0.000228078
0.000169632
9.08935e-05
0.00023116
7.67035e-05
4.51627e-05
4.51625e-05
7.67115e-05
7.67039e-05
4.51622e-05
4.51622e-05
7.6712e-05
0.00016963
0.000228079
9.08988e-05
0.00023116
9.08823e-05
0.00023116
0.000169652
0.00016963
0.000228079
9.08934e-05
0.00023116
9.08764e-05
0.00023116
0.000169652
4.86971e-05
4.86922e-05
0.000222066
4.86992e-05
4.8696e-05
2.55839e-05
2.55838e-05
2.55832e-05
2.55831e-05
0.000222012
4.86991e-05
4.86963e-05
4.86974e-05
4.86917e-05
2.55838e-05
2.55839e-05
0.000169653
9.08688e-05
0.00023116
0.00022808
0.000169635
9.08856e-05
0.00023116
7.67185e-05
4.51572e-05
7.67121e-05
4.51572e-05
0.00016965
0.000231159
9.08557e-05
0.000228075
0.000169632
0.000231159
9.0874e-05
7.67151e-05
4.51588e-05
4.51588e-05
7.67213e-05
0.000169633
0.000228081
9.08856e-05
0.00023116
9.08692e-05
0.000231161
0.000169655
7.67121e-05
4.51571e-05
4.51572e-05
7.67187e-05
0.00016963
0.000228076
0.00023116
9.0874e-05
0.00023116
9.08558e-05
0.000169652
7.67107e-05
4.51613e-05
7.67029e-05
4.51612e-05
0.00016965
0.00023116
9.08782e-05
0.000228078
0.000169631
0.00023116
9.08954e-05
7.67104e-05
4.51597e-05
7.67024e-05
4.51597e-05
0.00016963
0.000228082
9.08923e-05
0.000231161
9.08742e-05
0.000231161
0.000169649
7.67027e-05
4.51612e-05
4.51613e-05
7.6711e-05
0.00016963
0.000228079
0.00023116
9.08952e-05
0.00023116
9.08783e-05
0.000169651
7.67023e-05
4.51596e-05
4.51597e-05
7.67106e-05
4.86806e-05
4.87063e-05
0.000222063
4.8684e-05
4.87081e-05
2.55832e-05
2.55832e-05
2.5581e-05
2.55811e-05
0.000222009
4.86843e-05
4.87081e-05
4.86802e-05
4.87063e-05
2.55832e-05
2.55832e-05
0.00016965
0.00023116
9.08708e-05
0.00022808
0.000169631
0.00023116
9.08882e-05
7.67193e-05
4.51594e-05
7.67128e-05
4.51594e-05
7.6719e-05
4.5159e-05
7.67123e-05
4.5159e-05
0.000169629
0.000228081
0.00023116
9.08965e-05
0.00023116
9.08798e-05
0.00016965
0.000169628
0.000228081
0.00023116
9.0888e-05
0.00023116
9.08709e-05
0.000169652
7.67127e-05
4.51594e-05
4.51594e-05
7.67195e-05
7.67123e-05
4.5159e-05
4.51591e-05
7.67192e-05
2.55831e-05
2.55831e-05
2.55823e-05
2.55823e-05
0.00022201
4.87084e-05
4.86985e-05
4.87066e-05
4.86968e-05
2.55831e-05
2.55831e-05
2.55823e-05
2.55823e-05
2.55842e-05
2.55841e-05
2.55826e-05
2.55826e-05
4.87081e-05
4.86969e-05
0.000222065
4.87099e-05
4.86986e-05
2.55841e-05
2.55842e-05
2.55826e-05
2.55826e-05
0.000222013
4.87099e-05
4.86985e-05
4.87083e-05
4.86969e-05
7.67119e-05
4.51622e-05
7.67039e-05
4.51622e-05
0.00016965
9.08819e-05
0.00023116
0.000228079
0.000169631
9.08988e-05
0.00023116
0.000169651
9.08762e-05
0.000231161
0.000228078
0.000169632
9.08935e-05
0.00023116
7.67035e-05
4.51627e-05
4.51625e-05
7.67116e-05
7.67039e-05
4.51622e-05
4.51622e-05
7.6712e-05
0.00016963
0.000228079
9.08988e-05
0.00023116
9.08823e-05
0.00023116
0.000169652
0.00016963
0.000228078
9.08934e-05
0.00023116
9.08764e-05
0.00023116
0.000169652
4.86971e-05
4.86923e-05
0.000222067
4.86992e-05
4.86962e-05
2.55839e-05
2.55838e-05
2.55832e-05
2.5583e-05
0.000222013
4.86991e-05
4.86963e-05
4.86975e-05
4.86918e-05
2.55838e-05
2.55839e-05
0.000169654
9.08688e-05
0.000231161
0.000228081
0.000169635
9.08856e-05
0.000231161
7.67186e-05
4.51572e-05
7.67121e-05
4.51572e-05
0.000169651
0.00023116
9.08557e-05
0.000228076
0.000169632
0.00023116
9.0874e-05
7.67151e-05
4.5159e-05
4.51588e-05
7.67213e-05
0.000169633
0.000228081
9.0886e-05
0.00023116
9.08693e-05
0.000231161
0.000169654
7.67122e-05
4.51571e-05
4.51572e-05
7.67187e-05
0.00016963
0.000228076
0.00023116
9.0874e-05
0.00023116
9.08558e-05
0.000169652
7.67108e-05
4.51613e-05
7.67028e-05
4.51612e-05
0.000169651
0.000231161
9.08782e-05
0.000228078
0.000169631
0.00023116
9.08954e-05
7.67105e-05
4.51597e-05
7.67024e-05
4.51596e-05
0.000169631
0.000228082
9.08923e-05
0.00023116
9.08743e-05
0.00023116
0.000169649
7.67027e-05
4.51612e-05
4.51613e-05
7.6711e-05
0.00016963
0.000228079
0.00023116
9.08952e-05
0.00023116
9.08783e-05
0.00016965
7.67023e-05
4.51596e-05
4.51596e-05
7.67106e-05
4.86807e-05
4.87063e-05
0.000222063
4.86839e-05
4.87081e-05
2.55832e-05
2.55832e-05
2.5581e-05
2.55811e-05
0.000222009
4.86843e-05
4.87081e-05
4.86802e-05
4.87063e-05
2.55832e-05
2.55832e-05
0.000169651
0.00023116
9.08709e-05
0.00022808
0.00016963
0.00023116
9.08882e-05
7.67193e-05
4.51594e-05
7.67127e-05
4.51594e-05
7.67191e-05
4.5159e-05
7.67124e-05
4.5159e-05
0.000169629
0.000228081
0.00023116
9.08965e-05
0.00023116
9.08798e-05
0.00016965
0.000169629
0.00022808
0.00023116
9.0888e-05
0.00023116
9.08709e-05
0.000169651
7.67127e-05
4.51594e-05
4.51594e-05
7.67195e-05
7.67123e-05
4.5159e-05
4.5159e-05
7.67192e-05
2.55831e-05
2.55831e-05
2.55823e-05
2.55823e-05
0.00022201
4.87084e-05
4.86985e-05
4.87066e-05
4.86968e-05
2.55831e-05
2.55831e-05
2.55823e-05
2.55823e-05
2.55842e-05
2.55841e-05
2.55826e-05
2.55826e-05
4.87083e-05
4.86968e-05
0.000222066
4.87099e-05
4.86986e-05
2.55841e-05
2.55841e-05
2.55826e-05
2.55826e-05
0.000222013
4.87097e-05
4.86986e-05
4.87082e-05
4.86969e-05
7.67119e-05
4.51622e-05
7.67038e-05
4.51622e-05
0.00016965
9.08819e-05
0.00023116
0.000228079
0.000169631
9.08989e-05
0.00023116
0.000169651
9.08762e-05
0.00023116
0.000228078
0.000169631
9.08935e-05
0.00023116
7.67035e-05
4.51627e-05
4.51625e-05
7.67116e-05
7.67039e-05
4.51621e-05
4.51622e-05
7.67121e-05
0.00016963
0.000228079
9.08988e-05
0.00023116
9.08824e-05
0.00023116
0.000169652
0.000169631
0.000228078
9.08935e-05
0.00023116
9.08765e-05
0.00023116
0.000169652
4.86972e-05
4.86923e-05
0.000222067
4.86993e-05
4.86962e-05
2.55839e-05
2.55838e-05
2.55833e-05
2.55831e-05
0.000222013
4.86975e-05
4.86963e-05
4.86976e-05
4.86917e-05
2.55838e-05
2.55839e-05
0.000169654
9.08671e-05
0.000231161
0.000228081
0.000169634
9.08847e-05
0.000231161
7.67186e-05
4.51572e-05
7.67121e-05
4.51572e-05
0.000169651
0.00023116
9.08557e-05
0.000228076
0.000169631
0.00023116
9.0874e-05
7.67151e-05
4.51589e-05
4.51588e-05
7.67213e-05
0.000169633
0.000228081
9.08839e-05
0.00023116
9.08663e-05
0.000231161
0.000169654
7.67122e-05
4.51571e-05
4.51572e-05
7.67187e-05
0.000169631
0.000228076
0.00023116