/*--------------------------------*- C++ -*----------------------------------*\
| =========                 |                                                 |
| \\      /  F ield         | OpenFOAM: The Open Source CFD Toolbox           |
|  \\    /   O peration     | Version:  2206                                  |
|   \\  /    A nd           | Website:  www.openfoam.com                      |
|    \\/     M anipulation  |                                                 |
\*---------------------------------------------------------------------------*/
FoamFile
{
    version     2.0;
    format      ascii;
    arch        "LSB;label=32;scalar=64";
    class       volScalarField;
    location    "10";
    object      k;
}
// * * * * * * * * * * * * * * * * * * * * * * * * * * * * * * * * * * * * * //

dimensions      [0 2 -2 0 0 0 0];

internalField   nonuniform List<scalar> 
28688
(
3.58899e-05
3.58826e-05
3.58827e-05
3.6002e-05
3.38228e-05
3.37926e-05
3.37926e-05
3.39567e-05
3.28294e-05
3.27484e-05
3.27484e-05
3.2625e-05
3.27627e-05
3.27157e-05
3.27157e-05
3.26387e-05
3.2762e-05
3.27164e-05
3.27163e-05
3.26424e-05
3.2762e-05
3.27165e-05
3.27164e-05
3.26425e-05
3.2762e-05
3.27165e-05
3.27165e-05
3.26425e-05
3.2762e-05
3.27165e-05
3.27165e-05
3.26425e-05
3.2762e-05
3.27165e-05
3.27165e-05
3.26425e-05
3.2762e-05
3.27165e-05
3.27165e-05
3.26425e-05
3.2762e-05
3.27165e-05
3.27165e-05
3.26425e-05
3.2762e-05
3.27165e-05
3.27165e-05
3.26425e-05
3.63035e-05
3.62938e-05
3.62938e-05
3.63035e-05
3.62938e-05
3.62938e-05
3.64161e-05
3.6416e-05
3.6416e-05
3.6416e-05
3.62938e-05
3.62938e-05
3.63035e-05
3.62938e-05
3.62938e-05
3.63035e-05
3.6002e-05
3.42574e-05
3.58827e-05
3.58827e-05
3.43496e-05
3.43496e-05
3.6002e-05
3.42574e-05
3.58827e-05
3.58827e-05
3.43497e-05
3.43496e-05
3.58827e-05
3.43497e-05
3.43496e-05
3.6002e-05
3.42574e-05
3.58827e-05
3.43497e-05
3.43496e-05
3.42574e-05
3.39567e-05
3.26605e-05
3.37925e-05
3.37925e-05
3.28254e-05
3.28253e-05
3.39567e-05
3.26605e-05
3.37925e-05
3.37925e-05
3.28254e-05
3.28253e-05
3.37925e-05
3.28255e-05
3.28254e-05
3.39567e-05
3.26605e-05
3.37925e-05
3.28254e-05
3.28254e-05
3.26604e-05
3.26253e-05
3.26384e-05
3.27485e-05
3.27485e-05
3.27155e-05
3.27155e-05
3.26253e-05
3.26384e-05
3.27485e-05
3.27484e-05
3.27156e-05
3.27155e-05
3.27485e-05
3.27156e-05
3.27155e-05
3.26252e-05
3.26384e-05
3.27485e-05
3.27156e-05
3.27156e-05
3.26383e-05
3.26388e-05
3.26428e-05
3.27158e-05
3.27158e-05
3.27163e-05
3.27162e-05
3.26388e-05
3.26428e-05
3.27158e-05
3.27158e-05
3.27163e-05
3.27162e-05
3.27158e-05
3.27163e-05
3.27163e-05
3.26388e-05
3.26427e-05
3.27158e-05
3.27163e-05
3.27163e-05
3.2643e-05
3.26426e-05
3.26433e-05
3.27165e-05
3.27165e-05
3.27164e-05
3.27164e-05
3.26425e-05
3.26433e-05
3.27165e-05
3.27164e-05
3.27165e-05
3.27164e-05
3.27165e-05
3.27165e-05
3.27164e-05
3.26425e-05
3.26433e-05
3.27165e-05
3.27165e-05
3.27165e-05
3.26432e-05
3.26428e-05
3.26433e-05
3.27166e-05
3.27166e-05
3.27164e-05
3.27164e-05
3.26428e-05
3.26433e-05
3.27166e-05
3.27165e-05
3.27165e-05
3.27164e-05
3.27166e-05
3.27165e-05
3.27165e-05
3.26428e-05
3.26433e-05
3.27166e-05
3.27165e-05
3.27165e-05
3.26432e-05
3.26428e-05
3.26433e-05
3.27166e-05
3.27166e-05
3.27164e-05
3.27164e-05
3.26428e-05
3.26433e-05
3.27166e-05
3.27165e-05
3.27165e-05
3.27164e-05
3.27166e-05
3.27165e-05
3.27164e-05
3.26428e-05
3.26433e-05
3.27166e-05
3.27165e-05
3.27165e-05
3.26432e-05
3.26428e-05
3.26433e-05
3.27166e-05
3.27166e-05
3.27164e-05
3.27164e-05
3.26428e-05
3.26433e-05
3.27166e-05
3.27165e-05
3.27165e-05
3.27164e-05
3.27166e-05
3.27165e-05
3.27164e-05
3.26428e-05
3.26433e-05
3.27166e-05
3.27165e-05
3.27165e-05
3.26432e-05
3.26428e-05
3.26433e-05
3.27166e-05
3.27166e-05
3.27164e-05
3.27164e-05
3.26428e-05
3.26433e-05
3.27166e-05
3.27165e-05
3.27165e-05
3.27164e-05
3.27166e-05
3.27165e-05
3.27164e-05
3.26428e-05
3.26433e-05
3.27166e-05
3.27165e-05
3.27165e-05
3.26432e-05
3.26428e-05
3.26433e-05
3.27166e-05
3.27166e-05
3.27164e-05
3.27164e-05
3.26428e-05
3.26433e-05
3.27166e-05
3.27165e-05
3.27165e-05
3.27164e-05
3.27166e-05
3.27165e-05
3.27164e-05
3.26428e-05
3.26433e-05
3.27166e-05
3.27165e-05
3.27165e-05
3.26432e-05
3.26428e-05
3.26433e-05
3.27166e-05
3.27166e-05
3.27164e-05
3.27164e-05
3.26428e-05
3.26433e-05
3.27166e-05
3.27165e-05
3.27165e-05
3.27164e-05
3.27166e-05
3.27165e-05
3.27164e-05
3.26428e-05
3.26433e-05
3.27166e-05
3.27165e-05
3.27165e-05
3.26432e-05
3.26428e-05
3.26437e-05
3.27166e-05
3.27166e-05
3.27167e-05
3.26428e-05
3.27166e-05
3.27165e-05
3.27167e-05
3.27166e-05
3.27166e-05
3.27167e-05
3.26428e-05
3.26436e-05
3.27166e-05
3.27167e-05
3.27167e-05
3.26437e-05
3.73778e-05
3.73769e-05
3.73776e-05
3.73776e-05
3.73692e-05
3.73759e-05
3.73043e-05
3.73775e-05
3.73692e-05
3.73759e-05
3.73775e-05
3.73043e-05
3.73717e-05
3.72959e-05
3.72959e-05
3.58809e-05
4.08818e-05
3.66064e-05
4.5152e-05
5.51138e-05
6.4888e-05
3.58809e-05
4.08808e-05
3.66065e-05
4.51521e-05
3.58899e-05
3.58899e-05
3.58899e-05
3.43555e-05
3.43554e-05
3.43555e-05
3.43555e-05
3.52696e-05
3.56194e-05
3.58896e-05
3.53944e-05
3.6051e-05
3.42702e-05
3.54092e-05
5.51159e-05
6.48903e-05
3.52696e-05
3.58896e-05
3.56197e-05
3.53944e-05
3.6051e-05
3.54092e-05
3.42702e-05
3.6573e-05
3.65735e-05
3.52713e-05
3.41543e-05
3.41536e-05
3.39473e-05
5.14137e-05
3.46819e-05
5.45473e-05
7.66308e-05
8.07481e-05
3.39483e-05
5.14145e-05
3.46826e-05
5.45479e-05
3.38229e-05
3.38229e-05
3.38229e-05
3.29195e-05
3.29195e-05
3.29195e-05
3.29195e-05
3.29972e-05
3.24683e-05
3.38292e-05
3.33222e-05
3.38973e-05
3.14992e-05
3.33883e-05
7.66346e-05
8.07497e-05
3.29969e-05
3.38292e-05
3.24683e-05
3.33222e-05
3.38971e-05
3.33883e-05
3.14996e-05
3.18297e-05
3.1829e-05
3.31873e-05
3.08002e-05
3.07989e-05
3.32114e-05
5.80299e-05
3.31561e-05
5.87047e-05
8.21712e-05
8.22323e-05
3.32115e-05
5.80316e-05
3.31558e-05
5.87066e-05
3.28294e-05
3.28294e-05
3.28294e-05
3.27649e-05
3.27648e-05
3.27648e-05
3.27648e-05
3.23193e-05
3.21057e-05
3.28133e-05
3.27228e-05
3.23117e-05
3.28162e-05
3.27735e-05
8.21752e-05
8.2234e-05
3.23193e-05
3.28133e-05
3.21056e-05
3.27227e-05
3.23116e-05
3.27735e-05
3.28167e-05
3.23122e-05
3.23113e-05
3.26186e-05
3.37199e-05
3.37196e-05
3.33087e-05
5.884e-05
3.3304e-05
5.88363e-05
8.22534e-05
8.22506e-05
3.33088e-05
5.88428e-05
3.33035e-05
5.88394e-05
3.27628e-05
3.27628e-05
3.27628e-05
3.2762e-05
3.2762e-05
3.2762e-05
3.2762e-05
3.23638e-05
3.30919e-05
3.27501e-05
3.27161e-05
3.23602e-05
3.31015e-05
3.27499e-05
8.2254e-05
8.22509e-05
3.23638e-05
3.27501e-05
3.30915e-05
3.27161e-05
3.23602e-05
3.27499e-05
3.31015e-05
3.41845e-05
3.41846e-05
3.26421e-05
3.42001e-05
3.42002e-05
3.33116e-05
5.88369e-05
3.3312e-05
5.88349e-05
8.22518e-05
8.225e-05
3.33119e-05
5.88398e-05
3.3312e-05
5.88373e-05
3.27622e-05
3.27622e-05
3.27622e-05
3.2762e-05
3.2762e-05
3.2762e-05
3.2762e-05
3.2366e-05
3.31054e-05
3.27497e-05
3.27165e-05
3.23654e-05
3.31046e-05
3.27499e-05
8.22518e-05
8.22495e-05
3.23661e-05
3.27497e-05
3.31053e-05
3.27165e-05
3.23654e-05
3.27499e-05
3.31047e-05
3.42038e-05
3.42039e-05
3.26433e-05
3.42037e-05
3.42038e-05
3.33117e-05
5.88368e-05
3.33123e-05
5.88349e-05
8.2252e-05
8.22497e-05
3.33122e-05
5.8839e-05
3.33127e-05
5.88371e-05
3.27622e-05
3.27622e-05
3.27622e-05
3.2762e-05
3.27621e-05
3.2762e-05
3.2762e-05
3.23661e-05
3.31058e-05
3.27497e-05
3.27166e-05
3.23659e-05
3.31046e-05
3.27499e-05
8.22515e-05
8.22494e-05
3.23661e-05
3.27497e-05
3.31058e-05
3.27166e-05
3.23659e-05
3.27499e-05
3.31048e-05
3.42043e-05
3.42044e-05
3.26432e-05
3.42038e-05
3.42039e-05
3.33117e-05
5.88368e-05
3.33124e-05
5.88348e-05
8.22526e-05
8.22506e-05
3.33122e-05
5.8839e-05
3.33127e-05
5.88371e-05
3.27622e-05
3.27622e-05
3.27622e-05
3.2762e-05
3.27621e-05
3.2762e-05
3.2762e-05
3.23661e-05
3.31058e-05
3.27497e-05
3.27166e-05
3.23659e-05
3.31047e-05
3.27499e-05
8.22515e-05
8.22494e-05
3.23661e-05
3.27497e-05
3.31058e-05
3.27166e-05
3.23659e-05
3.27499e-05
3.31048e-05
3.42043e-05
3.42044e-05
3.26433e-05
3.42038e-05
3.42039e-05
3.33117e-05
5.88368e-05
3.33124e-05
5.88348e-05
8.22523e-05
8.22502e-05
3.33122e-05
5.8839e-05
3.33127e-05
5.88371e-05
3.27622e-05
3.27622e-05
3.27622e-05
3.2762e-05
3.27621e-05
3.2762e-05
3.2762e-05
3.23661e-05
3.31058e-05
3.27497e-05
3.27166e-05
3.23659e-05
3.31046e-05
3.27499e-05
8.22515e-05
8.22495e-05
3.23661e-05
3.27497e-05
3.31058e-05
3.27166e-05
3.23659e-05
3.27499e-05
3.31048e-05
3.42043e-05
3.42044e-05
3.26433e-05
3.42038e-05
3.42039e-05
3.33116e-05
5.88367e-05
3.33123e-05
5.88348e-05
8.22521e-05
8.22502e-05
3.33122e-05
5.8839e-05
3.33127e-05
5.88371e-05
3.27622e-05
3.27622e-05
3.27622e-05
3.2762e-05
3.27621e-05
3.2762e-05
3.2762e-05
3.23661e-05
3.31058e-05
3.27497e-05
3.27166e-05
3.23659e-05
3.31047e-05
3.27499e-05
8.22515e-05
8.22495e-05
3.23661e-05
3.27497e-05
3.31058e-05
3.27166e-05
3.23659e-05
3.27499e-05
3.31048e-05
3.42043e-05
3.42044e-05
3.26433e-05
3.42038e-05
3.42039e-05
3.33117e-05
5.88365e-05
3.33124e-05
5.88341e-05
8.22521e-05
8.22502e-05
3.33122e-05
5.88388e-05
3.33127e-05
5.88367e-05
3.27622e-05
3.27622e-05
3.27622e-05
3.2762e-05
3.27621e-05
3.2762e-05
3.2762e-05
3.23661e-05
3.31058e-05
3.27497e-05
3.27166e-05
3.23659e-05
3.31046e-05
3.27499e-05
8.22515e-05
8.22494e-05
3.23661e-05
3.27497e-05
3.31058e-05
3.27166e-05
3.23659e-05
3.27499e-05
3.31048e-05
3.42043e-05
3.42044e-05
3.26433e-05
3.42038e-05
3.42039e-05
3.33117e-05
5.88361e-05
3.33124e-05
5.88344e-05
8.22522e-05
8.22502e-05
3.33122e-05
5.88385e-05
3.33127e-05
5.88365e-05
3.27622e-05
3.27622e-05
3.27622e-05
3.2762e-05
3.27621e-05
3.2762e-05
3.2762e-05
3.23661e-05
3.31058e-05
3.27497e-05
3.27166e-05
3.23659e-05
3.31047e-05
3.27499e-05
8.22515e-05
8.22494e-05
3.23661e-05
3.27497e-05
3.31058e-05
3.27166e-05
3.23659e-05
3.27499e-05
3.31048e-05
3.42043e-05
3.42044e-05
3.26433e-05
3.42038e-05
3.42039e-05
3.33117e-05
5.88365e-05
3.33123e-05
5.88346e-05
8.22522e-05
8.22502e-05
3.33122e-05
5.88384e-05
3.33127e-05
5.88364e-05
3.27622e-05
3.27622e-05
3.27622e-05
3.27623e-05
3.27626e-05
3.27623e-05
3.27623e-05
3.23661e-05
3.31058e-05
3.27497e-05
3.27165e-05
3.23659e-05
3.31046e-05
3.27499e-05
8.22515e-05
8.22494e-05
3.23661e-05
3.27497e-05
3.31058e-05
3.27166e-05
3.23659e-05
3.27499e-05
3.31048e-05
3.42043e-05
3.42044e-05
3.26433e-05
3.42038e-05
3.42039e-05
3.73717e-05
3.72959e-05
3.72959e-05
5.31105e-05
3.71932e-05
5.31124e-05
3.71932e-05
3.70978e-05
3.72646e-05
3.72654e-05
3.71762e-05
3.71762e-05
3.73692e-05
3.73759e-05
3.73043e-05
3.73775e-05
3.73692e-05
3.73759e-05
3.73043e-05
3.73775e-05
3.71732e-05
3.94112e-05
3.7168e-05
3.67261e-05
3.71732e-05
3.94111e-05
3.7168e-05
3.67262e-05
3.70978e-05
3.71072e-05
3.60438e-05
3.64151e-05
3.71635e-05
3.71061e-05
3.63035e-05
3.70978e-05
3.71072e-05
3.60438e-05
3.64151e-05
3.71635e-05
3.71061e-05
3.63035e-05
3.73717e-05
3.72959e-05
3.72959e-05
5.31107e-05
3.71933e-05
3.70978e-05
3.72649e-05
3.72653e-05
3.71762e-05
3.71762e-05
5.31122e-05
3.71933e-05
3.73692e-05
3.73759e-05
3.73043e-05
3.73775e-05
3.73692e-05
3.73759e-05
3.73775e-05
3.73043e-05
3.71732e-05
3.94116e-05
3.7168e-05
3.67264e-05
3.70978e-05
3.71072e-05
3.60438e-05
3.64151e-05
3.71635e-05
3.71061e-05
3.63036e-05
3.71732e-05
3.94119e-05
3.7168e-05
3.67261e-05
3.70978e-05
3.71072e-05
3.64151e-05
3.6044e-05
3.71061e-05
3.71635e-05
3.63036e-05
3.73778e-05
3.73769e-05
3.73776e-05
3.73776e-05
3.73778e-05
3.73769e-05
3.73776e-05
3.73776e-05
3.73778e-05
3.73769e-05
3.73776e-05
3.73776e-05
3.71079e-05
3.71075e-05
3.64162e-05
3.64162e-05
3.71072e-05
3.71072e-05
3.64179e-05
3.7108e-05
3.71075e-05
3.64162e-05
3.64162e-05
3.71072e-05
3.71072e-05
3.64179e-05
3.7108e-05
3.71075e-05
3.64162e-05
3.64162e-05
3.71072e-05
3.71072e-05
3.64179e-05
3.7108e-05
3.71075e-05
3.64162e-05
3.64162e-05
3.71072e-05
3.71072e-05
3.64179e-05
3.73692e-05
3.73759e-05
3.73775e-05
3.73043e-05
3.70978e-05
3.71072e-05
3.60439e-05
3.64152e-05
3.71635e-05
3.71061e-05
3.63036e-05
3.71732e-05
3.94113e-05
3.7168e-05
3.67263e-05
3.70978e-05
3.71072e-05
3.64151e-05
3.60439e-05
3.71061e-05
3.71635e-05
3.63036e-05
3.71732e-05
3.94118e-05
3.7168e-05
3.67261e-05
3.73717e-05
3.72959e-05
3.72959e-05
5.31129e-05
3.71933e-05
3.70978e-05
3.72649e-05
3.72654e-05
3.71762e-05
3.71762e-05
5.3113e-05
3.71933e-05
3.73692e-05
3.73759e-05
3.73775e-05
3.73043e-05
3.70978e-05
3.71072e-05
3.64152e-05
3.60439e-05
3.71061e-05
3.71635e-05
3.63036e-05
3.70978e-05
3.71072e-05
3.64151e-05
3.60438e-05
3.71061e-05
3.71635e-05
3.63036e-05
3.71732e-05
3.94118e-05
3.7168e-05
3.67261e-05
3.71732e-05
3.94118e-05
3.7168e-05
3.67264e-05
3.70978e-05
3.72651e-05
3.72655e-05
3.71762e-05
3.71762e-05
5.31128e-05
3.71933e-05
5.31127e-05
3.71932e-05
5.51138e-05
6.48873e-05
5.51155e-05
6.48906e-05
3.65732e-05
3.65739e-05
3.52712e-05
3.41541e-05
3.41534e-05
7.4657e-05
6.77255e-05
7.46611e-05
6.77291e-05
3.49828e-05
3.21907e-05
3.21894e-05
3.34404e-05
3.34405e-05
3.58808e-05
4.08807e-05
3.66067e-05
4.51506e-05
3.52695e-05
3.56198e-05
3.58896e-05
3.53944e-05
3.6051e-05
3.42703e-05
3.54091e-05
3.52695e-05
3.56198e-05
3.58896e-05
3.53943e-05
3.60511e-05
3.42705e-05
3.54091e-05
3.56249e-05
5.021e-05
4.64612e-05
3.49108e-05
3.56254e-05
5.02093e-05
4.64605e-05
3.49111e-05
3.49964e-05
3.48989e-05
3.28288e-05
3.43626e-05
3.38255e-05
3.4908e-05
3.4193e-05
3.49965e-05
3.48989e-05
3.28286e-05
3.43626e-05
3.38251e-05
3.4908e-05
3.41931e-05
3.65738e-05
3.6573e-05
3.52712e-05
3.4154e-05
3.41531e-05
5.51149e-05
6.48891e-05
7.46589e-05
6.77274e-05
3.49828e-05
3.21898e-05
3.21902e-05
3.34403e-05
3.34406e-05
7.46584e-05
6.77281e-05
3.52695e-05
3.56198e-05
3.58897e-05
3.53944e-05
3.60511e-05
3.42702e-05
3.54092e-05
3.58807e-05
4.08821e-05
3.66061e-05
4.5153e-05
3.52695e-05
3.58897e-05
3.56197e-05
3.53943e-05
3.6051e-05
3.54091e-05
3.42704e-05
3.56254e-05
5.02104e-05
4.64604e-05
3.49109e-05
3.49965e-05
3.48989e-05
3.2828e-05
3.43626e-05
3.38249e-05
3.4908e-05
3.41931e-05
3.56251e-05
5.02114e-05
4.64629e-05
3.49107e-05
3.49964e-05
3.48989e-05
3.43627e-05
3.28286e-05
3.4908e-05
3.38249e-05
3.4193e-05
3.58811e-05
4.08798e-05
3.66065e-05
4.51522e-05
3.52695e-05
3.58896e-05
3.56198e-05
3.53944e-05
3.6051e-05
3.54092e-05
3.42706e-05
3.5881e-05
4.08822e-05
3.66061e-05
4.51525e-05
3.49965e-05
3.48989e-05
3.28281e-05
3.43626e-05
3.38248e-05
3.4908e-05
3.41931e-05
3.56252e-05
5.02093e-05
4.64589e-05
3.49111e-05
3.49964e-05
3.48989e-05
3.43626e-05
3.28287e-05
3.4908e-05
3.38248e-05
3.4193e-05
3.56248e-05
5.02106e-05
4.64627e-05
3.49109e-05
3.65733e-05
3.65734e-05
3.52712e-05
3.41535e-05
3.41533e-05
5.51159e-05
6.489e-05
7.46609e-05
6.77302e-05
3.49828e-05
3.21898e-05
3.21911e-05
3.34398e-05
3.34405e-05
7.46603e-05
6.77283e-05
3.52696e-05
3.58897e-05
3.56198e-05
3.53944e-05
3.6051e-05
3.54092e-05
3.42702e-05
3.58813e-05
4.08815e-05
3.66061e-05
4.5153e-05
3.58816e-05
4.08808e-05
3.66064e-05
4.5152e-05
3.49964e-05
3.48989e-05
3.43627e-05
3.28286e-05
3.4908e-05
3.38251e-05
3.4193e-05
3.49965e-05
3.48989e-05
3.43626e-05
3.28283e-05
3.4908e-05
3.38248e-05
3.41931e-05
3.56246e-05
5.02116e-05
4.64624e-05
3.49108e-05
3.56248e-05
5.02111e-05
4.64604e-05
3.49112e-05
5.51155e-05
6.48898e-05
5.51155e-05
6.48906e-05
3.49828e-05
3.21903e-05
3.21892e-05
3.34398e-05
3.34398e-05
7.46592e-05
6.77277e-05
7.46608e-05
6.77291e-05
7.66291e-05
8.07458e-05
7.66331e-05
8.07514e-05
3.18296e-05
3.18291e-05
3.31873e-05
3.08001e-05
3.07981e-05
8.20982e-05
8.13928e-05
8.21036e-05
8.13949e-05
3.29726e-05
3.15987e-05
3.1597e-05
3.08012e-05
3.07997e-05
3.39477e-05
5.1413e-05
3.46823e-05
5.45478e-05
3.29969e-05
3.24685e-05
3.38292e-05
3.33221e-05
3.38971e-05
3.14997e-05
3.33882e-05
3.29971e-05
3.24682e-05
3.38292e-05
3.3322e-05
3.38972e-05
3.14995e-05
3.33882e-05
3.36594e-05
5.75618e-05
5.54373e-05
3.31695e-05
3.36597e-05
5.75625e-05
5.54359e-05
3.31695e-05
3.27445e-05
3.30014e-05
3.17518e-05
3.29036e-05
3.14576e-05
3.30826e-05
3.23419e-05
3.27446e-05
3.30013e-05
3.17516e-05
3.29036e-05
3.14575e-05
3.30826e-05
3.23419e-05
3.18293e-05
3.1829e-05
3.31874e-05
3.07992e-05
3.07988e-05
7.66321e-05
8.07472e-05
8.21014e-05
8.13937e-05
3.29726e-05
3.15977e-05
3.15967e-05
3.08004e-05
3.08005e-05
8.20992e-05
8.13949e-05
3.29971e-05
3.24683e-05
3.38292e-05
3.33221e-05
3.38972e-05
3.14991e-05
3.33882e-05
3.39479e-05
5.14159e-05
3.46824e-05
5.45505e-05
3.29969e-05
3.38292e-05
3.24681e-05
3.3322e-05
3.38971e-05
3.33882e-05
3.14993e-05
3.36591e-05
5.75626e-05
5.5438e-05
3.31696e-05
3.27446e-05
3.30014e-05
3.17512e-05
3.29036e-05
3.14571e-05
3.30826e-05
3.23418e-05
3.36588e-05
5.75646e-05
5.54392e-05
3.31696e-05
3.27444e-05
3.30013e-05
3.29036e-05
3.17512e-05
3.30826e-05
3.14575e-05
3.23418e-05
3.39481e-05
5.14129e-05
3.46822e-05
5.4547e-05
3.2997e-05
3.38292e-05
3.24685e-05
3.3322e-05
3.38972e-05
3.33882e-05
3.14999e-05
3.39473e-05
5.14149e-05
3.46823e-05
5.45492e-05
3.27446e-05
3.30013e-05
3.17511e-05
3.29036e-05
3.14574e-05
3.30826e-05
3.23418e-05
3.36591e-05
5.75619e-05
5.54358e-05
3.31695e-05
3.27445e-05
3.30013e-05
3.29036e-05
3.17518e-05
3.30826e-05
3.14578e-05
3.23419e-05
3.36589e-05
5.75636e-05
5.54377e-05
3.31695e-05
3.18291e-05
3.18289e-05
3.31873e-05
3.0799e-05
3.07996e-05
7.66316e-05
8.07494e-05
8.21021e-05
8.13983e-05
3.29726e-05
3.1597e-05
3.15986e-05
3.08007e-05
3.08011e-05
8.21018e-05
8.13936e-05
3.29971e-05
3.38292e-05
3.24679e-05
3.33221e-05
3.38972e-05
3.33882e-05
3.14994e-05
3.39478e-05
5.14151e-05
3.46824e-05
5.45501e-05
3.39478e-05
5.14137e-05
3.46826e-05
5.45491e-05
3.27444e-05
3.30013e-05
3.29036e-05
3.17517e-05
3.30826e-05
3.14576e-05
3.23417e-05
3.27446e-05
3.30014e-05
3.29036e-05
3.17514e-05
3.30826e-05
3.14574e-05
3.23418e-05
3.36587e-05
5.75639e-05
5.54379e-05
3.31696e-05
3.36592e-05
5.75639e-05
5.54372e-05
3.31696e-05
7.66314e-05
8.07493e-05
7.66332e-05
8.0751e-05
3.29726e-05
3.15984e-05
3.15972e-05
3.08015e-05
3.08002e-05
8.2102e-05
8.13937e-05
8.21034e-05
8.13953e-05
8.21705e-05
8.22306e-05
8.21719e-05
8.2234e-05
3.23145e-05
3.23119e-05
3.26186e-05
3.37195e-05
3.37193e-05
8.22496e-05
8.2246e-05
8.22546e-05
8.22485e-05
3.2624e-05
3.41615e-05
3.41621e-05
3.39328e-05
3.39318e-05
3.32112e-05
5.80298e-05
3.31561e-05
5.87057e-05
3.23193e-05
3.21069e-05
3.28133e-05
3.27227e-05
3.23119e-05
3.28165e-05
3.27735e-05
3.23192e-05
3.21059e-05
3.28133e-05
3.27227e-05
3.23118e-05
3.28166e-05
3.27734e-05
3.32505e-05
5.88362e-05
5.87804e-05
3.32951e-05
3.32504e-05
5.88384e-05
5.87813e-05
3.3295e-05
3.23343e-05
3.27163e-05
3.3074e-05
3.27519e-05
3.29424e-05
3.27576e-05
3.23572e-05
3.23343e-05
3.27162e-05
3.30742e-05
3.27518e-05
3.29419e-05
3.27575e-05
3.23571e-05
3.23124e-05
3.2313e-05
3.26186e-05
3.37195e-05
3.37184e-05
8.21712e-05
8.22308e-05
8.22519e-05
8.22465e-05
3.2624e-05
3.4162e-05
3.4161e-05
3.3932e-05
3.39322e-05
8.22493e-05
8.22458e-05
3.23192e-05
3.21059e-05
3.28133e-05
3.27227e-05
3.23118e-05
3.28163e-05
3.27735e-05
3.32114e-05
5.80325e-05
3.31559e-05
5.87069e-05
3.23192e-05
3.28133e-05
3.21065e-05
3.27227e-05
3.23117e-05
3.27734e-05
3.28163e-05
3.32496e-05
5.88391e-05
5.8783e-05
3.32951e-05
3.23342e-05
3.27163e-05
3.30743e-05
3.27519e-05
3.29422e-05
3.27576e-05
3.23571e-05
3.32496e-05
5.88393e-05
5.87828e-05
3.3295e-05
3.23342e-05
3.27162e-05
3.27518e-05
3.3074e-05
3.27575e-05
3.29424e-05
3.2357e-05
3.32112e-05
5.80301e-05
3.31561e-05
5.8705e-05
3.23193e-05
3.28133e-05
3.2106e-05
3.27227e-05
3.23119e-05
3.27735e-05
3.28165e-05
3.32112e-05
5.80307e-05
3.31561e-05
5.87063e-05
3.23342e-05
3.27163e-05
3.30741e-05
3.27519e-05
3.29422e-05
3.27576e-05
3.23571e-05
3.32504e-05
5.88375e-05
5.87809e-05
3.32951e-05
3.23343e-05
3.27162e-05
3.27519e-05
3.30739e-05
3.27576e-05
3.29416e-05
3.23571e-05
3.32504e-05
5.88389e-05
5.87819e-05
3.32949e-05
3.23132e-05
3.23133e-05
3.26185e-05
3.37191e-05
3.37199e-05
8.21707e-05
8.22331e-05
8.22519e-05
8.22484e-05
3.26239e-05
3.4161e-05
3.41625e-05
3.39323e-05
3.39324e-05
8.22534e-05
8.22478e-05
3.23193e-05
3.28133e-05
3.21057e-05
3.27227e-05
3.23118e-05
3.27735e-05
3.28165e-05
3.32115e-05
5.80309e-05
3.31558e-05
5.87065e-05
3.32114e-05
5.80311e-05
3.31558e-05
5.87072e-05
3.23341e-05
3.27163e-05
3.27519e-05
3.30741e-05
3.27576e-05
3.29417e-05
3.23571e-05
3.23342e-05
3.27163e-05
3.27519e-05
3.30741e-05
3.27576e-05
3.29417e-05
3.23571e-05
3.32496e-05
5.88392e-05
5.87821e-05
3.3295e-05
3.32496e-05
5.88399e-05
5.87828e-05
3.3295e-05
8.21709e-05
8.22334e-05
8.21722e-05
8.22345e-05
3.26239e-05
3.41623e-05
3.41624e-05
3.3932e-05
3.39319e-05
8.22535e-05
8.2248e-05
8.22547e-05
8.22492e-05
8.22505e-05
8.22482e-05
8.22548e-05
8.22537e-05
3.41845e-05
3.41845e-05
3.26419e-05
3.41991e-05
3.42001e-05
8.2248e-05
8.22482e-05
8.22525e-05
8.22537e-05
3.26418e-05
3.42017e-05
3.42031e-05
3.42014e-05
3.42026e-05
3.33087e-05
5.88412e-05
3.33041e-05
5.88394e-05
3.23639e-05
3.3092e-05
3.27502e-05
3.27161e-05
3.23606e-05
3.31015e-05
3.27498e-05
3.23638e-05
3.30919e-05
3.27502e-05
3.27161e-05
3.23605e-05
3.31019e-05
3.27498e-05
3.33108e-05
5.88353e-05
5.88364e-05
3.3311e-05
3.33108e-05
5.88377e-05
5.88394e-05
3.3311e-05
3.23645e-05
3.27162e-05
3.31037e-05
3.27497e-05
3.31041e-05
3.27497e-05
3.23653e-05
3.23644e-05
3.27161e-05
3.31044e-05
3.27497e-05
3.31045e-05
3.27497e-05
3.23653e-05
3.41844e-05
3.41843e-05
3.26419e-05
3.41999e-05
3.41982e-05
8.22502e-05
8.22485e-05
8.22505e-05
8.22507e-05
3.26417e-05
3.42029e-05
3.4201e-05
3.42024e-05
3.4201e-05
8.2247e-05
8.22489e-05
3.23638e-05
3.30919e-05
3.27502e-05
3.27161e-05
3.23605e-05
3.31017e-05
3.27498e-05
3.33086e-05
5.88424e-05
3.33035e-05
5.88402e-05
3.23638e-05
3.27502e-05
3.30921e-05
3.2716e-05
3.23604e-05
3.27498e-05
3.31016e-05
3.33106e-05
5.88383e-05
5.88395e-05
3.33112e-05
3.23644e-05
3.27162e-05
3.31042e-05
3.27497e-05
3.31043e-05
3.27497e-05
3.23653e-05
3.33103e-05
5.88384e-05
5.88403e-05
3.33109e-05
3.23644e-05
3.27161e-05
3.27497e-05
3.31041e-05
3.27497e-05
3.31044e-05
3.23652e-05
3.33087e-05
5.88406e-05
3.33041e-05
5.88384e-05
3.23638e-05
3.27502e-05
3.30915e-05
3.27161e-05
3.23605e-05
3.27498e-05
3.31015e-05
3.33085e-05
5.88416e-05
3.33039e-05
5.88398e-05
3.23645e-05
3.27162e-05
3.31041e-05
3.27498e-05
3.31043e-05
3.27498e-05
3.23653e-05
3.33108e-05
5.88366e-05
5.88385e-05
3.3311e-05
3.23644e-05
3.27162e-05
3.27497e-05
3.3104e-05
3.27497e-05
3.31041e-05
3.23652e-05
3.33107e-05
5.88382e-05
5.88398e-05
3.33109e-05
3.41842e-05
3.41847e-05
3.26418e-05
3.41987e-05
3.41999e-05
8.22537e-05
8.22528e-05
8.225e-05
8.22513e-05
3.26417e-05
3.42015e-05
3.42029e-05
3.42014e-05
3.42024e-05
8.22518e-05
8.22528e-05
3.23638e-05
3.27502e-05
3.30918e-05
3.27161e-05
3.23605e-05
3.27498e-05
3.31017e-05
3.33085e-05
5.88419e-05
3.33035e-05
5.88402e-05
3.33085e-05
5.88427e-05
3.33035e-05
5.88408e-05
3.23644e-05
3.27162e-05
3.27497e-05
3.3104e-05
3.27498e-05
3.31041e-05
3.23653e-05
3.23644e-05
3.27162e-05
3.27497e-05
3.31043e-05
3.27497e-05
3.31044e-05
3.23653e-05
3.33103e-05
5.88385e-05
5.88402e-05
3.33109e-05
3.33103e-05
5.88392e-05
5.88408e-05
3.33109e-05
8.22538e-05
8.22529e-05
8.22549e-05
8.2254e-05
3.2642e-05
3.42031e-05
3.42032e-05
3.42026e-05
3.42026e-05
8.22519e-05
8.2253e-05
8.22529e-05
8.2254e-05
8.2248e-05
8.2248e-05
8.22525e-05
8.22521e-05
3.42026e-05
3.42041e-05
3.26433e-05
3.42023e-05
3.42037e-05
8.22486e-05
8.22481e-05
8.2252e-05
8.22521e-05
3.26429e-05
3.4203e-05
3.42038e-05
3.42032e-05
3.42045e-05
3.33115e-05
5.88378e-05
3.33123e-05
5.8837e-05
3.23661e-05
3.31054e-05
3.27499e-05
3.27165e-05
3.23659e-05
3.31043e-05
3.27499e-05
3.2366e-05
3.31062e-05
3.27499e-05
3.27165e-05
3.23658e-05
3.31051e-05
3.27499e-05
3.33127e-05
5.88353e-05
5.88352e-05
3.33116e-05
3.33127e-05
5.88368e-05
5.88371e-05
3.33116e-05
3.23665e-05
3.27165e-05
3.31045e-05
3.27497e-05
3.31058e-05
3.27498e-05
3.23662e-05
3.23664e-05
3.27165e-05
3.31051e-05
3.27497e-05
3.31066e-05
3.27498e-05
3.23662e-05
3.42039e-05
3.4202e-05
3.26432e-05
3.42034e-05
3.42008e-05
8.22475e-05
8.22466e-05
8.22505e-05
8.225e-05
3.26429e-05
3.42034e-05
3.42011e-05
3.42042e-05
3.42018e-05
8.22465e-05
8.22472e-05
3.23661e-05
3.31059e-05
3.27499e-05
3.27165e-05
3.23659e-05
3.3105e-05
3.27499e-05
3.33116e-05
5.88384e-05
3.33121e-05
5.88374e-05
3.2366e-05
3.27499e-05
3.31059e-05
3.27165e-05
3.23658e-05
3.27499e-05
3.31046e-05
3.3313e-05
5.88373e-05
5.88376e-05
3.33121e-05
3.23666e-05
3.27165e-05
3.31051e-05
3.27498e-05
3.31065e-05
3.27498e-05
3.23664e-05
3.33126e-05
5.88372e-05
5.88376e-05
3.33117e-05
3.23664e-05
3.27165e-05
3.27497e-05
3.31047e-05
3.27497e-05
3.31063e-05
3.23662e-05
3.33115e-05
5.88366e-05
3.33123e-05
5.88356e-05
3.2366e-05
3.27499e-05
3.31058e-05
3.27165e-05
3.23658e-05
3.27499e-05
3.31047e-05
3.33114e-05
5.88381e-05
3.33122e-05
5.88373e-05
3.23665e-05
3.27165e-05
3.31046e-05
3.27497e-05
3.31062e-05
3.27498e-05
3.23659e-05
3.33127e-05
5.88354e-05
5.88358e-05
3.33116e-05
3.23664e-05
3.27165e-05
3.27497e-05
3.31047e-05
3.27498e-05
3.31062e-05
3.23662e-05
3.33126e-05
5.88371e-05
5.88374e-05
3.33115e-05
3.42026e-05
3.42039e-05
3.26432e-05
3.42017e-05
3.42035e-05
8.22518e-05
8.22512e-05
8.22495e-05
8.225e-05
3.26428e-05
3.42018e-05
3.42036e-05
3.42027e-05
3.42043e-05
8.2251e-05
8.22512e-05
3.23661e-05
3.27499e-05
3.3106e-05
3.27166e-05
3.23659e-05
3.27499e-05
3.31049e-05
3.33117e-05
5.88386e-05
3.33122e-05
5.88377e-05
3.33117e-05
5.88392e-05
3.33122e-05
5.88384e-05
3.23665e-05
3.27165e-05
3.27497e-05
3.31048e-05
3.27498e-05
3.31062e-05
3.2366e-05
3.23665e-05
3.27166e-05
3.27497e-05
3.3105e-05
3.27498e-05
3.31065e-05
3.23663e-05
3.33127e-05
5.88375e-05
5.88377e-05
3.33118e-05
3.33128e-05
5.88381e-05
5.88384e-05
3.33118e-05
8.22519e-05
8.22514e-05
8.22529e-05
8.22524e-05
3.26428e-05
3.42038e-05
3.42039e-05
3.42045e-05
3.42046e-05
8.22512e-05
8.22514e-05
8.22522e-05
8.22524e-05
8.22486e-05
8.22487e-05
8.2252e-05
8.2252e-05
3.4204e-05
3.42046e-05
3.26433e-05
3.42035e-05
3.42038e-05
8.22488e-05
8.22487e-05
8.2252e-05
8.2252e-05
3.2643e-05
3.42037e-05
3.42038e-05
3.42044e-05
3.42046e-05
3.33117e-05
5.88369e-05
3.33127e-05
5.88369e-05
3.23662e-05
3.3106e-05
3.27499e-05
3.27166e-05
3.23665e-05
3.31046e-05
3.27499e-05
3.23662e-05
3.31067e-05
3.27499e-05
3.27166e-05
3.23665e-05
3.31052e-05
3.27499e-05
3.33128e-05
5.88353e-05
5.8835e-05
3.33116e-05
3.33128e-05
5.88369e-05
5.88369e-05
3.33117e-05
3.23665e-05
3.27165e-05
3.31047e-05
3.27498e-05
3.31062e-05
3.27498e-05
3.23662e-05
3.23665e-05
3.27165e-05
3.31052e-05
3.27497e-05
3.31067e-05
3.27498e-05
3.23662e-05
3.42042e-05
3.42021e-05
3.26433e-05
3.42035e-05
3.4201e-05
8.22471e-05
8.22466e-05
8.2251e-05
8.22497e-05
3.26429e-05
3.42034e-05
3.42009e-05
3.42042e-05
3.42019e-05
8.22466e-05
8.22472e-05
3.23664e-05
3.31066e-05
3.27499e-05
3.27166e-05
3.23667e-05
3.31052e-05
3.27499e-05
3.33118e-05
5.88374e-05
3.33127e-05
5.88371e-05
3.23662e-05
3.27499e-05
3.31063e-05
3.27165e-05
3.23665e-05
3.27498e-05
3.31047e-05
3.33131e-05
5.88372e-05
5.88374e-05
3.33122e-05
3.23667e-05
3.27165e-05
3.31052e-05
3.27498e-05
3.31067e-05
3.27498e-05
3.23664e-05
3.33127e-05
5.88371e-05
5.88374e-05
3.33117e-05
3.23665e-05
3.27165e-05
3.27497e-05
3.31047e-05
3.27498e-05
3.31063e-05
3.23662e-05
3.33116e-05
5.88356e-05
3.33127e-05
5.88354e-05
3.23662e-05
3.27499e-05
3.31062e-05
3.27166e-05
3.23665e-05
3.27499e-05
3.31048e-05
3.33116e-05
5.88371e-05
3.33126e-05
5.8837e-05
3.23664e-05
3.27166e-05
3.31047e-05
3.27497e-05
3.31063e-05
3.27498e-05
3.23659e-05
3.33127e-05
5.88354e-05
5.88356e-05
3.33116e-05
3.23665e-05
3.27165e-05
3.27498e-05
3.31047e-05
3.27498e-05
3.31063e-05
3.23662e-05
3.33127e-05
5.8837e-05
5.88371e-05
3.33115e-05
3.42028e-05
3.42044e-05
3.26433e-05
3.42018e-05
3.42036e-05
8.2251e-05
8.22508e-05
8.22495e-05
8.225e-05
3.26429e-05
3.42018e-05
3.42037e-05
3.42027e-05
3.42044e-05
8.22509e-05
8.22509e-05
3.23663e-05
3.27499e-05
3.31065e-05
3.27166e-05
3.23666e-05
3.27499e-05
3.3105e-05
3.33118e-05
5.88375e-05
3.33128e-05
5.88374e-05
3.33119e-05
5.88381e-05
3.33128e-05
5.88381e-05
3.23665e-05
3.27166e-05
3.27497e-05
3.31048e-05
3.27498e-05
3.31063e-05
3.2366e-05
3.23666e-05
3.27165e-05
3.27498e-05
3.3105e-05
3.27498e-05
3.31065e-05
3.23663e-05
3.33128e-05
5.88374e-05
5.88375e-05
3.33118e-05
3.33128e-05
5.8838e-05
5.88381e-05
3.33118e-05
8.22512e-05
8.22511e-05
8.22523e-05
8.22521e-05
3.26428e-05
3.42038e-05
3.42039e-05
3.42046e-05
3.42047e-05
8.22511e-05
8.22511e-05
8.22522e-05
8.22522e-05
8.22488e-05
8.22488e-05
8.2252e-05
8.22519e-05
3.42045e-05
3.42046e-05
3.26434e-05
3.42037e-05
3.42038e-05
8.22492e-05
8.22489e-05
8.2252e-05
8.2252e-05
3.2643e-05
3.42035e-05
3.42038e-05
3.42044e-05
3.42046e-05
3.33117e-05
5.88369e-05
3.33128e-05
5.88368e-05
3.23662e-05
3.31062e-05
3.27499e-05
3.27166e-05
3.23665e-05
3.31047e-05
3.27499e-05
3.23662e-05
3.31067e-05
3.27499e-05
3.27166e-05
3.23665e-05
3.31052e-05
3.27499e-05
3.33128e-05
5.88352e-05
5.88349e-05
3.33116e-05
3.33128e-05
5.88368e-05
5.88369e-05
3.33117e-05
3.23665e-05
3.27165e-05
3.31047e-05
3.27498e-05
3.31062e-05
3.27498e-05
3.23662e-05
3.23665e-05
3.27165e-05
3.31052e-05
3.27497e-05
3.31067e-05
3.27498e-05
3.23662e-05
3.42042e-05
3.4202e-05
3.26433e-05
3.42035e-05
3.42011e-05
8.22472e-05
8.22466e-05
8.22509e-05
8.22506e-05
3.26429e-05
3.42035e-05
3.42009e-05
3.42043e-05
3.4202e-05
8.22466e-05
8.22472e-05
3.23664e-05
3.31066e-05
3.27499e-05
3.27166e-05
3.23667e-05
3.31052e-05
3.27499e-05
3.33117e-05
5.88374e-05
3.33127e-05
5.88371e-05
3.23662e-05
3.27499e-05
3.31063e-05
3.27165e-05
3.23665e-05
3.27498e-05
3.31047e-05
3.33131e-05
5.88373e-05
5.88374e-05
3.33122e-05
3.23667e-05
3.27165e-05
3.31051e-05
3.27498e-05
3.31066e-05
3.27498e-05
3.23664e-05
3.33127e-05
5.88371e-05
5.88374e-05
3.33117e-05
3.23665e-05
3.27165e-05
3.27497e-05
3.31047e-05
3.27498e-05
3.31063e-05
3.23662e-05
3.33116e-05
5.88356e-05
3.33127e-05
5.88354e-05
3.23662e-05
3.27499e-05
3.31062e-05
3.27166e-05
3.23665e-05
3.27499e-05
3.31048e-05
3.33116e-05
5.88371e-05
3.33127e-05
5.8837e-05
3.23664e-05
3.27166e-05
3.31046e-05
3.27497e-05
3.31063e-05
3.27498e-05
3.23659e-05
3.33128e-05
5.88353e-05
5.88356e-05
3.33116e-05
3.23665e-05
3.27165e-05
3.27498e-05
3.31047e-05
3.27498e-05
3.31062e-05
3.23662e-05
3.33127e-05
5.8837e-05
5.88371e-05
3.33115e-05
3.42028e-05
3.42044e-05
3.26433e-05
3.42018e-05
3.42036e-05
8.22509e-05
8.22508e-05
8.22495e-05