/*--------------------------------*- C++ -*----------------------------------*\
| =========                 |                                                 |
| \\      /  F ield         | OpenFOAM: The Open Source CFD Toolbox           |
|  \\    /   O peration     | Version:  2206                                  |
|   \\  /    A nd           | Website:  www.openfoam.com                      |
|    \\/     M anipulation  |                                                 |
\*---------------------------------------------------------------------------*/
FoamFile
{
    version     2.0;
    format      ascii;
    arch        "LSB;label=32;scalar=64";
    class       volScalarField;
    location    "10";
    object      p;
}
// * * * * * * * * * * * * * * * * * * * * * * * * * * * * * * * * * * * * * //

dimensions      [0 2 -2 0 0 0 0];

internalField   nonuniform List<scalar> 
28688
(
0.00433768
0.00433798
0.00433798
0.00434103
0.00428307
0.00428303
0.00428303
0.00428581
0.00423458
0.0042345
0.00423449
0.0042371
0.00418826
0.00418822
0.00418822
0.0041909
0.00414224
0.00414221
0.00414221
0.00414489
0.00409624
0.00409622
0.00409622
0.00409889
0.00405024
0.00405022
0.00405022
0.0040529
0.00400425
0.00400422
0.00400422
0.0040069
0.00395825
0.00395823
0.00395823
0.00396091
0.00391226
0.00391224
0.00391224
0.00391491
0.00386626
0.00386624
0.00386624
0.00386892
0.00382027
0.00382024
0.00382024
0.00382292
0.0043511
0.00435133
0.00435133
0.0043511
0.00435133
0.00435133
0.00435211
0.0043521
0.00435211
0.00435211
0.00435133
0.00435133
0.0043511
0.00435134
0.00435134
0.0043511
0.00434103
0.00429242
0.00433797
0.00433797
0.00429445
0.00429445
0.00434103
0.00429242
0.00433798
0.00433797
0.00429444
0.00429445
0.00433797
0.00429445
0.00429445
0.00434103
0.00429242
0.00433798
0.00429444
0.00429444
0.00429241
0.00428582
0.00424327
0.00428304
0.00428304
0.00424641
0.00424641
0.00428582
0.0042433
0.00428303
0.00428303
0.00424639
0.00424641
0.00428304
0.0042464
0.00424641
0.00428581
0.00424328
0.00428303
0.00424639
0.00424639
0.00424328
0.0042371
0.00419705
0.0042345
0.00423451
0.00419974
0.00419974
0.00423712
0.00419705
0.0042345
0.0042345
0.00419974
0.00419974
0.0042345
0.00419974
0.00419974
0.0042371
0.00419705
0.00423449
0.00419974
0.00419974
0.00419705
0.0041909
0.00415104
0.00418822
0.00418822
0.00415371
0.00415371
0.0041909
0.00415104
0.00418822
0.00418822
0.00415371
0.00415371
0.00418822
0.00415371
0.00415371
0.0041909
0.00415104
0.00418822
0.00415371
0.00415371
0.00415104
0.00414489
0.00410504
0.00414221
0.00414221
0.00410772
0.00410771
0.00414489
0.00410504
0.00414221
0.00414221
0.00410772
0.00410772
0.00414221
0.00410772
0.00410772
0.00414489
0.00410504
0.00414221
0.00410772
0.00410772
0.00410504
0.00409889
0.00405904
0.00409622
0.00409622
0.00406172
0.00406172
0.00409889
0.00405904
0.00409622
0.00409622
0.00406172
0.00406172
0.00409622
0.00406172
0.00406172
0.00409889
0.00405904
0.00409622
0.00406172
0.00406172
0.00405904
0.0040529
0.00401305
0.00405022
0.00405022
0.00401572
0.00401572
0.0040529
0.00401305
0.00405022
0.00405022
0.00401572
0.00401572
0.00405022
0.00401572
0.00401572
0.0040529
0.00401305
0.00405022
0.00401572
0.00401572
0.00401305
0.0040069
0.00396705
0.00400422
0.00400422
0.00396973
0.00396973
0.0040069
0.00396706
0.00400422
0.00400422
0.00396973
0.00396973
0.00400422
0.00396973
0.00396973
0.0040069
0.00396706
0.00400422
0.00396973
0.00396973
0.00396706
0.00396091
0.00392106
0.00395823
0.00395823
0.00392373
0.00392373
0.00396091
0.00392106
0.00395823
0.00395823
0.00392373
0.00392373
0.00395823
0.00392373
0.00392373
0.00396091
0.00392106
0.00395823
0.00392373
0.00392373
0.00392106
0.00391491
0.00387506
0.00391224
0.00391224
0.00387774
0.00387774
0.00391491
0.00387506
0.00391224
0.00391224
0.00387774
0.00387774
0.00391224
0.00387774
0.00387774
0.00391491
0.00387506
0.00391224
0.00387774
0.00387774
0.00387506
0.00386892
0.00382907
0.00386624
0.00386624
0.00383174
0.00383174
0.00386892
0.00382907
0.00386624
0.00386624
0.00383174
0.00383174
0.00386624
0.00383174
0.00383174
0.00386892
0.00382907
0.00386624
0.00383174
0.00383174
0.00382907
0.00382292
0.00378307
0.00382024
0.00382024
0.00378575
0.00382292
0.00382024
0.00382024
0.00378575
0.00378575
0.00382024
0.00378575
0.00382292
0.00378307
0.00382024
0.00378575
0.00378575
0.00378307
0.00435949
0.00436924
0.00436405
0.00436405
0.00438639
0.0043732
0.00440179
0.00436725
0.00438639
0.00437321
0.00436726
0.00440179
0.00437777
0.00440552
0.00440553
0.00431497
0.0043338
0.00434311
0.00430698
0.00430755
0.00431091
0.00431495
0.00433378
0.0043431
0.00430697
0.00433768
0.00433768
0.00433768
0.00429442
0.00429442
0.00429442
0.00429442
0.00431237
0.00433811
0.00433807
0.00432116
0.00434115
0.00431138
0.00432205
0.00430765
0.0043109
0.00431238
0.00433807
0.00433812
0.00432116
0.00434115
0.00432205
0.00431138
0.00434399
0.00434398
0.00431554
0.00431093
0.00431093
0.00426799
0.00428551
0.00428841
0.00426689
0.00428517
0.0042661
0.00426798
0.0042855
0.0042884
0.00426688
0.00428307
0.00428306
0.00428306
0.00424647
0.00424647
0.00424647
0.00424647
0.00426696
0.00428655
0.00428277
0.00427095
0.00428611
0.00426754
0.00427087
0.00428516
0.00426609
0.00426695
0.00428276
0.00428654
0.00427094
0.0042861
0.00427086
0.00426752
0.0042872
0.0042872
0.00426729
0.00426732
0.00426732
0.00421976
0.00423658
0.00423696
0.00421963
0.0042365
0.00421966
0.00421976
0.00423657
0.00423696
0.00421963
0.00423458
0.00423457
0.00423457
0.00419979
0.00419979
0.00419979
0.00419979
0.00421991
0.00423718
0.0042345
0.00422285
0.00423703
0.00421988
0.00422286
0.00423649
0.00421965
0.00421991
0.00423449
0.00423716
0.00422285
0.00423702
0.00422285
0.00421988
0.00423686
0.00423686
0.00422011
0.00421976
0.00421976
0.00417386
0.00419105
0.00419107
0.00417385
0.00419106
0.00417385
0.00417385
0.00419105
0.00419106
0.00417385
0.00418826
0.00418826
0.00418826
0.00415374
0.00415374
0.00415374
0.00415374
0.00417392
0.00419104
0.00418823
0.00417671
0.00419102
0.00417389
0.00417672
0.00419106
0.00417385
0.00417392
0.00418823
0.00419103
0.00417671
0.00419102
0.00417672
0.00417388
0.00419107
0.00419107
0.00417403
0.00417385
0.00417385
0.00412787
0.00414508
0.00414508
0.00412786
0.00414509
0.00412786
0.00412787
0.00414508
0.00414508
0.00412786
0.00414224
0.00414224
0.00414224
0.00410774
0.00410774
0.00410774
0.00410774
0.00412793
0.00414505
0.00414222
0.00413071
0.00414502
0.0041279
0.00413072
0.00414508
0.00412786
0.00412793
0.00414222
0.00414505
0.00413071
0.00414502
0.00413072
0.0041279
0.00414509
0.00414509
0.00412804
0.00412786
0.00412786
0.00408187
0.00409909
0.00409909
0.00408187
0.0040991
0.00408185
0.00408187
0.00409909
0.00409909
0.00408187
0.00409624
0.00409624
0.00409624
0.00406174
0.00406174
0.00406174
0.00406174
0.00408193
0.00409905
0.00409622
0.00408472
0.00409903
0.0040819
0.00408472
0.00409909
0.00408186
0.00408193
0.00409622
0.00409905
0.00408472
0.00409903
0.00408472
0.0040819
0.00409909
0.00409909
0.00408204
0.00408186
0.00408186
0.00403587
0.00405309
0.00405309
0.00403587
0.00405309
0.00403587
0.00403587
0.00405309
0.00405309
0.00403587
0.00405024
0.00405024
0.00405024
0.00401575
0.00401575
0.00401575
0.00401575
0.00403593
0.00405306
0.00405022
0.00403872
0.00405303
0.0040359
0.00403873
0.00405309
0.00403587
0.00403593
0.00405022
0.00405306
0.00403872
0.00405303
0.00403873
0.0040359
0.00405309
0.00405309
0.00403605
0.00403587
0.00403587
0.00398988
0.00400709
0.00400709
0.00398988
0.0040071
0.00398988
0.00398988
0.0040071
0.0040071
0.00398988
0.00400425
0.00400425
0.00400425
0.00396975
0.00396975
0.00396975
0.00396975
0.00398994
0.00400706
0.00400423
0.00399273
0.00400704
0.00398991
0.00399273
0.0040071
0.00398988
0.00398994
0.00400423
0.00400706
0.00399273
0.00400704
0.00399273
0.00398991
0.0040071
0.0040071
0.00399005
0.00398987
0.00398987
0.00394389
0.0039611
0.0039611
0.00394388
0.0039611
0.00394388
0.00394388
0.0039611
0.0039611
0.00394388
0.00395825
0.00395825
0.00395825
0.00392376
0.00392376
0.00392376
0.00392376
0.00394395
0.00396107
0.00395824
0.00394673
0.00396104
0.00394392
0.00394674
0.0039611
0.00394388
0.00394395
0.00395824
0.00396107
0.00394673
0.00396104
0.00394674
0.00394392
0.00396111
0.00396111
0.00394406
0.00394388
0.00394388
0.00389789
0.00391511
0.00391511
0.00389789
0.00391511
0.00389789
0.00389789
0.00391511
0.00391511
0.00389789
0.00391226
0.00391226
0.00391226
0.00387776
0.00387776
0.00387776
0.00387776
0.00389795
0.00391507
0.00391224
0.00390074
0.00391505
0.00389792
0.00390074
0.00391511
0.00389789
0.00389795
0.00391224
0.00391507
0.00390074
0.00391505
0.00390074
0.00389792
0.00391511
0.00391511
0.00389806
0.00389788
0.00389788
0.00385189
0.00386911
0.00386911
0.00385189
0.00386911
0.00385189
0.00385189
0.00386911
0.00386911
0.00385189
0.00386626
0.00386626
0.00386626
0.00383177
0.00383177
0.00383177
0.00383177
0.00385196
0.00386908
0.00386625
0.00385474
0.00386905
0.00385192
0.00385475
0.00386911
0.00385189
0.00385196
0.00386625
0.00386908
0.00385474
0.00386905
0.00385475
0.00385192
0.00386912
0.00386912
0.00385207
0.00385189
0.00385189
0.0038059
0.00382312
0.00382311
0.00380589
0.00382312
0.00380589
0.0038059
0.00382312
0.00382312
0.00380589
0.00382027
0.00382027
0.00382027
0.00378577
0.00378577
0.00378577
0.00378577
0.00380596
0.00382308
0.00382025
0.00380874
0.00382306
0.00380593
0.00380875
0.00382312
0.00380589
0.00380596
0.00382025
0.00382308
0.00380875
0.00382306
0.00380875
0.00380593
0.00382312
0.00382312
0.00380607
0.00380589
0.00380589
0.00437777
0.00440551
0.00440553
0.00436979
0.00440506
0.00436976
0.00440508
0.00437461
0.00436164
0.00436165
0.00440034
0.00440036
0.00438638
0.0043732
0.00440178
0.00436725
0.00438638
0.0043732
0.00440178
0.00436725
0.00439092
0.00436188
0.0044022
0.00435671
0.00439093
0.00436186
0.0044022
0.00435672
0.004382
0.00437071
0.00435311
0.00435357
0.00439707
0.00436568
0.00435372
0.00438201
0.00437071
0.00435311
0.00435357
0.00439707
0.00436568
0.00435372
0.00437776
0.00440551
0.00440552
0.00436975
0.00440506
0.0043746
0.00436163
0.00436166
0.00440035
0.00440035
0.00436978
0.00440507
0.00438639
0.0043732
0.00440179
0.00436726
0.00438639
0.00437321
0.00436726
0.00440179
0.00439095
0.00436187
0.00440222
0.00435672
0.00438202
0.00437071
0.00435311
0.00435357
0.00439708
0.00436569
0.00435373
0.00439094
0.00436188
0.00440221
0.00435672
0.00438202
0.00437071
0.00435357
0.00435311
0.00436569
0.00439708
0.00435373
0.00435949
0.00436924
0.00436405
0.00436405
0.0043595
0.00436924
0.00436405
0.00436405
0.0043595
0.00436924
0.00436405
0.00436405
0.00435826
0.00436731
0.00435024
0.00435024
0.00436261
0.00436261
0.00434841
0.00435826
0.00436731
0.00435024
0.00435024
0.00436261
0.00436261
0.00434841
0.00435826
0.00436732
0.00435024
0.00435024
0.00436261
0.00436261
0.00434841
0.00435826
0.00436731
0.00435024
0.00435024
0.00436261
0.00436261
0.00434841
0.00438639
0.00437321
0.00436726
0.00440179
0.00438202
0.00437071
0.00435311
0.00435357
0.00439707
0.00436569
0.00435373
0.00439095
0.00436187
0.00440221
0.00435672
0.00438202
0.00437071
0.00435357
0.00435311
0.00436569
0.00439707
0.00435372
0.00439094
0.00436187
0.00440221
0.00435671
0.00437777
0.00440553
0.00440553
0.00436973
0.00440507
0.00437461
0.00436164
0.00436164
0.00440035
0.00440036
0.00436973
0.00440507
0.00438639
0.00437321
0.00436726
0.00440179
0.00438202
0.00437071
0.00435357
0.00435312
0.00436569
0.00439708
0.00435373
0.00438202
0.00437071
0.00435357
0.00435311
0.00436569
0.00439708
0.00435373
0.00439094
0.00436187
0.00440221
0.00435671
0.00439095
0.00436189
0.00440221
0.00435672
0.00437461
0.00436164
0.00436165
0.00440035
0.00440035
0.00436973
0.00440506
0.00436976
0.00440508
0.00430755
0.0043109
0.00430765
0.00431088
0.00434396
0.00434399
0.00431559
0.00431093
0.00431093
0.00429367
0.00431057
0.00429367
0.00431058
0.00430909
0.00429635
0.00429635
0.00430925
0.00430925
0.00431497
0.00433378
0.00434311
0.00430699
0.0043124
0.00433811
0.00433807
0.00432115
0.00434115
0.00431138
0.00432205
0.00431239
0.00433811
0.00433807
0.00432115
0.00434116
0.00431139
0.00432205
0.0043105
0.00429485
0.00430843
0.00429626
0.00431049
0.00429485
0.00430844
0.00429626
0.00430753
0.00430692
0.0042949
0.00429427
0.00430865
0.00430722
0.00429323
0.00430752
0.00430693
0.0042949
0.00429427
0.00430865
0.00430722
0.00429323
0.00434395
0.004344
0.0043156
0.00431094
0.00431093
0.0043077
0.00431088
0.00429367
0.00431058
0.00430909
0.00429635
0.00429635
0.00430925
0.00430925
0.00429366
0.00431059
0.00431237
0.00433811
0.00433807
0.00432116
0.00434116
0.00431138
0.00432205
0.00431496
0.00433379
0.00434309
0.00430698
0.00431238
0.00433807
0.00433811
0.00432115
0.00434115
0.00432204
0.00431138
0.00431049
0.00429485
0.00430843
0.00429626
0.00430751
0.00430692
0.00429489
0.00429427
0.00430864
0.00430722
0.00429323
0.00431049
0.00429484
0.00430844
0.00429626
0.00430752
0.00430692
0.00429427
0.00429489
0.00430722
0.00430864
0.00429322
0.00431495
0.00433379
0.00434309
0.00430698
0.00431238
0.00433807
0.00433812
0.00432115
0.00434115
0.00432204
0.00431138
0.00431496
0.0043338
0.00434309
0.00430697
0.00430751
0.00430692
0.0042949
0.00429427
0.00430864
0.00430722
0.00429323
0.00431049
0.00429485
0.00430843
0.00429626
0.00430752
0.00430692
0.00429427
0.00429489
0.00430722
0.00430864
0.00429323
0.00431049
0.00429485
0.00430842
0.00429626
0.00434399
0.004344
0.00431554
0.00431093
0.00431093
0.00430766
0.00431088
0.00429366
0.00431059
0.00430908
0.00429635
0.00429635
0.00430925
0.00430924
0.00429367
0.00431055
0.00431237
0.00433807
0.00433811
0.00432117
0.00434115
0.00432205
0.00431138
0.00431495
0.0043338
0.00434308
0.00430696
0.00431495
0.00433379
0.00434309
0.00430697
0.00430752
0.00430692
0.00429427
0.00429489
0.00430722
0.00430864
0.00429322
0.00430751
0.00430692
0.00429426
0.00429489
0.00430722
0.00430864
0.00429322
0.00431049
0.00429484
0.00430842
0.00429625
0.00431048
0.00429484
0.00430843
0.00429625
0.00430768
0.00431088
0.00430768
0.00431088
0.00430908
0.00429635
0.00429634
0.00430924
0.00430924
0.00429368
0.00431056
0.00429365
0.00431057
0.00428517
0.00426609
0.00428516
0.00426608
0.0042872
0.0042872
0.00426729
0.00426733
0.00426732
0.004242
0.00426004
0.00424199
0.00426004
0.00426093
0.00424248
0.00424248
0.00426109
0.00426109
0.00426799
0.00428551
0.00428841
0.0042669
0.00426697
0.00428655
0.00428277
0.00427097
0.00428611
0.00426753
0.00427088
0.00426697
0.00428655
0.00428277
0.00427096
0.00428611
0.00426754
0.00427088
0.0042618
0.00424219
0.00426064
0.00424274
0.0042618
0.0042422
0.00426065
0.00424274
0.00426103
0.00425864
0.004243
0.00424639
0.00426149
0.00425858
0.0042429
0.00426103
0.00425858
0.00424301
0.00424639
0.0042615
0.00425857
0.0042429
0.00428721
0.00428721
0.00426731
0.00426734
0.00426734
0.00428517
0.00426611
0.00424201
0.00426006
0.00426096
0.0042425
0.0042425
0.00426112
0.00426112
0.00424202
0.00426006
0.00426696
0.00428654
0.00428277
0.00427096
0.0042861
0.00426752
0.00427088
0.00426799
0.00428549
0.0042884
0.00426689
0.00426696
0.00428277
0.00428654
0.00427096
0.0042861
0.00427088
0.00426753
0.00426179
0.00424219
0.00426064
0.00424273
0.00426103
0.00425857
0.004243
0.00424638
0.00426148
0.00425857
0.0042429
0.00426179
0.00424219
0.00426064
0.00424273
0.00426103
0.00425864
0.00424638
0.004243
0.00425858
0.00426149
0.0042429
0.00426799
0.00428551
0.0042884
0.0042669
0.00426696
0.00428277
0.00428655
0.00427097
0.0042861
0.00427088
0.00426753
0.00426799
0.00428551
0.0042884
0.00426689
0.00426103
0.00425852
0.00424302
0.00424638
0.00426149
0.00425856
0.0042429
0.0042618
0.0042422
0.00426065
0.00424273
0.00426103
0.00425863
0.00424638
0.004243
0.00425858
0.00426148
0.0042429
0.00426179
0.00424219
0.00426064
0.00424273
0.0042872
0.0042872
0.00426729
0.00426732
0.00426732
0.00428516
0.00426609
0.004242
0.00426004
0.00426093
0.00424248
0.00424248
0.0042611
0.0042611
0.004242
0.00426004
0.00426695
0.00428276
0.00428654
0.00427094
0.00428609
0.00427086
0.00426752
0.00426798
0.00428549
0.0042884
0.00426689
0.00426798
0.00428549
0.00428839
0.00426689
0.00426102
0.00425851
0.00424637
0.00424299
0.00425854
0.00426148
0.00424289
0.00426102
0.00425852
0.00424636
0.004243
0.00425854
0.00426148
0.00424291
0.00426179
0.00424218
0.00426064
0.00424273
0.00426179
0.00424219
0.00426064
0.00424273
0.00428516
0.00426609
0.00428515
0.00426609
0.00426093
0.00424248
0.00424248
0.00426109
0.0042611
0.004242
0.00426004
0.004242
0.00426004
0.00423649
0.00421965
0.00423649
0.00421965
0.00423686
0.00423686
0.00422011
0.00421977
0.00421976
0.00419683
0.00421396
0.00419682
0.00421395
0.00421396
0.00419684
0.00419684
0.00421403
0.00421403
0.00421976
0.00423659
0.00423696
0.00421964
0.00421992
0.00423717
0.0042345
0.00422285
0.00423703
0.00421988
0.00422286
0.00421992
0.00423718
0.0042345
0.00422286
0.00423703
0.00421989
0.00422286
0.00421402
0.00419681
0.00421394
0.00419684
0.00421402
0.00419681
0.00421394
0.00419684
0.00421402
0.00421128
0.00419687
0.00419975
0.00421402
0.00421129
0.00419692
0.00421402
0.00421128
0.00419688
0.00419976
0.00421403
0.00421129
0.00419692
0.00423687
0.00423688
0.00422011
0.00421977
0.00421977
0.0042365
0.00421966
0.00419683
0.00421396
0.00421397
0.00419684
0.00419684
0.00421404
0.00421404
0.00419683
0.00421396
0.00421991
0.00423717
0.0042345
0.00422285
0.00423702
0.00421988
0.00422285
0.00421976
0.00423658
0.00423696
0.00421963
0.00421991
0.0042345
0.00423717
0.00422285
0.00423702
0.00422285
0.00421988
0.00421401
0.00419681
0.00421393
0.00419684
0.00421401
0.00421128
0.00419687
0.00419975
0.00421402
0.00421129
0.00419692
0.00421401
0.00419681
0.00421394
0.00419684
0.00421401
0.00421128
0.00419975
0.00419687
0.00421129
0.00421402
0.00419692
0.00421976
0.00423659
0.00423696
0.00421963
0.00421991
0.0042345
0.00423717
0.00422285
0.00423703
0.00422286
0.00421988
0.00421976
0.00423657
0.00423696
0.00421963
0.00421402
0.00421128
0.00419688
0.00419975
0.00421403
0.00421129
0.00419692
0.00421401
0.00419681
0.00421394
0.00419684
0.00421402
0.00421128
0.00419975
0.00419687
0.00421129
0.00421402
0.00419692
0.00421401
0.00419681
0.00421393
0.00419684
0.00423686
0.00423686
0.00422011
0.00421976
0.00421976
0.00423648
0.00421965
0.00419683
0.00421396
0.00421396
0.00419684
0.00419684
0.00421403
0.00421403
0.00419682
0.00421395
0.00421991
0.00423449
0.00423717
0.00422285
0.00423702
0.00422285
0.00421988
0.00421976
0.00423657
0.00423696
0.00421963
0.00421976
0.00423658
0.00423696
0.00421963
0.00421401
0.00421127
0.00419975
0.00419687
0.00421129
0.00421402
0.00419692
0.00421401
0.00421128
0.00419975
0.00419687
0.00421129
0.00421402
0.00419692
0.00421401
0.00419681
0.00421393
0.00419684
0.00421401
0.00419681
0.00421393
0.00419684
0.00423649
0.00421965
0.00423649
0.00421965
0.00421396
0.00419684
0.00419684
0.00421403
0.00421403
0.00419683
0.00421396
0.00419682
0.00421395
0.00419106
0.00417385
0.00419106
0.00417385
0.00419107
0.00419107
0.00417403
0.00417385
0.00417385
0.00415086
0.00416808
0.00415086
0.00416808
0.00416789
0.00415086
0.00415086
0.00416808
0.00416808
0.00417386
0.00419105
0.00419107
0.00417385
0.00417392
0.00419103
0.00418823
0.00417671
0.00419102
0.00417388
0.00417672
0.00417392
0.00419104
0.00418823
0.00417671
0.00419102
0.00417389
0.00417672
0.00416808
0.00415086
0.00416807
0.00415086
0.00416808
0.00415086
0.00416808
0.00415086
0.00416802
0.00416521
0.00415089
0.00415372
0.00416804
0.00416522
0.00415093
0.00416802
0.00416521
0.00415089
0.00415372
0.00416804
0.00416522
0.00415093
0.00419107
0.00419107
0.00417404
0.00417385
0.00417385
0.00419106
0.00417385
0.00415086
0.00416808
0.00416789
0.00415086
0.00415086
0.00416808
0.00416808
0.00415086
0.00416808
0.00417392
0.00419103
0.00418823
0.00417671
0.00419102
0.00417388
0.00417672
0.00417385
0.00419105
0.00419106
0.00417385
0.00417392
0.00418823
0.00419103
0.00417671
0.00419102
0.00417672
0.00417388
0.00416808
0.00415086
0.00416807
0.00415086
0.00416802
0.00416521
0.00415089
0.00415372
0.00416804
0.00416522
0.00415092
0.00416808
0.00415086
0.00416807
0.00415086
0.00416802
0.00416521
0.00415372
0.00415089
0.00416522
0.00416804
0.00415092
0.00417386
0.00419105
0.00419107
0.00417385
0.00417392
0.00418823
0.00419103
0.00417671
0.00419102
0.00417672
0.00417388
0.00417386
0.00419105
0.00419107
0.00417385
0.00416802
0.00416521
0.00415089
0.00415372
0.00416804
0.00416522
0.00415093
0.00416808
0.00415086
0.00416808
0.00415086
0.00416802
0.00416521
0.00415372
0.00415089
0.00416522
0.00416804
0.00415093
0.00416808
0.00415086
0.00416807
0.00415086
0.00419107
0.00419107
0.00417403
0.00417385
0.00417385
0.00419106
0.00417385
0.00415086
0.00416808
0.00416789
0.00415086
0.00415086
0.00416808
0.00416808
0.00415086
0.00416808
0.00417392
0.00418823
0.00419103
0.00417671
0.00419102
0.00417672
0.00417388
0.00417385
0.00419105
0.00419106
0.00417385
0.00417385
0.00419105
0.00419106
0.00417385
0.00416802
0.00416521
0.00415372
0.00415089
0.00416522
0.00416804
0.00415092
0.00416802
0.00416521
0.00415372
0.00415089
0.00416522
0.00416804
0.00415092
0.00416808
0.00415086
0.00416807
0.00415086
0.00416808
0.00415086
0.00416807
0.00415086
0.00419106
0.00417385
0.00419106
0.00417385
0.00416789
0.00415086
0.00415086
0.00416808
0.00416808
0.00415086
0.00416808
0.00415086
0.00416808
0.00414508
0.00412786
0.00414508
0.00412786
0.00414509
0.00414509
0.00412804
0.00412786
0.00412786
0.00410486
0.00412209
0.00410486
0.00412209
0.00412189
0.00410486
0.00410486
0.00412209
0.00412209
0.00412787
0.00414508
0.00414508
0.00412786
0.00412793
0.00414505
0.00414222
0.00413071
0.00414502
0.0041279
0.00413072
0.00412793
0.00414505
0.00414222
0.00413071
0.00414502
0.0041279
0.00413072
0.00412209
0.00410486
0.00412209
0.00410487
0.00412209
0.00410487
0.00412209
0.00410487
0.00412203
0.00411921
0.0041049
0.00410772
0.00412205
0.00411922
0.00410493
0.00412203
0.00411921
0.0041049
0.00410772
0.00412205
0.00411922
0.00410493
0.00414509
0.00414509
0.00412804
0.00412786
0.00412786
0.00414508
0.00412786
0.00410487
0.00412208
0.00412189
0.00410487
0.00410486
0.00412209
0.00412209
0.00410486
0.00412209
0.00412793
0.00414505
0.00414222
0.00413071
0.00414502
0.0041279
0.00413072
0.00412787
0.00414508
0.00414508
0.00412786
0.00412793
0.00414222
0.00414505
0.00413071
0.00414502
0.00413072
0.0041279
0.00412209
0.00410486
0.00412209
0.00410487
0.00412203
0.00411921
0.0041049
0.00410772
0.00412205
0.00411922
0.00410493
0.00412209
0.00410486
0.00412209
0.00410487
0.00412203
0.00411921
0.00410772
0.0041049
0.00411922
0.00412205
0.00410493
0.00412787
0.00414508
0.00414508
0.00412786
0.00412793
0.00414222
0.00414505
0.00413071
0.00414502
0.00413072
0.0041279
0.00412787
0.00414508
0.00414508
0.00412786
0.00412203
0.00411921
0.0041049
0.00410772
0.00412205
0.00411922
0.00410493
0.00412209
0.00410486
0.00412209
0.00410487
0.00412203
0.00411921
0.00410772
0.0041049
0.00411922
0.00412205
0.00410493
0.00412209
0.00410486
0.00412209
0.00410487
0.00414509
0.00414509
0.00412804
0.00412786
0.00412786
0.00414508
0.00412786
0.00410486
0.00412209
0.00412189
0.00410486
0.00410486
0.00412209
0.00412209
0.00410486
0.00412209
0.00412793
0.00414222
0.00414505
0.00413071
0.00414502
0.00413072
0.0041279
0.00412787
0.00414508
0.00414508
0.00412786
0.00412787
0.00414508
0.00414508
0.00412786
0.00412203
0.00411921
0.00410772
0.0041049
0.00411922
0.00412205
0.00410493
0.00412203
0.00411921
0.00410772
0.0041049
0.00411922
0.00412205
0.00410493
0.00412209
0.00410486
0.00412209
0.00410487
0.00412209
0.00410486
0.00412209
0.00410487
0.00414508
0.00412786
0.00414508
0.00412786
0.00412189
0.00410486
0.00410486
0.00412209
0.00412209
0.00410486
0.00412209
0.00410486
0.00412209
0.00409909
0.00408187
0.00409909
0.00408187
0.00409909
0.00409909
0.00408204
0.00408186
0.00408186
0.00405887
0.00407609
0.00405887
0.00407609
0.0040759
0.00405887
0.00405887
0.00407609
0.00407609
0.00408187
0.00409909
0.00409909
0.00408186
0.00408193
0.00409905
0.00409622
0.00408472
0.00409903
0.0040819
0.00408472
0.00408193
0.00409906
0.00409622
0.00408472
0.00409903
0.0040819
0.00408472
0.00407609
0.00405887
0.00407609
0.00405887
0.00407609
0.00405887
0.00407608
0.00405887
0.00407603
0.00407322
0.0040589
0.00406172
0.00407606
0.00407322
0.00405893
0.00407603
0.00407322
0.0040589
0.00406172
0.00407605
0.00407322
0.00405893
0.0040991
0.00409909
0.00408204
0.00408186
0.00408186
0.00409909
0.00408186
0.00405887
0.00407608
0.00407589
0.00405887
0.00405886
0.00407609
0.00407609
0.00405887
0.00407609
0.00408193
0.00409905
0.00409622
0.00408472
0.00409903
0.0040819
0.00408472
0.00408187
0.00409909
0.00409909
0.00408187
0.00408193
0.00409622
0.00409905
0.00408472
0.00409903
0.00408472
0.0040819
0.00407609
0.00405887
0.00407609
0.00405887
0.00407603
0.00407322
0.0040589
0.00406172
0.00407606
0.00407322
0.00405893
0.00407609
0.00405887
0.00407609
0.00405887
0.00407603
0.00407322
0.00406172
0.0040589
0.00407322
0.00407606
0.00405893
0.00408187
0.00409909
0.00409909
0.00408187
0.00408193
0.00409622
0.00409905
0.00408472
0.00409903
0.00408472
0.0040819
0.00408187
0.00409909
0.00409909
0.00408187
0.00407603
0.00407322
0.0040589
0.00406172
0.00407606
0.00407322
0.00405893
0.00407609
0.00405887
0.00407609
0.00405887
0.00407603
0.00407322
0.00406172
0.0040589
0.00407322
0.00407606
0.00405893
0.00407609
0.00405887
0.00407609
0.00405887
0.00409909
0.00409909
0.00408204
0.00408186
0.00408186
0.00409909
0.00408187
0.00405887
0.00407609
0.0040759
0.00405887
0.00405886
0.00407609
0.00407609
0.00405887
0.00407609
0.00408193
0.00409622
0.00409905
0.00408472
0.00409903
0.00408472
0.0040819
0.00408187
0.00409909
0.00409909
0.00408187
0.00408187
0.00409909
0.00409909
0.00408187
0.00407603
0.00407322
0.00406172
0.0040589
0.00407322
0.00407606
0.00405893
0.00407603
0.00407322
0.00406172
0.0040589
0.00407322
0.00407606
0.00405893
0.00407609
0.00405887
0.00407609
0.00405887
0.00407609
0.00405887
0.00407609
0.00405887
0.00409909
0.00408187
0.00409909
0.00408187
0.0040759
0.00405886
0.00405886
0.00407609
0.00407609
0.00405887
0.00407609
0.00405887
0.00407609
0.00405309
0.00403587
0.00405309
0.00403587
0.00405309
0.00405309
0.00403605
0.00403587
0.00403587
0.00401287
0.0040301
0.00401287
0.00403009
0.0040299
0.00401287
0.00401287
0.0040301
0.0040301
0.00403587
0.00405309
0.00405309
0.00403587
0.00403593
0.00405306
0.00405022
0.00403872
0.00405303
0.0040359
0.00403873
0.00403593
0.00405306
0.00405022
0.00403872
0.00405303
0.0040359
0.00403873
0.00403009
0.00401287
0.00403009
0.00401288
0.00403009
0.00401287
0.00403009
0.00401288
0.00403003
0.00402722
0.0040129
0.00401573
0.00403006
0.00402723
0.00401294
0.00403003
0.00402722
0.00401291
0.00401573
0.00403006
0.00402723
0.00401294
0.0040531
0.00405309
0.00403605
0.00403587
0.00403587
0.00405309
0.00403587
0.00401287
0.00403009
0.0040299
0.00401287
0.00401287
0.0040301
0.0040301
0.00401287
0.00403009
0.00403593
0.00405306
0.00405022
0.00403872
0.00405303
0.0040359
0.00403873
0.00403587
0.00405309
0.00405309
0.00403587
0.00403593
0.00405022
0.00405306
0.00403872
0.00405303
0.00403873
0.0040359
0.00403009
0.00401287
0.00403009
0.00401288
0.00403003
0.00402722
0.00401291
0.00401573
0.00403006
0.00402723
0.00401294
0.00403009
0.00401287
0.00403009
0.00401288
0.00403003
0.00402722
0.00401573
0.00401291
0.00402723
0.00403006
0.00401294
0.00403587
0.00405309
0.00405309
0.00403587
0.00403593
0.00405022
0.00405306
0.00403872
0.00405303
0.00403873
0.0040359
0.00403587
0.00405309
0.00405309
0.00403587
0.00403003
0.00402722
0.00401291
0.00401573
0.00403006
0.00402723
0.00401294
0.00403009
0.00401287
0.00403009
0.00401288
0.00403003
0.00402722
0.00401573
0.00401291
0.00402723
0.00403006
0.00401294
0.00403009
0.00401287
0.00403009
0.00401288
0.00405309
0.00405309
0.00403605
0.00403587
0.00403587
0.00405309
0.00403587
0.00401287
0.00403009
0.0040299
0.00401287
0.00401287
0.0040301
0.0040301
0.00401287
0.00403009
0.00403593
0.00405022
0.00405306
0.00403872
0.00405303
0.00403873
0.0040359
0.00403587
0.00405309
0.00405309
0.00403587
0.00403587
0.00405309
0.00405309
0.00403587
0.00403003
0.00402722
0.00401573
0.00401291
0.00402723
0.00403006
0.00401294
0.00403003
0.00402722
0.00401573
0.00401291
0.00402723
0.00403006
0.00401294
0.00403009
0.00401287
0.00403009
0.00401288
0.00403009
0.00401287
0.00403009
0.00401288
0.00405309
0.00403587
0.00405309
0.00403587
0.0040299
0.00401287
0.00401287
0.0040301
0.0040301
0.00401287
0.00403009
0.00401287
0.00403009
0.00400709
0.00398988
0.0040071
0.00398988
0.0040071
0.0040071
0.00399005
0.00398987
0.00398987
0.00396688
0.0039841
0.00396688
0.0039841
0.00398391
0.00396688
0.00396688
0.0039841
0.0039841
0.00398988
0.0040071
0.00400709
0.00398988
0.00398994
0.00400706
0.00400423
0.00399273
0.00400704
0.00398991
0.00399273
0.00398994
0.00400706
0.00400423
0.00399273
0.00400704
0.00398991
0.00399273
0.0039841
0.00396688
0.0039841
0.00396688
0.0039841
0.00396688
0.0039841
0.00396688
0.00398404
0.00398123
0.00396691
0.00396974
0.00398407
0.00398123
0.00396694
0.00398404
0.00398123
0.00396691
0.00396974
0.00398407
0.00398123
0.00396694
0.0040071
0.0040071
0.00399005
0.00398987
0.00398987
0.0040071
0.00398988
0.00396688
0.0039841
0.00398391
0.00396688
0.00396688
0.0039841
0.0039841
0.00396688
0.0039841
0.00398994
0.00400706
0.00400423
0.00399273
0.00400704
0.00398991
0.00399273
0.00398988
0.0040071
0.0040071
0.00398988
0.00398994
0.00400423
0.00400706
0.00399273
0.00400704
0.00399273
0.00398991
0.0039841
0.00396688
0.0039841
0.00396688
0.00398404
0.00398123
0.00396691
0.00396974
0.00398407
0.00398123
0.00396694
0.0039841
0.00396688
0.0039841
0.00396688
0.00398404
0.00398123
0.00396974
0.00396691
0.00398123
0.00398407
0.00396694
0.00398988
0.0040071
0.0040071
0.00398988
0.00398994
0.00400423
0.00400706
0.00399273
0.00400704
0.00399273
0.00398991
0.00398988
0.0040071
0.0040071
0.00398988
0.00398404
0.00398123
0.00396691
0.00396974
0.00398407
0.00398123
0.00396694
0.0039841
0.00396688
0.0039841
0.00396688
0.00398404
0.00398123
0.00396974
0.00396691
0.00398123
0.00398407
0.00396694
0.0039841
0.00396688
0.0039841
0.00396688
0.0040071
0.0040071
0.00399005
0.00398987
0.00398987
0.0040071
0.00398988
0.00396688
0.0039841
0.00398391
0.00396688
0.00396688
0.0039841
0.0039841
0.00396688