/*--------------------------------*- C++ -*----------------------------------*\
| =========                 |                                                 |
| \\      /  F ield         | OpenFOAM: The Open Source CFD Toolbox           |
|  \\    /   O peration     | Version:  2206                                  |
|   \\  /    A nd           | Website:  www.openfoam.com                      |
|    \\/     M anipulation  |                                                 |
\*---------------------------------------------------------------------------*/
FoamFile
{
    version     2.0;
    format      ascii;
    arch        "LSB;label=32;scalar=64";
    class       volScalarField;
    location    "37";
    object      k;
}
// * * * * * * * * * * * * * * * * * * * * * * * * * * * * * * * * * * * * * //

dimensions      [0 2 -2 0 0 0 0];

internalField   nonuniform List<scalar> 
28673
(
2.31328e-05
2.24346e-05
2.38864e-05
2.3133e-05
2.31327e-05
2.24375e-05
2.38864e-05
2.31331e-05
2.31328e-05
2.24375e-05
2.38864e-05
2.31332e-05
2.31328e-05
2.24378e-05
2.38865e-05
2.31332e-05
2.31329e-05
2.2438e-05
2.38864e-05
2.31333e-05
2.31331e-05
2.24382e-05
2.38863e-05
2.31333e-05
2.31331e-05
2.24384e-05
2.38862e-05
2.31331e-05
2.31329e-05
2.24384e-05
2.38851e-05
2.31303e-05
2.31317e-05
2.24357e-05
2.38803e-05
2.31261e-05
2.31264e-05
2.24309e-05
2.38797e-05
2.3126e-05
2.31258e-05
2.24303e-05
2.38803e-05
2.31264e-05
2.31262e-05
2.24307e-05
2.39099e-05
2.31676e-05
2.31675e-05
2.25182e-05
2.31322e-05
2.24358e-05
2.31328e-05
2.24381e-05
2.31324e-05
2.31321e-05
2.31322e-05
2.31322e-05
2.24322e-05
2.24417e-05
2.31326e-05
2.31318e-05
2.31324e-05
2.31329e-05
2.31323e-05
2.24397e-05
2.31328e-05
2.31327e-05
2.31328e-05
2.24417e-05
2.24344e-05
2.24401e-05
2.31322e-05
2.31323e-05
2.31322e-05
2.31323e-05
2.24379e-05
2.24418e-05
2.31327e-05
2.31319e-05
2.31327e-05
2.31319e-05
2.31324e-05
2.31331e-05
2.31324e-05
2.24363e-05
2.24412e-05
2.31329e-05
2.31328e-05
2.31328e-05
2.24416e-05
2.24364e-05
2.24421e-05
2.31324e-05
2.31324e-05
2.31325e-05
2.31324e-05
2.24379e-05
2.24421e-05
2.31329e-05
2.3132e-05
2.31329e-05
2.3132e-05
2.31325e-05
2.31332e-05
2.31325e-05
2.24373e-05
2.24416e-05
2.31329e-05
2.31328e-05
2.31329e-05
2.24419e-05
2.24382e-05
2.24424e-05
2.31326e-05
2.31326e-05
2.31326e-05
2.31326e-05
2.24382e-05
2.24424e-05
2.31331e-05
2.31322e-05
2.31331e-05
2.31322e-05
2.31326e-05
2.31332e-05
2.31326e-05
2.24376e-05
2.24418e-05
2.3133e-05
2.31329e-05
2.3133e-05
2.24421e-05
2.24385e-05
2.24426e-05
2.31328e-05
2.31327e-05
2.31328e-05
2.31327e-05
2.24384e-05
2.24426e-05
2.31333e-05
2.31323e-05
2.31333e-05
2.31323e-05
2.31327e-05
2.31333e-05
2.31327e-05
2.24379e-05
2.2442e-05
2.31331e-05
2.31331e-05
2.31331e-05
2.24424e-05
2.24387e-05
2.24429e-05
2.3133e-05
2.31328e-05
2.3133e-05
2.31329e-05
2.24386e-05
2.24428e-05
2.31334e-05
2.31324e-05
2.31334e-05
2.31324e-05
2.31328e-05
2.31333e-05
2.31328e-05
2.24381e-05
2.24423e-05
2.31333e-05
2.31331e-05
2.31333e-05
2.24425e-05
2.24389e-05
2.24431e-05
2.31331e-05
2.3133e-05
2.3133e-05
2.31326e-05
2.24388e-05
2.24428e-05
2.31335e-05
2.31325e-05
2.31335e-05
2.31325e-05
2.3133e-05
2.31331e-05
2.31327e-05
2.24383e-05
2.24424e-05
2.31334e-05
2.31329e-05
2.31332e-05
2.24426e-05
2.24391e-05
2.24415e-05
2.31329e-05
2.31325e-05
2.31319e-05
2.3131e-05
2.24387e-05
2.24402e-05
2.31336e-05
2.31324e-05
2.31329e-05
2.31317e-05
2.31327e-05
2.31318e-05
2.31315e-05
2.24385e-05
2.24413e-05
2.31331e-05
2.31324e-05
2.3132e-05
2.24407e-05
2.24369e-05
2.24361e-05
2.31309e-05
2.31296e-05
2.31266e-05
2.31258e-05
2.24353e-05
2.24351e-05
2.31321e-05
2.31312e-05
2.31276e-05
2.31268e-05
2.31303e-05
2.31265e-05
2.31262e-05
2.24368e-05
2.24361e-05
2.31308e-05
2.31274e-05
2.31267e-05
2.24355e-05
2.24317e-05
2.24344e-05
2.31259e-05
2.31255e-05
2.31255e-05
2.31252e-05
2.24309e-05
2.24344e-05
2.31268e-05
2.31259e-05
2.3126e-05
2.3125e-05
2.31258e-05
2.3126e-05
2.31254e-05
2.24316e-05
2.2434e-05
2.31262e-05
2.31258e-05
2.31259e-05
2.24344e-05
2.24305e-05
2.24349e-05
2.31257e-05
2.31254e-05
2.31261e-05
2.31259e-05
2.24305e-05
2.24348e-05
2.31262e-05
2.31252e-05
2.31266e-05
2.31256e-05
2.31256e-05
2.31267e-05
2.31261e-05
2.24301e-05
2.24344e-05
2.3126e-05
2.31265e-05
2.31265e-05
2.24347e-05
2.2431e-05
2.24699e-05
2.31259e-05
2.31257e-05
2.31586e-05
2.31584e-05
2.24309e-05
2.24698e-05
2.31264e-05
2.31254e-05
2.31589e-05
2.31582e-05
2.31258e-05
2.31589e-05
2.31586e-05
2.24305e-05
2.24695e-05
2.31263e-05
2.31589e-05
2.31589e-05
2.24698e-05
2.25183e-05
2.31673e-05
2.31672e-05
2.25183e-05
2.31677e-05
2.3167e-05
2.39099e-05
2.39098e-05
2.39099e-05
2.31674e-05
2.2518e-05
2.31676e-05
2.8084e-05
6.97317e-05
2.80857e-05
6.97291e-05
7.57444e-05
7.57431e-05
2.80849e-05
6.97318e-05
2.38866e-05
2.38863e-05
2.38864e-05
2.38865e-05
2.38863e-05
2.38863e-05
2.16982e-05
2.7579e-05
2.353e-05
2.31329e-05
2.16985e-05
2.75743e-05
2.353e-05
7.57409e-05
2.16974e-05
2.35298e-05
2.31327e-05
2.16977e-05
2.35298e-05
2.7574e-05
3.72371e-05
3.72411e-05
2.24417e-05
3.72343e-05
3.72383e-05
2.80867e-05
6.97298e-05
2.80888e-05
6.97276e-05
7.57403e-05
7.57402e-05
2.8088e-05
6.97328e-05
2.80897e-05
6.97306e-05
2.38865e-05
2.38863e-05
2.38863e-05
2.38864e-05
2.38864e-05
2.38862e-05
2.38862e-05
2.16991e-05
2.75816e-05
2.353e-05
2.31331e-05
2.16991e-05
2.75766e-05
2.35301e-05
7.57377e-05
7.57372e-05
2.16982e-05
2.35297e-05
2.75813e-05
2.31329e-05
2.16982e-05
2.35298e-05
2.75768e-05
3.72393e-05
3.72431e-05
2.24416e-05
3.72381e-05
3.72419e-05
2.80888e-05
6.97291e-05
2.80911e-05
6.97273e-05
7.57388e-05
7.57392e-05
2.80903e-05
6.9732e-05
2.80922e-05
6.97301e-05
2.38865e-05
2.38862e-05
2.38862e-05
2.38864e-05
2.38864e-05
2.38861e-05
2.38861e-05
2.16999e-05
2.75834e-05
2.353e-05
2.31332e-05
2.17e-05
2.75781e-05
2.35301e-05
7.57354e-05
7.57356e-05
2.1699e-05
2.35298e-05
2.75836e-05
2.31329e-05
2.1699e-05
2.35298e-05
2.75788e-05
3.72428e-05
3.72466e-05
2.24418e-05
3.72411e-05
3.7245e-05
2.80902e-05
6.97292e-05
2.80927e-05
6.97276e-05
7.57386e-05
7.57394e-05
2.80918e-05
6.9732e-05
2.8094e-05
6.97303e-05
2.38865e-05
2.38862e-05
2.38862e-05
2.38865e-05
2.38864e-05
2.38862e-05
2.38862e-05
2.17006e-05
2.75845e-05
2.353e-05
2.31333e-05
2.17007e-05
2.75791e-05
2.35301e-05
7.57345e-05
7.57351e-05
2.16996e-05
2.35297e-05
2.75851e-05
2.31329e-05
2.16998e-05
2.35298e-05
2.758e-05
3.72447e-05
3.72486e-05
2.2442e-05
3.72424e-05
3.72463e-05
2.80912e-05
6.97293e-05
2.80939e-05
6.97287e-05
7.57391e-05
7.57412e-05
2.80928e-05
6.97321e-05
2.80953e-05
6.97314e-05
2.38864e-05
2.38863e-05
2.38863e-05
2.38865e-05
2.38864e-05
2.38863e-05
2.38863e-05
2.1701e-05
2.75851e-05
2.353e-05
2.31334e-05
2.17012e-05
2.75793e-05
2.35301e-05
7.57346e-05
7.57365e-05
2.17e-05
2.35298e-05
2.75858e-05
2.31331e-05
2.17003e-05
2.35299e-05
2.75802e-05
3.72454e-05
3.72494e-05
2.24422e-05
3.72432e-05
3.72472e-05
2.8091e-05
6.97303e-05
2.80942e-05
6.97312e-05
7.57407e-05
7.57469e-05
2.80926e-05
6.97333e-05
2.80955e-05
6.97342e-05
2.38864e-05
2.38863e-05
2.38864e-05
2.38863e-05
2.38863e-05
2.38861e-05
2.38864e-05
2.17011e-05
2.75853e-05
2.35301e-05
2.31334e-05
2.17015e-05
2.75784e-05
2.35302e-05
7.5736e-05
7.57422e-05
2.17002e-05
2.35299e-05
2.75859e-05
2.31332e-05
2.17005e-05
2.35299e-05
2.75793e-05
3.72471e-05
3.72512e-05
2.24424e-05
3.72443e-05
3.72484e-05
2.80914e-05
6.97302e-05
2.80955e-05
6.97328e-05
7.57421e-05
7.57515e-05
2.80932e-05
6.97335e-05
2.80969e-05
6.97359e-05
2.38863e-05
2.38861e-05
2.38864e-05
2.38862e-05
2.3886e-05
2.38859e-05
2.3886e-05
2.17013e-05
2.75864e-05
2.353e-05
2.31333e-05
2.1702e-05
2.75778e-05
2.353e-05
7.57373e-05
7.57469e-05
2.17003e-05
2.35297e-05
2.75871e-05
2.31331e-05
2.1701e-05
2.35298e-05
2.75788e-05
3.72494e-05
3.72536e-05
2.24426e-05
3.72442e-05
3.72484e-05
2.80907e-05
6.97311e-05
2.80953e-05
6.97388e-05
7.57421e-05
7.57548e-05
2.80928e-05
6.97343e-05
2.80972e-05
6.97419e-05
2.3886e-05
2.38859e-05
2.3886e-05
2.38857e-05
2.38853e-05
2.38855e-05
2.38853e-05
2.16998e-05
2.75861e-05
2.35298e-05
2.31329e-05
2.17015e-05
2.75748e-05
2.35297e-05
7.5739e-05
7.57533e-05
2.1699e-05
2.35296e-05
2.75866e-05
2.31328e-05
2.17006e-05
2.35295e-05
2.75757e-05
3.72502e-05
3.72543e-05
2.24421e-05
3.72461e-05
3.72501e-05
2.80882e-05
6.97337e-05
2.80933e-05
6.97477e-05
7.57339e-05
7.57507e-05
2.8091e-05
6.97373e-05
2.80956e-05
6.97515e-05
2.38842e-05
2.38851e-05
2.38844e-05
2.38812e-05
2.38805e-05
2.38812e-05
2.38806e-05
2.16944e-05
2.7583e-05
2.35277e-05
2.31288e-05
2.16983e-05
2.75662e-05
2.35263e-05
7.57339e-05
7.57508e-05
2.16938e-05
2.35282e-05
2.75844e-05
2.31303e-05
2.16976e-05
2.35268e-05
2.75682e-05
3.72531e-05
3.72568e-05
2.2438e-05
3.72493e-05
3.72529e-05
2.80874e-05
6.97348e-05
2.80902e-05
6.97567e-05
7.57138e-05
7.57373e-05
2.80896e-05
6.97391e-05
2.80924e-05
6.97612e-05
2.38801e-05
2.38804e-05
2.38801e-05
2.38797e-05
2.38797e-05
2.38795e-05
2.38796e-05
2.16908e-05
2.75787e-05
2.35233e-05
2.3126e-05
2.16941e-05
2.75583e-05
2.35231e-05
7.57146e-05
7.5738e-05
2.16899e-05
2.35234e-05
2.75808e-05
2.3126e-05
2.16933e-05
2.3523e-05
2.75607e-05
3.72529e-05
3.72564e-05
2.24345e-05
3.72487e-05
3.72521e-05
2.80914e-05
6.9719e-05
2.80903e-05
6.97544e-05
7.56754e-05
7.57053e-05
2.80931e-05
6.97233e-05
2.80918e-05
6.97585e-05
2.38798e-05
2.38797e-05
2.38798e-05
2.388e-05
2.38799e-05
2.38798e-05
2.38799e-05
2.16893e-05
2.75909e-05
2.35232e-05
2.31262e-05
2.16946e-05
2.75615e-05
2.35232e-05
7.5677e-05
7.57062e-05
2.16885e-05
2.3523e-05
2.75931e-05
2.3126e-05
2.16937e-05
2.3523e-05
2.75635e-05
3.72468e-05
3.72498e-05
2.24344e-05
3.7243e-05
3.7246e-05
2.80921e-05
6.96752e-05
2.80872e-05
6.97324e-05
7.55927e-05
7.56215e-05
2.8094e-05
6.96792e-05
2.80887e-05
6.97362e-05
2.38804e-05
2.38802e-05
2.38803e-05
2.38893e-05
2.38893e-05
2.38892e-05
2.38893e-05
2.16859e-05
2.762e-05
2.35245e-05
2.31304e-05
2.1696e-05
2.75384e-05
2.35235e-05
7.55932e-05
7.56216e-05
2.16851e-05
2.35243e-05
2.76214e-05
2.31302e-05
2.16952e-05
2.35234e-05
2.75392e-05
3.72241e-05
3.72271e-05
2.24397e-05
3.71988e-05
3.72016e-05
2.49394e-05
6.78233e-05
2.78998e-05
6.12781e-05
7.19587e-05
4.98461e-05
2.49408e-05
6.78292e-05
2.7902e-05
6.12838e-05
2.42714e-05
2.41286e-05
2.41287e-05
2.38234e-05
2.42649e-05
2.40991e-05
2.40991e-05
2.1705e-05
2.71501e-05
2.35736e-05
2.3215e-05
2.1715e-05
3.02178e-05
2.3656e-05
7.19585e-05
4.98448e-05
2.17045e-05
2.35735e-05
2.715e-05
2.3215e-05
2.17144e-05
2.36559e-05
3.02166e-05
3.73496e-05
3.73522e-05
2.26299e-05
3.48317e-05
3.48318e-05
6.97335e-05
2.75756e-05
7.57458e-05
3.72373e-05
3.72283e-05
7.57414e-05
2.75729e-05
6.97301e-05
7.57462e-05
7.57446e-05
7.57448e-05
3.72372e-05
2.24368e-05
3.72342e-05
3.72363e-05
7.57424e-05
7.57435e-05
7.57421e-05
7.57437e-05
2.24331e-05
3.72359e-05
3.72382e-05
3.72368e-05
3.72391e-05
2.80845e-05
6.97351e-05
2.80862e-05
6.97326e-05
2.16982e-05
2.75793e-05
2.35299e-05
2.31323e-05
2.16985e-05
2.7575e-05
2.35299e-05
2.16984e-05
2.75816e-05
2.353e-05
2.31322e-05
2.16987e-05
2.75771e-05
2.353e-05
2.80874e-05
6.97282e-05
6.97307e-05
2.80855e-05
2.80879e-05
6.97318e-05
6.97342e-05
2.8086e-05
2.1699e-05
2.31322e-05
2.75762e-05
2.35299e-05
2.75808e-05
2.35299e-05
2.16987e-05
2.16991e-05
2.31322e-05
2.75783e-05
2.353e-05
2.7583e-05
2.353e-05
2.16988e-05
3.72403e-05
3.72317e-05
2.24391e-05
3.72396e-05
3.72308e-05
7.57407e-05
7.57392e-05
7.57413e-05
7.57422e-05
2.24358e-05
3.72416e-05
3.72326e-05
3.72424e-05
3.72338e-05
7.57375e-05
7.57384e-05
2.1699e-05
2.31328e-05
2.75755e-05
2.35299e-05
2.80845e-05
6.97279e-05
2.16987e-05
2.31318e-05
2.35297e-05
2.7574e-05
2.80881e-05
6.97311e-05
6.97335e-05
2.80867e-05
2.16997e-05
2.31327e-05
2.75768e-05
2.35299e-05
2.75813e-05
2.35299e-05
2.16994e-05
2.80876e-05
6.97269e-05
6.97295e-05
2.80862e-05
2.16994e-05
2.31318e-05
2.35297e-05
2.75755e-05
2.35297e-05
2.75802e-05
2.16991e-05
2.80844e-05
6.97319e-05
2.8086e-05
6.97293e-05
2.16982e-05
2.35299e-05
2.75791e-05
2.31324e-05
2.16985e-05
2.35299e-05
2.75747e-05
2.80843e-05
6.97331e-05
2.80859e-05
6.97305e-05
2.16989e-05
2.31329e-05
2.75756e-05
2.353e-05
2.75804e-05
2.353e-05
2.16986e-05
2.80877e-05
6.97285e-05
6.9731e-05
2.80858e-05
2.1699e-05
2.31323e-05
2.35299e-05
2.7576e-05
2.35299e-05
2.75805e-05
2.16987e-05
2.80877e-05
6.97296e-05
6.97321e-05
2.80858e-05
2.24355e-05
3.72312e-05
3.72331e-05
7.57458e-05
7.57387e-05
7.57402e-05
2.2432e-05
3.72337e-05
3.72351e-05
3.72345e-05
3.72359e-05
7.5743e-05
7.57446e-05
2.16973e-05
2.35298e-05
2.758e-05
2.31328e-05
2.16976e-05
2.35298e-05
2.75756e-05
2.8083e-05
2.8085e-05
6.97307e-05
2.80828e-05
6.97357e-05
2.80848e-05
6.97332e-05
2.16981e-05
2.31327e-05
2.35297e-05
2.75755e-05
2.35298e-05
2.75799e-05
2.16978e-05
2.1698e-05
2.31328e-05
2.35297e-05
2.75769e-05
2.35297e-05
2.75815e-05
2.16976e-05
2.80866e-05
6.97299e-05
6.97323e-05
2.80844e-05
2.80865e-05
6.97323e-05
6.97347e-05
2.80842e-05
7.57457e-05
7.57442e-05
7.5745e-05
7.57435e-05
2.24377e-05
3.72362e-05
3.724e-05
3.7237e-05
3.72409e-05
7.5742e-05
7.57431e-05
7.57413e-05
7.57424e-05
7.57416e-05
7.57409e-05
7.57412e-05
7.57403e-05
3.72386e-05
3.72409e-05
2.24391e-05
3.72378e-05
3.72401e-05
7.57401e-05
7.57403e-05
7.57392e-05
7.57396e-05
2.24354e-05
3.72395e-05
3.7242e-05
3.72404e-05
3.72428e-05
2.80872e-05
6.97334e-05
2.80893e-05
6.97312e-05
2.16991e-05
2.7582e-05
2.353e-05
2.31322e-05
2.16994e-05
2.75773e-05
2.353e-05
2.16993e-05
2.75842e-05
2.353e-05
2.31323e-05
2.16995e-05
2.75794e-05
2.353e-05
2.809e-05
6.97273e-05
6.97293e-05
2.80878e-05
2.80905e-05
6.9731e-05
6.97329e-05
2.80883e-05
2.16998e-05
2.31322e-05
2.75782e-05
2.35299e-05
2.7583e-05
2.35299e-05
2.16996e-05
2.17e-05
2.31323e-05
2.75803e-05
2.35299e-05
2.75852e-05
2.35299e-05
2.16997e-05
3.72444e-05
3.72355e-05
2.24418e-05
3.72435e-05
3.72342e-05
7.57369e-05
7.57365e-05
7.57396e-05
7.57397e-05
2.24377e-05
3.72449e-05
3.72354e-05
3.72461e-05
3.72371e-05
7.57359e-05
7.57361e-05
2.16998e-05
2.75825e-05
2.353e-05
2.31327e-05
2.17001e-05
2.75779e-05
2.35299e-05
2.80876e-05
6.97286e-05
2.80893e-05
6.97261e-05
2.16996e-05
2.35297e-05
2.75816e-05
2.31319e-05
2.16998e-05
2.35297e-05
2.75767e-05
2.80911e-05
6.97302e-05
6.97323e-05
2.80892e-05
2.17005e-05
2.31327e-05
2.75789e-05
2.35299e-05
2.75836e-05
2.35299e-05
2.17002e-05
2.80906e-05
6.97256e-05
6.97278e-05
2.80888e-05
2.17002e-05
2.31319e-05
2.35297e-05
2.75778e-05
2.35297e-05
2.75828e-05
2.16999e-05
2.80871e-05
6.97303e-05
2.80891e-05
6.97279e-05
2.16991e-05
2.35299e-05
2.75818e-05
2.31324e-05
2.16994e-05
2.35299e-05
2.75771e-05
2.8087e-05
6.97312e-05
2.80891e-05
6.9729e-05
2.16998e-05
2.31331e-05
2.75775e-05
2.353e-05
2.75826e-05
2.35301e-05
2.16995e-05
2.80903e-05
6.97277e-05
6.97298e-05
2.80882e-05
2.16998e-05
2.31324e-05
2.35299e-05
2.7578e-05
2.35299e-05
2.75828e-05
2.16996e-05
2.80903e-05
6.97286e-05
6.97306e-05
2.80881e-05
3.72367e-05
3.72377e-05
2.24414e-05
3.72356e-05
3.7237e-05
7.57421e-05
7.57412e-05
7.57361e-05
7.57366e-05
2.24375e-05
3.72371e-05
3.72389e-05
3.72385e-05
3.72397e-05
7.574e-05
7.57405e-05
2.1698e-05
2.35298e-05
2.75827e-05
2.31329e-05
2.16984e-05
2.35298e-05
2.7578e-05
2.80856e-05
6.97315e-05
2.8088e-05
6.97293e-05
2.80854e-05
6.97339e-05
2.80878e-05
6.97317e-05
2.16989e-05
2.31328e-05
2.35298e-05
2.75779e-05
2.35298e-05
2.75825e-05
2.16986e-05
2.16988e-05
2.31328e-05
2.35297e-05
2.75789e-05
2.35298e-05
2.75838e-05
2.16984e-05
2.80892e-05
6.97289e-05
6.97309e-05
2.80867e-05
2.80889e-05
6.97314e-05
6.97333e-05
2.80864e-05
7.57412e-05
7.57405e-05
7.57405e-05
7.57398e-05
2.24377e-05
3.72398e-05
3.72437e-05
3.72408e-05
3.72446e-05
7.57397e-05
7.57399e-05
7.5739e-05
7.57392e-05
7.57396e-05
7.57397e-05
7.57386e-05
7.57386e-05
3.72421e-05
3.72446e-05
2.24413e-05
3.72409e-05
3.72435e-05
7.57395e-05
7.57393e-05
7.57383e-05
7.57382e-05
2.24376e-05
3.72418e-05
3.72447e-05
3.72434e-05
3.72461e-05
2.80893e-05
6.97327e-05
2.80915e-05
6.97309e-05
2.17e-05
2.75839e-05
2.353e-05
2.31324e-05
2.17003e-05
2.75791e-05
2.353e-05
2.17001e-05
2.7586e-05
2.353e-05
2.31324e-05
2.17004e-05
2.7581e-05
2.353e-05
2.80919e-05
6.97274e-05
6.97291e-05
2.80896e-05
2.80924e-05
6.97309e-05
6.97326e-05
2.809e-05
2.17007e-05
2.31324e-05
2.75797e-05
2.353e-05
2.75847e-05
2.353e-05
2.17003e-05
2.17008e-05
2.31324e-05
2.75815e-05
2.35299e-05
2.75866e-05
2.35299e-05
2.17005e-05
3.72475e-05
3.72382e-05
2.2442e-05
3.72459e-05
3.72364e-05
7.57355e-05
7.57355e-05
7.57392e-05
7.57388e-05
2.24381e-05
3.72466e-05
3.72371e-05
3.72484e-05
3.72391e-05
7.57353e-05
7.57352e-05
2.17006e-05
2.75846e-05
2.353e-05
2.31329e-05
2.17009e-05
2.75798e-05
2.353e-05
2.80898e-05
6.97275e-05
2.80918e-05
6.97255e-05
2.17003e-05
2.35298e-05
2.75838e-05
2.3132e-05
2.17006e-05
2.35298e-05
2.75787e-05
2.80932e-05
6.97301e-05
6.9732e-05
2.80911e-05
2.17012e-05
2.31329e-05
2.75806e-05
2.35299e-05
2.75855e-05
2.353e-05
2.17009e-05
2.80928e-05
6.97255e-05
6.97274e-05
2.80907e-05
2.1701e-05
2.3132e-05
2.35297e-05
2.75794e-05
2.35297e-05
2.75847e-05
2.17006e-05
2.80891e-05
6.97296e-05
2.80914e-05
6.97276e-05
2.17e-05
2.353e-05
2.75837e-05
2.31325e-05
2.17003e-05
2.353e-05
2.75788e-05
2.8089e-05
6.97303e-05
2.80913e-05
6.97285e-05
2.17006e-05
2.31332e-05
2.75787e-05
2.353e-05
2.7584e-05
2.35301e-05
2.17003e-05
2.80923e-05
6.97275e-05
6.97295e-05
2.80899e-05
2.17007e-05
2.31325e-05
2.35299e-05
2.75794e-05
2.35299e-05
2.75845e-05
2.17003e-05
2.80922e-05
6.97285e-05
6.97303e-05
2.80898e-05
3.724e-05
3.72415e-05
2.24414e-05
3.72384e-05
3.72404e-05
7.57395e-05
7.57394e-05
7.57352e-05
7.57352e-05
2.24375e-05
3.72393e-05
3.72416e-05
3.72412e-05
3.72429e-05
7.57392e-05
7.5739e-05
2.16988e-05
2.35298e-05
2.75847e-05
2.31329e-05
2.16992e-05
2.35298e-05
2.75797e-05
2.80876e-05
6.97306e-05
2.80902e-05
6.97288e-05
2.80873e-05
6.97332e-05
2.80899e-05
6.97314e-05
2.16997e-05
2.31329e-05
2.35297e-05
2.75795e-05
2.35298e-05
2.75844e-05
2.16993e-05
2.16996e-05
2.31329e-05
2.35297e-05
2.75804e-05
2.35297e-05
2.75854e-05
2.16992e-05
2.80911e-05
6.97288e-05
6.97306e-05
2.80884e-05
2.80908e-05
6.97315e-05
6.97332e-05
2.80881e-05
7.57392e-05
7.57393e-05
7.57385e-05
7.57386e-05
2.24379e-05
3.7242e-05
3.72459e-05
3.72436e-05
3.72475e-05
7.57391e-05
7.57389e-05
7.57385e-05
7.57382e-05
7.57392e-05
7.57396e-05
7.57379e-05
7.57382e-05
3.72441e-05
3.7247e-05
2.24422e-05
3.72423e-05
3.72453e-05
7.574e-05
7.57392e-05
7.57386e-05
7.57378e-05
2.24383e-05
3.72427e-05
3.72456e-05
3.72445e-05
3.72475e-05
2.80907e-05
6.97326e-05
2.80932e-05
6.9731e-05
2.17006e-05
2.75853e-05
2.35302e-05
2.31326e-05
2.1701e-05
2.75801e-05
2.35302e-05
2.17008e-05
2.75871e-05
2.35301e-05
2.31326e-05
2.17012e-05
2.75819e-05
2.35301e-05
2.80934e-05
6.97279e-05
6.97293e-05
2.80908e-05
2.80938e-05
6.97313e-05
6.97327e-05
2.80912e-05
2.17013e-05
2.31326e-05
2.75804e-05
2.35301e-05
2.75857e-05
2.35301e-05
2.17009e-05
2.17015e-05
2.31326e-05
2.75821e-05
2.35301e-05
2.75875e-05
2.35301e-05
2.17011e-05
3.7249e-05
3.72398e-05
2.24423e-05
3.72471e-05
3.72378e-05
7.5735e-05
7.57354e-05
7.57399e-05
7.5739e-05
2.24383e-05
3.72476e-05
3.72384e-05
3.72495e-05
3.72405e-05
7.57359e-05
7.57351e-05
2.17012e-05
2.75861e-05
2.353e-05
2.31331e-05
2.17016e-05
2.75811e-05
2.353e-05
2.80914e-05
6.97274e-05
2.80936e-05
6.97256e-05
2.17009e-05
2.35298e-05
2.75853e-05
2.31322e-05
2.17013e-05
2.35298e-05
2.75799e-05
2.80947e-05
6.97306e-05
6.97321e-05
2.80924e-05
2.17019e-05
2.31331e-05
2.75814e-05
2.353e-05
2.75866e-05
2.353e-05
2.17015e-05
2.80943e-05
6.97259e-05
6.97274e-05
2.8092e-05
2.17016e-05
2.31322e-05
2.35298e-05
2.75803e-05
2.35298e-05
2.75858e-05
2.17012e-05
2.80905e-05
6.97294e-05
2.8093e-05
6.97276e-05
2.17006e-05
2.353e-05
2.7585e-05
2.31326e-05
2.1701e-05
2.353e-05
2.75798e-05
2.80904e-05
6.97302e-05
2.80929e-05
6.97285e-05
2.17013e-05
2.31333e-05
2.75794e-05
2.353e-05
2.75849e-05
2.35301e-05
2.17008e-05
2.80937e-05
6.9728e-05
6.97295e-05
2.80911e-05
2.17013e-05
2.31326e-05
2.35299e-05
2.75801e-05
2.35299e-05
2.75854e-05
2.17009e-05
2.80936e-05
6.97289e-05
6.97302e-05
2.8091e-05
3.7242e-05
3.72439e-05
2.24417e-05
3.724e-05
3.72422e-05
7.57388e-05
7.57391e-05
7.57354e-05
7.57348e-05
2.24377e-05
3.72406e-05
3.72426e-05
3.72426e-05
3.72445e-05
7.57395e-05
7.57387e-05
2.16995e-05
2.35298e-05
2.7586e-05
2.3133e-05
2.16999e-05
2.35298e-05
2.75808e-05
2.8089e-05
6.97306e-05
2.80918e-05
6.9729e-05
2.80887e-05
6.97332e-05
2.80915e-05
6.97315e-05
2.17003e-05
2.31329e-05
2.35298e-05
2.75803e-05
2.35298e-05
2.75856e-05
2.16999e-05
2.17002e-05
2.3133e-05
2.35297e-05
2.7581e-05
2.35297e-05
2.75864e-05
2.16997e-05
2.80924e-05
6.97293e-05
6.97307e-05
2.80895e-05
2.80922e-05
6.97318e-05
6.97332e-05
2.80893e-05
7.57387e-05
7.57391e-05
7.57381e-05
7.57385e-05
2.24381e-05
3.72427e-05
3.72467e-05
3.72447e-05
3.72486e-05
7.57396e-05
7.57388e-05
7.57389e-05
7.57381e-05
7.57395e-05
7.57413e-05
7.5738e-05
7.57397e-05
3.7245e-05
3.72478e-05
2.24425e-05
3.72432e-05
3.7246e-05
7.57438e-05
7.57401e-05
7.57422e-05
7.57385e-05
2.24386e-05
3.7244e-05
3.72466e-05
3.72457e-05
3.72484e-05
2.80916e-05
6.97328e-05
2.80943e-05
6.97322e-05
2.17012e-05
2.75859e-05
2.35302e-05
2.31328e-05
2.17016e-05
2.75804e-05
2.35302e-05
2.17013e-05
2.75876e-05
2.35301e-05
2.31327e-05
2.17017e-05
2.75821e-05
2.35301e-05
2.80942e-05
6.97298e-05
6.97297e-05
2.80913e-05
2.80946e-05
6.97334e-05
6.97332e-05
2.80917e-05
2.17019e-05
2.31328e-05
2.758e-05
2.35302e-05
2.7586e-05
2.35302e-05
2.17014e-05
2.1702e-05
2.31327e-05
2.75816e-05
2.35301e-05
2.75877e-05
2.35301e-05
2.17015e-05
3.725e-05
3.72411e-05
2.24425e-05
3.72482e-05
3.72391e-05
7.57355e-05
7.57373e-05
7.57438e-05
7.574e-05
2.24385e-05
3.72487e-05
3.72397e-05
3.72507e-05
3.72419e-05
7.57401e-05
7.57363e-05
2.17017e-05
2.75868e-05
2.35301e-05
2.31333e-05
2.17022e-05
2.75813e-05
2.35301e-05
2.80924e-05
6.97275e-05
2.80949e-05
6.97266e-05
2.17015e-05
2.35299e-05
2.75861e-05
2.31323e-05
2.17019e-05
2.35299e-05
2.75803e-05
2.80956e-05
6.97325e-05
6.97325e-05
2.80929e-05
2.17024e-05
2.31333e-05
2.7581e-05
2.35301e-05
2.75869e-05
2.35301e-05
2.17019e-05
2.80952e-05
6.97276e-05
6.97277e-05
2.80925e-05
2.17021e-05
2.31323e-05
2.35298e-05
2.75799e-05
2.35298e-05
2.75862e-05
2.17016e-05
2.80914e-05
6.97296e-05
2.80942e-05
6.97289e-05
2.17011e-05
2.353e-05
2.75856e-05
2.31327e-05
2.17015e-05
2.353e-05
2.758e-05
2.80913e-05
6.97303e-05
2.80941e-05
6.97296e-05
2.17017e-05
2.31334e-05
2.75789e-05
2.35301e-05
2.75852e-05
2.35301e-05
2.17011e-05
2.80944e-05
6.973e-05
6.973e-05
2.80915e-05
2.17017e-05
2.31327e-05
2.353e-05
2.75796e-05
2.353e-05
2.75856e-05
2.17012e-05
2.80944e-05
6.97308e-05
6.97306e-05
2.80914e-05
3.72434e-05
3.72449e-05
2.24419e-05
3.72414e-05
3.7243e-05
7.57389e-05
7.57406e-05
7.57391e-05
7.57354e-05
2.2438e-05
3.72421e-05
3.72437e-05
3.72442e-05
3.72455e-05
7.57432e-05
7.57395e-05
2.16999e-05
2.35298e-05
2.75866e-05
2.31331e-05
2.17005e-05
2.35298e-05
2.7581e-05
2.80899e-05
6.97307e-05
2.80929e-05
6.973e-05
2.80896e-05
6.97332e-05
2.80927e-05
6.97325e-05
2.17007e-05
2.31331e-05
2.35299e-05
2.75798e-05
2.35299e-05
2.75858e-05
2.17001e-05
2.17006e-05
2.31331e-05
2.35298e-05
2.75805e-05
2.35298e-05
2.75866e-05
2.17e-05
2.80932e-05
6.97311e-05
6.9731e-05
2.809e-05
2.80929e-05
6.97336e-05
6.97334e-05
2.80897e-05
7.5739e-05
7.57408e-05
7.57384e-05
7.57402e-05
2.24383e-05
3.72438e-05
3.72479e-05
3.72457e-05
3.72497e-05
7.57434e-05
7.57396e-05
7.57427e-05
7.5739e-05
7.5741e-05
7.5747e-05
7.57394e-05
7.57454e-05
3.72468e-05
3.72495e-05
2.24428e-05
3.72445e-05
3.72472e-05
7.57493e-05
7.57419e-05
7.57476e-05
7.57403e-05
2.24388e-05
3.72447e-05
3.72476e-05
3.72482e-05
3.7251e-05
2.80914e-05
6.9734e-05
2.80945e-05
6.97351e-05
2.17015e-05
2.75861e-05
2.35304e-05
2.3133e-05
2.17021e-05
2.75795e-05
2.35304e-05
2.17016e-05
2.75878e-05
2.35303e-05
2.31328e-05
2.17022e-05
2.75811e-05
2.35303e-05
2.80943e-05
6.9732e-05
6.97308e-05
2.80908e-05
2.80947e-05
6.97361e-05
6.97347e-05
2.80912e-05
2.17023e-05
2.3133e-05
2.75793e-05
2.35302e-05
2.75866e-05
2.35303e-05
2.17016e-05
2.17024e-05
2.31328e-05
2.75808e-05
2.35302e-05
2.75882e-05
2.35303e-05
2.17017e-05
3.72517e-05
3.72429e-05
2.24427e-05
3.72491e-05
3.72402e-05
7.57374e-05
7.57432e-05
7.57494e-05
7.57418e-05
2.24388e-05
3.7249e-05
3.724e-05
3.72529e-05
3.72442e-05
7.57457e-05
7.57383e-05
2.1702e-05
2.7587e-05
2.35302e-05
2.31334e-05
2.17026e-05
2.75805e-05
2.35302e-05
2.80922e-05
6.97285e-05
2.80951e-05
6.97292e-05
2.17017e-05
2.35299e-05
2.75863e-05
2.31324e-05
2.17023e-05
2.35299e-05
2.75794e-05
2.80956e-05
6.97352e-05
6.97339e-05
2.80924e-05
2.17028e-05
2.31334e-05
2.75804e-05
2.35301e-05
2.75876e-05
2.35301e-05
2.17021e-05
2.80953e-05
6.97301e-05
6.97289e-05
2.8092e-05
2.17025e-05
2.31324e-05
2.35299e-05
2.75793e-05
2.35299e-05
2.75869e-05
2.17018e-05
2.80912e-05
6.9731e-05
2.80943e-05
6.97318e-05
2.17013e-05
2.35301e-05
2.75857e-05
2.31328e-05
2.17019e-05
2.35301e-05
2.75791e-05
2.80911e-05
6.97314e-05
2.80942e-05
6.97324e-05
2.1702e-05
2.31334e-05
2.75781e-05
2.35301e-05
2.75857e-05
2.35302e-05
2.17012e-05
2.80944e-05
6.97328e-05
6.97316e-05
2.80909e-05
2.17021e-05
2.31328e-05
2.35301e-05
2.75789e-05
2.35301e-05
2.75862e-05
2.17013e-05
2.80944e-05
6.97333e-05
6.9732e-05
2.80909e-05
3.72453e-05
3.72466e-05
2.24422e-05
3.72426e-05
3.72443e-05
7.57403e-05
7.57463e-05
7.57445e-05
7.57373e-05
2.24383e-05
3.72427e-05
3.72445e-05
3.72466e-05
3.7248e-05
7.57486e-05
7.57413e-05
2.17001e-05
2.353e-05
2.75867e-05
2.31333e-05
2.17008e-05
2.353e-05
2.75801e-05
2.80897e-05
6.97318e-05
2.8093e-05
6.97327e-05
2.80894e-05
6.97342e-05
2.80928e-05
6.97351e-05
2.1701e-05
2.31332e-05
2.35298e-05
2.75791e-05
2.35299e-05
2.75864e-05
2.17002e-05
2.1701e-05
2.31333e-05
2.353e-05
2.75798e-05
2.353e-05
2.75872e-05
2.17002e-05
2.80932e-05
6.97335e-05
6.97323e-05
2.80895e-05
2.8093e-05
6.9736e-05
6.97348e-05
2.80892e-05
7.57405e-05
7.57465e-05
7.57399e-05
7.57458e-05
2.24385e-05
3.72444e-05
3.72486e-05
3.72481e-05
3.72521e-05
7.57488e-05
7.57415e-05
7.57481e-05
7.57408e-05
7.57423e-05
7.57518e-05
7.57405e-05
7.575e-05
3.72492e-05
3.72523e-05
2.2443e-05
3.72444e-05
3.72478e-05
7.57544e-05
7.57426e-05
7.57532e-05
7.5741e-05
2.24391e-05
3.72449e-05
3.72483e-05
3.72498e-05
3.72532e-05
2.80919e-05
6.97344e-05
2.80959e-05
6.97372e-05
2.17015e-05
2.75873e-05
2.35302e-05
2.31331e-05
2.17026e-05
2.7579e-05
2.35301e-05
2.17017e-05
2.75889e-05
2.35301e-05
2.3133e-05
2.17027e-05
2.75806e-05
2.353e-05
2.80964e-05
6.97352e-05
6.97301e-05
2.80916e-05
2.80968e-05
6.97397e-05
6.97346e-05
2.80921e-05
2.17025e-05
2.31331e-05
2.75781e-05
2.35298e-05
2.75875e-05
2.35299e-05
2.1701e-05
2.17026e-05
2.31329e-05
2.75796e-05
2.35298e-05
2.75891e-05
2.35299e-05
2.17012e-05
3.72536e-05
3.72449e-05
2.24429e-05
3.72489e-05
3.724e-05
7.57388e-05
7.57479e-05
7.57536e-05
7.57422e-05
2.24389e-05
3.72498e-05
3.72409e-05
3.72545e-05
3.72458e-05
7.57501e-05
7.57387e-05
2.17022e-05
2.75884e-05
2.35302e-05
2.31335e-05
2.17031e-05
2.75802e-05
2.35302e-05
2.80928e-05
6.97285e-05
2.80965e-05
6.97307e-05
2.1702e-05
2.35301e-05
2.75876e-05
2.31325e-05
2.17029e-05
2.35301e-05
2.7579e-05
2.8098e-05
6.97382e-05
6.97333e-05
2.80937e-05
2.17033e-05
2.31335e-05
2.75794e-05
2.35302e-05
2.75887e-05
2.35302e-05
2.1702e-05
2.80976e-05
6.9733e-05
6.97281e-05
2.80934e-05
2.1703e-05
2.31325e-05
2.35298e-05
2.75782e-05
2.353e-05
2.75879e-05
2.17018e-05
2.80916e-05
6.97313e-05
2.80956e-05
6.9734e-05
2.17014e-05
2.35302e-05
2.75869e-05
2.3133e-05
2.17024e-05
2.35302e-05
2.75786e-05
2.80916e-05
6.97315e-05
2.80956e-05
6.97341e-05
2.17023e-05
2.31332e-05
2.75769e-05
2.35298e-05
2.75866e-05
2.35299e-05
2.1701e-05
2.80966e-05
6.97365e-05
6.97315e-05
2.80919e-05
2.17024e-05
2.31329e-05
2.35299e-05
2.75777e-05
2.35301e-05
2.75871e-05
2.17009e-05
2.80965e-05
6.97365e-05
6.97314e-05
2.80918e-05
3.72477e-05
3.72492e-05
2.24424e-05
3.72426e-05
3.72445e-05
7.57415e-05
7.5751e-05
7.57501e-05
7.5738e-05
2.24384e-05
3.7243e-05
3.72445e-05
3.72483e-05
3.72498e-05
7.57543e-05
7.5742e-05
2.17003e-05
2.353e-05
2.75879e-05
2.31334e-05
2.17013e-05
2.353e-05
2.75796e-05
2.809e-05
6.97317e-05
2.80941e-05
6.97341e-05
2.80899e-05
6.97343e-05
2.80942e-05
6.97369e-05
2.17014e-05
2.31331e-05
2.35296e-05
2.75778e-05
2.35297e-05
2.75873e-05
2.17001e-05
2.17013e-05
2.31334e-05
2.35297e-05
2.75787e-05
2.35298e-05
2.75882e-05
2.16999e-05
2.80949e-05
6.97363e-05
6.97313e-05
2.809e-05
2.80952e-05
6.97393e-05
6.97342e-05
2.80902e-05
7.57418e-05
7.57513e-05
7.57411e-05
7.57505e-05
2.24387e-05
3.72447e-05
3.72489e-05
3.72496e-05
3.72538e-05
7.57539e-05
7.57421e-05
7.57532e-05
7.57414e-05
7.57432e-05
7.57556e-05
7.57421e-05
7.5755e-05
3.72498e-05
3.72533e-05
2.24428e-05
3.72462e-05
3.72494e-05
7.57546e-05
7.57406e-05
7.57541e-05
7.57402e-05
2.24386e-05
3.72479e-05
3.72511e-05
3.72513e-05
3.72545e-05
2.80912e-05
6.97356e-05
2.80958e-05
6.97429e-05
2.16998e-05
2.75869e-05
2.35298e-05
2.31327e-05
2.17018e-05
2.7576e-05
2.35297e-05
2.16999e-05
2.75885e-05
2.35298e-05
2.31323e-05
2.17019e-05
2.75774e-05
2.35297e-05
2.80946e-05
6.97428e-05
6.97326e-05
2.80898e-05
2.80951e-05
6.97466e-05
6.97366e-05
2.80903e-05
2.17007e-05
2.31325e-05
2.75727e-05
2.35291e-05
2.75861e-05
2.35295e-05
2.16977e-05
2.17009e-05
2.3132e-05
2.75738e-05
2.35289e-05
2.75875e-05
2.35294e-05
2.16978e-05
3.72549e-05
3.72463e-05
2.24421e-05
3.72504e-05
3.72416e-05
7.57391e-05
7.57526e-05
7.57539e-05
7.57398e-05
2.24377e-05
3.7251e-05
3.72427e-05
3.72553e-05
3.72468e-05
7.57528e-05
7.57381e-05
2.1701e-05
2.75882e-05
2.35302e-05
2.31335e-05
2.17028e-05
2.75774e-05
2.35301e-05
2.80924e-05
6.97292e-05
2.80968e-05
6.97368e-05
2.17008e-05
2.35298e-05
2.75873e-05
2.31322e-05
2.17026e-05
2.35296e-05
2.75762e-05
2.80964e-05
6.97462e-05
6.97358e-05
2.80922e-05
2.17021e-05
2.31333e-05
2.75745e-05
2.35296e-05
2.75875e-05
2.353e-05
2.16995e-05
2.8096e-05
6.97412e-05
6.97308e-05
2.80919e-05
2.17018e-05
2.3132e-05
2.35293e-05
2.75734e-05
2.35295e-05
2.75867e-05
2.16993e-05
2.8091e-05
6.97325e-05
2.80956e-05
6.97397e-05
2.16997e-05
2.35299e-05
2.75865e-05
2.31325e-05
2.17017e-05
2.35297e-05
2.75756e-05
2.8091e-05
6.97325e-05
2.80955e-05
6.97401e-05
2.17007e-05
2.31326e-05
2.75712e-05
2.3529e-05
2.75851e-05
2.35295e-05
2.16977e-05
2.80949e-05
6.97435e-05
6.97335e-05
2.80902e-05