/*--------------------------------*- C++ -*----------------------------------*\
| =========                 |                                                 |
| \\      /  F ield         | OpenFOAM: The Open Source CFD Toolbox           |
|  \\    /   O peration     | Version:  2206                                  |
|   \\  /    A nd           | Website:  www.openfoam.com                      |
|    \\/     M anipulation  |                                                 |
\*---------------------------------------------------------------------------*/
FoamFile
{
    version     2.0;
    format      ascii;
    arch        "LSB;label=32;scalar=64";
    class       surfaceScalarField;
    location    "37";
    object      phi;
}
// * * * * * * * * * * * * * * * * * * * * * * * * * * * * * * * * * * * * * //

dimensions      [0 3 -1 0 0 0 0];

oriented        oriented;

internalField   nonuniform List<scalar> 
83378
(
-0.00109407
-1.21833e-06
-1.97635e-09
3.54409e-09
0.00109407
-2.62781e-07
1.22144e-06
2.61359e-07
9.08055e-07
-2.68371e-07
-9.07497e-07
2.64544e-07
1.24679e-06
1.21303e-06
-2.37412e-07
-2.42728e-07
0.000266667
1.88162e-09
1.98451e-09
-0.00109468
-1.90896e-09
-1.94943e-09
0.00109468
-0.00109407
-1.21831e-06
-2.04853e-09
3.49804e-09
0.00109407
-2.6276e-07
1.22144e-06
2.6137e-07
9.08082e-07
-2.68332e-07
-9.07456e-07
2.64572e-07
-0.00109373
-1.21289e-06
-2.06568e-09
3.54795e-09
0.00109373
-2.62762e-07
1.21596e-06
2.61377e-07
9.07915e-07
-2.70997e-07
-9.07327e-07
2.67272e-07
-0.000268646
1.24678e-06
1.21302e-06
-2.37399e-07
-2.42716e-07
0.000266667
1.93943e-09
2.04988e-09
-0.00109468
-1.93579e-09
-1.98089e-09
0.00109468
-0.00109407
-1.21829e-06
-2.12956e-09
3.45589e-09
0.00109407
-2.62743e-07
1.22145e-06
2.61381e-07
9.08092e-07
-2.68301e-07
-9.07438e-07
2.64596e-07
-0.00109373
-1.21287e-06
-2.13137e-09
3.50791e-09
0.00109373
-2.62744e-07
1.21597e-06
2.61387e-07
9.07919e-07
-2.70964e-07
-9.07313e-07
2.67294e-07
-0.000268646
1.24677e-06
1.213e-06
-2.3738e-07
-2.42703e-07
0.000266667
2.058e-09
2.17605e-09
-0.00109467
-1.99189e-09
-2.0427e-09
0.00109467
-0.00109407
-1.21826e-06
-2.25597e-09
3.37715e-09
0.00109407
-2.62714e-07
1.22146e-06
2.61392e-07
9.08053e-07
-2.6821e-07
-9.07374e-07
2.64558e-07
-0.00109373
-1.21284e-06
-2.24521e-09
3.41806e-09
0.00109373
-2.62713e-07
1.21598e-06
2.61398e-07
9.07876e-07
-2.70881e-07
-9.07254e-07
2.67252e-07
-0.000268646
1.24674e-06
1.21297e-06
-2.37344e-07
-2.42673e-07
0.000266666
2.1912e-09
2.35666e-09
-0.00109467
-2.11377e-09
-2.13055e-09
0.00109467
-0.00109407
-1.21815e-06
-2.37206e-09
3.24894e-09
0.00109407
-2.62658e-07
1.2214e-06
2.61396e-07
9.0758e-07
-2.67417e-07
-9.06909e-07
2.63683e-07
-0.00109373
-1.21274e-06
-2.45131e-09
3.24519e-09
0.00109373
-2.62627e-07
1.21593e-06
2.61409e-07
9.07424e-07
-2.70072e-07
-9.06771e-07
2.66396e-07
-0.000268646
1.24662e-06
1.21285e-06
-2.37173e-07
-2.42495e-07
0.000266666
2.33091e-09
2.47282e-09
-0.00109467
-2.22581e-09
-2.2029e-09
0.00109467
-0.00109407
-1.21791e-06
-2.41808e-09
3.31318e-09
0.00109407
-2.62294e-07
1.22115e-06
2.60909e-07
9.07052e-07
-2.66628e-07
-9.06203e-07
2.63295e-07
-0.00109373
-1.2125e-06
-2.55785e-09
3.29787e-09
0.00109373
-2.62259e-07
1.21568e-06
2.60927e-07
9.06891e-07
-2.69281e-07
-9.06069e-07
2.66007e-07
-0.000268646
1.24639e-06
1.21262e-06
-2.36566e-07
-2.41887e-07
0.000266666
6.06294e-10
7.56513e-10
-0.00109467
-1.35101e-09
-1.30552e-09
0.00109467
-0.00109407
-1.21771e-06
-8.53237e-10
3.54086e-09
0.00109407
-2.61744e-07
1.22083e-06
2.60339e-07
9.07859e-07
-2.66975e-07
-9.0748e-07
2.62737e-07
-0.00109372
-1.2123e-06
-7.83659e-10
3.58162e-09
0.00109372
-2.61673e-07
1.21532e-06
2.60361e-07
9.07631e-07
-2.6963e-07
-9.07378e-07
2.65433e-07
-0.000268646
1.2462e-06
1.21246e-06
-2.36411e-07
-2.41706e-07
0.000266665
-1.60494e-09
-7.38932e-10
-0.00109467
-1.06261e-09
-4.96748e-10
0.00109467
-0.00109407
-1.21743e-06
1.65121e-09
5.11555e-09
0.00109407
-2.60837e-07
1.21954e-06
2.58224e-07
9.04762e-07
-2.6349e-07
-9.05405e-07
2.58183e-07
-0.00109372
-1.21166e-06
9.94265e-10
4.22116e-09
0.00109372
-2.60446e-07
1.21441e-06
2.58547e-07
9.04781e-07
-2.65888e-07
-9.05068e-07
2.61115e-07
-0.000268647
1.24576e-06
1.21206e-06
-2.34933e-07
-2.402e-07
0.000266664
-3.75327e-09
-4.27517e-09
-0.00109467
5.77955e-10
-5.62821e-11
0.00109468
-0.00109407
-1.21597e-06
3.41698e-09
5.46924e-09
0.00109407
-2.58819e-07
1.21826e-06
2.5631e-07
9.01726e-07
-2.59149e-07
-9.02692e-07
2.53045e-07
-0.00109373
-1.21087e-06
4.00811e-09
6.35078e-09
0.00109373
-2.59142e-07
1.2125e-06
2.55939e-07
9.01436e-07
-2.61979e-07
-9.02662e-07
2.55561e-07
-0.000268649
1.24459e-06
1.21075e-06
-2.3262e-07
-2.37988e-07
0.000266665
-8.64237e-09
-8.55914e-09
-0.00109467
1.10414e-09
1.06568e-09
0.00109469
-0.00109408
-1.21415e-06
8.52323e-09
8.92245e-09
0.00109407
-2.55972e-07
1.21528e-06
2.52185e-07
8.94999e-07
-2.50587e-07
-8.97467e-07
2.42984e-07
-0.00109373
-1.2087e-06
8.50317e-09
8.90484e-09
0.00109373
-2.55936e-07
1.20986e-06
2.52248e-07
8.94792e-07
-2.53269e-07
-8.97312e-07
2.45681e-07
-0.000268653
1.2426e-06
1.20881e-06
-2.285e-07
-2.3383e-07
0.000266663
-2.12087e-09
-1.84726e-09
-0.00109467
-4.20094e-09
-9.21115e-09
0.00109469
-0.00109408
-1.20842e-06
7.09965e-09
4.97273e-09
0.00109408
-2.47758e-07
1.20956e-06
2.46711e-07
8.83332e-07
-2.36008e-07
-8.87243e-07
2.24625e-07
-0.00109375
-1.20025e-06
1.8559e-09
1.00176e-08
0.00109375
-2.47649e-07
1.20144e-06
2.44001e-07
8.80457e-07
-2.35927e-07
-8.84342e-07
2.27344e-07
-0.000268663
1.23955e-06
1.20309e-06
-2.16719e-07
-2.21974e-07
0.000266659
8.30281e-07
8.37381e-07
-0.00109453
-7.13286e-07
-7.03064e-07
0.00109428
-0.00109435
-1.10751e-06
-8.31544e-07
-3.64074e-07
0.00109467
-1.57595e-07
1.36477e-06
3.31866e-07
1.02157e-06
-1.18962e-07
-7.68543e-07
3.15961e-07
-0.00109403
-1.09925e-06
-8.42293e-07
-3.75032e-07
0.00109436
-1.57449e-07
1.35946e-06
3.34758e-07
1.01852e-06
-1.24404e-07
-7.6571e-07
3.18703e-07
-0.000268739
1.14135e-06
1.09944e-06
-1.23628e-07
-1.26162e-07
0.000266748
5.01373e-06
5.00704e-06
-0.00108052
-1.06791e-05
-1.05811e-05
0.000262286
0.000265711
0.000264779
0.000264779
4.06709e-06
6.36557e-06
6.66679e-06
4.07087e-06
6.36633e-06
6.67017e-06
-0.000270672
5.1688e-06
-5.00439e-06
5.75803e-06
-3.28042e-06
0.000268029
-0.000270648
-5.00661e-06
5.17407e-06
-3.28835e-06
5.75505e-06
0.000268014
-0.000269212
-5.16576e-06
-5.17688e-06
5.77489e-06
5.76295e-06
0.000268016
1.26072e-06
0.00109372
-1.25766e-06
2.69537e-07
-2.71059e-07
2.67221e-07
-2.71241e-07
-1.22145e-06
0.000268692
-0.000266693
2.40723e-07
2.43015e-07
-1.21833e-06
2.6136e-07
-2.62784e-07
2.64541e-07
-2.68377e-07
-1.25521e-06
-1.21877e-06
0.000268662
-0.000266672
2.37909e-07
2.45769e-07
3.71533e-09
0.00109328
-2.68266e-07
2.66722e-07
9.07949e-07
-2.68358e-07
-9.0747e-07
2.6443e-07
-1.25767e-06
-1.69625e-09
3.7377e-09
0.00109372
-2.71058e-07
1.2607e-06
2.69535e-07
9.13567e-07
-2.71234e-07
-9.13134e-07
2.67226e-07
0.00109328
-1.88448e-09
-0.00109328
3.72568e-09
-1.25218e-06
2.66724e-07
-2.68259e-07
-9.07417e-07
2.64463e-07
-2.6832e-07
9.07991e-07
1.2607e-06
0.00109372
-1.74371e-09
-0.00109372
3.70465e-09
-1.25765e-06
2.69544e-07
-2.71041e-07
-9.13094e-07
2.67248e-07
-2.71204e-07
9.13595e-07
-2.37625e-07
-2.39944e-07
0.000266693
-1.22143e-06
0.000268692
-0.000266693
2.40724e-07
2.43017e-07
0.00109434
-1.97424e-09
-0.00109434
3.51318e-09
-1.2157e-06
2.64182e-07
-2.65586e-07
-9.10206e-07
2.67339e-07
-2.71155e-07
9.10873e-07
1.25526e-06
0.0010934
-1.75992e-09
-0.0010934
3.74504e-09
-1.25225e-06
2.6951e-07
-2.71051e-07
-9.10212e-07
2.67226e-07
-2.71125e-07
9.10698e-07
-1.78308e-09
3.70987e-09
0.00109319
-2.65446e-07
1.24982e-06
2.63973e-07
9.07953e-07
-2.68372e-07
2.64417e-07
-9.07525e-07
-2.02595e-09
-0.00109407
3.51028e-09
-1.21831e-06
2.61367e-07
-2.62765e-07
-9.07459e-07
2.64567e-07
9.08082e-07
-2.68341e-07
1.24983e-06
0.00109319
-1.81893e-09
-0.00109319
3.70914e-09
-1.24679e-06
2.63976e-07
-2.65439e-07
-9.07486e-07
2.64442e-07
-2.68341e-07
9.07983e-07
-1.21596e-06
0.000268641
-0.000266654
2.38103e-07
2.45538e-07
-1.82433e-09
3.52985e-09
0.00109425
-2.62849e-07
1.21605e-06
2.61411e-07
9.08174e-07
-2.71183e-07
2.67288e-07
-9.0761e-07
-2.0489e-09
-0.00109373
3.55829e-09
-1.2129e-06
2.61372e-07
-2.62768e-07
-9.0728e-07
2.67243e-07
9.07967e-07
-2.71031e-07
1.21606e-06
0.00109425
-1.86319e-09
-0.00109425
3.51206e-09
-1.21302e-06
2.61417e-07
-2.6284e-07
-9.07569e-07
2.67314e-07
-2.71151e-07
9.08203e-07
-0.000266667
2.40429e-07
2.4579e-07
1.25217e-06
1.2157e-06
-2.34863e-07
-2.42684e-07
0.000266672
-1.25521e-06
-1.21876e-06
0.000268662
-0.000266672
2.37912e-07
2.45777e-07
3.72013e-09
0.00109328
-2.68253e-07
1.25521e-06
2.66727e-07
9.07978e-07
-2.68312e-07
-9.07425e-07
2.64465e-07
-1.25765e-06
-1.77143e-09
3.69171e-09
0.00109372
-2.71037e-07
1.2607e-06
2.69547e-07
9.13595e-07
-2.71195e-07
-9.13091e-07
2.67254e-07
0.00109328
-1.90812e-09
-0.00109328
3.72684e-09
-1.25216e-06
2.66731e-07
-2.68239e-07
-9.07417e-07
2.64483e-07
-2.68288e-07
9.07984e-07
1.26071e-06
0.00109372
-1.76203e-09
-0.00109372
3.69711e-09
-1.25763e-06
2.69553e-07
-2.71027e-07
-9.13085e-07
2.67264e-07
-2.7118e-07
9.13596e-07
-2.37607e-07
-2.39925e-07
0.000266693
-1.22144e-06
0.000268692
-0.000266693
2.40736e-07
2.43031e-07
3.50541e-09
0.00109434
-2.65579e-07
1.21876e-06
2.64184e-07
9.10877e-07
-2.71149e-07
-9.10196e-07
2.67345e-07
-1.25224e-06
-1.78825e-09
3.74541e-09
0.0010934
-2.71046e-07
1.25526e-06
2.69512e-07
9.10705e-07
-2.71111e-07
-9.10199e-07
2.67237e-07
0.00109434
-2.00858e-09
-0.00109434
3.50656e-09
-1.21568e-06
2.64185e-07
-2.65568e-07
-9.10189e-07
2.67361e-07
-2.71121e-07
9.10876e-07
1.25526e-06
0.00109339
-1.7954e-09
-0.0010934
3.73904e-09
-1.25223e-06
2.69517e-07
-2.71033e-07
-9.10205e-07
2.67249e-07
-2.71089e-07
9.10687e-07
-1.84642e-09
3.70248e-09
0.00109319
-2.65433e-07
1.24983e-06
2.63978e-07
9.07982e-07
-2.68331e-07
2.64447e-07
-9.07482e-07
-2.04822e-09
-0.00109407
3.50667e-09
-1.2183e-06
2.61375e-07
-2.62752e-07
-9.07449e-07
2.64584e-07
9.08084e-07
-2.68316e-07
1.24983e-06
0.00109319
-1.84799e-09
-0.00109319
3.709e-09
-1.24678e-06
2.63982e-07
-2.65426e-07
-9.07475e-07
2.64462e-07
-2.6831e-07
9.07985e-07
-2.35048e-07
-2.42482e-07
0.000266654
-1.21596e-06
0.000268641
-0.000266654
2.38116e-07
2.45548e-07
-1.87305e-09
3.49877e-09
0.00109425
-2.62832e-07
1.21606e-06
2.61421e-07
9.08196e-07
-2.71141e-07
2.67318e-07
-9.07573e-07
-2.08137e-09
-0.00109373
3.5469e-09
-1.21288e-06
2.61379e-07
-2.62751e-07
-9.07269e-07
2.67265e-07
9.07967e-07
-2.70997e-07
1.21607e-06
0.00109425
-1.87251e-09
-0.00109425
3.50338e-09
-1.21301e-06
2.61427e-07
-2.62822e-07
-9.0757e-07
2.67329e-07
-2.71124e-07
9.08196e-07
-0.000266667
2.40442e-07
2.45799e-07
1.25215e-06
1.21568e-06
-2.34843e-07
-2.4266e-07
0.000266672
-1.2552e-06
-1.21876e-06
0.000268662
-0.000266672
2.37911e-07
2.45768e-07
3.6964e-09
0.00109328
-2.68232e-07
1.25521e-06
2.66735e-07
9.0798e-07
-2.68281e-07
-9.07416e-07
2.64484e-07
-1.25763e-06
-1.84383e-09
3.64592e-09
0.00109372
-2.71018e-07
1.26072e-06
2.69559e-07
9.13602e-07
-2.71166e-07
-9.13075e-07
2.67275e-07
0.00109328
-1.86779e-09
-0.00109328
3.77331e-09
-1.25214e-06
2.66718e-07
-2.68226e-07
-9.07376e-07
2.64468e-07
-2.68237e-07
9.07962e-07
1.26071e-06
0.00109372
-1.71741e-09
-0.00109372
3.72589e-09
-1.25761e-06
2.69547e-07
-2.7101e-07
-9.1305e-07
2.67252e-07
-2.71122e-07
9.13567e-07
-2.37589e-07
-2.39904e-07
0.000266693
-1.22144e-06
0.000268691
-0.000266693
2.40735e-07
2.43027e-07
3.47433e-09
0.00109434
-2.6556e-07
1.21876e-06
2.64192e-07
9.10881e-07
-2.71115e-07
-9.10181e-07
2.67366e-07
-1.25222e-06
-1.84911e-09
3.71649e-09
0.00109339
-2.71028e-07
1.25527e-06
2.69524e-07
9.10692e-07
-2.71078e-07
-9.10201e-07
2.67256e-07
0.00109434
-1.94962e-09
-0.00109434
3.53916e-09
-1.21566e-06
2.64182e-07
-2.65549e-07
-9.10163e-07
2.67333e-07
-2.71082e-07
9.1084e-07
1.25526e-06
0.00109339
-1.75489e-09
-0.00109339
3.76655e-09
-1.25221e-06
2.69513e-07
-2.71017e-07
-9.10173e-07
2.67229e-07
-2.71045e-07
9.10663e-07
-1.91685e-09
3.67834e-09
0.00109319
-2.65418e-07
1.24983e-06
2.63987e-07
9.0799e-07
-2.68299e-07
2.64468e-07
-9.07466e-07
-2.0037e-09
-0.00109407
3.54025e-09
-1.21828e-06
2.61368e-07
-2.62737e-07
-9.07413e-07
2.64571e-07
9.08057e-07
-2.68259e-07
1.24982e-06
0.00109319
-1.8081e-09
-0.00109319
3.75823e-09
-1.24676e-06
2.63971e-07
-2.65414e-07
-9.07442e-07
2.64447e-07
-2.6826e-07
9.07955e-07
-2.35032e-07
-2.42466e-07
0.000266654
-1.21596e-06
0.000268641
-0.000266653
2.38115e-07
2.45544e-07
-1.92086e-09
3.46668e-09
0.00109424
-2.62813e-07
1.21607e-06
2.61434e-07
9.08199e-07
-2.71116e-07
2.67333e-07
-9.07564e-07
-2.02822e-09
-0.00109373
3.58167e-09
-1.21286e-06
2.61375e-07
-2.62736e-07
-9.07241e-07
2.67239e-07
9.07934e-07
-2.70957e-07
1.21606e-06
0.00109424
-1.80829e-09
-0.00109424
3.5318e-09
-1.21299e-06
2.61423e-07
-2.62805e-07
-9.07542e-07
2.67307e-07
-2.71082e-07
9.08162e-07
-0.000266667
2.40442e-07
2.45792e-07
1.25212e-06
1.21564e-06
-2.34805e-07
-2.42628e-07
0.000266672
-1.25518e-06
-1.21873e-06
0.000268662
-0.000266672
2.3785e-07
2.45719e-07
3.61638e-09
0.00109328
-2.68207e-07
1.25522e-06
2.66738e-07
9.07943e-07
-2.68189e-07
-9.07347e-07
2.64447e-07
-1.2576e-06
-1.97154e-09
3.5591e-09
0.00109372
-2.70988e-07
1.26073e-06
2.6957e-07
9.13563e-07
-2.71072e-07
-9.1301e-07
2.67239e-07
0.00109328
-1.71053e-09
-0.00109328
3.8429e-09
-1.25207e-06
2.66737e-07
-2.68194e-07
-9.07114e-07
2.63934e-07
-2.67788e-07
9.07661e-07
1.26069e-06
0.00109372
-1.53729e-09
-0.00109372
3.80875e-09
-1.25754e-06
2.69569e-07
-2.70974e-07
-9.12776e-07
2.66721e-07
-2.70672e-07
9.13273e-07
-2.37551e-07
-2.39872e-07
0.000266693
-1.22141e-06
0.000268691
-0.000266693
2.40685e-07
2.42985e-07
3.38052e-09
0.00109434
-2.65528e-07
1.21877e-06
2.64201e-07
9.1084e-07
-2.71028e-07
-9.10118e-07
2.67326e-07
-1.25219e-06
-1.99255e-09
3.6259e-09
0.00109339
-2.70997e-07
1.25527e-06
2.69532e-07
9.10661e-07
-2.70987e-07
-9.10128e-07
2.67223e-07
0.00109434
-1.80642e-09
-0.00109434
3.61649e-09
-1.2156e-06
2.64191e-07
-2.65526e-07
-9.09889e-07
2.6681e-07
-2.70616e-07
9.10544e-07
1.25523e-06
0.00109339
-1.58039e-09
-0.00109339
3.8502e-09
-1.25215e-06
2.69524e-07
-2.70989e-07
-9.09906e-07
2.66692e-07
-2.70597e-07
9.10359e-07
-2.04538e-09
3.60144e-09
0.00109319
-2.65394e-07
1.24984e-06
2.63992e-07
9.07951e-07
-2.68205e-07
2.64436e-07
-9.07402e-07
-1.83976e-09
-0.00109407
3.63847e-09
-1.21821e-06
2.61386e-07
-2.62705e-07
-9.07137e-07
2.64049e-07
9.07767e-07
-2.67803e-07
1.24981e-06
0.00109319
-1.67526e-09
-0.00109319
3.80983e-09
-1.2467e-06
2.63996e-07
-2.6538e-07
-9.07162e-07
2.63925e-07
-2.67798e-07
9.0767e-07
-2.34991e-07
-2.4243e-07
0.000266653
-1.21593e-06
0.000268643
-0.000266653
2.38042e-07
2.42925e-07
-2.02898e-09
3.37262e-09
0.00109424
-2.62783e-07
1.21608e-06
2.61443e-07
9.08157e-07
-2.7103e-07
2.67293e-07
-9.07504e-07
-1.89713e-09
-0.00109373
3.67907e-09
-1.21281e-06
2.61349e-07
-2.62713e-07
-9.06964e-07
2.66723e-07
9.07646e-07
-2.70489e-07
1.21605e-06
0.00109424
-1.71197e-09
-0.00109424
3.5899e-09
-1.21292e-06
2.61445e-07
-2.62771e-07
-9.07255e-07
2.66792e-07
-2.70616e-07
9.07894e-07
-0.000266666
2.40393e-07
2.45749e-07
1.252e-06
1.21552e-06
-2.34638e-07
-2.42458e-07
0.000266672
-1.25489e-06
-1.21845e-06
0.000268662
-0.000266671
2.37204e-07
2.45062e-07
3.44167e-09
0.00109328
-2.68142e-07
1.25517e-06
2.66755e-07
9.07477e-07
-2.67401e-07
-9.06882e-07
2.63576e-07
-1.25748e-06
-2.08528e-09
3.41864e-09
0.00109372
-2.70929e-07
1.26067e-06
2.69576e-07
9.1309e-07
-2.70284e-07
-9.12541e-07
2.66361e-07
0.00109328
-2.02373e-09
-0.00109328
3.81266e-09
-1.25176e-06
2.66381e-07
-2.67872e-07
-9.06048e-07
2.62797e-07
-2.66315e-07
9.06789e-07
1.26041e-06
0.00109372
-1.88501e-09
-0.00109372
3.76193e-09
-1.25723e-06
2.69209e-07
-2.70647e-07
-9.11714e-07
2.65586e-07
-2.69192e-07
9.12403e-07
-2.37389e-07
-2.39704e-07
0.000266693
-1.22114e-06
0.000268691
-0.000266692
2.40031e-07
2.42322e-07
3.20473e-09
0.00109434
-2.65462e-07
1.21873e-06
2.64227e-07
9.10371e-07
-2.70231e-07
-9.09653e-07
2.66461e-07
-1.25207e-06
-2.19255e-09
3.42748e-09
0.00109339
-2.70931e-07
1.25523e-06
2.69558e-07
9.10203e-07
-2.70199e-07
-9.09656e-07
2.66356e-07
0.00109434
-2.04288e-09
-0.00109434
3.60403e-09
-1.21528e-06
2.63847e-07
-2.65197e-07
-9.0886e-07
2.65659e-07
-2.69169e-07
9.09652e-07
1.25493e-06
0.00109339
-1.78938e-09
-0.00109339
3.85896e-09
-1.25184e-06
2.69156e-07
-2.7068e-07
-9.08853e-07
2.65544e-07
-2.69143e-07
9.09482e-07
-2.18052e-09
3.41647e-09
0.00109319
-2.65325e-07
1.2498e-06
2.64015e-07
9.07484e-07
-2.67412e-07
2.63567e-07
-9.06928e-07
-2.15657e-09
-0.00109407
3.57656e-09
-1.21789e-06
2.61034e-07
-2.62369e-07
-9.06095e-07
2.62909e-07
9.06883e-07
-2.66335e-07
1.24952e-06
0.00109319
-1.96088e-09
-0.00109319
3.78713e-09
-1.24638e-06
2.6364e-07
-2.65057e-07
-9.06115e-07
2.62774e-07
-2.66342e-07
9.06786e-07
-2.3484e-07
-2.39697e-07
0.000266653
-1.21565e-06
0.000268644
-0.000266653
2.37392e-07
2.42257e-07
-2.23287e-09
3.2071e-09
0.00109424
-2.62719e-07
1.21603e-06
2.61462e-07
9.07716e-07
-2.70223e-07
2.6644e-07
-9.07013e-07
-2.10932e-09
-0.00109373
3.68836e-09
-1.2125e-06
2.60981e-07
-2.62406e-07
-9.05926e-07
2.65559e-07
9.06745e-07
-2.69037e-07
1.21575e-06
0.00109424
-2.00101e-09
-0.00109424
3.58235e-09
-1.21261e-06
2.61084e-07
-2.62455e-07
-9.06211e-07
2.65648e-07
-2.69154e-07
9.07e-07
-0.000266666
2.39731e-07
2.45093e-07
1.25177e-06
1.21529e-06
-2.34022e-07
-2.41842e-07
0.000266671
-1.25498e-06
-1.2185e-06
0.000268662
-0.000266671
2.37416e-07
2.45316e-07
3.45982e-09
0.00109328
-2.67772e-07
1.25492e-06
2.66269e-07
9.06965e-07
-2.66589e-07
-9.06159e-07
2.63197e-07
-1.25725e-06
-2.15478e-09
3.50903e-09
0.00109372
-2.70573e-07
1.26041e-06
2.69083e-07
9.12575e-07
-2.69485e-07
-9.11821e-07
2.6597e-07
0.00109328
-2.89435e-09
-0.00109328
3.47883e-09
-1.25179e-06
2.66072e-07
-2.67398e-07
-9.07497e-07
2.63944e-07
-2.67523e-07
9.08516e-07
1.26046e-06
0.00109372
-2.91493e-09
-0.00109372
3.52494e-09
-1.2573e-06
2.68861e-07
-2.70227e-07
-9.1314e-07
2.66747e-07
-2.70402e-07
9.14158e-07
-2.36773e-07
-2.39098e-07
0.000266692
-1.2212e-06
0.000268691
-0.000266692
2.40246e-07
2.42532e-07
3.28846e-09
0.00109434
-2.65095e-07
1.21846e-06
2.63724e-07
9.09851e-07
-2.69425e-07
-9.08931e-07
2.6609e-07
-1.25185e-06
-2.2904e-09
3.51868e-09
0.00109339
-2.70575e-07
1.25496e-06
2.69052e-07
9.09689e-07
-2.69393e-07
-9.08926e-07
2.65978e-07
0.00109434
-3.10874e-09
-0.00109434
3.38417e-09
-1.21533e-06
2.6351e-07
-2.64728e-07
-9.10241e-07
2.66853e-07
-2.70344e-07
9.11455e-07
1.25502e-06
0.00109339
-2.86687e-09
-0.00109339
3.56369e-09
-1.25186e-06
2.68856e-07
-2.70194e-07
-9.10248e-07
2.6673e-07
-2.70318e-07
9.11278e-07
-2.28765e-09
3.44528e-09
0.00109319
-2.64958e-07
1.24954e-06
2.63526e-07
9.06966e-07
-2.66612e-07
2.63179e-07
-9.06216e-07
-3.14912e-09
-0.00109407
3.29704e-09
-1.21796e-06
2.60691e-07
-2.61946e-07
-9.07522e-07
2.64063e-07
9.08639e-07
-2.6754e-07
1.24958e-06
0.00109319
-2.84033e-09
-0.00109319
3.51855e-09
-1.24643e-06
2.6331e-07
-2.64599e-07
-9.07556e-07
2.63921e-07
-2.67554e-07
9.08506e-07
-2.34211e-07
-2.39091e-07
0.000266653
-1.21576e-06
0.000268643
-0.000266652
2.37662e-07
2.425e-07
-2.35313e-09
3.27734e-09
0.00109424
-2.62356e-07
1.21577e-06
2.60968e-07
9.07179e-07
-2.69423e-07
2.66057e-07
-9.06314e-07
-3.02532e-09
-0.00109372
3.3161e-09
-1.21251e-06
2.60695e-07
-2.61917e-07
-9.07355e-07
2.66707e-07
9.08484e-07
-2.70246e-07
1.2158e-06
0.00109424
-2.95541e-09
-0.00109424
3.40282e-09
-1.21268e-06
2.60732e-07
-2.62011e-07
-9.07646e-07
2.66814e-07
-2.70357e-07
9.08751e-07
-0.000266665
2.39937e-07
2.45317e-07
1.25156e-06
1.21514e-06
-2.33876e-07
-2.41637e-07
0.00026667
-1.25418e-06
-1.2176e-06
0.000268663
-0.00026667
2.35356e-07
2.4336e-07
3.69549e-09
0.00109328
-2.67196e-07
1.25458e-06
2.65709e-07
9.07707e-07
-2.66958e-07
-9.07479e-07
2.6261e-07
-1.25705e-06
-6.12612e-10
3.76589e-09
0.00109372
-2.70026e-07
1.26009e-06
2.6851e-07
9.13378e-07
-2.69835e-07
-9.13092e-07
2.65427e-07
0.00109328
-3.16823e-09
-0.00109328
3.21212e-09
-1.25072e-06
2.64721e-07
-2.66127e-07
-9.04505e-07
2.59304e-07
-2.63039e-07
9.05414e-07
1.25939e-06
0.00109372
-2.74392e-09
-0.00109372
4.16354e-09
-1.25646e-06
2.6725e-07
-2.69172e-07
-9.10256e-07
2.61962e-07
-2.66034e-07
9.1093e-07
-2.36595e-07
-2.38918e-07
0.000266691
-1.22013e-06
0.000268692
-0.000266691
2.38021e-07
2.40306e-07
3.70809e-09
0.00109434
-2.64574e-07
1.21806e-06
2.63083e-07
9.10644e-07
-2.69743e-07
-9.10198e-07
2.65543e-07
-1.25167e-06
-4.68599e-10
3.90473e-09
0.00109339
-2.70016e-07
1.25457e-06
2.68447e-07
9.10439e-07
-2.69729e-07
-9.10218e-07
2.65413e-07
0.00109434
-4.11193e-09
-0.00109434
3.48927e-09
-1.21435e-06
2.62081e-07
-2.63528e-07
-9.07116e-07
2.62375e-07
-2.65725e-07
9.08486e-07
1.25423e-06
0.00109339
-4.05437e-09
-0.00109339
3.27659e-09
-1.2508e-06
2.67544e-07
-2.68898e-07
-9.07121e-07
2.62325e-07
-2.65642e-07
9.08366e-07
-5.80725e-10
3.69477e-09
0.00109319
-2.64395e-07
1.2492e-06
2.62953e-07
9.07717e-07
-2.6697e-07
2.62605e-07
-9.07521e-07
-2.94286e-09
-0.00109407
3.86844e-09
-1.21712e-06
2.59083e-07
-2.60884e-07
-9.04627e-07
2.59281e-07
9.05405e-07
-2.63187e-07
1.2487e-06
0.00109319
-3.04622e-09
-0.00109319
3.46409e-09
-1.24543e-06
2.61891e-07
-2.6338e-07
-9.04578e-07
2.59256e-07
-2.63081e-07
9.05398e-07
-2.34003e-07
-2.38909e-07
0.000266652
-1.21501e-06
0.000268644
-0.000266651
2.35757e-07
2.40544e-07
-7.29127e-10
3.62777e-09
0.00109424
-2.61819e-07
1.2154e-06
2.60363e-07
9.07974e-07
-2.69764e-07
2.65506e-07
-9.07605e-07
-3.8425e-09
-0.00109372
2.92472e-09
-1.21141e-06
2.59406e-07
-2.60595e-07
-9.04268e-07
2.62191e-07
9.05485e-07
-2.65648e-07
1.21486e-06
0.00109424
-3.4769e-09
-0.00109424
3.68776e-09
-1.21173e-06
2.5926e-07
-2.60839e-07
-9.04607e-07
2.62191e-07
-2.65823e-07
9.05681e-07
-0.000266664
2.37852e-07
2.43267e-07
1.25101e-06
1.2147e-06
-2.32362e-07
-2.40015e-07
0.000266669
-1.25318e-06
-1.21683e-06
0.000268665
-0.00026667
2.33587e-07
2.41313e-07
4.60042e-09
0.00109328
-2.66057e-07
1.25356e-06
2.63833e-07
9.04726e-07
-2.63361e-07
-9.05297e-07
2.58145e-07
-1.25678e-06
1.81984e-09
5.3951e-09
0.00109372
-2.69126e-07
1.2588e-06
2.66393e-07
9.10278e-07
-2.66309e-07
-9.11029e-07
2.60871e-07
0.00109329
-4.77885e-09
-0.00109328
2.97848e-09
-1.25021e-06
2.63393e-07
-2.65112e-07
-9.02638e-07
2.55853e-07
-2.60213e-07
9.03327e-07
1.25892e-06
0.00109373
-4.91477e-09
-0.00109372
2.28961e-09
-1.2555e-06
2.66448e-07
-2.67702e-07
-9.08269e-07
2.5873e-07
-2.63e-07
9.08967e-07
-2.3526e-07
-2.37581e-07
0.000266691
-1.21964e-06
0.000268695
-0.000266691
2.36533e-07
2.38822e-07
4.95143e-09
0.00109434
-2.63517e-07
1.21692e-06
2.61115e-07
9.07883e-07
-2.65876e-07
-9.0781e-07
2.61352e-07
-1.25109e-06
7.19576e-10
4.69961e-09
0.00109339
-2.68823e-07
1.25358e-06
2.66628e-07
9.07763e-07
-2.65799e-07
-9.07763e-07
2.61291e-07
0.00109434
-4.39597e-09
-0.00109434
2.43356e-09
-1.21367e-06
2.60917e-07
-2.62421e-07
-9.05508e-07
2.58595e-07
-2.63078e-07
9.06039e-07
1.25324e-06
0.0010934
-4.07591e-09
-0.00109339
2.97526e-09
-1.25028e-06
2.66133e-07
-2.67954e-07
-9.05552e-07
2.58456e-07
-2.63101e-07
9.05843e-07
1.64241e-09
4.86278e-09
0.00109319
-2.63348e-07
1.24805e-06
2.60975e-07
9.04724e-07
-2.63348e-07
2.58136e-07
-9.05345e-07
-5.19741e-09
-0.00109407
2.14598e-09
-1.21616e-06
2.58259e-07
-2.59433e-07
-9.0263e-07
2.56043e-07
9.0346e-07
-2.60149e-07
1.24788e-06
0.00109319
-4.78451e-09
-0.00109319
2.79344e-09
-1.24477e-06
2.6071e-07
-2.62256e-07
-9.02679e-07
2.55847e-07
-2.60202e-07
9.03336e-07
-2.32307e-07
-2.37262e-07
0.000266651
-1.21389e-06
0.000268646
-0.000266652
2.33617e-07
2.3854e-07
1.36282e-09
5.05538e-09
0.00109424
-2.60809e-07
1.21422e-06
2.58344e-07
9.04999e-07
-2.66097e-07
2.61065e-07
-9.05392e-07
-4.64039e-09
-0.00109373
2.88962e-09
-1.21097e-06
2.57911e-07
-2.59658e-07
-9.02503e-07
2.58541e-07
9.03249e-07
-2.62957e-07
1.21416e-06
0.00109425
-4.65129e-09
-0.00109424
2.34326e-09
-1.21097e-06
2.58188e-07
-2.59617e-07
-9.02807e-07
2.5869e-07
-2.6303e-07
9.03516e-07
-0.000266665
2.36127e-07
2.41448e-07
1.25007e-06
1.21342e-06
-2.3008e-07
-2.38085e-07
0.00026667
-1.25222e-06
-1.21581e-06
0.000268668
-0.00026667
2.30673e-07
2.38492e-07
6.35192e-09
0.00109328
-2.64548e-07
1.2518e-06
2.61436e-07
9.01605e-07
-2.59183e-07
-9.02699e-07
2.52893e-07
-1.2553e-06
3.69684e-09
5.58271e-09
0.00109372
-2.67083e-07
1.25755e-06
2.64506e-07
9.07225e-07
-2.62001e-07
-9.08334e-07
2.5572e-07
0.00109329
-9.65299e-09
-0.00109328
-2.07661e-10
-1.24759e-06
2.61386e-07
-2.61157e-07
-8.96829e-07
2.48928e-07
-2.51125e-07
8.99594e-07
1.25774e-06
0.00109373
-9.51674e-09
-0.00109372
-3.2907e-10
-1.25303e-06
2.64221e-07
-2.63904e-07
-9.02485e-07
2.51704e-07
-2.54015e-07
9.05207e-07
-2.3274e-07
-2.35054e-07
0.000266691
-1.21844e-06
0.000268698
-0.000266691
2.33459e-07
2.35758e-07
5.60007e-09
0.00109434
-2.61725e-07
1.21554e-06
2.5907e-07
9.04243e-07
-2.62229e-07
-9.05685e-07
2.55506e-07
-1.2501e-06
4.59567e-09
6.29695e-09
0.0010934
-2.67357e-07
1.2519e-06
2.64226e-07
9.0405e-07
-2.62235e-07
-9.05731e-07
2.5539e-07
0.00109435
-9.60781e-09
-0.00109434
-6.3813e-10
-1.21104e-06
2.58901e-07
-2.5839e-07
-8.99666e-07
2.51753e-07
-2.54025e-07
9.02432e-07
1.2523e-06
0.0010934
-9.33599e-09
-0.0010934
-2.53859e-10
-1.24762e-06
2.64209e-07
-2.63902e-07
-8.99703e-07
2.51649e-07
-2.54013e-07
9.02252e-07
3.74251e-09
6.09785e-09
0.00109319
-2.61645e-07
1.24654e-06
2.58789e-07
9.01595e-07
-2.59195e-07
2.52865e-07
-9.02741e-07
-9.80779e-09
-0.00109407
-4.89626e-10
-1.21371e-06
2.56022e-07
-2.55647e-07
-8.96844e-07
2.49048e-07
8.99705e-07
-2.51132e-07
1.24684e-06
0.00109319
-9.63898e-09
-0.00109319
-2.43445e-10
-1.24219e-06
2.58646e-07
-2.58321e-07
-8.9688e-07
2.48913e-07
-2.51146e-07
8.99599e-07
-2.30519e-07
-2.35272e-07
0.000266651
-1.21298e-06
0.000268647
-0.000266651
2.30846e-07
2.38276e-07
3.93585e-09
5.55531e-09
0.00109425
-2.58975e-07
1.21284e-06
2.56293e-07
9.01766e-07
-2.62047e-07
2.55684e-07
-9.02893e-07
-9.70575e-09
-0.00109373
-3.55192e-10
-1.20832e-06
2.56031e-07
-2.55682e-07
-8.96712e-07
2.51693e-07
8.99471e-07
-2.53871e-07
1.21312e-06
0.00109425
-9.67867e-09
-0.00109425
-5.98103e-10
-1.20837e-06
2.56127e-07
-2.55652e-07
-8.96992e-07
2.51762e-07
-2.53969e-07
8.99817e-07
-0.000266664
2.33198e-07
2.38521e-07
1.24797e-06
1.21149e-06
-2.25967e-07
-2.33781e-07
0.000266669
-1.25054e-06
-1.21408e-06
0.000268676
-0.000266668
2.25439e-07
2.30851e-07
9.06918e-09
0.00109328
-2.6143e-07
1.24909e-06
2.57586e-07
8.94895e-07
-2.5056e-07
-8.97454e-07
2.42887e-07
-1.25347e-06
8.76714e-09
9.0952e-09
0.00109372
-2.64227e-07
1.25457e-06
2.60379e-07
9.00514e-07
-2.53438e-07
-9.03092e-07
2.45669e-07
0.00109329
-1.53503e-08
-0.00109328
-1.1182e-08
-1.24412e-06
2.57551e-07
-2.52633e-07
-8.87375e-07
2.36649e-07
-2.36948e-07
8.91449e-07
1.25599e-06
0.00109375
-2.59425e-08
-0.00109373
-5.66477e-09
-1.24696e-06
2.57565e-07
-2.55466e-07
-8.87632e-07
2.33987e-07
-2.34388e-07
8.9168e-07
-2.28752e-07
-2.3105e-07
0.00026669
-1.21672e-06
0.0002687
-0.000266686
2.25728e-07
2.33134e-07
8.80066e-09
0.00109434
-2.58732e-07
1.21533e-06
2.57795e-07
8.97784e-07
-2.53397e-07
-9.00216e-07
2.45749e-07
-1.24803e-06
8.71507e-09
9.06659e-09
0.0010934
-2.64191e-07
1.24915e-06
2.60396e-07
8.97619e-07
-2.53373e-07
-9.00238e-07
2.45662e-07
0.00109435
-1.56975e-08
-0.00109434
-5.90399e-09
-1.20772e-06
2.54956e-07
-2.52745e-07
-8.9008e-07
2.3684e-07
-2.36997e-07
8.94369e-07
1.24521e-06
0.00109341
-1.54427e-08
-0.0010934
-1.11326e-08
-1.23883e-06
2.57581e-07
-2.55423e-07
-8.87469e-07
2.36737e-07
-2.3699e-07
8.91555e-07
8.64694e-09
9.06282e-09
0.00109319
-2.5862e-07
1.2437e-06
2.54828e-07
8.94905e-07
-2.50567e-07
2.42883e-07
-8.97486e-07
-2.08735e-08
-0.00109408
-5.85004e-09
-1.20766e-06
2.494e-07
-2.47204e-07
-8.87405e-07
2.36739e-07
8.94239e-07
-2.34263e-07
1.24518e-06
0.0010932
-2.07049e-08
-0.00109319
-5.78636e-09
-1.23612e-06
2.54799e-07
-2.49857e-07
-8.87419e-07
2.36632e-07
-2.34249e-07
8.9146e-07
-2.26173e-07
-2.33574e-07
0.00026665
-1.20864e-06
0.00026865
-0.000266652
2.25711e-07
2.30554e-07
8.58516e-09
8.84595e-09
0.00109425
-2.55976e-07
1.20995e-06
2.52282e-07
8.95133e-07
-2.53375e-07
2.45742e-07
-8.97591e-07
-1.56544e-08
-0.00109373
-1.13543e-08
-1.20218e-06
2.49447e-07
-2.47144e-07
-8.84507e-07
2.36742e-07
8.88678e-07
-2.36908e-07
1.20867e-06
0.00109425
-1.55768e-08
-0.00109425
-1.11761e-08
-1.19697e-06
2.49442e-07
-2.44481e-07
-8.82091e-07
2.34074e-07
-2.34291e-07
8.88965e-07
-0.000266668
2.25476e-07
2.33352e-07
1.24221e-06
1.20312e-06
-2.19261e-07
-2.21935e-07
0.000266672
-1.296e-06
-1.25949e-06
0.000268753
-0.000266697
2.47355e-07
2.52792e-07
1.5413e-08
0.00109328
-2.53147e-07
1.2461e-06
2.49392e-07
8.83203e-07
-2.35991e-07
-8.87217e-07
2.24549e-07
-1.2477e-06
1.2494e-08
1.0367e-08
0.00109373
-2.55984e-07
1.24885e-06
2.52154e-07
8.86228e-07
-2.334e-07
-8.87542e-07
2.27297e-07
0.00109357
-3.43202e-07
-0.00109338
-1.6466e-07
-1.19942e-06
2.75652e-07
-2.11969e-07
-8.25944e-07
2.46329e-07
-1.7581e-07
9.20113e-07
1.30142e-06
0.001094
-3.43238e-07
-0.00109383
-1.59066e-07
-1.20497e-06
2.75609e-07
-2.12086e-07
-8.34332e-07
2.49087e-07
-1.75908e-07
9.28444e-07
-2.19501e-07
-2.24341e-07
0.000266688
-1.25948e-06
0.000268777
-0.000266718
2.50192e-07
2.52474e-07
1.01324e-08
0.00109436
-2.5049e-07
1.2042e-06
2.43991e-07
8.8348e-07
-2.3602e-07
-8.87283e-07
2.2745e-07
-1.23692e-06
2.00067e-09
1.02028e-08
0.00109341
-2.53139e-07
1.24074e-06
2.49383e-07
8.83353e-07
-2.33271e-07
-8.87339e-07
2.24613e-07
0.00109462
-3.49474e-07
-0.00109444
-1.59039e-07
-1.1603e-06
2.72979e-07
-2.06594e-07
-8.31327e-07
2.49304e-07
-1.75765e-07
9.25793e-07
1.2933e-06
0.00109369
-3.48729e-07
-0.0010935
-1.64556e-07
-1.19684e-06
2.75668e-07
-2.09272e-07
-8.28702e-07
2.49159e-07
-1.78482e-07
9.22939e-07
7.22094e-09
1.01951e-08
0.00109319
-2.53101e-07
1.2407e-06
2.49379e-07
8.8328e-07
-2.33245e-07
2.24536e-07
-8.84581e-07
-3.43865e-07
-0.00109417
-1.6428e-07
-1.16294e-06
2.7016e-07
-2.03871e-07
-8.28693e-07
2.46409e-07
9.22923e-07
-1.75795e-07
1.29327e-06
0.00109347
-3.43273e-07
-0.00109329
-1.64647e-07
-1.19408e-06
2.75624e-07
-2.06478e-07
-8.2864e-07
2.49079e-07