/*--------------------------------*- C++ -*----------------------------------*\
| =========                 |                                                 |
| \\      /  F ield         | OpenFOAM: The Open Source CFD Toolbox           |
|  \\    /   O peration     | Version:  2206                                  |
|   \\  /    A nd           | Website:  www.openfoam.com                      |
|    \\/     M anipulation  |                                                 |
\*---------------------------------------------------------------------------*/
FoamFile
{
    version     2.0;
    format      ascii;
    arch        "LSB;label=32;scalar=64";
    class       volScalarField;
    location    "36";
    object      p;
}
// * * * * * * * * * * * * * * * * * * * * * * * * * * * * * * * * * * * * * //

dimensions      [0 2 -2 0 0 0 0];

internalField   nonuniform List<scalar> 
28688
(
0.00387134
0.00387167
0.00387167
0.00387473
0.00381599
0.00381641
0.0038164
0.00381939
0.00376524
0.00376521
0.00376521
0.00376796
0.00371284
0.00371285
0.00371285
0.00371562
0.0036615
0.00366151
0.00366151
0.00366426
0.00361155
0.00361153
0.00361153
0.00361425
0.00356334
0.0035632
0.0035632
0.00356579
0.0035183
0.00351815
0.00351815
0.00352055
0.00347676
0.00347668
0.00347668
0.00347911
0.00343611
0.00343606
0.00343606
0.00343847
0.00339562
0.00339557
0.00339557
0.00339797
0.00335517
0.00335513
0.00335513
0.00335753
0.00388475
0.00388498
0.00388498
0.00388475
0.00388498
0.00388498
0.00388574
0.00388574
0.00388574
0.00388574
0.00388498
0.00388498
0.00388475
0.00388498
0.00388498
0.00388475
0.00387473
0.00382597
0.00387167
0.00387167
0.00382825
0.00382825
0.00387473
0.00382597
0.00387168
0.00387167
0.00382824
0.00382825
0.00387167
0.00382824
0.00382824
0.00387473
0.00382597
0.00387168
0.00382824
0.00382824
0.00382597
0.0038194
0.00377489
0.00381641
0.00381641
0.00377833
0.00377833
0.0038194
0.00377489
0.00381641
0.00381641
0.00377833
0.00377833
0.00381641
0.00377833
0.00377833
0.00381939
0.00377489
0.0038164
0.00377833
0.00377833
0.00377489
0.00376796
0.0037225
0.00376521
0.00376521
0.00372587
0.00372588
0.00376796
0.0037225
0.00376521
0.00376521
0.00372587
0.00372588
0.00376521
0.00372587
0.00372587
0.00376796
0.0037225
0.00376521
0.00372587
0.00372587
0.0037225
0.00371562
0.00367097
0.00371285
0.00371285
0.00367424
0.00367424
0.00371562
0.00367097
0.00371285
0.00371285
0.00367424
0.00367424
0.00371285
0.00367424
0.00367424
0.00371562
0.00367097
0.00371285
0.00367424
0.00367424
0.00367097
0.00366426
0.00362076
0.00366151
0.00366151
0.00362387
0.00362387
0.00366426
0.00362076
0.00366151
0.00366151
0.00362387
0.00362387
0.00366151
0.00362387
0.00362387
0.00366426
0.00362076
0.00366151
0.00362387
0.00362387
0.00362076
0.00361425
0.00357205
0.00361153
0.00361153
0.00357506
0.00357506
0.00361425
0.00357204
0.00361153
0.00361154
0.00357506
0.00357506
0.00361153
0.00357506
0.00357506
0.00361425
0.00357205
0.00361153
0.00357506
0.00357506
0.00357204
0.0035658
0.00352621
0.00356319
0.00356319
0.00352904
0.00352906
0.00356579
0.00352622
0.0035632
0.0035632
0.00352906
0.00352906
0.0035632
0.00352908
0.00352908
0.0035658
0.00352621
0.0035632
0.00352906
0.00352908
0.00352622
0.00352055
0.00348447
0.00351815
0.00351815
0.00348688
0.00348688
0.00352055
0.00348448
0.00351815
0.00351815
0.00348688
0.00348688
0.00351815
0.00348688
0.00348688
0.00352055
0.00348447
0.00351815
0.00348688
0.00348688
0.00348447
0.00347911
0.0034438
0.00347668
0.00347668
0.00344619
0.00344619
0.00347911
0.0034438
0.00347668
0.00347668
0.00344619
0.00344619
0.00347668
0.00344619
0.00344619
0.00347911
0.0034438
0.00347668
0.00344619
0.00344619
0.0034438
0.00343847
0.0034033
0.00343606
0.00343606
0.00340569
0.00340569
0.00343847
0.0034033
0.00343606
0.00343606
0.00340569
0.00340569
0.00343606
0.00340569
0.00340569
0.00343847
0.0034033
0.00343606
0.00340569
0.00340569
0.0034033
0.00339797
0.00336285
0.00339557
0.00339557
0.00336524
0.00336524
0.00339797
0.00336285
0.00339557
0.00339557
0.00336524
0.00336524
0.00339557
0.00336524
0.00336524
0.00339797
0.00336285
0.00339557
0.00336524
0.00336524
0.00336285
0.00335753
0.00332241
0.00335513
0.00335513
0.0033248
0.00335753
0.00335513
0.00335513
0.0033248
0.0033248
0.00335513
0.0033248
0.00335753
0.00332241
0.00335513
0.0033248
0.0033248
0.00332241
0.00389313
0.00390289
0.00389769
0.00389769
0.00392006
0.00390685
0.00393545
0.0039009
0.00392006
0.00390685
0.0039009
0.00393545
0.00391142
0.00393919
0.00393919
0.00384848
0.00386763
0.00387682
0.00384056
0.00384132
0.00384407
0.00384846
0.00386761
0.00387682
0.00384054
0.00387134
0.00387135
0.00387135
0.00382794
0.00382794
0.00382793
0.00382793
0.00384599
0.00387181
0.00387174
0.00385481
0.00387484
0.00384489
0.00385569
0.00384143
0.00384407
0.00384599
0.00387175
0.00387183
0.00385481
0.00387483
0.00385569
0.00384489
0.00387769
0.00387767
0.00384921
0.00384452
0.00384452
0.00380184
0.00382114
0.00382249
0.00380037
0.00382004
0.00379994
0.00380184
0.00382113
0.00382249
0.00380036
0.00381599
0.00381599
0.00381599
0.0037784
0.0037784
0.0037784
0.0037784
0.00380043
0.00382121
0.00381599
0.00380412
0.00382
0.00380097
0.00380385
0.00382004
0.00379993
0.00380043
0.00381598
0.00382121
0.00380412
0.00381999
0.00380385
0.00380097
0.00382223
0.00382223
0.00380067
0.0038013
0.0038013
0.00374961
0.00376842
0.00376948
0.00374858
0.00376807
0.00374829
0.00374961
0.00376842
0.00376948
0.00374858
0.00376524
0.00376524
0.00376524
0.00372585
0.00372585
0.00372585
0.00372585
0.0037487
0.00376881
0.00376511
0.00375207
0.00376824
0.00374907
0.00375197
0.00376807
0.00374829
0.0037487
0.00376511
0.00376881
0.00375207
0.00376824
0.00375197
0.00374907
0.00376906
0.00376906
0.00374869
0.00374914
0.00374914
0.00369709
0.00371572
0.00371656
0.0036963
0.00371551
0.00369613
0.00369709
0.00371572
0.00371656
0.0036963
0.00371284
0.00371284
0.00371284
0.00367423
0.00367423
0.00367423
0.00367423
0.00369657
0.00371612
0.00371281
0.0036999
0.00371582
0.00369675
0.00369986
0.00371551
0.00369613
0.00369657
0.00371281
0.00371612
0.0036999
0.00371582
0.00369986
0.00369675
0.00371616
0.00371616
0.0036966
0.00369669
0.00369669
0.00364584
0.00366424
0.00366487
0.00364528
0.0036641
0.00364514
0.00364584
0.00366424
0.00366487
0.00364528
0.0036615
0.0036615
0.0036615
0.00362388
0.00362388
0.00362387
0.00362387
0.00364557
0.00366459
0.00366148
0.00364886
0.00366441
0.00364567
0.00364884
0.0036641
0.00364514
0.00364557
0.00366148
0.00366459
0.00364886
0.00366441
0.00364884
0.00364567
0.00366458
0.00366458
0.00364565
0.00364558
0.00364558
0.00359617
0.00361413
0.00361465
0.00359583
0.00361403
0.00359569
0.00359617
0.00361413
0.00361465
0.00359583
0.00361155
0.00361155
0.00361155
0.00357516
0.00357516
0.00357516
0.00357516
0.00359608
0.00361445
0.00361152
0.0035993
0.00361436
0.00359616
0.00359928
0.00361402
0.0035957
0.00359608
0.00361152
0.00361445
0.0035993
0.00361436
0.00359928
0.00359616
0.00361443
0.00361443
0.0035962
0.00359607
0.00359607
0.00354841
0.00356548
0.00356598
0.00354798
0.00356539
0.00354781
0.00354841
0.00356548
0.00356598
0.00354798
0.00356334
0.00356334
0.00356334
0.00352918
0.00352918
0.00352918
0.00352919
0.00354843
0.00356581
0.00356324
0.0035516
0.00356585
0.00354835
0.00355164
0.00356539
0.00354781
0.00354843
0.00356324
0.00356581
0.0035516
0.00356586
0.00355164
0.00354835
0.00356573
0.00356573
0.00354868
0.00354813
0.00354813
0.00350431
0.00352013
0.00351995
0.00350446
0.00351999
0.00350442
0.00350431
0.00352012
0.00351995
0.00350446
0.0035183
0.0035183
0.00351831
0.00348698
0.00348698
0.00348698
0.00348698
0.00350472
0.0035203
0.00351822
0.00350755
0.00352033
0.00350469
0.00350761
0.00351999
0.00350442
0.00350472
0.00351822
0.00352031
0.00350755
0.00352033
0.00350761
0.00350469
0.00352018
0.00352018
0.00350501
0.00350456
0.00350456
0.00346391
0.00347897
0.00347905
0.00346384
0.00347901
0.00346386
0.00346391
0.00347897
0.00347905
0.00346384
0.00347676
0.00347676
0.00347676
0.00344625
0.00344625
0.00344625
0.00344625
0.003464
0.00347904
0.0034767
0.00346651
0.00347909
0.00346393
0.00346652
0.00347901
0.00346387
0.003464
0.0034767
0.00347904
0.00346651
0.00347909
0.00346652
0.00346393
0.00347908
0.00347909
0.00346411
0.00346389
0.00346389
0.00342342
0.00343854
0.00343857
0.00342341
0.00343855
0.00342341
0.00342342
0.00343854
0.00343857
0.00342341
0.00343611
0.00343611
0.00343611
0.00340573
0.00340573
0.00340573
0.00340573
0.00342347
0.00343852
0.00343607
0.00342593
0.00343854
0.00342344
0.00342594
0.00343855
0.00342341
0.00342347
0.00343607
0.00343852
0.00342593
0.00343854
0.00342594
0.00342344
0.00343856
0.00343856
0.00342353
0.00342341
0.00342341
0.00338296
0.0033981
0.0033981
0.00338296
0.0033981
0.00338296
0.00338296
0.0033981
0.0033981
0.00338296
0.00339562
0.00339562
0.00339562
0.00336528
0.00336528
0.00336528
0.00336528
0.00338301
0.00339807
0.00339558
0.00338546
0.00339806
0.003383
0.00338547
0.0033981
0.00338296
0.00338301
0.00339558
0.00339807
0.00338546
0.00339806
0.00338547
0.003383
0.0033981
0.0033981
0.00338307
0.00338296
0.00338296
0.00334252
0.00335766
0.00335766
0.00334252
0.00335766
0.00334252
0.00334252
0.00335766
0.00335766
0.00334252
0.00335517
0.00335517
0.00335517
0.00332484
0.00332484
0.00332484
0.00332484
0.00334257
0.00335763
0.00335514
0.00334502
0.00335762
0.00334255
0.00334503
0.00335766
0.00334252
0.00334257
0.00335514
0.00335763
0.00334502
0.00335762
0.00334503
0.00334255
0.00335766
0.00335766
0.00334263
0.00334252
0.00334252
0.00391142
0.00393918
0.00393919
0.00390356
0.00393872
0.00390353
0.00393874
0.00390827
0.00389534
0.00389535
0.003934
0.00393401
0.00392005
0.00390685
0.00393544
0.00390089
0.00392005
0.00390685
0.00393544
0.00390089
0.00392457
0.00389563
0.00393585
0.00389043
0.00392457
0.00389561
0.00393586
0.00389044
0.00391566
0.00390438
0.00388681
0.0038872
0.00393072
0.00389933
0.00388743
0.00391566
0.00390437
0.00388681
0.0038872
0.00393072
0.00389933
0.00388743
0.00391141
0.00393918
0.00393919
0.00390352
0.00393872
0.00390827
0.00389533
0.00389536
0.003934
0.00393401
0.00390355
0.00393873
0.00392006
0.00390685
0.00393546
0.0039009
0.00392006
0.00390685
0.0039009
0.00393545
0.00392459
0.00389561
0.00393587
0.00389045
0.00391567
0.00390438
0.00388681
0.0038872
0.00393073
0.00389934
0.00388744
0.00392459
0.00389563
0.00393586
0.00389044
0.00391567
0.00390438
0.0038872
0.00388681
0.00389934
0.00393073
0.00388743
0.00389313
0.00390289
0.00389769
0.00389769
0.00389313
0.00390289
0.00389769
0.00389769
0.00389313
0.00390289
0.00389769
0.00389769
0.00389189
0.00390097
0.00388386
0.00388386
0.00389625
0.00389626
0.00388203
0.00389189
0.00390097
0.00388386
0.00388386
0.00389625
0.00389625
0.00388203
0.00389189
0.00390097
0.00388386
0.00388386
0.00389626
0.00389626
0.00388203
0.00389189
0.00390097
0.00388386
0.00388386
0.00389626
0.00389626
0.00388203
0.00392006
0.00390685
0.0039009
0.00393545
0.00391567
0.00390438
0.0038868
0.0038872
0.00393073
0.00389934
0.00388744
0.00392459
0.00389562
0.00393586
0.00389044
0.00391567
0.00390438
0.0038872
0.00388681
0.00389934
0.00393073
0.00388743
0.00392459
0.00389562
0.00393586
0.00389043
0.00391142
0.00393919
0.00393919
0.0039035
0.00393872
0.00390828
0.00389534
0.00389534
0.00393401
0.00393401
0.0039035
0.00393873
0.00392007
0.00390685
0.0039009
0.00393545
0.00391567
0.00390438
0.0038872
0.00388682
0.00389934
0.00393073
0.00388743
0.00391567
0.00390438
0.0038872
0.00388681
0.00389934
0.00393073
0.00388744
0.00392459
0.00389562
0.00393587
0.00389043
0.00392459
0.00389563
0.00393587
0.00389044
0.00390828
0.00389534
0.00389535
0.00393401
0.00393401
0.0039035
0.00393872
0.00390353
0.00393873
0.00384132
0.00384406
0.00384142
0.00384404
0.00387765
0.00387768
0.00384923
0.00384452
0.00384452
0.00382681
0.00384372
0.00382681
0.00384373
0.00384256
0.00382942
0.00382942
0.00384268
0.00384267
0.00384848
0.00386762
0.00387683
0.00384056
0.00384601
0.00387182
0.00387174
0.00385481
0.00387483
0.00384489
0.0038557
0.003846
0.00387182
0.00387174
0.00385481
0.00387484
0.0038449
0.0038557
0.00384394
0.00382855
0.00384146
0.00382929
0.00384394
0.00382855
0.00384146
0.00382929
0.00384098
0.0038405
0.00382823
0.00382798
0.00384205
0.00384092
0.00382657
0.00384097
0.0038405
0.00382823
0.00382798
0.00384206
0.00384092
0.00382657
0.00387764
0.00387769
0.00384923
0.00384452
0.00384452
0.00384147
0.00384405
0.00382681
0.00384372
0.00384256
0.00382942
0.00382942
0.00384268
0.00384267
0.0038268
0.00384373
0.00384599
0.00387182
0.00387174
0.00385481
0.00387484
0.00384489
0.0038557
0.00384847
0.00386762
0.00387681
0.00384056
0.00384599
0.00387174
0.00387182
0.00385481
0.00387483
0.00385569
0.00384489
0.00384393
0.00382855
0.00384146
0.00382929
0.00384096
0.0038405
0.00382823
0.00382798
0.00384205
0.00384091
0.00382657
0.00384393
0.00382855
0.00384147
0.00382929
0.00384097
0.0038405
0.00382798
0.00382823
0.00384091
0.00384205
0.00382657
0.00384846
0.00386762
0.00387681
0.00384055
0.00384599
0.00387174
0.00387183
0.00385481
0.00387483
0.00385569
0.00384489
0.00384847
0.00386763
0.00387681
0.00384055
0.00384096
0.0038405
0.00382823
0.00382798
0.00384205
0.00384091
0.00382657
0.00384393
0.00382855
0.00384146
0.00382929
0.00384097
0.0038405
0.00382798
0.00382823
0.00384091
0.00384204
0.00382657
0.00384393
0.00382856
0.00384145
0.00382929
0.00387768
0.00387769
0.00384921
0.00384452
0.00384452
0.00384143
0.00384405
0.00382681
0.00384374
0.00384256
0.00382942
0.00382943
0.00384268
0.00384266
0.00382681
0.0038437
0.00384599
0.00387174
0.00387182
0.00385482
0.00387484
0.00385569
0.00384489
0.00384847
0.00386763
0.0038768
0.00384054
0.00384846
0.00386763
0.00387681
0.00384055
0.00384097
0.0038405
0.00382798
0.00382823
0.00384091
0.00384204
0.00382657
0.00384096
0.0038405
0.00382798
0.00382823
0.00384091
0.00384205
0.00382657
0.00384393
0.00382855
0.00384146
0.00382929
0.00384393
0.00382855
0.00384146
0.00382929
0.00384145
0.00384405
0.00384145
0.00384405
0.00384256
0.00382943
0.00382942
0.00384267
0.00384267
0.00382682
0.0038437
0.0038268
0.00384372
0.00382005
0.00379994
0.00382004
0.00379993
0.00382223
0.00382223
0.00380067
0.0038013
0.0038013
0.00377456
0.0037935
0.00377456
0.0037935
0.00379387
0.00377563
0.00377563
0.00379483
0.00379483
0.00380184
0.00382114
0.00382249
0.00380037
0.00380043
0.00382121
0.00381598
0.00380412
0.00382
0.00380097
0.00380385
0.00380043
0.00382121
0.00381598
0.00380412
0.00382
0.00380097
0.00380385
0.00379531
0.00377497
0.00379399
0.00377607
0.00379531
0.00377497
0.00379399
0.00377607
0.00379389
0.00379136
0.00377544
0.00377824
0.00379452
0.00379122
0.0037749
0.00379389
0.00379136
0.00377544
0.00377824
0.00379452
0.00379122
0.0037749
0.00382223
0.00382223
0.00380067
0.0038013
0.0038013
0.00382005
0.00379994
0.00377456
0.0037935
0.00379387
0.00377563
0.00377563
0.00379483
0.00379483
0.00377456
0.0037935
0.00380043
0.00382121
0.00381598
0.00380412
0.00382
0.00380097
0.00380385
0.00380184
0.00382113
0.00382249
0.00380036
0.00380043
0.00381598
0.0038212
0.00380412
0.00382
0.00380385
0.00380096
0.00379531
0.00377497
0.00379399
0.00377607
0.00379389
0.00379135
0.00377544
0.00377823
0.00379451
0.00379122
0.0037749
0.00379531
0.00377497
0.00379399
0.00377606
0.00379389
0.00379135
0.00377823
0.00377544
0.00379122
0.00379451
0.0037749
0.00380184
0.00382114
0.00382249
0.00380037
0.00380043
0.00381598
0.00382121
0.00380412
0.00382
0.00380385
0.00380097
0.00380184
0.00382114
0.00382249
0.00380037
0.00379389
0.00379136
0.00377544
0.00377824
0.00379452
0.00379122
0.0037749
0.00379531
0.00377497
0.00379399
0.00377607
0.00379389
0.00379136
0.00377824
0.00377544
0.00379122
0.00379451
0.0037749
0.00379531
0.00377498
0.00379399
0.00377607
0.00382223
0.00382223
0.00380067
0.00380129
0.0038013
0.00382004
0.00379994
0.00377456
0.0037935
0.00379387
0.00377563
0.00377564
0.00379483
0.00379483
0.00377456
0.0037935
0.00380043
0.00381598
0.00382121
0.00380412
0.00381999
0.00380385
0.00380097
0.00380184
0.00382113
0.00382249
0.00380037
0.00380184
0.00382113
0.00382249
0.00380037
0.0037939
0.00379135
0.00377824
0.00377544
0.00379122
0.00379452
0.0037749
0.0037939
0.00379135
0.00377824
0.00377544
0.00379122
0.00379452
0.0037749
0.00379531
0.00377497
0.00379399
0.00377606
0.00379531
0.00377497
0.00379399
0.00377606
0.00382004
0.00379993
0.00382003
0.00379994
0.00379387
0.00377564
0.00377564
0.00379483
0.00379483
0.00377456
0.0037935
0.00377456
0.0037935
0.00376807
0.00374829
0.00376807
0.00374829
0.00376906
0.00376906
0.00374869
0.00374914
0.00374914
0.00372202
0.00374164
0.00372202
0.00374164
0.00374174
0.00372269
0.00372269
0.00374245
0.00374245
0.00374961
0.00376842
0.00376948
0.00374858
0.0037487
0.00376881
0.00376511
0.00375207
0.00376824
0.00374907
0.00375197
0.0037487
0.00376881
0.00376511
0.00375207
0.00376824
0.00374907
0.00375197
0.00374291
0.00372224
0.00374191
0.00372314
0.00374291
0.00372224
0.00374191
0.00372314
0.00374197
0.00373895
0.00372272
0.00372581
0.00374234
0.00373887
0.00372247
0.00374197
0.00373895
0.00372272
0.00372581
0.00374234
0.00373887
0.00372247
0.00376906
0.00376906
0.00374869
0.00374914
0.00374914
0.00376807
0.00374829
0.00372202
0.00374164
0.00374174
0.00372269
0.00372269
0.00374245
0.00374245
0.00372202
0.00374164
0.0037487
0.00376881
0.00376511
0.00375207
0.00376824
0.00374907
0.00375197
0.00374961
0.00376842
0.00376948
0.00374858
0.0037487
0.00376511
0.00376881
0.00375207
0.00376824
0.00375197
0.00374907
0.00374291
0.00372224
0.00374191
0.00372314
0.00374197
0.00373895
0.00372272
0.00372581
0.00374234
0.00373887
0.00372247
0.00374291
0.00372224
0.00374191
0.00372314
0.00374197
0.00373895
0.00372581
0.00372272
0.00373887
0.00374234
0.00372247
0.00374961
0.00376842
0.00376948
0.00374858
0.0037487
0.00376511
0.00376881
0.00375207
0.00376824
0.00375197
0.00374907
0.00374961
0.00376842
0.00376948
0.00374858
0.00374197
0.00373895
0.00372272
0.00372581
0.00374234
0.00373887
0.00372247
0.00374291
0.00372224
0.00374191
0.00372314
0.00374197
0.00373895
0.00372581
0.00372272
0.00373887
0.00374234
0.00372247
0.00374291
0.00372224
0.00374191
0.00372314
0.00376906
0.00376906
0.00374869
0.00374914
0.00374914
0.00376807
0.00374829
0.00372202
0.00374164
0.00374174
0.00372269
0.00372269
0.00374245
0.00374245
0.00372202
0.00374164
0.0037487
0.00376511
0.00376881
0.00375207
0.00376824
0.00375197
0.00374907
0.00374961
0.00376842
0.00376948
0.00374858
0.00374961
0.00376842
0.00376948
0.00374858
0.00374197
0.00373895
0.00372581
0.00372272
0.00373887
0.00374234
0.00372247
0.00374197
0.00373895
0.00372581
0.00372272
0.00373887
0.00374234
0.00372247
0.00374291
0.00372224
0.00374191
0.00372314
0.00374291
0.00372224
0.00374191
0.00372314
0.00376807
0.00374829
0.00376807
0.00374829
0.00374174
0.00372269
0.00372269
0.00374245
0.00374245
0.00372202
0.00374164
0.00372202
0.00374164
0.00371551
0.00369613
0.00371551
0.00369613
0.00371616
0.00371616
0.0036966
0.00369669
0.00369669
0.00367046
0.00368962
0.00367045
0.00368962
0.00368979
0.00367094
0.00367094
0.00369018
0.00369018
0.00369709
0.00371572
0.00371656
0.0036963
0.00369657
0.00371612
0.00371281
0.0036999
0.00371582
0.00369675
0.00369986
0.00369657
0.00371612
0.00371281
0.0036999
0.00371582
0.00369675
0.00369986
0.00369056
0.00367061
0.00368979
0.00367124
0.00369056
0.00367061
0.00368979
0.00367124
0.00368997
0.00368703
0.00367102
0.00367421
0.00369018
0.003687
0.00367088
0.00368997
0.00368703
0.00367102
0.00367421
0.00369018
0.003687
0.00367088
0.00371616
0.00371616
0.0036966
0.00369669
0.00369669
0.00371551
0.00369613
0.00367046
0.00368963
0.00368979
0.00367095
0.00367094
0.00369018
0.00369018
0.00367045
0.00368963
0.00369657
0.00371612
0.00371281
0.0036999
0.00371582
0.00369675
0.00369986
0.00369709
0.00371572
0.00371656
0.0036963
0.00369657
0.00371281
0.00371612
0.0036999
0.00371582
0.00369986
0.00369675
0.00369056
0.00367061
0.00368979
0.00367124
0.00368997
0.00368703
0.00367102
0.00367421
0.00369018
0.003687
0.00367088
0.00369056
0.00367061
0.00368979
0.00367124
0.00368997
0.00368703
0.00367421
0.00367102
0.003687
0.00369018
0.00367088
0.00369709
0.00371572
0.00371656
0.0036963
0.00369657
0.00371281
0.00371612
0.0036999
0.00371582
0.00369986
0.00369675
0.00369709
0.00371572
0.00371656
0.0036963
0.00368997
0.00368703
0.00367102
0.00367421
0.00369018
0.003687
0.00367088
0.00369056
0.00367061
0.00368979
0.00367124
0.00368997
0.00368703
0.00367421
0.00367102
0.003687
0.00369018
0.00367088
0.00369056
0.00367061
0.00368979
0.00367124
0.00371616
0.00371616
0.0036966
0.00369669
0.00369669
0.00371551
0.00369613
0.00367045
0.00368963
0.00368979
0.00367094
0.00367094
0.00369018
0.00369018
0.00367045
0.00368962
0.00369657
0.00371281
0.00371612
0.0036999
0.00371582
0.00369986
0.00369675
0.00369709
0.00371572
0.00371656
0.0036963
0.00369709
0.00371572
0.00371656
0.0036963
0.00368997
0.00368703
0.00367421
0.00367102
0.003687
0.00369018
0.00367088
0.00368997
0.00368703
0.00367421
0.00367102
0.003687
0.00369018
0.00367088
0.00369056
0.00367061
0.00368979
0.00367124
0.00369056
0.00367061
0.00368979
0.00367124
0.00371551
0.00369613
0.00371551
0.00369613
0.00368979
0.00367094
0.00367094
0.00369018
0.00369018
0.00367045
0.00368963
0.00367045
0.00368962
0.0036641
0.00364514
0.0036641
0.00364514
0.00366458
0.00366458
0.00364565
0.00364558
0.00364558
0.00362022
0.00363885
0.00362022
0.00363885
0.00363903
0.00362063
0.00362063
0.00363928
0.00363928
0.00364584
0.00366424
0.00366487
0.00364528
0.00364557
0.00366459
0.00366148
0.00364886
0.00366441
0.00364567
0.00364884
0.00364557
0.00366459
0.00366148
0.00364886
0.00366441
0.00364567
0.00364884
0.00363949
0.00362033
0.00363899
0.00362084
0.00363949
0.00362033
0.00363899
0.00362084
0.00363915
0.00363631
0.00362072
0.00362385
0.0036393
0.00363629
0.00362066
0.00363915
0.00363631
0.00362072
0.00362385
0.0036393
0.00363629
0.00362066
0.00366458
0.00366458
0.00364565
0.00364558
0.00364558
0.0036641
0.00364514
0.00362022
0.00363885
0.00363903
0.00362063
0.00362063
0.00363928
0.00363928
0.00362022
0.00363886
0.00364557
0.00366459
0.00366148
0.00364886
0.00366441
0.00364567
0.00364884
0.00364584
0.00366424
0.00366487
0.00364528
0.00364557
0.00366148
0.00366459
0.00364886
0.00366441
0.00364884
0.00364567
0.00363948
0.00362033
0.00363899
0.00362084
0.00363915
0.00363631
0.00362072
0.00362385
0.0036393
0.00363629
0.00362066
0.00363948
0.00362033
0.00363899
0.00362084
0.00363915
0.00363631
0.00362385
0.00362072
0.00363629
0.0036393
0.00362066
0.00364584
0.00366424
0.00366487
0.00364528
0.00364557
0.00366148
0.00366459
0.00364886
0.00366441
0.00364884
0.00364567
0.00364584
0.00366424
0.00366487
0.00364528
0.00363915
0.00363631
0.00362072
0.00362385
0.0036393
0.00363629
0.00362066
0.00363949
0.00362033
0.00363899
0.00362084
0.00363915
0.00363631
0.00362385
0.00362072
0.00363629
0.0036393
0.00362066
0.00363949
0.00362033
0.00363899
0.00362084
0.00366458
0.00366458
0.00364565
0.00364558
0.00364558
0.0036641
0.00364514
0.00362022
0.00363885
0.00363903
0.00362063
0.00362063
0.00363928
0.00363928
0.00362022
0.00363885
0.00364557
0.00366148
0.00366459
0.00364886
0.00366441
0.00364884
0.00364567
0.00364584
0.00366424
0.00366487
0.00364528
0.00364584
0.00366424
0.00366487
0.00364528
0.00363915
0.00363631
0.00362385
0.00362072
0.00363629
0.0036393
0.00362066
0.00363915
0.00363631
0.00362385
0.00362072
0.00363629
0.0036393
0.00362066
0.00363948
0.00362033
0.00363899
0.00362084
0.00363948
0.00362033
0.00363899
0.00362084
0.0036641
0.00364515
0.0036641
0.00364514
0.00363903
0.00362063
0.00362063
0.00363928
0.00363928
0.00362022
0.00363885
0.00362022
0.00363885
0.00361402
0.0035957
0.00361402
0.0035957
0.00361443
0.00361443
0.0035962
0.00359607
0.00359607
0.00357139
0.00358956
0.00357139
0.00358956
0.00358979
0.00357174
0.00357174
0.00358993
0.00358993
0.00359617
0.00361414
0.00361465
0.00359583
0.00359608
0.00361445
0.00361152
0.0035993
0.00361436
0.00359616
0.00359928
0.00359608
0.00361445
0.00361151
0.0035993
0.00361436
0.00359616
0.00359928
0.00358997
0.00357148
0.00358967
0.00357191
0.00358997
0.00357148
0.00358967
0.00357191
0.00358985
0.00358714
0.00357186
0.00357509
0.00358994
0.00358714
0.0035719
0.00358984
0.00358714
0.00357186
0.00357509
0.00358994
0.00358714
0.0035719
0.00361443
0.00361443
0.0035962
0.00359607
0.00359607
0.00361402
0.0035957
0.00357139
0.00358955
0.00358979
0.00357174
0.00357174
0.00358992
0.00358993
0.00357139
0.00358956
0.00359608
0.00361445
0.00361152
0.0035993
0.00361436
0.00359616
0.00359928
0.00359617
0.00361413
0.00361465
0.00359583
0.00359608
0.00361152
0.00361445
0.0035993
0.00361436
0.00359928
0.00359616
0.00358997
0.00357148
0.00358967
0.00357191
0.00358985
0.00358714
0.00357186
0.00357509
0.00358994
0.00358714
0.0035719
0.00358997
0.00357148
0.00358967
0.00357191
0.00358985
0.00358714
0.00357509
0.00357186
0.00358714
0.00358994
0.0035719
0.00359617
0.00361413
0.00361465
0.00359583
0.00359608
0.00361152
0.00361445
0.0035993
0.00361436
0.00359928
0.00359616
0.00359617
0.00361413
0.00361465
0.00359583
0.00358984
0.00358714
0.00357186
0.00357509
0.00358994
0.00358714
0.0035719
0.00358997
0.00357148
0.00358967
0.00357191
0.00358984
0.00358714
0.00357509
0.00357186
0.00358714
0.00358994
0.0035719
0.00358997
0.00357148
0.00358967
0.00357191
0.00361443
0.00361443
0.0035962
0.00359607
0.00359607
0.00361402
0.0035957
0.00357139
0.00358956
0.00358979
0.00357174
0.00357174
0.00358993
0.00358993
0.00357139
0.00358956
0.00359608
0.00361152
0.00361445
0.0035993
0.00361436
0.00359928
0.00359616
0.00359617
0.00361413
0.00361465
0.00359583
0.00359617
0.00361413
0.00361465
0.00359583
0.00358985
0.00358714
0.00357509
0.00357186
0.00358714
0.00358994
0.0035719
0.00358985
0.00358714
0.00357509
0.00357186
0.00358714
0.00358994
0.0035719
0.00358997
0.00357148
0.00358967
0.00357191
0.00358997
0.00357148
0.00358967
0.00357191
0.00361402
0.0035957
0.00361402
0.0035957
0.00358979
0.00357174
0.00357174
0.00358993
0.00358993
0.00357139
0.00358956
0.00357139
0.00358956
0.00356539
0.00354782
0.00356539
0.00354781
0.00356573
0.00356573
0.00354868
0.00354814
0.00354814
0.00352538
0.00354204
0.00352537
0.00354203
0.00354266
0.00352561
0.0035256
0.00354236
0.00354236
0.00354841
0.00356548
0.00356598
0.00354798
0.00354843
0.00356581
0.00356324
0.0035516
0.00356585
0.00354835
0.00355164
0.00354843
0.00356581
0.00356324
0.0035516
0.00356585
0.00354835
0.00355164
0.00354253
0.00352556
0.00354223
0.00352544
0.00354253
0.00352555
0.00354222
0.00352544
0.00354256
0.00354021
0.00352581
0.00352909
0.00354251
0.00354025
0.00352584
0.00354256
0.00354021
0.00352579
0.00352909
0.00354251
0.00354025
0.00352584
0.00356573
0.00356573
0.00354868
0.00354814
0.00354813
0.00356539
0.00354781
0.00352537
0.00354203
0.00354266
0.0035256
0.00352559
0.00354236
0.00354235
0.00352536
0.00354203
0.00354843
0.00356581
0.00356324
0.0035516
0.00356586
0.00354835
0.00355164
0.00354841
0.00356548
0.00356598
0.00354798
0.00354843
0.00356324
0.00356581
0.0035516
0.00356585
0.00355164
0.00354835
0.00354253
0.00352555
0.00354222
0.00352543
0.00354255
0.00354021
0.00352579
0.00352909
0.00354251
0.00354025
0.00352584
0.00354253
0.00352555
0.00354223
0.00352543
0.00354255
0.00354021
0.00352909
0.00352579
0.00354025
0.00354251
0.00352584
0.00354841
0.00356548
0.00356598
0.00354797
0.00354843
0.00356324
0.00356581
0.0035516
0.00356585
0.00355164
0.00354835
0.00354841
0.00356548
0.00356598
0.00354797
0.00354255
0.00354022
0.00352577
0.0035291
0.00354251
0.00354025
0.00352584
0.00354253
0.00352554
0.00354222
0.00352543
0.00354255
0.00354022
0.0035291
0.00352577
0.00354025
0.00354251
0.00352584
0.00354253
0.00352553
0.00354222
0.00352543
0.00356573
0.00356573
0.00354868
0.00354814
0.00354814
0.00356539
0.00354781
0.00352537
0.00354203
0.00354266
0.0035256
0.0035256
0.00354236
0.00354236
0.00352537
0.00354203
0.00354843
0.00356324
0.00356581
0.00355161
0.00356586
0.00355164
0.00354835
0.00354841
0.00356548
0.00356598
0.00354798
0.00354841
0.00356548
0.00356598
0.00354797
0.00354255
0.00354021
0.00352909
0.00352579
0.00354025
0.00354251
0.00352584
0.00354255
0.00354022
0.0035291
0.00352577
0.00354025
0.00354251
0.00352584
0.00354253
0.00352555
0.00354222
0.00352543
0.00354253
0.00352554
0.00354222
0.00352543
0.00356539
0.00354781
0.00356539
0.00354781
0.00354266
0.00352559
0.00352559
0.00354235
0.00354235
0.00352536
0.00354203
0.00352536
0.00354203
0.00351999
0.00350442
0.00351999
0.00350442
0.0035202
0.00352019
0.00350501
0.00350457
0.00350456
0.0034841
0.00349929
0.0034841
0.00349929
0.00349957
0.00348419
0.00348419
0.00349943
0.00349942
0.00350431
0.00352012
0.00351995
0.00350446
0.00350472
0.00352032
0.00351822
0.00350755
0.00352033
0.00350469
0.00350761
0.00350472
0.00352031
0.00351822
0.00350755
0.00352033
0.00350469
0.00350761
0.0034992
0.00348407
0.0034993
0.0034841
0.0034992
0.00348406
0.0034993
0.0034841
0.00349944
0.00349715
0.00348422
0.00348692
0.00349941
0.0034972
0.00348429
0.00349944
0.00349715
0.00348421
0.00348692
0.00349941
0.0034972
0.00348429
0.00352019
0.00352018
0.00350501
0.00350456
0.00350456
0.00351998
0.00350442
0.0034841
0.00349929
0.00349957
0.00348418
0.00348418
0.00349942
0.00349942
0.0034841
0.00349929
0.00350472
0.00352031
0.00351822
0.00350755
0.00352033
0.00350469
0.00350761
0.00350431
0.00352012
0.00351995
0.00350446
0.00350472
0.00351822
0.00352031
0.00350755
0.00352033
0.00350761
0.00350469
0.0034992
0.00348407
0.0034993
0.0034841
0.00349944
0.00349715
0.00348422
0.00348692
0.00349941
0.0034972
0.00348429
0.0034992
0.00348407
0.0034993
0.0034841
0.00349943
0.00349715
0.00348692
0.00348422
0.0034972
0.00349941
0.00348429
0.0035043
0.00352011
0.00351995
0.00350446
0.00350472
0.00351822
0.0035203
0.00350755
0.00352033
0.00350761
0.00350469
0.0035043
0.00352011
0.00351995
0.00350446
0.00349943
0.00349715
0.00348421
0.00348691
0.00349941
0.0034972
0.00348429
0.0034992
0.00348406
0.0034993
0.0034841
0.00349943
0.00349715
0.00348691
0.00348421
0.0034972
0.00349941
0.00348429
0.0034992
0.00348406
0.00349929
0.0034841
0.00352019
0.00352019
0.00350501
0.00350456
0.00350456
0.00351999
0.00350442
0.0034841
0.00349929
0.00349957
0.00348418
0.00348418
0.00349942
0.00349942
0.0034841
0.00349929
0.00350472
0.00351822
0.0035203
0.00350755