/*--------------------------------*- C++ -*----------------------------------*\
| =========                 |                                                 |
| \\      /  F ield         | OpenFOAM: The Open Source CFD Toolbox           |
|  \\    /   O peration     | Version:  2206                                  |
|   \\  /    A nd           | Website:  www.openfoam.com                      |
|    \\/     M anipulation  |                                                 |
\*---------------------------------------------------------------------------*/
FoamFile
{
    version     2.0;
    format      ascii;
    arch        "LSB;label=32;scalar=64";
    class       volScalarField;
    location    "5";
    object      nut;
}
// * * * * * * * * * * * * * * * * * * * * * * * * * * * * * * * * * * * * * //

dimensions      [0 2 -1 0 0 0 0];

internalField   nonuniform List<scalar> 
28897
(
0.00023349
0.000232736
0.000232731
0.000231667
0.000233482
0.000232707
0.000232713
0.000231623
0.000233489
0.000232719
0.000232719
0.000231631
0.000233489
0.000232719
0.000232719
0.000231631
0.000233489
0.000232719
0.000232719
0.000231631
0.000233489
0.000232719
0.000232719
0.000231631
0.000233489
0.000232719
0.000232719
0.000231631
0.000233489
0.000232719
0.000232719
0.000231631
0.000233489
0.000232719
0.000232719
0.000231631
0.000233489
0.000232719
0.000232719
0.000231631
0.000233489
0.000232719
0.000232719
0.000231631
0.000233488
0.000232719
0.000232719
0.000231631
0.000233489
0.000232719
0.000232719
0.000231631
0.000233489
0.000232719
0.000232719
0.000231631
0.000233489
0.000232719
0.000232719
0.000231631
0.000233489
0.000232719
0.000232719
0.000231631
0.000233489
0.000232719
0.000232719
0.000231631
0.000233489
0.00023272
0.00023272
0.000231631
0.000231683
0.000232735
0.000232735
0.000231688
0.000232735
0.000232734
0.000232737
0.000232735
0.000231683
0.000232735
0.000232735
0.000231683
0.000231666
0.000231636
0.000232731
0.000232732
0.000232704
0.000232706
0.000231672
0.000231632
0.000232731
0.00023273
0.000232705
0.000232704
0.000232732
0.000232701
0.000232705
0.000231666
0.000231636
0.000232731
0.000232705
0.000232705
0.000231634
0.000231629
0.000231647
0.000232713
0.000232713
0.000232719
0.000232718
0.000231614
0.000231648
0.000232713
0.000232712
0.000232719
0.000232718
0.000232713
0.000232719
0.000232718
0.000231628
0.000231647
0.000232713
0.000232719
0.000232719
0.000231645
0.000231637
0.000231647
0.000232719
0.000232719
0.000232719
0.000232718
0.000231637
0.000231648
0.000232719
0.000232718
0.000232719
0.000232718
0.000232719
0.000232719
0.000232718
0.000231636
0.000231647
0.000232719
0.000232719
0.000232719
0.000231645
0.000231637
0.000231647
0.000232719
0.000232719
0.000232718
0.000232718
0.000231637
0.000231648
0.000232719
0.000232718
0.000232719
0.000232718
0.000232719
0.000232719
0.000232718
0.000231637
0.000231647
0.000232719
0.000232719
0.000232719
0.000231645
0.000231637
0.000231647
0.000232719
0.000232719
0.000232718
0.000232718
0.000231637
0.000231648
0.000232719
0.000232718
0.000232719
0.000232718
0.000232719
0.000232719
0.000232718
0.000231637
0.000231647
0.000232719
0.000232719
0.000232719
0.000231645
0.000231637
0.000231647
0.000232719
0.000232719
0.000232718
0.000232718
0.000231637
0.000231648
0.000232719
0.000232718
0.000232719
0.000232718
0.000232719
0.000232719
0.000232718
0.000231637
0.000231647
0.000232719
0.000232719
0.000232719
0.000231645
0.000231637
0.000231647
0.000232719
0.000232719
0.000232718
0.000232718
0.000231637
0.000231648
0.000232719
0.000232718
0.000232719
0.000232718
0.000232719
0.000232719
0.000232718
0.000231637
0.000231647
0.000232719
0.000232719
0.000232719
0.000231645
0.000231637
0.000231647
0.000232719
0.000232719
0.000232718
0.000232718
0.000231637
0.000231648
0.000232719
0.000232718
0.000232719
0.000232718
0.000232719
0.000232719
0.000232718
0.000231637
0.000231647
0.000232719
0.000232719
0.000232719
0.000231645
0.000231637
0.000231647
0.000232719
0.000232719
0.000232718
0.000232718
0.000231637
0.000231647
0.000232719
0.000232718
0.000232719
0.000232718
0.000232719
0.000232719
0.000232718
0.000231637
0.000231647
0.000232719
0.000232719
0.000232719
0.000231645
0.000231637
0.000231647
0.000232719
0.000232719
0.000232719
0.000232718
0.000231637
0.000231647
0.000232719
0.000232718
0.000232719
0.000232718
0.000232719
0.000232719
0.000232718
0.000231637
0.000231647
0.000232719
0.000232719
0.000232719
0.000231645
0.000231637
0.000231647
0.000232719
0.000232719
0.000232718
0.000232718
0.000231637
0.000231648
0.000232719
0.000232718
0.000232719
0.000232718
0.000232719
0.000232719
0.000232718
0.000231636
0.000231647
0.000232719
0.000232719
0.000232719
0.000231645
0.000231637
0.000231647
0.000232719
0.000232718
0.000232718
0.000232718
0.000231637
0.000231648
0.000232719
0.000232718
0.000232719
0.000232718
0.000232719
0.000232719
0.000232718
0.000231637
0.000231647
0.000232719
0.000232719
0.000232719
0.000231645
0.000231637
0.000231647
0.000232719
0.000232718
0.000232718
0.000232718
0.000231637
0.000231648
0.000232719
0.000232718
0.000232719
0.000232718
0.000232719
0.000232719
0.000232718
0.000231636
0.000231647
0.000232719
0.000232719
0.000232719
0.000231645
0.000231637
0.000231647
0.000232719
0.000232719
0.000232718
0.000232718
0.000231637
0.000231648
0.000232719
0.000232718
0.000232719
0.000232718
0.000232719
0.000232719
0.000232718
0.000231637
0.000231647
0.000232719
0.000232719
0.000232719
0.000231645
0.000231637
0.000231647
0.000232719
0.000232719
0.000232718
0.000232718
0.000231637
0.000231648
0.000232719
0.000232718
0.000232719
0.000232718
0.000232719
0.000232719
0.000232718
0.000231637
0.000231647
0.000232719
0.000232719
0.000232719
0.000231645
0.000231637
0.000231647
0.000232719
0.000232719
0.000232718
0.000232718
0.000231637
0.000231648
0.000232719
0.000232718
0.000232719
0.000232718
0.000232719
0.000232719
0.000232718
0.000231637
0.000231647
0.000232719
0.000232719
0.000232719
0.000231645
0.000231637
0.000231647
0.000232719
0.000232719
0.000232718
0.000232718
0.000231637
0.000231647
0.000232719
0.000232718
0.000232719
0.000232718
0.000232719
0.000232719
0.000232718
0.000231636
0.000231647
0.000232719
0.000232719
0.000232719
0.000231645
0.000231635
0.000232719
0.000232719
0.000231635
0.000232719
0.000232718
0.000232719
0.000231634
0.000232719
0.000233494
0.000233494
0.000233494
0.000233494
0.000108173
4.17524e-05
0.000108208
4.17576e-05
2.34323e-05
2.34322e-05
0.000108182
4.17499e-05
0.000108221
4.17551e-05
0.000233491
0.00023349
0.00023349
0.000233473
0.000233474
0.000233474
0.000233473
0.000204102
0.000123925
0.000233373
0.000232731
0.000204105
0.000123938
0.000233362
2.3431e-05
2.34367e-05
0.00020407
0.000233372
0.000123916
0.000232717
0.000204105
0.000233358
0.000123881
7.14704e-05
7.14562e-05
0.000231652
7.14601e-05
7.14178e-05
0.000107971
4.1775e-05
0.000107956
4.17743e-05
2.34527e-05
2.34532e-05
0.000107982
4.17725e-05
0.000107968
4.17718e-05
0.000233482
0.000233482
0.000233482
0.000233489
0.000233489
0.000233489
0.000233489
0.000203916
0.000123693
0.000233361
0.000232714
0.000203902
0.000123686
0.000233366
2.34519e-05
2.34514e-05
0.000203918
0.000233362
0.000123668
0.000232718
0.000203899
0.000233367
0.000123691
7.12576e-05
7.12399e-05
0.000231647
7.12603e-05
7.12479e-05
0.000107971
4.17746e-05
0.000107956
4.17743e-05
2.34536e-05
2.34532e-05
0.000107983
4.17721e-05
0.00010797
4.17717e-05
0.000233489
0.000233489
0.000233489
0.000233488
0.000233489
0.000233489
0.000233489
0.000203918
0.000123658
0.000233368
0.00023272
0.000203901
0.000123686
0.000233368
2.34515e-05
2.34513e-05
0.00020392
0.000233368
0.000123666
0.000232719
0.000203902
0.000233368
0.000123691
7.12527e-05
7.12398e-05
0.000231648
7.1261e-05
7.12479e-05
0.000107971
4.17746e-05
0.000107956
4.17742e-05
2.34536e-05
2.34532e-05
0.000107983
4.17721e-05
0.00010797
4.17717e-05
0.000233489
0.000233489
0.000233489
0.000233489
0.000233489
0.000233489
0.000233488
0.000203918
0.000123658
0.000233368
0.000232719
0.000203901
0.000123686
0.000233368
2.34515e-05
2.34513e-05
0.000203921
0.000233368
0.000123666
0.000232719
0.000203902
0.000233368
0.000123691
7.12528e-05
7.12398e-05
0.000231648
7.12609e-05
7.12478e-05
0.000107971
4.17746e-05
0.000107956
4.17743e-05
2.34536e-05
2.34532e-05
0.000107983
4.17721e-05
0.00010797
4.17717e-05
0.000233489
0.000233489
0.000233489
0.000233489
0.000233489
0.000233489
0.000233488
0.000203918
0.000123658
0.000233368
0.000232719
0.000203901
0.000123686
0.000233368
2.34515e-05
2.34513e-05
0.00020392
0.000233368
0.000123666
0.000232719
0.000203902
0.000233368
0.000123691
7.12528e-05
7.12398e-05
0.000231648
7.12609e-05
7.12477e-05
0.000107971
4.17746e-05
0.000107956
4.17743e-05
2.34536e-05
2.34532e-05
0.000107983
4.17721e-05
0.00010797
4.17717e-05
0.000233489
0.000233489
0.000233489
0.000233489
0.000233488
0.000233489
0.000233488
0.000203918
0.000123658
0.000233368
0.000232719
0.000203901
0.000123686
0.000233368
2.34515e-05
2.34513e-05
0.00020392
0.000233368
0.000123666
0.000232719
0.000203902
0.000233368
0.000123691
7.12528e-05
7.12396e-05
0.000231648
7.12609e-05
7.12477e-05
0.000107971
4.17746e-05
0.000107956
4.17743e-05
2.34536e-05
2.34532e-05
0.000107983
4.17721e-05
0.00010797
4.17717e-05
0.000233489
0.000233489
0.000233489
0.000233489
0.000233489
0.000233488
0.000233488
0.000203918
0.000123658
0.000233368
0.000232719
0.000203901
0.000123686
0.000233368
2.34515e-05
2.34513e-05
0.00020392
0.000233368
0.000123666
0.000232719
0.000203902
0.000233368
0.000123691
7.12528e-05
7.12397e-05
0.000231648
7.12609e-05
7.12478e-05
0.000107971
4.17746e-05
0.000107956
4.17743e-05
2.34536e-05
2.34532e-05
0.000107983
4.17721e-05
0.00010797
4.17717e-05
0.000233489
0.000233489
0.000233489
0.000233489
0.000233489
0.000233489
0.000233488
0.000203918
0.000123658
0.000233368
0.000232719
0.000203901
0.000123686
0.000233368
2.34515e-05
2.34513e-05
0.00020392
0.000233368
0.000123666
0.000232719
0.000203902
0.000233368
0.000123691
7.12528e-05
7.124e-05
0.000231648
7.12609e-05
7.12479e-05
0.000107971
4.17746e-05
0.000107956
4.17742e-05
2.34536e-05
2.34532e-05
0.000107983
4.17721e-05
0.00010797
4.17717e-05
0.000233489
0.000233489
0.000233489
0.000233489
0.000233488
0.000233489
0.000233488
0.000203919
0.000123658
0.000233368
0.000232719
0.000203901
0.000123686
0.000233368
2.34515e-05
2.34513e-05
0.00020392
0.000233368
0.000123666
0.000232719
0.000203902
0.000233368
0.000123691
7.12528e-05
7.12397e-05
0.000231648
7.12609e-05
7.12479e-05
0.000107971
4.17746e-05
0.000107956
4.17743e-05
2.34536e-05
2.34532e-05
0.000107983
4.17721e-05
0.00010797
4.17717e-05
0.000233489
0.000233489
0.000233489
0.000233489
0.000233489
0.000233489
0.000233489
0.000203919
0.000123658
0.000233368
0.000232719
0.000203901
0.000123686
0.000233368
2.34515e-05
2.34513e-05
0.00020392
0.000233368
0.000123666
0.000232719
0.000203902
0.000233368
0.000123691
7.12528e-05
7.12396e-05
0.000231648
7.12609e-05
7.12478e-05
0.000107971
4.17749e-05
0.000107956
4.17749e-05
2.34533e-05
2.3453e-05
0.000107983
4.17718e-05
0.00010797
4.17714e-05
0.000233489
0.000233489
0.000233489
0.000233488
0.000233488
0.000233489
0.000233489
0.000203919
0.000123658
0.000233368
0.000232719
0.000203901
0.000123686
0.000233368
2.34515e-05
2.34513e-05
0.00020392
0.000233368
0.000123666
0.000232719
0.000203902
0.000233368
0.000123691
7.12528e-05
7.124e-05
0.000231648
7.12609e-05
7.12478e-05
0.000107971
4.17752e-05
0.000107956
4.1775e-05
2.34532e-05
2.34526e-05
0.000107983
4.17716e-05
0.00010797
4.17713e-05
0.000233489
0.000233489
0.000233489
0.000233489
0.000233489
0.000233489
0.000233488
0.000203918
0.000123658
0.000233368
0.000232719
0.000203901
0.000123686
0.000233368
2.34515e-05
2.34513e-05
0.00020392
0.000233368
0.000123666
0.000232719
0.000203901
0.000233368
0.000123692
7.12528e-05
7.12398e-05
0.000231648
7.12609e-05
7.12479e-05
0.000107971
4.17753e-05
0.000107956
4.1775e-05
2.34531e-05
2.34528e-05
0.000107983
4.17716e-05
0.00010797
4.17713e-05
0.000233489
0.000233489
0.000233489
0.000233489
0.000233489
0.000233489
0.000233488
0.000203918
0.000123658
0.000233368
0.000232719
0.000203901
0.000123686
0.000233368
2.34515e-05
2.34513e-05
0.000203921
0.000233368
0.000123666
0.000232719
0.000203901
0.000233368
0.000123692
7.12527e-05
7.12397e-05
0.000231648
7.12609e-05
7.12479e-05
0.000107971
4.17753e-05
0.000107956
4.1775e-05
2.34531e-05
2.34528e-05
0.000107983
4.17716e-05
0.00010797
4.17713e-05
0.000233489
0.000233489
0.000233488
0.000233489
0.000233489
0.000233489
0.000233488
0.000203918
0.000123658
0.000233368
0.000232719
0.000203901
0.000123686
0.000233368
2.34515e-05
2.34513e-05
0.000203919
0.000233368
0.000123666
0.000232719
0.0002039
0.000233368
0.000123692
7.12527e-05
7.12398e-05
0.000231648
7.12609e-05
7.12477e-05
0.000107971
4.17753e-05
0.000107956
4.1775e-05
2.34532e-05
2.34528e-05
0.000107983
4.17716e-05
0.00010797
4.17713e-05
0.000233489
0.000233489
0.000233488
0.000233489
0.000233489
0.000233489
0.000233489
0.000203918
0.000123658
0.000233368
0.000232719
0.000203901
0.000123686
0.000233368
2.34515e-05
2.34513e-05
0.00020392
0.000233368
0.000123666
0.000232719
0.0002039
0.000233368
0.000123692
7.12528e-05
7.12397e-05
0.000231648
7.12609e-05
7.12479e-05
0.000107971
4.17753e-05
0.000107956
4.1775e-05
2.34532e-05
2.34528e-05
0.000107983
4.17716e-05
0.00010797
4.17713e-05
0.000233489
0.000233489
0.000233489
0.000233489
0.000233489
0.000233489
0.000233489
0.000203918
0.000123658
0.000233368
0.000232719
0.000203901
0.000123686
0.000233368
2.34515e-05
2.34513e-05
0.000203919
0.000233368
0.000123666
0.000232719
0.0002039
0.000233368
0.000123692
7.12528e-05
7.12397e-05
0.000231648
7.12609e-05
7.12477e-05
0.000107971
4.17753e-05
0.000107956
4.1775e-05
2.34532e-05
2.34528e-05
0.000107983
4.17716e-05
0.00010797
4.17713e-05
0.000233489
0.000233489
0.000233489
0.000233489
0.000233489
0.000233489
0.000233488
0.000203918
0.000123658
0.000233368
0.000232719
0.000203901
0.000123686
0.000233368
2.34515e-05
2.34513e-05
0.000203919
0.000233368
0.000123666
0.000232719
0.0002039
0.000233368
0.000123692
7.12527e-05
7.12396e-05
0.000231648
7.12608e-05
7.12479e-05
4.17753e-05
0.000107956
2.34532e-05
4.17716e-05
0.00010797
0.000233489
0.000233489
0.000233489
0.000123658
0.000233369
0.000203901
2.34515e-05
0.000233369
0.000123666
0.0002039
7.12523e-05
7.12392e-05
2.34328e-05
2.34338e-05
2.34318e-05
2.34329e-05
0.000231675
7.14637e-05
7.14591e-05
7.14488e-05
7.14513e-05
0.000108206
4.17521e-05
4.1752e-05
0.000108225
0.000108206
4.17521e-05
4.17519e-05
0.000108224
0.000204103
0.000232736
0.000123937
0.000233376
0.000123892
0.000233377
0.000204124
0.000204102
0.000232736
0.00012394
0.000233375
0.000123899
0.000233377
0.000204124
2.34325e-05
7.14641e-05
7.14628e-05
2.3433e-05
0.00010822
4.17496e-05
4.17495e-05
0.000108235
0.000204106
0.000232736
0.000123934
0.000233376
0.000123893
0.000233377
0.000204127
0.000108215
4.17473e-05
4.17472e-05
0.000108229
0.000204102
0.000232735
0.000233375
0.000123918
0.000233377
0.000123874
0.000204123
0.000123952
0.000233376
0.000233377
0.000204122
4.17506e-05
0.00010823
0.000232736
0.000233376
0.000123953
0.000233377
0.000204124
4.17489e-05
0.000108229
2.34309e-05
2.34322e-05
0.000231675
7.14449e-05
7.14716e-05
7.14295e-05
7.14636e-05
2.34325e-05
2.34334e-05
0.000204104
0.000232736
0.000233376
0.000123945
0.000233377
0.000123905
0.000204124
0.000204104
0.000232736
0.000233375
0.000123933
0.000233377
0.000123893
0.000204127
0.000108217
4.17491e-05
4.17489e-05
0.00010823
0.000108218
4.17486e-05
4.17484e-05
0.000108232
0.000231675
7.14718e-05
7.14592e-05
7.14532e-05
2.34323e-05
2.34316e-05
2.34326e-05
2.34328e-05
2.34385e-05
2.34319e-05
2.34379e-05
7.1458e-05
7.14633e-05
0.000231649
7.14211e-05
7.14169e-05
2.34531e-05
2.34452e-05
2.34522e-05
2.34443e-05
0.000231611
7.12558e-05
7.12492e-05
7.13489e-05
7.13489e-05
0.000108172
4.17521e-05
0.000108218
4.17571e-05
0.000204067
0.000123917
0.000233372
0.000232716
0.000204107
0.000123875
0.000233359
0.000204066
0.000123925
0.000233372
0.000232721
0.000204106
0.000123893
0.000233359
0.00010809
4.17742e-05
4.17653e-05
0.000107978
0.000108089
4.17742e-05
4.17636e-05
0.000107977
0.000203994
0.000232699
0.000123693
0.000233354
0.000123794
0.000233345
0.000203923
0.000203993
0.000232703
0.00012371
0.000233354
0.00012383
0.000233345
0.000203922
7.14691e-05
7.14614e-05
0.000231675
7.14675e-05
7.14658e-05
2.3433e-05
2.34331e-05
2.34498e-05
2.34335e-05
0.000231648
7.13074e-05
7.13161e-05
7.1453e-05
7.14481e-05
2.34502e-05
2.34341e-05
0.000204069
0.000123916
0.000233372
0.000232717
0.00020411
0.000123872
0.000233359
0.000108178
4.17473e-05
0.000108227
4.17535e-05
0.000204066
0.000233372
0.000123899
0.000232716
0.000204105
0.000233358
0.000123856
0.0001081
4.17716e-05
4.17629e-05
0.000107985
0.000203995
0.0002327
0.00012369
0.000233354
0.000123793
0.000233345
0.000203923
0.000108098
4.17696e-05
4.17608e-05
0.000107981
0.000203992
0.000232698
0.000233353
0.000123674
0.000233344
0.000123776
0.000203921
0.000108209
4.17506e-05
0.000108225
4.17513e-05
0.000204102
0.000233373
0.000123938
0.000232719
0.000204108
0.000233361
0.000123921
0.000108208
4.17489e-05
0.000108225
4.1751e-05
0.000204049
0.000232712
0.000123765
0.000233353
0.000123896
0.000233348
0.000203938
0.000108155
4.17695e-05
4.17525e-05
0.000108
0.000204048
0.000232701
0.000233354
0.000123719
0.000233346
0.000123864
0.000203937
0.000108154
4.17709e-05
4.17551e-05
0.000108
7.14407e-05
7.14754e-05
0.000231649
7.14016e-05
7.14289e-05
2.34324e-05
2.34385e-05
2.34512e-05
2.34435e-05
0.000231611
7.12366e-05
7.12613e-05
7.13294e-05
7.13593e-05
2.34529e-05
2.34449e-05
0.00020407
0.000233372
0.000123916
0.000232717
0.000204107
0.000233358
0.000123872
0.00010818
4.17491e-05
0.000108228
4.17555e-05
0.00010818
4.17486e-05
0.000108229
4.17546e-05
0.000203998
0.000232701
0.000233353
0.0001237
0.000233346
0.000123803
0.000203923
0.000203995
0.0002327
0.000233353
0.000123689
0.000233344
0.000123793
0.000203924
0.0001081
4.17715e-05
4.17626e-05
0.000107982
0.000108098
4.1771e-05
4.17618e-05
0.000107982
2.34322e-05
2.34334e-05
2.34316e-05
2.34373e-05
0.000231615
7.12781e-05
7.12492e-05
7.14162e-05
7.13496e-05
2.3452e-05
2.34373e-05
2.3452e-05
2.34438e-05
2.34529e-05
2.34531e-05
2.3452e-05
2.34522e-05
7.12423e-05
7.12476e-05
0.000231647
7.12442e-05
7.12459e-05
2.34532e-05
2.34526e-05
2.34523e-05
2.34516e-05
0.000231639
7.1247e-05
7.12461e-05
7.12384e-05
7.12478e-05
0.00010797
4.17742e-05
0.000107964
4.17743e-05
0.000203918
0.000123667
0.000233362
0.000232717
0.000203906
0.000123681
0.000233366
0.000203917
0.00012368
0.000233362
0.000232716
0.000203906
0.000123685
0.000233366
0.000107966
4.1774e-05
4.17737e-05
0.000107973
0.000107965
4.17743e-05
4.17737e-05
0.000107971
0.000203907
0.000232719
0.000123682
0.000233368
0.000123664
0.000233368
0.000203919
0.000203906
0.000232718
0.000123685
0.000233368
0.000123671
0.000233368
0.000203919
7.12617e-05
7.12666e-05
0.000231646
7.12459e-05
7.12472e-05
2.34527e-05
2.34534e-05
2.34531e-05
2.34525e-05
0.000231639
7.12484e-05
7.12486e-05
7.12472e-05
7.12405e-05
2.34535e-05
2.34529e-05
0.000203921
0.000123667
0.000233362
0.000232717
0.000203907
0.00012368
0.000233366
0.000107977
4.17694e-05
0.000107974
4.17695e-05
0.000203917
0.000233362
0.000123648
0.000232716
0.000203905
0.000233366
0.000123663
0.000107981
4.17715e-05
4.17712e-05
0.000107984
0.00020391
0.000232719
0.000123681
0.000233368
0.000123666
0.000233368
0.000203923
0.000107975
4.17694e-05
4.17689e-05
0.000107977
0.000203906
0.000232718
0.000233368
0.000123664
0.000233368
0.000123647
0.000203919
0.000107969
4.17727e-05
0.000107966
4.17735e-05
0.000203916
0.000233362
0.000123683
0.000232717
0.00020391
0.000233366
0.000123689
0.000107969
4.17716e-05
0.000107966
4.17717e-05
0.000203906
0.000232718
0.000123686
0.000233368
0.000123669
0.000233368
0.00020392
0.000107964
4.17733e-05
4.17729e-05
0.00010797
0.000203905
0.000232719
0.000233368
0.000123689
0.000233368
0.000123675
0.000203921
0.000107964
4.17717e-05
4.17711e-05
0.00010797
7.12243e-05
7.12595e-05
0.000231647
7.12263e-05
7.12581e-05
2.34526e-05
2.34528e-05
2.3451e-05
2.34507e-05
0.000231639
7.12312e-05
7.12585e-05
7.12221e-05
7.12599e-05
2.34529e-05
2.34524e-05
0.00020392
0.000233362
0.000123667
0.000232717
0.000203906
0.000233366
0.00012368
0.000107978
4.17713e-05
0.000107976
4.17713e-05
0.000107979
4.17708e-05
0.000107976
4.17708e-05
0.000203908
0.00023272
0.000233369
0.000123692
0.000233368
0.000123677
0.000203921
0.000203907
0.000232719
0.000233368
0.00012368
0.000233368
0.000123665
0.000203923
0.000107976
4.17713e-05
4.17708e-05
0.000107979
0.000107977
4.17709e-05
4.17702e-05
0.00010798
2.34524e-05
2.34527e-05
2.34517e-05
2.3452e-05
0.000231639
7.12593e-05
7.12463e-05
7.1262e-05
7.12495e-05
2.34528e-05
2.34521e-05
2.34521e-05
2.34515e-05
2.34528e-05
2.34532e-05
2.3452e-05
2.34522e-05
7.12397e-05
7.12481e-05
0.000231646
7.12454e-05
7.12461e-05
2.34532e-05
2.34526e-05
2.34523e-05
2.34516e-05
0.000231638
7.12474e-05
7.12461e-05
7.12395e-05
7.12477e-05
0.000107971
4.1774e-05
0.000107965
4.17743e-05
0.000203921
0.000123664
0.000233368
0.000232719
0.000203907
0.000123681
0.000233368
0.000203918
0.000123671
0.000233368
0.000232719
0.000203906
0.000123685
0.000233368
0.000107966
4.1774e-05
4.17736e-05
0.000107973
0.000107965
4.17743e-05
4.17737e-05
0.000107971
0.000203908
0.000232719
0.000123682
0.000233368
0.000123665
0.000233368
0.000203918
0.000203906
0.000232719
0.000123685
0.000233368
0.000123671
0.000233368
0.000203918
7.12503e-05
7.12404e-05
0.000231647
7.12488e-05
7.12467e-05
2.34532e-05
2.34533e-05
2.34531e-05
2.34525e-05
0.000231639
7.12489e-05
7.12487e-05
7.12503e-05
7.12412e-05
2.34535e-05
2.34528e-05
0.000203922
0.000123666
0.000233368
0.000232719
0.00020391
0.00012368
0.000233368
0.000107977
4.1769e-05
0.000107975
4.17695e-05
0.000203918
0.000233368
0.000123647
0.000232718
0.000203906
0.000233368
0.000123663
0.000107981
4.17715e-05
4.17711e-05
0.000107984
0.000203911
0.000232719
0.000123681
0.000233368
0.000123666
0.000233368
0.000203922
0.000107975
4.17694e-05
4.1769e-05
0.000107977
0.000203906
0.000232718
0.000233368
0.000123663
0.000233368
0.000123647
0.000203918
0.000107969
4.17728e-05
0.000107964
4.17733e-05
0.000203918
0.000233368
0.000123675
0.000232719
0.000203908
0.000233368
0.00012369
0.000107969
4.17711e-05
0.000107964
4.17715e-05
0.000203907
0.00023272
0.000123687
0.000233368
0.00012367
0.000233368
0.000203919
0.000107964
4.17733e-05
4.17727e-05
0.00010797
0.000203906
0.000232719
0.000233368
0.000123689
0.000233368
0.000123675
0.00020392
0.000107964
4.17717e-05
4.17709e-05
0.00010797
7.12256e-05
7.12602e-05
0.000231646
7.1227e-05
7.12586e-05
2.34527e-05
2.34528e-05
2.3451e-05
2.34507e-05
0.000231638
7.12313e-05
7.12584e-05
7.12218e-05
7.12602e-05
2.34529e-05
2.34522e-05
0.000203921
0.000233369
0.000123665
0.000232719
0.000203908
0.000233368
0.00012368
0.000107978
4.1771e-05
0.000107976
4.17712e-05
0.00010798
4.17705e-05
0.000107977
4.17709e-05
0.000203909
0.000232719
0.000233368
0.000123692
0.000233368
0.000123678
0.00020392
0.000203908
0.000232719
0.000233368
0.00012368
0.000233368
0.000123666
0.000203922
0.000107976
4.17714e-05
4.17707e-05
0.000107979
0.000107978
4.17709e-05
4.17703e-05
0.00010798
2.34525e-05
2.34527e-05
2.34518e-05
2.3452e-05
0.000231639
7.12594e-05
7.12463e-05
7.12625e-05
7.12494e-05
2.34528e-05
2.3452e-05
2.34521e-05
2.34513e-05
2.34529e-05
2.3453e-05
2.34521e-05
2.34523e-05
7.12392e-05
7.12481e-05
0.000231646
7.12457e-05
7.12462e-05
2.34532e-05
2.34525e-05
2.34523e-05
2.34516e-05
0.000231638
7.12472e-05
7.12462e-05
7.12401e-05
7.12477e-05
0.000107971
4.1774e-05
0.000107965
4.17742e-05
0.000203921
0.000123664
0.000233368
0.000232719
0.000203906
0.000123681
0.000233368
0.000203918
0.000123671
0.000233368
0.000232719
0.000203906
0.000123685
0.000233368
0.000107966
4.1774e-05
4.17736e-05
0.000107973
0.000107965
4.17743e-05
4.17736e-05
0.000107971
0.000203908
0.000232719
0.000123682
0.000233368
0.000123665
0.000233368
0.000203918
0.000203906
0.000232719
0.000123685
0.000233368
0.000123671
0.000233368
0.000203918
7.12506e-05
7.12409e-05
0.000231647
7.12488e-05
7.12467e-05
2.3453e-05
2.34533e-05
2.34531e-05
2.34525e-05
0.000231639
7.12488e-05
7.12486e-05
7.12503e-05
7.12411e-05
2.34535e-05
2.34528e-05
0.000203923
0.000123666
0.000233368
0.000232719
0.00020391
0.00012368
0.000233368
0.000107977
4.1769e-05
0.000107975
4.17695e-05
0.000203918
0.000233368
0.000123647
0.000232718
0.000203905
0.000233368
0.000123663
0.000107981
4.17715e-05
4.17711e-05
0.000107984
0.000203911
0.000232719
0.000123681
0.000233368
0.000123666
0.000233368
0.000203922
0.000107975
4.17694e-05
4.17689e-05
0.000107977
0.000203906
0.000232718
0.000233368
0.000123663
0.000233368
0.000123647
0.000203918
0.000107969
4.17729e-05
0.000107964
4.17733e-05
0.000203918
0.000233368
0.000123675
0.000232719
0.000203907
0.000233368
0.00012369
0.000107969
4.17713e-05
0.000107964
4.17715e-05
0.000203907
0.00023272
0.000123687
0.000233368
0.00012367
0.000233368
0.000203919
0.000107964
4.17733e-05
4.17727e-05
0.00010797
0.000203906
0.000232719
0.000233368
0.000123689
0.000233368
0.000123675
0.00020392
0.000107964
4.17717e-05
4.17709e-05
0.00010797
7.12255e-05
7.126e-05
0.000231646
7.12269e-05
7.12586e-05
2.34527e-05
2.34528e-05
2.3451e-05
2.34507e-05
0.000231638
7.12313e-05
7.12584e-05
7.12218e-05
7.12602e-05
2.34529e-05
2.34522e-05
0.000203922
0.000233368
0.000123665
0.000232719
0.000203908
0.000233368
0.00012368
0.000107978
4.17711e-05
0.000107976
4.17712e-05
0.00010798
4.17706e-05
0.000107977
4.17708e-05
0.000203909
0.000232719
0.000233368
0.000123692
0.000233368
0.000123678
0.00020392
0.000203908
0.000232719
0.000233368
0.00012368
0.000233368
0.000123666
0.000203922
0.000107976
4.17714e-05
4.17707e-05
0.000107979
0.000107978
4.17709e-05
4.17702e-05
0.00010798
2.34526e-05
2.34527e-05
2.34519e-05
2.3452e-05
0.000231639
7.12594e-05
7.12463e-05
7.12624e-05
7.12493e-05
2.34528e-05
2.3452e-05
2.34521e-05
2.34513e-05
2.34528e-05
2.3453e-05
2.34521e-05
2.34522e-05
7.12392e-05
7.12481e-05
0.000231646
7.12457e-05
7.12462e-05
2.34532e-05
2.34525e-05
2.34523e-05
2.34516e-05
0.000231638
7.12472e-05
7.12462e-05
7.12401e-05
7.12477e-05
0.00010797
4.1774e-05
0.000107965
4.17742e-05
0.000203921
0.000123664
0.000233368
0.000232719
0.000203906
0.000123681
0.000233368
0.000203918
0.000123671
0.000233368
0.000232719
0.000203906
0.000123685
0.000233368
0.000107966
4.1774e-05
4.17736e-05
0.000107973
0.000107965
4.17743e-05
4.17736e-05
0.000107971
0.000203908
0.000232719
0.000123682
0.000233368
0.000123665
0.000233368
0.000203918
0.000203906
0.000232719
0.000123685
0.000233368
0.000123671
0.000233368
0.000203918
7.12505e-05
7.1241e-05
0.000231647
7.12487e-05
7.12467e-05
2.3453e-05
2.34533e-05
2.34531e-05
2.34525e-05
0.000231639
7.12488e-05
7.12486e-05
7.12501e-05
7.1241e-05
2.34535e-05
2.34528e-05
0.000203923
0.000123666
0.000233368
0.000232719
0.00020391
0.00012368
0.000233368
0.000107977
4.1769e-05
0.000107975
4.17695e-05
0.000203918
0.000233368
0.000123647
0.000232718
0.000203905
0.000233368
0.000123663
0.000107981
4.17715e-05
4.17711e-05
0.000107984
0.000203911
0.000232719
0.000123681
0.000233368
0.000123666
0.000233368
0.000203922
0.000107975
4.17694e-05
4.17689e-05
0.000107977
0.000203906
0.000232718
0.000233368
0.000123663
0.000233368
0.000123647
0.000203918
0.000107969
4.17729e-05
0.000107965
4.17733e-05
0.000203918
0.000233368
0.000123675
0.000232719
0.000203907
0.000233368
0.00012369
0.000107969
4.17712e-05
0.000107964
4.17715e-05
0.000203907
0.00023272
0.000123687
0.000233368
0.00012367
0.000233369
0.000203919
0.000107964
4.17733e-05
4.17727e-05
0.00010797
0.000203906
0.000232719
0.000233368
0.000123689
0.000233368
0.000123675
0.00020392
0.000107964
4.17717e-05
4.17709e-05
0.00010797
7.12256e-05
7.126e-05
0.000231646
7.1227e-05
7.12586e-05
2.34527e-05
2.34528e-05
2.3451e-05
2.34507e-05
0.000231638
7.12313e-05
7.12584e-05
7.12218e-05
7.12602e-05
2.34529e-05
2.34522e-05
0.000203921
0.000233368
0.000123665
0.000232719
0.000203908
0.000233368
0.00012368
0.000107978
4.17711e-05
0.000107976
4.17712e-05
0.00010798
4.17705e-05
0.000107977
4.17708e-05
0.000203909
0.000232719
0.000233368
0.000123692
0.000233368
0.000123678
0.00020392
0.000203908
0.000232719
0.000233368
0.00012368
0.000233368
0.000123665
0.000203922
0.000107976
4.17714e-05
4.17707e-05
0.000107979
0.000107977
4.17709e-05
4.17702e-05
0.00010798
2.34525e-05
2.34527e-05
2.34519e-05
2.3452e-05
0.000231639
7.12594e-05
7.12461e-05
7.12625e-05
7.12493e-05
2.34528e-05
2.3452e-05
2.34521e-05
2.34513e-05
2.34528e-05
2.3453e-05
2.34521e-05
2.34522e-05
7.12392e-05
7.12481e-05
0.000231646
7.12457e-05
7.12462e-05
2.34532e-05
2.34525e-05
2.34523e-05
2.34516e-05
0.000231638
7.12472e-05
7.12462e-05
7.12401e-05
7.12477e-05
0.00010797
4.17741e-05
0.000107965
4.17742e-05
0.000203921
0.000123664
0.000233368
0.000232719
0.000203906
0.000123681
0.000233368
0.000203918
0.000123671
0.000233368
0.000232719
0.000203906
0.000123685
0.000233368
0.000107966
4.1774e-05
4.17736e-05
0.000107973
0.000107965
4.17743e-05
4.17736e-05
0.000107971
0.000203908
0.000232719
0.000123682
0.000233368
0.000123665
0.000233368
0.000203918
0.000203906
0.000232719
0.000123685
0.000233368
0.000123671
0.000233368
0.000203918
7.12505e-05
7.1241e-05
0.000231647
7.12487e-05
7.12467e-05
2.3453e-05
2.34533e-05
2.34531e-05
2.34525e-05
0.000231639
7.12488e-05
7.12486e-05
7.12501e-05
7.1241e-05
2.34535e-05
2.34528e-05
0.000203923
0.000123666
0.000233368
0.000232719
0.00020391
0.00012368
0.000233368
0.000107977
4.1769e-05
0.000107975
4.17695e-05
0.000203918
0.000233368
0.000123647
0.000232718
0.000203905
0.000233368
0.000123663
0.000107981
4.17715e-05
4.17711e-05
0.000107984
0.000203911
0.000232719
0.000123681
0.000233368
0.000123666
0.000233369
0.000203922
0.000107975
4.17694e-05
4.17689e-05
0.000107977
0.000203906
0.000232718
0.000233368
0.000123663
0.000233368
0.000123647
0.000203918
0.000107969
4.17729e-05
0.000107964
4.17733e-05
0.000203918
0.000233368
0.000123675
0.000232719
0.000203907
0.000233368
0.00012369
0.000107969
4.17712e-05
0.000107964
4.17715e-05
0.000203907
0.000232719