/*--------------------------------*- C++ -*----------------------------------*\
| =========                 |                                                 |
| \\      /  F ield         | OpenFOAM: The Open Source CFD Toolbox           |
|  \\    /   O peration     | Version:  2206                                  |
|   \\  /    A nd           | Website:  www.openfoam.com                      |
|    \\/     M anipulation  |                                                 |
\*---------------------------------------------------------------------------*/
FoamFile
{
    version     2.0;
    format      ascii;
    arch        "LSB;label=32;scalar=64";
    class       volScalarField;
    location    "5";
    object      p;
}
// * * * * * * * * * * * * * * * * * * * * * * * * * * * * * * * * * * * * * //

dimensions      [0 2 -2 0 0 0 0];

internalField   nonuniform List<scalar> 
28907
(
8.95855e-10
1.11359e-05
1.11022e-05
-2.16276e-07
1.11366e-05
1.11046e-05
1.1099e-05
1.11011e-05
-2.33063e-07
1.10985e-05
1.10985e-05
-2.64507e-07
1.74096e-05
1.49385e-06
7.66418e-06
7.63934e-06
7.63633e-06
7.63922e-06
-2.58914e-06
2.02969e-05
-2.61243e-06
2.03208e-05
1.64833e-05
-4.32015e-07
-4.58714e-07
1.87826e-05
1.88071e-05
2.14933e-05
-3.4111e-06
2.08484e-05
-3.7568e-06
2.14465e-05
-3.43621e-06
2.08071e-05
-3.75761e-06
1.40915e-05
1.06713e-05
7.36939e-06
1.06087e-05
1.04326e-05
1.01515e-05
3.87016e-06
1.40327e-05
1.06519e-05
7.35369e-06
1.05942e-05
1.03807e-05
1.01442e-05
3.86634e-06
-2.63944e-06
2.02716e-05
1.64626e-05
-4.90729e-07
-4.81807e-07
1.87626e-05
1.87721e-05
-2.63097e-06
2.02916e-05
2.15126e-05
-3.42368e-06
2.08705e-05
-3.76161e-06
1.41014e-05
1.0677e-05
7.35762e-06
1.0613e-05
1.04574e-05
1.01558e-05
3.8638e-06
2.15347e-05
-3.45428e-06
2.08673e-05
-3.78384e-06
1.40992e-05
1.06562e-05
1.0598e-05
7.32896e-06
1.01527e-05
1.04641e-05
3.87129e-06
1.4068e-05
1.06488e-05
7.34139e-06
1.05861e-05
1.04354e-05
1.01338e-05
3.84033e-06
2.14932e-05
-3.43894e-06
2.08632e-05
-3.83451e-06
1.4087e-05
1.0587e-05
7.3186e-06
1.01345e-05
3.8285e-06
2.15212e-05
-3.45867e-06
-3.84706e-06
-2.64803e-06
2.03169e-05
1.64837e-05
-4.92619e-07
-4.96552e-07
1.88036e-05
-2.64704e-06
1.05873e-05
7.31293e-06
3.82587e-06
1.0586e-05
7.29129e-06
3.82482e-06
-3.45928e-06
-3.84763e-06
-3.49252e-06
-3.86073e-06
-5.03493e-07
-5.16417e-07
-2.64992e-06
-2.6754e-06
2.11909e-05
-1.72516e-06
2.11725e-05
-1.73347e-06
1.96698e-05
1.96563e-05
6.74846e-07
4.27246e-07
4.25163e-07
-8.76612e-07
2.20967e-05
-9.05377e-07
2.21058e-05
1.8261e-05
1.26982e-06
1.24948e-06
2.05817e-05
2.0591e-05
2.07383e-05
-3.07388e-06
2.07475e-05
-3.06439e-06
-4.63791e-06
1.85423e-05
1.85584e-05
2.17544e-05
-1.39772e-06
-1.38149e-06
1.68696e-05
-4.46975e-06
1.92317e-05
3.77818e-06
1.42681e-05
2.15769e-05
6.33032e-07
1.68549e-05
-4.49069e-06
1.92276e-05
3.74597e-06
1.42046e-05
2.15803e-05
6.32725e-07
1.32907e-07
1.38258e-05
2.11291e-05
-9.19804e-07
1.64463e-05
3.24979e-06
-4.95478e-06
1.54159e-07
1.38568e-05
2.11463e-05
-9.06911e-07
1.64511e-05
3.31767e-06
-4.96202e-06
2.21761e-05
-9.08811e-07
-9.27631e-07
1.89729e-05
1.89539e-05
-4.17026e-06
-1.80633e-06
1.86158e-05
2.15572e-05
-4.26711e-06
1.88254e-05
-1.80235e-06
-3.86406e-06
1.97661e-05
2.12831e-05
-2.97405e-06
2.03868e-05
-1.83629e-06
-2.34025e-06
1.99644e-05
-3.90461e-06
1.93436e-05
-3.49816e-06
1.92207e-05
2.1868e-05
-1.31901e-06
-3.3374e-06
1.90251e-05
2.1874e-05
-1.318e-06
-1.81309e-06
1.85947e-05
2.1424e-05
-4.2562e-06
1.877e-05
-1.80549e-06
-3.83181e-06
1.97429e-05
2.12529e-05
-2.98061e-06
2.03586e-05
-1.84363e-06
-2.34781e-06
1.99112e-05
-3.93253e-06
1.92989e-05
-3.49189e-06
1.92009e-05
2.18596e-05
-1.31917e-06
-3.31547e-06
1.90182e-05
2.18408e-05
-1.31725e-06
2.07073e-05
-3.12727e-06
-4.69018e-06
1.85218e-05
1.85213e-05
2.17277e-05
-1.43887e-06
-1.44916e-06
1.68327e-05
-4.53412e-06
1.91939e-05
3.69274e-06
2.15454e-05
1.41936e-05
5.73015e-07
1.68212e-05
-4.52156e-06
1.92081e-05
3.71519e-06
1.42301e-05
2.15443e-05
6.07454e-07
7.73811e-08
1.38146e-05
2.11188e-05
-9.69536e-07
-5.00884e-06
1.64348e-05
3.23333e-06
1.16946e-07
1.38072e-05
2.11141e-05
-9.60529e-07
1.64104e-05
3.21541e-06
-4.99494e-06
2.21412e-05
-9.63224e-07
-9.60012e-07
1.89218e-05
1.89371e-05
-4.21056e-06
2.07235e-05
-3.10982e-06
-1.77257e-06
2.15347e-05
1.86485e-05
-4.24133e-06
1.88433e-05
-3.79703e-06
-1.78163e-06
1.97959e-05
2.13051e-05
-2.9927e-06
2.04221e-05
-1.84362e-06
-2.29819e-06
1.99829e-05
-3.8746e-06
1.93688e-05
-3.4423e-06
1.92535e-05
2.19048e-05
-3.31566e-06
-1.32141e-06
2.19015e-05
1.90626e-05
-1.31427e-06
-1.82063e-06
1.86551e-05
2.16066e-05
-4.27805e-06
1.88617e-05
-1.79734e-06
-3.92989e-06
1.97984e-05
2.12996e-05
-3.02665e-06
2.04157e-05
-1.87659e-06
-2.35289e-06
1.99971e-05
-3.92659e-06
1.9377e-05
-3.51071e-06
1.92835e-05
2.19343e-05
-1.3299e-06
-3.40376e-06
1.90738e-05
2.20218e-05
-1.34225e-06
-1.83671e-06
2.14874e-05
1.86212e-05
-4.31796e-06
1.88099e-05
-3.88141e-06
-1.83852e-06
1.97792e-05
2.12911e-05
-3.00417e-06
2.0407e-05
-1.86466e-06
-2.34352e-06
1.99878e-05
-3.91546e-06
1.93564e-05
-3.4899e-06
1.92306e-05
2.19057e-05
-3.39104e-06
-1.36621e-06
2.18867e-05
1.9046e-05
-1.36122e-06
-1.83931e-06
1.86318e-05
2.14896e-05
-4.32439e-06
1.88225e-05
-1.83973e-06
-3.90365e-06
1.98203e-05
2.13139e-05
-3.02519e-06
2.04507e-05
-1.88287e-06
-2.36112e-06
2.00104e-05
1.93791e-05
-3.507e-06
1.92655e-05
2.19516e-05
-1.36744e-06
-3.42178e-06
1.90647e-05
2.19436e-05
-1.36435e-06
2.07501e-05
-3.11853e-06
-4.6995e-06
-1.45273e-06
-1.45945e-06
1.68658e-05
-4.54131e-06
1.92389e-05
3.72631e-06
2.15799e-05
1.42586e-05
5.74522e-07
1.68875e-05
-4.54238e-06
1.92334e-05
3.69866e-06
1.42806e-05
2.15722e-05
5.55665e-07
8.45986e-08
2.1147e-05
-9.62696e-07
-5.00781e-06
3.22571e-06
5.64837e-08
-9.69482e-07
3.19618e-06
-5.00776e-06
2.21885e-05
-9.70372e-07
-9.75367e-07
1.89805e-05
1.89841e-05
-4.22521e-06
2.07472e-05
-3.12115e-06
1.97979e-05
2.13087e-05
-3.0375e-06
2.04247e-05
-1.88928e-06
1.92618e-05
2.19302e-05
-3.41138e-06
-1.37473e-06
2.19656e-05
1.90608e-05
-1.36953e-06
1.98002e-05
2.1291e-05
-3.07845e-06
2.04283e-05
-1.92411e-06
1.92744e-05
2.19595e-05
-3.49856e-06
-1.38204e-06
2.20169e-05
1.90686e-05
-1.39981e-06
1.68946e-05
-4.54971e-06
1.9238e-05
3.65335e-06
2.15742e-05
1.4279e-05
5.18744e-07
1.68812e-05
-4.56219e-06
1.92306e-05
3.6914e-06
2.15723e-05
1.42786e-05
5.4052e-07
2.21918e-05
-1.00119e-06
-9.92784e-07
1.89864e-05
1.89888e-05
-4.24028e-06
2.07554e-05
2.07417e-05
-2.14243e-06
2.16419e-05
-2.17929e-06
2.16246e-05
2.30561e-05
-5.78062e-08
-4.57652e-08
1.9837e-05
1.98447e-05
-3.30311e-06
1.06874e-06
2.2016e-05
1.46412e-05
2.76719e-09
1.72813e-05
4.16641e-06
-4.04654e-06
1.07136e-06
2.20133e-05
1.46299e-05
-2.79304e-08
1.72699e-05
4.14376e-06
-4.06641e-06
-3.74215e-06
1.93825e-05
1.93743e-05
2.26021e-05
-4.8961e-07
-4.98312e-07
1.7729e-05
4.58729e-06
2.01197e-05
-3.62498e-06
1.51153e-05
1.49042e-06
2.24578e-05
1.77269e-05
4.6247e-06
2.0118e-05
-3.63247e-06
1.51379e-05
1.50372e-06
2.24616e-05
2.25795e-05
-1.30368e-06
2.25853e-05
-1.29541e-06
-2.88967e-06
2.03212e-05
2.03197e-05
2.35342e-05
3.51871e-07
3.55068e-07
1.87312e-05
-2.79416e-06
2.10613e-05
5.40223e-06
1.61126e-05
2.34055e-05
2.24099e-06
1.87249e-05
-2.80341e-06
2.10649e-05
5.4001e-06
1.61e-05
2.34076e-05
2.23639e-06
1.88307e-06
1.56086e-05
2.2922e-05
8.49189e-07
1.82162e-05
5.00052e-06
-3.20473e-06
1.88929e-06
1.5595e-05
2.29306e-05
8.53661e-07
1.82116e-05
5.01728e-06
-3.21083e-06
2.40304e-05
7.43387e-07
7.40314e-07
2.08226e-05
2.08187e-05
-2.49636e-06
1.16501e-05
1.69794e-05
3.47978e-06
3.47486e-06
1.55302e-05
1.55303e-05
7.93786e-06
1.16073e-05
1.68938e-05
3.40209e-06
3.39228e-06
1.548e-05
1.54739e-05
7.89273e-06
1.16319e-05
1.69179e-05
3.38057e-06
3.38431e-06
1.55055e-05
1.54915e-05
7.88716e-06
1.16312e-05
1.6916e-05
3.37167e-06
3.36649e-06
1.54985e-05
1.54999e-05
7.89117e-06
8.36427e-06
1.59678e-05
1.59674e-05
2.6817e-07
1.20872e-05
3.88919e-06
3.88598e-06
1.34591e-05
1.8735e-05
5.14434e-06
5.14811e-06
1.73243e-05
1.73262e-05
9.68903e-06
7.20584e-06
8.85112e-06
8.84916e-06
8.40017e-06
8.39794e-06
9.34114e-06
9.79416e-06
7.1881e-06
8.84534e-06
8.84249e-06
8.39742e-06
8.3915e-06
9.32977e-06
9.78506e-06
8.8435e-06
8.84203e-06
8.39296e-06
9.33708e-06
9.78783e-06
8.83615e-06
8.83456e-06
8.38467e-06
9.33139e-06
9.78396e-06
7.47902e-06
-6.32983e-07
1.50646e-05
1.50677e-05
1.12006e-05
2.97574e-06
2.96855e-06
-2.97946e-06
1.35821e-05
1.81358e-05
3.38346e-06
1.83713e-05
3.70763e-06
-3.29362e-06
1.92819e-05
-2.6201e-06
1.08508e-05
3.93414e-06
1.92132e-05
1.47225e-05
-2.84057e-06
-3.24603e-06
1.44239e-05
1.87668e-05
6.8685e-06
-3.08756e-06
1.87899e-05
3.31741e-06
1.87952e-05
1.44988e-05
4.1936e-06
-2.90224e-06
1.39883e-05
1.8697e-05
-2.50138e-06
-2.97216e-06
1.3526e-05
1.83918e-05
3.40916e-06
1.83278e-05
3.69817e-06
-3.47082e-06
1.92703e-05
-2.65233e-06
1.08142e-05
3.94437e-06
1.46667e-05
1.91817e-05
-2.88432e-06
-3.33818e-06
1.42399e-05
1.87503e-05
6.85171e-06
1.88383e-05
3.39635e-06
-3.12714e-06
1.87723e-05
1.44916e-05
4.18689e-06
-2.93559e-06
1.39685e-05
1.86897e-05
-2.50542e-06
7.43212e-06
-6.88526e-07
1.50449e-05
1.50368e-05
2.92909e-06
1.11753e-05
2.91761e-06
-2.97628e-06
1.35968e-05
1.82532e-05
3.40991e-06
1.83722e-05
3.73932e-06
-3.37462e-06
1.91986e-05
-2.61949e-06
1.08868e-05
3.82928e-06
1.92037e-05
1.49044e-05
-2.77111e-06
-3.2879e-06
1.44038e-05
1.87681e-05
6.9002e-06
-3.08857e-06
1.88109e-05
3.42553e-06
1.88225e-05
1.45377e-05
4.19952e-06
-2.86179e-06
1.40278e-05
1.86593e-05
-2.52434e-06
-2.99633e-06
1.82884e-05
1.36151e-05
3.40051e-06
1.83864e-05
-3.383e-06
3.69827e-06
1.92365e-05
-2.65493e-06
1.08853e-05
3.82299e-06
1.48693e-05
1.9208e-05
-2.84306e-06
-3.26714e-06
1.4459e-05
1.87644e-05
6.84611e-06
1.87585e-05
3.31865e-06
-3.11712e-06
1.88027e-05
1.45204e-05
-2.99195e-06
4.17356e-06
1.87399e-05
1.40376e-05
-2.52396e-06
-2.98614e-06
1.35606e-05
1.82745e-05
3.3733e-06
1.83552e-05
3.68241e-06
-3.44617e-06
1.92311e-05
-2.64613e-06
1.08462e-05
3.87411e-06
1.91872e-05
1.475e-05
-2.84855e-06
-3.29879e-06
1.43992e-05
1.87571e-05
6.85924e-06
1.87906e-05
-3.11279e-06
3.34267e-06
1.87901e-05
1.44974e-05
4.15422e-06
-2.96824e-06
1.39836e-05
1.87086e-05
-2.52844e-06
-3.04353e-06
1.82439e-05
1.35777e-05
3.36387e-06
1.83788e-05
-3.39773e-06
3.68748e-06
1.92325e-05
-2.67551e-06
1.08912e-05
3.86809e-06
1.48396e-05
1.9213e-05
-2.84355e-06
-3.31962e-06
1.43867e-05
1.8783e-05
3.37539e-06
1.8821e-05
1.45298e-05
-2.9324e-06
4.16149e-06
1.86783e-05
1.40228e-05
-2.56779e-06
7.43455e-06
-7.02725e-07
1.50674e-05
2.91066e-06
2.91687e-06
1.92272e-05
-2.66597e-06
1.08891e-05
3.80062e-06
1.92097e-05
1.48719e-05
-2.83434e-06
1.88081e-05
1.45145e-05
-2.94428e-06
4.14923e-06
1.86843e-05
1.40171e-05
-2.54699e-06
1.92477e-05
-2.68263e-06
1.08729e-05
3.78089e-06
1.4846e-05
1.9196e-05
-2.87378e-06
1.87981e-05
1.45193e-05
-2.96751e-06
4.12875e-06
1.87126e-05
1.40232e-05
-2.5751e-06
1.25251e-05
1.78062e-05
4.31361e-06
4.31546e-06
8.81152e-06
1.6396e-05
1.63981e-05
9.25243e-06
1.08835e-06
1.68541e-05
1.6857e-05
1.29849e-05
4.73345e-06
4.73641e-06
8.10786e-06
1.15528e-05
1.15473e-05
1.73548e-05
9.87668e-06
1.33435e-05
1.33386e-05
1.91661e-05
1.16664e-05
1.51262e-05
1.51124e-05
2.10511e-05
1.3469e-05
1.69152e-05
1.69163e-05
2.2829e-05
1.52622e-05
1.86998e-05
1.87033e-05
2.44728e-05
1.70428e-05
2.04828e-05
2.04859e-05
2.62024e-05
1.88167e-05
2.22776e-05
2.22728e-05
2.80643e-05
2.05998e-05
2.40753e-05
2.40681e-05
2.99946e-05
2.24019e-05
2.58835e-05
2.58685e-05
3.18262e-05
2.4193e-05
2.76528e-05
2.7655e-05
3.35116e-05
2.5974e-05
2.94279e-05
2.94355e-05
3.52027e-05
2.77524e-05
3.12149e-05
3.12058e-05
3.69801e-05
2.95227e-05
3.29847e-05
3.2981e-05
3.8774e-05
3.12974e-05
3.47622e-05
3.4753e-05
4.05831e-05
3.30756e-05
3.65428e-05
3.65424e-05
4.24582e-05
3.48553e-05
3.83213e-05
3.83164e-05
4.41851e-05
3.6629e-05
4.00949e-05
4.00961e-05
4.59712e-05
1.15724e-05
1.15563e-05
1.29085e-05
1.29034e-05
1.73368e-05
1.54052e-06
1.15746e-05
1.15487e-05
1.29072e-05
1.28918e-05
1.15511e-05
1.28999e-05
1.28943e-05
1.73514e-05
1.50389e-06
1.15474e-05
1.28929e-05
1.2893e-05
1.51848e-06
1.92144e-05
3.20481e-06
1.33522e-05
1.33474e-05
1.46885e-05
1.47117e-05
1.91659e-05
3.22519e-06
1.33514e-05
1.33487e-05
1.4688e-05
1.46883e-05
1.33405e-05
1.4683e-05
1.46811e-05
1.91926e-05
3.20706e-06
1.33404e-05
1.46708e-05
1.46759e-05
3.20106e-06
2.10749e-05
5.05502e-06
1.5141e-05
1.51526e-05
1.64778e-05
1.6478e-05
2.10542e-05
5.01278e-06
1.5134e-05
1.51299e-05
1.6485e-05
1.64808e-05
1.51267e-05
1.64674e-05
1.64696e-05
2.10461e-05
5.01228e-06
1.51209e-05
1.64669e-05
1.64667e-05
4.98448e-06
2.27947e-05
7.02255e-06
1.69269e-05
1.69301e-05
1.82552e-05
1.82502e-05
2.28059e-05
6.97665e-06
1.6924e-05
1.69204e-05
1.82568e-05
1.82593e-05
1.69249e-05
1.82553e-05
1.82588e-05
2.28118e-05
6.97924e-06
1.69168e-05
1.82579e-05
1.82542e-05
6.94059e-06
2.44108e-05
8.87062e-06
1.86942e-05
1.8696e-05
2.00377e-05
2.00364e-05
2.44387e-05
8.84886e-06
1.87039e-05
1.87026e-05
2.00387e-05
2.00403e-05
1.87025e-05
2.00378e-05
2.00405e-05
2.44548e-05
8.83478e-06
1.87014e-05
2.00406e-05
2.00405e-05
8.81033e-06
2.615e-05
1.05569e-05
2.04846e-05
2.04836e-05
2.18315e-05
2.18285e-05
2.61606e-05
1.05569e-05
2.04854e-05
2.04852e-05
2.18308e-05
2.18266e-05
2.04855e-05
2.18295e-05
2.18294e-05
2.61864e-05
1.05328e-05
2.04878e-05
2.18245e-05
2.18282e-05
1.05193e-05
2.80361e-05
1.21808e-05
2.22772e-05
2.22758e-05
2.36179e-05
2.36222e-05
2.80338e-05
1.21827e-05
2.22772e-05
2.22706e-05
2.36229e-05
2.3616e-05
2.22786e-05
2.36274e-05
2.36244e-05
2.80541e-05
1.21716e-05
2.22771e-05
2.36201e-05
2.36213e-05
1.2139e-05
2.9948e-05
1.39216e-05
2.40672e-05
2.40691e-05
2.54195e-05
2.54166e-05
2.99603e-05
1.39124e-05
2.40712e-05
2.40697e-05
2.54078e-05
2.54056e-05
2.40692e-05
2.54296e-05
2.54397e-05
2.99679e-05
1.39149e-05
2.40723e-05
2.54217e-05
2.54337e-05
1.39148e-05
3.17868e-05
1.58057e-05
2.58779e-05
2.58761e-05
2.72134e-05
2.72066e-05
3.18108e-05
1.58185e-05
2.58689e-05
2.5869e-05
2.72119e-05
2.72086e-05
2.58752e-05
2.72072e-05
2.72132e-05
3.18002e-05
1.57988e-05
2.58699e-05
2.7208e-05
2.72017e-05
1.57946e-05
3.34972e-05
1.76831e-05
2.7653e-05
2.76495e-05
2.89828e-05
2.89874e-05
3.3481e-05
1.77075e-05
2.76581e-05
2.76584e-05
2.89855e-05
2.89957e-05
2.76563e-05
2.89853e-05
2.89893e-05
3.35105e-05
1.76935e-05
2.76503e-05
2.89931e-05
2.89913e-05
1.77006e-05
3.52052e-05
1.94657e-05
2.94293e-05
2.94324e-05
3.07656e-05
3.07691e-05
3.51813e-05
1.94887e-05
2.94308e-05
2.94376e-05
3.07637e-05
3.07692e-05
2.94334e-05
3.07678e-05
3.07678e-05
3.52168e-05
1.9461e-05
2.94342e-05
3.07626e-05
3.0764e-05
1.94835e-05
3.69939e-05
2.12067e-05
3.12083e-05
3.12113e-05
3.25402e-05
3.25417e-05
3.69713e-05
2.11828e-05
3.12089e-05
3.12102e-05
3.2537e-05
3.2538e-05
3.121e-05
3.25448e-05
3.25407e-05
3.69941e-05
2.12232e-05
3.12051e-05
3.25397e-05
3.25418e-05
2.12295e-05
3.87876e-05
2.29391e-05
3.29831e-05
3.29849e-05
3.43195e-05
3.43189e-05
3.87997e-05
2.29613e-05
3.29799e-05
3.29808e-05
3.43166e-05
3.43144e-05
3.29846e-05
3.43168e-05
3.4317e-05
3.87661e-05
2.29233e-05
3.29846e-05
3.43073e-05
3.43141e-05
2.2957e-05
4.06042e-05
2.47197e-05
3.47666e-05
3.47675e-05
3.60943e-05
3.61023e-05
4.05758e-05
2.46762e-05
3.47638e-05
3.47557e-05
3.60941e-05
3.61047e-05
3.47664e-05
3.60995e-05
3.61003e-05
4.05947e-05
2.46742e-05
3.4762e-05
3.60981e-05
3.60991e-05
2.46136e-05
4.23687e-05
2.65478e-05
3.65371e-05
3.6545e-05
3.78781e-05
3.7878e-05
4.24001e-05
2.65123e-05
3.65385e-05
3.65478e-05
3.78777e-05
3.78704e-05
3.6539e-05
3.78779e-05
3.78754e-05
4.24102e-05
2.64829e-05
3.65452e-05
3.78747e-05
3.78736e-05
2.64614e-05
4.41164e-05
2.82788e-05
3.83202e-05
3.83234e-05
3.96451e-05
3.96475e-05
4.41372e-05
2.82581e-05
3.83181e-05
3.83154e-05
3.96447e-05
3.96491e-05
3.8318e-05
3.96495e-05
3.96405e-05
4.41541e-05
2.82421e-05
3.8316e-05
3.96495e-05
3.96414e-05
2.82222e-05
4.59177e-05
4.00878e-05
4.00898e-05
4.59297e-05
4.00892e-05
4.00904e-05
4.14346e-05
4.00873e-05
4.59518e-05
3.00715e-05
4.00856e-05
4.14311e-05
-2.91167e-06
2.17554e-05
2.23276e-05
-2.55631e-06
2.11723e-05
-1.69206e-06
-2.94607e-06
2.17287e-05
2.23246e-05
-2.56072e-06
8.09095e-06
8.08632e-06
8.08842e-06
9.43559e-06
9.43345e-06
9.42573e-06
9.43074e-06
4.73997e-06
1.1294e-05
1.10377e-05
1.20063e-05
8.26546e-06
1.14879e-05
1.49492e-05
2.11796e-05
-1.78532e-06
4.72011e-06
1.10342e-05
1.13118e-05
1.19953e-05
1.14846e-05
8.21232e-06
1.49541e-05
1.968e-05
1.96552e-05
6.4627e-07
4.01793e-07
3.95802e-07
-1.51522e-06
2.36388e-05
2.44495e-05
-9.3134e-07
2.30143e-05
-3.23237e-08
-1.51078e-06
2.3582e-05
2.44853e-05
-8.8382e-07
9.87752e-06
9.87365e-06
9.87789e-06
1.12164e-05
1.1223e-05
1.12117e-05
1.12127e-05
6.45971e-06
1.31264e-05
1.28249e-05
1.37884e-05
1.67927e-05
9.89583e-06
1.32686e-05
2.30543e-05
-4.88809e-08
6.38951e-06
1.28241e-05
1.31887e-05
1.37852e-05
1.67806e-05
1.32676e-05
9.87755e-06
2.14749e-05
2.14859e-05
2.35495e-06
2.11984e-06
2.11327e-06
2.9762e-07
2.54797e-05
2.63182e-05
8.70153e-07
2.49381e-05
1.6948e-06
2.44679e-07
2.54588e-05
2.63307e-05
8.63248e-07
1.167e-05
1.16584e-05
1.16593e-05
1.30206e-05
1.30177e-05
1.30149e-05
1.30108e-05
8.07536e-06
1.50476e-05
1.46073e-05
1.55698e-05
1.85681e-05
1.14984e-05
1.50516e-05
2.49136e-05
1.68861e-06
8.06782e-06
1.46002e-05
1.50167e-05
1.55646e-05
1.85024e-05
1.5045e-05
1.15631e-05
2.33683e-05
2.33619e-05
4.06228e-06
3.81326e-06
3.81917e-06
2.32148e-06
2.71987e-05
2.8084e-05
2.78654e-06
2.66521e-05
3.59397e-06
2.33227e-06
2.71989e-05
2.81149e-05
2.81624e-06
1.34688e-05
1.34618e-05
1.34627e-05
1.48146e-05
1.4809e-05
1.48143e-05
1.48097e-05
1.00072e-05
1.68211e-05
1.6392e-05
1.73633e-05
2.03984e-05
1.34825e-05
1.68444e-05
2.66557e-05
3.58119e-06
1.00549e-05
1.6401e-05
1.67996e-05
1.73615e-05
2.04452e-05
1.68447e-05
1.34732e-05
2.51412e-05
2.51332e-05
5.97873e-06
5.7372e-06
5.71879e-06
4.61328e-06
2.87479e-05
2.91993e-05
4.80043e-06
2.82295e-05
5.56823e-06
4.63873e-06
2.8758e-05
2.92002e-05
4.81945e-06
1.52595e-05
1.52605e-05
1.52587e-05
1.65983e-05
1.65959e-05
1.65984e-05
1.65994e-05
1.19935e-05
1.83774e-05
1.81819e-05
1.91455e-05
2.20298e-05
1.55128e-05
1.86264e-05
2.82542e-05
5.58491e-06
1.19935e-05
1.81892e-05
1.83804e-05
1.91497e-05
2.20214e-05
1.86319e-05
1.55204e-05
2.67706e-05
2.6773e-05
7.89816e-06
7.66725e-06
7.66793e-06
6.38776e-06
3.04764e-05
3.0865e-05
6.58268e-06
2.99495e-05
7.37077e-06
6.36447e-06
3.04751e-05
3.08804e-05
6.56963e-06
1.70408e-05
1.70415e-05
1.70439e-05
1.83742e-05
1.8375e-05
1.83701e-05
1.83764e-05
1.37869e-05
2.00827e-05
1.99646e-05
2.09327e-05
2.37518e-05
1.73036e-05
2.04119e-05
2.99771e-05
7.33003e-06
1.37844e-05
1.99677e-05
2.01031e-05
2.09329e-05
2.37521e-05
2.04138e-05
1.72831e-05
2.84887e-05
2.85168e-05
9.67868e-06
9.4523e-06
9.44857e-06
7.81226e-06
3.23995e-05
3.29134e-05
8.16586e-06
3.18448e-05
8.97165e-06
7.82218e-06
3.24134e-05
3.29154e-05
8.16648e-06
1.88192e-05
1.88124e-05
1.88202e-05
2.0154e-05
2.01595e-05
2.01507e-05
2.01558e-05
1.54942e-05
2.19993e-05
2.17597e-05
2.27268e-05
2.56464e-05
1.89378e-05
2.22094e-05
3.18745e-05
8.95096e-06
1.54959e-05
2.17611e-05
2.19783e-05
2.2718e-05
2.56501e-05
2.22049e-05
1.8936e-05
3.03704e-05
3.03723e-05
1.13301e-05
1.11066e-05
1.10958e-05
9.18853e-06
3.435e-05
3.52457e-05
9.81506e-06
3.38067e-05
1.06226e-05
9.18937e-06
3.43311e-05
3.52122e-05
9.82534e-06
2.06034e-05
2.05986e-05
2.06014e-05
2.19466e-05
2.19517e-05
2.19454e-05
2.19583e-05
1.70913e-05
2.39911e-05
2.35563e-05
2.45189e-05
2.75537e-05
2.04533e-05
2.40027e-05
3.37895e-05
1.06248e-05
1.71684e-05
2.35551e-05
2.39868e-05
2.45176e-05
2.74261e-05
2.39993e-05
2.05362e-05
3.23067e-05
3.23195e-05
1.29996e-05
1.27458e-05
1.27645e-05
1.10273e-05
3.6222e-05
3.70308e-05
1.16153e-05
3.56392e-05
1.24322e-05
1.10046e-05
3.61668e-05
3.70303e-05
1.16223e-05
2.24062e-05
2.2399e-05
2.24048e-05
2.37472e-05
2.37464e-05
2.37457e-05
2.37491e-05
1.88564e-05
2.60032e-05
2.53614e-05
2.63255e-05
2.94684e-05
2.22474e-05
2.58051e-05
3.56351e-05
1.24122e-05
1.88566e-05
2.53607e-05
2.58799e-05
2.63157e-05
2.94382e-05
2.58041e-05
2.23057e-05
3.41544e-05
3.41314e-05
1.48279e-05
1.45554e-05
1.45593e-05
1.30736e-05
3.78845e-05
3.87771e-05
1.35121e-05
3.7314e-05
1.43296e-05
1.3138e-05
3.78818e-05
3.87637e-05
1.35312e-05
2.41943e-05
2.41955e-05
2.41964e-05
2.5528e-05
2.55324e-05
2.55375e-05
2.55414e-05
2.08493e-05
2.7466e-05
2.71478e-05
2.80973e-05
3.11755e-05
2.43144e-05
2.75868e-05
3.73261e-05
1.43345e-05
2.08349e-05
2.71501e-05
2.75134e-05
2.81025e-05
3.11708e-05
2.75924e-05
2.42768e-05
3.58251e-05
3.58068e-05
1.67511e-05
1.6496e-05
1.64711e-05
1.51093e-05
3.95727e-05
4.01159e-05
1.53889e-05
3.90096e-05
1.62083e-05
1.50715e-05
3.95702e-05
4.01283e-05
1.53761e-05
2.59793e-05
2.59813e-05
2.59842e-05
2.73101e-05
2.7317e-05
2.73123e-05
2.73146e-05
2.26988e-05
2.90917e-05
2.89158e-05
2.98705e-05
3.27576e-05
2.61972e-05
2.93572e-05
3.90485e-05
1.61693e-05
2.26826e-05
2.89267e-05
2.91601e-05
2.98783e-05
3.27896e-05
2.9366e-05
2.61626e-05
3.75095e-05
3.7491e-05
1.86067e-05
1.83691e-05
1.83615e-05
1.67627e-05
4.13772e-05
4.18908e-05
1.70904e-05
4.08009e-05
1.79175e-05
1.6813e-05
4.13412e-05
4.18902e-05
1.71158e-05
2.77596e-05
2.77536e-05
2.77564e-05
2.90799e-05
2.90859e-05
2.9085e-05
2.90887e-05
2.44314e-05
3.09145e-05
3.06945e-05
3.16619e-05
3.45497e-05
2.79299e-05
3.1141e-05
4.08325e-05
1.79194e-05
2.44417e-05
3.06902e-05
3.09137e-05
3.1651e-05
3.45359e-05
3.11334e-05
2.79193e-05
3.92967e-05
3.92608e-05
2.03373e-05
2.00956e-05
2.00901e-05
1.8463e-05
4.32247e-05
4.38602e-05
1.88376e-05
4.26422e-05
1.96713e-05
1.8589e-05
4.3148e-05
4.36708e-05
1.88613e-05
2.95275e-05
2.95276e-05
2.95332e-05
3.08524e-05
3.08591e-05
3.08541e-05
3.08637e-05
2.61694e-05
3.275e-05
3.24625e-05
3.34269e-05
3.63644e-05
2.9651e-05
3.29037e-05
4.25843e-05
1.97028e-05
2.62064e-05
3.24661e-05
3.27e-05
3.34202e-05
3.63321e-05
3.29037e-05
2.96773e-05
4.1088e-05
4.10806e-05
2.2114e-05
2.18603e-05
2.18655e-05
2.01275e-05
4.49897e-05
4.56868e-05
2.05959e-05
4.44226e-05
2.14232e-05
2.00367e-05
4.50257e-05
4.57108e-05
2.05863e-05
3.13051e-05
3.12967e-05
3.13068e-05
3.26296e-05
3.26374e-05
3.26358e-05
3.26353e-05
2.79023e-05
3.45021e-05
3.42433e-05
3.52083e-05
3.81667e-05
3.1392e-05
3.46879e-05
4.44438e-05
2.1384e-05
2.78295e-05
3.42327e-05
3.45493e-05
3.52023e-05
3.81583e-05
3.46849e-05
3.13172e-05
4.29113e-05
4.2891e-05
2.37601e-05
2.35474e-05
2.35344e-05
2.1903e-05
4.67708e-05
4.75538e-05
2.23979e-05
4.62377e-05
2.3191e-05
2.19564e-05
4.67254e-05
4.74837e-05
2.24123e-05
3.308e-05
3.30807e-05
3.30782e-05
3.4413e-05
3.44138e-05
3.44105e-05
3.44086e-05
2.96116e-05
3.64304e-05
3.60239e-05
3.69845e-05
4.0029e-05
3.30911e-05
3.64651e-05
4.62352e-05
2.31889e-05
2.96179e-05
3.60229e-05
3.64028e-05
3.6988e-05
4.01814e-05
3.64785e-05
3.31246e-05
4.47758e-05
4.47697e-05
2.55318e-05
2.52737e-05
2.52848e-05
2.3809e-05
4.84958e-05
4.91807e-05
2.42043e-05
4.79687e-05
2.49904e-05
2.37998e-05
4.85246e-05
4.91858e-05
2.41777e-05
3.48569e-05
3.48528e-05
3.48507e-05
3.61854e-05
3.61853e-05
3.61855e-05
3.61778e-05
3.14941e-05
3.81275e-05
3.78108e-05
3.87614e-05
4.17816e-05
3.49349e-05
3.82516e-05
4.7976e-05
2.49706e-05
3.14593e-05
3.78067e-05
3.81315e-05
3.87602e-05
4.17713e-05
3.82489e-05
3.49201e-05
4.64954e-05
4.64901e-05
2.73531e-05
2.70904e-05
2.70887e-05
2.52495e-05
5.03196e-05
5.11338e-05
2.59078e-05
4.97657e-05
2.67097e-05
2.52796e-05
5.03326e-05
5.1101e-05
2.59134e-05
3.66297e-05
3.66321e-05
3.6624e-05
3.79783e-05
3.31648e-05
3.99353e-05
3.95782e-05
4.05385e-05
4.35918e-05
3.66521e-05
4.0022e-05
4.97828e-05
2.67022e-05
3.32303e-05
3.95846e-05
3.99125e-05
4.05401e-05
4.36557e-05
4.00266e-05
3.66591e-05
4.82854e-05
4.82712e-05
2.91179e-05
2.88438e-05
2.88454e-05
-2.895e-06
2.17251e-05
-2.49137e-06
2.23129e-05
4.75943e-06
1.13233e-05
1.1056e-05
1.20147e-05
1.1499e-05
1.49643e-05
8.21425e-06
4.77081e-06
1.12821e-05
1.10468e-05
1.20073e-05
8.29535e-06
1.1496e-05
1.49458e-05
2.33355e-05
-1.69954e-06
-2.22266e-06
2.26537e-05
2.3325e-05
-1.70717e-06
2.26889e-05
-2.23721e-06
1.59031e-05
1.24618e-05
9.04588e-06
1.2389e-05
1.19445e-05
5.61194e-06
1.22362e-05
1.58928e-05
1.24551e-05
9.06692e-06
1.23921e-05
1.22647e-05
1.19417e-05
5.56606e-06
1.96565e-05
1.96486e-05
6.91274e-07
4.52489e-07
4.47077e-07
2.11677e-05
-1.70289e-06
-8.78228e-07
2.21204e-05
1.82442e-05
1.27838e-06
1.295e-06
2.06008e-05
2.05624e-05
-8.59196e-07
2.20827e-05
4.73873e-06
1.13076e-05
1.10552e-05
1.20165e-05
1.14986e-05
1.49572e-05
8.22873e-06
-2.97609e-06
2.17391e-05
-2.61188e-06
2.23582e-05
4.72149e-06
1.10458e-05
1.13285e-05
1.19979e-05
1.14928e-05
8.16718e-06
1.49822e-05
2.33312e-05
-1.73749e-06
-2.28305e-06
2.26585e-05
1.58903e-05
1.24605e-05
9.01298e-06
1.23909e-05
1.19441e-05
5.57779e-06
1.223e-05
2.33261e-05
-1.69885e-06
2.26207e-05
-2.26442e-06
1.58929e-05
1.24463e-05
1.23831e-05
9.06458e-06
1.19414e-05
1.21938e-05
5.65806e-06
-2.92295e-06
2.17387e-05
-2.5184e-06
2.23383e-05
4.74636e-06
1.10379e-05
1.13511e-05
1.1998e-05
1.14846e-05
8.19616e-06
1.49691e-05
-2.93134e-06
2.17658e-05
-2.57248e-06
2.23759e-05
1.58539e-05
1.24549e-05
9.0848e-06
1.238e-05
1.22213e-05
1.1935e-05
5.61939e-06
2.32694e-05
-1.68934e-06
2.2653e-05
-2.13155e-06
1.58771e-05
1.24458e-05
1.23785e-05
9.0646e-06
1.19305e-05
1.22177e-05
5.59456e-06
2.32839e-05
-1.70954e-06
2.26344e-05
-2.14607e-06
1.96619e-05
1.96493e-05
6.53001e-07
3.75674e-07
3.95145e-07
2.11701e-05
-1.75194e-06
-8.86225e-07
2.20701e-05
1.82535e-05
1.26035e-06
1.26409e-06
2.05523e-05
2.0566e-05
-8.77112e-07
2.20783e-05
4.76018e-06
1.10353e-05
1.12771e-05
1.19963e-05
1.14842e-05
8.22992e-06
1.49313e-05
-2.92361e-06
2.17347e-05
-2.56834e-06
2.2328e-05
-2.90757e-06
2.17083e-05
-2.5581e-06
2.23392e-05
1.58558e-05
1.24456e-05
1.23828e-05
9.09902e-06
1.19342e-05
1.22067e-05
5.61572e-06
1.58454e-05
1.24469e-05
1.23807e-05
9.10073e-06
1.19341e-05
1.21963e-05
5.64237e-06
2.32455e-05
-1.68159e-06
2.26318e-05
-2.11526e-06
2.32528e-05
-1.67967e-06
2.26356e-05
-2.09516e-06
2.12007e-05
-1.74402e-06
2.11675e-05
-1.75046e-06
1.8244e-05
1.28547e-06
1.2887e-06
2.0567e-05
2.05599e-05
-8.72934e-07
2.20803e-05
-8.62192e-07
2.208e-05
2.30689e-05
-9.02408e-08
2.30424e-05
-6.83458e-08
2.15457e-05
2.1531e-05
2.31835e-06
2.05542e-06
2.0765e-06
7.89793e-07
2.39923e-05
7.79539e-07
2.40062e-05
2.01531e-05
2.93514e-06
2.92902e-06
2.24768e-05
2.24866e-05
-1.48484e-06
2.35673e-05
2.44242e-05
-8.56375e-07
6.39332e-06
1.32883e-05
1.28317e-05
1.37958e-05
1.6862e-05
9.68382e-06
1.32792e-05
6.46041e-06
1.31609e-05
1.2838e-05
1.37939e-05
1.68177e-05
9.87868e-06
1.32807e-05
2.53908e-05
-4.27411e-08
2.45601e-05
-6.15922e-07
2.54216e-05
1.54614e-08
2.45388e-05
-6.30065e-07
1.7788e-05
1.4241e-05
1.05829e-05
1.41774e-05
1.4302e-05
1.37289e-05
7.33547e-06
1.78934e-05
1.42547e-05
1.06995e-05
1.41936e-05
1.4184e-05
1.37385e-05
7.28567e-06
2.14949e-05
2.14713e-05
2.37199e-06
2.12123e-06
2.11294e-06
2.29895e-05
-3.42989e-08
8.44992e-07
2.39859e-05
2.01136e-05
2.99567e-06
2.93647e-06
2.24654e-05
2.2398e-05
7.85313e-07
2.39157e-05
6.39048e-06
1.31992e-05
1.28361e-05
1.37926e-05
1.68431e-05
9.80206e-06
1.32816e-05
-1.49418e-06
2.36192e-05
2.45404e-05
-8.72143e-07
6.48571e-06
1.28405e-05
1.32502e-05
1.38059e-05
1.70183e-05
1.32947e-05
9.8383e-06
2.54016e-05
-5.22565e-08
2.45738e-05
-6.13317e-07
1.77867e-05
1.42402e-05
1.05679e-05
1.41766e-05
1.43045e-05
1.37299e-05
7.32497e-06
2.54094e-05
-2.28359e-08
2.45783e-05
-6.09397e-07
1.77803e-05
1.42488e-05
1.41778e-05
1.06368e-05
1.37363e-05
1.42672e-05
7.32727e-06
-1.4791e-06
2.35484e-05
2.42891e-05
-8.56768e-07
6.48632e-06
1.28285e-05
1.31473e-05
1.3784e-05
1.68398e-05
1.32714e-05
9.90109e-06
-1.48727e-06
2.35608e-05
2.43083e-05
-8.42169e-07
1.78167e-05
1.42347e-05
1.06988e-05
1.41663e-05
1.40858e-05
1.3717e-05
7.2626e-06
2.54045e-05
-3.13015e-08
2.44742e-05
-6.75884e-07
1.77742e-05
1.42305e-05
1.41656e-05
1.06825e-05
1.37134e-05
1.416e-05
7.23943e-06
2.54048e-05
-2.7269e-08
2.45268e-05
-6.79527e-07
2.15319e-05
2.14887e-05
2.35038e-06
2.10412e-06
2.07278e-06
2.30151e-05
-6.97943e-08
8.10417e-07
2.40125e-05
2.01337e-05
2.95957e-06
2.90944e-06
2.24878e-05
2.24153e-05
7.63454e-07
2.39282e-05
6.37777e-06
1.28277e-05
1.31505e-05
1.37903e-05
1.68322e-05
1.32791e-05
9.89097e-06
-1.53626e-06
2.35866e-05
2.43093e-05
-8.75585e-07
-1.5418e-06
2.35696e-05
2.43162e-05
-8.64748e-07
1.78208e-05
1.42297e-05
1.41651e-05
1.069e-05
1.37167e-05
1.41221e-05
7.20517e-06
1.76513e-05
1.42349e-05
1.41595e-05
1.0729e-05
1.3724e-05
1.41024e-05
7.44862e-06
2.53837e-05
-4.62871e-08
2.44866e-05
-6.98054e-07
2.53534e-05
-5.78175e-09
2.44888e-05
-6.16031e-07
2.30014e-05
-2.14524e-08
2.30103e-05
-3.80029e-08
2.01116e-05
2.95409e-06
2.95472e-06
2.24347e-05
2.24305e-05
8.03697e-07
2.39601e-05
8.05908e-07
2.39445e-05
2.49081e-05
1.69649e-06
2.48985e-05
1.6834e-06
2.33914e-05
2.33837e-05
4.11874e-06
3.84315e-06
3.83955e-06
2.62551e-06
2.58145e-05
2.6462e-06
2.57892e-05
2.19665e-05
4.77421e-06
4.78944e-06
2.43005e-05
2.42802e-05
2.81823e-07
2.55053e-05
2.63052e-05
8.65751e-07
8.26024e-06
1.52163e-05
1.46334e-05
1.55915e-05
1.87344e-05
1.14981e-05
1.50664e-05
8.22732e-06
1.52121e-05
1.46375e-05
1.55926e-05
1.86402e-05
1.15217e-05
1.50744e-05
2.72344e-05
1.80249e-06
2.63903e-05
1.16626e-06
2.72141e-05
1.80346e-06
2.63634e-05
1.17601e-06
1.96285e-05
1.60371e-05
1.24966e-05
1.59579e-05
1.61529e-05
1.55147e-05
9.04801e-06
1.95206e-05
1.60291e-05
1.25186e-05
1.59643e-05
1.60557e-05
1.55097e-05
9.0829e-06
2.34117e-05
2.33248e-05
4.08515e-06
3.84754e-06
3.7873e-06
2.48422e-05
1.63329e-06
2.61442e-06
2.58028e-05
2.19479e-05
4.76209e-06
4.71651e-06
2.428e-05
2.42388e-05
2.56566e-06
2.576e-05
8.14639e-06
1.51861e-05
1.46168e-05
1.55891e-05
1.87321e-05
1.15529e-05
1.50784e-05
2.4225e-07
2.54796e-05
2.63363e-05
8.61512e-07
8.12632e-06
1.46202e-05
1.51806e-05
1.55838e-05
1.87352e-05
1.50743e-05
1.15355e-05
2.71955e-05
1.8501e-06
2.63385e-05
1.22012e-06
1.95956e-05
1.60434e-05
1.25844e-05
1.59651e-05
1.60127e-05
1.55217e-05
9.18236e-06
2.72095e-05
1.8224e-06
2.63678e-05
1.24632e-06
1.96598e-05
1.60433e-05
1.59633e-05
1.25395e-05
1.55317e-05
1.60666e-05
9.26506e-06
2.08685e-07