/*--------------------------------*- C++ -*----------------------------------*\
| =========                 |                                                 |
| \\      /  F ield         | OpenFOAM: The Open Source CFD Toolbox           |
|  \\    /   O peration     | Version:  2206                                  |
|   \\  /    A nd           | Website:  www.openfoam.com                      |
|    \\/     M anipulation  |                                                 |
\*---------------------------------------------------------------------------*/
FoamFile
{
    version     2.0;
    format      ascii;
    arch        "LSB;label=32;scalar=64";
    class       volScalarField;
    location    "10.5";
    object      p;
}
// * * * * * * * * * * * * * * * * * * * * * * * * * * * * * * * * * * * * * //

dimensions      [0 2 -2 0 0 0 0];

internalField   nonuniform List<scalar> 
171728
(
0.00433829
0.00433862
0.00433862
0.00434166
0.00428354
0.00428349
0.00428349
0.00428637
0.0042347
0.00423462
0.00423462
0.00423717
0.00418829
0.00418824
0.00418824
0.00419093
0.00414225
0.00414222
0.00414222
0.0041449
0.00409625
0.00409623
0.00409623
0.00409891
0.00405026
0.00405023
0.00405023
0.00405291
0.00400426
0.00400424
0.00400424
0.00400692
0.00395827
0.00395824
0.00395824
0.00396092
0.00391227
0.00391225
0.00391225
0.00391493
0.00386627
0.00386625
0.00386625
0.00386893
0.00382027
0.00382025
0.00382025
0.00382293
0.00377428
0.00377425
0.00377425
0.00377693
0.00372829
0.00372826
0.00372826
0.00373094
0.00368229
0.00368227
0.00368227
0.00368495
0.00363629
0.00363627
0.00363627
0.00363895
0.00359029
0.00359027
0.00359027
0.00359295
0.0035443
0.00354427
0.00354427
0.00354695
0.0034983
0.00349828
0.00349828
0.00350096
0.0034523
0.00345228
0.00345228
0.00345496
0.00340631
0.00340628
0.00340628
0.00340896
0.00336031
0.00336029
0.00336028
0.00336297
0.00331431
0.00331429
0.00331429
0.00331697
0.00326832
0.00326829
0.00326829
0.00327097
0.00322232
0.0032223
0.0032223
0.00322498
0.00317633
0.00317631
0.00317631
0.00317899
0.00313034
0.00313032
0.00313032
0.003133
0.00308436
0.00308433
0.00308433
0.00308701
0.00303837
0.00303834
0.00303834
0.00304102
0.00299238
0.00299236
0.00299236
0.00299504
0.00294641
0.00294638
0.00294638
0.00294906
0.00290044
0.00290041
0.00290041
0.00290309
0.00285445
0.00285443
0.00285443
0.00285711
0.00280846
0.00280844
0.00280844
0.00281112
0.00276248
0.00276245
0.00276245
0.00276513
0.00271649
0.00271646
0.00271646
0.00271914
0.0026705
0.00267047
0.00267047
0.00267315
0.00262451
0.00262448
0.00262448
0.00262716
0.00257852
0.00257849
0.00257849
0.00258117
0.00253252
0.0025325
0.0025325
0.00253518
0.00248653
0.0024865
0.0024865
0.00248918
0.00244053
0.00244051
0.00244051
0.00244319
0.00239453
0.00239451
0.00239451
0.00239719
0.00234853
0.00234851
0.00234851
0.00235119
0.00230253
0.00230251
0.00230251
0.00230519
0.00225653
0.0022565
0.0022565
0.00225918
0.00221053
0.0022105
0.0022105
0.00221318
0.00216453
0.00216451
0.00216451
0.00216719
0.00211854
0.00211852
0.00211852
0.0021212
0.00207256
0.00207253
0.00207253
0.00207521
0.00202655
0.00202653
0.00202653
0.00202921
0.00198055
0.00198053
0.00198053
0.00198321
0.00193455
0.00193453
0.00193453
0.00193721
0.00188856
0.00188853
0.00188853
0.00189121
0.00184256
0.00184254
0.00184254
0.00184522
0.00179657
0.00179654
0.00179654
0.00179922
0.00175057
0.00175055
0.00175055
0.00175323
0.00170458
0.00170455
0.00170455
0.00170723
0.00165859
0.00165856
0.00165856
0.00166124
0.00161259
0.00161257
0.00161257
0.00161525
0.0015666
0.00156658
0.00156658
0.00156926
0.0015206
0.00152058
0.00152058
0.00152326
0.0014746
0.00147458
0.00147458
0.00147726
0.0014286
0.00142858
0.00142858
0.00143126
0.0013826
0.00138258
0.00138258
0.00138526
0.00133661
0.00133658
0.00133658
0.00133926
0.00129062
0.0012906
0.0012906
0.00129328
0.00124462
0.0012446
0.00124459
0.00124727
0.00119862
0.00119859
0.00119859
0.00120127
0.00115261
0.00115259
0.00115259
0.00115527
0.00110661
0.00110659
0.00110659
0.00110927
0.00106061
0.00106058
0.00106058
0.00106326
0.00101461
0.00101458
0.00101458
0.00101726
0.000968602
0.000968577
0.000968577
0.000971258
0.000922598
0.000922573
0.000922573
0.000925254
0.000876594
0.00087657
0.00087657
0.00087925
0.000830591
0.000830567
0.000830567
0.000833247
0.000784589
0.000784564
0.000784564
0.000787245
0.000738586
0.000738562
0.000738562
0.000741243
0.000692584
0.000692559
0.000692559
0.00069524
0.00064658
0.000646556
0.000646556
0.000649237
0.000600576
0.000600551
0.000600552
0.000603232
0.000554574
0.000554548
0.000554549
0.000557229
0.00050858
0.000508558
0.000508555
0.000511238
0.000462582
0.000462558
0.000462558
0.00046524
0.000416571
0.000416546
0.000416547
0.000419227
0.000370564
0.000370539
0.000370539
0.00037322
0.000324558
0.000324533
0.000324533
0.000327214
0.000278552
0.000278528
0.000278528
0.000281209
0.000232548
0.000232523
0.000232523
0.000235204
0.000186542
0.000186518
0.000186518
0.000189199
0.000140534
0.000140516
0.000140515
0.000143189
9.45146e-05
9.44589e-05
9.4458e-05
9.70934e-05
4.91903e-05
4.86675e-05
4.86642e-05
5.11869e-05
1.13343e-05
1.17635e-05
1.17619e-05
1.13919e-05
0.00435173
0.00435196
0.00435196
0.00435173
0.00435196
0.00435196
0.00435273
0.00435273
0.00435274
0.00435274
0.00435196
0.00435196
0.00435173
0.00435196
0.00435196
0.00435173
0.00434166
0.00429296
0.00433861
0.00433861
0.00429514
0.00429514
0.00434166
0.00429296
0.00433862
0.00433862
0.00429513
0.00429514
0.00433861
0.00429513
0.00429514
0.00434166
0.00429296
0.00433862
0.00429513
0.00429513
0.00429296
0.00428637
0.00424331
0.00428349
0.00428349
0.00424658
0.00424658
0.00428637
0.00424331
0.00428349
0.00428349
0.00424659
0.00424658
0.00428349
0.00424658
0.00424658
0.00428637
0.00424331
0.00428348
0.00424658
0.00424658
0.00424331
0.00423717
0.00419707
0.00423462
0.00423462
0.00419977
0.00419977
0.00423717
0.00419707
0.00423462
0.00423462
0.00419977
0.00419977
0.00423462
0.00419977
0.00419977
0.00423717
0.00419707
0.00423462
0.00419977
0.00419977
0.00419707
0.00419093
0.00415104
0.00418824
0.00418824
0.00415372
0.00415372
0.00419093
0.00415105
0.00418824
0.00418824
0.00415372
0.00415372
0.00418824
0.00415372
0.00415372
0.00419093
0.00415104
0.00418824
0.00415372
0.00415372
0.00415104
0.0041449
0.00410505
0.00414222
0.00414222
0.00410773
0.00410773
0.0041449
0.00410505
0.00414222
0.00414222
0.00410772
0.00410772
0.00414222
0.00410773
0.00410773
0.0041449
0.00410505
0.00414222
0.00410772
0.00410773
0.00410505
0.00409891
0.00405906
0.00409623
0.00409623
0.00406173
0.00406173
0.00409891
0.00405905
0.00409623
0.00409623
0.00406173
0.00406173
0.00409623
0.00406173
0.00406173
0.00409891
0.00405906
0.00409623
0.00406173
0.00406173
0.00405906
0.00405291
0.00401306
0.00405023
0.00405023
0.00401574
0.00401574
0.00405291
0.00401306
0.00405023
0.00405023
0.00401574
0.00401574
0.00405023
0.00401574
0.00401574
0.00405291
0.00401306
0.00405023
0.00401574
0.00401574
0.00401306
0.00400692
0.00396707
0.00400424
0.00400424
0.00396974
0.00396974
0.00400692
0.00396707
0.00400424
0.00400424
0.00396974
0.00396974
0.00400424
0.00396974
0.00396974
0.00400692
0.00396707
0.00400424
0.00396974
0.00396974
0.00396707
0.00396092
0.00392107
0.00395824
0.00395824
0.00392375
0.00392375
0.00396092
0.00392107
0.00395824
0.00395824
0.00392374
0.00392374
0.00395824
0.00392374
0.00392374
0.00396092
0.00392107
0.00395824
0.00392374
0.00392374
0.00392107
0.00391493
0.00387507
0.00391225
0.00391225
0.00387775
0.00387775
0.00391493
0.00387507
0.00391225
0.00391225
0.00387775
0.00387775
0.00391225
0.00387775
0.00387775
0.00391493
0.00387507
0.00391225
0.00387775
0.00387775
0.00387507
0.00386893
0.00382907
0.00386625
0.00386625
0.00383175
0.00383175
0.00386893
0.00382907
0.00386625
0.00386625
0.00383175
0.00383175
0.00386625
0.00383175
0.00383175
0.00386893
0.00382907
0.00386625
0.00383175
0.00383175
0.00382907
0.00382293
0.00378307
0.00382025
0.00382025
0.00378575
0.00378575
0.00382293
0.00378307
0.00382025
0.00382025
0.00378575
0.00378575
0.00382025
0.00378575
0.00378575
0.00382293
0.00378307
0.00382025
0.00378575
0.00378575
0.00378307
0.00377693
0.00373709
0.00377425
0.00377425
0.00373976
0.00373976
0.00377693
0.00373709
0.00377425
0.00377425
0.00373976
0.00373976
0.00377425
0.00373976
0.00373976
0.00377693
0.00373708
0.00377425
0.00373976
0.00373976
0.00373709
0.00373094
0.0036911
0.00372826
0.00372826
0.00369377
0.00369377
0.00373094
0.00369109
0.00372826
0.00372826
0.00369377
0.00369377
0.00372826
0.00369377
0.00369377
0.00373094
0.0036911
0.00372826
0.00369377
0.00369377
0.0036911
0.00368495
0.00364509
0.00368227
0.00368227
0.00364777
0.00364777
0.00368495
0.00364509
0.00368227
0.00368227
0.00364777
0.00364777
0.00368227
0.00364777
0.00364777
0.00368495
0.00364509
0.00368227
0.00364777
0.00364777
0.00364509
0.00363895
0.00359909
0.00363627
0.00363627
0.00360177
0.00360177
0.00363895
0.00359909
0.00363627
0.00363627
0.00360177
0.00360177
0.00363627
0.00360177
0.00360177
0.00363895
0.00359909
0.00363627
0.00360177
0.00360177
0.00359909
0.00359295
0.0035531
0.00359027
0.00359027
0.00355577
0.00355577
0.00359295
0.0035531
0.00359027
0.00359027
0.00355577
0.00355577
0.00359027
0.00355577
0.00355577
0.00359295
0.0035531
0.00359027
0.00355577
0.00355577
0.0035531
0.00354695
0.0035071
0.00354427
0.00354427
0.00350978
0.00350978
0.00354695
0.0035071
0.00354427
0.00354427
0.00350978
0.00350978
0.00354427
0.00350978
0.00350978
0.00354695
0.0035071
0.00354427
0.00350978
0.00350978
0.0035071
0.00350096
0.0034611
0.00349828
0.00349828
0.00346378
0.00346378
0.00350096
0.0034611
0.00349828
0.00349828
0.00346378
0.00346378
0.00349828
0.00346378
0.00346378
0.00350096
0.0034611
0.00349828
0.00346378
0.00346378
0.0034611
0.00345496
0.00341511
0.00345228
0.00345228
0.00341778
0.00341778
0.00345496
0.00341511
0.00345228
0.00345228
0.00341778
0.00341778
0.00345228
0.00341778
0.00341778
0.00345496
0.00341511
0.00345228
0.00341778
0.00341778
0.00341511
0.00340896
0.00336911
0.00340628
0.00340628
0.00337178
0.00337178
0.00340896
0.00336911
0.00340628
0.00340628
0.00337178
0.00337178
0.00340628
0.00337178
0.00337178
0.00340896
0.00336911
0.00340628
0.00337178
0.00337178
0.00336911
0.00336297
0.00332311
0.00336028
0.00336028
0.00332579
0.00332579
0.00336297
0.00332311
0.00336028
0.00336028
0.00332579
0.00332579
0.00336029
0.00332579
0.00332579
0.00336297
0.00332311
0.00336029
0.00332579
0.00332579
0.00332311
0.00331697
0.00327712
0.00331429
0.00331429
0.00327979
0.00327979
0.00331697
0.00327712
0.00331429
0.00331429
0.00327979
0.00327979
0.00331429
0.00327979
0.00327979
0.00331697
0.00327712
0.00331429
0.00327979
0.00327979
0.00327712
0.00327097
0.00323112
0.00326829
0.00326829
0.0032338
0.0032338
0.00327097
0.00323112
0.00326829
0.00326829
0.0032338
0.0032338
0.00326829
0.0032338
0.0032338
0.00327097
0.00323112
0.00326829
0.0032338
0.0032338
0.00323112
0.00322498
0.00318513
0.0032223
0.0032223
0.00318781
0.00318781
0.00322498
0.00318513
0.0032223
0.0032223
0.00318781
0.00318781
0.0032223
0.00318781
0.00318781
0.00322498
0.00318513
0.0032223
0.00318781
0.00318781
0.00318513
0.00317899
0.00313914
0.00317631
0.00317631
0.00314182
0.00314182
0.00317899
0.00313914
0.00317631
0.00317631
0.00314182
0.00314182
0.00317631
0.00314182
0.00314182
0.00317899
0.00313914
0.00317631
0.00314182
0.00314182
0.00313914
0.003133
0.00309315
0.00313032
0.00313032
0.00309583
0.00309583
0.003133
0.00309315
0.00313032
0.00313032
0.00309583
0.00309583
0.00313032
0.00309583
0.00309583
0.003133
0.00309315
0.00313032
0.00309583
0.00309583
0.00309315
0.00308701
0.00304717
0.00308433
0.00308433
0.00304984
0.00304984
0.00308701
0.00304717
0.00308433
0.00308433
0.00304984
0.00304984
0.00308433
0.00304984
0.00304984
0.00308701
0.00304717
0.00308433
0.00304984
0.00304984
0.00304717
0.00304102
0.00300118
0.00303834
0.00303834
0.00300386
0.00300386
0.00304102
0.00300118
0.00303834
0.00303834
0.00300386
0.00300386
0.00303834
0.00300386
0.00300386
0.00304102
0.00300118
0.00303834
0.00300386
0.00300386
0.00300118
0.00299504
0.0029552
0.00299236
0.00299236
0.00295787
0.00295787
0.00299504
0.0029552
0.00299236
0.00299236
0.00295787
0.00295787
0.00299236
0.00295788
0.00295787
0.00299504
0.0029552
0.00299236
0.00295787
0.00295787
0.0029552
0.00294906
0.00290923
0.00294638
0.00294638
0.00291191
0.00291191
0.00294906
0.00290923
0.00294638
0.00294638
0.00291191
0.00291191
0.00294638
0.00291191
0.00291191
0.00294906
0.00290923
0.00294638
0.00291191
0.00291191
0.00290923
0.00290309
0.00286325
0.00290041
0.00290041
0.00286593
0.00286593
0.00290309
0.00286325
0.00290041
0.00290041
0.00286593
0.00286593
0.00290041
0.00286593
0.00286593
0.00290309
0.00286325
0.00290041
0.00286593
0.00286593
0.00286325
0.00285711
0.00281726
0.00285443
0.00285443
0.00281994
0.00281994
0.00285711
0.00281726
0.00285443
0.00285443
0.00281994
0.00281994
0.00285443
0.00281994
0.00281994
0.00285711
0.00281726
0.00285443
0.00281994
0.00281994
0.00281726
0.00281112
0.00277127
0.00280844
0.00280844
0.00277395
0.00277395
0.00281112
0.00277127
0.00280844
0.00280844
0.00277395
0.00277395
0.00280844
0.00277395
0.00277395
0.00281112
0.00277127
0.00280844
0.00277395
0.00277395
0.00277127
0.00276513
0.00272528
0.00276245
0.00276245
0.00272796
0.00272796
0.00276513
0.00272528
0.00276245
0.00276245
0.00272796
0.00272796
0.00276245
0.00272796
0.00272796
0.00276513
0.00272528
0.00276245
0.00272796
0.00272796
0.00272528
0.00271914
0.00267929
0.00271646
0.00271646
0.00268197
0.00268197
0.00271914
0.00267929
0.00271646
0.00271646
0.00268197
0.00268197
0.00271646
0.00268197
0.00268197
0.00271914
0.00267929
0.00271646
0.00268197
0.00268197
0.00267929
0.00267315
0.00263331
0.00267047
0.00267047
0.00263598
0.00263598
0.00267315
0.00263331
0.00267047
0.00267047
0.00263598
0.00263598
0.00267047
0.00263598
0.00263598
0.00267315
0.00263331
0.00267047
0.00263598
0.00263598
0.00263331
0.00262716
0.00258731
0.00262448
0.00262448
0.00258999
0.00258999
0.00262716
0.00258732
0.00262448
0.00262448
0.00258999
0.00258999
0.00262448
0.00258999
0.00258999
0.00262716
0.00258731
0.00262448
0.00258999
0.00258999
0.00258731
0.00258117
0.00254132
0.00257849
0.00257849
0.002544
0.002544
0.00258117
0.00254132
0.00257849
0.00257849
0.002544
0.002544
0.00257849
0.002544
0.002544
0.00258117
0.00254132
0.00257849
0.002544
0.002544
0.00254132
0.00253518
0.00249533
0.0025325
0.0025325
0.002498
0.002498
0.00253518
0.00249533
0.0025325
0.0025325
0.002498
0.002498
0.0025325
0.002498
0.002498
0.00253518
0.00249533
0.0025325
0.002498
0.002498
0.00249533
0.00248918
0.00244933
0.0024865
0.0024865
0.00245201
0.00245201
0.00248918
0.00244933
0.0024865
0.0024865
0.00245201
0.00245201
0.0024865
0.00245201
0.00245201
0.00248918
0.00244933
0.0024865
0.00245201
0.00245201
0.00244933
0.00244319
0.00240333
0.00244051
0.00244051
0.00240601
0.00240601
0.00244319
0.00240333
0.00244051
0.00244051
0.00240601
0.00240601
0.00244051
0.00240601
0.00240601
0.00244319
0.00240333
0.00244051
0.00240601
0.00240601
0.00240333
0.00239719
0.00235733
0.00239451
0.00239451
0.00236001
0.00236001
0.00239719
0.00235733
0.00239451
0.00239451
0.00236001
0.00236001
0.00239451
0.00236001
0.00236001
0.00239719
0.00235733
0.00239451
0.00236001
0.00236001
0.00235733
0.00235119
0.00231133
0.00234851
0.00234851
0.00231401
0.00231401
0.00235119
0.00231133
0.00234851
0.00234851
0.00231401
0.00231401
0.00234851
0.00231401
0.00231401
0.00235119
0.00231133
0.00234851
0.00231401
0.00231401
0.00231133
0.00230519
0.00226533
0.00230251
0.00230251
0.002268
0.002268
0.00230519
0.00226533
0.00230251
0.00230251
0.002268
0.002268
0.00230251
0.002268
0.002268
0.00230519
0.00226533
0.00230251
0.002268
0.002268
0.00226533
0.00225918
0.00221933
0.0022565
0.0022565
0.002222
0.002222
0.00225918
0.00221933
0.0022565
0.0022565
0.002222
0.002222
0.0022565
0.002222
0.002222
0.00225918
0.00221933
0.0022565
0.002222
0.002222
0.00221933
0.00221318
0.00217333
0.0022105
0.0022105
0.002176
0.002176
0.00221318
0.00217333
0.0022105
0.0022105
0.002176
0.002176
0.0022105
0.002176
0.002176
0.00221318
0.00217333
0.0022105
0.002176
0.002176
0.00217333
0.00216719
0.00212734
0.00216451
0.00216451
0.00213001
0.00213001
0.00216719
0.00212734
0.00216451
0.00216451
0.00213001
0.00213001
0.00216451
0.00213001
0.00213001
0.00216719
0.00212734
0.00216451
0.00213001
0.00213001
0.00212734
0.0021212
0.00208135
0.00211852
0.00211852
0.00208403
0.00208403
0.0021212
0.00208135
0.00211852
0.00211852
0.00208403
0.00208403
0.00211852
0.00208403
0.00208403
0.0021212
0.00208135
0.00211852
0.00208403
0.00208403
0.00208135
0.00207521
0.00203535
0.00207253
0.00207253
0.00203803
0.00203803
0.00207521
0.00203535
0.00207253
0.00207253
0.00203803
0.00203803
0.00207253
0.00203803
0.00203803
0.00207521
0.00203535
0.00207253
0.00203803
0.00203803
0.00203535
0.00202921
0.00198935
0.00202653
0.00202653
0.00199203
0.00199203
0.00202921
0.00198935
0.00202653
0.00202653
0.00199203
0.00199203
0.00202653
0.00199203
0.00199203
0.00202921
0.00198935
0.00202653
0.00199203
0.00199203
0.00198935
0.00198321
0.00194335
0.00198053
0.00198053
0.00194603
0.00194603
0.00198321
0.00194335
0.00198053
0.00198053
0.00194603
0.00194603
0.00198053
0.00194603
0.00194603
0.00198321
0.00194335
0.00198053
0.00194603
0.00194603
0.00194335
0.00193721
0.00189736
0.00193453
0.00193453
0.00190003
0.00190003
0.00193721
0.00189736
0.00193453
0.00193453
0.00190003
0.00190003
0.00193453
0.00190003
0.00190003
0.00193721
0.00189736
0.00193453
0.00190003
0.00190003
0.00189736
0.00189121
0.00185136
0.00188853
0.00188853
0.00185404
0.00185404
0.00189121
0.00185136
0.00188853
0.00188853
0.00185404
0.00185404
0.00188853
0.00185404
0.00185404
0.00189121
0.00185136
0.00188853
0.00185404
0.00185404
0.00185136
0.00184522
0.00180536
0.00184254
0.00184254
0.00180804
0.00180804
0.00184522
0.00180537
0.00184254
0.00184254
0.00180804
0.00180804
0.00184254
0.00180804
0.00180804
0.00184522
0.00180536
0.00184254
0.00180804
0.00180804
0.00180536
0.00179922
0.00175937
0.00179654
0.00179654
0.00176204
0.00176204
0.00179922
0.00175937
0.00179654
0.00179654
0.00176204
0.00176204
0.00179654
0.00176204
0.00176205
0.00179922
0.00175937
0.00179654
0.00176204
0.00176204
0.00175937
0.00175323
0.00171338
0.00175055
0.00175055
0.00171605
0.00171605
0.00175323
0.00171338
0.00175055
0.00175055
0.00171605
0.00171605
0.00175055
0.00171605
0.00171605
0.00175323
0.00171338
0.00175055
0.00171605
0.00171605
0.00171338
0.00170723
0.00166738
0.00170455
0.00170455
0.00167006
0.00167006
0.00170723
0.00166738
0.00170455
0.00170455
0.00167006
0.00167006
0.00170455
0.00167006
0.00167006
0.00170723
0.00166738
0.00170455
0.00167006
0.00167006
0.00166738
0.00166124
0.00162139
0.00165856
0.00165856
0.00162407
0.00162407
0.00166124
0.00162139
0.00165856
0.00165856
0.00162407
0.00162407
0.00165856
0.00162407
0.00162407
0.00166124
0.00162139
0.00165856
0.00162407
0.00162407
0.00162139
0.00161525
0.0015754
0.00161257
0.00161257
0.00157807
0.00157807
0.00161525
0.0015754
0.00161257
0.00161257
0.00157807
0.00157807
0.00161257
0.00157807
0.00157807
0.00161525
0.0015754
0.00161257
0.00157807
0.00157807
0.0015754
0.00156926
0.0015294
0.00156658
0.00156658
0.00153208
0.00153208
0.00156926
0.0015294
0.00156658
0.00156658
0.00153208
0.00153208
0.00156658
0.00153208
0.00153208
0.00156926
0.0015294
0.00156658
0.00153208
0.00153208
0.0015294
0.00152326
0.0014834
0.00152058
0.00152058
0.00148608
0.00148608
0.00152326
0.0014834
0.00152058
0.00152058
0.00148608
0.00148608
0.00152058
0.00148608
0.00148608
0.00152326
0.0014834
0.00152058
0.00148608
0.00148608
0.0014834
0.00147726
0.0014374
0.00147458
0.00147458
0.00144008
0.00144008
0.00147726
0.0014374
0.00147458
0.00147458
0.00144008
0.00144008
0.00147458
0.00144008
0.00144008
0.00147726
0.0014374
0.00147458
0.00144008
0.00144008
0.0014374
0.00143126
0.0013914
0.00142858
0.00142858
0.00139408
0.00139408
0.00143126
0.0013914
0.00142858
0.00142858
0.00139408
0.00139408
0.00142858
0.00139408
0.00139408
0.00143126
0.0013914
0.00142858
0.00139408
0.00139408
0.0013914
0.00138526
0.0013454
0.00138258
0.00138258
0.00134808
0.00134808
0.00138526
0.0013454
0.00138258
0.00138258
0.00134808
0.00134808
0.00138258
0.00134808
0.00134808
0.00138526
0.0013454
0.00138258
0.00134808
0.00134808
0.0013454
0.00133926
0.00129942
0.00133658
0.00133658
0.00130209
0.00130209
0.00133926
0.00129942
0.00133658
0.00133658
0.00130209
0.00130209
0.00133658
0.00130209
0.00130209
0.00133926
0.00129942
0.00133658
0.00130209
0.00130209
0.00129942
0.00129328
0.00125342
0.0012906
0.0012906
0.0012561
0.0012561
0.00129328
0.00125342
0.0012906
0.0012906
0.0012561
0.0012561
0.0012906
0.0012561
0.0012561
0.00129328
0.00125342
0.0012906
0.0012561
0.0012561
0.00125342
0.00124728
0.00120742
0.0012446
0.0012446
0.00121009
0.00121009
0.00124728
0.00120742
0.0012446
0.00124459
0.00121009
0.00121009
0.00124459
0.00121009
0.00121009
0.00124727
0.00120741
0.00124459
0.00121009
0.00121009
0.00120741
0.00120127
0.00116141
0.00119859
0.00119859
0.00116409
0.00116409
0.00120127
0.00116141
0.00119859
0.00119859
0.00116409
0.00116409
0.00119859
0.00116409
0.00116409
0.00120127
0.00116141
0.00119859
0.00116409
0.00116409
0.00116141
0.00115527
0.00111541
0.00115259
0.00115259
0.00111809
0.00111809
0.00115527
0.00111541
0.00115259
0.00115259
0.00111809
0.00111809
0.00115259
0.00111809
0.00111809
0.00115527
0.00111541
0.00115259
0.00111809
0.00111809
0.00111541
0.00110927
0.00106941
0.00110659
0.00110659
0.00107208
0.00107208
0.00110927
0.00106941
0.00110659
0.00110659
0.00107208
0.00107208
0.00110659
0.00107208
0.00107208
0.00110927
0.00106941
0.00110659
0.00107208
0.00107208
0.00106941
0.00106326
0.00102341
0.00106058
0.00106058
0.00102608
0.00102608
0.00106326
0.00102341
0.00106058
0.00106058
0.00102608
0.00102608
0.00106058
0.00102608
0.00102608
0.00106326
0.00102341
0.00106058
0.00102608
0.00102608
0.00102341
0.00101726
0.000977402
0.00101458
0.00101458
0.000980078
0.000980078
0.00101726
0.000977402
0.00101458
0.00101458
0.000980078
0.000980078
0.00101458
0.000980078
0.000980078
0.00101726
0.000977402
0.00101458
0.000980078
0.000980078
0.000977402
0.000971258
0.000931398
0.000968577
0.000968577
0.000934074
0.000934074
0.000971258
0.000931398
0.000968577
0.000968577
0.000934074
0.000934074
0.000968577
0.000934074
0.000934074
0.000971258
0.000931398
0.000968577
0.000934074
0.000934074
0.000931398
0.000925254
0.000885394
0.000922573
0.000922573
0.00088807
0.00088807
0.000925254
0.000885395
0.000922573
0.000922573
0.00088807
0.00088807
0.000922573
0.00088807
0.00088807
0.000925254
0.000885394
0.000922573
0.00088807
0.00088807
0.000885394
0.00087925
0.000839391
0.00087657
0.000876569
0.000842067
0.000842067
0.00087925
0.000839392
0.000876569
0.00087657
0.000842067
0.000842067
0.00087657
0.000842067
0.000842068
0.00087925
0.000839391
0.00087657
0.000842067
0.000842067
0.000839391
0.000833247
0.000793389
0.000830567
0.000830567
0.000796065
0.000796065
0.000833247
0.000793389
0.000830567
0.000830567
0.000796065
0.000796065
0.000830567
0.000796065
0.000796065
0.000833247
0.000793389
0.000830567
0.000796065
0.000796065
0.000793389
0.000787245
0.000747387
0.000784564
0.000784564
0.000750063
0.000750062
0.000787245
0.000747387
0.000784564
0.000784564
0.000750062
0.000750062
0.000784565
0.000750062
0.000750063
0.000787245
0.000747387
0.000784564
0.000750062
0.000750062
0.000747387
0.000741243
0.000701384
0.000738562
0.000738562
0.00070406
0.00070406
0.000741242
0.000701384
0.000738562
0.000738562
0.00070406
0.00070406
0.000738562
0.00070406
0.00070406
0.000741242
0.000701384
0.000738562
0.00070406
0.00070406
0.000701384
0.00069524
0.000655381
0.000692559
0.000692559
0.000658057
0.000658057
0.00069524
0.000655381
0.000692559
0.000692559
0.000658057
0.000658057
0.000692559
0.000658057
0.000658057
0.00069524
0.000655381
0.000692559
0.000658057
0.000658057
0.000655381
0.000649236
0.000609377
0.000646556
0.000646556
0.000612053
0.000612053
0.000649236
0.000609377
0.000646556
0.000646556
0.000612053
0.000612053
0.000646556
0.000612053
0.000612053
0.000649237
0.000609377
0.000646556
0.000612053
0.000612053
0.000609377
0.000603232
0.000563373
0.000600552
0.000600551
0.000566049
0.000566048
0.000603232
0.000563373
0.000600552
0.000600552
0.000566049
0.000566049
0.000600552
0.000566048
0.000566049
0.000603233
0.000563373
0.000600552
0.000566049
0.000566049
0.000563373
0.000557229
0.000517379
0.000554548
0.000554548
0.000520053
0.000520055
0.000557228
0.00051738
0.000554548
0.000554548
0.000520052
0.000520051
0.000554548
0.000520055
0.000520053
0.000557229
0.000517377
0.000554548
0.000520052
0.000520052
0.00051738
0.000511237
0.000471385
0.000508557
0.000508558
0.00047406
0.000474061
0.000511238
0.000471383
0.000508555
0.000508554
0.000474059
0.000474059
0.000508558
0.000474061
0.00047406
0.000511235
0.000471385
0.000508557
0.000474059
0.00047406
0.000471385
0.00046524
0.000425372
0.000462559
0.000462558
0.000428049
0.000428048
0.000465237
0.000425372
0.000462559
0.000462559
0.000428049
0.000428049
0.000462559
0.000428048
0.000428049
0.000465241
0.000425372
0.000462559
0.000428049
0.000428048
0.000425372
0.000419227
0.000379365
0.000416547
0.000416546
0.000382041
0.000382041
0.000419227
0.000379365
0.000416546
0.000416546
0.000382041
0.000382041
0.000416547
0.000382041
0.000382041
0.000419227
0.000379365
0.000416546
0.000382041
0.000382041
0.000379365
0.00037322
0.000333359
0.000370539
0.000370539
0.000336035
0.000336035
0.00037322
0.000333359
0.000370539
0.000370539
0.000336035
0.000336035
0.00037054
0.000336035
0.000336035
0.00037322
0.000333358
0.000370539
0.000336035
0.000336035
0.000333359
0.000327214
0.000287353
0.000324533
0.000324533
0.000290029
0.000290029
0.000327214
0.000287353
0.000324533
0.000324533
0.000290029
0.000290029
0.000324533
0.000290029
0.000290029
0.000327214
0.000287353
0.000324533
0.000290029
0.000290029
0.000287353
0.000281209
0.000241348
0.000278528
0.000278528
0.000244024
0.000244024
0.000281209
0.000241348
0.000278528
0.000278528
0.000244024
0.000244024
0.000278528
0.000244024
0.000244024
0.000281209
0.000241348
0.000278528
0.000244024
0.000244024
0.000241348
0.000235204
0.000195343
0.000232523
0.000232523
0.000198019
0.000198019
0.000235204
0.000195343
0.000232523
0.000232523
0.000198019
0.000198019
0.000232523
0.000198019
0.000198019
0.000235204
0.000195343
0.000232523
0.000198019
0.000198019
0.000195343
0.000189199
0.000149338
0.000186518
0.000186518
0.000152016
0.000152016
0.000189199
0.000149338
0.000186518
0.000186518
0.000152016
0.000152016
0.000186518
0.000152016
0.000152016
0.000189199
0.000149338
0.000186518
0.000152016
0.000152016
0.000149338
0.00014319
0.000103314
0.000140516
0.000140515
0.000105996
0.000105995
0.000143189
0.000103314
0.000140516
0.000140516
0.000105995
0.000105995
0.000140516
0.000105995
0.000105994
0.000143189
0.000103313
0.000140516
0.000105995
0.000105995
0.000103313
9.70943e-05
5.7368e-05
9.44599e-05
9.44591e-05
6.00564e-05
6.00575e-05
9.70939e-05
5.73699e-05
9.4458e-05
9.4458e-05
6.00542e-05
6.00545e-05
9.44579e-05
6.0056e-05
6.0054e-05
9.70941e-05
5.73658e-05
9.44579e-05
6.00533e-05
6.00527e-05
5.73652e-05
5.11906e-05
1.53443e-05
4.8669e-05
4.86695e-05
1.76971e-05
1.76966e-05
5.11917e-05
1.53442e-05
4.8666e-05
4.86646e-05
1.76951e-05
1.76917e-05
4.86636e-05
1.76938e-05
1.76895e-05
5.11877e-05
1.53402e-05
4.86637e-05
1.76921e-05
1.76914e-05
1.53387e-05
1.13955e-05
1.17648e-05
1.1765e-05
1.13966e-05
1.17634e-05
1.17613e-05
1.1334e-05
1.13323e-05
1.13317e-05
1.17599e-05
1.13932e-05
1.17609e-05
0.00436012
0.00436986
0.00436467
0.00436467
0.00438702
0.00437383
0.00440241
0.00436788
0.00438702
0.00437383
0.00436788
0.00440242
0.00437839
0.00440615
0.00440615
0.00431555
0.00433445
0.00434374
0.00430757
0.00430819
0.00431146
0.00431553
0.00433442
0.00434373
0.00430756
0.00433829
0.0043383
0.0043383
0.00429496
0.00429496
0.00429495
0.00429495
0.00431296
0.00433874
0.00433871
0.00432171
0.00434177
0.00431196
0.00432263
0.00430829
0.00431145
0.00431296
0.00433871
0.00433875
0.00432171
0.00434176
0.00432263
0.00431196
0.00434463
0.00434461
0.00431619
0.00431153
0.00431153
0.00426862
0.0042866
0.00428925
0.00426745
0.00428629
0.00426661
0.00426862
0.00428659
0.00428925
0.00426744
0.00428354
0.00428353
0.00428353
0.00424669
0.00424669
0.00424669
0.00424669
0.00426737
0.0042875
0.00428324
0.00427141
0.00428685
0.00426795
0.00427131
0.00428629
0.00426661
0.00426737
0.00428324
0.0042875
0.0042714
0.00428684
0.0042713
0.00426794
0.00428833
0.00428832
0.00426771
0.00426793
0.00426793
0.00421973
0.00423652
0.00423702
0.00421956
0.00423635
0.00421957
0.00421973
0.00423651
0.00423703
0.00421956
0.0042347
0.0042347
0.0042347
0.00419983
0.00419983
0.00419983
0.00419983
0.00421994
0.00423724
0.00423462
0.00422293
0.00423709
0.00421991
0.00422292
0.00423635
0.00421957
0.00421994
0.00423462
0.00423724
0.00422292
0.00423709
0.00422292
0.00421991
0.00423682
0.00423682
0.00422015
0.00421974
0.00421974
0.00417387
0.00419106
0.00419107
0.00417386
0.00419107
0.00417386
0.00417387
0.00419106
0.00419107
0.00417386
0.00418829
0.00418829
0.00418829
0.00415375
0.00415375
0.00415375
0.00415375
0.00417393
0.00419105
0.00418825
0.00417673
0.00419104
0.0041739
0.00417674
0.00419107
0.00417386
0.00417393
0.00418825
0.00419105
0.00417673
0.00419103
0.00417674
0.0041739
0.00419108
0.00419108
0.00417405
0.00417386
0.00417386
0.00412788
0.00414509
0.00414509
0.00412787
0.0041451
0.00412787
0.00412787
0.00414509
0.00414509
0.00412787
0.00414225
0.00414225
0.00414225
0.00410775
0.00410775
0.00410775
0.00410775
0.00412794
0.00414506
0.00414223
0.00413072
0.00414503
0.00412791
0.00413073
0.00414509
0.00412787
0.00412794
0.00414223
0.00414506
0.00413072
0.00414503
0.00413073
0.0041279
0.0041451
0.0041451
0.00412805
0.00412787
0.00412787
0.00408188
0.0040991
0.0040991
0.00408188
0.00409911
0.00408187
0.00408188
0.0040991
0.0040991
0.00408188
0.00409625
0.00409625
0.00409625
0.00406176
0.00406175
0.00406176
0.00406176
0.00408194
0.00409907
0.00409623
0.00408473
0.00409904
0.00408191
0.00408473
0.0040991
0.00408188
0.00408194
0.00409623
0.00409907
0.00408473
0.00409904
0.00408473
0.00408191
0.0040991
0.0040991