/*--------------------------------*- C++ -*----------------------------------*\
| =========                 |                                                 |
| \\      /  F ield         | OpenFOAM: The Open Source CFD Toolbox           |
|  \\    /   O peration     | Version:  2206                                  |
|   \\  /    A nd           | Website:  www.openfoam.com                      |
|    \\/     M anipulation  |                                                 |
\*---------------------------------------------------------------------------*/
FoamFile
{
    version     2.0;
    format      ascii;
    arch        "LSB;label=32;scalar=64";
    class       surfaceScalarField;
    location    "14.5";
    object      phi;
}
// * * * * * * * * * * * * * * * * * * * * * * * * * * * * * * * * * * * * * //

dimensions      [0 3 -1 0 0 0 0];

oriented        oriented;

internalField   nonuniform List<scalar> 
81717
(
1.43767e-09
1.51501e-09
-0.00107103
-1.24045e-09
-1.23534e-09
0.00107103
-0.00107159
-1.1791e-06
-1.53952e-09
1.60388e-09
0.00107159
-2.31859e-07
1.18115e-06
2.31297e-07
8.57304e-07
-2.2167e-07
-8.57062e-07
2.20244e-07
-0.00107125
-1.17377e-06
-1.537e-09
1.59167e-09
0.00107125
-2.31849e-07
1.1758e-06
2.31307e-07
8.57134e-07
-2.24306e-07
-8.56943e-07
2.22908e-07
-0.000263491
1.20701e-06
1.17388e-06
-2.16584e-07
-2.21793e-07
0.000261549
1.89381e-09
1.97159e-09
-0.00107102
-1.38703e-09
-1.38097e-09
0.00107102
-0.00107159
-1.17901e-06
-1.99387e-09
1.32982e-09
0.00107159
-2.31764e-07
1.18134e-06
2.31502e-07
8.57521e-07
-2.21583e-07
-8.56999e-07
2.20459e-07
-0.00107125
-1.17367e-06
-1.99643e-09
1.31848e-09
0.00107125
-2.31754e-07
1.17599e-06
2.31511e-07
8.5735e-07
-2.2422e-07
-8.56879e-07
2.2312e-07
-0.000263491
1.20692e-06
1.17379e-06
-2.16517e-07
-2.21726e-07
0.000261548
-1.78756e-10
-1.17695e-10
-0.00107102
-5.0545e-10
-4.97802e-10
0.00107103
-0.00107159
-1.17951e-06
1.21535e-10
2.35218e-09
0.00107159
-2.32413e-07
1.18086e-06
2.3089e-07
8.56853e-07
-2.22643e-07
-8.57729e-07
2.19369e-07
-0.00107125
-1.17418e-06
1.25121e-10
2.3399e-09
0.00107125
-2.32407e-07
1.17551e-06
2.30896e-07
8.56685e-07
-2.25275e-07
-8.57606e-07
2.22033e-07
-0.00026349
1.20742e-06
1.17429e-06
-2.17149e-07
-2.22361e-07
0.000261548
8.87248e-10
9.59963e-10
-0.00107103
-9.9559e-10
-9.94411e-10
0.00107103
-0.00107159
-1.17923e-06
-9.75969e-10
1.82906e-09
0.00107159
-2.32021e-07
1.18112e-06
2.31256e-07
8.57232e-07
-2.22043e-07
-8.57293e-07
2.20052e-07
-0.00107125
-1.17389e-06
-9.65117e-10
1.81936e-09
0.00107125
-2.32009e-07
1.17577e-06
2.31268e-07
8.57059e-07
-2.24685e-07
-8.57176e-07
2.22708e-07
-0.000263492
1.20714e-06
1.17401e-06
-2.16733e-07
-2.21945e-07
0.000261549
1.00652e-09
1.07627e-09
-0.00107103
-1.04926e-09
-1.05295e-09
0.00107103
-0.00107159
-1.17921e-06
-1.09663e-09
1.8026e-09
0.00107159
-2.32007e-07
1.18113e-06
2.31265e-07
8.57257e-07
-2.21974e-07
-8.57265e-07
2.20095e-07
-0.00107125
-1.17388e-06
-1.08874e-09
1.79538e-09
0.00107125
-2.31997e-07
1.17578e-06
2.31273e-07
8.57086e-07
-2.24608e-07
-8.57144e-07
2.22757e-07
-0.000263492
1.20712e-06
1.17399e-06
-2.16705e-07
-2.21919e-07
0.000261549
1.03161e-09
1.07543e-09
-0.00107103
-1.04285e-09
-1.07076e-09
0.00107103
-0.00107159
-1.1792e-06
-1.11231e-09
1.76866e-09
0.00107159
-2.31996e-07
1.18114e-06
2.31276e-07
8.57257e-07
-2.21969e-07
-8.57262e-07
2.20097e-07
-0.00107125
-1.17387e-06
-1.09085e-09
1.79421e-09
0.00107125
-2.31996e-07
1.17578e-06
2.31273e-07
8.57087e-07
-2.24607e-07
-8.57142e-07
2.22758e-07
-0.000263492
1.20712e-06
1.17399e-06
-2.16703e-07
-2.21918e-07
0.000261549
1.0388e-09
1.05932e-09
-0.00107103
-1.02472e-09
-1.07542e-09
0.00107103
-0.00107159
-1.17916e-06
-1.12887e-09
1.71894e-09
0.00107159
-2.31955e-07
1.18117e-06
2.31306e-07
8.57253e-07
-2.21973e-07
-8.57265e-07
2.20091e-07
-0.00107125
-1.17387e-06
-1.08676e-09
1.79952e-09
0.00107125
-2.31998e-07
1.17578e-06
2.31272e-07
8.57087e-07
-2.24607e-07
-8.57142e-07
2.22758e-07
-0.000263492
1.20712e-06
1.17398e-06
-2.16703e-07
-2.21919e-07
0.000261549
1.01291e-09
1.07395e-09
-0.00107103
-1.04618e-09
-1.0587e-09
0.00107103
-0.00107159
-1.1792e-06
-1.10376e-09
1.79492e-09
0.00107159
-2.32e-07
1.18114e-06
2.31271e-07
8.5726e-07
-2.21974e-07
-8.57262e-07
2.20096e-07
-0.00107125
-1.17388e-06
-1.09279e-09
1.80023e-09
0.00107125
-2.31998e-07
1.17578e-06
2.31272e-07
8.57086e-07
-2.24608e-07
-8.57143e-07
2.22758e-07
-0.000263492
1.20712e-06
1.17399e-06
-2.16706e-07
-2.21919e-07
0.000261549
1.0168e-09
1.07247e-09
-0.00107103
-1.04601e-09
-1.06793e-09
0.00107103
-0.00107159
-1.17921e-06
-1.0958e-09
1.79618e-09
0.00107159
-2.32005e-07
1.18113e-06
2.31265e-07
8.57257e-07
-2.21974e-07
-8.57263e-07
2.20094e-07
-0.00107125
-1.17387e-06
-1.11207e-09
1.79971e-09
0.00107125
-2.31997e-07
1.17578e-06
2.31273e-07
8.5709e-07
-2.24604e-07
-8.57139e-07
2.22762e-07
-0.000263492
1.20712e-06
1.17399e-06
-2.16708e-07
-2.21915e-07
0.000261549
1.01594e-09
1.0676e-09
-0.00107103
-1.04478e-09
-1.06805e-09
0.00107103
-0.00107159
-1.17921e-06
-1.08782e-09
1.79606e-09
0.00107159
-2.32006e-07
1.18113e-06
2.31265e-07
8.57256e-07
-2.21975e-07
-8.57265e-07
2.20093e-07
-0.00107125
-1.17388e-06
-1.11071e-09
1.80235e-09
0.00107125
-2.31999e-07
1.17578e-06
2.31271e-07
8.57089e-07
-2.24604e-07
-8.57139e-07
2.22762e-07
-0.000263492
1.20711e-06
1.174e-06
-2.1671e-07
-2.21915e-07
0.000261549
1.02199e-09
1.07178e-09
-0.00107103
-1.04687e-09
-1.07033e-09
0.00107103
-0.00107159
-1.17921e-06
-1.09526e-09
1.79101e-09
0.00107159
-2.32003e-07
1.18113e-06
2.31267e-07
8.57258e-07
-2.21973e-07
-8.57263e-07
2.20095e-07
-0.00107125
-1.17387e-06
-1.11919e-09
1.79945e-09
0.00107125
-2.31998e-07
1.17578e-06
2.31272e-07
8.57091e-07
-2.24602e-07
-8.57137e-07
2.22763e-07
-0.000263492
1.20711e-06
1.17399e-06
-2.16708e-07
-2.21913e-07
0.000261549
1.02411e-09
1.07429e-09
-0.00107103
-1.04769e-09
-1.07053e-09
0.00107103
-0.00107159
-1.17921e-06
-1.09888e-09
1.78885e-09
0.00107159
-2.32003e-07
1.18114e-06
2.31268e-07
8.57258e-07
-2.21972e-07
-8.57262e-07
2.20096e-07
-0.00107125
-1.17387e-06
-1.12416e-09
1.79746e-09
0.00107125
-2.31997e-07
1.17578e-06
2.31273e-07
8.57092e-07
-2.24601e-07
-8.57136e-07
2.22765e-07
-0.000263492
1.20711e-06
1.17399e-06
-2.16707e-07
-2.21911e-07
0.000261549
1.02974e-09
1.08029e-09
-0.00107103
-1.05175e-09
-1.07436e-09
0.00107103
-0.00107159
-1.1792e-06
-1.10452e-09
1.78552e-09
0.00107159
-2.32001e-07
1.18114e-06
2.31269e-07
8.5726e-07
-2.2197e-07
-8.57261e-07
2.20098e-07
-0.00107125
-1.17387e-06
-1.12946e-09
1.79501e-09
0.00107125
-2.31996e-07
1.17578e-06
2.31274e-07
8.57093e-07
-2.24599e-07
-8.57134e-07
2.22766e-07
-0.000263492
1.20711e-06
1.17399e-06
-2.16706e-07
-2.2191e-07
0.000261549
1.03554e-09
1.08614e-09
-0.00107103
-1.05496e-09
-1.07768e-09
0.00107103
-0.00107159
-1.1792e-06
-1.10741e-09
1.7845e-09
0.00107159
-2.32001e-07
1.18114e-06
2.3127e-07
8.57261e-07
-2.2197e-07
-8.57261e-07
2.20099e-07
-0.00107125
-1.17387e-06
-1.13269e-09
1.79419e-09
0.00107125
-2.31996e-07
1.17578e-06
2.31275e-07
8.57095e-07
-2.24599e-07
-8.57134e-07
2.22769e-07
-0.000263492
1.20711e-06
1.17399e-06
-2.16706e-07
-2.21909e-07
0.000261549
1.02544e-09
1.07741e-09
-0.00107103
-1.04928e-09
-1.07029e-09
0.00107103
-0.00107159
-1.1792e-06
-1.1028e-09
1.78785e-09
0.00107159
-2.32001e-07
1.18114e-06
2.31267e-07
8.57258e-07
-2.21972e-07
-8.5726e-07
2.20097e-07
-0.00107125
-1.17387e-06
-1.1317e-09
1.79353e-09
0.00107125
-2.31993e-07
1.17578e-06
2.31271e-07
8.57089e-07
-2.24594e-07
-8.57131e-07
2.22759e-07
-0.000263492
1.20711e-06
1.17399e-06
-2.16703e-07
-2.21907e-07
0.000261549
1.02477e-09
1.08142e-09
-0.00107103
-1.04913e-09
-1.06806e-09
0.00107103
-0.00107159
-1.17921e-06
-1.10106e-09
1.79362e-09
0.00107159
-2.32005e-07
1.18113e-06
2.31267e-07
8.57251e-07
-2.21967e-07
-8.57251e-07
2.20093e-07
-0.00107125
-1.17387e-06
-1.12201e-09
1.80275e-09
0.00107125
-2.31991e-07
1.17577e-06
2.31262e-07
8.57078e-07
-2.24589e-07
-8.57126e-07
2.22748e-07
-0.000263492
1.2071e-06
1.17399e-06
-2.16699e-07
-2.21902e-07
0.000261549
1.00828e-09
1.10146e-09
-0.00107103
-1.05928e-09
-1.04543e-09
0.00107103
-0.00107159
-1.1792e-06
-1.13177e-09
1.82113e-09
0.00107159
-2.3199e-07
1.18111e-06
2.31243e-07
8.57234e-07
-2.2193e-07
-8.5722e-07
2.20071e-07
-0.00107125
-1.17385e-06
-1.18326e-09
1.80236e-09
0.00107125
-2.3197e-07
1.17576e-06
2.31249e-07
8.57073e-07
-2.24545e-07
-8.57085e-07
2.22737e-07
-0.000263492
1.20708e-06
1.17397e-06
-2.16684e-07
-2.21884e-07
0.000261549
-1.21428e-06
-1.17852e-06
0.000263507
-0.000261554
2.1614e-07
2.23824e-07
0.00107082
-1.33153e-09
-0.00107082
1.75973e-09
-1.21231e-06
2.36594e-07
-2.37257e-07
-8.57047e-07
2.2013e-07
-2.21679e-07
8.57227e-07
1.21967e-06
0.00107125
-1.30288e-09
-0.00107125
1.76544e-09
-1.21769e-06
2.39363e-07
-2.40016e-07
-8.62586e-07
2.22899e-07
-2.24481e-07
8.62748e-07
-1.18113e-06
0.000263536
-0.000261575
2.18871e-07
2.21151e-07
0.00107185
-1.40569e-09
-0.00107185
1.67049e-09
-1.17654e-06
2.3405e-07
-2.34655e-07
-8.5978e-07
2.22942e-07
-2.24466e-07
8.60027e-07
1.21433e-06
0.00107093
-1.29985e-09
-0.00107093
1.76447e-09
-1.21237e-06
2.39339e-07
-2.40002e-07
-8.59754e-07
2.22867e-07
-2.24424e-07
8.59908e-07
-1.41126e-09
-0.00107159
1.68795e-09
-1.17913e-06
2.31277e-07
-2.31893e-07
-8.57091e-07
2.20218e-07
8.57304e-07
-2.21723e-07
1.209e-06
0.00107073
-1.31338e-09
-0.00107073
1.76937e-09
-1.20704e-06
2.33862e-07
-2.34514e-07
-8.57087e-07
2.20129e-07
-2.21683e-07
8.57244e-07
-1.17578e-06
0.000263486
-0.000261536
2.16318e-07
2.2363e-07
-1.40787e-09
-0.00107125
1.67549e-09
-1.17379e-06
2.31286e-07
-2.31883e-07
-8.56923e-07
2.22858e-07
8.57186e-07
-2.2438e-07
1.17588e-06
0.00107176
-1.3888e-09
-0.00107176
1.67972e-09
-1.17391e-06
2.31335e-07
-2.31951e-07
-8.5719e-07
2.22935e-07
-2.24447e-07
8.57422e-07
-0.000261549
2.18625e-07
2.23846e-07
1.21228e-06
1.17651e-06
-2.14094e-07
-2.21753e-07
0.000261554
-1.21434e-06
-1.17858e-06
0.000263506
-0.000261554
2.16218e-07
2.23902e-07
1.675e-09
0.00107082
-2.3722e-07
1.2143e-06
2.36615e-07
8.57219e-07
-2.21633e-07
-8.57029e-07
2.20154e-07
-1.21766e-06
-1.43377e-09
1.67793e-09
0.00107125
-2.39979e-07
1.21968e-06
2.39385e-07
8.62747e-07
-2.24429e-07
-8.62561e-07
2.2293e-07
0.00107081
-1.6148e-09
-0.00107082
1.60339e-09
-1.21225e-06
2.36674e-07
-2.37181e-07
-8.57019e-07
2.20225e-07
-2.21587e-07
8.57262e-07
1.21973e-06
0.00107125
-1.58362e-09
-0.00107125
1.60911e-09
-1.21763e-06
2.39443e-07
-2.39939e-07
-8.62559e-07
2.22992e-07
-2.24387e-07
8.6278e-07
-2.16796e-07
-2.19081e-07
0.000261575
-1.1812e-06
0.000263535
-0.000261574
2.18948e-07
2.21228e-07
1.59175e-09
0.00107185
-2.34619e-07
1.17853e-06
2.34071e-07
8.60023e-07
-2.24421e-07
-8.59759e-07
2.22967e-07
-1.21234e-06
-1.42998e-09
1.6827e-09
0.00107093
-2.39965e-07
1.21435e-06
2.39361e-07
8.59907e-07
-2.24371e-07
-8.59728e-07
2.22899e-07
0.00107185
-1.68789e-09
-0.00107185
1.51405e-09
-1.17648e-06
2.3413e-07
-2.34578e-07
-8.59752e-07
2.23037e-07
-2.24373e-07
8.6006e-07
1.2144e-06
0.00107092
-1.58187e-09
-0.00107093
1.60512e-09
-1.21231e-06
2.3942e-07
-2.39925e-07
-8.59726e-07
2.22962e-07
-2.24329e-07
8.5994e-07
-1.44566e-09
1.67944e-09
0.00107073
-2.34473e-07
1.20902e-06
2.33887e-07
8.57243e-07
-2.21628e-07
2.20159e-07
-8.5706e-07
-1.69175e-09
-0.00107159
1.53112e-09
-1.17907e-06
2.31356e-07
-2.31819e-07
-8.57061e-07
2.20308e-07
8.57337e-07
-2.2163e-07
1.20906e-06
0.00107072
-1.58972e-09
-0.00107072
1.61808e-09
-1.20699e-06
2.33939e-07
-2.34438e-07
-8.57061e-07
2.20219e-07
-2.21592e-07
8.57275e-07
-2.14263e-07
-2.21573e-07
0.000261536
-1.17584e-06
0.000263486
-0.000261536
2.16395e-07
2.2371e-07
-1.54094e-09
1.5897e-09
0.00107176
-2.3191e-07
1.1759e-06
2.3136e-07
8.57425e-07
-2.2439e-07
2.22968e-07
-8.5716e-07
-1.68924e-09
-0.00107125
1.51859e-09
-1.17374e-06
2.31366e-07
-2.31807e-07
-8.56894e-07
2.22948e-07
8.57218e-07
-2.24287e-07
1.17594e-06
0.00107176
-1.66958e-09
-0.00107176
1.53081e-09
-1.17386e-06
2.3141e-07
-2.31877e-07
-8.57161e-07
2.23026e-07
-2.24355e-07
8.57455e-07
-0.000261548
2.18699e-07
2.23922e-07
1.21218e-06
1.17641e-06
-2.14024e-07
-2.21683e-07
0.000261554
-1.21397e-06
-1.17821e-06
0.000263506
-0.000261553
2.15698e-07
2.23381e-07
1.39884e-09
0.00107081
-2.37125e-07
1.21449e-06
2.36819e-07
8.57435e-07
-2.21546e-07
-8.56961e-07
2.20366e-07
-1.21756e-06
-1.88916e-09
1.40475e-09
0.00107125
-2.39884e-07
1.21987e-06
2.39589e-07
8.62963e-07
-2.24344e-07
-8.62496e-07
2.2314e-07
0.00107081
1.85114e-11
-0.00107081
2.38953e-09
-1.2126e-06
2.36182e-07
-2.37641e-07
-8.57569e-07
2.19485e-07
-2.22211e-07
8.5672e-07
1.21936e-06
0.00107124
4.28252e-11
-0.00107124
2.39646e-09
-1.21798e-06
2.38954e-07
-2.40398e-07
-8.63117e-07
2.22253e-07
-2.25013e-07
8.62237e-07
-2.16727e-07
-2.1901e-07
0.000261574
-1.18083e-06
0.000263535
-0.000261574
2.18432e-07
2.20711e-07
1.31523e-09
0.00107185
-2.34523e-07
1.17872e-06
2.34275e-07
8.60241e-07
-2.24332e-07
-8.59693e-07
2.23183e-07
-1.21224e-06
-1.88122e-09
1.40656e-09
0.00107092
-2.39871e-07
1.21454e-06
2.39564e-07
8.60121e-07
-2.24286e-07
-8.59662e-07
2.23108e-07
0.00107185
-5.11679e-11
-0.00107185
2.30263e-09
-1.17683e-06
2.3364e-07
-2.35036e-07
-8.60309e-07
2.22298e-07
-2.25001e-07
8.59515e-07
1.21403e-06
0.00107092
4.45103e-11
-0.00107092
2.39515e-09
-1.21266e-06
2.38931e-07
-2.40382e-07
-8.60281e-07
2.22227e-07
-2.24952e-07
8.59397e-07
-1.89867e-09
1.41106e-09
0.00107072
-2.34383e-07
1.2092e-06
2.34084e-07
8.57461e-07
-2.21544e-07
2.2037e-07
-8.56994e-07
-3.96143e-11
-0.00107158
2.32052e-09
-1.17942e-06
2.3087e-07
-2.32276e-07
-8.57625e-07
2.1956e-07
8.56782e-07
-2.22262e-07
1.2087e-06
0.00107072
3.00163e-11
-0.00107072
2.3831e-09
-1.20733e-06
2.33466e-07
-2.3488e-07
-8.57619e-07
2.19477e-07
-2.22216e-07
8.56729e-07
-2.14193e-07
-2.21503e-07
0.000261536
-1.17548e-06
0.000263485
-0.000261535
2.1588e-07
2.23188e-07
-1.99046e-09
1.32538e-09
0.00107176
-2.31821e-07
1.17609e-06
2.31557e-07
8.57641e-07
-2.24306e-07
2.23179e-07
-8.57094e-07
-4.06956e-11
-0.00107125
2.30239e-09
-1.17408e-06
2.30879e-07
-2.32264e-07
-8.57453e-07
2.22206e-07
8.56665e-07
-2.24909e-07
1.17559e-06
0.00107176
-3.73327e-11
-0.00107175
2.29435e-09
-1.1742e-06
2.30938e-07
-2.32318e-07
-8.5772e-07
2.22284e-07
-2.24977e-07
8.56901e-07
-0.000261548
2.18191e-07
2.23412e-07
1.21269e-06
1.17692e-06
-2.1467e-07
-2.22328e-07
0.000261553
-1.21425e-06
-1.17849e-06
0.000263507
-0.000261554
2.16059e-07
2.23742e-07
2.42272e-09
0.00107082
-2.3778e-07
1.21401e-06
2.36204e-07
8.5678e-07
-2.22591e-07
-8.57679e-07
2.19296e-07
-1.21807e-06
1.74616e-10
2.42675e-09
0.00107125
-2.40537e-07
1.21939e-06
2.38974e-07
8.62315e-07
-2.25389e-07
-8.6321e-07
2.22069e-07
0.00107082
-7.74077e-10
-0.00107082
1.94838e-09
-1.21244e-06
2.36556e-07
-2.37414e-07
-8.57278e-07
2.19886e-07
-2.22119e-07
8.57139e-07
1.21964e-06
0.00107125
-7.48922e-10
-0.00107125
1.95381e-09
-1.21781e-06
2.39325e-07
-2.40174e-07
-8.62816e-07
2.22656e-07
-2.24919e-07
8.62659e-07
-2.17365e-07
-2.19653e-07
0.000261574
-1.1811e-06
0.000263536
-0.000261575
2.1879e-07
2.21072e-07
2.3365e-09
0.00107185
-2.3518e-07
1.17824e-06
2.33656e-07
8.59586e-07
-2.25375e-07
-8.6041e-07
2.22114e-07
-1.21275e-06
1.84775e-10
2.4425e-09
0.00107093
-2.40526e-07
1.21406e-06
2.38948e-07
8.59465e-07
-2.25328e-07
-8.60381e-07
2.22038e-07
0.00107185
-8.46812e-10
-0.00107185
1.85613e-09
-1.17666e-06
2.34013e-07
-2.34811e-07
-8.60013e-07
2.22698e-07
-2.24904e-07
8.59934e-07
1.2143e-06
0.00107093
-7.4295e-10
-0.00107093
1.95808e-09
-1.2125e-06
2.39299e-07
-2.40163e-07
-8.59984e-07
2.22625e-07
-2.24864e-07
8.59821e-07
1.65497e-10
2.41829e-09
0.00107072
-2.35022e-07
1.20873e-06
2.33482e-07
8.56807e-07
-2.22593e-07
2.19292e-07
-8.57712e-07
-8.4688e-10
-0.00107159
1.87279e-09
-1.17926e-06
2.31239e-07
-2.32051e-07
-8.57321e-07
2.19973e-07
8.57213e-07
-2.22163e-07
1.20897e-06
0.00107073
-7.61281e-10
-0.00107073
1.96015e-09
-1.20717e-06
2.33826e-07
-2.34668e-07
-8.57317e-07
2.19883e-07
-2.22121e-07
8.57155e-07
-2.14836e-07
-2.22148e-07
0.000261535
-1.17575e-06
0.000263487
-0.000261536
2.1624e-07
2.23546e-07
1.22352e-10
2.3243e-09
0.00107176
-2.32459e-07
1.17562e-06
2.30956e-07
8.56967e-07
-2.25361e-07
2.22093e-07
-8.57829e-07
-8.32914e-10
-0.00107125
1.86313e-09
-1.17392e-06
2.3125e-07
-2.3204e-07
-8.57156e-07
2.22605e-07
8.57091e-07
-2.24825e-07
1.17585e-06
0.00107176
-8.28303e-10
-0.00107176
1.86162e-09
-1.17404e-06
2.313e-07
-2.32103e-07
-8.57421e-07
2.22688e-07
-2.24888e-07
8.57333e-07
-0.000261549
2.18546e-07
2.23763e-07
1.21241e-06
1.17663e-06
-2.14244e-07
-2.21905e-07
0.000261554
-1.21427e-06
-1.17851e-06
0.000263507
-0.000261554
2.16098e-07
2.2378e-07
1.90411e-09
0.00107082
-2.37383e-07
1.21427e-06
2.36573e-07
8.57155e-07
-2.22005e-07
-8.57252e-07
2.19963e-07
-1.21778e-06
-8.82672e-10
1.90873e-09
0.00107125
-2.40142e-07
1.21965e-06
2.39343e-07
8.62679e-07
-2.24801e-07
-8.62788e-07
2.22737e-07
0.00107082
-1.02295e-09
-0.00107082
1.8832e-09
-1.21239e-06
2.36578e-07
-2.3737e-07
-8.57224e-07
2.20009e-07
-2.2193e-07
8.57179e-07
1.21966e-06
0.00107125
-9.98639e-10
-0.00107125
1.8849e-09
-1.21777e-06
2.3935e-07
-2.40127e-07
-8.62763e-07
2.22778e-07
-2.24732e-07
8.62701e-07
-2.16945e-07
-2.19229e-07
0.000261575
-1.18113e-06
0.000263536
-0.000261575
2.1883e-07
2.21108e-07
1.81858e-09
0.00107185
-2.34781e-07
1.1785e-06
2.3403e-07
8.59953e-07
-2.24791e-07
-8.59988e-07
2.22776e-07
-1.21247e-06
-8.81233e-10
1.91449e-09
0.00107093
-2.40131e-07
1.21432e-06
2.39318e-07
8.59842e-07
-2.24743e-07
-8.59952e-07
2.22709e-07
0.00107185
-1.09251e-09
-0.00107185
1.78872e-09
-1.17662e-06
2.34036e-07
-2.34766e-07
-8.59957e-07
2.22819e-07
-2.24714e-07
8.59975e-07
1.21433e-06
0.00107093
-9.89287e-10
-0.00107093
1.88977e-09
-1.21245e-06
2.39324e-07
-2.40116e-07
-8.59931e-07
2.22746e-07
-2.24674e-07
8.59859e-07
-8.9269e-10
1.91483e-09
0.00107073
-2.34634e-07
1.20898e-06
2.33845e-07
8.57175e-07
-2.22002e-07
2.19964e-07
-8.57288e-07
-1.09551e-09
-0.00107159
1.80491e-09
-1.17921e-06
2.31265e-07
-2.32005e-07
-8.57269e-07
2.20091e-07
8.57254e-07
-2.21977e-07
1.20899e-06
0.00107073
-1.00869e-09
-0.00107073
1.89377e-09
-1.20713e-06
2.33848e-07
-2.34625e-07
-8.57263e-07
2.20007e-07
-2.21933e-07
8.57197e-07
-2.14409e-07
-2.21727e-07
0.000261536
-1.17578e-06
0.000263487
-0.000261536
2.16275e-07
2.23588e-07
-9.72141e-10
1.81719e-09
0.00107176
-2.3207e-07
1.17587e-06
2.31319e-07
8.57353e-07
-2.24766e-07
2.22771e-07
-8.57389e-07
-1.08913e-09
-0.00107125
1.79421e-09
-1.17388e-06
2.31273e-07
-2.31994e-07
-8.571e-07
2.22732e-07
8.57135e-07
-2.24632e-07
1.17588e-06
0.00107176
-1.07707e-09
-0.00107176
1.79741e-09
-1.17399e-06
2.31324e-07
-2.3206e-07
-8.5737e-07
2.22812e-07
-2.24699e-07
8.5737e-07
-0.000261549
2.18585e-07
2.23803e-07
1.21239e-06
1.17662e-06
-2.14219e-07
-2.2188e-07
0.000261554
-1.21428e-06
-1.17852e-06
0.000263507
-0.000261554
2.16103e-07
2.23781e-07
1.88356e-09
0.00107082
-2.37371e-07
1.21428e-06
2.36578e-07
8.57177e-07
-2.21932e-07
-8.57227e-07
2.20009e-07
-1.21777e-06
-1.00491e-09
1.881e-09
0.00107125
-2.40129e-07
1.21967e-06
2.3935e-07
8.62706e-07
-2.24728e-07
-8.62759e-07
2.22785e-07
0.00107082
-1.04965e-09
-0.00107082
1.88823e-09
-1.21239e-06
2.36578e-07
-2.37369e-07
-8.57216e-07
2.20015e-07
-2.21923e-07
8.57185e-07
1.21967e-06
0.00107125
-1.02745e-09
-0.00107125
1.87076e-09
-1.21777e-06
2.39352e-07
-2.40124e-07
-8.62755e-07
2.22784e-07
-2.24724e-07
8.62707e-07
-2.16919e-07
-2.19206e-07
0.000261575
-1.18114e-06
0.000263536
-0.000261575
2.18837e-07
2.2111e-07
1.79206e-09
0.00107185
-2.34768e-07
1.17852e-06
2.34035e-07
8.59977e-07
-2.24716e-07
-8.59957e-07
2.22819e-07
-1.21245e-06
-9.96189e-10
1.89243e-09
0.00107093
-2.40117e-07
1.21433e-06
2.39325e-07
8.59864e-07
-2.24671e-07
-8.59927e-07
2.22753e-07
0.00107185
-1.09991e-09
-0.00107185
1.77364e-09
-1.17661e-06
2.3404e-07
-2.34762e-07
-8.59953e-07
2.22821e-07
-2.2471e-07
8.59979e-07
1.21433e-06
0.00107093
-9.99814e-10
-0.00107093
1.89027e-09
-1.21245e-06
2.39325e-07
-2.40115e-07
-8.59927e-07
2.22748e-07
-2.24671e-07
8.59861e-07
-1.01785e-09
1.88981e-09
0.00107073
-2.34622e-07
1.209e-06
2.33851e-07
8.57202e-07
-2.21926e-07
2.20013e-07
-8.57256e-07
-1.11384e-09
-0.00107159
1.7817e-09
-1.1792e-06
2.31271e-07
-2.31998e-07
-8.57264e-07
2.20095e-07
8.57257e-07
-2.21972e-07
1.20899e-06
0.00107073
-1.02447e-09
-0.00107073
1.90157e-09
-1.20712e-06
2.33847e-07
-2.34625e-07
-8.57258e-07
2.2001e-07
-2.21929e-07
8.57201e-07
-2.14387e-07
-2.21699e-07
0.000261536
-1.17578e-06
0.000263487
-0.000261536
2.16277e-07
2.2359e-07
-1.08803e-09
1.79064e-09
0.00107176
-2.32056e-07
1.17589e-06
2.31328e-07
8.57375e-07
-2.24693e-07
2.22817e-07
-8.57365e-07
-1.09838e-09
-0.00107125
1.79162e-09
-1.17387e-06
2.31274e-07
-2.31993e-07
-8.57096e-07
2.22734e-07
8.57138e-07
-2.24629e-07
1.17588e-06
0.00107176
-1.08021e-09
-0.00107176
1.79068e-09
-1.17399e-06
2.31325e-07
-2.32057e-07
-8.57367e-07
2.22813e-07
-2.24697e-07
8.57372e-07
-0.000261549
2.18587e-07
2.23803e-07
1.21239e-06
1.17661e-06
-2.14213e-07
-2.21879e-07
0.000261554
-1.21427e-06
-1.17852e-06
0.000263507
-0.000261554
2.16105e-07
2.23778e-07
1.89627e-09
0.00107082
-2.37371e-07
1.21428e-06
2.36577e-07
8.57183e-07
-2.21926e-07
-8.57219e-07
2.20014e-07
-1.21776e-06
-1.05333e-09
1.85301e-09
0.00107125
-2.40121e-07
1.21967e-06
2.39356e-07
8.62716e-07
-2.24715e-07
-8.62748e-07
2.22799e-07
0.00107082
-1.06673e-09
-0.00107082
1.92161e-09
-1.21239e-06
2.36573e-07
-2.37374e-07
-8.57209e-07
2.20018e-07
-2.21919e-07
8.5719e-07
1.21968e-06
0.00107125
-1.15352e-09
-0.00107125
1.78663e-09
-1.21775e-06
2.39386e-07
-2.4009e-07
-8.62714e-07
2.22845e-07
-2.24661e-07
8.62746e-07
-2.16907e-07
-2.19203e-07
0.000261575
-1.18118e-06
0.000263536
-0.000261575
2.18902e-07
2.21116e-07
1.77661e-09
0.00107185
-2.34763e-07
1.17852e-06
2.34039e-07
8.59978e-07
-2.24714e-07
-8.59955e-07
2.22819e-07
-1.21245e-06
-1.00253e-09
1.89372e-09
0.00107093
-2.40115e-07
1.21433e-06
2.39326e-07
8.59865e-07
-2.2467e-07
-8.59924e-07
2.22754e-07
0.00107185
-1.08436e-09
-0.00107185
1.76628e-09
-1.17661e-06
2.34041e-07
-2.3476e-07
-8.59955e-07
2.22819e-07
-2.24712e-07
8.59977e-07
1.21433e-06
0.00107093
-9.97436e-10
-0.00107093
1.89355e-09
-1.21245e-06
2.39324e-07
-2.40115e-07
-8.59927e-07
2.22748e-07
-2.24671e-07
8.59861e-07
-1.02794e-09
1.90186e-09
0.00107073
-2.34622e-07
1.209e-06
2.33849e-07
8.57205e-07
-2.21924e-07
2.20015e-07
-8.57253e-07
-1.13701e-09
-0.00107159
1.70585e-09
-1.17917e-06
2.31316e-07
-2.31955e-07
-8.57264e-07
2.20092e-07
8.57252e-07
-2.21971e-07
1.20899e-06
0.00107073
-1.03265e-09
-0.00107073
1.91771e-09
-1.20713e-06
2.33845e-07
-2.34626e-07
-8.57255e-07
2.20011e-07
-2.21927e-07
8.57203e-07
-2.14385e-07
-2.21697e-07
0.000261536
-1.17578e-06
0.000263487
-0.000261536
2.16276e-07
2.2359e-07
-1.08417e-09
1.78466e-09
0.00107176
-2.32054e-07
1.17589e-06
2.31328e-07
8.57375e-07
-2.24692e-07
2.22817e-07
-8.57363e-07
-1.09875e-09
-0.00107125
1.79559e-09
-1.17387e-06
2.31273e-07
-2.31994e-07
-8.57095e-07
2.22735e-07
8.57139e-07
-2.24628e-07
1.17589e-06
0.00107176
-1.07407e-09
-0.00107176
1.78446e-09
-1.17399e-06
2.31326e-07
-2.32056e-07
-8.57366e-07
2.22812e-07
-2.24697e-07
8.57372e-07
-0.000261549
2.18589e-07
2.23802e-07
1.21239e-06
1.17661e-06
-2.14213e-07
-2.21883e-07
0.000261554
-1.21427e-06
-1.17852e-06
0.000263507
-0.000261554
2.161e-07
2.2378e-07
1.9213e-09
0.00107082
-2.37376e-07
1.21427e-06
2.36572e-07
8.57185e-07
-2.21924e-07
-8.57216e-07
2.20016e-07
-1.21775e-06
-1.12447e-09
1.7931e-09
0.00107125
-2.40093e-07
1.21968e-06
2.39374e-07
8.62737e-07
-2.24674e-07
-8.62716e-07
2.2282e-07
0.00107082
-1.03892e-09
-0.00107082
1.88899e-09
-1.21239e-06
2.36577e-07
-2.37372e-07
-8.57219e-07
2.20013e-07
-2.21925e-07
8.57183e-07
1.21967e-06
0.00107125
-1.00558e-09
-0.00107125
1.87715e-09
-1.21777e-06
2.3935e-07
-2.4013e-07
-8.62762e-07
2.22789e-07
-2.24727e-07
8.62706e-07
-2.1685e-07
-2.19199e-07
0.000261575
-1.18113e-06
0.000263536
-0.000261575
2.18838e-07
2.21111e-07
1.77442e-09
0.00107185
-2.34763e-07
1.17852e-06
2.34039e-07
8.59976e-07
-2.24717e-07
-8.59958e-07
2.22817e-07
-1.21245e-06
-9.97566e-10
1.89691e-09
0.00107093
-2.40116e-07
1.21433e-06
2.39325e-07
8.59864e-07
-2.2467e-07
-8.59925e-07
2.22753e-07
0.00107185
-1.09091e-09
-0.00107185
1.7792e-09
-1.17662e-06
2.34038e-07
-2.34764e-07
-8.59956e-07
2.22821e-07
-2.24713e-07
8.59978e-07
1.21433e-06
0.00107093
-9.90943e-10
-0.00107093
1.89494e-09
-1.21245e-06
2.39322e-07
-2.40117e-07
-8.59929e-07
2.22747e-07
-2.24673e-07
8.5986e-07
-1.03192e-09
1.91346e-09
0.00107073
-2.34624e-07
1.20899e-06
2.33848e-07
8.57204e-07
-2.21924e-07
2.20015e-07
-8.57252e-07
-1.10538e-09
-0.00107159
1.79664e-09
-1.17921e-06
2.31267e-07
-2.32004e-07
-8.57265e-07
2.20093e-07
8.57258e-07
-2.21978e-07
1.20899e-06
0.00107073
-1.01738e-09
-0.00107073
1.89878e-09
-1.20712e-06
2.33847e-07
-2.34626e-07
-8.57259e-07
2.20009e-07
-2.2193e-07
8.57201e-07
-2.14386e-07
-2.21697e-07
0.000261536
-1.17578e-06
0.000263487
-0.000261536
2.16275e-07
2.23588e-07
-1.07406e-09
1.7805e-09
0.00107176
-2.32053e-07
1.17589e-06
2.31329e-07
8.57374e-07
-2.24694e-07
2.22816e-07
-8.57364e-07
-1.09846e-09
-0.00107125
1.7993e-09
-1.17388e-06
2.31272e-07
-2.31995e-07
-8.57096e-07
2.22734e-07
8.57138e-07
-2.2463e-07
1.17588e-06
0.00107176
-1.06442e-09
-0.00107176
1.78398e-09
-1.17399e-06
2.31324e-07
-2.32059e-07
-8.57369e-07
2.2281e-07
-2.24701e-07
8.5737e-07
-0.000261549
2.18586e-07
2.23803e-07
1.21239e-06
1.17662e-06
-2.14217e-07
-2.2188e-07
0.000261554
-1.21428e-06
-1.17851e-06
0.000263507
-0.000261554
2.16099e-07
2.23782e-07
1.88603e-09
0.00107082
-2.37372e-07
1.21428e-06
2.36578e-07
8.57179e-07
-2.21929e-07
-8.57224e-07
2.20012e-07
-1.21776e-06
-1.00814e-09
1.86364e-09
0.00107125
-2.40126e-07
1.21967e-06
2.39352e-07
8.62713e-07
-2.24717e-07
-8.62751e-07
2.22793e-07
0.00107082
-1.04139e-09
-0.00107082
1.88725e-09
-1.21239e-06
2.36579e-07
-2.3737e-07
-8.5722e-07
2.20013e-07
-2.21926e-07
8.57182e-07
1.21966e-06
0.00107125
-9.70589e-10
-0.00107125
1.86919e-09
-1.21777e-06
2.39347e-07
-2.40129e-07
-8.62762e-07
2.22778e-07
-2.2473e-07
8.627e-07
-2.16909e-07
-2.19204e-07
0.000261575
-1.18113e-06
0.000263536
-0.000261575
2.18834e-07
2.21109e-07
1.78916e-09
0.00107185
-2.34767e-07
1.17852e-06
2.34036e-07
8.59978e-07
-2.24716e-07
-8.59957e-07
2.22819e-07
-1.21245e-06
-9.95627e-10
1.89664e-09
0.00107093
-2.40118e-07
1.21433e-06
2.39323e-07
8.59863e-07
-2.24672e-07
-8.59926e-07
2.22752e-07
0.00107185
-1.09683e-09
-0.00107185
1.78823e-09
-1.17662e-06
2.34035e-07
-2.34767e-07
-8.59955e-07
2.22822e-07
-2.24712e-07
8.5998e-07
1.21433e-06
0.00107093
-9.93475e-10
-0.00107093
1.89253e-09
-1.21245e-06
2.39322e-07
-2.40117e-07
-8.59928e-07
2.22748e-07
-2.24672e-07
8.59861e-07
-1.01761e-09
1.88978e-09
0.00107073
-2.34622e-07
1.209e-06
2.33851e-07
8.57203e-07
-2.21926e-07
2.20013e-07
-8.57255e-07
-1.10454e-09
-0.00107159
1.79409e-09
-1.17921e-06
2.31267e-07
-2.32001e-07
-8.57264e-07
2.20093e-07
8.57257e-07
-2.21975e-07
1.209e-06
0.00107073
-1.01788e-09
-0.00107073
1.88543e-09
-1.20712e-06
2.33855e-07
-2.34619e-07
-8.57263e-07
2.20005e-07
-2.21935e-07
8.57197e-07
-2.14388e-07
-2.21699e-07
0.000261536
-1.17578e-06
0.000263487
-0.000261536
2.16276e-07
2.23588e-07
-1.05421e-09
1.77545e-09
0.00107176
-2.32057e-07
1.17588e-06
2.31326e-07
8.57371e-07
-2.24698e-07
2.22812e-07
-8.57368e-07
-1.12077e-09
-0.00107125
1.79701e-09
-1.17387e-06
2.31274e-07
-2.31994e-07
-8.57093e-07
2.22738e-07
8.57141e-07
-2.24626e-07
1.17588e-06
0.00107176
-9.74868e-10
-0.00107176
1.76722e-09
-1.174e-06
2.3132e-07
-2.32062e-07
-8.57381e-07
2.22797e-07
-2.24712e-07
8.57358e-07
-0.000261549
2.18583e-07
2.23807e-07
1.21239e-06
1.17662e-06
-2.14219e-07
-2.21879e-07
0.000261554
-1.21428e-06
-1.17851e-06
0.000263507
-0.000261554
2.16096e-07
2.23781e-07
1.88739e-09
0.00107082
-2.3737e-07
1.21428e-06
2.36579e-07
8.57178e-07
-2.2193e-07
-8.57225e-07
2.20011e-07
-1.21777e-06
-9.62126e-10
1.86778e-09
0.00107125
-2.40132e-07
1.21966e-06
2.39346e-07
8.62701e-07
-2.2473e-07
-8.62762e-07
2.22781e-07
0.00107082
-1.0398e-09
-0.00107082
1.88652e-09
-1.21239e-06
2.36579e-07
-2.3737e-07
-8.57221e-07
2.20011e-07
-2.21927e-07
8.57181e-07
1.21966e-06
0.00107125
-9.51901e-10
-0.00107125
1.87347e-09
-1.21777e-06
2.39345e-07
-2.40131e-07
-8.62767e-07
2.22773e-07
-2.24737e-07
8.62695e-07
-2.16916e-07
-2.19206e-07
0.000261575
-1.18113e-06
0.000263536
-0.000261575
2.18832e-07
2.21107e-07
1.79775e-09
0.00107185
-2.3477e-07
1.17851e-06
2.34033e-07
8.59978e-07
-2.24716e-07
-8.59957e-07
2.22819e-07
-1.21245e-06
-9.93716e-10
1.89645e-09
0.00107093
-2.40119e-07
1.21433e-06
2.39322e-07
8.59864e-07
-2.24671e-07
-8.59926e-07
2.22753e-07
0.00107185
-1.09005e-09
-0.00107185
1.79585e-09
-1.17662e-06
2.34033e-07
-2.3477e-07
-8.59957e-07
2.2282e-07
-2.24714e-07
8.59978e-07
1.21432e-06
0.00107093
-9.83221e-10
-0.00107093
1.8965e-09
-1.21245e-06
2.3932e-07
-2.4012e-07
-8.5993e-07
2.22746e-07
-2.24674e-07
8.59859e-07
-1.021e-09
1.87983e-09
0.00107073
-2.34615e-07
1.209e-06
2.33859e-07
8.57197e-07
-2.21931e-07
2.20008e-07
-8.5726e-07
-1.09377e-09
-0.00107159
1.79457e-09
-1.17921e-06
2.31265e-07
-2.32003e-07
-8.57266e-07
2.20092e-07
8.57255e-07
-2.21976e-07
1.209e-06
0.00107073
-1.01302e-09
-0.00107073
1.88274e-09
-1.20712e-06
2.33857e-07
-2.34616e-07
-8.57265e-07
2.20003e-07
-2.21936e-07
8.57194e-07
-2.14387e-07
-2.21699e-07
0.000261536
-1.17578e-06
0.000263487
-0.000261536
2.16274e-07
2.23586e-07
-9.6413e-10
1.76283e-09
0.00107176
-2.3206e-07
1.17588e-06
2.31322e-07
8.57357e-07
-2.24711e-07
2.22799e-07
-8.5738e-07
-1.12021e-09
-0.00107125
1.80155e-09
-1.17388e-06
2.31272e-07
-2.31996e-07
-8.57092e-07
2.22738e-07
8.57141e-07
-2.24626e-07
1.17588e-06
0.00107176
-9.58452e-10
-0.00107176
1.77546e-09
-1.174e-06
2.31318e-07
-2.32065e-07
-8.57386e-07
2.22792e-07
-2.24719e-07
8.57353e-07
-0.000261549
2.18582e-07
2.23807e-07
1.21239e-06
1.17662e-06
-2.14221e-07
-2.2188e-07
0.000261554
-1.21428e-06
-1.17851e-06
0.000263507
-0.000261554
2.16097e-07
2.23782e-07
1.88686e-09
0.00107082
-2.37371e-07
1.21428e-06
2.36578e-07
8.57177e-07
-2.21931e-07
-8.57226e-07
2.2001e-07
-1.21777e-06
-9.48597e-10
1.87206e-09
0.00107125
-2.40132e-07
1.21966e-06
2.39346e-07
8.62698e-07