/*--------------------------------*- C++ -*----------------------------------*\
| =========                 |                                                 |
| \\      /  F ield         | OpenFOAM: The Open Source CFD Toolbox           |
|  \\    /   O peration     | Version:  2206                                  |
|   \\  /    A nd           | Website:  www.openfoam.com                      |
|    \\/     M anipulation  |                                                 |
\*---------------------------------------------------------------------------*/
FoamFile
{
    version     2.0;
    format      ascii;
    arch        "LSB;label=32;scalar=64";
    class       volScalarField;
    location    "23.5";
    object      p;
}
// * * * * * * * * * * * * * * * * * * * * * * * * * * * * * * * * * * * * * //

dimensions      [0 2 -2 0 0 0 0];

internalField   nonuniform List<scalar> 
171728
(
0.0041019
0.00410223
0.00410223
0.00410529
0.00404655
0.00404696
0.00404696
0.00404994
0.00399578
0.00399578
0.00399578
0.00399853
0.00394348
0.00394346
0.00394346
0.00394619
0.0038929
0.00389275
0.00389272
0.00389516
0.00384733
0.00384724
0.00384724
0.00384978
0.00380387
0.00380383
0.00380383
0.00380639
0.00376061
0.00376058
0.00376058
0.00376312
0.00371739
0.00371735
0.00371735
0.0037199
0.00367417
0.00367413
0.00367413
0.00367668
0.00363095
0.00363092
0.00363092
0.00363346
0.00358773
0.0035877
0.0035877
0.00359025
0.00354452
0.00354449
0.00354449
0.00354703
0.0035013
0.00350127
0.00350127
0.00350382
0.00345809
0.00345806
0.00345806
0.0034606
0.00341487
0.00341484
0.00341484
0.00341739
0.00337166
0.00337163
0.00337163
0.00337417
0.00332844
0.0033284
0.0033284
0.00333095
0.00328522
0.00328518
0.00328518
0.00328773
0.003242
0.00324197
0.00324197
0.00324452
0.00319879
0.00319876
0.00319876
0.0032013
0.00315558
0.00315555
0.00315555
0.00315809
0.00311237
0.00311233
0.00311233
0.00311488
0.00306915
0.00306912
0.00306912
0.00307166
0.00302594
0.00302591
0.00302591
0.00302845
0.00298273
0.00298269
0.00298269
0.00298524
0.00293952
0.00293948
0.00293948
0.00294203
0.00289631
0.00289627
0.00289627
0.00289882
0.0028531
0.00285307
0.00285307
0.00285561
0.00280989
0.00280986
0.00280986
0.0028124
0.00276668
0.00276665
0.00276665
0.00276919
0.00272347
0.00272344
0.00272344
0.00272599
0.00268027
0.00268024
0.00268024
0.00268278
0.00263707
0.00263703
0.00263703
0.00263958
0.00259385
0.00259382
0.00259382
0.00259637
0.00255063
0.0025506
0.0025506
0.00255315
0.00250742
0.00250739
0.00250739
0.00250993
0.00246421
0.00246418
0.00246418
0.00246672
0.002421
0.00242097
0.00242097
0.00242351
0.00237779
0.00237775
0.00237775
0.0023803
0.00233457
0.00233454
0.00233454
0.00233708
0.00229136
0.00229132
0.00229132
0.00229387
0.00224814
0.00224811
0.00224811
0.00225065
0.00220493
0.00220489
0.00220489
0.00220744
0.00216171
0.00216168
0.00216168
0.00216422
0.00211849
0.00211846
0.00211846
0.002121
0.00207528
0.00207524
0.00207524
0.00207779
0.00203206
0.00203203
0.00203203
0.00203457
0.00198884
0.00198881
0.00198881
0.00199136
0.00194563
0.0019456
0.0019456
0.00194814
0.00190242
0.00190239
0.00190239
0.00190493
0.00185921
0.00185918
0.00185918
0.00186173
0.00181599
0.00181596
0.00181596
0.00181851
0.00177277
0.00177274
0.00177274
0.00177529
0.00172956
0.00172953
0.00172953
0.00173207
0.00168635
0.00168632
0.00168632
0.00168886
0.00164314
0.0016431
0.0016431
0.00164565
0.00159993
0.00159989
0.00159989
0.00160244
0.00155671
0.00155668
0.00155668
0.00155923
0.0015135
0.00151347
0.00151347
0.00151602
0.0014703
0.00147026
0.00147026
0.00147281
0.00142709
0.00142705
0.00142705
0.0014296
0.00138388
0.00138385
0.00138385
0.00138639
0.00134067
0.00134064
0.00134064
0.00134318
0.00129746
0.00129743
0.00129743
0.00129997
0.00125425
0.00125422
0.00125422
0.00125677
0.00121105
0.00121102
0.00121102
0.00121356
0.00116785
0.00116781
0.00116781
0.00117036
0.00112464
0.00112461
0.00112461
0.00112716
0.00108144
0.00108141
0.00108141
0.00108395
0.00103822
0.00103819
0.00103819
0.00104074
0.000995016
0.000994983
0.000994984
0.000997528
0.000951809
0.000951776
0.000951777
0.000954321
0.000908602
0.000908569
0.000908569
0.000911114
0.000865394
0.000865362
0.000865362
0.000867906
0.000822186
0.000822153
0.000822153
0.000824698
0.000778976
0.000778944
0.000778944
0.000781489
0.000735767
0.000735734
0.000735734
0.000738279
0.000692556
0.000692524
0.000692524
0.000695068
0.000649346
0.000649313
0.000649313
0.000651858
0.000606137
0.000606104
0.000606104
0.000608649
0.000562927
0.000562894
0.000562894
0.000565439
0.000519717
0.000519684
0.000519684
0.000522229
0.000476509
0.000476476
0.000476476
0.000479021
0.000433305
0.000433272
0.000433273
0.000435817
0.000390104
0.000390072
0.000390071
0.000392616
0.000346904
0.00034687
0.000346871
0.000349416
0.000303693
0.000303659
0.000303661
0.000306204
0.000260485
0.000260453
0.000260453
0.000262996
0.000217277
0.000217245
0.000217245
0.000219785
0.000174077
0.000174041
0.000174041
0.000176578
0.000130854
0.00013082
0.00013082
0.000133339
8.76619e-05
8.76261e-05
8.76243e-05
9.01184e-05
4.51206e-05
4.45678e-05
4.45648e-05
4.69289e-05
9.85188e-06
1.01181e-05
1.0116e-05
9.67451e-06
0.00411532
0.00411554
0.00411554
0.00411532
0.00411554
0.00411554
0.0041163
0.0041163
0.0041163
0.0041163
0.00411554
0.00411554
0.00411532
0.00411554
0.00411554
0.00411532
0.00410529
0.00405653
0.00410223
0.00410223
0.00405881
0.00405881
0.00410529
0.00405653
0.00410223
0.00410223
0.0040588
0.00405881
0.00410223
0.0040588
0.00405881
0.00410529
0.00405653
0.00410224
0.0040588
0.0040588
0.00405653
0.00404994
0.00400547
0.00404696
0.00404696
0.00400888
0.00400888
0.00404994
0.00400547
0.00404696
0.00404696
0.00400888
0.00400888
0.00404696
0.00400888
0.00400888
0.00404994
0.00400547
0.00404696
0.00400888
0.00400888
0.00400547
0.00399853
0.0039531
0.00399578
0.00399578
0.00395644
0.00395644
0.00399853
0.0039531
0.00399578
0.00399578
0.00395644
0.00395644
0.00399578
0.00395644
0.00395644
0.00399853
0.0039531
0.00399578
0.00395643
0.00395644
0.0039531
0.00394619
0.00390169
0.00394346
0.00394346
0.003905
0.003905
0.00394619
0.00390169
0.00394346
0.00394346
0.003905
0.003905
0.00394346
0.00390501
0.00390501
0.00394619
0.0039017
0.00394346
0.003905
0.003905
0.00390169
0.00389515
0.00385553
0.00389273
0.00389273
0.0038582
0.0038582
0.00389515
0.00385553
0.00389275
0.00389273
0.0038582
0.0038582
0.00389275
0.0038582
0.0038582
0.00389516
0.00385553
0.00389272
0.0038582
0.0038582
0.00385553
0.00384978
0.00381212
0.00384724
0.00384724
0.00381466
0.00381466
0.00384978
0.00381212
0.00384724
0.00384724
0.00381466
0.00381466
0.00384724
0.00381466
0.00381466
0.00384978
0.00381212
0.00384724
0.00381466
0.00381466
0.00381212
0.00380639
0.00376884
0.00380383
0.00380383
0.00377138
0.00377138
0.00380639
0.00376884
0.00380383
0.00380383
0.00377138
0.00377138
0.00380383
0.00377138
0.00377138
0.00380639
0.00376884
0.00380383
0.00377138
0.00377138
0.00376884
0.00376312
0.00372562
0.00376058
0.00376058
0.00372816
0.00372816
0.00376312
0.00372562
0.00376058
0.00376058
0.00372816
0.00372816
0.00376058
0.00372816
0.00372816
0.00376312
0.00372562
0.00376058
0.00372816
0.00372816
0.00372562
0.0037199
0.0036824
0.00371735
0.00371735
0.00368494
0.00368494
0.0037199
0.0036824
0.00371735
0.00371735
0.00368494
0.00368494
0.00371735
0.00368494
0.00368494
0.0037199
0.0036824
0.00371735
0.00368494
0.00368494
0.0036824
0.00367668
0.00363918
0.00367413
0.00367413
0.00364172
0.00364172
0.00367668
0.00363918
0.00367413
0.00367413
0.00364172
0.00364172
0.00367413
0.00364172
0.00364172
0.00367668
0.00363918
0.00367413
0.00364172
0.00364172
0.00363918
0.00363346
0.00359596
0.00363092
0.00363092
0.0035985
0.0035985
0.00363346
0.00359597
0.00363092
0.00363092
0.0035985
0.0035985
0.00363092
0.0035985
0.0035985
0.00363346
0.00359596
0.00363092
0.0035985
0.0035985
0.00359596
0.00359025
0.00355275
0.0035877
0.0035877
0.00355529
0.00355529
0.00359024
0.00355275
0.0035877
0.0035877
0.00355529
0.00355529
0.0035877
0.00355529
0.00355529
0.00359025
0.00355275
0.0035877
0.00355529
0.00355529
0.00355275
0.00354703
0.00350953
0.00354449
0.00354449
0.00351207
0.00351207
0.00354703
0.00350954
0.00354449
0.00354449
0.00351207
0.00351207
0.00354449
0.00351207
0.00351207
0.00354703
0.00350953
0.00354449
0.00351207
0.00351207
0.00350954
0.00350382
0.00346632
0.00350127
0.00350127
0.00346886
0.00346886
0.00350382
0.00346632
0.00350127
0.00350127
0.00346886
0.00346886
0.00350127
0.00346886
0.00346886
0.00350382
0.00346632
0.00350127
0.00346886
0.00346886
0.00346632
0.0034606
0.00342311
0.00345806
0.00345806
0.00342565
0.00342564
0.0034606
0.00342311
0.00345806
0.00345806
0.00342564
0.00342564
0.00345806
0.00342564
0.00342564
0.0034606
0.00342311
0.00345806
0.00342564
0.00342564
0.00342311
0.00341739
0.00337989
0.00341484
0.00341484
0.00338243
0.00338243
0.00341739
0.00337989
0.00341484
0.00341484
0.00338243
0.00338243
0.00341484
0.00338243
0.00338243
0.00341739
0.00337989
0.00341484
0.00338243
0.00338243
0.00337989
0.00337417
0.00333667
0.00337163
0.00337163
0.00333921
0.00333921
0.00337417
0.00333667
0.00337163
0.00337163
0.00333921
0.00333921
0.00337163
0.00333921
0.00333921
0.00337417
0.00333667
0.00337163
0.00333921
0.00333921
0.00333667
0.00333095
0.00329345
0.0033284
0.0033284
0.00329599
0.00329599
0.00333095
0.00329345
0.0033284
0.0033284
0.00329599
0.00329599
0.0033284
0.00329599
0.00329599
0.00333095
0.00329345
0.0033284
0.00329599
0.00329599
0.00329345
0.00328773
0.00325024
0.00328519
0.00328518
0.00325277
0.00325277
0.00328773
0.00325023
0.00328518
0.00328518
0.00325277
0.00325278
0.00328518
0.00325277
0.00325278
0.00328773
0.00325024
0.00328518
0.00325278
0.00325277
0.00325024
0.00324452
0.00320702
0.00324197
0.00324197
0.00320956
0.00320956
0.00324451
0.00320702
0.00324197
0.00324197
0.00320956
0.00320956
0.00324197
0.00320956
0.00320956
0.00324452
0.00320702
0.00324197
0.00320956
0.00320956
0.00320702
0.0032013
0.00316381
0.00319876
0.00319876
0.00316635
0.00316635
0.0032013
0.00316381
0.00319876
0.00319876
0.00316635
0.00316635
0.00319876
0.00316635
0.00316635
0.0032013
0.00316381
0.00319876
0.00316635
0.00316635
0.00316381
0.00315809
0.0031206
0.00315555
0.00315555
0.00312314
0.00312314
0.00315809
0.0031206
0.00315555
0.00315555
0.00312314
0.00312314
0.00315555
0.00312314
0.00312314
0.00315809
0.0031206
0.00315555
0.00312314
0.00312314
0.0031206
0.00311488
0.00307738
0.00311233
0.00311233
0.00307992
0.00307992
0.00311488
0.00307738
0.00311233
0.00311233
0.00307992
0.00307992
0.00311233
0.00307992
0.00307992
0.00311488
0.00307738
0.00311233
0.00307992
0.00307992
0.00307738
0.00307166
0.00303417
0.00306912
0.00306912
0.00303671
0.00303671
0.00307166
0.00303417
0.00306912
0.00306912
0.00303671
0.00303671
0.00306912
0.00303671
0.00303671
0.00307166
0.00303417
0.00306912
0.00303671
0.00303671
0.00303417
0.00302845
0.00299096
0.00302591
0.0030259
0.0029935
0.0029935
0.00302845
0.00299096
0.0030259
0.00302591
0.0029935
0.0029935
0.00302591
0.0029935
0.0029935
0.00302845
0.00299096
0.00302591
0.0029935
0.0029935
0.00299096
0.00298524
0.00294775
0.00298269
0.00298269
0.00295029
0.00295029
0.00298524
0.00294775
0.00298269
0.00298269
0.00295029
0.00295029
0.00298269
0.00295029
0.00295029
0.00298524
0.00294775
0.00298269
0.00295029
0.00295029
0.00294775
0.00294203
0.00290454
0.00293948
0.00293948
0.00290708
0.00290708
0.00294203
0.00290454
0.00293948
0.00293948
0.00290708
0.00290708
0.00293948
0.00290708
0.00290708
0.00294203
0.00290454
0.00293948
0.00290708
0.00290708
0.00290454
0.00289882
0.00286133
0.00289627
0.00289627
0.00286387
0.00286387
0.00289882
0.00286133
0.00289627
0.00289627
0.00286387
0.00286387
0.00289627
0.00286387
0.00286387
0.00289882
0.00286133
0.00289627
0.00286387
0.00286387
0.00286133
0.00285561
0.00281812
0.00285307
0.00285307
0.00282066
0.00282066
0.00285561
0.00281812
0.00285307
0.00285307
0.00282066
0.00282066
0.00285307
0.00282066
0.00282066
0.00285561
0.00281812
0.00285307
0.00282066
0.00282066
0.00281812
0.0028124
0.00277491
0.00280986
0.00280986
0.00277745
0.00277745
0.0028124
0.00277491
0.00280986
0.00280986
0.00277745
0.00277745
0.00280986
0.00277745
0.00277745
0.0028124
0.00277491
0.00280986
0.00277745
0.00277745
0.00277491
0.00276919
0.0027317
0.00276665
0.00276665
0.00273424
0.00273424
0.00276919
0.0027317
0.00276665
0.00276665
0.00273424
0.00273424
0.00276665
0.00273424
0.00273424
0.00276919
0.0027317
0.00276665
0.00273424
0.00273424
0.0027317
0.00272599
0.0026885
0.00272344
0.00272344
0.00269104
0.00269104
0.00272599
0.0026885
0.00272344
0.00272344
0.00269104
0.00269104
0.00272344
0.00269104
0.00269104
0.00272599
0.0026885
0.00272344
0.00269104
0.00269104
0.0026885
0.00268278
0.0026453
0.00268024
0.00268024
0.00264784
0.00264783
0.00268278
0.0026453
0.00268024
0.00268024
0.00264784
0.00264784
0.00268024
0.00264783
0.00264784
0.00268278
0.0026453
0.00268024
0.00264784
0.00264784
0.0026453
0.00263958
0.00260209
0.00263703
0.00263703
0.00260463
0.00260463
0.00263958
0.00260209
0.00263703
0.00263703
0.00260463
0.00260463
0.00263703
0.00260463
0.00260463
0.00263958
0.00260209
0.00263703
0.00260463
0.00260463
0.00260209
0.00259637
0.00255887
0.00259382
0.00259382
0.00256141
0.00256141
0.00259637
0.00255887
0.00259382
0.00259382
0.00256141
0.00256141
0.00259382
0.00256141
0.00256141
0.00259637
0.00255887
0.00259382
0.00256141
0.00256141
0.00255887
0.00255315
0.00251565
0.0025506
0.0025506
0.00251819
0.00251819
0.00255315
0.00251565
0.0025506
0.0025506
0.00251819
0.00251819
0.0025506
0.00251819
0.00251819
0.00255315
0.00251565
0.0025506
0.00251819
0.00251819
0.00251565
0.00250993
0.00247244
0.00250739
0.00250739
0.00247498
0.00247498
0.00250993
0.00247244
0.00250739
0.00250739
0.00247498
0.00247498
0.00250739
0.00247498
0.00247498
0.00250993
0.00247244
0.00250739
0.00247498
0.00247498
0.00247244
0.00246672
0.00242923
0.00246418
0.00246418
0.00243177
0.00243177
0.00246672
0.00242923
0.00246418
0.00246418
0.00243177
0.00243177
0.00246418
0.00243177
0.00243177
0.00246672
0.00242923
0.00246418
0.00243177
0.00243177
0.00242923
0.00242351
0.00238602
0.00242097
0.00242097
0.00238856
0.00238856
0.00242351
0.00238602
0.00242097
0.00242097
0.00238856
0.00238856
0.00242097
0.00238856
0.00238856
0.00242351
0.00238602
0.00242097
0.00238856
0.00238856
0.00238602
0.0023803
0.0023428
0.00237775
0.00237775
0.00234534
0.00234534
0.0023803
0.0023428
0.00237775
0.00237775
0.00234534
0.00234534
0.00237775
0.00234534
0.00234534
0.0023803
0.0023428
0.00237775
0.00234534
0.00234534
0.0023428
0.00233708
0.00229959
0.00233454
0.00233454
0.00230213
0.00230213
0.00233708
0.00229959
0.00233454
0.00233454
0.00230213
0.00230213
0.00233454
0.00230213
0.00230213
0.00233708
0.00229959
0.00233454
0.00230213
0.00230213
0.00229959
0.00229387
0.00225637
0.00229132
0.00229132
0.00225891
0.00225891
0.00229387
0.00225637
0.00229132
0.00229132
0.00225891
0.00225891
0.00229132
0.00225891
0.00225891
0.00229387
0.00225637
0.00229132
0.00225891
0.00225891
0.00225637
0.00225065
0.00221316
0.00224811
0.00224811
0.0022157
0.0022157
0.00225065
0.00221316
0.00224811
0.00224811
0.0022157
0.0022157
0.00224811
0.0022157
0.0022157
0.00225065
0.00221316
0.00224811
0.0022157
0.0022157
0.00221316
0.00220744
0.00216994
0.00220489
0.00220489
0.00217248
0.00217248
0.00220744
0.00216994
0.00220489
0.00220489
0.00217248
0.00217248
0.00220489
0.00217248
0.00217248
0.00220744
0.00216994
0.00220489
0.00217248
0.00217248
0.00216994
0.00216422
0.00212672
0.00216168
0.00216168
0.00212926
0.00212926
0.00216422
0.00212672
0.00216168
0.00216168
0.00212926
0.00212926
0.00216168
0.00212926
0.00212926
0.00216422
0.00212672
0.00216168
0.00212926
0.00212926
0.00212672
0.002121
0.00208351
0.00211846
0.00211846
0.00208605
0.00208605
0.002121
0.00208351
0.00211846
0.00211846
0.00208605
0.00208605
0.00211846
0.00208605
0.00208605
0.002121
0.00208351
0.00211846
0.00208605
0.00208605
0.00208351
0.00207779
0.00204029
0.00207524
0.00207524
0.00204283
0.00204283
0.00207779
0.00204029
0.00207524
0.00207524
0.00204283
0.00204283
0.00207524
0.00204283
0.00204283
0.00207779
0.00204029
0.00207524
0.00204283
0.00204283
0.00204029
0.00203457
0.00199708
0.00203203
0.00203203
0.00199961
0.00199961
0.00203457
0.00199708
0.00203203
0.00203203
0.00199961
0.00199961
0.00203203
0.00199961
0.00199961
0.00203457
0.00199708
0.00203203
0.00199961
0.00199961
0.00199708
0.00199136
0.00195386
0.00198881
0.00198881
0.0019564
0.0019564
0.00199136
0.00195386
0.00198881
0.00198881
0.0019564
0.0019564
0.00198881
0.0019564
0.0019564
0.00199136
0.00195386
0.00198881
0.0019564
0.0019564
0.00195386
0.00194814
0.00191065
0.0019456
0.0019456
0.00191319
0.00191319
0.00194814
0.00191065
0.0019456
0.0019456
0.00191319
0.00191319
0.0019456
0.00191319
0.00191319
0.00194814
0.00191065
0.0019456
0.00191319
0.00191319
0.00191065
0.00190493
0.00186744
0.00190239
0.00190239
0.00186998
0.00186998
0.00190493
0.00186745
0.00190239
0.00190239
0.00186998
0.00186998
0.00190239
0.00186998
0.00186998
0.00190493
0.00186744
0.00190239
0.00186998
0.00186998
0.00186744
0.00186173
0.00182423
0.00185918
0.00185918
0.00182677
0.00182677
0.00186173
0.00182423
0.00185918
0.00185918
0.00182677
0.00182677
0.00185918
0.00182677
0.00182677
0.00186173
0.00182423
0.00185918
0.00182677
0.00182677
0.00182423
0.00181851
0.00178101
0.00181596
0.00181596
0.00178354
0.00178354
0.00181851
0.001781
0.00181596
0.00181596
0.00178354
0.00178354
0.00181596
0.00178354
0.00178354
0.00181851
0.00178101
0.00181596
0.00178354
0.00178354
0.00178101
0.00177529
0.00173779
0.00177274
0.00177274
0.00174033
0.00174033
0.00177528
0.00173779
0.00177274
0.00177274
0.00174033
0.00174033
0.00177274
0.00174033
0.00174033
0.00177529
0.00173779
0.00177274
0.00174033
0.00174033
0.00173779
0.00173207
0.00169458
0.00172953
0.00172953
0.00169712
0.00169712
0.00173207
0.00169458
0.00172953
0.00172953
0.00169712
0.00169712
0.00172953
0.00169712
0.00169712
0.00173207
0.00169458
0.00172953
0.00169712
0.00169712
0.00169458
0.00168886
0.00165137
0.00168632
0.00168632
0.00165391
0.00165391
0.00168886
0.00165137
0.00168632
0.00168632
0.00165391
0.00165391
0.00168632
0.00165391
0.00165391
0.00168886
0.00165137
0.00168632
0.00165391
0.00165391
0.00165137
0.00164565
0.00160816
0.0016431
0.0016431
0.0016107
0.0016107
0.00164565
0.00160816
0.0016431
0.0016431
0.0016107
0.0016107
0.0016431
0.0016107
0.0016107
0.00164565
0.00160816
0.0016431
0.0016107
0.0016107
0.00160816
0.00160244
0.00156495
0.00159989
0.00159989
0.00156748
0.00156748
0.00160244
0.00156495
0.00159989
0.00159989
0.00156748
0.00156748
0.00159989
0.00156748
0.00156748
0.00160244
0.00156495
0.00159989
0.00156748
0.00156748
0.00156495
0.00155923
0.00152174
0.00155668
0.00155668
0.00152427
0.00152427
0.00155923
0.00152174
0.00155668
0.00155668
0.00152427
0.00152427
0.00155668
0.00152427
0.00152427
0.00155923
0.00152174
0.00155668
0.00152427
0.00152427
0.00152174
0.00151602
0.00147853
0.00151347
0.00151347
0.00148106
0.00148106
0.00151602
0.00147853
0.00151347
0.00151347
0.00148106
0.00148106
0.00151347
0.00148106
0.00148106
0.00151602
0.00147853
0.00151347
0.00148106
0.00148106
0.00147853
0.00147281
0.00143532
0.00147026
0.00147026
0.00143786
0.00143786
0.00147281
0.00143532
0.00147026
0.00147026
0.00143786
0.00143786
0.00147026
0.00143786
0.00143786
0.00147281
0.00143532
0.00147026
0.00143786
0.00143786
0.00143532
0.0014296
0.00139211
0.00142705
0.00142705
0.00139465
0.00139465
0.0014296
0.00139211
0.00142705
0.00142705
0.00139465
0.00139465
0.00142705
0.00139465
0.00139465
0.0014296
0.00139211
0.00142705
0.00139465
0.00139465
0.00139211
0.00138639
0.0013489
0.00138385
0.00138385
0.00135144
0.00135144
0.00138639
0.0013489
0.00138384
0.00138385
0.00135144
0.00135144
0.00138385
0.00135144
0.00135144
0.00138639
0.0013489
0.00138385
0.00135144
0.00135144
0.0013489
0.00134318
0.00130569
0.00134064
0.00134064
0.00130823
0.00130823
0.00134318
0.00130569
0.00134064
0.00134064
0.00130823
0.00130823
0.00134064
0.00130823
0.00130823
0.00134318
0.00130569
0.00134064
0.00130823
0.00130823
0.00130569
0.00129997
0.00126248
0.00129743
0.00129743
0.00126502
0.00126502
0.00129997
0.00126249
0.00129743
0.00129743
0.00126502
0.00126502
0.00129743
0.00126502
0.00126502
0.00129997
0.00126248
0.00129743
0.00126502
0.00126502
0.00126248
0.00125677
0.00121928
0.00125422
0.00125422
0.00122182
0.00122182
0.00125677
0.00121928
0.00125422
0.00125422
0.00122182
0.00122182
0.00125422
0.00122182
0.00122182
0.00125677
0.00121928
0.00125422
0.00122182
0.00122182
0.00121928
0.00121356
0.00117608
0.00121102
0.00121102
0.00117861
0.00117861
0.00121356
0.00117608
0.00121102
0.00121102
0.00117861
0.00117861
0.00121102
0.00117861
0.00117861
0.00121356
0.00117608
0.00121102
0.00117861
0.00117861
0.00117608
0.00117036
0.00113287
0.00116781
0.00116781
0.00113541
0.00113541
0.00117036
0.00113287
0.00116781
0.00116781
0.00113541
0.00113541
0.00116781
0.00113541
0.00113541
0.00117036
0.00113287
0.00116781
0.00113541
0.00113541
0.00113287
0.00112716
0.00108967
0.00112461
0.00112461
0.00109221
0.00109221
0.00112716
0.00108967
0.00112461
0.00112461
0.00109221
0.00109221
0.00112461
0.00109221
0.00109221
0.00112716
0.00108967
0.00112461
0.00109221
0.00109221
0.00108967
0.00108395
0.00104646
0.00108141
0.00108141
0.001049
0.001049
0.00108395
0.00104646
0.00108141
0.00108141
0.001049
0.00104899
0.00108141
0.001049
0.00104899
0.00108395
0.00104645
0.00108141
0.00104899
0.00104899
0.00104645
0.00104074
0.00100325
0.00103819
0.00103819
0.00100578
0.00100578
0.00104074
0.00100325
0.00103819
0.00103819
0.00100578
0.00100579
0.00103819
0.00100579
0.00100579
0.00104074
0.00100325
0.00103819
0.00100579
0.00100579
0.00100325
0.000997528
0.00096004
0.000994983
0.000994983
0.000962578
0.000962578
0.000997528
0.00096004
0.000994983
0.000994984
0.000962578
0.000962578
0.000994984
0.000962578
0.000962579
0.000997528
0.00096004
0.000994984
0.000962578
0.000962578
0.00096004
0.000954321
0.000916832
0.000951777
0.000951776
0.000919371
0.000919371
0.000954321
0.000916833
0.000951776
0.000951777
0.000919371
0.000919371
0.000951777
0.000919371
0.000919371
0.000954321
0.000916833
0.000951777
0.000919371
0.000919371
0.000916833
0.000911114
0.000873625
0.000908569
0.000908569
0.000876164
0.000876164
0.000911114
0.000873625
0.000908569
0.000908569
0.000876164
0.000876164
0.000908569
0.000876164
0.000876164
0.000911114
0.000873625
0.000908569
0.000876164
0.000876164
0.000873625
0.000867906
0.000830417
0.000865362
0.000865361
0.000832955
0.000832955
0.000867906
0.000830417
0.000865361
0.000865362
0.000832955
0.000832955
0.000865362
0.000832955
0.000832955
0.000867906
0.000830417
0.000865362
0.000832955
0.000832955
0.000830417
0.000824698
0.000787207
0.000822153
0.000822153
0.000789746
0.000789746
0.000824698
0.000787208
0.000822153
0.000822153
0.000789746
0.000789746
0.000822153
0.000789746
0.000789746
0.000824698
0.000787207
0.000822153
0.000789746
0.000789746
0.000787207
0.000781488
0.000743998
0.000778944
0.000778944
0.000746536
0.000746536
0.000781488
0.000743998
0.000778944
0.000778944
0.000746536
0.000746536
0.000778944
0.000746536
0.000746537
0.000781488
0.000743997
0.000778944
0.000746536
0.000746536
0.000743998
0.000738278
0.000700787
0.000735734
0.000735734
0.000703326
0.000703326
0.000738278
0.000700788
0.000735734
0.000735734
0.000703326
0.000703326
0.000735734
0.000703326
0.000703326
0.000738278
0.000700787
0.000735734
0.000703326
0.000703326
0.000700787
0.000695068
0.000657577
0.000692524
0.000692524
0.000660116
0.000660116
0.000695068
0.000657577
0.000692524
0.000692524
0.000660116
0.000660116
0.000692524
0.000660116
0.000660116
0.000695068
0.000657577
0.000692524
0.000660116
0.000660116
0.000657577
0.000651858
0.000614367
0.000649313
0.000649313
0.000616906
0.000616906
0.000651858
0.000614368
0.000649313
0.000649313
0.000616906
0.000616906
0.000649314
0.000616906
0.000616906
0.000651858
0.000614367
0.000649313
0.000616906
0.000616906
0.000614367
0.000608648
0.000571158
0.000606104
0.000606104
0.000573696
0.000573696
0.000608648
0.000571158
0.000606104
0.000606104
0.000573696
0.000573696
0.000606104
0.000573696
0.000573697
0.000608649
0.000571157
0.000606104
0.000573696
0.000573696
0.000571157
0.000565438
0.000527948
0.000562894
0.000562894
0.000530487
0.000530487
0.000565438
0.000527948
0.000562894
0.000562894
0.000530487
0.000530487
0.000562894
0.000530487
0.000530487
0.000565438
0.000527948
0.000562894
0.000530487
0.000530487
0.000527948
0.000522229
0.000484739
0.000519684
0.000519684
0.000487278
0.000487278
0.000522228
0.000484739
0.000519684
0.000519684
0.000487278
0.000487278
0.000519684
0.000487278
0.000487278
0.000522229
0.000484739
0.000519684
0.000487278
0.000487278
0.000484739
0.000479021
0.000441535
0.000476476
0.000476476
0.000444073
0.000444073
0.000479021
0.000441535
0.000476476
0.000476476
0.000444073
0.000444073
0.000476476
0.000444073
0.000444074
0.000479021
0.000441535
0.000476476
0.000444073
0.000444073
0.000441535
0.000435817
0.000398333
0.000433273
0.000433272
0.000400871
0.000400871
0.000435817
0.000398334
0.000433272
0.000433273
0.000400871
0.000400871
0.000433273
0.000400871
0.000400872
0.000435817
0.000398333
0.000433272
0.000400871
0.000400871
0.000398333
0.000392615
0.000355134
0.000390071
0.000390072
0.000357672
0.000357672
0.000392616
0.000355134
0.000390071
0.000390071
0.000357672
0.000357672
0.000390071
0.000357672
0.000357672
0.000392615
0.000355133
0.000390071
0.000357672
0.000357672
0.000355134
0.000349416
0.000311924
0.000346871
0.000346871
0.000314464
0.000314463
0.000349416
0.000311922
0.000346871
0.000346871
0.000314464
0.000314465
0.000346871
0.000314463
0.000314463
0.000349416
0.000311925
0.000346871
0.000314464
0.000314464
0.000311923
0.000306204
0.000268714
0.00030366
0.000303659
0.000271253
0.000271253
0.000306203
0.000268715
0.000303661
0.000303661
0.000271253
0.000271253
0.00030366
0.000271253
0.000271253
0.000306205
0.000268714
0.00030366
0.000271253
0.000271253
0.000268714
0.000262996
0.000225509
0.000260453
0.000260453
0.000228049
0.000228049
0.000262996
0.000225509
0.000260453
0.000260452
0.000228048
0.000228048
0.000260453
0.000228049
0.000228049
0.000262996
0.000225508
0.000260453
0.000228048
0.000228049
0.000225509
0.000219785
0.000182304
0.000217245
0.000217245
0.000184831
0.000184831
0.000219785
0.000182304
0.000217245
0.000217245
0.00018483
0.00018483
0.000217245
0.000184831
0.000184831
0.000219785
0.000182303
0.000217245
0.00018483
0.00018483
0.000182304
0.000176578
0.00013911
0.000174041
0.000174041
0.000141648
0.000141649
0.000176578
0.00013911
0.000174041
0.000174041
0.000141648
0.000141648
0.000174041
0.000141648
0.000141648
0.000176577
0.000139109
0.000174041
0.000141648
0.000141648
0.000139109
0.000133339
9.58964e-05
0.00013082
0.00013082
9.84305e-05
9.84312e-05
0.000133339
9.5897e-05
0.00013082
0.00013082
9.84305e-05
9.84299e-05
0.00013082
9.84307e-05
9.84299e-05
0.000133339
9.58955e-05
0.00013082
9.84296e-05
9.84297e-05
9.58956e-05
9.01197e-05
5.27243e-05
8.76259e-05
8.76262e-05
5.5262e-05
5.52625e-05
9.01194e-05
5.27254e-05
8.76257e-05
8.76248e-05
5.52599e-05
5.52595e-05
8.76249e-05
5.52611e-05
5.52591e-05
9.01189e-05
5.27217e-05
8.76254e-05
5.52585e-05
5.52579e-05
5.27214e-05
4.69325e-05
1.3447e-05
4.45696e-05
4.45698e-05
1.56923e-05
1.56916e-05
4.69331e-05
1.34469e-05
4.45673e-05
4.45659e-05
1.56902e-05
1.56866e-05
4.45651e-05
1.5689e-05
1.56848e-05
4.69293e-05
1.34426e-05
4.45643e-05
1.5687e-05
1.56864e-05
1.34413e-05
9.67846e-06
1.01194e-05
1.01198e-05
9.67951e-06
1.01178e-05
1.01154e-05
9.85177e-06
9.84971e-06
9.84934e-06
1.01145e-05
9.67558e-06
1.01151e-05
0.00412369
0.00413345
0.00412825
0.00412825
0.00415062
0.00413741
0.00416601
0.00413146
0.00415062
0.00413742
0.00413146
0.00416601
0.00414198
0.00416975
0.00416975
0.00407905
0.00409818
0.00410738
0.0040711
0.00407189
0.00407463
0.00407903
0.00409816
0.00410737
0.00407108
0.0041019
0.00410191
0.0041019
0.00405848
0.00405848
0.00405848
0.00405848
0.00407655
0.00410237
0.0041023
0.00408537
0.0041054
0.00407545
0.00408626
0.00407199
0.00407463
0.00407655
0.0041023
0.00410239
0.00408537
0.00410539
0.00408626
0.00407545
0.00410825
0.00410823
0.00407977
0.00407508
0.00407507
0.00403234
0.00405172
0.00405306
0.00403078
0.00405061
0.00403036
0.00403234
0.00405172
0.00405306
0.00403078
0.00404655
0.00404655
0.00404655
0.00400895
0.00400895
0.00400895
0.00400895
0.00403094
0.00405177
0.00404654
0.00403469
0.00405056
0.00403145
0.00403442
0.00405061
0.00403035
0.00403095
0.00404654
0.00405177
0.00403469
0.00405056
0.00403441
0.00403144
0.00405282
0.00405281
0.00403122
0.00403173
0.00403173
0.00397994
0.00399915
0.0040002
0.00397888
0.0039988
0.00397861
0.00397993
0.00399915
0.0040002
0.00397888
0.00399578
0.00399578
0.00399578
0.00395639
0.00395639
0.00395639
0.00395639
0.00397916
0.00399949
0.00399566
0.00398258
0.00399887
0.00397943
0.00398251
0.0039988
0.00397861
0.00397916
0.00399566
0.00399949
0.00398258
0.00399887
0.00398251
0.00397943
0.0039998
0.0039998
0.00397922
0.00397945
0.00397944
0.00392758
0.00394623
0.00394708
0.00392681
0.00394599
0.00392669
0.00392758
0.00394623
0.00394708
0.00392681
0.00394348
0.00394348
0.00394348
0.00390517
0.00390517
0.00390517
0.00390517
0.00392708
0.00394665
0.00394343
0.00393045
0.0039464
0.00392724
0.00393049
0.00394599
0.00392668
0.00392708
0.00394343
0.00394665
0.00393045
0.0039464
0.00393049
0.00392724
0.00394663
0.00394663
0.00392712
0.00392725
0.00392725
0.00387696
0.00389445
0.00389525
0.00387674
0.00389409
0.00387645
0.00387696
0.00389445
0.00389525
0.00387674
0.0038929
0.0038929
0.0038929
0.00385834
0.00385834
0.00385834
0.00385834
0.00387734
0.00389499
0.0038928
0.00388082
0.00389507
0.00387726
0.00388091
0.00389409
0.00387645
0.00387734
0.00389278
0.00389499
0.00388081
0.00389507
0.00388091
0.00387726
0.00389455
0.00389455
0.00387767
0.00387676
0.00387676
0.00383347
0.00384944
0.00384949
0.00383341
0.00384944
0.00383344
0.00383347
0.00384945
0.00384949
0.00383341
0.00384733
0.00384733
0.00384733
0.00381471
0.0038147
0.00381471
0.00381471
0.00383362
0.00384967
0.00384726
0.00383635
0.00384967
0.00383357
0.00383637
0.00384946
0.00383345