/*--------------------------------*- C++ -*----------------------------------*\
| =========                 |                                                 |
| \\      /  F ield         | OpenFOAM: The Open Source CFD Toolbox           |
|  \\    /   O peration     | Version:  2206                                  |
|   \\  /    A nd           | Website:  www.openfoam.com                      |
|    \\/     M anipulation  |                                                 |
\*---------------------------------------------------------------------------*/
FoamFile
{
    version     2.0;
    format      ascii;
    arch        "LSB;label=32;scalar=64";
    class       volScalarField;
    location    "23.5";
    object      p;
}
// * * * * * * * * * * * * * * * * * * * * * * * * * * * * * * * * * * * * * //

dimensions      [0 2 -2 0 0 0 0];

internalField   nonuniform List<scalar> 
171728
(
0.00410272
0.00410305
0.00410305
0.00410611
0.00404737
0.00404778
0.00404778
0.00405076
0.00399659
0.0039966
0.0039966
0.00399934
0.00394429
0.00394428
0.00394428
0.00394701
0.00389372
0.00389357
0.00389354
0.00389597
0.00384815
0.00384805
0.00384805
0.0038506
0.00380469
0.00380464
0.00380465
0.00380721
0.00376143
0.0037614
0.0037614
0.00376394
0.00371821
0.00371818
0.00371818
0.00372072
0.00367499
0.00367496
0.00367496
0.0036775
0.00363177
0.00363174
0.00363174
0.00363428
0.00358855
0.00358852
0.00358852
0.00359106
0.00354533
0.0035453
0.0035453
0.00354784
0.00350211
0.00350208
0.00350208
0.00350462
0.00345889
0.00345886
0.00345886
0.0034614
0.00341567
0.00341564
0.00341564
0.00341818
0.00337245
0.00337242
0.00337242
0.00337497
0.00332923
0.0033292
0.0033292
0.00333175
0.00328602
0.00328598
0.00328598
0.00328853
0.0032428
0.00324277
0.00324277
0.00324531
0.00319958
0.00319955
0.00319955
0.00320209
0.00315636
0.00315633
0.00315633
0.00315888
0.00311314
0.00311311
0.00311311
0.00311566
0.00306992
0.00306989
0.00306989
0.00307244
0.0030267
0.00302667
0.00302667
0.00302921
0.00298348
0.00298344
0.00298344
0.00298599
0.00294025
0.00294022
0.00294022
0.00294277
0.00289703
0.002897
0.002897
0.00289954
0.00285381
0.00285377
0.00285377
0.00285632
0.00281058
0.00281055
0.00281055
0.0028131
0.00276736
0.00276733
0.00276733
0.00276987
0.00272414
0.00272411
0.00272411
0.00272665
0.00268092
0.00268089
0.00268089
0.00268343
0.0026377
0.00263767
0.00263767
0.00264021
0.00259448
0.00259445
0.00259445
0.00259699
0.00255126
0.00255123
0.00255123
0.00255377
0.00250804
0.00250801
0.00250801
0.00251055
0.00246483
0.00246479
0.00246479
0.00246734
0.00242161
0.00242158
0.00242158
0.00242412
0.00237839
0.00237836
0.00237836
0.0023809
0.00233517
0.00233514
0.00233514
0.00233769
0.00229195
0.00229192
0.00229192
0.00229447
0.00224873
0.0022487
0.0022487
0.00225125
0.00220552
0.00220548
0.00220548
0.00220803
0.0021623
0.00216227
0.00216227
0.00216481
0.00211908
0.00211905
0.00211905
0.00212159
0.00207587
0.00207583
0.00207583
0.00207838
0.00203265
0.00203262
0.00203262
0.00203516
0.00198943
0.0019894
0.0019894
0.00199195
0.00194622
0.00194619
0.00194619
0.00194873
0.001903
0.00190297
0.00190297
0.00190552
0.00185979
0.00185976
0.00185976
0.0018623
0.00181657
0.00181654
0.00181654
0.00181909
0.00177336
0.00177333
0.00177333
0.00177587
0.00173014
0.00173011
0.00173011
0.00173266
0.00168693
0.0016869
0.0016869
0.00168944
0.00164371
0.00164368
0.00164368
0.00164623
0.0016005
0.00160047
0.00160047
0.00160301
0.00155729
0.00155725
0.00155725
0.0015598
0.00151407
0.00151404
0.00151404
0.00151659
0.00147086
0.00147083
0.00147083
0.00147337
0.00142764
0.00142761
0.00142761
0.00143016
0.00138443
0.0013844
0.0013844
0.00138694
0.00134122
0.00134118
0.00134118
0.00134373
0.001298
0.00129797
0.00129797
0.00130052
0.00125479
0.00125476
0.00125476
0.0012573
0.00121157
0.00121154
0.00121154
0.00121409
0.00116836
0.00116833
0.00116833
0.00117087
0.00112514
0.00112511
0.00112511
0.00112765
0.00108192
0.00108189
0.00108189
0.00108444
0.00103871
0.00103867
0.00103868
0.00104122
0.000995491
0.000995458
0.000995458
0.000998003
0.000952274
0.000952241
0.000952241
0.000954786
0.000909056
0.000909023
0.000909023
0.000911569
0.000865837
0.000865804
0.000865804
0.000868349
0.000822616
0.000822584
0.000822584
0.000825129
0.000779396
0.000779363
0.000779363
0.000781908
0.000736174
0.000736142
0.000736142
0.000738687
0.000692952
0.000692919
0.000692919
0.000695464
0.000649728
0.000649695
0.000649695
0.00065224
0.000606503
0.00060647
0.00060647
0.000609016
0.000563277
0.000563245
0.000563245
0.00056579
0.000520051
0.000520019
0.000520019
0.000522564
0.000476826
0.000476793
0.000476793
0.000479338
0.000433599
0.000433567
0.000433567
0.000436112
0.000390372
0.000390339
0.000390339
0.000392885
0.000347144
0.000347111
0.000347111
0.000349657
0.000303915
0.000303882
0.000303882
0.000306428
0.000260686
0.000260654
0.000260654
0.000263199
0.000217451
0.000217419
0.000217419
0.000219961
0.000174223
0.000174186
0.000174186
0.000176725
0.000130968
0.000130934
0.000130934
0.000133455
8.77433e-05
8.77075e-05
8.77057e-05
9.02015e-05
4.51693e-05
4.46164e-05
4.46135e-05
4.69791e-05
9.86825e-06
1.01359e-05
1.01339e-05
9.69267e-06
0.00411614
0.00411636
0.00411636
0.00411614
0.00411636
0.00411636
0.00411712
0.00411712
0.00411712
0.00411712
0.00411636
0.00411636
0.00411614
0.00411636
0.00411636
0.00411614
0.00410611
0.00405734
0.00410305
0.00410305
0.00405962
0.00405963
0.00410611
0.00405734
0.00410305
0.00410305
0.00405962
0.00405962
0.00410305
0.00405962
0.00405962
0.00410611
0.00405734
0.00410305
0.00405962
0.00405962
0.00405734
0.00405076
0.00400629
0.00404778
0.00404778
0.00400969
0.00400969
0.00405076
0.00400629
0.00404778
0.00404778
0.00400969
0.00400969
0.00404778
0.00400969
0.00400969
0.00405076
0.00400629
0.00404778
0.00400969
0.00400969
0.00400629
0.00399935
0.00395391
0.0039966
0.0039966
0.00395725
0.00395725
0.00399935
0.00395391
0.0039966
0.0039966
0.00395725
0.00395725
0.0039966
0.00395725
0.00395725
0.00399934
0.00395391
0.0039966
0.00395725
0.00395725
0.00395391
0.00394701
0.00390251
0.00394428
0.00394428
0.00390582
0.00390582
0.00394701
0.00390251
0.00394428
0.00394428
0.00390582
0.00390582
0.00394428
0.00390582
0.00390582
0.00394701
0.00390252
0.00394428
0.00390582
0.00390582
0.00390251
0.00389597
0.00385635
0.00389355
0.00389355
0.00385901
0.00385901
0.00389597
0.00385635
0.00389357
0.00389355
0.00385901
0.00385902
0.00389357
0.00385902
0.00385901
0.00389598
0.00385635
0.00389354
0.00385901
0.00385902
0.00385635
0.0038506
0.00381293
0.00384805
0.00384805
0.00381547
0.00381547
0.0038506
0.00381293
0.00384805
0.00384805
0.00381547
0.00381547
0.00384805
0.00381547
0.00381547
0.0038506
0.00381293
0.00384805
0.00381547
0.00381547
0.00381293
0.00380721
0.00376966
0.00380465
0.00380464
0.0037722
0.0037722
0.00380721
0.00376966
0.00380465
0.00380465
0.0037722
0.0037722
0.00380465
0.0037722
0.0037722
0.00380721
0.00376966
0.00380465
0.0037722
0.0037722
0.00376966
0.00376394
0.00372644
0.0037614
0.0037614
0.00372898
0.00372898
0.00376394
0.00372644
0.0037614
0.0037614
0.00372898
0.00372898
0.0037614
0.00372898
0.00372898
0.00376394
0.00372644
0.0037614
0.00372898
0.00372898
0.00372644
0.00372072
0.00368322
0.00371818
0.00371818
0.00368576
0.00368576
0.00372072
0.00368322
0.00371818
0.00371818
0.00368576
0.00368576
0.00371818
0.00368576
0.00368576
0.00372072
0.00368322
0.00371818
0.00368576
0.00368576
0.00368322
0.0036775
0.00364
0.00367496
0.00367496
0.00364254
0.00364254
0.0036775
0.00364
0.00367496
0.00367496
0.00364254
0.00364254
0.00367496
0.00364254
0.00364254
0.0036775
0.00364
0.00367496
0.00364254
0.00364254
0.00364
0.00363428
0.00359678
0.00363174
0.00363174
0.00359932
0.00359932
0.00363428
0.00359678
0.00363174
0.00363174
0.00359932
0.00359932
0.00363174
0.00359932
0.00359932
0.00363428
0.00359678
0.00363174
0.00359932
0.00359932
0.00359678
0.00359106
0.00355356
0.00358852
0.00358852
0.0035561
0.0035561
0.00359106
0.00355356
0.00358852
0.00358852
0.0035561
0.0035561
0.00358852
0.0035561
0.0035561
0.00359106
0.00355356
0.00358852
0.0035561
0.0035561
0.00355356
0.00354784
0.00351035
0.0035453
0.0035453
0.00351288
0.00351288
0.00354784
0.00351035
0.0035453
0.0035453
0.00351288
0.00351288
0.0035453
0.00351288
0.00351288
0.00354784
0.00351035
0.0035453
0.00351288
0.00351288
0.00351035
0.00350463
0.00346713
0.00350208
0.00350208
0.00346966
0.00346966
0.00350462
0.00346713
0.00350208
0.00350208
0.00346966
0.00346966
0.00350208
0.00346966
0.00346966
0.00350462
0.00346712
0.00350208
0.00346966
0.00346966
0.00346712
0.0034614
0.0034239
0.00345886
0.00345886
0.00342644
0.00342644
0.0034614
0.0034239
0.00345886
0.00345886
0.00342644
0.00342644
0.00345886
0.00342644
0.00342644
0.0034614
0.0034239
0.00345886
0.00342644
0.00342644
0.0034239
0.00341818
0.00338069
0.00341564
0.00341564
0.00338322
0.00338322
0.00341818
0.00338069
0.00341564
0.00341564
0.00338322
0.00338322
0.00341564
0.00338322
0.00338322
0.00341818
0.00338069
0.00341564
0.00338322
0.00338322
0.00338069
0.00337496
0.00333747
0.00337242
0.00337242
0.00334001
0.00334001
0.00337496
0.00333747
0.00337242
0.00337242
0.00334001
0.00334001
0.00337242
0.00334001
0.00334001
0.00337497
0.00333747
0.00337242
0.00334001
0.00334001
0.00333747
0.00333175
0.00329425
0.0033292
0.0033292
0.00329679
0.00329679
0.00333175
0.00329425
0.0033292
0.0033292
0.00329679
0.00329679
0.0033292
0.00329679
0.00329679
0.00333175
0.00329425
0.0033292
0.00329679
0.00329679
0.00329425
0.00328853
0.00325103
0.00328599
0.00328598
0.00325357
0.00325357
0.00328853
0.00325103
0.00328598
0.00328598
0.00325357
0.00325357
0.00328598
0.00325357
0.00325357
0.00328853
0.00325103
0.00328598
0.00325357
0.00325357
0.00325103
0.00324531
0.00320781
0.00324277
0.00324277
0.00321035
0.00321035
0.00324531
0.00320782
0.00324277
0.00324277
0.00321035
0.00321035
0.00324277
0.00321035
0.00321035
0.00324531
0.00320781
0.00324277
0.00321035
0.00321035
0.00320781
0.00320209
0.0031646
0.00319955
0.00319955
0.00316714
0.00316714
0.00320209
0.0031646
0.00319955
0.00319955
0.00316714
0.00316714
0.00319955
0.00316714
0.00316714
0.00320209
0.0031646
0.00319955
0.00316714
0.00316714
0.0031646
0.00315888
0.00312138
0.00315633
0.00315633
0.00312392
0.00312392
0.00315888
0.00312138
0.00315633
0.00315633
0.00312392
0.00312392
0.00315633
0.00312392
0.00312392
0.00315888
0.00312138
0.00315633
0.00312392
0.00312392
0.00312138
0.00311566
0.00307816
0.00311311
0.00311311
0.0030807
0.0030807
0.00311566
0.00307816
0.00311311
0.00311311
0.0030807
0.0030807
0.00311311
0.0030807
0.0030807
0.00311566
0.00307816
0.00311311
0.0030807
0.0030807
0.00307816
0.00307244
0.00303494
0.00306989
0.00306989
0.00303747
0.00303747
0.00307244
0.00303494
0.00306989
0.00306989
0.00303747
0.00303747
0.00306989
0.00303747
0.00303747
0.00307244
0.00303493
0.00306989
0.00303747
0.00303747
0.00303493
0.00302921
0.00299171
0.00302667
0.00302667
0.00299425
0.00299425
0.00302921
0.00299171
0.00302667
0.00302667
0.00299425
0.00299425
0.00302667
0.00299425
0.00299425
0.00302921
0.00299171
0.00302667
0.00299425
0.00299425
0.00299171
0.00298599
0.00294849
0.00298344
0.00298344
0.00295103
0.00295103
0.00298599
0.00294849
0.00298344
0.00298344
0.00295103
0.00295103
0.00298344
0.00295103
0.00295103
0.00298599
0.00294849
0.00298344
0.00295103
0.00295103
0.00294849
0.00294277
0.00290526
0.00294022
0.00294022
0.0029078
0.0029078
0.00294277
0.00290526
0.00294022
0.00294022
0.0029078
0.0029078
0.00294022
0.0029078
0.0029078
0.00294277
0.00290526
0.00294022
0.0029078
0.0029078
0.00290526
0.00289954
0.00286204
0.002897
0.002897
0.00286458
0.00286458
0.00289954
0.00286204
0.002897
0.002897
0.00286458
0.00286458
0.002897
0.00286458
0.00286458
0.00289954
0.00286204
0.002897
0.00286458
0.00286458
0.00286204
0.00285632
0.00281882
0.00285377
0.00285377
0.00282136
0.00282136
0.00285632
0.00281882
0.00285377
0.00285377
0.00282136
0.00282136
0.00285377
0.00282136
0.00282136
0.00285632
0.00281882
0.00285377
0.00282136
0.00282136
0.00281882
0.0028131
0.0027756
0.00281055
0.00281055
0.00277813
0.00277813
0.0028131
0.0027756
0.00281055
0.00281055
0.00277813
0.00277813
0.00281055
0.00277813
0.00277813
0.0028131
0.00277559
0.00281055
0.00277813
0.00277813
0.00277559
0.00276987
0.00273237
0.00276733
0.00276733
0.00273491
0.00273491
0.00276987
0.00273237
0.00276733
0.00276733
0.00273491
0.00273491
0.00276733
0.00273491
0.00273491
0.00276987
0.00273237
0.00276733
0.00273491
0.00273491
0.00273237
0.00272665
0.00268915
0.00272411
0.00272411
0.00269169
0.00269169
0.00272665
0.00268915
0.00272411
0.00272411
0.00269169
0.00269169
0.00272411
0.00269169
0.00269169
0.00272665
0.00268915
0.00272411
0.00269169
0.00269169
0.00268915
0.00268343
0.00264593
0.00268089
0.00268089
0.00264847
0.00264847
0.00268343
0.00264593
0.00268089
0.00268089
0.00264847
0.00264847
0.00268089
0.00264847
0.00264847
0.00268343
0.00264593
0.00268089
0.00264847
0.00264847
0.00264593
0.00264021
0.00260271
0.00263767
0.00263767
0.00260525
0.00260525
0.00264021
0.00260271
0.00263767
0.00263767
0.00260525
0.00260525
0.00263767
0.00260525
0.00260525
0.00264021
0.00260271
0.00263767
0.00260525
0.00260525
0.00260271
0.00259699
0.00255949
0.00259445
0.00259445
0.00256203
0.00256203
0.00259699
0.00255949
0.00259445
0.00259445
0.00256203
0.00256203
0.00259445
0.00256203
0.00256203
0.00259699
0.00255949
0.00259445
0.00256203
0.00256203
0.00255949
0.00255377
0.00251627
0.00255123
0.00255123
0.00251881
0.00251881
0.00255377
0.00251627
0.00255123
0.00255123
0.00251881
0.00251881
0.00255123
0.00251881
0.00251881
0.00255377
0.00251627
0.00255123
0.00251881
0.00251881
0.00251627
0.00251055
0.00247306
0.00250801
0.00250801
0.0024756
0.0024756
0.00251055
0.00247306
0.00250801
0.00250801
0.0024756
0.0024756
0.00250801
0.0024756
0.0024756
0.00251055
0.00247306
0.00250801
0.0024756
0.0024756
0.00247306
0.00246734
0.00242984
0.00246479
0.00246479
0.00243238
0.00243238
0.00246734
0.00242984
0.00246479
0.00246479
0.00243238
0.00243238
0.00246479
0.00243238
0.00243238
0.00246734
0.00242984
0.00246479
0.00243238
0.00243238
0.00242984
0.00242412
0.00238663
0.00242158
0.00242158
0.00238916
0.00238916
0.00242412
0.00238663
0.00242158
0.00242158
0.00238916
0.00238916
0.00242158
0.00238916
0.00238916
0.00242412
0.00238663
0.00242158
0.00238916
0.00238916
0.00238663
0.0023809
0.00234341
0.00237836
0.00237836
0.00234595
0.00234594
0.0023809
0.00234341
0.00237836
0.00237836
0.00234595
0.00234595
0.00237836
0.00234595
0.00234595
0.0023809
0.00234341
0.00237836
0.00234595
0.00234594
0.00234341
0.00233769
0.00230019
0.00233514
0.00233514
0.00230273
0.00230273
0.00233769
0.00230019
0.00233514
0.00233514
0.00230272
0.00230273
0.00233514
0.00230273
0.00230273
0.00233769
0.00230019
0.00233514
0.00230273
0.00230273
0.00230019
0.00229447
0.00225697
0.00229192
0.00229192
0.00225951
0.00225951
0.00229447
0.00225697
0.00229192
0.00229192
0.00225951
0.00225951
0.00229192
0.00225951
0.00225951
0.00229447
0.00225697
0.00229192
0.00225951
0.00225951
0.00225697
0.00225125
0.00221375
0.0022487
0.0022487
0.00221629
0.00221629
0.00225125
0.00221375
0.0022487
0.0022487
0.00221629
0.00221629
0.0022487
0.00221629
0.00221629
0.00225125
0.00221375
0.0022487
0.00221629
0.00221629
0.00221375
0.00220803
0.00217053
0.00220548
0.00220548
0.00217307
0.00217307
0.00220803
0.00217053
0.00220548
0.00220548
0.00217307
0.00217307
0.00220548
0.00217307
0.00217307
0.00220803
0.00217053
0.00220548
0.00217307
0.00217307
0.00217053
0.00216481
0.00212731
0.00216227
0.00216227
0.00212985
0.00212985
0.00216481
0.00212731
0.00216227
0.00216227
0.00212985
0.00212985
0.00216227
0.00212985
0.00212985
0.00216481
0.00212731
0.00216227
0.00212985
0.00212985
0.00212731
0.00212159
0.0020841
0.00211905
0.00211905
0.00208664
0.00208664
0.00212159
0.0020841
0.00211905
0.00211905
0.00208664
0.00208664
0.00211905
0.00208664
0.00208664
0.00212159
0.0020841
0.00211905
0.00208664
0.00208664
0.0020841
0.00207838
0.00204088
0.00207583
0.00207583
0.00204342
0.00204342
0.00207838
0.00204088
0.00207583
0.00207583
0.00204342
0.00204342
0.00207583
0.00204342
0.00204342
0.00207838
0.00204088
0.00207583
0.00204342
0.00204342
0.00204088
0.00203516
0.00199767
0.00203262
0.00203262
0.00200021
0.00200021
0.00203516
0.00199767
0.00203262
0.00203262
0.00200021
0.00200021
0.00203262
0.00200021
0.00200021
0.00203516
0.00199767
0.00203262
0.00200021
0.00200021
0.00199767
0.00199195
0.00195445
0.0019894
0.0019894
0.00195699
0.00195699
0.00199195
0.00195445
0.0019894
0.0019894
0.00195699
0.00195699
0.0019894
0.00195699
0.00195699
0.00199195
0.00195445
0.0019894
0.00195699
0.00195699
0.00195445
0.00194873
0.00191124
0.00194619
0.00194619
0.00191378
0.00191378
0.00194873
0.00191124
0.00194619
0.00194619
0.00191378
0.00191378
0.00194619
0.00191378
0.00191378
0.00194873
0.00191124
0.00194619
0.00191378
0.00191378
0.00191124
0.00190552
0.00186802
0.00190297
0.00190297
0.00187056
0.00187056
0.00190552
0.00186802
0.00190297
0.00190297
0.00187056
0.00187056
0.00190297
0.00187056
0.00187056
0.00190552
0.00186802
0.00190297
0.00187056
0.00187056
0.00186802
0.0018623
0.00182481
0.00185976
0.00185976
0.00182735
0.00182735
0.0018623
0.00182481
0.00185976
0.00185976
0.00182735
0.00182735
0.00185976
0.00182735
0.00182735
0.0018623
0.00182481
0.00185976
0.00182735
0.00182735
0.00182481
0.00181909
0.00178159
0.00181654
0.00181654
0.00178413
0.00178413
0.00181909
0.00178159
0.00181654
0.00181654
0.00178413
0.00178413
0.00181654
0.00178413
0.00178413
0.00181909
0.00178159
0.00181654
0.00178413
0.00178413
0.00178159
0.00177587
0.00173838
0.00177333
0.00177333
0.00174091
0.00174091
0.00177587
0.00173838
0.00177333
0.00177333
0.00174091
0.00174092
0.00177333
0.00174091
0.00174092
0.00177587
0.00173838
0.00177333
0.00174092
0.00174092
0.00173838
0.00173266
0.00169516
0.00173011
0.00173011
0.0016977
0.0016977
0.00173266
0.00169516
0.00173011
0.00173011
0.0016977
0.0016977
0.00173011
0.0016977
0.0016977
0.00173266
0.00169516
0.00173011
0.0016977
0.0016977
0.00169516
0.00168944
0.00165195
0.0016869
0.0016869
0.00165448
0.00165448
0.00168944
0.00165195
0.0016869
0.0016869
0.00165448
0.00165448
0.0016869
0.00165448
0.00165448
0.00168944
0.00165195
0.0016869
0.00165448
0.00165448
0.00165195
0.00164623
0.00160873
0.00164368
0.00164368
0.00161127
0.00161127
0.00164623
0.00160873
0.00164368
0.00164368
0.00161127
0.00161127
0.00164368
0.00161127
0.00161127
0.00164623
0.00160873
0.00164368
0.00161127
0.00161127
0.00160873
0.00160301
0.00156552
0.00160047
0.00160047
0.00156806
0.00156806
0.00160301
0.00156552
0.00160047
0.00160047
0.00156806
0.00156806
0.00160047
0.00156806
0.00156806
0.00160301
0.00156552
0.00160047
0.00156806
0.00156806
0.00156552
0.0015598
0.0015223
0.00155725
0.00155725
0.00152484
0.00152484
0.0015598
0.0015223
0.00155725
0.00155725
0.00152484
0.00152484
0.00155725
0.00152484
0.00152484
0.0015598
0.0015223
0.00155725
0.00152484
0.00152484
0.0015223
0.00151659
0.00147909
0.00151404
0.00151404
0.00148163
0.00148163
0.00151659
0.00147909
0.00151404
0.00151404
0.00148163
0.00148163
0.00151404
0.00148163
0.00148163
0.00151659
0.00147909
0.00151404
0.00148163
0.00148163
0.00147909
0.00147337
0.00143588
0.00147083
0.00147083
0.00143842
0.00143842
0.00147337
0.00143588
0.00147083
0.00147083
0.00143842
0.00143842
0.00147083
0.00143842
0.00143842
0.00147337
0.00143588
0.00147083
0.00143842
0.00143842
0.00143588
0.00143016
0.00139266
0.00142761
0.00142761
0.0013952
0.0013952
0.00143016
0.00139266
0.00142761
0.00142761
0.0013952
0.0013952
0.00142761
0.0013952
0.0013952
0.00143016
0.00139266
0.00142761
0.0013952
0.0013952
0.00139266
0.00138694
0.00134945
0.0013844
0.0013844
0.00135199
0.00135199
0.00138694
0.00134945
0.0013844
0.0013844
0.00135199
0.00135199
0.0013844
0.00135199
0.00135199
0.00138694
0.00134945
0.0013844
0.00135199
0.00135199
0.00134945
0.00134373
0.00130623
0.00134118
0.00134118
0.00130877
0.00130877
0.00134373
0.00130623
0.00134118
0.00134118
0.00130877
0.00130877
0.00134118
0.00130877
0.00130877
0.00134373
0.00130623
0.00134118
0.00130877
0.00130877
0.00130623
0.00130052
0.00126302
0.00129797
0.00129797
0.00126556
0.00126556
0.00130052
0.00126302
0.00129797
0.00129797
0.00126556
0.00126556
0.00129797
0.00126556
0.00126556
0.00130052
0.00126302
0.00129797
0.00126556
0.00126556
0.00126302
0.0012573
0.00121981
0.00125476
0.00125476
0.00122235
0.00122235
0.0012573
0.00121981
0.00125476
0.00125476
0.00122235
0.00122235
0.00125476
0.00122235
0.00122235
0.0012573
0.00121981
0.00125476
0.00122235
0.00122235
0.00121981
0.00121409
0.00117659
0.00121154
0.00121154
0.00117913
0.00117913
0.00121409
0.00117659
0.00121154
0.00121154
0.00117913
0.00117913
0.00121154
0.00117913
0.00117913
0.00121409
0.00117659
0.00121154
0.00117913
0.00117913
0.00117659
0.00117087
0.00113337
0.00116833
0.00116833
0.00113591
0.00113591
0.00117087
0.00113337
0.00116833
0.00116833
0.00113591
0.00113591
0.00116833
0.00113591
0.00113591
0.00117087
0.00113337
0.00116833
0.00113591
0.00113591
0.00113337
0.00112765
0.00109016
0.00112511
0.00112511
0.0010927
0.0010927
0.00112765
0.00109016
0.00112511
0.00112511
0.0010927
0.0010927
0.00112511
0.0010927
0.0010927
0.00112765
0.00109016
0.00112511
0.0010927
0.0010927
0.00109016
0.00108444
0.00104694
0.00108189
0.00108189
0.00104948
0.00104948
0.00108444
0.00104694
0.00108189
0.00108189
0.00104948
0.00104948
0.00108189
0.00104948
0.00104948
0.00108444
0.00104694
0.00108189
0.00104948
0.00104948
0.00104694
0.00104122
0.00100372
0.00103867
0.00103867
0.00100626
0.00100626
0.00104122
0.00100372
0.00103867
0.00103867
0.00100626
0.00100626
0.00103868
0.00100626
0.00100626
0.00104122
0.00100372
0.00103868
0.00100626
0.00100626
0.00100372
0.000998003
0.000960506
0.000995458
0.000995458
0.000963045
0.000963045
0.000998003
0.000960506
0.000995458
0.000995458
0.000963045
0.000963045
0.000995458
0.000963045
0.000963046
0.000998003
0.000960506
0.000995458
0.000963045
0.000963045
0.000960506
0.000954786
0.000917289
0.000952241
0.000952241
0.000919828
0.000919828
0.000954786
0.000917289
0.000952241
0.000952241
0.000919828
0.000919828
0.000952241
0.000919828
0.000919828
0.000954786
0.000917289
0.000952241
0.000919828
0.000919828
0.000917289
0.000911568
0.00087407
0.000909023
0.000909023
0.000876609
0.000876609
0.000911568
0.00087407
0.000909023
0.000909023
0.000876609
0.000876609
0.000909024
0.000876609
0.000876609
0.000911568
0.00087407
0.000909023
0.000876609
0.000876609
0.00087407
0.000868349
0.000830849
0.000865804
0.000865804
0.000833389
0.000833389
0.000868349
0.00083085
0.000865804
0.000865804
0.000833389
0.000833389
0.000865804
0.000833389
0.000833389
0.000868349
0.000830849
0.000865804
0.000833389
0.000833389
0.000830849
0.000825129
0.000787629
0.000822584
0.000822584
0.000790168
0.000790168
0.000825129
0.000787629
0.000822584
0.000822584
0.000790168
0.000790168
0.000822584
0.000790168
0.000790168
0.000825129
0.000787629
0.000822584
0.000790168
0.000790168
0.000787629
0.000781908
0.000744408
0.000779363
0.000779363
0.000746947
0.000746947
0.000781908
0.000744408
0.000779363
0.000779363
0.000746947
0.000746947
0.000779363
0.000746947
0.000746947
0.000781908
0.000744408
0.000779363
0.000746947
0.000746947
0.000744408
0.000738687
0.000701185
0.000736142
0.000736141
0.000703725
0.000703725
0.000738687
0.000701185
0.000736141
0.000736142
0.000703724
0.000703725
0.000736142
0.000703725
0.000703725
0.000738687
0.000701185
0.000736142
0.000703725
0.000703725
0.000701185
0.000695464
0.000657961
0.000692919
0.000692919
0.000660501
0.000660501
0.000695464
0.000657962
0.000692919
0.000692919
0.000660501
0.000660501
0.000692919
0.000660501
0.000660501
0.000695464
0.000657961
0.000692919
0.000660501
0.000660501
0.000657962
0.00065224
0.000614737
0.000649695
0.000649695
0.000617277
0.000617276
0.00065224
0.000614737
0.000649695
0.000649695
0.000617276
0.000617277
0.000649695
0.000617277
0.000617277
0.00065224
0.000614737
0.000649695
0.000617277
0.000617277
0.000614737
0.000609016
0.000571511
0.00060647
0.00060647
0.000574051
0.000574051
0.000609016
0.000571512
0.00060647
0.00060647
0.000574051
0.000574051
0.00060647
0.000574051
0.000574051
0.000609016
0.000571511
0.00060647
0.000574051
0.000574051
0.000571511
0.00056579
0.000528286
0.000563245
0.000563244
0.000530825
0.000530825
0.00056579
0.000528286
0.000563244
0.000563245
0.000530825
0.000530825
0.000563245
0.000530825
0.000530825
0.00056579
0.000528285
0.000563244
0.000530825
0.000530825
0.000528286
0.000522564
0.00048506
0.000520019
0.000520019
0.000487599
0.000487599
0.000522564
0.00048506
0.000520019
0.000520019
0.000487599
0.000487599
0.000520019
0.000487599
0.000487599
0.000522564
0.00048506
0.000520019
0.000487599
0.000487599
0.00048506
0.000479338
0.000441834
0.000476793
0.000476793
0.000444373
0.000444373
0.000479338
0.000441834
0.000476793
0.000476793
0.000444373
0.000444373
0.000476793
0.000444373
0.000444373
0.000479338
0.000441833
0.000476793
0.000444373
0.000444373
0.000441834
0.000436112
0.000398606
0.000433567
0.000433566
0.000401146
0.000401146
0.000436112
0.000398607
0.000433566
0.000433566
0.000401146
0.000401146
0.000433567
0.000401146
0.000401146
0.000436112
0.000398607
0.000433566
0.000401146
0.000401146
0.000398607
0.000392885
0.000355378
0.000390339
0.000390339
0.000357918
0.000357918
0.000392885
0.000355378
0.000390339
0.000390339
0.000357918
0.000357918
0.000390339
0.000357918
0.000357918
0.000392885
0.000355378
0.000390339
0.000357918
0.000357918
0.000355378
0.000349656
0.00031215
0.000347111
0.000347111
0.000314689
0.000314689
0.000349656
0.00031215
0.000347111
0.000347111
0.000314689
0.000314689
0.000347111
0.000314689
0.000314689
0.000349657
0.000312149
0.000347111
0.000314689
0.000314689
0.00031215
0.000306428
0.000268921
0.000303882
0.000303882
0.000271461
0.000271461
0.000306428
0.000268921
0.000303882
0.000303882
0.000271461
0.000271461
0.000303883
0.000271461
0.000271461
0.000306428
0.000268921
0.000303882
0.000271461
0.000271461
0.000268921
0.000263199
0.000225689
0.000260654
0.000260654
0.00022823
0.00022823
0.000263199
0.000225689
0.000260654
0.000260654
0.000228229
0.000228229
0.000260654
0.00022823
0.00022823
0.000263199
0.000225688
0.000260654
0.000228229
0.00022823
0.000225689
0.000219961
0.000182455
0.000217419
0.000217419
0.000184983
0.000184983
0.000219961
0.000182455
0.000217419
0.000217419
0.000184983
0.000184983
0.000217419
0.000184983
0.000184983
0.000219961
0.000182454
0.000217419
0.000184983
0.000184983
0.000182455
0.000176725
0.00013923
0.000174187
0.000174187
0.00014177
0.000141771
0.000176724
0.00013923
0.000174186
0.000174186
0.000141771
0.00014177
0.000174187
0.000141771
0.00014177
0.000176724
0.00013923
0.000174186
0.00014177
0.00014177
0.00013923
0.000133455
9.59844e-05
0.000130934
0.000130934
9.85202e-05
9.85208e-05
0.000133455
9.5985e-05
0.000130934
0.000130934
9.85201e-05
9.85196e-05
0.000130934
9.85203e-05
9.85195e-05
0.000133455
9.59835e-05
0.000130934
9.85193e-05
9.85194e-05
9.59836e-05
9.02028e-05
5.27794e-05
8.77074e-05
8.77076e-05
5.53188e-05
5.53193e-05
9.02024e-05
5.27805e-05
8.77071e-05
8.77063e-05
5.53167e-05
5.53163e-05
8.77063e-05
5.53179e-05
5.53159e-05
9.0202e-05
5.27769e-05
8.77068e-05
5.53153e-05
5.53147e-05
5.27765e-05
4.69828e-05
1.34698e-05
4.46182e-05
4.46184e-05
1.57167e-05
1.57159e-05
4.69833e-05
1.34696e-05
4.46159e-05
4.46146e-05
1.57146e-05
1.57109e-05
4.46138e-05
1.57133e-05
1.57092e-05
4.69796e-05
1.34654e-05
4.46129e-05
1.57114e-05
1.57108e-05
1.34641e-05
9.69664e-06
1.01373e-05
1.01375e-05
9.6976e-06
1.01357e-05
1.01333e-05
9.8681e-06
9.86611e-06
9.86572e-06
1.01323e-05
9.69377e-06
1.01329e-05
0.00412451
0.00413427
0.00412906
0.00412907
0.00415144
0.00413823
0.00416683
0.00413228
0.00415144
0.00413823
0.00413228
0.00416683
0.0041428
0.00417056
0.00417057
0.00407986
0.004099
0.0041082
0.00407192
0.00407271
0.00407545
0.00407984
0.00409898
0.00410819
0.0040719
0.00410272
0.00410272
0.00410272
0.0040593
0.0040593
0.00405929
0.00405929
0.00407737
0.00410319
0.00410312
0.00408619
0.00410621
0.00407627
0.00408707
0.00407281
0.00407545
0.00407737
0.00410312
0.00410321
0.00408619
0.00410621
0.00408707
0.00407627
0.00410906
0.00410905
0.00408059
0.00407589
0.00407589
0.00403316
0.00405254
0.00405388
0.0040316
0.00405143
0.00403118
0.00403315
0.00405254
0.00405388
0.0040316
0.00404737
0.00404737
0.00404737
0.00400977
0.00400977
0.00400977
0.00400977
0.00403176
0.00405259
0.00404736
0.00403551
0.00405138
0.00403226
0.00403523
0.00405143
0.00403117
0.00403176
0.00404736
0.00405259
0.00403551
0.00405138
0.00403523
0.00403226
0.00405363
0.00405363
0.00403204
0.00403254
0.00403254
0.00398075
0.00399997
0.00400102
0.0039797
0.00399962
0.00397942
0.00398075
0.00399997
0.00400102
0.0039797
0.00399659
0.00399659
0.00399659
0.0039572
0.0039572
0.0039572
0.0039572
0.00397997
0.00400031
0.00399648
0.00398339
0.00399969
0.00398025
0.00398333
0.00399962
0.00397942
0.00397997
0.00399648
0.00400031
0.00398339
0.00399969
0.00398333
0.00398025
0.00400061
0.00400061
0.00398003
0.00398026
0.00398026
0.0039284
0.00394705
0.0039479
0.00392763
0.0039468
0.0039275
0.0039284
0.00394705
0.0039479
0.00392763
0.00394429
0.00394429
0.00394429
0.00390599
0.00390599
0.00390599
0.00390599
0.0039279
0.00394747
0.00394425
0.00393127
0.00394721
0.00392806
0.0039313
0.0039468
0.0039275
0.0039279
0.00394425
0.00394747
0.00393126
0.00394721
0.0039313
0.00392806
0.00394745
0.00394745
0.00392793
0.00392807
0.00392807
0.00387778
0.00389527
0.00389607
0.00387756
0.00389491
0.00387727
0.00387778
0.00389527
0.00389607
0.00387756
0.00389372
0.00389372
0.00389372
0.00385915
0.00385916
0.00385916
0.00385916
0.00387816
0.00389581
0.00389361
0.00388163
0.00389589
0.00387808
0.00388173
0.00389491
0.00387727
0.00387815
0.0038936
0.00389581
0.00388163
0.00389589
0.00388173
0.00387808
0.00389537
0.00389537
0.00387849
0.00387758
0.00387758
0.00383429
0.00385026
0.00385031
0.00383422
0.00385026
0.00383426
0.00383429
0.00385026
0.00385031
0.00383423
0.00384815
0.00384815
0.00384815
0.00381552
0.00381552
0.00381552
0.00381552
0.00383443
0.00385048
0.00384808
0.00383717
0.00385049
0.00383439
0.00383718
0.00385028
0.00383427
0.00383443
0.00384808
0.00385049
0.00383717
0.00385049