/*--------------------------------*- C++ -*----------------------------------*\
| =========                 |                                                 |
| \\      /  F ield         | OpenFOAM: The Open Source CFD Toolbox           |
|  \\    /   O peration     | Version:  2206                                  |
|   \\  /    A nd           | Website:  www.openfoam.com                      |
|    \\/     M anipulation  |                                                 |
\*---------------------------------------------------------------------------*/
FoamFile
{
    version     2.0;
    format      ascii;
    arch        "LSB;label=32;scalar=64";
    class       volScalarField;
    location    "23.5";
    object      Ux;
}
// * * * * * * * * * * * * * * * * * * * * * * * * * * * * * * * * * * * * * //

dimensions      [0 1 -1 0 0 0 0];

internalField   nonuniform List<scalar> 
171728
(
0.000108183
-0.000190232
0.000119287
-0.000239247
9.49964e-05
-0.000160545
9.80616e-05
-0.000200428
9.58343e-05
-0.000157782
9.43019e-05
-0.000199419
9.00633e-05
-0.00014717
8.66202e-05
-0.000190808
7.47818e-05
-0.00011567
6.48373e-05
-0.000162415
3.17061e-05
-4.23848e-05
2.72835e-05
-8.04359e-05
5.51044e-06
-7.78396e-06
5.98966e-06
-4.86079e-05
-1.23428e-07
-9.6654e-07
1.05519e-06
-4.28809e-05
-6.32879e-07
-4.516e-07
6.83818e-07
-4.25529e-05
-6.56448e-07
-4.38633e-07
6.71065e-07
-4.25439e-05
-6.54106e-07
-4.39449e-07
6.72076e-07
-4.25444e-05
-6.58427e-07
-4.4251e-07
6.71244e-07
-4.25451e-05
-6.57026e-07
-4.49934e-07
6.71292e-07
-4.25458e-05
-6.57023e-07
-4.47199e-07
6.70936e-07
-4.25458e-05
-6.60646e-07
-4.40749e-07
6.7015e-07
-4.25453e-05
-6.61832e-07
-4.39814e-07
6.69587e-07
-4.25447e-05
-6.60257e-07
-4.40668e-07
6.69975e-07
-4.25441e-05
-6.59397e-07
-4.41314e-07
6.70572e-07
-4.25456e-05
-6.56427e-07
-4.4224e-07
6.71327e-07
-4.25456e-05
-6.50034e-07
-4.39888e-07
6.72631e-07
-4.25467e-05
-6.46518e-07
-4.45695e-07
6.72711e-07
-4.25452e-05
-6.55848e-07
-4.42845e-07
6.71558e-07
-4.25451e-05
-6.57581e-07
-4.40305e-07
6.70719e-07
-4.25442e-05
-6.59104e-07
-4.3962e-07
6.70395e-07
-4.25439e-05
-6.59672e-07
-4.39676e-07
6.70092e-07
-4.25445e-05
-6.59352e-07
-4.40239e-07
6.70775e-07
-4.25455e-05
-6.58798e-07
-4.40585e-07
6.71185e-07
-4.25458e-05
-6.58154e-07
-4.4118e-07
6.71702e-07
-4.25467e-05
-6.5858e-07
-4.40888e-07
6.71111e-07
-4.25462e-05
-6.5886e-07
-4.40204e-07
6.7113e-07
-4.25455e-05
-6.59131e-07
-4.39765e-07
6.70671e-07
-4.25458e-05
-6.59899e-07
-4.39212e-07
6.70246e-07
-4.25448e-05
-6.59204e-07
-4.39255e-07
6.70661e-07
-4.25449e-05
-6.59135e-07
-4.39852e-07
6.70706e-07
-4.25454e-05
-6.58609e-07
-4.40466e-07
6.71401e-07
-4.2546e-05
-6.58406e-07
-4.408e-07
6.71602e-07
-4.25463e-05
-6.58336e-07
-4.408e-07
6.71746e-07
-4.25464e-05
-6.59062e-07
-4.39806e-07
6.70944e-07
-4.25457e-05
-6.59343e-07
-4.39648e-07
6.70763e-07
-4.25455e-05
-6.59499e-07
-4.38411e-07
6.69373e-07
-4.25418e-05
-6.54507e-07
-4.36738e-07
6.69667e-07
-4.25425e-05
-6.61834e-07
-4.40258e-07
6.70393e-07
-4.25469e-05
-6.58782e-07
-4.40151e-07
6.70644e-07
-4.25463e-05
-6.56998e-07
-4.40878e-07
6.7145e-07
-4.25468e-05
-6.57335e-07
-4.40968e-07
6.70216e-07
-4.25461e-05
-6.57594e-07
-4.41075e-07
6.70436e-07
-4.25462e-05
-6.57823e-07
-4.39899e-07
6.69604e-07
-4.25451e-05
-6.58086e-07
-4.39963e-07
6.70046e-07
-4.25452e-05
-6.58309e-07
-4.40188e-07
6.70026e-07
-4.25457e-05
-6.5778e-07
-4.40645e-07
6.70455e-07
-4.25459e-05
-6.56937e-07
-4.41801e-07
6.70925e-07
-4.25468e-05
-6.57239e-07
-4.41276e-07
6.70939e-07
-4.25465e-05
-6.56797e-07
-4.41908e-07
6.71112e-07
-4.25464e-05
-6.56464e-07
-4.40515e-07
6.70486e-07
-4.25451e-05
-6.55541e-07
-4.39716e-07
6.70627e-07
-4.25442e-05
-6.57841e-07
-4.40403e-07
6.69927e-07
-4.25458e-05
-6.57222e-07
-4.42033e-07
6.70523e-07
-4.25478e-05
-6.55924e-07
-4.43193e-07
6.71586e-07
-4.25488e-05
-6.55591e-07
-4.43251e-07
6.71771e-07
-4.25488e-05
-6.55216e-07
-4.44333e-07
6.72442e-07
-4.25494e-05
-6.55578e-07
-4.43222e-07
6.72239e-07
-4.25488e-05
-6.55551e-07
-4.42816e-07
6.71668e-07
-4.25482e-05
-6.56623e-07
-4.42e-07
6.71014e-07
-4.25478e-05
-6.57033e-07
-4.41924e-07
6.71089e-07
-4.25469e-05
-6.56075e-07
-4.42564e-07
6.71511e-07
-4.25482e-05
-6.56039e-07
-4.42456e-07
6.71227e-07
-4.25479e-05
-6.55394e-07
-4.43736e-07
6.72534e-07
-4.25491e-05
-6.55222e-07
-4.43489e-07
6.72241e-07
-4.25494e-05
-6.55112e-07
-4.43374e-07
6.73364e-07
-4.25501e-05
-6.5538e-07
-4.42442e-07
6.78814e-07
-4.25531e-05
-6.55934e-07
-4.42061e-07
6.7482e-07
-4.25512e-05
-6.56544e-07
-4.41832e-07
6.71312e-07
-4.25477e-05
-6.56432e-07
-4.42006e-07
6.71387e-07
-4.25476e-05
-6.55615e-07
-4.43124e-07
6.71909e-07
-4.2549e-05
-6.55673e-07
-4.43332e-07
6.72006e-07
-4.25495e-05
-6.54995e-07
-4.43837e-07
6.73107e-07
-4.25495e-05
-6.55534e-07
-4.43568e-07
6.72211e-07
-4.25497e-05
-6.5623e-07
-4.42389e-07
6.71608e-07
-4.25488e-05
-6.56481e-07
-4.42243e-07
6.71662e-07
-4.25486e-05
-6.56837e-07
-4.41952e-07
6.71239e-07
-4.25481e-05
-6.56382e-07
-4.42297e-07
6.71494e-07
-4.25486e-05
-6.55879e-07
-4.42949e-07
6.7187e-07
-4.25493e-05
-6.55215e-07
-4.43651e-07
6.72186e-07
-4.25495e-05
-6.55386e-07
-4.43608e-07
6.7218e-07
-4.25495e-05
-6.55393e-07
-4.43392e-07
6.7201e-07
-4.25495e-05
-6.5612e-07
-4.42561e-07
6.71684e-07
-4.25487e-05
-6.56651e-07
-4.41683e-07
6.71352e-07
-4.25482e-05
-6.6061e-07
-4.37732e-07
6.67923e-07
-4.25472e-05
-6.71731e-07
-4.33667e-07
6.60358e-07
-4.25214e-05
-6.73417e-07
-5.07826e-07
6.77026e-07
-4.23229e-05
-7.23167e-07
-7.96226e-07
9.31798e-07
-4.18156e-05
-1.99714e-07
-1.81287e-06
1.57332e-06
-4.07549e-05
-2.80999e-07
-3.2446e-06
2.7467e-06
-3.88566e-05
-5.68057e-06
-2.35013e-06
3.15924e-06
-2.65645e-05
-4.21435e-05
4.15251e-05
-3.45774e-05
4.81178e-05
0.00013522
0.000124266
-0.000124258
-0.000135216
0.000152892
0.000152863
9.07183e-05
-9.07085e-05
9.0692e-05
-9.06896e-05
-0.000152887
-0.000152872
0.000135209
0.000124218
-0.000124214
-0.000135218
0.000239291
0.000112009
0.000119338
-0.000119289
8.90564e-05
-8.90182e-05
-0.000239302
-0.000111968
0.000190268
0.000190207
0.000147578
0.00014761
-0.000190189
-0.000147548
-0.000147568
0.000239221
0.000111959
-0.000119267
8.90281e-05
-8.90071e-05
-0.000111956
0.000200515
0.000106428
9.80656e-05
-9.80406e-05
9.1924e-05
-9.19233e-05
-0.000200478
-0.00010642
0.00016058
0.000160594
0.000153591
0.000153633
-0.000160573
-0.000153588
-0.000153613
0.000200426
0.000106395
-9.80438e-05
9.19256e-05
-9.19306e-05
-0.000106408
0.000199483
9.77207e-05
9.42972e-05
-9.43031e-05
8.72927e-05
-8.72818e-05
-0.000199475
-9.77037e-05
0.000157791
0.000157831
0.000147985
0.000148015
-0.000157814
-0.000147982
-0.000148016
0.000199402
9.76717e-05
-9.43121e-05
8.72987e-05
-8.72863e-05
-9.77316e-05
0.00019084
8.1872e-05
8.66244e-05
-8.66166e-05
7.80422e-05
-7.80255e-05
-0.000190829
-8.18666e-05
0.00014718
0.000147206
0.000136067
0.000136102
-0.00014721
-0.000136074
-0.000136115
0.000190745
8.18253e-05
-8.66074e-05
7.80716e-05
-7.80462e-05
-8.18959e-05
0.000162427
-2.40324e-07
6.48671e-05
-6.48773e-05
3.45565e-05
-3.45747e-05
-0.000162448
2.20924e-07
0.000115663
0.000115705
5.67674e-05
5.67816e-05
-0.000115712
-5.67759e-05
-5.67696e-05
0.000162351
-1.92103e-07
-6.48068e-05
3.45246e-05
-3.45217e-05
2.21279e-07
8.04467e-05
-3.63151e-05
2.7314e-05
-2.73307e-05
9.542e-06
-9.54457e-06
-8.04672e-05
3.63185e-05
4.23895e-05
4.23937e-05
1.28481e-05
1.2862e-05
-4.23803e-05
-1.2842e-05
-1.28588e-05
8.04397e-05
-3.62965e-05
-2.72823e-05
9.51639e-06
-9.51662e-06
3.6299e-05
4.86206e-05
-4.39054e-05
6.01827e-06
-6.01399e-06
1.50167e-06
-1.49592e-06
-4.8614e-05
4.39094e-05
7.79445e-06
7.80573e-06
1.54936e-06
1.56426e-06
-7.80634e-06
-1.54542e-06
-1.56777e-06
4.85936e-05
-4.38806e-05
-5.98944e-06
1.47127e-06
-1.47197e-06
4.3883e-05
4.28862e-05
-4.44037e-05
1.08057e-06
-1.07816e-06
7.28005e-07
-7.2763e-07
-4.28838e-05
4.44072e-05
9.72802e-07
9.86516e-07
4.74707e-07
4.93564e-07
-9.87984e-07
-4.72482e-07
-4.93363e-07
4.28682e-05
-4.43777e-05
-1.05505e-06
7.02671e-07
-7.01653e-07
4.43826e-05
4.25594e-05
-4.4419e-05
7.08199e-07
-7.08005e-07
6.96318e-07
-6.94719e-07
-4.25575e-05
4.44243e-05
4.56908e-07
4.72939e-07
4.41334e-07
4.60446e-07
-4.7136e-07
-4.38438e-07
-4.59688e-07
4.25422e-05
-4.43921e-05
-6.82307e-07
6.7008e-07
-6.69041e-07
4.43972e-05
4.2551e-05
-4.44156e-05
6.9685e-07
-6.93981e-07
7.04548e-07
-6.94737e-07
-4.2548e-05
4.44281e-05
4.45109e-07
4.6134e-07
4.42409e-07
4.61925e-07
-4.59489e-07
-4.38583e-07
-4.60185e-07
4.25337e-05
-4.43904e-05
-6.69238e-07
6.71001e-07
-6.68595e-07
4.43969e-05
4.25542e-05
-4.44166e-05
7.0507e-07
-6.94389e-07
6.94817e-07
-6.96623e-07
-4.25482e-05
4.44265e-05
4.45784e-07
4.62823e-07
4.41807e-07
4.61813e-07
-4.6012e-07
-4.40093e-07
-4.60898e-07
4.25354e-05
-4.43909e-05
-6.69185e-07
6.7036e-07
-6.6897e-07
4.43961e-05
4.25516e-05
-4.44182e-05
6.95263e-07
-6.96774e-07
6.92592e-07
-6.95731e-07
-4.25498e-05
4.44232e-05
4.45639e-07
4.62329e-07
4.40358e-07
4.61127e-07
-4.60855e-07
-4.47318e-07
-4.62445e-07
4.25345e-05
-4.43912e-05
-6.69514e-07
6.70215e-07
-6.68955e-07
4.4395e-05
4.25505e-05
-4.44191e-05
6.93849e-07
-6.95595e-07
6.92291e-07
-6.93246e-07
-4.2553e-05
4.44206e-05
4.4407e-07
4.61585e-07
4.40257e-07
4.60165e-07
-4.62499e-07
-4.4728e-07
-4.62972e-07
4.25342e-05
-4.4392e-05
-6.69339e-07
6.69986e-07
-6.68915e-07
4.4395e-05
4.255e-05
-4.44165e-05
6.94198e-07
-6.9433e-07
6.90882e-07
-6.96618e-07
-4.25552e-05
4.44232e-05
4.43518e-07
4.60738e-07
4.40006e-07
4.59867e-07
-4.62303e-07
-4.40211e-07
-4.61386e-07
4.25334e-05
-4.43924e-05
-6.69408e-07
6.69403e-07
-6.69253e-07
4.43961e-05
4.25504e-05
-4.44189e-05
6.89612e-07
-6.98863e-07
6.86822e-07
-7.05514e-07
-4.25546e-05
4.44206e-05
4.43275e-07
4.60491e-07
4.39337e-07
4.5963e-07
-4.60809e-07
-4.40025e-07
-4.60751e-07
4.25332e-05
-4.43926e-05
-6.69829e-07
6.68698e-07
-6.69193e-07
4.43966e-05
4.25483e-05
-4.44162e-05
6.8655e-07
-7.02391e-07
6.89323e-07
-6.9617e-07
-4.25536e-05
4.44216e-05
4.42819e-07
4.601e-07
4.40447e-07
4.59562e-07
-4.6025e-07
-4.39297e-07
-4.59699e-07
4.25331e-05
-4.43928e-05
-6.69564e-07
6.68664e-07
-6.6861e-07
4.43973e-05
4.25503e-05
-4.44161e-05
6.89332e-07
-6.96615e-07
6.90212e-07
-6.95151e-07
-4.25511e-05
4.44234e-05
4.44213e-07
4.60578e-07
4.41745e-07
4.60559e-07
-4.59839e-07
-4.40234e-07
-4.60837e-07
4.25331e-05
-4.43919e-05
-6.69285e-07
6.69485e-07
-6.69505e-07
4.43962e-05
4.25513e-05
-4.44185e-05
6.88122e-07
-6.96315e-07
6.91705e-07
-7.00249e-07
-4.25498e-05
4.44223e-05
4.44899e-07
4.61351e-07
4.41223e-07
4.61338e-07
-4.60583e-07
-4.40887e-07
-4.61171e-07
4.25343e-05
-4.43915e-05
-6.69848e-07
6.69942e-07
-6.68809e-07
4.43965e-05
4.25523e-05
-4.4419e-05
6.94611e-07
-7.02692e-07
6.94704e-07
-6.9188e-07
-4.25547e-05
4.44264e-05
4.44781e-07
4.62197e-07
4.42695e-07
4.61715e-07
-4.62335e-07
-4.40771e-07
-4.67101e-07
4.2535e-05
-4.43907e-05
-6.69113e-07
6.7125e-07
-6.67869e-07
4.43944e-05
4.25553e-05
-4.44231e-05
6.95922e-07
-6.81888e-07
6.98367e-07
-6.95533e-07
-4.25384e-05
4.44152e-05
4.47256e-07
4.62376e-07
4.48687e-07
4.62078e-07
-4.67027e-07
-4.44999e-07
-4.60743e-07
4.25354e-05
-4.43904e-05
-6.68195e-07
6.71812e-07
-6.68146e-07
4.4396e-05
4.25524e-05
-4.44217e-05
6.9994e-07
-6.94778e-07
6.91797e-07
-6.93375e-07
-4.25545e-05
4.44262e-05
4.51021e-07
4.62976e-07
4.43527e-07
4.6134e-07
-4.60323e-07
-4.41393e-07
-4.60867e-07
4.25351e-05
-4.43907e-05
-6.69069e-07
6.70855e-07
-6.68799e-07
4.43958e-05
4.25551e-05
-4.44214e-05
6.92255e-07
-6.96161e-07
6.92559e-07
-6.9656e-07
-4.25458e-05
4.44224e-05
4.44923e-07
4.61553e-07
4.41412e-07
4.60463e-07
-4.60215e-07
-4.39617e-07
-4.59989e-07
4.25345e-05
-4.43916e-05
-6.69375e-07
6.69891e-07
-6.68933e-07
4.43968e-05
4.25559e-05
-4.44224e-05
6.92789e-07
-6.97233e-07
6.92203e-07
-6.96971e-07
-4.25483e-05
4.44221e-05
4.44568e-07
4.6109e-07
4.39855e-07
4.59758e-07
-4.59583e-07
-4.38766e-07
-4.59675e-07
4.25337e-05
-4.43921e-05
-6.69289e-07
6.69247e-07
-6.68326e-07
4.43973e-05
4.25552e-05
-4.44228e-05
6.92855e-07
-6.97882e-07
6.91959e-07
-6.96985e-07
-4.25486e-05
4.44222e-05
4.43568e-07
4.60497e-07
4.39525e-07
4.59596e-07
-4.59384e-07
-4.38596e-07
-4.5913e-07
4.25332e-05
-4.43922e-05
-6.69178e-07
6.68947e-07
-6.68556e-07
4.43967e-05
4.25548e-05
-4.4422e-05
6.92355e-07
-6.97824e-07
6.92995e-07
-6.97572e-07
-4.25487e-05
4.44214e-05
4.43439e-07
4.60414e-07
4.40338e-07
4.60312e-07
-4.58815e-07
-4.39355e-07
-4.59807e-07
4.25331e-05
-4.43915e-05
-6.69125e-07
6.69677e-07
-6.69229e-07
4.43957e-05
4.25557e-05
-4.44213e-05
6.93459e-07
-6.9835e-07
6.93867e-07
-6.97833e-07
-4.25495e-05
4.44206e-05
4.44277e-07
4.6111e-07
4.40583e-07
4.60614e-07
-4.59572e-07
-4.39569e-07
-4.59634e-07
4.25339e-05
-4.43911e-05
-6.69848e-07
6.70044e-07
-6.69327e-07
4.43955e-05
4.25564e-05
-4.44208e-05
6.94507e-07
-6.98676e-07
6.94952e-07
-6.97612e-07
-4.25503e-05
4.44211e-05
4.44516e-07
4.61444e-07
4.41345e-07
4.61543e-07
-4.59546e-07
-4.40128e-07
-4.60814e-07
4.25343e-05
-4.43905e-05
-6.6998e-07
6.7074e-07
-6.70132e-07
4.43944e-05
4.25569e-05
-4.44212e-05
6.9521e-07
-6.99e-07
6.94672e-07
-6.9713e-07
-4.255e-05
4.44208e-05
4.45176e-07
4.62311e-07
4.40771e-07
4.6078e-07
-4.60492e-07
-4.40057e-07
-4.60269e-07
4.25349e-05
-4.43914e-05
-6.70674e-07
6.69987e-07
-6.69877e-07
4.43949e-05
4.25563e-05
-4.44214e-05
6.94761e-07
-6.99215e-07
6.94061e-07
-6.96228e-07
-4.25501e-05
4.44212e-05
4.44517e-07
4.61517e-07
4.40539e-07
4.60897e-07
-4.59978e-07
-4.3955e-07
-4.59439e-07
4.25339e-05
-4.43906e-05
-6.70394e-07
6.70416e-07
-6.69198e-07
4.43955e-05
4.2556e-05
-4.44217e-05
6.94398e-07
-6.99596e-07
6.94474e-07
-6.94545e-07
-4.25499e-05
4.44214e-05
4.44197e-07
4.61371e-07
4.40206e-07
4.60238e-07
-4.59078e-07
-4.39178e-07
-4.59623e-07
4.25344e-05
-4.43916e-05
-6.69527e-07
6.69839e-07
-6.69523e-07
4.43952e-05
4.25558e-05
-4.44227e-05
6.94427e-07
-7.0207e-07
6.93137e-07
-6.95701e-07
-4.25504e-05
4.44232e-05
4.43865e-07
4.60809e-07
4.38969e-07
4.59222e-07
-4.59153e-07
-4.38206e-07
-4.58509e-07
4.25336e-05
-4.43922e-05
-6.69757e-07
6.69235e-07
-6.6866e-07
4.43963e-05
4.25548e-05
-4.44218e-05
6.93745e-07
-6.99063e-07
6.94308e-07
-6.98604e-07
-4.25492e-05
4.44231e-05
4.42855e-07
4.60039e-07
4.4004e-07
4.60029e-07
-4.58509e-07
-4.38619e-07
-4.58687e-07
4.2533e-05
-4.43917e-05
-6.69334e-07
6.69726e-07
-6.68712e-07
4.43962e-05
4.25559e-05
-4.44223e-05
6.9447e-07
-6.99166e-07
6.93854e-07
-6.98767e-07
-4.25489e-05
4.44235e-05
4.43794e-07
4.60804e-07
4.39712e-07
4.59869e-07
-4.58505e-07
-4.38836e-07
-4.59129e-07
4.25337e-05
-4.43919e-05
-6.69186e-07
6.69561e-07
-6.69137e-07
4.43957e-05
4.25553e-05
-4.44209e-05
6.9419e-07
-6.99693e-07
6.94703e-07
-6.99512e-07
-4.25487e-05
4.44233e-05
4.43786e-07
4.60888e-07
4.40934e-07
4.61071e-07
-4.59164e-07
-4.39371e-07
-4.60035e-07
4.25335e-05
-4.43907e-05
-6.69756e-07
6.70388e-07
-6.69505e-07
4.43951e-05
4.25566e-05
-4.44214e-05
6.94883e-07
-7.00294e-07
6.94513e-07
-7.00081e-07
-4.25489e-05
4.44223e-05
4.44604e-07
4.61782e-07
4.40919e-07
4.61081e-07
-4.60024e-07
-4.39974e-07
-4.60149e-07
4.25346e-05
-4.4391e-05
-6.7021e-07
6.7045e-07
-6.69924e-07
4.43948e-05
4.25563e-05
-4.4421e-05
6.95012e-07
-7.00725e-07
6.94758e-07
-6.99914e-07
-4.25497e-05
4.4423e-05
4.44915e-07
4.61986e-07
4.41154e-07
4.61216e-07
-4.6006e-07
-4.39657e-07
-4.60315e-07
4.25344e-05
-4.43906e-05
-6.70467e-07
6.7073e-07
-6.70083e-07
4.43946e-05
4.25564e-05
-4.44217e-05
6.95184e-07
-7.00539e-07
6.93857e-07
-7.00103e-07
-4.25491e-05
4.44225e-05
4.44932e-07
4.62077e-07
4.40468e-07
4.60613e-07
-4.60256e-07
-4.39494e-07
-4.59507e-07
4.25346e-05
-4.43912e-05
-6.70589e-07
6.70198e-07
-6.69628e-07
4.43951e-05
4.25557e-05
-4.44219e-05
6.94605e-07
-6.99786e-07
6.93411e-07
-6.9943e-07
-4.25491e-05
4.44239e-05
4.43822e-07
4.61013e-07
4.3983e-07
4.59677e-07
-4.59025e-07
-4.38594e-07
-4.59235e-07
4.25339e-05
-4.43917e-05
-6.69681e-07
6.69697e-07
-6.69589e-07
4.43952e-05
4.25552e-05
-4.44225e-05
6.94374e-07
-6.99425e-07
6.91841e-07
-7.00223e-07
-4.25479e-05
4.44247e-05
4.43545e-07
4.60753e-07
4.41165e-07
4.60554e-07
-4.59386e-07
-4.38478e-07
-4.6167e-07
4.25335e-05
-4.43924e-05
-6.69795e-07
6.69197e-07
-6.68197e-07
4.43987e-05
4.25526e-05
-4.44147e-05
6.91637e-07
-6.97779e-07
6.91878e-07
-6.9715e-07
-4.25463e-05
4.44259e-05
4.45462e-07
4.6127e-07
4.46677e-07
4.60811e-07
-4.63504e-07
-4.3468e-07
-4.64047e-07
4.25328e-05
-4.43935e-05
-6.6598e-07
6.68081e-07
-6.63838e-07
4.43998e-05
4.25601e-05
-4.44252e-05
6.97627e-07
-6.98348e-07
6.87622e-07
-7.03543e-07
-4.25487e-05
4.44182e-05
4.51207e-07
4.61695e-07
4.39669e-07
4.60682e-07
-4.61229e-07
-4.40278e-07
-4.607e-07
4.25324e-05
-4.43927e-05
-6.66532e-07
6.6969e-07
-6.69654e-07
4.43949e-05
4.25481e-05
-4.44214e-05
6.89421e-07
-7.06855e-07
6.91506e-07
-6.96036e-07
-4.25563e-05
4.44225e-05
4.42305e-07
4.61431e-07
4.40315e-07
4.6065e-07
-4.61016e-07
-4.38653e-07
-4.60278e-07
4.25331e-05
-4.43927e-05
-6.70199e-07
6.69495e-07
-6.69698e-07
4.43951e-05
4.25511e-05
-4.4419e-05
6.92036e-07
-6.96603e-07
6.93875e-07
-6.96087e-07
-4.25492e-05
4.4423e-05
4.43582e-07
4.61667e-07
4.41819e-07
4.6193e-07
-4.60176e-07
-4.40568e-07
-4.60867e-07
4.25331e-05
-4.43914e-05
-6.70212e-07
6.70779e-07
-6.70302e-07
4.43944e-05
4.25534e-05
-4.44189e-05
6.94251e-07
-6.96637e-07
6.93469e-07
-6.95665e-07
-4.25492e-05
4.44235e-05
4.45945e-07
4.62926e-07
4.41787e-07
4.61336e-07
-4.60549e-07
-4.40169e-07
-4.59934e-07
4.25342e-05
-4.43919e-05
-6.7053e-07
6.70414e-07
-6.69685e-07
4.43951e-05
4.25529e-05
-4.44191e-05
6.9327e-07
-6.96361e-07
6.92429e-07
-6.95735e-07
-4.25487e-05
4.4424e-05
4.45129e-07
4.62107e-07
4.41557e-07
4.61066e-07
-4.59822e-07
-4.40075e-07
-4.59911e-07
4.25335e-05
-4.4392e-05
-6.69885e-07
6.70418e-07
-6.69966e-07
4.43951e-05
4.25527e-05
-4.4419e-05
6.92156e-07
-6.96614e-07
6.91653e-07
-6.95434e-07
-4.25481e-05
4.44241e-05
4.45208e-07
4.61948e-07
4.41787e-07
4.60248e-07
-4.59892e-07
-4.39585e-07
-4.58836e-07
4.25334e-05
-4.43929e-05
-6.70234e-07
6.69627e-07
-6.69074e-07
4.4396e-05
4.25528e-05
-4.44195e-05
6.91503e-07
-6.95827e-07
6.91113e-07
-6.94752e-07
-4.25477e-05
4.44252e-05
4.45116e-07
4.61052e-07
4.4105e-07
4.60153e-07
-4.58413e-07
-4.3869e-07
-4.58464e-07
4.25324e-05
-4.43927e-05
-6.6917e-07
6.69812e-07
-6.69003e-07
4.43961e-05
4.25523e-05
-4.44197e-05
6.9103e-07
-6.95795e-07
6.90937e-07
-6.95385e-07
-4.25471e-05
4.4424e-05
4.4465e-07
4.612e-07
4.40935e-07
4.60254e-07
-4.585e-07
-4.39657e-07
-4.59009e-07
4.25328e-05
-4.43925e-05
-6.69517e-07
6.69967e-07
-6.69528e-07
4.43956e-05
4.25521e-05
-4.44193e-05
6.90872e-07
-6.95909e-07
6.91198e-07
-6.95197e-07
-4.25478e-05
4.44245e-05
4.44372e-07
4.611e-07
4.41154e-07
4.605e-07
-4.58871e-07
-4.39517e-07
-4.59098e-07
4.25329e-05
-4.43922e-05
-6.6995e-07
6.70193e-07
-6.69601e-07
4.43955e-05
4.25527e-05
-4.44182e-05
6.91419e-07
-6.9625e-07
6.92082e-07
-6.96039e-07
-4.25478e-05
4.44234e-05
4.45027e-07
4.61587e-07
4.42487e-07
4.61649e-07
-4.59311e-07
-4.40809e-07
-4.60225e-07
4.25333e-05
-4.43916e-05
-6.70373e-07
6.70718e-07
-6.70325e-07
4.43944e-05
4.25535e-05
-4.44186e-05
6.92057e-07
-6.96885e-07
6.9176e-07
-6.95724e-07
-4.25487e-05
4.44239e-05
4.46025e-07
4.62586e-07
4.42083e-07
4.6139e-07
-4.60224e-07
-4.40306e-07
-4.60082e-07
4.25339e-05
-4.43916e-05
-6.70841e-07
6.70779e-07
-6.70319e-07
4.43944e-05
4.25531e-05
-4.44176e-05
6.91746e-07
-6.96496e-07
6.92469e-07
-6.96079e-07
-4.2548e-05
4.4423e-05
4.45583e-07
4.62157e-07
4.42686e-07
4.61688e-07
-4.59647e-07
-4.41025e-07
-4.60281e-07
4.25337e-05
-4.43913e-05
-6.70637e-07
6.70896e-07
-6.70537e-07
4.43946e-05
4.2554e-05
-4.44177e-05
6.92474e-07
-6.96982e-07
6.9268e-07
-6.94749e-07
-4.25489e-05
4.44233e-05
4.463e-07
4.62581e-07
4.42592e-07
4.61117e-07
-4.60073e-07
-4.40433e-07
-4.59047e-07
4.2534e-05
-4.43918e-05
-6.71086e-07
6.7047e-07
-6.69757e-07
4.43954e-05
4.25535e-05
-4.44165e-05
6.93041e-07
-6.94153e-07
6.94613e-07
-6.84472e-07
-4.25472e-05
4.4428e-05
4.46102e-07
4.61538e-07
4.43015e-07
4.60616e-07
-4.58299e-07
-4.38436e-07
-4.57385e-07
4.2533e-05
-4.4392e-05
-6.69848e-07
6.70436e-07
-6.68634e-07
4.43966e-05
4.25545e-05
-4.4419e-05
6.94475e-07
-6.85029e-07
6.91881e-07
-6.94362e-07
-4.25429e-05
4.44258e-05
4.464e-07
4.61295e-07
4.41628e-07
4.59705e-07
-4.57282e-07
-4.40049e-07
-4.58887e-07
4.25329e-05
-4.43927e-05
-6.68954e-07
6.69884e-07
-6.68913e-07
4.43955e-05
4.25525e-05
-4.44198e-05
6.9124e-07
-6.94171e-07
6.91406e-07
-6.94274e-07
-4.25463e-05
4.44247e-05
4.4472e-07
4.60083e-07
4.40498e-07
4.58069e-07
-4.60302e-07
-4.41159e-07
-4.65709e-07
4.25323e-05
-4.43935e-05
-6.68989e-07
6.69912e-07
-6.67694e-07
4.43932e-05
4.2552e-05
-4.44194e-05
6.91515e-07
-6.94423e-07
6.92023e-07
-6.94643e-07
-4.25474e-05
4.44229e-05
4.43926e-07
4.58643e-07
4.40972e-07
4.58508e-07
-4.6698e-07
-4.42295e-07
-4.66597e-07
4.25318e-05
-4.4393e-05
-6.67963e-07
6.71235e-07
-6.68382e-07
4.43923e-05
4.25524e-05
-4.44192e-05
6.92183e-07
-6.95513e-07
6.92318e-07
-6.94581e-07
-4.2549e-05
4.4423e-05
4.44745e-07
4.59414e-07
4.41244e-07
4.58677e-07
-4.67209e-07
-4.42304e-07
-4.66716e-07
4.25323e-05
-4.4393e-05
-6.68686e-07
6.7148e-07
-6.68815e-07
4.43922e-05
4.25525e-05
-4.44189e-05
6.92325e-07
-6.95437e-07
6.92442e-07
-6.95677e-07
-4.25488e-05
4.44217e-05
4.44736e-07
4.59391e-07
4.41663e-07
4.59161e-07
-4.67442e-07
-4.43557e-07
-4.67456e-07
4.25323e-05
-4.43924e-05
-6.69298e-07
6.72023e-07
-6.69712e-07
4.43916e-05
4.25529e-05
-4.44192e-05
6.92528e-07
-6.96534e-07
6.9209e-07
-6.95352e-07
-4.25501e-05
4.44226e-05
4.45356e-07
4.60094e-07
4.41316e-07
4.59332e-07
-4.68119e-07
-4.42783e-07
-4.66922e-07
4.25329e-05
-4.4392e-05
-6.69994e-07
6.72284e-07
-6.6955e-07
4.43921e-05
4.25524e-05
-4.4419e-05
6.92082e-07
-6.95889e-07
6.92397e-07
-6.94835e-07
-4.25491e-05
4.44232e-05
4.44735e-07
4.59794e-07
4.41291e-07
4.58654e-07
-4.67175e-07
-4.42039e-07
-4.66085e-07
4.25331e-05
-4.43931e-05
-6.69573e-07
6.71463e-07
-6.69023e-07
4.43927e-05
4.25527e-05
-4.442e-05
6.92327e-07
-6.95651e-07
6.91619e-07
-6.94726e-07
-4.25486e-05
4.44234e-05
4.44653e-07
4.59403e-07
4.40659e-07
4.58187e-07
-4.66927e-07
-4.41647e-07
-4.66e-07
4.25322e-05
-4.43935e-05
-6.69419e-07
6.71104e-07
-6.68965e-07
4.43929e-05
4.25515e-05
-4.44207e-05
6.91321e-07
-6.95203e-07
6.90972e-07
-6.94283e-07
-4.25482e-05
4.4424e-05
4.43455e-07
4.58515e-07
4.39712e-07
4.57441e-07
-4.6617e-07
-4.40969e-07
-4.64981e-07
4.25316e-05
-4.43938e-05
-6.68897e-07
6.70732e-07
-6.68229e-07
4.43941e-05
4.2551e-05
-4.44193e-05
6.91116e-07
-6.95153e-07
6.91842e-07
-6.94848e-07
-4.25479e-05
4.44231e-05
4.42962e-07
4.58503e-07
4.41347e-07
4.58391e-07
-4.65925e-07
-4.41808e-07
-4.65953e-07
4.25315e-05
-4.4393e-05
-6.6859e-07
6.71343e-07
-6.69116e-07
4.43927e-05
4.25524e-05
-4.44199e-05
6.91854e-07
-6.95596e-07
6.91728e-07
-6.9467e-07
-4.25487e-05
4.44234e-05
4.43425e-07
4.59128e-07
4.41223e-07
4.5797e-07
-4.66696e-07
-4.41534e-07
-4.65497e-07
4.25322e-05
-4.43934e-05
-6.69668e-07
6.70985e-07
-6.69422e-07
4.43931e-05
4.25518e-05
-4.44189e-05
6.91775e-07
-6.95506e-07
6.92393e-07
-6.95378e-07
-4.25484e-05
4.44223e-05
4.43446e-07
4.58832e-07
4.42317e-07
4.59146e-07
-4.66292e-07
-4.42812e-07
-4.66732e-07
4.25319e-05
-4.43918e-05
-6.69684e-07
6.72226e-07
-6.70152e-07
4.4392e-05
4.25528e-05
-4.44191e-05
6.92386e-07
-6.96225e-07
6.92312e-07
-6.95634e-07
-4.25494e-05
4.44221e-05
4.44395e-07
4.60033e-07
4.42225e-07
4.59257e-07
-4.67612e-07
-4.43093e-07
-4.67028e-07
4.25336e-05
-4.43922e-05
-6.70619e-07
6.72139e-07
-6.70685e-07
4.43916e-05
4.25522e-05
-4.44191e-05
6.92344e-07
-6.96252e-07
6.92169e-07
-6.95142e-07
-4.25494e-05
4.44228e-05
4.4427e-07
4.60005e-07
4.42061e-07
4.59664e-07
-4.6757e-07
-4.42495e-07
-4.67391e-07
4.25332e-05
-4.43909e-05
-6.70846e-07
6.72589e-07
-6.71409e-07
4.43905e-05
4.2552e-05
-4.44192e-05
6.92054e-07
-6.96028e-07
6.92136e-07
-6.95057e-07
-4.25484e-05
4.44225e-05
4.44014e-07
4.6108e-07
4.41605e-07
4.62221e-07
-4.687e-07
-4.42184e-07
-4.69601e-07
4.25339e-05
-4.43857e-05
-6.72403e-07
6.77268e-07
-6.75473e-07
4.43859e-05
4.25516e-05
-4.44202e-05
6.91806e-07
-6.9549e-07
6.91382e-07
-6.9451e-07
-4.25482e-05
4.44236e-05
4.43154e-07
4.62764e-07
4.40606e-07
4.60045e-07
-4.70344e-07
-4.4105e-07
-4.67696e-07
4.25375e-05
-4.43898e-05
-6.76482e-07
6.76767e-07
-6.74539e-07
4.43891e-05
4.25512e-05
-4.44204e-05
6.91346e-07
-6.95396e-07
6.91182e-07
-6.94855e-07
-4.25479e-05
4.44228e-05
4.42723e-07
4.60101e-07
4.40669e-07
4.57961e-07
-4.67693e-07
-4.41644e-07
-4.65421e-07
4.25348e-05
-4.43934e-05
-6.733e-07
6.71604e-07
-6.69931e-07
4.43931e-05
4.25511e-05
-4.44202e-05
6.91128e-07
-6.95193e-07
6.9148e-07
-6.94065e-07
-4.25485e-05
4.44243e-05
4.42587e-07
4.5863e-07
4.40773e-07
4.57859e-07
-4.66018e-07
-4.40736e-07
-4.65132e-07
4.25319e-05
-4.43935e-05
-6.69959e-07
6.70998e-07
-6.69141e-07
4.43933e-05
4.25515e-05
-4.44195e-05
6.91611e-07
-6.95196e-07
6.92093e-07
-6.95243e-07
-4.25477e-05
4.44223e-05
4.43028e-07
4.58694e-07
4.41875e-07
4.58822e-07
-4.65914e-07
-4.42612e-07
-4.66504e-07
4.25318e-05
-4.43925e-05
-6.69864e-07
6.71681e-07
-6.70277e-07
4.4392e-05
4.25523e-05
-4.44196e-05
6.92183e-07
-6.95814e-07
6.92044e-07
-6.95066e-07
-4.25493e-05
4.4423e-05
4.44051e-07
4.59602e-07
4.41916e-07
4.58495e-07
-4.67097e-07
-4.42468e-07
-4.66591e-07
4.25327e-05
-4.43928e-05
-6.70546e-07
6.71658e-07
-6.70935e-07
4.43915e-05
4.25521e-05
-4.44188e-05
6.9205e-07
-6.95933e-07
6.92593e-07
-6.95388e-07
-4.2549e-05
4.44225e-05
4.44022e-07
4.59436e-07
4.42668e-07
4.596e-07
-4.67316e-07
-4.42951e-07
-4.66489e-07
4.25324e-05
-4.43913e-05
-6.71259e-07
6.72881e-07
-6.70906e-07
4.43914e-05
4.25529e-05
-4.44192e-05
6.92571e-07
-6.96278e-07
6.92299e-07
-6.95769e-07
-4.25494e-05
4.44222e-05
4.44674e-07
4.60362e-07
4.42321e-07
4.59268e-07
-4.6716e-07
-4.43027e-07
-4.66746e-07
4.2534e-05
-4.43921e-05
-6.71248e-07
6.72389e-07
-6.7128e-07
4.43912e-05
4.25523e-05
-4.44199e-05
6.92147e-07
-6.96315e-07
6.91708e-07
-6.94681e-07
-4.25495e-05
4.44233e-05
4.44214e-07
4.59646e-07
4.41343e-07
4.58115e-07
-4.67304e-07
-4.4179e-07
-4.65779e-07
4.25329e-05
-4.4393e-05
-6.71545e-07
6.71509e-07
-6.70806e-07
4.4392e-05
4.25517e-05
-4.44201e-05
6.91717e-07
-6.95349e-07
6.91695e-07
-6.94568e-07
-4.25483e-05
4.44235e-05
4.43336e-07
4.58821e-07
4.41306e-07
4.582e-07
-4.66231e-07
-4.41656e-07
-4.6561e-07
4.25322e-05
-4.4393e-05
-6.70894e-07
6.71596e-07
-6.70495e-07
4.43922e-05
4.25515e-05
-4.44203e-05
6.91424e-07
-6.95253e-07
6.91338e-07
-6.94584e-07
-4.25482e-05
4.44234e-05
4.43097e-07
4.58757e-07
4.40791e-07
4.57745e-07
-4.66187e-07
-4.41098e-07
-4.64831e-07
4.25322e-05
-4.43933e-05
-6.7071e-07
6.71124e-07
-6.69981e-07
4.43928e-05
4.25513e-05
-4.44204e-05
6.91332e-07
-6.95271e-07
6.91421e-07
-6.94703e-07
-4.25483e-05
4.44233e-05
4.42791e-07
4.58439e-07
4.41041e-07
4.57915e-07
-4.65692e-07
-4.41875e-07
-4.65438e-07
4.25319e-05
-4.43931e-05
-6.70327e-07
6.71297e-07
-6.70292e-07
4.43923e-05
4.25514e-05
-4.44194e-05
6.91561e-07
-6.95274e-07
6.92056e-07
-6.94663e-07
-4.25484e-05
4.44236e-05
4.43249e-07
4.58767e-07
4.41592e-07
4.58333e-07
-4.66134e-07
-4.41769e-07
-4.65823e-07
4.25322e-05
-4.43927e-05
-6.70618e-07
6.71707e-07
-6.70664e-07
4.43917e-05
4.25523e-05
-4.44189e-05
6.92023e-07
-6.95713e-07
6.92503e-07
-6.95479e-07
-4.25485e-05
4.44223e-05
4.43766e-07
4.59259e-07
4.42499e-07
4.59129e-07
-4.66816e-07
-4.42914e-07
-4.66528e-07
4.25326e-05
-4.43921e-05
-6.71089e-07
6.72138e-07
-6.70991e-07
4.43913e-05
4.25527e-05
-4.44193e-05
6.92427e-07
-6.96162e-07
6.92209e-07
-6.95321e-07
-4.25493e-05
4.44224e-05
4.44522e-07
4.5982e-07
4.42293e-07
4.58886e-07
-4.67197e-07
-4.42847e-07
-4.66367e-07
4.25331e-05
-4.43922e-05
-6.71183e-07
6.72049e-07
-6.7083e-07
4.43913e-05
4.25524e-05
-4.44193e-05
6.92191e-07
-6.96147e-07
6.92354e-07
-6.95614e-07
-4.25492e-05
4.44222e-05
4.44292e-07
4.59763e-07
4.42248e-07
4.58961e-07
-4.67113e-07
-4.43082e-07
-4.66572e-07
4.2533e-05
-4.43922e-05
-6.71186e-07
6.72112e-07
-6.71113e-07
4.43912e-05
4.25523e-05
-4.44198e-05
6.92255e-07
-6.95969e-07
6.91885e-07
-6.94633e-07
-4.25494e-05
4.44237e-05
4.44111e-07
4.59454e-07
4.415e-07
4.58234e-07
-4.66938e-07
-4.41853e-07
-4.65611e-07
4.25328e-05
-4.43927e-05
-6.71051e-07
6.71329e-07
-6.70308e-07
4.43922e-05
4.25517e-05
-4.442e-05
6.91636e-07
-6.95381e-07
6.91866e-07
-6.94874e-07
-4.25481e-05
4.44233e-05
4.4327e-07
4.5874e-07
4.41337e-07
4.58026e-07
-4.66186e-07
-4.41757e-07
-4.65234e-07
4.25321e-05
-4.43934e-05
-6.70476e-07
6.7097e-07
-6.70117e-07
4.43926e-05
4.25515e-05
-4.44193e-05
6.91089e-07
-6.94775e-07
6.93852e-07
-6.96927e-07
-4.25482e-05
4.44226e-05
4.42425e-07
4.57818e-07
4.43605e-07
4.60321e-07
-4.65153e-07
-4.44302e-07
-4.68007e-07
4.25307e-05
-4.43928e-05
-6.69692e-07
6.7319e-07
-6.7249e-07
4.43914e-05
4.25501e-05
-4.44045e-05
6.87433e-07
-6.91126e-07
6.9998e-07
-7.03345e-07
-4.25469e-05
4.44081e-05
4.38371e-07
4.538e-07
4.50986e-07
4.67889e-07
-4.61117e-07
-4.51328e-07
-4.75735e-07
4.25292e-05
-4.43784e-05
-6.66186e-07
6.79261e-07
-6.78736e-07
4.43768e-05
4.25244e-05
-4.4304e-05
6.79968e-07
-6.83648e-07
6.77295e-07
-6.81254e-07
-4.25212e-05
4.43072e-05
4.34598e-07
4.49959e-07
4.11429e-07
4.28867e-07
-4.5782e-07
-4.12305e-07
-4.38725e-07
4.25032e-05
-4.42782e-05
-6.59043e-07
6.56831e-07
-6.56147e-07
4.42769e-05
4.23263e-05
-4.3611e-05
6.96953e-07
-7.00654e-07
5.78758e-07
-5.83381e-07
-4.23232e-05
4.36143e-05
5.09101e-07
5.23266e-07
2.02909e-07
2.21458e-07
-5.327e-07
-2.04069e-07
-2.30231e-07
4.23057e-05
-4.35849e-05
-6.7615e-07
5.59167e-07
-5.58563e-07
4.35825e-05
4.18206e-05
-4.32624e-05
9.49897e-07
-9.53541e-07
-6.72937e-08
6.12671e-08
-4.1819e-05
4.32648e-05
7.98537e-07
8.11199e-07
-5.91389e-07
-5.71147e-07
-8.20812e-07
5.8989e-07
5.68608e-07
4.17978e-05
-4.32393e-05
-9.29898e-07
-8.53476e-08
8.60715e-08
4.32365e-05
4.07614e-05
-4.17492e-05
1.59167e-06
-1.59568e-06
-1.05937e-06
1.04958e-06
-4.07593e-05
4.17544e-05
1.81645e-06
1.83203e-06
-1.76554e-06
-1.74008e-06
-1.83243e-06
1.75331e-06
1.73699e-06
4.07436e-05
-4.17235e-05
-1.57302e-06
-1.07538e-06
1.06624e-06
4.17084e-05
3.88534e-05
-3.54606e-05
2.7601e-06
-2.76869e-06
-4.97575e-06
4.95303e-06
-3.88536e-05
3.54277e-05
3.23368e-06
3.24792e-06
-6.71486e-06
-6.69804e-06
-3.25854e-06
6.69272e-06
6.68269e-06
3.88472e-05