/*--------------------------------*- C++ -*----------------------------------*\
| =========                 |                                                 |
| \\      /  F ield         | OpenFOAM: The Open Source CFD Toolbox           |
|  \\    /   O peration     | Version:  2206                                  |
|   \\  /    A nd           | Website:  www.openfoam.com                      |
|    \\/     M anipulation  |                                                 |
\*---------------------------------------------------------------------------*/
FoamFile
{
    version     2.0;
    format      ascii;
    arch        "LSB;label=32;scalar=64";
    class       volScalarField;
    location    "20.5";
    object      nut;
}
// * * * * * * * * * * * * * * * * * * * * * * * * * * * * * * * * * * * * * //

dimensions      [0 2 -1 0 0 0 0];

internalField   nonuniform List<scalar> 
28688
(
0.000233976
0.000233116
0.000233116
0.000233431
0.000232546
0.000227817
0.000227816
0.000223882
0.000230482
0.000220235
0.000220232
0.000209152
0.000227649
0.000211397
0.000211392
0.000194039
0.000225174
0.000205067
0.000205061
0.000182332
0.000225713
0.000207363
0.000207358
0.00018597
0.000225923
0.000208018
0.000208012
0.000187165
0.000225937
0.000208057
0.000208052
0.000187235
0.000225938
0.000208062
0.000208057
0.000187237
0.000225938
0.000208064
0.000208059
0.000187235
0.000225938
0.000208064
0.000208059
0.000187236
0.000225938
0.000208064
0.000208059
0.000187236
0.000234258
0.000234447
0.000234448
0.000234258
0.000234448
0.000234448
0.000234273
0.000234273
0.000234273
0.000234273
0.000234447
0.000234447
0.000234258
0.000234447
0.000234448
0.000234258
0.000233431
0.000226185
0.000233116
0.000233114
0.000229346
0.000229341
0.00023343
0.000226186
0.000233114
0.000233114
0.000229343
0.00022934
0.000233116
0.000229348
0.000229345
0.000233431
0.000226183
0.000233114
0.000229348
0.000229343
0.000226183
0.000223882
0.000212135
0.000227814
0.000227809
0.000222244
0.000222239
0.000223883
0.000212139
0.000227811
0.000227807
0.000222244
0.000222236
0.000227812
0.000222251
0.000222243
0.000223881
0.000212133
0.000227811
0.000222248
0.000222243
0.000212134
0.000209154
0.00019709
0.000220227
0.000220222
0.000214083
0.000214077
0.000209155
0.000197095
0.000220228
0.000220218
0.000214086
0.000214072
0.000220225
0.000214093
0.00021408
0.00020915
0.000197086
0.000220227
0.000214089
0.000214085
0.000197087
0.000194042
0.000183505
0.000211385
0.000211379
0.000205278
0.000205272
0.000194046
0.000183511
0.00021139
0.000211375
0.000205285
0.000205267
0.000211383
0.000205292
0.000205276
0.000194038
0.000183501
0.000211388
0.000205287
0.000205285
0.000183501
0.000182338
0.000185875
0.000205053
0.000205046
0.000206876
0.000206872
0.000182341
0.000185879
0.00020506
0.000205041
0.000206884
0.000206866
0.00020505
0.000206889
0.000206873
0.000182333
0.00018587
0.00020506
0.000206883
0.000206884
0.000185869
0.000185976
0.000187292
0.000207351
0.000207347
0.000207955
0.000207952
0.000185979
0.000187296
0.000207359
0.000207341
0.000207964
0.000207945
0.000207348
0.000207967
0.000207953
0.00018597
0.000187286
0.000207359
0.000207962
0.000207965
0.000187291
0.000187167
0.000187385
0.000208007
0.000208003
0.000208043
0.00020804
0.000187171
0.000187388
0.000208015
0.000207996
0.000208052
0.000208033
0.000208005
0.000208055
0.000208041
0.000187161
0.000187378
0.000208016
0.00020805
0.000208053
0.000187384
0.000187239
0.000187385
0.000208045
0.000208041
0.000208048
0.000208046
0.000187241
0.000187387
0.000208054
0.000208034
0.000208058
0.000208039
0.000208043
0.000208061
0.000208047
0.000187232
0.000187378
0.000208055
0.000208056
0.000208059
0.000187383
0.000187241
0.000187386
0.00020805
0.000208048
0.000208051
0.00020805
0.000187242
0.000187388
0.00020806
0.000208041
0.000208062
0.000208042
0.00020805
0.000208064
0.000208051
0.000187234
0.000187379
0.000208061
0.000208058
0.000208063
0.000187383
0.00018724
0.000187387
0.000208052
0.000208051
0.000208051
0.000208049
0.000187242
0.000187389
0.000208063
0.000208043
0.000208061
0.000208042
0.000208052
0.000208065
0.000208051
0.000187234
0.00018738
0.000208064
0.000208059
0.000208062
0.000187384
0.000187242
0.000187387
0.000208052
0.00020805
0.000208052
0.000208049
0.000187243
0.000187389
0.000208062
0.000208043
0.000208061
0.000208042
0.000208051
0.000208065
0.000208051
0.000187235
0.000187379
0.000208063
0.00020806
0.000208062
0.000187384
0.000187242
0.00018739
0.000208052
0.000208049
0.000208053
0.000187243
0.000208062
0.000208043
0.000208063
0.000208044
0.000208051
0.000208052
0.000187235
0.000187382
0.000208063
0.00020806
0.000208064
0.000187387
0.00023473
0.000234746
0.000234729
0.000234729
0.000235114
0.000234797
0.000234701
0.000234727
0.000235114
0.000234797
0.000234727
0.000234701
0.000234862
0.000233566
0.000233566
0.000104477
3.87464e-05
0.00012924
3.98214e-05
2.16835e-05
2.28278e-05
0.000104467
3.87425e-05
0.000129237
3.98178e-05
0.000233976
0.000233976
0.000233976
0.000232928
0.000232928
0.000232928
0.000232928
0.000206053
9.36387e-05
0.00023397
0.000231996
0.000222699
8.72504e-05
0.000233614
2.16824e-05
2.28269e-05
0.000206046
0.00023397
9.364e-05
0.000231996
0.000222707
0.000233614
8.72541e-05
4.77878e-05
4.77752e-05
0.000231335
4.40098e-05
4.40008e-05
7.26242e-05
4.24426e-05
8.13604e-05
4.37562e-05
2.47786e-05
2.54611e-05
7.26084e-05
4.24391e-05
8.13593e-05
4.37523e-05
0.000232546
0.000232546
0.000232546
0.000231031
0.000231032
0.000231031
0.000231031
0.000167589
7.93996e-05
0.000232083
0.000226139
0.000180177
7.461e-05
0.0002314
2.4777e-05
2.54594e-05
0.000167577
0.000232083
7.93944e-05
0.000226137
0.000180176
0.000231399
7.46132e-05
3.92083e-05
3.91974e-05
0.000219587
3.65872e-05
3.65767e-05
5.59871e-05
4.55486e-05
6.13772e-05
4.64102e-05
2.60167e-05
2.61114e-05
5.59826e-05
4.55459e-05
6.13788e-05
4.64071e-05
0.000230482
0.000230481
0.000230482
0.000228614
0.000228614
0.000228612
0.000228613
0.00013829
6.73838e-05
0.000228586
0.000218322
0.000148319
6.35221e-05
0.000227559
2.60146e-05
2.61093e-05
0.000138281
0.000228585
6.73781e-05
0.000218319
0.000148314
0.000227557
6.35211e-05
3.32626e-05
3.3254e-05
0.000204535
3.19206e-05
3.19119e-05
4.67758e-05
4.75147e-05
5.00289e-05
4.80013e-05
2.60591e-05
2.59214e-05
4.67766e-05
4.75116e-05
5.00226e-05
4.79983e-05
0.00022765
0.000227648
0.000227649
0.000225347
0.000225348
0.000225346
0.000225347
0.000117203
5.82581e-05
0.000223623
0.000208649
0.000124951
5.53173e-05
0.000221867
2.60568e-05
2.5919e-05
0.000117197
0.000223621
5.82511e-05
0.000208644
0.000124943
0.000221864
5.53121e-05
3.05431e-05
3.05351e-05
0.000189068
3.02834e-05
3.02758e-05
4.7151e-05
4.84972e-05
4.55599e-05
4.87561e-05
2.57939e-05
2.57965e-05
4.71455e-05
4.84938e-05
4.5563e-05
4.87528e-05
0.000225174
0.000225172
0.000225173
0.000225573
0.000225573
0.000225571
0.000225572
0.000113126
5.44105e-05
0.000218907
0.000205487
0.000111244
5.57605e-05
0.000218907
2.57915e-05
2.57941e-05
0.000113123
0.000218905
5.44145e-05
0.000205482
0.000111242
0.000218905
5.57641e-05
3.14501e-05
3.14425e-05
0.000183844
3.36104e-05
3.36028e-05
4.83436e-05
4.89549e-05
4.81956e-05
4.89728e-05
2.58234e-05
2.58258e-05
4.83484e-05
4.89518e-05
4.81996e-05
4.89695e-05
0.000225714
0.000225712
0.000225713
0.000225903
0.000225904
0.000225902
0.000225903
0.000115388
5.8423e-05
0.000219547
0.000207669
0.000114967
5.88375e-05
0.000219681
2.58207e-05
2.58231e-05
0.00011539
0.000219546
5.84223e-05
0.000207663
0.000114968
0.000219679
5.88376e-05
3.5422e-05
3.54155e-05
0.000187
3.56768e-05
3.56705e-05
4.84006e-05
4.89764e-05
4.83866e-05
4.89756e-05
2.58267e-05
2.58266e-05
4.8407e-05
4.89731e-05
4.83936e-05
4.89723e-05
0.000225924
0.000225922
0.000225923
0.000225937
0.000225936
0.000225934
0.000225935
0.000115557
5.89731e-05
0.000219836
0.000208043
0.000115511
5.89989e-05
0.000219848
2.58241e-05
2.58239e-05
0.00011556
0.000219835
5.89764e-05
0.000208037
0.000115513
0.000219846
5.90012e-05
3.57576e-05
3.57512e-05
0.000187371
3.57614e-05
3.57549e-05
4.84059e-05
4.89762e-05
4.83964e-05
4.89755e-05
2.58268e-05
2.58266e-05
4.84129e-05
4.89729e-05
4.8404e-05
4.89721e-05
0.000225937
0.000225935
0.000225937
0.000225938
0.000225938
0.000225935
0.000225937
0.000115573
5.89881e-05
0.000219852
0.000208058
0.000115543
5.90068e-05
0.000219853
2.58241e-05
2.58239e-05
0.000115576
0.000219851
5.89913e-05
0.000208053
0.000115546
0.000219851
5.90094e-05
3.57599e-05
3.57535e-05
0.000187378
3.57632e-05
3.57568e-05
4.84066e-05
4.89762e-05
4.83979e-05
4.89754e-05
2.58268e-05
2.58266e-05
4.84137e-05
4.89729e-05
4.84058e-05
4.89721e-05
0.000225938
0.000225936
0.000225938
0.000225938
0.000225938
0.000225936
0.000225937
0.000115577
5.89904e-05
0.000219854
0.000208063
0.000115549
5.90077e-05
0.000219854
2.58241e-05
2.58239e-05
0.00011558
0.000219853
5.89938e-05
0.000208058
0.000115552
0.000219853
5.90104e-05
3.57606e-05
3.57542e-05
0.000187386
3.57636e-05
3.57572e-05
4.84066e-05
4.89762e-05
4.8398e-05
4.89753e-05
2.58268e-05
2.58266e-05
4.84138e-05
4.8973e-05
4.84059e-05
4.89721e-05
0.000225938
0.000225936
0.000225937
0.000225938
0.000225938
0.000225936
0.000225937
0.000115576
5.89905e-05
0.000219854
0.000208064
0.000115548
5.90077e-05
0.000219855
2.58241e-05
2.58239e-05
0.00011558
0.000219853
5.8994e-05
0.000208059
0.000115552
0.000219853
5.90104e-05
3.57606e-05
3.57543e-05
0.000187385
3.57636e-05
3.57572e-05
4.84066e-05
4.89763e-05
4.8398e-05
4.89756e-05
2.58268e-05
2.58267e-05
4.84138e-05
4.89728e-05
4.84059e-05
4.8972e-05
0.000225938
0.000225936
0.000225937
0.000225938
0.000225938
0.000225936
0.000225937
0.000115576
5.89905e-05
0.000219854
0.000208065
0.000115547
5.90077e-05
0.000219854
2.58241e-05
2.58239e-05
0.000115579
0.000219853
5.8994e-05
0.000208059
0.000115551
0.000219853
5.90104e-05
3.57606e-05
3.57543e-05
0.000187385
3.57636e-05
3.57572e-05
4.84066e-05
4.89764e-05
4.8398e-05
4.89757e-05
2.58268e-05
2.58267e-05
4.84138e-05
4.89727e-05
4.84059e-05
4.89719e-05
0.000225938
0.000225936
0.000225937
0.000225939
0.000225941
0.000225937
0.000225938
0.000115575
5.89905e-05
0.000219854
0.000208065
0.000115548
5.90077e-05
0.000219854
2.58241e-05
2.58239e-05
0.000115579
0.000219853
5.8994e-05
0.000208059
0.000115552
0.000219853
5.90104e-05
3.57607e-05
3.57543e-05
0.000187385
3.57636e-05
3.57572e-05
0.000234862
0.000233564
0.000233566
2.32575e-05
0.000214159
2.32564e-05
0.000214162
0.000234441
5.13494e-05
5.13309e-05
0.00022999
0.000229991
0.000235114
0.000234797
0.000234701
0.000234727
0.000235114
0.000234797
0.000234701
0.000234727
0.000234477
4.02625e-05
0.000218814
0.000147679
0.000234477
4.0262e-05
0.000218814
0.000147686
0.000233895
0.000234476
0.000100145
0.000234269
0.000233359
0.000234596
0.000228466
0.000233895
0.000234476
0.000100133
0.000234269
0.000233359
0.000234596
0.000228465
0.000234862
0.000233565
0.000233566
2.32572e-05
0.000214167
0.000234441
5.13412e-05
5.13365e-05
0.000229989
0.000229991
2.32571e-05
0.000214169
0.000235114
0.000234797
0.000234701
0.000234727
0.000235114
0.000234797
0.000234727
0.000234701
0.000234477
4.02593e-05
0.000218815
0.000147655
0.000233895
0.000234476
0.000100121
0.000234269
0.000233359
0.000234596
0.000228463
0.000234477
4.02588e-05
0.000218816
0.00014767
0.000233895
0.000234476
0.000234269
0.00010013
0.000234596
0.000233359
0.000228465
0.00023473
0.000234746
0.000234729
0.000234729
0.00023473
0.000234746
0.000234729
0.000234729
0.00023473
0.000234746
0.000234729
0.000234729
0.000234591
0.000234574
0.000234253
0.000234253
0.000234592
0.000234592
0.000234253
0.000234591
0.000234574
0.000234253
0.000234253
0.000234592
0.000234592
0.000234253
0.000234591
0.000234574
0.000234253
0.000234253
0.000234592
0.000234592
0.000234253
0.000234591
0.000234574
0.000234253
0.000234253
0.000234592
0.000234592
0.000234253
0.000235114
0.000234797
0.000234727
0.000234701
0.000233894
0.000234476
0.000100126
0.000234269
0.000233359
0.000234596
0.000228464
0.000234477
4.026e-05
0.000218817
0.00014767
0.000233894
0.000234476
0.000234269
0.000100138
0.000234596
0.000233359
0.000228465
0.000234477
4.02596e-05
0.000218816
0.000147678
0.000234862
0.000233566
0.000233566
2.32565e-05
0.000214163
0.000234441
5.13347e-05
5.13385e-05
0.000229991
0.000229993
2.32569e-05
0.000214171
0.000235114
0.000234797
0.000234727
0.000234701
0.000233894
0.000234476
0.000234269
0.000100133
0.000234596
0.00023336
0.000228464
0.000233894
0.000234476
0.000234269
0.000100123
0.000234596
0.000233359
0.000228463
0.000234477
4.02592e-05
0.000218818
0.000147656
0.000234477
4.0259e-05
0.000218813
0.000147643
0.000234441
5.13413e-05
5.13293e-05
0.000229992
0.000229992
2.3257e-05
0.00021417
2.32564e-05
0.000214164
2.16838e-05
2.28288e-05
2.16825e-05
2.28273e-05
4.7788e-05
4.77768e-05
0.000231336
4.40162e-05
4.40005e-05
2.44785e-05
2.33085e-05
2.44769e-05
2.33072e-05
0.000229677
4.01045e-05
4.00888e-05
4.31317e-05
4.31184e-05
0.00010449
3.87455e-05
0.000129226
3.98194e-05
0.000206058
9.36493e-05
0.00023397
0.000231996
0.000222693
8.72578e-05
0.000233614
0.00020606
9.36341e-05
0.00023397
0.000231992
0.000222689
8.72431e-05
0.000233614
9.84814e-05
4.19595e-05
4.03833e-05
8.54552e-05
9.84749e-05
4.1958e-05
4.03821e-05
8.54566e-05
0.000200133
0.000230752
8.08836e-05
0.000232672
8.5666e-05
0.000233186
0.000185548
0.000200134
0.000230748
8.08745e-05
0.000232672
8.56505e-05
0.000233186
0.00018555
4.77798e-05
4.77848e-05
0.000231336
4.40049e-05
4.4011e-05
2.16835e-05
2.28288e-05
2.44776e-05
2.33077e-05
0.000229677
4.00936e-05
4.00955e-05
4.31216e-05
4.31266e-05
2.44786e-05
2.33087e-05
0.000206047
9.36286e-05
0.00023397
0.000231993
0.000222692
8.72376e-05
0.000233614
0.00010447
3.87421e-05
0.000129256
3.98171e-05
0.000206048
0.00023397
9.36316e-05
0.000231992
0.000222697
0.000233614
8.72381e-05
9.84803e-05
4.19557e-05
4.03798e-05
8.54469e-05
0.000200134
0.000230749
8.08689e-05
0.000232672
8.56501e-05
0.000233186
0.000185542
9.84808e-05
4.19548e-05
4.03792e-05
8.54457e-05
0.000200133
0.000230747
0.000232671
8.08651e-05
0.000233186
8.56478e-05
0.000185538
0.000104477
3.8743e-05
0.000129246
3.982e-05
0.000206054
0.00023397
9.36418e-05
0.000231995
0.000222703
0.000233614
8.72513e-05
0.000104475
3.87435e-05
0.000129266
3.98184e-05
0.000200136
0.000230754
8.08791e-05
0.000232672
8.56642e-05
0.000233187
0.000185547
9.84805e-05
4.1958e-05
4.03809e-05
8.54507e-05
0.000200136
0.000230751
0.000232672
8.08825e-05
0.000233186
8.56624e-05
0.000185546
9.84857e-05
4.19569e-05
4.03812e-05
8.54519e-05
4.77763e-05
4.7785e-05
0.000231335
4.40006e-05
4.40158e-05
2.16829e-05
2.28279e-05
2.44763e-05
2.33064e-05
0.000229677
4.0088e-05
4.0102e-05
4.3119e-05
4.31277e-05
2.44776e-05
2.33077e-05
0.000206043
0.00023397
9.36282e-05
0.000231993
0.000222702
0.000233614
8.724e-05
0.000104454
3.87425e-05
0.000129274
3.98186e-05
0.00010445
3.8742e-05
0.00012926
3.98176e-05
0.000200136
0.000230754
0.000232672
8.08825e-05
0.000233186
8.56585e-05
0.000185539
0.000200137
0.00023075
0.000232672
8.08734e-05
0.000233186
8.56498e-05
0.000185538
9.84963e-05
4.19565e-05
4.03808e-05
8.54444e-05
9.84957e-05
4.19558e-05
4.03794e-05
8.5444e-05
2.16833e-05
2.28279e-05
2.16824e-05
2.28274e-05
0.000229677
4.01013e-05
4.00896e-05
4.31328e-05
4.31178e-05
2.44777e-05
2.33079e-05
2.44768e-05
2.33073e-05
2.47793e-05
2.54622e-05
2.47776e-05
2.54604e-05
3.92102e-05
3.91973e-05
0.000219589
3.65902e-05
3.65776e-05
2.59515e-05
2.5625e-05
2.595e-05
2.56233e-05
0.000216827
3.38262e-05
3.38135e-05
3.57854e-05
3.5773e-05
7.26261e-05
4.24414e-05
8.1363e-05
4.3755e-05
0.000167589
7.9401e-05
0.000232083
0.000226134
0.000180172
7.46121e-05
0.000231399
0.000167591
7.93858e-05
0.000232083
0.000226129
0.000180176
7.4607e-05
0.000231399
6.9646e-05
4.52244e-05
4.41622e-05
6.32892e-05
6.9649e-05
4.5224e-05
4.41608e-05
6.32916e-05
0.000162913
0.000224259
6.86788e-05
0.000229617
7.31393e-05
0.000230575
0.000151902
0.000162918
0.000224254
6.86787e-05
0.000229616
7.31216e-05
0.000230575
0.000151906
3.92008e-05
3.92074e-05
0.000219591
3.65814e-05
3.65889e-05
2.47795e-05
2.54622e-05
2.5951e-05
2.56242e-05
0.000216828
3.38177e-05
3.38209e-05
3.57757e-05
3.57824e-05
2.59518e-05
2.5625e-05
0.000167582
7.93839e-05
0.000232083
0.000226133
0.000180172
7.46025e-05
0.000231399
7.26067e-05
4.2438e-05
8.13582e-05
4.37513e-05
0.000167578
0.000232082
7.9385e-05
0.000226127
0.00018017
0.000231398
7.45942e-05
6.96564e-05
4.52214e-05
4.41589e-05
6.3282e-05
0.000162911
0.000224258
6.86725e-05
0.000229616
7.31225e-05
0.000230575
0.000151902
6.96554e-05
4.522e-05
4.4157e-05
6.328e-05
0.000162911
0.000224251
0.000229615
6.86652e-05
0.000230574
7.31209e-05
0.000151898
7.26186e-05
4.24409e-05
8.13636e-05
4.37547e-05
0.000167586
0.000232083
7.93946e-05
0.000226133
0.000180174
0.000231399
7.46131e-05
7.26218e-05
4.24403e-05
8.13576e-05
4.37533e-05
0.000162917
0.000224264
6.86799e-05
0.000229618
7.31369e-05
0.000230576
0.000151905
6.96513e-05
4.52236e-05
4.41604e-05
6.32888e-05
0.000162915
0.000224258
0.000229617
6.86839e-05
0.000230575
7.31273e-05
0.000151902
6.96491e-05
4.52222e-05
4.41592e-05
6.32871e-05
3.91977e-05
3.92099e-05
0.000219587
3.65796e-05
3.65878e-05
2.47787e-05
2.54608e-05
2.59489e-05
2.56222e-05
0.000216825
3.38128e-05
3.38234e-05
3.57714e-05
3.57832e-05
2.59506e-05
2.56239e-05
0.000167581
0.000232083
7.93846e-05
0.000226132
0.000180177
0.000231399
7.46049e-05
7.26067e-05
4.24399e-05
8.13589e-05
4.37535e-05
7.26127e-05
4.24386e-05
8.13605e-05
4.37523e-05
0.000162914
0.000224262
0.000229616
6.86834e-05
0.000230575
7.31293e-05
0.0001519
0.000162917
0.000224258
0.000229616
6.86762e-05
0.000230575
7.31193e-05
0.000151902
6.96564e-05
4.52223e-05
4.41593e-05
6.32805e-05
6.96572e-05
4.5221e-05
4.41579e-05
6.32813e-05
2.47786e-05
2.54606e-05
2.47778e-05
2.54599e-05
0.000216826
3.38231e-05
3.38132e-05
3.57805e-05
3.57715e-05
2.59504e-05
2.56237e-05
2.59497e-05
2.5623e-05
2.60173e-05
2.61121e-05
2.60155e-05
2.61104e-05
3.3262e-05
3.3256e-05
0.000204538
3.19237e-05
3.19126e-05
2.60888e-05
2.61178e-05
2.60868e-05
2.6116e-05
0.000201503
3.08601e-05
3.08459e-05
3.15843e-05
3.15845e-05
5.59895e-05
4.55479e-05
6.13797e-05
4.64099e-05
0.000138288
6.7384e-05
0.000228585
0.000218314
0.000148317
6.35209e-05
0.000227558
0.000138292
6.7374e-05
0.000228584
0.000218309
0.00014832
6.35173e-05
0.000227557
5.45539e-05
4.73126e-05
4.66521e-05
5.14688e-05
5.45555e-05
4.73127e-05
4.66514e-05
5.14707e-05
0.000135138
0.000216365
5.93841e-05
0.000225224
6.22941e-05
0.0002265
0.000127818
0.00013514
0.00021636
5.93732e-05
0.000225223
6.22864e-05
0.0002265
0.000127821
3.32579e-05
3.32584e-05
0.000204543
3.19153e-05
3.19222e-05
2.60176e-05
2.61123e-05
2.6088e-05
2.61172e-05
0.000201505
3.0849e-05
3.08583e-05
3.15857e-05
3.15808e-05
2.60888e-05
2.61181e-05
0.000138282
6.73742e-05
0.000228584
0.000218316
0.000148313
6.35124e-05
0.000227557
5.59813e-05
4.55439e-05
6.13783e-05
4.64057e-05
0.00013828
0.000228582
6.73692e-05
0.000218305
0.000148313
0.000227556
6.35085e-05
5.45502e-05
4.73095e-05
4.66491e-05
5.14687e-05
0.000135133
0.000216368
5.93726e-05
0.000225222
6.22821e-05
0.0002265
0.000127815
5.45491e-05
4.73081e-05
4.66473e-05
5.14673e-05
0.000135131
0.000216356
0.000225221
5.93717e-05
0.000226498
6.22807e-05
0.000127813
5.59872e-05
4.55475e-05
6.13771e-05
4.64096e-05
0.000138286
0.000228584
6.7379e-05
0.000218312
0.000148318
0.000227557
6.35214e-05
5.59858e-05
4.5546e-05
6.13755e-05
4.64079e-05
0.00013514
0.000216375
5.93839e-05
0.000225225
6.22946e-05
0.000226501
0.000127819
5.45533e-05
4.73123e-05
4.66511e-05
5.14685e-05
0.000135137
0.000216363
0.000225223
5.93769e-05
0.000226499
6.22904e-05
0.000127817
5.4552e-05
4.73104e-05
4.66493e-05
5.14673e-05
3.32497e-05
3.3264e-05
0.000204535
3.19133e-05
3.19213e-05
2.60163e-05
2.61111e-05
2.60857e-05
2.6115e-05
0.000201499
3.08498e-05
3.08549e-05
3.15733e-05
3.15918e-05
2.60876e-05
2.61168e-05
0.000138284
0.000228584
6.73716e-05
0.000218315
0.000148316
0.000227557
6.35146e-05
5.59818e-05
4.55458e-05
6.13786e-05
4.64076e-05
5.59828e-05
4.55449e-05
6.13795e-05
4.64069e-05
0.000135133
0.000216372
0.000225223
5.93759e-05
0.0002265
6.22908e-05
0.000127815
0.000135134
0.000216367
0.000225222
5.93711e-05
0.000226499
6.22836e-05
0.000127817
5.45494e-05
4.73102e-05
4.6649e-05
5.14678e-05
5.45503e-05
4.73096e-05
4.66483e-05
5.14686e-05
2.60162e-05
2.61109e-05
2.60154e-05
2.61101e-05
0.0002015
3.08543e-05
3.08458e-05
3.15908e-05
3.15824e-05
2.60874e-05
2.61166e-05
2.60865e-05
2.61158e-05
2.606e-05
2.59223e-05
2.60578e-05
2.59202e-05
3.05434e-05
3.05362e-05
0.000189071
3.02852e-05
3.02763e-05
2.5801e-05
2.58778e-05
2.57986e-05
2.58754e-05
0.000186154
3.11207e-05
3.11119e-05
3.03424e-05
3.0334e-05
4.67774e-05
4.75142e-05
5.00307e-05
4.80013e-05
0.000117202
5.82573e-05
0.000223622
0.000208635
0.000124949
5.53181e-05
0.000221865
0.000117204
5.82474e-05
0.000223621
0.00020863
0.000124952
5.53096e-05
0.000221864
4.60514e-05
4.84014e-05
4.8121e-05
4.52139e-05
4.60531e-05
4.84013e-05
4.81204e-05
4.52146e-05
0.000114822
0.000206462
5.42681e-05
0.000219328
5.45649e-05
0.00022033
0.000111402
0.000114824
0.000206456
5.42636e-05
0.000219326
5.45564e-05
0.000220328
0.000111403
3.0538e-05
3.05412e-05
0.000189077
3.02781e-05
3.02845e-05
2.606e-05
2.59222e-05
2.57999e-05
2.58767e-05
0.000186158
3.11143e-05
3.11189e-05
3.03356e-05
3.034e-05
2.58007e-05
2.58776e-05
0.000117197
5.82469e-05
0.000223622
0.000208641
0.000124944
5.53075e-05
0.000221864
4.67754e-05
4.75097e-05
5.00214e-05
4.79966e-05
0.000117195
0.000223619
5.82457e-05
0.000208625
0.000124941
0.000221861
5.53059e-05
4.60479e-05
4.83982e-05
4.81177e-05
4.52074e-05
0.000114817
0.000206469
5.42613e-05
0.000219326
5.45543e-05
0.000220329
0.000111396
4.6047e-05
4.83963e-05
4.81158e-05
4.52072e-05
0.000114814
0.000206451
0.000219323
5.42553e-05
0.000220325
5.45563e-05
0.000111395
4.67755e-05
4.75139e-05
5.00287e-05
4.8001e-05
0.0001172
0.000223621
5.8251e-05
0.000208633
0.000124948
0.000221864
5.53126e-05
4.67745e-05
4.75119e-05
5.00275e-05
4.7999e-05
0.000114822
0.000206476
5.4266e-05
0.000219329
5.45677e-05
0.000220331
0.000111401
4.60514e-05
4.84008e-05
4.81203e-05
4.52124e-05
0.000114821
0.00020646
0.000219327
5.42663e-05
0.000220329
5.45592e-05
0.0001114
4.60502e-05
4.83987e-05
4.8118e-05
4.52121e-05
3.05332e-05
3.0544e-05
0.000189067
3.02766e-05
3.02844e-05
2.60587e-05
2.5921e-05
2.57975e-05
2.58743e-05
0.00018615
3.11118e-05
3.11203e-05
3.03322e-05
3.03418e-05
2.57995e-05
2.58763e-05
0.000117199
0.000223621
5.82446e-05
0.00020864
0.000124945
0.000221864
5.53071e-05
4.67759e-05
4.75116e-05
5.00215e-05
4.79987e-05
4.67767e-05
4.75111e-05
5.00225e-05
4.79982e-05
0.000114816
0.000206471
0.000219326
5.42662e-05
0.000220329
5.45592e-05
0.000111398
0.000114818
0.000206468
0.000219326
5.42612e-05
0.000220328
5.45537e-05
0.000111399
4.60472e-05
4.83984e-05
4.81177e-05
4.52076e-05
4.60481e-05
4.83981e-05
4.81173e-05
4.52076e-05
2.60585e-05
2.59208e-05
2.60576e-05
2.59198e-05
0.00018615
3.11194e-05
3.11117e-05
3.03408e-05
3.03333e-05
2.57993e-05
2.58761e-05
2.57983e-05
2.58751e-05
2.5795e-05
2.57976e-05
2.57926e-05
2.57952e-05
3.14519e-05
3.14431e-05
0.000183847
3.36114e-05
3.36022e-05
2.58207e-05
2.58063e-05
2.58184e-05
2.58039e-05
0.000183965
3.5243e-05
3.52349e-05
3.41538e-05
3.41456e-05
4.71514e-05
4.84968e-05
4.55613e-05
4.87561e-05
0.000113127
5.44162e-05
0.000218906
0.000205475
0.000111246
5.57662e-05
0.000218906
0.000113128
5.44119e-05
0.000218904
0.000205469
0.000111247
5.57618e-05
0.000218904
4.74139e-05
4.89352e-05
4.8824e-05
4.8064e-05
4.74145e-05
4.89352e-05
4.88237e-05
4.80641e-05
0.000113507
0.000206187
5.81526e-05
0.00021935
5.66316e-05
0.000219111
0.000114762
0.000113507
0.000206182
5.81489e-05
0.000219349
5.66268e-05
0.000219109
0.000114762
3.14452e-05
3.14484e-05
0.000183852
3.3605e-05
3.36093e-05
2.57947e-05
2.57973e-05
2.58196e-05
2.58052e-05
0.000183968
3.52374e-05
3.52391e-05
3.4147e-05
3.41518e-05
2.582e-05
2.5806e-05
0.00011312
5.44073e-05
0.000218904
0.000205482
0.000111243
5.57563e-05
0.000218904
4.71452e-05
4.8492e-05
4.55639e-05
4.87508e-05
0.00011312
0.000218901
5.44002e-05
0.000205463
0.000111241
0.000218902
5.575e-05
4.74152e-05
4.89318e-05
4.88207e-05
4.80704e-05
0.000113503
0.000206194
5.81439e-05
0.000219349
5.66238e-05
0.00021911
0.000114761
4.74152e-05
4.8929e-05
4.88186e-05
4.80697e-05
0.000113502
0.000206176
0.000219346
5.81397e-05
0.000219107
5.66219e-05
0.00011476
4.71495e-05
4.84966e-05
4.55589e-05
4.87556e-05
0.000113124
0.000218905
5.44145e-05
0.000205472
0.000111246
0.000218905
5.57638e-05
4.71494e-05
4.84941e-05
4.55588e-05
4.87532e-05
0.000113507
0.000206201
5.81505e-05
0.000219352
5.66316e-05
0.000219111
0.000114761
4.74129e-05
4.89339e-05
4.88234e-05
4.80632e-05
0.000113506
0.000206184
0.00021935
5.81495e-05
0.00021911
5.66282e-05
0.00011476
4.74127e-05
4.89321e-05
4.88208e-05
4.80629e-05
3.1441e-05
3.14512e-05
0.000183842
3.36018e-05
3.36105e-05
2.57935e-05
2.57961e-05
2.58168e-05
2.58028e-05
0.000183959
3.5231e-05
3.5242e-05
3.41435e-05
3.41527e-05
2.58193e-05
2.58048e-05
0.000113124
0.000218904
5.44089e-05
0.000205482
0.000111243
0.000218904
5.5759e-05
4.71458e-05
4.84938e-05
4.55644e-05
4.87529e-05
4.71456e-05
4.84935e-05
4.55641e-05
4.87527e-05
0.000113505
0.000206195
0.00021935
5.81497e-05
0.00021911
5.66279e-05
0.000114763
0.000113505
0.000206195
0.000219349
5.81459e-05
0.000219109
5.66236e-05
0.000114764
4.74158e-05
4.89319e-05
4.88205e-05
4.80704e-05
4.74157e-05
4.89317e-05
4.88203e-05
4.80705e-05
2.57933e-05
2.5796e-05
2.57923e-05
2.5795e-05
0.000183961
3.52416e-05
3.52347e-05
3.41519e-05
3.4145e-05
2.58191e-05
2.58046e-05
2.58182e-05
2.58036e-05
2.58247e-05
2.58274e-05
2.58221e-05
2.58248e-05
3.54239e-05
3.54175e-05
0.000187003
3.56773e-05
3.56714e-05
2.58281e-05
2.58279e-05
2.58255e-05
2.58254e-05
0.000186923
3.57568e-05
3.57516e-05
3.57115e-05
3.57062e-05
4.83437e-05
4.89549e-05
4.81965e-05
4.8973e-05
0.000115387
5.84265e-05
0.000219547
0.000207657
0.00011497
5.88399e-05
0.000219681
0.000115388
5.84229e-05
0.000219546
0.000207653
0.00011497
5.88371e-05
0.000219679
4.83694e-05
4.89756e-05
4.89756e-05
4.83927e-05
4.83696e-05
4.89759e-05
4.89758e-05
4.8393e-05
0.000115418
0.000207852
5.89909e-05
0.00021981
5.89208e-05
0.000219761
0.000115524
0.000115419
0.000207848
5.89883e-05
0.000219809
5.89178e-05
0.00021976
0.000115524
3.54167e-05
3.5417e-05
0.000187008
3.56717e-05
3.56711e-05
2.58239e-05
2.58264e-05
2.58265e-05
2.58264e-05
0.000186927
3.57507e-05
3.57456e-05
3.57058e-05
3.5706e-05
2.58271e-05
2.5827e-05
0.000115388
5.84191e-05
0.000219547
0.000207665
0.00011497
5.8833e-05
0.00021968
4.83474e-05
4.89489e-05
4.81998e-05
4.89666e-05
0.000115386
0.000219544
5.84133e-05
0.000207646
0.000114968
0.000219677
5.88265e-05
4.8375e-05
4.89724e-05
4.89724e-05
4.83991e-05
0.000115419
0.000207861
5.89837e-05
0.000219809
5.89144e-05
0.00021976
0.000115525
4.83738e-05
4.89695e-05
4.89695e-05
4.83976e-05
0.000115417
0.000207842
0.000219806
5.89749e-05
0.000219757
5.89057e-05
0.000115523
4.8343e-05
4.89538e-05
4.81957e-05
4.89716e-05
0.000115386
0.000219547
5.84232e-05
0.000207654
0.000114969
0.00021968
5.88374e-05
4.83424e-05
4.89518e-05
4.81953e-05
4.89699e-05
0.000115417
0.000207863
5.8986e-05
0.000219811
5.8917e-05
0.000219763
0.000115523
4.83689e-05
4.89745e-05
4.89746e-05
4.83923e-05
0.000115417
0.00020785
0.000219809
5.89886e-05
0.00021976
5.89181e-05
0.000115522
4.83683e-05
4.89727e-05
4.89727e-05
4.83917e-05
3.54082e-05
3.54231e-05
0.000186998
3.56622e-05
3.56772e-05
2.58231e-05
2.58258e-05
2.58239e-05
2.58238e-05
0.000186918
3.57385e-05
3.57564e-05
3.5697e-05
3.57113e-05
2.58264e-05
2.58263e-05
0.000115391
0.000219546
5.84198e-05
0.000207665
0.000114972
0.00021968
5.88345e-05
4.83481e-05
4.89516e-05
4.82004e-05
4.89696e-05
4.83483e-05
4.89514e-05
4.82005e-05
4.89695e-05
0.000115419
0.000207858
0.000219809
5.89889e-05
0.000219761
5.89186e-05
0.000115526
0.000115422
0.000207861
0.00021981
5.89857e-05
0.000219761
5.8915e-05
0.000115528
4.83745e-05
4.89725e-05
4.89725e-05
4.83984e-05
4.83747e-05
4.89724e-05
4.89723e-05
4.83986e-05
2.58229e-05
2.58256e-05
2.58219e-05
2.58246e-05
0.000186921
3.57563e-05
3.57498e-05
3.57111e-05
3.57047e-05
2.58262e-05
2.58261e-05
2.58253e-05
2.58252e-05
2.58283e-05
2.58282e-05
2.58257e-05
2.58256e-05
3.57586e-05
3.57532e-05
0.000187371
3.5762e-05
3.57565e-05
2.58281e-05
2.58283e-05
2.58256e-05
2.58258e-05
0.000187232
3.57631e-05
3.57577e-05
3.57595e-05
3.57545e-05
4.8401e-05
4.89764e-05
4.83884e-05
4.89758e-05
0.000115557
5.89801e-05
0.000219836
0.00020803
0.000115512
5.90033e-05
0.000219846
0.000115557
5.89773e-05
0.000219834
0.000208026
0.000115513
5.90005e-05
0.000219844
4.83948e-05
4.89755e-05
4.89761e-05
4.84045e-05
4.83951e-05
4.89756e-05
4.89763e-05
4.84049e-05
0.000115534
0.00020804
5.90091e-05
0.00021985
5.89906e-05
0.000219849
0.000115567
0.000115535
0.000208037
5.90061e-05
0.000219849
5.89876e-05
0.000219848
0.000115567
3.57524e-05
3.57475e-05
0.000187375
3.5756e-05
3.57527e-05
2.58274e-05
2.58272e-05
2.58266e-05
2.58268e-05
0.000187235
3.57572e-05
3.57539e-05
3.57537e-05
3.57501e-05
2.58272e-05
2.58274e-05
0.000115559
5.89731e-05
0.000219835
0.000208039
0.000115514
5.89961e-05
0.000219845
4.84055e-05
4.89701e-05
4.83936e-05
4.89694e-05
0.000115556
0.000219832
5.89636e-05
0.000208019
0.000115512
0.000219842
5.89876e-05
4.84021e-05
4.89722e-05
4.89729e-05
4.84112e-05
0.000115536
0.000208049
5.90016e-05
0.00021985
5.89835e-05
0.000219849
0.000115569
4.84005e-05
4.89692e-05
4.897e-05
4.84096e-05
0.000115534
0.00020803
0.000219847
5.89931e-05
0.000219846
5.8974e-05
0.000115566
4.84002e-05
4.89752e-05
4.83877e-05
4.89745e-05
0.000115555
0.000219835
5.89776e-05
0.000208028
0.000115511
0.000219845
5.90009e-05
4.83997e-05
4.89733e-05
4.83871e-05
4.89727e-05
0.000115535
0.000208051
5.90045e-05
0.000219852
5.89854e-05
0.000219851
0.000115567
4.83944e-05
4.89743e-05
4.8975e-05
4.84042e-05
0.000115533
0.000208038
0.00021985
5.90064e-05
0.000219849
5.89879e-05
0.000115565
4.83938e-05
4.89725e-05
4.89732e-05
4.84036e-05
3.57401e-05
3.57581e-05
0.000187365
3.57447e-05
3.57614e-05
2.58267e-05
2.58265e-05
2.58239e-05
2.58242e-05
0.000187226
3.57459e-05