/*--------------------------------*- C++ -*----------------------------------*\
| =========                 |                                                 |
| \\      /  F ield         | OpenFOAM: The Open Source CFD Toolbox           |
|  \\    /   O peration     | Version:  2206                                  |
|   \\  /    A nd           | Website:  www.openfoam.com                      |
|    \\/     M anipulation  |                                                 |
\*---------------------------------------------------------------------------*/
FoamFile
{
    version     2.0;
    format      ascii;
    arch        "LSB;label=32;scalar=64";
    class       surfaceScalarField;
    location    "34.5";
    object      phi;
}
// * * * * * * * * * * * * * * * * * * * * * * * * * * * * * * * * * * * * * //

dimensions      [0 3 -1 0 0 0 0];

oriented        oriented;

internalField   nonuniform List<scalar> 
83348
(
1.68954e-09
1.87802e-09
-0.00109222
-1.8194e-09
-1.77987e-09
0.00109222
-0.00109181
-1.21441e-06
-1.86807e-09
3.35092e-09
0.00109181
-2.62621e-07
1.21736e-06
2.61304e-07
9.0323e-07
-2.64319e-07
-9.02715e-07
2.60713e-07
-0.00109146
-1.20898e-06
-1.86531e-09
3.30638e-09
0.00109146
-2.59843e-07
1.21191e-06
2.58535e-07
9.03067e-07
-2.6694e-07
-9.02579e-07
2.63398e-07
-0.000268145
1.24282e-06
1.2091e-06
-2.35376e-07
-2.40695e-07
0.00026617
1.7472e-09
1.94296e-09
-0.00109222
-1.85426e-09
-1.80511e-09
0.00109222
-0.00109181
-1.21438e-06
-1.92869e-09
3.3271e-09
0.00109181
-2.626e-07
1.21736e-06
2.61314e-07
9.03237e-07
-2.64281e-07
-9.02696e-07
2.6074e-07
-0.00109146
-1.20897e-06
-1.92927e-09
3.29195e-09
0.00109146
-2.59827e-07
1.21192e-06
2.58543e-07
9.03075e-07
-2.66907e-07
-9.02562e-07
2.63422e-07
-0.000268145
1.24281e-06
1.20909e-06
-2.35359e-07
-2.40675e-07
0.00026617
1.78006e-09
1.98995e-09
-0.00109222
-1.86868e-09
-1.8214e-09
0.00109222
-0.00109181
-1.21437e-06
-2.00134e-09
3.30314e-09
0.00109181
-2.62587e-07
1.21737e-06
2.61327e-07
9.03263e-07
-2.64246e-07
-9.02675e-07
2.60782e-07
-0.00109146
-1.20895e-06
-1.97788e-09
3.26807e-09
0.00109146
-2.59811e-07
1.21193e-06
2.58559e-07
9.03088e-07
-2.6687e-07
-9.02553e-07
2.63463e-07
-0.000268145
1.24279e-06
1.20907e-06
-2.35344e-07
-2.40656e-07
0.000266169
1.88867e-09
2.06227e-09
-0.00109222
-1.89811e-09
-1.86189e-09
0.00109222
-0.00109181
-1.21434e-06
-2.10993e-09
3.22797e-09
0.00109181
-2.62569e-07
1.2174e-06
2.61353e-07
9.03302e-07
-2.64211e-07
-9.02651e-07
2.60828e-07
-0.00109146
-1.20892e-06
-2.04744e-09
3.21632e-09
0.00109146
-2.59789e-07
1.21196e-06
2.5859e-07
9.03128e-07
-2.66843e-07
-9.02527e-07
2.63504e-07
-0.000268145
1.24277e-06
1.20905e-06
-2.35321e-07
-2.40628e-07
0.000266169
2.11688e-09
2.30644e-09
-0.00109222
-1.99838e-09
-1.96338e-09
0.00109222
-0.0010918
-1.21432e-06
-2.28579e-09
3.16336e-09
0.0010918
-2.62545e-07
1.21744e-06
2.614e-07
9.03358e-07
-2.64192e-07
-9.02616e-07
2.60879e-07
-0.00109146
-1.2089e-06
-2.29426e-09
3.12911e-09
0.00109146
-2.59761e-07
1.21201e-06
2.58635e-07
9.032e-07
-2.66792e-07
-9.02473e-07
2.63579e-07
-0.000268145
1.24273e-06
1.20902e-06
-2.3529e-07
-2.40597e-07
0.000266169
2.1834e-09
2.34682e-09
-0.00109222
-2.0269e-09
-2.0035e-09
0.00109222
-0.0010918
-1.21436e-06
-2.19772e-09
3.23027e-09
0.0010918
-2.62573e-07
1.21742e-06
2.61397e-07
9.03356e-07
-2.64208e-07
-9.0264e-07
2.60898e-07
-0.00109146
-1.20892e-06
-2.35602e-09
3.10852e-09
0.00109146
-2.59784e-07
1.21202e-06
2.58651e-07
9.03221e-07
-2.6681e-07
-9.02498e-07
2.63601e-07
-0.000268144
1.24278e-06
1.20904e-06
-2.35302e-07
-2.40641e-07
0.000266168
7.031e-10
7.15985e-10
-0.00109222
-1.16686e-09
-1.30067e-09
0.00109222
-0.0010918
-1.21449e-06
-1.50616e-09
3.57675e-09
0.0010918
-2.62745e-07
1.21723e-06
2.61177e-07
9.03087e-07
-2.64436e-07
-9.02853e-07
2.60605e-07
-0.00109146
-1.20922e-06
-7.87355e-10
3.92469e-09
0.00109146
-2.60134e-07
1.21165e-06
2.58251e-07
9.02707e-07
-2.67284e-07
-9.02932e-07
2.63044e-07
-0.000268144
1.24308e-06
1.20927e-06
-2.35533e-07
-2.40949e-07
0.000266168
1.28373e-09
1.63115e-09
-0.00109222
-1.77436e-09
-1.58161e-09
0.00109222
-0.00109181
-1.21462e-06
-1.0104e-09
3.64548e-09
0.00109181
-2.6289e-07
1.21726e-06
2.61188e-07
9.03007e-07
-2.64833e-07
-9.03125e-07
2.60399e-07
-0.00109146
-1.20909e-06
-1.54953e-09
3.2829e-09
0.00109146
-2.59966e-07
1.21193e-06
2.58559e-07
9.02973e-07
-2.67278e-07
-9.02858e-07
2.63262e-07
-0.000268145
1.24291e-06
1.20928e-06
-2.35643e-07
-2.40855e-07
0.000266169
1.94448e-09
2.16578e-09
-0.00109222
-1.9948e-09
-1.9183e-09
0.00109222
-0.00109181
-1.21433e-06
-2.15822e-09
3.15856e-09
0.00109181
-2.62553e-07
1.21747e-06
2.61446e-07
9.0334e-07
-2.64317e-07
-9.02712e-07
2.60838e-07
-0.00109146
-1.20893e-06
-2.1298e-09
3.13827e-09
0.00109146
-2.59793e-07
1.21202e-06
2.58658e-07
9.03168e-07
-2.66941e-07
-9.02582e-07
2.63512e-07
-0.000268146
1.24278e-06
1.20906e-06
-2.3532e-07
-2.40641e-07
0.00026617
1.75566e-09
1.92135e-09
-0.00109222
-1.86538e-09
-1.84105e-09
0.00109222
-0.00109181
-1.2144e-06
-1.98793e-09
3.2849e-09
0.00109181
-2.62639e-07
1.21741e-06
2.61364e-07
9.03297e-07
-2.64349e-07
-9.02753e-07
2.60793e-07
-0.00109146
-1.20899e-06
-1.92356e-09
3.27032e-09
0.00109146
-2.59867e-07
1.21196e-06
2.58591e-07
9.03117e-07
-2.66992e-07
-9.0264e-07
2.63462e-07
-0.000268145
1.24285e-06
1.2091e-06
-2.35382e-07
-2.40715e-07
0.00026617
1.65299e-09
-8.42448e-09
-0.00109222
-1.84469e-09
-1.78937e-09
0.00109223
-0.00109181
-1.21443e-06
-1.94113e-09
3.30844e-09
0.00109181
-2.62605e-07
1.2174e-06
2.61339e-07
9.03286e-07
-2.64362e-07
-9.02768e-07
2.60783e-07
-0.00109146
-1.209e-06
-1.89768e-09
3.29153e-09
0.00109146
-2.59875e-07
1.21196e-06
2.58586e-07
9.0311e-07
-2.67001e-07
-9.02651e-07
2.63457e-07
-0.000268145
1.24285e-06
1.20912e-06
-2.35393e-07
-2.40718e-07
0.00026617
1.68752e-09
1.93609e-09
-0.00109223
-1.86105e-09
-1.77931e-09
0.00109223
-0.00109181
-1.21446e-06
-1.8873e-09
3.40625e-09
0.00109181
-2.59925e-07
1.21737e-06
2.58528e-07
9.03284e-07
-2.64343e-07
-9.02771e-07
2.60755e-07
-0.00109146
-1.209e-06
-1.90938e-09
3.30245e-09
0.00109146
-2.59876e-07
1.21196e-06
2.58582e-07
9.03108e-07
-2.67e-07
-9.0265e-07
2.63453e-07
-0.000268145
1.24284e-06
1.20912e-06
-2.35399e-07
-2.40712e-07
0.00026617
1.69441e-09
1.91106e-09
-0.00109223
-1.83617e-09
-1.78489e-09
0.00109223
-0.00109181
-1.21442e-06
-1.90864e-09
3.33389e-09
0.00109181
-2.59888e-07
1.2174e-06
2.58567e-07
9.03279e-07
-2.64338e-07
-9.02772e-07
2.60759e-07
-0.00109146
-1.209e-06
-1.91678e-09
3.30219e-09
0.00109146
-2.59876e-07
1.21196e-06
2.58586e-07
9.0311e-07
-2.67002e-07
-9.0265e-07
2.63457e-07
-0.000268145
1.24284e-06
1.20912e-06
-2.354e-07
-2.40715e-07
0.00026617
1.69986e-09
1.89634e-09
-0.00109223
-1.82573e-09
-1.79263e-09
0.00109223
-0.00109181
-1.21442e-06
-1.90233e-09
3.33531e-09
0.00109181
-2.59891e-07
1.21741e-06
2.58565e-07
9.03277e-07
-2.6434e-07
-9.02775e-07
2.60756e-07
-0.00109146
-1.209e-06
-1.90529e-09
3.3071e-09
0.00109146
-2.59876e-07
1.21196e-06
2.58584e-07
9.03107e-07
-2.67002e-07
-9.02652e-07
2.63452e-07
-0.000268146
1.24285e-06
1.20913e-06
-2.354e-07
-2.40717e-07
0.00026617
1.70429e-09
1.89147e-09
-0.00109223
-1.82096e-09
-1.79614e-09
0.00109223
-0.00109181
-1.21442e-06
-1.90329e-09
3.33296e-09
0.00109181
-2.59891e-07
1.21741e-06
2.58563e-07
9.03274e-07
-2.64337e-07
-9.02774e-07
2.60753e-07
-0.00109146
-1.209e-06
-1.90411e-09
3.30322e-09
0.00109146
-2.59875e-07
1.21196e-06
2.58583e-07
9.03105e-07
-2.67e-07
-9.02651e-07
2.6345e-07
-0.000268146
1.24285e-06
1.20912e-06
-2.35399e-07
-2.40716e-07
0.00026617
1.69931e-09
1.87912e-09
-0.00109223
-1.81146e-09
-1.79199e-09
0.00109223
-0.00109181
-1.21442e-06
-1.89785e-09
3.33554e-09
0.00109181
-2.5989e-07
1.2174e-06
2.58559e-07
9.03269e-07
-2.64333e-07
-9.0277e-07
2.60746e-07
-0.00109146
-1.209e-06
-1.89834e-09
3.30832e-09
0.00109146
-2.59874e-07
1.21195e-06
2.5858e-07
9.031e-07
-2.66996e-07
-9.02649e-07
2.63443e-07
-0.000268146
1.24284e-06
1.20912e-06
-2.35398e-07
-2.40715e-07
0.00026617
1.69585e-09
1.87248e-09
-0.00109223
-1.80732e-09
-1.78977e-09
0.00109223
-0.00109181
-1.21442e-06
-1.89612e-09
3.33682e-09
0.00109181
-2.59884e-07
1.2174e-06
2.58551e-07
9.03257e-07
-2.64322e-07
-9.0276e-07
2.60733e-07
-0.00109146
-1.20899e-06
-1.89702e-09
3.30836e-09
0.00109146
-2.59867e-07
1.21195e-06
2.58573e-07
9.03087e-07
-2.66984e-07
-9.02638e-07
2.6343e-07
-0.000268146
1.24284e-06
1.20912e-06
-2.35393e-07
-2.40711e-07
0.00026617
1.70749e-09
1.87944e-09
-0.00109223
-1.8105e-09
-1.79474e-09
-0.00109181
-1.2144e-06
-1.89747e-09
3.33061e-09
-2.59859e-07
1.21739e-06
2.58529e-07
9.03225e-07
-2.64291e-07
-9.02732e-07
2.60703e-07
-0.00109146
-1.20898e-06
-1.89734e-09
3.30604e-09
-2.59843e-07
1.21193e-06
2.5855e-07
9.03055e-07
-2.66953e-07
-9.02609e-07
2.63402e-07
-0.000268146
1.24284e-06
1.20912e-06
-2.35386e-07
-2.40702e-07
0.00026617
-1.25374e-06
-1.2147e-06
0.000268161
-0.000266175
2.35756e-07
2.46158e-07
0.00109101
-1.6506e-09
-0.00109101
3.54652e-09
-1.25085e-06
2.66607e-07
-2.68051e-07
-9.0537e-07
2.57852e-07
-2.61595e-07
9.05787e-07
1.25658e-06
0.00109146
-1.6328e-09
-0.00109146
3.50792e-09
-1.25367e-06
2.66686e-07
-2.6812e-07
-9.11075e-07
2.63394e-07
-2.67146e-07
9.11461e-07
-1.21737e-06
0.000268185
-0.000266193
2.38545e-07
2.43415e-07
0.00109209
-1.88482e-09
-0.00109209
3.29959e-09
-1.21179e-06
2.61342e-07
-2.62647e-07
-9.05445e-07
2.63476e-07
-2.67091e-07
9.06029e-07
1.25113e-06
0.00109113
-1.65709e-09
-0.00109113
3.52024e-09
-1.24825e-06
2.66666e-07
-2.68111e-07
-9.05455e-07
2.63366e-07
-2.67055e-07
9.05851e-07
-1.88479e-09
3.33682e-09
-1.21441e-06
2.61307e-07
-2.62623e-07
-9.02725e-07
2.60705e-07
9.03222e-07
-2.6433e-07
1.2457e-06
0.00109093
-1.66238e-09
-0.00109093
3.53308e-09
-1.24283e-06
2.61113e-07
-2.62534e-07
-9.02749e-07
2.60571e-07
-2.6429e-07
9.03126e-07
-1.21191e-06
0.00026814
-0.000266157
2.35945e-07
2.43366e-07
-1.8629e-09
-0.00109146
3.30974e-09
-1.20898e-06
2.58532e-07
-2.59846e-07
-9.0254e-07
2.63368e-07
9.03111e-07
-2.66972e-07
1.21202e-06
0.00109198
-1.83788e-09
-0.00109198
3.33768e-09
-1.2091e-06
2.58581e-07
-2.59912e-07
-9.02836e-07
2.63463e-07
-2.67075e-07
9.03371e-07
-0.00026617
2.3827e-07
2.43604e-07
1.25085e-06
1.21178e-06
-2.32866e-07
-2.43221e-07
0.000266175
-1.25376e-06
-1.21471e-06
0.000268161
-0.000266175
2.35771e-07
2.46176e-07
3.53792e-09
0.00109101
-2.68048e-07
1.25375e-06
2.66611e-07
9.05797e-07
-2.61587e-07
-9.0535e-07
2.57862e-07
-1.25368e-06
-1.65314e-09
3.5442e-09
0.00109146
-2.68126e-07
1.25925e-06
2.69422e-07
9.11471e-07
-2.67137e-07
-9.11063e-07
2.63402e-07
0.00109101
-1.72079e-09
-0.00109101
3.51057e-09
-1.25083e-06
2.66621e-07
-2.6803e-07
-9.05353e-07
2.57881e-07
-2.61554e-07
9.0579e-07
1.25657e-06
0.00109146
-1.71116e-09
-0.00109146
3.51243e-09
-1.25634e-06
2.66694e-07
-2.70847e-07
-9.11042e-07
2.63428e-07
-2.67102e-07
9.11482e-07
-2.35621e-07
-2.40479e-07
0.000266193
-1.21736e-06
0.000268185
-0.000266193
2.38556e-07
2.43421e-07
3.29854e-09
0.00109209
-2.62645e-07
1.21471e-06
2.61344e-07
9.06036e-07
-2.67082e-07
-9.05435e-07
2.63483e-07
-1.24825e-06
-1.67732e-09
3.51978e-09
0.00109113
-2.68108e-07
1.25114e-06
2.66669e-07
9.0586e-07
-2.67043e-07
-9.0544e-07
2.63376e-07
0.00109209
-1.97182e-09
-0.00109209
3.27347e-09
-1.21177e-06
2.61351e-07
-2.6263e-07
-9.05412e-07
2.63509e-07
-2.67045e-07
9.06047e-07
1.25114e-06
0.00109113
-1.73381e-09
-0.00109113
3.49326e-09
-1.24823e-06
2.6668e-07
-2.6809e-07
-9.05433e-07
2.63398e-07
-2.6701e-07
9.05857e-07
-1.66609e-09
3.52111e-09
0.00109093
-2.6253e-07
1.2457e-06
2.61119e-07
9.03135e-07
-2.64277e-07
2.60582e-07
-9.02737e-07
-1.93751e-09
-0.00109181
3.32685e-09
-1.21439e-06
2.61314e-07
-2.62603e-07
-9.02692e-07
2.6074e-07
9.0324e-07
-2.64283e-07
1.24571e-06
0.00109093
-1.72703e-09
-0.00109093
3.48676e-09
-1.24281e-06
2.6113e-07
-2.62508e-07
-9.02717e-07
2.60605e-07
-2.64241e-07
9.03142e-07
-2.33029e-07
-2.40453e-07
0.000266157
-1.21192e-06
0.00026814
-0.000266157
2.3596e-07
2.43383e-07
-1.86117e-09
3.3383e-09
0.00109198
-2.59911e-07
1.21202e-06
2.58583e-07
9.03382e-07
-2.67063e-07
2.63474e-07
-9.02822e-07
-1.94708e-09
-0.00109146
3.28061e-09
-1.20897e-06
2.58544e-07
-2.59826e-07
-9.02508e-07
2.634e-07
9.0313e-07
-2.66927e-07
1.21202e-06
0.00109198
-1.93316e-09
-0.00109198
3.31131e-09
-1.20909e-06
2.58595e-07
-2.59892e-07
-9.02802e-07
2.63498e-07
-2.67028e-07
9.03391e-07
-0.00026617
2.38283e-07
2.43622e-07
1.25083e-06
1.21177e-06
-2.32846e-07
-2.43201e-07
0.000266175
-1.25377e-06
-1.21473e-06
0.000268161
-0.000266175
2.35796e-07
2.46195e-07
3.51167e-09
0.00109101
-2.68027e-07
1.25376e-06
2.66624e-07
9.05797e-07
-2.61554e-07
-9.05346e-07
2.57889e-07
-1.25365e-06
-1.72227e-09
3.51468e-09
0.00109146
-2.68104e-07
1.25925e-06
2.69436e-07
9.11482e-07
-2.67099e-07
-9.11042e-07
2.63431e-07
0.00109101
-1.78431e-09
-0.00109101
3.47389e-09
-1.25082e-06
2.66638e-07
-2.68014e-07
-9.05336e-07
2.57925e-07
-2.61515e-07
9.05809e-07
1.25927e-06
0.00109146
-1.76297e-09
-0.00109146
3.49242e-09
-1.25632e-06
2.69452e-07
-2.70834e-07
-9.11035e-07
2.6346e-07
-2.67075e-07
9.11491e-07
-2.35593e-07
-2.40457e-07
0.000266193
-1.21737e-06
0.000268188
-0.000266193
2.38606e-07
2.43444e-07
3.27659e-09
0.00109209
-2.62628e-07
1.21471e-06
2.61353e-07
9.06044e-07
-2.67048e-07
-9.05418e-07
2.63507e-07
-1.24823e-06
-1.72792e-09
3.50447e-09
0.00109113
-2.68088e-07
1.25114e-06
2.6668e-07
9.05856e-07
-2.67011e-07
-9.05436e-07
2.63398e-07
0.00109209
-2.03224e-09
-0.00109209
3.23634e-09
-1.21175e-06
2.6137e-07
-2.62612e-07
-9.05401e-07
2.63547e-07
-2.67014e-07
9.06063e-07
1.25116e-06
0.00109113
-1.78794e-09
-0.00109113
3.46176e-09
-1.24822e-06
2.66696e-07
-2.68074e-07
-9.05419e-07
2.63435e-07
-2.66978e-07
9.05875e-07
-1.72655e-09
3.48791e-09
0.00109093
-2.62507e-07
1.24571e-06
2.61131e-07
9.03142e-07
-2.64238e-07
2.60608e-07
-9.02719e-07
-2.00395e-09
-0.00109181
3.30728e-09
-1.21437e-06
2.61325e-07
-2.6259e-07
-9.0268e-07
2.60773e-07
9.0326e-07
-2.64259e-07
1.24572e-06
0.00109093
-1.79719e-09
-0.00109093
3.46035e-09
-1.24279e-06
2.61146e-07
-2.62494e-07
-9.02701e-07
2.60641e-07
-2.6421e-07
9.03165e-07
-2.33012e-07
-2.40434e-07
0.000266156
-1.21194e-06
0.00026814
-0.000266156
2.35982e-07
2.43402e-07
-1.93486e-09
3.31748e-09
0.00109198
-2.5989e-07
1.21202e-06
2.58596e-07
9.03393e-07
-2.67028e-07
2.635e-07
-9.02803e-07
-2.00673e-09
-0.00109146
3.25371e-09
-1.20895e-06
2.58561e-07
-2.5981e-07
-9.02498e-07
2.63438e-07
9.03144e-07
-2.66896e-07
1.21204e-06
0.00109198
-1.98978e-09
-0.00109198
3.27789e-09
-1.20907e-06
2.58612e-07
-2.59875e-07
-9.02791e-07
2.63536e-07
-2.66997e-07
9.03407e-07
-0.000266169
2.38299e-07
2.43643e-07
1.25081e-06
1.21175e-06
-2.32829e-07
-2.43182e-07
0.000266175
-1.2538e-06
-1.21476e-06
0.000268161
-0.000266175
2.35825e-07
2.46224e-07
3.4846e-09
0.00109101
-2.68012e-07
1.25377e-06
2.66641e-07
9.05807e-07
-2.6152e-07
-9.05337e-07
2.57921e-07
-1.25632e-06
-1.76262e-09
3.48707e-09
0.00109146
-2.70828e-07
1.25927e-06
2.69457e-07
9.11493e-07
-2.67069e-07
-9.11036e-07
2.63469e-07
0.00109101
-1.90288e-09
-0.00109101
3.40377e-09
-1.2508e-06
2.66663e-07
-2.67994e-07
-9.05314e-07
2.57968e-07
-2.61489e-07
9.05854e-07
1.25929e-06
0.00109146
-1.86277e-09
-0.00109146
3.45401e-09
-1.2563e-06
2.69475e-07
-2.70814e-07
-9.11023e-07
2.63502e-07
-2.67046e-07
9.11519e-07
-2.35614e-07
-2.40434e-07
0.000266193
-1.21739e-06
0.000268188
-0.000266193
2.38635e-07
2.43468e-07
3.24659e-09
0.00109208
-2.62612e-07
1.21473e-06
2.61369e-07
9.06057e-07
-2.67012e-07
-9.05408e-07
2.63549e-07
-1.24822e-06
-1.75627e-09
3.47924e-09
0.00109113
-2.68073e-07
1.25116e-06
2.66696e-07
9.05866e-07
-2.6698e-07
-9.05428e-07
2.6343e-07
0.00109208
-2.14329e-09
-0.00109208
3.18076e-09
-1.21173e-06
2.61395e-07
-2.62594e-07
-9.05385e-07
2.63589e-07
-2.66981e-07
9.06094e-07
1.25119e-06
0.00109113
-1.91457e-09
-0.00109113
3.39856e-09
-1.2482e-06
2.6672e-07
-2.68056e-07
-9.05397e-07
2.63479e-07
-2.66949e-07
9.05918e-07
-1.79338e-09
3.45977e-09
0.00109093
-2.62492e-07
1.24572e-06
2.61146e-07
9.03169e-07
-2.64201e-07
2.60648e-07
-9.02697e-07
-2.11347e-09
-0.00109181
3.25585e-09
-1.21435e-06
2.61344e-07
-2.62575e-07
-9.02658e-07
2.60819e-07
9.0329e-07
-2.64221e-07
1.24575e-06
0.00109092
-1.89943e-09
-0.00109093
3.40958e-09
-1.24278e-06
2.61164e-07
-2.6248e-07
-9.02678e-07
2.60676e-07
-2.64179e-07
9.03195e-07
-2.32995e-07
-2.40416e-07
0.000266156
-1.21196e-06
0.00026814
-0.000266156
2.36011e-07
2.4343e-07
-1.9763e-09
3.2855e-09
0.00109198
-2.59873e-07
1.21204e-06
2.58614e-07
9.03405e-07
-2.66992e-07
2.63541e-07
-9.02793e-07
-2.10998e-09
-0.00109146
3.1866e-09
-1.20893e-06
2.58587e-07
-2.59793e-07
-9.02482e-07
2.63478e-07
9.03175e-07
-2.66865e-07
1.21206e-06
0.00109198
-2.09529e-09
-0.00109198
3.2303e-09
-1.20905e-06
2.58634e-07
-2.5986e-07
-9.02776e-07
2.63576e-07
-2.66967e-07
9.03437e-07
-0.000266169
2.38324e-07
2.43669e-07
1.25079e-06
1.21172e-06
-2.32797e-07
-2.43157e-07
0.000266174
-1.25382e-06
-1.21478e-06
0.000268161
-0.000266174
2.35862e-07
2.46263e-07
3.43857e-09
0.00109101
-2.67995e-07
1.2538e-06
2.66663e-07
9.05873e-07
-2.61482e-07
-9.0529e-07
2.5798e-07
-1.2563e-06
-1.87605e-09
3.44408e-09
0.00109146
-2.70813e-07
1.2593e-06
2.69476e-07
9.11537e-07
-2.67034e-07
-9.11007e-07
2.63514e-07
0.00109101
-2.07781e-09
-0.00109101
3.3586e-09
-1.25078e-06
2.66698e-07
-2.67978e-07
-9.05261e-07
2.58024e-07
-2.61457e-07
9.05916e-07
1.25929e-06
0.00109146
-1.99078e-09
-0.00109146
3.48353e-09
-1.25631e-06
2.69479e-07
-2.7082e-07
-9.10972e-07
2.63548e-07
-2.67011e-07
9.1158e-07
-2.35588e-07
-2.40415e-07
0.000266193
-1.21741e-06
0.000268187
-0.000266193
2.38664e-07
2.4348e-07
3.21581e-09
0.00109208
-2.62593e-07
1.21476e-06
2.61397e-07
9.06098e-07
-2.66984e-07
-9.05381e-07
2.6359e-07
-1.24819e-06
-1.87547e-09
3.43257e-09
0.00109113
-2.68056e-07
1.25118e-06
2.6672e-07
9.05933e-07
-2.6694e-07
-9.0538e-07
2.6349e-07
0.00109208
-2.34204e-09
-0.00109208
3.14024e-09
-1.21171e-06
2.6143e-07
-2.62576e-07
-9.05331e-07
2.6365e-07
-2.66947e-07
9.06164e-07
1.25121e-06
0.00109113
-2.09655e-09
-0.00109113
3.3635e-09
-1.24818e-06
2.66752e-07
-2.68043e-07
-9.05341e-07
2.63538e-07
-2.66911e-07
9.05982e-07
-1.86218e-09
3.42228e-09
0.00109092
-2.62472e-07
1.24575e-06
2.61178e-07
9.032e-07
-2.64181e-07
2.60681e-07
-9.02678e-07
-2.14356e-09
-0.0010918
3.24719e-09
-1.21434e-06
2.61365e-07
-2.62567e-07
-9.02643e-07
2.60841e-07
9.03326e-07
-2.64214e-07
1.24578e-06
0.00109092
-2.00139e-09
-0.00109092
3.34551e-09
-1.24275e-06
2.61212e-07
-2.62452e-07
-9.02657e-07
2.60719e-07
-2.64167e-07
9.03241e-07
-2.32961e-07
-2.40391e-07
0.000266156
-1.21199e-06
0.000268139
-0.000266156
2.36048e-07
2.43468e-07
-2.04961e-09
3.26428e-09
0.00109198
-2.5986e-07
1.21206e-06
2.58633e-07
9.03446e-07
-2.66963e-07
2.63584e-07
-9.02767e-07
-2.29918e-09
-0.00109146
3.14321e-09
-1.20891e-06
2.5862e-07
-2.59775e-07
-9.02427e-07
2.63539e-07
9.03245e-07
-2.6683e-07
1.21208e-06
0.00109198
-2.30408e-09
-0.00109198
3.2044e-09
-1.20904e-06
2.58664e-07
-2.59847e-07
-9.02719e-07
2.63641e-07
-2.66927e-07
9.03509e-07
-0.000266169
2.38361e-07
2.43716e-07
1.25076e-06
1.2117e-06
-2.32773e-07
-2.43127e-07
0.000266174
-1.25378e-06
-1.21475e-06
0.00026816
-0.000266174
2.35861e-07
2.46247e-07
3.34425e-09
0.00109101
-2.67961e-07
1.25384e-06
2.66716e-07
9.05929e-07
-2.61443e-07
-9.05251e-07
2.58047e-07
-1.25628e-06
-2.10691e-09
3.37954e-09
0.00109146
-2.70796e-07
1.25933e-06
2.69523e-07
9.116e-07
-2.66998e-07
-9.10959e-07
2.63577e-07
0.00109101
-1.92978e-09
-0.00109101
3.50992e-09
-1.25082e-06
2.6667e-07
-2.68014e-07
-9.0529e-07
2.58028e-07
-2.61482e-07
9.05901e-07
1.2593e-06
0.00109145
-1.81445e-09
-0.00109145
3.50928e-09
-1.2563e-06
2.69497e-07
-2.70824e-07
-9.10996e-07
2.63537e-07
-2.67041e-07
9.1156e-07
-2.35564e-07
-2.40403e-07
0.000266193
-1.2174e-06
0.000268187
-0.000266192
2.38671e-07
2.43516e-07
3.11014e-09
0.00109208
-2.6256e-07
1.2148e-06
2.61448e-07
9.06168e-07
-2.66934e-07
-9.0533e-07
2.63665e-07
-1.24817e-06
-2.09209e-09
3.34294e-09
0.00109113
-2.68025e-07
1.25123e-06
2.66771e-07
9.05986e-07
-2.66898e-07
-9.05341e-07
2.63554e-07
0.00109208
-2.14506e-09
-0.00109208
3.23846e-09
-1.21174e-06
2.61415e-07
-2.62604e-07
-9.05368e-07
2.63638e-07
-2.6698e-07
9.06137e-07
1.25118e-06
0.00109113
-1.91467e-09
-0.00109113
3.46949e-09
-1.24821e-06
2.66739e-07
-2.68067e-07
-9.05381e-07
2.63529e-07
-2.66944e-07
9.05957e-07
-2.07543e-09
3.31553e-09
0.00109092
-2.62436e-07
1.2458e-06
2.61223e-07
9.03266e-07
-2.64136e-07
2.60756e-07
-9.02633e-07
-2.07377e-09
-0.0010918
3.32279e-09
-1.21435e-06
2.61367e-07
-2.62578e-07
-9.02627e-07
2.60863e-07
9.0335e-07
-2.64217e-07
1.24574e-06
0.00109092
-1.90328e-09
-0.00109092
3.50622e-09
-1.24278e-06
2.61186e-07
-2.62478e-07
-9.02655e-07
2.60738e-07
-2.64176e-07
9.03255e-07
-2.32939e-07
-2.40362e-07
0.000266156
-1.21195e-06
0.000268139
-0.000266155
2.36039e-07
2.43463e-07
-2.30912e-09
3.16521e-09
0.00109198
-2.5983e-07
1.21211e-06
2.58684e-07
9.03516e-07
-2.66912e-07
2.63656e-07
-9.02714e-07
-2.13829e-09
-0.00109146
3.27701e-09
-1.20895e-06
2.58599e-07
-2.59807e-07
-9.02456e-07
2.63534e-07
9.03225e-07
-2.66856e-07
1.21207e-06
0.00109198
-2.10534e-09
-0.00109198
3.27577e-09
-1.20906e-06
2.58659e-07
-2.59864e-07
-9.02754e-07
2.63628e-07
-2.66958e-07
9.03481e-07
-0.000266168
2.38373e-07
2.43701e-07
1.2508e-06
1.21172e-06
-2.32793e-07
-2.43162e-07
0.000266174
-1.25366e-06
-1.21466e-06
0.00026816
-0.000266173
2.35714e-07
2.46081e-07
3.33793e-09
0.00109101
-2.67994e-07
1.25385e-06
2.66722e-07
9.05956e-07
-2.6146e-07
-9.05272e-07
2.58077e-07
-1.25629e-06
-2.01024e-09
3.38009e-09
0.00109145
-2.70798e-07
1.25934e-06
2.69549e-07
9.11581e-07
-2.67039e-07
-9.11011e-07
2.63573e-07
0.00109101
-1.42371e-09
-0.00109101
3.94926e-09
-1.2509e-06
2.66502e-07
-2.68152e-07
-9.05413e-07
2.57837e-07
-2.61635e-07
9.0574e-07
1.25936e-06
0.00109145
-1.68918e-09
-0.00109145
3.31607e-09
-1.25625e-06
2.69513e-07
-2.70809e-07
-9.11055e-07
2.63475e-07
-2.67084e-07
9.11484e-07
-2.35588e-07
-2.40397e-07
0.000266192
-1.21743e-06
0.000268186
-0.000266192
2.38647e-07
2.43531e-07
3.06177e-09
0.00109208
-2.62578e-07
1.21483e-06
2.61471e-07
9.06181e-07
-2.66959e-07
-9.05362e-07
2.63681e-07
-1.24819e-06
-2.13976e-09
3.30112e-09
0.00109113
-2.68044e-07
1.25125e-06
2.66791e-07
9.06005e-07
-2.66921e-07
-9.0537e-07
2.63574e-07
0.00109208
-1.4672e-09
-0.00109208
3.50137e-09
-1.2118e-06
2.61269e-07
-2.62719e-07
-9.05513e-07
2.63417e-07
-2.67151e-07
9.05947e-07
1.25107e-06
0.00109113
-1.29994e-09
-0.00109113
3.76878e-09
-1.24828e-06
2.66584e-07
-2.6819e-07
-9.05519e-07
2.63317e-07
-2.67109e-07
9.05775e-07
-2.08949e-09
3.3764e-09
0.00109092
-2.62486e-07
1.24578e-06
2.61203e-07
9.03287e-07
-2.64145e-07
2.6078e-07
-9.02646e-07
-2.21129e-09
-0.0010918
3.23053e-09
-1.21432e-06
2.61366e-07
-2.62581e-07
-9.02633e-07
2.60854e-07
9.03346e-07
-2.64229e-07
1.24564e-06
0.00109092
-1.72437e-09
-0.00109092
3.85335e-09
-1.24285e-06
2.61038e-07
-2.626e-07
-9.02702e-07
2.60639e-07
-2.64258e-07
9.03191e-07
-2.32965e-07
-2.40386e-07
0.000266155
-1.21184e-06
0.000268139
-0.000266155
2.35881e-07
2.43305e-07
-2.34397e-09
3.11361e-09
0.00109198
-2.59842e-07
1.21213e-06
2.58709e-07
9.03526e-07
-2.66942e-07
2.63668e-07
-9.02749e-07
-1.53744e-09
-0.00109146
3.61595e-09
-1.20902e-06
2.58442e-07
-2.59932e-07
-9.02594e-07
2.63325e-07
9.03043e-07
-2.67016e-07
1.21203e-06
0.00109198
-1.43845e-09
-0.00109198
3.40865e-09
-1.20908e-06
2.58553e-07
-2.59948e-07
-9.02896e-07
2.63417e-07
-2.67121e-07
9.03296e-07
-0.000266168
2.38287e-07
2.43545e-07
1.25111e-06
1.21201e-06
-2.33102e-07
-2.43482e-07
0.000266173
-1.25365e-06
-1.21458e-06
0.000268161
-0.000266174
2.35538e-07
2.45956e-07
4.26083e-09
0.00109101
-2.68356e-07
1.25347e-06
2.66309e-07
9.05466e-07
-2.61922e-07
-9.05688e-07
2.57544e-07
-1.25639e-06
-9.45846e-10
3.61161e-09
0.00109145
-2.70949e-07
1.25919e-06
2.69356e-07
9.11203e-07
-2.67355e-07
-9.11319e-07
2.63163e-07
0.00109101
-7.46469e-10
-0.00109101
3.67359e-09
-1.25109e-06
2.665e-07
-2.68321e-07
-9.05855e-07
2.57518e-07
-2.62152e-07
9.05495e-07
1.25897e-06
0.00109146
-5.1684e-10
-0.00109146
4.1466e-09
-1.25672e-06
2.69132e-07
-2.71271e-07
-9.11568e-07
2.62965e-07
-2.67762e-07
9.11146e-07
-2.35739e-07
-2.405e-07
0.000266192
-1.21712e-06
0.000268188
-0.000266193
2.38247e-07
2.43024e-07
3.82156e-09
0.00109208
-2.62921e-07
1.21446e-06
2.61076e-07
9.05666e-07
-2.67442e-07
-9.05799e-07
2.63115e-07
-1.24849e-06
-5.64286e-10
4.08739e-09
0.00109113
-2.68392e-07
1.25088e-06
2.6639e-07
9.05499e-07
-2.67393e-07
-9.05801e-07
2.63023e-07
0.00109209
-1.11339e-09
-0.00109208
3.55731e-09
-1.21205e-06
2.61213e-07
-2.62932e-07
-9.05891e-07
2.63151e-07
-2.67613e-07
9.05768e-07
1.25102e-06
0.00109113
-8.26936e-10
-0.00109113
3.7602e-09
-1.24851e-06
2.66543e-07
-2.6839e-07
-9.05919e-07
2.63027e-07
-2.67591e-07
9.05573e-07
-1.00116e-09
4.23219e-09
0.00109092
-2.62828e-07
1.24542e-06
2.6081e-07
9.02925e-07
-2.64479e-07
2.60385e-07
-9.02942e-07
-5.56918e-10
-0.0010918
3.84704e-09
-1.21474e-06
2.61032e-07
-2.6302e-07
-9.03271e-07
2.60225e-07
9.02836e-07
-2.64963e-07
1.2456e-06
0.00109093
-5.39598e-10
-0.00109092
3.68796e-09
-1.24308e-06
2.61005e-07
-2.62813e-07
-9.03286e-07
2.60139e-07
-2.64886e-07
9.02756e-07
-2.33277e-07
-2.407e-07
0.000266155
-1.2118e-06
0.00026814
-0.000266156
2.35729e-07
2.43153e-07
-6.98263e-10
3.73568e-09
0.00109198
-2.60135e-07
1.21183e-06
2.58368e-07
9.03008e-07
-2.67421e-07
2.631e-07
-9.03187e-07
-1.03032e-09
-0.00109146
3.52084e-09
-1.20923e-06
2.58409e-07
-2.60123e-07
-9.02997e-07
2.63036e-07
9.02841e-07
-2.675e-07
1.21184e-06
0.00109198
-1.06325e-09
-0.00109198
3.69309e-09
-1.2094e-06
2.58417e-07
-2.60219e-07
-9.03284e-07
2.63138e-07
-2.67606e-07
9.03115e-07
-0.000266169
2.37979e-07
2.43406e-07
1.25094e-06
1.21191e-06
-2.33071e-07
-2.43388e-07
0.000266175
-1.25388e-06
-1.21483e-06
0.000268162
-0.000266175
2.35891e-07
2.46285e-07
3.40354e-09
0.00109101
-2.6815e-07
1.25379e-06
2.66659e-07
9.05681e-07
-2.61964e-07
-9.05666e-07
2.57719e-07
-1.25663e-06
-1.03304e-09
3.98816e-09
0.00109146
-2.71181e-07
1.25909e-06
2.69255e-07
9.11333e-07
-2.67561e-07
-9.11383e-07
2.63186e-07
0.00109101
-1.94686e-09
-0.00109101
3.28053e-09
-1.25078e-06
2.66763e-07
-2.67972e-07
-9.0537e-07
2.58e-07
-2.61615e-07
9.05906e-07
1.25937e-06
0.00109146
-1.91349e-09
-0.00109146
3.4224e-09
-1.25631e-06
2.69568e-07
-2.70822e-07
-9.11075e-07
2.63509e-07
-2.67147e-07
9.11561e-07
-2.35953e-07
-2.40851e-07
0.000266193
-1.21748e-06
0.000268188
-0.000266193
2.38698e-07
2.4353e-07
3.34526e-09
0.00109209
-2.62782e-07
1.21471e-06
2.61357e-07
9.05952e-07
-2.67407e-07
-9.057e-07
2.63355e-07
-1.24836e-06
-1.3711e-09
3.53252e-09
0.00109113
-2.68231e-07
1.25116e-06
2.66693e-07
9.05761e-07
-2.67387e-07
-9.05728e-07
2.63235e-07
0.00109209
-2.24126e-09
-0.00109209
3.1262e-09
-1.21173e-06
2.61485e-07
-2.62588e-07
-9.0542e-07
2.63603e-07
-2.67075e-07
9.0615e-07
1.25126e-06
0.00109113
-2.00121e-09
-0.00109113
3.32043e-09
-1.24819e-06
2.66811e-07
-2.68044e-07
-9.05437e-07
2.63498e-07
-2.67043e-07
9.05973e-07
-1.0431e-09
3.39304e-09
0.00109093
-2.62622e-07
1.24575e-06
2.61179e-07
9.02937e-07
-2.64732e-07
2.60324e-07
-9.03125e-07
-2.10877e-09
-0.00109181
3.17736e-09
-1.21434e-06
2.61455e-07
-2.62558e-07
-9.02736e-07
2.60812e-07
9.0333e-07
-2.64363e-07
1.24583e-06
0.00109093
-1.90449e-09
-0.00109093
3.28874e-09
-1.24275e-06
2.6127e-07
-2.6245e-07
-9.02746e-07
2.6068e-07
-2.6431e-07
9.03245e-07
-2.33216e-07
-2.40636e-07
0.000266156
-1.21204e-06
0.00026814
-0.000266157
2.36075e-07
2.43486e-07
-1.61367e-09
3.4961e-09
0.00109198
-2.60087e-07
1.21197e-06
2.5855e-07
9.03308e-07
-2.67387e-07
2.63355e-07
-9.03083e-07
-2.1777e-09
-0.00109146
3.09066e-09
-1.20891e-06
2.58684e-07
-2.59773e-07
-9.02527e-07
2.63492e-07
9.0323e-07
-2.66971e-07
1.21213e-06
0.00109199
-2.18561e-09
-0.00109199
3.19902e-09
-1.20906e-06
2.58714e-07
-2.59863e-07
-9.02813e-07
2.63595e-07
-2.6706e-07
9.03495e-07
-0.00026617
2.38386e-07
2.43731e-07
1.2508e-06
1.21174e-06
-2.32817e-07
-2.43162e-07
0.000266175
-1.2538e-06
-1.21477e-06
0.000268161
-0.000266175
2.35829e-07
2.46205e-07
3.3513e-09
0.00109101
-2.67996e-07
1.25386e-06
2.66734e-07
9.05906e-07
-2.61605e-07
-9.0536e-07
2.58003e-07
-1.25629e-06
-1.92958e-09
3.37034e-09
0.00109146
-2.70797e-07
1.25937e-06
2.69575e-07
9.1156e-07
-2.67128e-07
-9.11067e-07
2.63514e-07
0.00109101
-1.78416e-09
-0.00109101
3.4873e-09
-1.25085e-06
2.66674e-07
-2.68063e-07
-9.05404e-07
2.57975e-07
-2.61636e-07
9.05867e-07
1.25932e-06
0.00109146
-1.75109e-09
-0.00109146
3.45851e-09
-1.25633e-06
2.69513e-07
-2.70856e-07
-9.11104e-07
2.63464e-07
-2.67167e-07
9.11519e-07
-2.35582e-07
-2.40402e-07
0.000266193
-1.21742e-06
0.000268188
-0.000266193
2.3863e-07
2.43477e-07
3.15331e-09
0.00109209
-2.62603e-07
1.21481e-06
2.61464e-07
9.06134e-07
-2.6707e-07
-9.05427e-07
2.63595e-07
-1.2482e-06
-1.95759e-09
3.36258e-09
0.00109113
-2.68062e-07
1.25124e-06
2.66787e-07
9.05962e-07
-2.67036e-07
-9.0544e-07
2.63494e-07
0.00109209
-1.98845e-09
-0.00109209
3.23441e-09
-1.21179e-06
2.61411e-07
-2.62662e-07
-9.05472e-07
2.63547e-07
-2.6711e-07
9.06086e-07
1.25119e-06
0.00109113
-1.76756e-09
-0.00109113
3.4721e-09
-1.24826e-06
2.66727e-07
-2.68127e-07
-9.05489e-07
2.63446e-07
-2.67079e-07
9.05914e-07
-1.92333e-09
3.35607e-09
0.00109093
-2.6248e-07
1.2458e-06
2.61236e-07
9.0325e-07
-2.64275e-07
2.60698e-07
-9.02727e-07
-2.03467e-09
-0.00109181
3.25999e-09
-1.21439e-06
2.61375e-07
-2.62625e-07
-9.0274e-07
2.60804e-07
9.03307e-07
-2.64337e-07
1.24575e-06
0.00109093
-1.76902e-09
-0.00109093
3.49534e-09
-1.24284e-06
2.61169e-07
-2.62553e-07
-9.02769e-07
2.60656e-07
-2.64304e-07
9.03204e-07
-2.32969e-07
-2.40401e-07
0.000266157
-1.21197e-06
0.00026814
-0.000266157
2.35999e-07
2.43415e-07
-2.13856e-09
3.20399e-09
0.00109198
-2.59868e-07
1.21212e-06
2.58701e-07
9.03483e-07
-2.67055e-07
2.63589e-07
-9.02819e-07
-1.96933e-09
-0.00109146
3.25622e-09
-1.20898e-06
2.58598e-07
-2.59858e-07
-9.02578e-07
2.63447e-07
9.03177e-07
-2.67005e-07
1.21208e-06
0.00109198
-1.91299e-09
-0.00109198
3.2772e-09
-1.2091e-06
2.58655e-07
-2.59918e-07
-9.02868e-07
2.63543e-07
-2.67101e-07
9.03438e-07
-0.00026617
2.38328e-07
2.43649e-07
1.25086e-06
1.21179e-06