/*--------------------------------*- C++ -*----------------------------------*\
| =========                 |                                                 |
| \\      /  F ield         | OpenFOAM: The Open Source CFD Toolbox           |
|  \\    /   O peration     | Version:  2206                                  |
|   \\  /    A nd           | Website:  www.openfoam.com                      |
|    \\/     M anipulation  |                                                 |
\*---------------------------------------------------------------------------*/
FoamFile
{
    version     2.0;
    format      ascii;
    arch        "LSB;label=32;scalar=64";
    class       volVectorField;
    location    "33.5";
    object      U;
}
// * * * * * * * * * * * * * * * * * * * * * * * * * * * * * * * * * * * * * //

dimensions      [0 1 -1 0 0 0 0];

internalField   nonuniform List<vector> 
28335
(
(-8.42641e-07 -8.38348e-07 0.103668)
(-5.60089e-07 8.6477e-07 0.103568)
(8.60993e-07 -5.60094e-07 0.103568)
(-4.66393e-05 -4.66536e-05 0.103431)
(-8.45392e-07 -8.41026e-07 0.103668)
(-5.52702e-07 8.61067e-07 0.103568)
(8.5829e-07 -5.53553e-07 0.103568)
(-4.66325e-05 -4.66477e-05 0.103431)
(-8.51386e-07 -8.47275e-07 0.103668)
(-5.46137e-07 8.57867e-07 0.103568)
(8.5413e-07 -5.46811e-07 0.103568)
(-4.66257e-05 -4.6642e-05 0.10343)
(-8.56257e-07 -8.5118e-07 0.103668)
(-5.42573e-07 8.61448e-07 0.103568)
(8.57218e-07 -5.42879e-07 0.103568)
(-4.66214e-05 -4.66351e-05 0.10343)
(-8.55163e-07 -8.52492e-07 0.103668)
(-5.49776e-07 8.67085e-07 0.103568)
(8.65028e-07 -5.49606e-07 0.103568)
(-4.66063e-05 -4.66191e-05 0.10343)
(-8.59224e-07 -8.57757e-07 0.103668)
(-5.09678e-07 8.33534e-07 0.103567)
(8.33369e-07 -5.09177e-07 0.103567)
(-4.65857e-05 -4.65994e-05 0.10343)
(-7.44191e-07 -7.44361e-07 0.103668)
(-6.97447e-07 9.29439e-07 0.103568)
(9.36251e-07 -6.98224e-07 0.103568)
(-4.68159e-05 -4.68331e-05 0.10343)
(-8.54424e-07 -8.51866e-07 0.103668)
(-5.43053e-07 8.36273e-07 0.103568)
(8.34003e-07 -5.43859e-07 0.103568)
(-4.66302e-05 -4.66454e-05 0.103431)
(-8.49825e-07 -8.48443e-07 0.103668)
(-5.52494e-07 8.53495e-07 0.103568)
(8.52046e-07 -5.48943e-07 0.103568)
(-4.66442e-05 -4.66541e-05 0.103431)
(-8.4127e-07 -8.40333e-07 0.103668)
(-5.62417e-07 8.60984e-07 0.103568)
(8.60872e-07 -5.57916e-07 0.103568)
(-4.66559e-05 -4.66648e-05 0.103431)
(-8.40182e-07 -8.39511e-07 0.103668)
(-5.63148e-07 8.61445e-07 0.103568)
(8.61774e-07 -5.58412e-07 0.103568)
(-4.6656e-05 -4.66648e-05 0.103431)
(-8.39492e-07 -8.39021e-07 0.103668)
(-5.63792e-07 8.61722e-07 0.103568)
(8.62587e-07 -5.59152e-07 0.103568)
(-4.66567e-05 -4.66656e-05 0.103431)
(-8.39031e-07 -8.38579e-07 0.103668)
(-5.63973e-07 8.61739e-07 0.103568)
(8.62547e-07 -5.58956e-07 0.103568)
(-4.66559e-05 -4.66646e-05 0.103431)
(-8.38798e-07 -8.38397e-07 0.103668)
(-5.64468e-07 8.62148e-07 0.103568)
(8.63044e-07 -5.59442e-07 0.103568)
(-4.66564e-05 -4.6665e-05 0.103431)
(-8.38831e-07 -8.38434e-07 0.103668)
(-5.64204e-07 8.62003e-07 0.103568)
(8.62936e-07 -5.5915e-07 0.103568)
(-4.66559e-05 -4.66645e-05 0.103431)
(-8.38746e-07 -8.38226e-07 0.103668)
(-5.63815e-07 8.61681e-07 0.103568)
(8.62652e-07 -5.58633e-07 0.103568)
(-4.66534e-05 -4.66621e-05 0.103431)
(-8.38636e-07 -8.38332e-07 0.103668)
(-5.63422e-07 8.60626e-07 0.103568)
(8.6227e-07 -5.58257e-07 0.103568)
(-4.66471e-05 -4.66557e-05 0.103431)
(-4.89522e-05 -4.89252e-05 0.103438)
(8.90504e-07 5.85116e-07 0.103568)
(-8.96023e-07 5.95973e-07 0.103568)
(4.89574e-05 -4.89283e-05 0.103438)
(5.66821e-07 8.67093e-07 0.103568)
(5.92983e-07 -8.91322e-07 0.103568)
(-5.63484e-07 8.66628e-07 0.103568)
(-5.91591e-07 -8.86738e-07 0.103568)
(-4.89248e-05 4.89604e-05 0.103438)
(8.62712e-07 -5.63422e-07 0.103568)
(-8.61569e-07 -5.64564e-07 0.103568)
(4.89257e-05 4.89465e-05 0.103438)
(4.66421e-05 4.66271e-05 0.103431)
(-4.89561e-05 -4.89284e-05 0.103438)
(8.88232e-07 5.85643e-07 0.103568)
(-8.94357e-07 5.91737e-07 0.103568)
(8.8862e-07 5.78754e-07 0.103568)
(-8.91456e-07 5.88301e-07 0.103568)
(-4.66367e-05 4.66099e-05 0.103431)
(4.89626e-05 -4.89336e-05 0.103438)
(5.65603e-07 8.65887e-07 0.103568)
(5.88815e-07 -8.9005e-07 0.103568)
(5.60123e-07 8.65017e-07 0.103568)
(5.85558e-07 -8.87507e-07 0.103568)
(-5.86582e-07 -8.84449e-07 0.103568)
(-5.55342e-07 8.63004e-07 0.103568)
(-5.83899e-07 -8.84585e-07 0.103568)
(4.66237e-05 -4.66579e-05 0.103431)
(-4.89294e-05 4.89643e-05 0.103438)
(-8.59199e-07 -5.5767e-07 0.103568)
(8.60022e-07 -5.56151e-07 0.103568)
(-8.58927e-07 -5.57778e-07 0.103568)
(4.893e-05 4.89502e-05 0.103438)
(4.66365e-05 4.66222e-05 0.103431)
(-4.89636e-05 -4.8937e-05 0.103438)
(8.86755e-07 5.8053e-07 0.103568)
(-8.89748e-07 5.8465e-07 0.103568)
(8.84925e-07 5.73917e-07 0.103568)
(-8.90418e-07 5.84457e-07 0.103568)
(-4.66296e-05 4.66025e-05 0.103431)
(4.89676e-05 -4.89404e-05 0.103438)
(5.59554e-07 8.64228e-07 0.103568)
(5.8179e-07 -8.86315e-07 0.103568)
(5.55646e-07 8.61247e-07 0.103568)
(5.84482e-07 -8.87005e-07 0.103568)
(-5.79725e-07 -8.82534e-07 0.103568)
(-5.52518e-07 8.61913e-07 0.103568)
(-5.80047e-07 -8.82474e-07 0.103568)
(4.66172e-05 -4.66522e-05 0.103431)
(-4.89334e-05 4.89713e-05 0.103438)
(-8.56887e-07 -5.51872e-07 0.103568)
(8.58254e-07 -5.52099e-07 0.103568)
(-8.5662e-07 -5.54758e-07 0.103568)
(4.89369e-05 4.89565e-05 0.103438)
(4.66291e-05 4.66139e-05 0.10343)
(-4.89732e-05 -4.89447e-05 0.103437)
(8.81424e-07 5.72763e-07 0.103568)
(-8.87212e-07 5.78154e-07 0.103568)
(8.85664e-07 5.72123e-07 0.103568)
(-8.90905e-07 5.81765e-07 0.103568)
(-4.66248e-05 4.65968e-05 0.10343)
(4.89785e-05 -4.89493e-05 0.103438)
(5.52043e-07 8.58928e-07 0.103568)
(5.76823e-07 -8.8373e-07 0.103568)
(5.51181e-07 8.64038e-07 0.103568)
(5.76279e-07 -8.87607e-07 0.103568)
(-5.72702e-07 -8.79338e-07 0.103568)
(-5.49103e-07 8.62722e-07 0.103568)
(-5.77161e-07 -8.82573e-07 0.103568)
(4.66137e-05 -4.66453e-05 0.10343)
(-4.89477e-05 4.89791e-05 0.103437)
(-8.53043e-07 -5.4789e-07 0.103568)
(8.57538e-07 -5.49561e-07 0.103568)
(-8.57643e-07 -5.50402e-07 0.103568)
(4.8946e-05 4.89669e-05 0.103437)
(4.6624e-05 4.66103e-05 0.10343)
(-4.89978e-05 -4.89732e-05 0.103437)
(8.84358e-07 5.68765e-07 0.103568)
(-8.90364e-07 5.73651e-07 0.103568)
(8.71675e-07 5.48926e-07 0.103568)
(-8.7648e-07 5.59731e-07 0.103568)
(-4.66194e-05 4.65919e-05 0.10343)
(4.90039e-05 -4.89766e-05 0.103437)
(5.46579e-07 8.63233e-07 0.103568)
(5.69704e-07 -8.87435e-07 0.103568)
(5.31621e-07 8.47199e-07 0.103568)
(5.58604e-07 -8.724e-07 0.103567)
(-5.69063e-07 -8.81243e-07 0.103568)
(-5.28894e-07 8.47492e-07 0.103568)
(-5.5623e-07 -8.67516e-07 0.103567)
(4.66045e-05 -4.66421e-05 0.10343)
(-4.89705e-05 4.90067e-05 0.103437)
(-8.56868e-07 -5.41135e-07 0.103568)
(8.44662e-07 -5.27588e-07 0.103568)
(-8.43518e-07 -5.27738e-07 0.103568)
(4.89708e-05 4.89935e-05 0.103437)
(4.66096e-05 4.65924e-05 0.10343)
(-4.90278e-05 -4.90042e-05 0.103437)
(8.9198e-07 5.74286e-07 0.103567)
(-8.96615e-07 5.80241e-07 0.103567)
(8.38825e-07 5.07815e-07 0.103567)
(-8.40453e-07 5.18264e-07 0.103567)
(-4.66035e-05 4.6575e-05 0.10343)
(4.9036e-05 -4.90088e-05 0.103437)
(5.55519e-07 8.68188e-07 0.103568)
(5.78815e-07 -8.92694e-07 0.103567)
(4.91384e-07 8.13008e-07 0.103567)
(5.1752e-07 -8.36921e-07 0.103567)
(-5.76597e-07 -8.88128e-07 0.103567)
(-4.85984e-07 8.11215e-07 0.103567)
(-5.13884e-07 -8.33389e-07 0.103567)
(4.6591e-05 -4.66246e-05 0.10343)
(-4.90026e-05 4.90382e-05 0.103437)
(-8.63761e-07 -5.48134e-07 0.103568)
(8.09881e-07 -4.84929e-07 0.103567)
(-8.08264e-07 -4.86349e-07 0.103567)
(4.90028e-05 4.90246e-05 0.103437)
(4.65909e-05 4.6573e-05 0.10343)
(-4.88098e-05 -4.87889e-05 0.103437)
(8.62581e-07 5.35714e-07 0.103567)
(-8.63234e-07 5.3963e-07 0.103567)
(9.90005e-07 7.22835e-07 0.103567)
(-9.80629e-07 7.22329e-07 0.103567)
(-4.65822e-05 4.65527e-05 0.10343)
(4.88223e-05 -4.88101e-05 0.103437)
(5.17801e-07 8.3751e-07 0.103567)
(5.39891e-07 -8.60791e-07 0.103567)
(7.09074e-07 9.60938e-07 0.103567)
(7.33121e-07 -9.87938e-07 0.103567)
(-5.3655e-07 -8.57726e-07 0.103567)
(-7.04688e-07 9.51011e-07 0.103567)
(-7.30213e-07 -9.83734e-07 0.103567)
(4.65704e-05 -4.66046e-05 0.10343)
(-4.87876e-05 4.88184e-05 0.103437)
(-8.31896e-07 -5.08617e-07 0.103567)
(9.58753e-07 -7.05356e-07 0.103567)
(-9.55152e-07 -7.05474e-07 0.103567)
(4.87887e-05 4.8807e-05 0.103437)
(4.68252e-05 4.68049e-05 0.10343)
(-4.89879e-05 -4.89611e-05 0.103438)
(9.66555e-07 7.19391e-07 0.103568)
(-9.58268e-07 7.14992e-07 0.103568)
(8.69687e-07 5.82853e-07 0.103568)
(-8.74477e-07 5.9345e-07 0.103568)
(-4.68126e-05 4.67675e-05 0.10343)
(4.89932e-05 -4.89658e-05 0.103438)
(7.02263e-07 9.38958e-07 0.103568)
(7.24663e-07 -9.66629e-07 0.103568)
(5.64878e-07 8.44839e-07 0.103568)
(5.91004e-07 -8.71631e-07 0.103568)
(-7.19981e-07 -9.60112e-07 0.103568)
(-5.62646e-07 8.44871e-07 0.103568)
(-5.89088e-07 -8.67506e-07 0.103568)
(4.68022e-05 -4.68417e-05 0.10343)
(-4.89598e-05 4.89942e-05 0.103438)
(-9.31079e-07 -6.96802e-07 0.103568)
(8.41936e-07 -5.62166e-07 0.103568)
(-8.4038e-07 -5.65245e-07 0.103568)
(4.8961e-05 4.89798e-05 0.103438)
(4.66327e-05 4.66176e-05 0.103431)
(-4.89879e-05 -4.89613e-05 0.103438)
(8.61898e-07 5.68069e-07 0.103568)
(-8.65972e-07 5.73412e-07 0.103568)
(8.75029e-07 5.64448e-07 0.103568)
(-8.78463e-07 5.78546e-07 0.103568)
(-4.66269e-05 4.65988e-05 0.103431)
(4.89935e-05 -4.89662e-05 0.103438)
(5.48532e-07 8.38727e-07 0.103568)
(5.7044e-07 -8.64256e-07 0.103568)
(5.47195e-07 8.51141e-07 0.103568)
(5.71201e-07 -8.75716e-07 0.103568)
(-5.71105e-07 -8.59706e-07 0.103568)
(-5.45885e-07 8.48272e-07 0.103568)
(-5.78243e-07 -8.69837e-07 0.103568)
(4.6614e-05 -4.66502e-05 0.103431)
(-4.8963e-05 4.89951e-05 0.103438)
(-8.33101e-07 -5.46535e-07 0.103568)
(8.46058e-07 -5.4235e-07 0.103568)
(-8.44966e-07 -5.53842e-07 0.103568)
(4.8958e-05 4.89831e-05 0.103438)
(4.66448e-05 4.66299e-05 0.103431)
(-4.8975e-05 -4.8947e-05 0.103438)
(8.80343e-07 5.74934e-07 0.103568)
(-8.83994e-07 5.8468e-07 0.103568)
(8.87344e-07 5.78067e-07 0.103568)
(-8.91002e-07 5.93864e-07 0.103568)
(-4.66393e-05 4.66104e-05 0.103431)
(4.89789e-05 -4.89529e-05 0.103438)
(5.55623e-07 8.57694e-07 0.103568)
(5.76643e-07 -8.81907e-07 0.103568)
(5.60396e-07 8.64188e-07 0.103568)
(5.85274e-07 -8.88952e-07 0.103568)
(-5.84674e-07 -8.74181e-07 0.103568)
(-5.60628e-07 8.60572e-07 0.103568)
(-5.92327e-07 -8.80559e-07 0.103568)
(4.66242e-05 -4.66617e-05 0.103431)
(-4.89487e-05 4.89811e-05 0.103438)
(-8.49372e-07 -5.60928e-07 0.103568)
(8.59961e-07 -5.55194e-07 0.103568)
(-8.56935e-07 -5.69538e-07 0.103568)
(4.89443e-05 4.89705e-05 0.103438)
(4.66554e-05 4.66418e-05 0.103431)
(-4.8974e-05 -4.89457e-05 0.103438)
(8.87841e-07 5.84263e-07 0.103568)
(-8.918e-07 5.94795e-07 0.103568)
(8.88499e-07 5.79504e-07 0.103568)
(-8.91983e-07 5.95518e-07 0.103568)
(-4.66515e-05 4.66216e-05 0.103431)
(4.89778e-05 -4.8952e-05 0.103438)
(5.64438e-07 8.65814e-07 0.103568)
(5.86329e-07 -8.90365e-07 0.103568)
(5.61688e-07 8.65513e-07 0.103568)
(5.86762e-07 -8.90253e-07 0.103568)
(-5.9395e-07 -8.81023e-07 0.103568)
(-5.62169e-07 8.61356e-07 0.103568)
(-5.93933e-07 -8.81108e-07 0.103568)
(4.66361e-05 -4.66735e-05 0.103431)
(-4.89473e-05 4.89799e-05 0.103438)
(-8.57213e-07 -5.71461e-07 0.103568)
(8.61279e-07 -5.56433e-07 0.103568)
(-8.58085e-07 -5.71514e-07 0.103568)
(4.89432e-05 4.89695e-05 0.103438)
(4.6656e-05 4.66426e-05 0.103431)
(-4.89729e-05 -4.89446e-05 0.103438)
(8.886e-07 5.84772e-07 0.103568)
(-8.92446e-07 5.95885e-07 0.103568)
(8.89108e-07 5.80054e-07 0.103568)
(-8.92635e-07 5.96461e-07 0.103568)
(-4.6652e-05 4.66218e-05 0.103431)
(4.89766e-05 -4.89512e-05 0.103438)
(5.65086e-07 8.66745e-07 0.103568)
(5.87065e-07 -8.91175e-07 0.103568)
(5.6242e-07 8.66152e-07 0.103568)
(5.87499e-07 -8.91084e-07 0.103568)
(-5.94681e-07 -8.81078e-07 0.103568)
(-5.62879e-07 8.61767e-07 0.103568)
(-5.94223e-07 -8.81249e-07 0.103568)
(4.66366e-05 -4.66738e-05 0.103431)
(-4.89466e-05 4.8979e-05 0.103438)
(-8.57909e-07 -5.72508e-07 0.103568)
(8.62172e-07 -5.57118e-07 0.103568)
(-8.58713e-07 -5.72265e-07 0.103568)
(4.89429e-05 4.89692e-05 0.103438)
(4.66564e-05 4.6643e-05 0.103431)
(-4.89729e-05 -4.89446e-05 0.103438)
(8.89116e-07 5.85286e-07 0.103568)
(-8.93028e-07 5.96681e-07 0.103568)
(8.8909e-07 5.80194e-07 0.103568)
(-8.9273e-07 5.96796e-07 0.103568)
(-4.66523e-05 4.6622e-05 0.103431)
(4.89769e-05 -4.89513e-05 0.103438)
(5.65784e-07 8.67252e-07 0.103568)
(5.8786e-07 -8.92019e-07 0.103568)
(5.62609e-07 8.66291e-07 0.103568)
(5.87616e-07 -8.91028e-07 0.103568)
(-5.95048e-07 -8.81276e-07 0.103568)
(-5.6297e-07 8.61716e-07 0.103568)
(-5.94349e-07 -8.81095e-07 0.103568)
(4.66378e-05 -4.66752e-05 0.103431)
(-4.8946e-05 4.89784e-05 0.103438)
(-8.58468e-07 -5.73289e-07 0.103568)
(8.62166e-07 -5.56957e-07 0.103568)
(-8.58958e-07 -5.72349e-07 0.103568)
(4.89422e-05 4.89686e-05 0.103438)
(4.66561e-05 4.66428e-05 0.103431)
(-4.89726e-05 -4.89441e-05 0.103438)
(8.89189e-07 5.85564e-07 0.103568)
(-8.931e-07 5.96986e-07 0.103568)
(8.89524e-07 5.80798e-07 0.103568)
(-8.93245e-07 5.97454e-07 0.103568)
(-4.66523e-05 4.66216e-05 0.103431)
(4.89764e-05 -4.8951e-05 0.103438)
(5.65973e-07 8.67505e-07 0.103568)
(5.8798e-07 -8.91895e-07 0.103568)
(5.63348e-07 8.66864e-07 0.103568)
(5.8823e-07 -8.91422e-07 0.103568)
(-5.95287e-07 -8.81138e-07 0.103568)
(-5.63644e-07 8.62178e-07 0.103568)
(-5.94834e-07 -8.81246e-07 0.103568)
(4.66369e-05 -4.66742e-05 0.103431)
(-4.89455e-05 4.89781e-05 0.103438)
(-8.58778e-07 -5.73385e-07 0.103568)
(8.62586e-07 -5.57174e-07 0.103568)
(-8.5945e-07 -5.72781e-07 0.103568)
(4.89419e-05 4.89684e-05 0.103438)
(4.66567e-05 4.66434e-05 0.103431)
(-4.89723e-05 -4.89439e-05 0.103438)
(8.89236e-07 5.85773e-07 0.103568)
(-8.93483e-07 5.97488e-07 0.103568)
(8.89351e-07 5.80512e-07 0.103568)
(-8.93452e-07 5.97722e-07 0.103568)
(-4.6653e-05 4.66223e-05 0.103431)
(4.8976e-05 -4.89503e-05 0.103438)
(5.66233e-07 8.67777e-07 0.103568)
(5.8875e-07 -8.9231e-07 0.103568)
(5.63272e-07 8.66747e-07 0.103568)
(5.88354e-07 -8.91483e-07 0.103568)
(-5.95993e-07 -8.81379e-07 0.103568)
(-5.63544e-07 8.62258e-07 0.103568)
(-5.94937e-07 -8.81138e-07 0.103568)
(4.66375e-05 -4.66747e-05 0.103431)
(-4.89452e-05 4.89778e-05 0.103438)
(-8.59346e-07 -5.74073e-07 0.103568)
(8.62603e-07 -5.57166e-07 0.103568)
(-8.59477e-07 -5.72893e-07 0.103568)
(4.89418e-05 4.89682e-05 0.103438)
(4.66562e-05 4.66429e-05 0.103431)
(-4.89711e-05 -4.89428e-05 0.103438)
(8.89234e-07 5.85547e-07 0.103568)
(-8.93631e-07 5.97617e-07 0.103568)
(8.89413e-07 5.80414e-07 0.103568)
(-8.93159e-07 5.97565e-07 0.103568)
(-4.66524e-05 4.66221e-05 0.103431)
(4.89752e-05 -4.89496e-05 0.103438)
(5.66011e-07 8.67752e-07 0.103568)
(5.88694e-07 -8.92336e-07 0.103568)
(5.63316e-07 8.66662e-07 0.103568)
(5.88099e-07 -8.91107e-07 0.103568)
(-5.9571e-07 -8.81161e-07 0.103568)
(-5.63002e-07 8.61803e-07 0.103568)
(-5.94389e-07 -8.80722e-07 0.103568)
(4.66372e-05 -4.66744e-05 0.103431)
(-4.8944e-05 4.89768e-05 0.103438)
(-8.59197e-07 -5.73832e-07 0.103568)
(8.62201e-07 -5.566e-07 0.103568)
(-8.59076e-07 -5.72307e-07 0.103568)
(4.89409e-05 4.89672e-05 0.103438)
(4.6655e-05 4.66416e-05 0.103431)
(-4.8968e-05 -4.89399e-05 0.103438)
(8.89106e-07 5.85406e-07 0.103568)
(-8.93211e-07 5.97419e-07 0.103568)
(8.8905e-07 5.80038e-07 0.103568)
(-8.9291e-07 5.97261e-07 0.103568)
(-4.66507e-05 4.66204e-05 0.103431)
(4.89721e-05 -4.89468e-05 0.103438)
(5.657e-07 8.67766e-07 0.103568)
(5.88465e-07 -8.91879e-07 0.103568)
(5.63481e-07 8.66405e-07 0.103568)
(5.87741e-07 -8.90672e-07 0.103568)
(-5.95428e-07 -8.80816e-07 0.103568)
(-5.62827e-07 8.61491e-07 0.103568)
(-5.93973e-07 -8.8012e-07 0.103568)
(4.66349e-05 -4.6672e-05 0.103431)
(-4.89398e-05 4.89724e-05 0.103438)
(-8.59114e-07 -5.73328e-07 0.103568)
(8.61813e-07 -5.56377e-07 0.103568)
(-8.58967e-07 -5.72176e-07 0.103568)
(4.89365e-05 4.8963e-05 0.103438)
(4.66505e-05 4.66368e-05 0.103431)
(8.88691e-07 5.85073e-07 0.103568)
(-8.92931e-07 5.97072e-07 0.103568)
(-4.66461e-05 4.66156e-05 0.103431)
(5.65037e-07 8.67172e-07 0.103568)
(5.88016e-07 -8.91898e-07 0.103568)
(-5.94814e-07 -8.8052e-07 0.103568)
(4.66286e-05 -4.66658e-05 0.103431)
(-8.59029e-07 -5.73009e-07 0.103568)
(8.36818e-08 -1.00992e-05 0.100167)
(-1.19007e-06 -6.8994e-06 0.0914913)
(2.08929e-06 -3.03453e-06 0.0788445)
(-1.01743e-05 7.4648e-08 0.100166)
(-6.88854e-06 -1.17494e-06 0.091491)
(-8.41481e-07 -8.36024e-07 0.103668)
(8.38996e-07 -8.37473e-07 0.103668)
(-8.34467e-07 8.39177e-07 0.103668)
(8.33779e-07 8.37038e-07 0.103668)
(1.66419e-05 1.28788e-07 0.102824)
(-5.64807e-07 8.67263e-07 0.103568)
(1.53556e-05 -5.03408e-06 0.100677)
(-7.21088e-07 -2.12148e-07 0.103636)
(-2.92213e-06 2.03195e-06 0.0788458)
(1.34957e-07 1.66455e-05 0.102824)
(8.63408e-07 -5.64854e-07 0.103568)
(-2.12775e-07 -7.22466e-07 0.103636)
(-5.07641e-06 1.5423e-05 0.100676)
(4.89307e-05 4.89517e-05 0.103438)
(4.38645e-06 5.67047e-06 0.0971021)
(5.66787e-06 4.38057e-06 0.0971008)
(8.3872e-08 -1.01134e-05 0.100167)
(6.4583e-07 7.17964e-06 0.0914644)
(-1.08775e-07 9.73717e-06 0.100146)
(-1.1858e-06 -6.93371e-06 0.0914914)
(-2.10349e-06 3.13513e-06 0.0788177)
(2.10929e-06 -3.07924e-06 0.0788447)
(-1.01873e-05 7.4264e-08 0.100166)
(7.16838e-06 6.30404e-07 0.0914641)
(9.81725e-06 -9.04303e-08 0.100147)
(-6.924e-06 -1.169e-06 0.0914911)
(8.40795e-07 -8.39268e-07 0.103668)
(-8.35573e-07 8.41248e-07 0.103668)
(8.35211e-07 8.39232e-07 0.103668)
(-8.45191e-07 -8.39701e-07 0.103668)
(8.44235e-07 -8.41264e-07 0.103668)
(-8.37671e-07 8.43881e-07 0.103668)
(8.38204e-07 8.40932e-07 0.103668)
(1.66657e-05 1.30912e-07 0.102824)
(-1.61246e-05 4.52573e-06 0.100645)
(-7.17704e-07 -2.13058e-07 0.103636)
(-5.57109e-07 8.64022e-07 0.103568)
(-1.68115e-05 -1.46034e-07 0.102814)
(1.53755e-05 -5.04579e-06 0.100677)
(-7.1291e-07 -2.13404e-07 0.103636)
(3.01818e-06 -2.03569e-06 0.0788146)
(-2.95216e-06 2.04178e-06 0.0788458)
(1.36835e-07 1.66687e-05 0.102824)
(-2.13454e-07 -7.06186e-07 0.103636)
(4.5669e-06 -1.61852e-05 0.100645)
(8.60039e-07 -5.56963e-07 0.103568)
(-1.45364e-07 -1.68231e-05 0.102813)
(-2.13662e-07 -7.13872e-07 0.103636)
(-5.09121e-06 1.54439e-05 0.100676)
(-4.78864e-06 -5.83888e-06 0.0970722)
(-5.82885e-06 -4.78215e-06 0.0970713)
(4.89289e-05 4.89494e-05 0.103438)
(4.3759e-06 5.67857e-06 0.0971022)
(5.67602e-06 4.36961e-06 0.0971009)
(9.20098e-08 -1.01308e-05 0.100167)
(6.59745e-07 7.16716e-06 0.0914646)
(-1.05663e-07 9.7206e-06 0.100146)
(-1.17237e-06 -6.94449e-06 0.0914916)
(-2.10933e-06 3.13175e-06 0.0788178)
(2.10151e-06 -3.08666e-06 0.0788447)
(-1.02049e-05 8.11427e-08 0.100166)
(7.15264e-06 6.44868e-07 0.0914642)
(9.80078e-06 -8.94963e-08 0.100147)
(-6.93768e-06 -1.15455e-06 0.0914913)
(8.45235e-07 -8.42455e-07 0.103668)
(-8.38356e-07 8.45047e-07 0.103668)
(8.38609e-07 8.42264e-07 0.103668)
(-8.48146e-07 -8.43222e-07 0.103668)
(8.46246e-07 -8.43796e-07 0.103668)
(-8.3977e-07 8.4583e-07 0.103668)
(8.40639e-07 8.42914e-07 0.103668)
(1.66879e-05 1.30179e-07 0.102824)
(-1.61064e-05 4.50477e-06 0.100645)
(-7.0658e-07 -2.14732e-07 0.103636)
(-5.48963e-07 8.59299e-07 0.103568)
(-1.67927e-05 -1.46474e-07 0.102814)
(1.53954e-05 -5.06832e-06 0.100677)
(-7.01553e-07 -2.15077e-07 0.103636)
(3.01081e-06 -2.03739e-06 0.0788146)
(-2.96817e-06 2.04138e-06 0.0788458)
(1.37386e-07 1.66913e-05 0.102824)
(-2.14437e-07 -6.95736e-07 0.103636)
(4.55011e-06 -1.61691e-05 0.100645)
(8.5594e-07 -5.48724e-07 0.103568)
(-1.45523e-07 -1.68047e-05 0.102813)
(-2.14684e-07 -7.02055e-07 0.103636)
(-5.1073e-06 1.546e-05 0.100676)
(-4.7874e-06 -5.83152e-06 0.0970723)
(-5.82042e-06 -4.78362e-06 0.0970714)
(4.89347e-05 4.89555e-05 0.103438)
(4.38203e-06 5.68211e-06 0.0971022)
(5.67926e-06 4.37546e-06 0.0971009)
(8.90401e-08 -1.01431e-05 0.100167)
(6.42254e-07 7.14273e-06 0.0914649)
(-1.04428e-07 9.70481e-06 0.100146)
(-1.19787e-06 -6.95891e-06 0.0914919)
(-2.10148e-06 3.11594e-06 0.0788179)
(2.11593e-06 -3.09787e-06 0.0788451)
(-1.02183e-05 7.80036e-08 0.100166)
(7.12664e-06 6.26622e-07 0.0914645)
(9.78485e-06 -9.148e-08 0.100147)
(-6.94682e-06 -1.17682e-06 0.0914916)
(8.49978e-07 -8.47757e-07 0.103668)
(-8.4386e-07 8.49591e-07 0.103668)
(8.43972e-07 8.46354e-07 0.103668)
(-8.51739e-07 -8.44995e-07 0.103668)
(8.49044e-07 -8.46327e-07 0.103668)
(-8.45345e-07 8.48667e-07 0.103668)
(8.42873e-07 8.46772e-07 0.103668)
(1.67013e-05 1.29418e-07 0.102824)
(-1.60916e-05 4.48593e-06 0.100645)
(-6.9749e-07 -2.1715e-07 0.103636)
(-5.36545e-07 8.50699e-07 0.103568)
(-1.67745e-05 -1.47558e-07 0.102813)
(1.5413e-05 -5.08982e-06 0.100677)
(-6.86476e-07 -2.17645e-07 0.103636)
(2.9981e-06 -2.02588e-06 0.0788148)
(-2.9771e-06 2.05646e-06 0.0788462)
(1.32051e-07 1.67007e-05 0.102824)
(-2.17503e-07 -6.88296e-07 0.103636)
(4.5241e-06 -1.61524e-05 0.100645)
(8.46086e-07 -5.37402e-07 0.103568)
(-1.48536e-07 -1.6789e-05 0.102813)
(-2.18353e-07 -6.87838e-07 0.103636)
(-5.13292e-06 1.54778e-05 0.100676)
(-4.78087e-06 -5.82846e-06 0.0970724)
(-5.81352e-06 -4.77869e-06 0.0970715)
(4.89436e-05 4.89621e-05 0.103438)
(4.39069e-06 5.68543e-06 0.0971024)
(5.68641e-06 4.37939e-06 0.097101)
(8.62693e-08 -1.01763e-05 0.100167)
(6.36148e-07 7.12056e-06 0.0914652)
(-1.02963e-07 9.68652e-06 0.100146)
(-1.17701e-06 -6.983e-06 0.0914923)
(-2.07838e-06 3.09263e-06 0.0788186)
(2.09532e-06 -3.11234e-06 0.0788458)
(-1.02547e-05 7.75943e-08 0.100166)
(7.09973e-06 6.21341e-07 0.0914648)
(9.76078e-06 -8.38151e-08 0.100147)
(-6.96604e-06 -1.15993e-06 0.0914921)
(8.53878e-07 -8.5177e-07 0.103668)
(-8.49631e-07 8.53907e-07 0.103668)
(8.47923e-07 8.52603e-07 0.103668)
(-8.60078e-07 -8.55892e-07 0.103668)
(8.57797e-07 -8.5602e-07 0.103668)
(-8.52044e-07 8.57812e-07 0.103668)
(8.52371e-07 8.57044e-07 0.103668)
(1.67446e-05 1.29946e-07 0.102823)
(-1.60687e-05 4.48076e-06 0.100645)
(-6.89271e-07 -2.18585e-07 0.103635)
(-5.21354e-07 8.46876e-07 0.103568)
(-1.67567e-05 -1.4703e-07 0.102813)
(1.54356e-05 -5.08562e-06 0.100677)
(-6.68135e-07 -2.1922e-07 0.103635)
(2.97452e-06 -2.00778e-06 0.0788155)
(-2.99133e-06 2.03495e-06 0.078847)
(1.35418e-07 1.67468e-05 0.102823)
(-2.18964e-07 -6.79022e-07 0.103635)
(4.51982e-06 -1.61302e-05 0.100645)
(8.43162e-07 -5.2062e-07 0.103568)
(-1.45767e-07 -1.67684e-05 0.102813)
(-2.19141e-07 -6.67933e-07 0.103635)
(-5.1303e-06 1.55029e-05 0.100676)
(-4.77069e-06 -5.82749e-06 0.0970725)
(-5.81888e-06 -4.76652e-06 0.0970716)
(4.8954e-05 4.89766e-05 0.103437)
(4.39716e-06 5.68289e-06 0.0971024)
(5.67842e-06 4.39088e-06 0.0971011)
(8.95039e-08 -1.02218e-05 0.100167)
(6.3896e-07 7.12258e-06 0.0914657)
(-1.1067e-07 9.67492e-06 0.100146)
(-1.19394e-06 -6.98434e-06 0.0914927)
(-2.10025e-06 3.09838e-06 0.0788195)
(2.10821e-06 -3.09778e-06 0.0788467)
(-1.02981e-05 7.72285e-08 0.100166)
(7.09737e-06 6.17155e-07 0.0914651)
(9.75357e-06 -9.24524e-08 0.100147)
(-6.95612e-06 -1.17657e-06 0.0914927)
(8.54026e-07 -8.52554e-07 0.103668)
(-8.47938e-07 8.54141e-07 0.103668)
(8.48351e-07 8.52764e-07 0.103668)
(-8.7005e-07 -8.66931e-07 0.103668)
(8.70798e-07 -8.6871e-07 0.103668)
(-8.6324e-07 8.7002e-07 0.103668)
(8.64294e-07 8.67685e-07 0.103668)
(1.67669e-05 1.24889e-07 0.102823)
(-1.6066e-05 4.4613e-06 0.100645)
(-6.91696e-07 -2.21022e-07 0.103635)
(-5.44386e-07 8.66249e-07 0.103568)
(-1.6747e-05 -1.4755e-07 0.102813)
(1.54558e-05 -5.10834e-06 0.100677)
(-6.96663e-07 -2.19225e-07 0.103635)
(2.98348e-06 -2.02951e-06 0.0788165)
(-2.98037e-06 2.05139e-06 0.0788478)
(1.31236e-07 1.67683e-05 0.102823)
(-2.19735e-07 -6.81668e-07 0.103635)
(4.5045e-06 -1.61267e-05 0.100645)
(8.64621e-07 -5.44286e-07 0.103567)
(-1.4538e-07 -1.67601e-05 0.102813)
(-2.17702e-07 -6.96862e-07 0.103635)
(-5.1502e-06 1.55224e-05 0.100676)
(-4.7665e-06 -5.822e-06 0.0970726)
(-5.81159e-06 -4.76083e-06 0.0970716)
(4.8952e-05 4.89744e-05 0.103437)
(4.42034e-06 5.70774e-06 0.0971025)
(5.70412e-06 4.41426e-06 0.0971012)
(1.25925e-07 -1.01794e-05 0.100167)
(6.12902e-07 7.14071e-06 0.0914662)
(-1.20634e-07 9.69234e-06 0.100146)
(-1.15109e-06 -6.9084e-06 0.0914933)
(-2.10662e-06 3.09478e-06 0.0788206)
(1.95055e-06 -3.0167e-06 0.0788477)
(-1.02553e-05 1.11101e-07 0.100166)
(7.10693e-06 5.88042e-07 0.0914656)
(9.77391e-06 -1.06714e-07 0.100147)
(-6.87346e-06 -1.12891e-06 0.0914933)
(8.61481e-07 -8.6028e-07 0.103668)
(-8.53591e-07 8.60463e-07 0.103667)
(8.54784e-07 8.57874e-07 0.103668)
(-7.48135e-07 -7.47808e-07 0.103668)
(7.51645e-07 -7.54569e-07 0.103668)
(-7.43227e-07 7.46306e-07 0.103668)
(7.44871e-07 7.4447e-07 0.103668)
(1.67084e-05 1.37773e-07 0.102823)
(-1.60645e-05 4.45621e-06 0.100645)
(-6.47458e-07 -2.24815e-07 0.103635)
(-5.81667e-07 8.9141e-07 0.103567)
(-1.67496e-05 -1.50704e-07 0.102813)
(1.53695e-05 -5.05394e-06 0.100677)
(-7.20502e-07 -2.12174e-07 0.103635)
(2.98835e-06 -2.0376e-06 0.0788176)
(-2.90613e-06 1.88887e-06 0.0788487)
(1.45934e-07 1.67148e-05 0.102823)
(-2.21474e-07 -6.37381e-07 0.103635)
(4.50118e-06 -1.61238e-05 0.100645)
(8.93616e-07 -5.81292e-07 0.103567)
(-1.46742e-07 -1.67599e-05 0.102813)
(-2.07786e-07 -7.20419e-07 0.103635)
(-5.09331e-06 1.54407e-05 0.100676)
(-4.73221e-06 -5.82286e-06 0.0970728)
(-5.8112e-06 -4.72651e-06 0.0970718)
(4.89302e-05 4.89505e-05 0.103437)
(4.37481e-06 5.62832e-06 0.0971028)
(5.62771e-06 4.36794e-06 0.0971015)
(4.95891e-08 -9.82506e-06 0.100167)
(7.13615e-07 7.44593e-06 0.0914661)
(-1.25953e-07 1.00061e-05 0.100146)
(-1.15416e-06 -6.63367e-06 0.0914924)
(-1.97101e-06 3.12785e-06 0.0788191)
(2.16695e-06 -3.01414e-06 0.0788454)
(-9.90054e-06 2.92156e-08 0.100166)
(7.41331e-06 6.80874e-07 0.0914656)
(1.00893e-05 -1.2145e-07 0.100147)
(-6.60126e-06 -1.12987e-06 0.0914925)
(7.47713e-07 -7.50632e-07 0.103668)
(-7.38692e-07 7.41651e-07 0.103668)
(7.41464e-07 7.40315e-07 0.103668)
(-8.37776e-07 -8.34003e-07 0.103668)
(8.36616e-07 -8.34201e-07 0.103668)
(-8.29962e-07 8.33956e-07 0.103668)
(8.30781e-07 8.30732e-07 0.103668)
(1.6352e-05 1.37265e-07 0.102823)
(-1.63651e-05 4.61957e-06 0.100645)
(-8.89148e-07 -1.87485e-07 0.103635)
(-6.53832e-07 8.96137e-07 0.103568)
(-1.71785e-05 -1.36484e-07 0.102813)
(1.51284e-05 -4.91139e-06 0.100677)
(-8.41347e-07 -1.94973e-07 0.103636)
(3.10989e-06 -2.00953e-06 0.0788161)
(-2.88683e-06 2.0947e-06 0.0788465)
(1.43218e-07 1.63516e-05 0.102823)
(-1.80097e-07 -8.84085e-07 0.103635)
(4.67154e-06 -1.64242e-05 0.100645)
(8.97811e-07 -6.52943e-07 0.103568)
(-1.31555e-07 -1.71919e-05 0.102813)
(-1.88753e-07 -8.41853e-07 0.103636)
(-4.95075e-06 1.51978e-05 0.100676)
(-4.96696e-06 -5.88154e-06 0.0970726)
(-5.86738e-06 -4.96454e-06 0.0970717)
(4.88603e-05 4.8877e-05 0.103438)
(4.22797e-06 5.66449e-06 0.0971022)
(5.66618e-06 4.21685e-06 0.0971008)
(8.22215e-08 -1.00836e-05 0.100167)
(6.58588e-07 7.29085e-06 0.0914646)
(-1.17549e-07 9.83344e-06 0.100146)
(-1.16815e-06 -6.87552e-06 0.0914914)
(-2.07893e-06 3.15785e-06 0.0788179)
(2.11495e-06 -3.06444e-06 0.0788447)
(-1.01588e-05 7.34813e-08 0.100166)
(7.25572e-06 6.33686e-07 0.0914641)
(9.9112e-06 -1.03583e-07 0.100146)
(-6.84111e-06 -1.14558e-06 0.0914914)
(8.53828e-07 -8.50321e-07 0.103668)
(-8.47872e-07 8.52264e-07 0.103668)
(8.49652e-07 8.47119e-07 0.103668)
(-8.55114e-07 -8.52193e-07 0.103668)
(8.56177e-07 -8.48984e-07 0.103668)
(-8.4758e-07 8.55131e-07 0.103668)
(8.55525e-07 8.41279e-07 0.103668)
(1.66619e-05 1.26077e-07 0.102824)
(-1.62098e-05 4.58743e-06 0.100645)
(-7.10996e-07 -2.18494e-07 0.103636)
(-5.37078e-07 8.3711e-07 0.103568)
(-1.68757e-05 -1.49877e-07 0.102814)
(1.53534e-05 -5.03282e-06 0.100677)
(-7.00059e-07 -2.2045e-07 0.103636)
(3.04004e-06 -2.01586e-06 0.0788147)
(-2.93943e-06 2.04653e-06 0.0788458)
(1.31456e-07 1.66602e-05 0.102824)
(-2.17216e-07 -7.04164e-07 0.103636)
(4.62968e-06 -1.62701e-05 0.100645)
(8.34771e-07 -5.36309e-07 0.103568)
(-1.5027e-07 -1.68843e-05 0.102813)
(-2.19159e-07 -6.96953e-07 0.103636)
(-5.07416e-06 1.54192e-05 0.100676)
(-4.83139e-06 -5.8389e-06 0.097072)
(-5.82691e-06 -4.82702e-06 0.0970711)
(4.89734e-05 4.89962e-05 0.103438)
(4.36637e-06 5.67389e-06 0.097102)
(5.67137e-06 4.36023e-06 0.0971006)
(8.35489e-08 -1.01031e-05 0.100167)
(6.5516e-07 7.19766e-06 0.0914644)
(-1.09539e-07 9.7448e-06 0.100146)
(-1.17829e-06 -6.903e-06 0.0914913)
(-2.10033e-06 3.13952e-06 0.0788177)
(2.11041e-06 -3.07499e-06 0.0788447)
(-1.01784e-05 7.45938e-08 0.100166)
(7.16281e-06 6.30673e-07 0.0914638)
(9.82375e-06 -9.11134e-08 0.100147)
(-6.86944e-06 -1.15363e-06 0.0914913)
(8.51948e-07 -8.43939e-07 0.103668)
(-8.42611e-07 8.51203e-07 0.103668)
(8.53532e-07 8.36142e-07 0.103668)
(-8.4281e-07 -8.40676e-07 0.103668)
(8.44549e-07 -8.35842e-07 0.103668)
(-8.3433e-07 8.44085e-07 0.103668)
(8.44693e-07 8.27973e-07 0.103668)
(1.66573e-05 1.3128e-07 0.102824)
(-1.61289e-05 4.51538e-06 0.100645)
(-7.09685e-07 -2.1726e-07 0.103636)
(-5.56183e-07 8.57431e-07 0.103568)
(-1.68161e-05 -1.4779e-07 0.102814)
(1.53681e-05 -5.05194e-06 0.100677)
(-7.11784e-07 -2.16011e-07 0.103636)
(3.02138e-06 -2.03051e-06 0.0788145)
(-2.9482e-06 2.04386e-06 0.0788457)
(1.35225e-07 1.66525e-05 0.102824)
(-2.16624e-07 -7.02258e-07 0.103636)
(4.55769e-06 -1.61889e-05 0.100645)
(8.56336e-07 -5.51125e-07 0.103568)
(-1.49076e-07 -1.68207e-05 0.102813)
(-2.1527e-07 -7.08882e-07 0.103636)
(-5.09591e-06 1.54358e-05 0.100676)
(-4.79558e-06 -5.83927e-06 0.0970721)
(-5.82818e-06 -4.79084e-06 0.0970712)
(4.89475e-05 4.89737e-05 0.103438)
(4.36755e-06 5.6769e-06 0.0971021)
(5.67451e-06 4.36038e-06 0.0971007)
(8.30453e-08 -1.01023e-05 0.100167)
(6.49998e-07 7.19828e-06 0.0914644)
(-1.10428e-07 9.74715e-06 0.100146)
(-1.17955e-06 -6.90234e-06 0.0914913)
(-2.10164e-06 3.1375e-06 0.0788177)
(2.10942e-06 -3.07595e-06 0.0788447)
(-1.01775e-05 7.38643e-08 0.100166)
(7.1635e-06 6.26791e-07 0.0914638)
(9.82595e-06 -9.29099e-08 0.100147)
(-6.86822e-06 -1.15438e-06 0.0914913)
(8.43603e-07 -8.35025e-07 0.103668)
(-8.33567e-07 8.43274e-07 0.103668)
(8.45355e-07 8.26847e-07 0.103668)
(-8.41026e-07 -8.39163e-07 0.103668)
(8.43146e-07 -8.34244e-07 0.103668)
(-8.32654e-07 8.42711e-07 0.103668)
(8.43492e-07 8.2607e-07 0.103668)
(1.66533e-05 1.32183e-07 0.102824)
(-1.61341e-05 4.51852e-06 0.100645)
(-7.18997e-07 -2.14237e-07 0.103636)
(-5.62101e-07 8.6142e-07 0.103568)