/*--------------------------------*- C++ -*----------------------------------*\
| =========                 |                                                 |
| \\      /  F ield         | OpenFOAM: The Open Source CFD Toolbox           |
|  \\    /   O peration     | Version:  2206                                  |
|   \\  /    A nd           | Website:  www.openfoam.com                      |
|    \\/     M anipulation  |                                                 |
\*---------------------------------------------------------------------------*/
FoamFile
{
    version     2.0;
    format      ascii;
    arch        "LSB;label=32;scalar=64";
    class       volScalarField;
    location    "27";
    object      epsilon;
}
// * * * * * * * * * * * * * * * * * * * * * * * * * * * * * * * * * * * * * //

dimensions      [0 2 -3 0 0 0 0];

internalField   nonuniform List<scalar> 
171728
(
4.95582e-07
4.97338e-07
4.97338e-07
4.99572e-07
4.45642e-07
4.53775e-07
4.53777e-07
4.63717e-07
4.03871e-07
4.18577e-07
4.18581e-07
4.39403e-07
3.68045e-07
3.884e-07
3.88407e-07
4.1763e-07
3.38587e-07
3.62525e-07
3.62532e-07
3.96181e-07
3.09502e-07
3.35636e-07
3.35644e-07
3.7281e-07
2.94415e-07
3.19706e-07
3.19715e-07
3.52015e-07
2.91601e-07
3.17413e-07
3.17422e-07
3.50143e-07
2.91368e-07
3.17236e-07
3.17245e-07
3.50077e-07
2.91364e-07
3.17238e-07
3.17246e-07
3.50108e-07
2.91365e-07
3.17237e-07
3.17246e-07
3.50098e-07
2.91364e-07
3.17237e-07
3.17246e-07
3.50106e-07
2.91504e-07
3.17361e-07
3.17371e-07
3.50199e-07
2.91502e-07
3.17364e-07
3.1737e-07
3.50215e-07
2.91504e-07
3.17368e-07
3.17374e-07
3.50221e-07
2.91505e-07
3.17371e-07
3.17378e-07
3.50229e-07
2.91502e-07
3.17372e-07
3.17379e-07
3.50238e-07
2.91499e-07
3.17373e-07
3.1738e-07
3.50241e-07
2.91448e-07
3.17303e-07
3.17326e-07
3.50209e-07
2.91369e-07
3.17238e-07
3.17249e-07
3.50095e-07
2.91365e-07
3.17237e-07
3.17247e-07
3.50106e-07
2.91365e-07
3.17237e-07
3.17246e-07
3.50104e-07
2.91364e-07
3.17237e-07
3.17246e-07
3.50102e-07
2.91364e-07
3.17237e-07
3.17246e-07
3.50101e-07
2.91364e-07
3.17237e-07
3.17246e-07
3.50104e-07
2.91364e-07
3.17237e-07
3.17246e-07
3.50105e-07
2.91364e-07
3.17237e-07
3.17246e-07
3.50105e-07
2.91364e-07
3.17237e-07
3.17246e-07
3.50104e-07
2.91364e-07
3.17237e-07
3.17246e-07
3.50104e-07
2.91364e-07
3.17237e-07
3.17246e-07
3.50104e-07
2.91502e-07
3.17365e-07
3.1737e-07
3.50212e-07
2.91504e-07
3.17367e-07
3.17374e-07
3.50219e-07
2.91506e-07
3.17371e-07
3.17377e-07
3.50226e-07
2.91503e-07
3.17373e-07
3.17378e-07
3.50235e-07
2.91499e-07
3.17373e-07
3.17379e-07
3.50242e-07
2.91492e-07
3.17371e-07
3.17373e-07
3.50241e-07
2.91394e-07
3.17276e-07
3.17273e-07
3.50147e-07
2.91365e-07
3.17238e-07
3.17247e-07
3.50093e-07
2.91364e-07
3.17238e-07
3.17247e-07
3.50107e-07
2.91364e-07
3.17237e-07
3.17247e-07
3.50102e-07
2.91364e-07
3.17237e-07
3.17247e-07
3.50106e-07
2.91364e-07
3.17237e-07
3.17247e-07
3.50105e-07
2.91364e-07
3.17237e-07
3.17247e-07
3.50104e-07
2.91364e-07
3.17237e-07
3.17247e-07
3.50104e-07
2.91364e-07
3.17237e-07
3.17247e-07
3.50104e-07
2.91364e-07
3.17237e-07
3.17247e-07
3.50104e-07
2.91364e-07
3.17237e-07
3.17247e-07
3.50104e-07
2.91367e-07
3.17239e-07
3.17249e-07
3.50104e-07
2.91502e-07
3.1736e-07
3.17371e-07
3.50216e-07
2.91503e-07
3.17364e-07
3.17374e-07
3.50221e-07
2.91505e-07
3.17367e-07
3.17377e-07
3.50228e-07
2.91501e-07
3.17369e-07
3.17378e-07
3.50236e-07
2.91498e-07
3.17369e-07
3.17379e-07
3.5024e-07
2.91478e-07
3.17347e-07
3.17357e-07
3.50231e-07
2.91377e-07
3.17247e-07
3.17257e-07
3.50115e-07
2.91365e-07
3.17237e-07
3.17247e-07
3.50101e-07
2.91364e-07
3.17237e-07
3.17247e-07
3.50106e-07
2.91364e-07
3.17237e-07
3.17247e-07
3.50101e-07
2.91364e-07
3.17237e-07
3.17247e-07
3.50104e-07
2.91364e-07
3.17237e-07
3.17247e-07
3.50107e-07
2.91364e-07
3.17237e-07
3.17247e-07
3.50106e-07
2.91364e-07
3.17237e-07
3.17247e-07
3.50105e-07
2.91364e-07
3.17236e-07
3.17247e-07
3.50105e-07
2.91364e-07
3.17236e-07
3.17247e-07
3.50105e-07
2.91364e-07
3.17236e-07
3.17247e-07
3.50104e-07
2.91503e-07
3.17363e-07
3.17371e-07
3.50212e-07
2.91505e-07
3.17365e-07
3.17374e-07
3.50219e-07
2.91506e-07
3.17369e-07
3.17378e-07
3.50226e-07
2.91504e-07
3.17371e-07
3.1738e-07
3.50236e-07
2.91503e-07
3.17372e-07
3.17379e-07
3.50241e-07
2.91498e-07
3.1737e-07
3.17374e-07
3.50241e-07
2.91417e-07
3.17281e-07
3.17273e-07
3.50144e-07
2.91366e-07
3.17237e-07
3.17247e-07
3.50094e-07
2.91365e-07
3.17237e-07
3.17247e-07
3.50107e-07
2.91364e-07
3.17237e-07
3.17247e-07
3.50102e-07
2.91364e-07
3.17237e-07
3.17247e-07
3.50107e-07
2.91364e-07
3.17237e-07
3.17247e-07
3.50105e-07
2.91364e-07
3.17237e-07
3.17247e-07
3.50103e-07
2.91364e-07
3.17237e-07
3.17247e-07
3.50103e-07
2.91364e-07
3.17237e-07
3.17247e-07
3.50104e-07
2.91364e-07
3.17237e-07
3.17247e-07
3.50104e-07
2.91364e-07
3.17237e-07
3.17247e-07
3.50104e-07
2.9137e-07
3.17361e-07
3.17251e-07
3.50199e-07
2.91504e-07
3.17364e-07
3.17373e-07
3.50215e-07
2.91505e-07
3.17368e-07
3.17376e-07
3.50222e-07
2.91504e-07
3.17371e-07
3.1738e-07
3.5023e-07
2.91503e-07
3.17372e-07
3.17381e-07
3.50239e-07
2.915e-07
3.17373e-07
3.17381e-07
3.50241e-07
2.91467e-07
3.17303e-07
3.17348e-07
3.5021e-07
2.91373e-07
3.17236e-07
3.17253e-07
3.50095e-07
2.91365e-07
3.17235e-07
3.17245e-07
3.50104e-07
2.91365e-07
3.1723e-07
3.17241e-07
3.50098e-07
2.91364e-07
3.17222e-07
3.17232e-07
3.50087e-07
2.91367e-07
3.17227e-07
3.17238e-07
3.50048e-07
2.90672e-07
3.13468e-07
3.13471e-07
3.44271e-07
5.06422e-07
5.05581e-07
5.05579e-07
5.06421e-07
5.0558e-07
5.05579e-07
5.09651e-07
5.09651e-07
5.09651e-07
5.09651e-07
5.05581e-07
5.05581e-07
5.06422e-07
5.05581e-07
5.0558e-07
5.06422e-07
4.99571e-07
4.67246e-07
4.97339e-07
4.97344e-07
4.63728e-07
4.63736e-07
4.99572e-07
4.67243e-07
4.97343e-07
4.97344e-07
4.63733e-07
4.63738e-07
4.9734e-07
4.63724e-07
4.63729e-07
4.99571e-07
4.67249e-07
4.97343e-07
4.63726e-07
4.63733e-07
4.67248e-07
4.63716e-07
4.41414e-07
4.5378e-07
4.53788e-07
4.26708e-07
4.26716e-07
4.63715e-07
4.41407e-07
4.53784e-07
4.53791e-07
4.26709e-07
4.26721e-07
4.53782e-07
4.26699e-07
4.2671e-07
4.63718e-07
4.41418e-07
4.53784e-07
4.26704e-07
4.26711e-07
4.41416e-07
4.39399e-07
4.19257e-07
4.18587e-07
4.18594e-07
3.95567e-07
3.95573e-07
4.39397e-07
4.19249e-07
4.18586e-07
4.186e-07
3.95563e-07
3.95579e-07
4.1859e-07
3.95554e-07
3.9557e-07
4.39405e-07
4.19263e-07
4.18588e-07
3.9556e-07
3.95564e-07
4.19261e-07
4.17625e-07
3.9773e-07
3.88415e-07
3.88421e-07
3.68727e-07
3.68732e-07
4.17619e-07
3.97721e-07
3.88409e-07
3.88428e-07
3.68718e-07
3.68739e-07
3.88418e-07
3.68712e-07
3.6873e-07
4.17631e-07
3.97736e-07
3.88411e-07
3.68719e-07
3.6872e-07
3.97735e-07
3.96176e-07
3.74888e-07
3.62543e-07
3.62547e-07
3.42526e-07
3.42529e-07
3.96169e-07
3.74876e-07
3.62533e-07
3.62555e-07
3.42512e-07
3.42536e-07
3.62546e-07
3.42507e-07
3.42529e-07
3.96182e-07
3.74893e-07
3.62535e-07
3.42515e-07
3.42514e-07
3.74893e-07
3.72804e-07
3.52363e-07
3.35655e-07
3.3566e-07
3.21735e-07
3.2174e-07
3.72796e-07
3.52354e-07
3.35642e-07
3.35667e-07
3.21722e-07
3.21748e-07
3.35658e-07
3.21717e-07
3.21739e-07
3.7281e-07
3.5237e-07
3.35643e-07
3.21726e-07
3.21722e-07
3.52369e-07
3.52008e-07
3.49896e-07
3.19725e-07
3.19731e-07
3.17613e-07
3.17618e-07
3.52001e-07
3.49889e-07
3.19713e-07
3.19739e-07
3.176e-07
3.17627e-07
3.1973e-07
3.17595e-07
3.17617e-07
3.52016e-07
3.49905e-07
3.19713e-07
3.17604e-07
3.17599e-07
3.49903e-07
3.50139e-07
3.49817e-07
3.17433e-07
3.17439e-07
3.17263e-07
3.17268e-07
3.50133e-07
3.49809e-07
3.1742e-07
3.17447e-07
3.17249e-07
3.17277e-07
3.17437e-07
3.17244e-07
3.17267e-07
3.50148e-07
3.49825e-07
3.17419e-07
3.17253e-07
3.17249e-07
3.49824e-07
3.50072e-07
3.4984e-07
3.17257e-07
3.17262e-07
3.17257e-07
3.17261e-07
3.50065e-07
3.49833e-07
3.17242e-07
3.1727e-07
3.17242e-07
3.1727e-07
3.1726e-07
3.17237e-07
3.1726e-07
3.5008e-07
3.49849e-07
3.17242e-07
3.17246e-07
3.17242e-07
3.49848e-07
3.50102e-07
3.49837e-07
3.1726e-07
3.17264e-07
3.17258e-07
3.17261e-07
3.50097e-07
3.49828e-07
3.17245e-07
3.17273e-07
3.17243e-07
3.1727e-07
3.17263e-07
3.17237e-07
3.1726e-07
3.50112e-07
3.49845e-07
3.17244e-07
3.17246e-07
3.17242e-07
3.49844e-07
3.50094e-07
3.49842e-07
3.17261e-07
3.17263e-07
3.17259e-07
3.17263e-07
3.50087e-07
3.49835e-07
3.17245e-07
3.17272e-07
3.17244e-07
3.17271e-07
3.17262e-07
3.17237e-07
3.17261e-07
3.50102e-07
3.49851e-07
3.17244e-07
3.17247e-07
3.17243e-07
3.49851e-07
3.501e-07
3.49838e-07
3.1726e-07
3.17264e-07
3.1726e-07
3.17387e-07
3.50094e-07
3.49935e-07
3.17245e-07
3.17272e-07
3.17245e-07
3.17272e-07
3.17263e-07
3.17361e-07
3.17263e-07
3.50109e-07
3.49848e-07
3.17244e-07
3.17249e-07
3.17244e-07
3.49847e-07
3.5019e-07
3.4995e-07
3.17382e-07
3.17387e-07
3.17381e-07
3.17387e-07
3.50199e-07
3.49948e-07
3.17367e-07
3.17394e-07
3.17366e-07
3.17393e-07
3.17385e-07
3.17364e-07
3.17384e-07
3.50199e-07
3.49959e-07
3.17366e-07
3.1737e-07
3.17365e-07
3.49958e-07
3.50209e-07
3.49957e-07
3.17384e-07
3.1739e-07
3.17384e-07
3.1739e-07
3.50208e-07
3.49954e-07
3.1737e-07
3.17396e-07
3.17369e-07
3.17396e-07
3.17387e-07
3.17368e-07
3.17387e-07
3.50218e-07
3.49966e-07
3.17368e-07
3.17374e-07
3.17368e-07
3.49964e-07
3.50217e-07
3.49965e-07
3.17388e-07
3.17394e-07
3.1739e-07
3.17394e-07
3.50214e-07
3.49962e-07
3.17373e-07
3.174e-07
3.17374e-07
3.174e-07
3.1739e-07
3.17371e-07
3.1739e-07
3.50225e-07
3.49974e-07
3.17372e-07
3.17377e-07
3.17372e-07
3.49972e-07
3.50226e-07
3.49975e-07
3.17393e-07
3.17398e-07
3.17394e-07
3.17397e-07
3.50223e-07
3.4997e-07
3.17377e-07
3.17403e-07
3.17377e-07
3.17403e-07
3.17394e-07
3.17372e-07
3.17393e-07
3.50234e-07
3.49983e-07
3.17375e-07
3.17379e-07
3.17375e-07
3.49981e-07
3.50235e-07
3.49978e-07
3.17397e-07
3.17398e-07
3.17395e-07
3.17397e-07
3.50231e-07
3.49973e-07
3.1738e-07
3.17406e-07
3.17377e-07
3.17404e-07
3.17396e-07
3.17374e-07
3.17394e-07
3.50242e-07
3.49986e-07
3.17378e-07
3.1738e-07
3.17375e-07
3.49984e-07
3.50237e-07
3.49958e-07
3.17395e-07
3.17396e-07
3.17371e-07
3.17354e-07
3.50232e-07
3.49932e-07
3.17377e-07
3.17404e-07
3.17355e-07
3.17381e-07
3.17394e-07
3.17334e-07
3.17371e-07
3.50245e-07
3.49967e-07
3.17375e-07
3.17357e-07
3.17352e-07
3.49965e-07
3.50207e-07
3.49841e-07
3.17341e-07
3.17324e-07
3.17272e-07
3.17266e-07
3.50175e-07
3.49822e-07
3.17325e-07
3.17351e-07
3.17255e-07
3.17281e-07
3.17341e-07
3.17243e-07
3.17271e-07
3.50215e-07
3.49849e-07
3.17322e-07
3.17257e-07
3.17252e-07
3.49847e-07
3.50092e-07
3.49841e-07
3.17265e-07
3.17264e-07
3.17261e-07
3.17263e-07
3.50078e-07
3.49833e-07
3.17249e-07
3.17275e-07
3.17245e-07
3.17271e-07
3.17265e-07
3.17237e-07
3.17262e-07
3.50099e-07
3.49848e-07
3.17247e-07
3.17247e-07
3.17243e-07
3.49848e-07
3.50103e-07
3.49842e-07
3.17263e-07
3.17266e-07
3.17259e-07
3.17263e-07
3.50093e-07
3.49832e-07
3.17247e-07
3.17274e-07
3.17244e-07
3.17271e-07
3.17264e-07
3.17237e-07
3.17261e-07
3.5011e-07
3.49849e-07
3.17246e-07
3.17247e-07
3.17243e-07
3.49849e-07
3.50101e-07
3.49838e-07
3.17261e-07
3.17264e-07
3.17258e-07
3.17262e-07
3.50091e-07
3.4983e-07
3.17245e-07
3.17272e-07
3.17243e-07
3.1727e-07
3.17263e-07
3.17238e-07
3.1726e-07
3.50107e-07
3.49846e-07
3.17244e-07
3.17246e-07
3.17242e-07
3.49845e-07
3.50098e-07
3.49839e-07
3.1726e-07
3.17264e-07
3.17257e-07
3.17262e-07
3.50092e-07
3.49828e-07
3.17244e-07
3.17272e-07
3.17242e-07
3.1727e-07
3.17262e-07
3.17237e-07
3.1726e-07
3.50106e-07
3.49847e-07
3.17244e-07
3.17246e-07
3.17243e-07
3.49846e-07
3.50097e-07
3.49841e-07
3.17259e-07
3.17263e-07
3.17257e-07
3.17262e-07
3.50088e-07
3.49832e-07
3.17244e-07
3.17272e-07
3.17242e-07
3.1727e-07
3.17262e-07
3.17237e-07
3.17261e-07
3.50105e-07
3.4985e-07
3.17246e-07
3.17246e-07
3.17245e-07
3.49849e-07
3.501e-07
3.49841e-07
3.17259e-07
3.17263e-07
3.17257e-07
3.17262e-07
3.50091e-07
3.49834e-07
3.17243e-07
3.17272e-07
3.17242e-07
3.1727e-07
3.17262e-07
3.17237e-07
3.17261e-07
3.50107e-07
3.4985e-07
3.17248e-07
3.17246e-07
3.17245e-07
3.49849e-07
3.501e-07
3.4984e-07
3.17259e-07
3.17264e-07
3.17257e-07
3.17262e-07
3.50093e-07
3.49833e-07
3.17244e-07
3.17272e-07
3.17242e-07
3.1727e-07
3.17263e-07
3.17237e-07
3.17261e-07
3.50108e-07
3.49849e-07
3.17247e-07
3.17246e-07
3.17245e-07
3.49849e-07
3.501e-07
3.49839e-07
3.17259e-07
3.17263e-07
3.17257e-07
3.17262e-07
3.50093e-07
3.49833e-07
3.17243e-07
3.17272e-07
3.17242e-07
3.1727e-07
3.17262e-07
3.17237e-07
3.17261e-07
3.50108e-07
3.4985e-07
3.17246e-07
3.17246e-07
3.17245e-07
3.49848e-07
3.50099e-07
3.49839e-07
3.17259e-07
3.17264e-07
3.17257e-07
3.17262e-07
3.50093e-07
3.49832e-07
3.17244e-07
3.17272e-07
3.17242e-07
3.1727e-07
3.17262e-07
3.17237e-07
3.17261e-07
3.50108e-07
3.4985e-07
3.17247e-07
3.17246e-07
3.17245e-07
3.49848e-07
3.50099e-07
3.4984e-07
3.17259e-07
3.17263e-07
3.17257e-07
3.17262e-07
3.50093e-07
3.49832e-07
3.17243e-07
3.17272e-07
3.17241e-07
3.1727e-07
3.17263e-07
3.17237e-07
3.17261e-07
3.50109e-07
3.49849e-07
3.17247e-07
3.17246e-07
3.17245e-07
3.49848e-07
3.50099e-07
3.49946e-07
3.17258e-07
3.17263e-07
3.17381e-07
3.17386e-07
3.50092e-07
3.49942e-07
3.17243e-07
3.17271e-07
3.17366e-07
3.17394e-07
3.17262e-07
3.17365e-07
3.17385e-07
3.50108e-07
3.49955e-07
3.17246e-07
3.1737e-07
3.17369e-07
3.49954e-07
3.50207e-07
3.49953e-07
3.17384e-07
3.17389e-07
3.17384e-07
3.17389e-07
3.50206e-07
3.49952e-07
3.17369e-07
3.17397e-07
3.17368e-07
3.17397e-07
3.17388e-07
3.17367e-07
3.17387e-07
3.50215e-07
3.49963e-07
3.17372e-07
3.17373e-07
3.17372e-07
3.49962e-07
3.50214e-07
3.49961e-07
3.17387e-07
3.17392e-07
3.17387e-07
3.17393e-07
3.50212e-07
3.49956e-07
3.17372e-07
3.174e-07
3.17372e-07
3.174e-07
3.1739e-07
3.17371e-07
3.1739e-07
3.50223e-07
3.49971e-07
3.17375e-07
3.17377e-07
3.17375e-07
3.49969e-07
3.50222e-07
3.4997e-07
3.1739e-07
3.17396e-07
3.1739e-07
3.17397e-07
3.50217e-07
3.49964e-07
3.17375e-07
3.17403e-07
3.17375e-07
3.17403e-07
3.17393e-07
3.17373e-07
3.17394e-07
3.50231e-07
3.49979e-07
3.17378e-07
3.17378e-07
3.17378e-07
3.49978e-07
3.50231e-07
3.49977e-07
3.17393e-07
3.174e-07
3.1739e-07
3.17399e-07
3.50225e-07
3.49972e-07
3.17378e-07
3.17406e-07
3.17376e-07
3.17403e-07
3.17397e-07
3.17373e-07
3.17394e-07
3.50239e-07
3.49986e-07
3.17381e-07
3.17379e-07
3.17378e-07
3.49985e-07
3.50237e-07
3.49978e-07
3.17392e-07
3.174e-07
3.1739e-07
3.17397e-07
3.50233e-07
3.49971e-07
3.17377e-07
3.17405e-07
3.17374e-07
3.17402e-07
3.17395e-07
3.17374e-07
3.17393e-07
3.50244e-07
3.49986e-07
3.17379e-07
3.17378e-07
3.17377e-07
3.49986e-07
3.50236e-07
3.49895e-07
3.17385e-07
3.17393e-07
3.1731e-07
3.17322e-07
3.50231e-07
3.49909e-07
3.1737e-07
3.17398e-07
3.17294e-07
3.17322e-07
3.17389e-07
3.17306e-07
3.17316e-07
3.50243e-07
3.49905e-07
3.17373e-07
3.17298e-07
3.17297e-07
3.49907e-07
3.50139e-07
3.49826e-07
3.17285e-07
3.17296e-07
3.17258e-07
3.17264e-07
3.50152e-07
3.49817e-07
3.1727e-07
3.17298e-07
3.17243e-07
3.17271e-07
3.17291e-07
3.17238e-07
3.17262e-07
3.50147e-07
3.49835e-07
3.17273e-07
3.17247e-07
3.17246e-07
3.49834e-07
3.50088e-07
3.49843e-07
3.17259e-07
3.17265e-07
3.17258e-07
3.17264e-07
3.50077e-07
3.49835e-07
3.17244e-07
3.17273e-07
3.17243e-07
3.17271e-07
3.17263e-07
3.17238e-07
3.17262e-07
3.50096e-07
3.49852e-07
3.17247e-07
3.17247e-07
3.17246e-07
3.49852e-07
3.50102e-07
3.49838e-07
3.1726e-07
3.17265e-07
3.17257e-07
3.17263e-07
3.50095e-07
3.49831e-07
3.17244e-07
3.17273e-07
3.17242e-07
3.1727e-07
3.17263e-07
3.17237e-07
3.17261e-07
3.5011e-07
3.49848e-07
3.17248e-07
3.17247e-07
3.17245e-07
3.49846e-07
3.50097e-07
3.49841e-07
3.17259e-07
3.17264e-07
3.17256e-07
3.17262e-07
3.50091e-07
3.49832e-07
3.17243e-07
3.17272e-07
3.17242e-07
3.1727e-07
3.17262e-07
3.17237e-07
3.17261e-07
3.50106e-07
3.4985e-07
3.17246e-07
3.17247e-07
3.17245e-07
3.49851e-07
3.50101e-07
3.49838e-07
3.17258e-07
3.17264e-07
3.17257e-07
3.17262e-07
3.50093e-07
3.4983e-07
3.17244e-07
3.17272e-07
3.17242e-07
3.1727e-07
3.17263e-07
3.17237e-07
3.17261e-07
3.50109e-07
3.49847e-07
3.17247e-07
3.17247e-07
3.17245e-07
3.49848e-07
3.50098e-07
3.49839e-07
3.1726e-07
3.17264e-07
3.17257e-07
3.17262e-07
3.50089e-07
3.49832e-07
3.17245e-07
3.17272e-07
3.17243e-07
3.1727e-07
3.17262e-07
3.17237e-07
3.17261e-07
3.50106e-07
3.49848e-07
3.17247e-07
3.17247e-07
3.17245e-07
3.49847e-07
3.50097e-07
3.49841e-07
3.17259e-07
3.17264e-07
3.17257e-07
3.17262e-07
3.5009e-07
3.49833e-07
3.17244e-07
3.17272e-07
3.17243e-07
3.1727e-07
3.17262e-07
3.17237e-07
3.17261e-07
3.50106e-07
3.4985e-07
3.17247e-07
3.17247e-07
3.17245e-07
3.49847e-07
3.50099e-07
3.49842e-07
3.17259e-07
3.17264e-07
3.17257e-07
3.17262e-07
3.50092e-07
3.49833e-07
3.17244e-07
3.17272e-07
3.17243e-07
3.1727e-07
3.17262e-07
3.17237e-07
3.17261e-07
3.50108e-07
3.4985e-07
3.17247e-07
3.17247e-07
3.17245e-07
3.49848e-07
3.501e-07
3.49842e-07
3.1726e-07
3.17264e-07
3.17257e-07
3.17262e-07
3.50093e-07
3.49833e-07
3.17245e-07
3.17272e-07
3.17243e-07
3.1727e-07
3.17262e-07
3.17237e-07
3.17261e-07
3.50108e-07
3.49849e-07
3.17247e-07
3.17247e-07
3.17245e-07
3.49848e-07
3.501e-07
3.49842e-07
3.17259e-07
3.17264e-07
3.17257e-07
3.17262e-07
3.50093e-07
3.49832e-07
3.17244e-07
3.17272e-07
3.17243e-07
3.1727e-07
3.17262e-07
3.17237e-07
3.17261e-07
3.50108e-07
3.49849e-07
3.17247e-07
3.17247e-07
3.17245e-07
3.49848e-07
3.501e-07
3.49842e-07
3.17259e-07
3.17264e-07
3.17257e-07
3.17262e-07
3.50092e-07
3.49832e-07
3.17245e-07
3.17272e-07
3.17243e-07
3.1727e-07
3.17262e-07
3.17237e-07
3.17261e-07
3.50108e-07
3.4985e-07
3.17247e-07
3.17248e-07
3.17245e-07
3.49848e-07
3.50101e-07
3.49954e-07
3.1726e-07
3.17264e-07
3.17381e-07
3.17386e-07
3.50092e-07
3.49945e-07
3.17245e-07
3.17272e-07
3.17367e-07
3.17394e-07
3.17263e-07
3.1736e-07
3.17384e-07
3.50109e-07
3.49962e-07
3.17247e-07
3.17371e-07
3.17369e-07
3.49959e-07
3.50213e-07
3.49959e-07
3.17384e-07
3.17389e-07
3.17384e-07
3.17389e-07
3.50205e-07
3.4995e-07
3.1737e-07
3.17397e-07
3.17369e-07
3.17396e-07
3.17387e-07
3.17364e-07
3.17386e-07
3.50221e-07
3.49967e-07
3.17372e-07
3.17374e-07
3.17371e-07
3.49964e-07
3.50218e-07
3.49966e-07
3.17387e-07
3.17392e-07
3.17388e-07
3.17392e-07
3.5021e-07
3.49956e-07
3.17372e-07
3.17399e-07
3.17373e-07
3.174e-07
3.1739e-07
3.17367e-07
3.1739e-07
3.50226e-07
3.49973e-07
3.17374e-07
3.17377e-07
3.17375e-07
3.49971e-07
3.50225e-07
3.49974e-07
3.17391e-07
3.17395e-07
3.17391e-07
3.17395e-07
3.50217e-07
3.49964e-07
3.17376e-07
3.17403e-07
3.17376e-07
3.17403e-07
3.17393e-07
3.17369e-07
3.17393e-07
3.50233e-07
3.49981e-07
3.17378e-07
3.17379e-07
3.17377e-07
3.49979e-07
3.50234e-07
3.49978e-07
3.17393e-07
3.17398e-07
3.1739e-07
3.17395e-07
3.50225e-07
3.49969e-07
3.17378e-07
3.17405e-07
3.17375e-07
3.17403e-07
3.17395e-07
3.17369e-07
3.17392e-07
3.50241e-07
3.49986e-07
3.1738e-07
3.17379e-07
3.17377e-07
3.49984e-07
3.50237e-07
3.49973e-07
3.17391e-07
3.17396e-07
3.17384e-07
3.17388e-07
3.50229e-07
3.49964e-07
3.17376e-07
3.17404e-07
3.17369e-07
3.17397e-07
3.17394e-07
3.17363e-07
3.17387e-07
3.50245e-07
3.49981e-07
3.17378e-07
3.17373e-07
3.17371e-07
3.4998e-07
3.50226e-07
3.49866e-07
3.17369e-07
3.17374e-07
3.17285e-07
3.17289e-07
3.50218e-07
3.49857e-07
3.17355e-07
3.17382e-07
3.1727e-07
3.17297e-07
3.17373e-07
3.17264e-07
3.17288e-07
3.50235e-07
3.49873e-07
3.17357e-07
3.17274e-07
3.17272e-07
3.49872e-07
3.50111e-07
3.49834e-07
3.1727e-07
3.17274e-07
3.17258e-07
3.17263e-07
3.50103e-07
3.49824e-07
3.17255e-07
3.17282e-07
3.17244e-07
3.17271e-07
3.17273e-07
3.17237e-07
3.17262e-07
3.50119e-07
3.49841e-07
3.17257e-07
3.17247e-07
3.17246e-07
3.49841e-07
3.50096e-07
3.49843e-07
3.1726e-07
3.17265e-07
3.17258e-07
3.17263e-07
3.50087e-07
3.49834e-07
3.17246e-07
3.17273e-07
3.17244e-07
3.17271e-07
3.17264e-07
3.17237e-07
3.17262e-07
3.50104e-07
3.4985e-07
3.17248e-07
3.17247e-07
3.17246e-07
3.4985e-07
3.50101e-07
3.49838e-07
3.1726e-07
3.17264e-07
3.17257e-07
3.17262e-07
3.50092e-07
3.49829e-07
3.17245e-07
3.17272e-07
3.17243e-07
3.1727e-07
3.17263e-07
3.17237e-07
3.17261e-07
3.50108e-07
3.49847e-07
3.17247e-07
3.17247e-07
3.17245e-07
3.49845e-07
3.50097e-07
3.49843e-07
3.17259e-07
3.17264e-07
3.17257e-07
3.17262e-07
3.50088e-07
3.49833e-07
3.17245e-07
3.17272e-07
3.17243e-07
3.1727e-07
3.17262e-07
3.17237e-07
3.17261e-07
3.50105e-07
3.4985e-07
3.17247e-07
3.17247e-07
3.17245e-07
3.4985e-07
3.501e-07
3.49842e-07
3.17259e-07
3.17264e-07
3.17257e-07
3.17262e-07
3.50091e-07
3.49833e-07
3.17245e-07
3.17272e-07
3.17243e-07
3.1727e-07
3.17262e-07
3.17237e-07
3.17261e-07
3.50107e-07
3.4985e-07
3.17247e-07
3.17247e-07
3.17245e-07
3.4985e-07
3.50101e-07
3.49841e-07
3.17259e-07
3.17264e-07
3.17257e-07
3.17262e-07
3.50092e-07
3.49832e-07
3.17245e-07
3.17272e-07
3.17243e-07
3.1727e-07
3.17263e-07
3.17237e-07
3.17261e-07
3.50109e-07
3.49849e-07
3.17247e-07
3.17247e-07
3.17245e-07
3.49848e-07
3.501e-07
3.49841e-07
3.17259e-07
3.17264e-07
3.17257e-07
3.17262e-07
3.50092e-07
3.49832e-07
3.17245e-07
3.17272e-07
3.17243e-07
3.1727e-07
3.17262e-07
3.17237e-07
3.17261e-07
3.50108e-07
3.49849e-07
3.17247e-07
3.17247e-07
3.17245e-07
3.49848e-07
3.501e-07
3.49841e-07
3.17259e-07
3.17264e-07
3.17257e-07
3.17262e-07
3.50092e-07
3.49832e-07
3.17245e-07
3.17272e-07
3.17243e-07
3.1727e-07
3.17263e-07
3.17237e-07
3.17261e-07
3.50108e-07
3.49849e-07
3.17247e-07
3.17247e-07
3.17245e-07
3.49848e-07
3.501e-07
3.49841e-07
3.17259e-07
3.17264e-07
3.17257e-07
3.17262e-07
3.50092e-07
3.49833e-07
3.17245e-07
3.17272e-07
3.17243e-07
3.1727e-07
3.17262e-07
3.17237e-07
3.1726e-07
3.50108e-07
3.49849e-07
3.17247e-07
3.17247e-07
3.17245e-07
3.49848e-07
3.501e-07
3.49841e-07
3.17259e-07
3.17264e-07
3.17257e-07
3.17262e-07
3.50092e-07
3.49833e-07
3.17245e-07
3.17272e-07
3.17243e-07
3.1727e-07
3.17263e-07
3.17237e-07
3.17261e-07
3.50108e-07
3.49849e-07
3.17247e-07
3.17247e-07
3.17245e-07
3.49848e-07
3.501e-07
3.49944e-07
3.17259e-07
3.17264e-07
3.17382e-07
3.17387e-07
3.50092e-07
3.49935e-07
3.17245e-07
3.17271e-07
3.17368e-07
3.17394e-07
3.17262e-07
3.17363e-07
3.17385e-07
3.50108e-07
3.49955e-07
3.17246e-07
3.17371e-07
3.17369e-07
3.49954e-07
3.50208e-07
3.49956e-07
3.17382e-07
3.17387e-07
3.17381e-07
3.17386e-07
3.50199e-07
3.49947e-07
3.17368e-07
3.17397e-07
3.17367e-07
3.17397e-07
3.17388e-07
3.17365e-07
3.17387e-07
3.50216e-07
3.49963e-07
3.17372e-07
3.17374e-07
3.17372e-07
3.49962e-07
3.50216e-07
3.49961e-07
3.17385e-07
3.1739e-07
3.17385e-07
3.1739e-07
3.50207e-07
3.49953e-07
3.17371e-07
3.174e-07
3.17371e-07
3.174e-07
3.17391e-07
3.17369e-07
3.17391e-07
3.50223e-07
3.49971e-07
3.17375e-07
3.17378e-07
3.17375e-07
3.49969e-07
3.50221e-07
3.49969e-07
3.17389e-07
3.17393e-07
3.17389e-07
3.17394e-07
3.50214e-07
3.49961e-07
3.17375e-07
3.17404e-07
3.17375e-07
3.17404e-07
3.17394e-07
3.17371e-07
3.17394e-07
3.5023e-07
3.4998e-07
3.17379e-07
3.1738e-07
3.17379e-07
3.49978e-07
3.50229e-07
3.49978e-07
3.17393e-07
3.17397e-07
3.17392e-07
3.17396e-07
3.50222e-07
3.49969e-07
3.17378e-07
3.17407e-07
3.17378e-07
3.17404e-07
3.17397e-07
3.17371e-07
3.17394e-07
3.50239e-07
3.49986e-07
3.17382e-07
3.17379e-07
3.17379e-07
3.49985e-07
3.50238e-07
3.49981e-07
3.17394e-07
3.17398e-07
3.17392e-07
3.17396e-07
3.50229e-07
3.49971e-07
3.17381e-07
3.17405e-07
3.17379e-07
3.17403e-07
3.17395e-07
3.17373e-07
3.17393e-07
3.50245e-07
3.49986e-07
3.1738e-07
3.17379e-07
3.17378e-07
3.49986e-07
3.5024e-07
3.49932e-07
3.17391e-07
3.17395e-07
3.17339e-07
3.17343e-07
3.5023e-07
3.49922e-07
3.17377e-07
3.17399e-07
3.17324e-07
3.17324e-07
3.17389e-07
3.17312e-07
3.17313e-07
3.50243e-07
3.49905e-07
3.17373e-07
3.17299e-07
3.17297e-07
3.49904e-07
3.50174e-07
3.49829e-07
3.17309e-07
3.17313e-07
3.1726e-07
3.17265e-07
3.50164e-07
3.49819e-07
3.17294e-07
3.17299e-07
3.17246e-07
3.17271e-07
3.17289e-07
3.17238e-07
3.17262e-07
3.50148e-07
3.49835e-07
3.17273e-07
3.17247e-07
3.17246e-07
3.49835e-07
3.50086e-07
3.49844e-07
3.1726e-07
3.17265e-07
3.17258e-07
3.17263e-07
3.50077e-07
3.49835e-07
3.17246e-07
3.17273e-07
3.17244e-07
3.17271e-07
3.17263e-07
3.17238e-07
3.17262e-07
3.50096e-07
3.49852e-07
3.17247e-07
3.17248e-07
3.17246e-07
3.49852e-07
3.50103e-07
3.49842e-07
3.17261e-07
3.17266e-07
3.17258e-07
3.17262e-07
3.50095e-07
3.49832e-07
3.17246e-07
3.17273e-07
3.17243e-07
3.1727e-07
3.17263e-07
3.17237e-07
3.17261e-07
3.5011e-07
3.49848e-07
3.17248e-07
3.17247e-07
3.17245e-07
3.49847e-07
3.501e-07
3.4984e-07
3.17259e-07
3.17264e-07
3.17257e-07
3.17262e-07
3.50091e-07
3.49831e-07
3.17245e-07
3.17272e-07
3.17243e-07
3.1727e-07
3.17262e-07
3.17237e-07
3.17261e-07
3.50106e-07
3.4985e-07
3.17247e-07
3.17247e-07
3.17245e-07
3.49851e-07
3.501e-07
3.49838e-07
3.17259e-07
3.17264e-07
3.17257e-07
3.17262e-07
3.50092e-07
3.49829e-07
3.17245e-07
3.17272e-07
3.17243e-07
3.1727e-07
3.17263e-07
3.17237e-07
3.17261e-07
3.50109e-07
3.49847e-07
3.17247e-07
3.17247e-07
3.17245e-07
3.49848e-07
3.50096e-07
3.49841e-07
3.17259e-07
3.17264e-07
3.17257e-07
3.17262e-07
3.50088e-07
3.49832e-07
3.17245e-07
3.17272e-07
3.17243e-07
3.1727e-07
3.17262e-07
3.17237e-07
3.17261e-07
3.50106e-07
3.49848e-07
3.17247e-07
3.17247e-07
3.17245e-07
3.49846e-07
3.50099e-07
3.49842e-07
3.17259e-07
3.17264e-07
3.17257e-07
3.17262e-07
3.5009e-07
3.49833e-07
3.17245e-07
3.17272e-07
3.17243e-07
3.1727e-07
3.17262e-07
3.17237e-07
3.1726e-07
3.50106e-07
3.49849e-07
3.17247e-07
3.17247e-07
3.17245e-07
3.49847e-07
3.501e-07
3.49842e-07
3.17259e-07
3.17264e-07
3.17257e-07
3.17262e-07
3.50092e-07
3.49833e-07
3.17245e-07
3.17272e-07
3.17243e-07
3.1727e-07
3.17262e-07
3.17237e-07
3.17261e-07
3.50107e-07
3.49849e-07
3.17246e-07
3.17247e-07
3.17245e-07
3.49848e-07
3.501e-07
3.49842e-07
3.17259e-07
3.17264e-07
3.17257e-07
3.17262e-07
3.50092e-07
3.49833e-07
3.17245e-07
3.17272e-07
3.17243e-07
3.1727e-07
3.17262e-07
3.17237e-07
3.17261e-07
3.50108e-07
3.4985e-07
3.17247e-07
3.17247e-07
3.17245e-07
3.49848e-07
3.50101e-07
3.49841e-07
3.17259e-07
3.17264e-07
3.17257e-07
3.17262e-07
3.50092e-07
3.49833e-07
3.17245e-07
3.17272e-07
3.17243e-07
3.1727e-07
3.17263e-07
3.17237e-07
3.17261e-07
3.50108e-07
3.4985e-07
3.17246e-07
3.17247e-07
3.17245e-07
3.49848e-07
3.50101e-07
3.49841e-07
3.17259e-07
3.17264e-07
3.17259e-07
3.17387e-07
3.50092e-07
3.49936e-07
3.17245e-07
3.17272e-07
3.17243e-07
3.1727e-07
3.17262e-07
3.17361e-07
3.17263e-07
3.50108e-07
3.49849e-07
3.17247e-07
3.17248e-07
3.17247e-07
3.49848e-07
3.50105e-07
3.49963e-07
3.17381e-07
3.17387e-07
3.17381e-07
3.17387e-07
3.50199e-07
3.49947e-07
3.17245e-07
3.17272e-07
3.17368e-07
3.17394e-07
3.17385e-07
3.17364e-07
3.17384e-07
3.50108e-07
3.49962e-07
3.17369e-07
3.17373e-07
3.17368e-07
3.49959e-07
3.50222e-07
3.49964e-07
3.17384e-07
3.1739e-07
3.17384e-07
3.1739e-07
3.50207e-07
3.49953e-07
3.17371e-07
3.17397e-07
3.17371e-07
3.17397e-07
3.17387e-07
3.17367e-07
3.17387e-07
3.50221e-07
3.49967e-07
3.17371e-07
3.17376e-07
3.17371e-07
3.49965e-07
3.50223e-07
3.4997e-07
3.17388e-07
3.17393e-07
3.17389e-07
3.17394e-07
3.50213e-07
3.49961e-07
3.17374e-07
3.174e-07
3.17374e-07
3.174e-07
3.1739e-07
3.17371e-07
3.1739e-07
3.50227e-07
3.49974e-07
3.17374e-07
3.17379e-07
3.17375e-07
3.49972e-07
3.50229e-07
3.49977e-07
3.17392e-07
3.17398e-07
3.17393e-07
3.17397e-07
3.50222e-07
3.4997e-07
3.17378e-07
3.17404e-07
3.17377e-07
3.17403e-07
3.17394e-07
3.17372e-07
3.17393e-07
3.50234e-07
3.49983e-07
3.17378e-07
3.17381e-07
3.17378e-07
3.49981e-07
3.50237e-07
3.49983e-07
3.17396e-07
3.174e-07
3.17394e-07
3.17398e-07
3.5023e-07
3.49972e-07
3.1738e-07
3.17406e-07
3.17377e-07
3.17403e-07
3.17396e-07
3.17374e-07
3.17394e-07
3.50242e-07
3.49987e-07
3.1738e-07
3.17381e-07
3.17378e-07
3.49985e-07
3.50242e-07
3.49969e-07
3.17395e-07
3.17397e-07
3.17375e-07
3.17359e-07
3.50232e-07
3.49934e-07
3.17379e-07
3.17404e-07
3.17369e-07
3.17396e-07
3.17394e-07
3.17334e-07
3.17371e-07
3.50246e-07
3.49981e-07
3.17378e-07
3.1737e-07
3.17355e-07
3.49965e-07
3.5022e-07
3.49854e-07
3.17347e-07
3.17328e-07
3.17272e-07
3.17267e-07
3.50177e-07
3.49822e-07
3.1735e-07
3.17381e-07
3.17266e-07
3.17295e-07
3.17341e-07
3.17242e-07
3.1727e-07
3.50233e-07
3.4987e-07
3.17325e-07
3.17267e-07
3.17254e-07
3.49847e-07
3.50102e-07
3.49835e-07
3.17263e-07
3.17264e-07
3.17255e-07
3.1726e-07
3.50078e-07
3.49832e-07
3.17252e-07
3.17281e-07
3.1724e-07
3.17268e-07
3.17264e-07
3.17235e-07
3.17258e-07
3.50115e-07
3.4984e-07
3.17248e-07
3.17245e-07
3.17243e-07
3.49846e-07
3.50096e-07
3.49837e-07
3.17257e-07
3.17262e-07
3.17251e-07
3.17256e-07
3.50092e-07
3.49827e-07
3.17242e-07
3.17269e-07
3.17237e-07
3.17264e-07
3.1726e-07
3.1723e-07
3.17255e-07
3.50101e-07
3.49844e-07
3.17245e-07
3.17241e-07
3.17239e-07
3.49844e-07
3.50095e-07
3.49825e-07
3.17252e-07
3.17257e-07
3.17243e-07
3.17247e-07
3.50085e-07
3.49818e-07
3.17238e-07
3.17265e-07
3.17228e-07
3.17256e-07
3.17256e-07
3.17221e-07
3.17246e-07
3.50101e-07
3.49834e-07
3.1724e-07
3.17232e-07
3.1723e-07
3.49833e-07
3.50081e-07
3.49794e-07
3.17245e-07
3.17249e-07
3.17199e-07
3.17201e-07
3.50078e-07
3.4978e-07
3.1723e-07
3.17257e-07
3.17182e-07
3.17209e-07
3.17248e-07
3.17177e-07
3.17202e-07
3.5009e-07
3.49801e-07
3.17232e-07
3.17186e-07
3.17183e-07
3.49797e-07
3.50047e-07
3.47373e-07
3.17251e-07
3.17254e-07
3.14869e-07
3.14872e-07
3.50036e-07
3.47368e-07
3.17235e-07
3.17262e-07
3.14857e-07
3.14873e-07
3.17255e-07
3.14855e-07
3.14871e-07
3.50053e-07
3.47376e-07
3.17235e-07
3.14859e-07
3.14857e-07
3.47374e-07
3.44271e-07
3.13478e-07
3.1348e-07
3.44268e-07
3.1347e-07
3.13482e-07
2.90674e-07
2.90674e-07
2.90673e-07
3.1348e-07
3.44274e-07
3.1347e-07
5.3566e-07
5.356e-07
5.35652e-07
5.35652e-07
5.34573e-07
5.35519e-07
5.33634e-07
5.35652e-07
5.34573e-07
5.35519e-07
5.35652e-07
5.33634e-07
5.35261e-07
5.35987e-07
5.35987e-07
1.10818e-06
3.88235e-06
9.33301e-07
4.60445e-06
1.26082e-05
1.65931e-05
1.10831e-06
3.88259e-06
9.33321e-07
4.60479e-06
4.95582e-07
4.95582e-07
4.95582e-07
4.57267e-07
4.57266e-07
4.57267e-07
4.57267e-07
5.43328e-07
1.22024e-06
4.95577e-07
4.85514e-07
5.25234e-07
1.20974e-06
4.82284e-07
1.26098e-05
1.65954e-05
5.43351e-07
4.95578e-07
1.22022e-06
4.85515e-07
5.2521e-07
4.82285e-07
1.20974e-06
2.52161e-06
2.52232e-06
4.84194e-07
2.37306e-06
2.37346e-06
1.4325e-06
5.59541e-06
1.32901e-06
6.13474e-06
2.12914e-05
2.31033e-05
1.43301e-06
5.5961e-06
1.32901e-06
6.13536e-06
4.45643e-07