/*--------------------------------*- C++ -*----------------------------------*\
| =========                 |                                                 |
| \\      /  F ield         | OpenFOAM: The Open Source CFD Toolbox           |
|  \\    /   O peration     | Version:  2206                                  |
|   \\  /    A nd           | Website:  www.openfoam.com                      |
|    \\/     M anipulation  |                                                 |
\*---------------------------------------------------------------------------*/
FoamFile
{
    version     2.0;
    format      ascii;
    arch        "LSB;label=32;scalar=64";
    class       volScalarField;
    location    "27";
    object      Uy;
}
// * * * * * * * * * * * * * * * * * * * * * * * * * * * * * * * * * * * * * //

dimensions      [0 1 -1 0 0 0 0];

internalField   nonuniform List<scalar> 
171728
(
0.000107699
0.000119288
-0.000190079
-0.000239372
9.4004e-05
9.68077e-05
-0.000158925
-0.000200745
9.47568e-05
9.29442e-05
-0.000154725
-0.000201052
9.54865e-05
9.27437e-05
-0.000155528
-0.000197682
8.63969e-05
8.53884e-05
-0.000145376
-0.000184812
5.92363e-05
4.84741e-05
-8.68731e-05
-0.000131418
2.36924e-05
2.17505e-05
-3.1993e-05
-7.18476e-05
3.66795e-06
4.52039e-06
-5.68562e-06
-4.82232e-05
-3.5065e-07
9.96751e-07
-8.31706e-07
-4.42518e-05
-6.98353e-07
7.46115e-07
-4.91217e-07
-4.4039e-05
-7.10514e-07
7.39451e-07
-4.8414e-07
-4.40338e-05
-7.17921e-07
7.38232e-07
-4.86046e-07
-4.40347e-05
-7.19309e-07
7.3582e-07
-4.85356e-07
-4.4035e-05
-7.18984e-07
7.35611e-07
-4.85075e-07
-4.40341e-05
-7.17009e-07
7.4161e-07
-4.84979e-07
-4.40332e-05
-7.15192e-07
7.44707e-07
-4.84494e-07
-4.40327e-05
-7.17501e-07
7.40151e-07
-4.84298e-07
-4.40331e-05
-7.15131e-07
7.4278e-07
-4.84001e-07
-4.40329e-05
-7.06826e-07
7.55271e-07
-4.82885e-07
-4.40325e-05
-7.09521e-07
7.30164e-07
-4.82597e-07
-4.40323e-05
-7.12389e-07
7.43184e-07
-4.85417e-07
-4.40348e-05
-7.18761e-07
7.38161e-07
-4.85704e-07
-4.40345e-05
-7.1826e-07
7.37048e-07
-4.85851e-07
-4.40345e-05
-7.1872e-07
7.3651e-07
-4.85277e-07
-4.40341e-05
-7.19235e-07
7.36362e-07
-4.85434e-07
-4.40341e-05
-7.19255e-07
7.36141e-07
-4.85774e-07
-4.40342e-05
-7.1861e-07
7.36701e-07
-4.86154e-07
-4.40349e-05
-7.17558e-07
7.37064e-07
-4.86559e-07
-4.40351e-05
-7.16926e-07
7.37753e-07
-4.86936e-07
-4.40358e-05
-7.17435e-07
7.37627e-07
-4.86747e-07
-4.40353e-05
-7.1771e-07
7.37943e-07
-4.86035e-07
-4.40346e-05
-7.18264e-07
7.36769e-07
-4.85331e-07
-4.40347e-05
-7.18387e-07
7.36355e-07
-4.85141e-07
-4.40342e-05
-7.17937e-07
7.36244e-07
-4.84883e-07
-4.40341e-05
-7.17713e-07
7.36308e-07
-4.8581e-07
-4.40349e-05
-7.17442e-07
7.36918e-07
-4.86232e-07
-4.40353e-05
-7.17112e-07
7.36733e-07
-4.86497e-07
-4.40354e-05
-7.17056e-07
7.37092e-07
-4.86712e-07
-4.40355e-05
-7.1813e-07
7.3599e-07
-4.85851e-07
-4.40346e-05
-7.17622e-07
7.36611e-07
-4.86361e-07
-4.40367e-05
-7.13387e-07
7.34186e-07
-4.8432e-07
-4.40346e-05
-7.15845e-07
7.4696e-07
-4.83456e-07
-4.40326e-05
-7.16216e-07
7.3805e-07
-4.84162e-07
-4.40339e-05
-7.16934e-07
7.386e-07
-4.8429e-07
-4.40345e-05
-7.16783e-07
7.39025e-07
-4.84591e-07
-4.40351e-05
-7.17875e-07
7.38272e-07
-4.84276e-07
-4.40349e-05
-7.1874e-07
7.38439e-07
-4.84092e-07
-4.4035e-05
-7.19192e-07
7.37292e-07
-4.83113e-07
-4.40338e-05
-7.19226e-07
7.38e-07
-4.83319e-07
-4.40338e-05
-7.19356e-07
7.37565e-07
-4.83405e-07
-4.40339e-05
-7.18524e-07
7.38235e-07
-4.83922e-07
-4.40342e-05
-7.17971e-07
7.38528e-07
-4.84602e-07
-4.40345e-05
-7.18449e-07
7.38305e-07
-4.84353e-07
-4.40345e-05
-7.195e-07
7.35156e-07
-4.85606e-07
-4.40364e-05
-7.21208e-07
7.28077e-07
-4.84668e-07
-4.4036e-05
-7.20443e-07
7.36181e-07
-4.83382e-07
-4.40343e-05
-7.2155e-07
7.35399e-07
-4.81282e-07
-4.40324e-05
-7.21285e-07
7.35452e-07
-4.81062e-07
-4.40315e-05
-7.20626e-07
7.35489e-07
-4.81406e-07
-4.40318e-05
-7.20483e-07
7.35697e-07
-4.81566e-07
-4.4032e-05
-7.20218e-07
7.3632e-07
-4.82031e-07
-4.40321e-05
-7.20557e-07
7.35398e-07
-4.81075e-07
-4.40316e-05
-7.20559e-07
7.35327e-07
-4.80691e-07
-4.40312e-05
-7.21612e-07
7.34577e-07
-4.79458e-07
-4.40304e-05
-7.21331e-07
7.34944e-07
-4.79971e-07
-4.40302e-05
-7.20963e-07
7.34928e-07
-4.80218e-07
-4.40309e-05
-7.20733e-07
7.35315e-07
-4.80915e-07
-4.40309e-05
-7.19916e-07
7.36223e-07
-4.81486e-07
-4.40312e-05
-7.18478e-07
7.36877e-07
-4.77202e-07
-4.40284e-05
-7.16798e-07
7.38497e-07
-4.67559e-07
-4.40216e-05
-7.19103e-07
7.3664e-07
-4.76758e-07
-4.4026e-05
-7.20766e-07
7.35854e-07
-4.7966e-07
-4.40295e-05
-7.21345e-07
7.34412e-07
-4.79206e-07
-4.40301e-05
-7.2125e-07
7.35258e-07
-4.80247e-07
-4.40306e-05
-7.20642e-07
7.35024e-07
-4.80724e-07
-4.40313e-05
-7.20598e-07
7.35344e-07
-4.81159e-07
-4.40317e-05
-7.20188e-07
7.35937e-07
-4.81664e-07
-4.40316e-05
-7.20556e-07
7.35748e-07
-4.80579e-07
-4.40313e-05
-7.21022e-07
7.34908e-07
-4.79972e-07
-4.40306e-05
-7.21314e-07
7.35077e-07
-4.79767e-07
-4.40305e-05
-7.21551e-07
7.34878e-07
-4.79888e-07
-4.40303e-05
-7.21124e-07
7.34719e-07
-4.80254e-07
-4.40308e-05
-7.20671e-07
7.35543e-07
-4.80785e-07
-4.40314e-05
-7.20346e-07
7.35686e-07
-4.81446e-07
-4.40317e-05
-7.20576e-07
7.35647e-07
-4.81469e-07
-4.40318e-05
-7.20934e-07
7.34734e-07
-4.80698e-07
-4.40316e-05
-7.23511e-07
7.32247e-07
-4.77284e-07
-4.40305e-05
-7.32132e-07
7.23442e-07
-4.69033e-07
-4.40189e-05
-7.40532e-07
7.12186e-07
-4.81519e-07
-4.39355e-05
-7.86027e-07
8.08792e-07
-5.91528e-07
-4.35211e-05
-4.44133e-07
1.09557e-06
-1.09859e-06
-4.33798e-05
-4.59439e-07
1.60422e-06
-1.78691e-06
-4.22957e-05
-3.54129e-07
2.92163e-06
-3.46639e-06
-3.92567e-05
-5.63473e-06
3.36513e-06
-2.34436e-06
-2.6537e-05
-4.15691e-05
-3.40644e-05
4.16716e-05
4.72245e-05
0.00013513
0.000152961
0.000152942
0.000135098
0.00012422
-0.000124237
9.08084e-05
9.08058e-05
-9.08546e-05
-9.08528e-05
0.000124217
-0.000124233
-0.00013515
-0.000152991
-0.000152974
-0.000135123
0.000239375
0.000111777
0.000189979
0.00019002
0.000147228
0.000147225
0.000239324
0.000111745
0.000119307
-0.000119369
8.91443e-05
-8.91655e-05
-0.000119372
8.9146e-05
-8.91595e-05
-0.000239417
-0.000111871
-0.000190108
-0.000147164
-0.000147189
-0.000111874
0.000200613
0.000106835
0.000158982
0.000158978
0.000157833
0.000157834
0.00020058
0.000106825
9.68013e-05
-9.6814e-05
9.51144e-05
-9.51163e-05
-9.6809e-05
9.51239e-05
-9.51054e-05
-0.000200753
-0.000106891
-0.000158951
-0.000157789
-0.000157808
-0.000106899
0.000200941
9.87617e-05
0.000154774
0.00015477
0.000155735
0.000155728
0.000200924
9.87585e-05
9.294e-05
-9.29336e-05
9.25868e-05
-9.25729e-05
-9.2929e-05
9.25794e-05
-9.25757e-05
-0.000201057
-9.88125e-05
-0.000154747
-0.000155674
-0.000155685
-9.88377e-05
0.000197567
8.7134e-05
0.000155585
0.000155574
0.000143982
0.000143978
0.000197554
8.7134e-05
9.27502e-05
-9.27312e-05
8.42075e-05
-8.42039e-05
-9.27368e-05
8.42014e-05
-8.42059e-05
-0.000197675
-8.71754e-05
-0.000155533
-0.000143931
-0.000143932
-8.72104e-05
0.000184701
4.92063e-05
0.000145431
0.000145435
0.000106637
0.000106621
0.000184692
4.92605e-05
8.53895e-05
-8.53668e-05
5.90435e-05
-5.90426e-05
-8.53822e-05
5.90306e-05
-5.90229e-05
-0.000184793
-4.92284e-05
-0.000145377
-0.000106558
-0.000106539
-4.92283e-05
0.000131375
-1.37529e-05
8.69168e-05
8.69184e-05
4.32231e-05
4.32342e-05
0.0001314
-1.37576e-05
4.84835e-05
-4.85116e-05
2.78543e-05
-2.79047e-05
-4.8497e-05
2.78557e-05
-2.78945e-05
-0.000131437
1.3778e-05
-8.68467e-05
-4.32308e-05
-4.32339e-05
1.37673e-05
7.18029e-05
-4.03887e-05
3.19845e-05
3.19974e-05
9.39292e-06
9.40854e-06
7.17865e-05
-4.03915e-05
2.17545e-05
-2.17959e-05
7.16933e-06
-7.19339e-06
-2.17893e-05
7.16125e-06
-7.19237e-06
-7.18482e-05
4.04171e-05
-3.19962e-05
-9.37937e-06
-9.38195e-06
4.04042e-05
4.81887e-05
-4.56936e-05
5.69589e-06
5.71325e-06
1.25256e-06
1.26154e-06
4.81809e-05
-4.5691e-05
4.52756e-06
-4.55056e-06
1.28564e-06
-1.30703e-06
-4.54881e-06
1.28306e-06
-1.30376e-06
-4.82283e-05
4.57237e-05
-5.68304e-06
-1.23434e-06
-1.23214e-06
4.57105e-05
4.42203e-05
-4.60145e-05
8.48414e-07
8.59319e-07
5.26363e-07
5.29756e-07
4.4215e-05
-4.60146e-05
1.00072e-06
-1.02026e-06
7.63263e-07
-7.79587e-07
-1.01626e-06
7.59241e-07
-7.76539e-07
-4.4257e-05
4.60494e-05
-8.26147e-07
-5.02467e-07
-4.99839e-07
4.60359e-05
4.40126e-05
-4.60073e-05
5.14936e-07
5.22881e-07
5.1844e-07
5.1084e-07
4.40042e-05
-4.6021e-05
7.52876e-07
-7.66179e-07
7.50621e-07
-7.56919e-07
-7.63198e-07
7.39622e-07
-7.55136e-07
-4.40437e-05
4.60589e-05
-4.85814e-07
-4.80609e-07
-4.79382e-07
4.6044e-05
4.40221e-05
-4.60238e-05
5.16292e-07
5.17585e-07
5.04634e-07
5.08646e-07
4.40007e-05
-4.60222e-05
7.50188e-07
-7.57688e-07
7.40152e-07
-7.59367e-07
-7.55182e-07
7.38664e-07
-7.55837e-07
-4.40378e-05
4.60559e-05
-4.79466e-07
-4.82782e-07
-4.807e-07
4.60428e-05
4.40037e-05
-4.60239e-05
5.06699e-07
5.1544e-07
5.01761e-07
5.1689e-07
4.39991e-05
-4.60239e-05
7.42223e-07
-7.60225e-07
7.39592e-07
-7.60212e-07
-7.55987e-07
7.36535e-07
-7.55902e-07
-4.40402e-05
4.60554e-05
-4.81037e-07
-4.82611e-07
-4.83214e-07
4.60424e-05
4.40045e-05
-4.60243e-05
5.04321e-07
5.21259e-07
5.001e-07
5.1963e-07
4.39971e-05
-4.60255e-05
7.42203e-07
-7.60687e-07
7.39788e-07
-7.60743e-07
-7.55557e-07
7.35252e-07
-7.54468e-07
-4.40406e-05
4.60549e-05
-4.83768e-07
-4.81961e-07
-4.84126e-07
4.60434e-05
4.40075e-05
-4.60225e-05
5.0531e-07
5.18732e-07
5.03219e-07
5.13449e-07
4.39966e-05
-4.60219e-05
7.44862e-07
-7.61123e-07
7.42731e-07
-7.60223e-07
-7.54323e-07
7.39097e-07
-7.53682e-07
-4.4041e-05
4.60556e-05
-4.83718e-07
-4.8195e-07
-4.81315e-07
4.60445e-05
4.40112e-05
-4.60228e-05
5.07827e-07
5.14447e-07
5.05185e-07
5.23997e-07
4.40031e-05
-4.6005e-05
7.43133e-07
-7.60545e-07
7.42086e-07
-7.59314e-07
-7.53376e-07
7.48491e-07
-7.52707e-07
-4.40404e-05
4.60564e-05
-4.80425e-07
-4.81516e-07
-4.79268e-07
4.60453e-05
4.40103e-05
-4.60237e-05
5.08839e-07
5.17304e-07
5.01769e-07
5.09691e-07
4.40155e-05
-4.60262e-05
7.42778e-07
-7.59644e-07
7.40567e-07
-7.59018e-07
-7.52786e-07
7.39266e-07
-7.53754e-07
-4.40397e-05
4.60568e-05
-4.79085e-07
-4.81347e-07
-4.79166e-07
4.60446e-05
4.40083e-05
-4.60219e-05
5.07792e-07
5.09755e-07
5.02789e-07
5.08185e-07
4.39976e-05
-4.60255e-05
7.415e-07
-7.59317e-07
7.41836e-07
-7.5811e-07
-7.5375e-07
7.40486e-07
-7.53316e-07
-4.40393e-05
4.60578e-05
-4.78912e-07
-4.80926e-07
-4.78613e-07
4.60454e-05
4.40091e-05
-4.60091e-05
5.0881e-07
5.10812e-07
5.13713e-07
5.21132e-07
4.40002e-05
-4.60075e-05
7.4386e-07
-7.58309e-07
7.49726e-07
-7.56491e-07
-7.53159e-07
7.51151e-07
-7.52096e-07
-4.40387e-05
4.60588e-05
-4.78815e-07
-4.80374e-07
-4.78908e-07
4.60458e-05
4.40262e-05
-4.60099e-05
5.23777e-07
5.25877e-07
5.09677e-07
5.15824e-07
4.40194e-05
-4.60197e-05
7.53709e-07
-7.56434e-07
7.49349e-07
-7.56267e-07
-7.51572e-07
7.40153e-07
-7.52145e-07
-4.40381e-05
4.60586e-05
-4.79928e-07
-4.79168e-07
-4.86349e-07
4.60459e-05
4.40175e-05
-4.60136e-05
5.08645e-07
5.06229e-07
5.19611e-07
5.18346e-07
4.39915e-05
-4.60215e-05
7.46551e-07
-7.57508e-07
7.40663e-07
-7.58994e-07
-7.53161e-07
7.41413e-07
-7.55628e-07
-4.40382e-05
4.6056e-05
-4.87673e-07
-4.81945e-07
-4.83138e-07
4.60428e-05
4.40117e-05
-4.60155e-05
5.17654e-07
5.11027e-07
5.0613e-07
5.1082e-07
4.40002e-05
-4.60235e-05
7.41935e-07
-7.59457e-07
7.40701e-07
-7.5959e-07
-7.55359e-07
7.37273e-07
-7.55026e-07
-4.404e-05
4.60558e-05
-4.82143e-07
-4.82394e-07
-4.82294e-07
4.60431e-05
4.40057e-05
-4.60179e-05
5.03257e-07
5.11279e-07
5.06221e-07
5.1024e-07
4.40002e-05
-4.60238e-05
7.40117e-07
-7.60502e-07
7.3869e-07
-7.59914e-07
-7.55413e-07
7.36941e-07
-7.55836e-07
-4.40402e-05
4.60554e-05
-4.81727e-07
-4.82896e-07
-4.81363e-07
4.60426e-05
4.40045e-05
-4.60189e-05
5.02263e-07
5.10103e-07
5.05104e-07
5.11324e-07
4.39988e-05
-4.60232e-05
7.38777e-07
-7.60168e-07
7.37201e-07
-7.59286e-07
-7.55631e-07
7.36699e-07
-7.55344e-07
-4.40402e-05
4.6056e-05
-4.80517e-07
-4.82385e-07
-4.7942e-07
4.60433e-05
4.40037e-05
-4.60192e-05
5.02824e-07
5.10148e-07
5.04948e-07
5.1095e-07
4.39994e-05
-4.6023e-05
7.38016e-07
-7.59627e-07
7.36339e-07
-7.59305e-07
-7.55199e-07
7.36502e-07
-7.5531e-07
-4.40396e-05
4.60561e-05
-4.80364e-07
-4.82427e-07
-4.81333e-07
4.60433e-05
4.40033e-05
-4.60201e-05
5.0223e-07
5.10032e-07
5.04286e-07
5.10871e-07
4.39995e-05
-4.60233e-05
7.36929e-07
-7.59789e-07
7.35419e-07
-7.59303e-07
-7.55325e-07
7.35955e-07
-7.55061e-07
-4.40396e-05
4.60562e-05
-4.81396e-07
-4.82363e-07
-4.81739e-07
4.60432e-05
4.40027e-05
-4.6019e-05
5.02117e-07
5.1036e-07
5.05203e-07
5.11551e-07
4.39994e-05
-4.60225e-05
7.36371e-07
-7.59992e-07
7.35956e-07
-7.59812e-07
-7.55234e-07
7.36498e-07
-7.55694e-07
-4.40396e-05
4.60555e-05
-4.81983e-07
-4.83169e-07
-4.82887e-07
4.60425e-05
4.40037e-05
-4.60178e-05
5.02606e-07
5.109e-07
5.061e-07
5.12081e-07
4.40002e-05
-4.60219e-05
7.36773e-07
-7.60289e-07
7.36646e-07
-7.59689e-07
-7.55648e-07
7.37142e-07
-7.55692e-07
-4.40402e-05
4.60555e-05
-4.82793e-07
-4.83124e-07
-4.83108e-07
4.60424e-05
4.40053e-05
-4.60165e-05
5.0424e-07
5.11693e-07
5.07444e-07
5.13042e-07
4.40008e-05
-4.60213e-05
7.37807e-07
-7.6021e-07
7.37522e-07
-7.60063e-07
-7.55957e-07
7.37451e-07
-7.56361e-07
-4.40403e-05
4.60549e-05
-4.83403e-07
-4.84069e-07
-4.84259e-07
4.60415e-05
4.40062e-05
-4.60168e-05
5.04999e-07
5.12293e-07
5.07062e-07
5.12529e-07
4.40013e-05
-4.60218e-05
7.38343e-07
-7.60285e-07
7.37219e-07
-7.59558e-07
-7.56232e-07
7.3711e-07
-7.5609e-07
-4.40407e-05
4.60556e-05
-4.84035e-07
-4.83636e-07
-4.8389e-07
4.6042e-05
4.40056e-05
-4.60175e-05
5.04308e-07
5.11978e-07
5.0651e-07
5.11963e-07
4.40007e-05
-4.60215e-05
7.3784e-07
-7.60326e-07
7.36643e-07
-7.59588e-07
-7.55961e-07
7.36064e-07
-7.55395e-07
-4.40402e-05
4.60554e-05
-4.83572e-07
-4.83256e-07
-4.83153e-07
4.60427e-05
4.40052e-05
-4.60171e-05
5.04131e-07
5.1168e-07
5.06445e-07
5.11989e-07
4.4e-05
-4.60225e-05
7.37586e-07
-7.59862e-07
7.36862e-07
-7.59168e-07
-7.55501e-07
7.3608e-07
-7.55579e-07
-4.404e-05
4.6056e-05
-4.82973e-07
-4.82852e-07
-4.83241e-07
4.60424e-05
4.40051e-05
-4.60184e-05
5.03263e-07
5.11103e-07
5.05268e-07
5.11485e-07
4.39982e-05
-4.60223e-05
7.37162e-07
-7.5941e-07
7.35963e-07
-7.58704e-07
-7.552e-07
7.36083e-07
-7.55061e-07
-4.40395e-05
4.60566e-05
-4.82443e-07
-4.82374e-07
-4.82685e-07
4.60431e-05
4.40045e-05
-4.60172e-05
5.03214e-07
5.11029e-07
5.06221e-07
5.12438e-07
4.39973e-05
-4.60221e-05
7.37161e-07
-7.59323e-07
7.36894e-07
-7.58956e-07
-7.55033e-07
7.36355e-07
-7.54886e-07
-4.4039e-05
4.60562e-05
-4.82139e-07
-4.8258e-07
-4.82688e-07
4.60432e-05
4.40052e-05
-4.60176e-05
5.03692e-07
5.11584e-07
5.06097e-07
5.1259e-07
4.39973e-05
-4.60222e-05
7.37538e-07
-7.5924e-07
7.36575e-07
-7.59128e-07
-7.54871e-07
7.3624e-07
-7.55538e-07
-4.40394e-05
4.6056e-05
-4.81875e-07
-4.82989e-07
-4.83308e-07
4.60424e-05
4.40051e-05
-4.6017e-05
5.03889e-07
5.12301e-07
5.0669e-07
5.13341e-07
4.39972e-05
-4.60216e-05
7.3759e-07
-7.59951e-07
7.37079e-07
-7.59742e-07
-7.55743e-07
7.36656e-07
-7.56071e-07
-4.40398e-05
4.60552e-05
-4.82847e-07
-4.83859e-07
-4.84155e-07
4.60419e-05
4.40059e-05
-4.60172e-05
5.04207e-07
5.12619e-07
5.07002e-07
5.13792e-07
4.39978e-05
-4.60214e-05
7.37738e-07
-7.60094e-07
7.37299e-07
-7.5984e-07
-7.56055e-07
7.36835e-07
-7.56035e-07
-4.40403e-05
4.60551e-05
-4.83324e-07
-4.83982e-07
-4.84281e-07
4.60418e-05
4.40066e-05
-4.60175e-05
5.04707e-07
5.13066e-07
5.07062e-07
5.13828e-07
4.39979e-05
-4.60212e-05
7.38003e-07
-7.60307e-07
7.37452e-07
-7.60059e-07
-7.56073e-07
7.36891e-07
-7.56322e-07
-4.40405e-05
4.6055e-05
-4.83497e-07
-4.84322e-07
-4.84601e-07
4.60416e-05
4.40071e-05
-4.60189e-05
5.04906e-07
5.13218e-07
5.0595e-07
5.12939e-07
4.39977e-05
-4.60219e-05
7.38001e-07
-7.60377e-07
7.36793e-07
-7.59293e-07
-7.5629e-07
7.36371e-07
-7.5538e-07
-4.40405e-05
4.60558e-05
-4.83697e-07
-4.83282e-07
-4.83511e-07
4.60425e-05
4.40066e-05
-4.60208e-05
5.04368e-07
5.12257e-07
5.04563e-07
5.13995e-07
4.39969e-05
-4.60213e-05
7.37269e-07
-7.59606e-07
7.35898e-07
-7.59612e-07
-7.55487e-07
7.36797e-07
-7.5644e-07
-4.40395e-05
4.60553e-05
-4.82883e-07
-4.83469e-07
-4.86767e-07
4.60406e-05
4.40044e-05
-4.6027e-05
5.04392e-07
5.14947e-07
5.05062e-07
5.16948e-07
4.39987e-05
-4.60183e-05
7.36096e-07
-7.604e-07
7.37604e-07
-7.59e-07
-7.57031e-07
7.3289e-07
-7.55919e-07
-4.40404e-05
4.60561e-05
-4.88201e-07
-4.82922e-07
-4.87582e-07
4.6042e-05
4.40064e-05
-4.60261e-05
5.13213e-07
5.10866e-07
4.9958e-07
5.23218e-07
4.39975e-05
-4.60121e-05
7.39411e-07
-7.58648e-07
7.35174e-07
-7.57882e-07
-7.546e-07
7.44056e-07
-7.53011e-07
-4.40393e-05
4.60575e-05
-4.83247e-07
-4.81335e-07
-4.81577e-07
4.60452e-05
4.40088e-05
-4.60198e-05
5.07539e-07
5.25254e-07
5.03146e-07
5.11576e-07
4.40118e-05
-4.60227e-05
7.38412e-07
-7.58792e-07
7.39475e-07
-7.59318e-07
-7.53007e-07
7.38302e-07
-7.54221e-07
-4.40385e-05
4.60562e-05
-4.8095e-07
-4.8254e-07
-4.83101e-07
4.60435e-05
4.40122e-05
-4.60195e-05
5.07837e-07
5.11781e-07
5.02444e-07
5.11389e-07
4.3996e-05
-4.60235e-05
7.39798e-07
-7.59827e-07
7.39302e-07
-7.59707e-07
-7.54564e-07
7.38727e-07
-7.5534e-07
-4.40396e-05
4.60559e-05
-4.81909e-07
-4.82674e-07
-4.83675e-07
4.60428e-05
4.40127e-05
-4.60185e-05
5.08073e-07
5.10878e-07
5.0369e-07
5.11351e-07
4.39959e-05
-4.60233e-05
7.40534e-07
-7.60445e-07
7.40373e-07
-7.60406e-07
-7.55568e-07
7.38777e-07
-7.5599e-07
-4.40398e-05
4.60551e-05
-4.82554e-07
-4.83814e-07
-4.84758e-07
4.6042e-05
4.40134e-05
-4.60198e-05
5.08321e-07
5.11669e-07
5.02361e-07
5.10309e-07
4.39962e-05
-4.60241e-05
7.4111e-07
-7.60842e-07
7.39643e-07
-7.59988e-07
-7.55901e-07
7.38491e-07
-7.55784e-07
-4.40405e-05
4.60556e-05
-4.82704e-07
-4.833e-07
-4.84524e-07
4.60423e-05
4.4012e-05
-4.60216e-05
5.07336e-07
5.10286e-07
5.01146e-07
5.09976e-07
4.39953e-05
-4.60241e-05
7.40468e-07
-7.60485e-07
7.38965e-07
-7.59947e-07
-7.55831e-07
7.38388e-07
-7.5601e-07
-4.404e-05
4.60557e-05
-4.82276e-07
-4.83315e-07
-4.84845e-07
4.6042e-05
4.40101e-05
-4.60225e-05
5.05971e-07
5.09816e-07
5.00084e-07
5.08844e-07
4.39952e-05
-4.60253e-05
7.3972e-07
-7.60277e-07
7.38524e-07
-7.59308e-07
-7.55818e-07
7.37635e-07
-7.54952e-07
-4.40398e-05
4.60564e-05
-4.82246e-07
-4.82215e-07
-4.83345e-07
4.60432e-05
4.40093e-05
-4.60229e-05
5.05155e-07
5.08795e-07
4.99851e-07
5.08653e-07
4.3994e-05
-4.60252e-05
7.39347e-07
-7.59829e-07
7.38264e-07
-7.59581e-07
-7.5482e-07
7.3764e-07
-7.54871e-07
-4.40391e-05
4.60562e-05
-4.80919e-07
-4.8208e-07
-4.83131e-07
4.60433e-05
4.4009e-05
-4.60228e-05
5.05101e-07
5.08826e-07
4.99856e-07
5.08563e-07
4.39943e-05
-4.60252e-05
7.39191e-07
-7.60205e-07
7.38173e-07
-7.59558e-07
-7.54866e-07
7.37647e-07
-7.54922e-07
-4.40395e-05
4.60562e-05
-4.81077e-07
-4.82167e-07
-4.83193e-07
4.60433e-05
4.40091e-05
-4.60222e-05
5.05118e-07
5.08775e-07
5.00413e-07
5.09175e-07
4.39941e-05
-4.60246e-05
7.39126e-07
-7.60093e-07
7.38754e-07
-7.59746e-07
-7.54885e-07
7.38042e-07
-7.55133e-07
-4.40394e-05
4.60559e-05
-4.81465e-07
-4.82367e-07
-4.83066e-07
4.6043e-05
4.40098e-05
-4.60214e-05
5.06025e-07
5.09521e-07
5.01576e-07
5.10103e-07
4.39949e-05
-4.60239e-05
7.39947e-07
-7.60411e-07
7.39391e-07
-7.60275e-07
-7.55346e-07
7.38707e-07
-7.55582e-07
-4.40398e-05
4.60553e-05
-4.82317e-07
-4.83371e-07
-4.83912e-07
4.60425e-05
4.40104e-05
-4.6022e-05
5.06733e-07
5.10249e-07
5.0093e-07
5.09538e-07
4.39954e-05
-4.60244e-05
7.40277e-07
-7.60744e-07
7.3893e-07
-7.60062e-07
-7.55512e-07
7.38243e-07
-7.55449e-07
-4.40403e-05
4.60555e-05
-4.82679e-07
-4.82758e-07
-4.83608e-07
4.60426e-05
4.40097e-05
-4.6022e-05
5.06141e-07
5.09656e-07
5.00384e-07
5.08425e-07
4.39948e-05
-4.60258e-05
7.3992e-07
-7.6068e-07
7.38581e-07
-7.60916e-07
-7.55744e-07
7.36654e-07
-7.57308e-07
-4.40399e-05
4.60546e-05
-4.8333e-07
-4.83811e-07
-4.85736e-07
4.60404e-05
4.40091e-05
-4.6024e-05
5.05107e-07
5.06936e-07
4.97905e-07
4.95015e-07
4.39917e-05
-4.60428e-05
7.39021e-07
-7.61566e-07
7.36773e-07
-7.60763e-07
-7.57647e-07
7.2693e-07
-7.57957e-07
-4.40407e-05
4.6055e-05
-4.85354e-07
-4.83108e-07
-4.85409e-07
4.60404e-05
4.40074e-05
-4.60231e-05
5.03048e-07
4.97408e-07
4.99044e-07
5.08379e-07
4.39741e-05
-4.60267e-05
7.37683e-07
-7.61199e-07
7.37617e-07
-7.60431e-07
-7.57752e-07
7.36717e-07
-7.56007e-07
-4.40401e-05
4.60556e-05
-4.84789e-07
-4.81876e-07
-4.8496e-07
4.60423e-05
4.4009e-05
-4.60228e-05
5.04346e-07
5.07808e-07
4.98313e-07
5.11131e-07
4.39925e-05
-4.60261e-05
7.38842e-07
-7.60836e-07
7.38238e-07
-7.60252e-07
-7.55437e-07
7.3599e-07
-7.53561e-07
-4.40399e-05
4.60557e-05
-4.8632e-07
-4.7991e-07
-4.92885e-07
4.60444e-05
4.40092e-05
-4.60222e-05
5.03486e-07
5.11231e-07
4.98212e-07
5.11676e-07
4.3993e-05
-4.60267e-05
7.39299e-07
-7.60898e-07
7.38936e-07
-7.60699e-07
-7.52962e-07
7.35195e-07
-7.51973e-07
-4.40399e-05
4.60554e-05
-4.94168e-07
-4.79006e-07
-4.93729e-07
4.60455e-05
4.401e-05
-4.60213e-05
5.03537e-07
5.1231e-07
4.98889e-07
5.13145e-07
4.39927e-05
-4.60262e-05
7.40092e-07
-7.61433e-07
7.39781e-07
-7.61456e-07
-7.51969e-07
7.35629e-07
-7.51932e-07
-4.40404e-05
4.60545e-05
-4.94704e-07
-4.79586e-07
-4.94797e-07
4.60452e-05
4.40107e-05
-4.60211e-05
5.0405e-07
5.13312e-07
4.98921e-07
5.13287e-07
4.39932e-05
-4.60264e-05
7.40749e-07
-7.62013e-07
7.39997e-07
-7.61491e-07
-7.51895e-07
7.35403e-07
-7.51888e-07
-4.40411e-05
4.60545e-05
-4.955e-07
-4.79565e-07
-4.95187e-07
4.60451e-05
4.4011e-05
-4.60207e-05
5.04247e-07
5.13684e-07
4.99407e-07
5.14474e-07
4.39931e-05
-4.60252e-05
7.40996e-07
-7.62094e-07
7.40448e-07
-7.61944e-07
-7.51972e-07
7.36355e-07
-7.51975e-07
-4.40412e-05
4.60539e-05
-4.96011e-07
-4.80068e-07
-4.95797e-07
4.60448e-05
4.40113e-05
-4.60212e-05
5.04527e-07
5.14727e-07
4.98767e-07
5.14085e-07
4.39942e-05
-4.6026e-05
7.41319e-07
-7.62666e-07
7.40025e-07
-7.61912e-07
-7.52026e-07
7.35596e-07
-7.51539e-07
-4.40417e-05
4.60541e-05
-4.9649e-07
-4.79451e-07
-4.95248e-07
4.60452e-05
4.40108e-05
-4.60208e-05
5.04024e-07
5.14045e-07
4.98701e-07
5.13808e-07
4.39932e-05
-4.60263e-05
7.41115e-07
-7.62187e-07
7.40369e-07
-7.61283e-07
-7.51365e-07
7.35263e-07
-7.51161e-07
-4.40414e-05
4.60548e-05
-4.9565e-07
-4.78721e-07
-4.94809e-07
4.60457e-05
4.4011e-05
-4.6022e-05
5.039e-07
5.13995e-07
4.97737e-07
5.12976e-07
4.3993e-05
-4.60269e-05
7.41259e-07
-7.61815e-07
7.3949e-07
-7.60771e-07
-7.51235e-07
7.34758e-07
-7.50635e-07
-4.40408e-05
4.60554e-05
-4.95469e-07
-4.77894e-07
-4.93854e-07
4.60463e-05
4.40098e-05
-4.60222e-05
5.0263e-07
5.12738e-07
4.97463e-07
5.12753e-07
4.39922e-05
-4.60269e-05
7.40318e-07
-7.61123e-07
7.39205e-07
-7.60781e-07
-7.50365e-07
7.34707e-07
-7.50254e-07
-4.404e-05
4.60554e-05
-4.94066e-07
-4.77866e-07
-4.9374e-07
4.60467e-05
4.40099e-05
-4.60214e-05
5.031e-07
5.13244e-07
4.98258e-07
5.1347e-07
4.39924e-05
-4.60264e-05
7.40752e-07
-7.61438e-07
7.39787e-07
-7.61157e-07
-7.50398e-07
7.35041e-07
-7.50896e-07
-4.40403e-05
4.60549e-05
-4.9449e-07
-4.78485e-07
-4.94586e-07
4.60459e-05
4.40105e-05
-4.60213e-05
5.03457e-07
5.1348e-07
4.98244e-07
5.13466e-07
4.39927e-05
-4.60265e-05
7.40997e-07
-7.61618e-07
7.39654e-07
-7.61124e-07
-7.50858e-07
7.35006e-07
-7.50809e-07
-4.40406e-05
4.6055e-05
-4.94992e-07
-4.78443e-07
-4.9467e-07
4.60459e-05
4.40106e-05
-4.60202e-05
5.03878e-07
5.1394e-07
4.99223e-07
5.1456e-07
4.39928e-05
-4.60252e-05
7.41145e-07
-7.61988e-07
7.4038e-07
-7.6181e-07
-7.5101e-07
7.35887e-07
-7.51123e-07
-4.40407e-05
4.60538e-05
-4.95541e-07
-4.79759e-07
-4.95851e-07
4.60453e-05
4.40115e-05
-4.60192e-05
5.0462e-07
5.14836e-07
4.9996e-07
5.15266e-07
4.39938e-05
-4.60245e-05
7.41773e-07
-7.62034e-07
7.41353e-07
-7.59672e-07
-7.51016e-07
7.36833e-07
-7.49558e-07
-4.40414e-05
4.60562e-05
-4.95806e-07
-4.77351e-07
-4.93991e-07
4.60468e-05
4.40121e-05
-4.60185e-05
5.05421e-07
5.15556e-07
5.00392e-07
5.15913e-07
4.3994e-05
-4.60237e-05
7.42942e-07
-7.5892e-07
7.42465e-07
-7.54337e-07
-7.48536e-07
7.38038e-07
-7.4481e-07
-4.40375e-05
4.60634e-05
-4.92277e-07
-4.65678e-07
-4.85291e-07
4.6053e-05
4.40125e-05
-4.60194e-05
5.05894e-07
5.16133e-07
4.9948e-07
5.15076e-07
4.39945e-05
-4.60249e-05
7.44055e-07
-7.54507e-07
7.41727e-07
-7.56682e-07
-7.43935e-07
7.37333e-07
-7.45286e-07
-4.40304e-05
4.60592e-05
-4.82197e-07
-4.7374e-07
-4.89226e-07
4.60518e-05
4.40117e-05
-4.60211e-05
5.0419e-07
5.14716e-07
4.98158e-07
5.13698e-07
4.39935e-05
-4.60259e-05
7.4228e-07
-7.5818e-07
7.39791e-07
-7.59765e-07
-7.46733e-07
7.35718e-07
-7.49227e-07
-4.40367e-05
4.60559e-05
-4.90437e-07
-4.77671e-07
-4.95039e-07
4.60474e-05
4.40105e-05
-4.60216e-05
5.03446e-07
5.13859e-07
4.97792e-07
5.13169e-07
4.3993e-05
-4.60267e-05
7.40938e-07
-7.60824e-07
7.39238e-07
-7.60721e-07
-7.49693e-07
7.34951e-07
-7.50219e-07
-4.40397e-05
4.60552e-05
-4.92569e-07
-4.77594e-07
-4.94623e-07
4.60463e-05
4.40101e-05
-4.60216e-05
5.02979e-07
5.13074e-07
4.97694e-07
5.12995e-07
4.39922e-05
-4.60268e-05
7.40427e-07
-7.60943e-07
7.39282e-07
-7.60988e-07
-7.49945e-07
7.34681e-07
-7.50395e-07
-4.404e-05
4.6055e-05
-4.93884e-07
-4.78128e-07
-4.94376e-07
4.60462e-05
4.40103e-05
-4.60208e-05
5.03204e-07
5.134e-07
4.98725e-07
5.13833e-07
4.39925e-05
-4.60262e-05
7.40685e-07
-7.61754e-07
7.39844e-07
-7.61586e-07
-7.5075e-07
7.35166e-07
-7.50959e-07
-4.40406e-05
4.60543e-05
-4.95342e-07
-4.78942e-07
-4.95425e-07
4.60454e-05
4.4011e-05
-4.60209e-05
5.04064e-07
5.14012e-07
4.98695e-07
5.14021e-07
4.39929e-05
-4.60259e-05
7.41117e-07
-7.61988e-07
7.39727e-07
-7.61494e-07
-7.51015e-07
7.35238e-07
-7.51399e-07
-4.40411e-05
4.60544e-05
-4.96105e-07
-4.79008e-07
-4.96094e-07
4.60449e-05
4.40109e-05
-4.60203e-05
5.04115e-07
5.1429e-07
4.9929e-07
5.14616e-07
4.39931e-05
-4.60255e-05
7.41147e-07
-7.62366e-07
7.40132e-07
-7.62393e-07
-7.51504e-07
7.35823e-07
-7.51355e-07
-4.40411e-05
4.60533e-05
-4.9686e-07
-4.79828e-07
-4.96216e-07
4.60449e-05
4.40114e-05
-4.60206e-05
5.04637e-07
5.14965e-07
4.99039e-07
5.14507e-07
4.39936e-05
-4.60253e-05
7.41424e-07
-7.6282e-07
7.40018e-07
-7.61454e-07
-7.51329e-07
7.35951e-07
-7.51176e-07
-4.4042e-05
4.60544e-05
-4.9684e-07
-4.79069e-07
-4.9605e-07
4.60451e-05
4.40109e-05
-4.60212e-05
5.04037e-07
5.14214e-07
4.98195e-07
5.13326e-07
4.39934e-05
-4.60266e-05
7.41144e-07
-7.61687e-07
7.39573e-07
-7.60786e-07
-7.51067e-07
7.3496e-07
-7.50507e-07
-4.40407e-05
4.60552e-05
-4.96358e-07
-4.77908e-07
-4.94806e-07
4.60459e-05
4.40104e-05
-4.60215e-05
5.0355e-07
5.13436e-07
4.97986e-07
5.13263e-07
4.39924e-05
-4.60266e-05
7.40896e-07
-7.61369e-07
7.39309e-07
-7.60949e-07
-7.50442e-07
7.34908e-07
-7.50431e-07
-4.40401e-05
4.60549e-05
-4.95474e-07
-4.78093e-07
-4.9484e-07
4.60459e-05
4.40101e-05
-4.60216e-05
5.03193e-07
5.1349e-07
4.97712e-07
5.13073e-07
4.39924e-05
-4.60265e-05
7.40561e-07
-7.61444e-07
7.39179e-07
-7.6065e-07
-7.502e-07
7.34852e-07
-7.50097e-07
-4.40403e-05
4.60553e-05
-4.9515e-07
-4.77761e-07
-4.94422e-07
4.60463e-05
4.401e-05
-4.60215e-05
5.02993e-07
5.13136e-07
4.98072e-07
5.13217e-07
4.39924e-05
-4.60266e-05
7.4036e-07
-7.61297e-07
7.39326e-07
-7.60982e-07
-7.50165e-07
7.34752e-07
-7.50528e-07
-4.404e-05
4.60549e-05
-4.95232e-07
-4.78271e-07
-4.95028e-07
4.60458e-05
4.40103e-05
-4.60208e-05
5.0355e-07
5.13551e-07
4.98445e-07
5.13806e-07
4.39924e-05
-4.60258e-05
7.40832e-07
-7.61665e-07
7.39783e-07
-7.6111e-07
-7.50616e-07
7.35304e-07
-7.50993e-07
-4.40404e-05
4.60545e-05
-4.95626e-07
-4.78651e-07
-4.95611e-07
4.60453e-05
4.40108e-05
-4.60205e-05
5.04024e-07
5.14147e-07
4.99167e-07
5.14396e-07
4.39932e-05
-4.60256e-05
7.41199e-07
-7.62208e-07
7.40089e-07
-7.61492e-07
-7.51134e-07
7.35696e-07
-7.51412e-07
-4.40408e-05
4.60539e-05
-4.96446e-07
-4.79509e-07
-4.96455e-07
4.60448e-05
4.4011e-05
-4.60209e-05
5.04434e-07
5.14472e-07
4.98996e-07
5.14326e-07
4.39934e-05
-4.60256e-05
7.41204e-07
-7.62772e-07
7.39727e-07
-7.61124e-07
-7.51406e-07
7.35464e-07
-7.51431e-07
-4.40414e-05
4.60537e-05
-4.97041e-07
-4.79607e-07
-4.96489e-07
4.60448e-05
4.40107e-05
-4.6021e-05
5.04258e-07
5.14539e-07
4.99043e-07
5.14298e-07
4.39934e-05
-4.60259e-05
7.40922e-07
-7.63433e-07
7.39893e-07
-7.60231e-07
-7.51475e-07
7.35581e-07
-7.51592e-07
-4.40413e-05
4.60536e-05
-4.9708e-07
-4.79607e-07
-4.9655e-07
4.60448e-05
4.40105e-05
-4.6021e-05
5.03756e-07
5.13744e-07
5.00051e-07
5.15237e-07
4.39929e-05
-4.60258e-05
7.40558e-07
-7.63744e-07
7.4087e-07
-7.60626e-07
-7.50968e-07
7.36525e-07
-7.52638e-07
-4.40403e-05
4.60524e-05
-4.96434e-07
-4.80635e-07
-4.97636e-07
4.60449e-05
4.40095e-05
-4.60141e-05
5.00425e-07
5.10335e-07
5.07182e-07
5.22283e-07
4.39921e-05
-4.60189e-05
7.37657e-07
-7.61223e-07
7.47043e-07
-7.66826e-07
-7.47904e-07
7.42764e-07
-7.5845e-07
-4.4039e-05
4.60459e-05
-4.92985e-07
-4.87607e-07
-5.04478e-07
4.60383e-05
4.3998e-05
-4.59727e-05
4.922e-07
5.01689e-07
5.05934e-07
5.21627e-07
4.39803e-05
-4.59776e-05
7.28778e-07
-7.51991e-07
7.49592e-07
-7.69998e-07
-7.38981e-07
7.45264e-07
-7.61376e-07
-4.40271e-05
4.60038e-05
-4.84461e-07
-4.87474e-07
-5.04011e-07
4.59965e-05
4.39133e-05
-4.55661e-05
5.05129e-07
5.13242e-07
4.35981e-07
4.51378e-07
4.38961e-05
-4.557e-05
7.17326e-07
-7.39794e-07
7.16382e-07
-7.37931e-07
-7.27513e-07
7.12025e-07
-7.28675e-07
-4.39429e-05
4.55966e-05
-4.96538e-07
-4.17941e-07
-4.33528e-07
4.55896e-05
4.34985e-05
-4.5614e-05
6.15559e-07
6.23668e-07
5.14082e-08
6.65596e-08
4.34804e-05
-4.56202e-05
8.13786e-07
-8.34484e-07
4.29614e-07
-4.518e-07
-8.23424e-07
4.26031e-07
-4.43272e-07
-4.35268e-05
4.56451e-05
-6.08929e-07
-3.33125e-08
-4.56831e-08
4.56372e-05
4.33578e-05
-4.43968e-05
1.12145e-06
1.12958e-06
-5.02312e-07
-4.94291e-07
4.33405e-05
-4.44007e-05
1.10038e-06
-1.12089e-06
3.77123e-08
-5.91421e-08
-1.10871e-06
3.55964e-08
-5.26111e-08
-4.3385e-05
4.44317e-05
-1.10927e-06
5.27224e-07
5.23568e-07
4.44208e-05
4.22771e-05
-4.21185e-05
1.81073e-06
1.81868e-06
-1.90491e-06
-1.89679e-06
4.22569e-05
-4.21196e-05
1.60808e-06
-1.62413e-06
-1.18292e-06
1.17166e-06
-1.61363e-06
-1.17942e-06
1.16783e-06
-4.23005e-05
4.21514e-05
-1.7948e-06
1.93561e-06
1.92975e-06
4.21452e-05
3.92489e-05
-3.54128e-05
3.49201e-06
3.5117e-06
-6.69841e-06
-6.69017e-06
3.92377e-05
-3.54245e-05
2.91649e-06
-2.92779e-06
-5.07212e-06
5.07802e-06
-2.918e-06
-5.05595e-06
5.07957e-06
-3.92673e-05
3.54429e-05
-3.47736e-06
6.71539e-06