/*--------------------------------*- C++ -*----------------------------------*\
| =========                 |                                                 |
| \\      /  F ield         | OpenFOAM: The Open Source CFD Toolbox           |
|  \\    /   O peration     | Version:  2206                                  |
|   \\  /    A nd           | Website:  www.openfoam.com                      |
|    \\/     M anipulation  |                                                 |
\*---------------------------------------------------------------------------*/
FoamFile
{
    version     2.0;
    format      ascii;
    arch        "LSB;label=32;scalar=64";
    class       volScalarField;
    location    "21.5";
    object      epsilon;
}
// * * * * * * * * * * * * * * * * * * * * * * * * * * * * * * * * * * * * * //

dimensions      [0 2 -3 0 0 0 0];

internalField   nonuniform List<scalar> 
171728
(
4.9561e-07
4.9734e-07
4.9734e-07
4.99575e-07
4.45718e-07
4.53812e-07
4.53814e-07
4.63698e-07
4.0346e-07
4.18355e-07
4.18359e-07
4.39349e-07
3.68446e-07
3.88772e-07
3.88778e-07
4.17712e-07
3.36763e-07
3.59776e-07
3.59784e-07
3.93486e-07
3.25484e-07
3.4739e-07
3.47398e-07
3.76947e-07
3.24124e-07
3.45955e-07
3.45962e-07
3.75531e-07
3.24063e-07
3.45883e-07
3.4589e-07
3.75443e-07
3.24063e-07
3.45883e-07
3.4589e-07
3.75469e-07
3.24063e-07
3.45883e-07
3.45891e-07
3.75465e-07
3.24063e-07
3.45883e-07
3.4589e-07
3.75463e-07
3.24063e-07
3.45883e-07
3.4589e-07
3.75464e-07
3.24229e-07
3.46024e-07
3.46032e-07
3.75562e-07
3.24227e-07
3.46026e-07
3.46031e-07
3.7558e-07
3.24229e-07
3.4603e-07
3.46035e-07
3.75587e-07
3.24226e-07
3.46032e-07
3.46036e-07
3.75594e-07
3.2422e-07
3.46027e-07
3.46035e-07
3.75598e-07
3.24121e-07
3.4592e-07
3.45941e-07
3.75534e-07
3.24064e-07
3.45883e-07
3.45891e-07
3.7545e-07
3.24063e-07
3.45883e-07
3.45891e-07
3.75467e-07
3.24063e-07
3.45882e-07
3.4589e-07
3.7546e-07
3.24063e-07
3.45883e-07
3.4589e-07
3.75465e-07
3.24063e-07
3.45883e-07
3.4589e-07
3.75466e-07
3.24063e-07
3.45883e-07
3.4589e-07
3.75465e-07
3.24063e-07
3.45883e-07
3.4589e-07
3.75465e-07
3.24063e-07
3.45883e-07
3.4589e-07
3.75464e-07
3.24063e-07
3.45883e-07
3.4589e-07
3.75464e-07
3.24063e-07
3.45883e-07
3.4589e-07
3.75464e-07
3.24063e-07
3.45883e-07
3.4589e-07
3.75464e-07
3.24063e-07
3.45883e-07
3.4589e-07
3.75464e-07
3.24227e-07
3.46028e-07
3.46031e-07
3.75576e-07
3.24229e-07
3.46031e-07
3.46035e-07
3.75583e-07
3.24228e-07
3.46033e-07
3.46036e-07
3.75593e-07
3.24224e-07
3.46033e-07
3.46035e-07
3.75598e-07
3.24196e-07
3.46019e-07
3.46011e-07
3.75589e-07
3.24075e-07
3.459e-07
3.459e-07
3.7547e-07
3.24063e-07
3.45883e-07
3.45891e-07
3.75462e-07
3.24063e-07
3.45883e-07
3.45891e-07
3.75466e-07
3.24063e-07
3.45883e-07
3.45891e-07
3.75465e-07
3.24063e-07
3.45883e-07
3.45891e-07
3.75463e-07
3.24063e-07
3.45883e-07
3.45891e-07
3.75463e-07
3.24063e-07
3.45882e-07
3.45891e-07
3.75464e-07
3.24063e-07
3.45882e-07
3.45891e-07
3.75464e-07
3.24063e-07
3.45882e-07
3.45891e-07
3.75464e-07
3.24063e-07
3.45882e-07
3.45891e-07
3.75465e-07
3.24063e-07
3.45882e-07
3.45891e-07
3.75464e-07
3.24063e-07
3.45882e-07
3.45891e-07
3.75464e-07
3.24065e-07
3.45885e-07
3.45894e-07
3.75465e-07
3.24226e-07
3.46023e-07
3.46031e-07
3.7558e-07
3.24228e-07
3.46026e-07
3.46035e-07
3.75586e-07
3.24226e-07
3.46028e-07
3.46036e-07
3.75594e-07
3.24221e-07
3.46026e-07
3.46035e-07
3.75597e-07
3.24157e-07
3.45968e-07
3.45976e-07
3.7557e-07
3.24066e-07
3.45884e-07
3.45893e-07
3.75453e-07
3.24063e-07
3.45883e-07
3.45891e-07
3.75466e-07
3.24063e-07
3.45882e-07
3.45891e-07
3.75464e-07
3.24063e-07
3.45882e-07
3.45891e-07
3.75468e-07
3.24063e-07
3.45882e-07
3.45891e-07
3.75465e-07
3.24063e-07
3.45882e-07
3.45891e-07
3.75464e-07
3.24063e-07
3.45882e-07
3.45891e-07
3.75465e-07
3.24063e-07
3.45882e-07
3.45891e-07
3.75465e-07
3.24063e-07
3.45882e-07
3.45891e-07
3.75465e-07
3.24063e-07
3.45882e-07
3.45891e-07
3.75464e-07
3.24063e-07
3.45882e-07
3.45891e-07
3.75464e-07
3.24063e-07
3.45882e-07
3.45891e-07
3.75464e-07
3.24228e-07
3.46025e-07
3.46032e-07
3.75576e-07
3.2423e-07
3.46028e-07
3.46035e-07
3.75584e-07
3.24229e-07
3.4603e-07
3.46038e-07
3.75594e-07
3.24227e-07
3.4603e-07
3.46035e-07
3.75597e-07
3.24215e-07
3.4602e-07
3.46012e-07
3.75589e-07
3.24092e-07
3.45903e-07
3.459e-07
3.75469e-07
3.24063e-07
3.45883e-07
3.45892e-07
3.75462e-07
3.24063e-07
3.45882e-07
3.45891e-07
3.75467e-07
3.24063e-07
3.45882e-07
3.45891e-07
3.75465e-07
3.24063e-07
3.45882e-07
3.45891e-07
3.75463e-07
3.24063e-07
3.45882e-07
3.45891e-07
3.75463e-07
3.24063e-07
3.45882e-07
3.45891e-07
3.75464e-07
3.24063e-07
3.45882e-07
3.45891e-07
3.75464e-07
3.24063e-07
3.45882e-07
3.45891e-07
3.75465e-07
3.24063e-07
3.45882e-07
3.45891e-07
3.75465e-07
3.24063e-07
3.45882e-07
3.45891e-07
3.75464e-07
3.24063e-07
3.45882e-07
3.45891e-07
3.75465e-07
3.2407e-07
3.46023e-07
3.45896e-07
3.75563e-07
3.2423e-07
3.46026e-07
3.46034e-07
3.7558e-07
3.24229e-07
3.4603e-07
3.46037e-07
3.75588e-07
3.24227e-07
3.46031e-07
3.46039e-07
3.75595e-07
3.24224e-07
3.46027e-07
3.46038e-07
3.75599e-07
3.24144e-07
3.4592e-07
3.45966e-07
3.75534e-07
3.24065e-07
3.45883e-07
3.45892e-07
3.75451e-07
3.24063e-07
3.45882e-07
3.45891e-07
3.75468e-07
3.24063e-07
3.45881e-07
3.45889e-07
3.7546e-07
3.24063e-07
3.45878e-07
3.45887e-07
3.75463e-07
3.24063e-07
3.45874e-07
3.45883e-07
3.75456e-07
3.24066e-07
3.45885e-07
3.45894e-07
3.75424e-07
3.23539e-07
3.42305e-07
3.42307e-07
3.70157e-07
5.06423e-07
5.05577e-07
5.05575e-07
5.06422e-07
5.05576e-07
5.05575e-07
5.09634e-07
5.09634e-07
5.09634e-07
5.09634e-07
5.05577e-07
5.05577e-07
5.06423e-07
5.05578e-07
5.05576e-07
5.06423e-07
4.99574e-07
4.67222e-07
4.97341e-07
4.97345e-07
4.63668e-07
4.63676e-07
4.99575e-07
4.67219e-07
4.97344e-07
4.97346e-07
4.63673e-07
4.63679e-07
4.97341e-07
4.63664e-07
4.63669e-07
4.99574e-07
4.67225e-07
4.97344e-07
4.63666e-07
4.63674e-07
4.67225e-07
4.63697e-07
4.41404e-07
4.53817e-07
4.53826e-07
4.2654e-07
4.26548e-07
4.63696e-07
4.41398e-07
4.53822e-07
4.53829e-07
4.26541e-07
4.26553e-07
4.53819e-07
4.26531e-07
4.26542e-07
4.63699e-07
4.41409e-07
4.53822e-07
4.26536e-07
4.26542e-07
4.41407e-07
4.39345e-07
4.19358e-07
4.18365e-07
4.18373e-07
3.9606e-07
3.96066e-07
4.39343e-07
4.19352e-07
4.18365e-07
4.18378e-07
3.96056e-07
3.96073e-07
4.18368e-07
3.96048e-07
3.96063e-07
4.39351e-07
4.19365e-07
4.18366e-07
3.96054e-07
3.96058e-07
4.19362e-07
4.17708e-07
3.95714e-07
3.88787e-07
3.88793e-07
3.66341e-07
3.66346e-07
4.17702e-07
3.95707e-07
3.88781e-07
3.88799e-07
3.66331e-07
3.66353e-07
3.8879e-07
3.66325e-07
3.66344e-07
4.17714e-07
3.9572e-07
3.88783e-07
3.66332e-07
3.66333e-07
3.95718e-07
3.93481e-07
3.77063e-07
3.59794e-07
3.598e-07
3.48739e-07
3.48745e-07
3.93478e-07
3.77055e-07
3.59785e-07
3.59807e-07
3.48729e-07
3.48752e-07
3.59797e-07
3.48723e-07
3.48743e-07
3.93488e-07
3.7707e-07
3.59785e-07
3.48732e-07
3.48729e-07
3.77068e-07
3.76941e-07
3.7532e-07
3.47407e-07
3.47412e-07
3.46073e-07
3.46077e-07
3.76935e-07
3.75312e-07
3.47397e-07
3.4742e-07
3.46062e-07
3.46086e-07
3.47411e-07
3.46058e-07
3.46077e-07
3.76949e-07
3.75327e-07
3.47397e-07
3.46066e-07
3.46062e-07
3.75325e-07
3.75528e-07
3.75202e-07
3.45972e-07
3.45976e-07
3.45898e-07
3.45903e-07
3.75521e-07
3.75194e-07
3.45961e-07
3.45985e-07
3.45887e-07
3.45911e-07
3.45976e-07
3.45883e-07
3.45902e-07
3.75535e-07
3.75209e-07
3.4596e-07
3.4589e-07
3.45887e-07
3.75207e-07
3.7544e-07
3.75233e-07
3.459e-07
3.45904e-07
3.459e-07
3.45904e-07
3.75434e-07
3.75226e-07
3.45889e-07
3.45913e-07
3.45888e-07
3.45912e-07
3.45903e-07
3.45884e-07
3.45903e-07
3.75448e-07
3.75241e-07
3.45888e-07
3.45891e-07
3.45888e-07
3.75238e-07
3.75466e-07
3.75223e-07
3.45902e-07
3.45905e-07
3.45901e-07
3.45903e-07
3.7546e-07
3.75217e-07
3.4589e-07
3.45914e-07
3.45888e-07
3.45911e-07
3.45904e-07
3.45883e-07
3.45902e-07
3.75474e-07
3.75232e-07
3.45889e-07
3.45891e-07
3.45887e-07
3.7523e-07
3.7546e-07
3.75224e-07
3.45904e-07
3.45906e-07
3.45901e-07
3.45903e-07
3.75455e-07
3.75218e-07
3.4589e-07
3.45914e-07
3.45888e-07
3.45911e-07
3.45905e-07
3.45883e-07
3.45902e-07
3.75468e-07
3.75233e-07
3.45889e-07
3.4589e-07
3.45887e-07
3.7523e-07
3.75459e-07
3.75225e-07
3.45903e-07
3.45905e-07
3.459e-07
3.45904e-07
3.75455e-07
3.75219e-07
3.45889e-07
3.45913e-07
3.45888e-07
3.45911e-07
3.45904e-07
3.45883e-07
3.45902e-07
3.75468e-07
3.75234e-07
3.45889e-07
3.4589e-07
3.45887e-07
3.75231e-07
3.7546e-07
3.75225e-07
3.45902e-07
3.45906e-07
3.45903e-07
3.46046e-07
3.75456e-07
3.75326e-07
3.4589e-07
3.45913e-07
3.4589e-07
3.45914e-07
3.45904e-07
3.46024e-07
3.45905e-07
3.75469e-07
3.75234e-07
3.45889e-07
3.45894e-07
3.45889e-07
3.75231e-07
3.75556e-07
3.75339e-07
3.46041e-07
3.46046e-07
3.4604e-07
3.46045e-07
3.75567e-07
3.75338e-07
3.46029e-07
3.46052e-07
3.46028e-07
3.46051e-07
3.46043e-07
3.46026e-07
3.46042e-07
3.75565e-07
3.75348e-07
3.46028e-07
3.46031e-07
3.46027e-07
3.75346e-07
3.75576e-07
3.75347e-07
3.46044e-07
3.46049e-07
3.46044e-07
3.46049e-07
3.75576e-07
3.75346e-07
3.46031e-07
3.46055e-07
3.46031e-07
3.46055e-07
3.46046e-07
3.4603e-07
3.46046e-07
3.75585e-07
3.75356e-07
3.46031e-07
3.46035e-07
3.4603e-07
3.75353e-07
3.75585e-07
3.75355e-07
3.46047e-07
3.46053e-07
3.46048e-07
3.46052e-07
3.75584e-07
3.75352e-07
3.46035e-07
3.46058e-07
3.46035e-07
3.46057e-07
3.46049e-07
3.46032e-07
3.46048e-07
3.75592e-07
3.75363e-07
3.46034e-07
3.46037e-07
3.46033e-07
3.75361e-07
3.75592e-07
3.75358e-07
3.46051e-07
3.46055e-07
3.46049e-07
3.46051e-07
3.75589e-07
3.75354e-07
3.46038e-07
3.4606e-07
3.46034e-07
3.46057e-07
3.46051e-07
3.46031e-07
3.46048e-07
3.75599e-07
3.75367e-07
3.46036e-07
3.46036e-07
3.46033e-07
3.75365e-07
3.75595e-07
3.75314e-07
3.46047e-07
3.46047e-07
3.45988e-07
3.45968e-07
3.7559e-07
3.75277e-07
3.46033e-07
3.46055e-07
3.45975e-07
3.45997e-07
3.46046e-07
3.45952e-07
3.45988e-07
3.75603e-07
3.75322e-07
3.46031e-07
3.45977e-07
3.45972e-07
3.75319e-07
3.75532e-07
3.75211e-07
3.45954e-07
3.45939e-07
3.45905e-07
3.45902e-07
3.75496e-07
3.75206e-07
3.4594e-07
3.45963e-07
3.45891e-07
3.45914e-07
3.45953e-07
3.45883e-07
3.45905e-07
3.7554e-07
3.7522e-07
3.45938e-07
3.45893e-07
3.45889e-07
3.75217e-07
3.75448e-07
3.75228e-07
3.45905e-07
3.45903e-07
3.45904e-07
3.45903e-07
3.75444e-07
3.7522e-07
3.45892e-07
3.45914e-07
3.4589e-07
3.45912e-07
3.45905e-07
3.45883e-07
3.45903e-07
3.75455e-07
3.75236e-07
3.4589e-07
3.45892e-07
3.45888e-07
3.75234e-07
3.75465e-07
3.75224e-07
3.45906e-07
3.45907e-07
3.45902e-07
3.45904e-07
3.75457e-07
3.75213e-07
3.45892e-07
3.45915e-07
3.45888e-07
3.45912e-07
3.45906e-07
3.45882e-07
3.45902e-07
3.75472e-07
3.75231e-07
3.4589e-07
3.45891e-07
3.45887e-07
3.75228e-07
3.75458e-07
3.75228e-07
3.45903e-07
3.45906e-07
3.45901e-07
3.45904e-07
3.75449e-07
3.75218e-07
3.4589e-07
3.45913e-07
3.45888e-07
3.45911e-07
3.45904e-07
3.45883e-07
3.45902e-07
3.75465e-07
3.75235e-07
3.45889e-07
3.45891e-07
3.45887e-07
3.75234e-07
3.75463e-07
3.75226e-07
3.45903e-07
3.45905e-07
3.459e-07
3.45903e-07
3.75453e-07
3.75219e-07
3.4589e-07
3.45913e-07
3.45888e-07
3.45911e-07
3.45904e-07
3.45883e-07
3.45902e-07
3.7547e-07
3.75235e-07
3.45889e-07
3.45891e-07
3.45887e-07
3.75232e-07
3.75463e-07
3.75225e-07
3.45902e-07
3.45905e-07
3.459e-07
3.45903e-07
3.75456e-07
3.75219e-07
3.45889e-07
3.45913e-07
3.45887e-07
3.45911e-07
3.45904e-07
3.45883e-07
3.45902e-07
3.7547e-07
3.75233e-07
3.45889e-07
3.4589e-07
3.45888e-07
3.75231e-07
3.75462e-07
3.75224e-07
3.45902e-07
3.45905e-07
3.459e-07
3.45903e-07
3.75456e-07
3.75218e-07
3.45889e-07
3.45913e-07
3.45887e-07
3.45911e-07
3.45904e-07
3.45883e-07
3.45902e-07
3.7547e-07
3.75233e-07
3.45892e-07
3.4589e-07
3.4589e-07
3.75231e-07
3.75461e-07
3.75224e-07
3.45902e-07
3.45905e-07
3.459e-07
3.45903e-07
3.75455e-07
3.75218e-07
3.45889e-07
3.45913e-07
3.45887e-07
3.45911e-07
3.45904e-07
3.45883e-07
3.45902e-07
3.75469e-07
3.75234e-07
3.45892e-07
3.45891e-07
3.45889e-07
3.75231e-07
3.75461e-07
3.75225e-07
3.45902e-07
3.45905e-07
3.459e-07
3.45903e-07
3.75455e-07
3.75218e-07
3.45888e-07
3.45913e-07
3.45886e-07
3.45911e-07
3.45904e-07
3.45883e-07
3.45902e-07
3.7547e-07
3.75233e-07
3.45891e-07
3.45891e-07
3.45889e-07
3.75231e-07
3.75461e-07
3.75225e-07
3.45902e-07
3.45905e-07
3.459e-07
3.45903e-07
3.75455e-07
3.75218e-07
3.45888e-07
3.45913e-07
3.45886e-07
3.45911e-07
3.45904e-07
3.45883e-07
3.45902e-07
3.7547e-07
3.75233e-07
3.45891e-07
3.4589e-07
3.45889e-07
3.75231e-07
3.75462e-07
3.75224e-07
3.45902e-07
3.45905e-07
3.459e-07
3.45903e-07
3.75455e-07
3.75219e-07
3.45889e-07
3.45913e-07
3.45886e-07
3.45911e-07
3.45904e-07
3.45883e-07
3.45902e-07
3.75469e-07
3.75233e-07
3.45891e-07
3.4589e-07
3.45889e-07
3.75231e-07
3.75462e-07
3.75224e-07
3.45902e-07
3.45905e-07
3.459e-07
3.45903e-07
3.75456e-07
3.75218e-07
3.45888e-07
3.45913e-07
3.45886e-07
3.45911e-07
3.45904e-07
3.45883e-07
3.45902e-07
3.7547e-07
3.75233e-07
3.45891e-07
3.4589e-07
3.45889e-07
3.75231e-07
3.75461e-07
3.75335e-07
3.45901e-07
3.45904e-07
3.46041e-07
3.46044e-07
3.75456e-07
3.75332e-07
3.45888e-07
3.45913e-07
3.46028e-07
3.46053e-07
3.45904e-07
3.46028e-07
3.46043e-07
3.7547e-07
3.75344e-07
3.4589e-07
3.46031e-07
3.4603e-07
3.75341e-07
3.75573e-07
3.75343e-07
3.46044e-07
3.46048e-07
3.46044e-07
3.46047e-07
3.75574e-07
3.75342e-07
3.46031e-07
3.46056e-07
3.4603e-07
3.46055e-07
3.46047e-07
3.4603e-07
3.46046e-07
3.75581e-07
3.75352e-07
3.46034e-07
3.46035e-07
3.46033e-07
3.7535e-07
3.75581e-07
3.75353e-07
3.46047e-07
3.46051e-07
3.46047e-07
3.46052e-07
3.7558e-07
3.75349e-07
3.46034e-07
3.46059e-07
3.46034e-07
3.46058e-07
3.46049e-07
3.46033e-07
3.46049e-07
3.75588e-07
3.75361e-07
3.46037e-07
3.46037e-07
3.46036e-07
3.75358e-07
3.7559e-07
3.75357e-07
3.4605e-07
3.46055e-07
3.46047e-07
3.46053e-07
3.75587e-07
3.75353e-07
3.46037e-07
3.46062e-07
3.46033e-07
3.46057e-07
3.46052e-07
3.46033e-07
3.46049e-07
3.75598e-07
3.75365e-07
3.4604e-07
3.46035e-07
3.46037e-07
3.75365e-07
3.75594e-07
3.75355e-07
3.46046e-07
3.46054e-07
3.46039e-07
3.46046e-07
3.7559e-07
3.75352e-07
3.46034e-07
3.46058e-07
3.46026e-07
3.4605e-07
3.46049e-07
3.46028e-07
3.46041e-07
3.75601e-07
3.75362e-07
3.46036e-07
3.46028e-07
3.46028e-07
3.7536e-07
3.75587e-07
3.75243e-07
3.46023e-07
3.46032e-07
3.45926e-07
3.45934e-07
3.75586e-07
3.75253e-07
3.4601e-07
3.46034e-07
3.45913e-07
3.45937e-07
3.46027e-07
3.45923e-07
3.4593e-07
3.75593e-07
3.75251e-07
3.46013e-07
3.45917e-07
3.45915e-07
3.75251e-07
3.75466e-07
3.7522e-07
3.45911e-07
3.45917e-07
3.459e-07
3.45904e-07
3.75475e-07
3.75209e-07
3.45898e-07
3.45923e-07
3.45887e-07
3.45912e-07
3.45914e-07
3.45883e-07
3.45903e-07
3.75474e-07
3.75229e-07
3.459e-07
3.45891e-07
3.4589e-07
3.75226e-07
3.75459e-07
3.75228e-07
3.45903e-07
3.45907e-07
3.45901e-07
3.45905e-07
3.75449e-07
3.7522e-07
3.4589e-07
3.45915e-07
3.45887e-07
3.45912e-07
3.45905e-07
3.45883e-07
3.45903e-07
3.75467e-07
3.75236e-07
3.45892e-07
3.45891e-07
3.4589e-07
3.75235e-07
3.75463e-07
3.75223e-07
3.45902e-07
3.45906e-07
3.459e-07
3.45904e-07
3.75457e-07
3.75214e-07
3.45889e-07
3.45914e-07
3.45886e-07
3.45911e-07
3.45905e-07
3.45883e-07
3.45902e-07
3.75471e-07
3.75232e-07
3.45892e-07
3.45891e-07
3.45889e-07
3.75231e-07
3.7546e-07
3.75223e-07
3.45902e-07
3.45906e-07
3.459e-07
3.45904e-07
3.75451e-07
3.75218e-07
3.45888e-07
3.45913e-07
3.45886e-07
3.45911e-07
3.45904e-07
3.45883e-07
3.45902e-07
3.75468e-07
3.75232e-07
3.45891e-07
3.45891e-07
3.45889e-07
3.75229e-07
3.75459e-07
3.75226e-07
3.45902e-07
3.45906e-07
3.45899e-07
3.45904e-07
3.75453e-07
3.75219e-07
3.45888e-07
3.45913e-07
3.45886e-07
3.45911e-07
3.45904e-07
3.45883e-07
3.45902e-07
3.75467e-07
3.75234e-07
3.45891e-07
3.45891e-07
3.45889e-07
3.7523e-07
3.75461e-07
3.75226e-07
3.45901e-07
3.45905e-07
3.459e-07
3.45903e-07
3.75456e-07
3.75219e-07
3.45889e-07
3.45913e-07
3.45887e-07
3.45911e-07
3.45904e-07
3.45883e-07
3.45902e-07
3.7547e-07
3.75234e-07
3.45891e-07
3.45891e-07
3.45889e-07
3.75231e-07
3.75462e-07
3.75226e-07
3.45902e-07
3.45905e-07
3.459e-07
3.45903e-07
3.75456e-07
3.75219e-07
3.4589e-07
3.45914e-07
3.45887e-07
3.45911e-07
3.45904e-07
3.45882e-07
3.45902e-07
3.7547e-07
3.75233e-07
3.45891e-07
3.45891e-07
3.45889e-07
3.75231e-07
3.75462e-07
3.75226e-07
3.45902e-07
3.45906e-07
3.459e-07
3.45903e-07
3.75456e-07
3.75218e-07
3.45889e-07
3.45913e-07
3.45887e-07
3.45911e-07
3.45904e-07
3.45882e-07
3.45902e-07
3.7547e-07
3.75233e-07
3.45891e-07
3.45891e-07
3.45889e-07
3.75231e-07
3.75462e-07
3.75226e-07
3.45901e-07
3.45905e-07
3.459e-07
3.45903e-07
3.75455e-07
3.75218e-07
3.4589e-07
3.45914e-07
3.45888e-07
3.45911e-07
3.45904e-07
3.45882e-07
3.45902e-07
3.7547e-07
3.75233e-07
3.45891e-07
3.45891e-07
3.45889e-07
3.75231e-07
3.75462e-07
3.75226e-07
3.45902e-07
3.45905e-07
3.459e-07
3.45903e-07
3.75455e-07
3.75218e-07
3.45889e-07
3.45913e-07
3.45888e-07
3.45911e-07
3.45904e-07
3.45882e-07
3.45902e-07
3.7547e-07
3.75234e-07
3.45891e-07
3.45891e-07
3.45889e-07
3.75231e-07
3.75462e-07
3.75226e-07
3.45901e-07
3.45905e-07
3.459e-07
3.45903e-07
3.75455e-07
3.75217e-07
3.4589e-07
3.45914e-07
3.45887e-07
3.45911e-07
3.45904e-07
3.45882e-07
3.45902e-07
3.7547e-07
3.75233e-07
3.45891e-07
3.45891e-07
3.45889e-07
3.75231e-07
3.75462e-07
3.75226e-07
3.45902e-07
3.45905e-07
3.459e-07
3.45903e-07
3.75455e-07
3.75217e-07
3.45889e-07
3.45913e-07
3.45887e-07
3.45911e-07
3.45904e-07
3.45883e-07
3.45902e-07
3.7547e-07
3.75233e-07
3.45891e-07
3.45892e-07
3.45889e-07
3.75231e-07
3.75462e-07
3.75342e-07
3.45902e-07
3.45906e-07
3.4604e-07
3.46044e-07
3.75454e-07
3.75334e-07
3.4589e-07
3.45914e-07
3.46028e-07
3.46052e-07
3.45905e-07
3.46023e-07
3.46043e-07
3.7547e-07
3.7535e-07
3.45892e-07
3.46031e-07
3.4603e-07
3.75347e-07
3.75579e-07
3.75348e-07
3.46044e-07
3.46047e-07
3.46043e-07
3.46047e-07
3.75571e-07
3.7534e-07
3.46032e-07
3.46055e-07
3.46031e-07
3.46054e-07
3.46046e-07
3.46026e-07
3.46045e-07
3.75587e-07
3.75355e-07
3.46033e-07
3.46035e-07
3.46033e-07
3.75352e-07
3.75584e-07
3.75356e-07
3.46047e-07
3.46051e-07
3.46046e-07
3.46049e-07
3.75577e-07
3.75348e-07
3.46035e-07
3.46058e-07
3.46034e-07
3.46057e-07
3.46049e-07
3.46028e-07
3.46048e-07
3.75592e-07
3.75363e-07
3.46036e-07
3.46036e-07
3.46036e-07
3.7536e-07
3.75593e-07
3.75359e-07
3.46049e-07
3.46052e-07
3.46044e-07
3.46048e-07
3.75585e-07
3.75351e-07
3.46036e-07
3.4606e-07
3.46031e-07
3.46056e-07
3.4605e-07
3.46026e-07
3.46046e-07
3.756e-07
3.75366e-07
3.46038e-07
3.46036e-07
3.46033e-07
3.75363e-07
3.75595e-07
3.75342e-07
3.46044e-07
3.46048e-07
3.46022e-07
3.46025e-07
3.75588e-07
3.75335e-07
3.46032e-07
3.46056e-07
3.4601e-07
3.46034e-07
3.46047e-07
3.46004e-07
3.46025e-07
3.75602e-07
3.7535e-07
3.46034e-07
3.46013e-07
3.46012e-07
3.75348e-07
3.75568e-07
3.75221e-07
3.45986e-07
3.4599e-07
3.45909e-07
3.45913e-07
3.75561e-07
3.75213e-07
3.45974e-07
3.45998e-07
3.45897e-07
3.45921e-07
3.45989e-07
3.45891e-07
3.45912e-07
3.75575e-07
3.75229e-07
3.45976e-07
3.459e-07
3.45899e-07
3.75226e-07
3.7545e-07
3.75225e-07
3.45904e-07
3.45908e-07
3.459e-07
3.45904e-07
3.75443e-07
3.75218e-07
3.45892e-07
3.45916e-07
3.45888e-07
3.45912e-07
3.45907e-07
3.45883e-07
3.45903e-07
3.75458e-07
3.75234e-07
3.45894e-07
3.45891e-07
3.4589e-07
3.75232e-07
3.75462e-07
3.75226e-07
3.45903e-07
3.45907e-07
3.459e-07
3.45904e-07
3.75455e-07
3.75219e-07
3.45891e-07
3.45915e-07
3.45888e-07
3.45912e-07
3.45906e-07
3.45882e-07
3.45903e-07
3.7547e-07
3.75234e-07
3.45893e-07
3.45891e-07
3.4589e-07
3.75233e-07
3.7546e-07
3.75227e-07
3.45902e-07
3.45905e-07
3.459e-07
3.45903e-07
3.75453e-07
3.75219e-07
3.4589e-07
3.45913e-07
3.45888e-07
3.45911e-07
3.45904e-07
3.45882e-07
3.45902e-07
3.75468e-07
3.75235e-07
3.45892e-07
3.45891e-07
3.4589e-07
3.75234e-07
3.75463e-07
3.75224e-07
3.45902e-07
3.45905e-07
3.45899e-07
3.45903e-07
3.75456e-07
3.75217e-07
3.4589e-07
3.45913e-07
3.45888e-07
3.45911e-07
3.45904e-07
3.45882e-07
3.45902e-07
3.75471e-07
3.75232e-07
3.45892e-07
3.45891e-07
3.4589e-07
3.7523e-07
3.75461e-07
3.75225e-07
3.45902e-07
3.45905e-07
3.45899e-07
3.45903e-07
3.75454e-07
3.75217e-07
3.4589e-07
3.45913e-07
3.45888e-07
3.45911e-07
3.45904e-07
3.45882e-07
3.45902e-07
3.75469e-07
3.75233e-07
3.45892e-07
3.45891e-07
3.4589e-07
3.7523e-07
3.75461e-07
3.75225e-07
3.45901e-07
3.45905e-07
3.459e-07
3.45903e-07
3.75454e-07
3.75218e-07
3.4589e-07
3.45913e-07
3.45888e-07
3.45911e-07
3.45904e-07
3.45882e-07
3.45902e-07
3.75469e-07
3.75233e-07
3.45891e-07
3.45891e-07
3.4589e-07
3.75231e-07
3.75461e-07
3.75225e-07
3.45902e-07
3.45905e-07
3.459e-07
3.45903e-07
3.75454e-07
3.75218e-07
3.4589e-07
3.45913e-07
3.45888e-07
3.45911e-07
3.45904e-07
3.45882e-07
3.45902e-07
3.7547e-07
3.75233e-07
3.45892e-07
3.45891e-07
3.4589e-07
3.75231e-07
3.75461e-07
3.75225e-07
3.45901e-07
3.45905e-07
3.459e-07
3.45903e-07
3.75455e-07
3.75218e-07
3.4589e-07
3.45913e-07
3.45888e-07
3.45911e-07
3.45904e-07
3.45882e-07
3.45902e-07
3.75469e-07
3.75233e-07
3.45892e-07
3.45891e-07
3.4589e-07
3.75231e-07
3.75461e-07
3.75225e-07
3.45902e-07
3.45905e-07
3.459e-07
3.45903e-07
3.75455e-07
3.75218e-07
3.4589e-07
3.45913e-07
3.45888e-07
3.45911e-07
3.45904e-07
3.45882e-07
3.45902e-07
3.7547e-07
3.75233e-07
3.45891e-07
3.45891e-07
3.4589e-07
3.75231e-07
3.75462e-07
3.75225e-07
3.45901e-07
3.45905e-07
3.45899e-07
3.45903e-07
3.75455e-07
3.75218e-07
3.4589e-07
3.45913e-07
3.45888e-07
3.45911e-07
3.45904e-07
3.45882e-07
3.45902e-07
3.7547e-07
3.75234e-07
3.45892e-07
3.45891e-07
3.4589e-07
3.75231e-07
3.75461e-07
3.75225e-07
3.45902e-07
3.45905e-07
3.459e-07
3.45903e-07
3.75454e-07
3.75218e-07
3.4589e-07
3.45913e-07
3.45888e-07
3.45911e-07
3.45904e-07
3.45882e-07
3.45902e-07
3.7547e-07
3.75233e-07
3.45891e-07
3.45891e-07
3.45889e-07
3.75231e-07
3.75462e-07
3.75332e-07
3.45901e-07
3.45905e-07
3.46042e-07
3.46045e-07
3.75455e-07
3.75325e-07
3.4589e-07
3.45913e-07
3.4603e-07
3.46053e-07
3.45904e-07
3.46025e-07
3.46044e-07
3.7547e-07
3.75344e-07
3.45891e-07
3.46032e-07
3.46031e-07
3.75341e-07
3.75573e-07
3.75344e-07
3.46042e-07
3.46045e-07
3.46041e-07
3.46044e-07
3.75566e-07
3.75337e-07
3.4603e-07
3.46056e-07
3.46029e-07
3.46055e-07
3.46047e-07
3.46028e-07
3.46046e-07
3.75581e-07
3.75352e-07
3.46034e-07
3.46035e-07
3.46034e-07
3.7535e-07
3.75581e-07
3.75352e-07
3.46044e-07
3.46048e-07
3.46044e-07
3.46048e-07
3.75574e-07
3.75345e-07
3.46033e-07
3.46059e-07
3.46033e-07
3.46059e-07
3.4605e-07
3.4603e-07
3.4605e-07
3.75589e-07
3.75361e-07
3.46037e-07
3.46038e-07
3.46037e-07
3.75359e-07
3.75589e-07
3.75358e-07
3.46048e-07
3.46052e-07
3.46047e-07
3.4605e-07
3.75582e-07
3.75351e-07
3.46037e-07
3.46062e-07
3.46035e-07
3.46059e-07
3.46053e-07
3.46031e-07
3.4605e-07
3.75598e-07
3.75366e-07
3.4604e-07
3.46035e-07
3.46037e-07
3.75364e-07
3.75594e-07
3.75358e-07
3.46049e-07
3.46051e-07
3.46045e-07
3.46048e-07
3.75587e-07
3.75351e-07
3.46038e-07
3.46058e-07
3.46034e-07
3.46051e-07
3.46049e-07
3.46027e-07
3.46042e-07
3.75602e-07
3.75361e-07
3.46037e-07
3.46029e-07
3.46029e-07
3.75361e-07
3.75592e-07
3.75275e-07
3.46039e-07
3.46043e-07
3.45952e-07
3.45955e-07
3.75586e-07
3.75266e-07
3.46028e-07
3.46036e-07
3.45939e-07
3.45939e-07
3.46026e-07
3.45929e-07
3.45929e-07
3.75593e-07
3.75251e-07
3.46013e-07
3.45917e-07
3.45916e-07
3.75249e-07
3.75494e-07
3.75215e-07
3.45926e-07
3.4593e-07
3.459e-07
3.45904e-07
3.75485e-07
3.75207e-07
3.45914e-07
3.45923e-07
3.45888e-07
3.45912e-07
3.45914e-07
3.45883e-07
3.45903e-07
3.75474e-07
3.75229e-07
3.45901e-07
3.45892e-07
3.4589e-07
3.75227e-07
3.75453e-07
3.75229e-07
3.45902e-07
3.45906e-07
3.45901e-07
3.45904e-07
3.75446e-07
3.75221e-07
3.4589e-07
3.45915e-07
3.45889e-07
3.45912e-07
3.45906e-07
3.45883e-07
3.45903e-07
3.75467e-07
3.75236e-07
3.45893e-07
3.45891e-07
3.4589e-07
3.75235e-07
3.75465e-07
3.75221e-07
3.45902e-07
3.45906e-07
3.459e-07
3.45903e-07
3.75457e-07
3.75214e-07
3.4589e-07
3.45914e-07
3.45888e-07
3.45911e-07
3.45905e-07
3.45882e-07
3.45902e-07
3.75471e-07
3.75232e-07
3.45892e-07
3.45891e-07
3.4589e-07
3.7523e-07
3.75457e-07
3.75226e-07
3.45901e-07
3.45905e-07
3.45899e-07
3.45903e-07
3.7545e-07
3.75218e-07
3.4589e-07
3.45913e-07
3.45888e-07
3.45911e-07
3.45904e-07
3.45882e-07
3.45902e-07
3.75468e-07
3.75232e-07
3.45891e-07
3.45891e-07
3.45889e-07
3.75229e-07
3.7546e-07
3.75227e-07
3.45901e-07
3.45905e-07
3.459e-07
3.45903e-07
3.75453e-07
3.75219e-07
3.4589e-07
3.45913e-07
3.45888e-07
3.45911e-07
3.45904e-07
3.45882e-07
3.45902e-07
3.75467e-07
3.75234e-07
3.45891e-07
3.45891e-07
3.45889e-07
3.7523e-07
3.75462e-07
3.75226e-07
3.45902e-07
3.45905e-07
3.459e-07
3.45903e-07
3.75455e-07
3.75219e-07
3.4589e-07
3.45913e-07
3.45888e-07
3.45911e-07
3.45904e-07
3.45882e-07
3.45902e-07
3.75469e-07
3.75234e-07
3.45891e-07
3.45891e-07
3.45889e-07
3.75231e-07
3.75462e-07
3.75226e-07
3.45902e-07
3.45905e-07
3.459e-07
3.45903e-07
3.75455e-07
3.75218e-07
3.4589e-07
3.45913e-07
3.45888e-07
3.45911e-07
3.45904e-07
3.45882e-07
3.45902e-07
3.7547e-07
3.75234e-07
3.45891e-07
3.45891e-07
3.45889e-07
3.75231e-07
3.75462e-07
3.75225e-07
3.45901e-07
3.45905e-07
3.459e-07
3.45903e-07
3.75455e-07
3.75218e-07
3.4589e-07
3.45913e-07
3.45888e-07
3.45911e-07
3.45904e-07
3.45882e-07
3.45902e-07
3.7547e-07
3.75233e-07
3.45891e-07
3.45891e-07
3.45889e-07
3.75231e-07
3.75462e-07
3.75225e-07
3.45902e-07
3.45905e-07
3.459e-07
3.45903e-07
3.75455e-07
3.75218e-07
3.4589e-07
3.45914e-07
3.45888e-07
3.45911e-07
3.45904e-07
3.45882e-07
3.45902e-07
3.7547e-07
3.75233e-07
3.45891e-07
3.45891e-07
3.45889e-07
3.75231e-07
3.75462e-07
3.75225e-07
3.45901e-07
3.45905e-07
3.45899e-07
3.45903e-07
3.75455e-07
3.75218e-07
3.4589e-07
3.45913e-07
3.45888e-07
3.45911e-07
3.45904e-07
3.45882e-07
3.45902e-07
3.7547e-07
3.75233e-07
3.45891e-07
3.45891e-07
3.45889e-07
3.75231e-07
3.75462e-07
3.75225e-07
3.45902e-07
3.45905e-07
3.45899e-07
3.45903e-07
3.75455e-07
3.75218e-07
3.4589e-07
3.45913e-07
3.45888e-07
3.45911e-07
3.45904e-07
3.45882e-07
3.45902e-07
3.75469e-07
3.75234e-07
3.45891e-07
3.45891e-07
3.45889e-07
3.75232e-07
3.75462e-07
3.75225e-07
3.45901e-07
3.45905e-07
3.45902e-07
3.46045e-07
3.75455e-07
3.75324e-07
3.4589e-07
3.45913e-07
3.45888e-07
3.45911e-07
3.45904e-07
3.46024e-07
3.45905e-07
3.7547e-07
3.75234e-07
3.45891e-07
3.45892e-07
3.45892e-07
3.75231e-07
3.75466e-07
3.75351e-07
3.46041e-07
3.46045e-07
3.4604e-07
3.46044e-07
3.75566e-07
3.75337e-07
3.45891e-07
3.45914e-07
3.46029e-07
3.46052e-07
3.46043e-07
3.46026e-07
3.46042e-07
3.7547e-07
3.7535e-07
3.4603e-07
3.46034e-07
3.46029e-07
3.75346e-07
3.75587e-07
3.75353e-07
3.46044e-07
3.46048e-07
3.46044e-07
3.46048e-07
3.75574e-07
3.75344e-07
3.46033e-07
3.46056e-07
3.46033e-07
3.46055e-07
3.46046e-07
3.4603e-07
3.46046e-07
3.75587e-07
3.75356e-07
3.46033e-07
3.46037e-07
3.46033e-07
3.75353e-07
3.7559e-07
3.7536e-07
3.46048e-07
3.46052e-07
3.46048e-07
3.46051e-07
3.75582e-07
3.75351e-07
3.46036e-07
3.46059e-07
3.46035e-07
3.46058e-07
3.46049e-07
3.46031e-07
3.46048e-07
3.75593e-07
3.75364e-07
3.46037e-07
3.46039e-07
3.46036e-07
3.75361e-07
3.75597e-07
3.75363e-07
3.46051e-07
3.46054e-07
3.46049e-07
3.46051e-07
3.75587e-07
3.75353e-07
3.46037e-07
3.46061e-07
3.46034e-07
3.46056e-07
3.46051e-07
3.4603e-07
3.46048e-07
3.756e-07
3.75367e-07
3.46038e-07
3.46039e-07
3.46035e-07
3.75366e-07
3.75598e-07
3.75335e-07
3.46048e-07
3.46047e-07
3.45996e-07
3.45971e-07
3.75589e-07
3.75278e-07
3.46034e-07
3.46056e-07
3.46007e-07
3.46033e-07
3.46046e-07
3.45952e-07
3.45988e-07
3.75603e-07
3.75349e-07
3.46034e-07
3.46003e-07
3.45975e-07
3.7532e-07
3.75556e-07
3.75218e-07
3.45961e-07
3.45941e-07
3.45904e-07
3.45905e-07
3.75497e-07
3.75206e-07
3.45971e-07
3.45997e-07
3.45896e-07
3.4592e-07
3.45954e-07
3.45883e-07
3.45905e-07
3.75572e-07
3.75228e-07
3.45941e-07
3.45898e-07
3.45892e-07
3.75218e-07
3.7545e-07
3.75225e-07
3.45903e-07
3.45906e-07
3.459e-07
3.45904e-07
3.75444e-07
3.75221e-07
3.45891e-07
3.45915e-07
3.45888e-07
3.45912e-07
3.45905e-07
3.45883e-07
3.45903e-07
3.75457e-07
3.75234e-07
3.45892e-07
3.45891e-07
3.4589e-07
3.75234e-07
3.75461e-07
3.75226e-07
3.45903e-07
3.45906e-07
3.45899e-07
3.45902e-07
3.75458e-07
3.75213e-07
3.45891e-07
3.45915e-07
3.45886e-07
3.45911e-07
3.45905e-07
3.45881e-07
3.45901e-07
3.7547e-07
3.75234e-07
3.45892e-07
3.4589e-07
3.45888e-07
3.75228e-07
3.75459e-07
3.75225e-07
3.459e-07
3.45904e-07
3.45896e-07
3.459e-07
3.75449e-07
3.75216e-07
3.45888e-07
3.45912e-07
3.45884e-07
3.45908e-07
3.45903e-07
3.45879e-07
3.45899e-07
3.75467e-07
3.75232e-07
3.4589e-07
3.45887e-07
3.45886e-07
3.75232e-07
3.75461e-07
3.75217e-07
3.45898e-07
3.45901e-07
3.45891e-07
3.45894e-07
3.7545e-07
3.75213e-07
3.45885e-07
3.4591e-07
3.45878e-07
3.45902e-07
3.459e-07
3.45873e-07
3.45893e-07
3.75467e-07
3.75226e-07
3.45888e-07
3.45882e-07
3.4588e-07
3.75226e-07
3.75453e-07
3.75189e-07
3.45893e-07
3.45896e-07
3.45854e-07
3.45856e-07
3.75447e-07
3.75183e-07
3.45881e-07
3.45904e-07
3.4584e-07
3.45864e-07
3.45895e-07
3.45836e-07
3.45857e-07
3.7546e-07
3.75197e-07
3.45882e-07
3.45844e-07
3.45841e-07
3.75195e-07
3.75421e-07
3.73e-07
3.45904e-07
3.45906e-07
3.43701e-07
3.43702e-07
3.75415e-07
3.72996e-07
3.4589e-07
3.45915e-07
3.43691e-07
3.43705e-07
3.45908e-07
3.43688e-07
3.43702e-07
3.75428e-07
3.73003e-07
3.45891e-07
3.43692e-07
3.4369e-07
3.72999e-07
3.70158e-07
3.42314e-07
3.42315e-07
3.70155e-07
3.42307e-07
3.42317e-07
3.23539e-07
3.23539e-07
3.23539e-07
3.42315e-07
3.70161e-07
3.42307e-07
5.35655e-07
5.35598e-07
5.35648e-07
5.35649e-07
5.34573e-07
5.35518e-07
5.33635e-07
5.3565e-07
5.34574e-07
5.35518e-07
5.3565e-07
5.33634e-07
5.35263e-07
5.35987e-07
5.35987e-07
1.10773e-06
3.88248e-06
9.33221e-07
4.60418e-06
1.26083e-05
1.65937e-05
1.10784e-06
3.88273e-06
9.33252e-07
4.60452e-06
4.9561e-07
4.9561e-07
4.9561e-07
4.57165e-07
4.57164e-07
4.57165e-07
4.57165e-07
5.433e-07
1.22022e-06
4.95599e-07
4.85545e-07
5.2518e-07
1.20976e-06
4.82318e-07
1.26099e-05
1.65958e-05
5.43321e-07
4.95599e-07
1.2202e-06
4.85545e-07
5.25159e-07
4.82319e-07
1.20975e-06
2.52158e-06
2.52228e-06
4.84192e-07
2.37289e-06
2.37328e-06
1.43123e-06
5.59624e-06
1.32811e-06
6.13182e-06
2.12972e-05
2.30992e-05
1.43169e-06
5.59692e-06
1.32813e-06
6.13244e-06
4.45718e-07
4.45719e-07
4.45719e-07
4.13187e-07
4.13186e-07
4.13187e-07