/*--------------------------------*- C++ -*----------------------------------*\
| =========                 |                                                 |
| \\      /  F ield         | OpenFOAM: The Open Source CFD Toolbox           |
|  \\    /   O peration     | Version:  2206                                  |
|   \\  /    A nd           | Website:  www.openfoam.com                      |
|    \\/     M anipulation  |                                                 |
\*---------------------------------------------------------------------------*/
FoamFile
{
    version     2.0;
    format      ascii;
    arch        "LSB;label=32;scalar=64";
    class       volScalarField;
    location    "21.5";
    object      p;
}
// * * * * * * * * * * * * * * * * * * * * * * * * * * * * * * * * * * * * * //

dimensions      [0 2 -2 0 0 0 0];

internalField   nonuniform List<scalar> 
171728
(
0.00414813
0.00414845
0.00414845
0.0041515
0.00409277
0.00409321
0.00409321
0.00409619
0.004042
0.00404195
0.00404195
0.00404474
0.0039898
0.00398961
0.00398961
0.00399233
0.00394044
0.00394023
0.00394026
0.00394268
0.00389577
0.00389572
0.00389572
0.00389832
0.00385193
0.00385189
0.00385189
0.00385447
0.00380818
0.00380814
0.00380814
0.00381072
0.00376443
0.0037644
0.0037644
0.00376698
0.00372069
0.00372066
0.00372066
0.00372323
0.00367695
0.00367692
0.00367692
0.00367949
0.00363321
0.00363318
0.00363318
0.00363575
0.00358947
0.00358944
0.00358944
0.00359202
0.00354574
0.00354571
0.00354571
0.00354828
0.003502
0.00350197
0.00350197
0.00350454
0.00345827
0.00345823
0.00345823
0.00346081
0.00341453
0.0034145
0.0034145
0.00341707
0.00337079
0.00337076
0.00337076
0.00337333
0.00332705
0.00332702
0.00332702
0.00332959
0.00328331
0.00328328
0.00328328
0.00328585
0.00323957
0.00323954
0.00323954
0.00324211
0.00319583
0.0031958
0.0031958
0.00319838
0.00315209
0.00315206
0.00315206
0.00315464
0.00310835
0.00310832
0.00310832
0.00311089
0.00306461
0.00306458
0.00306458
0.00306715
0.00302087
0.00302084
0.00302084
0.00302341
0.00297713
0.0029771
0.0029771
0.00297967
0.00293339
0.00293336
0.00293336
0.00293593
0.00288965
0.00288962
0.00288962
0.00289219
0.00284591
0.00284588
0.00284588
0.00284845
0.00280217
0.00280214
0.00280214
0.00280471
0.00275843
0.0027584
0.0027584
0.00276097
0.00271469
0.00271465
0.00271465
0.00271723
0.00267095
0.00267091
0.00267091
0.00267349
0.00262721
0.00262717
0.00262717
0.00262975
0.00258346
0.00258343
0.00258343
0.00258601
0.00253972
0.00253969
0.00253969
0.00254226
0.00249598
0.00249595
0.00249595
0.00249852
0.00245224
0.00245221
0.00245221
0.00245478
0.0024085
0.00240846
0.00240846
0.00241104
0.00236475
0.00236472
0.00236472
0.00236729
0.00232101
0.00232097
0.00232097
0.00232355
0.00227726
0.00227723
0.00227723
0.0022798
0.00223351
0.00223348
0.00223348
0.00223605
0.00218976
0.00218973
0.00218973
0.0021923
0.00214601
0.00214598
0.00214598
0.00214855
0.00210226
0.00210223
0.00210223
0.0021048
0.0020585
0.00205847
0.00205847
0.00206104
0.00201475
0.00201471
0.00201471
0.00201729
0.00197099
0.00197096
0.00197096
0.00197353
0.00192723
0.0019272
0.0019272
0.00192977
0.00188347
0.00188344
0.00188344
0.00188601
0.00183971
0.00183968
0.00183968
0.00184225
0.00179595
0.00179592
0.00179592
0.00179849
0.00175218
0.00175215
0.00175215
0.00175473
0.00170842
0.00170839
0.00170839
0.00171096
0.00166465
0.00166462
0.00166462
0.0016672
0.00162089
0.00162086
0.00162086
0.00162343
0.00157712
0.00157709
0.00157709
0.00157966
0.00153335
0.00153332
0.00153332
0.00153589
0.00148958
0.00148955
0.00148955
0.00149212
0.00144581
0.00144578
0.00144578
0.00144835
0.00140204
0.00140201
0.00140201
0.00140458
0.00135827
0.00135824
0.00135824
0.00136082
0.0013145
0.00131447
0.00131447
0.00131705
0.00127073
0.0012707
0.0012707
0.00127328
0.00122696
0.00122693
0.00122693
0.00122951
0.0011832
0.00118316
0.00118316
0.00118574
0.00113943
0.0011394
0.0011394
0.00114197
0.00109566
0.00109563
0.00109563
0.0010982
0.00105189
0.00105186
0.00105186
0.00105444
0.00100813
0.00100809
0.0010081
0.00101067
0.000964359
0.000964328
0.000964328
0.000966902
0.000920593
0.000920562
0.000920562
0.000923135
0.000876827
0.000876796
0.000876795
0.000879369
0.000833061
0.00083303
0.000833029
0.000835603
0.000789294
0.000789263
0.000789263
0.000791837
0.000745528
0.000745497
0.000745497
0.00074807
0.000701764
0.000701732
0.000701732
0.000704306
0.000657999
0.000657967
0.000657967
0.000660541
0.000614234
0.000614202
0.000614202
0.000616776
0.000570469
0.000570437
0.000570437
0.000573011
0.000526704
0.000526672
0.000526672
0.000529246
0.000482939
0.000482908
0.000482908
0.000485481
0.000439176
0.000439144
0.000439144
0.000441718
0.000395414
0.000395382
0.000395382
0.000397956
0.000351651
0.00035162
0.00035162
0.000354194
0.000307888
0.000307856
0.000307856
0.00031043
0.000264123
0.000264092
0.000264092
0.000266665
0.000220356
0.000220327
0.000220327
0.000222897
0.000176588
0.00017654
0.00017654
0.00017911
0.000132816
0.000132805
0.000132804
0.000135352
8.90506e-05
8.90084e-05
8.90065e-05
9.15389e-05
4.59538e-05
4.5394e-05
4.53911e-05
4.77815e-05
1.01491e-05
1.04438e-05
1.04419e-05
1.00137e-05
0.00416153
0.00416175
0.00416175
0.00416153
0.00416175
0.00416175
0.00416251
0.0041625
0.00416251
0.00416251
0.00416175
0.00416175
0.00416153
0.00416175
0.00416175
0.00416153
0.0041515
0.00410275
0.00414845
0.00414845
0.004105
0.004105
0.0041515
0.00410275
0.00414845
0.00414845
0.004105
0.004105
0.00414845
0.004105
0.004105
0.0041515
0.00410276
0.00414845
0.004105
0.004105
0.00410275
0.00409619
0.00405169
0.00409321
0.00409321
0.00405511
0.00405511
0.00409619
0.00405169
0.00409321
0.00409321
0.00405511
0.00405511
0.00409321
0.00405511
0.00405511
0.00409619
0.00405169
0.0040932
0.00405511
0.00405511
0.00405169
0.00404474
0.00399927
0.00404195
0.00404195
0.00400261
0.00400262
0.00404474
0.00399928
0.00404195
0.00404195
0.00400261
0.00400262
0.00404195
0.00400262
0.00400262
0.00404474
0.00399927
0.00404195
0.00400262
0.00400262
0.00399927
0.00399233
0.00394884
0.00398961
0.00398961
0.00395201
0.00395202
0.00399233
0.00394884
0.00398961
0.00398961
0.00395202
0.00395202
0.00398961
0.00395201
0.00395201
0.00399233
0.00394884
0.00398961
0.00395202
0.00395201
0.00394884
0.00394269
0.00390412
0.00394024
0.00394026
0.00390671
0.00390671
0.00394269
0.00390412
0.00394026
0.00394026
0.00390671
0.00390671
0.00394022
0.00390671
0.00390671
0.00394269
0.00390412
0.00394022
0.00390671
0.00390671
0.00390412
0.00389832
0.00386026
0.00389572
0.00389572
0.00386283
0.00386283
0.00389832
0.00386026
0.00389572
0.00389572
0.00386283
0.00386283
0.00389572
0.00386283
0.00386283
0.00389832
0.00386026
0.00389572
0.00386283
0.00386283
0.00386026
0.00385447
0.00381651
0.00385189
0.00385189
0.00381908
0.00381908
0.00385447
0.00381651
0.00385189
0.00385189
0.00381908
0.00381908
0.00385189
0.00381908
0.00381908
0.00385447
0.00381651
0.00385189
0.00381908
0.00381908
0.00381651
0.00381072
0.00377277
0.00380814
0.00380814
0.00377534
0.00377534
0.00381072
0.00377277
0.00380814
0.00380814
0.00377534
0.00377534
0.00380814
0.00377534
0.00377534
0.00381072
0.00377277
0.00380814
0.00377534
0.00377534
0.00377277
0.00376697
0.00372903
0.0037644
0.0037644
0.0037316
0.0037316
0.00376697
0.00372903
0.0037644
0.0037644
0.0037316
0.0037316
0.0037644
0.0037316
0.0037316
0.00376697
0.00372903
0.0037644
0.0037316
0.0037316
0.00372903
0.00372323
0.00368529
0.00372066
0.00372066
0.00368785
0.00368785
0.00372323
0.00368529
0.00372066
0.00372066
0.00368785
0.00368785
0.00372066
0.00368785
0.00368785
0.00372323
0.00368529
0.00372066
0.00368785
0.00368785
0.00368529
0.00367949
0.00364155
0.00367692
0.00367692
0.00364411
0.00364411
0.00367949
0.00364155
0.00367692
0.00367692
0.00364411
0.00364411
0.00367692
0.00364411
0.00364411
0.00367949
0.00364155
0.00367692
0.00364411
0.00364411
0.00364155
0.00363575
0.00359781
0.00363318
0.00363318
0.00360038
0.00360038
0.00363575
0.00359781
0.00363318
0.00363318
0.00360038
0.00360038
0.00363318
0.00360038
0.00360038
0.00363575
0.00359781
0.00363318
0.00360038
0.00360038
0.00359781
0.00359202
0.00355407
0.00358944
0.00358944
0.00355664
0.00355664
0.00359201
0.00355407
0.00358944
0.00358944
0.00355664
0.00355664
0.00358944
0.00355664
0.00355664
0.00359202
0.00355407
0.00358944
0.00355664
0.00355664
0.00355407
0.00354828
0.00351034
0.00354571
0.00354571
0.0035129
0.0035129
0.00354828
0.00351034
0.00354571
0.00354571
0.0035129
0.0035129
0.00354571
0.0035129
0.0035129
0.00354828
0.00351034
0.00354571
0.0035129
0.0035129
0.00351034
0.00350454
0.0034666
0.00350197
0.00350197
0.00346917
0.00346917
0.00350454
0.0034666
0.00350197
0.00350197
0.00346917
0.00346917
0.00350197
0.00346917
0.00346917
0.00350454
0.0034666
0.00350197
0.00346917
0.00346917
0.0034666
0.00346081
0.00342287
0.00345823
0.00345823
0.00342543
0.00342543
0.00346081
0.00342287
0.00345823
0.00345823
0.00342543
0.00342543
0.00345823
0.00342543
0.00342543
0.00346081
0.00342287
0.00345823
0.00342543
0.00342543
0.00342287
0.00341707
0.00337913
0.0034145
0.0034145
0.0033817
0.0033817
0.00341707
0.00337913
0.0034145
0.0034145
0.0033817
0.0033817
0.0034145
0.0033817
0.0033817
0.00341707
0.00337913
0.0034145
0.00338169
0.0033817
0.00337913
0.00337333
0.00333539
0.00337076
0.00337076
0.00333796
0.00333796
0.00337333
0.00333539
0.00337076
0.00337076
0.00333796
0.00333796
0.00337076
0.00333796
0.00333796
0.00337333
0.00333539
0.00337076
0.00333796
0.00333796
0.00333539
0.00332959
0.00329165
0.00332702
0.00332702
0.00329422
0.00329422
0.00332959
0.00329165
0.00332702
0.00332702
0.00329422
0.00329422
0.00332702
0.00329422
0.00329422
0.00332959
0.00329165
0.00332702
0.00329422
0.00329422
0.00329165
0.00328585
0.00324791
0.00328328
0.00328328
0.00325048
0.00325048
0.00328585
0.00324791
0.00328328
0.00328328
0.00325048
0.00325048
0.00328328
0.00325048
0.00325048
0.00328585
0.00324791
0.00328328
0.00325048
0.00325048
0.00324791
0.00324211
0.00320417
0.00323954
0.00323954
0.00320674
0.00320674
0.00324211
0.00320417
0.00323954
0.00323954
0.00320674
0.00320674
0.00323954
0.00320674
0.00320674
0.00324211
0.00320417
0.00323954
0.00320674
0.00320674
0.00320417
0.00319837
0.00316043
0.0031958
0.0031958
0.003163
0.003163
0.00319837
0.00316043
0.0031958
0.0031958
0.003163
0.003163
0.0031958
0.003163
0.003163
0.00319837
0.00316043
0.0031958
0.003163
0.003163
0.00316043
0.00315463
0.00311669
0.00315206
0.00315206
0.00311926
0.00311926
0.00315463
0.00311669
0.00315206
0.00315206
0.00311926
0.00311926
0.00315206
0.00311926
0.00311926
0.00315464
0.00311669
0.00315206
0.00311926
0.00311926
0.00311669
0.00311089
0.00307295
0.00310832
0.00310832
0.00307552
0.00307552
0.00311089
0.00307295
0.00310832
0.00310832
0.00307552
0.00307552
0.00310832
0.00307552
0.00307552
0.00311089
0.00307295
0.00310832
0.00307552
0.00307552
0.00307295
0.00306715
0.00302921
0.00306458
0.00306458
0.00303178
0.00303178
0.00306715
0.00302921
0.00306458
0.00306458
0.00303178
0.00303178
0.00306458
0.00303178
0.00303178
0.00306715
0.00302921
0.00306458
0.00303178
0.00303178
0.00302921
0.00302341
0.00298547
0.00302084
0.00302084
0.00298803
0.00298803
0.00302341
0.00298547
0.00302084
0.00302084
0.00298803
0.00298803
0.00302084
0.00298803
0.00298803
0.00302341
0.00298547
0.00302084
0.00298803
0.00298803
0.00298547
0.00297967
0.00294173
0.0029771
0.0029771
0.00294429
0.00294429
0.00297967
0.00294173
0.0029771
0.0029771
0.00294429
0.00294429
0.0029771
0.00294429
0.00294429
0.00297967
0.00294173
0.0029771
0.00294429
0.00294429
0.00294173
0.00293593
0.00289799
0.00293336
0.00293336
0.00290055
0.00290055
0.00293593
0.00289799
0.00293336
0.00293336
0.00290055
0.00290055
0.00293336
0.00290055
0.00290055
0.00293593
0.00289799
0.00293336
0.00290055
0.00290055
0.00289799
0.00289219
0.00285425
0.00288962
0.00288962
0.00285681
0.00285681
0.00289219
0.00285425
0.00288962
0.00288962
0.00285681
0.00285681
0.00288962
0.00285681
0.00285681
0.00289219
0.00285425
0.00288962
0.00285681
0.00285681
0.00285425
0.00284845
0.0028105
0.00284588
0.00284588
0.00281307
0.00281307
0.00284845
0.0028105
0.00284588
0.00284588
0.00281307
0.00281307
0.00284588
0.00281307
0.00281307
0.00284845
0.0028105
0.00284588
0.00281307
0.00281307
0.0028105
0.00280471
0.00276676
0.00280214
0.00280214
0.00276933
0.00276933
0.00280471
0.00276676
0.00280214
0.00280214
0.00276933
0.00276933
0.00280214
0.00276933
0.00276933
0.00280471
0.00276676
0.00280214
0.00276933
0.00276933
0.00276676
0.00276097
0.00272302
0.0027584
0.00275839
0.00272559
0.00272559
0.00276097
0.00272302
0.00275839
0.0027584
0.00272559
0.00272559
0.0027584
0.00272559
0.00272559
0.00276097
0.00272302
0.0027584
0.00272559
0.00272559
0.00272302
0.00271723
0.00267928
0.00271466
0.00271465
0.00268185
0.00268185
0.00271723
0.00267928
0.00271465
0.00271465
0.00268185
0.00268185
0.00271465
0.00268185
0.00268185
0.00271723
0.00267928
0.00271465
0.00268185
0.00268185
0.00267928
0.00267349
0.00263554
0.00267091
0.00267091
0.00263811
0.00263811
0.00267349
0.00263554
0.00267091
0.00267091
0.00263811
0.00263811
0.00267091
0.00263811
0.00263811
0.00267349
0.00263554
0.00267091
0.00263811
0.00263811
0.00263554
0.00262975
0.0025918
0.00262717
0.00262717
0.00259437
0.00259437
0.00262975
0.0025918
0.00262717
0.00262717
0.00259437
0.00259437
0.00262717
0.00259437
0.00259437
0.00262975
0.0025918
0.00262717
0.00259437
0.00259437
0.0025918
0.00258601
0.00254806
0.00258343
0.00258343
0.00255063
0.00255063
0.002586
0.00254806
0.00258343
0.00258343
0.00255063
0.00255063
0.00258343
0.00255063
0.00255063
0.00258601
0.00254806
0.00258343
0.00255063
0.00255063
0.00254806
0.00254226
0.00250432
0.00253969
0.00253969
0.00250688
0.00250688
0.00254226
0.00250432
0.00253969
0.00253969
0.00250688
0.00250688
0.00253969
0.00250688
0.00250688
0.00254226
0.00250432
0.00253969
0.00250688
0.00250688
0.00250432
0.00249852
0.00246058
0.00249595
0.00249595
0.00246314
0.00246314
0.00249852
0.00246058
0.00249595
0.00249595
0.00246314
0.00246314
0.00249595
0.00246314
0.00246314
0.00249852
0.00246058
0.00249595
0.00246314
0.00246314
0.00246058
0.00245478
0.00241683
0.00245221
0.00245221
0.0024194
0.0024194
0.00245478
0.00241683
0.00245221
0.00245221
0.0024194
0.0024194
0.00245221
0.0024194
0.0024194
0.00245478
0.00241683
0.00245221
0.0024194
0.0024194
0.00241683
0.00241104
0.00237309
0.00240846
0.00240846
0.00237566
0.00237566
0.00241104
0.00237309
0.00240846
0.00240846
0.00237566
0.00237566
0.00240846
0.00237566
0.00237566
0.00241104
0.00237309
0.00240846
0.00237566
0.00237566
0.00237309
0.00236729
0.00232934
0.00236472
0.00236472
0.00233191
0.00233191
0.00236729
0.00232934
0.00236472
0.00236472
0.00233191
0.00233191
0.00236472
0.00233191
0.00233191
0.00236729
0.00232934
0.00236472
0.00233191
0.00233191
0.00232934
0.00232355
0.0022856
0.00232097
0.00232097
0.00228816
0.00228816
0.00232355
0.0022856
0.00232097
0.00232097
0.00228816
0.00228816
0.00232097
0.00228816
0.00228816
0.00232355
0.0022856
0.00232097
0.00228816
0.00228816
0.0022856
0.0022798
0.00224185
0.00227723
0.00227723
0.00224442
0.00224442
0.0022798
0.00224185
0.00227723
0.00227723
0.00224442
0.00224442
0.00227723
0.00224442
0.00224442
0.0022798
0.00224185
0.00227723
0.00224442
0.00224442
0.00224185
0.00223605
0.0021981
0.00223348
0.00223348
0.00220067
0.00220067
0.00223605
0.0021981
0.00223348
0.00223348
0.00220067
0.00220067
0.00223348
0.00220067
0.00220067
0.00223605
0.0021981
0.00223348
0.00220067
0.00220067
0.0021981
0.0021923
0.00215435
0.00218973
0.00218973
0.00215692
0.00215692
0.0021923
0.00215435
0.00218973
0.00218973
0.00215692
0.00215692
0.00218973
0.00215692
0.00215692
0.0021923
0.00215435
0.00218973
0.00215692
0.00215692
0.00215435
0.00214855
0.0021106
0.00214598
0.00214598
0.00211316
0.00211316
0.00214855
0.0021106
0.00214598
0.00214598
0.00211316
0.00211316
0.00214598
0.00211316
0.00211316
0.00214855
0.0021106
0.00214598
0.00211316
0.00211316
0.0021106
0.0021048
0.00206684
0.00210223
0.00210223
0.00206941
0.00206941
0.0021048
0.00206684
0.00210223
0.00210223
0.00206941
0.00206941
0.00210223
0.00206941
0.00206941
0.0021048
0.00206684
0.00210223
0.00206941
0.00206941
0.00206684
0.00206104
0.00202309
0.00205847
0.00205847
0.00202565
0.00202565
0.00206104
0.00202309
0.00205847
0.00205847
0.00202565
0.00202565
0.00205847
0.00202565
0.00202565
0.00206104
0.00202309
0.00205847
0.00202565
0.00202565
0.00202309
0.00201729
0.00197933
0.00201471
0.00201471
0.0019819
0.0019819
0.00201729
0.00197933
0.00201471
0.00201471
0.0019819
0.0019819
0.00201471
0.0019819
0.0019819
0.00201729
0.00197933
0.00201471
0.0019819
0.0019819
0.00197933
0.00197353
0.00193557
0.00197096
0.00197096
0.00193814
0.00193814
0.00197353
0.00193557
0.00197096
0.00197096
0.00193814
0.00193814
0.00197096
0.00193814
0.00193814
0.00197353
0.00193557
0.00197096
0.00193814
0.00193814
0.00193557
0.00192977
0.00189181
0.0019272
0.0019272
0.00189438
0.00189438
0.00192977
0.00189181
0.0019272
0.0019272
0.00189438
0.00189438
0.0019272
0.00189438
0.00189438
0.00192977
0.00189181
0.0019272
0.00189438
0.00189438
0.00189181
0.00188601
0.00184805
0.00188344
0.00188344
0.00185062
0.00185062
0.00188601
0.00184805
0.00188344
0.00188344
0.00185062
0.00185062
0.00188344
0.00185062
0.00185062
0.00188601
0.00184805
0.00188344
0.00185062
0.00185062
0.00184805
0.00184225
0.00180429
0.00183968
0.00183968
0.00180686
0.00180686
0.00184225
0.00180429
0.00183968
0.00183968
0.00180686
0.00180686
0.00183968
0.00180686
0.00180686
0.00184225
0.00180429
0.00183968
0.00180686
0.00180686
0.00180429
0.00179849
0.00176053
0.00179592
0.00179592
0.00176309
0.00176309
0.00179849
0.00176053
0.00179592
0.00179592
0.00176309
0.00176309
0.00179592
0.00176309
0.00176309
0.00179849
0.00176053
0.00179592
0.00176309
0.00176309
0.00176053
0.00175473
0.00171676
0.00175215
0.00175215
0.00171933
0.00171933
0.00175473
0.00171676
0.00175215
0.00175215
0.00171933
0.00171933
0.00175215
0.00171933
0.00171933
0.00175473
0.00171676
0.00175215
0.00171933
0.00171933
0.00171676
0.00171096
0.001673
0.00170839
0.00170839
0.00167556
0.00167556
0.00171096
0.001673
0.00170839
0.00170839
0.00167556
0.00167556
0.00170839
0.00167556
0.00167556
0.00171096
0.001673
0.00170839
0.00167556
0.00167556
0.001673
0.0016672
0.00162923
0.00166462
0.00166462
0.0016318
0.0016318
0.0016672
0.00162923
0.00166462
0.00166462
0.0016318
0.0016318
0.00166462
0.0016318
0.0016318
0.0016672
0.00162923
0.00166462
0.0016318
0.0016318
0.00162923
0.00162343
0.00158546
0.00162086
0.00162086
0.00158803
0.00158803
0.00162343
0.00158546
0.00162086
0.00162086
0.00158803
0.00158803
0.00162086
0.00158803
0.00158803
0.00162343
0.00158546
0.00162086
0.00158803
0.00158803
0.00158546
0.00157966
0.00154169
0.00157709
0.00157709
0.00154426
0.00154426
0.00157966
0.00154169
0.00157709
0.00157709
0.00154426
0.00154426
0.00157709
0.00154426
0.00154426
0.00157966
0.00154169
0.00157709
0.00154426
0.00154426
0.00154169
0.00153589
0.00149792
0.00153332
0.00153332
0.00150049
0.00150049
0.00153589
0.00149792
0.00153332
0.00153332
0.00150049
0.00150049
0.00153332
0.00150049
0.00150049
0.00153589
0.00149792
0.00153332
0.00150049
0.00150049
0.00149792
0.00149212
0.00145415
0.00148955
0.00148955
0.00145672
0.00145672
0.00149212
0.00145415
0.00148955
0.00148955
0.00145672
0.00145672
0.00148955
0.00145672
0.00145672
0.00149212
0.00145415
0.00148955
0.00145672
0.00145672
0.00145415
0.00144835
0.00141038
0.00144578
0.00144578
0.00141295
0.00141295
0.00144835
0.00141038
0.00144578
0.00144578
0.00141295
0.00141295
0.00144578
0.00141295
0.00141295
0.00144835
0.00141038
0.00144578
0.00141295
0.00141295
0.00141038
0.00140458
0.00136662
0.00140201
0.00140201
0.00136918
0.00136918
0.00140458
0.00136662
0.00140201
0.00140201
0.00136918
0.00136918
0.00140201
0.00136918
0.00136918
0.00140458
0.00136662
0.00140201
0.00136918
0.00136918
0.00136662
0.00136082
0.00132285
0.00135824
0.00135824
0.00132541
0.00132541
0.00136082
0.00132285
0.00135824
0.00135824
0.00132541
0.00132541
0.00135824
0.00132541
0.00132541
0.00136082
0.00132285
0.00135824
0.00132541
0.00132541
0.00132285
0.00131705
0.00127908
0.00131447
0.00131447
0.00128164
0.00128164
0.00131705
0.00127908
0.00131447
0.00131447
0.00128164
0.00128164
0.00131447
0.00128164
0.00128165
0.00131705
0.00127908
0.00131447
0.00128164
0.00128164
0.00127908
0.00127328
0.00123531
0.0012707
0.0012707
0.00123788
0.00123788
0.00127328
0.00123531
0.0012707
0.0012707
0.00123788
0.00123788
0.0012707
0.00123788
0.00123788
0.00127328
0.00123531
0.0012707
0.00123788
0.00123788
0.00123531
0.00122951
0.00119154
0.00122693
0.00122693
0.00119411
0.00119411
0.00122951
0.00119154
0.00122693
0.00122693
0.00119411
0.00119411
0.00122693
0.00119411
0.00119411
0.00122951
0.00119154
0.00122693
0.00119411
0.00119411
0.00119154
0.00118574
0.00114777
0.00118316
0.00118316
0.00115034
0.00115034
0.00118574
0.00114777
0.00118316
0.00118316
0.00115034
0.00115034
0.00118316
0.00115034
0.00115034
0.00118574
0.00114777
0.00118316
0.00115034
0.00115034
0.00114777
0.00114197
0.001104
0.0011394
0.0011394
0.00110657
0.00110657
0.00114197
0.001104
0.0011394
0.0011394
0.00110657
0.00110657
0.0011394
0.00110657
0.00110657
0.00114197
0.001104
0.0011394
0.00110657
0.00110657
0.001104
0.0010982
0.00106024
0.00109563
0.00109563
0.0010628
0.0010628
0.0010982
0.00106024
0.00109563
0.00109563
0.0010628
0.00106281
0.00109563
0.0010628
0.00106281
0.0010982
0.00106024
0.00109563
0.00106281
0.00106281
0.00106024
0.00105444
0.00101647
0.00105186
0.00105186
0.00101904
0.00101904
0.00105444
0.00101647
0.00105186
0.00105186
0.00101904
0.00101904
0.00105186
0.00101904
0.00101904
0.00105444
0.00101647
0.00105186
0.00101904
0.00101904
0.00101647
0.00101067
0.000972701
0.00100809
0.00100809
0.000975269
0.000975269
0.00101067
0.000972701
0.00100809
0.0010081
0.000975269
0.000975269
0.0010081
0.000975269
0.00097527
0.00101067
0.000972701
0.0010081
0.000975269
0.000975269
0.000972701
0.000966901
0.000928935
0.000964328
0.000964327
0.000931503
0.000931503
0.000966901
0.000928935
0.000964327
0.000964328
0.000931503
0.000931503
0.000964328
0.000931503
0.000931503
0.000966901
0.000928935
0.000964328
0.000931503
0.000931503
0.000928935
0.000923135
0.000885169
0.000920561
0.000920561
0.000887737
0.000887737
0.000923135
0.000885169
0.000920561
0.000920561
0.000887737
0.000887737
0.000920562
0.000887737
0.000887737
0.000923135
0.000885169
0.000920562
0.000887737
0.000887737
0.000885169
0.000879369
0.000841403
0.000876795
0.000876795
0.000843971
0.000843971
0.000879369
0.000841403
0.000876795
0.000876795
0.000843971
0.000843971
0.000876796
0.000843971
0.000843971
0.000879369
0.000841403
0.000876795
0.000843971
0.000843971
0.000841403
0.000835603
0.000797636
0.00083303
0.000833029
0.000800205
0.000800204
0.000835603
0.000797636
0.000833029
0.000833029
0.000800204
0.000800204
0.00083303
0.000800204
0.000800205
0.000835603
0.000797636
0.000833029
0.000800204
0.000800204
0.000797636
0.000791837
0.00075387
0.000789263
0.000789263
0.000756438
0.000756438
0.000791836
0.00075387
0.000789263
0.000789263
0.000756438
0.000756438
0.000789263
0.000756438
0.000756438
0.000791837
0.00075387
0.000789263
0.000756438
0.000756438
0.00075387
0.00074807
0.000710105
0.000745497
0.000745497
0.000712673
0.000712673
0.00074807
0.000710105
0.000745497
0.000745497
0.000712673
0.000712673
0.000745497
0.000712673
0.000712673
0.00074807
0.000710105
0.000745497
0.000712673
0.000712673
0.000710105
0.000704306
0.00066634
0.000701732
0.000701732
0.000668909
0.000668909
0.000704306
0.000666341
0.000701732
0.000701732
0.000668909
0.000668909
0.000701732
0.000668909
0.000668909
0.000704306
0.000666341
0.000701732
0.000668909
0.000668909
0.000666341
0.000660541
0.000622575
0.000657967
0.000657967
0.000625143
0.000625143
0.000660541
0.000622575
0.000657967
0.000657967
0.000625143
0.000625143
0.000657968
0.000625143
0.000625144
0.000660541
0.000622575
0.000657967
0.000625143
0.000625143
0.000622575
0.000616776
0.00057881
0.000614202
0.000614202
0.000581378
0.000581378
0.000616776
0.00057881
0.000614202
0.000614202
0.000581378
0.000581378
0.000614202
0.000581378
0.000581378
0.000616776
0.00057881
0.000614202
0.000581378
0.000581378
0.00057881
0.000573011
0.000535045
0.000570437
0.000570437
0.000537613
0.000537613
0.000573011
0.000535045
0.000570437
0.000570437
0.000537613
0.000537613
0.000570437
0.000537613
0.000537614
0.000573011
0.000535045
0.000570437
0.000537613
0.000537613
0.000535045
0.000529246
0.000491281
0.000526672
0.000526672
0.000493849
0.000493849
0.000529246
0.000491281
0.000526672
0.000526672
0.000493849
0.000493849
0.000526672
0.000493849
0.000493849
0.000529246
0.00049128
0.000526672
0.000493849
0.000493849
0.00049128
0.000485481
0.000447517
0.000482908
0.000482908
0.000450085
0.000450085
0.000485481
0.000447517
0.000482908
0.000482908
0.000450085
0.000450085
0.000482908
0.000450085
0.000450085
0.000485481
0.000447517
0.000482908
0.000450085
0.000450085
0.000447517
0.000441718
0.000403755
0.000439144
0.000439144
0.000406323
0.000406323
0.000441718
0.000403755
0.000439144
0.000439144
0.000406322
0.000406323
0.000439145
0.000406323
0.000406323
0.000441718
0.000403755
0.000439144
0.000406323
0.000406323
0.000403755
0.000397956
0.000359992
0.000395382
0.000395382
0.00036256
0.00036256
0.000397956
0.000359993
0.000395382
0.000395382
0.00036256
0.00036256
0.000395382
0.000362561
0.000362561
0.000397956
0.000359992
0.000395382
0.00036256
0.00036256
0.000359993
0.000354193
0.000316229
0.00035162
0.00035162
0.000318797
0.000318797
0.000354193
0.000316229
0.00035162
0.00035162
0.000318797
0.000318797
0.00035162
0.000318797
0.000318797
0.000354194
0.000316229
0.00035162
0.000318797
0.000318797
0.000316229
0.00031043
0.000272465
0.000307856
0.000307856
0.000275033
0.000275033
0.00031043
0.000272465
0.000307856
0.000307856
0.000275033
0.000275033
0.000307857
0.000275033
0.000275033
0.00031043
0.000272465
0.000307856
0.000275033
0.000275033
0.000272465
0.000266665
0.000228699
0.000264092
0.000264092
0.000231268
0.000231268
0.000266665
0.000228699
0.000264092
0.000264092
0.000231268
0.000231268
0.000264092
0.000231268
0.000231268
0.000266666
0.000228699
0.000264092
0.000231268
0.000231268
0.000228699
0.000222897
0.000184926
0.000220327
0.000220327
0.000187487
0.000187487
0.000222897
0.000184927
0.000220327
0.000220327
0.000187487
0.000187487
0.000220327
0.000187487
0.000187487
0.000222898
0.000184926
0.000220327
0.000187487
0.000187487
0.000184926
0.000179109
0.000141182
0.00017654
0.000176541
0.00014376
0.000143761
0.000179109
0.000141183
0.000176541
0.000176541
0.00014376
0.000143761
0.000176541
0.000143761
0.000143761
0.00017911
0.000141182
0.000176541
0.000143761
0.000143761
0.000141183
0.000135352
9.74069e-05
0.000132804
0.000132805
9.9954e-05
9.99549e-05
0.000135353
9.74081e-05
0.000132804
0.000132804
9.99535e-05
9.99533e-05
0.000132804
9.9954e-05
9.99536e-05
0.000135352
9.74063e-05
0.000132804
9.99529e-05
9.99533e-05
9.74064e-05
9.15399e-05
5.3671e-05
8.90079e-05
8.90087e-05
5.62135e-05
5.62142e-05
9.15404e-05
5.36722e-05
8.90072e-05
8.90067e-05
5.62118e-05
5.62114e-05
8.90073e-05
5.62128e-05
5.62111e-05
9.15395e-05
5.36687e-05
8.90069e-05
5.62103e-05
5.62095e-05
5.36683e-05
4.77851e-05
1.38361e-05
4.53958e-05
4.5396e-05
1.60993e-05
1.60986e-05
4.77856e-05
1.38358e-05
4.53942e-05
4.5393e-05
1.60974e-05
1.60937e-05
4.53923e-05
1.60959e-05
1.60919e-05
4.7782e-05
1.38316e-05
4.53905e-05
1.6094e-05
1.60934e-05
1.38303e-05
1.00177e-05
1.04452e-05
1.04455e-05
1.00186e-05
1.04437e-05
1.04414e-05
1.01489e-05
1.01471e-05
1.01466e-05
1.04403e-05
1.00149e-05
1.04409e-05
0.00416989
0.00417965
0.00417445
0.00417446
0.00419683
0.00418362
0.00421221
0.00417766
0.00419683
0.00418362
0.00417767
0.00421221
0.00418819
0.00421595
0.00421595
0.00412526
0.00414439
0.0041536
0.0041173
0.0041181
0.00412085
0.00412524
0.00414437
0.00415359
0.00411728
0.00414813
0.00414813
0.00414813
0.00410471
0.00410471
0.00410471
0.00410471
0.00412276
0.00414859
0.00414852
0.00413158
0.00415161
0.00412167
0.00413246
0.0041182
0.00412085
0.00412277
0.00414852
0.0041486
0.00413158
0.0041516
0.00413246
0.00412167
0.00415446
0.00415444
0.00412598
0.00412129
0.00412129
0.00407847
0.00409795
0.0040993
0.00407693
0.00409684
0.00407649
0.00407847
0.00409794
0.0040993
0.00407693
0.00409277
0.00409277
0.00409277
0.00405518
0.00405518
0.00405518
0.00405518
0.00407713
0.004098
0.00409277
0.0040809
0.00409679
0.0040776
0.00408064
0.00409684
0.00407648
0.00407713
0.00409277
0.004098
0.0040809
0.00409678
0.00408064
0.0040776
0.00409905
0.00409905
0.00407741
0.00407788
0.00407788
0.00402609
0.00404543
0.00404644
0.00402497
0.00404508
0.00402469
0.00402609
0.00404543
0.00404644
0.00402497
0.004042
0.004042
0.004042
0.00400268
0.00400268
0.00400268
0.00400268
0.00402527
0.00404576
0.00404187
0.00402885
0.00404513
0.00402554
0.00402873
0.00404508
0.00402469
0.00402527
0.00404187
0.00404576
0.00402885
0.00404513
0.00402873
0.00402553
0.00404611
0.00404611
0.0040254
0.00402549
0.00402549
0.00397375
0.00399238
0.00399324
0.00397261
0.00399224
0.00397235
0.00397375
0.00399238
0.00399325
0.00397261
0.0039898
0.0039898
0.0039898
0.00395221
0.00395221
0.00395221
0.0039522
0.00397326
0.00399277
0.00398965
0.00397679
0.00399255
0.00397321
0.00397683
0.00399223
0.00397234
0.00397326
0.00398965
0.00399277
0.00397679
0.00399255
0.00397683
0.00397321
0.00399288
0.00399288
0.00397345
0.00397292
0.00397292
0.00392543
0.00394191
0.00394218
0.00392534
0.0039416
0.00392523
0.00392536
0.0039419
0.00394217
0.00392532
0.00394044
0.00394044
0.00394043
0.00390678
0.00390678
0.00390678
0.00390678
0.00392581
0.00394243
0.00394033
0.00392888
0.00394247
0.00392572
0.00392895
0.00394159
0.00392522
0.00392585
0.00394034
0.00394242
0.00392888
0.00394247
0.00392894
0.00392572
0.00394193
0.00394194
0.00392615
0.0039255
0.0039255
0.00388198
0.00389824
0.0038983
0.00388194
0.00389829
0.00388196
0.00388198
0.00389823
0.0038983
0.00388194
0.00389577
0.00389577
0.00389577
0.00386287
0.00386287
0.00386287
0.00386287
0.00388206
0.0038983
0.00389573
0.00388474
0.00389832
0.00388201
0.00388476
0.00389828
0.00388197
0.00388206
0.00389573
0.0038983
0.00388474
0.00389833
0.00388476
0.00388201
0.00389836