/*--------------------------------*- C++ -*----------------------------------*\
| =========                 |                                                 |
| \\      /  F ield         | OpenFOAM: The Open Source CFD Toolbox           |
|  \\    /   O peration     | Version:  2206                                  |
|   \\  /    A nd           | Website:  www.openfoam.com                      |
|    \\/     M anipulation  |                                                 |
\*---------------------------------------------------------------------------*/
FoamFile
{
    version     2.0;
    format      ascii;
    arch        "LSB;label=32;scalar=64";
    class       volScalarField;
    location    "14.5";
    object      epsilon;
}
// * * * * * * * * * * * * * * * * * * * * * * * * * * * * * * * * * * * * * //

dimensions      [0 2 -3 0 0 0 0];

internalField   nonuniform List<scalar> 
28673
(
3.8926e-07
4.09433e-07
3.75783e-07
3.89263e-07
3.89268e-07
4.09452e-07
3.7578e-07
3.89265e-07
3.89271e-07
4.0946e-07
3.75751e-07
3.89185e-07
3.89248e-07
4.09447e-07
3.75585e-07
3.89087e-07
3.89104e-07
4.09322e-07
3.75568e-07
3.89085e-07
3.8909e-07
4.09327e-07
3.75568e-07
3.89084e-07
3.8909e-07
4.09322e-07
3.75568e-07
3.89084e-07
3.8909e-07
4.09325e-07
3.75568e-07
3.89084e-07
3.8909e-07
4.09325e-07
3.75568e-07
3.89083e-07
3.89089e-07
4.09325e-07
3.75568e-07
3.89082e-07
3.89088e-07
4.09321e-07
3.75571e-07
3.89092e-07
3.89098e-07
4.09299e-07
3.7529e-07
3.86112e-07
3.86113e-07
4.05557e-07
3.89275e-07
4.09266e-07
3.8926e-07
4.09292e-07
3.89272e-07
3.89275e-07
3.89271e-07
3.89274e-07
4.09441e-07
4.0928e-07
3.89265e-07
3.8928e-07
3.89273e-07
3.89263e-07
3.89273e-07
4.09289e-07
3.89266e-07
3.89268e-07
3.89265e-07
4.09284e-07
4.09462e-07
4.09293e-07
3.89276e-07
3.89278e-07
3.89275e-07
3.89277e-07
4.09451e-07
4.09285e-07
3.89269e-07
3.89283e-07
3.89266e-07
3.89281e-07
3.89277e-07
3.89266e-07
3.89275e-07
4.09459e-07
4.09295e-07
3.8927e-07
3.89271e-07
3.89268e-07
4.09291e-07
4.09463e-07
4.09292e-07
3.89277e-07
3.89276e-07
3.89263e-07
3.89244e-07
4.09455e-07
4.09265e-07
3.89266e-07
3.89282e-07
3.8926e-07
3.89275e-07
3.89275e-07
3.89233e-07
3.89259e-07
4.09465e-07
4.09294e-07
3.89268e-07
3.89263e-07
3.89252e-07
4.09285e-07
4.09458e-07
4.09179e-07
3.89237e-07
3.89198e-07
3.89119e-07
3.89106e-07
4.0942e-07
4.09143e-07
3.8925e-07
3.89266e-07
3.89131e-07
3.89147e-07
3.89227e-07
3.89094e-07
3.89114e-07
4.09462e-07
4.0919e-07
3.89219e-07
3.89128e-07
3.89107e-07
4.09161e-07
4.09337e-07
4.09146e-07
3.89105e-07
3.89102e-07
3.89096e-07
3.89098e-07
4.0931e-07
4.09151e-07
3.89107e-07
3.89123e-07
3.89088e-07
3.89104e-07
3.89104e-07
3.89086e-07
3.89097e-07
4.09346e-07
4.09153e-07
3.89096e-07
3.8909e-07
3.8909e-07
4.09156e-07
4.0932e-07
4.09154e-07
3.89099e-07
3.89101e-07
3.89096e-07
3.89098e-07
4.09324e-07
4.09145e-07
3.89091e-07
3.89107e-07
3.89089e-07
3.89104e-07
3.89101e-07
3.89084e-07
3.89097e-07
4.09326e-07
4.09161e-07
3.89094e-07
3.8909e-07
3.8909e-07
4.09154e-07
4.09323e-07
4.09155e-07
3.89098e-07
3.891e-07
3.89096e-07
3.89098e-07
4.09317e-07
4.09148e-07
3.89091e-07
3.89106e-07
3.89088e-07
3.89104e-07
3.89099e-07
3.89084e-07
3.89097e-07
4.0933e-07
4.09161e-07
3.89092e-07
3.8909e-07
3.8909e-07
4.09158e-07
4.09325e-07
4.09154e-07
3.89098e-07
3.891e-07
3.89096e-07
3.89098e-07
4.09318e-07
4.09149e-07
3.89091e-07
3.89106e-07
3.89088e-07
3.89104e-07
3.891e-07
3.89084e-07
3.89097e-07
4.09331e-07
4.0916e-07
3.89092e-07
3.8909e-07
3.8909e-07
4.09157e-07
4.09324e-07
4.09154e-07
3.89098e-07
3.891e-07
3.89095e-07
3.89097e-07
4.09319e-07
4.09148e-07
3.89091e-07
3.89106e-07
3.89088e-07
3.89103e-07
3.89099e-07
3.89084e-07
3.89097e-07
4.09329e-07
4.0916e-07
3.89092e-07
3.89089e-07
3.89089e-07
4.09157e-07
4.09324e-07
4.09151e-07
3.89097e-07
3.89099e-07
3.89092e-07
3.89093e-07
4.09318e-07
4.09146e-07
3.8909e-07
3.89105e-07
3.89084e-07
3.891e-07
3.89099e-07
3.89081e-07
3.89093e-07
4.09329e-07
4.09158e-07
3.89091e-07
3.89087e-07
3.89085e-07
4.09155e-07
4.09321e-07
4.09132e-07
3.89094e-07
3.89095e-07
3.89068e-07
3.8907e-07
4.09316e-07
4.09127e-07
3.89087e-07
3.89102e-07
3.8906e-07
3.89075e-07
3.89095e-07
3.89056e-07
3.89071e-07
4.09326e-07
4.09139e-07
3.89087e-07
3.89061e-07
3.89061e-07
4.09136e-07
4.09299e-07
4.0759e-07
3.89109e-07
3.8911e-07
3.87359e-07
3.87359e-07
4.09294e-07
4.07586e-07
3.89101e-07
3.89116e-07
3.87353e-07
3.87362e-07
3.89111e-07
3.87351e-07
3.87359e-07
4.09304e-07
4.07593e-07
3.89101e-07
3.87353e-07
3.87353e-07
4.07588e-07
4.05558e-07
3.86117e-07
3.86117e-07
4.05556e-07
3.86113e-07
3.86119e-07
3.7529e-07
3.7529e-07
3.7529e-07
3.86118e-07
4.05561e-07
3.86113e-07
1.52446e-06
7.84973e-06
1.52517e-06
7.84918e-06
2.48939e-05
2.48904e-05
1.52446e-06
7.85036e-06
3.75785e-07
3.75782e-07
3.75784e-07
3.75783e-07
3.75784e-07
3.75781e-07
5.82604e-07
1.23948e-06
3.79432e-07
3.89262e-07
5.82714e-07
1.23908e-06
3.79432e-07
2.48953e-05
5.82638e-07
3.79432e-07
3.89269e-07
5.82751e-07
3.79432e-07
1.23891e-06
2.54275e-06
2.54327e-06
4.09279e-07
2.54232e-06
2.54285e-06
1.52439e-06
7.8493e-06
1.52479e-06
7.84882e-06
2.48888e-05
2.48875e-05
1.52427e-06
7.85059e-06
1.52464e-06
7.85008e-06
3.75783e-07
3.75784e-07
3.75781e-07
3.75781e-07
3.75781e-07
3.75781e-07
3.75778e-07
5.82616e-07
1.23957e-06
3.7943e-07
3.89267e-07
5.82741e-07
1.23904e-06
3.79433e-07
2.48916e-05
2.48893e-05
5.82652e-07
3.79429e-07
1.23954e-06
3.89273e-07
5.82776e-07
3.79433e-07
1.23906e-06
2.54285e-06
2.54338e-06
4.09287e-07
2.54249e-06
2.54303e-06
1.52437e-06
7.84905e-06
1.52475e-06
7.84884e-06
2.4888e-05
2.48892e-05
1.52422e-06
7.85029e-06
1.52457e-06
7.84995e-06
3.7578e-07
3.75781e-07
3.75777e-07
3.75769e-07
3.75754e-07
3.75771e-07
3.75758e-07
5.82609e-07
1.23954e-06
3.79428e-07
3.89263e-07
5.82714e-07
1.23915e-06
3.79427e-07
2.4889e-05
2.48881e-05
5.82644e-07
3.79429e-07
1.23949e-06
3.89271e-07
5.8275e-07
3.79427e-07
1.23901e-06
2.54286e-06
2.54339e-06
4.09291e-07
2.54248e-06
2.54302e-06
1.52507e-06
7.85212e-06
1.52531e-06
7.85363e-06
2.48974e-05
2.48969e-05
1.52483e-06
7.85135e-06
1.52483e-06
7.8536e-06
3.75708e-07
3.75756e-07
3.75721e-07
3.75612e-07
3.75586e-07
3.75615e-07
3.7559e-07
5.82644e-07
1.24001e-06
3.79367e-07
3.89146e-07
5.82764e-07
1.23949e-06
3.79318e-07
2.48932e-05
2.4897e-05
5.82684e-07
3.79381e-07
1.23967e-06
3.8921e-07
5.82803e-07
3.79332e-07
1.23936e-06
2.54357e-06
2.5441e-06
4.09223e-07
2.54323e-06
2.54377e-06
1.52502e-06
7.85393e-06
1.52543e-06
7.85355e-06
2.48972e-05
2.48966e-05
1.52488e-06
7.8553e-06
1.52525e-06
7.85487e-06
3.75576e-07
3.7559e-07
3.75578e-07
3.75568e-07
3.7557e-07
3.7557e-07
3.7557e-07
5.82623e-07
1.23995e-06
3.79235e-07
3.89088e-07
5.82737e-07
1.23943e-06
3.79234e-07
2.48986e-05
2.48976e-05
5.8266e-07
3.79238e-07
1.23989e-06
3.89096e-07
5.82774e-07
3.79236e-07
1.2394e-06
2.54344e-06
2.54398e-06
4.09146e-07
2.54304e-06
2.54357e-06
1.52502e-06
7.85388e-06
1.52541e-06
7.85354e-06
2.48971e-05
2.48966e-05
1.52487e-06
7.85518e-06
1.52522e-06
7.85481e-06
3.75573e-07
3.75573e-07
3.75574e-07
3.75568e-07
3.75569e-07
3.75571e-07
3.7557e-07
5.82624e-07
1.23994e-06
3.7923e-07
3.89087e-07
5.82733e-07
1.23943e-06
3.79233e-07
2.48982e-05
2.48975e-05
5.82661e-07
3.79231e-07
1.23987e-06
3.89093e-07
5.82771e-07
3.79234e-07
1.23939e-06
2.54342e-06
2.54395e-06
4.09162e-07
2.54304e-06
2.54357e-06
1.52502e-06
7.85388e-06
1.52541e-06
7.85353e-06
2.48971e-05
2.48966e-05
1.52487e-06
7.85517e-06
1.52522e-06
7.85481e-06
3.75572e-07
3.75573e-07
3.75572e-07
3.75568e-07
3.7557e-07
3.75571e-07
3.7557e-07
5.82624e-07
1.23994e-06
3.7923e-07
3.89087e-07
5.82734e-07
1.23943e-06
3.79232e-07
2.48982e-05
2.48975e-05
5.82659e-07
3.79231e-07
1.23987e-06
3.89092e-07
5.82771e-07
3.79234e-07
1.23939e-06
2.54342e-06
2.54395e-06
4.09157e-07
2.54304e-06
2.54357e-06
1.52502e-06
7.85388e-06
1.52541e-06
7.85353e-06
2.48971e-05
2.48966e-05
1.52487e-06
7.85517e-06
1.52522e-06
7.85481e-06
3.75572e-07
3.75573e-07
3.75572e-07
3.75568e-07
3.75569e-07
3.75571e-07
3.7557e-07
5.82623e-07
1.23994e-06
3.7923e-07
3.89087e-07
5.82734e-07
1.23943e-06
3.79233e-07
2.48982e-05
2.48975e-05
5.82649e-07
3.79231e-07
1.23987e-06
3.89092e-07
5.82764e-07
3.79233e-07
1.23939e-06
2.54342e-06
2.54395e-06
4.09156e-07
2.54304e-06
2.54357e-06
1.52502e-06
7.85388e-06
1.52541e-06
7.85369e-06
2.48971e-05
2.48969e-05
1.52487e-06
7.85517e-06
1.52522e-06
7.85497e-06
3.75572e-07
3.75573e-07
3.75572e-07
3.75568e-07
3.7557e-07
3.75571e-07
3.7557e-07
5.82624e-07
1.23992e-06
3.7923e-07
3.89086e-07
5.82734e-07
1.2394e-06
3.79232e-07
2.48982e-05
2.48978e-05
5.82644e-07
3.79231e-07
1.23986e-06
3.89092e-07
5.82756e-07
3.79233e-07
1.23936e-06
2.54341e-06
2.54394e-06
4.09156e-07
2.543e-06
2.54354e-06
1.52532e-06
7.85393e-06
1.52565e-06
7.85484e-06
2.48957e-05
2.48983e-05
1.52516e-06
7.85518e-06
1.52545e-06
7.85614e-06
3.75572e-07
3.75573e-07
3.75572e-07
3.75568e-07
3.75569e-07
3.7557e-07
3.7557e-07
5.82625e-07
1.23938e-06
3.79229e-07
3.89085e-07
5.82729e-07
1.23926e-06
3.79232e-07
2.48973e-05
2.49001e-05
5.82643e-07
3.7923e-07
1.23933e-06
3.8909e-07
5.82748e-07
3.79233e-07
1.23934e-06
2.54308e-06
2.54362e-06
4.09156e-07
2.54438e-06
2.54491e-06
1.52658e-06
7.85169e-06
1.52695e-06
7.8559e-06
2.4879e-05
2.48903e-05
1.52643e-06
7.85292e-06
1.52673e-06
7.85716e-06
3.75572e-07
3.75573e-07
3.75572e-07
3.75567e-07
3.75565e-07
3.75566e-07
3.75566e-07
5.82668e-07
1.23999e-06
3.79228e-07
3.89078e-07
5.82758e-07
1.23948e-06
3.79231e-07
2.48817e-05
2.48926e-05
5.82687e-07
3.7923e-07
1.24009e-06
3.89083e-07
5.82776e-07
3.79232e-07
1.23961e-06
2.54645e-06
2.54695e-06
4.09151e-07
2.55055e-06
2.55104e-06
1.52407e-06
7.84574e-06
1.5275e-06
7.85149e-06
2.48397e-05
2.48389e-05
1.52405e-06
7.84713e-06
1.52735e-06
7.85272e-06
3.75573e-07
3.75574e-07
3.75573e-07
3.75503e-07
3.75503e-07
3.75504e-07
3.75503e-07
5.81861e-07
1.24089e-06
3.79206e-07
3.88911e-07
5.82754e-07
1.23784e-06
3.79233e-07
2.48421e-05
2.48411e-05
5.81874e-07
3.79208e-07
1.241e-06
3.88915e-07
5.82772e-07
3.79234e-07
1.23788e-06
2.55399e-06
2.55447e-06
4.08886e-07
2.56655e-06
2.56683e-06
1.13771e-06
6.96139e-06
1.50631e-06
3.18438e-06
1.96963e-05
7.27343e-06
1.13772e-06
6.9633e-06
1.50639e-06
3.1851e-06
3.73826e-07
3.74134e-07
3.74133e-07
3.76104e-07
3.73833e-07
3.74272e-07
3.74272e-07
5.55966e-07
1.18699e-06
3.785e-07
3.84167e-07
5.73055e-07
1.19136e-06
3.77163e-07
1.96974e-05
7.27329e-06
5.55981e-07
3.785e-07
1.18698e-06
3.84168e-07
5.73064e-07
3.77163e-07
1.19132e-06
2.52602e-06
2.52672e-06
4.00909e-07
2.16954e-06
2.16961e-06
7.84971e-06
1.23898e-06
2.48945e-05
2.54257e-06
2.5421e-06
2.48914e-05
1.23895e-06
7.84947e-06
2.48953e-05
2.48908e-05
2.48954e-05
2.54263e-06
4.09284e-07
2.54222e-06
2.5426e-06
2.48882e-05
2.48906e-05
2.48914e-05
2.48948e-05
4.09459e-07
2.54235e-06
2.5428e-06
2.54258e-06
2.543e-06
1.52446e-06
7.84989e-06
1.52517e-06
7.84955e-06
5.82605e-07
1.23938e-06
3.7943e-07
3.89272e-07
5.82718e-07
1.23897e-06
3.7943e-07
5.82602e-07
1.23948e-06
3.79432e-07
3.89275e-07
5.82716e-07
1.23911e-06
3.79432e-07
1.52479e-06
7.84899e-06
7.84928e-06
1.5244e-06
1.52479e-06
7.84933e-06
7.84965e-06
1.5244e-06
5.82723e-07
3.89271e-07
1.23902e-06
3.79429e-07
1.23945e-06
3.79429e-07
5.82632e-07
5.82721e-07
3.89273e-07
1.23912e-06
3.79431e-07
1.23959e-06
3.79431e-07
5.8263e-07
2.543e-06
2.54263e-06
4.09277e-07
2.54281e-06
2.54243e-06
2.48912e-05
2.48874e-05
2.48885e-05
2.48904e-05
4.09449e-07
2.54292e-06
2.54257e-06
2.54317e-06
2.54288e-06
2.48854e-05
2.48876e-05
5.82603e-07
3.89265e-07
1.23913e-06
3.7943e-07
1.52443e-06
7.85054e-06
5.82597e-07
3.8928e-07
3.79432e-07
1.23919e-06
1.52472e-06
7.85027e-06
7.85057e-06
1.52432e-06
5.82715e-07
3.89265e-07
1.23925e-06
3.7943e-07
1.23961e-06
3.7943e-07
5.82629e-07
1.52469e-06
7.85039e-06
7.85075e-06
1.5243e-06
5.8271e-07
3.8928e-07
3.79431e-07
1.23929e-06
3.79431e-07
1.2397e-06
5.82621e-07
1.52448e-06
7.84967e-06
1.52519e-06
7.84931e-06
5.82609e-07
3.7943e-07
1.23945e-06
3.89273e-07
5.82718e-07
3.7943e-07
1.23902e-06
1.52448e-06
7.85084e-06
1.52519e-06
7.85029e-06
5.82721e-07
3.89262e-07
1.23908e-06
3.7943e-07
1.23957e-06
3.7943e-07
5.8263e-07
1.52481e-06
7.84909e-06
7.84944e-06
1.52442e-06
5.82724e-07
3.89272e-07
3.79429e-07
1.23908e-06
3.79429e-07
1.23951e-06
5.82634e-07
1.52481e-06
7.85008e-06
7.85039e-06
1.52442e-06
4.09277e-07
2.54286e-06
2.54215e-06
2.48945e-05
2.48913e-05
2.48951e-05
4.09452e-07
2.54317e-06
2.54236e-06
2.54338e-06
2.54255e-06
2.48905e-05
2.4894e-05
5.82643e-07
3.79432e-07
1.23957e-06
3.89266e-07
5.82756e-07
3.79432e-07
1.23912e-06
1.52466e-06
1.52554e-06
7.85036e-06
1.52467e-06
7.85129e-06
1.52555e-06
7.85073e-06
5.82755e-07
3.89268e-07
3.79429e-07
1.23905e-06
3.7943e-07
1.23941e-06
5.82666e-07
5.82758e-07
3.89265e-07
3.7943e-07
1.23919e-06
3.7943e-07
1.23962e-06
5.8267e-07
1.52504e-06
7.85024e-06
7.85054e-06
1.52462e-06
1.52505e-06
7.85051e-06
7.85083e-06
1.52462e-06
2.48969e-05
2.48924e-05
2.48981e-05
2.48936e-05
4.09451e-07
2.54245e-06
2.54299e-06
2.54269e-06
2.54322e-06
2.48898e-05
2.48923e-05
2.4891e-05
2.48935e-05
2.48882e-05
2.48867e-05
2.48913e-05
2.48894e-05
2.54268e-06
2.54314e-06
4.09293e-07
2.54239e-06
2.54288e-06
2.48861e-05
2.4887e-05
2.48885e-05
2.48896e-05
4.09464e-07
2.54241e-06
2.54291e-06
2.5427e-06
2.5432e-06
1.52439e-06
7.84943e-06
1.52475e-06
7.84917e-06
5.82619e-07
1.23947e-06
3.79432e-07
3.89276e-07
5.82742e-07
1.23898e-06
3.79432e-07
5.82617e-07
1.23956e-06
3.79433e-07
3.89278e-07
5.8274e-07
1.23907e-06
3.79432e-07
1.52473e-06
7.84871e-06
7.84894e-06
1.52437e-06
1.52473e-06
7.84911e-06
7.84929e-06
1.52438e-06
5.82724e-07
3.89275e-07
1.23895e-06
3.79429e-07
1.23942e-06
3.7943e-07
5.82606e-07
5.82722e-07
3.89277e-07
1.23905e-06
3.79428e-07
1.23952e-06
3.79429e-07
5.82605e-07
2.54326e-06
2.54298e-06
4.09282e-07
2.54295e-06
2.54261e-06
2.48857e-05
2.48844e-05
2.48872e-05
2.48879e-05
4.09454e-07
2.5429e-06
2.54259e-06
2.54328e-06
2.54302e-06
2.48842e-05
2.4885e-05
5.82637e-07
1.2397e-06
3.79433e-07
3.89269e-07
5.82742e-07
1.23922e-06
3.79432e-07
1.52426e-06
7.85052e-06
1.52459e-06
7.8502e-06
5.82629e-07
3.79434e-07
1.23979e-06
3.89283e-07
5.82737e-07
3.79434e-07
1.23931e-06
1.52456e-06
7.84994e-06
7.8502e-06
1.52423e-06
5.82741e-07
3.89268e-07
1.23917e-06
3.79428e-07
1.23965e-06
3.79429e-07
5.82612e-07
1.52456e-06
7.85006e-06
7.85034e-06
1.52424e-06
5.82734e-07
3.89282e-07
3.7943e-07
1.23929e-06
3.79432e-07
1.23979e-06
5.82611e-07
1.5244e-06
7.84922e-06
1.52477e-06
7.84893e-06
5.82621e-07
3.79433e-07
1.23953e-06
3.89277e-07
5.82742e-07
3.79433e-07
1.23903e-06
1.5244e-06
7.85017e-06
1.52477e-06
7.84987e-06
5.82719e-07
3.89267e-07
1.23903e-06
3.79429e-07
1.23952e-06
3.79432e-07
5.82604e-07
1.52475e-06
7.84888e-06
7.84909e-06
1.5244e-06
5.82723e-07
3.89276e-07
3.79428e-07
1.23901e-06
3.7943e-07
1.23948e-06
5.82609e-07
1.52475e-06
7.84977e-06
7.84998e-06
1.5244e-06
2.54361e-06
2.5427e-06
4.09291e-07
2.5433e-06
2.54245e-06
2.48904e-05
2.48885e-05
2.48883e-05
2.48897e-05
4.09463e-07
2.54334e-06
2.54248e-06
2.54371e-06
2.54277e-06
2.48876e-05
2.48887e-05
5.82657e-07
3.79434e-07
1.23964e-06
3.8927e-07
5.82779e-07
3.79433e-07
1.23914e-06
1.52461e-06
7.85034e-06
1.52502e-06
7.85004e-06
1.52461e-06
7.85061e-06
1.52502e-06
7.85031e-06
5.82755e-07
3.89272e-07
3.7943e-07
1.23902e-06
3.79432e-07
1.2395e-06
5.8264e-07
5.8276e-07
3.89268e-07
3.79429e-07
1.23912e-06
3.79431e-07
1.23959e-06
5.82645e-07
1.52501e-06
7.84987e-06
7.85014e-06
1.52461e-06
1.52501e-06
7.85023e-06
7.85043e-06
1.52461e-06
2.48899e-05
2.48883e-05
2.48911e-05
2.48895e-05
4.09459e-07
2.54251e-06
2.54305e-06
2.54281e-06
2.54334e-06
2.48877e-05
2.48886e-05
2.48889e-05
2.48898e-05
2.48866e-05
2.48868e-05
2.48888e-05
2.48881e-05
2.5427e-06
2.54324e-06
4.09292e-07
2.54239e-06
2.54289e-06
2.48917e-05
2.48878e-05
2.48905e-05
2.48889e-05
4.09463e-07
2.54291e-06
2.54324e-06
2.5428e-06
2.5432e-06
1.52437e-06
7.84933e-06
1.52472e-06
7.84972e-06
5.82609e-07
1.2394e-06
3.79428e-07
3.89276e-07
5.82713e-07
1.23898e-06
3.79426e-07
5.82608e-07
1.23952e-06
3.79427e-07
3.89274e-07
5.82713e-07
1.23917e-06
3.79426e-07
1.52477e-06
7.85047e-06
7.8491e-06
1.52475e-06
1.52477e-06
7.85288e-06
7.85041e-06
1.52474e-06
5.82727e-07
3.89272e-07
1.23922e-06
3.7941e-07
1.23948e-06
3.79421e-07
5.82648e-07
5.82725e-07
3.89266e-07
1.23946e-06
3.79408e-07
1.23972e-06
3.79421e-07
5.82644e-07
2.5432e-06
2.54296e-06
4.09284e-07
2.54307e-06
2.54273e-06
2.48852e-05
2.48863e-05
2.48963e-05
2.48915e-05
4.09454e-07
2.54369e-06
2.54342e-06
2.5436e-06
2.54337e-06
2.48931e-05
2.48888e-05
5.82608e-07
1.23961e-06
3.79427e-07
3.89265e-07
5.82718e-07
1.23916e-06
3.79427e-07
1.52423e-06
7.85022e-06
1.52454e-06
7.85001e-06
5.82609e-07
3.79429e-07
1.23978e-06
3.89281e-07
5.82718e-07
3.79428e-07
1.23928e-06
1.52451e-06
7.85048e-06
7.85017e-06
1.52435e-06
5.82716e-07
3.89263e-07
1.23929e-06
3.79421e-07
1.23962e-06
3.79424e-07
5.82629e-07
1.52452e-06
7.85048e-06
7.85023e-06
1.52435e-06
5.82718e-07
3.89278e-07
3.79422e-07
1.2394e-06
3.79425e-07
1.23977e-06
5.82629e-07
1.52439e-06
7.84914e-06
1.52474e-06
7.84953e-06
5.82613e-07
3.79427e-07
1.23946e-06
3.89274e-07
5.82715e-07
3.79425e-07
1.23904e-06
1.52439e-06
7.84992e-06
1.52474e-06
7.84989e-06
5.82724e-07
3.89255e-07
1.23945e-06
3.79408e-07
1.23972e-06
3.79421e-07
5.82644e-07
1.52479e-06
7.85265e-06
7.85031e-06
1.52475e-06
5.82727e-07
3.8927e-07
3.79409e-07
1.23927e-06
3.7942e-07
1.23954e-06
5.82649e-07
1.52479e-06
7.85138e-06
7.85014e-06
1.52475e-06
2.54375e-06
2.54281e-06
4.09295e-07
2.54331e-06
2.54246e-06
2.4888e-05
2.48874e-05
2.48905e-05
2.48892e-05
4.09465e-07
2.54351e-06
2.54268e-06
2.54369e-06
2.54278e-06
2.48898e-05
2.48882e-05
5.82649e-07
3.79428e-07
1.23958e-06
3.89267e-07
5.82751e-07
3.79426e-07
1.23915e-06
1.52461e-06
7.85001e-06
1.525e-06
7.84975e-06
1.52462e-06
7.85038e-06
1.52501e-06
7.85036e-06
5.8276e-07
3.89268e-07
3.79413e-07
1.23912e-06
3.79423e-07
1.23947e-06
5.82681e-07
5.82764e-07
3.89262e-07
3.79411e-07
1.23938e-06
3.79422e-07
1.23966e-06
5.82686e-07
1.52506e-06
7.85019e-06
7.84989e-06
1.52498e-06
1.52507e-06
7.85185e-06
7.85061e-06
1.52498e-06
2.48882e-05
2.48884e-05
2.48894e-05
2.48896e-05
4.09462e-07
2.54302e-06
2.54355e-06
2.54291e-06
2.54344e-06
2.48934e-05
2.48895e-05
2.48945e-05
2.48906e-05
2.48946e-05
2.48956e-05
2.4893e-05
2.48974e-05
2.5434e-06
2.54379e-06
4.09253e-07
2.54314e-06
2.54384e-06
2.48954e-05
2.48961e-05
2.48979e-05
2.48985e-05
4.09404e-07
2.54299e-06
2.54366e-06
2.54342e-06
2.54418e-06
1.52506e-06
7.8542e-06
1.52526e-06
7.85428e-06
5.82647e-07
1.23976e-06
3.79377e-07
3.89191e-07
5.82767e-07
1.23939e-06
3.79325e-07
5.82644e-07
1.23998e-06
3.79369e-07
3.89158e-07
5.82763e-07
1.23951e-06
3.79318e-07
1.52543e-06
7.85361e-06
7.85381e-06
1.52504e-06
1.52543e-06
7.85419e-06
7.8544e-06
1.52504e-06
5.82751e-07
3.89149e-07
1.23936e-06
3.79251e-07
1.23984e-06
3.79281e-07
5.8263e-07
5.8275e-07
3.89126e-07
1.23947e-06
3.79248e-07
1.23996e-06
3.79276e-07
5.82629e-07
2.54409e-06
2.54392e-06
4.09187e-07
2.54361e-06
2.54334e-06
2.48947e-05
2.48941e-05
2.48967e-05
2.48973e-05
4.09343e-07
2.5435e-06
2.54316e-06
2.5439e-06
2.54371e-06
2.48938e-05
2.48947e-05
5.8266e-07
1.23983e-06
3.7941e-07
3.89219e-07
5.82751e-07
1.23957e-06
3.79377e-07
1.52484e-06
7.85118e-06
1.5248e-06
7.85367e-06
5.82659e-07
3.79411e-07
1.23997e-06
3.89234e-07
5.82753e-07
3.79378e-07
1.23968e-06
1.52522e-06
7.85497e-06
7.85492e-06
1.52491e-06
5.82766e-07
3.8917e-07
1.2396e-06
3.79279e-07
1.24006e-06
3.79323e-07
5.82637e-07
1.52523e-06
7.85522e-06
7.8551e-06
1.52493e-06
5.82765e-07
3.89187e-07
3.7928e-07
1.23973e-06
3.79324e-07
1.24022e-06
5.82639e-07
1.52508e-06
7.85398e-06
1.52527e-06
7.8541e-06
5.82648e-07
3.79375e-07
1.23981e-06
3.8918e-07
5.82765e-07
3.79323e-07
1.23944e-06
1.52508e-06
7.85292e-06
1.52527e-06
7.85477e-06
5.82748e-07
3.89113e-07
1.23945e-06
3.79248e-07
1.23996e-06
3.79275e-07
5.82629e-07
1.52545e-06
7.85398e-06
7.85424e-06
1.52506e-06
5.82751e-07
3.89141e-07
3.7925e-07
1.23942e-06
3.79279e-07
1.2399e-06
5.82633e-07
1.52545e-06
7.85475e-06
7.85496e-06
1.52506e-06
2.54413e-06
2.54318e-06
4.09268e-07
2.54413e-06
2.5432e-06
2.48919e-05
2.48962e-05
2.48979e-05
2.48986e-05
4.0942e-07
2.54403e-06
2.54311e-06
2.54459e-06
2.54356e-06
2.48969e-05
2.48974e-05
5.82689e-07
3.79377e-07
1.23993e-06
3.89173e-07
5.82804e-07
3.79325e-07
1.23956e-06
1.52533e-06
7.85093e-06
1.52555e-06
7.85349e-06
1.52533e-06
7.85339e-06
1.52556e-06
7.85522e-06
5.82788e-07
3.89162e-07
3.79255e-07
1.23942e-06
3.79286e-07
1.23986e-06
5.82666e-07
5.82792e-07
3.89134e-07
3.79252e-07
1.23953e-06
3.79281e-07
1.24002e-06
5.82671e-07
1.52574e-06
7.85493e-06
7.85484e-06
1.52528e-06
1.52575e-06
7.8552e-06
7.85541e-06
1.52529e-06
2.48963e-05
2.48973e-05
2.48975e-05
2.48985e-05
4.09375e-07
2.54308e-06
2.54361e-06
2.54351e-06
2.54405e-06
2.4897e-05
2.48977e-05
2.48983e-05
2.48989e-05
2.48958e-05
2.48953e-05
2.48984e-05
2.48977e-05
2.54329e-06
2.54394e-06
4.09145e-07
2.54295e-06
2.54355e-06
2.48952e-05
2.48958e-05
2.48976e-05
2.48982e-05
4.09314e-07
2.54294e-06
2.54353e-06
2.54327e-06
2.54386e-06
1.52502e-06
7.85432e-06
1.52539e-06
7.85415e-06
5.82626e-07
1.23981e-06
3.79238e-07
3.891e-07
5.82738e-07
1.23934e-06
3.79234e-07
5.82624e-07
1.23993e-06
3.79238e-07
3.891e-07
5.82737e-07
1.23946e-06
3.79234e-07
1.52538e-06
7.85354e-06
7.8537e-06
1.52502e-06
1.52538e-06
7.85414e-06
7.8543e-06
1.52502e-06
5.82734e-07
3.89096e-07
1.23934e-06
3.79231e-07
1.23979e-06
3.79231e-07
5.82625e-07
5.82732e-07
3.89098e-07
1.23946e-06
3.79231e-07
1.23992e-06
3.79231e-07
5.82622e-07
2.54383e-06
2.54356e-06
4.09139e-07
2.54348e-06
2.54314e-06
2.48944e-05
2.48937e-05
2.48966e-05
2.48971e-05
4.09313e-07
2.54348e-06
2.54315e-06
2.54381e-06
2.54355e-06
2.48937e-05
2.48944e-05
5.82628e-07
1.24004e-06
3.79252e-07
3.89096e-07
5.82743e-07
1.23957e-06
3.7924e-07
1.5249e-06
7.85536e-06
1.52523e-06
7.85509e-06
5.8263e-07
3.79253e-07
1.24021e-06
3.89112e-07
5.82745e-07
3.79241e-07
1.2397e-06
1.52518e-06
7.85482e-06
7.85502e-06
1.52487e-06
5.82736e-07
3.89089e-07
1.23956e-06
3.79231e-07
1.24002e-06
3.79231e-07
5.82625e-07
1.52521e-06
7.85503e-06
7.85524e-06
1.52489e-06
5.82737e-07
3.89104e-07
3.79233e-07
1.23969e-06
3.79233e-07
1.24018e-06
5.82626e-07
1.52504e-06
7.85414e-06
1.52541e-06
7.85393e-06
5.82628e-07
3.79238e-07
1.23987e-06
3.891e-07
5.82738e-07
3.79234e-07
1.2394e-06
1.52504e-06
7.85488e-06
1.52541e-06
7.85468e-06
5.8273e-07
3.89087e-07
1.23943e-06
3.79231e-07
1.23992e-06
3.79233e-07
5.82623e-07
1.5254e-06
7.85392e-06
7.8541e-06
1.52503e-06
5.82734e-07
3.89097e-07
3.79231e-07
1.2394e-06
3.79231e-07
1.23986e-06
5.82627e-07
1.5254e-06
7.85465e-06
7.85482e-06
1.52503e-06
2.54439e-06
2.54341e-06
4.09152e-07
2.5439e-06
2.54304e-06
2.48974e-05
2.48968e-05
2.48975e-05
2.48983e-05
4.0932e-07
2.54387e-06
2.54302e-06
2.54429e-06
2.54336e-06
2.48967e-05
2.48972e-05
5.82666e-07
3.7924e-07
1.23999e-06
3.89093e-07
5.82776e-07
3.79236e-07
1.23952e-06
1.52526e-06
7.85506e-06
1.52568e-06
7.85484e-06
1.52526e-06
7.85532e-06
1.52569e-06
7.85513e-06
5.82768e-07
3.89092e-07
3.79232e-07
1.23939e-06
3.79234e-07
1.23985e-06
5.82661e-07
5.82773e-07
3.8909e-07
3.79233e-07
1.23951e-06
3.79233e-07
1.23998e-06
5.82666e-07
1.52567e-06
7.8548e-06
7.85498e-06
1.52526e-06
1.52567e-06
7.8551e-06
7.85527e-06
1.52526e-06
2.48975e-05
2.48969e-05
2.48987e-05
2.48981e-05
4.09318e-07
2.54304e-06
2.54358e-06
2.54337e-06
2.5439e-06
2.48969e-05
2.48974e-05
2.48981e-05
2.48986e-05
2.48957e-05
2.48952e-05
2.48981e-05
2.48976e-05
2.54326e-06
2.54385e-06
4.09158e-07
2.54294e-06
2.54353e-06
2.48952e-05
2.48958e-05
2.48976e-05
2.48981e-05
4.0933e-07
2.54294e-06
2.54353e-06
2.54326e-06
2.54385e-06
1.52502e-06
7.85429e-06
1.52538e-06
7.85414e-06
5.82627e-07
1.23979e-06
3.79235e-07
3.89099e-07
5.82734e-07
1.23934e-06
3.79234e-07
5.82625e-07
1.23992e-06
3.79235e-07
3.89101e-07
5.82732e-07
1.23945e-06
3.79235e-07
1.52538e-06
7.85353e-06
7.85369e-06
1.52502e-06
1.52538e-06
7.85414e-06
7.85429e-06
1.52502e-06
5.82736e-07
3.89096e-07
1.23934e-06
3.79231e-07
1.23979e-06
3.79231e-07
5.82626e-07
5.82734e-07
3.89098e-07
1.23946e-06
3.79231e-07
1.23992e-06
3.79231e-07
5.82624e-07
2.54381e-06
2.54356e-06
4.09152e-07
2.54347e-06
2.54314e-06
2.48944e-05
2.48937e-05
2.48966e-05
2.48971e-05
4.0932e-07
2.54348e-06
2.54314e-06
2.54381e-06
2.54355e-06
2.48937e-05
2.48944e-05
5.82626e-07
1.24001e-06
3.79234e-07
3.89091e-07
5.82732e-07
1.23956e-06
3.79234e-07
1.52489e-06
7.8552e-06
1.5252e-06
7.85501e-06
5.82628e-07
3.79236e-07
1.24017e-06
3.89107e-07
5.82734e-07
3.79236e-07
1.23968e-06
1.52518e-06
7.85481e-06
7.85497e-06
1.52487e-06
5.82735e-07
3.8909e-07
1.23956e-06
3.79231e-07
1.24001e-06
3.79232e-07
5.82628e-07
1.5252e-06
7.85501e-06
7.85518e-06
1.52489e-06
5.82736e-07
3.89105e-07
3.79233e-07
1.23968e-06
3.79234e-07
1.24017e-06
5.82629e-07
1.52504e-06
7.85409e-06
1.52539e-06
7.85391e-06
5.82629e-07
3.79235e-07
1.23986e-06
3.89101e-07
5.82734e-07
3.79235e-07
1.2394e-06
1.52504e-06
7.8548e-06
1.52539e-06
7.85465e-06
5.82732e-07
3.89087e-07
1.23943e-06
3.7923e-07
1.23992e-06
3.79232e-07
5.82624e-07
1.52539e-06
7.85391e-06
7.85409e-06
1.52503e-06
5.82736e-07
3.89098e-07
3.79231e-07
1.2394e-06
3.79231e-07
1.23986e-06
5.82629e-07
1.52539e-06
7.85465e-06
7.85479e-06
1.52504e-06
2.54428e-06
2.54335e-06
4.09163e-07
2.54387e-06
2.54302e-06
2.48972e-05
2.48967e-05
2.48975e-05
2.48982e-05
4.09334e-07
2.54387e-06
2.54302e-06
2.54428e-06
2.54334e-06
2.48967e-05
2.48972e-05
5.82666e-07
3.79236e-07
1.23998e-06
3.89093e-07
5.82773e-07
3.79236e-07
1.23951e-06
1.52526e-06
7.85495e-06
1.52567e-06
7.85479e-06
1.52526e-06
7.85524e-06
1.52567e-06
7.85509e-06
5.82769e-07
3.89092e-07
3.79231e-07
1.23939e-06
3.79233e-07
1.23985e-06
5.82662e-07
5.82773e-07
3.89091e-07
3.79232e-07
1.23951e-06
3.79233e-07
1.23998e-06
5.82667e-07
1.52567e-06
7.85478e-06
7.85493e-06
1.52527e-06
1.52567e-06
7.85509e-06
7.85524e-06
1.52526e-06
2.48974e-05
2.48969e-05
2.48986e-05
2.48981e-05
4.09332e-07
2.54304e-06
2.54358e-06
2.54337e-06
2.5439e-06
2.48969e-05
2.48974e-05
2.48981e-05
2.48986e-05
2.48957e-05
2.48952e-05
2.48981e-05
2.48976e-05
2.54326e-06
2.54385e-06
4.09152e-07
2.54294e-06
2.54353e-06
2.48952e-05
2.48958e-05
2.48976e-05
2.48981e-05
4.09324e-07
2.54294e-06
2.54353e-06
2.54326e-06
2.54385e-06
1.52502e-06
7.85429e-06
1.52538e-06
7.85414e-06
5.82625e-07
1.23979e-06
3.79233e-07
3.89098e-07
5.82734e-07
1.23934e-06
3.79233e-07
5.82623e-07
1.23992e-06
3.79233e-07
3.891e-07
5.82733e-07
1.23945e-06
3.79233e-07
1.52538e-06
7.85353e-06
7.85368e-06
1.52502e-06
1.52538e-06
7.85414e-06
7.85429e-06
1.52502e-06
5.82735e-07
3.89096e-07
1.23934e-06
3.79231e-07
1.23979e-06
3.79231e-07
5.82627e-07
5.82733e-07
3.89098e-07
1.23946e-06
3.79231e-07
1.23992e-06
3.79231e-07
5.82625e-07
2.54381e-06
2.54355e-06
4.0915e-07
2.54347e-06
2.54314e-06
2.48944e-05
2.48937e-05
2.48966e-05
2.48971e-05
4.09322e-07
2.54348e-06
2.54314e-06
2.54381e-06
2.54355e-06
2.48937e-05
2.48944e-05
5.82626e-07
1.24001e-06
3.79233e-07
3.89091e-07
5.82736e-07
1.23956e-06
3.79233e-07
1.52489e-06
7.85518e-06
1.5252e-06
7.855e-06
5.82627e-07
3.79235e-07
1.24017e-06
3.89106e-07
5.82736e-07
3.79235e-07
1.23968e-06
1.52518e-06
7.85481e-06
7.85497e-06
1.52487e-06
5.82734e-07
3.89088e-07
1.23956e-06
3.79231e-07
1.24001e-06
3.79231e-07
5.82628e-07
1.5252e-06
7.85501e-06
7.85518e-06
1.52489e-06
5.82735e-07
3.89104e-07
3.79233e-07
1.23968e-06
3.79233e-07
1.24017e-06
5.82628e-07
1.52504e-06
7.85409e-06
1.52539e-06
7.85392e-06
5.82628e-07
3.79233e-07
1.23986e-06
3.89099e-07
5.82736e-07
3.79233e-07
1.2394e-06
1.52504e-06
7.85479e-06
1.5254e-06
7.85465e-06
5.82731e-07
3.89087e-07
1.23943e-06
3.7923e-07
1.23992e-06
3.79232e-07
5.82624e-07
1.5254e-06
7.85392e-06
7.85409e-06
1.52504e-06
5.82735e-07
3.89097e-07
3.79231e-07
1.2394e-06
3.79231e-07
1.23986e-06
5.82629e-07
1.5254e-06
7.85465e-06
7.8548e-06
1.52504e-06
2.54428e-06
2.54334e-06
4.09158e-07
2.54387e-06
2.54302e-06
2.48972e-05
2.48967e-05
2.48975e-05
2.48982e-05
4.09329e-07
2.54387e-06
2.54302e-06
2.54428e-06
2.54334e-06
2.48967e-05
2.48972e-05
5.82666e-07
3.79235e-07
1.23998e-06
3.89092e-07
5.82774e-07
3.79235e-07
1.23951e-06
1.52522e-06
7.85493e-06
1.52559e-06
7.85478e-06
1.52526e-06
7.85524e-06
1.52567e-06
7.85509e-06
5.82765e-07
3.89092e-07
3.79231e-07
1.23939e-06
3.79233e-07
1.23985e-06
5.82655e-07
5.82772e-07
3.8909e-07
3.79232e-07
1.23951e-06
3.79233e-07
1.23998e-06
5.82666e-07
1.52555e-06
7.85478e-06
7.85493e-06
1.52513e-06
1.52567e-06
7.85509e-06
7.85524e-06
1.52526e-06
2.48974e-05
2.48969e-05
2.48986e-05
2.48981e-05
4.09329e-07
2.54304e-06
2.54358e-06
2.54337e-06
2.5439e-06
2.48969e-05
2.48974e-05
2.48981e-05
2.48986e-05
2.48957e-05
2.48952e-05
2.48981e-05
2.48976e-05
2.54326e-06
2.54385e-06
4.09153e-07
2.54294e-06
2.54352e-06
2.48953e-05
2.48958e-05
2.48976e-05
2.48981e-05
4.09324e-07
2.54294e-06
2.54352e-06
2.54326e-06
2.54385e-06
1.52502e-06
7.85429e-06
1.52538e-06
7.85414e-06
5.82625e-07
1.23979e-06
3.79233e-07
3.89098e-07
5.82735e-07
1.23934e-06
3.79233e-07
5.82624e-07
1.23992e-06
3.79233e-07
3.891e-07
5.82734e-07
1.23945e-06
3.79233e-07
1.52538e-06
7.85355e-06
7.85368e-06
1.52502e-06
1.52538e-06
7.85415e-06
7.85429e-06
1.52502e-06
5.82735e-07
3.89096e-07
1.23934e-06
3.79231e-07
1.23979e-06
3.79231e-07
5.82627e-07
5.82733e-07
3.89098e-07
1.23945e-06
3.79231e-07
1.23992e-06
3.79231e-07
5.82624e-07
2.54381e-06
2.54355e-06
4.09148e-07
2.54347e-06
2.54314e-06
2.48944e-05
2.48937e-05
2.48966e-05
2.48971e-05
4.0932e-07
2.54347e-06
2.54314e-06
2.54381e-06
2.54355e-06
2.48937e-05
2.48944e-05
5.82626e-07
1.24001e-06
3.79234e-07
3.89091e-07
5.82736e-07
1.23956e-06
3.79234e-07
1.52489e-06
7.85518e-06
1.5252e-06
7.85501e-06
5.82628e-07
3.79235e-07
1.24017e-06
3.89106e-07
5.82737e-07
3.79235e-07
1.23968e-06
1.52518e-06
7.85482e-06
7.85497e-06
1.52487e-06
5.82734e-07
3.89089e-07
1.23956e-06
3.79231e-07
1.24001e-06
3.79231e-07
5.82627e-07
1.5252e-06
7.85502e-06
7.85518e-06
1.52489e-06
5.82735e-07
3.89104e-07
3.79233e-07
1.23968e-06
3.79233e-07
1.24017e-06
5.82628e-07
1.52504e-06
7.85409e-06
1.5254e-06
7.85392e-06
5.82628e-07
3.79234e-07
1.23986e-06
3.891e-07
5.82736e-07
3.79234e-07
1.2394e-06
1.52504e-06
7.8548e-06
1.5254e-06
7.85465e-06
5.82731e-07