/*--------------------------------*- C++ -*----------------------------------*\
| =========                 |                                                 |
| \\      /  F ield         | OpenFOAM: The Open Source CFD Toolbox           |
|  \\    /   O peration     | Version:  2206                                  |
|   \\  /    A nd           | Website:  www.openfoam.com                      |
|    \\/     M anipulation  |                                                 |
\*---------------------------------------------------------------------------*/
FoamFile
{
    version     2.0;
    format      ascii;
    arch        "LSB;label=32;scalar=64";
    class       volVectorField;
    location    "14.5";
    object      U;
}
// * * * * * * * * * * * * * * * * * * * * * * * * * * * * * * * * * * * * * //

dimensions      [0 1 -1 0 0 0 0];

internalField   nonuniform List<vector> 
28673
(
(-3.11567e-07 5.07471e-07 0.101736)
(-3.83003e-05 -3.83158e-05 0.101716)
(-5.06797e-07 -5.14226e-07 0.101748)
(-2.89692e-07 4.97488e-07 0.101736)
(4.92302e-07 -2.77414e-07 0.101736)
(-3.82753e-05 -3.82887e-05 0.101716)
(-5.46796e-07 -5.09987e-07 0.101748)
(-3.06281e-07 5.52804e-07 0.101735)
(4.35449e-07 -2.2464e-07 0.101736)
(-3.82176e-05 -3.82094e-05 0.101716)
(-4.12786e-07 -4.21759e-07 0.101748)
(-3.88391e-07 5.22122e-07 0.101736)
(5.88327e-07 -4.21806e-07 0.101736)
(-3.84353e-05 -3.84393e-05 0.101716)
(-4.69378e-07 -4.85939e-07 0.101748)
(-3.27008e-07 5.11703e-07 0.101736)
(5.20861e-07 -3.25058e-07 0.101736)
(-3.83265e-05 -3.83465e-05 0.101716)
(-4.79697e-07 -4.84694e-07 0.101748)
(-3.23347e-07 5.12238e-07 0.101736)
(5.16241e-07 -3.20077e-07 0.101736)
(-3.83272e-05 -3.83393e-05 0.101716)
(-4.81013e-07 -4.83539e-07 0.101748)
(-3.25099e-07 5.13528e-07 0.101736)
(5.15086e-07 -3.20243e-07 0.101736)
(-3.83288e-05 -3.83391e-05 0.101716)
(-4.87016e-07 -4.88417e-07 0.101748)
(-3.21608e-07 5.1101e-07 0.101736)
(5.12031e-07 -3.17331e-07 0.101736)
(-3.83275e-05 -3.83374e-05 0.101716)
(-4.99989e-07 -5.00651e-07 0.101748)
(-3.54066e-07 5.37819e-07 0.101736)
(5.39376e-07 -3.51848e-07 0.101736)
(-3.82686e-05 -3.82789e-05 0.101716)
(-4.18195e-07 -4.13484e-07 0.101749)
(-1.04146e-06 9.45973e-07 0.101736)
(9.45221e-07 -1.03874e-06 0.101736)
(-3.75346e-05 -3.75496e-05 0.101716)
(-7.21969e-07 -7.11291e-07 0.101752)
(-2.4754e-06 1.99422e-06 0.101734)
(1.98525e-06 -2.46768e-06 0.101734)
(-3.61717e-05 -3.61865e-05 0.101716)
(-5.59061e-06 -5.53537e-06 0.101751)
(-2.37841e-06 3.10854e-06 0.101731)
(3.06997e-06 -2.35979e-06 0.101731)
(-2.5404e-05 -2.53846e-05 0.101716)
(-4.33534e-05 -4.32243e-05 0.101676)
(4.17516e-05 -3.50173e-05 0.10167)
(-3.51041e-05 4.17354e-05 0.10167)
(4.99482e-05 4.99898e-05 0.10166)
(-5.23457e-07 3.32117e-07 0.101736)
(3.97867e-05 -3.97621e-05 0.101717)
(-3.13065e-07 5.08627e-07 0.101736)
(-3.97908e-05 -3.97827e-05 0.101717)
(5.32498e-07 3.22492e-07 0.101736)
(-5.22086e-07 3.29614e-07 0.101736)
(5.09593e-07 2.78342e-07 0.101736)
(-5.0292e-07 2.98868e-07 0.101736)
(-3.83063e-05 3.82794e-05 0.101716)
(3.98167e-05 -3.97919e-05 0.101717)
(2.93231e-07 4.88161e-07 0.101736)
(3.0844e-07 -5.12709e-07 0.101736)
(-3.28494e-07 -5.22375e-07 0.101736)
(-2.79546e-07 4.87996e-07 0.101736)
(-2.90918e-07 -4.98214e-07 0.101736)
(-3.97685e-05 3.98071e-05 0.101717)
(-5.04918e-07 -3.2811e-07 0.101736)
(5.03252e-07 -2.7318e-07 0.101736)
(-4.80288e-07 -2.8886e-07 0.101736)
(3.97791e-05 3.97978e-05 0.101717)
(3.82882e-05 3.8265e-05 0.101716)
(-3.98748e-05 -3.98298e-05 0.101717)
(5.10469e-07 2.96849e-07 0.101736)
(-5.13135e-07 3.07521e-07 0.101736)
(4.50063e-07 2.25034e-07 0.101736)
(-4.79975e-07 2.47035e-07 0.101736)
(-3.82661e-05 3.82392e-05 0.101716)
(3.99014e-05 -3.98808e-05 0.101716)
(2.86407e-07 4.90926e-07 0.101736)
(2.9034e-07 -5.01967e-07 0.101736)
(2.38532e-07 4.6229e-07 0.101736)
(2.68792e-07 -4.87899e-07 0.101736)
(-3.04193e-07 -5.03777e-07 0.101736)
(-2.31728e-07 4.61209e-07 0.101736)
(-2.37047e-07 -4.43463e-07 0.101736)
(3.82673e-05 -3.82991e-05 0.101716)
(-3.98128e-05 3.98375e-05 0.101717)
(-4.8879e-07 -2.98823e-07 0.101736)
(4.70503e-07 -2.28423e-07 0.101736)
(-4.46937e-07 -2.18565e-07 0.101736)
(3.98477e-05 3.98856e-05 0.101717)
(3.82191e-05 3.82124e-05 0.101716)
(-3.96939e-05 -3.96252e-05 0.101716)
(4.51892e-07 2.70764e-07 0.101735)
(-5.73737e-07 3.20865e-07 0.101735)
(5.81808e-07 4.53404e-07 0.101736)
(-5.65742e-07 4.33005e-07 0.101736)
(-3.82555e-05 3.82252e-05 0.101716)
(3.97259e-05 -3.97039e-05 0.101717)
(2.10818e-07 4.75937e-07 0.101736)
(2.15482e-07 -4.56661e-07 0.101736)
(4.17817e-07 6.06319e-07 0.101736)
(4.25226e-07 -6.03572e-07 0.101735)
(-2.75983e-07 -4.64516e-07 0.101735)
(-4.1845e-07 5.4595e-07 0.101736)
(-4.60439e-07 -5.79022e-07 0.101736)
(3.82368e-05 -3.82712e-05 0.101716)
(-3.96545e-05 3.96678e-05 0.101716)
(-4.82577e-07 -2.47024e-07 0.101735)
(5.75505e-07 -4.40812e-07 0.101735)
(-5.90548e-07 -4.43386e-07 0.101736)
(3.96437e-05 3.9682e-05 0.101717)
(3.84508e-05 3.84315e-05 0.101716)
(-3.97783e-05 -3.97752e-05 0.101717)
(5.74053e-07 4.13153e-07 0.101736)
(-5.39186e-07 4.04455e-07 0.101736)
(5.39811e-07 3.35095e-07 0.101736)
(-5.25849e-07 3.51147e-07 0.101736)
(-3.83939e-05 3.83645e-05 0.101716)
(3.97972e-05 -3.97702e-05 0.101717)
(4.25595e-07 5.57472e-07 0.101736)
(4.46154e-07 -5.95456e-07 0.101736)
(3.50818e-07 5.0521e-07 0.101736)
(3.65272e-07 -5.3061e-07 0.101736)
(-4.19448e-07 -5.57696e-07 0.101736)
(-3.31355e-07 5.11745e-07 0.101736)
(-3.46844e-07 -5.2762e-07 0.101736)
(3.84584e-05 -3.84855e-05 0.101716)
(-3.97532e-05 3.97908e-05 0.101717)
(-5.47153e-07 -4.1451e-07 0.101736)
(5.25214e-07 -3.30421e-07 0.101736)
(-5.03032e-07 -3.49945e-07 0.101736)
(3.97729e-05 3.97851e-05 0.101717)
(3.83494e-05 3.83153e-05 0.101716)
(-3.9795e-05 -3.9774e-05 0.101717)
(5.3583e-07 3.34718e-07 0.101736)
(-5.25795e-07 3.45914e-07 0.101736)
(5.30384e-07 3.28354e-07 0.101736)
(-5.27497e-07 3.41008e-07 0.101736)
(-3.83341e-05 3.83089e-05 0.101716)
(3.98009e-05 -3.97763e-05 0.101717)
(3.40941e-07 5.08803e-07 0.101736)
(3.51028e-07 -5.32203e-07 0.101736)
(3.25954e-07 5.13338e-07 0.101736)
(3.37147e-07 -5.27639e-07 0.101736)
(-3.42302e-07 -5.26003e-07 0.101736)
(-3.2225e-07 5.11869e-07 0.101736)
(-3.38199e-07 -5.22627e-07 0.101736)
(3.83248e-05 -3.83534e-05 0.101716)
(-3.97691e-05 3.98001e-05 0.101717)
(-5.04264e-07 -3.44008e-07 0.101736)
(5.16132e-07 -3.18533e-07 0.101736)
(-5.08896e-07 -3.35693e-07 0.101736)
(3.97741e-05 3.9795e-05 0.101717)
(3.83369e-05 3.83173e-05 0.101716)
(-3.97962e-05 -3.97719e-05 0.101717)
(5.29518e-07 3.33722e-07 0.101736)
(-5.27932e-07 3.41372e-07 0.101736)
(5.28966e-07 3.30504e-07 0.101736)
(-5.29723e-07 3.42142e-07 0.101736)
(-3.83324e-05 3.83054e-05 0.101716)
(3.97992e-05 -3.9775e-05 0.101717)
(3.26405e-07 5.15755e-07 0.101736)
(3.3541e-07 -5.31668e-07 0.101736)
(3.23959e-07 5.15998e-07 0.101736)
(3.35222e-07 -5.28086e-07 0.101736)
(-3.39094e-07 -5.22218e-07 0.101736)
(-3.23961e-07 5.13251e-07 0.101736)
(-3.40126e-07 -5.22045e-07 0.101736)
(3.83139e-05 -3.83472e-05 0.101716)
(-3.97704e-05 3.98004e-05 0.101717)
(-5.09524e-07 -3.35551e-07 0.101736)
(5.1472e-07 -3.18487e-07 0.101736)
(-5.11612e-07 -3.34781e-07 0.101736)
(3.9772e-05 3.97954e-05 0.101717)
(3.8336e-05 3.83189e-05 0.101716)
(-3.97963e-05 -3.97712e-05 0.101717)
(5.28467e-07 3.353e-07 0.101736)
(-5.29718e-07 3.42607e-07 0.101736)
(5.29432e-07 3.32101e-07 0.101736)
(-5.31574e-07 3.4375e-07 0.101736)
(-3.83339e-05 3.83064e-05 0.101716)
(3.97982e-05 -3.97742e-05 0.101717)
(3.25208e-07 5.17281e-07 0.101736)
(3.34522e-07 -5.30942e-07 0.101736)
(3.24924e-07 5.17383e-07 0.101736)
(3.36459e-07 -5.30546e-07 0.101736)
(-3.40951e-07 -5.21987e-07 0.101736)
(-3.25872e-07 5.14395e-07 0.101736)
(-3.42519e-07 -5.23508e-07 0.101736)
(3.83129e-05 -3.83468e-05 0.101716)
(-3.97698e-05 3.97984e-05 0.101717)
(-5.11502e-07 -3.35442e-07 0.101736)
(5.15369e-07 -3.20013e-07 0.101736)
(-5.13364e-07 -3.36339e-07 0.101736)
(3.97709e-05 3.97948e-05 0.101717)
(3.83339e-05 3.83176e-05 0.101716)
(-3.97712e-05 -3.97461e-05 0.101717)
(5.25102e-07 3.32625e-07 0.101736)
(-5.26698e-07 3.39294e-07 0.101736)
(5.21258e-07 3.27216e-07 0.101736)
(-5.24131e-07 3.38446e-07 0.101736)
(-3.83322e-05 3.83048e-05 0.101716)
(3.97737e-05 -3.97485e-05 0.101717)
(3.21256e-07 5.14576e-07 0.101736)
(3.30764e-07 -5.26585e-07 0.101736)
(3.19678e-07 5.10096e-07 0.101736)
(3.31941e-07 -5.23109e-07 0.101736)
(-3.37331e-07 -5.18567e-07 0.101736)
(-3.2092e-07 5.06608e-07 0.101736)
(-3.37119e-07 -5.16033e-07 0.101736)
(3.83114e-05 -3.8345e-05 0.101716)
(-3.9746e-05 3.97748e-05 0.101717)
(-5.08887e-07 -3.31708e-07 0.101736)
(5.07201e-07 -3.15648e-07 0.101736)
(-5.06101e-07 -3.30431e-07 0.101736)
(3.97462e-05 3.97701e-05 0.101717)
(3.82746e-05 3.82593e-05 0.101716)
(-3.94202e-05 -3.93963e-05 0.101717)
(5.5169e-07 3.66494e-07 0.101736)
(-5.53364e-07 3.71127e-07 0.101736)
(2.27136e-07 -6.36501e-08 0.101736)
(-2.33985e-07 -5.16789e-08 0.101736)
(-3.82733e-05 3.82453e-05 0.101716)
(3.94236e-05 -3.93984e-05 0.101717)
(3.5496e-07 5.41241e-07 0.101736)
(3.64293e-07 -5.53447e-07 0.101736)
(-7.20652e-08 2.1857e-07 0.101736)
(-5.5575e-08 -2.31388e-07 0.101736)
(-3.69787e-07 -5.45241e-07 0.101736)
(6.94949e-08 2.15293e-07 0.101736)
(5.62798e-08 -2.25998e-07 0.101736)
(3.82526e-05 -3.82852e-05 0.101716)
(-3.9397e-05 3.94274e-05 0.101717)
(-5.36688e-07 -3.62553e-07 0.101736)
(2.14554e-07 7.4674e-08 0.101736)
(-2.15721e-07 7.03047e-08 0.101736)
(3.93967e-05 3.94194e-05 0.101717)
(3.75408e-05 3.75313e-05 0.101716)
(-3.75536e-05 -3.75125e-05 0.101717)
(9.55917e-07 1.05629e-06 0.101736)
(-9.56562e-07 1.05743e-06 0.101736)
(-6.1233e-07 -1.35244e-06 0.101737)
(6.03181e-07 -1.34376e-06 0.101737)
(-3.75406e-05 3.75164e-05 0.101716)
(3.75496e-05 -3.75173e-05 0.101717)
(1.04446e-06 9.49114e-07 0.101736)
(1.04899e-06 -9.57326e-07 0.101736)
(-1.37632e-06 -6.08913e-07 0.101737)
(-1.35778e-06 6.038e-07 0.101737)
(-1.05301e-06 -9.48831e-07 0.101736)
(1.36243e-06 -6.14987e-07 0.101737)
(1.35097e-06 6.08801e-07 0.101737)
(3.75247e-05 -3.75549e-05 0.101716)
(-3.75254e-05 3.75535e-05 0.101717)
(-9.42781e-07 -1.04416e-06 0.101736)
(-6.21152e-07 1.37415e-06 0.101737)
(6.13403e-07 1.3669e-06 0.101737)
(3.75177e-05 3.7544e-05 0.101717)
(3.61691e-05 3.61789e-05 0.101716)
(-3.29842e-05 -3.29303e-05 0.101718)
(1.99528e-06 2.48494e-06 0.101734)
(-2.00488e-06 2.4963e-06 0.101734)
(-4.90219e-06 -6.5241e-06 0.101738)
(4.88003e-06 -6.52261e-06 0.101738)
(-3.61769e-05 3.61684e-05 0.101716)
(3.29488e-05 -3.29353e-05 0.101718)
(2.46876e-06 1.99159e-06 0.101734)
(2.47985e-06 -1.99758e-06 0.101734)
(-6.56907e-06 -4.88181e-06 0.101738)
(-6.54868e-06 4.89474e-06 0.101738)
(-2.48367e-06 -1.98319e-06 0.101734)
(6.538e-06 -4.86559e-06 0.101738)
(6.53546e-06 4.8943e-06 0.101738)
(3.61664e-05 -3.61859e-05 0.101716)
(-3.29645e-05 3.29552e-05 0.101718)
(-1.98415e-06 -2.47561e-06 0.101734)
(-4.89453e-06 6.54136e-06 0.101738)
(4.88463e-06 6.54436e-06 0.101738)
(3.2937e-05 3.29611e-05 0.101718)
(2.53507e-05 2.54196e-05 0.101716)
(-4.42659e-05 -4.40875e-05 0.101681)
(3.05933e-06 2.40213e-06 0.101731)
(-3.08927e-06 2.40765e-06 0.101731)
(-3.65269e-05 -5.72566e-05 0.10171)
(3.65213e-05 -5.7302e-05 0.10171)
(-2.54014e-05 2.54238e-05 0.101716)
(4.42564e-05 -4.41034e-05 0.101681)
(2.34153e-06 3.09078e-06 0.101731)
(2.35808e-06 -3.05679e-06 0.101731)
(-5.74538e-05 -3.64215e-05 0.10171)
(-5.74007e-05 3.6528e-05 0.10171)
(-2.38198e-06 -3.05507e-06 0.101731)
(5.74296e-05 -3.64332e-05 0.10171)
(5.73883e-05 3.65362e-05 0.10171)
(2.53612e-05 -2.54001e-05 0.101716)
(-4.42078e-05 4.42513e-05 0.101681)
(-3.07377e-06 -2.35857e-06 0.101731)
(-3.64997e-05 5.74084e-05 0.10171)
(3.65113e-05 5.74472e-05 0.10171)
(4.42064e-05 4.42516e-05 0.101681)
(-5.00063e-05 -4.98176e-05 0.10166)
(-3.51334e-05 -4.15654e-05 0.10167)
(3.5121e-05 -4.16006e-05 0.10167)
(4.99914e-05 -4.98196e-05 0.10166)
(-4.17722e-05 -3.50144e-05 0.10167)
(-4.17256e-05 3.51255e-05 0.10167)
(4.33492e-05 -4.32266e-05 0.101676)
(-4.33245e-05 4.33579e-05 0.101676)
(4.3347e-05 4.33706e-05 0.101676)
(4.17219e-05 3.51374e-05 0.10167)
(-4.99452e-05 4.99893e-05 0.10166)
(3.51206e-05 4.17733e-05 0.10167)
(3.46116e-08 -7.49403e-06 0.100775)
(7.05835e-07 5.7219e-06 0.096371)
(-7.88892e-09 7.30999e-06 0.100772)
(-9.7967e-07 -5.89688e-06 0.0963771)
(-1.43745e-06 1.85456e-06 0.0868119)
(1.52999e-06 -2.09174e-06 0.0868187)
(-7.509e-06 9.77323e-09 0.100775)
(-5.87126e-06 -1.00812e-06 0.0963766)
(4.99487e-07 -4.91338e-07 0.101748)
(5.02129e-07 4.77276e-07 0.101748)
(-4.97642e-07 -5.14867e-07 0.101748)
(5.18933e-07 -5.10515e-07 0.101748)
(-4.90571e-07 5.05466e-07 0.101748)
(5.19248e-07 4.96625e-07 0.101748)
(1.2396e-05 -1.64518e-08 0.101565)
(-1.15086e-05 3.38496e-06 0.100951)
(-3.87121e-07 -1.57942e-07 0.101745)
(-3.02168e-07 4.97454e-07 0.101736)
(-1.23798e-05 -6.42397e-09 0.101564)
(1.11748e-05 -3.68224e-06 0.100957)
(-3.74761e-07 -1.63471e-07 0.101745)
(-1.97081e-06 1.44335e-06 0.086818)
(2.50847e-09 1.23757e-05 0.101565)
(-1.4351e-07 -3.88609e-07 0.101745)
(5.16538e-07 -3.07637e-07 0.101736)
(7.73797e-09 -1.23736e-05 0.101563)
(-1.43427e-07 -3.84188e-07 0.101745)
(-3.65082e-06 1.11749e-05 0.100956)
(-3.7259e-06 -4.46489e-06 0.0997489)
(-4.45203e-06 -3.72393e-06 0.0997486)
(3.97612e-05 3.97781e-05 0.101717)
(3.52853e-06 4.30817e-06 0.0997543)
(4.31053e-06 3.51888e-06 0.0997539)
(-1.03747e-08 -7.57386e-06 0.100775)
(7.5505e-07 5.67005e-06 0.0963717)
(-1.87744e-08 7.22708e-06 0.100772)
(-9.27877e-07 -5.97921e-06 0.0963778)
(-1.38751e-06 1.79113e-06 0.0868136)
(1.47679e-06 -2.17878e-06 0.0868212)
(-7.57801e-06 1.01077e-09 0.100775)
(5.65162e-06 7.25575e-07 0.0963711)
(7.29154e-06 -1.34856e-08 0.100772)
(-5.89863e-06 -9.36309e-07 0.0963773)
(5.21535e-07 -5.13927e-07 0.101748)
(-5.00191e-07 5.09269e-07 0.101748)
(5.20783e-07 5.02292e-07 0.101748)
(-5.2807e-07 -5.19742e-07 0.101748)
(5.22984e-07 -5.18862e-07 0.101748)
(-5.14665e-07 5.25693e-07 0.101748)
(5.21921e-07 5.22082e-07 0.101748)
(1.24637e-05 -2.08539e-08 0.101564)
(-1.14215e-05 3.2738e-06 0.100951)
(-3.48665e-07 -1.7163e-07 0.101745)
(-2.78145e-07 4.8496e-07 0.101736)
(-1.22901e-05 -1.32395e-08 0.101563)
(1.12485e-05 -3.71842e-06 0.100956)
(-3.45524e-07 -1.69408e-07 0.101745)
(1.70253e-06 -1.37186e-06 0.0868106)
(-2.02175e-06 1.44462e-06 0.0868195)
(-1.64953e-08 1.24511e-05 0.101565)
(-1.55187e-07 -3.41847e-07 0.101745)
(3.3362e-06 -1.14731e-05 0.100951)
(4.95825e-07 -2.86005e-07 0.101736)
(-1.21061e-09 -1.22785e-05 0.101563)
(-1.64271e-07 -3.52095e-07 0.101745)
(-3.72213e-06 1.12672e-05 0.100956)
(-3.74437e-06 -4.43946e-06 0.0997488)
(-4.42896e-06 -3.73889e-06 0.0997484)
(3.98002e-05 3.98273e-05 0.101717)
(3.56736e-06 4.39392e-06 0.0997542)
(4.38513e-06 3.5654e-06 0.0997538)
(-4.2953e-08 -7.58311e-06 0.100775)
(7.80026e-07 5.67861e-06 0.0963726)
(-7.77813e-08 7.17117e-06 0.100772)
(-9.39769e-07 -6.02317e-06 0.0963787)
(-1.30659e-06 1.52097e-06 0.0868174)
(9.94122e-07 -1.71714e-06 0.086824)
(-7.6841e-06 -2.07258e-09 0.100775)
(5.68284e-06 7.37614e-07 0.096372)
(7.23923e-06 -1.65476e-08 0.100772)
(-6.0282e-06 -7.65304e-07 0.0963781)
(4.82881e-07 -4.82244e-07 0.101748)
(-5.34855e-07 5.27363e-07 0.101748)
(5.14586e-07 5.29393e-07 0.101748)
(-4.3032e-07 -3.93404e-07 0.101748)
(4.03599e-07 -4.00792e-07 0.101748)
(-4.38012e-07 4.35507e-07 0.101748)
(4.04074e-07 4.0041e-07 0.101748)
(1.23929e-05 6.06332e-08 0.101564)
(-1.13264e-05 3.23242e-06 0.100951)
(-3.36192e-07 -1.40066e-07 0.101745)
(-3.93117e-07 6.09955e-07 0.101735)
(-1.22406e-05 -6.02908e-09 0.101563)
(1.10168e-05 -3.44082e-06 0.100956)
(-4.3306e-07 -9.61734e-08 0.101745)
(1.76039e-06 -1.43924e-06 0.086813)
(-2.26377e-06 1.65128e-06 0.0868225)
(-6.45918e-08 1.24187e-05 0.101564)
(-1.86756e-07 -2.81831e-07 0.101745)
(3.35074e-06 -1.1428e-05 0.100951)
(4.4346e-07 -2.97831e-07 0.101735)
(-3.04303e-08 -1.22178e-05 0.101563)
(-2.12459e-07 -3.74139e-07 0.101745)
(-3.96421e-06 1.13108e-05 0.100956)
(-3.63516e-06 -4.3195e-06 0.0997487)
(-4.33044e-06 -3.61537e-06 0.0997484)
(3.97326e-05 3.97859e-05 0.101716)
(3.50986e-06 4.3388e-06 0.099754)
(4.31185e-06 3.51983e-06 0.0997536)
(3.70022e-08 -7.31959e-06 0.100776)
(7.8027e-07 6.68402e-06 0.0963724)
(3.88242e-09 7.55511e-06 0.100772)
(-9.23836e-07 -5.40911e-06 0.0963773)
(-1.57311e-06 2.35092e-06 0.0868126)
(1.50231e-06 -1.85273e-06 0.0868182)
(-7.27736e-06 -2.55029e-08 0.100775)
(6.35283e-06 6.78767e-07 0.0963728)
(7.54421e-06 3.5175e-08 0.100771)
(-4.97036e-06 -9.51851e-07 0.0963777)
(4.44492e-07 -4.3907e-07 0.101748)
(-3.99443e-07 4.15822e-07 0.101748)
(4.32765e-07 4.1327e-07 0.101748)
(-4.60774e-07 -4.82723e-07 0.101748)
(4.9051e-07 -4.80438e-07 0.101748)
(-4.50378e-07 4.64563e-07 0.101748)
(4.8978e-07 4.63024e-07 0.101748)
(1.21224e-05 -2.52602e-08 0.101565)
(-1.1808e-05 3.65203e-06 0.100951)
(-5.31294e-07 -1.42867e-07 0.101745)
(-3.60846e-07 5.15016e-07 0.101736)
(-1.28428e-05 4.81782e-09 0.101563)
(1.09962e-05 -3.52177e-06 0.100957)
(-4.86071e-07 -1.53719e-07 0.101745)
(2.49072e-06 -1.85514e-06 0.0868147)
(-1.39509e-06 1.1916e-06 0.0868196)
(4.6256e-08 1.20914e-05 0.101565)
(-1.14051e-07 -5.42802e-07 0.101745)
(3.81212e-06 -1.19103e-05 0.100951)
(5.63915e-07 -3.78357e-07 0.101736)
(6.06832e-09 -1.28243e-05 0.101563)
(-1.00558e-07 -5.04299e-07 0.101745)
(-3.29592e-06 1.09117e-05 0.100956)
(-3.63612e-06 -4.52877e-06 0.0997486)
(-4.52797e-06 -3.62725e-06 0.0997482)
(3.97468e-05 3.97603e-05 0.101717)
(3.60232e-06 4.31967e-06 0.0997543)
(4.32267e-06 3.58779e-06 0.0997538)
(1.78049e-08 -7.46338e-06 0.100776)
(7.59566e-07 5.88173e-06 0.096371)
(-1.32633e-08 7.31943e-06 0.100772)
(-9.4155e-07 -5.73166e-06 0.0963768)
(-1.49834e-06 1.97431e-06 0.0868116)
(1.43878e-06 -1.97586e-06 0.086818)
(-7.50026e-06 2.06606e-09 0.100775)
(5.92507e-06 7.27565e-07 0.0963708)
(7.40054e-06 -2.00882e-08 0.100772)
(-5.71438e-06 -9.35048e-07 0.0963765)
(4.906e-07 -4.81082e-07 0.101748)
(-4.62224e-07 4.74075e-07 0.101748)
(4.93727e-07 4.67617e-07 0.101748)
(-4.79086e-07 -4.84745e-07 0.101748)
(4.87624e-07 -4.79101e-07 0.101748)
(-4.73903e-07 4.82883e-07 0.101748)
(4.92371e-07 4.71334e-07 0.101748)
(1.23097e-05 -8.68406e-09 0.101565)
(-1.15502e-05 3.41174e-06 0.100951)
(-4.15344e-07 -1.53374e-07 0.101745)
(-3.24114e-07 5.12023e-07 0.101736)
(-1.24347e-05 -5.17142e-09 0.101564)
(1.11092e-05 -3.61628e-06 0.100957)
(-4.06825e-07 -1.52985e-07 0.101745)
(1.91728e-06 -1.44054e-06 0.0868097)
(-1.88072e-06 1.39907e-06 0.0868179)
(-2.82265e-09 1.22972e-05 0.101565)
(-1.33974e-07 -4.19547e-07 0.101745)
(3.46958e-06 -1.16069e-05 0.100952)
(5.18502e-07 -3.20989e-07 0.101736)
(1.84586e-08 -1.24338e-05 0.101564)
(-1.40565e-07 -4.1304e-07 0.101745)
(-3.63907e-06 1.11489e-05 0.100956)
(-3.71377e-06 -4.45065e-06 0.0997489)
(-4.43297e-06 -3.71424e-06 0.0997485)
(3.97745e-05 3.97919e-05 0.101717)
(3.5516e-06 4.32698e-06 0.0997544)
(4.32766e-06 3.54214e-06 0.0997539)
(1.29904e-08 -7.46618e-06 0.100776)
(7.56588e-07 5.86616e-06 0.096371)
(-2.13895e-08 7.30115e-06 0.100772)
(-9.44116e-07 -5.73244e-06 0.0963768)
(-1.51255e-06 1.96781e-06 0.0868116)
(1.43576e-06 -1.97726e-06 0.086818)
(-7.51285e-06 4.2463e-09 0.100775)
(5.85272e-06 7.39347e-07 0.0963707)
(7.34877e-06 -1.15636e-08 0.100772)
(-5.72097e-06 -9.29847e-07 0.0963765)
(4.86896e-07 -4.78954e-07 0.101748)
(-4.75271e-07 4.83391e-07 0.101748)
(4.92943e-07 4.72004e-07 0.101748)
(-4.80682e-07 -4.82863e-07 0.101748)
(4.84886e-07 -4.77407e-07 0.101748)
(-4.76229e-07 4.83871e-07 0.101748)
(4.89787e-07 4.71836e-07 0.101748)
(1.2311e-05 -6.92354e-09 0.101565)
(-1.15399e-05 3.41348e-06 0.100951)
(-4.05033e-07 -1.50867e-07 0.101745)
(-3.23503e-07 5.12898e-07 0.101736)
(-1.24204e-05 4.34424e-11 0.101564)
(1.11109e-05 -3.6142e-06 0.100957)
(-4.03685e-07 -1.51039e-07 0.101745)
(1.88072e-06 -1.46339e-06 0.0868096)
(-1.88026e-06 1.38713e-06 0.0868179)
(-9.44905e-09 1.23061e-05 0.101565)
(-1.46709e-07 -4.03399e-07 0.101745)
(3.43937e-06 -1.15777e-05 0.100952)
(5.15386e-07 -3.19103e-07 0.101736)
(2.26023e-09 -1.24151e-05 0.101564)
(-1.4779e-07 -4.05267e-07 0.101745)
(-3.6418e-06 1.11538e-05 0.100956)
(-3.70789e-06 -4.45097e-06 0.0997489)
(-4.44054e-06 -3.70327e-06 0.0997485)
(3.97731e-05 3.9796e-05 0.101717)
(3.55364e-06 4.32905e-06 0.0997543)
(4.32501e-06 3.54711e-06 0.0997539)
(1.2912e-08 -7.46587e-06 0.100776)
(7.55416e-07 5.86706e-06 0.096371)
(-2.25706e-08 7.30087e-06 0.100772)
(-9.44292e-07 -5.73164e-06 0.0963768)
(-1.51351e-06 1.96724e-06 0.0868116)
(1.43472e-06 -1.97747e-06 0.086818)
(-7.51229e-06 4.29364e-09 0.100775)
(5.85207e-06 7.40611e-07 0.0963706)
(7.3482e-06 -1.16229e-08 0.100772)
(-5.71955e-06 -9.27503e-07 0.0963765)
(4.84858e-07 -4.77806e-07 0.101748)
(-4.76966e-07 4.84076e-07 0.101748)
(4.90961e-07 4.7232e-07 0.101748)
(-4.78531e-07 -4.79814e-07 0.101748)
(4.81414e-07 -4.74475e-07 0.101748)
(-4.73997e-07 4.81039e-07 0.101748)
(4.86178e-07 4.69215e-07 0.101748)
(1.23101e-05 -6.57216e-09 0.101565)
(-1.15403e-05 3.41379e-06 0.100951)
(-4.06913e-07 -1.50171e-07 0.101745)
(-3.25619e-07 5.14238e-07 0.101736)
(-1.2421e-05 5.50886e-10 0.101564)
(1.11102e-05 -3.61371e-06 0.100957)
(-4.06063e-07 -1.50153e-07 0.101745)
(1.88105e-06 -1.46409e-06 0.0868096)
(-1.87988e-06 1.3872e-06 0.0868179)
(-9.9283e-09 1.23062e-05 0.101565)
(-1.48569e-07 -4.02767e-07 0.101745)
(3.43831e-06 -1.15779e-05 0.100952)
(5.15035e-07 -3.19932e-07 0.101736)
(1.92769e-09 -1.24165e-05 0.101564)
(-1.48513e-07 -4.05984e-07 0.101745)
(-3.642e-06 1.11528e-05 0.100956)
(-3.70784e-06 -4.45053e-06 0.0997489)
(-4.44193e-06 -3.70187e-06 0.0997485)
(3.97715e-05 3.97952e-05 0.101717)
(3.55311e-06 4.32887e-06 0.0997543)
(4.32372e-06 3.54727e-06 0.0997539)
(1.67315e-08 -7.45593e-06 0.100776)
(7.55493e-07 5.86465e-06 0.096371)
(-2.2998e-08 7.29973e-06 0.100772)
(-9.47211e-07 -5.7117e-06 0.0963769)
(-1.51127e-06 1.96659e-06 0.0868116)
(1.43424e-06 -1.97439e-06 0.086818)
(-7.50179e-06 9.32437e-09 0.100775)
(5.8497e-06 7.41059e-07 0.0963706)
(7.34603e-06 -1.24154e-08 0.100772)
(-5.70086e-06 -9.32288e-07 0.0963766)
(4.89839e-07 -4.828e-07 0.101748)
(-4.8251e-07 4.88996e-07 0.101748)
(4.95709e-07 4.77682e-07 0.101748)
(-4.48665e-07 -4.48943e-07 0.101748)
(4.51043e-07 -4.45285e-07 0.101748)
(-4.44109e-07 4.50328e-07 0.101748)
(4.54611e-07 4.39926e-07 0.101748)
(1.23007e-05 -4.55083e-09 0.101565)
(-1.15374e-05 3.41313e-06 0.100951)
(-4.00949e-07 -1.54394e-07 0.101745)
(-3.28858e-07 5.15932e-07 0.101736)
(-1.24188e-05 2.37029e-10 0.101564)
(1.10933e-05 -3.60992e-06 0.100957)
(-4.15315e-07 -1.41061e-07 0.101745)
(1.88146e-06 -1.46459e-06 0.0868096)
(-1.87932e-06 1.39209e-06 0.0868179)
(-7.9836e-09 1.22952e-05 0.101565)
(-1.53294e-07 -3.96922e-07 0.101745)
(3.43682e-06 -1.15745e-05 0.100952)
(5.16665e-07 -3.23177e-07 0.101736)
(1.69817e-09 -1.24157e-05 0.101564)
(-1.39721e-07 -4.15958e-07 0.101745)
(-3.63611e-06 1.11352e-05 0.100956)
(-3.70653e-06 -4.45073e-06 0.0997489)
(-4.44207e-06 -3.7003e-06 0.0997485)
(3.97671e-05 3.97913e-05 0.101717)
(3.54379e-06 4.33399e-06 0.0997544)
(4.32823e-06 3.5386e-06 0.099754)
(5.75276e-07 -7.18996e-06 0.100776)
(8.46171e-07 5.2186e-06 0.0963696)
(-1.29059e-07 7.19168e-06 0.100772)
(-1.32574e-06 -2.29215e-06 0.0963844)
(-1.64106e-06 1.8169e-06 0.0868112)
(2.0425e-06 -1.10361e-06 0.0868201)
(-7.22947e-06 5.73283e-07 0.100776)
(5.20065e-06 8.38405e-07 0.0963692)
(7.23305e-06 -1.19138e-07 0.100772)
(-2.2722e-06 -1.32143e-06 0.0963841)
(5.02886e-07 -4.97719e-07 0.101748)
(-4.95714e-07 5.01756e-07 0.101748)
(5.06408e-07 4.92651e-07 0.101748)
(-3.59487e-07 -3.59218e-07 0.101747)
(3.58282e-07 -3.57008e-07 0.101747)
(-3.56039e-07 3.59819e-07 0.101747)
(3.57957e-07 3.57197e-07 0.101747)
(1.1952e-05 1.34587e-07 0.101565)
(-1.11899e-05 3.3444e-06 0.100951)
(-3.58191e-07 -2.00243e-07 0.101745)
(-2.40122e-07 4.38308e-07 0.101736)
(-1.22981e-05 -2.8475e-08 0.101563)
(9.63041e-06 -3.29198e-06 0.100959)
(-4.76715e-07 -4.17156e-08 0.101745)
(1.74689e-06 -1.60911e-06 0.0868093)
(-1.03538e-06 2.02131e-06 0.0868199)
(1.32275e-07 1.19461e-05 0.101565)
(-1.99281e-07 -3.57403e-07 0.101745)
(3.36344e-06 -1.12234e-05 0.100951)
(4.37983e-07 -2.3524e-07 0.101736)
(-2.92812e-08 -1.22975e-05 0.101563)
(-4.19318e-08 -4.78771e-07 0.101745)
(-3.31392e-06 9.66564e-06 0.100958)
(-3.58968e-06 -4.64476e-06 0.0997485)
(-4.63626e-06 -3.58407e-06 0.0997482)
(3.96764e-05 3.96997e-05 0.101717)
(3.25505e-06 5.11368e-06 0.0997554)
(5.10847e-06 3.2509e-06 0.099755)
(9.41424e-06 -2.54557e-06 0.100778)
(5.13741e-06 -1.49201e-05 0.0963053)
(-4.91588e-06 5.40062e-06 0.100771)
(-1.62256e-05 2.3689e-05 0.0965216)
(-4.71046e-06 -5.57495e-06 0.0867927)
(5.15246e-06 1.37814e-05 0.0868662)
(-2.54394e-06 9.44396e-06 0.100778)
(-1.49252e-05 5.13919e-06 0.0963049)
(5.42388e-06 -4.91675e-06 0.100771)
(2.37429e-05 -1.62158e-05 0.0965213)
(4.17615e-07 -4.10375e-07 0.101749)
(-4.12873e-07 4.19275e-07 0.101749)
(4.12632e-07 4.13356e-07 0.101749)
(-1.90789e-07 -1.80343e-07 0.101745)
(1.83937e-07 -1.71255e-07 0.101745)
(-1.74141e-07 1.93455e-07 0.101746)
(1.74576e-07 1.80221e-07 0.101745)
(8.76395e-06 1.85602e-06 0.101565)
(-3.53012e-06 1.17301e-06 0.100942)
(-2.42399e-07 -4.24181e-07 0.101746)
(6.41899e-07 -1.37645e-07 0.101736)
(-1.05345e-05 -1.02674e-06 0.101563)
(-6.80659e-07 1.75978e-06 0.100973)
(-6.62225e-07 3.59554e-07 0.101744)
(-5.58963e-06 -4.67803e-06 0.086791)
(1.38162e-05 5.10931e-06 0.0868658)
(1.84348e-06 8.76542e-06 0.101565)
(-4.23461e-07 -2.38079e-07 0.101746)
(1.1896e-06 -3.54845e-06 0.100942)
(-1.41381e-07 6.5051e-07 0.101736)
(-1.02442e-06 -1.05376e-05 0.101563)
(3.57996e-07 -6.59328e-07 0.101744)
(1.74139e-06 -6.49566e-07 0.100973)
(-4.45067e-07 -3.19281e-06 0.0997473)
(-3.21098e-06 -4.32253e-07 0.0997469)
(3.81609e-05 3.81859e-05 0.101717)
(-6.65702e-06 -8.08648e-06 0.0997603)
(-8.05738e-06 -6.64729e-06 0.0997599)
(6.63658e-06 -8.02515e-06 0.100796)
(9.19487e-06 -1.92484e-05 0.0960778)
(-6.29233e-06 1.06042e-05 0.10076)
(6.69951e-06 3.06098e-06 0.0968058)
(2.80647e-06 -3.01496e-05 0.0867071)
(-5.56632e-06 3.92775e-05 0.0869578)
(-7.99394e-06 6.64475e-06 0.100796)
(-1.9374e-05 9.23961e-06 0.0960775)
(1.05748e-05 -6.27209e-06 0.10076)
(3.13777e-06 6.69144e-06 0.0968057)
(7.20786e-07 -7.10061e-07 0.101752)
(-7.15783e-07 7.24908e-07 0.101752)
(7.1766e-07 7.22541e-07 0.101752)
(-2.86927e-06 -2.82854e-06 0.101738)
(2.84884e-06 -2.83007e-06 0.101738)
(-2.85148e-06 2.86379e-06 0.101738)
(2.843e-06 2.86992e-06 0.101738)
(8.41933e-06 7.74107e-07 0.101569)
(1.23681e-06 -1.00468e-05 0.100915)
(-2.06145e-07 -6.24877e-07 0.101749)
(2.86374e-06 -2.04823e-06 0.101738)
(-1.10038e-05 -7.24335e-07 0.101561)
(-5.37864e-06 2.28333e-06 0.101015)
(2.86038e-07 -3.38491e-08 0.101741)
(-3.01363e-05 2.82942e-06 0.086706)
(3.93376e-05 -5.57469e-06 0.0869569)
(7.73557e-07 8.43221e-06 0.101569)
(-6.23987e-07 -2.01132e-07 0.101749)
(-1.0017e-05 1.21808e-06 0.100914)
(-2.06952e-06 2.86867e-06 0.101738)
(-7.34736e-07 -1.0997e-05 0.101561)
(-4.65381e-08 2.97393e-07 0.101741)
(2.25468e-06 -5.36969e-06 0.101015)
(1.37276e-06 2.09582e-05 0.0996947)
(2.08776e-05 1.35501e-06 0.0996944)
(3.7229e-05 3.72525e-05 0.101718)
(-1.37298e-05 -2.44312e-05 0.0998606)
(-2.44049e-05 -1.37166e-05 0.0998601)
(3.26144e-06 -3.4796e-06 0.100853)
(-1.18138e-05 -2.7797e-05 0.0956781)
(-6.66382e-06 -1.40488e-06 0.100735)
(9.68513e-06 5.65262e-05 0.097345)
(4.79153e-05 -7.65004e-05 0.0866957)
(-5.12351e-05 0.00011041 0.0869536)
(-3.50745e-06 3.31359e-06 0.100853)
(-2.8161e-05 -1.17133e-05 0.0956778)
(-1.44156e-06 -6.69232e-06 0.100735)
(5.69384e-05 9.58981e-06 0.0973449)
(5.56673e-06 -5.53171e-06 0.10175)
(-5.56499e-06 5.58309e-06 0.101751)
(5.55956e-06 5.59511e-06 0.101751)
(-2.97006e-05 -2.95923e-05 0.101683)
(2.96951e-05 -2.95988e-05 0.101683)
(-2.96766e-05 2.971e-05 0.101683)
(2.96901e-05 2.97206e-05 0.101683)
(2.19068e-05 -5.44251e-07 0.101572)
(1.67944e-05 -1.5466e-05 0.100904)
(4.98918e-06 -2.39526e-06 0.101749)
(1.85745e-05 -1.22913e-05 0.101736)
(-4.78849e-07 -8.72147e-07 0.10156)
(-2.46327e-06 -1.55779e-06 0.101015)
(1.22873e-05 -1.91371e-06 0.101727)
(-7.64673e-05 4.79779e-05 0.0866946)
(0.000110077 -5.10676e-05 0.0869528)
(-5.74826e-07 2.18897e-05 0.101572)
(-2.42555e-06 4.98545e-06 0.101749)
(-1.55286e-05 1.67692e-05 0.100904)
(-1.23447e-05 1.85731e-05 0.101736)
(-8.93849e-07 -4.86247e-07 0.10156)
(-1.95649e-06 1.22447e-05 0.101727)
(-1.6385e-06 -2.4361e-06 0.101015)
(2.89751e-05 4.55133e-05 0.0995593)
(4.53986e-05 2.89694e-05 0.0995591)
(3.27353e-05 3.28151e-05 0.101715)
(-3.37935e-05 -4.59328e-05 0.100064)
(-4.60049e-05 -3.36191e-05 0.100064)
(-1.4355e-05 -0.000146861 0.101004)
(-0.000132914 -0.000168847 0.0951808)
(-2.54003e-05 -8.63822e-05 0.100645)
(-0.000224077 -0.00013606 0.0987227)
(0.000258208 -0.000395524 0.0873012)
(0.00015727 -0.000351576 0.09341)
(-0.000147023 -1.44378e-05 0.101003)
(-0.000169702 -0.000132244 0.09518)
(-8.70962e-05 -2.53473e-05 0.100645)
(-0.000136137 -0.000224129 0.0987221)
(-9.62155e-06 -9.52706e-06 0.101607)
(-1.32485e-05 -3.72779e-05 0.101676)
(-3.74151e-05 -1.31546e-05 0.101676)
(-4.20784e-05 -4.19294e-05 0.101599)
(-1.14295e-05 -1.13347e-05 0.101674)
(-1.05468e-05 -3.89862e-05 0.101605)
(-3.91306e-05 -1.0458e-05 0.101605)
(0.000119541 3.35789e-06 0.101421)
(0.000112483 -6.30032e-05 0.101022)
(6.20426e-05 -1.72436e-05 0.101675)
(5.49493e-05 -4.41029e-05 0.101588)
(8.06791e-05 -1.48628e-05 0.101531)
(9.07252e-05 -4.98022e-05 0.101045)
(5.74401e-05 -1.21996e-05 0.101598)
(-0.000395475 0.000258039 0.0873005)
(-0.000351488 0.000157045 0.0934095)
(3.3431e-06 0.00011941 0.101421)
(-1.73088e-05 6.20024e-05 0.101675)
(-6.32122e-05 0.000112456 0.101022)
(-4.42254e-05 5.49219e-05 0.101588)
(-1.48469e-05 8.06128e-05 0.101531)
(-1.22644e-05 5.74098e-05 0.101598)
(-4.99459e-05 9.05197e-05 0.101045)
(0.000234337 8.78944e-05 0.0995173)
(8.78824e-05 0.000234489 0.0995176)
(5.61291e-05 5.61422e-05 0.101571)
(1.23936e-05 -8.51611e-05 0.101328)
(-8.53225e-05 1.2444e-05 0.101328)
(1.03632e-06 -5.87415e-06 0.0963768)
(3.64607e-06 -1.11395e-05 0.100956)
(1.48195e-06 -2.03846e-06 0.0868181)
(4.27405e-06 -3.50406e-06 0.0997543)
(3.45007e-06 -4.23208e-06 0.0997555)
(1.95532e-06 -1.43497e-06 0.0868194)