/*--------------------------------*- C++ -*----------------------------------*\
| =========                 |                                                 |
| \\      /  F ield         | OpenFOAM: The Open Source CFD Toolbox           |
|  \\    /   O peration     | Version:  2206                                  |
|   \\  /    A nd           | Website:  www.openfoam.com                      |
|    \\/     M anipulation  |                                                 |
\*---------------------------------------------------------------------------*/
FoamFile
{
    version     2.0;
    format      ascii;
    arch        "LSB;label=32;scalar=64";
    class       volScalarField;
    location    "16";
    object      nut;
}
// * * * * * * * * * * * * * * * * * * * * * * * * * * * * * * * * * * * * * //

dimensions      [0 2 -1 0 0 0 0];

internalField   nonuniform List<scalar> 
28673
(
0.000217149
0.000201609
0.000228996
0.000217148
0.000217144
0.000201606
0.000228996
0.000217146
0.000217141
0.000201604
0.000228991
0.000217126
0.000217135
0.000201584
0.000228968
0.000217094
0.000217088
0.000201516
0.000228979
0.000217099
0.000217094
0.000201528
0.00022898
0.000217099
0.000217095
0.000201523
0.00022898
0.000217099
0.000217095
0.000201523
0.00022898
0.000217099
0.000217095
0.000201524
0.00022898
0.0002171
0.000217096
0.000201524
0.00022898
0.000217101
0.000217097
0.000201526
0.000228978
0.000217095
0.000217091
0.000201542
0.000229258
0.000219252
0.000219251
0.000204207
0.000217138
0.000201736
0.000217149
0.000201733
0.00021714
0.000217138
0.00021714
0.000217138
0.000201618
0.000201729
0.000217145
0.000217131
0.000217139
0.000217148
0.000217138
0.000201723
0.000217145
0.000217144
0.000217144
0.000201724
0.000201617
0.00020173
0.000217141
0.000217139
0.000217141
0.000217139
0.000201614
0.000201728
0.000217146
0.000217131
0.000217147
0.000217132
0.000217135
0.000217146
0.000217135
0.000201606
0.000201721
0.000217141
0.000217141
0.000217141
0.000201723
0.000201614
0.000201723
0.000217138
0.000217137
0.000217135
0.000217129
0.000201612
0.000201706
0.000217149
0.000217133
0.000217147
0.00021713
0.000217134
0.000217139
0.00021713
0.000201605
0.000201715
0.00021714
0.000217138
0.000217136
0.000201712
0.000201601
0.000201641
0.000217129
0.000217115
0.000217085
0.000217082
0.000201575
0.000201642
0.000217143
0.000217127
0.000217094
0.000217084
0.000217124
0.000217093
0.000217083
0.000201598
0.000201646
0.00021713
0.000217093
0.00021709
0.000201638
0.000201516
0.000201649
0.000217084
0.000217085
0.000217089
0.000217088
0.000201529
0.00020165
0.00021709
0.000217078
0.000217095
0.000217082
0.000217084
0.000217099
0.000217088
0.000201516
0.000201643
0.00021709
0.000217094
0.000217095
0.000201647
0.000201534
0.00020164
0.00021709
0.000217089
0.00021709
0.000217088
0.000201533
0.000201645
0.000217096
0.000217083
0.000217096
0.000217083
0.000217089
0.0002171
0.000217089
0.000201528
0.000201635
0.000217095
0.000217095
0.000217095
0.00020164
0.000201525
0.000201645
0.000217091
0.000217089
0.00021709
0.000217089
0.000201531
0.000201645
0.000217097
0.000217083
0.000217097
0.000217083
0.00021709
0.0002171
0.000217089
0.00020152
0.000201639
0.000217096
0.000217095
0.000217095
0.000201642
0.000201528
0.000201644
0.000217091
0.000217089
0.00021709
0.000217089
0.000201529
0.000201646
0.000217097
0.000217084
0.000217097
0.000217083
0.00021709
0.0002171
0.000217089
0.000201523
0.000201639
0.000217096
0.000217095
0.000217096
0.000201643
0.000201528
0.000201644
0.000217091
0.000217089
0.000217091
0.00021709
0.00020153
0.000201647
0.000217097
0.000217084
0.000217097
0.000217084
0.00021709
0.0002171
0.00021709
0.000201523
0.000201639
0.000217096
0.000217096
0.000217096
0.000201643
0.000201528
0.000201645
0.000217092
0.00021709
0.000217093
0.000217092
0.000201531
0.000201648
0.000217098
0.000217085
0.0002171
0.000217086
0.000217091
0.000217102
0.000217092
0.000201523
0.00020164
0.000217097
0.000217098
0.000217099
0.000201644
0.00020153
0.000201658
0.000217094
0.000217093
0.000217112
0.000217111
0.000201532
0.00020166
0.0002171
0.000217087
0.000217119
0.000217106
0.000217093
0.000217122
0.00021711
0.000201524
0.000201652
0.000217099
0.000217118
0.000217118
0.000201657
0.000201545
0.000202753
0.000217084
0.000217083
0.000218377
0.000218377
0.000201547
0.000202754
0.000217091
0.000217078
0.000218382
0.000218374
0.000217083
0.000218383
0.000218377
0.000201539
0.000202749
0.000217091
0.000218381
0.000218382
0.000202753
0.000204209
0.000219249
0.000219249
0.000204209
0.000219253
0.000219247
0.000229258
0.000229257
0.000229258
0.000219249
0.000204205
0.000219253
5.59753e-05
4.80239e-05
5.59637e-05
4.80226e-05
2.60828e-05
2.60817e-05
5.59756e-05
4.80184e-05
0.000228997
0.000228995
0.000228996
0.000228996
0.000228994
0.000228994
0.000133323
6.77836e-05
0.000225413
0.000217151
0.0001333
6.78027e-05
0.000225413
2.60803e-05
0.00013331
0.00022541
0.000217145
0.000133287
0.00022541
6.78095e-05
3.80835e-05
3.80762e-05
0.000201727
3.80959e-05
3.80886e-05
5.5989e-05
4.80229e-05
5.59751e-05
4.80219e-05
2.60811e-05
2.60806e-05
5.59942e-05
4.80189e-05
5.59796e-05
4.80179e-05
0.000228996
0.000228994
0.000228994
0.000228996
0.000228995
0.000228994
0.000228993
0.000133321
6.77818e-05
0.000225412
0.000217147
0.000133292
6.78051e-05
0.00022541
2.60792e-05
2.60784e-05
0.000133308
0.00022541
6.7788e-05
0.000217141
0.00013328
0.000225408
6.78053e-05
3.80996e-05
3.80923e-05
0.000201724
3.8107e-05
3.80996e-05
5.59943e-05
4.80224e-05
5.59833e-05
4.80216e-05
2.60807e-05
2.60807e-05
5.6002e-05
4.80183e-05
5.5991e-05
4.80175e-05
0.000228995
0.000228994
0.000228993
0.000228994
0.000228991
0.000228992
0.000228991
0.000133327
6.77907e-05
0.000225411
0.000217145
0.000133301
6.78101e-05
0.000225411
2.60782e-05
2.60779e-05
0.000133314
0.000225409
6.77904e-05
0.00021714
0.000133287
0.000225409
6.7812e-05
3.81087e-05
3.81014e-05
0.000201721
3.81142e-05
3.81068e-05
5.59632e-05
4.80237e-05
5.5972e-05
4.8027e-05
2.60825e-05
2.60829e-05
5.59853e-05
4.80188e-05
5.59901e-05
4.80197e-05
0.000228984
0.00022899
0.000228986
0.000228966
0.000228968
0.000228966
0.000228968
0.000133273
6.7769e-05
0.0002254
0.000217107
0.000133283
6.77678e-05
0.000225382
2.60787e-05
2.60793e-05
0.000133264
0.000225402
6.77884e-05
0.000217127
0.000133272
0.000225388
6.77914e-05
3.81034e-05
3.80961e-05
0.000201673
3.80987e-05
3.80912e-05
5.59325e-05
4.80307e-05
5.59257e-05
4.80299e-05
2.6083e-05
2.60828e-05
5.59418e-05
4.80267e-05
5.59418e-05
4.8026e-05
0.000228973
0.000228968
0.000228972
0.000228978
0.00022898
0.000228978
0.000228979
0.000133213
6.77249e-05
0.000225376
0.000217098
0.000133185
6.77419e-05
0.00022538
2.60806e-05
2.60803e-05
0.0001332
0.000225375
6.77388e-05
0.00021709
0.000133172
0.000225378
6.77489e-05
3.80747e-05
3.80672e-05
0.000201646
3.80766e-05
3.80691e-05
5.59318e-05
4.80305e-05
5.59216e-05
4.80298e-05
2.6083e-05
2.60828e-05
5.59399e-05
4.80266e-05
5.59308e-05
4.80258e-05
0.00022898
0.000228979
0.000228979
0.00022898
0.00022898
0.000228979
0.000228979
0.000133214
6.77215e-05
0.000225383
0.000217099
0.000133185
6.77413e-05
0.000225383
2.60805e-05
2.60802e-05
0.000133201
0.000225382
6.7726e-05
0.000217095
0.000133172
0.000225382
6.77446e-05
3.80728e-05
3.80653e-05
0.000201642
3.80765e-05
3.80689e-05
5.59318e-05
4.80305e-05
5.59215e-05
4.80298e-05
2.6083e-05
2.60828e-05
5.594e-05
4.80265e-05
5.59307e-05
4.80258e-05
0.00022898
0.000228979
0.000228979
0.00022898
0.00022898
0.000228979
0.000228979
0.000133214
6.77215e-05
0.000225383
0.0002171
0.000133185
6.77413e-05
0.000225384
2.60805e-05
2.60802e-05
0.000133201
0.000225382
6.77256e-05
0.000217095
0.000133172
0.000225382
6.77445e-05
3.80728e-05
3.80654e-05
0.000201644
3.80765e-05
3.8069e-05
5.59318e-05
4.80305e-05
5.59215e-05
4.80298e-05
2.6083e-05
2.60828e-05
5.594e-05
4.80265e-05
5.59307e-05
4.80258e-05
0.00022898
0.000228979
0.000228979
0.00022898
0.00022898
0.000228979
0.000228979
0.000133214
6.77216e-05
0.000225383
0.0002171
0.000133185
6.77413e-05
0.000225384
2.60805e-05
2.60802e-05
0.000133204
0.000225382
6.77256e-05
0.000217095
0.000133174
0.000225382
6.77445e-05
3.80729e-05
3.80655e-05
0.000201642
3.80765e-05
3.8069e-05
5.59312e-05
4.80305e-05
5.59213e-05
4.80309e-05
2.6083e-05
2.60832e-05
5.59394e-05
4.80265e-05
5.59306e-05
4.80269e-05
0.00022898
0.000228979
0.000228979
0.00022898
0.00022898
0.000228979
0.000228979
0.000133213
6.77238e-05
0.000225383
0.0002171
0.000133185
6.77424e-05
0.000225384
2.60805e-05
2.60806e-05
0.000133206
0.000225382
6.77279e-05
0.000217096
0.000133177
0.000225383
6.77457e-05
3.80737e-05
3.80663e-05
0.000201642
3.80776e-05
3.80701e-05
5.59215e-05
4.80307e-05
5.59139e-05
4.80325e-05
2.60814e-05
2.60829e-05
5.59298e-05
4.80271e-05
5.59233e-05
4.8029e-05
0.00022898
0.000228979
0.000228979
0.00022898
0.00022898
0.000228979
0.000228979
0.000133213
6.7748e-05
0.000225384
0.000217102
0.000133187
6.77389e-05
0.000225384
2.60792e-05
2.60808e-05
0.000133207
0.000225383
6.77505e-05
0.000217097
0.00013318
0.000225383
6.77383e-05
3.80759e-05
3.80685e-05
0.000201643
3.80498e-05
3.80423e-05
5.58892e-05
4.80253e-05
5.58799e-05
4.80349e-05
2.60759e-05
2.60797e-05
5.58975e-05
4.80219e-05
5.58896e-05
4.80315e-05
0.00022898
0.000228979
0.000228979
0.000228983
0.000228984
0.000228983
0.000228984
0.000133202
6.77485e-05
0.000225385
0.000217106
0.000133179
6.7719e-05
0.000225385
2.6074e-05
2.60777e-05
0.000133196
0.000225383
6.77464e-05
0.000217101
0.000133173
0.000225384
6.7716e-05
3.80386e-05
3.80313e-05
0.000201645
3.79726e-05
3.79653e-05
5.59888e-05
4.80192e-05
5.58629e-05
4.80569e-05
2.60641e-05
2.60764e-05
5.5993e-05
4.80156e-05
5.58704e-05
4.80539e-05
0.000228979
0.000228978
0.000228978
0.000229049
0.000229049
0.000229048
0.000229048
0.000133403
6.7752e-05
0.000225405
0.000217234
0.000133189
6.77701e-05
0.000225382
2.60619e-05
2.60744e-05
0.000133398
0.000225404
6.77493e-05
0.000217231
0.000133184
0.00022538
6.77688e-05
3.7923e-05
3.79158e-05
0.000201826
3.77762e-05
3.77712e-05
6.85008e-05
5.13026e-05
5.65767e-05
6.79181e-05
2.83186e-05
2.42101e-05
6.85029e-05
5.13012e-05
5.65776e-05
6.79108e-05
0.00023094
0.000230545
0.000230545
0.000228381
0.000230925
0.000230379
0.000230379
0.000140067
7.07135e-05
0.00022606
0.000220762
0.000135691
7.68806e-05
0.000227298
2.8317e-05
2.42092e-05
0.000140062
0.00022606
7.07147e-05
0.000220761
0.000135687
0.000227298
7.68822e-05
3.89143e-05
3.89051e-05
0.000207603
4.41163e-05
4.41128e-05
4.80222e-05
6.78049e-05
2.60829e-05
3.80875e-05
3.8087e-05
2.60835e-05
6.78029e-05
4.80209e-05
2.60844e-05
2.60833e-05
2.60821e-05
3.80852e-05
0.000201737
3.80975e-05
3.80836e-05
2.60823e-05
2.60832e-05
2.60809e-05
2.6082e-05
0.00020162
3.81034e-05
3.80908e-05
3.80966e-05
3.8083e-05
5.59738e-05
4.80226e-05
5.59597e-05
4.80219e-05
0.000133323
6.77889e-05
0.000225412
0.00021714
0.000133299
6.78058e-05
0.000225412
0.000133324
6.77886e-05
0.000225412
0.000217138
0.0001333
6.7804e-05
0.000225412
5.59695e-05
4.80222e-05
4.80229e-05
5.59836e-05
5.59693e-05
4.80214e-05
4.80221e-05
5.59841e-05
0.0001333
0.00021714
6.78032e-05
0.000225412
6.77895e-05
0.000225412
0.000133322
0.000133301
0.000217139
6.7802e-05
0.000225412
6.77869e-05
0.000225412
0.000133323
3.80869e-05
3.80858e-05
0.000201731
3.8094e-05
3.80922e-05
2.60835e-05
2.60823e-05
2.6081e-05
2.60816e-05
0.000201615
3.80996e-05
3.80971e-05
3.80931e-05
3.80909e-05
2.60815e-05
2.60823e-05
0.000133326
0.000217146
6.77963e-05
0.000225412
5.59746e-05
4.80162e-05
0.000133325
0.000217132
0.000225409
6.77895e-05
5.59711e-05
4.80182e-05
4.80189e-05
5.59865e-05
0.000133301
0.000217146
6.77958e-05
0.000225411
6.77808e-05
0.000225411
0.000133324
5.59708e-05
4.80159e-05
4.80167e-05
5.59861e-05
0.000133301
0.000217132
0.000225409
6.779e-05
0.000225409
6.77728e-05
0.000133324
5.5975e-05
4.80214e-05
5.59638e-05
4.80205e-05
0.000133322
0.000225411
6.77849e-05
0.000217139
0.000133298
0.000225411
6.78024e-05
5.59725e-05
4.80207e-05
5.59584e-05
4.80194e-05
0.000133301
0.00021715
6.7801e-05
0.000225413
6.77851e-05
0.000225413
0.00013332
5.59692e-05
4.80201e-05
4.80209e-05
5.59833e-05
0.0001333
0.000217139
0.000225411
6.77998e-05
0.000225412
6.77858e-05
0.000133321
5.59679e-05
4.80189e-05
4.80196e-05
5.59828e-05
0.000201728
3.80775e-05
3.80929e-05
2.60828e-05
2.60791e-05
2.60804e-05
0.000201611
3.80832e-05
3.80998e-05
3.8076e-05
3.80921e-05
2.60816e-05
2.60828e-05
0.000133308
0.00022541
6.77797e-05
0.000217145
0.000133285
0.00022541
6.77977e-05
5.59608e-05
5.59478e-05
4.80191e-05
5.59603e-05
4.80202e-05
5.59475e-05
4.80188e-05
0.000133288
0.000217145
0.000225411
6.78079e-05
0.000225411
6.77934e-05
0.000133308
0.000133286
0.000217145
0.00022541
6.77956e-05
0.00022541
6.7781e-05
0.000133309
5.59561e-05
4.80187e-05
4.80195e-05
5.59735e-05
5.59556e-05
4.80184e-05
4.80191e-05
5.59731e-05
2.60831e-05
2.60821e-05
2.60822e-05
2.60812e-05
0.000201611
3.81018e-05
3.80944e-05
3.80949e-05
3.80876e-05
2.6081e-05
2.6082e-05
2.60801e-05
2.60811e-05
2.60823e-05
2.60818e-05
2.60809e-05
2.60802e-05
3.81023e-05
3.80897e-05
0.000201732
3.81086e-05
3.80965e-05
2.60816e-05
2.60819e-05
2.60798e-05
2.60803e-05
0.000201617
3.8113e-05
3.81015e-05
3.81074e-05
3.80952e-05
5.59896e-05
4.80218e-05
5.59781e-05
4.80211e-05
0.000133323
6.77872e-05
0.000225411
0.000217141
0.000133299
6.78053e-05
0.000225411
0.000133324
6.77862e-05
0.00022541
0.000217139
0.0001333
6.7806e-05
0.00022541
5.59823e-05
4.80217e-05
4.80223e-05
5.59928e-05
5.59829e-05
4.80209e-05
4.80214e-05
5.59934e-05
0.000133302
0.000217141
6.78108e-05
0.000225411
6.77909e-05
0.000225411
0.000133329
0.000133303
0.00021714
6.78108e-05
0.000225411
6.77911e-05
0.00022541
0.00013333
3.80983e-05
3.80956e-05
0.000201729
3.81045e-05
3.81019e-05
2.60817e-05
2.60812e-05
2.60805e-05
2.60808e-05
0.000201614
3.81083e-05
3.81055e-05
3.81031e-05
3.81e-05
2.60811e-05
2.60814e-05
0.000133323
6.77791e-05
0.00022541
0.000217146
0.000133302
6.77943e-05
0.00022541
5.59935e-05
4.80162e-05
5.59816e-05
4.80155e-05
0.000133324
0.000225409
6.77727e-05
0.000217131
0.000133302
0.000225409
6.77892e-05
5.59888e-05
4.80176e-05
4.80182e-05
5.59991e-05
0.0001333
0.000217147
6.77991e-05
0.000225412
6.77792e-05
0.000225411
0.000133327
5.5988e-05
4.80152e-05
4.80159e-05
5.5998e-05
0.000133301
0.000217132
0.000225409
6.77918e-05
0.000225409
6.77724e-05
0.000133327
5.59887e-05
4.80205e-05
5.59772e-05
4.80198e-05
0.000133322
0.000225409
6.77835e-05
0.000217135
0.000133299
0.000225408
6.78018e-05
5.59884e-05
4.80192e-05
5.59768e-05
4.80186e-05
0.000133299
0.000217147
6.78096e-05
0.00022541
6.77896e-05
0.000225409
0.000133327
5.59819e-05
4.80196e-05
4.80202e-05
5.59923e-05
0.000133301
0.000217135
0.000225409
6.78073e-05
0.000225408
6.77871e-05
0.000133328
5.59816e-05
4.80183e-05
4.80189e-05
5.5992e-05
3.80815e-05
3.80988e-05
0.00020172
3.80884e-05
3.81056e-05
2.60816e-05
2.60809e-05
2.6078e-05
2.60786e-05
0.000201606
3.80931e-05
3.81106e-05
3.80864e-05
3.81044e-05
2.60805e-05
2.6081e-05
0.00013331
0.000225408
6.77791e-05
0.000217141
0.000133286
0.000225407
6.77974e-05
5.59786e-05
4.80191e-05
5.59663e-05
4.80184e-05
5.59784e-05
4.80187e-05
5.5966e-05
4.80181e-05
0.000133287
0.000217141
0.000225408
6.78081e-05
0.000225408
6.77894e-05
0.000133313
0.000133289
0.000217141
0.000225407
6.78025e-05
0.000225407
6.77824e-05
0.000133315
5.59706e-05
4.80181e-05
4.80187e-05
5.59819e-05
5.59705e-05
4.80178e-05
4.80184e-05
5.59817e-05
2.60811e-05
2.60805e-05
2.60802e-05
2.60796e-05
0.000201609
3.81114e-05
3.81041e-05
3.81057e-05
3.80984e-05
2.60803e-05
2.60807e-05
2.60794e-05
2.60798e-05
2.60818e-05
2.60816e-05
2.608e-05
2.60797e-05
3.81113e-05
3.81001e-05
0.000201729
3.81157e-05
3.81054e-05
2.60822e-05
2.60819e-05
2.60799e-05
2.60799e-05
0.000201614
3.81115e-05
3.81066e-05
3.81134e-05
3.81041e-05
5.59948e-05
4.80213e-05
5.59862e-05
4.80212e-05
0.000133327
6.7796e-05
0.000225411
0.000217138
0.000133307
6.7814e-05
0.000225411
0.00013333
6.77953e-05
0.000225411
0.000217136
0.000133309
6.78117e-05
0.000225412
5.59865e-05
4.80224e-05
4.8022e-05
5.59876e-05
5.5987e-05
4.80233e-05
4.80219e-05
5.59883e-05
0.000133299
0.000217137
6.78068e-05
0.000225408
6.7798e-05
0.00022541
0.000133316
0.000133301
0.000217134
6.77973e-05
0.000225408
6.77936e-05
0.000225411
0.000133317
3.81065e-05
3.81032e-05
0.000201724
3.81092e-05
3.81067e-05
2.60813e-05
2.60813e-05
2.60817e-05
2.60811e-05
0.000201607
3.81008e-05
3.80988e-05
3.81054e-05
3.81024e-05
2.60823e-05
2.60818e-05
0.000133334
6.77847e-05
0.000225413
0.00021715
0.000133307
6.7804e-05
0.000225413
5.60009e-05
4.80156e-05
5.59923e-05
4.80151e-05
0.000133333
0.000225409
6.77758e-05
0.000217132
0.000133306
0.000225409
6.77954e-05
5.59956e-05
4.80177e-05
4.80179e-05
5.60014e-05
0.000133306
0.00021715
6.78036e-05
0.000225411
6.77889e-05
0.000225413
0.000133325
5.59944e-05
4.80152e-05
4.80155e-05
5.60003e-05
0.000133306
0.000217132
0.000225408
6.77951e-05
0.000225409
6.77791e-05
0.000133325
5.59937e-05
4.802e-05
5.59851e-05
4.80199e-05
0.000133325
0.000225409
6.77921e-05
0.000217133
0.000133305
0.00022541
6.78102e-05
5.59932e-05
4.80187e-05
5.59847e-05
4.80182e-05
0.000133299
0.000217143
6.77954e-05
0.000225408
6.77913e-05
0.00022541
0.000133315
5.59859e-05
4.80221e-05
4.80207e-05
5.59874e-05
0.000133298
0.000217133
0.000225407
6.78032e-05
0.00022541
6.77939e-05
0.000133315
5.59854e-05
4.8019e-05
4.80187e-05
5.59869e-05
3.80908e-05
3.81091e-05
0.000201719
3.80963e-05
3.81143e-05
2.60807e-05
2.60804e-05
2.60782e-05
2.60782e-05
0.000201604
3.80967e-05
3.8114e-05
3.80938e-05
3.81124e-05
2.60807e-05
2.60806e-05
0.000133313
0.000225408
6.77872e-05
0.000217139
0.000133291
0.000225409
6.78054e-05
5.59833e-05
4.80184e-05
5.59736e-05
4.80179e-05
5.59829e-05
4.80182e-05
5.59733e-05
4.80177e-05
0.000133287
0.000217139
0.000225407
6.78102e-05
0.000225408
6.77964e-05
0.000133304
0.000133285
0.000217139
0.000225406
6.77982e-05
0.000225408
6.77889e-05
0.000133304
5.59745e-05
4.80178e-05
4.80182e-05
5.59772e-05
5.5974e-05
4.80185e-05
4.80182e-05
5.59767e-05
2.60805e-05
2.60803e-05
2.60796e-05
2.60794e-05
0.000201605
3.81098e-05
3.81025e-05
3.81116e-05
3.81044e-05
2.60809e-05
2.60806e-05
2.608e-05
2.60797e-05
2.60827e-05
2.60837e-05
2.60803e-05
2.60811e-05
3.81062e-05
3.81023e-05
0.000201688
3.81003e-05
3.80973e-05
2.60839e-05
2.6084e-05
2.60822e-05
2.60818e-05
0.000201551
3.80816e-05
3.80827e-05
3.80942e-05
3.80914e-05
5.59639e-05
4.80255e-05
5.59753e-05
4.80292e-05
0.000133273
6.77858e-05
0.000225402
0.000217112
0.000133284
6.77822e-05
0.000225386
0.000133274
6.77742e-05
0.0002254
0.000217096
0.000133285
6.77692e-05
0.000225381
5.59483e-05
4.803e-05
4.80296e-05
5.59387e-05
5.59489e-05
4.80297e-05
4.80301e-05
5.59394e-05
0.000133224
0.000217094
6.77575e-05
0.000225373
6.77587e-05
0.000225375
0.000133213
0.000133224
0.000217085
6.77491e-05
0.000225372
6.77459e-05
0.000225373
0.000133214
3.80948e-05
3.80919e-05
0.000201656
3.80852e-05
3.80818e-05
2.60831e-05
2.60835e-05
2.60829e-05
2.60831e-05
0.000201525
3.80707e-05
3.80677e-05
3.80785e-05
3.80759e-05
2.60835e-05
2.60838e-05
0.000133307
6.77854e-05
0.000225408
0.000217133
0.000133296
6.77872e-05
0.000225401
5.59842e-05
4.80159e-05
5.59915e-05
4.80171e-05
0.000133307
0.000225406
6.77757e-05
0.000217119
0.000133296
0.0002254
6.7779e-05
5.5971e-05
4.80255e-05
4.8022e-05
5.59565e-05
0.00013327
0.000217109
6.77586e-05
0.000225373
6.77641e-05
0.000225383
0.000133234
5.59697e-05
4.80232e-05
4.80195e-05
5.59549e-05
0.000133268
0.0002171
0.000225372
6.77501e-05
0.000225382
6.77547e-05
0.000133233
5.5963e-05
4.80244e-05
5.59744e-05
4.80278e-05
0.000133273
0.000225401
6.77819e-05
0.000217107
0.000133284
0.000225384
6.77784e-05
5.59626e-05
4.80199e-05
5.59738e-05
4.80235e-05
0.000133225
0.000217096
6.77468e-05
0.000225373
6.77439e-05
0.000225374
0.000133214
5.5948e-05
4.80285e-05
4.80289e-05
5.59387e-05
0.000133224
0.000217091
0.000225372
6.77537e-05
0.000225374
6.77546e-05
0.000133213
5.59475e-05
4.80268e-05
4.80261e-05
5.59382e-05
3.80919e-05
3.81096e-05
0.000201694
3.80878e-05
3.81051e-05
2.60811e-05
2.60818e-05
2.60804e-05
2.60801e-05
0.000201562
3.80727e-05
3.80907e-05
3.80811e-05
3.80993e-05
2.60828e-05
2.60825e-05
0.000133262
0.0002254
6.77768e-05
0.000217113
0.000133272
0.000225384
6.77737e-05
5.59532e-05
4.80184e-05
5.59631e-05
4.80199e-05
5.59529e-05
4.80194e-05
5.59626e-05
4.8023e-05
0.000133216
0.000217107
0.000225373
6.7763e-05
0.000225376
6.77677e-05
0.000133203
0.000133214
0.000217097
0.000225371
6.7749e-05
0.000225374
6.77497e-05
0.0001332
5.59375e-05
4.8026e-05
4.80222e-05
5.59286e-05
5.59372e-05
4.80263e-05
4.80256e-05
5.59282e-05
2.60815e-05
2.60824e-05
2.60805e-05
2.60815e-05
0.000201536
3.80801e-05
3.80725e-05
3.80924e-05
3.80851e-05
2.60826e-05
2.60828e-05
2.60817e-05
2.60819e-05
2.60841e-05
2.60838e-05
2.60823e-05
2.60821e-05
3.80772e-05
3.80758e-05
0.00020164
3.80781e-05
3.80697e-05
2.60838e-05
2.6084e-05
2.6082e-05
2.60823e-05
0.000201528
3.80778e-05
3.8069e-05
3.80755e-05
3.80668e-05
5.59333e-05
4.803e-05
5.59286e-05
4.80295e-05
0.000133213
6.7738e-05
0.000225376
0.000217087
0.000133188
6.7749e-05
0.00022538
0.000133215
6.77306e-05
0.000225376
0.000217087
0.000133189
6.77443e-05
0.00022538
5.59243e-05
4.80298e-05
4.80303e-05
5.59319e-05
5.5925e-05
4.80295e-05
4.80299e-05
5.59326e-05
0.00013319
0.000217088
6.77474e-05
0.000225383
6.77324e-05
0.000225382
0.000133214
0.000133192
0.000217088
6.77436e-05
0.000225383
6.77276e-05
0.000225382
0.000133215
3.80677e-05
3.80639e-05
0.000201651
3.80702e-05
3.80663e-05
2.60837e-05
2.60834e-05
2.60828e-05
2.6083e-05
0.000201536
3.80703e-05
3.80667e-05
3.80676e-05
3.80632e-05
2.60834e-05
2.60837e-05
0.000133214
6.77366e-05
0.000225372
0.000217091
0.000133196
6.77422e-05
0.000225375
5.594e-05
4.80243e-05
5.59414e-05
4.80238e-05
0.000133213
0.000225371
6.77266e-05
0.000217078
0.000133195
0.000225374
6.77326e-05
5.59342e-05
4.80259e-05
4.80264e-05
5.59401e-05
0.000133191
0.000217093
6.77383e-05
0.000225382
6.77246e-05
0.000225379
0.000133216
5.59322e-05
4.80236e-05
4.80242e-05
5.5938e-05
0.00013319
0.00021708
0.00022538
6.77285e-05
0.000225377
6.77138e-05
0.000133215
5.59323e-05
4.80288e-05
5.59277e-05
4.80283e-05
0.000133212
0.000225376
6.77341e-05
0.000217087
0.000133188
0.00022538
6.77455e-05
5.59319e-05
4.80272e-05
5.59272e-05
4.80267e-05
0.00013319
0.000217099
6.77413e-05
0.000225383
6.77247e-05
0.000225383
0.000133213
5.5924e-05
4.80282e-05
4.80287e-05
5.59316e-05
0.000133189
0.000217088
0.000225383
6.77439e-05
0.000225382
6.77286e-05
0.000133213
5.59236e-05
4.80266e-05
4.8027e-05
5.59312e-05
3.80661e-05
3.80838e-05
0.000201634
3.80589e-05
3.80778e-05
2.6083e-05
2.60828e-05
2.60803e-05
2.60806e-05
0.000201522
3.80579e-05
3.80766e-05
3.80549e-05
3.80746e-05
2.60827e-05
2.6083e-05
0.000133199
0.000225375
6.77291e-05
0.000217093
0.000133175
0.000225378
6.77406e-05
5.59212e-05
4.80269e-05
5.59165e-05
4.80265e-05
5.59207e-05
4.80267e-05
5.59161e-05
4.80262e-05
0.000133177
0.000217092
0.000225382
6.77453e-05
0.000225381
6.77313e-05
0.0001332
0.000133176
0.000217094
0.000225381
6.77389e-05
0.00022538
6.77235e-05
0.0001332
5.59119e-05
4.80264e-05
4.80268e-05
5.59206e-05
5.59114e-05
4.8026e-05
4.80265e-05
5.59202e-05
2.60828e-05
2.60826e-05
2.60819e-05
2.60817e-05
0.000201532
3.80764e-05
3.80689e-05
3.80738e-05
3.80664e-05
2.60825e-05
2.60828e-05
2.60816e-05
2.60819e-05
2.6084e-05
2.60838e-05
2.60822e-05
2.6082e-05
3.80753e-05
3.80664e-05
0.000201647
3.80778e-05
3.80691e-05
2.60838e-05
2.6084e-05
2.6082e-05
2.60822e-05
0.000201529
3.80778e-05
3.80692e-05
3.80753e-05
3.80665e-05
5.59325e-05
4.80299e-05
5.59247e-05
4.80295e-05
0.000133214
6.77313e-05
0.000225383
0.00021709
0.00013319
6.77472e-05
0.000225383
0.000133216
6.77272e-05
0.000225383
0.000217089
0.000133192
6.77436e-05
0.000225383
5.59239e-05
4.80298e-05
4.80302e-05
5.59318e-05
5.59246e-05
4.80295e-05
4.80298e-05
5.59325e-05
0.00013319
0.000217091
6.77472e-05
0.000225383
6.77313e-05
0.000225383
0.000133213
0.000133191
0.000217088
6.77435e-05
0.000225383
6.77272e-05
0.000225383
0.000133215
3.80676e-05
3.80636e-05
0.000201644
3.80703e-05
3.80669e-05
2.60837e-05
2.60834e-05
2.60828e-05
2.6083e-05
0.000201528
3.80703e-05
3.80669e-05
3.80677e-05
3.80637e-05
2.60834e-05
2.60837e-05
0.000133217
6.77221e-05
0.000225383
0.000217096
0.000133193
6.77377e-05
0.000225383
5.59379e-05
4.80241e-05
5.59311e-05
4.80236e-05
0.000133215
0.000225381
6.77111e-05
0.000217083
0.000133191
0.000225381
6.77279e-05
5.59331e-05
4.80258e-05
4.80262e-05
5.594e-05
0.000133193
0.000217097
6.77376e-05
0.000225383
6.77218e-05
0.000225384
0.000133216
5.5931e-05
4.80235e-05
4.8024e-05
5.59379e-05
0.000133192
0.000217083
0.000225381
6.77278e-05
0.000225381
6.77108e-05
0.000133214
5.59315e-05
4.80286e-05
5.59237e-05
4.80282e-05
0.000133213
0.000225383
6.77276e-05
0.000217089
0.00013319
0.000225383
6.77437e-05
5.59311e-05
4.80269e-05
5.59232e-05
4.80265e-05
0.000133191
0.000217099
6.77413e-05
0.000225383
6.77244e-05
0.000225383
0.000133213
5.59236e-05
4.80282e-05
4.80286e-05
5.59315e-05
0.00013319
0.000217089
0.000225383
6.77436e-05
0.000225383
6.77275e-05
0.000133213
5.59231e-05
4.80265e-05
4.80269e-05
5.59311e-05
3.80545e-05
3.80739e-05
0.000201641
3.8058e-05
3.80765e-05
2.60829e-05
2.60827e-05
2.60802e-05
2.60805e-05
0.000201525
3.8058e-05
3.80765e-05
3.80547e-05
3.80739e-05
2.60827e-05
2.60829e-05
0.0001332
0.000225382
6.77225e-05
0.000217095
0.000133176
0.000225382
6.77388e-05
5.59205e-05
4.80267e-05
5.59116e-05
4.80263e-05
5.59202e-05
4.80264e-05
5.59112e-05
4.8026e-05
0.000133178
0.000217095
0.000225382
6.77445e-05
0.000225382
6.77285e-05
0.0001332
0.000133176
0.000217095
0.000225381
6.77387e-05
0.000225381
6.77224e-05
0.0001332
5.59115e-05
4.80263e-05
4.80267e-05
5.59202e-05
5.59112e-05
4.8026e-05
4.80264e-05
5.59202e-05
2.60827e-05
2.60825e-05
2.60818e-05
2.60816e-05
0.000201525
3.80765e-05
3.8069e-05
3.80738e-05
3.80664e-05
2.60825e-05
2.60827e-05
2.60816e-05
2.60818e-05
2.6084e-05
2.60838e-05
2.60822e-05
2.6082e-05
3.80753e-05
3.80666e-05
0.000201644
3.80778e-05
3.80692e-05
2.60838e-05
2.6084e-05
2.6082e-05
2.60822e-05
0.00020153
3.80778e-05
3.80692e-05
3.80753e-05
3.80666e-05
5.59325e-05
4.80298e-05
5.59246e-05
4.80295e-05
0.000133214
6.77312e-05
0.000225383
0.000217091
0.00013319
6.77472e-05
0.000225383
0.000133216
6.77271e-05
0.000225383
0.000217089
0.000133192
6.77436e-05
0.000225383
5.59239e-05
4.80298e-05
4.80302e-05
5.59318e-05
5.59246e-05
4.80295e-05
4.80298e-05
5.59325e-05
0.00013319
0.000217091
6.77472e-05
0.000225383
6.77313e-05
0.000225384
0.000133213
0.000133191
0.000217089
6.77435e-05
0.000225383
6.77272e-05
0.000225383
0.000133215
3.80677e-05
3.80636e-05
0.000201649
3.80703e-05
3.80669e-05
2.60837e-05
2.60834e-05
2.60828e-05
2.6083e-05
0.000201533
3.80703e-05
3.80669e-05
3.80677e-05
3.80636e-05
2.60834e-05
2.60837e-05
0.000133216
6.77217e-05
0.000225383
0.000217097
0.000133193
6.77376e-05
0.000225383
5.59379e-05
4.8024e-05
5.59311e-05
4.80235e-05
0.000133215
0.000225381
6.77107e-05
0.000217083
0.000133191
0.000225381
6.77278e-05
5.59331e-05
4.80258e-05
4.80262e-05
5.594e-05
0.000133193
0.000217097
6.77376e-05
0.000225384
6.77217e-05
0.000225384
0.000133216
5.59311e-05
4.80235e-05
4.8024e-05
5.5938e-05
0.000133192
0.000217084
0.000225381
6.77278e-05
0.000225381
6.77107e-05
0.000133215
5.59314e-05
4.80286e-05
5.59236e-05
4.80282e-05
0.000133213
0.000225383
6.77274e-05
0.00021709
0.00013319
0.000225383
6.77437e-05
5.5931e-05
4.80269e-05
5.59232e-05
4.80265e-05
0.000133191
0.0002171
6.77413e-05
0.000225384
6.77244e-05
0.000225384
0.000133212
5.59235e-05
4.80282e-05
4.80286e-05
5.59314e-05
0.00013319
0.00021709
0.000225383
6.77436e-05
0.000225383
6.77275e-05
0.000133213
5.59231e-05
4.80265e-05
4.80269e-05
5.5931e-05
3.80547e-05
3.80739e-05
0.000201639
3.8058e-05
3.80765e-05
2.60829e-05
2.60827e-05
2.60802e-05
2.60805e-05
0.000201525
3.8058e-05
3.80765e-05
3.80547e-05
3.80739e-05
2.60827e-05
2.60829e-05
0.0001332
0.000225382
6.77223e-05
0.000217096
0.000133176
0.000225382
6.77388e-05
5.59214e-05
4.80267e-05
5.59131e-05
4.80263e-05
5.59202e-05
4.80264e-05
5.59112e-05
4.8026e-05
0.000133179
0.000217095
0.000225382
6.77445e-05
0.000225382
6.77284e-05
0.000133201
0.000133176
0.000217096
0.000225382
6.77387e-05
0.000225382
6.77224e-05
0.0001332
5.59141e-05
4.80263e-05
4.80267e-05
5.59237e-05
5.59112e-05
4.8026e-05
4.80264e-05
5.59203e-05
2.60827e-05
2.60825e-05
2.60818e-05
2.60816e-05
0.000201529
3.80765e-05
3.8069e-05
3.80738e-05
3.80664e-05
2.60825e-05
2.60827e-05
2.60816e-05
2.60818e-05
2.6084e-05
2.60838e-05
2.60822e-05
2.6082e-05
3.80753e-05
3.80666e-05
0.000201643
3.80779e-05
3.80692e-05
2.60838e-05
2.6084e-05
2.60821e-05
2.60822e-05
0.000201529
3.8078e-05
3.80693e-05
3.80754e-05
3.80667e-05
5.59325e-05
4.80298e-05
5.59246e-05
4.80295e-05
0.000133214
6.77312e-05
0.000225384
0.000217091
0.00013319
6.77472e-05
0.000225383
0.000133216
6.77272e-05
0.000225383
0.000217089
0.000133192
6.77436e-05
0.000225383
5.59239e-05
4.80299e-05
4.80302e-05
5.59318e-05
5.59246e-05
4.80296e-05
4.80298e-05
5.59324e-05
0.00013319
0.000217091
6.77472e-05
0.000225383
6.77315e-05
0.000225384
0.000133213
0.000133191
0.00021709
6.77436e-05
0.000225383
6.77275e-05
0.000225383
0.000133215
3.80677e-05
3.80636e-05
0.000201647
3.80704e-05
3.80669e-05
2.60837e-05
2.60834e-05
2.60828e-05
2.6083e-05
0.000201532
3.80705e-05
3.8067e-05
3.80678e-05
3.80637e-05
2.60835e-05
2.60837e-05
0.000133216
6.77217e-05
0.000225384
0.000217097
0.000133193
6.77376e-05
0.000225383
5.5938e-05
4.8024e-05
5.59311e-05
4.80235e-05
0.000133215
0.000225381
6.77107e-05
0.000217084
0.000133191
0.000225381
6.77278e-05
5.59332e-05
4.80259e-05
4.80262e-05
5.594e-05
0.000133192
0.000217097
6.77377e-05
0.000225383
6.7722e-05
0.000225384
0.000133216
5.59311e-05
4.80237e-05
4.8024e-05
5.59379e-05
0.000133191
0.000217084
0.000225381
6.77278e-05
0.000225381
6.7711e-05
0.000133215
5.59314e-05
4.80286e-05
5.59236e-05
4.80282e-05
0.000133213
0.000225383
6.77274e-05
0.00021709
0.00013319
0.000225383
6.77437e-05
5.5931e-05
4.80269e-05
5.59231e-05
4.80265e-05
0.000133191
0.0002171
6.77413e-05
0.000225383
6.77246e-05
0.000225384
0.000133213
5.59235e-05