/*--------------------------------*- C++ -*----------------------------------*\
| =========                 |                                                 |
| \\      /  F ield         | OpenFOAM: The Open Source CFD Toolbox           |
|  \\    /   O peration     | Version:  2206                                  |
|   \\  /    A nd           | Website:  www.openfoam.com                      |
|    \\/     M anipulation  |                                                 |
\*---------------------------------------------------------------------------*/
FoamFile
{
    version     2.0;
    format      ascii;
    arch        "LSB;label=32;scalar=64";
    class       volScalarField;
    location    "16";
    object      p;
}
// * * * * * * * * * * * * * * * * * * * * * * * * * * * * * * * * * * * * * //

dimensions      [0 2 -2 0 0 0 0];

internalField   nonuniform List<scalar> 
28673
(
0.000544214
0.00054686
0.000499071
0.000499044
0.000499043
0.000501689
0.000453905
0.000453878
0.000453876
0.000456523
0.000408732
0.000408704
0.000408704
0.000411351
0.000363548
0.000363519
0.00036352
0.000366165
0.000318371
0.000318343
0.000318343
0.000320989
0.000273195
0.000273167
0.000273167
0.000275813
0.00022802
0.000227992
0.000227992
0.000230637
0.000182842
0.000182819
0.000182819
0.00018546
0.000137656
0.000137609
0.000137609
0.00014024
9.24988e-05
9.24783e-05
9.24763e-05
9.50735e-05
4.79689e-05
4.74031e-05
4.73995e-05
4.98853e-05
1.08458e-05
1.12126e-05
1.12102e-05
1.08204e-05
0.000555508
0.000552867
0.000555508
0.000507695
0.000544214
0.000544214
0.000510335
0.000510335
0.000546859
0.000507696
0.000510335
0.000510335
0.000544215
0.000510335
0.000510335
0.000507694
0.000544214
0.000510335
0.000510335
0.000507695
0.000501689
0.000462529
0.000499043
0.000499044
0.000465168
0.000465169
0.000501689
0.000462529
0.000499043
0.000499043
0.000465168
0.000465168
0.000499043
0.000465169
0.000465168
0.000501688
0.000462528
0.000499043
0.000465168
0.000465168
0.000462529
0.000456523
0.000417359
0.000453878
0.000453878
0.000419999
0.00042
0.000456523
0.000417358
0.000453877
0.000453876
0.000419999
0.000419999
0.000453878
0.00042
0.000419999
0.000456522
0.000417359
0.000453878
0.000419999
0.000419999
0.000417359
0.000411351
0.000372173
0.000408705
0.000408704
0.000374815
0.000374814
0.000411349
0.000372173
0.000408705
0.000408705
0.000374815
0.000374816
0.000408705
0.000374814
0.000374815
0.000411352
0.000372172
0.000408705
0.000374816
0.000374814
0.000372172
0.000366165
0.000326996
0.00036352
0.000363519
0.000329637
0.000329637
0.000366165
0.000326996
0.000363519
0.000363519
0.000329636
0.000329636
0.00036352
0.000329637
0.000329637
0.000366165
0.000326995
0.000363519
0.000329637
0.000329637
0.000326996
0.000320988
0.00028182
0.000318343
0.000318343
0.000284461
0.000284461
0.000320988
0.00028182
0.000318342
0.000318342
0.000284461
0.000284461
0.000318343
0.000284461
0.000284461
0.000320988
0.000281819
0.000318343
0.000284461
0.000284461
0.00028182
0.000275812
0.000236644
0.000273167
0.000273167
0.000239285
0.000239285
0.000275812
0.000236644
0.000273167
0.000273167
0.000239285
0.000239285
0.000273167
0.000239285
0.000239285
0.000275813
0.000236644
0.000273167
0.000239285
0.000239285
0.000236644
0.000230637
0.00019147
0.000227992
0.000227992
0.000194112
0.000194112
0.000230637
0.00019147
0.000227992
0.000227992
0.000194112
0.000194112
0.000227992
0.000194112
0.000194112
0.000230637
0.00019147
0.000227992
0.000194112
0.000194112
0.00019147
0.00018546
0.000146283
0.000182819
0.000182819
0.000148919
0.000148919
0.00018546
0.000146283
0.000182819
0.000182819
0.000148919
0.000148919
0.000182819
0.000148919
0.000148919
0.00018546
0.000146283
0.000182819
0.000148919
0.000148919
0.000146283
0.00014024
0.000101133
0.000137609
0.000137609
0.000103783
0.000103784
0.00014024
0.000101133
0.000137609
0.000137609
0.000103784
0.000103783
0.00013761
0.000103784
0.000103783
0.00014024
0.000101132
0.000137609
0.000103783
0.000103783
0.000101132
9.50753e-05
5.59906e-05
9.24771e-05
9.24777e-05
5.86064e-05
5.86073e-05
9.5075e-05
5.59915e-05
9.24775e-05
9.2476e-05
5.86049e-05
5.86041e-05
9.24767e-05
5.86056e-05
5.86044e-05
9.50741e-05
5.59877e-05
9.24763e-05
5.86027e-05
5.86021e-05
5.59877e-05
4.98894e-05
1.4758e-05
4.74047e-05
4.7405e-05
1.70714e-05
1.70707e-05
4.98896e-05
1.47577e-05
4.74027e-05
4.74009e-05
1.70698e-05
1.70654e-05
4.74004e-05
1.70681e-05
1.70639e-05
4.98856e-05
1.47525e-05
4.73989e-05
1.70655e-05
1.70648e-05
1.47514e-05
1.08249e-05
1.1214e-05
1.12141e-05
1.08258e-05
1.12125e-05
1.12097e-05
1.08455e-05
1.08435e-05
1.08431e-05
1.12088e-05
1.08215e-05
1.12091e-05
0.000530123
0.000547035
0.000547034
0.000530122
0.000547036
0.000530122
0.000530122
0.000530123
0.000544243
0.000544242
0.000510363
0.000510364
0.000510363
0.000510363
0.000530182
0.000547002
0.000544221
0.00053292
0.000546983
0.000530154
0.000532928
0.000530121
0.000530182
0.000544222
0.000532921
0.000546983
0.000532928
0.000530154
0.00054704
0.00054704
0.00053028
0.000530118
0.000530118
0.000484956
0.000501865
0.000501865
0.000484954
0.000501866
0.000484955
0.000484955
0.000501864
0.000501865
0.000484955
0.000499072
0.000499071
0.000499071
0.000465196
0.000465197
0.000465196
0.000465196
0.000485014
0.000501833
0.000499051
0.000487752
0.000501813
0.000484987
0.00048776
0.000501865
0.000484955
0.000485013
0.00049905
0.000501832
0.000487751
0.000501812
0.000487759
0.000484986
0.000501869
0.000501869
0.000485112
0.00048495
0.00048495
0.000439791
0.000456698
0.000456699
0.00043979
0.0004567
0.000439794
0.000439789
0.000456699
0.000456699
0.000439789
0.000453905
0.000453904
0.000453904
0.000420028
0.000420027
0.000420027
0.000420027
0.000439848
0.000456667
0.000453885
0.000442585
0.000456647
0.000439824
0.000442593
0.000456701
0.000439786
0.000439847
0.000453884
0.000456666
0.000442585
0.000456646
0.000442592
0.00043982
0.000456703
0.000456703
0.000439945
0.000439786
0.000439786
0.000394615
0.000411531
0.000411534
0.00039461
0.000411527
0.000394607
0.000394619
0.000411533
0.000411533
0.000394613
0.00040873
0.000408733
0.000408732
0.000374843
0.000374843
0.000374843
0.000374843
0.000394666
0.000411498
0.000408711
0.000397407
0.000411475
0.000394641
0.000397414
0.000411536
0.000394612
0.000394668
0.000408712
0.0004115
0.000397409
0.000411476
0.000397415
0.000394646
0.000411537
0.000411538
0.000394765
0.000394606
0.000394607
0.000349429
0.000366341
0.000366342
0.000349428
0.000366342
0.000349427
0.000349428
0.000366341
0.000366343
0.000349428
0.000363548
0.000363548
0.000363548
0.000329665
0.000329665
0.000329665
0.000329665
0.000349486
0.000366309
0.000363527
0.000352225
0.000366288
0.000349459
0.000352232
0.000366342
0.000349426
0.000349485
0.000363527
0.00036631
0.000352225
0.000366288
0.000352232
0.000349459
0.000366345
0.000366345
0.000349584
0.000349424
0.000349424
0.000304253
0.000321165
0.000321166
0.000304252
0.000321166
0.000304251
0.000304253
0.000321165
0.000321166
0.000304252
0.000318371
0.000318371
0.00031837
0.000284489
0.000284489
0.000284489
0.000284489
0.00030431
0.000321133
0.00031835
0.000307049
0.000321112
0.000304283
0.000307056
0.000321166
0.000304251
0.00030431
0.00031835
0.000321133
0.000307049
0.000321112
0.000307056
0.000304283
0.000321169
0.000321169
0.000304408
0.000304248
0.000304248
0.000259077
0.000275989
0.00027599
0.000259076
0.00027599
0.000259075
0.000259077
0.000275989
0.00027599
0.000259076
0.000273195
0.000273195
0.000273195
0.000239313
0.000239313
0.000239313
0.000239313
0.000259134
0.000275957
0.000273174
0.000261873
0.000275936
0.000259108
0.00026188
0.00027599
0.000259075
0.000259134
0.000273174
0.000275957
0.000261873
0.000275936
0.00026188
0.000259107
0.000275993
0.000275993
0.000259232
0.000259073
0.000259073
0.000213902
0.000230813
0.000230814
0.000213901
0.000230814
0.0002139
0.000213902
0.000230813
0.000230814
0.000213901
0.00022802
0.00022802
0.000228019
0.000194135
0.000194135
0.000194135
0.000194135
0.000213959
0.000230781
0.000227999
0.000216698
0.000230761
0.000213933
0.000216705
0.000230815
0.0002139
0.000213959
0.000227999
0.000230781
0.000216698
0.000230761
0.000216705
0.000213933
0.000230818
0.000230818
0.000214057
0.000213898
0.000213898
0.000168725
0.000185635
0.000185632
0.000168718
0.000185638
0.000168705
0.000168725
0.000185635
0.000185632
0.000168718
0.000182842
0.000182842
0.000182842
0.000148938
0.000148938
0.000148938
0.000148937
0.000168783
0.000185596
0.000182824
0.000171524
0.00018558
0.000168778
0.000171525
0.000185638
0.000168709
0.000168783
0.000182824
0.000185596
0.000171524
0.00018558
0.000171525
0.000168777
0.000185638
0.000185638
0.000168879
0.00016872
0.000168721
0.000123565
0.000140415
0.000140417
0.000123557
0.000140458
0.000123505
0.000123565
0.000140416
0.000140417
0.000123557
0.000137656
0.000137656
0.000137655
0.000103771
0.000103772
0.000103771
0.000103771
0.000123596
0.000140339
0.000137625
0.000126313
0.000140366
0.000123623
0.000126324
0.000140458
0.000123506
0.000123595
0.000137624
0.000140338
0.000126312
0.000140366
0.000126324
0.000123621
0.000140415
0.000140415
0.000123701
0.000123589
0.000123587
7.83763e-05
9.52697e-05
9.53163e-05
7.83367e-05
9.5463e-05
7.80697e-05
7.83743e-05
9.52694e-05
9.5315e-05
7.83346e-05
9.24988e-05
9.24976e-05
9.24983e-05
5.88437e-05
5.88439e-05
5.88414e-05
5.88413e-05
7.84291e-05
9.5265e-05
9.24744e-05
8.11653e-05
9.52284e-05
7.83942e-05
8.1163e-05
9.54572e-05
7.80729e-05
7.84277e-05
9.24734e-05
9.5265e-05
8.11632e-05
9.52273e-05
8.1162e-05
7.83929e-05
9.52553e-05
9.52499e-05
7.85291e-05
7.83333e-05
7.83331e-05
3.21978e-05
4.95703e-05
4.97078e-05
3.14386e-05
4.99123e-05
3.07755e-05
3.21845e-05
4.95606e-05
4.97015e-05
3.14329e-05
4.79691e-05
4.79656e-05
4.79655e-05
1.85973e-05
1.85963e-05
1.85933e-05
1.8593e-05
3.28504e-05
4.95358e-05
4.76666e-05
3.65379e-05
4.97988e-05
3.20343e-05
3.69497e-05
4.98942e-05
3.0781e-05
3.28498e-05
4.76633e-05
4.95327e-05
3.65343e-05
4.97982e-05
3.69465e-05
3.2035e-05
4.94363e-05
4.94364e-05
3.38038e-05
3.16594e-05
3.16566e-05
6.97042e-06
8.19831e-06
7.98875e-06
7.38057e-07
5.46629e-06
-1.80777e-06
6.98773e-06
8.17968e-06
7.97412e-06
7.42707e-07
3.20321e-06
1.1194e-05
1.11923e-05
3.68295e-06
1.14494e-05
3.31539e-06
3.31505e-06
5.70576e-06
8.04749e-06
1.05977e-05
3.89308e-06
9.69773e-06
5.13514e-06
3.47791e-06
5.42873e-06
-1.79968e-06
5.71188e-06
1.05969e-05
8.04235e-06
3.89274e-06
9.69706e-06
3.47847e-06
5.14511e-06
4.46616e-06
4.46416e-06
3.99742e-06
4.5711e-06
4.58437e-06
0.00055271
0.000552741
0.000552708
0.000552706
0.000552706
0.000552708
0.000552741
0.00055271
0.000547036
0.000530123
0.000530121
0.00054704
0.00053028
0.000530118
0.000530119
0.000507538
0.00052445
0.000507537
0.00052445
0.000524273
0.000507535
0.000507534
0.000524452
0.000524452
0.000530123
0.000547035
0.000547034
0.000530122
0.000530182
0.000547003
0.000544221
0.000532921
0.000546983
0.000530153
0.000532928
0.000530182
0.000547002
0.000544221
0.00053292
0.000546983
0.000530154
0.000532928
0.000524448
0.000507539
0.000524448
0.00050754
0.000524448
0.000507539
0.000524448
0.00050754
0.000524397
0.000521628
0.00050757
0.000510343
0.000524416
0.000521635
0.000507597
0.000524397
0.000521627
0.00050757
0.000510343
0.000524417
0.000521635
0.000507597
0.000547038
0.000547038
0.00053028
0.000530119
0.000530119
0.000547036
0.000530122
0.000507539
0.00052445
0.000524273
0.000507536
0.000507536
0.000524452
0.000524452
0.000507539
0.00052445
0.000530182
0.000532921
0.000530154
0.000532928
0.000530122
0.000530123
0.000530182
0.000532921
0.000532928
0.000530154
0.000524447
0.000507538
0.000524448
0.000507539
0.000524397
0.000521628
0.000507569
0.000510342
0.000524416
0.000521635
0.000507597
0.000524447
0.000507537
0.000524447
0.000507538
0.000524397
0.000521628
0.000510342
0.000507569
0.000521635
0.000524416
0.000507597
0.000530123
0.000547035
0.000547034
0.000530122
0.000530182
0.000544222
0.000547003
0.000532921
0.000546983
0.000532928
0.000530153
0.000530123
0.000547035
0.000547034
0.000530122
0.000524397
0.000521628
0.00050757
0.000510343
0.000524416
0.000521635
0.000507597
0.000524448
0.000507539
0.000524448
0.00050754
0.000524397
0.000521628
0.000510343
0.00050757
0.000521635
0.000524416
0.000507598
0.000524448
0.000507539
0.000524448
0.00050754
0.00053028
0.00053012
0.000530119
0.000530121
0.000507537
0.00052445
0.000524273
0.000507534
0.000507534
0.000524451
0.000524452
0.000507537
0.000524449
0.000530182
0.000544222
0.000547003
0.000532921
0.000546983
0.000532928
0.000530153
0.000530123
0.000547034
0.000530122
0.000530123
0.000547035
0.000547034
0.000530122
0.000524397
0.000521628
0.000510343
0.000507569
0.000521635
0.000524416
0.000507597
0.000524397
0.000521627
0.000510343
0.00050757
0.000521635
0.000524416
0.000507597
0.000524448
0.000507538
0.000524447
0.000507539
0.000524448
0.000507539
0.000524448
0.000507539
0.000547035
0.000530123
0.000547035
0.000530123
0.000524273
0.000507535
0.000507535
0.000524452
0.000524452
0.000507539
0.00052445
0.000507539
0.00052445
0.000501867
0.000484953
0.000501865
0.000484955
0.000501869
0.000501868
0.000485111
0.00048495
0.000484951
0.000462373
0.000479282
0.000462372
0.000479282
0.000479105
0.000462369
0.000462368
0.000479284
0.000479284
0.000484956
0.000501865
0.000501865
0.000484955
0.000485013
0.000501833
0.000499051
0.000487752
0.000501813
0.000484985
0.000487759
0.000485013
0.000501833
0.000499051
0.000487752
0.000501813
0.000484986
0.00048776
0.000479281
0.000462373
0.00047928
0.000462374
0.000479281
0.000462372
0.000479282
0.000462374
0.000479229
0.00047646
0.000462404
0.000465176
0.000479249
0.000476468
0.000462431
0.000479229
0.00047646
0.000462404
0.000465176
0.00047925
0.000476468
0.000462431
0.000501869
0.000501869
0.000485112
0.000484952
0.000484952
0.000501866
0.000484955
0.000462371
0.000479284
0.000479106
0.000462369
0.000462369
0.000479286
0.000479286
0.000462371
0.000479284
0.000485013
0.000501832
0.00049905
0.000487752
0.000501812
0.000484986
0.000487759
0.000484955
0.000501864
0.000501865
0.000484955
0.000485013
0.00049905
0.000501832
0.000487751
0.000501812
0.000487759
0.000484986
0.000479281
0.000462372
0.00047928
0.000462372
0.000479229
0.00047646
0.000462403
0.000465175
0.000479248
0.000476467
0.00046243
0.000479281
0.000462372
0.00047928
0.000462372
0.000479229
0.00047646
0.000465175
0.000462403
0.000476467
0.000479248
0.00046243
0.000484956
0.000501865
0.000501865
0.000484955
0.000485014
0.000499051
0.000501833
0.000487753
0.000501813
0.00048776
0.000484985
0.000484956
0.000501865
0.000501865
0.000484954
0.000479229
0.00047646
0.000462404
0.000465176
0.00047925
0.000476468
0.000462431
0.000479282
0.000462372
0.000479282
0.000462374
0.000479229
0.00047646
0.000465176
0.000462404
0.000476468
0.000479249
0.000462431
0.000479281
0.000462373
0.00047928
0.000462374
0.000501868
0.000501868
0.000485111
0.000484952
0.000484951
0.000501866
0.000484955
0.000462371
0.000479282
0.000479105
0.000462368
0.000462368
0.000479284
0.000479284
0.000462372
0.000479282
0.000485013
0.000499051
0.000501833
0.000487752
0.000501812
0.000487759
0.000484985
0.000484956
0.000501864
0.000501864
0.000484955
0.000484956
0.000501865
0.000501864
0.000484954
0.000479229
0.00047646
0.000465175
0.000462403
0.000476467
0.000479249
0.00046243
0.000479229
0.00047646
0.000465175
0.000462404
0.000476467
0.000479249
0.000462431
0.000479281
0.000462372
0.000479281
0.000462373
0.000479281
0.000462373
0.00047928
0.000462374
0.000501867
0.000484953
0.000501867
0.000484953
0.000479105
0.00046237
0.000462369
0.000479284
0.000479284
0.000462373
0.000479282
0.000462373
0.000479282
0.0004567
0.000439789
0.0004567
0.000439788
0.000456703
0.000456703
0.000439945
0.000439785
0.000439785
0.000417208
0.00043412
0.000417208
0.000434116
0.000433938
0.000417207
0.000417205
0.000434121
0.000434119
0.000439791
0.000456698
0.0004567
0.000439794
0.000439848
0.000456666
0.000453884
0.000442586
0.000456647
0.000439821
0.000442592
0.000439848
0.000456667
0.000453885
0.000442585
0.000456647
0.000439824
0.000442593
0.000434117
0.000417208
0.000434118
0.00041721
0.000434117
0.000417205
0.000434121
0.000417209
0.000434064
0.000431292
0.000417239
0.000420006
0.000434085
0.000431299
0.000417263
0.000434064
0.000431293
0.000417238
0.000420006
0.000434088
0.000431299
0.000417262
0.000456702
0.000456702
0.000439946
0.000439791
0.000439791
0.0004567
0.000439794
0.000417203
0.000434123
0.000433939
0.000417203
0.000417204
0.000434126
0.000434126
0.000417203
0.000434123
0.000439846
0.000456666
0.000453883
0.000442585
0.000456646
0.00043982
0.000442592
0.000439789
0.000456699
0.000456699
0.000439788
0.000439846
0.000453883
0.000456666
0.000442585
0.000456646
0.000442592
0.000439819
0.000434115
0.000417208
0.000434115
0.000417207
0.000434062
0.000431292
0.000417238
0.000420006
0.000434083
0.000431299
0.000417263
0.000434115
0.000417208
0.000434114
0.000417207
0.000434062
0.000431293
0.000420006
0.000417237
0.000431299
0.000434082
0.000417263
0.000439791
0.000456698
0.0004567
0.000439794
0.000439848
0.000453885
0.000456667
0.000442586
0.000456647
0.000442593
0.000439821
0.000439791
0.000456698
0.0004567
0.000439791
0.000434064
0.000431293
0.000417238
0.000420006
0.000434087
0.000431299
0.000417262
0.000434117
0.000417205
0.000434121
0.000417209
0.000434064
0.000431292
0.000420006
0.000417238
0.000431299
0.000434085
0.000417263
0.000434117
0.000417208
0.000434118
0.000417209
0.000456703
0.000456703
0.000439944
0.000439784
0.000439784
0.0004567
0.000439787
0.000417208
0.000434115
0.000433938
0.000417205
0.000417205
0.000434117
0.000434118
0.000417209
0.000434116
0.000439848
0.000453884
0.000456666
0.000442586
0.000456646
0.000442592
0.000439821
0.00043979
0.000456699
0.000456699
0.000439789
0.000439791
0.000456698
0.000456699
0.00043979
0.000434063
0.000431292
0.000420006
0.000417237
0.000431299
0.000434083
0.000417263
0.000434063
0.000431292
0.000420006
0.000417239
0.000431299
0.000434085
0.000417263
0.000434116
0.000417208
0.000434115
0.00041721
0.000434116
0.000417209
0.000434118
0.00041721
0.0004567
0.00043979
0.0004567
0.000439789
0.000433939
0.000417207
0.000417207
0.000434122
0.000434122
0.000417208
0.00043412
0.000417208
0.00043412
0.000411531
0.000394607
0.000411535
0.00039461
0.000411538
0.000411539
0.000394766
0.000394607
0.000394611
0.000372016
0.000388933
0.000372016
0.000388934
0.000388757
0.000372013
0.000372013
0.000388937
0.00038894
0.000394615
0.000411527
0.000411534
0.000394608
0.000394666
0.0004115
0.000408711
0.000397408
0.000411476
0.000394643
0.000397415
0.000394666
0.000411498
0.000408711
0.000397407
0.000411475
0.000394641
0.000397414
0.000388936
0.000372017
0.000388933
0.000372018
0.000388936
0.000372017
0.000388932
0.000372018
0.000388879
0.000386111
0.000372048
0.000374822
0.000388903
0.000386118
0.000372074
0.000388879
0.00038611
0.000372048
0.000374822
0.0003889
0.000386117
0.000372074
0.000411533
0.000411533
0.000394764
0.000394605
0.000394605
0.000411527
0.000394607
0.000372016
0.000388933
0.000388755
0.000372013
0.000372013
0.000388936
0.000388936
0.000372016
0.000388933
0.00039467
0.000411499
0.000408711
0.000397409
0.000411477
0.000394645
0.000397416
0.000394619
0.000411534
0.000411533
0.000394615
0.00039467
0.000408711
0.0004115
0.00039741
0.000411477
0.000397416
0.000394647
0.000388942
0.000372017
0.000388935
0.00037202
0.000388882
0.000386112
0.000372049
0.000374822
0.000388905
0.000386119
0.000372074
0.000388942
0.000372017
0.000388936
0.00037202
0.000388882
0.000386113
0.000374822
0.00037205
0.000386119
0.000388906
0.000372074
0.000394614
0.000411527
0.000411534
0.000394608
0.000394666
0.000408711
0.000411499
0.000397408
0.000411475
0.000397414
0.000394643
0.000394614
0.000411531
0.000411534
0.000394609
0.000388879
0.00038611
0.000372048
0.000374822
0.0003889
0.000386117
0.000372074
0.000388936
0.000372017
0.000388932
0.000372018
0.000388879
0.000386111
0.000374822
0.000372048
0.000386117
0.000388902
0.000372074
0.000388936
0.000372016
0.000388932
0.000372018
0.000411539
0.000411539
0.000394767
0.000394613
0.000394611
0.000411536
0.000394611
0.000372015
0.000388935
0.000388758
0.000372014
0.000372013
0.000388941
0.00038894
0.000372015
0.000388934
0.000394668
0.000408711
0.0004115
0.000397408
0.000411476
0.000397415
0.000394643
0.000394616
0.000411533
0.000411535
0.000394614
0.000394616
0.000411531
0.000411534
0.00039461
0.00038888
0.000386113
0.000374822
0.000372049
0.000386118
0.000388906
0.000372075
0.00038888
0.000386111
0.000374822
0.000372048
0.000386118
0.000388903
0.000372075
0.000388937
0.000372016
0.000388935
0.000372018
0.000388937
0.000372017
0.000388933
0.000372018
0.000411531
0.000394607
0.000411531
0.000394607
0.000388756
0.000372012
0.000372012
0.000388937
0.000388937
0.000372015
0.000388932
0.000372016
0.000388933
0.000366342
0.000349427
0.000366342
0.000349427
0.000366345
0.000366345
0.000349584
0.000349424
0.000349424
0.000326839
0.000343754
0.000326839
0.000343754
0.000343576
0.000326836
0.000326836
0.000343757
0.000343757
0.000349429
0.000366341
0.000366342
0.000349428
0.000349486
0.000366309
0.000363527
0.000352225
0.000366289
0.000349459
0.000352232
0.000349486
0.000366309
0.000363527
0.000352225
0.000366289
0.000349459
0.000352232
0.000343753
0.00032684
0.000343753
0.000326841
0.000343753
0.00032684
0.000343753
0.000326841
0.0003437
0.000340931
0.000326871
0.000329644
0.000343721
0.000340938
0.000326898
0.0003437
0.000340931
0.000326871
0.000329644
0.000343721
0.000340938
0.000326898
0.000366345
0.000366345
0.000349584
0.000349424
0.000349425
0.000366343
0.000349427
0.000326839
0.000343754
0.000343577
0.000326837
0.000326837
0.000343757
0.000343757
0.000326839
0.000343754
0.000349485
0.00036631
0.000363527
0.000352225
0.000366288
0.000349459
0.000352232
0.000349428
0.000366341
0.000366343
0.000349427
0.000349485
0.000363527
0.00036631
0.000352225
0.000366288
0.000352232
0.000349459
0.000343753
0.00032684
0.000343752
0.000326841
0.0003437
0.000340931
0.000326871
0.000329644
0.00034372
0.000340938
0.000326897
0.000343753
0.00032684
0.000343752
0.000326841
0.0003437
0.00034093
0.000329644
0.000326871
0.000340938
0.00034372
0.000326897
0.000349429
0.000366341
0.000366342
0.000349428
0.000349486
0.000363527
0.000366309
0.000352225
0.000366288
0.000352232
0.000349459
0.000349429
0.000366341
0.000366342
0.000349428
0.0003437
0.000340931
0.000326871
0.000329644
0.000343721
0.000340938
0.000326898
0.000343754
0.00032684
0.000343753
0.000326841
0.0003437
0.000340931
0.000329644
0.000326871
0.000340938
0.000343721
0.000326898
0.000343753
0.00032684
0.000343753
0.000326841
0.000366345
0.000366345
0.000349583
0.000349424
0.000349424
0.000366342
0.000349427
0.000326839
0.000343753
0.000343576
0.000326836
0.000326836
0.000343756
0.000343757
0.000326839
0.000343753
0.000349486
0.000363527
0.000366309
0.000352225
0.000366288
0.000352232
0.000349459
0.000349429
0.000366341
0.000366342
0.000349427
0.000349429
0.000366341
0.000366342
0.000349428
0.0003437
0.000340931
0.000329644
0.000326871
0.000340938
0.000343721
0.000326898
0.0003437
0.000340931
0.000329644
0.000326871
0.000340938
0.000343721
0.000326898
0.000343753
0.00032684
0.000343752
0.000326841
0.000343753
0.00032684
0.000343753
0.000326841
0.000366342
0.000349427
0.000366342
0.000349427
0.000343577
0.000326836
0.000326836
0.000343757
0.000343757
0.000326839
0.000343754
0.000326839
0.000343754
0.000321166
0.000304251
0.000321166
0.000304251
0.000321169
0.000321169
0.000304407
0.000304248
0.000304248
0.000281663
0.000298578
0.000281663
0.000298578
0.0002984
0.00028166
0.00028166
0.000298581
0.000298581
0.000304253
0.000321165
0.000321166
0.000304252
0.00030431
0.000321133
0.00031835
0.000307049
0.000321112
0.000304283
0.000307056
0.00030431
0.000321133
0.00031835
0.000307049
0.000321112
0.000304283
0.000307056
0.000298578
0.000281664
0.000298577
0.000281665
0.000298578
0.000281664
0.000298577
0.000281665
0.000298524
0.000295755
0.000281695
0.000284468
0.000298545
0.000295762
0.000281722
0.000298524
0.000295755
0.000281695
0.000284468
0.000298545
0.000295762
0.000281722
0.000321169
0.000321169
0.000304408
0.000304248
0.000304249
0.000321166
0.000304251
0.000281663
0.000298578
0.0002984
0.000281661
0.000281661
0.000298581
0.000298581
0.000281663
0.000298578
0.00030431
0.000321133
0.00031835
0.000307048
0.000321112
0.000304283
0.000307056
0.000304253
0.000321164
0.000321165
0.000304252
0.000304309
0.00031835
0.000321133
0.000307049
0.000321112
0.000307056
0.000304283
0.000298578
0.000281664
0.000298577
0.000281665
0.000298524
0.000295754
0.000281695
0.000284468
0.000298545
0.000295762
0.000281722
0.000298578
0.000281664
0.000298577
0.000281665
0.000298524
0.000295755
0.000284468
0.000281695
0.000295762
0.000298545
0.000281722
0.000304253
0.000321165
0.000321166
0.000304252
0.00030431
0.00031835
0.000321133
0.000307049
0.000321112
0.000307056
0.000304283
0.000304253
0.000321165
0.000321166
0.000304252
0.000298524
0.000295755
0.000281695
0.000284468
0.000298545
0.000295762
0.000281722
0.000298578
0.000281664
0.000298577
0.000281665
0.000298524
0.000295755
0.000284468
0.000281695
0.000295762
0.000298545
0.000281722
0.000298578
0.000281664
0.000298577
0.000281665
0.000321169
0.000321169
0.000304407
0.000304248
0.000304248
0.000321166
0.000304251
0.000281663
0.000298578
0.0002984
0.000281661
0.00028166
0.000298581
0.000298581
0.000281663
0.000298578
0.00030431
0.00031835
0.000321133
0.000307049
0.000321112
0.000307056
0.000304283
0.000304253
0.000321165
0.000321165
0.000304252
0.000304253
0.000321165
0.000321165
0.000304252
0.000298524
0.000295755
0.000284468
0.000281695
0.000295762
0.000298545
0.000281722
0.000298524
0.000295755
0.000284468
0.000281695
0.000295762
0.000298545
0.000281722
0.000298578
0.000281664
0.000298577
0.000281665
0.000298578
0.000281664
0.000298577
0.000281665
0.000321166
0.000304251
0.000321166
0.000304251
0.0002984
0.00028166
0.00028166
0.000298581
0.000298581
0.000281663
0.000298578
0.000281663
0.000298578
0.00027599
0.000259075
0.00027599
0.000259075
0.000275993
0.000275993
0.000259232
0.000259073
0.000259073
0.000236488
0.000253402
0.000236488
0.000253402
0.000253225
0.000236485
0.000236485
0.000253405
0.000253405
0.000259077
0.000275989
0.00027599
0.000259076
0.000259134
0.000275957
0.000273174
0.000261873
0.000275936
0.000259107
0.00026188
0.000259134
0.000275957
0.000273174
0.000261873
0.000275936
0.000259107
0.00026188
0.000253402
0.000236488
0.000253401
0.00023649
0.000253402
0.000236488
0.000253401
0.00023649
0.000253348
0.000250579
0.00023652
0.000239292
0.000253369
0.000250586
0.000236546
0.000253349
0.000250579
0.00023652
0.000239292
0.000253369
0.000250586
0.000236546
0.000275993
0.000275993
0.000259232
0.000259073
0.000259073
0.00027599
0.000259075
0.000236488
0.000253402
0.000253225
0.000236485
0.000236485
0.000253405
0.000253405
0.000236487
0.000253403
0.000259134
0.000275957
0.000273174
0.000261873
0.000275936
0.000259108
0.00026188
0.000259077
0.000275989
0.00027599
0.000259076
0.000259134
0.000273174
0.000275957
0.000261873
0.000275936
0.00026188
0.000259108
0.000253402
0.000236488
0.000253401
0.00023649
0.000253348
0.000250579
0.00023652
0.000239292
0.000253369
0.000250586
0.000236546
0.000253402
0.000236488
0.000253401
0.00023649
0.000253349
0.000250579
0.000239292
0.00023652
0.000250586
0.000253369
0.000236546
0.000259078
0.000275989
0.00027599
0.000259076
0.000259134
0.000273174
0.000275957
0.000261873
0.000275936
0.00026188
0.000259107
0.000259078
0.000275989
0.00027599
0.000259076
0.000253349
0.000250579
0.00023652
0.000239292
0.000253369
0.000250586
0.000236546
0.000253402
0.000236489
0.000253401
0.00023649
0.000253349
0.000250579
0.000239292
0.00023652
0.000250586
0.000253369
0.000236546
0.000253402
0.000236488
0.000253401
0.00023649
0.000275993
0.000275993
0.000259232
0.000259073
0.000259073
0.00027599
0.000259075
0.000236487
0.000253402
0.000253225
0.000236485
0.000236485
0.000253405
0.000253405
0.000236488
0.000253402
0.000259134
0.000273174
0.000275957
0.000261873
0.000275936
0.00026188
0.000259107
0.000259077
0.000275989
0.00027599
0.000259076
0.000259078
0.000275989
0.00027599
0.000259076
0.000253348
0.000250579
0.000239292
0.00023652
0.000250586
0.000253369
0.000236546
0.000253348
0.000250579
0.000239292
0.00023652
0.000250586
0.000253369
0.000236546
0.000253402
0.000236488
0.000253401
0.00023649
0.000253402
0.000236488
0.000253401
0.00023649
0.00027599
0.000259075
0.00027599
0.000259075
0.000253225
0.000236485
0.000236485
0.000253405
0.000253405
0.000236488
0.000253402
0.000236488
0.000253402
0.000230814
0.0002139
0.000230814
0.0002139
0.000230818
0.000230818
0.000214057
0.000213897
0.000213898
0.00019131
0.000208226
0.00019131
0.000208226
0.00020805
0.000191309
0.000191309
0.000208229
0.000208229
0.000213902
0.000230813
0.000230814
0.000213901
0.000213959
0.000230781
0.000227999
0.000216698
0.000230761
0.000213933
0.000216705
0.000213959
0.000230781
0.000227999
0.000216698
0.000230761
0.000213933
0.000216705
0.000208225
0.000191312
0.000208225
0.000191315
0.000208225
0.000191312
0.000208225
0.000191315
0.000208172
0.000205406
0.000191348
0.000194116
0.000208192
0.000205412
0.000191371
0.000208172
0.000205406
0.000191348
0.000194117
0.000208192
0.000205412
0.000191371
0.000230817
0.000230817
0.000214057
0.000213898
0.000213898
0.000230815
0.0002139
0.00019131
0.000208226
0.00020805
0.00019131
0.00019131
0.000208229
0.000208229
0.00019131
0.000208227
0.000213959
0.000230781
0.000227999
0.000216698
0.000230761
0.000213933
0.000216705
0.000213902
0.000230813
0.000230814
0.000213901
0.000213959
0.000227999
0.000230781
0.000216698
0.000230761
0.000216705
0.000213933
0.000208225
0.000191312
0.000208225
0.000191314
0.000208172
0.000205406
0.000191348
0.000194116
0.000208192
0.000205412
0.000191371
0.000208225
0.000191312
0.000208225
0.000191314
0.000208172
0.000205406
0.000194116
0.000191348
0.000205412
0.000208192
0.000191371
0.000213902
0.000230813
0.000230814
0.000213901
0.000213959
0.000227999
0.000230781
0.000216699
0.000230761
0.000216705
0.000213933
0.000213902
0.000230813
0.000230814
0.000213901
0.000208172
0.000205406
0.000191348
0.000194116