/*--------------------------------*- C++ -*----------------------------------*\
| =========                 |                                                 |
| \\      /  F ield         | OpenFOAM: The Open Source CFD Toolbox           |
|  \\    /   O peration     | Version:  2206                                  |
|   \\  /    A nd           | Website:  www.openfoam.com                      |
|    \\/     M anipulation  |                                                 |
\*---------------------------------------------------------------------------*/
FoamFile
{
    version     2.0;
    format      ascii;
    arch        "LSB;label=32;scalar=64";
    class       volScalarField;
    location    "29.5";
    object      p;
}
// * * * * * * * * * * * * * * * * * * * * * * * * * * * * * * * * * * * * * //

dimensions      [0 2 -2 0 0 0 0];

internalField   nonuniform List<scalar> 
171728
(
0.00397947
0.0039798
0.00397981
0.00398286
0.0039241
0.00392453
0.00392453
0.00392752
0.00387334
0.00387331
0.00387331
0.00387607
0.00382092
0.00382095
0.00382095
0.00382371
0.00376962
0.00376963
0.00376963
0.00377237
0.00372023
0.00372008
0.00372008
0.00372261
0.00367514
0.00367501
0.00367501
0.00367747
0.00363293
0.00363287
0.00363288
0.00363537
0.00359108
0.00359104
0.00359104
0.00359351
0.00354931
0.00354927
0.00354927
0.00355174
0.00350755
0.00350752
0.00350752
0.00350998
0.0034658
0.00346576
0.00346576
0.00346823
0.00342405
0.00342402
0.00342401
0.00342648
0.0033823
0.00338227
0.00338227
0.00338473
0.00334056
0.00334052
0.00334052
0.00334299
0.00329881
0.00329877
0.00329877
0.00330124
0.00325707
0.00325703
0.00325703
0.0032595
0.00321532
0.00321528
0.00321528
0.00321775
0.00317356
0.00317352
0.00317352
0.00317599
0.0031318
0.00313176
0.00313176
0.00313423
0.00309005
0.00309001
0.00309001
0.00309248
0.00304829
0.00304826
0.00304826
0.00305072
0.00300654
0.0030065
0.0030065
0.00300897
0.00296478
0.00296475
0.00296475
0.00296721
0.00292303
0.00292299
0.00292299
0.00292546
0.00288127
0.00288124
0.00288124
0.0028837
0.00283952
0.00283948
0.00283948
0.00284195
0.00279776
0.00279773
0.00279773
0.00280019
0.00275601
0.00275597
0.00275597
0.00275844
0.00271425
0.00271422
0.00271422
0.00271668
0.0026725
0.00267246
0.00267246
0.00267493
0.00263075
0.00263071
0.00263071
0.00263318
0.002589
0.00258896
0.00258896
0.00259143
0.00254725
0.00254722
0.00254722
0.00254968
0.00250551
0.00250547
0.00250547
0.00250794
0.00246376
0.00246372
0.00246372
0.00246619
0.002422
0.00242196
0.00242196
0.00242443
0.00238025
0.00238021
0.00238021
0.00238268
0.0023385
0.00233846
0.00233846
0.00234093
0.00229675
0.00229671
0.00229671
0.00229918
0.002255
0.00225496
0.00225496
0.00225743
0.00221325
0.00221322
0.00221321
0.00221568
0.0021715
0.00217147
0.00217147
0.00217393
0.00212975
0.00212972
0.00212972
0.00213218
0.00208801
0.00208797
0.00208797
0.00209044
0.00204626
0.00204622
0.00204622
0.00204869
0.00200451
0.00200447
0.00200447
0.00200694
0.00196276
0.00196273
0.00196273
0.00196519
0.00192101
0.00192098
0.00192098
0.00192345
0.00187927
0.00187923
0.00187923
0.0018817
0.00183752
0.00183749
0.00183749
0.00183995
0.00179578
0.00179574
0.00179574
0.00179821
0.00175404
0.001754
0.001754
0.00175647
0.00171229
0.00171225
0.00171225
0.00171472
0.00167053
0.00167049
0.00167049
0.00167296
0.00162878
0.00162875
0.00162875
0.00163121
0.00158704
0.001587
0.001587
0.00158947
0.00154529
0.00154526
0.00154526
0.00154772
0.00150355
0.00150351
0.00150351
0.00150598
0.0014618
0.00146176
0.00146176
0.00146423
0.00142005
0.00142002
0.00142002
0.00142249
0.00137831
0.00137827
0.00137827
0.00138074
0.00133656
0.00133653
0.00133653
0.00133899
0.00129481
0.00129478
0.00129478
0.00129725
0.00125307
0.00125303
0.00125303
0.0012555
0.00121132
0.00121128
0.00121128
0.00121375
0.00116957
0.00116954
0.00116954
0.001172
0.00112783
0.00112779
0.00112779
0.00113026
0.00108608
0.00108605
0.00108605
0.00108851
0.00104434
0.0010443
0.0010443
0.00104677
0.00100259
0.00100256
0.00100256
0.00100502
0.000960837
0.000960801
0.0009608
0.000963267
0.000919085
0.000919049
0.000919049
0.000921516
0.000877337
0.000877301
0.000877301
0.000879768
0.000835589
0.000835553
0.000835553
0.00083802
0.000793841
0.000793805
0.000793805
0.000796272
0.000752094
0.000752058
0.000752058
0.000754525
0.000710346
0.00071031
0.00071031
0.000712777
0.000668597
0.00066856
0.00066856
0.000671028
0.000626847
0.000626811
0.000626811
0.000629278
0.000585099
0.000585063
0.000585063
0.00058753
0.000543351
0.000543315
0.000543315
0.000545782
0.000501602
0.000501566
0.000501566
0.000504033
0.000459853
0.000459816
0.000459816
0.000462283
0.000418105
0.000418069
0.000418069
0.000420536
0.00037636
0.000376324
0.000376323
0.00037879
0.000334616
0.00033458
0.00033458
0.000337047
0.000292871
0.000292837
0.000292837
0.000295303
0.000251113
0.000251073
0.000251074
0.000253539
0.00020936
0.000209328
0.000209328
0.000211789
0.000167596
0.000167551
0.000167551
0.000170007
0.000125832
0.000125807
0.000125806
0.000128248
8.40747e-05
8.40349e-05
8.40335e-05
8.64502e-05
4.2992e-05
4.24398e-05
4.24369e-05
4.47181e-05
9.09428e-06
9.29075e-06
9.288e-06
8.83414e-06
0.00399289
0.00399311
0.00399311
0.00399289
0.00399311
0.00399311
0.00399387
0.00399387
0.00399388
0.00399388
0.00399311
0.00399311
0.00399289
0.00399311
0.00399311
0.00399289
0.00398286
0.0039341
0.0039798
0.0039798
0.00393638
0.00393638
0.00398286
0.0039341
0.00397981
0.0039798
0.00393637
0.00393637
0.0039798
0.00393637
0.00393637
0.00398286
0.0039341
0.00397981
0.00393637
0.00393637
0.0039341
0.00392752
0.003883
0.00392453
0.00392453
0.00388645
0.00388645
0.00392752
0.003883
0.00392453
0.00392453
0.00388645
0.00388645
0.00392453
0.00388645
0.00388645
0.00392752
0.003883
0.00392452
0.00388645
0.00388645
0.003883
0.00387607
0.00383061
0.00387331
0.00387331
0.00383397
0.00383397
0.00387607
0.00383061
0.00387331
0.00387331
0.00383397
0.00383397
0.00387331
0.00383397
0.00383397
0.00387607
0.00383061
0.00387331
0.00383397
0.00383397
0.00383061
0.00382372
0.0037791
0.00382095
0.00382095
0.00378235
0.00378235
0.00382372
0.0037791
0.00382095
0.00382095
0.00378235
0.00378235
0.00382095
0.00378235
0.00378235
0.00382372
0.0037791
0.00382095
0.00378235
0.00378235
0.0037791
0.00377237
0.003729
0.00376963
0.00376963
0.00373211
0.00373211
0.00377237
0.003729
0.00376963
0.00376963
0.00373211
0.00373211
0.00376963
0.00373211
0.00373211
0.00377237
0.003729
0.00376963
0.00373211
0.00373211
0.003729
0.00372261
0.00368311
0.00372008
0.00372009
0.0036858
0.0036858
0.00372261
0.00368311
0.00372008
0.00372009
0.0036858
0.0036858
0.00372008
0.0036858
0.0036858
0.00372261
0.00368311
0.00372008
0.0036858
0.0036858
0.00368311
0.00367747
0.0036409
0.00367501
0.00367501
0.00364336
0.00364336
0.00367747
0.0036409
0.00367501
0.00367501
0.00364336
0.00364336
0.00367501
0.00364336
0.00364336
0.00367747
0.0036409
0.00367501
0.00364336
0.00364336
0.0036409
0.00363537
0.00359902
0.00363287
0.00363287
0.00360149
0.00360148
0.00363537
0.00359902
0.00363288
0.00363287
0.00360149
0.00360149
0.00363287
0.00360148
0.00360149
0.00363537
0.00359902
0.00363287
0.00360149
0.00360149
0.00359902
0.00359351
0.00355725
0.00359104
0.00359104
0.00355971
0.00355971
0.00359351
0.00355725
0.00359104
0.00359104
0.00355971
0.00355971
0.00359104
0.00355971
0.00355971
0.00359351
0.00355725
0.00359104
0.00355971
0.00355971
0.00355725
0.00355174
0.00351549
0.00354927
0.00354927
0.00351795
0.00351795
0.00355174
0.00351549
0.00354927
0.00354927
0.00351795
0.00351795
0.00354927
0.00351795
0.00351795
0.00355174
0.00351549
0.00354927
0.00351795
0.00351795
0.00351549
0.00350998
0.00347374
0.00350752
0.00350752
0.0034762
0.0034762
0.00350998
0.00347374
0.00350752
0.00350752
0.0034762
0.0034762
0.00350752
0.0034762
0.0034762
0.00350998
0.00347374
0.00350752
0.0034762
0.0034762
0.00347374
0.00346823
0.00343199
0.00346576
0.00346576
0.00343445
0.00343445
0.00346823
0.00343199
0.00346576
0.00346576
0.00343445
0.00343445
0.00346576
0.00343445
0.00343445
0.00346823
0.00343199
0.00346576
0.00343445
0.00343445
0.00343199
0.00342648
0.00339024
0.00342402
0.00342401
0.0033927
0.0033927
0.00342648
0.00339024
0.00342401
0.00342401
0.0033927
0.0033927
0.00342402
0.0033927
0.0033927
0.00342648
0.00339024
0.00342402
0.0033927
0.0033927
0.00339024
0.00338473
0.0033485
0.00338227
0.00338227
0.00335096
0.00335096
0.00338473
0.0033485
0.00338227
0.00338227
0.00335096
0.00335096
0.00338227
0.00335096
0.00335096
0.00338473
0.0033485
0.00338227
0.00335096
0.00335096
0.0033485
0.00334299
0.00330675
0.00334052
0.00334052
0.00330921
0.00330921
0.00334299
0.00330675
0.00334052
0.00334052
0.00330921
0.00330921
0.00334052
0.00330921
0.00330921
0.00334299
0.00330675
0.00334052
0.00330921
0.00330921
0.00330675
0.00330124
0.00326501
0.00329878
0.00329877
0.00326747
0.00326747
0.00330124
0.00326501
0.00329877
0.00329878
0.00326747
0.00326747
0.00329878
0.00326747
0.00326747
0.00330124
0.00326501
0.00329878
0.00326747
0.00326747
0.00326501
0.0032595
0.00322326
0.00325703
0.00325703
0.00322572
0.00322572
0.0032595
0.00322326
0.00325703
0.00325703
0.00322572
0.00322572
0.00325703
0.00322572
0.00322572
0.0032595
0.00322326
0.00325703
0.00322572
0.00322572
0.00322326
0.00321775
0.0031815
0.00321528
0.00321528
0.00318396
0.00318396
0.00321775
0.0031815
0.00321528
0.00321528
0.00318396
0.00318396
0.00321528
0.00318396
0.00318396
0.00321775
0.0031815
0.00321528
0.00318396
0.00318396
0.0031815
0.00317599
0.00313974
0.00317352
0.00317352
0.0031422
0.0031422
0.00317599
0.00313974
0.00317352
0.00317352
0.0031422
0.0031422
0.00317352
0.0031422
0.0031422
0.00317599
0.00313974
0.00317352
0.0031422
0.0031422
0.00313974
0.00313423
0.00309799
0.00313176
0.00313176
0.00310045
0.00310045
0.00313423
0.00309799
0.00313176
0.00313176
0.00310045
0.00310045
0.00313176
0.00310045
0.00310045
0.00313423
0.00309799
0.00313176
0.00310045
0.00310045
0.00309799
0.00309248
0.00305623
0.00309001
0.00309001
0.00305869
0.00305869
0.00309248
0.00305623
0.00309001
0.00309001
0.00305869
0.00305869
0.00309001
0.00305869
0.00305869
0.00309248
0.00305623
0.00309001
0.00305869
0.00305869
0.00305623
0.00305072
0.00301448
0.00304826
0.00304826
0.00301694
0.00301694
0.00305072
0.00301448
0.00304826
0.00304826
0.00301694
0.00301694
0.00304826
0.00301694
0.00301694
0.00305072
0.00301448
0.00304826
0.00301694
0.00301694
0.00301448
0.00300897
0.00297272
0.0030065
0.0030065
0.00297519
0.00297519
0.00300897
0.00297272
0.0030065
0.0030065
0.00297519
0.00297519
0.0030065
0.00297519
0.00297519
0.00300897
0.00297272
0.0030065
0.00297519
0.00297519
0.00297272
0.00296721
0.00293097
0.00296475
0.00296475
0.00293343
0.00293343
0.00296721
0.00293097
0.00296475
0.00296475
0.00293343
0.00293343
0.00296475
0.00293343
0.00293343
0.00296721
0.00293097
0.00296475
0.00293343
0.00293343
0.00293097
0.00292546
0.00288921
0.00292299
0.00292299
0.00289168
0.00289168
0.00292546
0.00288921
0.00292299
0.00292299
0.00289168
0.00289168
0.00292299
0.00289168
0.00289168
0.00292546
0.00288921
0.00292299
0.00289168
0.00289168
0.00288921
0.0028837
0.00284746
0.00288124
0.00288124
0.00284992
0.00284992
0.0028837
0.00284746
0.00288124
0.00288124
0.00284992
0.00284992
0.00288124
0.00284992
0.00284992
0.0028837
0.00284746
0.00288124
0.00284992
0.00284992
0.00284746
0.00284195
0.0028057
0.00283948
0.00283948
0.00280816
0.00280816
0.00284195
0.0028057
0.00283948
0.00283948
0.00280816
0.00280816
0.00283948
0.00280816
0.00280816
0.00284195
0.0028057
0.00283948
0.00280816
0.00280816
0.0028057
0.00280019
0.00276395
0.00279773
0.00279773
0.00276641
0.00276641
0.00280019
0.00276395
0.00279773
0.00279773
0.00276641
0.00276641
0.00279773
0.00276641
0.00276641
0.00280019
0.00276395
0.00279773
0.00276641
0.00276641
0.00276395
0.00275844
0.00272219
0.00275597
0.00275597
0.00272465
0.00272465
0.00275844
0.00272219
0.00275597
0.00275597
0.00272465
0.00272465
0.00275597
0.00272465
0.00272465
0.00275844
0.00272219
0.00275597
0.00272465
0.00272465
0.00272219
0.00271668
0.00268044
0.00271422
0.00271422
0.0026829
0.0026829
0.00271668
0.00268044
0.00271422
0.00271422
0.0026829
0.0026829
0.00271422
0.0026829
0.0026829
0.00271668
0.00268044
0.00271422
0.0026829
0.0026829
0.00268044
0.00267493
0.00263869
0.00267246
0.00267246
0.00264115
0.00264115
0.00267493
0.00263869
0.00267246
0.00267246
0.00264115
0.00264115
0.00267246
0.00264115
0.00264115
0.00267493
0.00263869
0.00267246
0.00264115
0.00264115
0.00263869
0.00263318
0.00259694
0.00263071
0.00263071
0.0025994
0.0025994
0.00263318
0.00259694
0.00263071
0.00263071
0.0025994
0.0025994
0.00263071
0.0025994
0.0025994
0.00263318
0.00259694
0.00263071
0.0025994
0.0025994
0.00259694
0.00259143
0.00255519
0.00258896
0.00258896
0.00255765
0.00255765
0.00259143
0.00255519
0.00258896
0.00258896
0.00255765
0.00255765
0.00258896
0.00255765
0.00255765
0.00259143
0.00255519
0.00258896
0.00255765
0.00255765
0.00255519
0.00254968
0.00251345
0.00254722
0.00254722
0.00251591
0.00251591
0.00254968
0.00251345
0.00254722
0.00254722
0.00251591
0.00251591
0.00254722
0.00251591
0.00251591
0.00254968
0.00251345
0.00254722
0.00251591
0.00251591
0.00251345
0.00250794
0.0024717
0.00250547
0.00250547
0.00247416
0.00247416
0.00250794
0.0024717
0.00250547
0.00250547
0.00247416
0.00247416
0.00250547
0.00247416
0.00247416
0.00250794
0.0024717
0.00250547
0.00247416
0.00247416
0.0024717
0.00246619
0.00242994
0.00246372
0.00246372
0.0024324
0.0024324
0.00246619
0.00242994
0.00246372
0.00246372
0.0024324
0.0024324
0.00246372
0.0024324
0.0024324
0.00246619
0.00242994
0.00246372
0.0024324
0.0024324
0.00242994
0.00242443
0.00238819
0.00242196
0.00242196
0.00239065
0.00239065
0.00242443
0.00238819
0.00242196
0.00242196
0.00239065
0.00239065
0.00242196
0.00239065
0.00239065
0.00242443
0.00238819
0.00242196
0.00239065
0.00239065
0.00238819
0.00238268
0.00234644
0.00238021
0.00238021
0.0023489
0.0023489
0.00238268
0.00234644
0.00238021
0.00238021
0.0023489
0.0023489
0.00238021
0.0023489
0.0023489
0.00238268
0.00234644
0.00238021
0.0023489
0.0023489
0.00234644
0.00234093
0.00230469
0.00233846
0.00233846
0.00230715
0.00230715
0.00234093
0.00230469
0.00233846
0.00233846
0.00230715
0.00230715
0.00233846
0.00230715
0.00230715
0.00234093
0.00230469
0.00233846
0.00230715
0.00230715
0.00230469
0.00229918
0.00226294
0.00229671
0.00229671
0.0022654
0.0022654
0.00229918
0.00226294
0.00229671
0.00229671
0.0022654
0.0022654
0.00229671
0.0022654
0.0022654
0.00229918
0.00226294
0.00229671
0.0022654
0.0022654
0.00226294
0.00225743
0.00222119
0.00225496
0.00225496
0.00222365
0.00222365
0.00225743
0.00222119
0.00225496
0.00225496
0.00222365
0.00222365
0.00225496
0.00222365
0.00222365
0.00225743
0.00222119
0.00225496
0.00222365
0.00222365
0.00222119
0.00221568
0.00217944
0.00221321
0.00221322
0.0021819
0.0021819
0.00221568
0.00217944
0.00221321
0.00221321
0.0021819
0.0021819
0.00221322
0.0021819
0.0021819
0.00221568
0.00217944
0.00221322
0.0021819
0.0021819
0.00217944
0.00217393
0.00213769
0.00217147
0.00217147
0.00214015
0.00214015
0.00217393
0.00213769
0.00217147
0.00217147
0.00214015
0.00214015
0.00217147
0.00214015
0.00214015
0.00217393
0.00213769
0.00217147
0.00214015
0.00214015
0.00213769
0.00213218
0.00209595
0.00212972
0.00212972
0.00209841
0.00209841
0.00213218
0.00209595
0.00212972
0.00212972
0.00209841
0.00209841
0.00212972
0.00209841
0.00209841
0.00213218
0.00209595
0.00212972
0.00209841
0.00209841
0.00209595
0.00209044
0.0020542
0.00208797
0.00208797
0.00205666
0.00205666
0.00209044
0.0020542
0.00208797
0.00208797
0.00205666
0.00205666
0.00208797
0.00205666
0.00205666
0.00209044
0.0020542
0.00208797
0.00205666
0.00205666
0.0020542
0.00204869
0.00201245
0.00204622
0.00204622
0.00201491
0.00201491
0.00204869
0.00201245
0.00204622
0.00204622
0.00201491
0.00201491
0.00204622
0.00201491
0.00201491
0.00204869
0.00201245
0.00204622
0.00201491
0.00201491
0.00201245
0.00200694
0.0019707
0.00200447
0.00200447
0.00197316
0.00197316
0.00200694
0.0019707
0.00200447
0.00200447
0.00197316
0.00197316
0.00200447
0.00197316
0.00197316
0.00200694
0.0019707
0.00200447
0.00197316
0.00197316
0.0019707
0.00196519
0.00192896
0.00196273
0.00196273
0.00193142
0.00193142
0.00196519
0.00192896
0.00196273
0.00196273
0.00193142
0.00193142
0.00196273
0.00193142
0.00193142
0.00196519
0.00192896
0.00196273
0.00193142
0.00193142
0.00192896
0.00192345
0.00188721
0.00192098
0.00192098
0.00188967
0.00188967
0.00192345
0.00188721
0.00192098
0.00192098
0.00188967
0.00188967
0.00192098
0.00188967
0.00188967
0.00192345
0.00188721
0.00192098
0.00188967
0.00188967
0.00188721
0.0018817
0.00184546
0.00187923
0.00187923
0.00184792
0.00184792
0.0018817
0.00184546
0.00187923
0.00187923
0.00184792
0.00184792
0.00187923
0.00184792
0.00184792
0.0018817
0.00184546
0.00187923
0.00184792
0.00184792
0.00184546
0.00183995
0.00180372
0.00183749
0.00183749
0.00180618
0.00180618
0.00183995
0.00180372
0.00183749
0.00183749
0.00180618
0.00180618
0.00183749
0.00180618
0.00180618
0.00183995
0.00180372
0.00183749
0.00180618
0.00180618
0.00180372
0.00179821
0.00176198
0.00179574
0.00179574
0.00176444
0.00176444
0.00179821
0.00176198
0.00179574
0.00179574
0.00176444
0.00176444
0.00179575
0.00176444
0.00176444
0.00179821
0.00176198
0.00179574
0.00176444
0.00176444
0.00176198
0.00175647
0.00172023
0.001754
0.001754
0.00172269
0.00172269
0.00175647
0.00172023
0.001754
0.001754
0.00172269
0.00172269
0.001754
0.00172269
0.00172269
0.00175647
0.00172023
0.001754
0.00172269
0.00172269
0.00172023
0.00171472
0.00167847
0.00171225
0.00171225
0.00168093
0.00168093
0.00171472
0.00167847
0.00171225
0.00171225
0.00168093
0.00168093
0.00171225
0.00168093
0.00168093
0.00171472
0.00167847
0.00171225
0.00168093
0.00168093
0.00167847
0.00167296
0.00163672
0.00167049
0.00167049
0.00163918
0.00163918
0.00167296
0.00163672
0.00167049
0.00167049
0.00163918
0.00163918
0.00167049
0.00163918
0.00163918
0.00167296
0.00163672
0.00167049
0.00163918
0.00163918
0.00163672
0.00163121
0.00159498
0.00162875
0.00162875
0.00159744
0.00159744
0.00163121
0.00159498
0.00162875
0.00162875
0.00159744
0.00159744
0.00162875
0.00159744
0.00159744
0.00163121
0.00159498
0.00162875
0.00159744
0.00159744
0.00159498
0.00158947
0.00155323
0.001587
0.001587
0.00155569
0.00155569
0.00158947
0.00155323
0.001587
0.001587
0.00155569
0.00155569
0.001587
0.00155569
0.00155569
0.00158947
0.00155323
0.001587
0.00155569
0.00155569
0.00155323
0.00154772
0.00151149
0.00154526
0.00154526
0.00151395
0.00151395
0.00154772
0.00151149
0.00154526
0.00154526
0.00151395
0.00151395
0.00154526
0.00151395
0.00151395
0.00154772
0.00151149
0.00154526
0.00151395
0.00151395
0.00151149
0.00150598
0.00146974
0.00150351
0.00150351
0.0014722
0.0014722
0.00150598
0.00146974
0.00150351
0.00150351
0.0014722
0.0014722
0.00150351
0.0014722
0.0014722
0.00150598
0.00146974
0.00150351
0.0014722
0.0014722
0.00146974
0.00146423
0.00142799
0.00146176
0.00146176
0.00143046
0.00143045
0.00146423
0.001428
0.00146176
0.00146176
0.00143045
0.00143046
0.00146176
0.00143046
0.00143046
0.00146423
0.00142799
0.00146176
0.00143046
0.00143046
0.00142799
0.00142249
0.00138625
0.00142002
0.00142002
0.00138871
0.00138871
0.00142249
0.00138625
0.00142002
0.00142002
0.00138871
0.00138871
0.00142002
0.00138871
0.00138871
0.00142249
0.00138625
0.00142002
0.00138871
0.00138871
0.00138625
0.00138074
0.0013445
0.00137827
0.00137827
0.00134696
0.00134696
0.00138074
0.0013445
0.00137827
0.00137827
0.00134696
0.00134696
0.00137827
0.00134696
0.00134696
0.00138074
0.0013445
0.00137827
0.00134696
0.00134696
0.0013445
0.00133899
0.00130275
0.00133653
0.00133653
0.00130522
0.00130522
0.00133899
0.00130276
0.00133653
0.00133653
0.00130521
0.00130522
0.00133653
0.00130522
0.00130522
0.00133899
0.00130275
0.00133653
0.00130522
0.00130522
0.00130275
0.00129725
0.00126101
0.00129478
0.00129478
0.00126347
0.00126347
0.00129725
0.00126101
0.00129478
0.00129478
0.00126347
0.00126347
0.00129478
0.00126347
0.00126347
0.00129725
0.00126101
0.00129478
0.00126347
0.00126347
0.00126101
0.0012555
0.00121926
0.00125303
0.00125303
0.00122172
0.00122172
0.0012555
0.00121926
0.00125303
0.00125303
0.00122172
0.00122172
0.00125303
0.00122172
0.00122172
0.0012555
0.00121926
0.00125303
0.00122172
0.00122172
0.00121926
0.00121375
0.00117751
0.00121128
0.00121128
0.00117997
0.00117997
0.00121375
0.00117751
0.00121128
0.00121128
0.00117997
0.00117997
0.00121128
0.00117997
0.00117997
0.00121375
0.00117751
0.00121128
0.00117997
0.00117997
0.00117751
0.001172
0.00113577
0.00116954
0.00116954
0.00113823
0.00113823
0.001172
0.00113577
0.00116954
0.00116954
0.00113823
0.00113823
0.00116954
0.00113823
0.00113823
0.001172
0.00113577
0.00116954
0.00113823
0.00113823
0.00113577
0.00113026
0.00109402
0.00112779
0.00112779
0.00109648
0.00109648
0.00113026
0.00109402
0.00112779
0.00112779
0.00109648
0.00109648
0.00112779
0.00109648
0.00109648
0.00113026
0.00109402
0.00112779
0.00109648
0.00109648
0.00109402
0.00108851
0.00105228
0.00108605
0.00108605
0.00105474
0.00105474
0.00108851
0.00105228
0.00108605
0.00108605
0.00105474
0.00105474
0.00108605
0.00105474
0.00105474
0.00108851
0.00105228
0.00108605
0.00105474
0.00105474
0.00105228
0.00104677
0.00101053
0.0010443
0.0010443
0.00101299
0.00101299
0.00104677
0.00101053
0.0010443
0.0010443
0.00101299
0.00101299
0.0010443
0.00101299
0.00101299
0.00104677
0.00101053
0.0010443
0.00101299
0.00101299
0.00101053
0.00100502
0.000968779
0.00100256
0.00100256
0.00097124
0.00097124
0.00100502
0.000968779
0.00100256
0.00100256
0.00097124
0.00097124
0.00100256
0.00097124
0.00097124
0.00100502
0.000968778
0.00100256
0.00097124
0.000971239
0.000968778
0.000963268
0.000927026
0.000960801
0.000960801
0.000929486
0.000929486
0.000963268
0.000927026
0.000960801
0.0009608
0.000929486
0.000929486
0.0009608
0.000929486
0.000929487
0.000963267
0.000927026
0.0009608
0.000929487
0.000929487
0.000927026
0.000921516
0.000885278
0.000919049
0.000919049
0.000887738
0.000887738
0.000921516
0.000885278
0.000919049
0.000919049
0.000887738
0.000887738
0.00091905
0.000887738
0.000887738
0.000921516
0.000885278
0.000919049
0.000887738
0.000887738
0.000885278
0.000879768
0.000843529
0.000877301
0.000877301
0.00084599
0.00084599
0.000879768
0.00084353
0.000877301
0.000877301
0.00084599
0.00084599
0.000877301
0.00084599
0.00084599
0.000879768
0.000843529
0.000877301
0.00084599
0.00084599
0.000843529
0.00083802
0.000801782
0.000835553
0.000835553
0.000804242
0.000804242
0.00083802
0.000801782
0.000835553
0.000835553
0.000804242
0.000804242
0.000835553
0.000804242
0.000804242
0.00083802
0.000801782
0.000835553
0.000804242
0.000804242
0.000801782
0.000796272
0.000760034
0.000793805
0.000793805
0.000762495
0.000762494
0.000796272
0.000760034
0.000793805
0.000793805
0.000762494
0.000762494
0.000793805
0.000762495
0.000762495
0.000796272
0.000760034
0.000793805
0.000762494
0.000762494
0.000760034
0.000754525
0.000718287
0.000752058
0.000752058
0.000720747
0.000720747
0.000754525
0.000718287
0.000752058
0.000752058
0.000720747
0.000720747
0.000752058
0.000720747
0.000720747
0.000754525
0.000718287
0.000752058
0.000720747
0.000720747
0.000718287
0.000712777
0.000676537
0.00071031
0.00071031
0.000678998
0.000678998
0.000712777
0.000676538
0.00071031
0.00071031
0.000678998
0.000678998
0.00071031
0.000678998
0.000678998
0.000712777
0.000676537
0.00071031
0.000678998
0.000678998
0.000676537
0.000671027
0.000634788
0.00066856
0.00066856
0.000637248
0.000637248
0.000671027
0.000634788
0.00066856
0.00066856
0.000637248
0.000637248
0.000668561
0.000637248
0.000637249
0.000671027
0.000634788
0.00066856
0.000637248
0.000637248
0.000634788
0.000629278
0.000593039
0.000626811
0.000626811
0.0005955
0.0005955
0.000629278
0.00059304
0.000626811
0.000626811
0.000595499
0.0005955
0.000626811
0.0005955
0.0005955
0.000629278
0.000593039
0.000626811
0.0005955
0.0005955
0.000593039
0.00058753
0.000551291
0.000585063
0.000585063
0.000553752
0.000553752
0.000587529
0.000551292
0.000585062
0.000585063
0.000553751
0.000553752
0.000585063
0.000553752
0.000553752
0.00058753
0.000551291
0.000585063
0.000553752
0.000553752
0.000551291
0.000545782
0.000509543
0.000543315
0.000543315
0.000512003
0.000512003
0.000545782
0.000509543
0.000543315
0.000543315
0.000512003
0.000512003
0.000543315
0.000512003
0.000512004
0.000545782
0.000509543
0.000543315
0.000512003
0.000512003
0.000509543
0.000504033
0.000467793
0.000501566
0.000501566
0.000470254
0.000470253
0.000504033
0.000467793
0.000501566
0.000501566
0.000470253
0.000470254
0.000501566
0.000470253
0.000470254
0.000504033
0.000467793
0.000501566
0.000470254
0.000470253
0.000467793
0.000462283
0.000426046
0.000459816
0.000459816
0.000428506
0.000428506
0.000462283
0.000426046
0.000459816
0.000459816
0.000428506
0.000428506
0.000459816
0.000428506
0.000428506
0.000462283
0.000426045
0.000459816
0.000428506
0.000428506
0.000426046
0.000420536
0.0003843
0.000418069
0.000418069
0.00038676
0.00038676
0.000420536
0.0003843
0.000418069
0.000418069
0.000386759
0.000386759
0.000418069
0.00038676
0.00038676
0.000420536
0.000384299
0.000418069
0.000386759
0.00038676
0.0003843
0.00037879
0.000342556
0.000376324
0.000376324
0.000345016
0.000345016
0.00037879
0.000342556
0.000376323
0.000376323
0.000345016
0.000345016
0.000376324
0.000345016
0.000345016
0.00037879
0.000342556
0.000376323
0.000345016
0.000345016
0.000342556
0.000337047
0.000300813
0.00033458
0.00033458
0.000303273
0.000303273
0.000337047
0.000300813
0.00033458
0.00033458
0.000303273
0.000303272
0.00033458
0.000303273
0.000303273
0.000337047
0.000300812
0.00033458
0.000303273
0.000303273
0.000300813
0.000295303
0.000259057
0.000292837
0.000292836
0.000261517
0.000261517
0.000295303
0.000259055
0.000292837
0.000292837
0.000261516
0.000261517
0.000292837
0.000261517
0.000261517
0.000295303
0.000259057
0.000292837
0.000261517
0.000261517
0.000259056
0.000253539
0.000217299
0.000251074
0.000251073
0.000219758
0.000219757
0.000253538
0.0002173
0.000251074
0.000251074
0.000219757
0.000219758
0.000251074
0.000219758
0.000219758
0.00025354
0.000217299
0.000251073
0.000219758
0.000219757
0.000217299
0.000211789
0.000175547
0.000209328
0.000209328
0.000178003
0.000178003
0.00021179
0.000175548
0.000209327
0.000209327
0.000178002
0.000178003
0.000209328
0.000178003
0.000178003
0.000211789
0.000175547
0.000209328
0.000178003
0.000178003
0.000175548
0.000170007
0.000133793
0.000167551
0.000167551
0.000136253
0.000136254
0.000170007
0.000133794
0.000167551
0.000167551
0.000136253
0.000136253
0.000167551
0.000136253
0.000136254
0.000170007
0.000133793
0.000167551
0.000136253
0.000136253
0.000133793
0.000128248
9.20312e-05
0.000125806
0.000125807
9.44856e-05
9.44861e-05
0.000128248
9.20319e-05
0.000125806
0.000125806
9.44853e-05
9.4485e-05
0.000125807
9.44857e-05
9.44852e-05
0.000128247
9.20304e-05
0.000125807
9.44848e-05
9.44848e-05
9.20306e-05
8.64512e-05
5.03034e-05
8.40346e-05
8.40349e-05
5.276e-05
5.27604e-05
8.64512e-05
5.03044e-05
8.4034e-05
8.40334e-05
5.2758e-05
5.27575e-05
8.4034e-05
5.27592e-05
5.27572e-05
8.64507e-05
5.03009e-05
8.40335e-05
5.27567e-05
5.2756e-05
5.03006e-05
4.47218e-05
1.24508e-05
4.24416e-05
4.24417e-05
1.46481e-05
1.46475e-05
4.47221e-05
1.24509e-05
4.24396e-05
4.24383e-05
1.4646e-05
1.46424e-05
4.24376e-05
1.4645e-05
1.46408e-05
4.47187e-05
1.24462e-05
4.24364e-05
1.46426e-05
1.46421e-05
1.24451e-05
8.83799e-06
9.29156e-06
9.29219e-06
8.83958e-06
9.28997e-06
9.28729e-06
9.09436e-06
9.0919e-06
9.09168e-06
9.28664e-06
8.83495e-06
9.28719e-06
0.00400126
0.00401102
0.00400582
0.00400582
0.0040282
0.00401498
0.00404358
0.00400903
0.0040282
0.00401499
0.00400903
0.00404358
0.00401955
0.00404732
0.00404732
0.00395661
0.00397576
0.00398496
0.00394868
0.00394946
0.0039522
0.00395659
0.00397574
0.00398495
0.00394866
0.00397947
0.00397948
0.00397948
0.00393606
0.00393606
0.00393606
0.00393606
0.00395412
0.00397995
0.00397987
0.00396294
0.00398297
0.00395302
0.00396382
0.00394956
0.0039522
0.00395412
0.00397988
0.00397996
0.00396294
0.00398296
0.00396382
0.00395302
0.00398582
0.0039858
0.00395734
0.00395265
0.00395265
0.00390994
0.00392927
0.00393062
0.00390845
0.00392818
0.00390803
0.00390994
0.00392927
0.00393062
0.00390844
0.0039241
0.0039241
0.0039241
0.00388652
0.00388652
0.00388652
0.00388652
0.00390854
0.00392934
0.0039241
0.00391224
0.00392813
0.00390907
0.00391197
0.00392817
0.00390802
0.00390854
0.0039241
0.00392934
0.00391224
0.00392812
0.00391197
0.00390907
0.00393037
0.00393037
0.00390878
0.00390938
0.00390938
0.00385772
0.0038766
0.00387762
0.00385663
0.00387626
0.00385634
0.00385772
0.0038766
0.00387762
0.00385663
0.00387334
0.00387334
0.00387334
0.00383394
0.00383394
0.00383393
0.00383393
0.00385681
0.00387695
0.00387322
0.00386018
0.00387637
0.00385715
0.00386008
0.00387626
0.00385634
0.00385681
0.00387322
0.00387696
0.00386018
0.00387637
0.00386008
0.00385715
0.00387722
0.00387722
0.00385681
0.0038572
0.0038572
0.00380507
0.00382389
0.00382476
0.00380433
0.00382369
0.00380415
0.00380507
0.00382389
0.00382476
0.00380433
0.00382092
0.00382092
0.00382092
0.00378235
0.00378235
0.00378235
0.00378235
0.00380462
0.00382428
0.00382089
0.003808
0.00382396
0.00380478
0.00380798
0.00382369
0.00380414
0.00380462
0.00382089
0.00382428
0.003808
0.00382397
0.00380798
0.00380478
0.00382434
0.00382434
0.0038047
0.00380471
0.00380471
0.00375386
0.0037723
0.00377295
0.00375338
0.00377213
0.00375325
0.00375385
0.0037723
0.00377295
0.00375338
0.00376962
0.00376962
0.00376962
0.00373228
0.00373228
0.00373228
0.00373228
0.00375365
0.00377266
0.0037696
0.00375698
0.00377249
0.00375375
0.00375698
0.00377213
0.00375326
0.00375365
0.0037696
0.00377266
0.00375698
0.00377249
0.00375698
0.00375375
0.00377261
0.00377261
0.00375374
0.0037537
0.0037537
0.00370467
0.00372208
0.00372282
0.00370443
0.00372188
0.00370413
0.00370467
0.00372208
0.00372282
0.00370443
0.00372023
0.00372023
0.00372023
0.00368597
0.00368596
0.00368596
0.00368597
0.00370488
0.00372251
0.00372013
0.00370831
0.00372259
0.00370482
0.00370838
0.00372188
0.00370414
0.00370488
0.00372013
0.00372251
0.00370831
0.0037226
0.00370838
0.00370482
0.00372227
0.00372227
0.0037053
0.00370448