/*--------------------------------*- C++ -*----------------------------------*\
| =========                 |                                                 |
| \\      /  F ield         | OpenFOAM: The Open Source CFD Toolbox           |
|  \\    /   O peration     | Version:  2206                                  |
|   \\  /    A nd           | Website:  www.openfoam.com                      |
|    \\/     M anipulation  |                                                 |
\*---------------------------------------------------------------------------*/
FoamFile
{
    version     2.0;
    format      ascii;
    arch        "LSB;label=32;scalar=64";
    class       volVectorField;
    location    "35";
    object      U;
}
// * * * * * * * * * * * * * * * * * * * * * * * * * * * * * * * * * * * * * //

dimensions      [0 1 -1 0 0 0 0];

internalField   nonuniform List<vector> 
28448
(
(-8.65859e-07 -8.64748e-07 0.103809)
(-5.85982e-07 8.95407e-07 0.103699)
(8.94424e-07 -5.78789e-07 0.103699)
(-4.72424e-05 -4.72496e-05 0.103548)
(-8.70813e-07 -8.67964e-07 0.103809)
(-5.77337e-07 8.92033e-07 0.103699)
(8.92077e-07 -5.71381e-07 0.103699)
(-4.72352e-05 -4.72425e-05 0.103548)
(-8.72288e-07 -8.69125e-07 0.103809)
(-5.68543e-07 8.87287e-07 0.103699)
(8.87931e-07 -5.65114e-07 0.103699)
(-4.72292e-05 -4.72369e-05 0.103548)
(-8.78782e-07 -8.73644e-07 0.103809)
(-5.58405e-07 8.83786e-07 0.103699)
(8.8192e-07 -5.51851e-07 0.103699)
(-4.72227e-05 -4.72243e-05 0.103548)
(-8.8939e-07 -8.83453e-07 0.103809)
(-5.40072e-07 8.78503e-07 0.103699)
(8.75278e-07 -5.17601e-07 0.103698)
(-4.72208e-05 -4.72138e-05 0.103548)
(-8.82497e-07 -8.82048e-07 0.103809)
(-5.64323e-07 8.87694e-07 0.103698)
(8.77357e-07 -5.4077e-07 0.103698)
(-4.72356e-05 -4.72406e-05 0.103548)
(-8.54488e-07 -8.84378e-07 0.103808)
(-6.29836e-07 8.89078e-07 0.103698)
(9.58293e-07 -6.71224e-07 0.103698)
(-4.72923e-05 -4.73123e-05 0.103548)
(-7.91429e-07 -7.67314e-07 0.103809)
(-6.56588e-07 9.65458e-07 0.103699)
(9.07746e-07 -6.19324e-07 0.103699)
(-4.73336e-05 -4.73335e-05 0.103548)
(-8.88681e-07 -8.80443e-07 0.103809)
(-5.50913e-07 8.68617e-07 0.103699)
(8.70478e-07 -5.47977e-07 0.103699)
(-4.72261e-05 -4.72267e-05 0.103548)
(-8.74822e-07 -8.7657e-07 0.103809)
(-5.74077e-07 8.81268e-07 0.103699)
(8.87845e-07 -5.71835e-07 0.103699)
(-4.72508e-05 -4.72594e-05 0.103548)
(-8.67903e-07 -8.68029e-07 0.103809)
(-5.8129e-07 8.89851e-07 0.103699)
(8.91981e-07 -5.76018e-07 0.103699)
(-4.72559e-05 -4.72637e-05 0.103548)
(-8.67097e-07 -8.66504e-07 0.103809)
(-5.81734e-07 8.91804e-07 0.103699)
(8.92894e-07 -5.76088e-07 0.103699)
(-4.72565e-05 -4.72637e-05 0.103548)
(-8.66349e-07 -8.65924e-07 0.103809)
(-5.81808e-07 8.91992e-07 0.103699)
(8.93819e-07 -5.76856e-07 0.103699)
(-4.72565e-05 -4.72637e-05 0.103548)
(-8.6602e-07 -8.65256e-07 0.103809)
(-5.82001e-07 8.92474e-07 0.103699)
(8.93502e-07 -5.7634e-07 0.103699)
(-4.72567e-05 -4.72636e-05 0.103548)
(-8.66417e-07 -8.65436e-07 0.103809)
(-5.82233e-07 8.92384e-07 0.103699)
(8.93169e-07 -5.76005e-07 0.103699)
(-4.72564e-05 -4.7263e-05 0.103548)
(-8.66712e-07 -8.65836e-07 0.103809)
(-5.8161e-07 8.91842e-07 0.103699)
(8.92884e-07 -5.76229e-07 0.103699)
(-4.72553e-05 -4.72622e-05 0.103548)
(-8.66806e-07 -8.65646e-07 0.103809)
(-5.811e-07 8.91659e-07 0.103699)
(8.9247e-07 -5.75634e-07 0.103699)
(-4.72515e-05 -4.72582e-05 0.103548)
(-8.66367e-07 -8.6479e-07 0.103809)
(8.91418e-07 -5.77057e-07 0.103699)
(-4.96198e-05 -4.95912e-05 0.103556)
(9.22416e-07 6.02609e-07 0.103699)
(-9.26341e-07 6.20342e-07 0.103699)
(4.96232e-05 -4.95985e-05 0.103556)
(5.85182e-07 8.98996e-07 0.103699)
(6.11711e-07 -9.24692e-07 0.103699)
(-5.85086e-07 8.94604e-07 0.103699)
(-6.1829e-07 -9.14139e-07 0.103699)
(-4.95916e-05 4.96242e-05 0.103556)
(8.95431e-07 -5.79029e-07 0.103699)
(-8.92955e-07 -5.94718e-07 0.103699)
(4.95876e-05 4.96156e-05 0.103556)
(4.72436e-05 4.72309e-05 0.103548)
(-4.96222e-05 -4.95916e-05 0.103556)
(9.22007e-07 6.08627e-07 0.103699)
(-9.26817e-07 6.2128e-07 0.103699)
(9.18577e-07 5.95976e-07 0.103699)
(-9.23539e-07 6.14385e-07 0.103699)
(-4.72401e-05 4.72088e-05 0.103548)
(4.96252e-05 -4.95991e-05 0.103556)
(5.87204e-07 9.00884e-07 0.103699)
(6.10209e-07 -9.23826e-07 0.103699)
(5.77495e-07 8.97168e-07 0.103699)
(6.03188e-07 -9.18902e-07 0.103699)
(-6.17472e-07 -9.12791e-07 0.103699)
(-5.76724e-07 8.93018e-07 0.103699)
(-6.09176e-07 -9.08349e-07 0.103699)
(4.72231e-05 -4.72604e-05 0.103548)
(-4.95944e-05 4.96295e-05 0.103556)
(-8.91812e-07 -5.9381e-07 0.103699)
(8.91548e-07 -5.69237e-07 0.103699)
(-8.886e-07 -5.84955e-07 0.103699)
(4.95918e-05 4.96198e-05 0.103556)
(4.72352e-05 4.7224e-05 0.103548)
(-4.96259e-05 -4.95948e-05 0.103556)
(9.17347e-07 6.00044e-07 0.103699)
(-9.23253e-07 6.13086e-07 0.103699)
(9.1759e-07 5.9137e-07 0.103699)
(-9.19156e-07 6.08319e-07 0.103699)
(-4.72321e-05 4.72014e-05 0.103548)
(4.96331e-05 -4.96039e-05 0.103556)
(5.78158e-07 8.97343e-07 0.103699)
(6.04041e-07 -9.20257e-07 0.103699)
(5.71657e-07 8.95809e-07 0.103699)
(5.95919e-07 -9.14305e-07 0.103699)
(-6.10597e-07 -9.0919e-07 0.103699)
(-5.68748e-07 8.88401e-07 0.103699)
(-6.01804e-07 -9.04749e-07 0.103699)
(4.72176e-05 -4.72522e-05 0.103548)
(-4.96013e-05 4.96355e-05 0.103556)
(-8.89315e-07 -5.86912e-07 0.103699)
(8.86998e-07 -5.61458e-07 0.103699)
(-8.84771e-07 -5.78353e-07 0.103699)
(4.95978e-05 4.96248e-05 0.103556)
(4.723e-05 4.72197e-05 0.103548)
(-4.96321e-05 -4.95996e-05 0.103556)
(9.14001e-07 5.93423e-07 0.103699)
(-9.17152e-07 6.05197e-07 0.103699)
(9.14132e-07 5.88679e-07 0.103699)
(-9.17513e-07 6.05159e-07 0.103699)
(-4.72228e-05 4.71961e-05 0.103548)
(4.96365e-05 -4.96072e-05 0.103556)
(5.70572e-07 8.94187e-07 0.103699)
(5.99295e-07 -9.15671e-07 0.103699)
(5.65075e-07 8.93917e-07 0.103699)
(5.87673e-07 -9.04837e-07 0.103698)
(-6.04358e-07 -9.04972e-07 0.103699)
(-5.6117e-07 8.89018e-07 0.103699)
(-5.92631e-07 -8.94158e-07 0.103698)
(4.72112e-05 -4.72461e-05 0.103548)
(-4.96059e-05 4.96454e-05 0.103556)
(-8.85214e-07 -5.81848e-07 0.103699)
(8.80555e-07 -5.48735e-07 0.103699)
(-8.78029e-07 -5.65063e-07 0.103699)
(4.96039e-05 4.96356e-05 0.103556)
(4.72253e-05 4.7216e-05 0.103548)
(-4.964e-05 -4.96099e-05 0.103556)
(9.06643e-07 5.84654e-07 0.103698)
(-9.11309e-07 5.97169e-07 0.103698)
(9.18019e-07 5.84134e-07 0.103698)
(-9.22094e-07 6.01428e-07 0.103698)
(-4.722e-05 4.71938e-05 0.103548)
(4.96438e-05 -4.96157e-05 0.103556)
(5.60339e-07 8.89177e-07 0.103699)
(5.88332e-07 -9.05003e-07 0.103698)
(5.61566e-07 8.97767e-07 0.103699)
(5.78014e-07 -9.0009e-07 0.103698)
(-5.96817e-07 -8.94194e-07 0.103698)
(-5.58701e-07 8.94135e-07 0.103699)
(-5.83235e-07 -8.89173e-07 0.103698)
(4.72043e-05 -4.72351e-05 0.103548)
(-4.9612e-05 4.96608e-05 0.103556)
(-8.8037e-07 -5.66025e-07 0.103699)
(8.84054e-07 -5.25663e-07 0.103698)
(-8.81684e-07 -5.43286e-07 0.103698)
(4.96089e-05 4.96518e-05 0.103556)
(4.72204e-05 4.7209e-05 0.103548)
(-4.96594e-05 -4.96329e-05 0.103556)
(9.04108e-07 5.69825e-07 0.103698)
(-9.08655e-07 5.8138e-07 0.103698)
(9.20698e-07 5.82604e-07 0.103698)
(-9.27396e-07 5.97913e-07 0.103698)
(-4.72168e-05 4.71888e-05 0.103548)
(4.96599e-05 -4.96358e-05 0.103556)
(5.43913e-07 8.84623e-07 0.103698)
(5.68198e-07 -8.91028e-07 0.103698)
(5.69923e-07 8.95317e-07 0.103698)
(5.93739e-07 -9.26324e-07 0.103698)
(-5.73146e-07 -8.79285e-07 0.103698)
(-5.7422e-07 8.94402e-07 0.103698)
(-6.04035e-07 -9.16836e-07 0.103698)
(4.7203e-05 -4.72243e-05 0.103548)
(-4.96198e-05 4.96556e-05 0.103556)
(-8.72498e-07 -5.31591e-07 0.103698)
(9.0265e-07 -5.62126e-07 0.103698)
(-9.01671e-07 -5.75747e-07 0.103698)
(4.96135e-05 4.96459e-05 0.103556)
(4.72219e-05 4.72048e-05 0.103548)
(-4.96873e-05 -4.96748e-05 0.103556)
(9.26081e-07 5.91068e-07 0.103698)
(-9.31018e-07 6.01203e-07 0.103698)
(8.88631e-07 5.31476e-07 0.103698)
(-8.99528e-07 5.47929e-07 0.103698)
(-4.72214e-05 4.71854e-05 0.103548)
(4.96842e-05 -4.96776e-05 0.103556)
(5.71041e-07 8.97019e-07 0.103698)
(5.73572e-07 -9.09075e-07 0.103698)
(5.38577e-07 8.48192e-07 0.103698)
(5.93283e-07 -9.51112e-07 0.103698)
(-5.79372e-07 -8.95488e-07 0.103698)
(-5.53362e-07 8.49599e-07 0.103698)
(-6.10372e-07 -9.44069e-07 0.103698)
(4.72132e-05 -4.72507e-05 0.103548)
(-4.96239e-05 4.964e-05 0.103556)
(-8.76372e-07 -5.53525e-07 0.103698)
(9.04458e-07 -5.87426e-07 0.103698)
(-9.07968e-07 -6.03022e-07 0.103698)
(4.96145e-05 4.96299e-05 0.103556)
(4.72262e-05 4.71937e-05 0.103548)
(-4.94852e-05 -4.94504e-05 0.103556)
(9.42227e-07 5.95855e-07 0.103698)
(-9.57029e-07 6.05112e-07 0.103698)
(1.00315e-06 7.46432e-07 0.103698)
(-1.00115e-06 7.6214e-07 0.103698)
(-4.72339e-05 4.71759e-05 0.103548)
(4.94975e-05 -4.94577e-05 0.103556)
(6.08916e-07 8.94783e-07 0.103698)
(6.67528e-07 -1.0147e-06 0.103698)
(7.18328e-07 9.85993e-07 0.103698)
(7.17827e-07 -9.60416e-07 0.103698)
(-6.91776e-07 -1.00252e-06 0.103698)
(-7.0419e-07 9.8268e-07 0.103698)
(-7.20144e-07 -9.50946e-07 0.103698)
(4.72648e-05 -4.73222e-05 0.103548)
(-4.95025e-05 4.95446e-05 0.103556)
(-9.63193e-07 -6.82009e-07 0.103698)
(9.41304e-07 -6.73941e-07 0.103699)
(-9.35953e-07 -6.92719e-07 0.103699)
(4.95046e-05 4.95365e-05 0.103556)
(4.73912e-05 4.73926e-05 0.103548)
(-4.96731e-05 -4.96299e-05 0.103556)
(9.63986e-07 7.20721e-07 0.103699)
(-9.5992e-07 7.33102e-07 0.103699)
(8.91685e-07 5.9009e-07 0.103699)
(-8.91871e-07 6.08658e-07 0.103699)
(-4.7375e-05 4.73732e-05 0.103548)
(4.96815e-05 -4.96365e-05 0.103556)
(6.75881e-07 9.64374e-07 0.103699)
(6.73239e-07 -9.12313e-07 0.103699)
(5.57693e-07 8.83485e-07 0.103699)
(5.88288e-07 -8.81163e-07 0.103699)
(-6.71289e-07 -9.06831e-07 0.103699)
(-5.52971e-07 8.79077e-07 0.103699)
(-5.91766e-07 -8.73593e-07 0.103699)
(4.73225e-05 -4.73422e-05 0.103548)
(-4.96423e-05 4.96874e-05 0.103556)
(-9.00247e-07 -6.36945e-07 0.103699)
(8.68062e-07 -5.42844e-07 0.103699)
(-8.64592e-07 -5.59477e-07 0.103699)
(4.964e-05 4.96765e-05 0.103556)
(4.72188e-05 4.72156e-05 0.103548)
(-4.96511e-05 -4.96259e-05 0.103556)
(8.90885e-07 5.82048e-07 0.103699)
(-8.94008e-07 5.9527e-07 0.103699)
(9.0889e-07 5.8336e-07 0.103699)
(-9.14032e-07 6.00835e-07 0.103699)
(-4.72117e-05 4.71933e-05 0.103549)
(4.96536e-05 -4.96336e-05 0.103556)
(5.53547e-07 8.76096e-07 0.103699)
(5.85436e-07 -8.92514e-07 0.103699)
(5.68218e-07 8.82236e-07 0.103699)
(5.96332e-07 -9.17173e-07 0.103699)
(-5.91672e-07 -8.82497e-07 0.103699)
(-5.68721e-07 8.76788e-07 0.103699)
(-6.0401e-07 -9.05925e-07 0.103699)
(4.7207e-05 -4.72362e-05 0.103548)
(-4.96212e-05 4.96504e-05 0.103556)
(-8.68473e-07 -5.63503e-07 0.103699)
(8.84962e-07 -5.66697e-07 0.103699)
(-8.84592e-07 -5.82378e-07 0.103699)
(4.96156e-05 4.96422e-05 0.103556)
(4.72459e-05 4.72296e-05 0.103548)
(-4.96405e-05 -4.96131e-05 0.103556)
(9.12981e-07 5.93317e-07 0.103699)
(-9.18755e-07 6.05465e-07 0.103699)
(9.19459e-07 5.96467e-07 0.103699)
(-9.23858e-07 6.13717e-07 0.103699)
(-4.72432e-05 4.7207e-05 0.103548)
(4.96438e-05 -4.96205e-05 0.103556)
(5.74871e-07 8.8771e-07 0.103699)
(5.9975e-07 -9.21113e-07 0.103699)
(5.80296e-07 8.93969e-07 0.103699)
(6.04789e-07 -9.22795e-07 0.103699)
(-6.07868e-07 -9.09304e-07 0.103699)
(-5.80053e-07 8.89164e-07 0.103699)
(-6.11975e-07 -9.12074e-07 0.103699)
(4.72296e-05 -4.72705e-05 0.103548)
(-4.96142e-05 4.9645e-05 0.103556)
(-8.87237e-07 -5.8709e-07 0.103699)
(8.91602e-07 -5.74311e-07 0.103699)
(-8.90958e-07 -5.90602e-07 0.103699)
(4.96089e-05 4.96361e-05 0.103556)
(4.72546e-05 4.72405e-05 0.103548)
(-4.96389e-05 -4.96105e-05 0.103556)
(9.19363e-07 6.02661e-07 0.103699)
(-9.24444e-07 6.14863e-07 0.103699)
(9.20396e-07 5.98544e-07 0.103699)
(-9.24604e-07 6.16031e-07 0.103699)
(-4.72507e-05 4.7218e-05 0.103548)
(4.96429e-05 -4.96179e-05 0.103556)
(5.82533e-07 8.95866e-07 0.103699)
(6.05592e-07 -9.23379e-07 0.103699)
(5.81369e-07 8.96336e-07 0.103699)
(6.06303e-07 -9.22424e-07 0.103699)
(-6.13265e-07 -9.12118e-07 0.103699)
(-5.81081e-07 8.91843e-07 0.103699)
(-6.13272e-07 -9.11866e-07 0.103699)
(4.72353e-05 -4.72742e-05 0.103548)
(-4.96122e-05 4.96445e-05 0.103556)
(-8.91094e-07 -5.91887e-07 0.103699)
(8.92841e-07 -5.74504e-07 0.103699)
(-8.91947e-07 -5.91176e-07 0.103699)
(4.96073e-05 4.96352e-05 0.103556)
(4.72547e-05 4.72418e-05 0.103548)
(-4.9639e-05 -4.96103e-05 0.103556)
(9.20034e-07 6.03917e-07 0.103699)
(-9.24865e-07 6.1622e-07 0.103699)
(9.20752e-07 5.99006e-07 0.103699)
(-9.24569e-07 6.16664e-07 0.103699)
(-4.72514e-05 4.72202e-05 0.103548)
(4.96425e-05 -4.96172e-05 0.103556)
(5.83061e-07 8.97544e-07 0.103699)
(6.06489e-07 -9.23023e-07 0.103699)
(5.82015e-07 8.9673e-07 0.103699)
(6.07271e-07 -9.22835e-07 0.103699)
(-6.14065e-07 -9.12037e-07 0.103699)
(-5.81212e-07 8.92204e-07 0.103699)
(-6.13561e-07 -9.12072e-07 0.103699)
(4.72357e-05 -4.72736e-05 0.103548)
(-4.96121e-05 4.96446e-05 0.103556)
(-8.91936e-07 -5.92351e-07 0.103699)
(8.93737e-07 -5.75175e-07 0.103699)
(-8.92266e-07 -5.91787e-07 0.103699)
(4.96073e-05 4.96352e-05 0.103556)
(4.72551e-05 4.72419e-05 0.103548)
(-4.96385e-05 -4.96096e-05 0.103556)
(9.20302e-07 6.04358e-07 0.103699)
(-9.24743e-07 6.16782e-07 0.103699)
(9.20963e-07 5.99545e-07 0.103699)
(-9.24837e-07 6.17237e-07 0.103699)
(-4.72505e-05 4.72196e-05 0.103548)
(4.96421e-05 -4.96167e-05 0.103556)
(5.83688e-07 8.97854e-07 0.103699)
(6.07567e-07 -9.23607e-07 0.103699)
(5.82325e-07 8.97284e-07 0.103699)
(6.07606e-07 -9.22749e-07 0.103699)
(-6.14312e-07 -9.12233e-07 0.103699)
(-5.81469e-07 8.92718e-07 0.103699)
(-6.13569e-07 -9.1184e-07 0.103699)
(4.72372e-05 -4.72747e-05 0.103548)
(-4.96115e-05 4.96441e-05 0.103556)
(-8.92195e-07 -5.92873e-07 0.103699)
(8.93852e-07 -5.75073e-07 0.103699)
(-8.92361e-07 -5.9141e-07 0.103699)
(4.9607e-05 4.96351e-05 0.103556)
(4.72555e-05 4.72427e-05 0.103548)
(-4.96386e-05 -4.96095e-05 0.103556)
(9.20521e-07 6.04916e-07 0.103699)
(-9.25009e-07 6.17219e-07 0.103699)
(9.20831e-07 5.9942e-07 0.103699)
(-9.25035e-07 6.17108e-07 0.103699)
(-4.72509e-05 4.722e-05 0.103548)
(4.9642e-05 -4.96166e-05 0.103556)
(5.83736e-07 8.98295e-07 0.103699)
(6.07364e-07 -9.23057e-07 0.103699)
(5.8213e-07 8.97321e-07 0.103699)
(6.07353e-07 -9.22199e-07 0.103699)
(-6.14372e-07 -9.11852e-07 0.103699)
(-5.81557e-07 8.9285e-07 0.103699)
(-6.13795e-07 -9.11473e-07 0.103699)
(4.7237e-05 -4.72744e-05 0.103548)
(-4.96118e-05 4.96446e-05 0.103556)
(-8.9223e-07 -5.92329e-07 0.103699)
(8.93447e-07 -5.74429e-07 0.103699)
(-8.92425e-07 -5.90893e-07 0.103699)
(4.96067e-05 4.96352e-05 0.103556)
(4.72549e-05 4.72422e-05 0.103548)
(-4.96381e-05 -4.96093e-05 0.103556)
(9.20235e-07 6.04707e-07 0.103699)
(-9.25034e-07 6.17131e-07 0.103699)
(9.20564e-07 5.99063e-07 0.103699)
(-9.24627e-07 6.16694e-07 0.103699)
(-4.72507e-05 4.72198e-05 0.103548)
(4.96413e-05 -4.9616e-05 0.103556)
(5.8338e-07 8.98163e-07 0.103699)
(6.0718e-07 -9.22697e-07 0.103699)
(5.81787e-07 8.96885e-07 0.103699)
(6.06981e-07 -9.22114e-07 0.103699)
(-6.1474e-07 -9.11697e-07 0.103699)
(-5.8118e-07 8.92413e-07 0.103699)
(-6.13728e-07 -9.11693e-07 0.103699)
(4.72361e-05 -4.72733e-05 0.103548)
(-4.96113e-05 4.96439e-05 0.103556)
(-8.92443e-07 -5.92082e-07 0.103699)
(8.93167e-07 -5.74631e-07 0.103699)
(-8.92435e-07 -5.9126e-07 0.103699)
(4.96059e-05 4.96342e-05 0.103556)
(4.72537e-05 4.72411e-05 0.103548)
(-4.96365e-05 -4.96075e-05 0.103556)
(9.19946e-07 6.04368e-07 0.103699)
(-9.24474e-07 6.16649e-07 0.103699)
(9.20235e-07 5.98902e-07 0.103699)
(-9.2449e-07 6.16431e-07 0.103699)
(-4.72488e-05 4.72179e-05 0.103548)
(4.96382e-05 -4.96128e-05 0.103556)
(5.83066e-07 8.97844e-07 0.103699)
(6.06987e-07 -9.22756e-07 0.103699)
(5.81623e-07 8.96988e-07 0.103699)
(6.06925e-07 -9.22082e-07 0.103699)
(-6.14328e-07 -9.1163e-07 0.103699)
(-5.80704e-07 8.92365e-07 0.103699)
(-6.12896e-07 -9.10801e-07 0.103699)
(4.72351e-05 -4.72725e-05 0.103548)
(-4.96096e-05 4.96421e-05 0.103556)
(-8.92016e-07 -5.92203e-07 0.103699)
(8.9328e-07 -5.74396e-07 0.103699)
(-8.91744e-07 -5.90495e-07 0.103699)
(4.96039e-05 4.96324e-05 0.103556)
(4.72515e-05 4.72392e-05 0.103548)
(-4.96357e-05 -4.96053e-05 0.103556)
(9.19828e-07 6.04241e-07 0.103699)
(-9.24333e-07 6.16332e-07 0.103699)
(9.19685e-07 5.99172e-07 0.103699)
(-4.72444e-05 4.72135e-05 0.103548)
(5.82855e-07 8.97991e-07 0.103699)
(6.06541e-07 -9.22491e-07 0.103699)
(5.81052e-07 8.96745e-07 0.103699)
(6.06028e-07 -9.21358e-07 0.103699)
(-6.13549e-07 -9.10971e-07 0.103699)
(-6.13064e-07 -9.10685e-07 0.103699)
(4.72326e-05 -4.72702e-05 0.103548)
(-4.96041e-05 4.96363e-05 0.103556)
(-8.91657e-07 -5.91456e-07 0.103699)
(8.92045e-07 -5.74034e-07 0.103699)
(-8.91451e-07 -5.90749e-07 0.103699)
(4.95941e-05 4.96226e-05 0.103556)
(4.72501e-05 4.7238e-05 0.103548)
(5.82797e-07 8.98342e-07 0.103699)
(6.06283e-07 -9.22109e-07 0.103699)
(4.72241e-05 -4.72616e-05 0.103548)
(-8.66006e-07 -8.64587e-07 0.103809)
(8.69046e-07 -8.59677e-07 0.103809)
(-8.57948e-07 8.68849e-07 0.103809)
(8.69288e-07 8.51993e-07 0.103809)
(8.64193e-08 -1.02075e-05 0.100073)
(6.21121e-07 7.27227e-06 0.0911407)
(-1.17055e-07 9.83861e-06 0.10005)
(-1.19667e-06 -6.96684e-06 0.0911695)
(-2.14308e-06 3.22496e-06 0.0784481)
(2.14138e-06 -3.11736e-06 0.0784767)
(-1.02865e-05 8.38333e-08 0.100072)
(7.23466e-06 6.00527e-07 0.0911401)
(9.9172e-06 -9.48978e-08 0.100051)
(-6.93247e-06 -1.17275e-06 0.0911695)
(8.69405e-07 -8.59323e-07 0.103809)
(-8.58857e-07 8.70156e-07 0.103809)
(8.71553e-07 8.53017e-07 0.103809)
(-8.71138e-07 -8.67513e-07 0.103809)
(8.73318e-07 -8.62038e-07 0.103809)
(-8.61571e-07 8.75135e-07 0.103809)
(8.73656e-07 8.57792e-07 0.103809)
(1.69141e-05 1.45247e-07 0.102897)
(-1.6329e-05 4.57769e-06 0.100575)
(-7.49126e-07 -2.1952e-07 0.103773)
(-5.82074e-07 8.95105e-07 0.103699)
(-1.70852e-05 -1.56462e-07 0.102885)
(1.55474e-05 -5.10953e-06 0.10061)
(-7.439e-07 -2.18932e-07 0.103773)
(3.0904e-06 -2.06187e-06 0.0784448)
(-3.00131e-06 2.08161e-06 0.0784777)
(1.44764e-07 1.69033e-05 0.102897)
(-2.19066e-07 -7.41978e-07 0.103773)
(4.61928e-06 -1.63928e-05 0.100575)
(8.93314e-07 -5.73615e-07 0.103699)
(-1.63544e-07 -1.70837e-05 0.102885)
(-2.19575e-07 -7.40175e-07 0.103773)
(-5.16022e-06 1.56172e-05 0.100609)
(-4.82155e-06 -5.87224e-06 0.0968304)
(-5.86324e-06 -4.81435e-06 0.0968295)
(4.95902e-05 4.96178e-05 0.103556)
(4.38603e-06 5.70558e-06 0.0968625)
(5.70241e-06 4.38076e-06 0.0968611)
(8.78709e-08 -1.02223e-05 0.100073)
(6.30816e-07 7.23476e-06 0.0911408)
(-1.15412e-07 9.82284e-06 0.10005)
(-1.1847e-06 -6.98445e-06 0.0911696)
(-2.12547e-06 3.18469e-06 0.0784481)
(2.14299e-06 -3.13965e-06 0.0784768)
(-1.03004e-05 8.24789e-08 0.100072)
(7.199e-06 6.10317e-07 0.0911402)
(9.90474e-06 -9.43289e-08 0.100051)
(-6.9555e-06 -1.15588e-06 0.0911697)
(8.72973e-07 -8.62424e-07 0.103809)
(-8.61229e-07 8.74686e-07 0.103809)
(8.74724e-07 8.57338e-07 0.103809)
(-8.72427e-07 -8.68326e-07 0.103809)
(8.75688e-07 -8.63655e-07 0.103809)
(-8.63342e-07 8.77061e-07 0.103809)
(8.75263e-07 8.5951e-07 0.103809)
(1.69299e-05 1.45053e-07 0.102897)
(-1.63187e-05 4.56358e-06 0.100575)
(-7.39825e-07 -2.18939e-07 0.103773)
(-5.76046e-07 8.91715e-07 0.103699)
(-1.7067e-05 -1.52955e-07 0.102885)
(1.55559e-05 -5.1276e-06 0.10061)
(-7.36707e-07 -2.19645e-07 0.103773)
(3.06734e-06 -2.05776e-06 0.0784448)
(-3.01639e-06 2.08078e-06 0.0784778)
(1.43787e-07 1.692e-05 0.102897)
(-2.20185e-07 -7.32571e-07 0.103773)
(4.60009e-06 -1.63754e-05 0.100575)
(8.92437e-07 -5.69154e-07 0.103699)
(-1.6382e-07 -1.70661e-05 0.102885)
(-2.20578e-07 -7.32958e-07 0.103773)
(-5.1758e-06 1.56326e-05 0.100609)
(-4.82893e-06 -5.86221e-06 0.0968305)
(-5.85349e-06 -4.82209e-06 0.0968296)
(4.95933e-05 4.96206e-05 0.103556)
(4.38732e-06 5.7131e-06 0.0968626)
(5.71006e-06 4.38098e-06 0.0968612)
(9.6451e-08 -1.02377e-05 0.100073)
(6.44276e-07 7.22883e-06 0.091141)
(-1.0903e-07 9.80688e-06 0.10005)
(-1.19454e-06 -7.00248e-06 0.0911698)
(-2.13764e-06 3.18089e-06 0.0784483)
(2.14504e-06 -3.13962e-06 0.078477)
(-1.03183e-05 8.81918e-08 0.100072)
(7.18942e-06 6.26801e-07 0.0911404)
(9.88715e-06 -8.54034e-08 0.100051)
(-6.97281e-06 -1.16089e-06 0.0911699)
(8.75641e-07 -8.64026e-07 0.103809)
(-8.62417e-07 8.76333e-07 0.103809)
(8.76269e-07 8.5899e-07 0.103809)
(-8.78226e-07 -8.70717e-07 0.103809)
(8.81594e-07 -8.65364e-07 0.103809)
(-8.68462e-07 8.85962e-07 0.103809)
(8.80377e-07 8.69981e-07 0.103809)
(1.69472e-05 1.44865e-07 0.102897)
(-1.63018e-05 4.54381e-06 0.100575)
(-7.29381e-07 -2.20086e-07 0.103773)
(-5.70943e-07 8.90383e-07 0.103699)
(-1.705e-05 -1.53587e-07 0.102885)
(1.55769e-05 -5.14152e-06 0.10061)
(-7.2929e-07 -2.19985e-07 0.103773)
(3.05838e-06 -2.05358e-06 0.078445)
(-3.0174e-06 2.08648e-06 0.0784781)
(1.4232e-07 1.69344e-05 0.102897)
(-2.2121e-07 -7.24112e-07 0.103773)
(4.58627e-06 -1.63604e-05 0.100575)
(8.90252e-07 -5.64492e-07 0.103699)
(-1.64661e-07 -1.70489e-05 0.102885)
(-2.21925e-07 -7.272e-07 0.103773)
(-5.19787e-06 1.56475e-05 0.100609)
(-4.82241e-06 -5.85924e-06 0.0968306)
(-5.84934e-06 -4.81732e-06 0.0968296)
(4.96004e-05 4.96281e-05 0.103556)
(4.39364e-06 5.71875e-06 0.0968627)
(5.71709e-06 4.38554e-06 0.0968613)
(8.77616e-08 -1.02505e-05 0.100073)
(6.14379e-07 7.21612e-06 0.0911413)
(-1.08159e-07 9.79511e-06 0.10005)
(-1.19173e-06 -7.02253e-06 0.0911701)
(-2.11856e-06 3.17572e-06 0.0784486)
(2.14329e-06 -3.15739e-06 0.0784774)
(-1.0336e-05 9.53824e-08 0.100072)
(7.17497e-06 5.99414e-07 0.0911407)
(9.87363e-06 -8.64017e-08 0.100051)
(-6.98797e-06 -1.16678e-06 0.0911702)
(8.81089e-07 -8.67753e-07 0.103809)
(-8.67566e-07 8.84028e-07 0.103809)
(8.79458e-07 8.68777e-07 0.103809)
(-8.82851e-07 -8.735e-07 0.103809)
(8.85421e-07 -8.67386e-07 0.103809)
(-8.75031e-07 9.01504e-07 0.103809)
(8.86712e-07 8.85881e-07 0.103809)
(1.69676e-05 1.47488e-07 0.102897)
(-1.6285e-05 4.53102e-06 0.100575)
(-7.17025e-07 -2.2013e-07 0.103773)
(-5.63114e-07 8.85774e-07 0.103699)
(-1.70393e-05 -1.53374e-07 0.102885)
(1.55957e-05 -5.15815e-06 0.10061)
(-7.20601e-07 -2.20151e-07 0.103773)
(3.05165e-06 -2.05193e-06 0.0784454)
(-3.03582e-06 2.10762e-06 0.0784787)
(1.433e-07 1.6975e-05 0.102897)
(-2.21963e-07 -7.07332e-07 0.103773)
(4.56719e-06 -1.63439e-05 0.100575)
(8.92715e-07 -5.56155e-07 0.103699)
(-1.63378e-07 -1.70333e-05 0.102885)
(-2.21837e-07 -7.12326e-07 0.103773)
(-5.19929e-06 1.56821e-05 0.100609)
(-4.81513e-06 -5.85527e-06 0.0968307)
(-5.85391e-06 -4.80437e-06 0.0968297)
(4.96034e-05 4.96422e-05 0.103556)
(4.4081e-06 5.72159e-06 0.0968628)
(5.70555e-06 4.41279e-06 0.0968614)
(9.5295e-08 -1.03008e-05 0.100073)
(6.37895e-07 7.19045e-06 0.0911417)
(-1.14848e-07 9.77395e-06 0.10005)
(-1.2214e-06 -7.03551e-06 0.0911705)
(-2.13997e-06 3.15878e-06 0.0784493)
(2.17594e-06 -3.16933e-06 0.0784782)
(-1.03713e-05 7.03026e-08 0.100072)
(7.15174e-06 6.17599e-07 0.0911411)
(9.84469e-06 -7.80592e-08 0.100051)
(-7.0032e-06 -1.19353e-06 0.0911706)
(8.91173e-07 -8.77257e-07 0.103809)
(-8.78157e-07 9.02561e-07 0.103809)
(8.90895e-07 8.87186e-07 0.103809)
(-8.81318e-07 -8.81158e-07 0.103809)
(8.81253e-07 -8.77338e-07 0.103809)
(-8.74474e-07 8.87184e-07 0.103809)
(8.8418e-07 8.73623e-07 0.103809)
(1.69873e-05 1.43679e-07 0.102896)
(-1.62678e-05 4.5363e-06 0.100575)
(-6.93788e-07 -2.20223e-07 0.103773)
(-5.35385e-07 8.68064e-07 0.103698)
(-1.6997e-05 -1.50476e-07 0.102885)
(1.56219e-05 -5.16792e-06 0.10061)
(-6.86519e-07 -2.27292e-07 0.103773)
(3.03651e-06 -2.04644e-06 0.0784461)
(-3.03185e-06 2.11418e-06 0.0784795)
(1.57652e-07 1.69888e-05 0.102896)
(-2.21796e-07 -6.66476e-07 0.103773)
(4.58696e-06 -1.62978e-05 0.100575)
(8.81373e-07 -5.30804e-07 0.103698)
(-1.69546e-07 -1.69474e-05 0.102885)
(-2.23087e-07 -6.80777e-07 0.103773)
(-5.20418e-06 1.56987e-05 0.100609)
(-4.79885e-06 -5.85143e-06 0.0968308)
(-5.86189e-06 -4.77676e-06 0.0968298)
(4.96257e-05 4.96671e-05 0.103556)
(4.4123e-06 5.73082e-06 0.0968629)
(5.70969e-06 4.42192e-06 0.0968614)
(9.01359e-08 -1.03091e-05 0.100073)
(6.3085e-07 7.19462e-06 0.0911421)
(-1.13808e-07 9.73681e-06 0.10005)
(-1.24619e-06 -7.03844e-06 0.091171)
(-2.16227e-06 3.16414e-06 0.0784501)
(2.22549e-06 -3.16775e-06 0.0784791)
(-1.03624e-05 3.17171e-08 0.100072)
(7.16323e-06 5.94462e-07 0.0911415)
(9.81422e-06 -9.78171e-08 0.100051)
(-6.99859e-06 -1.23653e-06 0.0911711)
(8.851e-07 -8.77405e-07 0.103809)
(-8.80485e-07 8.93159e-07 0.103809)
(8.92111e-07 8.78542e-07 0.103809)
(-8.84268e-07 -9.07097e-07 0.103808)
(8.7785e-07 -9.03509e-07 0.103808)
(-8.62702e-07 8.47465e-07 0.103808)
(8.69181e-07 8.33577e-07 0.103808)
(1.69659e-05 1.16001e-07 0.102896)
(-1.62662e-05 4.50752e-06 0.100575)
(-7.2507e-07 -2.28475e-07 0.103773)
(-5.30304e-07 8.59536e-07 0.103698)
(-1.69904e-05 -1.61291e-07 0.102885)
(1.56369e-05 -5.20157e-06 0.10061)
(-6.81431e-07 -2.36199e-07 0.103773)
(3.039e-06 -2.02286e-06 0.078447)
(-3.03666e-06 2.13065e-06 0.0784805)
(1.38779e-07 1.69474e-05 0.102896)
(-2.22444e-07 -7.07133e-07 0.103773)
(4.5532e-06 -1.62985e-05 0.100575)
(8.47763e-07 -5.11322e-07 0.103698)
(-1.63062e-07 -1.69786e-05 0.102885)
(-2.28988e-07 -6.76892e-07 0.103773)
(-5.23418e-06 1.56924e-05 0.100609)
(-4.77324e-06 -5.83603e-06 0.0968309)
(-5.82784e-06 -4.76553e-06 0.0968299)
(4.9656e-05 4.96775e-05 0.103556)
(4.44195e-06 5.72651e-06 0.096863)
(5.73792e-06 4.42631e-06 0.0968616)
(1.21784e-07 -1.02e-05 0.100073)
(6.40589e-07 7.23096e-06 0.0911427)
(-1.04816e-07 9.75439e-06 0.10005)
(-1.14511e-06 -6.88562e-06 0.0911715)
(-2.26768e-06 3.20419e-06 0.0784512)
(2.03901e-06 -3.04927e-06 0.0784793)
(-1.02103e-05 -2.70981e-08 0.100072)
(7.22322e-06 5.63672e-07 0.0911421)
(9.84927e-06 -1.27581e-07 0.100051)
(-6.82853e-06 -1.12418e-06 0.0911716)
(8.4259e-07 -8.81785e-07 0.103808)
(-8.22807e-07 8.01647e-07 0.103808)
(8.27775e-07 7.90351e-07 0.103808)
(-7.71053e-07 -7.57981e-07 0.103809)
(7.81572e-07 -7.54178e-07 0.103809)
(-7.76801e-07 8.00513e-07 0.103809)
(7.94616e-07 7.86869e-07 0.103809)
(1.66702e-05 1.17531e-07 0.102896)
(-1.6331e-05 4.4968e-06 0.100575)
(-8.01327e-07 -2.50915e-07 0.103773)
(-6.99237e-07 9.37982e-07 0.103698)
(-1.706e-05 -1.72915e-07 0.102885)
(1.5418e-05 -5.12847e-06 0.10061)
(-8.87515e-07 -2.33372e-07 0.103773)
(3.11163e-06 -2.21834e-06 0.0784474)
(-2.91718e-06 2.05571e-06 0.0784796)
(1.53023e-07 1.66333e-05 0.102896)
(-2.0652e-07 -8.31329e-07 0.103772)
(4.61794e-06 -1.64182e-05 0.100575)
(9.83281e-07 -7.20223e-07 0.103698)
(-1.51103e-07 -1.70742e-05 0.102885)
(-1.93496e-07 -9.06809e-07 0.103773)
(-5.10137e-06 1.54469e-05 0.100609)
(-4.84491e-06 -5.92838e-06 0.0968311)
(-5.9097e-06 -4.84787e-06 0.0968302)
(4.94623e-05 4.94815e-05 0.103556)
(4.24279e-06 5.65038e-06 0.0968631)
(5.64795e-06 4.23229e-06 0.0968617)
(6.20317e-08 -9.97688e-06 0.100073)
(6.67153e-07 7.5401e-06 0.0911422)
(-1.50698e-07 1.01394e-05 0.10005)
(-1.18448e-06 -6.74527e-06 0.0911702)
(-2.06609e-06 3.27418e-06 0.0784493)
(2.19605e-06 -3.07793e-06 0.0784773)
(-1.00948e-05 1.48118e-07 0.100072)
(7.48195e-06 6.93071e-07 0.0911416)
(1.01984e-05 -6.69461e-08 0.10005)
(-6.73937e-06 -1.12548e-06 0.0911703)
(8.06974e-07 -7.62973e-07 0.103809)
(-8.07772e-07 8.42073e-07 0.103809)
(8.29514e-07 8.26852e-07 0.103809)
(-8.8097e-07 -8.65584e-07 0.103809)
(8.87361e-07 -8.60466e-07 0.103809)
(-8.7469e-07 9.0024e-07 0.103809)
(8.88584e-07 8.83797e-07 0.103809)
(1.67944e-05 1.94048e-07 0.102897)
(-1.65604e-05 4.74168e-06 0.100575)
(-8.39573e-07 -1.64228e-07 0.103773)
(-6.05484e-07 9.33713e-07 0.103699)
(-1.73666e-05 -1.21394e-07 0.102885)
(1.53954e-05 -4.94361e-06 0.10061)
(-7.80901e-07 -1.73262e-07 0.103773)
(3.14552e-06 -1.97675e-06 0.0784455)
(-2.96278e-06 2.13148e-06 0.0784781)
(1.41869e-07 1.67869e-05 0.102897)
(-2.0144e-07 -8.0735e-07 0.103773)
(4.73887e-06 -1.66027e-05 0.100575)
(8.834e-07 -5.72563e-07 0.103699)
(-1.51061e-07 -1.73423e-05 0.102885)
(-2.11602e-07 -7.56701e-07 0.103773)
(-5.06571e-06 1.54966e-05 0.100609)
(-4.97539e-06 -5.86899e-06 0.0968304)
(-5.8725e-06 -4.96085e-06 0.0968294)
(4.96133e-05 4.9654e-05 0.103556)
(4.30207e-06 5.71607e-06 0.0968623)
(5.70074e-06 4.3064e-06 0.0968609)
(8.57564e-08 -1.02006e-05 0.100073)
(6.41387e-07 7.31969e-06 0.0911408)
(-1.20063e-07 9.88687e-06 0.10005)
(-1.18101e-06 -6.94534e-06 0.0911695)
(-2.12401e-06 3.21095e-06 0.0784483)
(2.14221e-06 -3.12103e-06 0.0784768)
(-1.02816e-05 7.25142e-08 0.100072)
(7.27727e-06 6.19249e-07 0.0911403)
(9.95091e-06 -7.96165e-08 0.10005)
(-6.91026e-06 -1.16164e-06 0.0911696)
(8.91989e-07 -8.75144e-07 0.103809)
(-8.77598e-07 8.95766e-07 0.103809)
(8.91053e-07 8.79833e-07 0.103809)
(-8.79541e-07 -8.80169e-07 0.103809)
(8.80256e-07 -8.74805e-07 0.103809)
(-8.6833e-07 8.76367e-07 0.103809)
(8.78522e-07 8.60854e-07 0.103809)
(1.6925e-05 1.3644e-07 0.102897)
(-1.6355e-05 4.60588e-06 0.100575)
(-7.22777e-07 -2.21256e-07 0.103773)
(-5.55016e-07 8.67927e-07 0.103699)
(-1.70865e-05 -1.475e-07 0.102885)
(1.55463e-05 -5.12423e-06 0.10061)
(-7.22265e-07 -2.27587e-07 0.103773)
(3.08397e-06 -2.05492e-06 0.0784449)
(-2.99927e-06 2.07862e-06 0.0784778)
(1.37509e-07 1.69046e-05 0.102897)
(-2.23928e-07 -7.13816e-07 0.103773)
(4.62539e-06 -1.64022e-05 0.100575)
(8.75717e-07 -5.53798e-07 0.103699)
(-1.60015e-07 -1.70608e-05 0.102885)
(-2.23717e-07 -7.20872e-07 0.103773)
(-5.1683e-06 1.56194e-05 0.100609)
(-4.83775e-06 -5.87001e-06 0.0968302)
(-5.86462e-06 -4.82841e-06 0.0968293)
(4.96277e-05 4.96568e-05 0.103556)
(4.38375e-06 5.70214e-06 0.0968624)
(5.70203e-06 4.37468e-06 0.096861)
(8.67845e-08 -1.02088e-05 0.100073)
(6.37718e-07 7.26535e-06 0.0911407)
(-1.17355e-07 9.83642e-06 0.10005)
(-1.19016e-06 -6.95792e-06 0.0911694)
(-2.13343e-06 3.19691e-06 0.0784482)
(2.14274e-06 -3.126e-06 0.0784768)
(-1.02856e-05 7.36457e-08 0.100072)
(7.23114e-06 6.1225e-07 0.0911401)
(9.91772e-06 -1.03478e-07 0.100051)
(-6.92335e-06 -1.16613e-06 0.0911695)
(8.76211e-07 -8.70982e-07 0.103809)
(-8.65326e-07 8.72917e-07 0.103809)
(8.77161e-07 8.57096e-07 0.103809)
(-8.6919e-07 -8.69002e-07 0.103809)
(8.7078e-07 -8.63544e-07 0.103809)
(-8.60638e-07 8.69763e-07 0.103809)
(8.71563e-07 8.53527e-07 0.103809)
(1.69107e-05 1.39158e-07 0.102897)
(-1.63351e-05 4.55638e-06 0.100575)
(-7.3659e-07 -2.26579e-07 0.103773)
(-5.76517e-07 8.85279e-07 0.103699)
(-1.70882e-05 -1.62104e-07 0.102885)
(1.5544e-05 -5.12857e-06 0.10061)