/*--------------------------------*- C++ -*----------------------------------*\
| =========                 |                                                 |
| \\      /  F ield         | OpenFOAM: The Open Source CFD Toolbox           |
|  \\    /   O peration     | Version:  2206                                  |
|   \\  /    A nd           | Website:  www.openfoam.com                      |
|    \\/     M anipulation  |                                                 |
\*---------------------------------------------------------------------------*/
FoamFile
{
    version     2.0;
    format      ascii;
    arch        "LSB;label=32;scalar=64";
    class       volScalarField;
    location    "10";
    object      k;
}
// * * * * * * * * * * * * * * * * * * * * * * * * * * * * * * * * * * * * * //

dimensions      [0 2 -2 0 0 0 0];

internalField   nonuniform List<scalar> 
28335
(
3.27725e-05
3.27273e-05
3.27273e-05
3.26537e-05
3.27707e-05
3.27256e-05
3.27255e-05
3.26523e-05
3.27623e-05
3.27167e-05
3.27167e-05
3.26425e-05
3.2762e-05
3.27165e-05
3.27165e-05
3.26425e-05
3.2762e-05
3.27165e-05
3.27165e-05
3.26425e-05
3.2762e-05
3.27165e-05
3.27165e-05
3.26425e-05
3.2762e-05
3.27165e-05
3.27165e-05
3.26425e-05
3.2762e-05
3.27165e-05
3.27165e-05
3.26425e-05
3.2762e-05
3.27165e-05
3.27165e-05
3.26425e-05
3.2762e-05
3.27165e-05
3.27165e-05
3.26425e-05
3.2762e-05
3.27165e-05
3.27165e-05
3.26425e-05
3.2762e-05
3.27165e-05
3.27165e-05
3.26425e-05
3.2762e-05
3.27165e-05
3.27165e-05
3.26425e-05
3.2762e-05
3.27165e-05
3.27165e-05
3.26425e-05
3.2762e-05
3.27165e-05
3.27165e-05
3.26425e-05
3.2762e-05
3.27165e-05
3.27165e-05
3.26425e-05
3.2762e-05
3.27165e-05
3.27165e-05
3.26425e-05
3.26547e-05
3.27274e-05
3.27273e-05
3.26547e-05
3.27274e-05
3.27273e-05
3.27273e-05
3.27273e-05
3.26546e-05
3.27273e-05
3.27274e-05
3.26544e-05
3.26542e-05
3.26538e-05
3.27274e-05
3.27274e-05
3.27268e-05
3.27268e-05
3.26541e-05
3.26538e-05
3.27274e-05
3.27274e-05
3.27268e-05
3.27267e-05
3.27273e-05
3.27267e-05
3.27267e-05
3.26541e-05
3.26538e-05
3.27274e-05
3.27267e-05
3.27268e-05
3.26539e-05
3.26528e-05
3.26434e-05
3.27256e-05
3.27256e-05
3.27175e-05
3.27175e-05
3.26528e-05
3.26434e-05
3.27257e-05
3.27256e-05
3.27175e-05
3.27174e-05
3.27256e-05
3.27175e-05
3.27175e-05
3.26527e-05
3.26433e-05
3.27257e-05
3.27175e-05
3.27175e-05
3.26433e-05
3.26428e-05
3.26433e-05
3.27168e-05
3.27168e-05
3.27164e-05
3.27164e-05
3.26428e-05
3.26433e-05
3.27168e-05
3.27168e-05
3.27164e-05
3.27164e-05
3.27168e-05
3.27165e-05
3.27164e-05
3.26427e-05
3.26433e-05
3.27168e-05
3.27165e-05
3.27164e-05
3.26432e-05
3.26428e-05
3.26434e-05
3.27166e-05
3.27166e-05
3.27164e-05
3.27164e-05
3.26428e-05
3.26433e-05
3.27166e-05
3.27165e-05
3.27165e-05
3.27164e-05
3.27166e-05
3.27165e-05
3.27164e-05
3.26428e-05
3.26433e-05
3.27166e-05
3.27165e-05
3.27165e-05
3.26432e-05
3.26428e-05
3.26433e-05
3.27166e-05
3.27166e-05
3.27164e-05
3.27164e-05
3.26428e-05
3.26433e-05
3.27166e-05
3.27165e-05
3.27165e-05
3.27164e-05
3.27166e-05
3.27165e-05
3.27164e-05
3.26428e-05
3.26433e-05
3.27166e-05
3.27165e-05
3.27165e-05
3.26432e-05
3.26428e-05
3.26433e-05
3.27166e-05
3.27166e-05
3.27164e-05
3.27164e-05
3.26428e-05
3.26433e-05
3.27166e-05
3.27165e-05
3.27165e-05
3.27164e-05
3.27166e-05
3.27165e-05
3.27164e-05
3.26428e-05
3.26433e-05
3.27166e-05
3.27165e-05
3.27165e-05
3.26432e-05
3.26428e-05
3.26433e-05
3.27166e-05
3.27166e-05
3.27164e-05
3.27164e-05
3.26428e-05
3.26433e-05
3.27166e-05
3.27165e-05
3.27165e-05
3.27164e-05
3.27166e-05
3.27165e-05
3.27164e-05
3.26428e-05
3.26433e-05
3.27166e-05
3.27165e-05
3.27165e-05
3.26432e-05
3.26428e-05
3.26433e-05
3.27166e-05
3.27166e-05
3.27164e-05
3.27164e-05
3.26428e-05
3.26433e-05
3.27166e-05
3.27165e-05
3.27165e-05
3.27164e-05
3.27166e-05
3.27165e-05
3.27164e-05
3.26428e-05
3.26433e-05
3.27166e-05
3.27165e-05
3.27165e-05
3.26432e-05
3.26428e-05
3.26433e-05
3.27166e-05
3.27166e-05
3.27164e-05
3.27164e-05
3.26428e-05
3.26433e-05
3.27166e-05
3.27165e-05
3.27165e-05
3.27164e-05
3.27166e-05
3.27165e-05
3.27164e-05
3.26428e-05
3.26433e-05
3.27166e-05
3.27165e-05
3.27165e-05
3.26432e-05
3.26428e-05
3.26433e-05
3.27166e-05
3.27166e-05
3.27164e-05
3.27164e-05
3.26428e-05
3.26433e-05
3.27166e-05
3.27165e-05
3.27165e-05
3.27164e-05
3.27166e-05
3.27165e-05
3.27164e-05
3.26428e-05
3.26433e-05
3.27166e-05
3.27165e-05
3.27165e-05
3.26432e-05
3.26428e-05
3.26433e-05
3.27166e-05
3.27166e-05
3.27164e-05
3.27164e-05
3.26428e-05
3.26433e-05
3.27166e-05
3.27165e-05
3.27165e-05
3.27164e-05
3.27166e-05
3.27165e-05
3.27164e-05
3.26428e-05
3.26433e-05
3.27166e-05
3.27165e-05
3.27165e-05
3.26432e-05
3.26428e-05
3.26433e-05
3.27166e-05
3.27166e-05
3.27164e-05
3.27164e-05
3.26428e-05
3.26433e-05
3.27166e-05
3.27165e-05
3.27165e-05
3.27164e-05
3.27166e-05
3.27165e-05
3.27164e-05
3.26428e-05
3.26433e-05
3.27166e-05
3.27165e-05
3.27165e-05
3.26432e-05
3.26428e-05
3.26433e-05
3.27166e-05
3.27166e-05
3.27164e-05
3.27164e-05
3.26428e-05
3.26433e-05
3.27166e-05
3.27165e-05
3.27165e-05
3.27164e-05
3.27166e-05
3.27165e-05
3.27164e-05
3.26428e-05
3.26433e-05
3.27166e-05
3.27165e-05
3.27165e-05
3.26432e-05
3.26428e-05
3.26433e-05
3.27166e-05
3.27166e-05
3.27164e-05
3.27164e-05
3.26428e-05
3.26433e-05
3.27166e-05
3.27165e-05
3.27165e-05
3.27164e-05
3.27166e-05
3.27165e-05
3.27164e-05
3.26428e-05
3.26433e-05
3.27166e-05
3.27165e-05
3.27165e-05
3.26432e-05
3.26428e-05
3.26433e-05
3.27166e-05
3.27166e-05
3.27164e-05
3.27164e-05
3.26428e-05
3.26433e-05
3.27166e-05
3.27165e-05
3.27165e-05
3.27164e-05
3.27166e-05
3.27165e-05
3.27164e-05
3.26428e-05
3.26433e-05
3.27166e-05
3.27165e-05
3.27165e-05
3.26432e-05
3.26428e-05
3.26433e-05
3.27166e-05
3.27166e-05
3.27164e-05
3.27164e-05
3.26428e-05
3.26433e-05
3.27166e-05
3.27165e-05
3.27165e-05
3.27164e-05
3.27166e-05
3.27165e-05
3.27164e-05
3.26428e-05
3.26433e-05
3.27166e-05
3.27165e-05
3.27165e-05
3.26432e-05
3.26428e-05
3.27166e-05
3.27166e-05
3.26428e-05
3.27166e-05
3.27165e-05
3.27165e-05
3.26428e-05
3.27165e-05
3.33216e-05
5.87972e-05
8.22111e-05
3.33222e-05
5.87995e-05
3.27726e-05
3.27726e-05
3.27726e-05
3.27726e-05
3.23787e-05
3.27274e-05
3.31147e-05
3.27605e-05
8.22093e-05
3.23787e-05
3.27274e-05
3.27605e-05
3.31149e-05
3.26545e-05
3.42117e-05
3.42117e-05
3.33235e-05
5.87978e-05
3.33237e-05
5.87956e-05
8.22035e-05
8.21991e-05
3.3324e-05
5.88002e-05
3.3324e-05
5.87979e-05
3.27726e-05
3.27726e-05
3.27726e-05
3.27719e-05
3.27719e-05
3.27719e-05
3.27719e-05
3.23795e-05
3.31168e-05
3.27604e-05
3.27273e-05
3.23789e-05
3.31162e-05
3.27603e-05
8.22023e-05
8.21969e-05
3.23795e-05
3.27603e-05
3.31168e-05
3.27272e-05
3.2379e-05
3.27603e-05
3.31164e-05
3.42171e-05
3.42172e-05
3.26545e-05
3.42185e-05
3.42186e-05
3.33193e-05
5.87997e-05
3.33235e-05
5.8821e-05
8.22046e-05
8.22398e-05
3.33195e-05
5.88023e-05
3.33238e-05
5.8823e-05
3.27708e-05
3.27708e-05
3.27708e-05
3.27632e-05
3.27632e-05
3.27632e-05
3.27632e-05
3.23723e-05
3.31167e-05
3.27585e-05
3.27225e-05
3.23783e-05
3.3112e-05
3.27556e-05
8.2205e-05
8.22377e-05
3.23723e-05
3.27586e-05
3.31167e-05
3.27224e-05
3.23783e-05
3.27556e-05
3.3112e-05
3.42191e-05
3.42191e-05
3.26485e-05
3.42147e-05
3.42148e-05
3.33116e-05
5.88371e-05
3.33125e-05
5.88347e-05
8.22532e-05
8.22507e-05
3.33121e-05
5.88396e-05
3.33128e-05
5.88371e-05
3.27625e-05
3.27625e-05
3.27625e-05
3.2762e-05
3.2762e-05
3.2762e-05
3.2762e-05
3.23661e-05
3.31063e-05
3.275e-05
3.27167e-05
3.23659e-05
3.31047e-05
3.27499e-05
8.22526e-05
8.22498e-05
3.23661e-05
3.275e-05
3.31063e-05
3.27166e-05
3.23659e-05
3.27499e-05
3.31049e-05
3.42043e-05
3.42044e-05
3.26433e-05
3.42037e-05
3.42038e-05
3.33117e-05
5.88363e-05
3.33123e-05
5.88344e-05
8.22526e-05
8.22507e-05
3.33122e-05
5.88387e-05
3.33128e-05
5.88368e-05
3.27622e-05
3.27622e-05
3.27622e-05
3.2762e-05
3.2762e-05
3.2762e-05
3.2762e-05
3.2366e-05
3.31058e-05
3.27497e-05
3.27166e-05
3.23659e-05
3.31046e-05
3.27499e-05
8.22516e-05
8.22495e-05
3.23661e-05
3.27497e-05
3.31059e-05
3.27166e-05
3.2366e-05
3.27499e-05
3.31049e-05
3.42043e-05
3.42043e-05
3.26432e-05
3.42038e-05
3.42039e-05
3.33117e-05
5.88363e-05
3.33124e-05
5.88344e-05
8.22526e-05
8.22507e-05
3.33122e-05
5.88386e-05
3.33128e-05
5.88368e-05
3.27622e-05
3.27622e-05
3.27622e-05
3.2762e-05
3.27621e-05
3.2762e-05
3.2762e-05
3.23661e-05
3.31058e-05
3.27497e-05
3.27166e-05
3.23659e-05
3.31046e-05
3.27499e-05
8.22515e-05
8.22495e-05
3.23661e-05
3.27497e-05
3.31059e-05
3.27166e-05
3.23659e-05
3.27499e-05
3.31049e-05
3.42043e-05
3.42044e-05
3.26433e-05
3.42038e-05
3.42039e-05
3.33117e-05
5.88363e-05
3.33124e-05
5.88344e-05
8.22527e-05
8.22507e-05
3.33122e-05
5.88384e-05
3.33128e-05
5.88363e-05
3.27622e-05
3.27622e-05
3.27622e-05
3.2762e-05
3.27621e-05
3.2762e-05
3.2762e-05
3.23661e-05
3.31058e-05
3.27497e-05
3.27166e-05
3.23659e-05
3.31046e-05
3.27499e-05
8.22515e-05
8.22495e-05
3.23661e-05
3.27497e-05
3.31059e-05
3.27166e-05
3.23659e-05
3.27499e-05
3.31049e-05
3.42043e-05
3.42043e-05
3.26433e-05
3.42038e-05
3.42039e-05
3.33117e-05
5.88363e-05
3.33124e-05
5.88344e-05
8.22525e-05
8.22505e-05
3.33122e-05
5.88381e-05
3.33128e-05
5.8836e-05
3.27622e-05
3.27622e-05
3.27622e-05
3.2762e-05
3.27621e-05
3.27621e-05
3.2762e-05
3.2366e-05
3.31058e-05
3.27497e-05
3.27166e-05
3.23659e-05
3.31046e-05
3.27499e-05
8.22515e-05
8.22495e-05
3.23661e-05
3.27497e-05
3.31059e-05
3.27166e-05
3.23659e-05
3.27499e-05
3.31049e-05
3.42043e-05
3.42044e-05
3.26433e-05
3.42038e-05
3.42039e-05
3.33117e-05
5.88363e-05
3.33124e-05
5.88344e-05
8.22523e-05
8.22504e-05
3.33122e-05
5.88379e-05
3.33128e-05
5.88359e-05
3.27622e-05
3.27622e-05
3.27622e-05
3.2762e-05
3.27621e-05
3.2762e-05
3.2762e-05
3.2366e-05
3.31058e-05
3.27497e-05
3.27166e-05
3.23659e-05
3.31046e-05
3.27499e-05
8.22515e-05
8.22495e-05
3.23661e-05
3.27497e-05
3.31059e-05
3.27166e-05
3.23659e-05
3.27499e-05
3.31049e-05
3.42043e-05
3.42044e-05
3.26433e-05
3.42038e-05
3.42039e-05
3.33117e-05
5.88363e-05
3.33124e-05
5.88344e-05
8.22524e-05
8.22504e-05
3.33122e-05
5.88379e-05
3.33128e-05
5.88359e-05
3.27622e-05
3.27622e-05
3.27622e-05
3.2762e-05
3.27621e-05
3.2762e-05
3.2762e-05
3.2366e-05
3.31058e-05
3.27497e-05
3.27166e-05
3.23659e-05
3.31046e-05
3.27499e-05
8.22515e-05
8.22495e-05
3.23661e-05
3.27497e-05
3.31059e-05
3.27166e-05
3.23659e-05
3.27499e-05
3.31049e-05
3.42043e-05
3.42044e-05
3.26433e-05
3.42038e-05
3.42039e-05
3.33117e-05
5.88363e-05
3.33124e-05
5.88344e-05
8.22523e-05
8.22504e-05
3.33122e-05
5.88379e-05
3.33128e-05
5.88359e-05
3.27622e-05
3.27622e-05
3.27622e-05
3.2762e-05
3.27621e-05
3.2762e-05
3.2762e-05
3.2366e-05
3.31058e-05
3.27497e-05
3.27166e-05
3.23659e-05
3.31046e-05
3.27499e-05
8.22515e-05
8.22495e-05
3.23661e-05
3.27497e-05
3.31059e-05
3.27166e-05
3.23659e-05
3.27499e-05
3.31049e-05
3.42043e-05
3.42043e-05
3.26433e-05
3.42038e-05
3.42039e-05
3.33117e-05
5.88363e-05
3.33124e-05
5.88344e-05
8.22523e-05
8.22504e-05
3.33122e-05
5.88379e-05
3.33128e-05
5.88359e-05
3.27622e-05
3.27622e-05
3.27622e-05
3.2762e-05
3.27621e-05
3.2762e-05
3.2762e-05
3.2366e-05
3.31058e-05
3.27497e-05
3.27166e-05
3.23659e-05
3.31046e-05
3.27499e-05
8.22515e-05
8.22495e-05
3.23661e-05
3.27497e-05
3.31059e-05
3.27166e-05
3.23659e-05
3.27499e-05
3.31049e-05
3.42043e-05
3.42044e-05
3.26433e-05
3.42038e-05
3.42039e-05
3.33117e-05
5.88363e-05
3.33124e-05
5.88344e-05
8.22523e-05
8.22504e-05
3.33122e-05
5.88379e-05
3.33128e-05
5.88359e-05
3.27622e-05
3.27622e-05
3.27622e-05
3.2762e-05
3.27621e-05
3.2762e-05
3.2762e-05
3.2366e-05
3.31058e-05
3.27497e-05
3.27166e-05
3.23659e-05
3.31046e-05
3.27499e-05
8.22515e-05
8.22495e-05
3.23661e-05
3.27497e-05
3.31059e-05
3.27166e-05
3.23659e-05
3.27499e-05
3.31049e-05
3.42043e-05
3.42044e-05
3.26433e-05
3.42038e-05
3.42039e-05
3.33117e-05
5.88363e-05
3.33124e-05
5.88344e-05
8.22523e-05
8.22504e-05
3.33122e-05
5.88379e-05
3.33128e-05
5.88359e-05
3.27622e-05
3.27622e-05
3.27622e-05
3.2762e-05
3.27621e-05
3.2762e-05
3.2762e-05
3.2366e-05
3.31058e-05
3.27497e-05
3.27166e-05
3.23659e-05
3.31046e-05
3.27499e-05
8.22515e-05
8.22495e-05
3.23661e-05
3.27497e-05
3.31059e-05
3.27166e-05
3.23659e-05
3.27499e-05
3.31049e-05
3.42043e-05
3.42044e-05
3.26433e-05
3.42038e-05
3.42039e-05
3.33117e-05
5.88363e-05
3.33124e-05
5.88344e-05
8.22523e-05
8.22504e-05
3.33122e-05
5.88379e-05
3.33128e-05
5.88359e-05
3.27622e-05
3.27622e-05
3.27622e-05
3.2762e-05
3.27621e-05
3.2762e-05
3.2762e-05
3.23661e-05
3.31058e-05
3.27497e-05
3.27166e-05
3.23659e-05
3.31047e-05
3.27499e-05
8.22515e-05
8.22495e-05
3.2366e-05
3.27497e-05
3.31059e-05
3.27166e-05
3.23658e-05
3.27499e-05
3.31049e-05
3.42043e-05
3.42043e-05
3.26433e-05
3.42038e-05
3.42039e-05
3.33117e-05
5.88363e-05
3.33124e-05
5.88344e-05
8.22523e-05
8.22504e-05
3.33122e-05
5.88379e-05
3.33128e-05
5.88359e-05
3.27622e-05
3.27622e-05
3.27622e-05
3.2762e-05
3.27621e-05
3.27621e-05
3.2762e-05
3.23661e-05
3.31058e-05
3.27497e-05
3.27166e-05
3.23659e-05
3.31046e-05
3.27499e-05
8.22515e-05
8.22495e-05
3.2366e-05
3.27497e-05
3.31059e-05
3.27166e-05
3.23658e-05
3.27499e-05
3.31049e-05
3.42043e-05
3.42044e-05
3.26432e-05
3.42038e-05
3.42039e-05
3.33117e-05
5.88363e-05
3.33124e-05
5.88344e-05
8.22523e-05
8.22503e-05
3.33122e-05
5.88379e-05
3.33128e-05
5.88359e-05
3.27622e-05
3.27622e-05
3.27622e-05
3.2762e-05
3.27621e-05
3.2762e-05
3.2762e-05
3.23661e-05
3.31058e-05
3.27497e-05
3.27166e-05
3.23659e-05
3.31047e-05
3.27499e-05
8.22515e-05
8.22494e-05
3.2366e-05
3.27497e-05
3.31059e-05
3.27166e-05
3.23658e-05
3.27499e-05
3.31049e-05
3.42043e-05
3.42044e-05
3.26432e-05
3.42038e-05
3.42039e-05
3.33117e-05
5.88363e-05
3.33124e-05
5.88344e-05
8.22523e-05
8.22503e-05
3.33122e-05
5.88379e-05
3.33128e-05
5.88359e-05
3.27622e-05
3.27621e-05
3.27621e-05
3.23665e-05
3.31058e-05
3.27497e-05
3.27165e-05
3.23659e-05
3.31046e-05
3.27499e-05
8.22515e-05
8.22496e-05
3.23665e-05
3.27497e-05
3.31059e-05
3.27167e-05
3.23658e-05
3.27499e-05
3.31051e-05
3.42043e-05
3.42043e-05
3.26436e-05
3.42038e-05
3.42039e-05
8.22089e-05
8.22111e-05
3.26547e-05
3.42117e-05
3.42117e-05
8.22013e-05
8.2208e-05
8.22034e-05
8.22101e-05
3.26544e-05
3.4216e-05
3.4216e-05
3.42139e-05
3.42138e-05
3.33218e-05
5.87981e-05
3.23789e-05
3.27274e-05
3.3115e-05
3.27605e-05
3.23789e-05
3.27274e-05
3.31154e-05
3.27605e-05
3.3323e-05
5.87964e-05
5.87975e-05
3.33228e-05
3.33232e-05
5.87971e-05
5.87984e-05
3.3323e-05
3.23793e-05
3.27274e-05
3.31159e-05
3.27604e-05
3.31167e-05
3.27605e-05
3.23793e-05
3.23793e-05
3.27274e-05
3.31162e-05
3.27604e-05
3.31171e-05
3.27605e-05
3.23792e-05
3.26547e-05
3.42116e-05
3.42089e-05
8.22055e-05
8.22032e-05
8.22101e-05
3.26544e-05
3.42159e-05
3.42134e-05
3.4214e-05
3.42118e-05
8.21974e-05
8.22054e-05
3.23792e-05
3.27274e-05
3.31154e-05
3.27605e-05
3.33219e-05
5.87986e-05
3.2379e-05
3.27274e-05
3.27605e-05
3.3115e-05
3.33234e-05
5.87988e-05
5.87999e-05
3.33233e-05
3.23795e-05
3.27274e-05
3.31163e-05
3.27604e-05
3.31171e-05
3.27605e-05
3.23796e-05
3.33232e-05
5.87978e-05
5.87991e-05
3.3323e-05
3.23793e-05
3.27273e-05
3.27604e-05
3.31159e-05
3.27605e-05
3.31168e-05
3.23793e-05
3.33217e-05
5.87968e-05
3.23789e-05
3.27274e-05
3.27605e-05
3.3115e-05
3.33216e-05
5.87986e-05
3.2379e-05
3.27274e-05
3.31155e-05
3.27604e-05
3.31165e-05
3.27604e-05
3.23789e-05
3.33232e-05
5.8796e-05
5.87973e-05
3.33229e-05
3.23792e-05
3.27274e-05
3.27604e-05
3.31158e-05
3.27605e-05
3.31167e-05
3.23792e-05
3.33231e-05
5.87976e-05
5.87989e-05
3.33229e-05
3.26547e-05
3.42099e-05
3.42116e-05
8.22102e-05
8.22017e-05
8.22092e-05
3.26543e-05
3.42142e-05
3.42159e-05
3.42125e-05
3.42138e-05
8.22025e-05
8.22093e-05
3.23791e-05
3.27274e-05
3.27605e-05
3.31152e-05
3.33218e-05
5.8799e-05
3.33219e-05
5.87997e-05
3.2379e-05
3.27274e-05
3.27604e-05
3.31156e-05
3.27604e-05
3.31166e-05
3.2379e-05
3.23795e-05
3.27274e-05
3.27604e-05
3.3116e-05
3.27605e-05
3.31169e-05
3.23795e-05
3.33231e-05
5.8798e-05
5.87993e-05
3.3323e-05
3.33232e-05
5.87986e-05
5.88e-05
3.33231e-05
8.22105e-05
8.22115e-05
3.26541e-05
3.42158e-05
3.42158e-05
3.42138e-05
3.42139e-05
8.22028e-05
8.22095e-05
8.22038e-05
8.22106e-05
8.22011e-05
8.21972e-05
8.22033e-05
8.21994e-05
3.42177e-05
3.42176e-05
3.26545e-05
3.42189e-05
3.42189e-05
8.21977e-05
8.21972e-05
8.21999e-05
8.21993e-05
3.2654e-05
3.42191e-05
3.42191e-05
3.422e-05
3.422e-05
3.33237e-05
5.87971e-05
3.33243e-05
5.87967e-05
3.23795e-05
3.31176e-05
3.27604e-05
3.27273e-05
3.23799e-05
3.31167e-05
3.27604e-05
3.23796e-05
3.31179e-05
3.27604e-05
3.27273e-05
3.23798e-05
3.3117e-05
3.27603e-05
3.33246e-05
5.87968e-05
5.87956e-05
3.33231e-05
3.33248e-05
5.87975e-05
5.87967e-05
3.33233e-05
3.23794e-05
3.27271e-05
3.31163e-05
3.27598e-05
3.31182e-05
3.27602e-05
3.23788e-05
3.23796e-05
3.27271e-05
3.31166e-05
3.27598e-05
3.31185e-05
3.27602e-05
3.2379e-05
3.42177e-05
3.42157e-05
3.26544e-05
3.42187e-05
3.42165e-05
8.21974e-05
8.21931e-05
8.22e-05
8.21991e-05
3.2654e-05
3.42191e-05
3.4217e-05
3.422e-05
3.4218e-05
8.21941e-05
8.21934e-05
3.23796e-05
3.3118e-05
3.27604e-05
3.27273e-05
3.238e-05
3.31171e-05
3.27604e-05
3.33238e-05
5.87979e-05
3.33242e-05
5.87973e-05
3.23796e-05
3.27604e-05
3.31177e-05
3.27273e-05
3.23798e-05
3.27603e-05
3.31166e-05
3.3325e-05
5.8799e-05
5.8798e-05
3.33236e-05
3.23795e-05
3.27272e-05
3.31168e-05
3.27598e-05
3.31186e-05
3.27602e-05
3.2379e-05
3.33248e-05
5.87982e-05
5.87975e-05
3.33234e-05
3.23796e-05
3.27271e-05
3.27598e-05
3.31163e-05
3.27601e-05
3.31183e-05
3.23791e-05
3.33237e-05
5.87961e-05
3.33243e-05
5.87953e-05
3.23795e-05
3.27604e-05
3.31175e-05
3.27273e-05
3.23798e-05
3.27603e-05
3.31165e-05
3.33236e-05
5.87976e-05
3.33242e-05
5.87971e-05
3.23794e-05
3.27271e-05
3.3116e-05
3.27597e-05
3.31179e-05
3.27601e-05
3.23787e-05
3.33248e-05
5.87962e-05
5.87956e-05
3.33233e-05
3.23794e-05
3.27271e-05
3.27598e-05
3.31162e-05
3.27602e-05
3.3118e-05
3.23788e-05
3.33247e-05
5.87979e-05
5.87971e-05
3.33232e-05
3.42163e-05
3.42174e-05
3.26544e-05
3.42172e-05
3.42188e-05
8.22024e-05
8.21985e-05
8.21984e-05
8.21972e-05
3.26539e-05
3.42176e-05
3.42191e-05
3.42186e-05
3.42199e-05
8.21989e-05
8.21984e-05
3.23795e-05
3.27604e-05
3.31177e-05
3.27273e-05
3.23799e-05
3.27603e-05
3.31167e-05
3.33238e-05
5.8798e-05
3.33242e-05
5.87975e-05
3.33237e-05
5.87987e-05
3.33242e-05
5.87982e-05
3.23795e-05
3.27271e-05
3.27597e-05
3.31161e-05
3.27601e-05
3.31179e-05
3.23787e-05
3.23794e-05
3.27271e-05
3.27598e-05
3.31164e-05
3.27602e-05
3.31182e-05
3.23788e-05
3.33247e-05
5.87982e-05
5.87975e-05
3.33233e-05
3.33247e-05
5.8799e-05
5.87982e-05
3.33233e-05
8.22026e-05
8.21986e-05
8.22037e-05
8.21997e-05
3.2654e-05
3.42188e-05
3.42188e-05
3.42196e-05
3.42197e-05
8.21992e-05
8.21986e-05
8.22003e-05
8.21997e-05
8.2201e-05
8.22375e-05
8.22034e-05
8.22401e-05
3.42196e-05
3.42196e-05
3.26485e-05
3.42151e-05
3.4215e-05
8.2251e-05
8.2248e-05
8.22532e-05
8.22504e-05
3.26449e-05
3.4204e-05
3.4204e-05
3.42132e-05
3.42131e-05
3.33195e-05
5.87986e-05
3.3324e-05
5.88225e-05
3.23722e-05
3.31174e-05
3.27586e-05
3.27225e-05
3.23785e-05
3.31122e-05
3.27556e-05
3.23722e-05
3.31177e-05
3.27587e-05
3.27225e-05
3.23786e-05
3.31126e-05
3.27556e-05
3.33186e-05
5.88357e-05
5.88322e-05
3.3312e-05
3.33187e-05
5.88373e-05
5.88337e-05
3.3312e-05
3.23695e-05
3.27193e-05
3.31055e-05
3.27508e-05
3.31117e-05
3.27526e-05
3.23662e-05
3.23695e-05
3.27194e-05
3.31059e-05
3.27508e-05
3.31121e-05
3.27527e-05
3.23662e-05
3.42197e-05
3.42178e-05
3.26485e-05
3.4215e-05
3.42135e-05
8.21994e-05
8.22349e-05
8.22522e-05
8.22498e-05
3.26449e-05
3.4204e-05
3.42023e-05
3.42133e-05
3.42127e-05
8.22479e-05
8.22461e-05
3.23722e-05
3.31178e-05
3.27587e-05
3.27225e-05
3.23786e-05
3.31125e-05
3.27556e-05
3.33194e-05
5.87997e-05
3.33239e-05
5.88226e-05
3.23722e-05
3.27586e-05
3.31175e-05
3.27225e-05
3.23786e-05
3.27556e-05
3.31122e-05
3.33185e-05
5.88381e-05
5.88346e-05
3.33123e-05
3.23695e-05
3.27194e-05
3.31059e-05
3.27508e-05
3.3112e-05
3.27527e-05
3.23663e-05
3.33183e-05
5.88382e-05
5.88345e-05
3.3312e-05
3.23694e-05
3.27193e-05
3.27508e-05
3.31056e-05
3.27526e-05
3.31121e-05
3.23662e-05
3.33195e-05
5.87979e-05
3.3324e-05
5.88213e-05
3.23723e-05
3.27586e-05
3.31172e-05
3.27225e-05
3.23785e-05
3.27556e-05
3.31121e-05
3.33194e-05
5.87991e-05
3.33239e-05
5.88231e-05
3.23696e-05
3.27193e-05
3.31055e-05
3.27508e-05
3.31119e-05
3.27526e-05
3.2366e-05
3.33188e-05
5.88364e-05
5.88329e-05
3.3312e-05
3.23695e-05
3.27194e-05
3.27508e-05
3.31055e-05
3.27526e-05
3.31116e-05
3.23661e-05
3.33186e-05
5.88379e-05
5.88343e-05
3.33118e-05
3.42182e-05
3.42196e-05
3.26485e-05
3.42141e-05
3.42149e-05
8.22021e-05
8.22388e-05
8.22511e-05
8.22491e-05
3.26449e-05
3.42025e-05
3.4204e-05
3.42129e-05
3.42129e-05
8.22522e-05
8.22493e-05
3.23723e-05
3.27586e-05
3.31174e-05
3.27225e-05
3.23785e-05
3.27556e-05
3.31123e-05
3.33195e-05
5.87994e-05
3.33239e-05
5.88231e-05
3.33195e-05
5.88002e-05
3.33239e-05
5.88241e-05
3.23695e-05
3.27193e-05
3.27508e-05
3.31056e-05
3.27526e-05
3.31115e-05
3.2366e-05
3.23695e-05
3.27194e-05
3.27508e-05
3.31057e-05
3.27526e-05
3.31118e-05
3.23662e-05
3.33184e-05
5.88382e-05
5.88345e-05
3.3312e-05
3.33184e-05
5.8839e-05
5.88354e-05
3.3312e-05
8.22027e-05
8.22396e-05
8.22038e-05
8.22407e-05
3.2645e-05
3.42041e-05
3.42042e-05
3.42129e-05
3.4213e-05
8.22523e-05
8.22497e-05
8.22534e-05
8.22508e-05
8.2251e-05
8.225e-05
8.22533e-05
8.22522e-05
3.42045e-05
3.42045e-05
3.26434e-05
3.42037e-05
3.42037e-05
8.22497e-05
8.22501e-05
8.22519e-05
8.22522e-05
3.2643e-05
3.42037e-05
3.42037e-05
3.42045e-05
3.42045e-05
3.33117e-05
5.88373e-05
3.33128e-05
5.88369e-05
3.23662e-05
3.31067e-05
3.27501e-05
3.27166e-05
3.23665e-05
3.31048e-05
3.27499e-05
3.23662e-05
3.31071e-05
3.27501e-05
3.27166e-05
3.23665e-05
3.31052e-05
3.27499e-05
3.33127e-05
5.88348e-05
5.88347e-05
3.33116e-05
3.33128e-05
5.88366e-05
5.88369e-05
3.33117e-05
3.23665e-05
3.27164e-05
3.31047e-05
3.27497e-05
3.31063e-05
3.27497e-05
3.23662e-05
3.23665e-05
3.27164e-05
3.31051e-05
3.27497e-05
3.31067e-05
3.27497e-05
3.23662e-05
3.42045e-05
3.42027e-05
3.26434e-05
3.42035e-05
3.42008e-05
8.22483e-05
8.22467e-05
8.22511e-05
8.22507e-05
3.2643e-05
3.42036e-05
3.4201e-05
3.42044e-05
3.42018e-05
8.22467e-05
8.22473e-05
3.23663e-05
3.3107e-05
3.27501e-05
3.27166e-05
3.23666e-05
3.31052e-05
3.27499e-05
3.33118e-05
5.88384e-05
3.33128e-05
5.88375e-05
3.23662e-05
3.27501e-05
3.31068e-05
3.27166e-05
3.23665e-05
3.27499e-05
3.31048e-05
3.33131e-05
5.88371e-05
5.88372e-05
3.33122e-05
3.23667e-05
3.27164e-05
3.31051e-05
3.27497e-05
3.31066e-05
3.27497e-05
3.23664e-05
3.33128e-05
5.88372e-05
5.88377e-05
3.33118e-05
3.23665e-05
3.27164e-05
3.27497e-05
3.31047e-05
3.27497e-05
3.31064e-05
3.23662e-05
3.33116e-05
5.88365e-05
3.33128e-05
5.88356e-05
3.23661e-05
3.27501e-05
3.31067e-05
3.27166e-05
3.23664e-05
3.27499e-05
3.31048e-05
3.33115e-05
5.88379e-05
3.33127e-05
5.88374e-05
3.23664e-05
3.27166e-05
3.31046e-05
3.27497e-05
3.31063e-05
3.27499e-05
3.2366e-05
3.33128e-05
5.88353e-05
5.88358e-05
3.33116e-05
3.23665e-05
3.27164e-05
3.27497e-05
3.31047e-05
3.27497e-05
3.31063e-05
3.23662e-05
3.33127e-05
5.88371e-05
5.88374e-05
3.33115e-05
3.4203e-05
3.42044e-05
3.26433e-05
3.42017e-05
3.42036e-05
8.22522e-05
8.22513e-05
8.22496e-05
8.22503e-05
3.26429e-05
3.42018e-05
3.42036e-05
3.42027e-05
3.42044e-05
8.22511e-05
8.22514e-05
3.23662e-05
3.27501e-05
3.31069e-05
3.27166e-05
3.23665e-05
3.27499e-05
3.3105e-05
3.33117e-05
5.88382e-05
3.33128e-05
5.88378e-05
3.33117e-05
5.88391e-05
3.33127e-05
5.88385e-05
3.23665e-05
3.27166e-05
3.27497e-05
3.31049e-05
3.27499e-05
3.31064e-05
3.2366e-05
3.23665e-05
3.27164e-05
3.27497e-05
3.31049e-05
3.27497e-05
3.31065e-05
3.23662e-05
3.33127e-05
5.88375e-05
5.88378e-05
3.33118e-05
3.33127e-05
5.88382e-05
5.88385e-05
3.33118e-05
8.22523e-05
8.22514e-05
8.22534e-05
8.22526e-05
3.26428e-05
3.42038e-05
3.42039e-05
3.42045e-05
3.42046e-05
8.22512e-05
8.22515e-05
8.22523e-05
8.22526e-05
8.22498e-05
8.22496e-05
8.22519e-05
8.22518e-05
3.42045e-05
3.42045e-05
3.26433e-05
3.42037e-05
3.42037e-05
8.22496e-05
8.22496e-05
8.22518e-05
8.22518e-05
3.2643e-05
3.42036e-05
3.42037e-05
3.42045e-05
3.42045e-05
3.33117e-05
5.88366e-05
3.33128e-05
5.88366e-05
3.23662e-05
3.31062e-05
3.27499e-05
3.27166e-05
3.23665e-05
3.31047e-05
3.27499e-05
3.23662e-05
3.31066e-05
3.27499e-05
3.27166e-05
3.23665e-05
3.31051e-05
3.27499e-05
3.33128e-05
5.88348e-05
5.88344e-05
3.33116e-05
3.33128e-05
5.88366e-05
5.88366e-05
3.33117e-05
3.23665e-05
3.27165e-05
3.31047e-05
3.27497e-05
3.31062e-05
3.27498e-05
3.23662e-05
3.23665e-05
3.27165e-05
3.31051e-05
3.27497e-05
3.31067e-05
3.27498e-05
3.23662e-05
3.42045e-05
3.42021e-05
3.26433e-05
3.42036e-05
3.4201e-05
8.22473e-05
8.22469e-05
8.22511e-05
8.22507e-05
3.26429e-05
3.42036e-05
3.42009e-05
3.42045e-05
3.42019e-05
8.22467e-05
8.22474e-05
3.23664e-05
3.31066e-05
3.27499e-05
3.27166e-05
3.23667e-05
3.31051e-05
3.27499e-05
3.33118e-05
5.88374e-05
3.33128e-05
5.88372e-05
3.23662e-05
3.27499e-05
3.31063e-05
3.27165e-05
3.23666e-05
3.27499e-05
3.31047e-05
3.33132e-05
5.8837e-05
5.88369e-05
3.33122e-05
3.23667e-05
3.27165e-05
3.31051e-05
3.27498e-05
3.31066e-05
3.27498e-05
3.23664e-05
3.33128e-05
5.88372e-05
5.88374e-05
3.33118e-05
3.23665e-05
3.27165e-05
3.27497e-05
3.31047e-05
3.27497e-05
3.31063e-05
3.23662e-05
3.33116e-05
5.88356e-05
3.33127e-05
5.88354e-05
3.23662e-05
3.27499e-05
3.31062e-05
3.27166e-05
3.23665e-05
3.27499e-05
3.31048e-05
3.33115e-05
5.88372e-05
3.33126e-05
5.88371e-05
3.23664e-05
3.27166e-05
3.31046e-05
3.27497e-05
3.31063e-05
3.27498e-05
3.23659e-05
3.33127e-05
5.88354e-05
5.88356e-05
3.33116e-05
3.23665e-05
3.27165e-05
3.27497e-05
3.31047e-05
3.27498e-05
3.31063e-05
3.23662e-05
3.33127e-05
5.88371e-05
5.88371e-05
3.33115e-05
3.42028e-05
3.42044e-05
3.26433e-05
3.42018e-05
3.42036e-05
8.22511e-05
8.22509e-05
8.22496e-05
8.22501e-05
3.26429e-05
3.42018e-05
3.42036e-05
3.42027e-05
3.42044e-05
8.2251e-05
8.22509e-05
3.23662e-05
3.27499e-05
3.31064e-05
3.27166e-05
3.23665e-05
3.27499e-05
3.3105e-05
3.33118e-05
5.88375e-05
3.33128e-05
5.88375e-05
3.33118e-05
5.88383e-05
3.33127e-05
5.88382e-05
3.23664e-05
3.27166e-05
3.27497e-05
3.31049e-05
3.27498e-05
3.31064e-05
3.2366e-05
3.23665e-05
3.27165e-05
3.27497e-05
3.31049e-05
3.27498e-05
3.31064e-05
3.23662e-05
3.33128e-05
5.88374e-05
5.88375e-05
3.33118e-05
3.33128e-05
5.88382e-05
5.88382e-05
3.33118e-05
8.22512e-05
8.22511e-05
8.22523e-05
8.22522e-05
3.26428e-05
3.42038e-05
3.42039e-05
3.42046e-05
3.42046e-05
8.22512e-05
8.22511e-05
8.22522e-05
8.22523e-05
8.22497e-05
8.22496e-05
8.22518e-05
8.22517e-05
3.42044e-05
3.42045e-05
3.26434e-05
3.42037e-05
3.42037e-05
8.22496e-05
8.22496e-05
8.22518e-05
8.22518e-05
3.2643e-05
3.42037e-05
3.42037e-05
3.42045e-05
3.42045e-05
3.33117e-05
5.88366e-05
3.33128e-05
5.88366e-05
3.23662e-05
3.31062e-05
3.27499e-05
3.27166e-05
3.23665e-05
3.31047e-05
3.27499e-05
3.23662e-05
3.31066e-05
3.27499e-05
3.27166e-05
3.23665e-05
3.31051e-05
3.27499e-05
3.33128e-05
5.88348e-05
5.88344e-05
3.33116e-05
3.33128e-05
5.88366e-05
5.88366e-05
3.33117e-05
3.23665e-05
3.27165e-05
3.31047e-05
3.27498e-05
3.31063e-05
3.27498e-05
3.23662e-05
3.23665e-05
3.27165e-05
3.31051e-05
3.27497e-05
3.31067e-05
3.27498e-05
3.23662e-05
3.42045e-05
3.4202e-05
3.26433e-05
3.42036e-05
3.42011e-05
8.22473e-05
8.22467e-05
8.22512e-05
8.22507e-05
3.26429e-05
3.42036e-05
3.42009e-05
3.42045e-05
3.4202e-05
8.22467e-05
8.22473e-05
3.23664e-05
3.31066e-05
3.27499e-05
3.27166e-05
3.23667e-05
3.31051e-05
3.27499e-05
3.33118e-05
5.88374e-05
3.33128e-05
5.88372e-05
3.23662e-05
3.27499e-05
3.31063e-05
3.27165e-05
3.23666e-05
3.27498e-05
3.31047e-05
3.33132e-05
5.88368e-05
5.88369e-05
3.33122e-05
3.23667e-05
3.27165e-05
3.31051e-05
3.27498e-05
3.31066e-05
3.27498e-05
3.23664e-05
3.33128e-05
5.88372e-05
5.88374e-05
3.33118e-05
3.23665e-05
3.27165e-05
3.27497e-05
3.31047e-05
3.27498e-05
3.31063e-05
3.23662e-05
3.33116e-05
5.88356e-05
3.33127e-05
5.88354e-05
3.23662e-05
3.27499e-05
3.31062e-05
3.27166e-05
3.23665e-05
3.27499e-05
3.31048e-05
3.33116e-05
5.88371e-05
3.33127e-05
5.88371e-05
3.23664e-05
3.27166e-05
3.31046e-05
3.27497e-05
3.31063e-05
3.27498e-05
3.23659e-05
3.33127e-05
5.88353e-05
5.88356e-05
3.33116e-05
3.23665e-05
3.27165e-05
3.27498e-05
3.31047e-05
3.27498e-05
3.31062e-05
3.23662e-05
3.33127e-05
5.88371e-05
5.88371e-05
3.33115e-05
3.42028e-05
3.42044e-05
3.26433e-05
3.42018e-05
3.42036e-05
8.2251e-05
8.22509e-05
8.22496e-05
8.22501e-05
3.26429e-05
3.42018e-05
3.42037e-05
3.42027e-05
3.42044e-05
8.2251e-05
8.22509e-05
3.23662e-05
3.27499e-05
3.31064e-05
3.27166e-05
3.23665e-05
3.27499e-05
3.3105e-05
3.33118e-05
5.88375e-05
3.33128e-05
5.88374e-05
3.33118e-05
5.88382e-05
3.33127e-05
5.88382e-05
3.23664e-05
3.27166e-05
3.27497e-05
3.31049e-05
3.27498e-05
3.31064e-05
3.2366e-05
3.23665e-05
3.27165e-05
3.27497e-05
3.31049e-05
3.27498e-05
3.31064e-05
3.23662e-05
3.33128e-05
5.88374e-05
5.88375e-05
3.33118e-05
3.33128e-05
5.88382e-05
5.88382e-05
3.33118e-05
8.22512e-05
8.22511e-05
8.22523e-05
8.22522e-05
3.26428e-05
3.42038e-05
3.42039e-05
3.42046e-05
3.42046e-05
8.22511e-05
8.22511e-05
8.22522e-05
8.22522e-05
8.22497e-05
8.22496e-05
8.22518e-05
8.22517e-05
3.42045e-05
3.42044e-05
3.26434e-05
3.42037e-05
3.42037e-05
8.22496e-05
8.22496e-05
8.22518e-05
8.22517e-05
3.2643e-05
3.42037e-05
3.42037e-05
3.42045e-05
3.42045e-05
3.33117e-05
5.88366e-05
3.33128e-05
5.88366e-05
3.23662e-05
3.31062e-05
3.27499e-05
3.27166e-05
3.23665e-05
3.31047e-05
3.27499e-05
3.23662e-05
3.31066e-05
3.27499e-05
3.27166e-05
3.23665e-05
3.31051e-05
3.27499e-05
3.33128e-05
5.88348e-05
5.88344e-05
3.33116e-05
3.33128e-05
5.88364e-05
5.88366e-05
3.33117e-05
3.23665e-05
3.27165e-05
3.31047e-05
3.27498e-05
3.31063e-05
3.27498e-05
3.23662e-05
3.23665e-05
3.27165e-05
3.31051e-05
3.27497e-05
3.31067e-05
3.27498e-05
3.23662e-05
3.42045e-05
3.4202e-05
3.26433e-05
3.42036e-05
3.42011e-05
8.22473e-05
8.22467e-05
8.2251e-05
8.22507e-05
3.26429e-05
3.42037e-05
3.42009e-05
3.42045e-05
3.4202e-05
8.22467e-05
8.22473e-05
3.23664e-05
3.31068e-05
3.27499e-05
3.27166e-05
3.23667e-05
3.31052e-05
3.27499e-05
3.33118e-05
5.88374e-05
3.33128e-05
5.88372e-05
3.23662e-05
3.27499e-05
3.31063e-05
3.27165e-05
3.23666e-05
3.27499e-05
3.31047e-05