/*--------------------------------*- C++ -*----------------------------------*\
| =========                 |                                                 |
| \\      /  F ield         | OpenFOAM: The Open Source CFD Toolbox           |
|  \\    /   O peration     | Version:  2206                                  |
|   \\  /    A nd           | Website:  www.openfoam.com                      |
|    \\/     M anipulation  |                                                 |
\*---------------------------------------------------------------------------*/
FoamFile
{
    version     2.0;
    format      ascii;
    arch        "LSB;label=32;scalar=64";
    class       surfaceScalarField;
    location    "10";
    object      phi;
}
// * * * * * * * * * * * * * * * * * * * * * * * * * * * * * * * * * * * * * //

dimensions      [0 3 -1 0 0 0 0];

oriented        oriented;

internalField   nonuniform List<scalar> 
81717
(
1.47879e-09
1.53488e-09
-0.00106587
-1.15794e-09
-1.15437e-09
0.00106587
-0.00106652
-1.16896e-06
-1.55227e-09
1.15139e-09
0.00106652
-2.22855e-07
1.17084e-06
2.22521e-07
8.43353e-07
-2.07915e-07
-8.43139e-07
2.07072e-07
-0.00106619
-1.16365e-06
-1.55023e-09
1.14515e-09
0.00106619
-2.22846e-07
1.16552e-06
2.22528e-07
8.43181e-07
-2.10543e-07
-8.4302e-07
2.09723e-07
-0.000262279
1.19674e-06
1.16377e-06
-2.10878e-07
-2.16059e-07
0.000260346
-1.156e-10
-7.15284e-11
-0.00106587
-4.3886e-10
-4.32958e-10
0.00106587
-0.00106652
-1.16932e-06
7.44097e-11
1.91423e-09
0.00106652
-2.23376e-07
1.17055e-06
2.22062e-07
8.42918e-07
-2.0877e-07
-8.4373e-07
2.06188e-07
-0.00106619
-1.16401e-06
7.51699e-11
1.90111e-09
0.00106619
-2.23368e-07
1.16521e-06
2.22066e-07
8.42753e-07
-2.11388e-07
-8.43604e-07
2.08845e-07
-0.000262278
1.19709e-06
1.16412e-06
-2.11354e-07
-2.16536e-07
0.000260345
6.15908e-10
6.72757e-10
-0.00106587
-7.49187e-10
-7.48472e-10
0.00106587
-0.00106652
-1.16916e-06
-6.89255e-10
1.54375e-09
0.00106652
-2.2312e-07
1.17074e-06
2.22383e-07
8.43228e-07
-2.08409e-07
-8.43414e-07
2.06768e-07
-0.00106619
-1.16384e-06
-6.79648e-10
1.53766e-09
0.00106619
-2.2311e-07
1.16541e-06
2.22391e-07
8.43056e-07
-2.11041e-07
-8.43295e-07
2.09416e-07
-0.00026228
1.19693e-06
1.16396e-06
-2.11111e-07
-2.16295e-07
0.000260346
8.04666e-10
8.62291e-10
-0.00106588
-8.46633e-10
-8.45334e-10
0.00106588
-0.00106653
-1.16912e-06
-8.76156e-10
1.47446e-09
0.00106653
-2.23077e-07
1.17077e-06
2.22413e-07
8.43271e-07
-2.0832e-07
-8.43365e-07
2.06828e-07
-0.00106619
-1.1638e-06
-8.72663e-10
1.46488e-09
0.00106619
-2.23068e-07
1.16544e-06
2.2242e-07
8.43101e-07
-2.10946e-07
-8.43244e-07
2.0948e-07
-0.00026228
1.19689e-06
1.16392e-06
-2.11059e-07
-2.16242e-07
0.000260346
8.26627e-10
8.7656e-10
-0.00106588
-8.55422e-10
-8.61032e-10
0.00106588
-0.00106653
-1.16911e-06
-8.91186e-10
1.46238e-09
0.00106653
-2.23073e-07
1.17077e-06
2.22415e-07
8.43275e-07
-2.08315e-07
-8.43361e-07
2.06832e-07
-0.00106619
-1.1638e-06
-8.81896e-10
1.45826e-09
0.00106619
-2.23065e-07
1.16545e-06
2.22422e-07
8.43103e-07
-2.10944e-07
-8.43241e-07
2.09482e-07
-0.00026228
1.19689e-06
1.16391e-06
-2.11056e-07
-2.16241e-07
0.000260346
8.36272e-10
8.59236e-10
-0.00106588
-8.37808e-10
-8.68424e-10
0.00106588
-0.00106653
-1.1691e-06
-8.99423e-10
1.43353e-09
0.00106653
-2.23064e-07
1.17078e-06
2.22425e-07
8.43272e-07
-2.08315e-07
-8.43361e-07
2.0683e-07
-0.00106619
-1.1638e-06
-8.78344e-10
1.46471e-09
0.00106619
-2.23066e-07
1.16545e-06
2.22421e-07
8.43103e-07
-2.10943e-07
-8.4324e-07
2.09482e-07
-0.00026228
1.19689e-06
1.16391e-06
-2.11055e-07
-2.16242e-07
0.000260346
8.36642e-10
8.41197e-10
-0.00106587
-8.215e-10
-8.68631e-10
0.00106588
-0.00106652
-1.16907e-06
-9.0869e-10
1.38519e-09
0.00106652
-2.23022e-07
1.17081e-06
2.22455e-07
8.43266e-07
-2.08321e-07
-8.43367e-07
2.06823e-07
-0.00106619
-1.1638e-06
-8.67316e-10
1.47067e-09
0.00106619
-2.23068e-07
1.16544e-06
2.22418e-07
8.431e-07
-2.10946e-07
-8.43243e-07
2.09479e-07
-0.00026228
1.1969e-06
1.16392e-06
-2.11057e-07
-2.16246e-07
0.000260346
8.20087e-10
8.58306e-10
-0.00106587
-8.42376e-10
-8.60226e-10
0.00106588
-0.00106652
-1.16911e-06
-8.88106e-10
1.46107e-09
0.00106652
-2.23069e-07
1.17078e-06
2.22415e-07
8.43273e-07
-2.08318e-07
-8.43361e-07
2.06828e-07
-0.00106619
-1.1638e-06
-8.75755e-10
1.46855e-09
0.00106619
-2.23068e-07
1.16544e-06
2.22419e-07
8.43101e-07
-2.10945e-07
-8.43242e-07
2.09481e-07
-0.00026228
1.19689e-06
1.16392e-06
-2.11059e-07
-2.16243e-07
0.000260346
8.21293e-10
8.58817e-10
-0.00106588
-8.45344e-10
-8.67535e-10
0.00106588
-0.00106652
-1.16911e-06
-8.75403e-10
1.46424e-09
0.00106652
-2.23076e-07
1.17077e-06
2.22414e-07
8.43271e-07
-2.0832e-07
-8.43364e-07
2.06827e-07
-0.00106619
-1.1638e-06
-8.93321e-10
1.47038e-09
0.00106619
-2.23069e-07
1.16544e-06
2.22419e-07
8.43104e-07
-2.10943e-07
-8.4324e-07
2.09483e-07
-0.00026228
1.19689e-06
1.16392e-06
-2.11062e-07
-2.16241e-07
0.000260346
8.3019e-10
8.64085e-10
-0.00106588
-8.47419e-10
-8.70422e-10
0.00106588
-0.00106653
-1.16911e-06
-8.83794e-10
1.45754e-09
0.00106653
-2.23073e-07
1.17077e-06
2.22417e-07
8.43273e-07
-2.08318e-07
-8.43362e-07
2.06829e-07
-0.00106619
-1.1638e-06
-9.0573e-10
1.46682e-09
0.00106619
-2.23067e-07
1.16545e-06
2.22421e-07
8.43107e-07
-2.1094e-07
-8.43237e-07
2.09486e-07
-0.00026228
1.19689e-06
1.16392e-06
-2.1106e-07
-2.16237e-07
0.000260346
8.32856e-10
8.65764e-10
-0.00106588
-8.4742e-10
-8.70773e-10
0.00106588
-0.00106653
-1.16911e-06
-8.88133e-10
1.45462e-09
0.00106653
-2.23071e-07
1.17078e-06
2.22418e-07
8.43274e-07
-2.08316e-07
-8.43361e-07
2.0683e-07
-0.00106619
-1.1638e-06
-9.12392e-10
1.46419e-09
0.00106619
-2.23066e-07
1.16545e-06
2.22422e-07
8.43108e-07
-2.10938e-07
-8.43234e-07
2.09488e-07
-0.00026228
1.19688e-06
1.16392e-06
-2.11058e-07
-2.16235e-07
0.000260346
8.39418e-10
8.72798e-10
-0.00106588
-8.52194e-10
-8.75561e-10
0.00106588
-0.00106653
-1.16911e-06
-8.93957e-10
1.45024e-09
0.00106653
-2.2307e-07
1.17078e-06
2.2242e-07
8.43276e-07
-2.08315e-07
-8.4336e-07
2.06832e-07
-0.00106619
-1.1638e-06
-9.1714e-10
1.4619e-09
0.00106619
-2.23065e-07
1.16545e-06
2.22423e-07
8.43109e-07
-2.10937e-07
-8.43234e-07
2.09489e-07
-0.00026228
1.19688e-06
1.16392e-06
-2.11058e-07
-2.16234e-07
0.000260346
8.45376e-10
8.78134e-10
-0.00106588
-8.54726e-10
-8.78252e-10
0.00106588
-0.00106652
-1.16911e-06
-8.96333e-10
1.44993e-09
0.00106652
-2.2307e-07
1.17078e-06
2.2242e-07
8.43277e-07
-2.08314e-07
-8.43359e-07
2.06833e-07
-0.00106619
-1.1638e-06
-9.19983e-10
1.462e-09
0.00106619
-2.23065e-07
1.16545e-06
2.22423e-07
8.4311e-07
-2.10935e-07
-8.43232e-07
2.0949e-07
-0.00026228
1.19688e-06
1.16392e-06
-2.11057e-07
-2.16233e-07
0.000260346
8.36696e-10
8.69372e-10
-0.00106587
-8.49276e-10
-8.72623e-10
0.00106587
-0.00106652
-1.16911e-06
-8.92037e-10
1.45224e-09
0.00106652
-2.2307e-07
1.17078e-06
2.22419e-07
8.43275e-07
-2.08316e-07
-8.4336e-07
2.06831e-07
-0.00106619
-1.1638e-06
-9.17408e-10
1.46241e-09
0.00106619
-2.23065e-07
1.16545e-06
2.22423e-07
8.43108e-07
-2.10937e-07
-8.43234e-07
2.09489e-07
-0.00026228
1.19688e-06
1.16392e-06
-2.11058e-07
-2.16234e-07
0.000260346
8.30933e-10
8.65744e-10
-0.00106587
-8.47365e-10
-8.68521e-10
0.00106587
-0.00106652
-1.16911e-06
-8.8904e-10
1.45703e-09
0.00106652
-2.23072e-07
1.17078e-06
2.22418e-07
8.43275e-07
-2.08316e-07
-8.43361e-07
2.06832e-07
-0.00106619
-1.1638e-06
-9.18435e-10
1.46506e-09
0.00106619
-2.23067e-07
1.16545e-06
2.22423e-07
8.43109e-07
-2.10938e-07
-8.43234e-07
2.09492e-07
-0.00026228
1.19688e-06
1.16392e-06
-2.11059e-07
-2.16235e-07
0.000260346
8.11232e-10
8.59392e-10
-0.00106587
-8.44924e-10
-8.53767e-10
0.00106588
-0.00106652
-1.16911e-06
-8.82734e-10
1.47504e-09
0.00106652
-2.23073e-07
1.17077e-06
2.22408e-07
8.43268e-07
-2.08315e-07
-8.43358e-07
2.06823e-07
-0.00106619
-1.1638e-06
-9.1973e-10
1.46961e-09
0.00106619
-2.23062e-07
1.16544e-06
2.22411e-07
8.43099e-07
-2.10925e-07
-8.43227e-07
2.09473e-07
-0.00026228
1.19688e-06
1.16392e-06
-2.11054e-07
-2.16227e-07
0.000260346
8.55604e-10
9.4199e-10
-0.00106587
-8.82712e-10
-8.64739e-10
0.00106587
-0.00106652
-1.1691e-06
-9.60839e-10
1.48258e-09
0.00106652
-2.23053e-07
1.17075e-06
2.22391e-07
8.43277e-07
-2.08271e-07
-8.43314e-07
2.06822e-07
-0.00106619
-1.16377e-06
-9.99987e-10
1.45863e-09
0.00106619
-2.23025e-07
1.16544e-06
2.2241e-07
8.43104e-07
-2.10868e-07
-8.43169e-07
2.0948e-07
-0.00026228
1.19684e-06
1.16389e-06
-2.11018e-07
-2.16188e-07
0.000260346
-1.20382e-06
-1.16822e-06
0.000262295
-0.000260351
2.1034e-07
2.17981e-07
0.00106576
-1.36968e-09
-0.00106576
1.29092e-09
-1.20199e-06
2.2782e-07
-2.28204e-07
-8.43065e-07
2.07e-07
-2.07881e-07
8.43298e-07
1.20917e-06
0.00106618
-1.34351e-09
-0.00106618
1.2953e-09
-1.20734e-06
2.30577e-07
-2.30953e-07
-8.48576e-07
2.09755e-07
-2.10665e-07
8.48789e-07
-1.17082e-06
0.000262323
-0.000260372
2.1305e-07
2.15328e-07
0.00106679
-1.42412e-09
-0.00106679
1.22424e-09
-1.16639e-06
2.25278e-07
-2.25617e-07
-8.45789e-07
2.09791e-07
-2.10656e-07
8.4607e-07
1.20387e-06
0.00106586
-1.34222e-09
-0.00106587
1.29091e-09
-1.20205e-06
2.30554e-07
-2.30936e-07
-8.45751e-07
2.09721e-07
-2.10614e-07
8.45968e-07
-1.42969e-09
-0.00106652
1.23767e-09
-1.16897e-06
2.22517e-07
-2.22868e-07
-8.43112e-07
2.07082e-07
8.4337e-07
-2.07932e-07
1.19856e-06
0.00106566
-1.34599e-09
-0.00106566
1.30289e-09
-1.19675e-06
2.25093e-07
-2.25475e-07
-8.43106e-07
2.06994e-07
-2.07888e-07
8.43315e-07
-1.16549e-06
0.000262274
-0.000260333
2.1051e-07
2.17797e-07
-1.42682e-09
-0.00106619
1.22998e-09
-1.16366e-06
2.22526e-07
-2.22859e-07
-8.42946e-07
2.09709e-07
8.4325e-07
-2.1058e-07
1.16559e-06
0.00106669
-1.40192e-09
-0.00106669
1.23756e-09
-1.16378e-06
2.22569e-07
-2.22927e-07
-8.43209e-07
2.09778e-07
-2.10639e-07
8.43481e-07
-0.000260346
2.1281e-07
2.18001e-07
1.20198e-06
1.16637e-06
-2.08394e-07
-2.16017e-07
0.000260351
-1.20361e-06
-1.16802e-06
0.000262294
-0.00026035
2.10025e-07
2.17664e-07
1.20378e-09
0.00106575
-2.28188e-07
1.20384e-06
2.27825e-07
8.43275e-07
-2.07874e-07
-8.43102e-07
2.06985e-07
-1.20733e-06
-1.47611e-09
1.2114e-09
0.00106618
-2.30937e-07
1.2092e-06
2.30582e-07
8.48774e-07
-2.10652e-07
-8.48605e-07
2.09747e-07
0.00106575
-4.33679e-10
-0.00106575
1.72223e-09
-1.20215e-06
2.27509e-07
-2.28412e-07
-8.43429e-07
2.06549e-07
-2.08156e-07
8.42891e-07
1.20897e-06
0.00106618
-4.08923e-10
-0.00106618
1.73122e-09
-1.2075e-06
2.30265e-07
-2.31162e-07
-8.48943e-07
2.09301e-07
-2.10941e-07
8.4838e-07
-2.11083e-07
-2.13363e-07
0.000260371
-1.17062e-06
0.000262323
-0.000260371
2.12737e-07
2.15013e-07
1.14013e-09
0.00106679
-2.25602e-07
1.16824e-06
2.25283e-07
8.46053e-07
-2.10648e-07
-8.45823e-07
2.09779e-07
-1.20204e-06
-1.4694e-09
1.21212e-09
0.00106586
-2.30921e-07
1.20389e-06
2.30557e-07
8.45951e-07
-2.10601e-07
-8.45782e-07
2.09712e-07
0.00106678
-4.95059e-10
-0.00106678
1.66118e-09
-1.16654e-06
2.24968e-07
-2.25826e-07
-8.46157e-07
2.09337e-07
-2.10935e-07
8.45659e-07
1.20366e-06
0.00106586
-4.06976e-10
-0.00106586
1.72267e-09
-1.2022e-06
2.30246e-07
-2.3114e-07
-8.46122e-07
2.09275e-07
-2.10885e-07
8.45558e-07
-1.47447e-09
1.2156e-09
0.00106566
-2.2546e-07
1.19858e-06
2.25096e-07
8.43301e-07
-2.07871e-07
2.0699e-07
-8.43132e-07
-4.85283e-10
-0.00106652
1.67702e-09
-1.16913e-06
2.22209e-07
-2.23078e-07
-8.43483e-07
2.06615e-07
8.4295e-07
-2.08214e-07
1.19836e-06
0.00106566
-4.17167e-10
-0.00106566
1.71871e-09
-1.1969e-06
2.248e-07
-2.25668e-07
-8.43474e-07
2.06537e-07
-2.08163e-07
8.42903e-07
-2.08559e-07
-2.1584e-07
0.000260333
-1.16529e-06
0.000262273
-0.000260332
2.10198e-07
2.17483e-07
-1.54547e-09
1.15328e-09
0.00106669
-2.22913e-07
1.16562e-06
2.22573e-07
8.43467e-07
-2.10623e-07
2.09774e-07
-8.43235e-07
-4.92951e-10
-0.00106619
1.658e-09
-1.16381e-06
2.22219e-07
-2.23066e-07
-8.4331e-07
2.09255e-07
8.42835e-07
-2.10852e-07
1.1654e-06
0.00106669
-4.79399e-10
-0.00106669
1.65455e-09
-1.16392e-06
2.22277e-07
-2.23119e-07
-8.43579e-07
2.09322e-07
-2.10914e-07
8.43065e-07
-0.000260345
2.12505e-07
2.17697e-07
1.20234e-06
1.16674e-06
-2.08884e-07
-2.16506e-07
0.00026035
-1.20371e-06
-1.16811e-06
0.000262295
-0.000260351
2.1013e-07
2.17769e-07
1.96216e-09
0.00106575
-2.28714e-07
1.20354e-06
2.2736e-07
8.42852e-07
-2.0871e-07
-8.43676e-07
2.06121e-07
-1.20769e-06
1.12007e-10
1.9693e-09
0.00106618
-2.31463e-07
1.2089e-06
2.30117e-07
8.48357e-07
-2.11492e-07
-8.49179e-07
2.08881e-07
0.00106576
-4.7365e-10
-0.00106576
1.669e-09
-1.20222e-06
2.27648e-07
-2.28505e-07
-8.43397e-07
2.06592e-07
-2.08495e-07
8.4313e-07
1.20907e-06
0.00106619
-4.53452e-10
-0.00106619
1.67258e-09
-1.20757e-06
2.30405e-07
-2.31255e-07
-8.48905e-07
2.0935e-07
-2.11275e-07
8.48622e-07
-2.11568e-07
-2.1385e-07
0.000260371
-1.17071e-06
0.000262324
-0.000260372
2.1284e-07
2.15118e-07
1.90204e-09
0.00106678
-2.26128e-07
1.16794e-06
2.24815e-07
8.45631e-07
-2.11485e-07
-8.46399e-07
2.08917e-07
-1.2024e-06
1.17796e-10
1.97805e-09
0.00106586
-2.31446e-07
1.20359e-06
2.30092e-07
8.45524e-07
-2.11432e-07
-8.4636e-07
2.08853e-07
0.00106679
-5.28113e-10
-0.00106679
1.60141e-09
-1.16661e-06
2.25107e-07
-2.25919e-07
-8.46124e-07
2.09384e-07
-2.11268e-07
8.45898e-07
1.20376e-06
0.00106587
-4.48227e-10
-0.00106587
1.6736e-09
-1.20227e-06
2.30379e-07
-2.31241e-07
-8.46084e-07
2.09319e-07
-2.11223e-07
8.458e-07
1.04965e-10
1.95693e-09
0.00106566
-2.25968e-07
1.19829e-06
2.24647e-07
8.42881e-07
-2.08714e-07
2.06116e-07
-8.43708e-07
-5.29204e-10
-0.00106652
1.613e-09
-1.16919e-06
2.22347e-07
-2.23169e-07
-8.43445e-07
2.06674e-07
8.43198e-07
-2.08544e-07
1.19845e-06
0.00106567
-4.59819e-10
-0.00106567
1.6776e-09
-1.19697e-06
2.24926e-07
-2.25773e-07
-8.43434e-07
2.06588e-07
-2.08497e-07
8.43148e-07
-2.09045e-07
-2.16329e-07
0.000260332
-1.16539e-06
0.000262275
-0.000260333
2.10303e-07
2.17581e-07
7.08415e-11
1.89021e-09
0.00106669
-2.23418e-07
1.16532e-06
2.22124e-07
8.43027e-07
-2.11468e-07
2.08897e-07
-8.43825e-07
-5.17974e-10
-0.00106619
1.60674e-09
-1.16388e-06
2.22356e-07
-2.23161e-07
-8.4328e-07
2.09296e-07
8.43076e-07
-2.11198e-07
1.16549e-06
0.00106669
-5.04929e-10
-0.00106669
1.60553e-09
-1.164e-06
2.22404e-07
-2.23222e-07
-8.43543e-07
2.0937e-07
-2.11252e-07
8.4331e-07
-0.000260346
2.12603e-07
2.17791e-07
1.20218e-06
1.16657e-06
-2.08631e-07
-2.16255e-07
0.000260351
-1.20376e-06
-1.16817e-06
0.000262295
-0.000260351
2.10202e-07
2.17841e-07
1.59948e-09
0.00106576
-2.28455e-07
1.20374e-06
2.27684e-07
8.43154e-07
-2.08368e-07
-8.43373e-07
2.06681e-07
-1.20753e-06
-6.1904e-10
1.60344e-09
0.00106619
-2.31205e-07
1.2091e-06
2.30441e-07
8.48653e-07
-2.11144e-07
-8.48876e-07
2.09446e-07
0.00106576
-8.13418e-10
-0.00106576
1.53388e-09
-1.20214e-06
2.27712e-07
-2.28414e-07
-8.43324e-07
2.06743e-07
-2.08271e-07
8.43193e-07
1.20912e-06
0.00106619
-7.90835e-10
-0.00106619
1.53979e-09
-1.20749e-06
2.30469e-07
-2.31164e-07
-8.48833e-07
2.09498e-07
-2.11056e-07
8.48688e-07
-2.11319e-07
-2.13598e-07
0.000260372
-1.17077e-06
0.000262324
-0.000260372
2.12913e-07
2.15188e-07
1.53741e-09
0.00106679
-2.25869e-07
1.16814e-06
2.25142e-07
8.45928e-07
-2.11141e-07
-8.46097e-07
2.09476e-07
-1.20224e-06
-6.13511e-10
1.61e-09
0.00106587
-2.31191e-07
1.20378e-06
2.30416e-07
8.45829e-07
-2.11092e-07
-8.46055e-07
2.09413e-07
0.00106679
-8.6626e-10
-0.00106679
1.46708e-09
-1.16653e-06
2.2517e-07
-2.25827e-07
-8.46049e-07
2.09535e-07
-2.11045e-07
8.45965e-07
1.20381e-06
0.00106587
-7.87921e-10
-0.00106587
1.53581e-09
-1.2022e-06
2.30444e-07
-2.31148e-07
-8.46011e-07
2.09468e-07
-2.11e-07
8.45864e-07
-6.29266e-10
1.60243e-09
0.00106567
-2.25721e-07
1.19848e-06
2.24963e-07
8.43181e-07
-2.08362e-07
2.06687e-07
-8.43402e-07
-8.67853e-10
-0.00106653
1.48087e-09
-1.16912e-06
2.22412e-07
-2.23077e-07
-8.43373e-07
2.06819e-07
8.43262e-07
-2.08327e-07
1.19851e-06
0.00106567
-7.96189e-10
-0.00106567
1.54225e-09
-1.1969e-06
2.24988e-07
-2.25682e-07
-8.43362e-07
2.06737e-07
-2.08278e-07
8.43214e-07
-2.08793e-07
-2.16081e-07
0.000260333
-1.16544e-06
0.000262275
-0.000260333
2.10373e-07
2.17657e-07
-6.86297e-10
1.5324e-09
0.00106669
-2.23171e-07
1.16552e-06
2.22442e-07
8.43343e-07
-2.11116e-07
2.09471e-07
-8.4351e-07
-8.65927e-10
-0.00106619
1.46904e-09
-1.1638e-06
2.2242e-07
-2.23067e-07
-8.43205e-07
2.09449e-07
8.43144e-07
-2.10972e-07
1.16555e-06
0.00106669
-8.497e-10
-0.00106669
1.47352e-09
-1.16392e-06
2.22467e-07
-2.23131e-07
-8.43471e-07
2.0952e-07
-2.11031e-07
8.43374e-07
-0.000260346
2.12675e-07
2.17864e-07
1.20214e-06
1.16653e-06
-2.0858e-07
-2.16203e-07
0.000260351
-1.20377e-06
-1.16817e-06
0.000262295
-0.000260351
2.10207e-07
2.17846e-07
1.52697e-09
0.00106576
-2.28413e-07
1.20377e-06
2.27714e-07
8.43195e-07
-2.08275e-07
-8.43327e-07
2.06744e-07
-1.20749e-06
-8.0713e-10
1.53338e-09
0.00106619
-2.31163e-07
1.20913e-06
2.30471e-07
8.48696e-07
-2.11054e-07
-8.48826e-07
2.09507e-07
0.00106576
-8.45095e-10
-0.00106576
1.52218e-09
-1.20213e-06
2.27717e-07
-2.28408e-07
-8.43315e-07
2.0675e-07
-2.08263e-07
8.432e-07
1.20913e-06
0.00106619
-8.2325e-10
-0.00106619
1.52658e-09
-1.20749e-06
2.30474e-07
-2.31158e-07
-8.48824e-07
2.09504e-07
-2.11047e-07
8.48694e-07
-2.11267e-07
-2.13548e-07
0.000260372
-1.17077e-06
0.000262324
-0.000260372
2.12918e-07
2.15193e-07
1.46529e-09
0.00106679
-2.25827e-07
1.16817e-06
2.25171e-07
8.45972e-07
-2.11047e-07
-8.46046e-07
2.09537e-07
-1.20219e-06
-8.01069e-10
1.53839e-09
0.00106587
-2.31147e-07
1.20382e-06
2.30447e-07
8.4587e-07
-2.11001e-07
-8.46007e-07
2.09473e-07
0.00106679
-8.93531e-10
-0.00106679
1.45054e-09
-1.16653e-06
2.25176e-07
-2.25821e-07
-8.4604e-07
2.09539e-07
-2.11036e-07
8.4597e-07
1.20382e-06
0.00106587
-8.14945e-10
-0.00106587
1.5277e-09
-1.20219e-06
2.30448e-07
-2.31143e-07
-8.46003e-07
2.09474e-07
-2.10994e-07
8.45869e-07
-8.16372e-10
1.53011e-09
0.00106567
-2.2568e-07
1.19851e-06
2.24992e-07
8.43225e-07
-2.0827e-07
2.0675e-07
-8.43351e-07
-8.94484e-10
-0.00106653
1.46483e-09
-1.16911e-06
2.22416e-07
-2.23071e-07
-8.43365e-07
2.06826e-07
8.43269e-07
-2.08318e-07
1.19851e-06
0.00106567
-8.20979e-10
-0.00106567
1.53754e-09
-1.19689e-06
2.24991e-07
-2.25677e-07
-8.43354e-07
2.06742e-07
-2.08271e-07
8.43219e-07
-2.08744e-07
-2.16027e-07
0.000260333
-1.16545e-06
0.000262275
-0.000260333
2.10377e-07
2.1766e-07
-8.74186e-10
1.4623e-09
0.00106669
-2.2313e-07
1.16555e-06
2.22471e-07
8.43385e-07
-2.11023e-07
2.09533e-07
-8.43462e-07
-8.87588e-10
-0.00106619
1.45803e-09
-1.1638e-06
2.22424e-07
-2.23063e-07
-8.43198e-07
2.09453e-07
8.43149e-07
-2.10966e-07
1.16555e-06
0.00106669
-8.65762e-10
-0.00106669
1.46501e-09
-1.16392e-06
2.2247e-07
-2.23126e-07
-8.43465e-07
2.09523e-07
-2.11026e-07
8.43376e-07
-0.000260346
2.12679e-07
2.17867e-07
1.20213e-06
1.16653e-06
-2.08574e-07
-2.16199e-07
0.000260351
-1.20377e-06
-1.16817e-06
0.000262295
-0.000260351
2.10209e-07
2.17844e-07
1.52096e-09
0.00106576
-2.28409e-07
1.20377e-06
2.27717e-07
8.432e-07
-2.0827e-07
-8.43321e-07
2.06748e-07
-1.20749e-06
-8.25961e-10
1.5262e-09
0.00106619
-2.31159e-07
1.20913e-06
2.30473e-07
8.48699e-07
-2.11047e-07
-8.48821e-07
2.09509e-07
0.00106576
-8.57551e-10
-0.00106576
1.53546e-09
-1.20214e-06
2.27713e-07
-2.2841e-07
-8.43311e-07
2.06752e-07
-2.08261e-07
8.43203e-07
1.20913e-06
0.00106619
-8.49347e-10
-0.00106619
1.5105e-09
-1.20748e-06
2.30477e-07
-2.31155e-07
-8.48821e-07
2.09511e-07
-2.11044e-07
8.487e-07
-2.11262e-07
-2.13545e-07
0.000260372
-1.17078e-06
0.000262324
-0.000260372
2.12925e-07
2.15193e-07
1.45265e-09
0.00106679
-2.25822e-07
1.16817e-06
2.25176e-07
8.45974e-07
-2.11042e-07
-8.46041e-07
2.09538e-07
-1.20219e-06
-8.16559e-10
1.53471e-09
0.00106587
-2.31144e-07
1.20382e-06
2.30449e-07
8.45873e-07
-2.10997e-07
-8.46003e-07
2.09476e-07
0.00106679
-8.86609e-10
-0.00106679
1.44367e-09
-1.16652e-06
2.25177e-07
-2.25819e-07
-8.46041e-07
2.09539e-07
-2.11036e-07
8.4597e-07
1.20382e-06
0.00106587
-8.14616e-10
-0.00106587
1.53097e-09
-1.20219e-06
2.30448e-07
-2.31142e-07
-8.46002e-07
2.09474e-07
-2.10993e-07
8.4587e-07
-8.29674e-10
1.53143e-09
0.00106567
-2.2568e-07
1.19851e-06
2.24992e-07
8.43228e-07
-2.08266e-07
2.06753e-07
-8.43347e-07
-9.02518e-10
-0.00106653
1.44581e-09
-1.16911e-06
2.22423e-07
-2.23067e-07
-8.43364e-07
2.06826e-07
8.43268e-07
-2.08317e-07
1.19851e-06
0.00106567
-8.28727e-10
-0.00106567
1.54577e-09
-1.19689e-06
2.2499e-07
-2.25678e-07
-8.43352e-07
2.06743e-07
-2.08269e-07
8.43221e-07
-2.0874e-07
-2.16024e-07
0.000260333
-1.16545e-06
0.000262275
-0.000260333
2.10376e-07
2.1766e-07
-8.77029e-10
1.45776e-09
0.00106669
-2.23127e-07
1.16555e-06
2.22473e-07
8.43384e-07
-2.11023e-07
2.09533e-07
-8.43462e-07
-8.87817e-10
-0.00106619
1.46052e-09
-1.1638e-06
2.22423e-07
-2.23063e-07
-8.43196e-07
2.09454e-07
8.4315e-07
-2.10965e-07
1.16555e-06
0.00106669
-8.63971e-10
-0.00106669
1.45939e-09
-1.16391e-06
2.22472e-07
-2.23124e-07
-8.43464e-07
2.09523e-07
-2.11025e-07
8.43378e-07
-0.000260346
2.1268e-07
2.17866e-07
1.20214e-06
1.16652e-06
-2.08573e-07
-2.16202e-07
0.000260351
-1.20376e-06
-1.16817e-06
0.000262295
-0.000260351
2.10209e-07
2.17838e-07
1.54421e-09
0.00106576
-2.28412e-07
1.20377e-06
2.27712e-07
8.43202e-07
-2.08267e-07
-8.43317e-07
2.0675e-07
-1.20748e-06
-8.5837e-10
1.50198e-09
0.00106619
-2.31154e-07
1.20913e-06
2.30479e-07
8.48706e-07
-2.11041e-07
-8.48815e-07
2.0952e-07
0.00106576
-8.63092e-10
-0.00106576
1.57227e-09
-1.20214e-06
2.27706e-07
-2.28417e-07
-8.43308e-07
2.06753e-07
-2.08259e-07
8.43205e-07
1.20914e-06
0.00106619
-9.43036e-10
-0.00106619
1.44474e-09
-1.20747e-06
2.30505e-07
-2.31125e-07
-8.48783e-07
2.09565e-07
-2.10985e-07
8.48733e-07
-2.11255e-07
-2.13543e-07
0.000260372
-1.17082e-06
0.000262324
-0.000260372
2.12989e-07
2.15194e-07
1.44716e-09
0.00106679
-2.25821e-07
1.16817e-06
2.25176e-07
8.4597e-07
-2.11044e-07
-8.46043e-07
2.09534e-07
-1.20219e-06
-8.10605e-10
1.53952e-09
0.00106587
-2.31145e-07
1.20382e-06
2.30448e-07
8.45872e-07
-2.10998e-07
-8.46003e-07
2.09475e-07
0.00106679
-8.59289e-10
-0.00106679
1.44044e-09
-1.16652e-06
2.25177e-07
-2.25819e-07
-8.46046e-07
2.09534e-07
-2.11042e-07
8.45965e-07
1.20381e-06
0.00106587
-7.98297e-10
-0.00106587
1.54e-09
-1.20219e-06
2.30444e-07
-2.31146e-07
-8.46005e-07
2.09471e-07
-2.10996e-07
8.45867e-07
-8.3664e-10
1.54366e-09
0.00106567
-2.2568e-07
1.19851e-06
2.24991e-07
8.43229e-07
-2.08266e-07
2.06753e-07
-8.43346e-07
-9.14898e-10
-0.00106653
1.38032e-09
-1.16907e-06
2.22465e-07
-2.23025e-07
-8.43368e-07
2.06819e-07
8.43261e-07
-2.0832e-07
1.1985e-06
0.00106567
-8.22918e-10
-0.00106567
1.56895e-09
-1.1969e-06
2.24984e-07
-2.25682e-07
-8.43353e-07
2.06741e-07
-2.0827e-07
8.43219e-07
-2.08741e-07
-2.16024e-07
0.000260333
-1.16544e-06
0.000262275
-0.000260333
2.10374e-07
2.17657e-07
-8.70403e-10
1.45237e-09
0.00106669
-2.23126e-07
1.16555e-06
2.22473e-07
8.43384e-07
-2.11022e-07
2.09532e-07
-8.43461e-07
-8.75124e-10
-0.00106619
1.46934e-09
-1.1638e-06
2.2242e-07
-2.23065e-07
-8.43199e-07
2.0945e-07
8.43146e-07
-2.10968e-07
1.16555e-06
0.00106669
-8.43668e-10
-0.00106669
1.45894e-09
-1.16392e-06
2.22469e-07
-2.23126e-07
-8.43468e-07
2.09519e-07
-2.11029e-07
8.43373e-07
-0.000260346
2.12679e-07
2.17862e-07
1.20214e-06
1.16653e-06
-2.08573e-07
-2.16207e-07
0.000260351
-1.20376e-06
-1.16817e-06
0.000262295
-0.000260351
2.10206e-07
2.17843e-07
1.5701e-09
0.00106576
-2.28418e-07
1.20376e-06
2.27707e-07
8.43203e-07
-2.08266e-07
-8.43316e-07
2.06751e-07
-1.20747e-06
-9.42955e-10
1.43576e-09
0.00106619
-2.31126e-07
1.20914e-06
2.30494e-07
8.48728e-07
-2.10996e-07
-8.4878e-07
2.09543e-07
0.00106576
-8.43498e-10
-0.00106576
1.53631e-09
-1.20214e-06
2.27712e-07
-2.28413e-07
-8.43316e-07
2.0675e-07
-2.08263e-07
8.432e-07
1.20913e-06
0.00106619
-8.33932e-10
-0.00106619
1.50843e-09
-1.20748e-06
2.30479e-07
-2.31158e-07
-8.48821e-07
2.09521e-07
-2.11035e-07
8.48705e-07
-2.11197e-07
-2.13542e-07
0.000260372
-1.17079e-06
0.000262324
-0.000260372
2.12931e-07
2.15196e-07
1.44532e-09
0.00106679
-2.25821e-07
1.16817e-06
2.25176e-07
8.45968e-07
-2.11047e-07
-8.46047e-07
2.09532e-07
-1.20219e-06
-7.99327e-10
1.54692e-09
0.00106587
-2.31148e-07
1.20381e-06
2.30445e-07
8.4587e-07
-2.11e-07
-8.46006e-07
2.09473e-07
0.00106679
-8.74848e-10
-0.00106679
1.45068e-09
-1.16653e-06
2.25175e-07
-2.25822e-07
-8.46044e-07
2.09537e-07
-2.11041e-07
8.45968e-07
1.20381e-06
0.00106587
-8.0073e-10
-0.00106587
1.53616e-09
-1.20219e-06
2.30446e-07
-2.31145e-07
-8.46006e-07
2.09471e-07
-2.10996e-07
8.45867e-07
-8.32717e-10
1.56008e-09
0.00106567
-2.25685e-07
1.19851e-06
2.24986e-07
8.43228e-07
-2.08266e-07
2.06752e-07
-8.43347e-07
-8.96433e-10
-0.00106652
1.45465e-09
-1.16911e-06
2.22426e-07
-2.23068e-07
-8.43366e-07
2.06825e-07
8.4327e-07
-2.08323e-07
1.19851e-06
0.00106567
-8.15725e-10
-0.00106567
1.54554e-09
-1.19689e-06
2.24989e-07
-2.2568e-07
-8.43355e-07
2.06741e-07
-2.08271e-07
8.43218e-07
-2.08743e-07
-2.16027e-07
0.000260333
-1.16545e-06
0.000262275
-0.000260333
2.10374e-07
2.17658e-07
-8.5645e-10
1.45201e-09
0.00106669
-2.23128e-07
1.16555e-06
2.22472e-07
8.43382e-07
-2.11026e-07
2.0953e-07
-8.43464e-07
-8.82442e-10
-0.00106619
1.46905e-09
-1.1638e-06
2.22421e-07
-2.23065e-07
-8.43199e-07
2.09452e-07
8.43148e-07
-2.10967e-07
1.16555e-06
0.00106669
-8.43254e-10
-0.00106669
1.45567e-09
-1.16392e-06
2.22469e-07
-2.23127e-07
-8.43469e-07
2.09519e-07
-2.1103e-07
8.43373e-07
-0.000260346
2.12678e-07
2.17865e-07
1.20214e-06
1.16653e-06
-2.08577e-07
-2.16203e-07
0.000260351
-1.20377e-06
-1.16817e-06
0.000262295
-0.000260351
2.10203e-07
2.17843e-07
1.53501e-09
0.00106576
-2.28413e-07
1.20377e-06
2.27714e-07
8.43198e-07
-2.08271e-07
-8.43323e-07
2.06747e-07
-1.20748e-06
-8.1098e-10
1.5162e-09
0.00106619
-2.3116e-07
1.20913e-06
2.30468e-07
8.48696e-07
-2.11045e-07
-8.4882e-07
2.09509e-07
0.00106576
-8.4149e-10
-0.00106576
1.53431e-09
-1.20214e-06
2.27713e-07
-2.28412e-07
-8.43318e-07
2.06748e-07
-2.08266e-07
8.43197e-07
1.20912e-06
0.00106619
-7.72453e-10
-0.00106619
1.52122e-09
-1.20749e-06
2.30467e-07
-2.31164e-07
-8.48832e-07
2.09498e-07
-2.11054e-07
8.48686e-07
-2.11257e-07
-2.13543e-07
0.000260372
-1.17077e-06
0.000262324
-0.000260372
2.12916e-07
2.15189e-07
1.45808e-09
0.00106679
-2.25825e-07
1.16817e-06
2.25173e-07
8.45971e-07
-2.11046e-07
-8.46045e-07
2.09535e-07
-1.20219e-06
-8.03659e-10
1.54303e-09
0.00106587
-2.31147e-07
1.20381e-06
2.30446e-07
8.4587e-07
-2.11e-07
-8.46006e-07
2.09474e-07
0.00106679
-8.761e-10
-0.00106679
1.46155e-09
-1.16653e-06
2.25172e-07
-2.25825e-07
-8.46045e-07
2.09536e-07
-2.11041e-07
8.45967e-07
1.20381e-06
0.00106587
-7.96756e-10
-0.00106587
1.53817e-09
-1.2022e-06
2.30443e-07
-2.31147e-07
-8.46007e-07
2.0947e-07
-2.10997e-07
8.45866e-07
-8.22134e-10
1.53515e-09
0.00106567
-2.2568e-07
1.19851e-06
2.24992e-07
8.43226e-07
-2.08269e-07
2.0675e-07
-8.43349e-07
-8.78817e-10
-0.00106652
1.46761e-09
-1.16911e-06
2.22414e-07
-2.23074e-07
-8.43368e-07
2.06821e-07
8.43265e-07
-2.08323e-07
1.19851e-06
0.00106567
-8.08417e-10
-0.00106567
1.53705e-09
-1.19689e-06
2.24994e-07
-2.25674e-07
-8.43361e-07
2.06734e-07
-2.08279e-07
8.43212e-07
-2.08743e-07
-2.16026e-07
0.000260333
-1.16544e-06
0.000262275
-0.000260333
2.10373e-07
2.17657e-07
-8.36789e-10
1.44623e-09
0.00106669
-2.2313e-07
1.16555e-06
2.2247e-07
8.43379e-07
-2.11029e-07
2.09527e-07
-8.43467e-07
-8.96786e-10
-0.00106619
1.47095e-09
-1.1638e-06
2.2242e-07
-2.23066e-07
-8.43197e-07
2.09454e-07
8.4315e-07
-2.10966e-07
1.16554e-06
0.00106669
-7.46103e-10
-0.00106669
1.44441e-09
-1.16392e-06
2.22463e-07
-2.23132e-07
-8.43482e-07
2.09504e-07
-2.11044e-07
8.43359e-07
-0.000260346
2.12673e-07
2.17867e-07
1.20214e-06
1.16653e-06
-2.08579e-07
-2.16203e-07
0.000260351
-1.20377e-06
-1.16817e-06
0.000262295
-0.000260351
2.10204e-07
2.17845e-07
1.53242e-09
0.00106576
-2.28412e-07
1.20377e-06
2.27714e-07
8.43197e-07
-2.08273e-07
-8.43324e-07
2.06746e-07
-1.20749e-06
-7.69304e-10
1.51942e-09
0.00106619
-2.31165e-07
1.20912e-06
2.30468e-07
8.48691e-07
-2.11057e-07
-8.4883e-07
2.09503e-07
0.00106576
-8.51803e-10
-0.00106576
1.53021e-09
-1.20213e-06
2.27715e-07
-2.2841e-07
-8.43315e-07
2.06751e-07
-2.08263e-07
8.432e-07
1.20912e-06
0.00106619
-7.65003e-10
-0.00106619
1.52132e-09
-1.20749e-06
2.30469e-07
-2.31162e-07
-8.48833e-07
2.09495e-07
-2.11057e-07
8.48686e-07
-2.11265e-07
-2.13549e-07
0.000260372
-1.17077e-06
0.000262324
-0.000260372
2.12917e-07
2.1519e-07
1.46684e-09
0.00106679
-2.25828e-07
1.16817e-06
2.2517e-07
8.4597e-07
-2.11047e-07
-8.46046e-07
2.09534e-07
-1.2022e-06
-7.9969e-10
1.54496e-09
0.00106587
-2.3115e-07
1.20381e-06
2.30444e-07
8.4587e-07
-2.11001e-07
-8.46007e-07
2.09473e-07
0.00106679
-8.82247e-10
-0.00106679
1.46258e-09
-1.16653e-06
2.25172e-07
-2.25825e-07
-8.46043e-07
2.09538e-07
-2.11039e-07
8.4597e-07
1.20381e-06
0.00106587
-8.02769e-10
-0.00106587
1.53631e-09
-1.20219e-06
2.30444e-07
-2.31147e-07
-8.46005e-07
2.09473e-07
-2.10995e-07
8.45868e-07
-8.20429e-10
1.52787e-09
0.00106567
-2.25675e-07
1.19852e-06
2.24998e-07
8.4322e-07
-2.08275e-07
2.06744e-07
-8.43355e-07
-8.85569e-10
-0.00106652
1.45913e-09
-1.16911e-06
2.22417e-07
-2.2307e-07
-8.43367e-07
2.06823e-07
8.43267e-07
-2.08321e-07
1.19852e-06
0.00106567
-8.21683e-10
-0.00106567
1.52801e-09
-1.19689e-06
2.25e-07
-2.25669e-07
-8.4336e-07
2.06737e-07
-2.08277e-07
8.43214e-07
-2.08745e-07
-2.16028e-07
0.000260333
-1.16545e-06
0.000262275
-0.000260333
2.10375e-07
2.17657e-07
-7.47763e-10
1.43743e-09
0.00106669
-2.23135e-07
1.16554e-06
2.22465e-07
8.43365e-07
-2.11043e-07
2.09512e-07
-8.4348e-07
-9.12537e-10
-0.00106619
1.46649e-09
-1.1638e-06
2.22423e-07
-2.23064e-07
-8.43194e-07
2.09457e-07
8.43153e-07
-2.10962e-07
1.16554e-06
0.00106669
-7.49563e-10
-0.00106669
1.44381e-09
-1.16392e-06
2.22465e-07
-2.23131e-07
-8.43483e-07
2.09503e-07
-2.11046e-07
8.43359e-07
-0.000260346
2.12675e-07
2.17871e-07
1.20213e-06
1.16653e-06
-2.08578e-07
-2.16201e-07
0.000260351
-1.20377e-06
-1.16817e-06
0.000262295
-0.000260351
2.10204e-07
2.17845e-07
1.52889e-09
0.00106576
-2.2841e-07
1.20377e-06
2.27716e-07
8.432e-07
-2.0827e-07
-8.43321e-07
2.06748e-07
-1.20749e-06
-7.65861e-10
1.51903e-09
0.00106619
-2.31163e-07
1.20912e-06
2.3047e-07
8.48691e-07
-2.11059e-07
-8.4883e-07
2.09502e-07
0.00106576
-8.53787e-10