/*--------------------------------*- C++ -*----------------------------------*\
| =========                 |                                                 |
| \\      /  F ield         | OpenFOAM: The Open Source CFD Toolbox           |
|  \\    /   O peration     | Version:  2206                                  |
|   \\  /    A nd           | Website:  www.openfoam.com                      |
|    \\/     M anipulation  |                                                 |
\*---------------------------------------------------------------------------*/
FoamFile
{
    version     2.0;
    format      ascii;
    arch        "LSB;label=32;scalar=64";
    class       surfaceScalarField;
    location    "60";
    object      phi;
}
// * * * * * * * * * * * * * * * * * * * * * * * * * * * * * * * * * * * * * //

dimensions      [0 3 -1 0 0 0 0];

oriented        oriented;

internalField   nonuniform List<scalar> 
82330
(
1.07804e-08
-1.59275e-08
-9.78199e-09
1.0736e-08
-1.59107e-08
-9.82388e-09
9.49179e-09
-9.23702e-09
-9.15312e-09
9.44157e-09
-1.92528e-09
-2.22295e-09
1.55077e-08
4.21559e-09
-3.07939e-08
4.25098e-09
-2.26735e-09
1.54043e-08
-3.0912e-08
-3.11882e-08
4.06697e-12
6.20812e-09
2.6292e-08
-2.11833e-08
-1.43034e-11
-2.27156e-08
-1.77191e-08
-7.50903e-12
-4.13545e-09
-2.72214e-08
-1.38675e-08
4.36365e-08
1.99745e-08
-8.74306e-09
-2.42188e-09
-9.93647e-09
-1.19289e-08
-1.52711e-09
3.67712e-08
-1.00937e-08
-9.62408e-09
4.14607e-09
1.04978e-08
-2.48352e-08
-1.05609e-10
-1.99449e-08
1.24963e-08
1.91248e-08
1.26654e-08
1.92713e-08
6.45675e-08
-3.1194e-08
2.62997e-08
6.21641e-09
-2.11321e-08
3.02895e-11
1.59402e-08
-2.2746e-08
-1.75225e-08
-2.72247e-08
-4.14684e-09
-1.38053e-08
4.37456e-08
-9.45415e-09
2.01043e-08
-2.46672e-09
-9.98865e-09
-1.56513e-09
-1.19882e-08
-1.00716e-08
-8.71643e-09
-9.61255e-09
3.75742e-08
-1.99248e-08
1.24805e-08
1.91228e-08
1.26539e-08
1.92681e-08
6.49598e-08
-4.24069e-09
4.13417e-09
1.054e-08
-2.45251e-08
-9.4351e-09
1.99889e-08
-2.45628e-09
-9.99293e-09
-1.55911e-09
-1.19867e-08
-1.00504e-08
-8.69781e-09
-9.59048e-09
3.76236e-08
4.37224e-08
-5.29473e-11
-4.22847e-09
4.11609e-09
1.05561e-08
-2.44728e-08
1.59197e-08
-2.27597e-08
-1.74617e-08
1.07846e-08
-9.74441e-09
9.47823e-09
-1.89127e-09
-9.20628e-09
-9.17567e-09
-2.24636e-09
1.54624e-08
-3.06026e-08
-1.07256e-08
4.20952e-09
-2.22985e-09
1.5436e-08
-3.09442e-08
-1.58955e-08
-9.8188e-09
-1.56121e-11
3.11639e-08
-2.71942e-08
-4.12725e-09
-1.39704e-08
4.37595e-08
2.00284e-08
-1.00976e-08
-8.72211e-09
-9.61784e-09
-2.44549e-09
-9.95783e-09
-1.54527e-09
-1.19492e-08
3.62878e-08
1.18725e-10
-1.98082e-08
1.24591e-08
1.90941e-08
1.26343e-08
1.92356e-08
6.37213e-08
9.12342e-12
4.12193e-09
1.05118e-08
-2.49e-08
3.11741e-08
-2.72028e-08
-4.15968e-09
-1.39612e-08
4.3576e-08
-9.46227e-09
2.00147e-08
-2.41968e-09
-9.9249e-09
-1.52166e-09
-1.19168e-08
-1.00811e-08
-8.71128e-09
-9.6074e-09
3.64724e-08
-1.98145e-08
1.24766e-08
1.91006e-08
1.26502e-08
1.92434e-08
6.38144e-08
5.89158e-11
-4.25686e-09
4.16373e-09
1.04715e-08
-2.48684e-08
-4.17085e-11
6.23873e-09
2.62764e-08
-2.12194e-08
-2.27123e-08
-1.77335e-08
6.15833e-09
2.62846e-08
-2.12109e-08
1.58769e-08
-2.26222e-08
-1.773e-08
-1.8561e-09
-9.20425e-09
-9.14824e-09
-1.07778e-08
-2.26057e-09
1.54912e-08
-3.05294e-08
-1.07115e-08
-2.25133e-09
1.5387e-08
-3.09018e-08
-9.70018e-09
-9.81597e-09
-1.17462e-09
-1.12459e-09
-1.07122e-08
-1.14554e-09
-1.16976e-09
-1.0709e-08
1.46166e-10
1.94724e-10
-2.69464e-08
-6.23861e-10
-2.25056e-08
-2.84659e-09
1.14018e-08
-1.7777e-08
1.04022e-08
3.62913e-09
-2.35436e-08
-7.14206e-10
-2.25639e-08
-2.89916e-09
1.12851e-08
1.04315e-08
-1.78743e-08
3.51646e-09
-2.35804e-08
1.19519e-08
-4.5279e-09
-3.62804e-08
5.35216e-08
-2.46651e-08
1.69897e-08
-2.21842e-08
1.21324e-08
-2.08484e-08
1.02416e-08
-1.24766e-08
-1.91076e-11
1.02867e-08
2.01866e-08
2.94805e-11
-3.18186e-08
-1.98675e-08
1.45913e-08
2.32199e-08
-1.95302e-08
-2.01151e-08
6.01118e-11
-2.86306e-08
9.20242e-09
5.76098e-08
-1.32906e-08
-1.05634e-08
-2.82769e-08
2.90644e-10
-7.33802e-08
3.91021e-08
4.11062e-08
-2.45472e-08
7.12894e-09
-2.79562e-08
1.18947e-08
-3.63888e-08
-4.51515e-09
5.3589e-08
-2.45797e-08
1.0218e-08
-1.24477e-08
1.69942e-08
-2.20458e-08
1.21476e-08
-2.08511e-08
2.01919e-08
1.03415e-08
-3.18191e-08
-1.9817e-08
1.459e-08
-2.85845e-08
2.32755e-08
-1.95175e-08
-1.99774e-08
9.13743e-09
5.7659e-08
-1.32075e-08
-1.05648e-08
-2.80243e-08
3.04303e-10
-7.34526e-08
4.11486e-08
3.91143e-08
-2.43328e-08
7.15708e-09
-2.76995e-08
9.1151e-09
5.76907e-08
-5.3623e-08
-1.31827e-08
-1.05803e-08
-2.7965e-08
3.10665e-10
-1.21732e-08
-7.35337e-08
4.12319e-08
3.91246e-08
-2.42846e-08
-1.45995e-08
7.15619e-09
-2.33075e-08
-2.76566e-08
4.63579e-08
-1.49537e-08
2.68339e-08
-1.04131e-09
-1.14467e-09
-2.00488e-10
-2.60853e-10
-2.41866e-08
-1.15192e-09
-1.06585e-08
-1.16413e-09
-1.17173e-09
-1.0672e-08
-1.13463e-09
1.73017e-10
1.55479e-10
1.32673e-09
-1.30265e-08
1.2145e-09
-1.30311e-08
3.41012e-09
2.34144e-08
-1.93157e-08
8.75664e-09
-1.6466e-08
-6.67615e-10
-2.24073e-08
-1.7625e-08
-2.8722e-09
1.04167e-08
1.13494e-08
2.37601e-08
2.06998e-08
-4.76688e-09
-2.39376e-08
9.45183e-09
1.42727e-08
-1.41793e-08
3.56724e-09
-1.96965e-08
2.35245e-08
-1.93442e-08
3.38341e-09
8.74713e-09
-1.65717e-08
-6.75025e-10
-2.25094e-08
-2.8555e-09
-1.78889e-08
1.13265e-08
1.03989e-08
2.07877e-08
2.37531e-08
-4.64297e-08
-4.79833e-09
-2.42569e-08
3.56257e-09
-1.98514e-08
1.42451e-08
9.4403e-09
-1.44378e-08
-4.12077e-08
-1.50408e-08
1.19393e-08
-4.49608e-09
-3.63766e-08
5.35719e-08
-2.46386e-08
1.69697e-08
-2.21998e-08
1.21548e-08
-2.08233e-08
1.02531e-08
-1.24689e-08
-5.9272e-11
1.03488e-08
2.01704e-08
-4.45757e-11
-3.1787e-08
-1.99069e-08
1.45767e-08
2.32803e-08
-1.94919e-08
-2.01355e-08
-6.30739e-11
-2.8612e-08
9.18312e-09
5.7649e-08
-1.32602e-08
-1.0541e-08
-2.82821e-08
2.93306e-10
-7.34708e-08
3.91183e-08
-2.45887e-08
7.15239e-09
-2.7976e-08
1.19367e-08
-4.52903e-09
-3.6256e-08
5.34914e-08
-2.46431e-08
1.69965e-08
-2.21902e-08
1.20808e-08
-2.08526e-08
1.01508e-08
-1.24524e-08
1.02608e-08
2.01798e-08
-3.17981e-08
-1.98981e-08
1.45015e-08
2.31875e-08
-1.95231e-08
-2.01227e-08
-2.85916e-08
9.20174e-09
5.75788e-08
-1.32891e-08
-1.0461e-08
-2.82934e-08
2.54112e-10
-7.33243e-08
4.10825e-08
3.90785e-08
-2.45668e-08
7.11293e-09
-2.79644e-08
2.68036e-08
-1.10073e-09
-1.06857e-09
-2.64035e-10
-2.12292e-10
-2.4158e-08
-1.21349e-09
-1.06533e-08
-1.09059e-09
-1.11593e-09
-1.06631e-08
-1.19684e-09
1.66376e-10
1.59854e-10
1.25961e-09
-1.30137e-08
1.30071e-09
-1.30323e-08
2.33696e-08
3.37571e-09
-1.93617e-08
8.77786e-09
-1.64255e-08
-6.42657e-10
-2.23402e-08
-2.85874e-09
-1.7582e-08
1.04037e-08
1.13749e-08
2.37946e-08
2.0773e-08
-4.64332e-08
-4.80764e-09
-2.38561e-08
3.59561e-09
9.43218e-09
1.42914e-08
-1.41353e-08
-1.96694e-08
2.34917e-08
3.41198e-09
-1.92713e-08
8.69606e-09
-1.65407e-08
-7.16171e-10
-2.25128e-08
-2.86856e-09
-1.78456e-08
1.04123e-08
1.12748e-08
2.36882e-08
2.06664e-08
-4.63052e-08
-4.72538e-09
-2.42258e-08
3.51187e-09
9.45747e-09
1.4192e-08
-1.43949e-08
-1.9817e-08
-1.49015e-08
-1.50387e-08
2.00493e-08
1.99367e-08
1.11022e-07
-2.00737e-08
-8.69371e-11
1.10543e-10
1.99608e-08
1.36305e-07
3.60635e-11
-9.25053e-11
1.36069e-07
2.80164e-11
-1.182e-10
1.57094e-07
1.98522e-08
1.99731e-08
1.11222e-07
-2.00458e-08
-1.98746e-08
-7.144e-11
1.99794e-08
1.36431e-07
-2.88662e-11
-6.04019e-11
1.99857e-08
1.36099e-07
-1.1212e-10
1.57143e-07
2.00509e-08
2.0075e-08
1.10722e-07
6.04885e-12
1.35988e-07
1.64722e-10
9.96705e-11
1.35533e-07
2.71621e-11
1.56807e-07
2.0049e-08
1.99002e-08
1.10828e-07
-4.46286e-11
1.99748e-08
1.3599e-07
1.62236e-10
1.35594e-07
1.56833e-07
-5.18735e-09
8.703e-09
-8.31435e-09
-5.27628e-09
-8.39372e-09
-1.61371e-08
4.902e-09
1.77007e-08
8.52611e-09
-1.37618e-08
-4.87076e-09
-1.75508e-08
-1.51209e-08
-7.20416e-09
-8.28902e-09
-3.74152e-09
-1.81628e-11
-3.67721e-09
-2.79907e-08
8.09937e-12
-1.40262e-08
-1.31775e-08
-5.76438e-09
-1.48632e-08
-5.73663e-12
-3.92907e-09
-1.50311e-08
8.26605e-09
-2.08133e-09
-7.33724e-09
-1.7818e-10
-1.85376e-08
-1.20866e-08
1.40028e-08
2.05596e-08
3.35024e-09
4.73954e-09
-1.43825e-08
-9.46384e-09
-9.02314e-09
-1.59041e-08
4.72779e-09
8.53716e-09
1.76852e-08
-1.37665e-08
-4.70311e-09
-8.32194e-09
-3.67106e-09
-1.75459e-08
-1.49491e-08
-7.20532e-09
-2.79899e-08
-3.66038e-09
-1.39661e-08
-1.31967e-08
-3.86133e-09
-5.74536e-09
-1.46964e-08
7.99571e-09
-2.12272e-09
-1.50289e-08
-7.0773e-09
-1.52245e-10
-1.82704e-08
1.40027e-08
-1.17861e-08
3.3307e-09
2.06096e-08
-1.4118e-08
-1.56507e-08
-8.74174e-09
7.97665e-09
-2.11383e-09
-1.50177e-08
1.37562e-08
-7.05761e-09
-1.52872e-10
-1.82393e-08
7.18437e-09
1.39917e-08
-1.17494e-08
3.30279e-09
2.06147e-08
-1.40733e-08
1.31823e-08
5.72731e-09
-1.56215e-08
-8.7069e-09
7.08291e-09
1.60571e-08
7.08237e-09
-1.27186e-08
-1.03803e-08
-1.03487e-08
-1.33146e-09
-8.23773e-09
-5.22347e-09
-5.22493e-09
-8.36166e-09
-6.87499e-09
-7.00072e-09
5.03357e-09
8.53135e-09
1.76621e-08
-1.37573e-08
-5.01066e-09
-8.30711e-09
-3.90131e-09
5.36546e-12
-1.75232e-08
-1.51985e-08
-7.18819e-09
-2.79556e-08
-3.651e-09
-1.75977e-11
-1.41332e-08
-1.31829e-08
4.01301e-12
-4.09396e-09
-5.73111e-09
-1.49482e-08
8.36957e-09
-1.50135e-08
-2.10571e-09
-7.45307e-09
-1.65452e-10
-1.86064e-08
1.39894e-08
-1.21654e-08
2.05734e-08
3.30387e-09
-1.44573e-08
-9.11443e-09
-1.5987e-08
5.00637e-09
8.52613e-09
1.76863e-08
-1.376e-08
-4.98223e-09
-8.29905e-09
-3.88936e-09
-1.75453e-08
-1.51771e-08
-7.22654e-09
-2.79658e-08
-3.6877e-09
-1.41234e-08
-1.31823e-08
-4.08164e-09
-5.77735e-09
-1.49242e-08
8.33221e-09
-2.07317e-09
-1.50253e-08
-7.41336e-09
-1.94824e-10
-1.85813e-08
1.39962e-08
-1.21259e-08
3.36561e-09
2.05401e-08
-1.44209e-08
-1.59532e-08
-9.07039e-09
1.60175e-08
7.03631e-09
7.09861e-09
-1.26785e-08
-1.03764e-08
-1.03169e-08
-1.29428e-09
-5.18563e-09
-8.17984e-09
-5.23807e-09
-8.34291e-09
-6.81896e-09
-6.9766e-09
-1.99543e-08
-1.99723e-08
2.00398e-08
1.9889e-08
1.10913e-07
-1.10915e-07
-9.44968e-09
1.98451e-08
4.36287e-08
3.64181e-08
-8.69466e-09
-1.0063e-08
-9.58519e-09
-2.38884e-09
-9.90927e-09
-1.18966e-08
-1.49565e-09
-3.64091e-08
-1.99687e-08
-1.99854e-08
-1.10924e-07
2.0043e-08
1.99017e-08
1.10933e-07
-3.64044e-08
-9.45464e-09
1.9875e-08
4.367e-08
3.63993e-08
-8.69955e-09
-1.00682e-08
-9.59049e-09
-2.39787e-09
-9.91865e-09
-1.50359e-09
-1.19069e-08
-9.4741e-09
1.99495e-08
4.37263e-08
3.63359e-08
-8.71491e-09
-1.00871e-08
-9.60543e-09
-2.4199e-09
-9.93666e-09
-1.19218e-08
-1.52727e-09
-3.63245e-08
9.40866e-09
9.45448e-09
-9.18363e-09
-9.12705e-09
-1.86726e-09
1.31481e-09
-3.63336e-08
-9.42577e-09
1.97202e-08
4.3573e-08
-8.66979e-09
-1.00456e-08
-9.56781e-09
-2.36605e-09
-9.87847e-09
-1.46767e-09
-1.18722e-08
9.43505e-09
9.46298e-09
-9.20013e-09
-9.14304e-09
-1.93568e-09
1.38082e-09
1.00495e-08
1.00792e-08
-1.38358e-09
1.93802e-09
-1.03706e-08
-1.03125e-08
4.37475e-08
3.75217e-08
-8.69519e-09
-1.00465e-08
-9.58535e-09
-2.43983e-09
-9.98041e-09
-1.19715e-08
-1.54597e-09
-3.75237e-08
-9.41641e-09
1.99768e-08
4.35604e-08
3.77542e-08
-8.68177e-09
-1.0028e-08
-9.57314e-09
-2.41914e-09
-9.94983e-09
-1.19449e-08
-1.52451e-09
-3.77537e-08
3.75216e-08
1.99633e-08
-3.75189e-08
4.37521e-08
-9.4376e-09
-9.58823e-09
-8.69762e-09
-1.54723e-09
-1.1974e-08
-9.98236e-09
-2.44168e-09
-1.00316e-08
3.77461e-08
1.99854e-08
-3.77474e-08
4.35664e-08
-9.4191e-09
-9.57579e-09
-8.6836e-09
-1.52465e-09
-1.19457e-08
-9.9504e-09
-2.4197e-09
-9.17528e-09
-9.1368e-09
-1.91017e-09
1.35616e-09
1.00681e-08
-1.35854e-09
1.91227e-09
-1.03455e-08
-1.03079e-08
4.36014e-08
3.63358e-08
-8.70987e-09
-1.00764e-08
-9.60127e-09
-2.40275e-09
-9.91026e-09
-1.19005e-08
-1.50733e-09
-3.63381e-08
2.00922e-08
4.3682e-08
3.76933e-08
-2.45642e-09
-9.97876e-09
-1.55992e-09
-1.19741e-08
-3.76955e-08
-9.4452e-09
-8.70479e-09
-1.00567e-08
-9.59615e-09
3.63342e-08
1.99817e-08
-3.63328e-08
4.36073e-08
-9.46522e-09
-9.60397e-09
-8.71186e-09
-1.5091e-09
-1.19033e-08
-9.91266e-09
-2.40513e-09
3.76971e-08
2.00897e-08
-3.76906e-08
4.36853e-08
-1.56118e-09
-1.19774e-08
-2.45877e-09
-9.98073e-09
-1.00564e-08
-9.44382e-09
-9.59789e-09
-8.7053e-09
1.99891e-08
4.37362e-08
3.76869e-08
-2.45286e-09
-9.99105e-09
-1.19859e-08
-1.5563e-09
-9.43495e-09
-3.76541e-08
-8.70102e-09
-1.00456e-08
-9.59037e-09
1.9858e-08
-3.64115e-08
4.36768e-08
-9.455e-09
-9.5903e-09
-8.70002e-09
-1.5004e-09
-1.19037e-08
-2.39504e-09
-9.91508e-09
3.76528e-08
1.99647e-08
-3.76742e-08
4.35933e-08
-1.53675e-09
-1.19528e-08
-2.43311e-09
-9.95644e-09
-1.00215e-08
-9.41049e-09
-9.55777e-09
-8.66775e-09
9.43867e-09
9.46675e-09
-9.20374e-09
-9.14686e-09
-1.9384e-09
1.00369e-08
1.00648e-08
1.95145e-09
-1.03561e-08
-1.02991e-08
4.3753e-08
3.75265e-08
-8.69881e-09
-1.00504e-08
-9.58953e-09
-2.44265e-09
-9.98331e-09
-1.54803e-09
-1.19752e-08
-9.42262e-09
1.99889e-08
4.35785e-08
3.77494e-08
-8.68687e-09
-1.00359e-08
-9.58024e-09
-2.42111e-09
-9.95113e-09
-1.52547e-09
-1.19473e-08
1.98872e-08
-3.75011e-08
4.37227e-08
-9.41847e-09
-9.57488e-09
-8.67716e-09
-1.52732e-09
-1.19576e-08
-9.95765e-09
-2.42828e-09
-1.00175e-08
3.77293e-08
1.98905e-08
-3.77501e-08
4.35509e-08
-9.41362e-09
-9.56406e-09
-8.68052e-09
-1.50303e-09
-1.1919e-08
-9.92666e-09
-2.39612e-09
-9.17823e-09
-9.14374e-09
-1.91384e-09
1.00414e-08
-1.36715e-09
1.91893e-09
-1.03191e-08
-1.02915e-08
4.3613e-08
3.63364e-08
-8.71357e-09
-1.00805e-08
-9.60568e-09
-2.40601e-09
-9.91367e-09
-1.51007e-09
-1.19044e-08
-9.44142e-09
2.00981e-08
4.36752e-08
3.7695e-08
-8.70375e-09
-1.00515e-08
-9.59388e-09
-2.45898e-09
-9.98202e-09
-1.56257e-09
-1.19772e-08
1.99185e-08
-3.62867e-08
4.35615e-08
-9.44368e-09
-9.58869e-09
-8.68902e-09
-1.48878e-09
-1.18874e-08
-9.88825e-09
-2.39181e-09
-1.00628e-08
2.00198e-08
-3.76166e-08
4.36956e-08
-9.4491e-09
-9.59942e-09
-8.70887e-09
-1.53379e-09
-1.19504e-08
-9.95438e-09
-2.43331e-09
1.99625e-08
4.36069e-08
3.76431e-08
-8.66737e-09
-1.00188e-08
-9.55777e-09
-2.43804e-09
-9.96518e-09
-1.19623e-08
-1.54165e-09
1.98054e-08
-3.63644e-08
4.35899e-08
-9.43322e-09
-9.56523e-09
-8.67993e-09
-1.48724e-09
-1.18817e-08
-2.37342e-09
-9.90238e-09
-1.00384e-08
1.98523e-08
-3.75924e-08
4.36903e-08
-9.42347e-09
-9.57303e-09
-8.68169e-09
-1.51942e-09
-1.19345e-08
-9.9502e-09
-2.40705e-09
-9.20025e-09
-9.16151e-09
-1.8831e-09
1.32935e-09
1.89977e-09
-1.03586e-08
1.99002e-08
4.35973e-08
3.64455e-08
-8.70272e-09
-1.00704e-08
-9.59715e-09
-2.39131e-09
-9.90038e-09
-1.18882e-08
-1.4983e-09
-3.64401e-08
1.85545e-09
-1.0344e-08
-9.39059e-09
1.98921e-08
-8.65634e-09
-1.00064e-08
-9.55195e-09
-9.92711e-09
-1.19265e-08
-9.14877e-09
-9.11007e-09
-1.92468e-09
-4.14085e-11
-3.18674e-08
-1.97808e-08
2.02233e-08
1.03711e-08
2.10951e-08
1.59294e-08
1.65523e-11
-1.75032e-08
-2.27639e-08
2.43212e-08
4.12592e-08
3.9118e-08
-2.43226e-08
-7.35586e-08
1.75039e-08
-3.93669e-11
-3.124e-08
-2.10945e-08
2.63374e-08
6.25699e-09
1.97794e-08
-1.59117e-08
1.0718e-08
-9.73682e-09
1.49306e-08
-4.11348e-08
4.63284e-08
-1.49313e-08
9.73764e-09
-3.18313e-08
4.33664e-11
-1.98478e-08
1.0268e-08
2.02042e-08
2.11635e-08
1.58895e-08
-1.02594e-10
-1.78208e-08
-2.26232e-08
2.46572e-08
4.10999e-08
3.90763e-08
-2.46574e-08
-7.33398e-08
1.78209e-08
-3.12039e-08
3.79664e-11
-2.11666e-08
6.1658e-09
2.63133e-08
1.98534e-08
1.98676e-08
1.99494e-08
1.1114e-07
-1.11135e-07
2.00021e-08
2.00773e-08
1.10844e-07
-1.9985e-08
-1.10846e-07
2.00119e-08
1.98916e-08
1.10921e-07
-1.99498e-08
-1.10885e-07
-1.10915e-07
2.00418e-08
1.98948e-08
1.11133e-07
-1.11134e-07
1.98758e-08
1.99678e-08
1.10872e-07
-1.10854e-07
1.99967e-08
2.00425e-08
-1.99679e-08
1.10895e-07
-1.10919e-07
1.99552e-08
1.99428e-08
-1.99092e-08
3.18512e-08
1.52437e-11
-1.40787e-08
-3.67558e-09
-2.80248e-08
1.39126e-08
-4.2248e-09
8.60582e-11
1.04575e-08
-2.49813e-08
4.13896e-09
1.45236e-08
6.42752e-08
-6.38474e-11
-1.99981e-08
1.25256e-08
1.9151e-08
1.92995e-08
1.26939e-08
-6.42546e-08
4.36464e-08
-1.00651e-08
3.64188e-08
1.98434e-08
-1.49539e-09
-1.18973e-08
-9.9091e-09
-2.38906e-09
-9.4511e-09
-9.58744e-09
-8.69605e-09
4.78739e-09
-3.90933e-08
-1.452e-08
3.31839e-09
2.49795e-08
2.0528e-08
-3.2922e-11
6.42818e-08
-2.00012e-08
1.26949e-08
1.93011e-08
1.91519e-08
1.25261e-08
3.12252e-08
1.11112e-11
-1.39125e-08
-4.14984e-09
-2.72543e-08
1.40803e-08
-4.29785e-11
-3.18654e-08
-1.97817e-08
2.10999e-08
2.02181e-08
1.03721e-08
2.43247e-08
1.59302e-08
1.64692e-11
-2.27649e-08
-1.75065e-08
1.97825e-08
-3.97334e-11
-3.12413e-08
-2.10985e-08
2.63397e-08
6.2574e-09
4.12567e-08
3.9121e-08
-2.433e-08
-7.35573e-08
1.75096e-08
1.49323e-08
-1.59114e-08
1.07168e-08
-9.73769e-09
-4.11337e-08
4.63313e-08
-1.4938e-08
9.74042e-09
-3.18299e-08
4.4473e-11
-1.98374e-08
2.11563e-08
1.0267e-08
2.01995e-08
2.46587e-08
1.58916e-08
-1.0165e-10
-2.2626e-08
-1.78226e-08
1.98447e-08
-3.12035e-08
3.72558e-11
-2.11584e-08
6.16673e-09
2.63132e-08
4.10981e-08
3.90787e-08
-2.46649e-08
-7.3338e-08
1.78261e-08
1.98874e-08
1.9969e-08
1.11141e-07
1.99826e-08
2.00589e-08
1.10878e-07
1.99571e-08
1.99202e-08
1.10881e-07
-1.1088e-07
2.00208e-08
1.98462e-08
1.11102e-07
-1.11136e-07
1.98389e-08
1.98908e-08
-1.10772e-07
2.00182e-08
2.00694e-08
-1.10865e-07
2.00293e-08
1.98072e-08
3.18473e-08
2.3906e-11
-1.41001e-08
1.39298e-08
-3.68099e-09
-2.802e-08
1.45238e-08
-4.22436e-09
8.01935e-11
1.04659e-08
4.14074e-09
-2.49862e-08
6.42445e-08
-6.42542e-08
1.51654e-11
-1.99869e-08
1.25195e-08
1.91477e-08
1.26885e-08
1.92957e-08
4.36646e-08
-1.00668e-08
3.63869e-08
1.98917e-08
-1.5052e-09
-1.19088e-08
-9.9207e-09
-2.39922e-09
-9.45427e-09
-9.5894e-09
-8.69945e-09
1.40836e-08
3.12207e-08
2.58141e-11
-1.39209e-08
-4.15921e-09
-2.725e-08
4.78591e-09
-3.90997e-08
-1.45384e-08
3.32018e-09
2.49951e-08
2.0537e-08
1.24091e-11
6.42245e-08
-1.99752e-08
1.26871e-08
1.92956e-08
1.91462e-08
1.25185e-08
-1.5927e-08
1.07277e-08
-9.75009e-09
1.49495e-08
-4.11433e-08
4.63454e-08
-1.49537e-08
9.75153e-09
-1.67993e-11
3.18222e-08
-1.41081e-08
-2.79951e-08
-3.65147e-09
1.39492e-08
6.38232e-08
8.16222e-11
-1.98857e-08
1.24851e-08
1.91107e-08
1.92609e-08
1.26518e-08
-6.38012e-08
-4.22088e-09
5.83648e-11
1.04831e-08
-2.49304e-08
4.12724e-09
1.44826e-08
4.3738e-08
-1.0081e-08
3.63054e-08
1.9903e-08
-1.51535e-09
-1.19051e-08
-9.92279e-09
-2.40561e-09
-9.47032e-09
-9.5992e-09
-8.71118e-09
1.14133e-10
6.38127e-08
-1.99223e-08
1.26635e-08
1.92734e-08
1.91217e-08
1.24981e-08
4.79982e-09
-3.90874e-08
-1.44677e-08
3.30317e-09
2.49222e-08
2.05298e-08
-2.05596e-11
3.11808e-08
-1.39662e-08
-2.72089e-08
-4.12442e-09
1.41392e-08
4.20495e-09
-1.07155e-08
1.54422e-08
-3.06193e-08
-2.25526e-09
2.39429e-08
4.26508e-09
-1.06624e-08
1.53631e-08
-3.09355e-08
-2.25991e-09
2.42296e-08
1.00097e-08
1.00666e-08
-1.30883e-09
1.8625e-09
-1.03556e-08
-1.02743e-08
-4.83133e-09
-4.64348e-08
-2.38972e-08
2.07903e-08
3.05996e-08
2.37735e-08
-4.73275e-09
-4.62979e-08
-2.42338e-08
2.06716e-08
3.09378e-08
2.3655e-08
1.49232e-08
-1.59087e-08
1.07113e-08
-9.72582e-09
1.98714e-08
1.45349e-08
-4.20607e-09
1.06333e-10
1.04285e-08
4.1269e-09
-2.49905e-08
-6.41468e-08
-9.54518e-11
-2.01268e-08
1.25528e-08
1.9189e-08
1.27287e-08
1.93298e-08
1.41064e-08
3.12638e-08
1.02419e-11
-1.39415e-08
-4.14576e-09
-2.72932e-08
1.07399e-08
-9.71299e-09
1.49025e-08
4.64496e-08
-1.49034e-08
9.71305e-09
1.06688e-08
-9.86413e-09
1.50848e-08
4.63212e-08
-1.50857e-08
9.86443e-09
4.21246e-09
1.54695e-08
-3.06278e-08
-2.25177e-09
2.39376e-08
4.24333e-09
1.53632e-08
-3.10852e-08
-2.24356e-09
2.4391e-08
-1.38278e-09
1.00476e-08
1.0077e-08
1.93699e-09
-1.03684e-08
-1.03104e-08
-2.39384e-08
-4.82462e-09
2.07965e-08
3.06287e-08
2.37874e-08
-2.43916e-08
-4.73891e-09
2.06835e-08
3.10857e-08
2.36825e-08
4.64496e-08
-4.12592e-08
-1.49044e-08
9.71393e-09
1.07387e-08
-1.59293e-08
-9.71276e-09
4.63228e-08
-4.11006e-08
-1.50869e-08
9.86466e-09
1.0669e-08
-1.58907e-08
-9.86402e-09
9.43696e-09
9.46429e-09
-1.93778e-09
-9.20135e-09
-9.14492e-09
-4.82441e-09
-2.39415e-08
2.37888e-08
3.06312e-08
2.07955e-08
-4.73975e-09
-2.43953e-08
2.36844e-08
3.1088e-08
2.06856e-08
4.21371e-09
-2.25284e-09
1.54695e-08
-3.06301e-08
4.24298e-09
-2.24351e-09
1.53642e-08
-3.10862e-08
-3.18788e-08
-1.97824e-08
2.02324e-08
1.02893e-08
2.10981e-08
-3.89133e-11
-1.75398e-08
-2.26771e-08
2.43441e-08
3.90841e-08
-2.43452e-08
-7.34142e-08
1.75406e-08
-3.12526e-08
-2.10975e-08
2.63494e-08
6.18022e-09
1.97811e-08
-1.45161e-11
-1.39001e-08
-3.64553e-09
-2.8041e-08
1.37338e-08
1.05341e-08
-2.45407e-08
4.10362e-09
1.4132e-08
6.52751e-08
1.19442e-10
-2.00616e-08
1.25212e-08
1.91656e-08
1.93152e-08
1.26881e-08
-6.52755e-08
4.37498e-08
3.75179e-08
1.99541e-08
-9.43541e-09
-9.5865e-09
-8.69539e-09
-1.54523e-09
-1.19712e-08
-9.97969e-09
-2.43923e-09
-1.41332e-08
3.28774e-09
2.45417e-08
2.05973e-08
1.20748e-10
6.52728e-08
-2.00636e-08
1.26893e-08
1.93167e-08
1.91666e-08
1.25222e-08
-1.39259e-11
-1.37333e-08
-4.12144e-09
-2.72703e-08
1.38991e-08
-1.38967e-08
-3.67706e-09
-2.80508e-08
1.37311e-08
-4.25816e-09
1.04937e-08
-2.4559e-08
4.14465e-09
1.41399e-08
6.54168e-08
-2.00565e-08
1.2537e-08
1.91721e-08
1.9322e-08
1.27044e-08
-6.5416e-08
4.35589e-08
3.77503e-08
-1.00284e-08
1.99792e-08
-1.52359e-09
-1.19441e-08
-2.41817e-09
-9.94895e-09
-9.41605e-09
-9.57356e-09
-8.68139e-09
-1.41412e-08
4.75261e-09
3.34543e-09
2.45596e-08
2.05676e-08
6.54137e-08
-2.00583e-08
1.27058e-08
1.93233e-08
1.91736e-08
1.25384e-08
-1.37306e-08
-4.15124e-09
-2.72802e-08
1.38957e-08
-3.92816e-11
-3.1242e-08
2.63389e-08
6.257e-09
-2.10954e-08
3.91207e-08
1.75052e-08
-7.35604e-08
1.43599e-11
-2.27628e-08
-1.75035e-08
-4.18791e-11
-3.18666e-08
2.10965e-08
2.02227e-08
1.03718e-08
-3.12548e-08
2.63511e-08
6.18044e-09
-2.10984e-08
3.90863e-08
4.11346e-08
-2.43474e-08
1.75414e-08
-7.3415e-08
-4.0715e-11
1.5912e-08
-2.26768e-08
-1.75397e-08
-3.18781e-08
-1.97841e-08
2.10996e-08
2.02319e-08
1.02889e-08
-1.36463e-11
-4.12171e-09
-2.72722e-08
-1.37346e-08
4.3752e-08
1.99583e-08
-1.00489e-08
-8.69719e-09
-9.58793e-09
-2.44069e-09
-9.98068e-09
-1.19731e-08
-1.54576e-09
-1.4135e-08
2.06e-08
2.45433e-08
3.28797e-09
-6.52732e-08
1.1714e-10
6.52771e-08
-2.00588e-08
1.26881e-08
1.93153e-08
1.91659e-08
1.25204e-08
4.10433e-09
1.05333e-08
-2.45428e-08
1.2033e-10
-2.00621e-08
1.25214e-08
1.9167e-08
1.26891e-08
1.93158e-08
-1.50557e-11
-1.39016e-08
1.37353e-08
-3.64535e-09
-2.80399e-08
-4.15089e-09
-2.72823e-08
-1.37319e-08
4.35612e-08
-9.41751e-09
1.99869e-08
-2.41973e-09
-9.94999e-09
-1.5242e-09
-1.19462e-08
-1.00299e-08
-8.68281e-09
-9.57482e-09
4.7526e-09
-1.41432e-08
2.05695e-08
2.45614e-08
3.34602e-09
-6.5412e-08
6.54136e-08
-2.00557e-08
1.27053e-08
1.93221e-08
1.91732e-08
1.25371e-08
-4.2586e-09
4.14458e-09
1.04927e-08
-2.45606e-08
-2.00567e-08
1.25376e-08
1.91736e-08
1.27058e-08
1.93228e-08
-1.38983e-08
1.37327e-08
-3.67786e-09
-2.80497e-08
1.54176e-08
-3.06718e-08
-2.27429e-09
2.39883e-08
-1.06541e-08
1.53866e-08
-3.1072e-08
-2.24986e-09
2.43646e-08
-1.35596e-09
1.91017e-09
-1.03438e-08
-1.03039e-08
-2.39895e-08
2.06724e-08
3.06725e-08
2.37258e-08
-4.64127e-08
-2.43594e-08
2.07714e-08
3.10689e-08
2.37192e-08
-1.58749e-08
-9.85589e-09
1.50767e-08
-1.50743e-08
-4.11934e-08
9.85502e-09
4.63291e-08
9.73782e-09
1.07173e-08
-9.73654e-09
9.45501e-09
-1.91109e-09
-9.17851e-09
-9.13889e-09
-2.39919e-08
2.37267e-08
3.06744e-08
2.06725e-08
-4.64137e-08
-4.78606e-09
-2.43645e-08
2.37232e-08
3.10698e-08
2.07713e-08
-2.27546e-09
1.54178e-08
-3.06732e-08
-1.06591e-08
4.22295e-09
-2.24621e-09
1.53903e-08
-3.10673e-08
-4.11918e-08
-1.50755e-08
9.85356e-09
-1.58805e-08
-9.85296e-09
1.94661e-11
-1.40319e-08
-3.6862e-09
-2.79999e-08
1.38672e-08
1.04475e-08
-2.49916e-08
4.15631e-09
1.45285e-08
6.43255e-08
-5.5036e-11
-1.99221e-08
1.25044e-08
1.91268e-08
1.92751e-08
1.26732e-08
-6.43265e-08
4.36021e-08
3.63325e-08
1.99742e-08
-9.46299e-09
-9.60216e-09
-8.70983e-09
-1.50721e-09
-1.19008e-08
-9.91028e-09
-2.4027e-09
-1.45282e-08
3.35127e-09
2.49914e-08
2.0523e-08
-5.58757e-11
6.43244e-08
-1.9923e-08
1.2674e-08
1.92761e-08
1.91273e-08
1.25046e-08
1.97113e-11
-1.38697e-08
-4.16099e-09
-2.72296e-08
1.40368e-08
-3.18321e-08
-1.97745e-08
2.02103e-08
2.10896e-08
1.03502e-08
-5.43957e-12
-2.2721e-08
-1.7511e-08
1.59287e-08
2.43088e-08
-3.12052e-08
-2.10929e-08
2.63177e-08
6.23808e-09
1.97803e-08
3.9098e-08
-2.43078e-08
-7.34507e-08
1.751e-08
4.11504e-08
-1.39361e-08
-2.79983e-08
1.3772e-08
-3.65026e-09
6.50275e-08
-1.99063e-08
1.2486e-08
1.9122e-08
1.92712e-08
1.26542e-08
-6.50277e-08
1.05207e-08
4.12469e-09
-2.45084e-08
1.40991e-08
-4.24155e-09
4.36815e-08
3.76891e-08
2.00831e-08
-1.55887e-09
-1.19731e-08
-2.45544e-09
-9.97744e-09
-1.00548e-08
-9.44305e-09
-9.59463e-09
-8.703e-09
6.50262e-08
-1.99107e-08
1.26553e-08
1.92721e-08
1.91232e-08
1.2487e-08
-1.37747e-08
-2.72284e-08
-4.12366e-09
1.39412e-08
-1.40977e-08
3.32521e-09
2.45074e-08
2.05917e-08
4.77145e-09
-3.12061e-08
3.72962e-11
6.16713e-09
2.63147e-08
-2.11608e-08
3.90788e-08
1.78206e-08
-7.33414e-08
-1.03196e-10
-2.26253e-08
-1.78195e-08
-3.18294e-08
4.3004e-11
2.11594e-08
1.02683e-08
2.02033e-08
1.91139e-11
-4.16021e-09
-2.72312e-08
-1.38657e-08
4.36042e-08
1.9978e-08
-1.00782e-08
-8.71125e-09
-9.6032e-09
-2.40399e-09
-9.91133e-09
-1.19024e-08
-1.50784e-09
-1.453e-08
2.05255e-08
2.49924e-08
3.35114e-09
-6.43266e-08
-5.53231e-11
6.43323e-08
-1.99166e-08
1.26721e-08
1.92736e-08
1.91256e-08
1.25021e-08
4.15544e-09
1.04477e-08
-2.49916e-08
-5.60975e-11
-1.99217e-08
1.25039e-08
1.91275e-08
1.26735e-08
1.9275e-08
1.90555e-11
-1.40292e-08
1.38645e-08
-3.68619e-09
-2.79975e-08
-3.12078e-08
2.63196e-08
-2.10869e-08
6.2379e-09
3.90999e-08
-2.43094e-08
-7.34493e-08
1.75093e-08
4.11495e-08
-3.18302e-08
-1.97707e-08
2.1085e-08
2.02094e-08
1.03495e-08
-6.74622e-12
-2.272e-08
-1.75082e-08
1.59272e-08
-2.72303e-08
-1.37704e-08
-4.12413e-09
4.36838e-08
2.00797e-08
-2.45654e-09
-9.9778e-09
-1.55907e-09
-1.19748e-08
-9.44236e-09
-1.00555e-08
-8.70275e-09
-9.59624e-09
-6.50295e-08
6.50364e-08
-1.99058e-08
1.26534e-08
1.92695e-08
1.91216e-08
1.24842e-08
-1.40999e-08
2.05951e-08
3.32819e-09
2.45086e-08
4.76788e-09
-1.99115e-08
1.24861e-08
1.91231e-08
1.26551e-08
1.92715e-08
-1.39329e-08
1.37689e-08
-2.79959e-08
-3.65134e-09
4.12493e-09
1.05198e-08
-2.45073e-08
-4.2419e-09
3.46533e-11
-1.99028e-08
1.02917e-08
2.02084e-08
2.12193e-08
-1.78125e-08
-2.2643e-08
2.46667e-08
-2.4665e-08
-7.34337e-08
1.78119e-08
2.9657e-11
-2.12153e-08
6.18175e-09
2.63288e-08
1.99004e-08
3.1851e-08
-1.39889e-08
-2.80221e-08
1.38231e-08
-3.64795e-09
6.49337e-08
-1.99725e-08
1.25017e-08
1.91436e-08
1.92926e-08
1.26702e-08
-6.4897e-08
-9.84891e-12
1.05405e-08
4.12854e-09
-2.45224e-08
-4.24817e-09
1.41113e-08
4.36922e-08
3.76994e-08
1.99929e-08
-1.55438e-09
-1.19729e-08
-2.44527e-09
-9.98688e-09
-1.00374e-08
-9.42668e-09
-9.58176e-09
-8.69244e-09
6.49485e-08
-1.99739e-08
1.26719e-08
1.92951e-08
1.91452e-08
1.25063e-08
3.12265e-08
-1.3821e-08
-2.72516e-08
-4.13056e-09
1.39878e-08
-3.91178e-08
-1.41089e-08
3.30151e-09
2.45264e-08
2.05972e-08
4.80162e-09
-1.9837e-08
2.02122e-08
2.11529e-08
1.03576e-08
-2.27318e-08
-1.75066e-08
2.43157e-08
1.59129e-08
-2.1143e-08
2.63329e-08
6.23824e-09
1.9828e-08
-2.43393e-08
-7.35461e-08
1.75316e-08
4.12359e-08
3.12271e-08
1.56418e-11
-4.15221e-09
-2.7256e-08
-1.39133e-08
4.36765e-08
1.98481e-08
-1.00687e-08
-8.70025e-09
-9.59129e-09
-2.39205e-09
-9.9118e-09
-1.49731e-09
-1.19009e-08
-3.90977e-08
2.05345e-08
2.49797e-08
3.3212e-09
-6.42679e-08
2.65151e-11
-1.9999e-08
1.26919e-08
1.92984e-08
1.2522e-08
1.91507e-08
8.34718e-11
4.13772e-09
1.04601e-08
-2.49783e-08
2.10061e-11
-2.00032e-08
1.25248e-08
1.9153e-08
1.26944e-08
1.93004e-08
3.18469e-08
2.47792e-11
1.39146e-08
-3.68229e-09
-2.80204e-08
1.90008e-11
6.19065e-09
2.63321e-08
-2.12174e-08
-2.46643e-08
1.78069e-08
-7.34322e-08
-2.26545e-08
-1.78074e-08
3.98287e-11
-1.9904e-08
2.1216e-08
1.02873e-08
2.02078e-08
3.12316e-08
-2.72565e-08
-1.38249e-08
-4.12337e-09
4.36095e-08
1.99826e-08
-2.43317e-09
-9.96368e-09
-1.53938e-09
-1.19532e-08
-9.41455e-09
-1.00257e-08
-8.67446e-09
-9.56279e-09
-6.49244e-08
6.48976e-08
-1.99921e-08
1.26809e-08
1.92971e-08
1.91494e-08
1.25114e-08
-3.91009e-08
-1.41125e-08
2.05778e-08
3.28222e-09
2.45228e-08
4.83055e-09
-1.99851e-08
1.25122e-08
1.91494e-08
1.26802e-08
1.92979e-08
3.18478e-08
-1.39926e-08
1.38249e-08
-2.80204e-08
-3.63487e-09
2.82137e-11
4.12278e-09
1.05088e-08
-2.45272e-08
-4.24147e-09
2.63419e-08
-2.11526e-08
6.22427e-09
-2.43153e-08
-7.35179e-08
1.75013e-08
4.1231e-08
-1.98342e-08
2.11468e-08
2.02128e-08
1.03622e-08
-2.26602e-08
-1.75284e-08
1.58775e-08
1.07401e-08
-9.7142e-09
4.64521e-08
-1.4912e-08
9.71671e-09
1.06705e-08
-9.86582e-09
4.63248e-08
-1.50953e-08
9.86856e-09
4.21389e-09
1.54713e-08
-2.25244e-09
-3.06342e-08
4.24323e-09
1.53659e-08
-2.24214e-09
-3.10918e-08
-1.38347e-09
1.00467e-08
1.00766e-08
1.93786e-09
-1.03678e-08
-1.03098e-08
-2.3946e-08
-4.82139e-09
2.07914e-08
3.06394e-08
2.37887e-08
-2.4401e-08
-4.73648e-09
2.06807e-08
3.10977e-08
2.36839e-08
4.6414e-08
-4.12542e-08
9.69612e-09
1.07319e-08
-1.59291e-08
-9.7148e-09
4.6287e-08
-4.10962e-08
9.8469e-09
1.06623e-08
-1.5891e-08
-9.86662e-09
9.42703e-09
9.45429e-09
-1.93927e-09
-9.19083e-09
-9.1347e-09
-4.83566e-09
2.3769e-08
3.06006e-08
2.08022e-08
-4.75131e-09
2.36643e-08
3.10595e-08
2.06916e-08
4.21176e-09
-2.25287e-09
1.5461e-08
-3.0634e-08
4.24031e-09
-2.24187e-09
1.53556e-08
-3.10927e-08
-3.1876e-08
-1.97839e-08
2.11031e-08
2.02263e-08
1.02875e-08
-3.91254e-11
-2.26771e-08
-1.75425e-08
-3.12539e-08
-2.11014e-08
2.63516e-08
6.17991e-09
3.90872e-08
-2.43529e-08
-7.34135e-08
1.75456e-08
-1.73572e-11
-1.38983e-08
1.37352e-08
-3.64412e-09
-2.80408e-08
1.05358e-08
4.10484e-09
-2.45453e-08
6.5286e-08
1.12389e-10
-2.00532e-08
1.25193e-08
1.9165e-08
1.2687e-08
1.93137e-08
4.37463e-08
3.75284e-08
1.99587e-08
-9.43732e-09
-9.58655e-09
-8.69801e-09
-1.54653e-09
-1.19712e-08
-9.98174e-09
-2.43884e-09
-1.43974e-11
-1.37363e-08
-4.1216e-09
-2.72707e-08
-1.41351e-08
3.28954e-09
2.45465e-08
2.05986e-08
1.03389e-10
6.52931e-08
-2.00578e-08
1.26882e-08
1.9317e-08
1.91656e-08
1.25227e-08
-1.38954e-08
1.37328e-08
-3.68111e-09