/*--------------------------------*- C++ -*----------------------------------*\
| =========                 |                                                 |
| \\      /  F ield         | OpenFOAM: The Open Source CFD Toolbox           |
|  \\    /   O peration     | Version:  2206                                  |
|   \\  /    A nd           | Website:  www.openfoam.com                      |
|    \\/     M anipulation  |                                                 |
\*---------------------------------------------------------------------------*/
FoamFile
{
    version     2.0;
    format      ascii;
    arch        "LSB;label=32;scalar=64";
    class       volScalarField;
    location    "31";
    object      nut;
}
// * * * * * * * * * * * * * * * * * * * * * * * * * * * * * * * * * * * * * //

dimensions      [0 2 -1 0 0 0 0];

internalField   nonuniform List<scalar> 
28448
(
0.000216586
0.000187045
0.000187034
0.000159447
0.000216586
0.000187045
0.000187033
0.000159446
0.000216585
0.000187042
0.000187032
0.000159445
0.000216586
0.000187041
0.00018703
0.000159444
0.000216585
0.000187043
0.000187028
0.000159443
0.000216585
0.000187038
0.000187027
0.000159439
0.000216579
0.000187028
0.000187013
0.000159413
0.000216552
0.000186992
0.000186983
0.000159383
0.00021656
0.000186995
0.000186986
0.000159391
0.00021656
0.000186996
0.000186987
0.000159385
0.000216561
0.000186996
0.000186987
0.000159387
0.000216561
0.000186997
0.000186987
0.000159386
0.000216561
0.000186997
0.000186987
0.000159388
0.000216561
0.000186997
0.000186987
0.000159388
0.000216561
0.000186997
0.000186987
0.000159387
0.000216561
0.000186997
0.000186987
0.000159387
0.000216561
0.000186997
0.000186987
0.000159387
0.000216563
0.000186989
0.000159636
0.000187024
0.000187019
0.000159641
0.000187039
0.00018701
0.000187045
0.000187022
0.000159626
0.000187035
0.000187038
0.00015963
0.000159453
0.000159632
0.000187024
0.000187019
0.000187024
0.000187019
0.000159457
0.000159637
0.000187039
0.000187011
0.000187039
0.00018701
0.000187023
0.000187045
0.000187022
0.000159445
0.000159624
0.000187039
0.000187033
0.000187038
0.000159629
0.000159451
0.000159631
0.000187024
0.000187019
0.000187024
0.000187019
0.000159456
0.000159636
0.000187039
0.00018701
0.000187039
0.00018701
0.000187022
0.000187042
0.000187022
0.000159444
0.000159623
0.000187038
0.000187032
0.000187038
0.000159628
0.000159451
0.000159631
0.000187024
0.000187019
0.000187024
0.000187019
0.000159455
0.000159635
0.000187039
0.000187011
0.000187038
0.00018701
0.000187023
0.000187041
0.000187022
0.000159442
0.000159622
0.000187039
0.00018703
0.000187037
0.000159627
0.00015945
0.00015963
0.000187024
0.00018702
0.000187024
0.000187019
0.000159454
0.000159635
0.000187038
0.000187011
0.000187038
0.000187009
0.000187023
0.000187043
0.000187021
0.000159441
0.000159621
0.000187037
0.000187028
0.000187037
0.000159626
0.000159449
0.00015963
0.000187025
0.00018702
0.000187024
0.000187019
0.000159454
0.000159634
0.000187038
0.000187006
0.000187039
0.000187003
0.000187019
0.000187039
0.000187016
0.00015944
0.000159619
0.000187035
0.000187028
0.000187032
0.000159623
0.000159449
0.000159619
0.000187022
0.000187017
0.000187014
0.000187009
0.000159452
0.000159622
0.000187037
0.000187002
0.00018703
0.000186995
0.000187014
0.000187032
0.000187007
0.000159438
0.000159602
0.00018703
0.00018702
0.000187022
0.000159606
0.000159433
0.000159576
0.00018701
0.000187004
0.000186977
0.000186971
0.000159436
0.00015958
0.000187025
0.000186988
0.000186991
0.000186958
0.000186999
0.000186996
0.00018697
0.000159414
0.000159565
0.000187014
0.000186984
0.000186986
0.000159569
0.000159389
0.000159578
0.000186972
0.000186967
0.000186974
0.000186969
0.000159393
0.000159583
0.000186987
0.000186957
0.000186989
0.00018696
0.000186969
0.000186995
0.000186972
0.000159382
0.00015957
0.000186985
0.000186986
0.000186988
0.000159575
0.000159398
0.000159572
0.000186975
0.00018697
0.000186975
0.00018697
0.000159402
0.000159576
0.00018699
0.000186961
0.00018699
0.000186961
0.000186973
0.000186996
0.000186973
0.000159389
0.000159563
0.000186989
0.000186987
0.000186989
0.000159567
0.000159391
0.000159574
0.000186976
0.000186971
0.000186976
0.000186971
0.000159395
0.000159579
0.000186991
0.000186962
0.000186991
0.000186962
0.000186974
0.000186997
0.000186974
0.000159383
0.000159566
0.00018699
0.000186988
0.00018699
0.00015957
0.000159393
0.000159574
0.000186977
0.000186972
0.000186976
0.000186971
0.000159398
0.000159579
0.000186992
0.000186963
0.000186991
0.000186962
0.000186975
0.000186997
0.000186974
0.000159386
0.000159565
0.000186991
0.000186988
0.00018699
0.000159569
0.000159394
0.000159574
0.000186976
0.000186971
0.000186976
0.000186972
0.000159398
0.000159579
0.000186991
0.000186962
0.000186992
0.000186962
0.000186974
0.000186997
0.000186974
0.000159384
0.000159567
0.00018699
0.000186988
0.00018699
0.000159571
0.000159395
0.000159572
0.000186977
0.000186972
0.000186976
0.000186971
0.000159399
0.000159577
0.000186992
0.000186963
0.000186991
0.000186962
0.000186975
0.000186997
0.000186974
0.000159386
0.000159565
0.000186991
0.000186988
0.00018699
0.000159571
0.000159392
0.000159573
0.000186977
0.000186972
0.000186976
0.000186971
0.000159397
0.000159578
0.000186992
0.000186963
0.000186992
0.000186962
0.000186975
0.000186997
0.000186974
0.000159385
0.000159565
0.000186991
0.000186988
0.00018699
0.00015957
0.000159392
0.000159574
0.000186977
0.000186972
0.000186976
0.000186972
0.000159396
0.000159579
0.000186992
0.000186962
0.000186992
0.000186962
0.000186975
0.000186997
0.000186974
0.000159385
0.000159566
0.000186991
0.000186988
0.00018699
0.00015957
0.000159393
0.000159574
0.000186977
0.000186972
0.000186976
0.000186972
0.000159397
0.000159579
0.000186992
0.000186962
0.000186991
0.000186962
0.000186974
0.000186997
0.000186974
0.000159385
0.000159566
0.00018699
0.000186988
0.00018699
0.00015957
0.000159393
0.000159575
0.000186977
0.000186972
0.000186977
0.000159398
0.000186992
0.000186963
0.000186991
0.000186962
0.000186975
0.000186976
0.000159385
0.000159566
0.00018699
0.000186987
0.000186991
0.000159571
0.000159397
0.000186992
0.000186963
0.000159385
0.000216586
0.000216587
0.000216582
0.000216585
4.02741e-05
4.95281e-05
4.02668e-05
4.95272e-05
2.50149e-05
2.50144e-05
4.0281e-05
4.95238e-05
4.0274e-05
4.95229e-05
0.000216587
0.000216582
0.000216585
0.000216586
0.000216587
0.000216582
0.000216584
8.89356e-05
4.89128e-05
0.000204764
0.000187046
8.8911e-05
4.89262e-05
0.000204765
2.50119e-05
2.50114e-05
8.89298e-05
0.00020476
4.8916e-05
0.000187034
8.89044e-05
0.00020476
4.89288e-05
3.60206e-05
3.60158e-05
0.000159629
3.6024e-05
3.60192e-05
4.02781e-05
4.95278e-05
4.02709e-05
4.9527e-05
2.50139e-05
2.50137e-05
4.02851e-05
4.95234e-05
4.02783e-05
4.95225e-05
0.000216586
0.000216582
0.000216586
0.000216585
0.000216585
0.000216581
0.000216586
8.89358e-05
4.89161e-05
0.000204764
0.000187044
8.89113e-05
4.89289e-05
0.000204762
2.50112e-05
2.5011e-05
8.89305e-05
0.000204759
4.89191e-05
0.000187033
8.89051e-05
0.000204759
4.89316e-05
3.6024e-05
3.60194e-05
0.000159628
3.60261e-05
3.60215e-05
4.02813e-05
4.95274e-05
4.02745e-05
4.95266e-05
2.50136e-05
2.50136e-05
4.02881e-05
4.9523e-05
4.02819e-05
4.95221e-05
0.000216585
0.000216579
0.000216585
0.000216585
0.000216586
0.000216579
0.000216585
8.89372e-05
4.89187e-05
0.000204762
0.000187042
8.89122e-05
4.89315e-05
0.000204761
2.50109e-05
2.50108e-05
8.89315e-05
0.000204758
4.89215e-05
0.000187031
8.89058e-05
0.000204757
4.89338e-05
3.60251e-05
3.60206e-05
0.000159628
3.60279e-05
3.60234e-05
4.02833e-05
4.95272e-05
4.02768e-05
4.95265e-05
2.50136e-05
2.50136e-05
4.02898e-05
4.95228e-05
4.02838e-05
4.95221e-05
0.000216588
0.000216579
0.000216585
0.000216585
0.000216589
0.00021658
0.000216584
8.89382e-05
4.8921e-05
0.000204761
0.000187042
8.89132e-05
4.89335e-05
0.000204762
2.50109e-05
2.50109e-05
8.89322e-05
0.000204756
4.89236e-05
0.000187029
8.89066e-05
0.000204755
4.89358e-05
3.60285e-05
3.60241e-05
0.000159627
3.60315e-05
3.60271e-05
4.02855e-05
4.95272e-05
4.02788e-05
4.95266e-05
2.50137e-05
2.50138e-05
4.02921e-05
4.95229e-05
4.02859e-05
4.95222e-05
0.000216588
0.000216578
0.000216584
0.000216585
0.000216586
0.000216578
0.000216582
8.894e-05
4.89226e-05
0.000204762
0.000187041
8.89146e-05
4.89349e-05
0.000204762
2.50112e-05
2.50112e-05
8.89345e-05
0.000204757
4.89252e-05
0.000187029
8.89083e-05
0.000204758
4.89371e-05
3.60315e-05
3.60271e-05
0.000159624
3.60337e-05
3.60293e-05
4.02845e-05
4.95275e-05
4.02799e-05
4.95272e-05
2.50141e-05
2.50142e-05
4.02901e-05
4.95231e-05
4.02866e-05
4.95228e-05
0.000216585
0.000216578
0.000216582
0.000216582
0.000216582
0.000216575
0.000216578
8.89337e-05
4.8923e-05
0.000204762
0.000187036
8.89146e-05
4.89332e-05
0.000204761
2.50115e-05
2.50115e-05
8.89267e-05
0.000204757
4.89251e-05
0.000187025
8.89078e-05
0.000204756
4.89344e-05
3.60316e-05
3.60272e-05
0.000159619
3.60322e-05
3.60278e-05
4.02729e-05
4.95285e-05
4.02715e-05
4.95281e-05
2.50141e-05
2.50138e-05
4.02782e-05
4.95242e-05
4.02772e-05
4.95238e-05
0.000216579
0.00021657
0.000216572
0.000216554
0.000216554
0.000216549
0.000216551
8.89033e-05
4.89149e-05
0.000204751
0.000187018
8.8894e-05
4.89219e-05
0.000204738
2.50113e-05
2.5011e-05
8.88951e-05
0.000204744
4.89159e-05
0.000187
8.88865e-05
0.00020473
4.89225e-05
3.60281e-05
3.60238e-05
0.000159581
3.60281e-05
3.60237e-05
4.0264e-05
4.95287e-05
4.02606e-05
4.95279e-05
2.50137e-05
2.50136e-05
4.02699e-05
4.95244e-05
4.02666e-05
4.95235e-05
0.000216553
0.00021655
0.000216553
0.000216558
0.00021656
0.000216556
0.000216558
8.88864e-05
4.89022e-05
0.000204721
0.000186992
8.88566e-05
4.89115e-05
0.000204723
2.5011e-05
2.50108e-05
8.88821e-05
0.000204718
4.89042e-05
0.000186984
8.88525e-05
0.00020472
4.89139e-05
3.6023e-05
3.60186e-05
0.000159574
3.60234e-05
3.6019e-05
4.02616e-05
4.95284e-05
4.02562e-05
4.95277e-05
2.50136e-05
2.50136e-05
4.02679e-05
4.95241e-05
4.02629e-05
4.95233e-05
0.000216561
0.000216556
0.000216559
0.00021656
0.000216561
0.000216556
0.000216559
8.88894e-05
4.88977e-05
0.000204726
0.000186996
8.88646e-05
4.89091e-05
0.000204726
2.50109e-05
2.50108e-05
8.88847e-05
0.000204723
4.89011e-05
0.000186986
8.88601e-05
0.000204723
4.89124e-05
3.60206e-05
3.60162e-05
0.00015957
3.60222e-05
3.60177e-05
4.02613e-05
4.95284e-05
4.02555e-05
4.95277e-05
2.50136e-05
2.50136e-05
4.02677e-05
4.95241e-05
4.02624e-05
4.95233e-05
0.000216561
0.000216556
0.000216559
0.000216561
0.000216561
0.000216556
0.000216559
8.88888e-05
4.88969e-05
0.000204726
0.000186997
8.88639e-05
4.89088e-05
0.000204727
2.50109e-05
2.50108e-05
8.88838e-05
0.000204723
4.89007e-05
0.000186987
8.88591e-05
0.000204724
4.89122e-05
3.60203e-05
3.60159e-05
0.00015957
3.60221e-05
3.60176e-05
4.02613e-05
4.95284e-05
4.02555e-05
4.95277e-05
2.50136e-05
2.50136e-05
4.02677e-05
4.9524e-05
4.02624e-05
4.95233e-05
0.000216562
0.000216557
0.00021656
0.000216561
0.000216561
0.000216556
0.000216559
8.8889e-05
4.88969e-05
0.000204726
0.000186997
8.88645e-05
4.89088e-05
0.000204727
2.50109e-05
2.50108e-05
8.88828e-05
0.000204723
4.89007e-05
0.000186988
8.88585e-05
0.000204724
4.89122e-05
3.60203e-05
3.60159e-05
0.000159571
3.60221e-05
3.60176e-05
4.02613e-05
4.95284e-05
4.02555e-05
4.95277e-05
2.50136e-05
2.50136e-05
4.02677e-05
4.9524e-05
4.02623e-05
4.95233e-05
0.000216562
0.000216557
0.000216559
0.000216561
0.000216561
0.000216556
0.000216559
8.88889e-05
4.88969e-05
0.000204726
0.000186997
8.88639e-05
4.89088e-05
0.000204727
2.50109e-05
2.50108e-05
8.88815e-05
0.000204723
4.89007e-05
0.000186988
8.88571e-05
0.000204724
4.89122e-05
3.60203e-05
3.60159e-05
0.00015957
3.60221e-05
3.60176e-05
4.02613e-05
4.95284e-05
4.02555e-05
4.95277e-05
2.50136e-05
2.50136e-05
4.02677e-05
4.9524e-05
4.02623e-05
4.95233e-05
0.000216562
0.000216557
0.000216559
0.000216561
0.000216561
0.000216556
0.000216559
8.88885e-05
4.88969e-05
0.000204727
0.000186997
8.8864e-05
4.89088e-05
0.000204727
2.50109e-05
2.50108e-05
8.88808e-05
0.000204723
4.89007e-05
0.000186988
8.88561e-05
0.000204724
4.89122e-05
3.60203e-05
3.60159e-05
0.000159569
3.60221e-05
3.60176e-05
4.02613e-05
4.95284e-05
4.02555e-05
4.95277e-05
2.50136e-05
2.50136e-05
4.02677e-05
4.9524e-05
4.02623e-05
4.95233e-05
0.000216562
0.000216557
0.000216559
0.000216561
0.000216561
0.000216556
0.000216559
8.88892e-05
4.88969e-05
0.000204727
0.000186997
8.88644e-05
4.89088e-05
0.000204727
2.50109e-05
2.50108e-05
8.88805e-05
0.000204723
4.89007e-05
0.000186988
8.88559e-05
0.000204723
4.89122e-05
3.60203e-05
3.60159e-05
0.00015957
3.60221e-05
3.60176e-05
4.02613e-05
4.95284e-05
4.02555e-05
4.95277e-05
2.50136e-05
2.50136e-05
4.02677e-05
4.9524e-05
4.02623e-05
4.95233e-05
0.000216562
0.000216557
0.000216559
0.000216561
0.000216561
0.000216556
0.000216559
8.88885e-05
4.88969e-05
0.000204727
0.000186997
8.88636e-05
4.89088e-05
0.000204727
2.50109e-05
2.50108e-05
8.88802e-05
0.000204723
4.89007e-05
0.000186988
8.88555e-05
0.000204723
4.89122e-05
3.60203e-05
3.60159e-05
0.000159571
3.60221e-05
3.60176e-05
4.02613e-05
4.95284e-05
4.02555e-05
4.95277e-05
2.50136e-05
2.50136e-05
4.02677e-05
4.9524e-05
4.02623e-05
4.95233e-05
0.000216562
0.000216557
0.000216559
0.000216561
0.000216561
0.000216556
0.000216559
8.8889e-05
4.88969e-05
0.000204727
0.000186997
8.88642e-05
4.89088e-05
0.000204727
2.50109e-05
2.50108e-05
8.88798e-05
0.000204723
4.89007e-05
0.000186988
8.88551e-05
0.000204723
4.89122e-05
3.60203e-05
3.60159e-05
0.00015957
3.60221e-05
3.60176e-05
4.02613e-05
4.95284e-05
4.02555e-05
4.95277e-05
2.50136e-05
2.50136e-05
4.02677e-05
4.9524e-05
4.02624e-05
4.95233e-05
0.000216562
0.000216557
0.000216559
0.000216561
0.000216564
0.000216556
0.00021656
8.88889e-05
4.88969e-05
0.000204726
0.000186997
8.8864e-05
4.89088e-05
0.000204727
2.50109e-05
2.50108e-05
8.88795e-05
0.000204723
4.89007e-05
0.000186988
8.88547e-05
0.000204723
4.89122e-05
3.60203e-05
3.60159e-05
0.00015957
3.60221e-05
3.60176e-05
4.9524e-05
4.02624e-05
0.000216558
2.50109e-05
4.89011e-05
2.50161e-05
2.50141e-05
3.6021e-05
3.60153e-05
4.95276e-05
4.02721e-05
4.95276e-05
4.02729e-05
4.89296e-05
0.000204764
8.89393e-05
4.89275e-05
0.000204763
8.89399e-05
2.5015e-05
3.60181e-05
3.60222e-05
2.50155e-05
4.95232e-05
4.02789e-05
4.89214e-05
0.000204763
8.89409e-05
4.02715e-05
4.95199e-05
4.95209e-05
4.02779e-05
8.89125e-05
0.00018701
0.000204757
4.89164e-05
0.000204757
4.89037e-05
8.8937e-05
8.89121e-05
4.89242e-05
0.000204764
0.000204764
8.89362e-05
4.02658e-05
4.95257e-05
4.02726e-05
8.89115e-05
0.000187022
0.000204762
4.89269e-05
0.000204762
4.89146e-05
8.89353e-05
4.02655e-05
4.95237e-05
4.95246e-05
4.02724e-05
2.50119e-05
2.50124e-05
0.000159405
3.60076e-05
3.60215e-05
3.6005e-05
3.60199e-05
2.50146e-05
2.50151e-05
8.89058e-05
0.000187035
0.00020476
4.89271e-05
0.000204761
4.89149e-05
8.89301e-05
8.8911e-05
0.000187038
0.00020476
4.89242e-05
0.00020476
4.89119e-05
8.8935e-05
4.02654e-05
4.95234e-05
4.95244e-05
4.02722e-05
4.02708e-05
4.95234e-05
4.95244e-05
4.02771e-05
0.00015941
3.60218e-05
3.60168e-05
3.602e-05
3.60146e-05
2.50144e-05
2.50149e-05
2.50133e-05
2.50139e-05
2.5016e-05
2.50155e-05
2.5014e-05
2.50134e-05
3.60199e-05
3.60143e-05
0.000159631
3.60237e-05
3.6018e-05
2.5015e-05
2.50154e-05
2.5013e-05
2.50134e-05
0.000159451
3.60258e-05
3.60201e-05
3.60223e-05
3.60166e-05
4.02749e-05
4.95282e-05
4.0268e-05
4.95273e-05
8.89401e-05
4.89192e-05
0.000204764
0.000187024
8.89162e-05
4.89314e-05
0.000204764
8.89408e-05
4.8917e-05
0.000204763
0.00018702
8.89167e-05
4.89294e-05
0.000204763
4.02692e-05
4.95271e-05
4.95279e-05
4.02762e-05
4.027e-05
4.95271e-05
4.95279e-05
4.0277e-05
8.89169e-05
0.000187024
4.8933e-05
0.000204764
4.89211e-05
0.000204764
8.89409e-05
8.89176e-05
0.000187019
4.8931e-05
0.000204763
4.89188e-05
0.000204764
8.89415e-05
3.6017e-05
3.60196e-05
0.000159636
3.60204e-05
3.60206e-05
2.50155e-05
2.50149e-05
2.50139e-05
2.50143e-05
0.000159455
3.6022e-05
3.60184e-05
3.6019e-05
3.60179e-05
2.50146e-05
2.5015e-05
8.89417e-05
4.89105e-05
0.000204764
0.00018704
8.89183e-05
4.89232e-05
0.000204763
4.02798e-05
4.95205e-05
4.02734e-05
4.95196e-05
8.89384e-05
0.000204758
4.89055e-05
0.000187011
8.89142e-05
0.000204758
4.89182e-05
4.02766e-05
4.95227e-05
4.95235e-05
4.02831e-05
8.89191e-05
0.00018704
4.89249e-05
0.000204762
4.89123e-05
0.000204762
8.89426e-05
4.02754e-05
4.95195e-05
4.95203e-05
4.02818e-05
8.89154e-05
0.000187011
0.000204758
4.89197e-05
0.000204758
4.89072e-05
8.89393e-05
4.02745e-05
4.95264e-05
4.02677e-05
4.95255e-05
8.89363e-05
0.000204763
4.89164e-05
0.000187023
8.89126e-05
0.000204763
4.89286e-05
4.02743e-05
4.95243e-05
4.02674e-05
4.95235e-05
8.89127e-05
0.000187046
4.89277e-05
0.000204765
4.89154e-05
0.000204765
8.89365e-05
4.02695e-05
4.95253e-05
4.95261e-05
4.02764e-05
8.89136e-05
0.000187023
0.000204763
4.89301e-05
0.000204763
4.8918e-05
8.89371e-05
4.02693e-05
4.95233e-05
4.95241e-05
4.02762e-05
3.60057e-05
3.60202e-05
0.000159625
3.60092e-05
3.60239e-05
2.50145e-05
2.50141e-05
2.50111e-05
2.50115e-05
0.000159444
3.60102e-05
3.60255e-05
3.60071e-05
3.60224e-05
2.50137e-05
2.5014e-05
8.89363e-05
0.000204761
4.89136e-05
0.000187039
8.89123e-05
0.000204761
4.8926e-05
4.0274e-05
4.9524e-05
4.02671e-05
4.95232e-05
4.0279e-05
4.9524e-05
4.02727e-05
4.95232e-05
8.89064e-05
0.000187034
0.000204759
4.89303e-05
0.00020476
4.89183e-05
8.89308e-05
8.89135e-05
0.000187039
0.000204761
4.89275e-05
0.000204761
4.89153e-05
8.89372e-05
4.02689e-05
4.95231e-05
4.95238e-05
4.02758e-05
4.02746e-05
4.95231e-05
4.95239e-05
4.02809e-05
2.50143e-05
2.50139e-05
2.50133e-05
2.50128e-05
0.000159449
3.60256e-05
3.60209e-05
3.60226e-05
3.60178e-05
2.50135e-05
2.50138e-05
2.50125e-05
2.50128e-05
2.5015e-05
2.50148e-05
2.5013e-05
2.50128e-05
3.60242e-05
3.60185e-05
0.000159631
3.60269e-05
3.60211e-05
2.50147e-05
2.50148e-05
2.50126e-05
2.50128e-05
0.000159451
3.60274e-05
3.60217e-05
3.60251e-05
3.60193e-05
4.02789e-05
4.95278e-05
4.02721e-05
4.95269e-05
8.89407e-05
4.89226e-05
0.000204763
0.000187024
8.89176e-05
4.89345e-05
0.000204763
8.89412e-05
4.89203e-05
0.000204761
0.000187019
8.89182e-05
4.89324e-05
0.000204761
4.02732e-05
4.95267e-05
4.95276e-05
4.02799e-05
4.02739e-05
4.95267e-05
4.95276e-05
4.02806e-05
8.89172e-05
0.000187024
4.89357e-05
0.000204761
4.8924e-05
0.000204762
8.89402e-05
8.89176e-05
0.000187019
4.89336e-05
0.00020476
4.89217e-05
0.00020476
8.89408e-05
3.60204e-05
3.60158e-05
0.000159636
3.6023e-05
3.60176e-05
2.50146e-05
2.50143e-05
2.50136e-05
2.50137e-05
0.000159455
3.60238e-05
3.60185e-05
3.60213e-05
3.60155e-05
2.50141e-05
2.50144e-05
8.89429e-05
4.89139e-05
0.000204762
0.000187039
8.89199e-05
4.89263e-05
0.000204762
4.02837e-05
4.95202e-05
4.02774e-05
4.95193e-05
8.89401e-05
0.000204756
4.89087e-05
0.00018701
8.89163e-05
0.000204755
4.89211e-05
4.02807e-05
4.95223e-05
4.95232e-05
4.02869e-05
8.89199e-05
0.000187039
4.89275e-05
0.000204762
4.89152e-05
0.000204762
8.89426e-05
4.02793e-05
4.95192e-05
4.952e-05
4.02854e-05
8.8917e-05
0.00018701
0.000204755
4.89223e-05
0.000204755
4.89101e-05
8.89407e-05
4.02782e-05
4.95261e-05
4.02715e-05
4.95253e-05
8.8937e-05
0.00020476
4.89195e-05
0.000187022
8.89142e-05
0.00020476
4.89314e-05
4.02781e-05
4.9524e-05
4.02713e-05
4.95231e-05
8.8913e-05
0.000187043
4.89303e-05
0.000204762
4.8918e-05
0.000204763
8.89373e-05
4.02732e-05
4.95251e-05
4.95259e-05
4.02798e-05
8.8914e-05
0.000187022
0.00020476
4.89325e-05
0.00020476
4.89207e-05
8.89374e-05
4.02731e-05
4.95229e-05
4.95237e-05
4.02797e-05
3.6008e-05
3.60238e-05
0.000159623
3.6011e-05
3.60261e-05
2.50137e-05
2.50136e-05
2.50109e-05
2.5011e-05
0.000159443
3.60122e-05
3.60267e-05
3.60089e-05
3.60242e-05
2.50135e-05
2.50136e-05
8.89377e-05
0.00020476
4.89168e-05
0.000187038
8.89144e-05
0.000204759
4.89289e-05
4.02776e-05
4.95237e-05
4.02708e-05
4.95228e-05
4.02828e-05
4.95238e-05
4.02765e-05
4.95229e-05
8.8907e-05
0.000187033
0.000204758
4.89327e-05
0.000204759
4.8921e-05
8.89315e-05
8.89148e-05
0.000187038
0.000204759
4.893e-05
0.000204759
4.89181e-05
8.89383e-05
4.02725e-05
4.95226e-05
4.95235e-05
4.02792e-05
4.02783e-05
4.95227e-05
4.95236e-05
4.02844e-05
2.50136e-05
2.50134e-05
2.50125e-05
2.50123e-05
0.000159448
3.60266e-05
3.60221e-05
3.60242e-05
3.60196e-05
2.50133e-05
2.50134e-05
2.50123e-05
2.50124e-05
2.50147e-05
2.50146e-05
2.50127e-05
2.50126e-05
3.60257e-05
3.60199e-05
0.000159631
3.60285e-05
3.60227e-05
2.50147e-05
2.50147e-05
2.50126e-05
2.50127e-05
0.00015945
3.60303e-05
3.60244e-05
3.6027e-05
3.60211e-05
4.02821e-05
4.95274e-05
4.02756e-05
4.95266e-05
8.89406e-05
4.89252e-05
0.00020476
0.000187024
8.89168e-05
4.89368e-05
0.00020476
8.89416e-05
4.89229e-05
0.00020476
0.000187019
8.89175e-05
4.89348e-05
0.00020476
4.02762e-05
4.95265e-05
4.95272e-05
4.02824e-05
4.0277e-05
4.95265e-05
4.95272e-05
4.02831e-05
8.89175e-05
0.000187024
4.89378e-05
0.000204761
4.89263e-05
0.000204761
8.89417e-05
8.89184e-05
0.000187019
4.89358e-05
0.00020476
4.8924e-05
0.00020476
8.89422e-05
3.60222e-05
3.60167e-05
0.000159635
3.6025e-05
3.602e-05
2.50142e-05
2.50141e-05
2.50136e-05
2.50136e-05
0.000159454
3.60266e-05
3.60217e-05
3.60235e-05
3.60182e-05
2.50141e-05
2.50142e-05
8.89427e-05
4.89164e-05
0.000204761
0.000187039
8.89197e-05
4.89286e-05
0.000204761
4.02865e-05
4.95199e-05
4.02808e-05
4.95191e-05
8.89417e-05
0.000204755
4.89113e-05
0.000187011
8.89177e-05
0.000204755
4.89235e-05
4.02834e-05
4.95221e-05
4.95229e-05
4.02889e-05
8.89199e-05
0.000187038
4.89297e-05
0.000204761
4.89176e-05
0.000204762
8.89428e-05
4.02819e-05
4.9519e-05
4.95198e-05
4.02874e-05
8.89186e-05
0.000187011
0.000204755
4.89246e-05
0.000204755
4.89125e-05
8.89419e-05
4.0281e-05
4.95258e-05
4.02748e-05
4.95249e-05
8.89388e-05
0.00020476
4.89219e-05
0.000187023
8.89147e-05
0.00020476
4.89337e-05
4.02811e-05
4.95236e-05
4.02747e-05
4.95228e-05
8.89144e-05
0.000187041
4.89326e-05
0.000204761
4.89205e-05
0.000204761
8.89384e-05
4.02758e-05
4.95249e-05
4.95257e-05
4.02819e-05
8.8916e-05
0.000187023
0.00020476
4.89348e-05
0.00020476
4.89231e-05
8.89395e-05
4.02759e-05
4.95228e-05
4.95235e-05
4.02821e-05
3.60102e-05
3.6025e-05
0.000159622
3.60136e-05
3.6028e-05
2.50136e-05
2.50135e-05
2.50108e-05
2.50109e-05
0.000159442
3.60153e-05
3.60299e-05
3.60117e-05
3.60265e-05
2.50135e-05
2.50136e-05
8.8939e-05
0.000204759
4.89193e-05
0.000187039
8.89155e-05
0.000204759
4.89312e-05
4.02803e-05
4.95233e-05
4.02741e-05
4.95225e-05
4.02855e-05
4.95234e-05
4.02798e-05
4.95226e-05
8.8908e-05
0.000187031
0.000204757
4.89349e-05
0.000204756
4.89232e-05
8.89324e-05
8.89161e-05
0.000187038
0.000204757
4.89322e-05
0.000204758
4.89204e-05
8.89392e-05
4.02751e-05
4.95225e-05
4.95232e-05
4.02812e-05
4.02808e-05
4.95226e-05
4.95233e-05
4.02863e-05
2.50134e-05
2.50133e-05
2.50123e-05
2.50123e-05
0.000159447
3.60297e-05
3.60253e-05
3.60264e-05
3.60219e-05
2.50133e-05
2.50134e-05
2.50123e-05
2.50123e-05
2.50147e-05
2.50147e-05
2.50127e-05
2.50127e-05
3.60288e-05
3.60229e-05
0.00015963
3.60322e-05
3.60263e-05
2.50148e-05
2.50148e-05
2.50128e-05
2.50128e-05
0.000159449
3.60339e-05
3.60279e-05
3.60308e-05
3.60248e-05
4.02839e-05
4.95272e-05
4.02779e-05
4.95265e-05
8.89424e-05
4.89273e-05
0.000204762
0.000187024
8.89186e-05
4.89388e-05
0.000204761
8.89421e-05
4.8925e-05
0.000204761
0.00018702
8.89188e-05
4.89368e-05
0.000204761
4.02782e-05
4.95265e-05
4.95272e-05
4.02844e-05
4.02788e-05
4.95266e-05
4.95272e-05
4.02849e-05
8.89192e-05
0.000187024
4.89397e-05
0.000204762
4.89283e-05
0.000204762
8.89434e-05
8.89187e-05
0.000187019
4.89376e-05
0.000204761
4.8926e-05
0.000204761
8.89426e-05
3.60251e-05
3.602e-05
0.000159634
3.60283e-05
3.60237e-05
2.50142e-05
2.50142e-05
2.50137e-05
2.50137e-05
0.000159454
3.60299e-05
3.60253e-05
3.60269e-05
3.60219e-05
2.50143e-05
2.50143e-05
8.8943e-05
4.89186e-05
0.000204761
0.000187038
8.89199e-05
4.89307e-05
0.000204761
4.02884e-05
4.95198e-05
4.02827e-05
4.9519e-05
8.89415e-05
0.000204755
4.89136e-05
0.00018701
8.89185e-05
0.000204755
4.89257e-05
4.02852e-05
4.95221e-05
4.95228e-05
4.02909e-05
8.89204e-05
0.000187038
4.89315e-05
0.000204761
4.89196e-05
0.000204762
8.89443e-05
4.02838e-05
4.95191e-05
4.95198e-05
4.02896e-05
8.89184e-05
0.00018701
0.000204756
4.89265e-05
0.000204755
4.89146e-05
8.89428e-05
4.02828e-05
4.95256e-05
4.02767e-05
4.95249e-05
8.894e-05
0.00020476
4.89241e-05
0.000187023
8.89166e-05
0.00020476
4.89357e-05
4.0283e-05
4.95235e-05
4.02769e-05
4.95228e-05
8.89153e-05
0.000187042
4.89344e-05
0.000204762
4.89226e-05
0.000204762
8.89395e-05
4.02776e-05
4.9525e-05
4.95257e-05
4.02838e-05
8.89172e-05
0.000187023
0.000204759
4.89365e-05
0.00020476
4.8925e-05
8.8941e-05
4.02778e-05
4.95229e-05
4.95235e-05
4.0284e-05
3.60134e-05
3.60284e-05
0.000159621
3.60171e-05
3.60318e-05
2.50136e-05
2.50136e-05
2.50111e-05
2.50111e-05
0.000159441
3.60184e-05
3.60332e-05
3.60151e-05
3.60302e-05
2.50137e-05
2.50137e-05
8.89397e-05
0.000204757
4.89215e-05
0.000187037
8.89163e-05
0.000204756
4.89332e-05
4.02821e-05
4.95232e-05
4.02759e-05
4.95226e-05
4.02873e-05
4.95233e-05
4.02816e-05
4.95226e-05
8.89088e-05
0.000187028
0.000204755
4.89365e-05
0.000204754
4.89251e-05
8.89336e-05
8.89169e-05
0.000187037
0.000204757
4.89339e-05
0.000204757
4.89224e-05
8.89408e-05
4.02769e-05
4.95226e-05
4.95233e-05
4.02834e-05
4.02827e-05
4.95227e-05
4.95233e-05
4.02885e-05
2.50134e-05
2.50134e-05
2.50124e-05
2.50124e-05
0.000159446
3.6033e-05
3.60285e-05
3.603e-05
3.60256e-05
2.50135e-05
2.50135e-05
2.50125e-05
2.50125e-05
2.50149e-05
2.50149e-05
2.50129e-05
2.50129e-05
3.60324e-05
3.60263e-05
0.000159629
3.60351e-05
3.6029e-05
2.50151e-05
2.5015e-05
2.50131e-05
2.5013e-05
0.000159449
3.60354e-05
3.60292e-05
3.60333e-05
3.60272e-05
4.0286e-05
4.95273e-05
4.02798e-05
4.95267e-05
8.89447e-05
4.89291e-05
0.000204763
0.000187025
8.89203e-05
4.89404e-05
0.000204764
8.89444e-05
4.89267e-05
0.000204763
0.00018702
8.89195e-05
4.89382e-05
0.000204763
4.02804e-05
4.95268e-05
4.95273e-05
4.02859e-05
4.02809e-05
4.95268e-05
4.95274e-05
4.02864e-05
8.89216e-05
0.000187025
4.89407e-05
0.000204765
4.89298e-05
0.000204766
8.89442e-05
8.89214e-05
0.00018702
4.89386e-05
0.000204763
4.89274e-05
0.000204764
8.89448e-05
3.60284e-05
3.60234e-05
0.000159634
3.6031e-05
3.60262e-05
2.50144e-05
2.50144e-05
2.5014e-05
2.50139e-05
0.000159453
3.60313e-05
3.60263e-05
3.60293e-05
3.60241e-05
2.50146e-05
2.50145e-05
8.89454e-05
4.89204e-05
0.000204762
0.000187038
8.89219e-05
4.89322e-05
0.000204762
4.02907e-05
4.95199e-05
4.02851e-05
4.95192e-05
8.89449e-05
0.000204755
4.89154e-05
0.000187005
8.89202e-05
0.000204755
4.89271e-05
4.02873e-05
4.95223e-05
4.9523e-05
4.02921e-05
8.89224e-05
0.000187039
4.89325e-05
0.000204764
4.8921e-05
0.000204764
8.89428e-05
4.02859e-05
4.95195e-05
4.952e-05
4.02907e-05
8.89218e-05
0.000187004
0.000204755
4.89268e-05
0.000204755
4.89159e-05
8.89425e-05
4.02847e-05
4.95257e-05
4.02787e-05
4.9525e-05
8.8942e-05
0.000204761
4.89257e-05
0.000187017
8.89184e-05
0.000204761
4.89371e-05
4.02849e-05
4.95236e-05
4.02789e-05
4.9523e-05
8.89173e-05
0.00018704
4.89351e-05
0.000204762
4.89238e-05
0.000204762
8.89407e-05
4.02794e-05
4.95251e-05
4.95258e-05
4.02849e-05
8.89189e-05
0.000187016
0.000204761
4.89368e-05
0.000204762
4.89263e-05
8.89394e-05
4.02795e-05
4.95232e-05
4.95237e-05
4.02847e-05
3.60164e-05
3.60315e-05
0.000159619
3.60192e-05
3.6034e-05
2.50138e-05
2.50138e-05
2.50114e-05
2.50113e-05
0.000159438
3.60189e-05
3.60338e-05
3.60169e-05
3.60321e-05
2.5014e-05
2.50139e-05
8.89422e-05
0.000204759
4.89231e-05
0.000187034
8.89183e-05
0.000204759
4.89346e-05
4.02845e-05
4.95234e-05
4.02784e-05
4.95227e-05
4.02897e-05
4.95234e-05
4.0284e-05
4.95228e-05
8.89111e-05
0.000187029
0.000204757
4.8937e-05
0.000204758
4.89264e-05
8.89345e-05
8.89191e-05
0.000187033
0.000204759
4.89343e-05
0.00020476
4.89237e-05
8.8939e-05
4.02791e-05
4.95229e-05
4.95234e-05
4.02845e-05
4.0285e-05
4.9523e-05
4.95235e-05
4.02896e-05
2.50136e-05
2.50136e-05
2.50126e-05
2.50126e-05
0.000159444
3.60335e-05
3.60291e-05
3.60318e-05
3.60275e-05
2.50138e-05
2.50137e-05
2.50128e-05
2.50127e-05
2.50152e-05
2.50153e-05
2.50132e-05
2.50133e-05
3.60334e-05
3.60271e-05
0.000159628
3.60345e-05
3.60282e-05
2.50152e-05
2.50153e-05
2.50132e-05
2.50133e-05
0.000159446
3.60328e-05
3.60268e-05
3.60321e-05
3.60259e-05
4.02852e-05
4.95275e-05
4.0281e-05
4.95272e-05
8.89372e-05
4.89298e-05
0.000204763
0.000187019
8.89197e-05
4.89393e-05
0.000204761
8.89379e-05
4.89274e-05
0.000204762
0.000187014
8.89205e-05
4.89371e-05
0.00020476
4.02782e-05
4.95278e-05
4.9528e-05
4.02792e-05
4.02788e-05
4.95278e-05
4.9528e-05
4.02799e-05
8.89098e-05
0.000187017
4.89348e-05
0.000204757
4.89276e-05
0.000204759
8.89273e-05
8.89104e-05
0.000187012
4.89326e-05
0.000204757
4.89252e-05
0.000204759
8.89275e-05
3.60293e-05
3.60238e-05
0.000159631
3.60304e-05
3.6025e-05
2.50147e-05
2.50148e-05
2.50141e-05
2.50142e-05
0.000159449
3.60287e-05
3.60235e-05
3.6028e-05
3.60223e-05
2.50147e-05
2.50149e-05
8.89344e-05
4.8921e-05
0.000204764
0.000187036
8.89169e-05
4.8931e-05
0.000204762
4.02881e-05
4.95203e-05
4.02855e-05
4.952e-05
8.89328e-05
0.000204755
4.8915e-05
0.000187001
8.89158e-05
0.000204754
4.89239e-05
4.0284e-05
4.95234e-05
4.95236e-05
4.02844e-05
8.89097e-05
0.000187033
4.89264e-05
0.000204757
4.89187e-05
0.00020476
8.89262e-05
4.02818e-05
4.95204e-05
4.95208e-05
4.0282e-05
8.89073e-05
0.000186999
0.00020475
4.89184e-05
0.000204753
4.89113e-05
8.8924e-05
4.02821e-05
4.95259e-05
4.02793e-05
4.95254e-05
8.89308e-05
0.00020476
4.89255e-05
0.000187013
8.89137e-05
0.000204759
4.8934e-05
4.02816e-05
4.9524e-05
4.0279e-05
4.95237e-05
8.89061e-05
0.000187034
4.89283e-05
0.000204757
4.8921e-05
0.00020476
8.89213e-05
4.02751e-05
4.95261e-05
4.95263e-05
4.02758e-05
8.89051e-05
0.000187011
0.000204754
4.89285e-05
0.000204757
4.89218e-05
8.89204e-05
4.02746e-05
4.95242e-05
4.95245e-05
4.02753e-05
3.60164e-05
3.60316e-05
0.000159615
3.60176e-05
3.60324e-05
2.50141e-05
2.50141e-05
2.50113e-05
2.50115e-05
0.000159432
3.60157e-05
3.60308e-05
3.60147e-05
3.603e-05
2.50139e-05
2.50141e-05
8.89308e-05
0.000204758
4.89229e-05
0.000187028
8.89126e-05
0.000204756