/*--------------------------------*- C++ -*----------------------------------*\
| =========                 |                                                 |
| \\      /  F ield         | OpenFOAM: The Open Source CFD Toolbox           |
|  \\    /   O peration     | Version:  2206                                  |
|   \\  /    A nd           | Website:  www.openfoam.com                      |
|    \\/     M anipulation  |                                                 |
\*---------------------------------------------------------------------------*/
FoamFile
{
    version     2.0;
    format      ascii;
    arch        "LSB;label=32;scalar=64";
    class       volScalarField;
    location    "4.5";
    object      k;
}
// * * * * * * * * * * * * * * * * * * * * * * * * * * * * * * * * * * * * * //

dimensions      [0 2 -2 0 0 0 0];

internalField   nonuniform List<scalar> 
28549
(
2.01763e-05
2.01757e-05
3.691e-05
3.34482e-05
3.3447e-05
3.4114e-05
2.73025e-05
3.60792e-05
3.55268e-05
3.52976e-05
3.52752e-05
3.41141e-05
2.73028e-05
3.60793e-05
3.55269e-05
3.52752e-05
3.52981e-05
3.5527e-05
3.52983e-05
2.73028e-05
2.01755e-05
3.691e-05
3.34473e-05
3.34479e-05
2.01761e-05
3.60792e-05
3.55269e-05
3.52753e-05
3.52979e-05
3.60792e-05
3.55267e-05
3.52753e-05
3.52978e-05
3.41143e-05
2.73028e-05
3.41144e-05
2.73029e-05
3.69098e-05
3.34482e-05
3.34475e-05
2.0176e-05
2.0176e-05
1.89564e-05
1.89545e-05
3.23984e-05
2.69068e-05
3.70043e-05
3.5308e-05
2.6904e-05
3.70023e-05
3.53061e-05
2.36941e-05
3.39145e-05
2.48053e-05
3.38765e-05
2.38461e-05
3.36865e-05
2.46693e-05
1.84173e-05
3.27712e-05
2.70704e-05
1.86235e-05
3.25466e-05
2.36937e-05
2.48053e-05
3.39145e-05
3.38766e-05
2.38456e-05
2.46693e-05
3.36865e-05
1.8417e-05
3.2771e-05
2.70703e-05
1.86232e-05
3.25461e-05
1.84175e-05
3.2771e-05
2.70709e-05
1.86235e-05
3.25464e-05
1.99912e-05
3.24026e-05
1.89546e-05
1.89564e-05
3.23988e-05
1.89481e-05
1.89492e-05
3.50472e-05
2.69045e-05
3.70033e-05
3.31565e-05
3.69408e-05
3.53066e-05
2.64778e-05
3.50488e-05
2.69068e-05
3.70036e-05
3.31567e-05
3.5308e-05
2.64805e-05
3.69415e-05
1.99918e-05
2.36941e-05
3.39146e-05
2.48054e-05
3.38772e-05
2.3846e-05
3.36869e-05
2.46695e-05
1.84175e-05
3.2771e-05
2.70708e-05
1.86235e-05
3.25456e-05
2.36944e-05
3.39148e-05
2.48055e-05
3.38772e-05
2.38463e-05
3.36871e-05
2.46695e-05
1.84175e-05
3.27716e-05
2.70704e-05
1.86239e-05
3.25472e-05
3.2403e-05
1.89564e-05
1.8955e-05
3.23993e-05
1.89507e-05
1.89493e-05
3.50497e-05
2.69067e-05
3.70043e-05
3.31575e-05
3.53082e-05
3.69425e-05
2.64804e-05
3.50475e-05
2.69047e-05
3.70023e-05
3.31572e-05
3.53064e-05
3.69404e-05
2.64781e-05
1.99918e-05
1.99916e-05
3.52553e-05
3.52248e-05
3.52248e-05
3.52201e-05
3.52553e-05
3.52248e-05
3.52248e-05
3.52201e-05
3.52554e-05
3.52248e-05
3.52248e-05
3.52201e-05
3.52554e-05
3.52248e-05
3.52248e-05
3.52201e-05
3.70184e-05
3.70184e-05
3.6581e-05
3.57485e-05
3.61088e-05
3.5661e-05
3.60427e-05
3.57075e-05
3.6076e-05
3.56976e-05
3.59266e-05
3.60859e-05
3.62832e-05
3.50249e-05
3.62645e-05
3.58859e-05
3.60424e-05
3.57485e-05
3.5661e-05
3.61091e-05
3.60428e-05
3.57077e-05
3.56976e-05
3.60761e-05
3.59268e-05
3.60864e-05
3.62838e-05
3.50249e-05
3.58863e-05
3.60424e-05
3.62649e-05
3.59271e-05
3.60863e-05
3.62843e-05
3.50256e-05
3.58863e-05
3.60427e-05
3.62657e-05
3.64523e-05
3.69001e-05
3.70189e-05
3.70182e-05
3.69979e-05
3.65812e-05
3.69975e-05
3.57487e-05
3.5661e-05
3.6109e-05
3.60432e-05
3.57076e-05
3.56978e-05
3.60764e-05
3.59266e-05
3.6086e-05
3.62838e-05
3.50248e-05
3.5886e-05
3.62649e-05
3.60421e-05
3.57486e-05
3.5661e-05
3.61088e-05
3.60432e-05
3.57075e-05
3.56978e-05
3.60763e-05
3.59267e-05
3.60859e-05
3.62832e-05
3.5025e-05
3.5886e-05
3.60424e-05
3.62646e-05
3.64525e-05
3.68998e-05
3.70183e-05
3.70183e-05
3.6581e-05
3.69977e-05
3.69976e-05
3.52542e-05
3.55257e-05
3.52542e-05
3.55255e-05
3.55259e-05
3.69069e-05
3.55266e-05
3.69061e-05
3.68991e-05
3.55258e-05
3.55259e-05
3.55259e-05
3.55259e-05
3.69061e-05
3.68987e-05
3.55257e-05
3.5526e-05
3.55256e-05
3.55261e-05
3.55257e-05
3.55257e-05
3.55259e-05
3.69068e-05
3.69029e-05
3.55259e-05
3.55259e-05
3.5527e-05
3.55258e-05
3.69063e-05
3.68992e-05
3.55256e-05
3.55261e-05
3.55268e-05
3.5527e-05
3.5526e-05
3.55258e-05
3.55271e-05
3.69069e-05
3.69073e-05
3.55257e-05
3.6907e-05
3.55283e-05
3.69071e-05
3.38765e-05
2.73005e-05
2.70712e-05
3.41096e-05
2.01741e-05
1.99918e-05
3.38759e-05
2.73e-05
2.707e-05
3.41095e-05
3.52543e-05
3.52542e-05
3.52542e-05
3.52542e-05
3.52543e-05
3.52542e-05
3.52542e-05
3.60424e-05
3.52934e-05
3.52741e-05
3.55257e-05
3.50242e-05
3.52741e-05
3.60751e-05
3.38768e-05
2.73001e-05
3.41096e-05
2.70711e-05
2.01742e-05
1.99917e-05
3.3877e-05
2.72995e-05
3.41097e-05
2.70703e-05
3.52542e-05
3.52543e-05
3.52542e-05
3.52553e-05
3.52543e-05
3.52561e-05
3.52561e-05
3.60426e-05
3.52935e-05
3.52741e-05
3.55257e-05
3.60753e-05
3.50244e-05
3.52741e-05
2.01731e-05
1.99911e-05
3.6043e-05
3.52741e-05
3.5294e-05
3.55257e-05
3.52742e-05
3.50247e-05
3.60757e-05
3.34436e-05
3.34426e-05
3.68995e-05
3.31565e-05
3.3156e-05
2.01738e-05
3.52563e-05
3.52944e-05
3.52752e-05
3.60767e-05
2.01744e-05
1.99919e-05
2.01739e-05
1.99914e-05
3.34435e-05
3.34424e-05
3.68987e-05
3.31561e-05
3.31556e-05
1.99919e-05
2.01742e-05
1.99914e-05
2.01737e-05
3.69066e-05
3.31567e-05
3.31562e-05
3.34435e-05
3.34426e-05
3.38765e-05
2.73004e-05
2.70708e-05
3.41096e-05
3.60423e-05
3.52939e-05
3.52741e-05
3.55259e-05
3.50244e-05
3.52741e-05
3.60752e-05
3.60423e-05
3.52938e-05
3.52741e-05
3.55259e-05
3.50244e-05
3.52741e-05
3.60752e-05
3.41097e-05
2.70711e-05
2.73003e-05
3.38762e-05
3.41097e-05
2.70708e-05
2.73004e-05
3.38762e-05
3.60753e-05
3.55258e-05
3.50248e-05
3.52741e-05
3.5294e-05
3.52741e-05
3.60425e-05
3.60752e-05
3.55257e-05
3.50246e-05
3.52741e-05
3.52938e-05
3.52741e-05
3.60425e-05
3.34428e-05
3.34432e-05
3.68989e-05
3.31562e-05
3.31564e-05
2.01742e-05
1.9992e-05
1.99918e-05
2.01741e-05
3.69065e-05
3.31565e-05
3.31564e-05
3.34429e-05
3.34432e-05
1.9992e-05
2.01742e-05
3.60422e-05
3.52932e-05
3.52741e-05
3.55255e-05
3.50238e-05
3.52741e-05
3.60749e-05
3.38759e-05
2.73001e-05
3.41095e-05
2.70702e-05
3.60422e-05
3.52741e-05
3.52937e-05
3.55258e-05
3.52741e-05
3.6075e-05
3.5024e-05
3.41096e-05
2.707e-05
2.72997e-05
3.38762e-05
3.60753e-05
3.55256e-05
3.50243e-05
3.52741e-05
3.52935e-05
3.52741e-05
3.60426e-05
3.41096e-05
2.70703e-05
3.38762e-05
2.72999e-05
3.60753e-05
3.55261e-05
3.52741e-05
3.50246e-05
3.52741e-05
3.60426e-05
3.5294e-05
3.38764e-05
2.72999e-05
2.70706e-05
3.41096e-05
3.60423e-05
3.52741e-05
3.52939e-05
3.55259e-05
3.52741e-05
3.60752e-05
3.50241e-05
3.38764e-05
2.73e-05
3.41096e-05
2.70707e-05
3.60752e-05
3.55257e-05
3.50244e-05
3.52741e-05
3.52934e-05
3.52741e-05
3.60425e-05
3.41096e-05
2.70707e-05
2.72998e-05
3.38763e-05
3.60752e-05
3.5526e-05
3.52741e-05
3.50247e-05
3.52741e-05
3.60426e-05
3.52939e-05
3.41097e-05
2.70707e-05
3.38763e-05
2.73001e-05
2.0174e-05
1.99919e-05
2.01735e-05
1.99914e-05
3.34436e-05
3.34427e-05
3.68994e-05
3.31571e-05
3.31565e-05
1.99944e-05
2.0174e-05
1.99939e-05
2.01735e-05
3.69071e-05
3.31623e-05
3.31616e-05
3.34438e-05
3.34427e-05
3.38767e-05
2.73004e-05
3.41097e-05
2.70708e-05
3.60428e-05
3.52942e-05
3.52741e-05
3.55259e-05
3.60756e-05
3.50253e-05
3.52742e-05
3.60427e-05
3.52939e-05
3.52741e-05
3.55257e-05
3.60756e-05
3.50245e-05
3.52741e-05
3.41099e-05
2.70743e-05
2.73001e-05
3.38814e-05
3.41098e-05
2.70713e-05
2.73005e-05
3.38813e-05
3.60757e-05
3.55259e-05
3.50298e-05
3.52752e-05
3.52944e-05
3.52742e-05
3.60471e-05
3.60757e-05
3.55259e-05
3.50253e-05
3.52751e-05
3.52942e-05
3.52742e-05
3.6047e-05
3.3443e-05
3.34433e-05
3.68989e-05
3.31562e-05
3.31567e-05
2.01742e-05
1.9992e-05
1.99917e-05
2.0174e-05
3.69063e-05
3.31565e-05
3.31568e-05
3.3443e-05
3.34435e-05
1.9992e-05
2.01742e-05
3.60431e-05
3.52937e-05
3.52741e-05
3.55257e-05
3.60758e-05
3.50248e-05
3.52741e-05
3.3877e-05
2.72998e-05
3.41098e-05
2.70704e-05
3.60431e-05
3.52741e-05
3.52942e-05
3.55262e-05
3.60758e-05
3.52742e-05
3.50249e-05
3.41099e-05
2.70733e-05
2.72997e-05
3.38816e-05
3.60758e-05
3.55258e-05
3.50292e-05
3.52752e-05
3.52939e-05
3.52742e-05
3.60474e-05
3.411e-05
2.70734e-05
2.72998e-05
3.38815e-05
3.60759e-05
3.55259e-05
3.52752e-05
3.50299e-05
3.52742e-05
3.52945e-05
3.60474e-05
3.38762e-05
2.72999e-05
3.41097e-05
2.70706e-05
3.60426e-05
3.52742e-05
3.52942e-05
3.55259e-05
3.60755e-05
3.52741e-05
3.50248e-05
3.38762e-05
2.73e-05
3.41098e-05
2.70704e-05
3.60757e-05
3.55256e-05
3.50246e-05
3.52742e-05
3.52938e-05
3.52741e-05
3.60429e-05
3.41098e-05
2.70705e-05
2.72998e-05
3.38764e-05
3.60759e-05
3.5526e-05
3.52743e-05
3.50303e-05
3.52742e-05
3.52945e-05
3.6043e-05
3.41098e-05
2.70731e-05
2.72997e-05
3.38766e-05
3.34428e-05
3.34433e-05
3.69e-05
3.31562e-05
3.31564e-05
2.01736e-05
1.99916e-05
1.99945e-05
2.0173e-05
3.69076e-05
3.31675e-05
3.3443e-05
3.34439e-05
2.01736e-05
3.6043e-05
3.52741e-05
3.52937e-05
3.55258e-05
3.52742e-05
3.50245e-05
3.60756e-05
3.38767e-05
2.72997e-05
2.70707e-05
3.41098e-05
3.38767e-05
2.72999e-05
2.70704e-05
3.41098e-05
3.60766e-05
3.55266e-05
3.52752e-05
3.52945e-05
3.60766e-05
3.55266e-05
3.52752e-05
3.52944e-05
3.41103e-05
2.72998e-05
3.41103e-05
2.72999e-05
2.01739e-05
1.99915e-05
2.01736e-05
1.99914e-05
3.69073e-05
3.31681e-05
3.34438e-05
3.34431e-05
1.99948e-05
2.01737e-05
2.01735e-05
2.73042e-05
3.52992e-05
3.34435e-05
3.34439e-05
2.0174e-05
2.72997e-05
3.41102e-05
3.52761e-05
3.60769e-05
3.41104e-05
2.38431e-05
2.46694e-05
3.36861e-05
3.41097e-05
2.48028e-05
3.39099e-05
2.36938e-05
1.8417e-05
2.70713e-05
3.27661e-05
3.25455e-05
1.86209e-05
1.86207e-05
3.25452e-05
2.73004e-05
3.27661e-05
1.8417e-05
2.36938e-05
3.38765e-05
2.48027e-05
3.39099e-05
2.46694e-05
3.36863e-05
2.38431e-05
1.99918e-05
2.0174e-05
2.38435e-05
3.36858e-05
2.46691e-05
3.41095e-05
3.39099e-05
2.48027e-05
2.36939e-05
1.84171e-05
2.70702e-05
3.27665e-05
3.25458e-05
1.86214e-05
1.86213e-05
3.25457e-05
2.72999e-05
3.27665e-05
1.84171e-05
2.36939e-05
3.38759e-05
3.39099e-05
2.48027e-05
3.3686e-05
2.46691e-05
2.38436e-05
2.38427e-05
3.41098e-05
2.46694e-05
3.36867e-05
2.48025e-05
3.391e-05
2.36938e-05
1.84169e-05
3.2766e-05
2.7071e-05
1.86203e-05
3.25458e-05
2.36936e-05
3.38763e-05
2.48025e-05
3.39099e-05
2.38427e-05
2.46692e-05
3.36862e-05
1.86204e-05
3.25463e-05
2.73001e-05
3.27661e-05
1.8417e-05
1.99918e-05
2.01741e-05
2.3843e-05
3.41099e-05
3.36869e-05
2.46693e-05
3.39102e-05
2.48023e-05
2.36941e-05
1.84171e-05
3.27664e-05
2.70702e-05
1.86205e-05
3.25467e-05
2.36939e-05
3.38767e-05
3.391e-05
2.48022e-05
2.3843e-05
3.36867e-05
2.46691e-05
1.86206e-05
3.2547e-05
2.72996e-05
3.27666e-05
1.84172e-05
1.99911e-05
2.01729e-05
3.23935e-05
1.89499e-05
1.89475e-05
1.89544e-05
1.89532e-05
3.24022e-05
3.50486e-05
3.70002e-05
3.31564e-05
2.69039e-05
3.69418e-05
2.64801e-05
3.53046e-05
3.50464e-05
3.69981e-05
3.31559e-05
2.6902e-05
3.69397e-05
2.6478e-05
3.53028e-05
3.53048e-05
2.648e-05
3.34437e-05
3.69419e-05
3.70005e-05
2.69039e-05
3.5049e-05
3.5303e-05
2.64779e-05
3.34427e-05
3.69401e-05
3.69986e-05
2.69019e-05
3.50468e-05
3.2402e-05
1.89544e-05
1.89532e-05
1.89494e-05
1.89471e-05
3.23936e-05
1.99941e-05
1.9992e-05
2.01743e-05
1.99915e-05
2.01739e-05
3.23941e-05
1.89487e-05
1.89475e-05
1.89545e-05
1.89531e-05
3.24019e-05
3.5048e-05
3.69994e-05
3.31561e-05
2.69041e-05
2.64803e-05
3.69411e-05
3.53039e-05
3.50458e-05
3.69972e-05
3.31556e-05
2.69017e-05
2.64775e-05
3.69389e-05
3.53021e-05
3.53041e-05
2.64802e-05
3.34435e-05
3.69411e-05
2.6904e-05
3.50481e-05
3.69995e-05
3.53023e-05
2.64775e-05
3.34425e-05
3.69389e-05
2.69017e-05
3.5046e-05
3.69975e-05
3.2402e-05
1.89545e-05
1.89531e-05
1.89486e-05
1.89473e-05
3.23941e-05
2.01741e-05
1.9992e-05
2.01736e-05
1.99914e-05
3.24019e-05
1.89544e-05
1.89529e-05
3.23937e-05
1.89489e-05
1.89477e-05
3.53044e-05
3.69418e-05
3.34436e-05
2.64802e-05
2.6904e-05
3.70001e-05
3.50488e-05
3.53026e-05
3.69395e-05
3.34426e-05
2.64775e-05
2.69015e-05
3.69981e-05
3.50466e-05
3.50484e-05
2.69039e-05
3.69998e-05
3.31565e-05
3.53043e-05
2.64802e-05
3.69415e-05
3.50463e-05
2.69015e-05
3.69979e-05
3.31559e-05
3.53025e-05
2.64774e-05
3.69393e-05
3.23937e-05
1.89494e-05
1.8948e-05
1.89544e-05
1.89529e-05
3.24021e-05
2.38434e-05
2.46694e-05
3.36863e-05
3.41097e-05
2.48027e-05
3.391e-05
2.3694e-05
1.8417e-05
2.70708e-05
3.27667e-05
3.25461e-05
1.86209e-05
1.8621e-05
3.25461e-05
2.73004e-05
3.27667e-05
1.84171e-05
2.3694e-05
3.38764e-05
2.48026e-05
3.391e-05
2.46693e-05
3.36862e-05
2.38433e-05
2.36938e-05
2.48028e-05
3.39099e-05
3.38764e-05
2.38431e-05
2.46693e-05
3.36861e-05
1.86206e-05
2.73003e-05
3.25454e-05
1.84169e-05
3.27661e-05
1.8417e-05
3.27661e-05
2.70712e-05
1.86207e-05
3.25454e-05
2.3843e-05
3.41097e-05
2.46693e-05
3.3686e-05
2.36937e-05
2.48027e-05
3.39099e-05
2.3694e-05
2.48027e-05
3.391e-05
3.38764e-05
2.38434e-05
2.46693e-05
3.36863e-05
1.86211e-05
2.73004e-05
3.25462e-05
3.27667e-05
1.8417e-05
1.84171e-05
3.27667e-05
2.70708e-05
1.8621e-05
3.25463e-05
2.38434e-05
3.41097e-05
2.46693e-05
3.36862e-05
2.48027e-05
3.39101e-05
2.36939e-05
3.23936e-05
1.89479e-05
1.89491e-05
1.89532e-05
1.89546e-05
3.2402e-05
3.50463e-05
3.6998e-05
3.31562e-05
2.69019e-05
2.6478e-05
3.69398e-05
3.53023e-05
3.50481e-05
3.69986e-05
3.31565e-05
2.69038e-05
3.69405e-05
2.64801e-05
3.53037e-05
3.53023e-05
2.64779e-05
3.34428e-05
3.69398e-05
2.69019e-05
3.69982e-05
3.50464e-05
3.53037e-05
2.648e-05
3.34432e-05
3.69404e-05
3.69987e-05
2.69037e-05
3.50481e-05
3.24021e-05
1.89532e-05
1.89546e-05
1.89478e-05
1.89491e-05
3.23938e-05
1.9992e-05
2.01742e-05
2.01742e-05
1.99918e-05
3.24022e-05
1.89532e-05
1.89546e-05
3.23939e-05
1.89484e-05
1.89495e-05
3.53024e-05
3.694e-05
3.3443e-05
2.64779e-05
3.69982e-05
2.6902e-05
3.50466e-05
3.53038e-05
3.69406e-05
3.34433e-05
2.64801e-05
2.69038e-05
3.69987e-05
3.50483e-05
3.50466e-05
2.69019e-05
3.69983e-05
3.31564e-05
3.694e-05
3.53025e-05
2.64779e-05
3.50484e-05
2.69037e-05
3.69986e-05
3.31566e-05
3.53038e-05
2.64802e-05
3.69407e-05
3.23944e-05
1.89484e-05
1.89495e-05
1.89533e-05
1.89547e-05
3.24022e-05
2.01743e-05
1.9992e-05
2.3843e-05
2.46691e-05
3.41095e-05
3.36856e-05
2.48027e-05
3.39098e-05
2.36935e-05
1.84167e-05
3.27661e-05
2.70703e-05
3.25448e-05
1.86209e-05
2.36934e-05
3.38759e-05
2.48027e-05
3.39098e-05
2.46691e-05
3.36856e-05
2.38431e-05
1.86206e-05
3.25446e-05
2.73e-05
3.27661e-05
1.84167e-05
2.36938e-05
3.39099e-05
2.48025e-05
3.3876e-05
2.38433e-05
3.3686e-05
2.46691e-05
1.86207e-05
2.72996e-05
3.25462e-05
1.8417e-05
3.27664e-05
1.8417e-05
3.27664e-05
2.707e-05
1.8621e-05
3.25459e-05
2.38431e-05
3.41097e-05
3.36862e-05
2.46691e-05
2.36938e-05
3.391e-05
2.48024e-05
2.36934e-05
2.48026e-05
3.3876e-05
3.39099e-05
2.38429e-05
2.46691e-05
3.36858e-05
1.86201e-05
3.25452e-05
2.72999e-05
3.27661e-05
1.84167e-05
2.38427e-05
3.41097e-05
2.46691e-05
3.3686e-05
2.48024e-05
3.39099e-05
2.36935e-05
1.84167e-05
3.27661e-05
2.70702e-05
1.86202e-05
3.2545e-05
2.38435e-05
3.36863e-05
2.46692e-05
3.41096e-05
3.391e-05
2.48026e-05
2.36942e-05
1.84173e-05
2.70707e-05
3.27664e-05
3.25462e-05
1.86213e-05
1.86214e-05
3.25462e-05
2.72998e-05
3.27664e-05
1.84174e-05
2.36942e-05
3.38765e-05
3.39099e-05
2.48025e-05
3.36864e-05
2.46692e-05
2.38434e-05
2.3843e-05
2.46692e-05
3.41097e-05
3.3686e-05
2.48026e-05
3.39099e-05
2.36937e-05
1.84171e-05
3.27661e-05
2.70707e-05
3.25451e-05
1.86211e-05
2.36937e-05
3.38764e-05
2.48026e-05
3.39099e-05
2.46692e-05
3.3686e-05
2.38431e-05
1.86207e-05
3.2545e-05
2.72999e-05
3.27661e-05
1.84169e-05
2.36941e-05
3.391e-05
2.48026e-05
3.38763e-05
2.38435e-05
3.36863e-05
2.46692e-05
1.86214e-05
2.72999e-05
3.25464e-05
3.27665e-05
1.84174e-05
1.84173e-05
3.27664e-05
2.70706e-05
1.86214e-05
3.25462e-05
2.38434e-05
3.41097e-05
3.36863e-05
2.46692e-05
3.391e-05
2.48025e-05
2.36941e-05
2.36937e-05
2.48026e-05
3.38763e-05
3.39099e-05
2.38431e-05
2.46692e-05
3.36861e-05
1.86211e-05
3.25453e-05
2.73001e-05
3.27662e-05
1.84172e-05
2.38431e-05
3.41097e-05
2.46692e-05
3.36861e-05
2.48026e-05
3.39099e-05
2.36937e-05
1.84171e-05
3.27662e-05
2.70707e-05
1.8621e-05
3.25453e-05
1.99919e-05
2.0174e-05
1.99914e-05
2.01735e-05
3.23934e-05
1.89498e-05
1.89482e-05
1.89543e-05
1.89528e-05
3.24022e-05
3.50489e-05
3.70002e-05
2.69038e-05
3.31569e-05
3.53045e-05
2.64802e-05
3.69419e-05
3.50468e-05
3.69984e-05
2.69015e-05
3.31564e-05
3.53028e-05
2.64775e-05
3.694e-05
3.24022e-05
1.89544e-05
1.89528e-05
3.23936e-05
1.89497e-05
1.89482e-05
3.53046e-05
2.64802e-05
3.34437e-05
3.69422e-05
2.69038e-05
3.50491e-05
3.70005e-05
3.53029e-05
2.64776e-05
3.34427e-05
3.69401e-05
2.69015e-05
3.5047e-05
3.69985e-05
2.01742e-05
1.9992e-05
2.01737e-05
1.99915e-05
3.24023e-05
1.89542e-05
1.89528e-05
3.23933e-05
1.89501e-05
1.89484e-05
3.5305e-05
3.69475e-05
3.34442e-05
2.64833e-05
2.69041e-05
3.70009e-05
3.50535e-05
3.53031e-05
3.69453e-05
3.34432e-05
2.64807e-05
2.69017e-05
3.69987e-05
3.50513e-05
3.50493e-05
2.69038e-05
3.70005e-05
3.31573e-05
3.53047e-05
2.64803e-05
3.69424e-05
3.50471e-05
2.69014e-05
3.69986e-05
3.31568e-05
3.53029e-05
2.64776e-05
3.69404e-05
3.23937e-05
1.89524e-05
1.89508e-05
1.89545e-05
1.8953e-05
3.24074e-05
2.38432e-05
3.41098e-05
2.46694e-05
3.36864e-05
2.48025e-05
3.39101e-05
2.36941e-05
1.8417e-05
3.27667e-05
2.70707e-05
1.86209e-05
3.25462e-05
2.36939e-05
3.38763e-05
2.48025e-05
3.391e-05
2.46692e-05
2.38432e-05
3.36862e-05
1.86205e-05
3.2546e-05
2.73004e-05
3.27667e-05
1.8417e-05
2.36938e-05
2.48025e-05
3.39101e-05
3.38769e-05
2.38428e-05
2.46694e-05
3.36869e-05
1.86208e-05
2.73003e-05
3.25518e-05
1.84195e-05
3.27665e-05
1.84171e-05
3.27662e-05
2.70712e-05
1.86207e-05
3.25467e-05
2.38429e-05
3.41103e-05
2.46723e-05
3.36915e-05
2.36966e-05
2.48027e-05
3.39106e-05
2.36941e-05
2.48025e-05
3.39101e-05
3.38767e-05
2.38433e-05
2.46694e-05
3.36865e-05
1.86202e-05
2.73005e-05
3.2551e-05
3.27672e-05
1.84195e-05
1.8417e-05
3.27668e-05
2.70708e-05
1.86204e-05
3.2546e-05
2.38434e-05
3.41102e-05
2.46722e-05
3.36911e-05
2.48026e-05
3.39105e-05
2.36969e-05
3.2394e-05
1.89483e-05
1.8949e-05
1.89532e-05
1.89547e-05
3.24021e-05
3.50465e-05
3.69982e-05
2.6902e-05
3.31563e-05
2.64779e-05
3.53025e-05
3.69401e-05
3.50482e-05
3.69988e-05
2.69037e-05
3.31565e-05
3.69407e-05
3.53039e-05
2.64801e-05
3.24022e-05
1.89533e-05
1.89546e-05
1.89484e-05
3.23942e-05
1.89493e-05
3.53026e-05
2.64778e-05
3.3443e-05
3.694e-05
2.6902e-05
3.69986e-05
3.50464e-05
3.5304e-05
2.64801e-05
3.34435e-05
3.69408e-05
3.6999e-05
2.69038e-05
3.50483e-05
1.9992e-05
2.01743e-05
2.0174e-05
1.99917e-05
3.24021e-05
1.89532e-05
1.89546e-05
3.23939e-05
1.89486e-05
1.89491e-05
3.5303e-05
3.69406e-05
3.34431e-05
2.64777e-05
3.69992e-05
2.6902e-05
3.50468e-05
3.53043e-05
3.69411e-05
3.34436e-05
2.64801e-05
2.69039e-05
3.69994e-05
3.50486e-05
3.50466e-05
2.69019e-05
3.69988e-05
3.31562e-05
3.69403e-05
3.53028e-05
2.64777e-05
3.50485e-05
2.69039e-05
3.69993e-05
3.31569e-05
3.53042e-05
2.64802e-05
3.6941e-05
3.23939e-05
1.89487e-05
1.89493e-05
1.89532e-05
1.89547e-05
3.24021e-05
2.01742e-05
1.9992e-05
2.38426e-05
3.41099e-05
2.46693e-05
3.36866e-05
2.48023e-05
3.391e-05
2.36937e-05
1.84167e-05
3.27662e-05
2.70703e-05
1.86199e-05
3.25454e-05
2.36935e-05
3.38767e-05
2.48023e-05
3.391e-05
2.46692e-05
2.38426e-05
3.36863e-05
1.86197e-05
3.25455e-05
2.72998e-05
3.27662e-05
1.84168e-05
2.36941e-05
3.39103e-05
2.48024e-05
3.38772e-05
2.38431e-05
3.36871e-05
2.46693e-05
1.8621e-05
2.72998e-05
3.25518e-05
1.84196e-05
3.27669e-05
1.84173e-05
3.27666e-05
2.70704e-05
1.86209e-05
3.25471e-05
2.38433e-05
3.41104e-05
3.36915e-05
2.46721e-05
2.36969e-05
3.39106e-05
2.48025e-05
2.36937e-05
2.48024e-05
3.39102e-05
3.38771e-05
2.38427e-05
2.46693e-05
3.36867e-05
1.862e-05
2.73001e-05
3.25506e-05
3.27667e-05
1.84193e-05
1.84169e-05
3.27663e-05
2.70704e-05
1.86198e-05
3.25458e-05
2.38428e-05
3.41104e-05
2.46721e-05
3.36912e-05
2.48025e-05
3.39105e-05
2.36964e-05
2.38434e-05
3.41097e-05
3.36862e-05
2.46692e-05
3.39101e-05
2.48026e-05
2.36941e-05
1.84173e-05
3.27665e-05
2.70707e-05
3.25464e-05
1.86217e-05
2.36942e-05
3.38765e-05
3.39101e-05
2.48026e-05
3.36865e-05
2.38435e-05
2.46692e-05
1.86216e-05
3.25464e-05
2.72998e-05
3.27665e-05
1.84173e-05
2.3843e-05
3.41098e-05
2.46691e-05
3.36858e-05
2.48025e-05
3.39099e-05
2.36936e-05
1.84171e-05
3.27662e-05
2.70706e-05
1.86211e-05
3.25451e-05
2.36937e-05
3.38763e-05
2.48026e-05
3.391e-05
2.38431e-05
2.46692e-05
3.36859e-05
1.86207e-05
3.25451e-05
2.72998e-05
3.27661e-05
1.8417e-05
2.3694e-05
3.39101e-05
2.48024e-05
3.38764e-05
2.38433e-05
3.36863e-05
2.46692e-05
1.86211e-05
2.72997e-05
3.25464e-05
3.27664e-05
1.84172e-05
1.84173e-05
3.27664e-05
2.70705e-05
1.86214e-05
3.25464e-05
2.38432e-05
3.41098e-05
3.36864e-05
2.46691e-05
3.39101e-05
2.48023e-05
2.36941e-05
2.36937e-05
2.48024e-05
3.391e-05
3.38765e-05
2.38428e-05
2.46692e-05
3.36862e-05
1.86206e-05
2.72998e-05
3.25466e-05
3.27661e-05
1.84172e-05
1.84171e-05
3.2766e-05
2.70705e-05
1.86205e-05
3.25456e-05
2.38428e-05
3.41099e-05
2.46692e-05
3.36865e-05
2.48024e-05
3.39101e-05
2.36937e-05
3.23929e-05
1.89477e-05
1.8949e-05
1.89527e-05
1.89543e-05
3.24021e-05
3.50468e-05
3.69993e-05
3.3156e-05
2.69018e-05
2.64777e-05
3.69408e-05
3.53032e-05
3.50486e-05
3.69998e-05
3.31562e-05
2.69039e-05
3.69413e-05
2.64803e-05
3.53046e-05
3.53035e-05
2.64776e-05
3.34427e-05
3.6941e-05
2.69017e-05
3.69997e-05
3.50471e-05
3.53049e-05
2.64803e-05
3.34434e-05
3.69414e-05
3.70003e-05
2.69039e-05
3.50489e-05
3.2402e-05
1.89527e-05
1.89544e-05
1.89473e-05
1.89486e-05
3.23932e-05
1.99916e-05
2.01735e-05
2.01742e-05
1.99912e-05
3.2407e-05
1.89527e-05
1.89543e-05
3.23933e-05
1.89505e-05
1.89517e-05
3.695e-05
3.34494e-05
3.70047e-05
3.50512e-05
2.69018e-05
3.70001e-05
3.31573e-05
3.69421e-05
3.53039e-05
2.64803e-05
3.50531e-05
2.69039e-05
3.70007e-05
3.31615e-05
3.53053e-05
2.64833e-05
3.69466e-05
1.9994e-05
2.38428e-05
3.36865e-05
2.46692e-05
3.41099e-05
3.39101e-05
2.48024e-05
2.36939e-05
1.84172e-05
2.70707e-05
3.2766e-05
3.25452e-05
1.86205e-05
1.86205e-05
3.25455e-05
2.72996e-05
3.27661e-05
1.84171e-05
2.36938e-05
3.38767e-05
3.391e-05
2.48024e-05
3.36864e-05
2.46692e-05
2.3843e-05
2.38432e-05
3.36866e-05
2.46692e-05
3.41099e-05
3.39102e-05
2.48023e-05
2.36941e-05
1.84172e-05
2.70704e-05
3.27666e-05
3.25463e-05
1.86208e-05
1.86204e-05
3.25463e-05
2.72998e-05
3.27666e-05
1.84171e-05
2.36941e-05
3.38767e-05
3.39101e-05
2.48024e-05
3.36865e-05
2.46692e-05
2.38433e-05
2.36966e-05
3.39105e-05
2.48023e-05
3.38814e-05
2.38428e-05
3.36913e-05
2.4672e-05
1.84197e-05
3.27665e-05
2.70737e-05
1.86206e-05
3.25509e-05
2.36969e-05
3.39106e-05
2.48022e-05
3.38815e-05
2.38432e-05
3.36914e-05
2.4672e-05
1.84197e-05
3.27671e-05
2.70735e-05
1.86204e-05
3.25517e-05
1.99916e-05
2.01738e-05
1.99914e-05
2.01734e-05
3.2407e-05
1.89543e-05
1.89531e-05
3.23936e-05
1.89524e-05
1.89499e-05
3.69519e-05
3.34502e-05
3.70062e-05
3.50529e-05
2.69039e-05
3.70008e-05
3.31575e-05
3.53052e-05
3.69429e-05
2.64825e-05
3.50509e-05
2.69019e-05
3.69993e-05
3.3161e-05
3.53035e-05
3.69452e-05
2.64808e-05
2.01747e-05
1.99915e-05
1.99938e-05
2.70774e-05
3.50507e-05
3.7e-05
2.69018e-05
3.31613e-05
2.64805e-05
3.53033e-05
3.69456e-05
3.50524e-05
3.70003e-05
2.69037e-05
3.31616e-05
3.69461e-05
3.53047e-05
2.64829e-05
3.24068e-05
1.8953e-05
1.89545e-05
1.89509e-05
3.23932e-05
1.89511e-05
1.99942e-05
1.84196e-05
3.27668e-05
2.70734e-05
3.25515e-05
1.86208e-05
2.36967e-05
3.3881e-05
3.39105e-05
2.48022e-05
3.36911e-05
2.38431e-05
2.46719e-05
1.84204e-05
3.27722e-05
1.86215e-05
3.25567e-05
2.36964e-05
3.38811e-05
2.48022e-05
3.39111e-05
2.38427e-05
2.46719e-05
3.36916e-05
3.52237e-05
3.52237e-05
3.52542e-05
3.52237e-05
3.52237e-05
3.5219e-05
3.5219e-05
3.52237e-05
3.52237e-05
3.52542e-05
3.52237e-05
3.52237e-05
3.5219e-05
3.5219e-05
3.6452e-05
3.70158e-05
3.70157e-05
3.68996e-05
3.69976e-05
3.69972e-05
3.65785e-05
3.64512e-05
3.7015e-05
3.70147e-05
3.68987e-05
3.69966e-05
3.69964e-05
3.65776e-05
3.65782e-05
3.69066e-05
3.69972e-05
3.69969e-05
3.70156e-05
3.70154e-05
3.64518e-05
3.64513e-05
3.70151e-05
3.70145e-05
3.68987e-05
3.69964e-05
3.69968e-05
3.65776e-05
3.65775e-05
3.69061e-05
3.69968e-05
3.69965e-05
3.70151e-05
3.70146e-05
3.64515e-05
3.6452e-05
3.70157e-05
3.70157e-05
3.68994e-05
3.65785e-05
3.69974e-05
3.69972e-05
3.65787e-05
3.69072e-05
3.70007e-05
3.70005e-05
3.70159e-05
3.70158e-05
3.64556e-05
3.64515e-05
3.70153e-05
3.70149e-05
3.68988e-05
3.69965e-05
3.65778e-05
3.6997e-05
3.65783e-05
3.69066e-05
3.69973e-05
3.69969e-05
3.70159e-05
3.70151e-05
3.64518e-05
3.64522e-05
3.70163e-05
3.70157e-05
3.68998e-05
3.69975e-05
3.69979e-05
3.65788e-05
3.69125e-05
3.70044e-05
3.70207e-05
3.69121e-05
3.70046e-05
3.70205e-05
3.64551e-05
3.70164e-05
3.70156e-05
3.69025e-05
3.69999e-05
3.65787e-05
3.70006e-05
3.52237e-05
3.52237e-05
3.52543e-05
3.52237e-05
3.52237e-05
3.5219e-05
3.5219e-05
3.52237e-05
3.52237e-05
3.52542e-05
3.52237e-05
3.52237e-05
3.5219e-05
3.5219e-05
3.52237e-05
3.52237e-05
3.52542e-05
3.52237e-05
3.52237e-05
3.5219e-05
3.5219e-05
3.52542e-05
3.52237e-05
3.52237e-05
3.52237e-05
3.52237e-05
3.5219e-05
3.5219e-05
3.52542e-05
3.52237e-05
3.52237e-05
3.52237e-05
3.52237e-05
3.5219e-05
3.5219e-05
3.52543e-05
3.52237e-05
3.52237e-05
3.52237e-05
3.52237e-05
3.5219e-05
3.5219e-05
3.52542e-05
3.52237e-05
3.52237e-05
3.52237e-05
3.52237e-05
3.5219e-05
3.5219e-05
3.57046e-05
3.60757e-05
3.56971e-05
3.60752e-05
3.61048e-05
3.5658e-05
3.57481e-05
3.5926e-05
3.62802e-05
3.50243e-05
3.60816e-05
3.62641e-05
3.60417e-05
3.5883e-05
3.5883e-05
3.60416e-05
3.52934e-05
3.62641e-05
3.62802e-05
3.60815e-05
3.5926e-05
3.57481e-05
3.60425e-05
3.61048e-05
3.5658e-05
3.60757e-05
3.56972e-05
3.57046e-05
3.52237e-05
3.52237e-05
3.52542e-05
3.52237e-05
3.52237e-05
3.5219e-05
3.5219e-05
3.52237e-05
3.52237e-05
3.52542e-05
3.52237e-05
3.52237e-05
3.5219e-05
3.5219e-05
3.52237e-05
3.52237e-05
3.52542e-05
3.52237e-05
3.52237e-05
3.5219e-05
3.5219e-05
3.52543e-05
3.52248e-05
3.52248e-05
3.52238e-05
3.52238e-05
3.52191e-05
3.52201e-05
3.52542e-05
3.52248e-05
3.52239e-05
3.52238e-05
3.52237e-05
3.5219e-05
3.52201e-05
3.52543e-05
3.52248e-05
3.52258e-05
3.52238e-05
3.52239e-05
3.5219e-05
3.52201e-05
3.52543e-05
3.5224e-05
3.52258e-05
3.52237e-05
3.52239e-05
3.52191e-05
3.52201e-05
3.57047e-05
3.60755e-05
3.60758e-05
3.56972e-05
3.6105e-05
3.56581e-05
3.57482e-05
3.59261e-05
3.62803e-05
3.60816e-05
3.50244e-05
3.5883e-05
3.62642e-05
3.60418e-05
3.57482e-05
3.60427e-05
3.61049e-05
3.56581e-05
3.57047e-05
3.60759e-05
3.56973e-05
3.58831e-05
3.60419e-05
3.52936e-05
3.62643e-05
3.62803e-05
3.60817e-05
3.59262e-05
3.57049e-05
3.56974e-05
3.60762e-05
3.60759e-05
3.56583e-05
3.61056e-05
3.57484e-05
3.59263e-05
3.6281e-05
3.50246e-05
3.60821e-05
3.62647e-05
3.60419e-05
3.58834e-05
3.58835e-05
3.6042e-05
3.52941e-05
3.62648e-05
3.62812e-05
3.60823e-05
3.59264e-05
3.57482e-05
3.60429e-05
3.56582e-05
3.61054e-05
3.56973e-05
3.60761e-05
3.57049e-05
3.65788e-05
3.69073e-05
3.69975e-05
3.69975e-05
3.70162e-05
3.7016e-05
3.64522e-05
3.52259e-05
3.52268e-05
3.59291e-05
3.62813e-05
3.60829e-05
3.5029e-05
3.58838e-05
3.62678e-05
3.60465e-05
3.57512e-05
3.60473e-05
3.61062e-05
3.56589e-05
3.57055e-05
3.60804e-05
3.57004e-05
3.65777e-05
3.69063e-05
3.69967e-05
3.69965e-05
3.64513e-05
3.7015e-05
3.70151e-05
3.64516e-05
3.68992e-05
3.70154e-05
3.70154e-05
3.65781e-05
3.69971e-05
3.69968e-05
3.57047e-05
3.60756e-05
3.5697e-05
3.60751e-05
3.61049e-05
3.5658e-05
3.57481e-05
3.59263e-05
3.62809e-05
3.50245e-05
3.60819e-05
3.60418e-05
3.62646e-05
3.58834e-05
3.58833e-05
3.60417e-05
3.52939e-05
3.62646e-05
3.60819e-05
3.62809e-05
3.59263e-05
3.57481e-05
3.60424e-05
3.61049e-05
3.5658e-05
3.60757e-05
3.56971e-05
3.57047e-05
3.57046e-05
3.60756e-05
3.56971e-05
3.60751e-05
3.61048e-05
3.5658e-05
3.57481e-05
3.59262e-05
3.62803e-05
3.50244e-05
3.60819e-05
3.60418e-05
3.62642e-05
3.58833e-05
3.58832e-05
3.60419e-05
3.52938e-05
3.62642e-05
3.60819e-05
3.59262e-05
3.62803e-05
3.57481e-05
3.60423e-05
3.61049e-05
3.5658e-05
3.60755e-05
3.56971e-05
3.57047e-05
3.57481e-05
3.61051e-05
3.5658e-05
3.60425e-05
3.57047e-05
3.60758e-05
3.56972e-05
3.58835e-05
3.62651e-05
3.52942e-05
3.6042e-05
3.62813e-05
3.60822e-05
3.59265e-05
3.59264e-05
3.6082e-05
3.6281e-05
3.50247e-05
3.62648e-05
3.58834e-05
3.60419e-05
3.57048e-05
3.60754e-05
3.60758e-05
3.56972e-05
3.61052e-05
3.56581e-05
3.57482e-05
3.57481e-05
3.61049e-05
3.5658e-05
3.60425e-05
3.57047e-05
3.60757e-05
3.56972e-05
3.58832e-05
3.62643e-05
3.52939e-05
3.6042e-05
3.6082e-05
3.62803e-05
3.59264e-05
3.59263e-05
3.6082e-05
3.62802e-05
3.50246e-05
3.58832e-05
3.6042e-05
3.62642e-05
3.57047e-05
3.60754e-05
3.60757e-05
3.56972e-05
3.6105e-05
3.56581e-05
3.57481e-05
3.65775e-05
3.69061e-05
3.69969e-05
3.69964e-05
3.70145e-05
3.70151e-05
3.64513e-05
3.64515e-05
3.68988e-05
3.70155e-05
3.70147e-05
3.6997e-05
3.65778e-05
3.69965e-05
3.57046e-05
3.60754e-05
3.56971e-05
3.6075e-05
3.61047e-05
3.5658e-05
3.5748e-05
3.59259e-05
3.62797e-05
3.50238e-05
3.60814e-05
3.60415e-05
3.62636e-05
3.58829e-05
3.5883e-05
3.60415e-05
3.52934e-05
3.62636e-05
3.60816e-05
3.62799e-05
3.59259e-05
3.5748e-05
3.60422e-05
3.61046e-05
3.56579e-05
3.60754e-05
3.56971e-05
3.57046e-05
3.57047e-05
3.56971e-05
3.60751e-05
3.60754e-05
3.56581e-05
3.61049e-05
3.57481e-05
3.59262e-05
3.62805e-05
3.60817e-05
3.50239e-05
3.60415e-05
3.58834e-05
3.62642e-05
3.5748e-05
3.60421e-05
3.5658e-05
3.61048e-05
3.56971e-05
3.60754e-05
3.57047e-05
3.58833e-05
3.60415e-05
3.52938e-05
3.62641e-05
3.60819e-05
3.59262e-05
3.62807e-05
3.5748e-05
3.61049e-05
3.56581e-05
3.60424e-05
3.57047e-05
3.60756e-05
3.56971e-05
3.58831e-05
3.62639e-05
3.52936e-05
3.60418e-05
3.62801e-05
3.6082e-05
3.59261e-05
3.5926e-05
3.60818e-05
3.62799e-05
3.5024e-05
3.62637e-05
3.58831e-05
3.60416e-05
3.57048e-05
3.60756e-05
3.60758e-05
3.56972e-05
3.61052e-05
3.56582e-05
3.57481e-05
3.57481e-05
3.56581e-05
3.60424e-05
3.61052e-05
3.57048e-05
3.56971e-05
3.60757e-05
3.58835e-05
3.62645e-05
3.6042e-05
3.52941e-05
3.60823e-05
3.59265e-05
3.62809e-05
3.57049e-05
3.60756e-05
3.56972e-05
3.60759e-05
3.56582e-05
3.61054e-05