/*--------------------------------*- C++ -*----------------------------------*\
| =========                 |                                                 |
| \\      /  F ield         | OpenFOAM: The Open Source CFD Toolbox           |
|  \\    /   O peration     | Version:  2206                                  |
|   \\  /    A nd           | Website:  www.openfoam.com                      |
|    \\/     M anipulation  |                                                 |
\*---------------------------------------------------------------------------*/
FoamFile
{
    version     2.0;
    format      ascii;
    arch        "LSB;label=32;scalar=64";
    class       volVectorField;
    location    "4.5";
    object      U;
}
// * * * * * * * * * * * * * * * * * * * * * * * * * * * * * * * * * * * * * //

dimensions      [0 1 -1 0 0 0 0];

internalField   nonuniform List<vector> 
28549
(
(-0.000144537 -6.36693e-05 1.14592e-05)
(-6.36471e-05 -0.000145064 1.14739e-05)
(-0.000230739 -0.000230422 -7.45719e-05)
(1.19907e-05 0.0002873 7.74324e-06)
(0.000288034 1.14842e-05 7.69918e-06)
(-0.000173704 -1.83419e-06 8.35314e-07)
(-0.000546013 -8.30001e-05 1.2198e-05)
(4.89818e-05 -2.49154e-05 -1.58815e-05)
(0.000116687 6.64413e-05 2.06064e-05)
(0.000120358 -9.43354e-05 5.59717e-07)
(7.06348e-05 -2.79837e-05 4.01891e-05)
(-0.000173869 1.46701e-06 8.99758e-07)
(-0.000546359 8.28539e-05 1.21704e-05)
(4.87444e-05 2.4242e-05 -1.5921e-05)
(0.000116702 -6.63796e-05 2.18294e-05)
(7.00939e-05 2.78016e-05 4.04354e-05)
(0.000119912 9.41153e-05 6.89513e-07)
(-0.00011802 -6.75252e-05 2.14117e-05)
(-0.000119497 9.41763e-05 1.31421e-06)
(0.00054601 8.27669e-05 1.10456e-05)
(-6.38274e-05 0.000145009 1.14235e-05)
(-0.000230547 0.00023084 -7.42311e-05)
(0.000287863 -1.15451e-05 7.68024e-06)
(1.16595e-05 -0.00028711 7.72276e-06)
(-0.000144374 6.38431e-05 1.13808e-05)
(-2.40305e-05 -4.81792e-05 -1.54909e-05)
(6.66886e-05 -0.000117533 1.92892e-05)
(-2.75888e-05 -7.1387e-05 4.00488e-05)
(-9.38151e-05 -0.000119782 4.92918e-07)
(2.50871e-05 -4.8216e-05 -1.53639e-05)
(-6.73515e-05 -0.000118395 1.92909e-05)
(2.73593e-05 -7.17446e-05 4.01633e-05)
(9.48248e-05 -0.000119493 9.26635e-07)
(-1.24188e-06 0.000174871 1.23237e-06)
(-8.32303e-05 0.000546207 1.19615e-05)
(2.10205e-06 0.000174922 1.22325e-06)
(8.3197e-05 0.000546468 1.12707e-05)
(0.000229761 0.000229906 -7.36871e-05)
(-0.000286649 -1.17429e-05 7.717e-06)
(-1.10286e-05 -0.000286868 7.75656e-06)
(6.40275e-05 0.000144045 9.93901e-06)
(0.000144633 6.40607e-05 1.04242e-05)
(-0.000366129 0.000205733 1.17118e-05)
(0.000205441 -0.000366033 1.20114e-05)
(6.66731e-07 7.35482e-09 9.11941e-06)
(7.57703e-05 -3.5749e-05 1.22118e-05)
(8.67598e-05 4.90975e-06 -6.95074e-06)
(0.000175448 -0.000341427 6.90987e-07)
(-3.60459e-05 7.58308e-05 1.23311e-05)
(5.53611e-06 8.57097e-05 -6.82755e-06)
(-0.000340335 0.000174502 6.54676e-07)
(-8.80399e-05 -6.11557e-05 1.6242e-05)
(-0.000161971 2.94345e-05 1.5262e-06)
(0.000116954 -6.57849e-07 1.41505e-05)
(0.000104572 -9.93283e-07 1.69164e-06)
(0.000107265 8.67706e-06 1.46648e-05)
(8.56671e-05 -5.75515e-05 2.37997e-06)
(-9.36737e-05 -5.21663e-06 1.5601e-05)
(-2.23528e-05 -9.03465e-05 1.28457e-05)
(-0.000207552 -5.83525e-07 6.66252e-06)
(0.000511537 -5.52851e-05 1.3387e-05)
(6.71359e-05 -1.30588e-06 1.20253e-05)
(0.000156419 -5.66342e-05 7.53883e-06)
(-8.81958e-05 6.12992e-05 1.6014e-05)
(0.000117087 5.24503e-07 1.40828e-05)
(-0.000162168 -2.98104e-05 1.72444e-06)
(0.000104415 5.38021e-07 1.8801e-06)
(0.000107519 -8.93855e-06 1.42875e-05)
(-9.37501e-05 5.20427e-06 1.56494e-05)
(8.54305e-05 5.71794e-05 2.75682e-06)
(-2.2382e-05 9.03728e-05 1.25211e-05)
(-0.000207899 4.58674e-07 6.95713e-06)
(0.000511364 5.54139e-05 1.37045e-05)
(6.72175e-05 1.1469e-06 1.14074e-05)
(0.000156264 5.65435e-05 7.98356e-06)
(2.25129e-05 9.04609e-05 1.27882e-05)
(0.000208399 3.6836e-07 6.88914e-06)
(-0.000510772 5.59471e-05 1.35686e-05)
(-6.7158e-05 1.40208e-06 1.05881e-05)
(-0.000156014 5.72021e-05 8.16935e-06)
(7.22538e-05 -4.81703e-05 1.23044e-05)
(-1.77718e-05 1.75356e-05 1.00932e-05)
(0.000205328 0.000366293 1.23449e-05)
(-0.000366262 -0.000205652 1.23008e-05)
(4.93368e-07 1.8331e-07 9.11829e-06)
(-0.000125604 -0.000217277 1.31683e-05)
(0.000216864 0.00012521 1.3236e-05)
(0.000129863 7.39356e-05 1.76043e-06)
(-3.65612e-05 -7.57034e-05 1.23387e-05)
(5.26409e-06 -8.59856e-05 -7.09872e-06)
(-9.17785e-05 -3.15729e-05 8.67674e-06)
(0.000137451 -3.80726e-05 -6.38453e-06)
(-0.000340755 -0.000174643 4.53724e-07)
(2.05981e-05 3.30891e-06 1.40113e-05)
(-7.29845e-05 -0.000129719 2.18776e-06)
(7.57483e-05 3.58298e-05 1.24905e-05)
(8.66368e-05 -4.67011e-06 -6.97927e-06)
(3.1959e-05 9.15268e-05 8.8525e-06)
(0.000175089 0.000341601 8.43725e-07)
(-3.76529e-06 -2.03094e-05 1.41593e-05)
(3.88245e-05 -0.000136896 -6.11056e-06)
(4.78642e-05 -7.25801e-05 1.30968e-05)
(-6.2137e-05 8.83948e-05 1.66072e-05)
(3.01128e-05 0.000162839 1.91971e-06)
(-1.14308e-06 -0.000116655 1.30667e-05)
(-2.64972e-07 -0.000103798 2.06037e-06)
(8.1272e-06 -0.000107152 1.36131e-05)
(-5.68739e-05 -8.51786e-05 2.84057e-06)
(-5.9886e-06 9.42847e-05 1.61019e-05)
(-9.10623e-05 2.19868e-05 1.35399e-05)
(-4.43948e-07 0.000208148 6.81927e-06)
(-5.6054e-05 -0.000511353 1.42289e-05)
(-1.9315e-06 -6.74022e-05 1.15157e-05)
(-5.67149e-05 -0.000156196 8.12076e-06)
(6.06818e-05 8.8703e-05 1.65806e-05)
(-2.91654e-05 0.000163062 1.93278e-06)
(2.07154e-07 -0.000116513 1.31887e-05)
(1.23666e-06 -0.000103913 2.03095e-06)
(-9.13492e-06 -0.000107034 1.35934e-05)
(5.78411e-05 -8.50555e-05 2.92118e-06)
(4.68773e-06 9.43209e-05 1.62505e-05)
(8.98228e-05 2.27368e-05 1.3001e-05)
(8.65936e-07 0.000208494 6.71495e-06)
(5.54346e-05 -0.000510914 1.42387e-05)
(1.12355e-06 -6.70662e-05 1.07033e-05)
(5.70419e-05 -0.000155908 8.2437e-06)
(1.83459e-05 1.81827e-05 1.07257e-05)
(-0.000205127 0.000365773 1.07696e-05)
(0.000366155 -0.000205136 1.08885e-05)
(4.96135e-07 -1.66659e-07 9.53401e-06)
(0.000126167 -0.000217457 1.27147e-05)
(-0.000217389 0.000126184 1.30044e-05)
(-0.000129812 7.3037e-05 2.78732e-06)
(3.59225e-05 -7.59759e-05 1.14402e-05)
(-4.78065e-06 -8.59087e-05 -6.08466e-06)
(9.18297e-05 -3.14653e-05 9.05224e-06)
(0.000341844 -0.000174422 1.68004e-06)
(-0.000137411 -3.87337e-05 -4.97725e-06)
(-1.96019e-05 3.37955e-06 1.38142e-05)
(7.40365e-05 -0.000129949 2.67614e-06)
(-7.55477e-05 3.65189e-05 1.16079e-05)
(-8.54224e-05 -4.96485e-06 -6.56212e-06)
(-3.12423e-05 9.2268e-05 9.24317e-06)
(-0.000173909 0.000341288 1.55299e-06)
(-3.799e-05 -0.000137762 -5.38909e-06)
(3.40554e-06 -1.98306e-05 1.42238e-05)
(-7.18803e-05 -4.81052e-05 1.23276e-05)
(-4.85982e-05 -7.16046e-05 1.30695e-05)
(-0.000140006 -0.000138115 7.76959e-05)
(0.000127354 -6.00679e-05 2.27021e-05)
(-6.05295e-05 0.000127684 2.37278e-05)
(6.09241e-05 6.16453e-05 1.5061e-05)
(0.000138695 -0.000139054 7.76037e-05)
(-0.000127854 -5.99672e-05 2.32255e-05)
(5.9694e-05 0.000127845 2.30567e-05)
(-6.17948e-05 6.14334e-05 1.51957e-05)
(-0.000139489 0.000139028 7.71667e-05)
(-6.08319e-05 -0.000128047 2.31698e-05)
(0.000127291 6.03875e-05 2.303e-05)
(6.10638e-05 -6.1431e-05 1.49234e-05)
(0.000138808 0.000138969 7.67782e-05)
(5.98369e-05 -0.000127885 2.29207e-05)
(-0.000128263 6.01267e-05 2.30165e-05)
(-6.17188e-05 -6.17497e-05 1.50277e-05)
(-0.00023748 7.67668e-05 -3.317e-05)
(7.65877e-05 -0.000237692 -3.30635e-05)
(-0.000172436 -0.000172962 -1.60576e-05)
(0.000166976 -1.33871e-05 -3.69286e-05)
(3.35499e-05 -6.65306e-05 -1.70536e-05)
(-0.000247877 1.32415e-05 -3.08725e-05)
(-6.56365e-05 1.80677e-05 -1.55562e-05)
(-0.000272971 6.60919e-05 -3.48422e-05)
(-7.09898e-05 2.48672e-05 -1.65171e-05)
(0.000144277 2.70685e-06 -3.31338e-05)
(0.000210637 4.93427e-06 -3.17994e-05)
(4.77068e-05 -0.000190663 -1.26104e-05)
(-0.000220642 0.000187771 -7.72018e-06)
(-4.85466e-05 5.49902e-05 1.30073e-06)
(0.000268828 1.91688e-05 -8.69347e-06)
(-0.000262905 9.72752e-05 -3.03032e-05)
(-7.43878e-05 0.000126148 -1.17776e-05)
(0.000166525 1.30412e-05 -3.69934e-05)
(-0.000248141 -1.37738e-05 -3.07978e-05)
(3.32296e-05 6.59779e-05 -1.72723e-05)
(-6.57405e-05 -1.87449e-05 -1.55517e-05)
(-0.000273474 -6.65139e-05 -3.50263e-05)
(0.000144034 -3.14626e-06 -3.30301e-05)
(-7.12219e-05 -2.53707e-05 -1.6616e-05)
(0.000210247 -5.22186e-06 -3.16065e-05)
(4.71969e-05 0.000190339 -1.24959e-05)
(-0.000221032 -0.000188163 -7.64445e-06)
(-4.86491e-05 -5.51848e-05 1.36793e-06)
(-0.00026332 -9.77307e-05 -3.00842e-05)
(-7.45106e-05 -0.000126532 -1.1593e-05)
(0.000268437 -1.96483e-05 -8.72462e-06)
(-0.000210521 -5.31955e-06 -3.04507e-05)
(-4.68215e-05 0.000190605 -1.1562e-05)
(0.000220483 -0.000188689 -6.96031e-06)
(4.86635e-05 -5.53915e-05 2.00557e-06)
(0.000262409 -9.80922e-05 -2.93429e-05)
(7.44426e-05 -0.000126622 -1.04765e-05)
(-0.000268767 -2.0015e-05 -7.65704e-06)
(3.16862e-05 -3.15711e-05 -1.34793e-05)
(0.000161345 -0.000160896 -7.36968e-05)
(7.65003e-05 0.000237833 -3.28003e-05)
(-0.000237438 -7.64765e-05 -3.32841e-05)
(-2.72174e-05 -7.16443e-05 -3.0657e-05)
(-0.00017262 0.000173168 -1.60236e-05)
(7.22171e-05 2.72056e-05 -3.10877e-05)
(-1.2014e-05 -0.000166831 -3.62715e-05)
(1.38192e-05 0.00024743 -3.04335e-05)
(-6.55938e-05 -3.27966e-05 -1.67561e-05)
(1.92376e-05 6.56507e-05 -1.48944e-05)
(6.66727e-05 0.000272825 -3.46202e-05)
(3.75549e-06 -0.000144404 -3.23707e-05)
(2.62724e-05 7.1076e-05 -1.59157e-05)
(6.21503e-06 -0.000210552 -3.1825e-05)
(-0.000189987 -4.70182e-05 -1.24489e-05)
(0.000188752 0.000220961 -8.26938e-06)
(5.57744e-05 4.88259e-05 1.24785e-06)
(9.78767e-05 0.000262924 -3.05418e-05)
(2.06162e-05 -0.000268211 -9.1797e-06)
(0.000127229 7.45891e-05 -1.14299e-05)
(1.35252e-05 -0.000167016 -3.6044e-05)
(-1.32238e-05 0.000247231 -3.02283e-05)
(6.68384e-05 -3.28419e-05 -1.65417e-05)
(-1.7532e-05 6.5568e-05 -1.48038e-05)
(-6.59496e-05 0.00027231 -3.44807e-05)
(-2.27701e-06 -0.000144395 -3.22099e-05)
(-2.44805e-05 7.0805e-05 -1.56405e-05)
(-5.07881e-06 -0.000210724 -3.14291e-05)
(0.000191236 -4.6944e-05 -1.21619e-05)
(-0.000187965 0.000220417 -7.83412e-06)
(-5.47259e-05 4.87057e-05 1.70144e-06)
(-9.71985e-05 0.000262436 -3.034e-05)
(-0.00012601 7.43895e-05 -1.10314e-05)
(-1.92748e-05 -0.000269087 -8.47945e-06)
(-3.20198e-05 -3.21009e-05 -1.24062e-05)
(-0.000160987 -0.000161691 -7.267e-05)
(-7.71415e-05 0.000236972 -3.21581e-05)
(0.000237075 -7.6766e-05 -3.2449e-05)
(0.000173151 0.000173109 -1.50342e-05)
(2.69246e-05 -7.20973e-05 -2.96986e-05)
(-7.17995e-05 2.67761e-05 -3.00136e-05)
(-0.000139148 -0.000139221 7.831e-05)
(-0.000117349 6.682e-05 1.96768e-05)
(-0.000139051 -0.000138874 7.66456e-05)
(-0.000117345 6.67879e-05 1.91214e-05)
(6.57265e-05 -0.000115738 1.9269e-05)
(0.00023061 0.000231666 -7.38114e-05)
(-0.000116256 6.56848e-05 1.831e-05)
(-0.000231193 -0.000230651 -7.46161e-05)
(0.000160864 0.000160309 -7.37215e-05)
(6.6669e-05 0.000117128 2.19523e-05)
(-6.65593e-05 0.00011719 2.21619e-05)
(6.61969e-05 0.000116895 2.15748e-05)
(-6.67136e-05 0.000117338 2.16155e-05)
(0.000230794 -0.000230653 -7.45611e-05)
(-0.000161108 0.000161359 -7.45021e-05)
(0.000117056 6.65698e-05 1.99013e-05)
(0.00011685 -6.61849e-05 2.2286e-05)
(0.00011637 6.60835e-05 1.9527e-05)
(0.000116066 -6.54924e-05 2.17939e-05)
(-0.00011699 -6.63356e-05 2.24264e-05)
(-0.000117498 6.69893e-05 1.92018e-05)
(-0.000116843 -6.62513e-05 2.1889e-05)
(-0.000231071 -0.000230568 -7.37859e-05)
(0.000161564 0.000161153 -7.33051e-05)
(6.61806e-05 0.000116865 2.13295e-05)
(-6.65394e-05 0.000117081 2.14725e-05)
(6.7137e-05 0.000117844 2.01959e-05)
(-6.5802e-05 0.000116092 2.08439e-05)
(0.000230837 -0.000230725 -7.47794e-05)
(-0.000160297 0.000160589 -7.40862e-05)
(0.000116598 6.61575e-05 1.92111e-05)
(0.000116143 -6.55089e-05 2.16088e-05)
(0.000117938 6.7097e-05 1.82719e-05)
(0.000116542 -6.57533e-05 2.09606e-05)
(-0.000116655 -6.59608e-05 2.15205e-05)
(-0.0001163 6.60641e-05 1.84781e-05)
(-0.000116274 -6.61861e-05 2.04629e-05)
(-0.000231129 0.000231219 -7.37363e-05)
(0.000160193 -0.000160124 -7.23285e-05)
(-6.58509e-05 -0.000116327 1.93348e-05)
(-0.000160175 -0.000160857 -7.21558e-05)
(-6.56871e-05 0.000115437 2.10118e-05)
(0.000230835 -0.000230604 -7.39878e-05)
(-5.75144e-07 0.000103921 2.18642e-06)
(-8.29703e-05 -0.000546273 1.27998e-05)
(-5.57984e-05 0.000511719 1.36258e-05)
(-1.64719e-06 -0.000173652 1.03272e-06)
(0.000144921 -6.37656e-05 1.18241e-05)
(-4.80987e-05 7.24234e-05 1.23089e-05)
(0.000104206 -8.86261e-07 1.43511e-06)
(-0.000546486 -8.33113e-05 1.27312e-05)
(0.000511679 -5.50647e-05 1.35537e-05)
(-0.000173367 -1.7908e-06 1.75903e-07)
(0.000139001 -0.000139097 7.8178e-05)
(-0.000139367 0.000139466 7.85786e-05)
(0.000139181 0.00013955 7.81901e-05)
(-0.000139249 -0.000138949 7.71816e-05)
(0.00013888 -0.000138946 7.75893e-05)
(-0.000139299 0.000139437 7.71833e-05)
(0.000139126 0.000139293 7.71496e-05)
(6.57562e-05 1.78746e-05 -1.51962e-05)
(-0.000120231 -9.4055e-05 4.65311e-07)
(-7.10002e-05 -2.75795e-05 4.06735e-05)
(-0.00011734 6.68909e-05 1.97e-05)
(4.8677e-05 5.53177e-05 1.50462e-06)
(-7.09555e-05 -2.754e-05 4.05309e-05)
(-4.90756e-05 -2.46506e-05 -1.56071e-05)
(-1.10107e-06 0.00010467 3.19292e-06)
(-8.22118e-05 -0.000545555 1.1665e-05)
(-1.3717e-06 -0.000173394 1.62093e-06)
(-5.55863e-05 0.000510755 1.24347e-05)
(0.000144708 -6.39808e-05 1.18803e-05)
(-4.83335e-05 7.22446e-05 1.22709e-05)
(0.000104518 -1.30739e-06 3.62436e-06)
(-0.000545512 -8.25867e-05 1.12093e-05)
(-0.000173512 -1.94879e-06 1.84408e-06)
(0.000510561 -5.55397e-05 1.23442e-05)
(0.000138938 -0.000138964 7.74119e-05)
(-0.000139242 0.000139452 7.67294e-05)
(0.000139113 0.000139285 7.6852e-05)
(-0.000138514 -0.000138837 7.56915e-05)
(0.000139209 -0.000139124 7.64159e-05)
(-0.000139143 0.000139412 7.53651e-05)
(0.000138972 0.000138966 7.53611e-05)
(6.5369e-05 1.79348e-05 -1.47546e-05)
(-0.000120381 -9.43322e-05 5.9088e-07)
(-7.06699e-05 -2.74959e-05 3.99075e-05)
(-0.000117048 6.65257e-05 1.89206e-05)
(-4.87669e-05 -2.51498e-05 -1.51879e-05)
(4.85791e-05 5.54465e-05 1.53345e-06)
(-7.03082e-05 -2.75874e-05 3.98021e-05)
(-6.34568e-05 0.000144921 1.06268e-05)
(7.23309e-05 -4.79506e-05 1.04287e-05)
(1.88063e-05 6.52715e-05 -1.31976e-05)
(-2.78287e-05 -6.95675e-05 3.9926e-05)
(-9.38814e-05 -0.000120042 7.57539e-07)
(6.55953e-05 -0.000115669 1.90695e-05)
(-2.77459e-05 -6.95806e-05 3.95207e-05)
(5.58296e-05 4.86352e-05 2.51912e-06)
(-2.39991e-05 -4.82878e-05 -1.42959e-05)
(-0.000287404 -1.20068e-05 7.89262e-06)
(-1.12887e-05 -0.000287865 7.90376e-06)
(-0.000160385 -0.000160599 -7.30231e-05)
(9.10011e-05 -3.18381e-05 8.87334e-06)
(-3.17878e-05 9.12204e-05 9.11329e-06)
(0.000145135 -6.33849e-05 1.10772e-05)
(0.000139306 -0.000139311 7.60254e-05)
(-0.000120089 -9.43919e-05 1.95724e-06)
(-6.97662e-05 -2.78787e-05 3.88995e-05)
(-4.86496e-05 -2.45384e-05 -1.28055e-05)
(-0.000144226 -6.39651e-05 1.2494e-05)
(4.76257e-05 7.2916e-05 1.24565e-05)
(-6.3873e-05 -0.000144978 1.27154e-05)
(7.24389e-05 4.83145e-05 1.2681e-05)
(1.16492e-05 0.000287629 7.699e-06)
(0.000288134 1.14847e-05 7.46242e-06)
(0.000161152 0.000160563 -7.44447e-05)
(3.19051e-05 -9.10112e-05 8.5013e-06)
(-9.16322e-05 3.19069e-05 8.20542e-06)
(4.79797e-05 7.23154e-05 1.17352e-05)
(-0.000144303 -6.37581e-05 1.16948e-05)
(7.18956e-05 4.85333e-05 1.12839e-05)
(-6.37159e-05 -0.000144966 1.19442e-05)
(-0.000231376 -0.00023093 -7.41663e-05)
(3.176e-05 -9.11674e-05 8.80942e-06)
(-9.17206e-05 3.171e-05 8.60746e-06)
(1.19723e-05 0.000287672 7.91877e-06)
(0.000288247 1.15298e-05 7.69867e-06)
(8.11137e-07 0.000104058 2.24329e-06)
(8.31294e-05 -0.000546206 1.2286e-05)
(5.54084e-05 0.000511418 1.35737e-05)
(1.5814e-06 -0.000173569 1.03744e-06)
(1.87233e-05 -6.59444e-05 -1.53652e-05)
(-9.4128e-05 0.000120364 2.44263e-07)
(-2.78695e-05 7.03935e-05 4.08584e-05)
(6.62628e-05 0.000116746 2.20628e-05)
(5.55705e-05 -4.84005e-05 1.10971e-06)
(-2.79192e-05 7.01658e-05 4.07726e-05)
(-2.45787e-05 4.8849e-05 -1.58906e-05)
(-1.81604e-05 -6.5815e-05 -1.51666e-05)
(9.41918e-05 0.000120065 5.40092e-07)
(2.77672e-05 7.04206e-05 4.09689e-05)
(-6.65345e-05 0.000117139 2.20639e-05)
(-5.5192e-05 -4.84871e-05 1.43111e-06)
(2.76598e-05 7.02841e-05 4.08474e-05)
(2.45144e-05 4.88636e-05 -1.57109e-05)
(-1.32535e-06 -0.000173904 1.22038e-06)
(-5.5523e-05 0.000511377 1.30358e-05)
(-8.27298e-05 -0.00054591 1.22458e-05)
(-6.86356e-07 0.000104921 2.45704e-06)
(1.80249e-06 -0.000173925 1.24675e-06)
(5.51926e-05 0.000511447 1.37608e-05)
(8.29747e-05 -0.000546166 1.21515e-05)
(8.97192e-07 0.000104906 2.45266e-06)
(-2.42364e-05 4.86573e-05 -1.53666e-05)
(6.616e-05 0.000116794 2.16442e-05)
(5.55606e-05 -4.83006e-05 1.67646e-06)
(-2.79888e-05 7.02631e-05 4.01405e-05)
(-9.38771e-05 0.000120275 6.12681e-07)
(-2.79723e-05 7.02414e-05 4.03159e-05)
(1.85443e-05 -6.53592e-05 -1.49728e-05)
(2.47902e-05 4.86686e-05 -1.52515e-05)
(-6.6613e-05 0.000117297 2.1782e-05)
(-5.53521e-05 -4.84386e-05 1.51155e-06)
(2.76615e-05 7.04356e-05 4.03732e-05)
(9.43535e-05 0.000120095 7.3695e-07)
(2.76496e-05 7.04976e-05 4.04825e-05)
(-1.82756e-05 -6.53218e-05 -1.49154e-05)
(-1.15379e-05 0.000287943 7.8111e-06)
(-0.000287303 1.1667e-05 8.01525e-06)
(-0.000160882 0.000161172 -7.42586e-05)
(-3.16283e-05 -9.16153e-05 8.67162e-06)
(9.14009e-05 3.16778e-05 8.98064e-06)
(6.3591e-05 -0.000144536 1.1171e-05)
(-7.23062e-05 4.79736e-05 1.18616e-05)
(-4.8391e-05 7.21062e-05 1.26239e-05)
(0.000144826 -6.38097e-05 1.15319e-05)
(0.000230777 -0.000230654 -7.46531e-05)
(-3.17103e-05 -9.17503e-05 8.86274e-06)
(9.13626e-05 3.16575e-05 9.09876e-06)
(-1.15324e-05 0.000287931 7.80052e-06)
(-0.000287403 1.16198e-05 8.01356e-06)
(-7.22022e-05 4.80399e-05 1.2224e-05)
(6.36857e-05 -0.000144439 1.10846e-05)
(-6.60145e-05 1.79523e-05 -1.61182e-05)
(0.000120443 -9.38172e-05 -1.03632e-07)
(7.07287e-05 -2.76214e-05 4.09739e-05)
(0.000116682 6.61854e-05 1.99794e-05)
(-4.86546e-05 5.518e-05 8.07087e-07)
(7.0349e-05 -2.75463e-05 4.08442e-05)
(4.9354e-05 -2.46684e-05 -1.66157e-05)
(0.000104216 3.25886e-07 1.46973e-06)
(-0.00054672 8.34085e-05 1.32696e-05)
(-0.000173353 1.48184e-06 1.6342e-07)
(0.000512019 5.56903e-05 1.35929e-05)
(-6.59748e-05 -1.90977e-05 -1.61584e-05)
(7.0455e-05 2.78409e-05 4.12597e-05)
(0.00012033 9.35858e-05 -3.87118e-07)
(0.000116183 -6.56006e-05 2.23823e-05)
(6.99294e-05 2.78816e-05 4.10994e-05)
(4.92602e-05 2.42806e-05 -1.67032e-05)
(-4.87135e-05 -5.55241e-05 5.99029e-07)
(-0.000173389 -1.89539e-06 7.42816e-07)
(0.000511067 -5.50537e-05 1.2551e-05)
(-0.000545941 -8.28817e-05 1.22127e-05)
(0.000104937 -1.06515e-06 2.58342e-06)
(4.90203e-05 -2.4988e-05 -1.54339e-05)
(0.000116467 6.61035e-05 1.96402e-05)
(-4.85505e-05 5.52802e-05 1.82231e-06)
(6.9943e-05 -2.75654e-05 4.02806e-05)
(0.000120542 -9.4116e-05 4.21737e-07)
(7.00405e-05 -2.75353e-05 4.05125e-05)
(-6.53513e-05 1.78258e-05 -1.44868e-05)
(-0.000173436 1.15965e-06 7.84935e-07)
(0.000511215 5.57699e-05 1.30537e-05)
(0.000104861 3.81525e-07 2.62253e-06)
(-0.000546049 8.2926e-05 1.22094e-05)
(4.88646e-05 2.39316e-05 -1.54517e-05)
(0.000115982 -6.54203e-05 2.20768e-05)
(6.95633e-05 2.7941e-05 4.04604e-05)
(-4.8688e-05 -5.57569e-05 1.65034e-06)
(6.96785e-05 2.79468e-05 4.07569e-05)
(-6.53507e-05 -1.91645e-05 -1.45253e-05)
(0.000120129 9.35587e-05 3.18988e-07)
(-0.000104122 -1.00294e-06 2.16989e-06)
(0.000545866 -8.29023e-05 1.18051e-05)
(-0.000511083 -5.55678e-05 1.31852e-05)
(0.000173531 -1.72417e-06 1.0715e-06)
(6.58181e-05 -1.90506e-05 -1.51894e-05)
(-7.0644e-05 2.78739e-05 4.09469e-05)
(-0.000120132 9.37931e-05 -3.71778e-09)
(-0.000116711 -6.63592e-05 2.24476e-05)
(-7.04212e-05 2.81803e-05 4.09659e-05)
(-4.89112e-05 2.43084e-05 -1.57069e-05)
(4.85648e-05 -5.54201e-05 1.34785e-06)
(-0.000104041 4.63121e-07 2.18885e-06)
(0.000546137 8.30097e-05 1.24979e-05)
(0.000173611 1.38779e-06 9.34819e-07)
(-0.000511658 5.62448e-05 1.33797e-05)
(-4.8918e-05 -2.50439e-05 -1.54516e-05)
(-0.000117421 6.68892e-05 1.93498e-05)
(4.85555e-05 5.53168e-05 1.41632e-06)
(-7.07616e-05 -2.75582e-05 4.0176e-05)
(-0.000120374 -9.42807e-05 6.47712e-07)
(-7.08457e-05 -2.73716e-05 4.02434e-05)
(6.55886e-05 1.78071e-05 -1.49101e-05)
(0.000173712 -1.95386e-06 1.02186e-06)
(-0.000511121 -5.55054e-05 1.35284e-05)
(0.0005459 -8.27957e-05 1.16788e-05)
(-0.00010449 -1.13493e-06 2.46501e-06)
(-4.87344e-05 2.39082e-05 -1.53866e-05)
(-0.000116616 -6.55673e-05 2.20387e-05)
(-7.03426e-05 2.81178e-05 4.01712e-05)
(4.85603e-05 -5.56751e-05 1.4209e-06)
(-7.05262e-05 2.7871e-05 4.0552e-05)
(6.55494e-05 -1.90252e-05 -1.48918e-05)
(-0.000119668 9.34132e-05 6.37425e-07)
(0.000173815 1.12449e-06 1.0543e-06)
(-0.000511223 5.59295e-05 1.39666e-05)
(-0.000104513 4.63274e-07 2.39189e-06)
(0.000546345 8.27733e-05 1.17801e-05)
(-0.000144089 -6.37746e-05 1.09016e-05)
(4.80475e-05 7.19407e-05 1.07974e-05)
(-6.35932e-05 -0.000144916 1.0424e-05)
(7.17866e-05 4.83749e-05 1.07923e-05)
(1.1996e-05 0.000287444 8.1574e-06)
(0.000288011 1.1464e-05 8.01185e-06)
(0.000160799 0.000160336 -7.29423e-05)
(3.15303e-05 -9.1254e-05 9.23397e-06)
(-9.16486e-05 3.1581e-05 9.17347e-06)
(4.83521e-05 7.17237e-05 1.12133e-05)
(-0.000144181 -6.3673e-05 1.0108e-05)
(7.15942e-05 4.87318e-05 1.10786e-05)
(-6.34752e-05 -0.00014501 1.00166e-05)
(-0.000230597 -0.000230006 -7.38628e-05)
(3.12248e-05 -9.13526e-05 9.40718e-06)
(-9.17939e-05 3.15403e-05 9.2862e-06)
(1.17382e-05 0.000287207 8.49316e-06)
(0.000287749 1.14772e-05 8.36801e-06)
(4.94225e-07 0.000104774 3.09741e-06)
(8.2867e-05 -0.000546265 1.23815e-05)
(1.75531e-06 -0.000173474 1.55935e-06)
(5.53719e-05 0.000511714 1.35599e-05)
(1.78267e-05 -6.53546e-05 -1.39425e-05)
(-9.41418e-05 0.000120251 1.13394e-06)
(-2.79337e-05 6.99995e-05 3.98726e-05)
(6.64017e-05 0.000117086 2.10215e-05)
(-2.43626e-05 4.88201e-05 -1.48356e-05)
(5.54069e-05 -4.83269e-05 2.4493e-06)
(-2.77846e-05 7.01516e-05 3.95122e-05)
(-1.90134e-05 -6.52562e-05 -1.40172e-05)
(9.44625e-05 0.000120016 8.5329e-07)
(2.77911e-05 7.01495e-05 4.02433e-05)
(-6.6217e-05 0.000116681 2.13614e-05)
(2.4733e-05 4.8785e-05 -1.48642e-05)
(-5.58672e-05 -4.82795e-05 1.73187e-06)
(2.78983e-05 7.00291e-05 3.99346e-05)
(-1.8709e-06 -0.000174117 2.23713e-06)
(-5.58555e-05 0.000510881 1.2911e-05)
(-8.22418e-05 -0.000545579 1.11041e-05)
(-1.54391e-06 0.000104783 3.31137e-06)
(1.1863e-06 -0.000174041 2.15542e-06)
(5.55217e-05 0.000511773 1.30038e-05)
(8.31406e-05 -0.000546031 1.23043e-05)
(8.5274e-08 0.000104893 3.22322e-06)
(-2.50595e-05 4.82758e-05 -1.40756e-05)
(6.67313e-05 0.00011744 2.06641e-05)
(5.51333e-05 -4.82054e-05 2.60979e-06)
(-2.75221e-05 7.04124e-05 3.88996e-05)
(-9.4755e-05 0.000119949 1.69986e-06)
(-2.76113e-05 7.03642e-05 3.91531e-05)
(1.71589e-05 -6.50509e-05 -1.3698e-05)
(2.40545e-05 4.82949e-05 -1.41166e-05)
(-6.59025e-05 0.000116325 2.11751e-05)
(-5.60386e-05 -4.79619e-05 2.06777e-06)
(2.81792e-05 6.98562e-05 3.92367e-05)
(9.43065e-05 0.000119816 1.24784e-06)
(2.80058e-05 7.00038e-05 3.96934e-05)
(-1.96797e-05 -6.50096e-05 -1.37365e-05)
(-1.1484e-05 0.000287825 7.95015e-06)
(-0.000287427 1.16287e-05 8.13104e-06)
(-0.00016075 0.000161057 -7.44012e-05)
(-3.19931e-05 -9.14025e-05 8.88993e-06)
(9.14642e-05 3.17398e-05 9.19107e-06)
(6.37138e-05 -0.00014438 1.13037e-05)
(-7.20575e-05 4.81742e-05 1.19455e-05)
(-4.86716e-05 7.2041e-05 1.17265e-05)
(0.00014494 -6.36844e-05 1.16131e-05)
(0.000231146 -0.000231023 -7.45016e-05)
(-3.20286e-05 -9.11774e-05 8.95913e-06)
(9.13711e-05 3.18237e-05 9.28911e-06)
(-1.16989e-05 0.000287992 8.25279e-06)
(-0.000287116 1.16619e-05 8.48292e-06)
(-7.18141e-05 4.82588e-05 1.12687e-05)
(6.37922e-05 -0.00014416 1.11761e-05)
(-6.52875e-05 1.7571e-05 -1.29902e-05)
(0.000120244 -9.45703e-05 1.32342e-06)
(7.00621e-05 -2.75154e-05 3.99421e-05)
(0.000117083 6.64156e-05 1.89169e-05)
(4.86402e-05 -2.51624e-05 -1.39386e-05)
(-4.84864e-05 5.54168e-05 2.73188e-06)
(7.04122e-05 -2.7432e-05 3.95781e-05)
(0.000104577 2.2212e-07 3.67534e-06)
(-0.000545769 8.28112e-05 1.16205e-05)
(-0.000173611 1.03705e-06 1.87442e-06)
(0.0005111 5.61564e-05 1.24027e-05)
(-6.52067e-05 -1.94348e-05 -1.29802e-05)
(6.97183e-05 2.79984e-05 4.01485e-05)
(0.000119758 9.37948e-05 1.20251e-06)
(0.000116155 -6.54255e-05 2.14289e-05)
(4.84635e-05 2.3794e-05 -1.39654e-05)
(6.99267e-05 2.80332e-05 3.97582e-05)
(-4.84206e-05 -5.62577e-05 2.5561e-06)
(-0.000174435 -2.11365e-06 2.50653e-06)
(0.000510935 -5.54921e-05 1.26016e-05)
(-0.000545699 -8.27422e-05 1.09489e-05)
(0.000105028 -1.42625e-06 3.53132e-06)
(4.8046e-05 -2.54721e-05 -1.32237e-05)
(0.000117556 6.67538e-05 1.85072e-05)
(-4.82096e-05 5.54289e-05 2.72903e-06)
(7.09164e-05 -2.72657e-05 3.8909e-05)
(0.000119894 -9.48737e-05 1.88706e-06)
(7.08159e-05 -2.73092e-05 3.90746e-05)
(-6.46723e-05 1.74957e-05 -1.28579e-05)
(-0.000174439 8.53669e-07 2.55167e-06)
(0.000510859 5.60635e-05 1.25807e-05)
(-0.000545612 8.27569e-05 1.08242e-05)
(0.000105138 2.67102e-07 3.67669e-06)
(4.78643e-05 2.35842e-05 -1.31507e-05)
(0.000116215 -6.54997e-05 2.09976e-05)
(7.02618e-05 2.79157e-05 3.89609e-05)
(-4.83398e-05 -5.59362e-05 2.89884e-06)
(7.01799e-05 2.80412e-05 3.92731e-05)
(0.000119308 9.39214e-05 1.78298e-06)
(-6.45886e-05 -1.94077e-05 -1.27826e-05)
(-0.000104987 -1.14823e-06 2.67469e-06)
(0.00054612 -8.26804e-05 1.1989e-05)
(0.000173888 -2.00092e-06 1.32511e-06)
(-0.000511151 -5.52296e-05 1.33204e-05)
(6.5276e-05 -1.8939e-05 -1.45754e-05)
(-7.02186e-05 2.80248e-05 4.0086e-05)
(-0.000119966 9.38126e-05 8.6365e-07)
(-0.000116376 -6.57859e-05 2.12413e-05)
(-4.8654e-05 2.39096e-05 -1.51075e-05)
(-6.98192e-05 2.7982e-05 3.98731e-05)
(4.82222e-05 -5.57325e-05 2.00662e-06)
(-0.000105214 4.63716e-07 2.77586e-06)
(0.000546098 8.27559e-05 1.23541e-05)
(0.000173844 1.11075e-06 1.28433e-06)
(-0.000511481 5.53541e-05 1.3313e-05)
(-4.86386e-05 -2.5005e-05 -1.4362e-05)
(-0.000116589 6.62678e-05 1.87977e-05)
(4.83936e-05 5.58517e-05 2.09541e-06)
(-6.98122e-05 -2.78227e-05 3.93009e-05)
(-0.000120147 -9.44958e-05 9.80774e-07)
(-6.99236e-05 -2.77183e-05 3.95198e-05)
(6.48735e-05 1.85449e-05 -1.36141e-05)
(0.000173665 -1.78122e-06 1.88754e-06)
(-0.00051095 -5.51074e-05 1.27037e-05)
(0.000546115 -8.22259e-05 1.19388e-05)
(-0.000105675 -7.87474e-07 3.37502e-06)
(-4.85006e-05 2.40348e-05 -1.41095e-05)
(-0.000116172 -6.57814e-05 2.11924e-05)
(-6.9514e-05 2.78559e-05 3.90865e-05)
(4.79211e-05 -5.57603e-05 2.80235e-06)
(-6.96152e-05 2.78564e-05 3.95211e-05)
(-0.000119911 9.42041e-05 1.58483e-06)
(6.49113e-05 -1.83185e-05 -1.33378e-05)
(0.000173637 1.15677e-06 2.02083e-06)
(-0.000510898 5.53564e-05 1.24466e-05)
(0.000545619 8.21046e-05 1.18991e-05)
(-0.000105625 9.35947e-07 3.50367e-06)
(0.000287991 -1.1948e-05 7.86098e-06)
(1.18884e-05 -0.000287549 7.82517e-06)
(0.000160266 -0.000159959 -7.30468e-05)
(-9.12801e-05 -3.20132e-05 9.01551e-06)
(3.17102e-05 9.08989e-05 9.18158e-06)
(-0.00014463 6.34175e-05 1.071e-05)
(4.74235e-05 -7.26642e-05 1.09506e-05)
(7.18374e-05 -4.81864e-05 1.09384e-05)
(-6.32537e-05 0.000145007 9.46183e-06)
(-0.000230863 0.000231024 -7.35455e-05)
(-9.14306e-05 -3.15067e-05 9.44885e-06)
(0.000287785 -1.20581e-05 8.16313e-06)
(1.2046e-05 -0.000287139 8.42065e-06)
(-0.000144336 6.34259e-05 9.88154e-06)
(-1.81917e-05 6.51398e-05 -1.31209e-05)
(2.76116e-05 -6.99034e-05 4.00929e-05)
(9.4546e-05 -0.000119868 8.70912e-07)
(-6.59153e-05 -0.000116356 1.9013e-05)
(2.75805e-05 -6.9878e-05 3.9687e-05)
(-5.58011e-05 4.83713e-05 2.36641e-06)
(2.49248e-05 -4.83156e-05 -1.42301e-05)
(-7.47876e-07 -0.000104829 3.778e-06)
(-8.28173e-05 0.000545634 1.14271e-05)
(-5.62849e-05 -0.000510726 1.25722e-05)
(-1.07124e-06 0.000174035 1.5278e-06)
(8.66946e-07 -0.000105003 3.81901e-06)
(8.31858e-05 0.000546069 1.17383e-05)
(5.57967e-05 -0.000511135 1.29874e-05)
(1.94778e-06 0.000174058 1.5916e-06)
(-2.41473e-05 -4.81528e-05 -1.27225e-05)
(6.5762e-05 -0.000115902 1.852e-05)
(-2.77834e-05 -6.98394e-05 3.9039e-05)
(-9.42311e-05 -0.00011956 1.8269e-06)
(2.48918e-05 -4.81799e-05 -1.26078e-05)
(-6.62314e-05 -0.000116686 1.8823e-05)
(2.75058e-05 -7.01654e-05 3.94119e-05)
(9.44974e-05 -0.00011987 1.81394e-06)
(-1.14889e-06 0.000173854 2.84214e-06)
(-8.23379e-05 0.000545684 1.10055e-05)
(1.76674e-06 0.00017386 2.91973e-06)
(8.27812e-05 0.000545688 1.15013e-05)
(6.38756e-05 0.000144266 1.18141e-05)
(-7.22719e-05 -4.80063e-05 1.19013e-05)
(0.000145237 6.34877e-05 1.11899e-05)
(-4.78343e-05 -7.25127e-05 1.14656e-05)
(0.000230446 0.000231061 -7.31434e-05)
(9.10224e-05 -3.15309e-05 9.09425e-06)
(-0.000287287 -1.21016e-05 8.29602e-06)
(-1.17028e-05 -0.000287811 8.48223e-06)
(-7.16058e-05 -4.83754e-05 1.09206e-05)
(6.38818e-05 0.000143893 1.10804e-05)
(0.000144944 6.34348e-05 1.0586e-05)
(8.25556e-05 -0.000545155 1.18705e-05)
(9.42074e-05 0.000120009 1.71416e-06)
(-1.20831e-05 0.000288273 8.68103e-06)
(-0.000287293 1.21583e-05 9.10863e-06)
(6.34771e-05 -0.000144142 1.10119e-05)
(0.00054547 -8.17921e-05 1.16957e-05)
(0.000173274 -1.28609e-06 2.94263e-06)
(-6.97999e-05 2.77538e-05 3.8816e-05)
(-4.84747e-05 2.46364e-05 -1.25479e-05)
(0.000173446 1.55564e-06 3.04529e-06)
(8.28564e-06 0.000107958 1.39819e-05)
(-5.55788e-06 -9.41032e-05 1.4612e-05)
(-5.71241e-05 8.53338e-05 2.99442e-06)
(-1.46105e-06 -0.000174038 1.07295e-06)
(-8.0134e-07 0.000117371 1.33274e-05)
(2.99073e-05 -0.000162151 1.79238e-06)
(-6.20803e-05 -8.83044e-05 1.52619e-05)
(-9.08409e-05 -2.21928e-05 1.18143e-05)
(-5.57786e-05 0.000511716 1.40225e-05)
(-4.91255e-07 -0.000207715 7.03505e-06)
(-5.66517e-05 0.000156339 7.94436e-06)
(-1.38963e-06 6.74602e-05 1.11564e-05)
(-1.57218e-06 6.75824e-05 1.12501e-05)
(-5.66356e-05 0.000156577 8.00045e-06)
(-8.28884e-05 -0.000546048 1.26343e-05)
(-3.05718e-07 -0.000207663 7.02379e-06)
(-9.11591e-05 -2.20931e-05 1.1939e-05)
(-6.17519e-05 -8.84426e-05 1.4957e-05)
(-7.0023e-07 0.000103922 2.07672e-06)
(-6.15912e-07 0.00011753 1.3174e-05)
(2.9649e-05 -0.000161942 1.74786e-06)
(-5.29177e-06 -9.40749e-05 1.4271e-05)
(-5.72273e-05 8.5149e-05 2.84956e-06)
(8.59416e-06 0.00010794 1.37514e-05)
(-4.81088e-05 7.24539e-05 1.23245e-05)
(0.000144903 -6.37856e-05 1.16805e-05)
(0.000107466 8.56648e-06 1.51306e-05)
(8.55579e-05 -5.71474e-05 2.28234e-06)
(-9.34213e-05 -4.77697e-06 1.52265e-05)
(-0.000173513 -1.9105e-06 3.35472e-07)