/*--------------------------------*- C++ -*----------------------------------*\
| =========                 |                                                 |
| \\      /  F ield         | OpenFOAM: The Open Source CFD Toolbox           |
|  \\    /   O peration     | Version:  2206                                  |
|   \\  /    A nd           | Website:  www.openfoam.com                      |
|    \\/     M anipulation  |                                                 |
\*---------------------------------------------------------------------------*/
FoamFile
{
    version     2.0;
    format      ascii;
    arch        "LSB;label=32;scalar=64";
    class       volScalarField;
    location    "38.5";
    object      epsilon;
}
// * * * * * * * * * * * * * * * * * * * * * * * * * * * * * * * * * * * * * //

dimensions      [0 2 -3 0 0 0 0];

internalField   nonuniform List<scalar> 
28687
(
2.38002e-07
2.67838e-07
2.6785e-07
3.02972e-07
2.38001e-07
2.67843e-07
2.67852e-07
3.02982e-07
2.38003e-07
2.67848e-07
2.67856e-07
3.02994e-07
2.38004e-07
2.67852e-07
2.6786e-07
3.02998e-07
2.38005e-07
2.67856e-07
2.67865e-07
3.03009e-07
2.38006e-07
2.6786e-07
2.67869e-07
3.03018e-07
2.38003e-07
2.67863e-07
2.67871e-07
3.03024e-07
2.38001e-07
2.67865e-07
2.67873e-07
3.03029e-07
2.37998e-07
2.67857e-07
2.67871e-07
3.03029e-07
2.37938e-07
2.67776e-07
2.67796e-07
3.02959e-07
2.37902e-07
2.67747e-07
2.67758e-07
3.02885e-07
2.37901e-07
2.67747e-07
2.67758e-07
3.029e-07
2.37901e-07
2.67747e-07
2.67757e-07
3.02894e-07
2.37901e-07
2.67747e-07
2.67757e-07
3.02896e-07
2.37901e-07
2.67747e-07
2.67757e-07
3.02897e-07
2.37901e-07
2.67747e-07
2.67757e-07
3.02896e-07
2.37901e-07
2.67747e-07
2.67757e-07
3.02893e-07
2.37901e-07
2.67746e-07
2.67757e-07
3.02894e-07
2.67867e-07
3.02668e-07
2.67837e-07
3.02963e-07
3.02693e-07
2.67863e-07
2.67869e-07
2.67865e-07
2.67872e-07
3.0296e-07
3.02681e-07
2.67846e-07
2.67875e-07
2.67849e-07
2.67877e-07
2.67866e-07
2.67842e-07
2.67869e-07
3.02971e-07
3.027e-07
2.67845e-07
2.67852e-07
2.67847e-07
3.02701e-07
3.02976e-07
3.02703e-07
2.67868e-07
2.67875e-07
2.67869e-07
2.67877e-07
3.02966e-07
3.02697e-07
2.67851e-07
2.6788e-07
2.67852e-07
2.67881e-07
2.67871e-07
2.67847e-07
2.67872e-07
3.02982e-07
3.0271e-07
2.6785e-07
2.67856e-07
2.67851e-07
3.02712e-07
3.02987e-07
3.02709e-07
2.67872e-07
2.6788e-07
2.67875e-07
2.67881e-07
3.02981e-07
3.02703e-07
2.67855e-07
2.67884e-07
2.67857e-07
2.67885e-07
2.67875e-07
2.67851e-07
2.67876e-07
3.02993e-07
3.02716e-07
2.67854e-07
2.6786e-07
2.67855e-07
3.02717e-07
3.02993e-07
3.02721e-07
2.67877e-07
2.67884e-07
2.6788e-07
2.67885e-07
3.02987e-07
3.02713e-07
2.6786e-07
2.67888e-07
2.67862e-07
2.6789e-07
2.67879e-07
2.67856e-07
2.6788e-07
3.02999e-07
3.02727e-07
2.67858e-07
2.67864e-07
2.67859e-07
3.02729e-07
3.03004e-07
3.02728e-07
2.67883e-07
2.67887e-07
2.67885e-07
2.67887e-07
3.02997e-07
3.02721e-07
2.67865e-07
2.67892e-07
2.67866e-07
2.67894e-07
2.67883e-07
2.6786e-07
2.67885e-07
3.03009e-07
3.02735e-07
2.67862e-07
2.67868e-07
2.67863e-07
3.02737e-07
3.03012e-07
3.02736e-07
2.67888e-07
2.6789e-07
2.67889e-07
2.6789e-07
3.03004e-07
3.02727e-07
2.67869e-07
2.67896e-07
2.67869e-07
2.67897e-07
2.67887e-07
2.67863e-07
2.67888e-07
3.03017e-07
3.02742e-07
2.67866e-07
2.67871e-07
2.67866e-07
3.02743e-07
3.0302e-07
3.02743e-07
2.67892e-07
2.67892e-07
2.67891e-07
2.67893e-07
3.03011e-07
3.02734e-07
2.67872e-07
2.67899e-07
2.67871e-07
2.67899e-07
2.6789e-07
2.67865e-07
2.67889e-07
3.03025e-07
3.02748e-07
2.67869e-07
2.67873e-07
2.67868e-07
3.02749e-07
3.03026e-07
3.02746e-07
2.67893e-07
2.67896e-07
2.67891e-07
2.67893e-07
3.03017e-07
3.02732e-07
2.67873e-07
2.67901e-07
2.67871e-07
2.67899e-07
2.67891e-07
2.67863e-07
2.6789e-07
3.0303e-07
3.02751e-07
2.6787e-07
2.67874e-07
2.67869e-07
3.02751e-07
3.03026e-07
3.02687e-07
2.67887e-07
2.67887e-07
2.67834e-07
2.67826e-07
3.0301e-07
3.02655e-07
2.67868e-07
2.67897e-07
2.67817e-07
2.67845e-07
2.67887e-07
2.67798e-07
2.67835e-07
3.0303e-07
3.02693e-07
2.67866e-07
2.67819e-07
2.67814e-07
3.02693e-07
3.02956e-07
3.026e-07
2.67811e-07
2.67806e-07
2.67774e-07
2.67778e-07
3.02923e-07
3.02586e-07
2.67794e-07
2.67823e-07
2.67757e-07
2.67786e-07
2.67813e-07
2.67748e-07
2.67777e-07
3.02961e-07
3.02606e-07
2.67792e-07
2.6776e-07
2.67756e-07
3.02607e-07
3.0288e-07
3.02611e-07
2.67773e-07
2.67779e-07
2.67772e-07
2.67778e-07
3.02869e-07
3.02601e-07
2.67756e-07
2.67786e-07
2.67755e-07
2.67784e-07
2.67777e-07
2.67748e-07
2.67776e-07
3.02885e-07
3.02617e-07
2.67756e-07
2.67758e-07
2.67755e-07
3.02619e-07
3.02895e-07
3.02606e-07
2.67773e-07
2.67779e-07
2.6777e-07
2.67776e-07
3.02884e-07
3.02594e-07
2.67756e-07
2.67786e-07
2.67753e-07
2.67783e-07
2.67777e-07
2.67747e-07
2.67774e-07
3.029e-07
3.02612e-07
2.67757e-07
2.67757e-07
2.67756e-07
3.02615e-07
3.02888e-07
3.02607e-07
2.67771e-07
2.67777e-07
2.6777e-07
2.67776e-07
3.02878e-07
3.02596e-07
2.67754e-07
2.67784e-07
2.67753e-07
2.67783e-07
2.67775e-07
2.67747e-07
2.67774e-07
3.02893e-07
3.02614e-07
2.67758e-07
2.67757e-07
2.67757e-07
3.02616e-07
3.02889e-07
3.02607e-07
2.67771e-07
2.67778e-07
2.67769e-07
2.67777e-07
3.02879e-07
3.02598e-07
2.67754e-07
2.67785e-07
2.67753e-07
2.67783e-07
2.67776e-07
2.67747e-07
2.67774e-07
3.02895e-07
3.02614e-07
2.67758e-07
2.67757e-07
2.67757e-07
3.02617e-07
3.0289e-07
3.02605e-07
2.67771e-07
2.67778e-07
2.67769e-07
2.67777e-07
3.02881e-07
3.02597e-07
2.67754e-07
2.67785e-07
2.67753e-07
2.67783e-07
2.67776e-07
2.67747e-07
2.67774e-07
3.02896e-07
3.02612e-07
2.67758e-07
2.67757e-07
2.67756e-07
3.02615e-07
3.02888e-07
3.02604e-07
2.6777e-07
2.67778e-07
2.67769e-07
2.67777e-07
3.02882e-07
3.02594e-07
2.67755e-07
2.67784e-07
2.67753e-07
2.67783e-07
2.67776e-07
2.67747e-07
2.67774e-07
3.02895e-07
3.02612e-07
2.67758e-07
2.67757e-07
2.67756e-07
3.02614e-07
3.02886e-07
3.02606e-07
2.6777e-07
2.67778e-07
2.67769e-07
2.67777e-07
3.02878e-07
3.02595e-07
2.67754e-07
2.67785e-07
2.67753e-07
2.67783e-07
2.67776e-07
2.67747e-07
2.67774e-07
3.02893e-07
3.02614e-07
2.67758e-07
2.67757e-07
2.67756e-07
3.02616e-07
3.02887e-07
2.6777e-07
2.67778e-07
3.02877e-07
2.67754e-07
2.67784e-07
2.67775e-07
3.02894e-07
2.67757e-07
1.84419e-06
8.83407e-06
1.84467e-06
8.83362e-06
2.07515e-05
2.07512e-05
1.84413e-06
8.8354e-06
1.84456e-06
8.8349e-06
2.38004e-07
2.38006e-07
2.38004e-07
2.38001e-07
2.38004e-07
2.38006e-07
2.38004e-07
5.3195e-07
1.48347e-06
2.48381e-07
2.67841e-07
5.32113e-07
1.48265e-06
2.48381e-07
2.0752e-05
2.07515e-05
5.31958e-07
2.48382e-07
1.48338e-06
2.67851e-07
5.32121e-07
2.48383e-07
1.48261e-06
3.35679e-06
3.35787e-06
3.02704e-07
3.35624e-06
3.35731e-06
1.84438e-06
8.83375e-06
1.84494e-06
8.83334e-06
2.07501e-05
2.07501e-05
1.84433e-06
8.83504e-06
1.84484e-06
8.83461e-06
2.38005e-07
2.38008e-07
2.38006e-07
2.38003e-07
2.38004e-07
2.38006e-07
2.38004e-07
5.31992e-07
1.48368e-06
2.4838e-07
2.67846e-07
5.32162e-07
1.48281e-06
2.48382e-07
2.07504e-05
2.07504e-05
5.32002e-07
2.4838e-07
1.4836e-06
2.67855e-07
5.32172e-07
2.48382e-07
1.48277e-06
3.35696e-06
3.358e-06
3.02705e-07
3.35645e-06
3.3575e-06
1.84448e-06
8.8336e-06
1.84507e-06
8.83329e-06
2.07495e-05
2.07498e-05
1.84443e-06
8.83485e-06
1.84497e-06
8.83448e-06
2.38005e-07
2.38007e-07
2.38005e-07
2.38004e-07
2.38005e-07
2.38007e-07
2.38004e-07
5.32028e-07
1.48378e-06
2.48382e-07
2.6785e-07
5.322e-07
1.48289e-06
2.48385e-07
2.07497e-05
2.07499e-05
5.32039e-07
2.48382e-07
1.48371e-06
2.67859e-07
5.32211e-07
2.48384e-07
1.48286e-06
3.35718e-06
3.35822e-06
3.02716e-07
3.35666e-06
3.3577e-06
1.84454e-06
8.83365e-06
1.84514e-06
8.83335e-06
2.07494e-05
2.07498e-05
1.84449e-06
8.83483e-06
1.84504e-06
8.83449e-06
2.38007e-07
2.38009e-07
2.38007e-07
2.38005e-07
2.38006e-07
2.38008e-07
2.38006e-07
5.32056e-07
1.48382e-06
2.48385e-07
2.67855e-07
5.3223e-07
1.48292e-06
2.48387e-07
2.07495e-05
2.07498e-05
5.32066e-07
2.48384e-07
1.48378e-06
2.67863e-07
5.32241e-07
2.48387e-07
1.48292e-06
3.35734e-06
3.35838e-06
3.02724e-07
3.35677e-06
3.35782e-06
1.84457e-06
8.83372e-06
1.84518e-06
8.83343e-06
2.07497e-05
2.07502e-05
1.84451e-06
8.83487e-06
1.84507e-06
8.83455e-06
2.38008e-07
2.38009e-07
2.38007e-07
2.38007e-07
2.38005e-07
2.38009e-07
2.38006e-07
5.32074e-07
1.48385e-06
2.48387e-07
2.67859e-07
5.32254e-07
1.48295e-06
2.48389e-07
2.07496e-05
2.07499e-05
5.32082e-07
2.48386e-07
1.48381e-06
2.67867e-07
5.32263e-07
2.48387e-07
1.48294e-06
3.35738e-06
3.35842e-06
3.02731e-07
3.35679e-06
3.35784e-06
1.84456e-06
8.83379e-06
1.84518e-06
8.83349e-06
2.07501e-05
2.07499e-05
1.84449e-06
8.83496e-06
1.84506e-06
8.83465e-06
2.38006e-07
2.38009e-07
2.38007e-07
2.38004e-07
2.38005e-07
2.38007e-07
2.38007e-07
5.32083e-07
1.48387e-06
2.48388e-07
2.67863e-07
5.32266e-07
1.48296e-06
2.48389e-07
2.07499e-05
2.07504e-05
5.32088e-07
2.48387e-07
1.48382e-06
2.67871e-07
5.32272e-07
2.48389e-07
1.48295e-06
3.3574e-06
3.35845e-06
3.02739e-07
3.35682e-06
3.35788e-06
1.84454e-06
8.8338e-06
1.84515e-06
8.83353e-06
2.07497e-05
2.07508e-05
1.84448e-06
8.83507e-06
1.84503e-06
8.83476e-06
2.38005e-07
2.38007e-07
2.38008e-07
2.38001e-07
2.38001e-07
2.38005e-07
2.38002e-07
5.3209e-07
1.48387e-06
2.48387e-07
2.67865e-07
5.3227e-07
1.48296e-06
2.48388e-07
2.07504e-05
2.0751e-05
5.32095e-07
2.48388e-07
1.48383e-06
2.67874e-07
5.32276e-07
2.48389e-07
1.48295e-06
3.35742e-06
3.35847e-06
3.02746e-07
3.35681e-06
3.35787e-06
1.84456e-06
8.83405e-06
1.84515e-06
8.83392e-06
2.07507e-05
2.07508e-05
1.84449e-06
8.83528e-06
1.84502e-06
8.83505e-06
2.38001e-07
2.38005e-07
2.38002e-07
2.38e-07
2.37999e-07
2.38002e-07
2.37999e-07
5.32092e-07
1.4839e-06
2.48386e-07
2.67866e-07
5.32275e-07
1.48302e-06
2.48387e-07
2.0751e-05
2.07512e-05
5.32099e-07
2.48388e-07
1.48384e-06
2.67876e-07
5.32281e-07
2.48389e-07
1.483e-06
3.3574e-06
3.35845e-06
3.02751e-07
3.35687e-06
3.35793e-06
1.84466e-06
8.83435e-06
1.84531e-06
8.83399e-06
2.07497e-05
2.07495e-05
1.84459e-06
8.83546e-06
1.8452e-06
8.8352e-06
2.37997e-07
2.38001e-07
2.37998e-07
2.37959e-07
2.37952e-07
2.37962e-07
2.3796e-07
5.32057e-07
1.48398e-06
2.48381e-07
2.67843e-07
5.32272e-07
1.48301e-06
2.48375e-07
2.07503e-05
2.07503e-05
5.32067e-07
2.48385e-07
1.48393e-06
2.67862e-07
5.32281e-07
2.48379e-07
1.48303e-06
3.35756e-06
3.35861e-06
3.02735e-07
3.35695e-06
3.358e-06
1.84442e-06
8.83403e-06
1.84513e-06
8.83354e-06
2.07489e-05
2.07492e-05
1.84436e-06
8.83548e-06
1.84501e-06
8.83514e-06
2.37932e-07
2.37941e-07
2.37938e-07
2.37904e-07
2.37904e-07
2.37908e-07
2.37906e-07
5.31933e-07
1.48381e-06
2.48314e-07
2.67763e-07
5.32155e-07
1.48283e-06
2.483e-07
2.07496e-05
2.07498e-05
5.31944e-07
2.4832e-07
1.4838e-06
2.6778e-07
5.32167e-07
2.48305e-07
1.48286e-06
3.35744e-06
3.35848e-06
3.02637e-07
3.35676e-06
3.35782e-06
1.84432e-06
8.83371e-06
1.84496e-06
8.8333e-06
2.07488e-05
2.07492e-05
1.84426e-06
8.83546e-06
1.84485e-06
8.83516e-06
2.37904e-07
2.37908e-07
2.37906e-07
2.37902e-07
2.37903e-07
2.37907e-07
2.37905e-07
5.31893e-07
1.48369e-06
2.48281e-07
2.67748e-07
5.32084e-07
1.48276e-06
2.48283e-07
2.07494e-05
2.07497e-05
5.31903e-07
2.48284e-07
1.48367e-06
2.67759e-07
5.32096e-07
2.48285e-07
1.48277e-06
3.35728e-06
3.35833e-06
3.02609e-07
3.35666e-06
3.35772e-06
1.84431e-06
8.83358e-06
1.84493e-06
8.8332e-06
2.07489e-05
2.07492e-05
1.84424e-06
8.83551e-06
1.84481e-06
8.83521e-06
2.37904e-07
2.37908e-07
2.37906e-07
2.37901e-07
2.37902e-07
2.37906e-07
2.37904e-07
5.31891e-07
1.48367e-06
2.48282e-07
2.67748e-07
5.32076e-07
1.48275e-06
2.48283e-07
2.07494e-05
2.07497e-05
5.319e-07
2.48284e-07
1.48364e-06
2.67759e-07
5.32085e-07
2.48285e-07
1.48276e-06
3.35724e-06
3.35829e-06
3.02619e-07
3.35664e-06
3.3577e-06
1.8443e-06
8.83351e-06
1.84492e-06
8.83314e-06
2.07489e-05
2.07493e-05
1.84424e-06
8.83555e-06
1.84481e-06
8.83524e-06
2.37904e-07
2.37907e-07
2.37905e-07
2.37901e-07
2.37903e-07
2.37906e-07
2.37904e-07
5.31889e-07
1.48367e-06
2.48281e-07
2.67748e-07
5.32074e-07
1.48275e-06
2.48282e-07
2.07494e-05
2.07497e-05
5.31898e-07
2.48283e-07
1.48364e-06
2.67758e-07
5.32083e-07
2.48284e-07
1.48276e-06
3.35724e-06
3.35828e-06
3.02615e-07
3.35664e-06
3.3577e-06
1.8443e-06
8.83346e-06
1.84492e-06
8.8331e-06
2.0749e-05
2.07493e-05
1.84424e-06
8.83558e-06
1.84481e-06
8.83526e-06
2.37904e-07
2.37907e-07
2.37906e-07
2.37901e-07
2.37903e-07
2.37906e-07
2.37904e-07
5.31889e-07
1.48367e-06
2.48281e-07
2.67748e-07
5.32073e-07
1.48275e-06
2.48282e-07
2.07494e-05
2.07497e-05
5.31899e-07
2.48283e-07
1.48364e-06
2.67758e-07
5.32083e-07
2.48285e-07
1.48276e-06
3.35724e-06
3.35828e-06
3.02615e-07
3.35664e-06
3.3577e-06
1.8443e-06
8.83343e-06
1.84492e-06
8.83308e-06
2.0749e-05
2.07493e-05
1.84424e-06
8.83559e-06
1.84481e-06
8.83528e-06
2.37904e-07
2.37907e-07
2.37906e-07
2.37901e-07
2.37903e-07
2.37906e-07
2.37904e-07
5.31889e-07
1.48367e-06
2.48281e-07
2.67748e-07
5.32074e-07
1.48275e-06
2.48282e-07
2.07494e-05
2.07497e-05
5.319e-07
2.48283e-07
1.48364e-06
2.67759e-07
5.32085e-07
2.48285e-07
1.48276e-06
3.35724e-06
3.35828e-06
3.02615e-07
3.35664e-06
3.3577e-06
1.8443e-06
8.83341e-06
1.84492e-06
8.83306e-06
2.0749e-05
2.07494e-05
1.84424e-06
8.8356e-06
1.84481e-06
8.83528e-06
2.37904e-07
2.37907e-07
2.37906e-07
2.37901e-07
2.37903e-07
2.37906e-07
2.37904e-07
5.3189e-07
1.48367e-06
2.48281e-07
2.67748e-07
5.32074e-07
1.48275e-06
2.48282e-07
2.07494e-05
2.07497e-05
5.31901e-07
2.48283e-07
1.48364e-06
2.67759e-07
5.32085e-07
2.48285e-07
1.48276e-06
3.35724e-06
3.35828e-06
3.02618e-07
3.35664e-06
3.3577e-06
1.8443e-06
8.83339e-06
1.84492e-06
8.83305e-06
2.0749e-05
2.07494e-05
1.84424e-06
8.83561e-06
1.84481e-06
8.83529e-06
2.37904e-07
2.37907e-07
2.37906e-07
2.37901e-07
2.37903e-07
2.37906e-07
2.37904e-07
5.3189e-07
1.48367e-06
2.48281e-07
2.67748e-07
5.32074e-07
1.48275e-06
2.48282e-07
2.07494e-05
2.07497e-05
5.31902e-07
2.48283e-07
1.48364e-06
2.67759e-07
5.32086e-07
2.48285e-07
1.48276e-06
3.35724e-06
3.35828e-06
3.02617e-07
3.35664e-06
3.3577e-06
1.8443e-06
8.83339e-06
1.84492e-06
8.83305e-06
2.0749e-05
2.07494e-05
1.84424e-06
8.83561e-06
1.84481e-06
8.8353e-06
2.37903e-07
2.37907e-07
2.37905e-07
5.31889e-07
1.48367e-06
2.48281e-07
2.67748e-07
5.32074e-07
1.48275e-06
2.48282e-07
2.07494e-05
2.07494e-05
5.31903e-07
2.48283e-07
1.48364e-06
2.67759e-07
5.32086e-07
2.48285e-07
1.48276e-06
3.35724e-06
3.35828e-06
3.02615e-07
3.35664e-06
3.35797e-06
8.83476e-06
1.48268e-06
2.07521e-05
3.35695e-06
3.3558e-06
2.07496e-05
1.48252e-06
8.83411e-06
2.07512e-05
2.07507e-05
2.07526e-05
2.07523e-05
3.35673e-06
3.35783e-06
3.02696e-07
3.35613e-06
3.35728e-06
2.075e-05
2.07503e-05
2.07516e-05
2.07518e-05
3.02976e-07
3.35622e-06
3.35735e-06
3.3567e-06
3.35784e-06
1.84421e-06
8.83505e-06
1.84469e-06
8.83458e-06
5.31943e-07
1.48332e-06
2.4838e-07
2.67864e-07
5.32107e-07
1.48253e-06
2.4838e-07
5.31948e-07
1.48359e-06
2.48382e-07
2.6787e-07
5.32112e-07
1.4828e-06
2.48382e-07
1.84483e-06
8.83346e-06
8.8339e-06
1.8443e-06
1.84485e-06
8.83444e-06
8.83488e-06
1.84433e-06
5.32137e-07
2.67865e-07
1.48263e-06
2.48379e-07
1.48344e-06
2.48379e-07
5.31966e-07
5.32143e-07
2.67871e-07
1.48289e-06
2.48382e-07
1.48371e-06
2.48382e-07
5.31972e-07
3.35756e-06
3.3566e-06
3.02685e-07
3.35713e-06
3.35627e-06
2.07492e-05
2.07488e-05
2.07505e-05
2.07508e-05
3.02965e-07
3.35729e-06
3.35649e-06
3.35773e-06
3.35698e-06
2.07483e-05
2.07485e-05
5.31967e-07
1.48376e-06
2.48381e-07
2.67847e-07
5.32127e-07
1.48295e-06
2.48382e-07
1.84411e-06
8.83498e-06
1.84453e-06
8.83448e-06
5.3196e-07
2.48385e-07
1.48373e-06
2.67876e-07
5.32122e-07
2.48385e-07
1.48291e-06
1.84472e-06
8.83474e-06
8.83521e-06
1.84425e-06
5.32159e-07
2.67848e-07
1.48304e-06
2.48381e-07
1.48388e-06
2.48381e-07
5.31992e-07
1.8447e-06
8.83432e-06
8.83479e-06
1.84423e-06
5.32153e-07
2.67877e-07
2.48384e-07
1.483e-06
2.48384e-07
1.48385e-06
5.31985e-07
1.84423e-06
8.83443e-06
1.84471e-06
8.83395e-06
5.31955e-07
2.48382e-07
1.48339e-06
2.67867e-07
5.32116e-07
2.48382e-07
1.48261e-06
1.84423e-06
8.83506e-06
1.84471e-06
8.8346e-06
5.32143e-07
2.67842e-07
1.48274e-06
2.4838e-07
1.48358e-06
2.4838e-07
5.31973e-07
1.84487e-06
8.83382e-06
8.83427e-06
1.84435e-06
5.32147e-07
2.67868e-07
2.48381e-07
1.48271e-06
2.48381e-07
1.48351e-06
5.31978e-07
1.84487e-06
8.83444e-06
8.83488e-06
1.84434e-06
3.35755e-06
3.35685e-06
3.02703e-07
3.35695e-06
3.35624e-06
2.07523e-05
2.07518e-05
2.07508e-05
2.07511e-05
3.02983e-07
3.35718e-06
3.35631e-06
3.35765e-06
3.3568e-06
2.0751e-05
2.07513e-05
5.31956e-07
2.48381e-07
1.48359e-06
2.67846e-07
5.32119e-07
2.48381e-07
1.48281e-06
1.84412e-06
8.8352e-06
1.84454e-06
8.83473e-06
1.84412e-06
8.83591e-06
1.84455e-06
8.83544e-06
5.32152e-07
2.67851e-07
2.48381e-07
1.4827e-06
2.48382e-07
1.4835e-06
5.31983e-07
5.3215e-07
2.67847e-07
2.4838e-07
1.4829e-06
2.4838e-07
1.48371e-06
5.31981e-07
1.8447e-06
8.83457e-06
8.83502e-06
1.84424e-06
1.84471e-06
8.83529e-06
8.83573e-06
1.84424e-06
2.07524e-05
2.07519e-05
2.07529e-05
2.07524e-05
3.02985e-07
3.35634e-06
3.35739e-06
3.35682e-06
3.35788e-06
2.07511e-05
2.07515e-05
2.07517e-05
2.0752e-05
2.07496e-05
2.07494e-05
2.07511e-05
2.07511e-05
3.35679e-06
3.35792e-06
3.02697e-07
3.35632e-06
3.35744e-06
2.07491e-05
2.07491e-05
2.07507e-05
2.07506e-05
3.0298e-07
3.35643e-06
3.35755e-06
3.35689e-06
3.35802e-06
1.84441e-06
8.83474e-06
1.84496e-06
8.83433e-06
5.31985e-07
1.48352e-06
2.48381e-07
2.67868e-07
5.32159e-07
1.48269e-06
2.48381e-07
5.31992e-07
1.48379e-06
2.48384e-07
2.67876e-07
5.32165e-07
1.48295e-06
2.48384e-07
1.845e-06
8.83328e-06
8.83365e-06
1.84444e-06
1.84503e-06
8.83428e-06
8.83465e-06
1.84447e-06
5.32178e-07
2.67868e-07
1.48274e-06
2.48381e-07
1.48359e-06
2.48381e-07
5.32005e-07
5.32185e-07
2.67876e-07
1.48301e-06
2.48384e-07
1.48385e-06
2.48383e-07
5.32011e-07
3.35788e-06
3.35716e-06
3.02691e-07
3.35743e-06
3.35658e-06
2.0748e-05
2.07479e-05
2.07499e-05
2.07498e-05
3.02976e-07
3.35755e-06
3.3566e-06
3.35802e-06
3.35723e-06
2.07476e-05
2.07477e-05
5.32012e-07
1.48397e-06
2.48383e-07
2.67851e-07
5.32182e-07
1.48311e-06
2.48383e-07
1.84431e-06
8.83463e-06
1.8448e-06
8.83419e-06
5.32005e-07
2.48386e-07
1.48394e-06
2.6788e-07
5.32176e-07
2.48386e-07
1.48307e-06
1.8449e-06
8.83452e-06
8.83493e-06
1.84439e-06
5.32202e-07
2.67852e-07
1.48316e-06
2.48383e-07
1.48403e-06
2.48383e-07
5.32032e-07
1.84488e-06
8.83413e-06
8.83452e-06
1.84436e-06
5.32196e-07
2.67881e-07
2.48386e-07
1.48313e-06
2.48386e-07
1.484e-06
5.32024e-07
1.84443e-06
8.83414e-06
1.84498e-06
8.83371e-06
5.31997e-07
2.48383e-07
1.4836e-06
2.67871e-07
5.32169e-07
2.48383e-07
1.48277e-06
1.84442e-06
8.83474e-06
1.84497e-06
8.83431e-06
5.32184e-07
2.67846e-07
1.48286e-06
2.48382e-07
1.48373e-06
2.48382e-07
5.32011e-07
1.84505e-06
8.83366e-06
8.83405e-06
1.84449e-06
5.32188e-07
2.67872e-07
2.48383e-07
1.48283e-06
2.48382e-07
1.48366e-06
5.32017e-07
1.84505e-06
8.83423e-06
8.83462e-06
1.84448e-06
3.35786e-06
3.35689e-06
3.02704e-07
3.35734e-06
3.35642e-06
2.07506e-05
2.07504e-05
2.07501e-05
2.07501e-05
3.02986e-07
3.35746e-06
3.35652e-06
3.35801e-06
3.35699e-06
2.07501e-05
2.07501e-05
5.32001e-07
2.48382e-07
1.4838e-06
2.6785e-07
5.32173e-07
2.48382e-07
1.48297e-06
1.84431e-06
8.83487e-06
1.84481e-06
8.83444e-06
1.84432e-06
8.83558e-06
1.84482e-06
8.83516e-06
5.32194e-07
2.67855e-07
2.48382e-07
1.48282e-06
2.48382e-07
1.48365e-06
5.32022e-07
5.32193e-07
2.67851e-07
2.48382e-07
1.48302e-06
2.48382e-07
1.48386e-06
5.3202e-07
1.84488e-06
8.83436e-06
8.83475e-06
1.84437e-06
1.84489e-06
8.83508e-06
8.83547e-06
1.84438e-06
2.07508e-05
2.07506e-05
2.07513e-05
2.07511e-05
3.02988e-07
3.35656e-06
3.35761e-06
3.35704e-06
3.35807e-06
2.07503e-05
2.07503e-05
2.07508e-05
2.07508e-05
2.07489e-05
2.0749e-05
2.07504e-05
2.07506e-05
3.357e-06
3.35812e-06
3.02707e-07
3.35654e-06
3.35763e-06
2.07489e-05
2.07487e-05
2.07504e-05
2.07502e-05
3.0299e-07
3.35663e-06
3.3577e-06
3.35711e-06
3.3582e-06
1.84451e-06
8.83461e-06
1.84509e-06
8.83427e-06
5.32022e-07
1.48363e-06
2.48384e-07
2.67873e-07
5.32198e-07
1.48278e-06
2.48384e-07
5.32029e-07
1.4839e-06
2.48386e-07
2.6788e-07
5.32204e-07
1.48304e-06
2.48386e-07
1.8451e-06
8.83332e-06
8.83363e-06
1.84452e-06
1.84513e-06
8.8343e-06
8.83461e-06
1.84455e-06
5.32215e-07
2.67874e-07
1.48282e-06
2.48384e-07
1.48367e-06
2.48383e-07
5.32037e-07
5.32221e-07
2.6788e-07
1.48307e-06
2.48386e-07
1.48393e-06
2.48386e-07
5.32044e-07
3.35813e-06
3.35723e-06
3.02701e-07
3.35764e-06
3.35656e-06
2.07474e-05
2.07474e-05
2.07497e-05
2.07496e-05
3.02985e-07
3.35773e-06
3.35652e-06
3.35824e-06
3.35719e-06
2.07473e-05
2.07472e-05
5.32049e-07
1.48408e-06
2.48385e-07
2.67856e-07
5.32221e-07
1.4832e-06
2.48386e-07
1.84441e-06
8.83448e-06
1.84493e-06
8.83413e-06
5.32042e-07
2.48389e-07
1.48405e-06
2.67884e-07
5.32215e-07
2.48389e-07
1.48317e-06
1.845e-06
8.83448e-06
8.83483e-06
1.84447e-06
5.32237e-07
2.67856e-07
1.48323e-06
2.48385e-07
1.48412e-06
2.48385e-07
5.32063e-07
1.84497e-06
8.83415e-06
8.83449e-06
1.84444e-06
5.32232e-07
2.67885e-07
2.48388e-07
1.48321e-06
2.48388e-07
1.4841e-06
5.32056e-07
1.84453e-06
8.83401e-06
1.8451e-06
8.83364e-06
5.32034e-07
2.48385e-07
1.48371e-06
2.67875e-07
5.32207e-07
2.48385e-07
1.48287e-06
1.84453e-06
8.83455e-06
1.8451e-06
8.8342e-06
5.32219e-07
2.67851e-07
1.4829e-06
2.48385e-07
1.4838e-06
2.48385e-07
5.32043e-07
1.84514e-06
8.83363e-06
8.83399e-06
1.84456e-06
5.32224e-07
2.67876e-07
2.48385e-07
1.4829e-06
2.48385e-07
1.48375e-06
5.32048e-07
1.84514e-06
8.83421e-06
8.83453e-06
1.84456e-06
3.35812e-06
3.3571e-06
3.02714e-07
3.35755e-06
3.35662e-06
2.07498e-05
2.07499e-05
2.07499e-05
2.07497e-05
3.02996e-07
3.35761e-06
3.35669e-06
3.3582e-06
3.35719e-06
2.07499e-05
2.07497e-05
5.32037e-07
2.48384e-07
1.48391e-06
2.67854e-07
5.32212e-07
2.48384e-07
1.48306e-06
1.84442e-06
8.83469e-06
1.84494e-06
8.83433e-06
1.84443e-06
8.8354e-06
1.84494e-06
8.83505e-06
5.32229e-07
2.67859e-07
2.48384e-07
1.4829e-06
2.48384e-07
1.48374e-06
5.32053e-07
5.32228e-07
2.67854e-07
2.48384e-07
1.4831e-06
2.48384e-07
1.48395e-06
5.32052e-07
1.84498e-06
8.83434e-06
8.83466e-06
1.84445e-06
1.84499e-06
8.83505e-06
8.83538e-06
1.84446e-06
2.075e-05
2.07501e-05
2.07505e-05
2.07506e-05
3.02998e-07
3.35673e-06
3.35778e-06
3.35724e-06
3.35827e-06
2.075e-05
2.07499e-05
2.07506e-05
2.07504e-05
2.07487e-05
2.07489e-05
2.07501e-05
2.07504e-05
3.35719e-06
3.35826e-06
3.02716e-07
3.35667e-06
3.35773e-06
2.0749e-05
2.07487e-05
2.07505e-05
2.07501e-05
3.03e-07
3.35667e-06
3.35774e-06
3.35722e-06
3.35829e-06
1.84457e-06
8.83464e-06
1.84516e-06
8.83432e-06
5.32051e-07
1.48371e-06
2.48386e-07
2.67878e-07
5.32229e-07
1.48284e-06
2.48386e-07
5.32057e-07
1.48396e-06
2.48388e-07
2.67885e-07
5.32235e-07
1.48309e-06
2.48388e-07
1.84515e-06
8.83339e-06
8.83369e-06
1.84456e-06
1.84518e-06
8.83435e-06
8.83465e-06
1.84459e-06
5.32242e-07
2.67879e-07
1.48285e-06
2.48386e-07
1.48373e-06
2.48386e-07
5.32063e-07
5.32249e-07
2.67884e-07
1.4831e-06
2.48388e-07
1.48397e-06
2.48388e-07
5.32069e-07
3.3583e-06
3.35715e-06
3.02709e-07
3.35776e-06
3.35651e-06
2.07471e-05
2.07473e-05
2.075e-05
2.07496e-05
3.02993e-07
3.35774e-06
3.35656e-06
3.3583e-06
3.35715e-06
2.07474e-05
2.07471e-05
5.32076e-07
1.48414e-06
2.48387e-07
2.6786e-07
5.32251e-07
1.48325e-06
2.48388e-07
1.84447e-06
8.83451e-06
1.845e-06
8.83417e-06
5.32069e-07
2.48391e-07
1.48413e-06
2.67888e-07
5.32246e-07
2.48391e-07
1.48323e-06
1.84504e-06
8.83451e-06
8.83485e-06
1.8445e-06
5.32264e-07
2.67861e-07
1.48326e-06
2.48387e-07
1.48416e-06
2.48387e-07
5.32087e-07
1.84502e-06
8.83419e-06
8.83453e-06
1.84448e-06
5.32259e-07
2.67889e-07
2.4839e-07
1.48325e-06
2.4839e-07
1.48415e-06
5.32081e-07
1.84459e-06
8.83399e-06
1.84517e-06
8.83364e-06
5.32062e-07
2.48387e-07
1.48378e-06
2.67879e-07
5.32238e-07
2.48387e-07
1.48293e-06
1.84458e-06
8.83454e-06
1.84517e-06
8.83422e-06
5.32246e-07
2.67855e-07
1.48293e-06
2.48387e-07
1.48383e-06
2.48387e-07
5.32067e-07
1.84519e-06
8.83368e-06
8.83401e-06
1.8446e-06
5.32251e-07
2.6788e-07
2.48387e-07
1.48294e-06
2.48387e-07
1.4838e-06
5.32073e-07
1.84519e-06
8.83424e-06
8.83456e-06
1.8446e-06
3.35825e-06
3.35725e-06
3.02722e-07
3.35764e-06
3.35673e-06
2.07496e-05
2.07498e-05
2.07499e-05
2.07496e-05
3.03005e-07
3.35767e-06
3.35674e-06
3.35828e-06
3.35728e-06
2.07499e-05
2.07496e-05
5.32065e-07
2.48386e-07
1.48398e-06
2.67858e-07
5.32242e-07
2.48386e-07
1.48312e-06
1.84447e-06
8.83467e-06
1.84501e-06
8.83435e-06
1.84448e-06
8.83539e-06
1.84501e-06
8.83506e-06
5.32256e-07
2.67863e-07
2.48386e-07
1.48293e-06
2.48386e-07
1.48379e-06
5.32076e-07
5.32255e-07
2.67859e-07
2.48386e-07
1.48313e-06
2.48386e-07
1.484e-06
5.32076e-07
1.84503e-06
8.83437e-06
8.83469e-06
1.84449e-06
1.84503e-06
8.83508e-06
8.8354e-06
1.84449e-06
2.07498e-05
2.075e-05
2.07503e-05
2.07505e-05
3.03008e-07
3.35678e-06
3.35783e-06
3.35733e-06
3.35837e-06
2.07501e-05
2.07498e-05
2.07506e-05
2.07503e-05
2.07488e-05
2.07491e-05
2.07502e-05
2.07506e-05
3.3572e-06
3.35829e-06
3.02724e-07
3.35668e-06
3.35775e-06
2.07493e-05
2.07489e-05
2.07508e-05
2.07503e-05
3.03007e-07
3.35667e-06
3.35777e-06
3.35721e-06
3.35831e-06
1.84459e-06
8.83469e-06
1.84519e-06
8.83439e-06
5.32071e-07
1.48373e-06
2.48389e-07
2.67884e-07
5.32253e-07
1.48287e-06
2.48389e-07
5.32077e-07
1.48398e-06
2.48391e-07
2.67887e-07
5.32259e-07
1.4831e-06
2.48391e-07
1.84517e-06
8.83347e-06
8.83377e-06
1.84457e-06
1.8452e-06
8.83444e-06
8.83473e-06
1.84459e-06
5.32261e-07
2.67884e-07
1.48287e-06
2.48388e-07
1.48374e-06
2.48388e-07
5.32079e-07
5.32268e-07
2.67887e-07
1.48311e-06
2.4839e-07
1.48399e-06
2.4839e-07
5.32085e-07
3.35828e-06
3.3572e-06
3.02716e-07
3.35773e-06
3.3566e-06
2.07473e-05
2.07476e-05
2.07504e-05
2.075e-05
3.03e-07
3.35773e-06
3.35664e-06
3.35828e-06
3.35724e-06
2.07478e-05
2.07474e-05
5.32094e-07
1.48417e-06
2.48389e-07
2.67865e-07
5.32274e-07
1.48327e-06
2.48389e-07
1.84449e-06
8.83455e-06
1.84504e-06
8.83421e-06
5.32088e-07
2.48393e-07
1.48416e-06
2.67892e-07
5.32269e-07
2.48393e-07
1.48326e-06
1.84506e-06
8.8346e-06
8.83492e-06
1.84451e-06
5.32281e-07
2.67866e-07
1.48328e-06
2.48389e-07
1.48418e-06
2.48389e-07
5.321e-07
1.84504e-06
8.83424e-06
8.83457e-06
1.84448e-06
5.32276e-07
2.67893e-07
2.48392e-07
1.48326e-06
2.48392e-07
1.48417e-06
5.32094e-07
1.84461e-06
8.83405e-06
1.84521e-06
8.83373e-06
5.32081e-07
2.4839e-07
1.48382e-06
2.67883e-07
5.32261e-07
2.4839e-07
1.48295e-06
1.8446e-06
8.83458e-06
1.8452e-06
8.83427e-06
5.32263e-07
2.67859e-07
1.48295e-06
2.48388e-07
1.48385e-06
2.48389e-07
5.32081e-07
1.84521e-06
8.83378e-06
8.8341e-06
1.84461e-06
5.32268e-07
2.67884e-07
2.48389e-07
1.48296e-06
2.48389e-07
1.48382e-06
5.32087e-07
1.84521e-06
8.83432e-06
8.83462e-06
1.8446e-06
3.3583e-06
3.35729e-06
3.0273e-07
3.35768e-06
3.35675e-06
2.07497e-05
2.075e-05
2.07501e-05
2.07498e-05
3.03013e-07
3.3577e-06
3.35677e-06
3.35832e-06
3.3573e-06
2.07502e-05
2.07499e-05
5.32083e-07
2.48388e-07
1.48401e-06
2.67862e-07
5.32265e-07
2.48388e-07
1.48314e-06
1.84449e-06
8.83472e-06
1.84504e-06
8.83441e-06
1.8445e-06
8.83542e-06
1.84505e-06
8.83512e-06
5.32271e-07
2.67868e-07
2.48387e-07
1.48295e-06
2.48387e-07
1.48381e-06
5.32087e-07
5.32271e-07
2.67863e-07
2.48387e-07
1.48315e-06
2.48387e-07
1.48402e-06
5.32088e-07
1.84504e-06
8.83445e-06
8.83475e-06
1.84448e-06
1.84505e-06
8.83516e-06
8.83546e-06
1.84449e-06
2.07499e-05
2.07502e-05
2.07504e-05
2.07507e-05
3.03014e-07
3.35681e-06
3.35786e-06
3.35734e-06
3.35839e-06
2.07503e-05
2.075e-05
2.07509e-05
2.07505e-05
2.07491e-05
2.07495e-05
2.07505e-05
2.0751e-05
3.35721e-06
3.35833e-06
3.02733e-07
3.35667e-06
3.3578e-06
2.07497e-05
2.07493e-05
2.07512e-05
2.07508e-05
3.03016e-07
3.35668e-06
3.35781e-06
3.35722e-06
3.35835e-06
1.84458e-06
8.83478e-06
1.84519e-06
8.83431e-06
5.32082e-07
1.48375e-06
2.48391e-07
2.67888e-07
5.32268e-07
1.48288e-06
2.48391e-07
5.32089e-07
1.48399e-06
2.48392e-07
2.6789e-07
5.32274e-07
1.48314e-06
2.48392e-07
1.84516e-06
8.8335e-06
8.83383e-06
1.84455e-06
1.84519e-06
8.83425e-06
8.83467e-06
1.84457e-06
5.32271e-07
2.67889e-07
1.48288e-06
2.48389e-07
1.48376e-06
2.4839e-07
5.32086e-07
5.32278e-07
2.6789e-07
1.4832e-06
2.4839e-07
1.48408e-06
2.4839e-07
5.32093e-07
3.35828e-06
3.35727e-06
3.02724e-07
3.35781e-06
3.35666e-06
2.07477e-05
2.07481e-05
2.07497e-05
2.07498e-05
3.03007e-07
3.35789e-06
3.35665e-06
3.35845e-06
3.35729e-06
2.07483e-05
2.07479e-05
5.32103e-07
1.48419e-06
2.48391e-07
2.67869e-07
5.32286e-07
1.48329e-06
2.48392e-07
1.84447e-06
8.83461e-06
1.84503e-06
8.83428e-06
5.32097e-07
2.48394e-07
1.48418e-06
2.67897e-07
5.32281e-07
2.48394e-07
1.48327e-06
1.84504e-06
8.83471e-06
8.83502e-06
1.84448e-06
5.32288e-07
2.67869e-07
1.48329e-06
2.4839e-07
1.4842e-06
2.4839e-07
5.32106e-07
1.84502e-06
8.83434e-06
8.83465e-06
1.84446e-06
5.32284e-07
2.67896e-07
2.48392e-07
1.48327e-06
2.48393e-07
1.48418e-06
5.321e-07
1.84459e-06
8.83416e-06
1.8452e-06
8.83384e-06
5.3209e-07
2.48391e-07
1.48383e-06
2.67887e-07
5.32274e-07
2.48391e-07
1.48296e-06
1.84459e-06
8.83467e-06
1.8452e-06
8.83437e-06
5.32271e-07
2.67863e-07
1.48296e-06
2.48387e-07
1.48387e-06
2.48389e-07
5.32086e-07
1.84519e-06
8.83391e-06
8.83422e-06
1.84458e-06
5.32276e-07
2.67887e-07
2.4839e-07
1.48296e-06
2.4839e-07
1.48383e-06
5.32093e-07
1.84519e-06
8.83443e-06
8.83472e-06
1.84457e-06
3.35834e-06
3.35732e-06
3.02739e-07
3.35772e-06
3.35679e-06
2.075e-05
2.07504e-05
2.07506e-05
2.07503e-05
3.03021e-07
3.35773e-06
3.3568e-06
3.35836e-06
3.35734e-06
2.07507e-05
2.07503e-05
5.32089e-07
2.4839e-07
1.48403e-06
2.67866e-07
5.32275e-07
2.4839e-07
1.48315e-06
1.84446e-06
8.8348e-06
1.84503e-06
8.8345e-06
1.84448e-06
8.83551e-06
1.84504e-06
8.83521e-06
5.32276e-07
2.67871e-07
2.48388e-07
1.48296e-06
2.48388e-07
1.48382e-06
5.32091e-07
5.32277e-07
2.67866e-07
2.48388e-07
1.48316e-06
2.48389e-07
1.48403e-06
5.32093e-07
1.84501e-06
8.83456e-06
8.83485e-06
1.84445e-06
1.84502e-06
8.83528e-06
8.83556e-06
1.84447e-06
2.07502e-05
2.07506e-05
2.07507e-05
2.07511e-05
3.03022e-07
3.35683e-06
3.35789e-06
3.35738e-06
3.35843e-06
2.07508e-05
2.07504e-05
2.07514e-05
2.0751e-05
2.07495e-05
2.07505e-05
2.0751e-05
2.07516e-05
3.35723e-06
3.35836e-06
3.0274e-07
3.35668e-06
3.35779e-06
2.07507e-05
2.07503e-05
2.07518e-05
2.07513e-05
3.03024e-07
3.35667e-06