/*--------------------------------*- C++ -*----------------------------------*\
| =========                 |                                                 |
| \\      /  F ield         | OpenFOAM: The Open Source CFD Toolbox           |
|  \\    /   O peration     | Version:  2206                                  |
|   \\  /    A nd           | Website:  www.openfoam.com                      |
|    \\/     M anipulation  |                                                 |
\*---------------------------------------------------------------------------*/
FoamFile
{
    version     2.0;
    format      ascii;
    arch        "LSB;label=32;scalar=64";
    class       volVectorField;
    location    "38.5";
    object      U;
}
// * * * * * * * * * * * * * * * * * * * * * * * * * * * * * * * * * * * * * //

dimensions      [0 1 -1 0 0 0 0];

internalField   nonuniform List<vector> 
28687
(
(-9.19937e-07 -9.14897e-07 0.104133)
(-6.3644e-07 9.74838e-07 0.103997)
(9.71391e-07 -6.30406e-07 0.103997)
(-4.86339e-05 -4.86499e-05 0.103815)
(-9.35098e-07 -9.31535e-07 0.104133)
(-6.2652e-07 9.64521e-07 0.103997)
(9.6405e-07 -6.2168e-07 0.103997)
(-4.86302e-05 -4.86454e-05 0.103815)
(-9.40112e-07 -9.30394e-07 0.104132)
(-6.15824e-07 9.67598e-07 0.103997)
(9.61714e-07 -6.16934e-07 0.103997)
(-4.86251e-05 -4.86402e-05 0.103815)
(-9.40973e-07 -9.29047e-07 0.104132)
(-6.09351e-07 9.69626e-07 0.103997)
(9.59136e-07 -6.11389e-07 0.103997)
(-4.8621e-05 -4.86367e-05 0.103815)
(-9.46601e-07 -9.34131e-07 0.104132)
(-6.06541e-07 9.63041e-07 0.103997)
(9.49988e-07 -6.01173e-07 0.103997)
(-4.8616e-05 -4.86321e-05 0.103814)
(-9.58414e-07 -9.45869e-07 0.104132)
(-5.8319e-07 9.53086e-07 0.103997)
(9.4866e-07 -5.85946e-07 0.103997)
(-4.86124e-05 -4.86273e-05 0.103814)
(-9.5008e-07 -9.30314e-07 0.104132)
(-5.99032e-07 9.81941e-07 0.103997)
(9.68872e-07 -6.09506e-07 0.103997)
(-4.86168e-05 -4.86273e-05 0.103814)
(-9.28271e-07 -9.01941e-07 0.104132)
(-6.67047e-07 1.03501e-06 0.103997)
(9.85469e-07 -6.30729e-07 0.103997)
(-4.8627e-05 -4.86305e-05 0.103814)
(-8.36932e-07 -8.51903e-07 0.104133)
(-7.10604e-07 9.75712e-07 0.103997)
(1.01577e-06 -7.28586e-07 0.103997)
(-4.87793e-05 -4.88e-05 0.103814)
(-9.5253e-07 -9.5298e-07 0.104133)
(-5.92521e-07 9.38839e-07 0.103997)
(9.34619e-07 -5.95392e-07 0.103997)
(-4.86086e-05 -4.86301e-05 0.103815)
(-9.45548e-07 -9.37109e-07 0.104133)
(-6.11612e-07 9.63999e-07 0.103997)
(9.54968e-07 -6.12543e-07 0.103997)
(-4.86332e-05 -4.86486e-05 0.103815)
(-9.36331e-07 -9.28452e-07 0.104133)
(-6.19951e-07 9.6751e-07 0.103997)
(9.63763e-07 -6.23171e-07 0.103997)
(-4.86456e-05 -4.86612e-05 0.103815)
(-9.35264e-07 -9.27647e-07 0.104133)
(-6.20037e-07 9.66928e-07 0.103997)
(9.64607e-07 -6.244e-07 0.103997)
(-4.86464e-05 -4.86621e-05 0.103815)
(-9.35663e-07 -9.28162e-07 0.104133)
(-6.19509e-07 9.66262e-07 0.103997)
(9.64409e-07 -6.24028e-07 0.103997)
(-4.86466e-05 -4.8662e-05 0.103815)
(-9.36112e-07 -9.27937e-07 0.104133)
(-6.19375e-07 9.66691e-07 0.103997)
(9.64511e-07 -6.24136e-07 0.103997)
(-4.86468e-05 -4.8662e-05 0.103815)
(-9.36669e-07 -9.28321e-07 0.104133)
(-6.18981e-07 9.66512e-07 0.103997)
(9.64464e-07 -6.2404e-07 0.103997)
(-4.86462e-05 -4.86613e-05 0.103815)
(-9.36253e-07 -9.2799e-07 0.104133)
(-6.19487e-07 9.66728e-07 0.103997)
(9.65089e-07 -6.24419e-07 0.103997)
(-4.86446e-05 -4.86599e-05 0.103815)
(-9.35026e-07 -9.27039e-07 0.104133)
(-6.1921e-07 9.66559e-07 0.103997)
(9.64959e-07 -6.24451e-07 0.103997)
(-4.86385e-05 -4.86542e-05 0.103815)
(-1.01406e-06 6.82044e-07 0.103997)
(5.11842e-05 -5.11575e-05 0.103825)
(-6.40778e-07 9.838e-07 0.103997)
(4.86346e-05 4.86172e-05 0.103815)
(-5.11766e-05 -5.11536e-05 0.103825)
(1.00462e-06 6.56965e-07 0.103997)
(-1.0052e-06 6.79567e-07 0.103997)
(9.96953e-07 6.44107e-07 0.103997)
(-9.97077e-07 6.65667e-07 0.103997)
(-4.86493e-05 4.86157e-05 0.103815)
(5.11776e-05 -5.11546e-05 0.103825)
(6.3331e-07 9.8024e-07 0.103997)
(6.5995e-07 -1.00348e-06 0.103997)
(6.22752e-07 9.69784e-07 0.103997)
(6.52545e-07 -9.97039e-07 0.103997)
(-6.62542e-07 -9.98667e-07 0.103997)
(-6.26411e-07 9.64354e-07 0.103997)
(-6.56397e-07 -9.90932e-07 0.103997)
(4.86203e-05 -4.86564e-05 0.103815)
(-5.11484e-05 5.11825e-05 0.103825)
(-9.68264e-07 -6.27687e-07 0.103997)
(9.63575e-07 -6.19883e-07 0.103997)
(-9.61198e-07 -6.21278e-07 0.103997)
(5.11492e-05 5.11699e-05 0.103825)
(4.86299e-05 4.86128e-05 0.103815)
(-5.11761e-05 -5.11543e-05 0.103825)
(9.98541e-07 6.47299e-07 0.103997)
(-9.98308e-07 6.63809e-07 0.103997)
(9.92542e-07 6.40339e-07 0.103997)
(-9.98708e-07 6.54487e-07 0.103997)
(-4.86384e-05 4.86024e-05 0.103815)
(5.11838e-05 -5.11543e-05 0.103825)
(6.24736e-07 9.74037e-07 0.103997)
(6.50664e-07 -9.97325e-07 0.103997)
(6.17044e-07 9.69617e-07 0.103997)
(6.46284e-07 -9.94554e-07 0.103997)
(-6.54734e-07 -9.90593e-07 0.103997)
(-6.16139e-07 9.66121e-07 0.103997)
(-6.49171e-07 -9.87695e-07 0.103997)
(4.86157e-05 -4.86527e-05 0.103815)
(-5.11514e-05 5.1186e-05 0.103825)
(-9.61379e-07 -6.1968e-07 0.103997)
(9.6108e-07 -6.14553e-07 0.103997)
(-9.59262e-07 -6.1265e-07 0.103997)
(5.11525e-05 5.11735e-05 0.103825)
(4.86266e-05 4.86124e-05 0.103815)
(-5.1181e-05 -5.11558e-05 0.103825)
(9.91381e-07 6.45508e-07 0.103997)
(-9.9995e-07 6.5556e-07 0.103997)
(9.88478e-07 6.37613e-07 0.103997)
(-1.00106e-06 6.59509e-07 0.103997)
(-4.86299e-05 4.86018e-05 0.103815)
(5.11894e-05 -5.11418e-05 0.103825)
(6.19739e-07 9.70006e-07 0.103997)
(6.47049e-07 -9.94338e-07 0.103997)
(6.11568e-07 9.68035e-07 0.103997)
(6.40867e-07 -9.89985e-07 0.103997)
(-6.47998e-07 -9.87203e-07 0.103997)
(-6.06223e-07 9.70069e-07 0.103997)
(-6.41866e-07 -9.85626e-07 0.103997)
(4.86115e-05 -4.86472e-05 0.103815)
(-5.11556e-05 5.11918e-05 0.103825)
(-9.58887e-07 -6.11693e-07 0.103997)
(9.58635e-07 -6.08081e-07 0.103997)
(-9.56823e-07 -6.04968e-07 0.103997)
(5.11572e-05 5.11776e-05 0.103825)
(4.86228e-05 4.86096e-05 0.103815)
(-5.11846e-05 -5.11598e-05 0.103825)
(9.8707e-07 6.41418e-07 0.103997)
(-1.00113e-06 6.57027e-07 0.103997)
(9.84602e-07 6.3124e-07 0.103997)
(-9.8744e-07 6.39161e-07 0.103997)
(-4.8622e-05 4.86115e-05 0.103815)
(5.11937e-05 -5.11692e-05 0.103825)
(6.15479e-07 9.67743e-07 0.103997)
(6.42579e-07 -9.90265e-07 0.103997)
(6.05914e-07 9.62831e-07 0.103997)
(6.36766e-07 -9.8606e-07 0.103997)
(-6.42061e-07 -9.84887e-07 0.103997)
(-6.00413e-07 9.58156e-07 0.103997)
(-6.34779e-07 -9.81036e-07 0.103997)
(4.86077e-05 -4.86427e-05 0.103815)
(-5.11578e-05 5.11972e-05 0.103825)
(-9.56002e-07 -6.0525e-07 0.103997)
(9.54651e-07 -6.01355e-07 0.103997)
(-9.51666e-07 -5.98531e-07 0.103997)
(5.11629e-05 5.11827e-05 0.103825)
(4.86188e-05 4.86056e-05 0.103814)
(-5.11945e-05 -5.11694e-05 0.103825)
(9.80042e-07 6.35152e-07 0.103997)
(-9.92303e-07 6.44627e-07 0.103997)
(9.87346e-07 6.26214e-07 0.103997)
(-9.82874e-07 6.24378e-07 0.103997)
(-4.86164e-05 4.85858e-05 0.103815)
(5.12097e-05 -5.11839e-05 0.103825)
(6.0554e-07 9.59852e-07 0.103997)
(6.31679e-07 -9.81415e-07 0.103997)
(6.02534e-07 9.67141e-07 0.103997)
(6.30713e-07 -9.89498e-07 0.103997)
(-6.32646e-07 -9.76966e-07 0.103997)
(-5.89994e-07 9.54977e-07 0.103997)
(-6.31771e-07 -9.84446e-07 0.103997)
(4.86051e-05 -4.86375e-05 0.103814)
(-5.11708e-05 5.12052e-05 0.103825)
(-9.47688e-07 -5.95168e-07 0.103997)
(9.5739e-07 -5.98594e-07 0.103997)
(-9.55905e-07 -5.95188e-07 0.103997)
(5.11719e-05 5.11929e-05 0.103825)
(4.86148e-05 4.85993e-05 0.103814)
(-5.12149e-05 -5.11742e-05 0.103824)
(9.75885e-07 6.16992e-07 0.103997)
(-9.79634e-07 6.21255e-07 0.103997)
(9.93727e-07 6.44568e-07 0.103997)
(-1.00746e-06 6.52931e-07 0.103997)
(-4.86063e-05 4.85808e-05 0.103814)
(5.12122e-05 -5.11688e-05 0.103824)
(5.89963e-07 9.58452e-07 0.103997)
(6.16678e-07 -9.79639e-07 0.103997)
(6.08735e-07 9.81525e-07 0.103997)
(6.39876e-07 -9.92676e-07 0.103997)
(-6.17353e-07 -9.74222e-07 0.103997)
(-6.03895e-07 9.85232e-07 0.103997)
(-6.40518e-07 -9.86884e-07 0.103997)
(4.8599e-05 -4.86348e-05 0.103814)
(-5.11863e-05 5.12254e-05 0.103824)
(-9.45927e-07 -5.79788e-07 0.103997)
(9.64328e-07 -6.03566e-07 0.103997)
(-9.62078e-07 -6.00353e-07 0.103997)
(5.11883e-05 5.1213e-05 0.103824)
(4.86181e-05 4.86202e-05 0.103814)
(-5.12402e-05 -5.11898e-05 0.103824)
(9.98565e-07 6.56887e-07 0.103997)
(-9.99617e-07 6.48657e-07 0.103997)
(9.63175e-07 6.18908e-07 0.103997)
(-1.00553e-06 6.53758e-07 0.103997)
(-4.86264e-05 4.86178e-05 0.103814)
(5.12114e-05 -5.11748e-05 0.103824)
(6.14737e-07 9.89945e-07 0.103997)
(6.4276e-07 -9.95973e-07 0.103997)
(5.73482e-07 9.59754e-07 0.103997)
(6.06486e-07 -9.63667e-07 0.103997)
(-6.44792e-07 -9.89759e-07 0.103997)
(-6.01621e-07 9.83325e-07 0.103997)
(-6.1914e-07 -9.53695e-07 0.103997)
(4.8603e-05 -4.86352e-05 0.103814)
(-5.12091e-05 5.12471e-05 0.103824)
(-9.66628e-07 -6.04953e-07 0.103997)
(9.36088e-07 -5.69394e-07 0.103997)
(-9.37906e-07 -5.70719e-07 0.103997)
(5.12046e-05 5.12371e-05 0.103824)
(4.86235e-05 4.8624e-05 0.103814)
(-5.10461e-05 -5.10155e-05 0.103825)
(1.00788e-06 6.75112e-07 0.103997)
(-1.05598e-06 7.14319e-07 0.103997)
(1.0842e-06 8.00036e-07 0.103997)
(-1.05336e-06 7.77949e-07 0.103997)
(-4.86582e-05 4.86397e-05 0.103814)
(5.1068e-05 -5.1056e-05 0.103825)
(6.35803e-07 1.0042e-06 0.103997)
(6.63704e-07 -1.01233e-06 0.103997)
(7.72497e-07 1.05053e-06 0.103997)
(7.93215e-07 -1.07718e-06 0.103997)
(-6.78279e-07 -1.00089e-06 0.103997)
(-7.51657e-07 1.02183e-06 0.103997)
(-7.90197e-07 -1.07292e-06 0.103997)
(4.86078e-05 -4.86413e-05 0.103814)
(-5.10172e-05 5.10512e-05 0.103824)
(-9.86174e-07 -6.30708e-07 0.103997)
(1.04659e-06 -7.58751e-07 0.103997)
(-1.03899e-06 -7.57693e-07 0.103997)
(5.10212e-05 5.10389e-05 0.103824)
(4.87897e-05 4.8766e-05 0.103814)
(-5.12199e-05 -5.11933e-05 0.103825)
(1.05979e-06 7.60652e-07 0.103997)
(-1.00937e-06 7.26396e-07 0.103997)
(9.74618e-07 6.29192e-07 0.103997)
(-9.63549e-07 6.34016e-07 0.103997)
(-4.87519e-05 4.87053e-05 0.103814)
(5.12368e-05 -5.12077e-05 0.103825)
(7.42715e-07 1.01689e-06 0.103997)
(7.60497e-07 -1.04594e-06 0.103997)
(6.11718e-07 9.40525e-07 0.103997)
(6.36723e-07 -9.69599e-07 0.103997)
(-7.53426e-07 -1.0454e-06 0.103997)
(-5.97678e-07 9.30156e-07 0.103997)
(-6.32906e-07 -9.70002e-07 0.103997)
(4.87699e-05 -4.88063e-05 0.103814)
(-5.11949e-05 5.12304e-05 0.103825)
(-1.00554e-06 -7.25383e-07 0.103997)
(9.3792e-07 -6.03892e-07 0.103997)
(-9.31335e-07 -6.0461e-07 0.103997)
(5.12003e-05 5.12135e-05 0.103825)
(4.86219e-05 4.8593e-05 0.103815)
(-5.12122e-05 -5.1179e-05 0.103825)
(9.68335e-07 6.16942e-07 0.103997)
(-9.71535e-07 6.31535e-07 0.103997)
(9.7969e-07 6.33773e-07 0.103997)
(-9.93046e-07 6.47149e-07 0.103997)
(-4.86063e-05 4.85856e-05 0.103815)
(5.1208e-05 -5.11778e-05 0.103825)
(6.01474e-07 9.38331e-07 0.103997)
(6.2393e-07 -9.66444e-07 0.103997)
(6.06488e-07 9.54347e-07 0.103997)
(6.34946e-07 -9.80943e-07 0.103997)
(-6.2268e-07 -9.64889e-07 0.103997)
(-6.05422e-07 9.60286e-07 0.103997)
(-6.36808e-07 -9.76521e-07 0.103997)
(4.85973e-05 -4.86339e-05 0.103815)
(-5.11835e-05 5.12176e-05 0.103825)
(-9.29624e-07 -5.91733e-07 0.103997)
(9.48372e-07 -6.03535e-07 0.103997)
(-9.47353e-07 -6.00267e-07 0.103997)
(5.11841e-05 5.12043e-05 0.103825)
(4.86398e-05 4.86166e-05 0.103815)
(-5.11968e-05 -5.11639e-05 0.103825)
(9.85168e-07 6.3726e-07 0.103997)
(-9.97698e-07 6.51686e-07 0.103997)
(9.94021e-07 6.4921e-07 0.103997)
(-1.00229e-06 6.59142e-07 0.103997)
(-4.86378e-05 4.86146e-05 0.103815)
(5.1196e-05 -5.1168e-05 0.103825)
(6.15836e-07 9.60589e-07 0.103997)
(6.41201e-07 -9.86843e-07 0.103997)
(6.20943e-07 9.66945e-07 0.103997)
(6.50899e-07 -9.94323e-07 0.103997)
(-6.42967e-07 -9.81915e-07 0.103997)
(-6.18239e-07 9.67743e-07 0.103997)
(-6.52314e-07 -9.89831e-07 0.103997)
(4.86186e-05 -4.86553e-05 0.103815)
(-5.11671e-05 5.12024e-05 0.103825)
(-9.5348e-07 -6.05662e-07 0.103997)
(9.6214e-07 -6.18808e-07 0.103997)
(-9.60835e-07 -6.14016e-07 0.103997)
(5.11686e-05 5.11892e-05 0.103825)
(4.86527e-05 4.86289e-05 0.103815)
(-5.11944e-05 -5.11625e-05 0.103825)
(9.95386e-07 6.47504e-07 0.103997)
(-1.00294e-06 6.59377e-07 0.103997)
(9.9672e-07 6.50887e-07 0.103997)
(-1.00246e-06 6.61209e-07 0.103997)
(-4.86463e-05 4.86217e-05 0.103815)
(5.11961e-05 -5.11672e-05 0.103825)
(6.25876e-07 9.68174e-07 0.103997)
(6.52105e-07 -9.95505e-07 0.103997)
(6.23309e-07 9.67422e-07 0.103997)
(6.5316e-07 -9.95659e-07 0.103997)
(-6.53063e-07 -9.90983e-07 0.103997)
(-6.18872e-07 9.67157e-07 0.103997)
(-6.53433e-07 -9.91673e-07 0.103997)
(4.86321e-05 -4.86677e-05 0.103815)
(-5.11652e-05 5.12008e-05 0.103825)
(-9.61958e-07 -6.16686e-07 0.103997)
(9.63543e-07 -6.21313e-07 0.103997)
(-9.61846e-07 -6.18645e-07 0.103997)
(5.1167e-05 5.1187e-05 0.103825)
(4.86537e-05 4.8629e-05 0.103815)
(-5.11951e-05 -5.11631e-05 0.103825)
(9.9721e-07 6.48663e-07 0.103997)
(-1.00281e-06 6.60487e-07 0.103997)
(9.97239e-07 6.50215e-07 0.103997)
(-1.00254e-06 6.60333e-07 0.103997)
(-4.86464e-05 4.86225e-05 0.103815)
(5.11957e-05 -5.1168e-05 0.103825)
(6.26892e-07 9.68103e-07 0.103997)
(6.53139e-07 -9.96152e-07 0.103997)
(6.2261e-07 9.66518e-07 0.103997)
(6.52569e-07 -9.95558e-07 0.103997)
(-6.53206e-07 -9.92061e-07 0.103997)
(-6.18646e-07 9.66652e-07 0.103997)
(-6.52532e-07 -9.91616e-07 0.103997)
(4.86326e-05 -4.86681e-05 0.103815)
(-5.11657e-05 5.12012e-05 0.103825)
(-9.62363e-07 -6.19147e-07 0.103997)
(9.63546e-07 -6.20847e-07 0.103997)
(-9.61757e-07 -6.18929e-07 0.103997)
(5.1167e-05 5.11873e-05 0.103825)
(4.86532e-05 4.86285e-05 0.103815)
(-5.11951e-05 -5.11627e-05 0.103825)
(9.97475e-07 6.47858e-07 0.103997)
(-1.00291e-06 6.59786e-07 0.103997)
(9.9717e-07 6.504e-07 0.103997)
(-1.00307e-06 6.61215e-07 0.103997)
(-4.86468e-05 4.86217e-05 0.103815)
(5.11954e-05 -5.11667e-05 0.103825)
(6.26378e-07 9.67159e-07 0.103997)
(6.52601e-07 -9.95961e-07 0.103997)
(6.22143e-07 9.66162e-07 0.103997)
(6.5244e-07 -9.95518e-07 0.103997)
(-6.52362e-07 -9.91801e-07 0.103997)
(-6.18426e-07 9.66746e-07 0.103997)
(-6.52314e-07 -9.91378e-07 0.103997)
(4.86323e-05 -4.86678e-05 0.103815)
(-5.11655e-05 5.1201e-05 0.103825)
(-9.62224e-07 -6.19421e-07 0.103997)
(9.6353e-07 -6.2098e-07 0.103997)
(-9.61956e-07 -6.19537e-07 0.103997)
(5.11665e-05 5.1187e-05 0.103825)
(4.86528e-05 4.86287e-05 0.103815)
(-5.11952e-05 -5.11626e-05 0.103825)
(9.9748e-07 6.48231e-07 0.103997)
(-1.00376e-06 6.60871e-07 0.103997)
(9.97129e-07 6.5022e-07 0.103997)
(-1.00319e-06 6.61357e-07 0.103997)
(-4.86467e-05 4.86227e-05 0.103815)
(5.11953e-05 -5.11659e-05 0.103825)
(6.25859e-07 9.6701e-07 0.103997)
(6.52513e-07 -9.95976e-07 0.103997)
(6.2151e-07 9.65736e-07 0.103997)
(6.52097e-07 -9.95479e-07 0.103997)
(-6.52049e-07 -9.91616e-07 0.103997)
(-6.17885e-07 9.66869e-07 0.103997)
(-6.51955e-07 -9.91331e-07 0.103997)
(4.86322e-05 -4.86677e-05 0.103815)
(-5.11653e-05 5.12008e-05 0.103825)
(-9.62443e-07 -6.19999e-07 0.103997)
(9.63497e-07 -6.20785e-07 0.103997)
(-9.62007e-07 -6.19629e-07 0.103997)
(5.1166e-05 5.11867e-05 0.103825)
(4.86517e-05 4.86277e-05 0.103815)
(-5.11936e-05 -5.11617e-05 0.103825)
(9.97258e-07 6.47856e-07 0.103997)
(-1.00396e-06 6.60915e-07 0.103997)
(9.96897e-07 6.50226e-07 0.103997)
(-1.00291e-06 6.61549e-07 0.103997)
(-4.8646e-05 4.86225e-05 0.103815)
(5.11943e-05 -5.11651e-05 0.103825)
(6.25352e-07 9.66458e-07 0.103997)
(6.52324e-07 -9.96062e-07 0.103997)
(6.21761e-07 9.65072e-07 0.103997)
(6.52326e-07 -9.95726e-07 0.103997)
(-6.51821e-07 -9.91591e-07 0.103997)
(-6.18368e-07 9.6676e-07 0.103997)
(-6.52096e-07 -9.914e-07 0.103997)
(4.86314e-05 -4.8667e-05 0.103815)
(-5.11633e-05 5.11988e-05 0.103825)
(-9.62483e-07 -6.20063e-07 0.103997)
(9.6373e-07 -6.2112e-07 0.103997)
(-9.61916e-07 -6.20004e-07 0.103997)
(5.11644e-05 5.11849e-05 0.103825)
(4.86503e-05 4.86254e-05 0.103815)
(-5.11882e-05 -5.11565e-05 0.103825)
(9.97786e-07 6.48186e-07 0.103997)
(-1.00447e-06 6.61059e-07 0.103997)
(9.9757e-07 6.50429e-07 0.103997)
(-1.00201e-06 6.61482e-07 0.103997)
(-4.86452e-05 4.86215e-05 0.103815)
(5.11934e-05 -5.1164e-05 0.103825)
(6.25779e-07 9.66249e-07 0.103997)
(6.52609e-07 -9.96558e-07 0.103997)
(6.22422e-07 9.65088e-07 0.103997)
(6.52913e-07 -9.95723e-07 0.103997)
(-6.51937e-07 -9.92e-07 0.103997)
(-6.18528e-07 9.66561e-07 0.103997)
(-6.5259e-07 -9.91803e-07 0.103997)
(4.86302e-05 -4.86658e-05 0.103815)
(-5.11582e-05 5.11938e-05 0.103825)
(-9.62706e-07 -6.20626e-07 0.103997)
(9.63916e-07 -6.21577e-07 0.103997)
(-9.61677e-07 -6.20746e-07 0.103997)
(5.11594e-05 5.11794e-05 0.103825)
(4.86447e-05 4.86198e-05 0.103815)
(9.98336e-07 6.48169e-07 0.103997)
(-1.00393e-06 6.60988e-07 0.103997)
(-4.86439e-05 4.86201e-05 0.103815)
(6.26141e-07 9.66248e-07 0.103997)
(6.52823e-07 -9.96151e-07 0.103997)
(-6.51385e-07 -9.91866e-07 0.103997)
(4.86243e-05 -4.86598e-05 0.103815)
(-9.62107e-07 -6.20902e-07 0.103997)
(9.57255e-08 -1.04199e-05 0.0998338)
(6.02263e-07 7.42356e-06 0.090423)
(-1.2858e-07 1.00045e-05 0.0998065)
(-1.23344e-06 -7.07452e-06 0.0904561)
(-2.20438e-06 3.34708e-06 0.0776729)
(2.22548e-06 -3.21801e-06 0.0777052)
(-1.04986e-05 8.62654e-08 0.0998325)
(7.36867e-06 5.62523e-07 0.0904218)
(1.00889e-05 -1.11371e-07 0.0998071)
(-7.01539e-06 -1.19786e-06 0.0904572)
(9.27477e-07 -9.04536e-07 0.104133)
(-9.11626e-07 9.20344e-07 0.104133)
(9.14686e-07 9.11517e-07 0.104133)
(-9.33347e-07 -9.29182e-07 0.104133)
(9.39341e-07 -9.17458e-07 0.104133)
(-9.24106e-07 9.33769e-07 0.104133)
(9.2714e-07 9.2456e-07 0.104133)
(1.74783e-05 1.61033e-07 0.103053)
(-1.67316e-05 4.6529e-06 0.100392)
(-8.2127e-07 -2.30872e-07 0.104088)
(-6.32169e-07 9.69113e-07 0.103997)
(-1.76795e-05 -1.8543e-07 0.103039)
(1.58935e-05 -5.26977e-06 0.100434)
(-8.18437e-07 -2.32507e-07 0.104088)
(3.24698e-06 -2.14574e-06 0.0776696)
(-3.09399e-06 2.16493e-06 0.0777065)
(1.72189e-07 1.74912e-05 0.103053)
(-2.34005e-07 -8.08506e-07 0.104088)
(4.70117e-06 -1.6802e-05 0.100392)
(9.67673e-07 -6.26051e-07 0.103997)
(-1.86491e-07 -1.76973e-05 0.103039)
(-2.35663e-07 -8.0178e-07 0.104088)
(-5.31518e-06 1.59521e-05 0.100433)
(-4.88754e-06 -5.91449e-06 0.0962653)
(-5.90083e-06 -4.88242e-06 0.0962643)
(5.11477e-05 5.11682e-05 0.103825)
(4.40988e-06 5.7498e-06 0.0963024)
(5.74618e-06 4.40301e-06 0.0963008)
(9.37111e-08 -1.04297e-05 0.0998339)
(6.02553e-07 7.40502e-06 0.0904231)
(-1.27787e-07 1.00095e-05 0.0998065)
(-1.2198e-06 -7.10232e-06 0.0904561)
(-2.18354e-06 3.30748e-06 0.0776728)
(2.22921e-06 -3.23704e-06 0.0777054)
(-1.05062e-05 8.83221e-08 0.0998326)
(7.35432e-06 5.58533e-07 0.0904219)
(1.00955e-05 -1.12668e-07 0.0998072)
(-7.04252e-06 -1.19423e-06 0.0904572)
(9.40458e-07 -9.20426e-07 0.104133)
(-9.26341e-07 9.35136e-07 0.104133)
(9.28244e-07 9.26536e-07 0.104133)
(-9.40836e-07 -9.31426e-07 0.104133)
(9.34973e-07 -9.27884e-07 0.104133)
(-9.28452e-07 9.37644e-07 0.104132)
(9.29184e-07 9.32155e-07 0.104132)
(1.74914e-05 1.64492e-07 0.103053)
(-1.67326e-05 4.6587e-06 0.100392)
(-8.09994e-07 -2.33924e-07 0.104088)
(-6.23701e-07 9.65938e-07 0.103997)
(-1.76628e-05 -1.8578e-07 0.103039)
(1.5902e-05 -5.2845e-06 0.100434)
(-8.03369e-07 -2.34206e-07 0.104088)
(3.20518e-06 -2.12246e-06 0.0776695)
(-3.11832e-06 2.16944e-06 0.0777064)
(1.73597e-07 1.75053e-05 0.103053)
(-2.36822e-07 -7.98873e-07 0.104088)
(4.70926e-06 -1.67961e-05 0.100392)
(9.63255e-07 -6.18659e-07 0.103997)
(-1.87617e-07 -1.76798e-05 0.103039)
(-2.37569e-07 -7.91748e-07 0.104088)
(-5.33249e-06 1.59658e-05 0.100433)
(-4.8985e-06 -5.91907e-06 0.0962655)
(-5.90598e-06 -4.89404e-06 0.0962645)
(5.1149e-05 5.11701e-05 0.103825)
(4.39743e-06 5.75826e-06 0.0963025)
(5.75392e-06 4.39093e-06 0.0963009)
(9.1869e-08 -1.04446e-05 0.0998338)
(6.01219e-07 7.38101e-06 0.0904232)
(-1.28503e-07 9.99111e-06 0.0998065)
(-1.22417e-06 -7.1088e-06 0.0904564)
(-2.17825e-06 3.28207e-06 0.0776729)
(2.19085e-06 -3.21339e-06 0.0777057)
(-1.05216e-05 8.61684e-08 0.0998325)
(7.33259e-06 5.67909e-07 0.090422)
(1.008e-05 -1.10191e-07 0.0998072)
(-7.05821e-06 -1.18297e-06 0.0904574)
(9.33974e-07 -9.27666e-07 0.104132)
(-9.27682e-07 9.36918e-07 0.104132)
(9.28439e-07 9.31939e-07 0.104132)
(-9.42598e-07 -9.29629e-07 0.104132)
(9.36427e-07 -9.24785e-07 0.104132)
(-9.30073e-07 9.4015e-07 0.104132)
(9.3052e-07 9.34824e-07 0.104132)
(1.75093e-05 1.65801e-07 0.103053)
(-1.67215e-05 4.64871e-06 0.100392)
(-7.93198e-07 -2.3187e-07 0.104088)
(-6.13579e-07 9.70111e-07 0.103997)
(-1.76498e-05 -1.82307e-07 0.103039)
(1.5921e-05 -5.29232e-06 0.100434)
(-7.89559e-07 -2.32207e-07 0.104088)
(3.18786e-06 -2.12253e-06 0.0776696)
(-3.13015e-06 2.16685e-06 0.0777066)
(1.73177e-07 1.75215e-05 0.103053)
(-2.38118e-07 -7.90271e-07 0.104088)
(4.69365e-06 -1.67799e-05 0.100392)
(9.61743e-07 -6.14181e-07 0.103997)
(-1.8775e-07 -1.76672e-05 0.103039)
(-2.38402e-07 -7.84159e-07 0.104088)
(-5.34332e-06 1.59799e-05 0.100433)
(-4.90078e-06 -5.91328e-06 0.0962656)
(-5.90097e-06 -4.89614e-06 0.0962645)
(5.11553e-05 5.11759e-05 0.103825)
(4.40194e-06 5.76484e-06 0.0963025)
(5.7599e-06 4.39519e-06 0.0963009)
(1.01291e-07 -1.04573e-05 0.0998338)
(6.12299e-07 7.3762e-06 0.0904234)
(-1.29289e-07 9.97769e-06 0.0998065)
(-1.21747e-06 -7.11415e-06 0.0904566)
(-2.24575e-06 3.34595e-06 0.0776732)
(2.22067e-06 -3.22765e-06 0.077706)
(-1.05349e-05 9.35449e-08 0.0998325)
(7.32879e-06 5.71807e-07 0.0904222)
(1.00634e-05 -1.04364e-07 0.0998072)
(-7.06589e-06 -1.18557e-06 0.0904576)
(9.35213e-07 -9.25303e-07 0.104132)
(-9.28831e-07 9.38654e-07 0.104132)
(9.29405e-07 9.33511e-07 0.104132)
(-9.45985e-07 -9.33738e-07 0.104132)
(9.42688e-07 -9.35499e-07 0.104132)
(-9.3417e-07 9.44509e-07 0.104132)
(9.35001e-07 9.38857e-07 0.104132)
(1.75226e-05 1.6545e-07 0.103053)
(-1.66948e-05 4.63623e-06 0.100392)
(-7.8394e-07 -2.30768e-07 0.104088)
(-6.11012e-07 9.68859e-07 0.103997)
(-1.76326e-05 -1.83368e-07 0.103039)
(1.59367e-05 -5.31191e-06 0.100434)
(-7.84038e-07 -2.32988e-07 0.104088)
(3.1831e-06 -2.12167e-06 0.0776699)
(-3.12778e-06 2.16921e-06 0.0777069)
(1.75441e-07 1.75339e-05 0.103053)
(-2.37611e-07 -7.80392e-07 0.104088)
(4.684e-06 -1.67702e-05 0.100392)
(9.61991e-07 -6.12465e-07 0.103997)
(-1.85683e-07 -1.76523e-05 0.103038)
(-2.37491e-07 -7.78582e-07 0.104088)
(-5.35512e-06 1.59919e-05 0.100433)
(-4.89315e-06 -5.91172e-06 0.0962656)
(-5.90003e-06 -4.88888e-06 0.0962645)
(5.11594e-05 5.11797e-05 0.103825)
(4.40926e-06 5.76696e-06 0.0963026)
(5.76141e-06 4.40293e-06 0.096301)
(1.0699e-07 -1.04711e-05 0.0998338)
(5.85742e-07 7.37773e-06 0.0904237)
(-1.13176e-07 9.96993e-06 0.0998065)
(-1.23866e-06 -7.12103e-06 0.090457)
(-2.17682e-06 3.26382e-06 0.0776732)
(2.22199e-06 -3.21421e-06 0.0777068)
(-1.05524e-05 9.42951e-08 0.0998325)
(7.32715e-06 5.57298e-07 0.0904225)
(1.00546e-05 -1.05972e-07 0.0998072)
(-7.08433e-06 -1.20643e-06 0.0904578)
(9.40832e-07 -9.33779e-07 0.104132)
(-9.35894e-07 9.4474e-07 0.104132)
(9.34816e-07 9.39496e-07 0.104132)
(-9.49468e-07 -9.38912e-07 0.104132)
(9.53206e-07 -9.45778e-07 0.104132)
(-9.4022e-07 9.49088e-07 0.104132)
(9.3878e-07 9.42016e-07 0.104132)
(1.75377e-05 1.63516e-07 0.103053)
(-1.6695e-05 4.61467e-06 0.100392)
(-7.7631e-07 -2.3566e-07 0.104088)
(-6.11999e-07 9.69326e-07 0.103997)
(-1.7625e-05 -1.82329e-07 0.103038)
(1.59514e-05 -5.31565e-06 0.100434)
(-7.79302e-07 -2.35713e-07 0.104088)
(3.18491e-06 -2.11586e-06 0.0776702)
(-3.14418e-06 2.18108e-06 0.0777073)
(1.7348e-07 1.7551e-05 0.103053)
(-2.39809e-07 -7.68688e-07 0.104088)
(4.66499e-06 -1.67582e-05 0.100392)
(9.55469e-07 -6.06149e-07 0.103997)
(-1.86228e-07 -1.76443e-05 0.103038)
(-2.4001e-07 -7.69155e-07 0.104088)
(-5.37256e-06 1.60091e-05 0.100433)
(-4.88134e-06 -5.90573e-06 0.0962657)
(-5.89337e-06 -4.87602e-06 0.0962647)
(5.11696e-05 5.11901e-05 0.103825)
(4.42853e-06 5.76569e-06 0.0963027)
(5.76031e-06 4.42209e-06 0.0963011)
(1.0207e-07 -1.05007e-05 0.0998338)
(6.00422e-07 7.33161e-06 0.0904239)
(-1.24037e-07 9.94888e-06 0.0998065)
(-1.24206e-06 -7.12568e-06 0.0904575)
(-2.14263e-06 3.22352e-06 0.0776734)
(2.21413e-06 -3.19922e-06 0.0777077)
(-1.05847e-05 9.81254e-08 0.0998326)
(7.30263e-06 5.67602e-07 0.0904229)
(1.00288e-05 -1.05289e-07 0.0998072)
(-7.09937e-06 -1.21655e-06 0.0904581)
(9.5552e-07 -9.45798e-07 0.104132)
(-9.47611e-07 9.57045e-07 0.104132)
(9.46271e-07 9.51392e-07 0.104132)
(-9.49853e-07 -9.30215e-07 0.104132)
(9.47784e-07 -9.31366e-07 0.104132)
(-9.38144e-07 9.51363e-07 0.104132)
(9.37379e-07 9.44782e-07 0.104132)
(1.75726e-05 1.69752e-07 0.103053)
(-1.66628e-05 4.62111e-06 0.100392)
(-7.54417e-07 -2.37738e-07 0.104088)
(-5.84922e-07 9.56869e-07 0.103997)
(-1.75925e-05 -1.8544e-07 0.103038)
(1.59682e-05 -5.31434e-06 0.100434)
(-7.49173e-07 -2.34005e-07 0.104088)
(3.16682e-06 -2.1242e-06 0.0776708)
(-3.13693e-06 2.19759e-06 0.0777081)
(1.75132e-07 1.75878e-05 0.103052)
(-2.41851e-07 -7.50544e-07 0.104088)
(4.67084e-06 -1.67395e-05 0.100392)
(9.42085e-07 -5.76925e-07 0.103997)
(-1.86285e-07 -1.76104e-05 0.103038)
(-2.42466e-07 -7.3505e-07 0.104088)
(-5.36653e-06 1.60384e-05 0.100433)
(-4.87356e-06 -5.91295e-06 0.0962658)
(-5.90373e-06 -4.86823e-06 0.0962648)
(5.11846e-05 5.12066e-05 0.103824)
(4.43911e-06 5.77626e-06 0.0963028)
(5.7683e-06 4.435e-06 0.0963012)
(8.17515e-08 -1.04751e-05 0.0998339)
(6.12681e-07 7.35818e-06 0.0904242)
(-1.24927e-07 9.91987e-06 0.0998065)
(-1.16484e-06 -7.07231e-06 0.0904581)
(-2.22457e-06 3.35518e-06 0.0776751)
(2.19617e-06 -3.19503e-06 0.0777077)
(-1.05708e-05 9.69816e-08 0.0998327)
(7.31167e-06 5.5389e-07 0.0904234)
(9.99487e-06 -9.89586e-08 0.0998072)
(-7.10656e-06 -1.22738e-06 0.0904584)
(9.51082e-07 -9.33331e-07 0.104132)
(-9.40185e-07 9.5398e-07 0.104132)
(9.40245e-07 9.4554e-07 0.104132)
(-9.55177e-07 -9.23234e-07 0.104132)
(9.32186e-07 -9.09723e-07 0.104132)
(-9.41694e-07 9.58191e-07 0.104132)
(9.4091e-07 9.48622e-07 0.104132)
(1.75475e-05 1.89021e-07 0.103052)
(-1.66393e-05 4.62743e-06 0.100392)
(-7.81761e-07 -2.25666e-07 0.104087)
(-5.77997e-07 9.5694e-07 0.103997)
(-1.75732e-05 -1.81837e-07 0.103038)
(1.59651e-05 -5.30114e-06 0.100434)
(-7.6722e-07 -2.26058e-07 0.104087)
(3.17396e-06 -2.11551e-06 0.0776715)
(-3.13066e-06 2.23541e-06 0.0777089)
(1.72639e-07 1.75619e-05 0.103052)
(-2.40814e-07 -7.82226e-07 0.104087)
(4.65673e-06 -1.67305e-05 0.100392)
(9.45447e-07 -5.83831e-07 0.103997)
(-1.90889e-07 -1.75946e-05 0.103038)
(-2.43091e-07 -7.58549e-07 0.104087)
(-5.38366e-06 1.60423e-05 0.100433)
(-4.85807e-06 -5.89011e-06 0.0962659)
(-5.88581e-06 -4.84875e-06 0.0962649)
(5.11789e-05 5.12082e-05 0.103824)
(4.44666e-06 5.79467e-06 0.096303)
(5.77784e-06 4.44779e-06 0.0963014)
(1.0118e-07 -1.03763e-05 0.099834)
(6.01703e-07 7.38303e-06 0.0904246)
(-1.26113e-07 9.95741e-06 0.0998066)
(-1.14065e-06 -6.94856e-06 0.0904586)
(-2.29134e-06 3.33612e-06 0.0776751)
(2.3352e-06 -3.23094e-06 0.0777064)
(-1.04597e-05 1.14356e-07 0.0998328)
(7.38134e-06 5.9473e-07 0.0904241)
(1.0018e-05 -8.1174e-08 0.0998072)
(-6.9703e-06 -1.17003e-06 0.0904585)
(8.97638e-07 -8.78082e-07 0.104132)
(-9.16569e-07 9.32461e-07 0.104132)
(9.18153e-07 9.22449e-07 0.104132)
(-8.22379e-07 -8.31196e-07 0.104132)
(8.51763e-07 -8.5185e-07 0.104132)
(-8.263e-07 8.37589e-07 0.104132)
(8.34502e-07 8.26257e-07 0.104132)
(1.73749e-05 2.02832e-07 0.103052)
(-1.67329e-05 4.70909e-06 0.100392)
(-8.19302e-07 -1.98844e-07 0.104087)
(-7.31911e-07 1.06555e-06 0.103997)
(-1.76209e-05 -1.59749e-07 0.103038)
(1.57972e-05 -5.19939e-06 0.100434)
(-9.02228e-07 -1.88862e-07 0.104087)
(3.22349e-06 -2.23764e-06 0.0776721)
(-3.05188e-06 2.11312e-06 0.0777086)
(1.87015e-07 1.74002e-05 0.103052)
(-2.33116e-07 -7.90582e-07 0.104087)
(4.69745e-06 -1.67832e-05 0.100392)
(1.03474e-06 -7.03463e-07 0.103997)
(-1.80856e-07 -1.76198e-05 0.103038)
(-2.18746e-07 -8.79987e-07 0.104087)
(-5.29642e-06 1.58859e-05 0.100433)
(-4.88699e-06 -5.94046e-06 0.0962662)
(-5.93581e-06 -4.87573e-06 0.0962652)
(5.10781e-05 5.11084e-05 0.103824)
(4.32521e-06 5.70489e-06 0.0963032)
(5.7037e-06 4.31878e-06 0.0963016)
(1.32104e-07 -1.02188e-05 0.0998335)
(6.96144e-07 7.61256e-06 0.0904237)
(-1.19689e-07 1.02961e-05 0.0998064)
(-1.17077e-06 -6.84554e-06 0.0904578)
(-2.06931e-06 3.20778e-06 0.0776737)
(2.27186e-06 -3.28079e-06 0.0777054)
(-1.02891e-05 5.87948e-08 0.0998323)
(7.63815e-06 6.0155e-07 0.0904241)
(1.03791e-05 -1.47449e-07 0.099807)
(-6.91382e-06 -1.20726e-06 0.0904571)
(8.77164e-07 -8.81081e-07 0.104133)
(-8.42261e-07 8.51849e-07 0.104133)
(8.52167e-07 8.40164e-07 0.104133)
(-9.38846e-07 -9.4201e-07 0.104133)
(9.53203e-07 -9.47488e-07 0.104133)
(-9.34381e-07 9.42848e-07 0.104133)
(9.40424e-07 9.31361e-07 0.104133)
(1.72926e-05 1.37997e-07 0.103053)
(-1.69671e-05 4.72361e-06 0.100392)
(-9.21471e-07 -2.34932e-07 0.104088)
(-6.59568e-07 9.41997e-07 0.103997)
(-1.80003e-05 -1.83086e-07 0.103038)
(1.57316e-05 -5.22846e-06 0.100434)
(-8.63418e-07 -2.4763e-07 0.104088)
(3.25635e-06 -2.06432e-06 0.0776706)
(-3.08054e-06 2.21057e-06 0.0777071)
(1.81058e-07 1.72991e-05 0.103053)
(-2.10343e-07 -9.34482e-07 0.104088)
(4.80369e-06 -1.7025e-05 0.100392)
(9.79673e-07 -6.76418e-07 0.103997)
(-1.75743e-07 -1.80208e-05 0.103038)
(-2.20823e-07 -8.71265e-07 0.104088)
(-5.2251e-06 1.57829e-05 0.100433)
(-5.06204e-06 -5.94885e-06 0.0962658)
(-5.92642e-06 -5.06576e-06 0.0962647)
(5.11241e-05 5.11349e-05 0.103825)
(4.28302e-06 5.74106e-06 0.0963024)
(5.74604e-06 4.26854e-06 0.0963008)
(9.45953e-08 -1.04189e-05 0.0998337)
(5.94767e-07 7.39806e-06 0.0904224)
(-1.1628e-07 1.00584e-05 0.0998062)
(-1.19818e-06 -7.00621e-06 0.0904571)
(-2.1995e-06 3.32566e-06 0.0776732)
(2.23003e-06 -3.24154e-06 0.0777053)
(-1.04942e-05 8.69667e-08 0.0998325)
(7.46985e-06 5.85642e-07 0.0904229)
(1.01429e-05 -1.12653e-07 0.0998068)
(-7.05813e-06 -1.19935e-06 0.0904566)
(9.56915e-07 -9.52329e-07 0.104133)
(-9.46665e-07 9.54095e-07 0.104133)
(9.49443e-07 9.45476e-07 0.104133)
(-9.5081e-07 -9.41024e-07 0.104133)
(9.42914e-07 -9.39722e-07 0.104133)
(-9.40494e-07 9.47862e-07 0.104133)
(9.39073e-07 9.42896e-07 0.104133)
(1.75104e-05 1.61482e-07 0.103053)
(-1.6767e-05 4.67861e-06 0.100392)
(-7.72938e-07 -2.45135e-07 0.104088)
(-5.94358e-07 9.48144e-07 0.103997)
(-1.76806e-05 -2.00649e-07 0.103039)
(1.59047e-05 -5.26913e-06 0.100434)
(-7.70693e-07 -2.4016e-07 0.104088)
(3.21244e-06 -2.11825e-06 0.0776698)