/*--------------------------------*- C++ -*----------------------------------*\
| =========                 |                                                 |
| \\      /  F ield         | OpenFOAM: The Open Source CFD Toolbox           |
|  \\    /   O peration     | Version:  2206                                  |
|   \\  /    A nd           | Website:  www.openfoam.com                      |
|    \\/     M anipulation  |                                                 |
\*---------------------------------------------------------------------------*/
FoamFile
{
    version     2.0;
    format      ascii;
    arch        "LSB;label=32;scalar=64";
    class       volScalarField;
    location    "22";
    object      p;
}
// * * * * * * * * * * * * * * * * * * * * * * * * * * * * * * * * * * * * * //

dimensions      [0 2 -2 0 0 0 0];

internalField   nonuniform List<scalar> 
171728
(
0.00413647
0.0041368
0.0041368
0.00413985
0.00408112
0.00408154
0.00408154
0.00408453
0.00403034
0.0040303
0.0040303
0.00403307
0.00397811
0.00397796
0.00397796
0.00398069
0.00392837
0.00392817
0.00392817
0.00393057
0.00388356
0.0038835
0.0038835
0.00388609
0.00383982
0.00383978
0.00383978
0.00384235
0.00379619
0.00379616
0.00379616
0.00379873
0.00375258
0.00375255
0.00375255
0.00375512
0.00370897
0.00370894
0.00370894
0.00371151
0.00366536
0.00366533
0.00366533
0.00366789
0.00362175
0.00362172
0.00362172
0.00362428
0.00357814
0.0035781
0.0035781
0.00358067
0.00353452
0.00353449
0.00353449
0.00353706
0.00349091
0.00349088
0.00349088
0.00349345
0.00344731
0.00344727
0.00344727
0.00344984
0.0034037
0.00340366
0.00340367
0.00340623
0.00336008
0.00336005
0.00336005
0.00336261
0.00331646
0.00331643
0.00331643
0.003319
0.00327285
0.00327282
0.00327282
0.00327538
0.00322924
0.00322921
0.00322921
0.00323177
0.00318563
0.00318559
0.00318559
0.00318816
0.00314201
0.00314198
0.00314198
0.00314455
0.0030984
0.00309837
0.00309837
0.00310093
0.00305479
0.00305476
0.00305476
0.00305732
0.00301117
0.00301114
0.00301114
0.00301371
0.00296756
0.00296753
0.00296753
0.0029701
0.00292395
0.00292392
0.00292392
0.00292648
0.00288034
0.0028803
0.0028803
0.00288287
0.00283672
0.00283669
0.00283669
0.00283926
0.00279311
0.00279307
0.00279307
0.00279564
0.00274949
0.00274946
0.00274946
0.00275203
0.00270588
0.00270585
0.00270585
0.00270842
0.00266227
0.00266224
0.00266224
0.00266481
0.00261865
0.00261862
0.00261862
0.00262119
0.00257503
0.002575
0.002575
0.00257756
0.00253141
0.00253138
0.00253138
0.00253394
0.00248779
0.00248776
0.00248776
0.00249033
0.00244418
0.00244415
0.00244415
0.00244671
0.00240056
0.00240053
0.00240053
0.00240309
0.00235694
0.00235691
0.00235691
0.00235948
0.00231332
0.00231329
0.00231329
0.00231586
0.00226971
0.00226967
0.00226967
0.00227224
0.00222609
0.00222606
0.00222606
0.00222862
0.00218247
0.00218244
0.00218244
0.00218501
0.00213885
0.00213882
0.00213882
0.00214139
0.00209524
0.00209521
0.00209521
0.00209777
0.00205162
0.00205159
0.00205159
0.00205416
0.00200801
0.00200798
0.00200798
0.00201054
0.0019644
0.00196436
0.00196436
0.00196693
0.00192079
0.00192075
0.00192075
0.00192332
0.00187717
0.00187714
0.00187714
0.00187971
0.00183354
0.00183351
0.00183351
0.00183608
0.00178992
0.00178989
0.00178989
0.00179246
0.0017463
0.00174627
0.00174627
0.00174884
0.00170269
0.00170265
0.00170265
0.00170522
0.00165907
0.00165904
0.00165904
0.0016616
0.00161545
0.00161542
0.00161542
0.00161798
0.00157183
0.0015718
0.0015718
0.00157436
0.00152821
0.00152818
0.00152818
0.00153074
0.00148459
0.00148455
0.00148455
0.00148712
0.00144096
0.00144093
0.00144093
0.0014435
0.00139734
0.00139731
0.00139731
0.00139988
0.00135372
0.00135369
0.00135369
0.00135625
0.0013101
0.00131007
0.00131007
0.00131263
0.00126648
0.00126645
0.00126645
0.00126901
0.00122286
0.00122283
0.00122283
0.0012254
0.00117925
0.00117921
0.00117921
0.00118178
0.00113563
0.0011356
0.0011356
0.00113817
0.00109201
0.00109198
0.00109198
0.00109454
0.00104838
0.00104835
0.00104835
0.00105092
0.00100476
0.00100473
0.00100473
0.00100729
0.000961138
0.000961106
0.000961106
0.000963672
0.000917515
0.000917483
0.000917483
0.00092005
0.000873893
0.000873861
0.000873861
0.000876427
0.000830271
0.000830239
0.000830239
0.000832805
0.000786649
0.000786617
0.000786617
0.000789184
0.000743029
0.000742997
0.000742997
0.000745563
0.000699408
0.000699376
0.000699376
0.000701942
0.000655786
0.000655754
0.000655754
0.000658321
0.000612164
0.000612132
0.000612132
0.000614698
0.000568542
0.00056851
0.00056851
0.000571076
0.000524922
0.000524889
0.00052489
0.000527456
0.000481302
0.00048127
0.00048127
0.000483836
0.000437685
0.000437653
0.000437653
0.00044022
0.000394069
0.000394039
0.000394037
0.000396604
0.00035045
0.000350418
0.000350418
0.000352986
0.000306821
0.000306788
0.000306789
0.000309354
0.000263198
0.000263167
0.000263167
0.000265733
0.000219576
0.000219548
0.000219547
0.00022211
0.000175953
0.000175905
0.000175905
0.000178467
0.000132318
0.000132302
0.000132302
0.000134842
8.87014e-05
8.86605e-05
8.86587e-05
9.11848e-05
4.57442e-05
4.51895e-05
4.51866e-05
4.75707e-05
1.00749e-05
1.03622e-05
1.03604e-05
9.92854e-06
0.00414988
0.0041501
0.0041501
0.00414988
0.0041501
0.0041501
0.00415086
0.00415085
0.00415086
0.00415086
0.0041501
0.0041501
0.00414988
0.0041501
0.0041501
0.00414988
0.00413985
0.0040911
0.00413679
0.0041368
0.00409335
0.00409336
0.00413985
0.00409109
0.0041368
0.0041368
0.00409335
0.00409335
0.0041368
0.00409335
0.00409335
0.00413985
0.0040911
0.0041368
0.00409335
0.00409335
0.00409109
0.00408453
0.00404003
0.00408155
0.00408155
0.00404347
0.00404347
0.00408453
0.00404003
0.00408154
0.00408154
0.00404347
0.00404347
0.00408155
0.00404347
0.00404347
0.00408453
0.00404003
0.00408154
0.00404347
0.00404347
0.00404003
0.00403307
0.00398763
0.0040303
0.0040303
0.00399099
0.00399099
0.00403307
0.00398763
0.0040303
0.0040303
0.00399099
0.00399099
0.0040303
0.00399099
0.00399099
0.00403307
0.00398763
0.0040303
0.00399099
0.00399099
0.00398763
0.00398069
0.00393683
0.00397796
0.00397796
0.0039401
0.0039401
0.00398069
0.00393683
0.00397796
0.00397796
0.00394011
0.0039401
0.00397796
0.00394011
0.0039401
0.00398069
0.00393682
0.00397796
0.00394012
0.00394012
0.00393682
0.00393057
0.00389188
0.00392816
0.00392816
0.00389447
0.00389447
0.00393058
0.00389188
0.00392816
0.00392816
0.00389447
0.00389447
0.00392816
0.00389447
0.00389447
0.00393057
0.00389188
0.00392817
0.00389447
0.00389447
0.00389188
0.00388609
0.00384813
0.0038835
0.0038835
0.0038507
0.00385069
0.00388609
0.00384813
0.0038835
0.0038835
0.0038507
0.0038507
0.0038835
0.0038507
0.0038507
0.00388609
0.00384813
0.0038835
0.0038507
0.0038507
0.00384813
0.00384235
0.0038045
0.00383978
0.00383978
0.00380706
0.00380706
0.00384235
0.0038045
0.00383978
0.00383978
0.00380706
0.00380706
0.00383978
0.00380706
0.00380706
0.00384235
0.0038045
0.00383978
0.00380706
0.00380706
0.0038045
0.00379873
0.00376089
0.00379616
0.00379616
0.00376345
0.00376345
0.00379873
0.0037609
0.00379616
0.00379616
0.00376345
0.00376345
0.00379616
0.00376345
0.00376346
0.00379873
0.00376089
0.00379616
0.00376345
0.00376346
0.00376089
0.00375512
0.00371728
0.00375255
0.00375255
0.00371984
0.00371984
0.00375512
0.00371728
0.00375255
0.00375255
0.00371984
0.00371984
0.00375255
0.00371984
0.00371984
0.00375512
0.00371728
0.00375255
0.00371984
0.00371984
0.00371728
0.00371151
0.00367367
0.00370894
0.00370894
0.00367623
0.00367623
0.00371151
0.00367367
0.00370894
0.00370894
0.00367623
0.00367623
0.00370894
0.00367623
0.00367623
0.00371151
0.00367367
0.00370894
0.00367623
0.00367623
0.00367367
0.00366789
0.00363006
0.00366533
0.00366533
0.00363262
0.00363262
0.00366789
0.00363006
0.00366533
0.00366533
0.00363262
0.00363262
0.00366533
0.00363262
0.00363262
0.00366789
0.00363006
0.00366533
0.00363262
0.00363262
0.00363006
0.00362428
0.00358645
0.00362172
0.00362172
0.00358901
0.00358901
0.00362428
0.00358645
0.00362172
0.00362172
0.00358901
0.00358901
0.00362172
0.00358901
0.00358901
0.00362428
0.00358645
0.00362172
0.00358901
0.00358901
0.00358645
0.00358067
0.00354283
0.0035781
0.0035781
0.00354539
0.00354539
0.00358067
0.00354283
0.0035781
0.0035781
0.00354539
0.00354539
0.00357811
0.00354539
0.00354539
0.00358067
0.00354283
0.0035781
0.00354539
0.00354539
0.00354283
0.00353706
0.00349922
0.00353449
0.00353449
0.00350178
0.00350178
0.00353706
0.00349922
0.00353449
0.00353449
0.00350178
0.00350178
0.00353449
0.00350178
0.00350178
0.00353706
0.00349922
0.00353449
0.00350178
0.00350178
0.00349922
0.00349345
0.00345562
0.00349088
0.00349088
0.00345817
0.00345818
0.00349345
0.00345562
0.00349088
0.00349088
0.00345817
0.00345817
0.00349088
0.00345817
0.00345817
0.00349345
0.00345562
0.00349088
0.00345817
0.00345817
0.00345562
0.00344984
0.00341201
0.00344727
0.00344727
0.00341457
0.00341457
0.00344984
0.00341201
0.00344727
0.00344727
0.00341457
0.00341457
0.00344727
0.00341457
0.00341457
0.00344984
0.00341201
0.00344727
0.00341457
0.00341457
0.00341201
0.00340623
0.00336839
0.00340366
0.00340366
0.00337095
0.00337095
0.00340623
0.00336839
0.00340366
0.00340366
0.00337095
0.00337095
0.00340366
0.00337095
0.00337095
0.00340623
0.00336839
0.00340367
0.00337095
0.00337095
0.00336839
0.00336261
0.00332478
0.00336005
0.00336005
0.00332734
0.00332734
0.00336261
0.00332478
0.00336005
0.00336005
0.00332734
0.00332734
0.00336005
0.00332734
0.00332734
0.00336261
0.00332477
0.00336005
0.00332734
0.00332734
0.00332477
0.003319
0.00328116
0.00331643
0.00331643
0.00328372
0.00328372
0.003319
0.00328116
0.00331643
0.00331643
0.00328372
0.00328372
0.00331643
0.00328372
0.00328372
0.003319
0.00328116
0.00331643
0.00328372
0.00328372
0.00328116
0.00327538
0.00323755
0.00327282
0.00327282
0.00324011
0.00324011
0.00327538
0.00323755
0.00327282
0.00327282
0.00324011
0.00324011
0.00327282
0.00324011
0.00324011
0.00327538
0.00323755
0.00327282
0.00324011
0.00324011
0.00323755
0.00323177
0.00319394
0.00322921
0.00322921
0.0031965
0.0031965
0.00323177
0.00319394
0.00322921
0.00322921
0.0031965
0.0031965
0.00322921
0.0031965
0.0031965
0.00323177
0.00319394
0.00322921
0.0031965
0.0031965
0.00319394
0.00318816
0.00315032
0.00318559
0.00318559
0.00315288
0.00315288
0.00318816
0.00315032
0.00318559
0.00318559
0.00315288
0.00315288
0.00318559
0.00315288
0.00315288
0.00318816
0.00315032
0.00318559
0.00315288
0.00315288
0.00315032
0.00314455
0.00310671
0.00314198
0.00314198
0.00310927
0.00310927
0.00314455
0.00310671
0.00314198
0.00314198
0.00310927
0.00310927
0.00314198
0.00310927
0.00310927
0.00314455
0.00310671
0.00314198
0.00310927
0.00310927
0.00310671
0.00310093
0.0030631
0.00309837
0.00309837
0.00306566
0.00306566
0.00310093
0.0030631
0.00309837
0.00309837
0.00306566
0.00306566
0.00309837
0.00306566
0.00306566
0.00310093
0.0030631
0.00309837
0.00306566
0.00306566
0.0030631
0.00305732
0.00301949
0.00305476
0.00305476
0.00302205
0.00302205
0.00305732
0.00301949
0.00305476
0.00305476
0.00302205
0.00302205
0.00305476
0.00302205
0.00302205
0.00305732
0.00301949
0.00305476
0.00302205
0.00302205
0.00301949
0.00301371
0.00297587
0.00301114
0.00301114
0.00297843
0.00297843
0.00301371
0.00297587
0.00301114
0.00301114
0.00297843
0.00297843
0.00301114
0.00297843
0.00297843
0.00301371
0.00297587
0.00301114
0.00297843
0.00297843
0.00297587
0.0029701
0.00293226
0.00296753
0.00296753
0.00293482
0.00293482
0.0029701
0.00293226
0.00296753
0.00296753
0.00293482
0.00293482
0.00296753
0.00293482
0.00293482
0.0029701
0.00293226
0.00296753
0.00293482
0.00293482
0.00293226
0.00292648
0.00288865
0.00292392
0.00292392
0.00289121
0.00289121
0.00292648
0.00288865
0.00292392
0.00292392
0.00289121
0.00289121
0.00292392
0.00289121
0.00289121
0.00292648
0.00288865
0.00292392
0.00289121
0.00289121
0.00288865
0.00288287
0.00284503
0.0028803
0.0028803
0.00284759
0.00284759
0.00288287
0.00284503
0.0028803
0.0028803
0.00284759
0.00284759
0.0028803
0.00284759
0.00284759
0.00288287
0.00284503
0.0028803
0.00284759
0.00284759
0.00284503
0.00283926
0.00280142
0.00283669
0.00283669
0.00280398
0.00280398
0.00283926
0.00280142
0.00283669
0.00283669
0.00280398
0.00280398
0.00283669
0.00280398
0.00280398
0.00283926
0.00280142
0.00283669
0.00280398
0.00280398
0.00280142
0.00279564
0.00275781
0.00279307
0.00279307
0.00276036
0.00276036
0.00279564
0.00275781
0.00279307
0.00279307
0.00276036
0.00276036
0.00279307
0.00276036
0.00276036
0.00279564
0.0027578
0.00279307
0.00276036
0.00276036
0.0027578
0.00275203
0.00271419
0.00274946
0.00274946
0.00271675
0.00271675
0.00275203
0.00271419
0.00274946
0.00274946
0.00271675
0.00271675
0.00274946
0.00271675
0.00271675
0.00275203
0.00271419
0.00274946
0.00271675
0.00271675
0.00271419
0.00270842
0.00267058
0.00270585
0.00270585
0.00267314
0.00267314
0.00270842
0.00267058
0.00270585
0.00270585
0.00267314
0.00267314
0.00270585
0.00267314
0.00267314
0.00270842
0.00267058
0.00270585
0.00267314
0.00267314
0.00267058
0.00266481
0.00262697
0.00266224
0.00266224
0.00262953
0.00262953
0.00266481
0.00262697
0.00266224
0.00266224
0.00262953
0.00262953
0.00266224
0.00262953
0.00262953
0.00266481
0.00262697
0.00266224
0.00262953
0.00262953
0.00262697
0.00262119
0.00258334
0.00261862
0.00261862
0.0025859
0.0025859
0.00262119
0.00258334
0.00261862
0.00261862
0.0025859
0.0025859
0.00261862
0.0025859
0.0025859
0.00262119
0.00258334
0.00261862
0.0025859
0.0025859
0.00258334
0.00257756
0.00253972
0.002575
0.002575
0.00254228
0.00254228
0.00257756
0.00253972
0.002575
0.002575
0.00254228
0.00254228
0.002575
0.00254228
0.00254228
0.00257756
0.00253972
0.002575
0.00254228
0.00254228
0.00253972
0.00253394
0.00249611
0.00253138
0.00253138
0.00249867
0.00249867
0.00253394
0.00249611
0.00253138
0.00253138
0.00249867
0.00249867
0.00253138
0.00249867
0.00249867
0.00253394
0.00249611
0.00253138
0.00249867
0.00249867
0.00249611
0.00249033
0.00245249
0.00248776
0.00248776
0.00245505
0.00245505
0.00249033
0.00245249
0.00248776
0.00248776
0.00245505
0.00245505
0.00248776
0.00245505
0.00245505
0.00249033
0.00245249
0.00248776
0.00245505
0.00245505
0.00245249
0.00244671
0.00240887
0.00244415
0.00244414
0.00241143
0.00241143
0.00244671
0.00240887
0.00244414
0.00244415
0.00241143
0.00241143
0.00244415
0.00241143
0.00241143
0.00244671
0.00240887
0.00244415
0.00241143
0.00241143
0.00240887
0.00240309
0.00236525
0.00240053
0.00240053
0.00236781
0.00236781
0.00240309
0.00236525
0.00240053
0.00240053
0.00236781
0.00236781
0.00240053
0.00236781
0.00236781
0.00240309
0.00236525
0.00240053
0.00236781
0.00236781
0.00236525
0.00235948
0.00232164
0.00235691
0.00235691
0.0023242
0.0023242
0.00235948
0.00232164
0.00235691
0.00235691
0.0023242
0.0023242
0.00235691
0.0023242
0.0023242
0.00235948
0.00232164
0.00235691
0.0023242
0.0023242
0.00232164
0.00231586
0.00227802
0.00231329
0.00231329
0.00228058
0.00228058
0.00231586
0.00227802
0.00231329
0.00231329
0.00228058
0.00228058
0.00231329
0.00228058
0.00228058
0.00231586
0.00227802
0.00231329
0.00228058
0.00228058
0.00227802
0.00227224
0.0022344
0.00226967
0.00226967
0.00223696
0.00223696
0.00227224
0.0022344
0.00226967
0.00226967
0.00223696
0.00223696
0.00226967
0.00223696
0.00223696
0.00227224
0.0022344
0.00226967
0.00223696
0.00223696
0.0022344
0.00222862
0.00219078
0.00222606
0.00222606
0.00219334
0.00219334
0.00222862
0.00219078
0.00222606
0.00222606
0.00219334
0.00219334
0.00222606
0.00219334
0.00219334
0.00222862
0.00219078
0.00222606
0.00219334
0.00219334
0.00219078
0.00218501
0.00214717
0.00218244
0.00218244
0.00214973
0.00214973
0.00218501
0.00214717
0.00218244
0.00218244
0.00214973
0.00214973
0.00218244
0.00214973
0.00214973
0.00218501
0.00214717
0.00218244
0.00214973
0.00214973
0.00214717
0.00214139
0.00210355
0.00213882
0.00213882
0.00210611
0.00210611
0.00214139
0.00210355
0.00213882
0.00213882
0.00210611
0.00210611
0.00213882
0.00210611
0.00210611
0.00214139
0.00210355
0.00213882
0.00210611
0.00210611
0.00210355
0.00209777
0.00205994
0.00209521
0.00209521
0.0020625
0.0020625
0.00209777
0.00205994
0.00209521
0.00209521
0.0020625
0.0020625
0.00209521
0.0020625
0.0020625
0.00209777
0.00205994
0.00209521
0.0020625
0.0020625
0.00205994
0.00205416
0.00201632
0.00205159
0.00205159
0.00201888
0.00201888
0.00205416
0.00201632
0.00205159
0.00205159
0.00201888
0.00201888
0.00205159
0.00201888
0.00201888
0.00205416
0.00201632
0.00205159
0.00201888
0.00201888
0.00201632
0.00201054
0.00197271
0.00200798
0.00200798
0.00197527
0.00197527
0.00201054
0.00197271
0.00200798
0.00200798
0.00197527
0.00197527
0.00200798
0.00197527
0.00197527
0.00201054
0.00197271
0.00200798
0.00197527
0.00197527
0.00197271
0.00196693
0.0019291
0.00196436
0.00196436
0.00193166
0.00193166
0.00196693
0.0019291
0.00196436
0.00196436
0.00193166
0.00193166
0.00196436
0.00193166
0.00193166
0.00196693
0.0019291
0.00196436
0.00193166
0.00193166
0.0019291
0.00192332
0.00188548
0.00192075
0.00192075
0.00188804
0.00188804
0.00192332
0.00188548
0.00192075
0.00192075
0.00188804
0.00188804
0.00192075
0.00188804
0.00188804
0.00192332
0.00188548
0.00192075
0.00188804
0.00188804
0.00188548
0.00187971
0.00184186
0.00187714
0.00187714
0.00184442
0.00184442
0.00187971
0.00184186
0.00187714
0.00187714
0.00184442
0.00184442
0.00187714
0.00184442
0.00184442
0.00187971
0.00184186
0.00187714
0.00184442
0.00184442
0.00184186
0.00183608
0.00179823
0.00183351
0.00183351
0.00180079
0.00180079
0.00183608
0.00179823
0.00183351
0.00183351
0.00180079
0.00180079
0.00183351
0.00180079
0.0018008
0.00183608
0.00179823
0.00183351
0.00180079
0.00180079
0.00179823
0.00179246
0.00175462
0.00178989
0.00178989
0.00175718
0.00175718
0.00179246
0.00175462
0.00178989
0.00178989
0.00175718
0.00175718
0.00178989
0.00175718
0.00175718
0.00179246
0.00175462
0.00178989
0.00175718
0.00175718
0.00175462
0.00174884
0.001711
0.00174627
0.00174627
0.00171356
0.00171356
0.00174884
0.001711
0.00174627
0.00174627
0.00171356
0.00171356
0.00174627
0.00171356
0.00171356
0.00174884
0.001711
0.00174627
0.00171356
0.00171356
0.001711
0.00170522
0.00166738
0.00170265
0.00170265
0.00166994
0.00166994
0.00170522
0.00166738
0.00170265
0.00170265
0.00166994
0.00166994
0.00170265
0.00166994
0.00166994
0.00170522
0.00166738
0.00170265
0.00166994
0.00166994
0.00166738
0.0016616
0.00162376
0.00165904
0.00165904
0.00162632
0.00162632
0.0016616
0.00162376
0.00165904
0.00165904
0.00162632
0.00162632
0.00165904
0.00162632
0.00162632
0.0016616
0.00162376
0.00165904
0.00162632
0.00162632
0.00162376
0.00161798
0.00158014
0.00161542
0.00161542
0.0015827
0.0015827
0.00161798
0.00158014
0.00161542
0.00161542
0.0015827
0.0015827
0.00161542
0.0015827
0.0015827
0.00161798
0.00158014
0.00161542
0.0015827
0.0015827
0.00158014
0.00157436
0.00153652
0.0015718
0.0015718
0.00153908
0.00153908
0.00157436
0.00153652
0.0015718
0.0015718
0.00153908
0.00153908
0.0015718
0.00153908
0.00153908
0.00157436
0.00153652
0.0015718
0.00153908
0.00153908
0.00153652
0.00153074
0.0014929
0.00152818
0.00152818
0.00149546
0.00149546
0.00153074
0.0014929
0.00152818
0.00152818
0.00149546
0.00149546
0.00152818
0.00149546
0.00149546
0.00153074
0.0014929
0.00152818
0.00149546
0.00149546
0.0014929
0.00148712
0.00144928
0.00148455
0.00148455
0.00145184
0.00145184
0.00148712
0.00144928
0.00148455
0.00148455
0.00145184
0.00145184
0.00148455
0.00145184
0.00145184
0.00148712
0.00144928
0.00148455
0.00145184
0.00145184
0.00144928
0.0014435
0.00140565
0.00144093
0.00144093
0.00140821
0.00140821
0.0014435
0.00140565
0.00144093
0.00144093
0.00140821
0.00140821
0.00144093
0.00140821
0.00140821
0.0014435
0.00140565
0.00144093
0.00140821
0.00140821
0.00140565
0.00139988
0.00136203
0.00139731
0.00139731
0.00136459
0.00136459
0.00139988
0.00136203
0.00139731
0.00139731
0.00136459
0.00136459
0.00139731
0.00136459
0.00136459
0.00139988
0.00136203
0.00139731
0.00136459
0.00136459
0.00136203
0.00135625
0.00131841
0.00135369
0.00135369
0.00132097
0.00132097
0.00135625
0.00131841
0.00135369
0.00135369
0.00132097
0.00132097
0.00135369
0.00132097
0.00132097
0.00135625
0.00131841
0.00135369
0.00132097
0.00132097
0.00131841
0.00131263
0.00127479
0.00131007
0.00131007
0.00127735
0.00127735
0.00131263
0.00127479
0.00131007
0.00131007
0.00127735
0.00127735
0.00131007
0.00127735
0.00127735
0.00131263
0.00127479
0.00131007
0.00127735
0.00127735
0.00127479
0.00126901
0.00123117
0.00126645
0.00126645
0.00123373
0.00123373
0.00126901
0.00123117
0.00126645
0.00126645
0.00123373
0.00123373
0.00126645
0.00123373
0.00123373
0.00126901
0.00123117
0.00126645
0.00123373
0.00123373
0.00123117
0.0012254
0.00118756
0.00122283
0.00122283
0.00119012
0.00119012
0.0012254
0.00118756
0.00122283
0.00122283
0.00119012
0.00119012
0.00122283
0.00119012
0.00119012
0.0012254
0.00118756
0.00122283
0.00119012
0.00119012
0.00118756
0.00118178
0.00114394
0.00117921
0.00117921
0.0011465
0.0011465
0.00118178
0.00114394
0.00117921
0.00117921
0.0011465
0.0011465
0.00117921
0.0011465
0.00114651
0.00118178
0.00114394
0.00117921
0.0011465
0.0011465
0.00114394
0.00113817
0.00110032
0.0011356
0.0011356
0.00110289
0.00110288
0.00113817
0.00110032
0.0011356
0.0011356
0.00110288
0.00110288
0.0011356
0.00110288
0.00110288
0.00113817
0.00110032
0.0011356
0.00110288
0.00110288
0.00110032
0.00109454
0.00105669
0.00109198
0.00109198
0.00105926
0.00105926
0.00109454
0.00105669
0.00109198
0.00109198
0.00105926
0.00105926
0.00109198
0.00105926
0.00105926
0.00109454
0.00105669
0.00109198
0.00105926
0.00105926
0.00105669
0.00105091
0.00101307
0.00104835
0.00104835
0.00101563
0.00101563
0.00105091
0.00101307
0.00104835
0.00104835
0.00101563
0.00101563
0.00104835
0.00101563
0.00101563
0.00105092
0.00101307
0.00104835
0.00101563
0.00101563
0.00101307
0.00100729
0.000969451
0.00100473
0.00100473
0.000972011
0.000972011
0.00100729
0.000969451
0.00100473
0.00100473
0.000972011
0.000972011
0.00100473
0.000972011
0.000972011
0.00100729
0.000969451
0.00100473
0.000972011
0.000972011
0.000969451
0.000963672
0.000925828
0.000961106
0.000961106
0.000928389
0.000928389
0.000963672
0.000925828
0.000961106
0.000961106
0.000928389
0.000928389
0.000961106
0.000928389
0.000928389
0.000963672
0.000925828
0.000961106
0.000928389
0.000928389
0.000925828
0.00092005
0.000882206
0.000917483
0.000917483
0.000884767
0.000884766
0.00092005
0.000882206
0.000917483
0.000917483
0.000884766
0.000884767
0.000917484
0.000884767
0.000884767
0.00092005
0.000882206
0.000917483
0.000884767
0.000884766
0.000882206
0.000876427
0.000838584
0.000873861
0.000873861
0.000841144
0.000841144
0.000876427
0.000838584
0.000873861
0.000873861
0.000841144
0.000841144
0.000873861
0.000841144
0.000841145
0.000876427
0.000838584
0.000873861
0.000841144
0.000841144
0.000838584
0.000832805
0.000794962
0.000830239
0.000830239
0.000797523
0.000797523
0.000832805
0.000794962
0.000830239
0.000830239
0.000797523
0.000797523
0.000830239
0.000797523
0.000797523
0.000832805
0.000794962
0.000830239
0.000797523
0.000797523
0.000794962
0.000789184
0.000751341
0.000786618
0.000786617
0.000753902
0.000753902
0.000789184
0.000751341
0.000786617
0.000786617
0.000753902
0.000753902
0.000786618
0.000753902
0.000753902
0.000789184
0.000751341
0.000786617
0.000753902
0.000753902
0.000751341
0.000745563
0.00070772
0.000742997
0.000742997
0.000710281
0.000710281
0.000745563
0.000707721
0.000742997
0.000742997
0.000710281
0.000710281
0.000742997
0.000710281
0.000710281
0.000745563
0.00070772
0.000742997
0.000710281
0.000710281
0.00070772
0.000701942
0.000664099
0.000699376
0.000699376
0.00066666
0.00066666
0.000701942
0.000664099
0.000699376
0.000699376
0.00066666
0.00066666
0.000699376
0.00066666
0.00066666
0.000701942
0.000664099
0.000699376
0.00066666
0.00066666
0.000664099
0.000658321
0.000620477
0.000655754
0.000655754
0.000623038
0.000623038
0.00065832
0.000620477
0.000655754
0.000655754
0.000623037
0.000623038
0.000655754
0.000623038
0.000623038
0.000658321
0.000620477
0.000655754
0.000623038
0.000623038
0.000620477
0.000614698
0.000576855
0.000612132
0.000612132
0.000579416
0.000579415
0.000614698
0.000576855
0.000612132
0.000612132
0.000579415
0.000579416
0.000612132
0.000579416
0.000579416
0.000614698
0.000576855
0.000612132
0.000579416
0.000579415
0.000576855
0.000571076
0.000533234
0.00056851
0.00056851
0.000535795
0.000535794
0.000571076
0.000533234
0.00056851
0.00056851
0.000535795
0.000535795
0.00056851
0.000535795
0.000535795
0.000571076
0.000533234
0.00056851
0.000535795
0.000535795
0.000533234
0.000527456
0.000489614
0.00052489
0.000524889
0.000492174
0.000492174
0.000527455
0.000489614
0.00052489
0.00052489
0.000492174
0.000492174
0.00052489
0.000492174
0.000492174
0.000527456
0.000489614
0.00052489
0.000492174
0.000492174
0.000489614
0.000483836
0.000445997
0.00048127
0.00048127
0.000448557
0.000448557
0.000483836
0.000445998
0.000481269
0.00048127
0.000448557
0.000448557
0.00048127
0.000448557
0.000448558
0.000483836
0.000445997
0.00048127
0.000448557
0.000448557
0.000445997
0.000440219
0.000402381
0.000437653
0.000437653
0.000404941
0.000404941
0.000440219
0.000402382
0.000437653
0.000437653
0.000404941
0.000404941
0.000437653
0.000404942
0.000404941
0.000440219
0.000402381
0.000437653
0.000404941
0.000404941
0.000402382
0.000396604
0.000358764
0.000394038
0.000394039
0.000361324
0.000361324
0.000396605
0.000358764
0.000394037
0.000394036
0.000361324
0.000361324
0.000394038
0.000361324
0.000361324
0.000396603
0.000358764
0.000394038
0.000361324
0.000361324
0.000358764
0.000352985
0.000315134
0.000350418
0.000350418
0.000317696
0.000317695
0.000352984
0.000315134
0.000350418
0.000350418
0.000317697
0.000317697
0.000350418
0.000317695
0.000317696
0.000352986
0.000315135
0.000350419
0.000317697
0.000317696
0.000315134
0.000309355
0.000271511
0.000306789
0.000306788
0.000274072
0.000274072
0.000309354
0.000271511
0.000306789
0.000306789
0.000274071
0.000274071
0.000306789
0.000274072
0.000274072
0.000309355
0.00027151
0.000306789
0.000274071
0.000274072
0.000271511
0.000265733
0.000227891
0.000263167
0.000263167
0.000230452
0.000230452
0.000265733
0.000227891
0.000263167
0.000263167
0.000230452
0.000230452
0.000263168
0.000230453
0.000230453
0.000265733
0.000227891
0.000263167
0.000230452
0.000230453
0.000227891
0.00022211
0.000184262
0.000219547
0.000219547
0.000186813
0.000186813
0.00022211
0.000184262
0.000219547
0.000219547
0.000186813
0.000186813
0.000219548
0.000186813
0.000186813
0.00022211
0.000184262
0.000219547
0.000186813
0.000186813
0.000184262
0.000178467
0.000140659
0.000175905
0.000175905
0.000143231
0.000143231
0.000178467
0.000140659
0.000175905
0.000175905
0.000143231
0.000143231
0.000175905
0.000143231
0.000143231
0.000178467
0.000140659
0.000175905
0.000143231
0.000143231
0.000140659
0.000134842
9.70243e-05
0.000132302
0.000132302
9.95681e-05
9.95687e-05
0.000134842
9.7025e-05
0.000132302
0.000132302
9.95679e-05
9.95673e-05
0.000132302
9.95681e-05
9.95677e-05
0.000134842
9.70232e-05
0.000132302
9.95671e-05
9.95674e-05
9.70236e-05
9.1186e-05
5.34301e-05
8.866e-05
8.86606e-05
5.59694e-05
5.597e-05
9.1186e-05
5.34312e-05
8.86595e-05
8.86588e-05
5.59677e-05
5.59674e-05
8.86596e-05
5.59687e-05
5.5967e-05
9.11853e-05
5.34277e-05
8.8659e-05
5.59661e-05
5.59653e-05
5.34273e-05
4.75744e-05
1.37353e-05
4.51912e-05
4.51914e-05
1.5997e-05
1.59962e-05
4.75749e-05
1.3735e-05
4.51895e-05
4.51884e-05
1.5995e-05
1.59914e-05
4.51876e-05
1.59936e-05
1.59895e-05
4.75713e-05
1.37309e-05
4.51858e-05
1.59917e-05
1.59911e-05
1.37296e-05
9.9325e-06
1.03637e-05
1.03638e-05
9.93338e-06
1.03621e-05
1.03599e-05
1.00746e-05
1.00729e-05
1.00723e-05
1.03587e-05
9.92986e-06
1.03593e-05
0.00415824
0.004168
0.0041628
0.00416281
0.00418518
0.00417197
0.00420057
0.00416602
0.00418518
0.00417197
0.00416602
0.00420057
0.00417654
0.0042043
0.00420431
0.0041136
0.00413274
0.00414195
0.00410565
0.00410645
0.0041092
0.00411358
0.00413272
0.00414194
0.00410563
0.00413647
0.00413647
0.00413647
0.00409305
0.00409305
0.00409305
0.00409305
0.00411111
0.00413694
0.00413687
0.00411993
0.00413996
0.00411001
0.00412081
0.00410656
0.0041092
0.00411111
0.00413687
0.00413695
0.00411993
0.00413995
0.00412081
0.00411001
0.00414281
0.00414279
0.00411433
0.00410964
0.00410963
0.00406684
0.0040863
0.00408764
0.0040653
0.00408519
0.00406486
0.00406684
0.00408629
0.00408764
0.00406529
0.00408112
0.00408112
0.00408112
0.00404352
0.00404352
0.00404352
0.00404352
0.00406549
0.00408635
0.00408111
0.00406926
0.00408513
0.00406596
0.00406899
0.00408519
0.00406485
0.00406549
0.00408111
0.00408634
0.00406926
0.00408513
0.00406899
0.00406596
0.0040874
0.0040874
0.00406577
0.00406623
0.00406623
0.00401446
0.00403375
0.00403477
0.00401335
0.00403339
0.00401308
0.00401446
0.00403375
0.00403477
0.00401334
0.00403034
0.00403034
0.00403034
0.003991
0.003991
0.003991
0.003991
0.00401365
0.00403408
0.00403022
0.00401717
0.00403346
0.00401392
0.00401707
0.00403339
0.00401308
0.00401365
0.00403022
0.00403408
0.00401717
0.00403346
0.00401707
0.00401391
0.0040344
0.0040344
0.00401378
0.0040139
0.0040139
0.00396216
0.00398077
0.00398157
0.00396106
0.00398061
0.00396086
0.00396216
0.00398077
0.00398157
0.00396106
0.00397811
0.00397811
0.00397811
0.00394028
0.00394028
0.00394028
0.00394028
0.0039616
0.00398116
0.003978
0.00396506
0.00398092
0.00396161
0.00396511
0.00398061
0.00396086
0.0039616
0.003978
0.00398116
0.00396506
0.00398092
0.00396511
0.00396161
0.00398126
0.00398126
0.00396175
0.00396144
0.00396144
0.00391309
0.00392983
0.00393017
0.00391304
0.00392942
0.00391289
0.00391309
0.00392982
0.00393017
0.00391304
0.00392837
0.00392837
0.00392837
0.00389456
0.00389456
0.00389456
0.00389456
0.00391351
0.00393034
0.00392826
0.00391669
0.00393039
0.00391345
0.00391676
0.00392942
0.00391289
0.00391351
0.00392826
0.00393033
0.00391669
0.00393039
0.00391676
0.00391345
0.00392981
0.00392981
0.00391388
0.00391313
0.00391313
0.00386977
0.00388595
0.00388602
0.00386973
0.003886
0.00386975
0.00386977
0.00388595
0.00388602
0.00386973
0.00388356
0.00388356
0.00388356
0.00385074
0.00385074
0.00385074
0.00385074
0.00386986
0.00388605
0.00388351
0.00387255
0.00388607
0.00386981
0.00387256
0.00388598
0.00386976
0.00386986
0.00388351
0.00388605
0.00387255
0.00388607
0.00387256