/*--------------------------------*- C++ -*----------------------------------*\
| =========                 |                                                 |
| \\      /  F ield         | OpenFOAM: The Open Source CFD Toolbox           |
|  \\    /   O peration     | Version:  2206                                  |
|   \\  /    A nd           | Website:  www.openfoam.com                      |
|    \\/     M anipulation  |                                                 |
\*---------------------------------------------------------------------------*/
FoamFile
{
    version     2.0;
    format      ascii;
    arch        "LSB;label=32;scalar=64";
    class       volScalarField;
    location    "21";
    object      epsilon;
}
// * * * * * * * * * * * * * * * * * * * * * * * * * * * * * * * * * * * * * //

dimensions      [0 2 -3 0 0 0 0];

internalField   nonuniform List<scalar> 
28335
(
3.27501e-07
3.48822e-07
3.4883e-07
3.77929e-07
3.27503e-07
3.48825e-07
3.48834e-07
3.77935e-07
3.27501e-07
3.48827e-07
3.48835e-07
3.77942e-07
3.27496e-07
3.48824e-07
3.48834e-07
3.77945e-07
3.27413e-07
3.48749e-07
3.48758e-07
3.77904e-07
3.27337e-07
3.48681e-07
3.48689e-07
3.77799e-07
3.27335e-07
3.4868e-07
3.48689e-07
3.77815e-07
3.27335e-07
3.48679e-07
3.48688e-07
3.7781e-07
3.27335e-07
3.4868e-07
3.48688e-07
3.77815e-07
3.27335e-07
3.4868e-07
3.48688e-07
3.77815e-07
3.27335e-07
3.48679e-07
3.48688e-07
3.77813e-07
3.27335e-07
3.4868e-07
3.48688e-07
3.77813e-07
3.27335e-07
3.48679e-07
3.48688e-07
3.77813e-07
3.27335e-07
3.48679e-07
3.48688e-07
3.77813e-07
3.27335e-07
3.48679e-07
3.48688e-07
3.77813e-07
3.27335e-07
3.48679e-07
3.48688e-07
3.77813e-07
3.27335e-07
3.48679e-07
3.48688e-07
3.77813e-07
3.77694e-07
3.48839e-07
3.48843e-07
3.77686e-07
3.48827e-07
3.48851e-07
3.48822e-07
3.48842e-07
3.77703e-07
3.4883e-07
3.48829e-07
3.77699e-07
3.77927e-07
3.777e-07
3.48843e-07
3.48846e-07
3.48842e-07
3.48846e-07
3.7792e-07
3.77692e-07
3.48831e-07
3.48853e-07
3.4883e-07
3.48853e-07
3.48845e-07
3.48825e-07
3.48844e-07
3.77936e-07
3.77708e-07
3.48832e-07
3.48834e-07
3.48832e-07
3.77704e-07
3.77934e-07
3.77708e-07
3.48846e-07
3.48849e-07
3.48845e-07
3.48848e-07
3.77926e-07
3.777e-07
3.48834e-07
3.48857e-07
3.48833e-07
3.48856e-07
3.48848e-07
3.48828e-07
3.48847e-07
3.77941e-07
3.77715e-07
3.48836e-07
3.48835e-07
3.48835e-07
3.77712e-07
3.77941e-07
3.77711e-07
3.48846e-07
3.4885e-07
3.48842e-07
3.48846e-07
3.77934e-07
3.77703e-07
3.48834e-07
3.48858e-07
3.4883e-07
3.48854e-07
3.48848e-07
3.48825e-07
3.48844e-07
3.77948e-07
3.77718e-07
3.48836e-07
3.48834e-07
3.48832e-07
3.77715e-07
3.77943e-07
3.77685e-07
3.48842e-07
3.48846e-07
3.48805e-07
3.48809e-07
3.77935e-07
3.77678e-07
3.4883e-07
3.48854e-07
3.48793e-07
3.48817e-07
3.48845e-07
3.48788e-07
3.48808e-07
3.7795e-07
3.77692e-07
3.48832e-07
3.48796e-07
3.48795e-07
3.77689e-07
3.77903e-07
3.77567e-07
3.48768e-07
3.48771e-07
3.48702e-07
3.48705e-07
3.77896e-07
3.77559e-07
3.48756e-07
3.48779e-07
3.4869e-07
3.48713e-07
3.4877e-07
3.48685e-07
3.48704e-07
3.7791e-07
3.77574e-07
3.48757e-07
3.48693e-07
3.48692e-07
3.77572e-07
3.77796e-07
3.77578e-07
3.487e-07
3.48704e-07
3.48697e-07
3.48701e-07
3.77789e-07
3.77571e-07
3.48688e-07
3.48712e-07
3.48685e-07
3.48709e-07
3.48703e-07
3.4868e-07
3.487e-07
3.77804e-07
3.77586e-07
3.4869e-07
3.48689e-07
3.48688e-07
3.77584e-07
3.77812e-07
3.77576e-07
3.487e-07
3.48704e-07
3.48697e-07
3.487e-07
3.77805e-07
3.77568e-07
3.48688e-07
3.48712e-07
3.48685e-07
3.48709e-07
3.48703e-07
3.4868e-07
3.487e-07
3.7782e-07
3.77584e-07
3.48691e-07
3.48688e-07
3.48687e-07
3.77582e-07
3.77807e-07
3.77579e-07
3.48699e-07
3.48702e-07
3.48697e-07
3.487e-07
3.778e-07
3.77571e-07
3.48687e-07
3.4871e-07
3.48685e-07
3.48708e-07
3.48701e-07
3.4868e-07
3.48699e-07
3.77815e-07
3.77587e-07
3.48689e-07
3.48688e-07
3.48687e-07
3.77586e-07
3.77811e-07
3.77577e-07
3.48699e-07
3.48702e-07
3.48697e-07
3.487e-07
3.77804e-07
3.7757e-07
3.48687e-07
3.4871e-07
3.48685e-07
3.48708e-07
3.48701e-07
3.4868e-07
3.48699e-07
3.77819e-07
3.77585e-07
3.48689e-07
3.48688e-07
3.48687e-07
3.77584e-07
3.7781e-07
3.77577e-07
3.48699e-07
3.48702e-07
3.48697e-07
3.487e-07
3.77803e-07
3.7757e-07
3.48687e-07
3.4871e-07
3.48685e-07
3.48708e-07
3.48701e-07
3.4868e-07
3.48699e-07
3.77818e-07
3.77586e-07
3.48689e-07
3.48688e-07
3.48687e-07
3.77583e-07
3.7781e-07
3.77578e-07
3.48698e-07
3.48702e-07
3.48697e-07
3.487e-07
3.77803e-07
3.7757e-07
3.48687e-07
3.4871e-07
3.48685e-07
3.48708e-07
3.48701e-07
3.4868e-07
3.48699e-07
3.77818e-07
3.77586e-07
3.48689e-07
3.48688e-07
3.48687e-07
3.77583e-07
3.7781e-07
3.77577e-07
3.48699e-07
3.48702e-07
3.48697e-07
3.487e-07
3.77803e-07
3.7757e-07
3.48687e-07
3.4871e-07
3.48685e-07
3.48708e-07
3.48701e-07
3.4868e-07
3.48699e-07
3.77818e-07
3.77586e-07
3.48689e-07
3.48688e-07
3.48687e-07
3.77583e-07
3.7781e-07
3.77578e-07
3.48698e-07
3.48702e-07
3.48697e-07
3.487e-07
3.77803e-07
3.77571e-07
3.48687e-07
3.4871e-07
3.48685e-07
3.48708e-07
3.48701e-07
3.4868e-07
3.48699e-07
3.77818e-07
3.77586e-07
3.48689e-07
3.48688e-07
3.48687e-07
3.77583e-07
3.7781e-07
3.77578e-07
3.48699e-07
3.48702e-07
3.48697e-07
3.487e-07
3.77803e-07
3.7757e-07
3.48687e-07
3.4871e-07
3.48685e-07
3.48708e-07
3.48701e-07
3.4868e-07
3.48699e-07
3.77818e-07
3.77586e-07
3.48689e-07
3.48688e-07
3.48687e-07
3.77583e-07
3.7781e-07
3.77578e-07
3.48698e-07
3.48702e-07
3.48697e-07
3.487e-07
3.77803e-07
3.7757e-07
3.48687e-07
3.4871e-07
3.48685e-07
3.48708e-07
3.48701e-07
3.4868e-07
3.48699e-07
3.77818e-07
3.77586e-07
3.48689e-07
3.48688e-07
3.48687e-07
3.77583e-07
3.7781e-07
3.77578e-07
3.48699e-07
3.48702e-07
3.48697e-07
3.487e-07
3.77803e-07
3.7757e-07
3.48687e-07
3.4871e-07
3.48685e-07
3.48708e-07
3.48701e-07
3.4868e-07
3.48699e-07
3.77818e-07
3.77586e-07
3.48689e-07
3.48688e-07
3.48687e-07
3.77583e-07
3.7781e-07
3.48698e-07
3.48702e-07
3.77803e-07
3.48687e-07
3.4871e-07
3.487e-07
3.77818e-07
3.48688e-07
1.67452e-06
8.62796e-06
2.40346e-05
1.67437e-06
8.62936e-06
3.27501e-07
3.27503e-07
3.27505e-07
3.27504e-07
5.82093e-07
3.48822e-07
1.33761e-06
3.34174e-07
2.40346e-05
5.821e-07
3.48831e-07
3.34175e-07
1.33757e-06
3.77688e-07
2.79267e-06
2.79331e-06
1.67468e-06
8.62802e-06
1.67513e-06
8.62748e-06
2.40317e-05
2.40302e-05
1.67457e-06
8.62945e-06
1.67497e-06
8.62888e-06
3.27505e-07
3.27507e-07
3.27506e-07
3.27503e-07
3.27504e-07
3.27506e-07
3.27505e-07
5.82118e-07
1.33837e-06
3.34172e-07
3.48825e-07
5.82244e-07
1.33774e-06
3.34176e-07
2.40323e-05
2.40304e-05
5.82129e-07
3.34174e-07
1.3383e-06
3.48834e-07
5.82256e-07
3.34178e-07
1.3377e-06
2.79338e-06
2.794e-06
3.77701e-07
2.79297e-06
2.7936e-06
1.67469e-06
8.62769e-06
1.67519e-06
8.62724e-06
2.40296e-05
2.40289e-05
1.67455e-06
8.6291e-06
1.675e-06
8.62864e-06
3.27504e-07
3.27506e-07
3.27505e-07
3.27502e-07
3.27502e-07
3.27504e-07
3.27502e-07
5.82139e-07
1.33843e-06
3.34174e-07
3.48829e-07
5.82269e-07
1.33778e-06
3.34177e-07
2.40298e-05
2.4029e-05
5.82149e-07
3.34176e-07
1.33836e-06
3.48837e-07
5.82283e-07
3.34179e-07
1.33773e-06
2.79354e-06
2.79416e-06
3.77708e-07
2.79312e-06
2.79375e-06
1.67467e-06
8.62756e-06
1.67517e-06
8.62716e-06
2.40293e-05
2.40291e-05
1.67453e-06
8.62898e-06
1.67497e-06
8.62856e-06
3.27501e-07
3.27503e-07
3.27502e-07
3.27497e-07
3.27497e-07
3.27499e-07
3.27497e-07
5.82147e-07
1.33844e-06
3.34173e-07
3.48828e-07
5.82281e-07
1.33778e-06
3.34172e-07
2.40296e-05
2.40293e-05
5.82156e-07
3.34175e-07
1.33836e-06
3.48836e-07
5.82298e-07
3.34174e-07
1.33773e-06
2.79364e-06
2.79426e-06
3.77712e-07
2.79318e-06
2.7938e-06
1.67488e-06
8.62788e-06
1.67518e-06
8.62819e-06
2.40309e-05
2.40313e-05
1.67474e-06
8.6293e-06
1.67498e-06
8.62958e-06
3.27496e-07
3.27498e-07
3.27497e-07
3.27455e-07
3.27456e-07
3.27458e-07
3.27456e-07
5.8217e-07
1.3385e-06
3.34168e-07
3.48822e-07
5.8229e-07
1.33795e-06
3.34166e-07
2.40313e-05
2.40315e-05
5.82173e-07
3.3417e-07
1.33842e-06
3.48831e-07
5.82295e-07
3.34167e-07
1.3379e-06
2.79367e-06
2.79429e-06
3.77713e-07
2.79337e-06
2.794e-06
1.67497e-06
8.62997e-06
1.67559e-06
8.62971e-06
2.40316e-05
2.4031e-05
1.67481e-06
8.63138e-06
1.67538e-06
8.63111e-06
3.27414e-07
3.27416e-07
3.27415e-07
3.27343e-07
3.27342e-07
3.27345e-07
3.27343e-07
5.82085e-07
1.33869e-06
3.34091e-07
3.4872e-07
5.82272e-07
1.33794e-06
3.34061e-07
2.40319e-05
2.40312e-05
5.82087e-07
3.34092e-07
1.33861e-06
3.48729e-07
5.82285e-07
3.34062e-07
1.33789e-06
2.79386e-06
2.79449e-06
3.77616e-07
2.79318e-06
2.79381e-06
1.67483e-06
8.63002e-06
1.67535e-06
8.62961e-06
2.40312e-05
2.40308e-05
1.67468e-06
8.63133e-06
1.67514e-06
8.63085e-06
3.2734e-07
3.27342e-07
3.27341e-07
3.27335e-07
3.27337e-07
3.27339e-07
3.27338e-07
5.82043e-07
1.33851e-06
3.34018e-07
3.48682e-07
5.82185e-07
1.33783e-06
3.34019e-07
2.40315e-05
2.40309e-05
5.82049e-07
3.34019e-07
1.33844e-06
3.4869e-07
5.82193e-07
3.34021e-07
1.33778e-06
2.79348e-06
2.7941e-06
3.77575e-07
2.79298e-06
2.7936e-06
1.67482e-06
8.62997e-06
1.67532e-06
8.62959e-06
2.40309e-05
2.40305e-05
1.67467e-06
8.63119e-06
1.67512e-06
8.63076e-06
3.27339e-07
3.27341e-07
3.2734e-07
3.27335e-07
3.27337e-07
3.27339e-07
3.27338e-07
5.82045e-07
1.33849e-06
3.34017e-07
3.48682e-07
5.82181e-07
1.33782e-06
3.34019e-07
2.40315e-05
2.40309e-05
5.82051e-07
3.34019e-07
1.33841e-06
3.4869e-07
5.82191e-07
3.3402e-07
1.33777e-06
2.79344e-06
2.79406e-06
3.77587e-07
2.79297e-06
2.7936e-06
1.67482e-06
8.62997e-06
1.67532e-06
8.62959e-06
2.40309e-05
2.40305e-05
1.67467e-06
8.63114e-06
1.67512e-06
8.63072e-06
3.27339e-07
3.27341e-07
3.2734e-07
3.27335e-07
3.27337e-07
3.27339e-07
3.27338e-07
5.82044e-07
1.33849e-06
3.34016e-07
3.48681e-07
5.82181e-07
1.33782e-06
3.34018e-07
2.40315e-05
2.40309e-05
5.82051e-07
3.34018e-07
1.33841e-06
3.4869e-07
5.82191e-07
3.3402e-07
1.33777e-06
2.79344e-06
2.79406e-06
3.7758e-07
2.79297e-06
2.7936e-06
1.67482e-06
8.62997e-06
1.67532e-06
8.62959e-06
2.40309e-05
2.40305e-05
1.67467e-06
8.63112e-06
1.67512e-06
8.6307e-06
3.27339e-07
3.27341e-07
3.2734e-07
3.27335e-07
3.27337e-07
3.27339e-07
3.27338e-07
5.82044e-07
1.33849e-06
3.34017e-07
3.48681e-07
5.82181e-07
1.33782e-06
3.34019e-07
2.40315e-05
2.40309e-05
5.82052e-07
3.34018e-07
1.33841e-06
3.4869e-07
5.82192e-07
3.3402e-07
1.33777e-06
2.79344e-06
2.79406e-06
3.7758e-07
2.79297e-06
2.7936e-06
1.67482e-06
8.62997e-06
1.67532e-06
8.62959e-06
2.40309e-05
2.40306e-05
1.67467e-06
8.6311e-06
1.67512e-06
8.63069e-06
3.27339e-07
3.27341e-07
3.2734e-07
3.27335e-07
3.27337e-07
3.27339e-07
3.27338e-07
5.82044e-07
1.33849e-06
3.34017e-07
3.48681e-07
5.8218e-07
1.33782e-06
3.34019e-07
2.40315e-05
2.40309e-05
5.82052e-07
3.34018e-07
1.33841e-06
3.4869e-07
5.82192e-07
3.3402e-07
1.33777e-06
2.79344e-06
2.79406e-06
3.77582e-07
2.79297e-06
2.7936e-06
1.67482e-06
8.62997e-06
1.67532e-06
8.62959e-06
2.40309e-05
2.40306e-05
1.67467e-06
8.6311e-06
1.67512e-06
8.63069e-06
3.27339e-07
3.27341e-07
3.2734e-07
3.27335e-07
3.27337e-07
3.27339e-07
3.27338e-07
5.82044e-07
1.33849e-06
3.34017e-07
3.48681e-07
5.8218e-07
1.33782e-06
3.34019e-07
2.40315e-05
2.40309e-05
5.82051e-07
3.34018e-07
1.33841e-06
3.4869e-07
5.82191e-07
3.3402e-07
1.33777e-06
2.79344e-06
2.79406e-06
3.77582e-07
2.79297e-06
2.7936e-06
1.67482e-06
8.62997e-06
1.67532e-06
8.62959e-06
2.4031e-05
2.40306e-05
1.67467e-06
8.63109e-06
1.67512e-06
8.63069e-06
3.27339e-07
3.27341e-07
3.2734e-07
3.27335e-07
3.27337e-07
3.27339e-07
3.27338e-07
5.82044e-07
1.33849e-06
3.34017e-07
3.48681e-07
5.8218e-07
1.33782e-06
3.34019e-07
2.40315e-05
2.40309e-05
5.82058e-07
3.34018e-07
1.33841e-06
3.4869e-07
5.82194e-07
3.3402e-07
1.33777e-06
2.79344e-06
2.79406e-06
3.77582e-07
2.79297e-06
2.7936e-06
1.67482e-06
8.62997e-06
1.67532e-06
8.62959e-06
2.4031e-05
2.40306e-05
1.67467e-06
8.63109e-06
1.67512e-06
8.63069e-06
3.27339e-07
3.27341e-07
3.2734e-07
3.27335e-07
3.27337e-07
3.27339e-07
3.27338e-07
5.82044e-07
1.33849e-06
3.34017e-07
3.48681e-07
5.8218e-07
1.33782e-06
3.34019e-07
2.40315e-05
2.40309e-05
5.82068e-07
3.34018e-07
1.33841e-06
3.4869e-07
5.82205e-07
3.3402e-07
1.33777e-06
2.79344e-06
2.79406e-06
3.77582e-07
2.79297e-06
2.7936e-06
1.67482e-06
8.62997e-06
1.67532e-06
8.62959e-06
2.4031e-05
2.40306e-05
1.67467e-06
8.63109e-06
1.67512e-06
8.63069e-06
3.27339e-07
3.27341e-07
3.2734e-07
3.27335e-07
3.27337e-07
3.27339e-07
3.27338e-07
5.82044e-07
1.33849e-06
3.34016e-07
3.48681e-07
5.8218e-07
1.33782e-06
3.34019e-07
2.40315e-05
2.40309e-05
5.82073e-07
3.34018e-07
1.33841e-06
3.4869e-07
5.82211e-07
3.34021e-07
1.33777e-06
2.79344e-06
2.79406e-06
3.77582e-07
2.79297e-06
2.7936e-06
1.67482e-06
8.62997e-06
1.67532e-06
8.62959e-06
2.4031e-05
2.40306e-05
1.67467e-06
8.63109e-06
1.67512e-06
8.63069e-06
3.27339e-07
3.27341e-07
3.2734e-07
3.27335e-07
3.27337e-07
3.27339e-07
3.27338e-07
5.82044e-07
1.33849e-06
3.34016e-07
3.48681e-07
5.8218e-07
1.33782e-06
3.34018e-07
2.40315e-05
2.40309e-05
5.82073e-07
3.34018e-07
1.33841e-06
3.4869e-07
5.82213e-07
3.3402e-07
1.33777e-06
2.79344e-06
2.79406e-06
3.77582e-07
2.79297e-06
2.7936e-06
1.67482e-06
8.62997e-06
1.67532e-06
8.62959e-06
2.4031e-05
2.40306e-05
1.67467e-06
8.63109e-06
1.67512e-06
8.63069e-06
3.27339e-07
3.27341e-07
3.2734e-07
3.27335e-07
3.27337e-07
3.27339e-07
3.27338e-07
5.82044e-07
1.33849e-06
3.34016e-07
3.48681e-07
5.8218e-07
1.33782e-06
3.34019e-07
2.40315e-05
2.40309e-05
5.82072e-07
3.34018e-07
1.33841e-06
3.4869e-07
5.82212e-07
3.3402e-07
1.33777e-06
2.79344e-06
2.79406e-06
3.77582e-07
2.79297e-06
2.79359e-06
1.67482e-06
8.62997e-06
1.67532e-06
8.62959e-06
2.4031e-05
2.40306e-05
1.67467e-06
8.6311e-06
1.67512e-06
8.63069e-06
3.27339e-07
3.2734e-07
3.27339e-07
5.82045e-07
1.33849e-06
3.34016e-07
3.48681e-07
5.8218e-07
1.33782e-06
3.34019e-07
2.40315e-05
2.4031e-05
5.82072e-07
3.34018e-07
1.33841e-06
3.4869e-07
5.82211e-07
3.34021e-07
1.33777e-06
2.79344e-06
2.79406e-06
3.77582e-07
2.79306e-06
2.79374e-06
2.40334e-05
2.40351e-05
3.77682e-07
2.79262e-06
2.79324e-06
2.40306e-05
2.40332e-05
2.40323e-05
2.40349e-05
3.7792e-07
2.7928e-06
2.79344e-06
2.79311e-06
2.79374e-06
1.67453e-06
8.62861e-06
5.82093e-07
3.48839e-07
1.33752e-06
3.34174e-07
5.82093e-07
3.48843e-07
1.33766e-06
3.34175e-07
1.67503e-06
8.6277e-06
8.62822e-06
1.67462e-06
1.67504e-06
8.62835e-06
8.62887e-06
1.67463e-06
5.82235e-07
3.48839e-07
1.3376e-06
3.34173e-07
1.33816e-06
3.34174e-07
5.82105e-07
5.82236e-07
3.48843e-07
1.33774e-06
3.34174e-07
1.33831e-06
3.34174e-07
5.82106e-07
3.77676e-07
2.7931e-06
2.79243e-06
2.40315e-05
2.40318e-05
2.40344e-05
3.77913e-07
2.79339e-06
2.79284e-06
2.79365e-06
2.79308e-06
2.40289e-05
2.40317e-05
5.82101e-07
3.48827e-07
1.33778e-06
3.34175e-07
1.67437e-06
8.62915e-06
5.82097e-07
3.48851e-07
3.34178e-07
1.33787e-06
1.67483e-06
8.62911e-06
8.62965e-06
1.6745e-06
5.8224e-07
3.48827e-07
1.33786e-06
3.34175e-07
1.33842e-06
3.34175e-07
5.82116e-07
1.67483e-06
8.6289e-06
8.62944e-06
1.67449e-06
5.82238e-07
3.48851e-07
3.34177e-07
1.33795e-06
3.34177e-07
1.33856e-06
5.82112e-07
1.67455e-06
8.62821e-06
5.82098e-07
3.48842e-07
3.34175e-07
1.33758e-06
1.67454e-06
8.629e-06
5.82234e-07
3.48822e-07
1.33769e-06
3.34172e-07
1.33829e-06
3.34173e-07
5.82105e-07
1.67506e-06
8.62796e-06
8.62851e-06
1.67464e-06
5.82238e-07
3.48842e-07
3.34174e-07
1.33766e-06
3.34174e-07
1.33823e-06
5.8211e-07
1.67505e-06
8.62874e-06
8.62926e-06
1.67464e-06
3.77691e-07
2.7932e-06
2.79267e-06
2.40345e-05
2.40321e-05
2.40348e-05
3.77928e-07
2.79359e-06
2.79286e-06
2.79384e-06
2.79317e-06
2.40317e-05
2.40343e-05
5.82102e-07
3.48829e-07
3.34175e-07
1.33771e-06
1.67436e-06
8.62915e-06
1.67437e-06
8.62961e-06
5.82244e-07
3.4883e-07
3.34174e-07
1.33765e-06
3.34174e-07
1.33822e-06
5.82112e-07
5.82247e-07
3.48829e-07
3.34174e-07
1.33779e-06
3.34174e-07
1.33837e-06
5.82116e-07
1.67483e-06
8.62889e-06
8.62941e-06
1.67447e-06
1.67483e-06
8.62936e-06
8.62988e-06
1.67448e-06
2.40346e-05
2.40355e-05
3.77925e-07
2.79288e-06
2.79351e-06
2.79318e-06
2.79381e-06
2.40319e-05
2.40344e-05
2.40327e-05
2.40353e-05
2.40307e-05
2.40291e-05
2.40324e-05
2.40307e-05
2.79325e-06
2.7939e-06
3.77696e-07
2.79289e-06
2.79353e-06
2.40281e-05
2.40294e-05
2.40298e-05
2.4031e-05
3.77929e-07
2.79297e-06
2.79362e-06
2.79333e-06
2.79398e-06
1.67469e-06
8.6286e-06
1.67512e-06
8.62812e-06
5.82122e-07
1.33823e-06
3.34175e-07
3.48843e-07
5.82249e-07
1.33765e-06
3.34175e-07
5.82123e-07
1.33838e-06
3.34176e-07
3.48846e-07
5.82249e-07
1.33778e-06
3.34176e-07
1.67517e-06
8.62733e-06
8.62774e-06
1.6747e-06
1.67518e-06
8.62797e-06
8.62838e-06
1.67471e-06
5.82265e-07
3.48842e-07
1.33767e-06
3.34174e-07
1.33827e-06
3.34174e-07
5.82137e-07
5.82266e-07
3.48845e-07
1.33781e-06
3.34175e-07
1.33842e-06
3.34175e-07
5.82137e-07
2.79388e-06
2.7934e-06
3.77688e-07
2.79352e-06
2.79298e-06
2.40292e-05
2.40273e-05
2.40293e-05
2.40305e-05
3.77922e-07
2.79362e-06
2.79308e-06
2.79399e-06
2.79352e-06
2.40263e-05
2.40277e-05
5.82135e-07
1.33849e-06
3.34178e-07
3.48831e-07
5.82257e-07
1.33791e-06
3.34178e-07
1.67456e-06
8.62918e-06
1.67494e-06
8.62868e-06
5.8213e-07
3.34179e-07
1.33863e-06
3.48853e-07
5.82254e-07
3.34179e-07
1.338e-06
1.675e-06
8.62873e-06
8.62916e-06
1.67457e-06
5.82276e-07
3.4883e-07
1.33794e-06
3.34176e-07
1.33853e-06
3.34176e-07
5.82149e-07
1.67499e-06
8.62853e-06
8.62898e-06
1.67456e-06
5.82272e-07
3.48853e-07
3.34178e-07
1.33803e-06
3.34178e-07
1.33867e-06
5.82143e-07
1.6747e-06
8.62824e-06
1.67514e-06
8.62774e-06
5.82126e-07
3.34176e-07
1.3383e-06
3.48845e-07
5.82251e-07
3.34176e-07
1.3377e-06
1.6747e-06
8.62899e-06
1.67514e-06
8.62851e-06
5.8226e-07
3.48825e-07
1.33776e-06
3.34174e-07
1.3384e-06
3.34175e-07
5.82131e-07
1.67519e-06
8.62758e-06
8.62803e-06
1.67472e-06
5.82267e-07
3.48844e-07
3.34175e-07
1.33773e-06
3.34175e-07
1.33834e-06
5.8214e-07
1.67518e-06
8.62836e-06
8.62877e-06
1.67472e-06
2.79416e-06
2.79332e-06
3.77703e-07
2.79375e-06
2.79295e-06
2.40318e-05
2.40301e-05
2.40295e-05
2.40308e-05
3.77936e-07
2.79386e-06
2.79304e-06
2.7943e-06
2.7934e-06
2.40292e-05
2.40304e-05
5.82136e-07
3.34176e-07
1.33844e-06
3.48832e-07
5.82263e-07
3.34176e-07
1.33784e-06
1.67454e-06
8.62913e-06
1.67493e-06
8.62866e-06
1.67455e-06
8.6296e-06
1.67494e-06
8.62912e-06
5.82275e-07
3.48834e-07
3.34176e-07
1.33772e-06
3.34177e-07
1.33833e-06
5.82141e-07
5.82282e-07
3.48831e-07
3.34176e-07
1.33787e-06
3.34176e-07
1.33848e-06
5.82149e-07
1.67498e-06
8.6285e-06
8.62892e-06
1.67454e-06
1.67499e-06
8.62897e-06
8.62938e-06
1.67455e-06
2.4032e-05
2.40303e-05
2.40328e-05
2.40312e-05
3.77934e-07
2.79306e-06
2.79369e-06
2.79343e-06
2.79405e-06
2.40294e-05
2.40306e-05
2.40302e-05
2.40315e-05
2.40285e-05
2.40277e-05
2.40302e-05
2.40293e-05
2.79341e-06
2.79407e-06
3.77704e-07
2.79304e-06
2.79369e-06
2.40276e-05
2.40282e-05
2.40293e-05
2.40299e-05
3.77937e-07
2.79308e-06
2.79373e-06
2.79348e-06
2.79413e-06
1.6747e-06
8.62825e-06
1.67518e-06
8.62788e-06
5.82148e-07
1.3383e-06
3.34178e-07
3.48846e-07
5.82279e-07
1.33769e-06
3.34178e-07
5.82148e-07
1.33844e-06
3.34179e-07
3.48849e-07
5.8228e-07
1.33782e-06
3.34179e-07
1.67517e-06
8.62718e-06
8.62753e-06
1.67468e-06
1.67517e-06
8.62782e-06
8.62817e-06
1.67469e-06
5.8229e-07
3.48845e-07
1.33769e-06
3.34176e-07
1.33831e-06
3.34178e-07
5.82154e-07
5.82289e-07
3.48848e-07
1.33783e-06
3.34176e-07
1.33845e-06
3.34178e-07
5.82154e-07
2.79408e-06
2.79362e-06
3.77696e-07
2.7937e-06
2.79316e-06
2.40269e-05
2.40258e-05
2.40289e-05
2.40294e-05
3.7793e-07
2.79373e-06
2.79319e-06
2.79415e-06
2.79368e-06
2.40258e-05
2.40265e-05
5.82158e-07
1.33855e-06
3.3418e-07
3.48834e-07
5.82288e-07
1.33795e-06
3.3418e-07
1.67455e-06
8.62885e-06
1.67498e-06
8.62845e-06
5.82152e-07
3.34182e-07
1.33869e-06
3.48857e-07
5.82283e-07
3.34182e-07
1.33804e-06
1.67497e-06
8.62857e-06
8.62894e-06
1.67454e-06
5.82296e-07
3.48833e-07
1.33795e-06
3.34176e-07
1.33856e-06
3.34177e-07
5.82163e-07
1.67497e-06
8.6284e-06
8.62877e-06
1.67454e-06
5.82291e-07
3.48856e-07
3.34178e-07
1.33805e-06
3.34181e-07
1.3387e-06
5.82157e-07
1.67471e-06
8.62789e-06
1.67519e-06
8.62749e-06
5.8215e-07
3.34179e-07
1.33836e-06
3.48848e-07
5.8228e-07
3.34179e-07
1.33774e-06
1.67471e-06
8.62864e-06
1.67519e-06
8.62826e-06
5.82279e-07
3.48828e-07
1.33778e-06
3.34175e-07
1.33843e-06
3.34176e-07
5.82145e-07
1.67519e-06
8.62743e-06
8.62781e-06
1.6747e-06
5.82289e-07
3.48847e-07
3.34176e-07
1.33774e-06
3.34178e-07
1.33837e-06
5.82156e-07
1.67519e-06
8.62821e-06
8.62855e-06
1.6747e-06
2.79439e-06
2.79348e-06
3.77711e-07
2.79394e-06
2.79311e-06
2.40296e-05
2.40287e-05
2.4029e-05
2.40297e-05
3.77944e-07
2.79397e-06
2.79314e-06
2.79446e-06
2.79355e-06
2.40287e-05
2.40292e-05
5.82159e-07
3.34179e-07
1.3385e-06
3.48836e-07
5.82294e-07
3.34179e-07
1.33788e-06
1.67453e-06
8.62878e-06
1.67497e-06
8.62841e-06
1.67454e-06
8.62924e-06
1.67498e-06
8.62887e-06
5.82294e-07
3.48837e-07
3.34177e-07
1.33773e-06
3.34178e-07
1.33835e-06
5.82157e-07
5.82303e-07
3.48835e-07
3.34177e-07
1.33788e-06
3.34179e-07
1.33851e-06
5.82166e-07
1.67496e-06
8.62835e-06
8.6287e-06
1.67452e-06
1.67497e-06
8.6288e-06
8.62916e-06
1.67453e-06
2.40298e-05
2.40289e-05
2.40306e-05
2.40298e-05
3.77942e-07
2.79316e-06
2.79379e-06
2.79357e-06
2.79419e-06
2.40289e-05
2.40294e-05
2.40297e-05
2.40303e-05
2.40283e-05
2.40279e-05
2.403e-05
2.40296e-05
2.79351e-06
2.79417e-06
3.77708e-07
2.7931e-06
2.79375e-06
2.4029e-05
2.40287e-05
2.40307e-05
2.40304e-05
3.77941e-07
2.79307e-06
2.79372e-06
2.7935e-06
2.79415e-06
1.67468e-06
8.62813e-06
1.67516e-06
8.62781e-06
5.82153e-07
1.33831e-06
3.34175e-07
3.48845e-07
5.82293e-07
1.33769e-06
3.34173e-07
5.82153e-07
1.33846e-06
3.34175e-07
3.48849e-07
5.82294e-07
1.33783e-06
3.34173e-07
1.67515e-06
8.62736e-06
8.62748e-06
1.67467e-06
1.67516e-06
8.62799e-06
8.62813e-06
1.67467e-06
5.8229e-07
3.48842e-07
1.33772e-06
3.34169e-07
1.33831e-06
3.3417e-07
5.82149e-07
5.82291e-07
3.48846e-07
1.33785e-06
3.34169e-07
1.33845e-06
3.3417e-07
5.82149e-07
2.79418e-06
2.79371e-06
3.77701e-07
2.79375e-06
2.7932e-06
2.40266e-05
2.40261e-05
2.40302e-05
2.40299e-05
3.77934e-07
2.79372e-06
2.79318e-06
2.79417e-06
2.79369e-06
2.40272e-05
2.4027e-05
5.8216e-07
1.33857e-06
3.34174e-07
3.48833e-07
5.82299e-07
1.33796e-06
3.34173e-07
1.67453e-06
8.62874e-06
1.67495e-06
8.62839e-06
5.82156e-07
3.34177e-07
1.33871e-06
3.48858e-07
5.82295e-07
3.34175e-07
1.33805e-06
1.67495e-06
8.62876e-06
8.6289e-06
1.67452e-06
5.82294e-07
3.4883e-07
1.33798e-06
3.3417e-07
1.33856e-06
3.3417e-07
5.82155e-07
1.67496e-06
8.62858e-06
8.62874e-06
1.67452e-06
5.82292e-07
3.48854e-07
3.34172e-07
1.33807e-06
3.34173e-07
1.33871e-06
5.82153e-07
1.6747e-06
8.62778e-06
1.67517e-06
8.62743e-06
5.82156e-07
3.34175e-07
1.33837e-06
3.48847e-07
5.82294e-07
3.34173e-07
1.33774e-06
1.6747e-06
8.62851e-06
1.67517e-06
8.62819e-06
5.82285e-07
3.48826e-07
1.33781e-06
3.34169e-07
1.33843e-06
3.34169e-07
5.82149e-07
1.67518e-06
8.62761e-06
8.62778e-06
1.67469e-06
5.82292e-07
3.48844e-07
3.3417e-07
1.33777e-06
3.3417e-07
1.33837e-06
5.82154e-07
1.67517e-06
8.62837e-06
8.62851e-06
1.67468e-06
2.79449e-06
2.79358e-06
3.77715e-07
2.79399e-06
2.79316e-06
2.40293e-05
2.4029e-05
2.40303e-05
2.40302e-05
3.77947e-07
2.79396e-06
2.79313e-06
2.79447e-06
2.79356e-06
2.40301e-05
2.40297e-05
5.82164e-07
3.34176e-07
1.33851e-06
3.48835e-07
5.82308e-07
3.34174e-07
1.33788e-06
1.67451e-06
8.62866e-06
1.67494e-06
8.62834e-06
1.67452e-06
8.62911e-06
1.67495e-06
8.62878e-06
5.82296e-07
3.48835e-07
3.3417e-07
1.33775e-06
3.34171e-07
1.33835e-06
5.82151e-07
5.82302e-07
3.48832e-07
3.3417e-07
1.3379e-06
3.3417e-07
1.3385e-06
5.82156e-07
1.67494e-06
8.62851e-06
8.62865e-06
1.67449e-06
1.67495e-06
8.62896e-06
8.6291e-06
1.6745e-06
2.40295e-05
2.40292e-05
2.40304e-05
2.403e-05
3.77945e-07
2.79315e-06
2.79378e-06
2.79359e-06
2.79421e-06
2.40302e-05
2.40299e-05
2.40311e-05
2.40308e-05
2.40299e-05
2.40301e-05
2.40316e-05
2.40317e-05
2.79355e-06
2.7942e-06
3.77705e-07
2.79329e-06
2.79394e-06
2.40301e-05
2.40307e-05
2.40318e-05
2.40323e-05
3.77936e-07
2.79336e-06
2.79401e-06
2.79379e-06
2.79444e-06
1.67489e-06
8.62842e-06
1.67517e-06
8.62878e-06
5.82168e-07
1.33836e-06
3.34169e-07
3.4884e-07
5.82291e-07
1.33786e-06
3.34166e-07
5.82169e-07
1.33851e-06
3.34169e-07
3.48843e-07
5.82292e-07
1.33799e-06
3.34166e-07
1.67548e-06
8.62946e-06
8.62885e-06
1.67509e-06
1.67548e-06
8.63017e-06
8.62945e-06
1.6751e-06
5.82311e-07
3.48831e-07
1.33793e-06
3.34133e-07
1.33853e-06
3.34158e-07
5.8215e-07
5.82312e-07
3.48834e-07
1.33807e-06
3.34133e-07
1.33867e-06
3.34158e-07
5.82149e-07
2.79421e-06
2.79375e-06
3.77698e-07
2.79394e-06
2.79341e-06
2.40283e-05
2.40283e-05
2.40313e-05
2.40319e-05
3.77929e-07
2.794e-06
2.79347e-06
2.79445e-06
2.79399e-06
2.40283e-05
2.40291e-05
5.82176e-07
1.33862e-06
3.3417e-07
3.48828e-07
5.82294e-07
1.33812e-06
3.34168e-07
1.67473e-06
8.62905e-06
1.67496e-06
8.62936e-06
5.82172e-07
3.34172e-07
1.33876e-06
3.48851e-07
5.82294e-07
3.3417e-07
1.33821e-06
1.67528e-06
8.63086e-06
8.63026e-06
1.67494e-06
5.82316e-07
3.48819e-07
1.33819e-06
3.34134e-07
1.33878e-06
3.34159e-07
5.82156e-07
1.67528e-06
8.63073e-06
8.63008e-06
1.67494e-06
5.82314e-07
3.48843e-07
3.34136e-07
1.3383e-06
3.34162e-07
1.33893e-06
5.82151e-07
1.6749e-06
8.62808e-06
1.67519e-06
8.6284e-06
5.82174e-07
3.34169e-07
1.33842e-06
3.48842e-07
5.82294e-07
3.34167e-07
1.33791e-06
1.6749e-06
8.6288e-06
1.67518e-06
8.62917e-06
5.82312e-07
3.48814e-07
1.33803e-06
3.34131e-07
1.33866e-06
3.34157e-07
5.8215e-07
1.6755e-06
8.62978e-06
8.62913e-06
1.67512e-06
5.82314e-07
3.48834e-07
3.34133e-07
1.33799e-06
3.34158e-07
1.33859e-06
5.82153e-07
1.6755e-06
8.63056e-06
8.62984e-06
1.67511e-06
2.79452e-06
2.79361e-06
3.77715e-07
2.79417e-06
2.79335e-06
2.4031e-05
2.40311e-05
2.40315e-05
2.40322e-05
3.77945e-07
2.79424e-06
2.79342e-06
2.79476e-06
2.79385e-06
2.40312e-05
2.40317e-05
5.82178e-07
3.3417e-07
1.33856e-06
3.4883e-07
5.823e-07
3.34167e-07
1.33804e-06
1.67471e-06
8.62895e-06
1.67495e-06
8.6293e-06
1.67471e-06
8.62939e-06
1.67495e-06
8.62975e-06
5.82322e-07
3.48822e-07
3.34133e-07
1.33798e-06
3.34158e-07
1.33857e-06
5.82157e-07
5.82325e-07
3.48821e-07
3.34134e-07
1.33812e-06
3.34159e-07
1.33872e-06
5.82162e-07
1.67526e-06
8.6307e-06
8.62997e-06
1.67493e-06
1.67527e-06
8.63115e-06
8.63042e-06
1.67493e-06
2.40311e-05
2.40313e-05
2.4032e-05
2.40321e-05
3.77943e-07
2.79343e-06
2.79406e-06
2.79388e-06
2.7945e-06
2.40313e-05
2.40319e-05
2.40322e-05
2.40328e-05
2.40306e-05
2.40298e-05
2.40322e-05
2.40315e-05
2.79375e-06
2.7944e-06
3.77611e-07
2.7931e-06
2.79374e-06
2.40296e-05
2.40303e-05
2.40313e-05
2.4032e-05
3.77828e-07
2.79293e-06
2.79358e-06
2.79347e-06
2.79412e-06
1.67498e-06
8.6306e-06
1.67558e-06
8.63041e-06
5.82084e-07
1.33854e-06
3.34093e-07
3.48738e-07
5.82274e-07
1.33784e-06
3.34062e-07
5.82084e-07
1.33869e-06
3.34094e-07
3.48741e-07
5.82274e-07
1.33798e-06
3.34062e-07
1.67542e-06
8.62965e-06
8.63e-06
1.67486e-06
1.67543e-06
8.63036e-06
8.63071e-06
1.67487e-06
5.82212e-07
3.48714e-07
1.33776e-06
3.34023e-07
1.33843e-06
3.34036e-07
5.82052e-07
5.82212e-07
3.48718e-07
1.3379e-06
3.34023e-07
1.33859e-06
3.34037e-07
5.82052e-07
2.79441e-06
2.79396e-06
3.77603e-07
2.79374e-06
2.79322e-06
2.4029e-05
2.4028e-05
2.40309e-05
2.40315e-05
3.77821e-07
2.79357e-06
2.79302e-06
2.79413e-06
2.79367e-06
2.40279e-05
2.40287e-05
5.82089e-07
1.3388e-06
3.34094e-07
3.48726e-07
5.8228e-07
1.3381e-06
3.34063e-07
1.67483e-06
8.63122e-06
1.67537e-06
8.63101e-06
5.82087e-07
3.34097e-07
1.33895e-06
3.48749e-07
5.82275e-07
3.34065e-07
1.33821e-06
1.67521e-06
8.63095e-06
8.63142e-06
1.67471e-06
5.82215e-07
3.48702e-07
1.33801e-06
3.34024e-07
1.33869e-06
3.34037e-07
5.82059e-07
1.67522e-06
8.63095e-06
8.63134e-06
1.67472e-06
5.82214e-07
3.48726e-07
3.34026e-07
1.33812e-06
3.3404e-07
1.33884e-06
5.82056e-07
1.675e-06
8.63026e-06
1.6756e-06
8.63005e-06
5.82089e-07
3.34093e-07
1.33861e-06
3.4874e-07
5.82276e-07
3.34062e-07
1.3379e-06
1.675e-06
8.63099e-06
1.6756e-06
8.6308e-06
5.82212e-07
3.48697e-07
1.33786e-06
3.34022e-07
1.33857e-06
3.34036e-07
5.82052e-07
1.67545e-06
8.63e-06
8.63038e-06
1.67489e-06
5.82215e-07
3.48717e-07
3.34024e-07
1.33782e-06
3.34037e-07
1.3385e-06
5.82057e-07
1.67545e-06
8.63075e-06
8.6311e-06
1.67489e-06
2.79472e-06
2.79381e-06
3.77619e-07
2.79399e-06
2.79316e-06
2.40316e-05
2.40309e-05
2.4031e-05
2.40318e-05
3.77836e-07
2.7938e-06
2.793e-06
2.79444e-06
2.79354e-06
2.40307e-05
2.40314e-05
5.82093e-07
3.34094e-07
1.33875e-06
3.48728e-07
5.8229e-07
3.34062e-07
1.33803e-06
1.67481e-06
8.63113e-06
1.67536e-06
8.63095e-06
1.67481e-06
8.63158e-06
1.67537e-06
8.63139e-06
5.82219e-07
3.48706e-07
3.34024e-07
1.33781e-06
3.34037e-07
1.33849e-06
5.82056e-07
5.82224e-07
3.48704e-07
3.34024e-07
1.33795e-06
3.34037e-07
1.33864e-06
5.82062e-07
1.67521e-06
8.6309e-06
8.63124e-06
1.6747e-06
1.67522e-06
8.63133e-06
8.63169e-06
1.67471e-06
2.40318e-05
2.4031e-05
2.40327e-05
2.40319e-05
3.77833e-07
2.79302e-06
2.79365e-06
2.79356e-06
2.79418e-06
2.40309e-05
2.40316e-05
2.40317e-05
2.40324e-05
2.40302e-05
2.40296e-05
2.40318e-05
2.40312e-05
2.79334e-06
2.794e-06
3.77569e-07
2.79289e-06
2.79354e-06
2.40296e-05
2.40301e-05
2.40312e-05
2.40318e-05
3.77804e-07
2.79288e-06
2.79353e-06
2.79331e-06
2.79397e-06
1.67484e-06
8.63065e-06
1.67534e-06
8.63032e-06
5.82043e-07
1.33837e-06
3.34021e-07
3.48699e-07
5.82187e-07
1.33773e-06
3.3402e-07
5.82044e-07
1.33852e-06
3.34021e-07
3.48703e-07
5.82188e-07
1.33787e-06
3.34021e-07
1.67531e-06
8.62959e-06
8.62991e-06
1.67482e-06
1.67532e-06
8.63029e-06
8.63062e-06
1.67483e-06
5.82182e-07
3.48697e-07
1.33772e-06
3.34018e-07
1.33834e-06
3.34018e-07
5.82044e-07
5.82183e-07
3.48701e-07
1.33786e-06
3.34019e-07
1.3385e-06
3.34019e-07
5.82044e-07
2.794e-06
2.79352e-06
3.77561e-07
2.79352e-06
2.79297e-06
2.40285e-05
2.40278e-05
2.40306e-05
2.40314e-05
3.77797e-07
2.7936e-06
2.79297e-06
2.79396e-06
2.79349e-06
2.40278e-05
2.40285e-05
5.82051e-07
1.33867e-06
3.34021e-07
3.48687e-07
5.82191e-07
1.33801e-06
3.34021e-07
1.67468e-06
8.63128e-06
1.67514e-06
8.63091e-06
5.82048e-07
3.34025e-07
1.33877e-06
3.48711e-07
5.82191e-07
3.34024e-07
1.33809e-06
1.67511e-06
8.63079e-06
8.63116e-06
1.67467e-06
5.82187e-07
3.48685e-07
1.33802e-06
3.34019e-07
1.33867e-06
3.34019e-07
5.82052e-07
1.67511e-06