/*--------------------------------*- C++ -*----------------------------------*\
| =========                 |                                                 |
| \\      /  F ield         | OpenFOAM: The Open Source CFD Toolbox           |
|  \\    /   O peration     | Version:  2206                                  |
|   \\  /    A nd           | Website:  www.openfoam.com                      |
|    \\/     M anipulation  |                                                 |
\*---------------------------------------------------------------------------*/
FoamFile
{
    version     2.0;
    format      ascii;
    arch        "LSB;label=32;scalar=64";
    class       volScalarField;
    location    "0.4";
    object      p;
}
// * * * * * * * * * * * * * * * * * * * * * * * * * * * * * * * * * * * * * //

dimensions      [0 2 -2 0 0 0 0];

internalField   nonuniform List<scalar> 
200184
(
1.09317e-06
1.09415e-06
1.09415e-06
1.09491e-06
1.08846e-06
1.08991e-06
1.08991e-06
1.09021e-06
1.08336e-06
1.08439e-06
1.08439e-06
1.08447e-06
1.07781e-06
1.07864e-06
1.07864e-06
1.07865e-06
1.07213e-06
1.07289e-06
1.07289e-06
1.07288e-06
1.0664e-06
1.06714e-06
1.06714e-06
1.06713e-06
1.06066e-06
1.0614e-06
1.0614e-06
1.06138e-06
1.05492e-06
1.05565e-06
1.05565e-06
1.05564e-06
1.04917e-06
1.04991e-06
1.04991e-06
1.04989e-06
1.04343e-06
1.04417e-06
1.04417e-06
1.04415e-06
1.03769e-06
1.03843e-06
1.03843e-06
1.03841e-06
1.03194e-06
1.03269e-06
1.03268e-06
1.03266e-06
1.0262e-06
1.02694e-06
1.02694e-06
1.02692e-06
1.02046e-06
1.02119e-06
1.02119e-06
1.02118e-06
1.01471e-06
1.01545e-06
1.01545e-06
1.01543e-06
1.00897e-06
1.00971e-06
1.00971e-06
1.00969e-06
1.00323e-06
1.00396e-06
1.00396e-06
1.00395e-06
9.97481e-07
9.98219e-07
9.98217e-07
9.98202e-07
9.91739e-07
9.92476e-07
9.92477e-07
9.92459e-07
9.85995e-07
9.86733e-07
9.86735e-07
9.86715e-07
9.80252e-07
9.80989e-07
9.80988e-07
9.80972e-07
9.74508e-07
9.75246e-07
9.75244e-07
9.75228e-07
9.68766e-07
9.69502e-07
9.69504e-07
9.69485e-07
9.63022e-07
9.63758e-07
9.6376e-07
9.63741e-07
9.57277e-07
9.58015e-07
9.58015e-07
9.57998e-07
9.51533e-07
9.52274e-07
9.52269e-07
9.52254e-07
9.45791e-07
9.46534e-07
9.46531e-07
9.46511e-07
9.40047e-07
9.40779e-07
9.40782e-07
9.40767e-07
9.34304e-07
9.3504e-07
9.35042e-07
9.35024e-07
9.28561e-07
9.29298e-07
9.29298e-07
9.2928e-07
9.22817e-07
9.23555e-07
9.23554e-07
9.23537e-07
9.17073e-07
9.17811e-07
9.17814e-07
9.17793e-07
9.1133e-07
9.12068e-07
9.12068e-07
9.1205e-07
9.05587e-07
9.06325e-07
9.06327e-07
9.06307e-07
8.99842e-07
9.0058e-07
9.00577e-07
9.00564e-07
8.941e-07
8.94837e-07
8.94838e-07
8.9482e-07
8.88358e-07
8.89095e-07
8.89098e-07
8.89076e-07
8.82613e-07
8.83351e-07
8.83349e-07
8.83333e-07
8.76869e-07
8.77606e-07
8.77603e-07
8.77589e-07
8.71127e-07
8.71864e-07
8.71866e-07
8.71846e-07
8.65382e-07
8.66121e-07
8.66122e-07
8.66103e-07
8.59639e-07
8.60377e-07
8.60378e-07
8.60359e-07
8.53896e-07
8.54635e-07
8.54633e-07
8.54616e-07
8.48153e-07
8.48898e-07
8.48893e-07
8.48873e-07
8.42408e-07
8.43144e-07
8.43143e-07
8.43129e-07
8.36666e-07
8.37399e-07
8.37403e-07
8.37386e-07
8.30922e-07
8.31659e-07
8.31663e-07
8.31643e-07
8.25179e-07
8.25922e-07
8.25916e-07
8.259e-07
8.19436e-07
8.20168e-07
8.20178e-07
8.20154e-07
8.13692e-07
8.14428e-07
8.14428e-07
8.14412e-07
8.0795e-07
8.08686e-07
8.08686e-07
8.08669e-07
8.02206e-07
8.02943e-07
8.02942e-07
8.02925e-07
7.96461e-07
7.972e-07
7.97198e-07
7.97182e-07
7.90718e-07
7.91456e-07
7.91454e-07
7.91438e-07
7.84975e-07
7.85712e-07
7.85714e-07
7.85695e-07
7.79233e-07
7.79972e-07
7.79972e-07
7.79952e-07
7.73488e-07
7.74227e-07
7.74226e-07
7.74209e-07
7.67744e-07
7.68478e-07
7.68481e-07
7.68464e-07
7.62002e-07
7.62738e-07
7.62741e-07
7.62722e-07
7.56257e-07
7.56995e-07
7.56995e-07
7.56978e-07
7.50515e-07
7.51252e-07
7.51251e-07
7.51234e-07
7.44771e-07
7.45509e-07
7.4551e-07
7.45491e-07
7.39027e-07
7.39765e-07
7.39763e-07
7.39748e-07
7.33284e-07
7.34021e-07
7.34023e-07
7.34004e-07
7.27541e-07
7.28278e-07
7.2828e-07
7.28261e-07
7.21797e-07
7.22534e-07
7.22531e-07
7.22518e-07
7.16054e-07
7.16792e-07
7.16792e-07
7.16774e-07
7.1031e-07
7.11048e-07
7.11051e-07
7.1103e-07
7.04567e-07
7.05305e-07
7.05304e-07
7.05287e-07
6.98824e-07
6.99561e-07
6.99562e-07
6.99544e-07
6.9308e-07
6.93817e-07
6.93818e-07
6.938e-07
6.87335e-07
6.88073e-07
6.88071e-07
6.88057e-07
6.81593e-07
6.82331e-07
6.82332e-07
6.82313e-07
6.7585e-07
6.76588e-07
6.76585e-07
6.76569e-07
6.70107e-07
6.70844e-07
6.70845e-07
6.70826e-07
6.64363e-07
6.651e-07
6.65103e-07
6.65082e-07
6.58618e-07
6.59356e-07
6.59354e-07
6.59339e-07
6.52876e-07
6.53613e-07
6.53612e-07
6.53595e-07
6.47133e-07
6.4787e-07
6.47875e-07
6.47852e-07
6.41388e-07
6.42126e-07
6.42123e-07
6.42109e-07
6.35644e-07
6.36385e-07
6.36378e-07
6.36365e-07
6.29902e-07
6.30643e-07
6.30639e-07
6.30622e-07
6.24158e-07
6.24891e-07
6.24896e-07
6.24878e-07
6.18414e-07
6.19152e-07
6.19153e-07
6.19134e-07
6.12671e-07
6.13408e-07
6.13412e-07
6.13391e-07
6.06926e-07
6.07664e-07
6.07661e-07
6.07647e-07
6.01184e-07
6.01922e-07
6.01923e-07
6.01903e-07
5.9544e-07
5.96177e-07
5.96176e-07
5.9616e-07
5.89697e-07
5.90434e-07
5.90437e-07
5.90416e-07
5.83953e-07
5.8469e-07
5.84693e-07
5.84673e-07
5.78208e-07
5.78946e-07
5.78943e-07
5.78929e-07
5.72466e-07
5.73204e-07
5.73203e-07
5.73185e-07
5.66722e-07
5.6746e-07
5.6746e-07
5.67442e-07
5.60978e-07
5.61716e-07
5.61719e-07
5.61699e-07
5.55234e-07
5.55975e-07
5.55971e-07
5.55955e-07
5.49491e-07
5.50228e-07
5.50226e-07
5.50211e-07
5.43748e-07
5.44489e-07
5.44489e-07
5.44468e-07
5.38003e-07
5.38741e-07
5.38739e-07
5.38724e-07
5.32261e-07
5.32996e-07
5.33e-07
5.3298e-07
5.26517e-07
5.27252e-07
5.27257e-07
5.27236e-07
5.20773e-07
5.21511e-07
5.21513e-07
5.21494e-07
5.1503e-07
5.15769e-07
5.15763e-07
5.15749e-07
5.09286e-07
5.10023e-07
5.10023e-07
5.10006e-07
5.03542e-07
5.04282e-07
5.04281e-07
5.04262e-07
4.97799e-07
4.98544e-07
4.98534e-07
4.98519e-07
4.92055e-07
4.92791e-07
4.92793e-07
4.92775e-07
4.86312e-07
4.87043e-07
4.87049e-07
4.87031e-07
4.80568e-07
4.81306e-07
4.81305e-07
4.81288e-07
4.74824e-07
4.75564e-07
4.75562e-07
4.75544e-07
4.69081e-07
4.6982e-07
4.69818e-07
4.69801e-07
4.63337e-07
4.64069e-07
4.64077e-07
4.64056e-07
4.57593e-07
4.5833e-07
4.58337e-07
4.58314e-07
4.5185e-07
4.52588e-07
4.52584e-07
4.5257e-07
4.46106e-07
4.46844e-07
4.46841e-07
4.46826e-07
4.40362e-07
4.411e-07
4.41101e-07
4.41082e-07
4.34619e-07
4.35358e-07
4.35355e-07
4.35339e-07
4.28875e-07
4.29617e-07
4.29613e-07
4.29596e-07
4.23131e-07
4.23875e-07
4.2387e-07
4.23852e-07
4.17387e-07
4.18116e-07
4.18126e-07
4.18106e-07
4.11645e-07
4.1238e-07
4.12389e-07
4.12365e-07
4.05901e-07
4.06642e-07
4.06629e-07
4.0662e-07
4.00157e-07
4.00896e-07
4.00891e-07
4.00877e-07
3.94413e-07
3.95149e-07
3.95151e-07
3.95133e-07
3.88669e-07
3.89405e-07
3.89408e-07
3.8939e-07
3.82926e-07
3.83669e-07
3.83665e-07
3.83647e-07
3.77182e-07
3.77915e-07
3.77918e-07
3.77902e-07
3.7144e-07
3.72179e-07
3.72179e-07
3.72159e-07
3.65694e-07
3.66434e-07
3.66434e-07
3.66416e-07
3.59951e-07
3.60687e-07
3.60683e-07
3.60672e-07
3.54208e-07
3.54941e-07
3.54945e-07
3.54927e-07
3.48464e-07
3.49199e-07
3.49202e-07
3.49184e-07
3.4272e-07
3.43458e-07
3.43457e-07
3.43441e-07
3.36976e-07
3.37717e-07
3.37714e-07
3.37697e-07
3.31232e-07
3.31969e-07
3.31971e-07
3.31952e-07
3.2549e-07
3.26225e-07
3.26229e-07
3.26208e-07
3.19745e-07
3.20481e-07
3.20481e-07
3.20465e-07
3.14002e-07
3.14739e-07
3.1474e-07
3.14721e-07
3.08258e-07
3.08997e-07
3.08997e-07
3.08978e-07
3.02514e-07
3.03253e-07
3.0325e-07
3.03234e-07
2.96771e-07
2.97515e-07
2.97512e-07
2.9749e-07
2.91026e-07
2.91765e-07
2.91761e-07
2.91747e-07
2.85283e-07
2.86011e-07
2.86022e-07
2.86002e-07
2.79539e-07
2.80278e-07
2.80283e-07
2.8026e-07
2.73795e-07
2.74538e-07
2.74527e-07
2.74516e-07
2.68052e-07
2.6879e-07
2.68785e-07
2.68771e-07
2.62308e-07
2.6304e-07
2.63046e-07
2.63026e-07
2.56564e-07
2.57299e-07
2.57301e-07
2.57284e-07
2.50821e-07
2.51559e-07
2.51562e-07
2.5154e-07
2.45076e-07
2.45813e-07
2.45813e-07
2.45797e-07
2.39333e-07
2.40071e-07
2.40067e-07
2.40053e-07
2.33589e-07
2.34328e-07
2.34328e-07
2.34309e-07
2.27845e-07
2.28585e-07
2.28582e-07
2.28565e-07
2.22102e-07
2.22846e-07
2.22841e-07
2.22822e-07
2.16358e-07
2.17095e-07
2.171e-07
2.17078e-07
2.10615e-07
2.11345e-07
2.11345e-07
2.11333e-07
2.04871e-07
2.05607e-07
2.0561e-07
2.05591e-07
1.99128e-07
1.99867e-07
1.99868e-07
1.99847e-07
1.93382e-07
1.94121e-07
1.94117e-07
1.94103e-07
1.8764e-07
1.88379e-07
1.88377e-07
1.8836e-07
1.81896e-07
1.82644e-07
1.82635e-07
1.82617e-07
1.76153e-07
1.76881e-07
1.7689e-07
1.76871e-07
1.70409e-07
1.71145e-07
1.71147e-07
1.71129e-07
1.64665e-07
1.65406e-07
1.65405e-07
1.65385e-07
1.58921e-07
1.59655e-07
1.59667e-07
1.59641e-07
1.53178e-07
1.53914e-07
1.53909e-07
1.53895e-07
1.47434e-07
1.48178e-07
1.48171e-07
1.48154e-07
1.4169e-07
1.42423e-07
1.42427e-07
1.42408e-07
1.35946e-07
1.36688e-07
1.36684e-07
1.36666e-07
1.30203e-07
1.30941e-07
1.30942e-07
1.30923e-07
1.2446e-07
1.25192e-07
1.252e-07
1.25179e-07
1.18715e-07
1.19456e-07
1.1945e-07
1.19435e-07
1.12972e-07
1.13712e-07
1.13714e-07
1.13693e-07
1.07228e-07
1.07967e-07
1.07961e-07
1.07948e-07
1.01485e-07
1.02221e-07
1.02219e-07
1.02204e-07
9.57404e-08
9.6475e-08
9.64785e-08
9.64599e-08
8.99966e-08
9.07348e-08
9.07334e-08
9.07168e-08
8.42531e-08
8.49914e-08
8.49911e-08
8.49729e-08
7.85096e-08
7.92453e-08
7.92458e-08
7.92291e-08
7.27657e-08
7.35025e-08
7.35039e-08
7.34851e-08
6.70215e-08
6.7761e-08
6.77604e-08
6.77412e-08
6.12774e-08
6.20177e-08
6.2015e-08
6.19978e-08
5.55336e-08
5.62774e-08
5.62723e-08
5.62547e-08
4.97902e-08
5.05233e-08
5.05311e-08
5.05092e-08
4.40469e-08
4.47813e-08
4.47869e-08
4.4766e-08
3.83045e-08
3.90405e-08
3.90381e-08
3.90218e-08
3.25647e-08
3.3302e-08
3.32919e-08
3.32766e-08
2.68292e-08
2.75424e-08
2.75486e-08
2.75248e-08
2.1094e-08
2.18003e-08
2.17879e-08
2.17672e-08
1.53095e-08
1.60269e-08
1.60179e-08
1.60178e-08
9.46549e-09
1.01297e-08
1.01225e-08
1.03981e-08
1.67331e-09
1.79435e-09
1.79284e-09
1.8832e-09
1.09435e-06
1.09435e-06
1.09435e-06
1.09435e-06
1.09356e-06
1.09356e-06
1.09355e-06
1.09355e-06
1.09435e-06
1.09435e-06
1.09435e-06
1.09435e-06
1.09491e-06
1.09154e-06
1.09415e-06
1.09416e-06
1.09118e-06
1.09118e-06
1.09491e-06
1.09154e-06
1.09416e-06
1.09415e-06
1.09118e-06
1.09118e-06
1.09317e-06
1.09317e-06
1.09317e-06
1.09073e-06
1.09073e-06
1.09073e-06
1.09073e-06
1.09415e-06
1.09118e-06
1.09118e-06
1.09491e-06
1.09154e-06
1.09415e-06
1.09118e-06
1.09118e-06
1.09154e-06
1.09021e-06
1.08593e-06
1.08991e-06
1.08991e-06
1.08578e-06
1.08579e-06
1.09021e-06
1.08593e-06
1.08991e-06
1.08991e-06
1.08578e-06
1.08578e-06
1.08991e-06
1.08578e-06
1.08578e-06
1.0902e-06
1.08593e-06
1.08991e-06
1.08578e-06
1.08578e-06
1.08593e-06
1.08447e-06
1.08009e-06
1.08439e-06
1.08439e-06
1.08004e-06
1.08004e-06
1.08447e-06
1.08009e-06
1.08439e-06
1.08439e-06
1.08004e-06
1.08004e-06
1.08439e-06
1.08004e-06
1.08004e-06
1.08447e-06
1.08009e-06
1.08439e-06
1.08004e-06
1.08004e-06
1.0801e-06
1.07865e-06
1.07431e-06
1.07864e-06
1.07864e-06
1.07429e-06
1.07429e-06
1.07865e-06
1.07431e-06
1.07864e-06
1.07864e-06
1.07429e-06
1.07429e-06
1.07864e-06
1.07429e-06
1.07429e-06
1.07865e-06
1.07431e-06
1.07864e-06
1.07429e-06
1.07429e-06
1.07431e-06
1.07288e-06
1.06856e-06
1.07289e-06
1.07289e-06
1.06854e-06
1.06854e-06
1.07288e-06
1.06856e-06
1.07288e-06
1.0729e-06
1.06854e-06
1.06854e-06
1.07289e-06
1.06854e-06
1.06854e-06
1.07288e-06
1.06856e-06
1.07289e-06
1.06854e-06
1.06854e-06
1.06856e-06
1.06713e-06
1.06281e-06
1.06714e-06
1.06714e-06
1.06279e-06
1.06279e-06
1.06713e-06
1.06281e-06
1.06715e-06
1.06714e-06
1.0628e-06
1.06279e-06
1.06714e-06
1.0628e-06
1.0628e-06
1.06713e-06
1.06282e-06
1.06714e-06
1.0628e-06
1.0628e-06
1.06281e-06
1.06138e-06
1.05707e-06
1.0614e-06
1.0614e-06
1.05705e-06
1.05705e-06
1.06138e-06
1.05707e-06
1.0614e-06
1.06139e-06
1.05705e-06
1.05706e-06
1.0614e-06
1.05706e-06
1.05705e-06
1.06138e-06
1.05707e-06
1.0614e-06
1.05705e-06
1.05705e-06
1.05707e-06
1.05564e-06
1.05133e-06
1.05566e-06
1.05566e-06
1.05131e-06
1.05131e-06
1.05564e-06
1.05133e-06
1.05565e-06
1.05566e-06
1.05131e-06
1.05131e-06
1.05566e-06
1.0513e-06
1.05131e-06
1.05564e-06
1.05133e-06
1.05565e-06
1.05131e-06
1.05131e-06
1.05133e-06
1.04989e-06
1.04558e-06
1.04991e-06
1.04991e-06
1.04556e-06
1.04556e-06
1.04989e-06
1.04558e-06
1.04991e-06
1.04991e-06
1.04557e-06
1.04556e-06
1.04991e-06
1.04556e-06
1.04556e-06
1.04989e-06
1.04558e-06
1.04991e-06
1.04557e-06
1.04556e-06
1.04558e-06
1.04415e-06
1.03984e-06
1.04417e-06
1.04417e-06
1.03982e-06
1.03982e-06
1.04415e-06
1.03984e-06
1.04417e-06
1.04417e-06
1.03982e-06
1.03982e-06
1.04417e-06
1.03982e-06
1.03982e-06
1.04415e-06
1.03984e-06
1.04417e-06
1.03982e-06
1.03982e-06
1.03984e-06
1.03841e-06
1.0341e-06
1.03842e-06
1.03842e-06
1.03408e-06
1.03408e-06
1.03841e-06
1.0341e-06
1.03843e-06
1.03842e-06
1.03408e-06
1.03408e-06
1.03842e-06
1.03408e-06
1.03407e-06
1.03841e-06
1.03409e-06
1.03842e-06
1.03408e-06
1.03408e-06
1.0341e-06
1.03266e-06
1.02835e-06
1.03268e-06
1.03268e-06
1.02833e-06
1.02834e-06
1.03266e-06
1.02835e-06
1.03268e-06
1.03268e-06
1.02833e-06
1.02833e-06
1.03268e-06
1.02833e-06
1.02834e-06
1.03266e-06
1.02835e-06
1.03268e-06
1.02833e-06
1.02833e-06
1.02835e-06
1.02692e-06
1.02261e-06
1.02694e-06
1.02694e-06
1.02259e-06
1.02259e-06
1.02692e-06
1.02261e-06
1.02694e-06
1.02694e-06
1.02259e-06
1.02259e-06
1.02694e-06
1.02259e-06
1.02259e-06
1.02692e-06
1.02261e-06
1.02694e-06
1.02259e-06
1.02259e-06
1.02261e-06
1.02118e-06
1.01687e-06
1.0212e-06
1.02119e-06
1.01685e-06
1.01685e-06
1.02118e-06
1.01686e-06
1.02119e-06
1.0212e-06
1.01684e-06
1.01686e-06
1.02119e-06
1.01684e-06
1.01685e-06
1.02118e-06
1.01686e-06
1.02119e-06
1.01684e-06
1.01685e-06
1.01686e-06
1.01543e-06
1.01112e-06
1.01545e-06
1.01545e-06
1.0111e-06
1.0111e-06
1.01543e-06
1.01112e-06
1.01544e-06
1.01546e-06
1.01111e-06
1.0111e-06
1.01545e-06
1.0111e-06
1.0111e-06
1.01543e-06
1.01112e-06
1.01545e-06
1.01111e-06
1.0111e-06
1.01112e-06
1.00969e-06
1.00538e-06
1.0097e-06
1.00971e-06
1.00536e-06
1.00536e-06
1.00969e-06
1.00538e-06
1.00972e-06
1.0097e-06
1.00536e-06
1.00536e-06
1.00971e-06
1.00536e-06
1.00536e-06
1.00969e-06
1.00538e-06
1.00971e-06
1.00536e-06
1.00536e-06
1.00538e-06
1.00395e-06
9.99635e-07
1.00396e-06
1.00396e-06
9.99619e-07
9.99616e-07
1.00395e-06
9.99634e-07
1.00396e-06
1.00396e-06
9.99613e-07
9.99624e-07
1.00396e-06
9.99616e-07
9.99618e-07
1.00395e-06
9.99634e-07
1.00396e-06
9.99614e-07
9.99617e-07
9.99634e-07
9.98203e-07
9.93891e-07
9.98224e-07
9.9822e-07
9.93874e-07
9.93873e-07
9.98202e-07
9.9389e-07
9.98213e-07
9.98229e-07
9.93871e-07
9.93878e-07
9.9822e-07
9.93873e-07
9.93873e-07
9.982e-07
9.9389e-07
9.9822e-07
9.93871e-07
9.93872e-07
9.93891e-07
9.92459e-07
9.88147e-07
9.92476e-07
9.92476e-07
9.88127e-07
9.88129e-07
9.92458e-07
9.88147e-07
9.92477e-07
9.92478e-07
9.88135e-07
9.88124e-07
9.92476e-07
9.8813e-07
9.8813e-07
9.92459e-07
9.88149e-07
9.92477e-07
9.88132e-07
9.88129e-07
9.88147e-07
9.86715e-07
9.82404e-07
9.86732e-07
9.86732e-07
9.82388e-07
9.82386e-07
9.86715e-07
9.82403e-07
9.86735e-07
9.86729e-07
9.82383e-07
9.8239e-07
9.86733e-07
9.82386e-07
9.82386e-07
9.86716e-07
9.82403e-07
9.86733e-07
9.82384e-07
9.82386e-07
9.82404e-07
9.80972e-07
9.7666e-07
9.8099e-07
9.80989e-07
9.76642e-07
9.76642e-07
9.80971e-07
9.7666e-07
9.80989e-07
9.8099e-07
9.76645e-07
9.76641e-07
9.80989e-07
9.76643e-07
9.76642e-07
9.80972e-07
9.7666e-07
9.8099e-07
9.76643e-07
9.76642e-07
9.7666e-07
9.75229e-07
9.70916e-07
9.75247e-07
9.75245e-07
9.70898e-07
9.70899e-07
9.75228e-07
9.70916e-07
9.75244e-07
9.75247e-07
9.70897e-07
9.70899e-07
9.75245e-07
9.70899e-07
9.70899e-07
9.75228e-07
9.70916e-07
9.75247e-07
9.70899e-07
9.70899e-07
9.70917e-07
9.69484e-07
9.65172e-07
9.695e-07
9.69502e-07
9.65152e-07
9.65156e-07
9.69485e-07
9.65173e-07
9.69505e-07
9.69497e-07
9.65159e-07
9.6515e-07
9.69502e-07
9.65155e-07
9.65156e-07
9.69485e-07
9.65173e-07
9.69503e-07
9.65158e-07
9.65156e-07
9.65173e-07
9.63741e-07
9.5943e-07
9.63757e-07
9.63759e-07
9.59413e-07
9.59412e-07
9.63741e-07
9.59429e-07
9.6376e-07
9.63754e-07
9.59412e-07
9.59413e-07
9.63759e-07
9.59411e-07
9.59412e-07
9.63741e-07
9.5943e-07
9.63759e-07
9.59412e-07
9.59412e-07
9.59429e-07
9.57998e-07
9.53688e-07
9.58017e-07
9.58015e-07
9.53673e-07
9.53669e-07
9.57998e-07
9.53686e-07
9.58014e-07
9.58018e-07
9.53662e-07
9.53677e-07
9.58015e-07
9.5367e-07
9.53668e-07
9.57998e-07
9.53686e-07
9.58015e-07
9.53666e-07
9.53668e-07
9.53686e-07
9.52255e-07
9.47942e-07
9.52274e-07
9.52272e-07
9.47922e-07
9.47923e-07
9.52255e-07
9.47943e-07
9.52266e-07
9.5228e-07
9.47931e-07
9.47922e-07
9.52271e-07
9.47931e-07
9.47923e-07
9.52253e-07
9.47943e-07
9.52272e-07
9.47927e-07
9.47927e-07
9.47943e-07
9.46509e-07
9.422e-07
9.46524e-07
9.46526e-07
9.42185e-07
9.42184e-07
9.4651e-07
9.422e-07
9.46535e-07
9.46524e-07
9.42178e-07
9.42187e-07
9.46525e-07
9.42177e-07
9.42185e-07
9.46511e-07
9.42199e-07
9.46531e-07
9.4218e-07
9.42179e-07
9.42199e-07
9.40767e-07
9.36455e-07
9.40789e-07
9.40786e-07
9.36439e-07
9.36437e-07
9.40767e-07
9.36455e-07
9.40779e-07
9.40791e-07
9.36435e-07
9.3644e-07
9.40787e-07
9.36435e-07
9.36439e-07
9.40766e-07
9.36456e-07
9.40783e-07
9.36437e-07
9.36437e-07
9.36456e-07
9.35024e-07
9.30712e-07
9.35041e-07
9.35041e-07
9.30694e-07
9.30696e-07
9.35023e-07
9.30712e-07
9.3504e-07
9.35042e-07
9.30693e-07
9.30695e-07
9.35042e-07
9.30694e-07
9.30695e-07
9.35024e-07
9.30712e-07
9.35041e-07
9.30695e-07
9.30694e-07
9.30712e-07
9.2928e-07
9.24969e-07
9.29298e-07
9.29298e-07
9.24951e-07
9.24951e-07
9.2928e-07
9.24969e-07
9.29297e-07
9.29298e-07
9.24952e-07
9.24951e-07
9.29298e-07
9.24952e-07
9.24951e-07
9.2928e-07
9.24968e-07
9.29297e-07
9.2495e-07
9.24951e-07
9.24969e-07
9.23537e-07
9.19226e-07
9.23554e-07
9.23554e-07
9.19207e-07
9.19207e-07
9.23537e-07
9.19225e-07
9.23556e-07
9.23554e-07
9.19213e-07
9.19207e-07
9.23554e-07
9.19208e-07
9.19208e-07
9.23537e-07
9.19226e-07
9.23556e-07
9.19209e-07
9.19208e-07
9.19225e-07
9.17794e-07
9.13482e-07
9.17809e-07
9.1781e-07
9.13466e-07
9.13464e-07
9.17793e-07
9.13482e-07
9.17817e-07
9.17807e-07
9.13464e-07
9.13465e-07
9.17811e-07
9.13464e-07
9.13464e-07
9.17794e-07
9.13482e-07
9.17812e-07
9.13464e-07
9.13463e-07
9.13482e-07
9.1205e-07
9.07738e-07
9.12069e-07
9.12068e-07
9.07718e-07
9.07722e-07
9.1205e-07
9.07739e-07
9.12065e-07
9.12068e-07
9.07725e-07
9.07714e-07
9.12067e-07
9.07721e-07
9.07721e-07
9.1205e-07
9.0774e-07
9.12067e-07
9.07723e-07
9.0772e-07
9.07739e-07
9.06306e-07
9.01996e-07
9.06321e-07
9.06324e-07
9.01981e-07
9.01977e-07
9.06307e-07
9.01995e-07
9.06327e-07
9.06319e-07
9.01973e-07
9.01983e-07
9.06325e-07
9.01977e-07
9.01978e-07
9.06307e-07
9.01995e-07
9.06325e-07
9.01974e-07
9.01978e-07
9.01996e-07
9.00564e-07
8.96251e-07
9.00585e-07
9.00581e-07
8.96234e-07
8.96235e-07
9.00563e-07
8.96252e-07
9.00573e-07
9.00588e-07
8.96232e-07
8.96236e-07
9.00582e-07
8.96234e-07
8.96234e-07
9.00562e-07
8.96252e-07
9.00582e-07
8.96233e-07
8.96234e-07
8.96252e-07
8.94819e-07
8.90507e-07
8.94835e-07
8.94838e-07
8.90487e-07
8.90491e-07
8.9482e-07
8.90508e-07
8.94839e-07
8.94836e-07
8.90499e-07
8.90483e-07
8.94837e-07
8.90491e-07
8.9049e-07
8.9482e-07
8.9051e-07
8.94838e-07
8.90495e-07
8.90491e-07
8.90508e-07
8.89074e-07
8.84764e-07
8.8909e-07
8.89094e-07
8.84747e-07
8.84747e-07
8.89077e-07
8.84765e-07
8.891e-07
8.89087e-07
8.84746e-07
8.84748e-07
8.89094e-07
8.84748e-07
8.84747e-07
8.89077e-07
8.84765e-07
8.89094e-07
8.84747e-07
8.84747e-07
8.84765e-07
8.83333e-07
8.79024e-07
8.83352e-07
8.83351e-07
8.79007e-07
8.79005e-07
8.83333e-07
8.79021e-07
8.83349e-07
8.83353e-07
8.78996e-07
8.79013e-07
8.83351e-07
8.79003e-07
8.79004e-07
8.83333e-07
8.7902e-07
8.83351e-07
8.78999e-07
8.79003e-07
8.79021e-07
8.7759e-07
8.73278e-07
8.77611e-07
8.77608e-07
8.7326e-07
8.7326e-07
8.7759e-07
8.73278e-07
8.776e-07
8.77616e-07
8.73263e-07
8.7326e-07
8.77607e-07
8.7326e-07
8.7326e-07
8.77587e-07
8.73278e-07
8.77607e-07
8.73261e-07
8.73261e-07
8.73278e-07
8.71846e-07
8.67534e-07
8.71861e-07
8.71863e-07
8.67515e-07
8.67517e-07
8.71846e-07
8.67535e-07
8.71869e-07
8.71859e-07
8.67521e-07
8.67516e-07
8.71864e-07
8.67518e-07
8.67517e-07
8.71847e-07
8.67535e-07
8.71865e-07
8.67519e-07
8.67516e-07
8.67534e-07
8.66103e-07
8.61791e-07
8.6612e-07
8.6612e-07
8.61775e-07
8.61774e-07
8.66103e-07
8.61791e-07
8.66121e-07
8.66121e-07
8.61774e-07
8.61772e-07
8.6612e-07
8.61773e-07
8.61774e-07
8.66103e-07
8.61791e-07
8.6612e-07
8.61774e-07
8.61772e-07
8.61791e-07
8.6036e-07
8.56048e-07
8.60377e-07
8.60377e-07
8.56032e-07
8.56031e-07
8.6036e-07
8.56048e-07
8.60378e-07
8.60373e-07
8.56029e-07
8.56034e-07
8.60378e-07
8.56032e-07
8.5603e-07
8.60359e-07
8.56048e-07
8.60377e-07
8.56028e-07
8.5603e-07
8.56048e-07
8.54616e-07
8.50304e-07
8.54634e-07
8.54634e-07
8.50285e-07
8.50284e-07
8.54616e-07
8.50304e-07
8.54633e-07
8.54634e-07
8.50289e-07
8.50283e-07
8.54633e-07
8.50292e-07
8.50285e-07
8.54616e-07
8.50305e-07
8.54634e-07
8.50289e-07
8.50289e-07
8.50305e-07
8.48872e-07
8.44561e-07
8.48888e-07
8.48887e-07
8.44544e-07
8.44543e-07
8.48871e-07
8.44561e-07
8.48891e-07
8.48887e-07
8.44541e-07
8.44549e-07
8.48885e-07
8.44546e-07
8.44542e-07
8.48873e-07
8.4456e-07
8.48893e-07
8.4454e-07
8.44544e-07
8.44561e-07
8.43129e-07
8.38818e-07
8.43149e-07
8.43148e-07
8.38803e-07
8.38803e-07
8.4313e-07
8.38818e-07
8.43141e-07
8.43154e-07
8.38796e-07
8.38806e-07
8.43148e-07
8.38794e-07
8.38805e-07
8.43127e-07
8.38817e-07
8.43146e-07
8.38797e-07
8.38798e-07
8.38818e-07
8.37386e-07
8.33074e-07
8.37403e-07
8.37405e-07
8.33054e-07
8.33056e-07
8.37386e-07
8.33074e-07
8.37402e-07
8.37405e-07
8.33062e-07
8.33052e-07
8.37405e-07
8.33055e-07
8.33057e-07
8.37386e-07
8.33076e-07
8.37402e-07
8.3306e-07
8.33057e-07
8.33075e-07
8.31642e-07
8.27332e-07
8.31658e-07
8.3166e-07
8.27316e-07
8.27312e-07
8.31642e-07
8.27331e-07
8.31662e-07
8.31656e-07
8.27307e-07
8.27319e-07
8.31661e-07
8.27317e-07
8.27312e-07
8.31643e-07
8.27331e-07
8.3166e-07
8.27311e-07
8.27314e-07
8.27331e-07
8.25899e-07
8.21588e-07
8.25919e-07
8.25914e-07
8.21569e-07
8.21571e-07
8.25899e-07
8.21587e-07
8.25912e-07
8.25919e-07
8.21574e-07
8.21569e-07
8.25913e-07
8.21568e-07
8.21573e-07
8.25899e-07
8.21589e-07
8.25919e-07
8.21574e-07
8.21569e-07
8.21587e-07
8.20156e-07
8.15845e-07
8.20172e-07
8.20175e-07
8.1583e-07
8.15827e-07
8.20155e-07
8.15843e-07
8.20177e-07
8.2017e-07
8.15822e-07
8.15828e-07
8.20178e-07
8.15823e-07
8.15829e-07
8.20156e-07
8.15844e-07
8.2017e-07
8.15828e-07
8.15824e-07
8.15844e-07
8.14413e-07
8.101e-07
8.14432e-07
8.14429e-07
8.10081e-07
8.10083e-07
8.14412e-07
8.101e-07
8.14426e-07
8.14431e-07
8.10088e-07
8.10082e-07
8.1443e-07
8.10082e-07
8.10083e-07
8.14412e-07
8.101e-07
8.1443e-07
8.10081e-07
8.10084e-07
8.10101e-07
8.08667e-07
8.04356e-07
8.08683e-07
8.08686e-07
8.04337e-07
8.0434e-07
8.08669e-07
8.04357e-07
8.08694e-07
8.08681e-07
8.04345e-07
8.04333e-07
8.08686e-07
8.04339e-07
8.04339e-07
8.08669e-07
8.04358e-07
8.08687e-07
8.0434e-07
8.0434e-07
8.04357e-07
8.02925e-07
7.98614e-07
8.0294e-07
8.02943e-07
7.98596e-07
7.98596e-07
8.02926e-07
7.98614e-07
8.02945e-07
8.02938e-07
7.98595e-07
7.98598e-07
8.02943e-07
7.98596e-07
7.98596e-07
8.02925e-07
7.98614e-07
8.02943e-07
7.98595e-07
7.98596e-07
7.98614e-07
7.97182e-07
7.92873e-07
7.972e-07
7.972e-07
7.92857e-07
7.92853e-07
7.97182e-07
7.9287e-07
7.97197e-07
7.97203e-07
7.92844e-07
7.92861e-07
7.97199e-07
7.92852e-07
7.92853e-07
7.97182e-07
7.9287e-07
7.972e-07
7.9285e-07
7.92852e-07
7.9287e-07
7.91439e-07
7.87127e-07
7.9146e-07
7.91456e-07
7.87109e-07
7.8711e-07
7.91438e-07
7.87126e-07
7.91449e-07
7.91462e-07
7.8711e-07
7.87109e-07
7.91456e-07
7.87108e-07
7.8711e-07
7.91437e-07
7.87127e-07
7.91456e-07
7.8711e-07
7.87109e-07
7.87127e-07
7.85695e-07
7.81383e-07
7.85711e-07
7.85712e-07
7.81362e-07
7.81366e-07
7.85695e-07
7.81384e-07
7.85715e-07
7.8571e-07
7.81374e-07
7.81359e-07
7.85713e-07
7.81368e-07
7.81366e-07
7.85695e-07
7.81384e-07
7.85713e-07
7.81369e-07
7.81366e-07
7.81384e-07
7.7995e-07
7.7564e-07
7.79967e-07
7.79968e-07
7.75622e-07
7.7562e-07
7.79952e-07
7.7564e-07
7.79975e-07
7.79963e-07
7.75623e-07
7.75621e-07
7.79968e-07
7.75626e-07
7.7562e-07
7.79951e-07
7.7564e-07
7.79971e-07
7.75623e-07
7.75625e-07
7.75641e-07
7.74208e-07
7.69897e-07
7.74225e-07
7.74225e-07
7.6988e-07
7.69881e-07
7.74208e-07
7.69896e-07
7.74226e-07
7.74225e-07
7.69878e-07
7.69883e-07
7.74225e-07
7.69874e-07
7.69882e-07
7.74208e-07
7.69897e-07
7.74227e-07
7.69878e-07
7.69876e-07
7.69896e-07
7.68465e-07
7.64153e-07
7.68485e-07
7.68483e-07
7.64137e-07
7.64135e-07
7.68464e-07
7.64152e-07
7.6848e-07
7.68487e-07
7.64134e-07
7.64135e-07
7.68483e-07
7.64134e-07
7.64137e-07
7.68465e-07
7.64153e-07
7.68481e-07
7.64136e-07
7.64135e-07
7.64153e-07
7.62721e-07
7.58409e-07
7.62738e-07
7.62738e-07
7.58392e-07
7.58392e-07
7.6272e-07
7.58409e-07
7.6274e-07
7.62733e-07
7.58391e-07
7.58391e-07
7.6274e-07
7.58391e-07
7.58392e-07
7.62722e-07
7.5841e-07
7.62739e-07
7.58392e-07
7.58393e-07
7.5841e-07
7.56978e-07
7.52667e-07
7.56996e-07
7.56995e-07
7.52652e-07
7.52648e-07
7.56977e-07
7.52666e-07
7.56993e-07
7.56997e-07
7.52645e-07
7.52655e-07
7.56995e-07
7.52648e-07
7.52649e-07
7.56978e-07
7.52666e-07
7.56996e-07
7.52645e-07
7.52648e-07
7.52666e-07
7.51235e-07
7.46922e-07
7.51252e-07
7.51251e-07
7.46903e-07
7.46905e-07
7.51234e-07
7.46923e-07
7.51252e-07
7.51254e-07
7.46909e-07
7.46903e-07
7.51252e-07
7.46905e-07
7.46906e-07
7.51234e-07
7.46924e-07
7.51252e-07
7.46908e-07
7.46905e-07
7.46923e-07
7.45491e-07
7.41179e-07
7.45508e-07
7.45509e-07
7.41164e-07
7.41163e-07
7.45491e-07
7.4118e-07
7.45509e-07
7.45509e-07
7.41156e-07
7.41167e-07
7.45509e-07
7.41162e-07
7.41162e-07
7.45492e-07
7.41179e-07
7.45508e-07
7.4116e-07
7.41161e-07
7.4118e-07
7.39747e-07
7.35436e-07
7.39766e-07
7.39766e-07
7.35417e-07
7.35418e-07
7.39748e-07
7.35436e-07
7.39761e-07
7.39768e-07
7.35419e-07
7.35418e-07
7.39766e-07
7.35418e-07
7.35419e-07
7.39747e-07
7.35436e-07
7.39765e-07
7.35418e-07
7.35418e-07
7.35436e-07
7.34004e-07
7.29692e-07
7.3402e-07
7.34021e-07
7.29671e-07
7.29674e-07
7.34004e-07
7.29692e-07
7.34025e-07
7.34019e-07
7.29682e-07
7.29669e-07
7.34022e-07
7.29675e-07
7.29674e-07
7.34004e-07
7.29694e-07
7.34022e-07
7.29678e-07
7.29675e-07
7.29693e-07
7.2826e-07
7.23951e-07
7.28275e-07
7.28277e-07
7.23936e-07
7.23931e-07
7.2826e-07
7.23949e-07
7.28282e-07
7.28274e-07
7.23923e-07
7.23938e-07
7.28277e-07
7.2393e-07
7.23932e-07
7.28261e-07
7.23948e-07
7.28279e-07
7.23927e-07
7.23931e-07
7.23949e-07
7.22518e-07
7.18205e-07
7.22539e-07
7.22535e-07
7.18188e-07
7.18189e-07
7.22517e-07
7.18206e-07
7.22527e-07
7.22542e-07
7.18187e-07
7.18189e-07
7.22536e-07
7.18188e-07
7.18188e-07
7.22515e-07
7.18205e-07
7.22534e-07
7.18187e-07
7.18188e-07
7.18206e-07
7.16774e-07
7.12462e-07
7.1679e-07
7.16792e-07
7.12442e-07
7.12444e-07
7.16774e-07
7.12462e-07
7.16792e-07
7.16791e-07
7.12452e-07
7.12438e-07
7.16791e-07
7.12445e-07
7.12444e-07
7.16774e-07
7.12464e-07
7.16792e-07
7.12448e-07
7.12445e-07
7.12462e-07
7.11029e-07
7.06719e-07
7.11045e-07
7.11047e-07
7.06702e-07
7.06701e-07
7.1103e-07
7.06719e-07
7.11056e-07
7.11043e-07
7.067e-07
7.06704e-07
7.11048e-07
7.06701e-07
7.06702e-07
7.11031e-07
7.06719e-07
7.11048e-07
7.06699e-07
7.06701e-07
7.06719e-07
7.05287e-07
7.00975e-07
7.05304e-07
7.05305e-07
7.00956e-07
7.00958e-07
7.05287e-07
7.00975e-07
7.05304e-07
7.05305e-07
7.00961e-07
7.00952e-07
7.05305e-07
7.00958e-07
7.00958e-07
7.05287e-07
7.00975e-07
7.05304e-07
7.00959e-07
7.00958e-07
7.00976e-07
6.99543e-07
6.95232e-07
6.99559e-07
6.99561e-07
6.95214e-07
6.95213e-07
6.99543e-07
6.95231e-07
6.99562e-07
6.99556e-07
6.95215e-07
6.95213e-07
6.99561e-07
6.95214e-07
6.95214e-07
6.99543e-07
6.95231e-07
6.99562e-07
6.95214e-07
6.95214e-07
6.95232e-07
6.938e-07
6.89489e-07
6.93818e-07
6.93816e-07
6.89473e-07
6.89471e-07
6.938e-07
6.89488e-07
6.93818e-07
6.93816e-07
6.89468e-07
6.89476e-07
6.93818e-07
6.8947e-07
6.89471e-07
6.938e-07
6.89488e-07
6.93818e-07
6.89468e-07
6.89471e-07
6.89489e-07
6.88057e-07
6.83745e-07
6.88078e-07
6.88074e-07
6.83728e-07
6.83727e-07
6.88056e-07
6.83744e-07
6.88068e-07
6.8808e-07
6.83726e-07
6.8373e-07
6.88075e-07
6.83726e-07
6.83727e-07
6.88055e-07
6.83745e-07
6.88075e-07
6.83726e-07
6.83727e-07
6.83745e-07
6.82313e-07
6.78001e-07
6.8233e-07
6.8233e-07
6.77984e-07
6.77984e-07
6.82313e-07
6.78002e-07
6.82332e-07
6.8233e-07
6.77981e-07
6.77987e-07
6.82331e-07
6.77984e-07
6.77983e-07
6.82313e-07
6.78002e-07
6.8233e-07
6.77983e-07
6.77983e-07
6.78001e-07
6.76569e-07
6.72258e-07
6.76588e-07
6.76588e-07
6.7224e-07
6.7224e-07
6.7657e-07
6.72258e-07
6.76583e-07
6.76589e-07
6.72242e-07
6.72239e-07
6.76587e-07
6.72241e-07
6.7224e-07
6.7657e-07
6.72258e-07
6.76587e-07
6.7224e-07
6.7224e-07
6.72258e-07
6.70826e-07
6.66514e-07
6.70841e-07
6.70843e-07
6.66493e-07
6.66497e-07
6.70826e-07
6.66514e-07
6.70847e-07
6.70838e-07
6.66503e-07
6.6649e-07
6.70843e-07
6.66497e-07
6.66496e-07
6.70826e-07
6.66516e-07
6.70844e-07
6.665e-07
6.66496e-07
6.66514e-07
6.65082e-07
6.60772e-07
6.65098e-07
6.651e-07
6.60756e-07
6.60753e-07
6.65082e-07
6.60771e-07
6.65103e-07
6.65095e-07
6.60752e-07
6.60757e-07
6.651e-07
6.60753e-07
6.60753e-07
6.65083e-07
6.60771e-07
6.651e-07
6.60752e-07
6.60754e-07
6.60771e-07
6.5934e-07
6.55028e-07
6.5936e-07
6.59356e-07
6.55013e-07
6.5501e-07
6.59339e-07
6.55028e-07
6.59352e-07
6.59362e-07
6.55005e-07
6.55016e-07
6.59357e-07
6.55009e-07
6.5501e-07
6.59338e-07
6.55027e-07
6.59357e-07
6.55007e-07
6.55009e-07
6.55027e-07
6.53596e-07
6.49283e-07
6.53614e-07
6.53613e-07
6.49262e-07
6.49267e-07
6.53596e-07
6.49284e-07
6.53611e-07
6.53615e-07
6.49274e-07
6.49259e-07
6.53613e-07
6.49267e-07
6.49266e-07
6.53595e-07
6.49285e-07
6.53613e-07
6.49271e-07
6.49266e-07
6.49284e-07
6.47849e-07
6.4354e-07
6.47865e-07
6.4787e-07
6.43522e-07
6.43523e-07
6.47852e-07
6.4354e-07
6.47877e-07
6.47862e-07
6.43523e-07
6.43523e-07
6.4787e-07
6.43523e-07
6.43522e-07
6.47853e-07
6.4354e-07
6.47869e-07
6.43522e-07
6.43524e-07
6.4354e-07
6.42108e-07
6.37799e-07
6.42127e-07
6.42126e-07
6.37783e-07