/*--------------------------------*- C++ -*----------------------------------*\
| =========                 |                                                 |
| \\      /  F ield         | OpenFOAM: The Open Source CFD Toolbox           |
|  \\    /   O peration     | Version:  2206                                  |
|   \\  /    A nd           | Website:  www.openfoam.com                      |
|    \\/     M anipulation  |                                                 |
\*---------------------------------------------------------------------------*/
FoamFile
{
    version     2.0;
    format      ascii;
    arch        "LSB;label=32;scalar=64";
    class       surfaceScalarField;
    location    "16";
    object      phi;
}
// * * * * * * * * * * * * * * * * * * * * * * * * * * * * * * * * * * * * * //

dimensions      [0 3 -1 0 0 0 0];

oriented        oriented;

internalField   nonuniform List<scalar> 
83348
(
1.24088e-09
1.3606e-09
-0.00107272
-1.23398e-09
-1.17846e-09
0.00107272
-0.00107324
-1.18221e-06
-1.26287e-09
1.89889e-09
0.00107324
-2.37299e-07
1.18423e-06
2.36583e-07
8.61481e-07
-2.25931e-07
-8.61333e-07
2.24111e-07
-0.00107291
-1.17686e-06
-1.34007e-09
1.82252e-09
0.00107291
-2.34537e-07
1.17889e-06
2.3386e-07
8.61323e-07
-2.285e-07
-8.61194e-07
2.26787e-07
-0.000263883
1.21015e-06
1.17699e-06
-2.18332e-07
-2.23535e-07
0.000261938
1.44398e-09
1.51099e-09
-0.00107271
-1.31517e-09
-1.31057e-09
0.00107271
-0.00107324
-1.18215e-06
-1.55211e-09
1.73106e-09
0.00107324
-2.37226e-07
1.18432e-06
2.36688e-07
8.61584e-07
-2.25816e-07
-8.6128e-07
2.24265e-07
-0.0010729
-1.17679e-06
-1.51971e-09
1.75005e-09
0.0010729
-2.34444e-07
1.17896e-06
2.33955e-07
8.61407e-07
-2.28381e-07
-8.61126e-07
2.2692e-07
-0.000263883
1.21008e-06
1.17692e-06
-2.18237e-07
-2.23434e-07
0.000261938
1.09896e-09
9.78803e-10
-0.00107271
-9.10751e-10
-1.11336e-09
0.00107271
-0.00107324
-1.18203e-06
-1.95615e-09
1.47258e-09
0.00107324
-2.37083e-07
1.18444e-06
2.36842e-07
8.61685e-07
-2.25668e-07
-8.61128e-07
2.24423e-07
-0.0010729
-1.17683e-06
-1.07797e-09
2.04945e-09
0.0010729
-2.3451e-07
1.17885e-06
2.33805e-07
8.6121e-07
-2.28438e-07
-8.61206e-07
2.26758e-07
-0.000263882
1.21011e-06
1.17687e-06
-2.18102e-07
-2.23404e-07
0.000261937
4.66244e-10
6.19416e-10
-0.00107272
-9.07516e-10
-8.19897e-10
0.00107272
-0.00107324
-1.18251e-06
-1.42645e-10
2.37512e-09
0.00107324
-2.37714e-07
1.18409e-06
2.36366e-07
8.61263e-07
-2.2676e-07
-8.6176e-07
2.235e-07
-0.0010729
-1.17706e-06
-5.89722e-10
2.06417e-09
0.00107291
-2.34778e-07
1.17884e-06
2.33795e-07
8.6121e-07
-2.29156e-07
-8.61509e-07
2.26392e-07
-0.000263883
1.21033e-06
1.17721e-06
-2.18647e-07
-2.23791e-07
0.000261938
1.0332e-09
1.16164e-09
-0.00107272
-1.14772e-09
-1.08688e-09
0.00107272
-0.00107324
-1.18227e-06
-1.07455e-09
1.9261e-09
0.00107324
-2.37366e-07
1.18426e-06
2.36618e-07
8.61468e-07
-2.26129e-07
-8.61489e-07
2.24062e-07
-0.00107291
-1.17693e-06
-1.1391e-09
1.8765e-09
0.00107291
-2.34621e-07
1.17891e-06
2.3388e-07
8.61308e-07
-2.28712e-07
-8.61348e-07
2.26718e-07
-0.000263883
1.21022e-06
1.17706e-06
-2.18408e-07
-2.23616e-07
0.000261938
1.06302e-09
1.1608e-09
-0.00107272
-1.12879e-09
-1.10017e-09
0.00107272
-0.00107324
-1.18227e-06
-1.15295e-09
1.91536e-09
0.00107324
-2.37372e-07
1.18427e-06
2.36613e-07
8.61486e-07
-2.26099e-07
-8.61468e-07
2.24081e-07
-0.00107291
-1.17693e-06
-1.15328e-09
1.89417e-09
0.00107291
-2.34628e-07
1.17891e-06
2.33876e-07
8.61315e-07
-2.28703e-07
-8.61341e-07
2.26723e-07
-0.000263883
1.21023e-06
1.17705e-06
-2.184e-07
-2.23618e-07
0.000261938
1.07562e-09
1.16328e-09
-0.00107272
-1.12732e-09
-1.1077e-09
0.00107272
-0.00107324
-1.18226e-06
-1.16709e-09
1.91028e-09
0.00107324
-2.37371e-07
1.18427e-06
2.36614e-07
8.61489e-07
-2.26097e-07
-8.61464e-07
2.24084e-07
-0.00107291
-1.17693e-06
-1.15671e-09
1.89717e-09
0.00107291
-2.34628e-07
1.17891e-06
2.33874e-07
8.61316e-07
-2.28701e-07
-8.61339e-07
2.26725e-07
-0.000263883
1.21023e-06
1.17704e-06
-2.18397e-07
-2.23617e-07
0.000261938
1.07461e-09
1.15942e-09
-0.00107272
-1.12542e-09
-1.10707e-09
0.00107272
-0.00107324
-1.18227e-06
-1.16289e-09
1.91205e-09
0.00107324
-2.37372e-07
1.18427e-06
2.36614e-07
8.61487e-07
-2.26098e-07
-8.61466e-07
2.24082e-07
-0.00107291
-1.17693e-06
-1.15294e-09
1.89914e-09
0.00107291
-2.34629e-07
1.17891e-06
2.33874e-07
8.61316e-07
-2.28702e-07
-8.61341e-07
2.26725e-07
-0.000263883
1.21023e-06
1.17705e-06
-2.18397e-07
-2.23618e-07
0.000261938
1.07609e-09
1.16205e-09
-0.00107272
-1.12603e-09
-1.10899e-09
0.00107272
-0.00107324
-1.18226e-06
-1.16983e-09
1.91174e-09
0.00107324
-2.37372e-07
1.18427e-06
2.36615e-07
8.61489e-07
-2.26096e-07
-8.61464e-07
2.24084e-07
-0.00107291
-1.17693e-06
-1.15694e-09
1.89611e-09
0.00107291
-2.34628e-07
1.17891e-06
2.33877e-07
8.6132e-07
-2.28703e-07
-8.61341e-07
2.26728e-07
-0.000263883
1.21023e-06
1.17704e-06
-2.18395e-07
-2.23617e-07
0.000261938
1.06057e-09
1.13605e-09
-0.00107272
-1.13788e-09
-1.12052e-09
0.00107272
-0.00107324
-1.18227e-06
-1.16205e-09
1.91725e-09
0.00107324
-2.37376e-07
1.18426e-06
2.36611e-07
8.61487e-07
-2.26096e-07
-8.61465e-07
2.24083e-07
-0.00107291
-1.17693e-06
-1.13446e-09
1.88432e-09
0.00107291
-2.34627e-07
1.17891e-06
2.33877e-07
8.61315e-07
-2.2871e-07
-8.61347e-07
2.26725e-07
-0.000263883
1.21024e-06
1.17704e-06
-2.18393e-07
-2.23622e-07
0.000261938
9.85389e-10
-8.98065e-09
-0.00107271
-1.13233e-09
-1.0943e-09
0.00107272
-0.00107324
-1.18227e-06
-1.18084e-09
1.90561e-09
0.00107324
-2.37326e-07
1.18427e-06
2.36597e-07
8.61491e-07
-2.26092e-07
-8.61461e-07
2.24084e-07
-0.00107291
-1.17693e-06
-1.14482e-09
1.88908e-09
0.00107291
-2.34627e-07
1.17891e-06
2.33878e-07
8.61317e-07
-2.28709e-07
-8.61346e-07
2.26726e-07
-0.000263883
1.21023e-06
1.17704e-06
-2.18393e-07
-2.23619e-07
0.000261938
1.019e-09
1.1738e-09
-0.00107272
-1.14417e-09
-1.08078e-09
0.00107272
-0.00107324
-1.18232e-06
-1.12904e-09
2.00713e-09
0.00107324
-2.34684e-07
1.18423e-06
2.3382e-07
8.61492e-07
-2.26073e-07
-8.61465e-07
2.24063e-07
-0.00107291
-1.17693e-06
-1.15259e-09
1.89996e-09
0.00107291
-2.3463e-07
1.17891e-06
2.33876e-07
8.61317e-07
-2.2871e-07
-8.61348e-07
2.26726e-07
-0.000263883
1.21023e-06
1.17705e-06
-2.184e-07
-2.23617e-07
0.000261938
1.02236e-09
1.14832e-09
-0.00107272
-1.11867e-09
-1.08941e-09
0.00107272
-0.00107324
-1.18228e-06
-1.15211e-09
1.92711e-09
0.00107324
-2.3464e-07
1.18427e-06
2.33862e-07
8.61485e-07
-2.26067e-07
-8.61465e-07
2.24061e-07
-0.00107291
-1.17693e-06
-1.15731e-09
1.9018e-09
0.00107291
-2.34629e-07
1.17891e-06
2.33876e-07
8.61318e-07
-2.28709e-07
-8.61346e-07
2.26727e-07
-0.000263884
1.21023e-06
1.17705e-06
-2.18399e-07
-2.23616e-07
0.000261938
1.04964e-09
1.14767e-09
-0.00107272
-1.11614e-09
-1.10446e-09
0.00107272
-0.00107324
-1.18228e-06
-1.15823e-09
1.92162e-09
0.00107324
-2.34641e-07
1.18427e-06
2.33865e-07
8.61487e-07
-2.26069e-07
-8.61466e-07
2.24062e-07
-0.00107291
-1.17693e-06
-1.1571e-09
1.90245e-09
0.00107291
-2.34629e-07
1.17891e-06
2.33876e-07
8.61318e-07
-2.28709e-07
-8.61346e-07
2.26727e-07
-0.000263884
1.21023e-06
1.17705e-06
-2.18398e-07
-2.23618e-07
0.000261938
1.05993e-09
1.14444e-09
-0.00107272
-1.11547e-09
-1.10902e-09
0.00107272
-0.00107324
-1.18227e-06
-1.16206e-09
1.91642e-09
0.00107324
-2.34639e-07
1.18428e-06
2.33868e-07
8.61489e-07
-2.26072e-07
-8.61466e-07
2.24064e-07
-0.00107291
-1.17693e-06
-1.16085e-09
1.89598e-09
0.00107291
-2.34628e-07
1.17892e-06
2.33878e-07
8.61319e-07
-2.2871e-07
-8.61346e-07
2.2673e-07
-0.000263884
1.21023e-06
1.17705e-06
-2.18398e-07
-2.23619e-07
0.000261938
1.06429e-09
1.1508e-09
-0.00107272
-1.11681e-09
-1.11102e-09
0.00107272
-0.00107324
-1.18227e-06
-1.17058e-09
1.9126e-09
0.00107324
-2.34636e-07
1.18428e-06
2.3387e-07
8.6149e-07
-2.26065e-07
-8.61461e-07
2.24064e-07
-0.00107291
-1.17693e-06
-1.16885e-09
1.89697e-09
0.00107291
-2.34626e-07
1.17892e-06
2.33879e-07
8.61321e-07
-2.28703e-07
-8.61341e-07
2.2673e-07
-0.000263884
1.21023e-06
1.17704e-06
-2.18395e-07
-2.23616e-07
0.000261938
1.06466e-09
1.14824e-09
-0.00107272
-1.11789e-09
-1.11378e-09
0.00107272
-0.00107324
-1.18227e-06
-1.16547e-09
1.91467e-09
0.00107324
-2.34632e-07
1.18427e-06
2.33862e-07
8.61476e-07
-2.26057e-07
-8.61454e-07
2.24049e-07
-0.00107291
-1.17693e-06
-1.16165e-09
1.90039e-09
0.00107291
-2.34622e-07
1.17891e-06
2.33872e-07
8.61306e-07
-2.28695e-07
-8.61335e-07
2.26715e-07
-0.000263884
1.21022e-06
1.17704e-06
-2.18392e-07
-2.23613e-07
0.000261938
1.12488e-09
1.2127e-09
-0.00107272
-1.14226e-09
-1.13601e-09
-0.00107324
-1.18224e-06
-1.22975e-09
1.8994e-09
-2.3459e-07
1.18425e-06
2.33832e-07
8.61459e-07
-2.25986e-07
-8.61388e-07
2.24029e-07
-0.00107291
-1.17689e-06
-1.22694e-09
1.88514e-09
-2.3458e-07
1.17889e-06
2.33843e-07
8.61288e-07
-2.28625e-07
-8.61268e-07
2.26696e-07
-0.000263884
1.21019e-06
1.17701e-06
-2.18361e-07
-2.23581e-07
0.000261938
-1.22007e-06
-1.18163e-06
0.000263899
-0.000261943
2.17881e-07
2.28096e-07
0.00107246
-1.14847e-09
-0.00107246
1.95449e-09
-1.21807e-06
2.41859e-07
-2.42634e-07
-8.63949e-07
2.21319e-07
-2.23211e-07
8.64024e-07
1.22281e-06
0.00107291
-1.14519e-09
-0.00107291
2.01034e-09
-1.22085e-06
2.41893e-07
-2.42721e-07
-8.69555e-07
2.2677e-07
-2.28688e-07
8.69608e-07
-1.18423e-06
0.000263923
-0.000261961
2.20575e-07
2.25372e-07
0.00107352
-1.31478e-09
-0.00107352
1.86126e-09
-1.17963e-06
2.36619e-07
-2.37331e-07
-8.64034e-07
2.26836e-07
-2.28653e-07
8.64217e-07
1.2175e-06
0.00107258
-1.17109e-09
-0.00107258
1.96204e-09
-1.21551e-06
2.41906e-07
-2.42691e-07
-8.64011e-07
2.26751e-07
-2.28609e-07
8.64089e-07
-1.23688e-09
1.8998e-09
-1.18222e-06
2.36566e-07
-2.37312e-07
-8.61367e-07
2.24062e-07
8.61452e-07
-2.25982e-07
1.21216e-06
0.00107238
-1.13617e-09
-0.00107238
1.94969e-09
-1.21017e-06
2.36428e-07
-2.37188e-07
-8.61362e-07
2.23973e-07
-2.25893e-07
8.61395e-07
-1.17889e-06
0.000263878
-0.000261925
2.18044e-07
2.25365e-07
-1.28426e-09
-0.00107291
1.84643e-09
-1.17687e-06
2.33848e-07
-2.34558e-07
-8.61171e-07
2.26734e-07
8.61364e-07
-2.28564e-07
1.17898e-06
0.00107342
-1.27576e-09
-0.00107342
1.89715e-09
-1.177e-06
2.33887e-07
-2.34628e-07
-8.61454e-07
2.26817e-07
-2.28641e-07
8.61608e-07
-0.000261938
2.20335e-07
2.25587e-07
1.21806e-06
1.17962e-06
-2.15853e-07
-2.26033e-07
0.000261943
-1.22015e-06
-1.18172e-06
0.000263899
-0.000261943
2.1798e-07
2.28188e-07
1.92306e-09
0.00107246
-2.42613e-07
1.22008e-06
2.41871e-07
8.64038e-07
-2.23167e-07
-8.63918e-07
2.21355e-07
-1.22085e-06
-1.21389e-09
2.02784e-09
0.0010729
-2.42718e-07
1.22546e-06
2.44617e-07
8.69625e-07
-2.28643e-07
-8.69525e-07
2.26809e-07
0.00107246
-1.43047e-09
-0.00107246
1.81288e-09
-1.21801e-06
2.41959e-07
-2.42562e-07
-8.63893e-07
2.21465e-07
-2.23088e-07
8.64111e-07
1.22289e-06
0.00107291
-1.42935e-09
-0.0010729
1.83696e-09
-1.22342e-06
2.41992e-07
-2.45338e-07
-8.69495e-07
2.26905e-07
-2.28549e-07
8.6968e-07
-2.18562e-07
-2.23372e-07
0.000261961
-1.18429e-06
0.000263922
-0.000261961
2.2067e-07
2.25472e-07
1.83206e-09
0.00107352
-2.3731e-07
1.18164e-06
2.36629e-07
8.64227e-07
-2.28611e-07
-8.64011e-07
2.26865e-07
-1.2155e-06
-1.24357e-09
1.9363e-09
0.00107258
-2.42668e-07
1.2175e-06
2.4192e-07
8.64099e-07
-2.2857e-07
-8.63988e-07
2.26781e-07
0.00107352
-1.56445e-09
-0.00107352
1.70209e-09
-1.17957e-06
2.36721e-07
-2.37256e-07
-8.63984e-07
2.26977e-07
-2.28535e-07
8.64295e-07
1.21758e-06
0.00107258
-1.44102e-09
-0.00107258
1.80377e-09
-1.21545e-06
2.4201e-07
-2.42615e-07
-8.63957e-07
2.26899e-07
-2.28489e-07
8.64175e-07
-1.19399e-09
1.91074e-09
0.00107238
-2.3716e-07
1.21217e-06
2.36439e-07
8.61423e-07
-2.25843e-07
2.24017e-07
-8.61327e-07
-1.56624e-09
-0.00107324
1.73472e-09
-1.18216e-06
2.36647e-07
-2.37227e-07
-8.61291e-07
2.24221e-07
8.61524e-07
-2.25815e-07
1.21223e-06
0.00107238
-1.4483e-09
-0.00107238
1.80199e-09
-1.21011e-06
2.3652e-07
-2.37114e-07
-8.61291e-07
2.24122e-07
-2.25752e-07
8.61472e-07
-2.15999e-07
-2.23319e-07
0.000261925
-1.17897e-06
0.000263878
-0.000261925
2.18143e-07
2.2546e-07
-1.35769e-09
1.87021e-09
0.00107342
-2.34609e-07
1.17899e-06
2.33899e-07
8.61624e-07
-2.28594e-07
2.26855e-07
-8.61424e-07
-1.55251e-09
-0.0010729
1.7011e-09
-1.17681e-06
2.33951e-07
-2.34483e-07
-8.61119e-07
2.26879e-07
8.61446e-07
-2.28444e-07
1.17907e-06
0.00107342
-1.53266e-09
-0.00107342
1.7232e-09
-1.17693e-06
2.33994e-07
-2.34547e-07
-8.61402e-07
2.26961e-07
-2.2852e-07
8.61686e-07
-0.000261938
2.20435e-07
2.25673e-07
1.21799e-06
1.17954e-06
-2.15742e-07
-2.25931e-07
0.000261943
-1.22029e-06
-1.18189e-06
0.000263898
-0.000261942
2.18202e-07
2.28392e-07
1.8687e-09
0.00107246
-2.42524e-07
1.22014e-06
2.41963e-07
8.6413e-07
-2.23046e-07
-8.63841e-07
2.21492e-07
-1.22078e-06
-1.43246e-09
1.8386e-09
0.0010729
-2.42637e-07
1.22555e-06
2.44727e-07
8.69717e-07
-2.28549e-07
-8.69466e-07
2.26944e-07
0.00107246
-1.86854e-09
-0.00107246
1.70513e-09
-1.21787e-06
2.42117e-07
-2.42411e-07
-8.63688e-07
2.21692e-07
-2.22901e-07
8.64329e-07
1.22571e-06
0.0010729
-1.89028e-09
-0.0010729
1.47945e-09
-1.22333e-06
2.44893e-07
-2.45244e-07
-8.69337e-07
2.27116e-07
-2.2845e-07
8.69901e-07
-2.18487e-07
-2.23299e-07
0.000261961
-1.18446e-06
0.000263924
-0.000261961
2.20873e-07
2.25653e-07
1.73138e-09
0.00107352
-2.37214e-07
1.18172e-06
2.3673e-07
8.64305e-07
-2.28497e-07
-8.63948e-07
2.26993e-07
-1.21542e-06
-1.41441e-09
1.84742e-09
0.00107258
-2.42576e-07
1.21757e-06
2.42017e-07
8.64186e-07
-2.28449e-07
-8.63916e-07
2.26917e-07
0.00107351
-1.8777e-09
-0.00107351
1.45761e-09
-1.1794e-06
2.36904e-07
-2.37083e-07
-8.63796e-07
2.27185e-07
-2.28364e-07
8.64494e-07
1.21774e-06
0.00107258
-1.77777e-09
-0.00107258
1.60937e-09
-1.21529e-06
2.42182e-07
-2.42453e-07
-8.63772e-07
2.27106e-07
-2.28321e-07
8.64371e-07
-1.44526e-09
1.83779e-09
0.00107238
-2.37067e-07
1.21224e-06
2.3655e-07
8.6152e-07
-2.25728e-07
2.24162e-07
-8.61271e-07
-2.13962e-09
-0.00107324
1.43528e-09
-1.18206e-06
2.36834e-07
-2.37142e-07
-8.6116e-07
2.24449e-07
8.61785e-07
-2.25703e-07
1.2124e-06
0.00107237
-2.02521e-09
-0.00107238
1.63965e-09
-1.20996e-06
2.36717e-07
-2.36946e-07
-8.61124e-07
2.24369e-07
-2.2559e-07
8.6174e-07
-2.1589e-07
-2.23213e-07
0.000261925
-1.17912e-06
0.000263877
-0.000261924
2.18348e-07
2.25675e-07
-1.50803e-09
1.75313e-09
0.00107342
-2.34513e-07
1.17906e-06
2.34e-07
8.61706e-07
-2.28478e-07
2.26986e-07
-8.61359e-07
-1.92638e-09
-0.0010729
1.54251e-09
-1.17666e-06
2.34115e-07
-2.34326e-07
-8.60921e-07
2.27095e-07
8.61655e-07
-2.28265e-07
1.17926e-06
0.00107341
-1.85601e-09
-0.00107342
1.39601e-09
-1.17677e-06
2.34201e-07
-2.34361e-07
-8.61214e-07
2.27175e-07
-2.28349e-07
8.61892e-07
-0.000261937
2.20676e-07
2.25893e-07
1.21804e-06
1.17956e-06
-2.157e-07
-2.25911e-07
0.000261942
-1.21991e-06
-1.18148e-06
0.000263899
-0.000261943
2.17602e-07
2.27815e-07
2.30935e-09
0.00107246
-2.42603e-07
1.22001e-06
2.41796e-07
8.63959e-07
-2.23089e-07
-8.63904e-07
2.21346e-07
-1.22326e-06
-1.47277e-09
1.4243e-09
0.0010729
-2.45175e-07
1.22573e-06
2.4493e-07
8.69661e-07
-2.28459e-07
-8.69446e-07
2.27021e-07
0.00107246
-1.88914e-12
-0.00107246
2.39288e-09
-1.21838e-06
2.41651e-07
-2.43038e-07
-8.64433e-07
2.20698e-07
-2.2404e-07
8.63755e-07
1.22519e-06
0.0010729
1.14545e-10
-0.0010729
2.62698e-09
-1.22385e-06
2.44254e-07
-2.4589e-07
-8.70038e-07
2.26044e-07
-2.29558e-07
8.69322e-07
-2.18357e-07
-2.23095e-07
0.00026196
-1.18396e-06
0.000263925
-0.000261961
2.20204e-07
2.24945e-07
1.93107e-09
0.00107351
-2.37261e-07
1.18162e-06
2.36598e-07
8.64095e-07
-2.28566e-07
-8.64039e-07
2.26815e-07
-1.21545e-06
-9.40988e-10
2.10058e-09
0.00107257
-2.42632e-07
1.21747e-06
2.41874e-07
8.63988e-07
-2.28514e-07
-8.64003e-07
2.2675e-07
0.00107352
-1.59914e-10
-0.00107352
2.26417e-09
-1.17993e-06
2.36419e-07
-2.37719e-07
-8.64522e-07
2.26215e-07
-2.29489e-07
8.63951e-07
1.21734e-06
0.00107258
8.23382e-12
-0.00107258
2.39271e-09
-1.21581e-06
2.41704e-07
-2.43082e-07
-8.64507e-07
2.2612e-07
-2.29453e-07
8.63814e-07
-1.48434e-09
2.20125e-09
0.00107237
-2.37116e-07
1.21212e-06
2.3639e-07
8.61541e-07
-2.25662e-07
2.24188e-07
-8.61178e-07
8.72797e-11
-0.00107324
2.48375e-09
-1.18259e-06
2.36193e-07
-2.37807e-07
-8.61891e-07
2.23383e-07
8.61111e-07
-2.26726e-07
1.212e-06
0.00107238
7.12893e-11
-0.00107238
2.41598e-09
-1.21049e-06
2.36216e-07
-2.37603e-07
-8.61898e-07
2.23305e-07
-2.26704e-07
8.61058e-07
-2.15867e-07
-2.23179e-07
0.000261924
-1.17873e-06
0.000263878
-0.000261925
2.17757e-07
2.25091e-07
-9.68756e-10
1.79706e-09
0.00107341
-2.34511e-07
1.17906e-06
2.33931e-07
8.61493e-07
-2.28541e-07
2.26811e-07
-8.61447e-07
-1.43306e-10
-0.0010729
2.28141e-09
-1.17718e-06
2.3364e-07
-2.34956e-07
-8.61653e-07
2.26116e-07
8.61104e-07
-2.29395e-07
1.1788e-06
0.00107342
-1.13204e-10
-0.00107342
2.31658e-09
-1.17731e-06
2.33681e-07
-2.35008e-07
-8.61948e-07
2.26188e-07
-2.29487e-07
8.6134e-07
-0.000261938
2.20011e-07
2.25313e-07
1.21824e-06
1.17981e-06
-2.16122e-07
-2.26296e-07
0.000261943
-1.2201e-06
-1.18166e-06
0.000263899
-0.000261943
2.17879e-07
2.28096e-07
2.11074e-09
0.00107246
-2.42847e-07
1.22003e-06
2.41817e-07
8.63915e-07
-2.23835e-07
-8.64245e-07
2.20948e-07
-1.22381e-06
-2.14019e-10
2.55482e-09
0.0010729
-2.45845e-07
1.22529e-06
2.44387e-07
8.69466e-07
-2.29441e-07
-8.69884e-07
2.26284e-07
0.00107246
-9.78521e-10
-0.00107246
1.94526e-09
-1.21812e-06
2.41899e-07
-2.42695e-07
-8.64082e-07
2.21272e-07
-2.23398e-07
8.64016e-07
1.22549e-06
0.0010729
-9.5312e-10
-0.0010729
2.097e-09
-1.22356e-06
2.44658e-07
-2.45503e-07
-8.69698e-07
2.26727e-07
-2.28884e-07
8.69595e-07
-2.19009e-07
-2.23826e-07
0.000261961
-1.18426e-06
0.000263925
-0.000261962
2.2063e-07
2.25397e-07
2.08227e-09
0.00107352
-2.37548e-07
1.18158e-06
2.36565e-07
8.64111e-07
-2.29268e-07
-8.6433e-07
2.26469e-07
-1.21568e-06
-4.85494e-10
2.18567e-09
0.00107258
-2.42906e-07
1.21745e-06
2.41857e-07
8.63983e-07
-2.29239e-07
-8.64314e-07
2.2638e-07
0.00107352
-1.16566e-09
-0.00107352
1.90476e-09
-1.17969e-06
2.36649e-07
-2.374e-07
-8.64165e-07
2.2679e-07
-2.28837e-07
8.64209e-07
1.21752e-06
0.00107258
-1.03161e-09
-0.00107258
1.98789e-09
-1.21557e-06
2.41941e-07
-2.42757e-07
-8.64138e-07
2.2671e-07
-2.28792e-07
8.64086e-07
-3.00127e-10
2.10874e-09
0.00107238
-2.3739e-07
1.21213e-06
2.36396e-07
8.61243e-07
-2.26605e-07
2.23512e-07
-8.61728e-07
-1.00586e-09
-0.00107324
1.94814e-09
-1.18227e-06
2.3662e-07
-2.37371e-07
-8.61509e-07
2.24029e-07
8.61449e-07
-2.26184e-07
1.21219e-06
0.00107238
-9.34819e-10
-0.00107238
1.95081e-09
-1.21022e-06
2.36467e-07
-2.37244e-07
-8.61493e-07
2.23928e-07
-2.26093e-07
8.61397e-07
-2.1627e-07
-2.23581e-07
0.000261925
-1.17892e-06
0.000263878
-0.000261925
2.18047e-07
2.25361e-07
-6.26453e-10
2.15576e-09
0.00107342
-2.34865e-07
1.17891e-06
2.33814e-07
8.61515e-07
-2.29256e-07
2.26459e-07
-8.61739e-07
-1.12634e-09
-0.00107291
1.8626e-09
-1.17693e-06
2.33887e-07
-2.34618e-07
-8.61305e-07
2.26686e-07
8.61354e-07
-2.28752e-07
1.179e-06
0.00107342
-1.12428e-09
-0.00107342
1.94909e-09
-1.17706e-06
2.33915e-07
-2.34704e-07
-8.61583e-07
2.26773e-07
-2.28824e-07
8.61601e-07
-0.000261938
2.2034e-07
2.25584e-07
1.21812e-06
1.17969e-06
-2.15932e-07
-2.26109e-07
0.000261943
-1.2201e-06
-1.18166e-06
0.000263899
-0.000261943
2.17885e-07
2.28096e-07
1.96979e-09
0.00107246
-2.42698e-07
1.2201e-06
2.41894e-07
8.64025e-07
-2.23381e-07
-8.6407e-07
2.21283e-07
-1.22354e-06
-1.01397e-09
2.06054e-09
0.0010729
-2.45488e-07
1.2255e-06
2.44664e-07
8.69611e-07
-2.28853e-07
-8.69682e-07
2.26747e-07
0.00107246
-1.03855e-09
-0.00107246
2.00054e-09
-1.21813e-06
2.41888e-07
-2.42706e-07
-8.64067e-07
2.21292e-07
-2.23365e-07
8.64031e-07
1.2255e-06
0.0010729
-1.04669e-09
-0.0010729
2.03176e-09
-1.22354e-06
2.44666e-07
-2.45486e-07
-8.69666e-07
2.26758e-07
-2.28833e-07
8.69621e-07
-2.18655e-07
-2.23431e-07
0.000261962
-1.18427e-06
0.000263925
-0.000261962
2.20636e-07
2.25408e-07
1.90516e-09
0.00107352
-2.37401e-07
1.18166e-06
2.36646e-07
8.64212e-07
-2.28821e-07
-8.64164e-07
2.26797e-07
-1.21556e-06
-1.05218e-09
1.99819e-09
0.00107258
-2.42757e-07
1.21752e-06
2.41938e-07
8.64089e-07
-2.28779e-07
-8.64138e-07
2.26716e-07
0.00107352
-1.18684e-09
-0.00107352
1.89597e-09
-1.17969e-06
2.36648e-07
-2.37402e-07
-8.64155e-07
2.26805e-07
-2.2881e-07
8.64218e-07
1.21752e-06
0.00107258
-1.05881e-09
-0.00107258
1.99598e-09
-1.21556e-06
2.41937e-07
-2.42761e-07
-8.64129e-07
2.26725e-07
-2.28766e-07
8.64096e-07
-9.93105e-10
1.9673e-09
0.00107238
-2.37249e-07
1.21218e-06
2.36461e-07
8.61411e-07
-2.26056e-07
2.23954e-07
-8.61481e-07
-1.15222e-09
-0.00107324
1.91412e-09
-1.18226e-06
2.36615e-07
-2.37371e-07
-8.61468e-07
2.24083e-07
8.61483e-07
-2.26098e-07
1.21218e-06
0.00107238
-1.04197e-09
-0.00107238
2.00206e-09
-1.21023e-06
2.36454e-07
-2.37258e-07
-8.61468e-07
2.23968e-07
-2.26033e-07
8.61419e-07
-2.16075e-07
-2.23398e-07
0.000261925
-1.17892e-06
0.000263878
-0.000261925
2.18048e-07
2.25366e-07
-1.15364e-09
1.9409e-09
0.00107342
-2.347e-07
1.17901e-06
2.33917e-07
8.6161e-07
-2.28804e-07
2.26786e-07
-8.61577e-07
-1.16411e-09
-0.00107291
1.88315e-09
-1.17693e-06
2.33879e-07
-2.34626e-07
-8.61291e-07
2.26704e-07
8.61366e-07
-2.28721e-07
1.17901e-06
0.00107342
-1.14762e-09
-0.00107342
1.92063e-09
-1.17705e-06
2.33922e-07
-2.34694e-07
-8.61574e-07
2.26787e-07
-2.28797e-07
8.61608e-07
-0.000261938
2.20351e-07
2.25584e-07
1.21813e-06
1.17969e-06
-2.15927e-07
-2.26111e-07
0.000261943
-1.2201e-06
-1.18166e-06
0.000263899
-0.000261943
2.17888e-07
2.28096e-07
2.00889e-09
0.00107246
-2.42707e-07
1.2201e-06
2.41886e-07
8.64035e-07
-2.23369e-07
-8.6406e-07
2.21292e-07
-1.22354e-06
-1.05677e-09
2.02597e-09
0.0010729
-2.45485e-07
1.2255e-06
2.44666e-07
8.69624e-07
-2.28836e-07
-8.69666e-07
2.26757e-07
0.00107246
-1.0525e-09
-0.00107246
2.00696e-09
-1.21813e-06
2.41887e-07
-2.42707e-07
-8.64063e-07
2.21295e-07
-2.23363e-07
8.64034e-07
1.22551e-06
0.0010729
-1.05987e-09
-0.0010729
2.01915e-09
-1.22354e-06
2.44668e-07
-2.45484e-07
-8.69663e-07
2.2676e-07
-2.28831e-07
8.69623e-07
-2.18652e-07
-2.23425e-07
0.000261962
-1.18427e-06
0.000263925
-0.000261962
2.20637e-07
2.2541e-07
1.89853e-09
0.00107352
-2.37401e-07
1.18166e-06
2.36647e-07
8.64216e-07
-2.28815e-07
-8.6416e-07
2.268e-07
-1.21556e-06
-1.05569e-09
2.0037e-09
0.00107258
-2.42761e-07
1.21752e-06
2.41936e-07
8.64095e-07
-2.28772e-07
-8.64133e-07
2.2672e-07
0.00107352
-1.18727e-09
-0.00107352
1.88633e-09
-1.17968e-06
2.36651e-07
-2.37399e-07
-8.64154e-07
2.26806e-07
-2.2881e-07
8.64219e-07
1.21752e-06
0.00107258
-1.05837e-09
-0.00107258
1.99477e-09
-1.21556e-06
2.41937e-07
-2.42759e-07
-8.64129e-07
2.26724e-07
-2.28766e-07
8.64095e-07
-1.05641e-09
1.99962e-09
0.00107238
-2.37259e-07
1.21218e-06
2.36453e-07
8.61425e-07
-2.26032e-07
2.23972e-07
-8.61465e-07
-1.17265e-09
-0.00107324
1.90893e-09
-1.18226e-06
2.36616e-07
-2.37371e-07
-8.61463e-07
2.24085e-07
8.61486e-07
-2.26095e-07
1.21218e-06
0.00107238
-1.06232e-09
-0.00107238
2.00507e-09
-1.21023e-06
2.36453e-07
-2.37258e-07
-8.61464e-07
2.23971e-07
-2.26029e-07
8.61422e-07
-2.16074e-07
-2.23396e-07
0.000261925
-1.17892e-06
0.000263878
-0.000261925
2.18048e-07
2.25367e-07
-1.16081e-09
1.91765e-09
0.00107342
-2.34693e-07
1.17902e-06
2.33924e-07
8.61614e-07
-2.28797e-07
2.2679e-07
-8.61572e-07
-1.16926e-09
-0.00107291
1.88845e-09
-1.17693e-06
2.33878e-07
-2.34626e-07
-8.61289e-07
2.26705e-07
8.61368e-07
-2.28719e-07
1.17902e-06
0.00107342
-1.15086e-09
-0.00107342
1.90682e-09
-1.17705e-06
2.33926e-07
-2.3469e-07
-8.61573e-07
2.26787e-07
-2.28797e-07
8.61609e-07
-0.000261938
2.20354e-07
2.25584e-07
1.21813e-06
1.17968e-06
-2.15924e-07
-2.2611e-07
0.000261943
-1.2201e-06
-1.18167e-06
0.000263899
-0.000261943
2.1789e-07
2.28095e-07
2.01171e-09
0.00107246
-2.42707e-07
1.2201e-06
2.41886e-07
8.64038e-07
-2.23367e-07
-8.64058e-07
2.21295e-07
-1.22353e-06
-1.06685e-09
2.0156e-09
0.0010729
-2.45483e-07
1.22551e-06
2.44668e-07
8.69626e-07
-2.28835e-07
-8.69664e-07
2.26759e-07
0.00107246
-1.05015e-09
-0.00107246
2.00885e-09
-1.21813e-06
2.41886e-07
-2.42707e-07
-8.64064e-07
2.21299e-07
-2.23366e-07
8.64035e-07
1.22551e-06
0.0010729
-1.05841e-09
-0.0010729
2.02062e-09
-1.22354e-06
2.44667e-07
-2.45485e-07
-8.69664e-07
2.2676e-07
-2.28832e-07
8.69622e-07
-2.1865e-07
-2.23423e-07
0.000261962
-1.18427e-06
0.000263925
-0.000261962
2.20638e-07
2.25409e-07
1.88947e-09
0.00107352
-2.37398e-07
1.18166e-06
2.36649e-07
8.64217e-07
-2.28814e-07
-8.64159e-07
2.268e-07
-1.21556e-06
-1.05797e-09
2.0029e-09
0.00107258
-2.4276e-07
1.21752e-06
2.41936e-07
8.64095e-07
-2.28771e-07
-8.64132e-07
2.2672e-07
0.00107352
-1.18339e-09
-0.00107352
1.88508e-09
-1.17968e-06
2.36651e-07
-2.37398e-07
-8.64155e-07
2.26805e-07
-2.2881e-07
8.64218e-07
1.21752e-06
0.00107258
-1.05596e-09
-0.00107258
1.99761e-09
-1.21556e-06
2.41937e-07
-2.4276e-07
-8.64129e-07
2.26725e-07
-2.28766e-07
8.64095e-07
-1.06914e-09
2.00183e-09
0.00107238
-2.37259e-07
1.21218e-06
2.36453e-07
8.61427e-07
-2.26029e-07
2.23974e-07
-8.61462e-07
-1.16802e-09
-0.00107324
1.91048e-09
-1.18226e-06
2.36616e-07
-2.37372e-07
-8.61465e-07
2.24084e-07
8.61485e-07
-2.26097e-07
1.21218e-06
0.00107238
-1.0581e-09
-0.00107238
2.00877e-09
-1.21023e-06
2.36452e-07
-2.37259e-07
-8.61465e-07
2.23971e-07
-2.2603e-07
8.61421e-07
-2.16075e-07
-2.23394e-07
0.000261925
-1.17892e-06
0.000263878
-0.000261925
2.18048e-07
2.25367e-07
-1.16112e-09
1.90848e-09
0.00107342
-2.3469e-07
1.17902e-06
2.33926e-07
8.61614e-07
-2.28797e-07
2.26789e-07
-8.61572e-07
-1.16623e-09
-0.00107291
1.89078e-09
-1.17693e-06
2.33878e-07
-2.34627e-07
-8.6129e-07
2.26705e-07
8.61367e-07
-2.2872e-07
1.17902e-06
0.00107342
-1.14508e-09
-0.00107342
1.90691e-09
-1.17705e-06
2.33926e-07
-2.34689e-07
-8.61575e-07
2.26786e-07
-2.28798e-07
8.61607e-07
-0.000261938
2.20354e-07
2.25583e-07
1.21813e-06
1.17968e-06
-2.15927e-07
-2.26111e-07
0.000261943
-1.2201e-06
-1.18167e-06
0.000263899
-0.000261943
2.17894e-07
2.28094e-07
2.0131e-09
0.00107246
-2.42708e-07
1.22009e-06
2.41885e-07
8.64039e-07
-2.23371e-07
-8.64059e-07
2.21299e-07
-1.22354e-06
-1.06005e-09
2.01828e-09
0.0010729
-2.45484e-07
1.22551e-06
2.44668e-07
8.69624e-07
-2.28836e-07
-8.69665e-07
2.26758e-07
0.00107246
-1.05602e-09
-0.00107246
2.00754e-09
-1.21813e-06
2.41886e-07
-2.42706e-07
-8.64065e-07
2.21306e-07
-2.2337e-07
8.64038e-07
1.22551e-06
0.0010729
-1.06099e-09
-0.0010729
2.01982e-09
-1.22353e-06
2.44666e-07
-2.45483e-07
-8.69661e-07
2.26758e-07
-2.28828e-07
8.69622e-07
-2.18653e-07
-2.23424e-07
0.000261962
-1.18427e-06
0.000263925
-0.000261962
2.20637e-07
2.2541e-07
1.8889e-09
0.00107352
-2.37398e-07
1.18166e-06
2.3665e-07
8.64216e-07
-2.28815e-07
-8.6416e-07
2.268e-07
-1.21556e-06
-1.05373e-09
2.00529e-09
0.00107258
-2.42761e-07
1.21752e-06
2.41935e-07
8.64094e-07
-2.28772e-07
-8.64133e-07
2.2672e-07
0.00107352
-1.18731e-09
-0.00107352
1.88346e-09
-1.17968e-06
2.36652e-07
-2.37398e-07
-8.64154e-07
2.26805e-07
-2.28809e-07
8.64218e-07
1.21752e-06
0.00107258
-1.06088e-09
-0.00107258
1.99407e-09
-1.21556e-06
2.41938e-07
-2.42759e-07
-8.64129e-07
2.26725e-07
-2.28765e-07
8.64096e-07
-1.06712e-09
2.00278e-09
0.00107238
-2.3726e-07
1.21218e-06
2.36453e-07
8.61427e-07
-2.2603e-07
2.23974e-07
-8.61463e-07
-1.17791e-09
-0.00107324
1.9087e-09
-1.18226e-06
2.36616e-07
-2.3737e-07
-8.61462e-07
2.24086e-07
8.61487e-07
-2.26094e-07
1.21218e-06
0.00107238
-1.07025e-09
-0.00107238
2.00362e-09
-1.21023e-06
2.36454e-07
-2.37257e-07
-8.61462e-07
2.23973e-07
-2.26027e-07
8.61424e-07
-2.16075e-07
-2.23395e-07
0.000261925
-1.17892e-06
0.000263878
-0.000261925
2.18049e-07
2.25368e-07
-1.15853e-09
1.90696e-09
0.00107342
-2.3469e-07
1.17902e-06
2.33926e-07
8.61614e-07
-2.28798e-07
2.26789e-07
-8.61573e-07
-1.17509e-09
-0.00107291
1.88881e-09
-1.17693e-06
2.33879e-07
-2.34626e-07
-8.61289e-07
2.26709e-07
8.61371e-07
-2.2872e-07
1.17902e-06
0.00107342
-1.1561e-09
-0.00107342
1.9021e-09
-1.17704e-06
2.33927e-07
-2.34688e-07
-8.61572e-07
2.26787e-07
-2.28796e-07
8.61609e-07
-0.000261938
2.20356e-07
2.25585e-07
1.21813e-06
1.17968e-06
-2.1593e-07
-2.2611e-07
0.000261943
-1.2201e-06
-1.18167e-06
0.000263899
-0.000261943
2.179e-07
2.28093e-07
2.01141e-09
0.00107246
-2.42708e-07
1.2201e-06
2.41885e-07
8.64041e-07
-2.23378e-07
-8.64061e-07
2.21307e-07
-1.22353e-06
-1.06842e-09
2.01264e-09
0.0010729
-2.45482e-07
1.22551e-06
2.44669e-07
8.69626e-07
-2.28833e-07
-8.69663e-07
2.26759e-07
0.00107246
-1.05408e-09
-0.00107246
1.99571e-09
-1.21812e-06
2.4189e-07
-2.42702e-07
-8.64063e-07
2.21321e-07
-2.23372e-07
8.64044e-07
1.22551e-06
0.0010729
-1.03006e-09
-0.0010729
2.03831e-09
-1.22353e-06
2.44668e-07
-2.45484e-07
-8.69665e-07
2.26749e-07
-2.28833e-07
8.69615e-07
-2.1865e-07
-2.23422e-07
0.000261962
-1.18426e-06
0.000263925
-0.000261962
2.20631e-07
2.2541e-07
1.8871e-09
0.00107352
-2.37399e-07
1.18167e-06
2.36651e-07
8.64216e-07
-2.28814e-07
-8.64159e-07
2.26799e-07
-1.21556e-06
-1.05718e-09
2.00197e-09
0.00107258
-2.42759e-07
1.21752e-06
2.41937e-07
8.64095e-07
-2.28771e-07
-8.64132e-07
2.26721e-07
0.00107352
-1.16973e-09
-0.00107352
1.87819e-09
-1.17968e-06
2.36654e-07
-2.37397e-07
-8.64156e-07
2.26798e-07
-2.2881e-07
8.64212e-07
1.21752e-06
0.00107258
-1.04013e-09
-0.00107258
2.00317e-09
-1.21556e-06
2.41934e-07
-2.42762e-07
-8.64132e-07
2.26721e-07
-2.28769e-07
8.64092e-07
-1.07281e-09
2.00023e-09
0.00107238
-2.37259e-07
1.21218e-06
2.36453e-07
8.61429e-07
-2.26028e-07
2.23975e-07
-8.61461e-07
-1.16296e-09
-0.00107324
1.91895e-09
-1.18227e-06
2.36611e-07
-2.37375e-07
-8.61464e-07
2.24084e-07
8.61485e-07
-2.26096e-07
1.21217e-06
0.00107238
-1.028e-09
-0.00107238
2.01232e-09
-1.21023e-06
2.36447e-07
-2.37263e-07
-8.61468e-07
2.23966e-07
-2.26034e-07
8.61417e-07
-2.16074e-07
-2.23394e-07
0.000261925
-1.17892e-06
0.000263878
-0.000261925
2.18048e-07
2.25365e-07
-1.16202e-09
1.90347e-09
0.00107342
-2.34688e-07
1.17902e-06
2.33927e-07
8.61615e-07
-2.28796e-07
2.2679e-07
-8.61571e-07
-1.15053e-09
-0.00107291
1.88751e-09
-1.17693e-06
2.3388e-07
-2.34627e-07
-8.61297e-07
2.26706e-07
8.61367e-07
-2.28729e-07
1.17902e-06
0.00107342
-1.102e-09
-0.00107342
1.91026e-09
-1.17704e-06
2.33932e-07
-2.34685e-07
-8.61574e-07
2.26787e-07
-2.28799e-07
8.61611e-07