/*--------------------------------*- C++ -*----------------------------------*\
| =========                 |                                                 |
| \\      /  F ield         | OpenFOAM: The Open Source CFD Toolbox           |
|  \\    /   O peration     | Version:  2206                                  |
|   \\  /    A nd           | Website:  www.openfoam.com                      |
|    \\/     M anipulation  |                                                 |
\*---------------------------------------------------------------------------*/
FoamFile
{
    version     2.0;
    format      ascii;
    arch        "LSB;label=32;scalar=64";
    class       volVectorField;
    location    "16";
    object      U;
}
// * * * * * * * * * * * * * * * * * * * * * * * * * * * * * * * * * * * * * //

dimensions      [0 1 -1 0 0 0 0];

internalField   nonuniform List<vector> 
28897
(
(-5.3045e-07 -5.23714e-07 0.101909)
(-3.32113e-07 5.38242e-07 0.101893)
(5.32095e-07 -3.27545e-07 0.101893)
(-3.90693e-05 -3.90781e-05 0.101867)
(-5.45989e-07 -5.44135e-07 0.101909)
(-3.04915e-07 5.19836e-07 0.101893)
(5.29635e-07 -3.15807e-07 0.101893)
(-3.90329e-05 -3.9042e-05 0.101867)
(-5.07455e-07 -5.23955e-07 0.101909)
(-2.66433e-07 4.93759e-07 0.101892)
(5.73542e-07 -3.61776e-07 0.101892)
(-3.89984e-05 -3.90365e-05 0.101867)
(-4.78549e-07 -4.69333e-07 0.101909)
(-4.30913e-07 5.87561e-07 0.101893)
(5.53659e-07 -3.96746e-07 0.101893)
(-3.91792e-05 -3.91688e-05 0.101867)
(-5.17028e-07 -5.09958e-07 0.101909)
(-3.49957e-07 5.39221e-07 0.101893)
(5.37247e-07 -3.47456e-07 0.101893)
(-3.91015e-05 -3.91111e-05 0.101867)
(-5.15535e-07 -5.11133e-07 0.101909)
(-3.43851e-07 5.40742e-07 0.101893)
(5.39347e-07 -3.44935e-07 0.101893)
(-3.90979e-05 -3.91124e-05 0.101867)
(-5.15406e-07 -5.11901e-07 0.101909)
(-3.42579e-07 5.40148e-07 0.101893)
(5.39482e-07 -3.44344e-07 0.101893)
(-3.90965e-05 -3.9112e-05 0.101867)
(-5.15086e-07 -5.11811e-07 0.101909)
(-3.42996e-07 5.40374e-07 0.101893)
(5.39772e-07 -3.44756e-07 0.101893)
(-3.90966e-05 -3.91125e-05 0.101867)
(-5.15225e-07 -5.1209e-07 0.101909)
(-3.42342e-07 5.40239e-07 0.101893)
(5.39208e-07 -3.44351e-07 0.101893)
(-3.90958e-05 -3.91121e-05 0.101867)
(-5.14547e-07 -5.11192e-07 0.101909)
(-3.42775e-07 5.41191e-07 0.101893)
(5.38878e-07 -3.4609e-07 0.101893)
(-3.90938e-05 -3.91154e-05 0.101867)
(-5.09057e-07 -5.05895e-07 0.101909)
(-3.41051e-07 5.39621e-07 0.101893)
(5.39113e-07 -3.44754e-07 0.101893)
(-3.90948e-05 -3.91133e-05 0.101867)
(-5.16781e-07 -5.08453e-07 0.101909)
(-3.43612e-07 5.52369e-07 0.101893)
(5.39919e-07 -3.44512e-07 0.101893)
(-3.90981e-05 -3.91118e-05 0.101867)
(-5.14405e-07 -5.09565e-07 0.101909)
(-3.43047e-07 5.42302e-07 0.101893)
(5.39755e-07 -3.43883e-07 0.101893)
(-3.90977e-05 -3.91117e-05 0.101867)
(-5.14074e-07 -5.11422e-07 0.101909)
(-3.43193e-07 5.42215e-07 0.101893)
(5.39683e-07 -3.43686e-07 0.101893)
(-3.90973e-05 -3.91123e-05 0.101867)
(-5.14018e-07 -5.11963e-07 0.101909)
(-3.42983e-07 5.41567e-07 0.101893)
(5.38552e-07 -3.43099e-07 0.101893)
(-3.90971e-05 -3.91127e-05 0.101867)
(-5.14134e-07 -5.12091e-07 0.101909)
(-3.42098e-07 5.4087e-07 0.101893)
(5.38477e-07 -3.42143e-07 0.101893)
(-3.9096e-05 -3.91117e-05 0.101867)
(-5.14324e-07 -5.12509e-07 0.101909)
(-3.42962e-07 5.41281e-07 0.101893)
(5.38994e-07 -3.43088e-07 0.101893)
(-3.90948e-05 -3.91107e-05 0.101867)
(-5.17648e-07 -5.15526e-07 0.101909)
(-3.35655e-07 5.39006e-07 0.101893)
(5.36552e-07 -3.35759e-07 0.101893)
(-3.90798e-05 -3.90952e-05 0.101867)
(-4.06258e-05 -4.05915e-05 0.101868)
(5.50916e-07 3.49467e-07 0.101893)
(-5.56994e-07 3.51851e-07 0.101893)
(4.06129e-05 -4.05918e-05 0.101868)
(3.30747e-07 5.3726e-07 0.101893)
(3.48022e-07 -5.50644e-07 0.101893)
(-3.34876e-07 5.37486e-07 0.101893)
(-3.48221e-07 -5.46683e-07 0.101893)
(-4.05954e-05 4.06286e-05 0.101868)
(5.33918e-07 -3.31451e-07 0.101893)
(-5.36901e-07 -3.32448e-07 0.101893)
(4.05937e-05 4.06204e-05 0.101868)
(3.90769e-05 3.90538e-05 0.101867)
(-4.06619e-05 -4.06302e-05 0.101868)
(5.47415e-07 3.4024e-07 0.101893)
(-5.63981e-07 3.45955e-07 0.101893)
(5.32647e-07 3.19391e-07 0.101893)
(-5.36378e-07 3.21434e-07 0.101893)
(-3.90807e-05 3.90528e-05 0.101867)
(4.06476e-05 -4.06209e-05 0.101868)
(3.27654e-07 5.34789e-07 0.101893)
(3.41072e-07 -5.47631e-07 0.101893)
(3.03609e-07 5.18185e-07 0.101893)
(3.18646e-07 -5.31371e-07 0.101893)
(-3.4278e-07 -5.42093e-07 0.101893)
(-3.00699e-07 5.18296e-07 0.101893)
(-3.15594e-07 -5.2774e-07 0.101893)
(3.90535e-05 -3.9086e-05 0.101867)
(-4.06336e-05 4.0666e-05 0.101868)
(-5.33914e-07 -3.24596e-07 0.101893)
(5.1602e-07 -3.03159e-07 0.101893)
(-5.16176e-07 -3.04492e-07 0.101893)
(4.06327e-05 4.06513e-05 0.101868)
(3.90399e-05 3.90135e-05 0.101867)
(-4.0733e-05 -4.07095e-05 0.101868)
(5.46315e-07 3.26588e-07 0.101893)
(-5.40696e-07 3.25547e-07 0.101893)
(5.12122e-07 2.67729e-07 0.101892)
(-4.86384e-07 2.62188e-07 0.101893)
(-3.90536e-05 3.90267e-05 0.101867)
(4.07201e-05 -4.06885e-05 0.101868)
(3.179e-07 5.29827e-07 0.101893)
(3.29652e-07 -5.44041e-07 0.101893)
(2.60318e-07 4.86602e-07 0.101893)
(2.74349e-07 -5.04613e-07 0.101892)
(-3.22363e-07 -5.38505e-07 0.101893)
(-2.28071e-07 4.7241e-07 0.101893)
(-2.45523e-07 -4.99399e-07 0.101892)
(3.90144e-05 -3.90477e-05 0.101867)
(-4.07059e-05 4.07423e-05 0.101868)
(-5.27206e-07 -3.14864e-07 0.101893)
(4.91668e-07 -2.56082e-07 0.101892)
(-4.73574e-07 -2.61157e-07 0.101893)
(4.07189e-05 4.07325e-05 0.101868)
(3.9042e-05 3.90063e-05 0.101867)
(-4.05521e-05 -4.05185e-05 0.101868)
(6.00028e-07 3.6484e-07 0.101892)
(-4.97031e-07 3.27257e-07 0.101892)
(6.00324e-07 4.50064e-07 0.101893)
(-6.38666e-07 4.71595e-07 0.101893)
(-3.89856e-05 3.89728e-05 0.101867)
(4.04969e-05 -4.0473e-05 0.101868)
(3.68749e-07 5.65822e-07 0.101892)
(3.771e-07 -5.85378e-07 0.101892)
(4.33866e-07 5.81558e-07 0.101893)
(4.51248e-07 -5.97323e-07 0.101893)
(-3.19527e-07 -5.8471e-07 0.101892)
(-4.64705e-07 6.16045e-07 0.101893)
(-4.60044e-07 -5.99453e-07 0.101893)
(3.90148e-05 -3.9043e-05 0.101867)
(-4.05197e-05 4.05569e-05 0.101868)
(-5.4421e-07 -3.69075e-07 0.101892)
(5.81043e-07 -4.32869e-07 0.101893)
(-5.84563e-07 -4.35278e-07 0.101893)
(4.05096e-05 4.05474e-05 0.101868)
(3.91702e-05 3.91498e-05 0.101867)
(-4.06386e-05 -4.06027e-05 0.101868)
(5.66734e-07 4.11404e-07 0.101893)
(-6.16758e-07 4.31255e-07 0.101893)
(5.49887e-07 3.66967e-07 0.101893)
(-5.64538e-07 3.69038e-07 0.101893)
(-3.92325e-05 3.91962e-05 0.101867)
(4.06321e-05 -4.06082e-05 0.101868)
(3.97049e-07 5.5727e-07 0.101893)
(4.10886e-07 -5.69889e-07 0.101893)
(3.46678e-07 5.40833e-07 0.101893)
(3.62929e-07 -5.52782e-07 0.101893)
(-4.2427e-07 -5.6102e-07 0.101893)
(-3.55157e-07 5.39479e-07 0.101893)
(-3.68668e-07 -5.45951e-07 0.101893)
(3.91499e-05 -3.91794e-05 0.101867)
(-4.06089e-05 4.06397e-05 0.101868)
(-5.60207e-07 -3.92122e-07 0.101893)
(5.34913e-07 -3.48373e-07 0.101893)
(-5.40818e-07 -3.48104e-07 0.101893)
(4.0606e-05 4.06318e-05 0.101868)
(3.91078e-05 3.90863e-05 0.101867)
(-4.06384e-05 -4.06055e-05 0.101868)
(5.524e-07 3.60804e-07 0.101893)
(-5.62755e-07 3.63851e-07 0.101893)
(5.55825e-07 3.60003e-07 0.101893)
(-5.62103e-07 3.61873e-07 0.101893)
(-3.91062e-05 3.90788e-05 0.101867)
(4.06376e-05 -4.06104e-05 0.101868)
(3.47235e-07 5.41918e-07 0.101893)
(3.60199e-07 -5.54138e-07 0.101893)
(3.42699e-07 5.41504e-07 0.101893)
(3.58577e-07 -5.54975e-07 0.101893)
(-3.62263e-07 -5.48144e-07 0.101893)
(-3.43786e-07 5.40886e-07 0.101893)
(-3.5783e-07 -5.52572e-07 0.101893)
(3.90842e-05 -3.91181e-05 0.101867)
(-4.06093e-05 4.06417e-05 0.101868)
(-5.40101e-07 -3.44034e-07 0.101893)
(5.38218e-07 -3.43241e-07 0.101893)
(-5.39752e-07 -3.44351e-07 0.101893)
(4.06111e-05 4.06309e-05 0.101868)
(3.91089e-05 3.90845e-05 0.101867)
(-4.06383e-05 -4.06065e-05 0.101868)
(5.56304e-07 3.57048e-07 0.101893)
(-5.61598e-07 3.60608e-07 0.101893)
(5.56093e-07 3.58439e-07 0.101893)
(-5.60843e-07 3.60646e-07 0.101893)
(-3.91033e-05 3.90782e-05 0.101867)
(4.06385e-05 -4.06108e-05 0.101868)
(3.45876e-07 5.41936e-07 0.101893)
(3.58396e-07 -5.55207e-07 0.101893)
(3.42195e-07 5.40369e-07 0.101893)
(3.5815e-07 -5.54548e-07 0.101893)
(-3.55754e-07 -5.51979e-07 0.101893)
(-3.41977e-07 5.4037e-07 0.101893)
(-3.55847e-07 -5.52595e-07 0.101893)
(3.90846e-05 -3.91174e-05 0.101867)
(-4.06089e-05 4.06421e-05 0.101868)
(-5.38621e-07 -3.42364e-07 0.101893)
(5.38522e-07 -3.42334e-07 0.101893)
(-5.38252e-07 -3.43777e-07 0.101893)
(4.06124e-05 4.06311e-05 0.101868)
(3.91086e-05 3.90834e-05 0.101867)
(-4.0638e-05 -4.0607e-05 0.101868)
(5.56328e-07 3.55735e-07 0.101893)
(-5.60374e-07 3.59631e-07 0.101893)
(5.56316e-07 3.58668e-07 0.101893)
(-5.61109e-07 3.6078e-07 0.101893)
(-3.91021e-05 3.90774e-05 0.101867)
(4.06383e-05 -4.0611e-05 0.101868)
(3.45342e-07 5.40812e-07 0.101893)
(3.57865e-07 -5.54858e-07 0.101893)
(3.42614e-07 5.40387e-07 0.101893)
(3.58359e-07 -5.5485e-07 0.101893)
(-3.54527e-07 -5.52014e-07 0.101893)
(-3.42507e-07 5.40647e-07 0.101893)
(-3.56305e-07 -5.53114e-07 0.101893)
(3.90846e-05 -3.91168e-05 0.101867)
(-4.06089e-05 4.06419e-05 0.101868)
(-5.3759e-07 -3.42175e-07 0.101893)
(5.38759e-07 -3.42591e-07 0.101893)
(-5.38423e-07 -3.44392e-07 0.101893)
(4.06123e-05 4.06306e-05 0.101868)
(3.91089e-05 3.90839e-05 0.101867)
(-4.06379e-05 -4.06079e-05 0.101868)
(5.56625e-07 3.55804e-07 0.101893)
(-5.60717e-07 3.6032e-07 0.101893)
(5.56046e-07 3.58024e-07 0.101893)
(-5.61256e-07 3.60695e-07 0.101893)
(-3.91027e-05 3.90781e-05 0.101867)
(4.06385e-05 -4.0611e-05 0.101868)
(3.45655e-07 5.40746e-07 0.101893)
(3.58246e-07 -5.55174e-07 0.101893)
(3.42246e-07 5.40124e-07 0.101893)
(3.57768e-07 -5.54301e-07 0.101893)
(-3.54729e-07 -5.52159e-07 0.101893)
(-3.41482e-07 5.40294e-07 0.101893)
(-3.55135e-07 -5.52409e-07 0.101893)
(3.90848e-05 -3.91171e-05 0.101867)
(-4.06093e-05 4.06423e-05 0.101868)
(-5.37433e-07 -3.42385e-07 0.101893)
(5.38327e-07 -3.41683e-07 0.101893)
(-5.37748e-07 -3.43393e-07 0.101893)
(4.06129e-05 4.06313e-05 0.101868)
(3.91087e-05 3.90845e-05 0.101867)
(-4.06378e-05 -4.06088e-05 0.101868)
(5.56486e-07 3.55819e-07 0.101893)
(-5.59559e-07 3.59165e-07 0.101893)
(5.54461e-07 3.57768e-07 0.101893)
(-5.62643e-07 3.63151e-07 0.101893)
(-3.91021e-05 3.90777e-05 0.101867)
(4.06394e-05 -4.06094e-05 0.101868)
(3.45338e-07 5.40397e-07 0.101893)
(3.57799e-07 -5.54693e-07 0.101893)
(3.44588e-07 5.40013e-07 0.101893)
(3.59655e-07 -5.55685e-07 0.101893)
(-3.54107e-07 -5.51803e-07 0.101893)
(-3.42803e-07 5.42073e-07 0.101893)
(-3.59565e-07 -5.54509e-07 0.101893)
(3.90842e-05 -3.91166e-05 0.101867)
(-4.06095e-05 4.06407e-05 0.101868)
(-5.3688e-07 -3.42014e-07 0.101893)
(5.3828e-07 -3.43645e-07 0.101893)
(-5.37828e-07 -3.48348e-07 0.101893)
(4.06149e-05 4.06283e-05 0.101868)
(3.91069e-05 3.90829e-05 0.101867)
(-4.06289e-05 -4.06147e-05 0.101868)
(5.55499e-07 3.56852e-07 0.101893)
(-5.59276e-07 3.63493e-07 0.101893)
(5.54637e-07 3.58962e-07 0.101893)
(-5.59435e-07 3.65528e-07 0.101893)
(-3.91009e-05 3.90802e-05 0.101867)
(4.06393e-05 -4.06075e-05 0.101868)
(3.48678e-07 5.39895e-07 0.101893)
(3.5985e-07 -5.56113e-07 0.101893)
(3.50071e-07 5.42502e-07 0.101893)
(3.60158e-07 -5.55022e-07 0.101893)
(-3.61337e-07 -5.5463e-07 0.101893)
(-3.39435e-07 5.3771e-07 0.101893)
(-3.62799e-07 -5.54525e-07 0.101893)
(3.90842e-05 -3.91184e-05 0.101867)
(-4.06097e-05 4.06416e-05 0.101868)
(-5.35089e-07 -3.4941e-07 0.101893)
(5.37618e-07 -3.43417e-07 0.101893)
(-5.33945e-07 -3.49582e-07 0.101893)
(4.06153e-05 4.06293e-05 0.101868)
(3.91146e-05 3.90866e-05 0.101867)
(-4.06396e-05 -4.06132e-05 0.101868)
(5.61189e-07 3.67212e-07 0.101893)
(-5.60643e-07 3.61536e-07 0.101893)
(5.525e-07 3.54219e-07 0.101893)
(-5.6604e-07 3.75576e-07 0.101893)
(-3.91038e-05 3.90772e-05 0.101867)
(4.06332e-05 -4.05984e-05 0.101868)
(3.54453e-07 5.44434e-07 0.101893)
(3.59993e-07 -5.54687e-07 0.101893)
(3.43544e-07 5.39282e-07 0.101893)
(3.59771e-07 -5.54494e-07 0.101893)
(-3.58001e-07 -5.52489e-07 0.101893)
(-3.43477e-07 5.50023e-07 0.101893)
(-3.58026e-07 -5.5186e-07 0.101893)
(3.90843e-05 -3.91174e-05 0.101867)
(-4.06089e-05 4.06422e-05 0.101868)
(-5.35221e-07 -3.44184e-07 0.101893)
(5.39097e-07 -3.42568e-07 0.101893)
(-5.38767e-07 -3.43932e-07 0.101893)
(4.06116e-05 4.06321e-05 0.101868)
(3.91026e-05 3.90893e-05 0.101867)
(-4.06364e-05 -4.06087e-05 0.101868)
(5.52368e-07 3.61998e-07 0.101893)
(-5.67972e-07 3.75956e-07 0.101893)
(5.54692e-07 3.55934e-07 0.101893)
(-5.57715e-07 3.61983e-07 0.101893)
(-3.91103e-05 3.90954e-05 0.101867)
(4.06374e-05 -4.06109e-05 0.101868)
(3.45261e-07 5.42906e-07 0.101893)
(3.59832e-07 -5.55349e-07 0.101893)
(3.42597e-07 5.42292e-07 0.101893)
(3.59743e-07 -5.55051e-07 0.101893)
(-3.57508e-07 -5.51236e-07 0.101893)
(-3.42258e-07 5.42879e-07 0.101893)
(-3.57689e-07 -5.52081e-07 0.101893)
(3.90851e-05 -3.91172e-05 0.101867)
(-4.0609e-05 4.06418e-05 0.101868)
(-5.38334e-07 -3.42675e-07 0.101893)
(5.38984e-07 -3.42642e-07 0.101893)
(-5.39074e-07 -3.43793e-07 0.101893)
(4.06114e-05 4.06316e-05 0.101868)
(3.9105e-05 3.90913e-05 0.101867)
(-4.06346e-05 -4.06092e-05 0.101868)
(5.56536e-07 3.62325e-07 0.101893)
(-5.58124e-07 3.62666e-07 0.101893)
(5.56056e-07 3.55209e-07 0.101893)
(-5.57918e-07 3.61293e-07 0.101893)
(-3.91033e-05 3.90787e-05 0.101867)
(4.06386e-05 -4.06118e-05 0.101868)
(3.46887e-07 5.44194e-07 0.101893)
(3.59443e-07 -5.55268e-07 0.101893)
(3.43763e-07 5.42574e-07 0.101893)
(3.59308e-07 -5.5514e-07 0.101893)
(-3.55888e-07 -5.51561e-07 0.101893)
(-3.42052e-07 5.42177e-07 0.101893)
(-3.56716e-07 -5.52856e-07 0.101893)
(3.90849e-05 -3.91173e-05 0.101867)
(-4.06092e-05 4.06421e-05 0.101868)
(-5.38011e-07 -3.41799e-07 0.101893)
(5.39096e-07 -3.42662e-07 0.101893)
(-5.38719e-07 -3.44364e-07 0.101893)
(4.0612e-05 4.06311e-05 0.101868)
(3.9106e-05 3.90897e-05 0.101867)
(-4.0635e-05 -4.06113e-05 0.101868)
(5.55181e-07 3.59602e-07 0.101893)
(-5.58132e-07 3.6134e-07 0.101893)
(5.55061e-07 3.53668e-07 0.101893)
(-5.58343e-07 3.6082e-07 0.101893)
(-3.91028e-05 3.90782e-05 0.101867)
(4.06387e-05 -4.06123e-05 0.101868)
(3.46586e-07 5.42877e-07 0.101893)
(3.5922e-07 -5.5553e-07 0.101893)
(3.44022e-07 5.41636e-07 0.101893)
(3.588e-07 -5.55169e-07 0.101893)
(-3.55339e-07 -5.522e-07 0.101893)
(-3.42541e-07 5.41966e-07 0.101893)
(-3.56387e-07 -5.5321e-07 0.101893)
(3.90847e-05 -3.91171e-05 0.101867)
(-4.06097e-05 4.06422e-05 0.101868)
(-5.37901e-07 -3.42273e-07 0.101893)
(5.38897e-07 -3.42827e-07 0.101893)
(-5.38572e-07 -3.44916e-07 0.101893)
(4.06125e-05 4.06309e-05 0.101868)
(3.91061e-05 3.90882e-05 0.101867)
(-4.0634e-05 -4.06107e-05 0.101868)
(5.5449e-07 3.58415e-07 0.101893)
(-5.57972e-07 3.60503e-07 0.101893)
(5.54625e-07 3.53217e-07 0.101893)
(-5.57619e-07 3.59864e-07 0.101893)
(-3.91025e-05 3.90775e-05 0.101867)
(4.06382e-05 -4.06119e-05 0.101868)
(3.47048e-07 5.42396e-07 0.101893)
(3.58611e-07 -5.55446e-07 0.101893)
(3.43522e-07 5.41266e-07 0.101893)
(3.58298e-07 -5.54681e-07 0.101893)
(-3.54885e-07 -5.52359e-07 0.101893)
(-3.41699e-07 5.41359e-07 0.101893)
(-3.5512e-07 -5.52392e-07 0.101893)
(3.90845e-05 -3.91172e-05 0.101867)
(-4.06088e-05 4.06414e-05 0.101868)
(-5.37469e-07 -3.42077e-07 0.101893)
(5.3877e-07 -3.41928e-07 0.101893)
(-5.37733e-07 -3.44081e-07 0.101893)
(4.06123e-05 4.06306e-05 0.101868)
(3.91056e-05 3.90874e-05 0.101867)
(-4.06312e-05 -4.06084e-05 0.101868)
(5.53712e-07 3.57809e-07 0.101893)
(-5.57184e-07 3.59404e-07 0.101893)
(5.55314e-07 3.54421e-07 0.101893)
(-5.58351e-07 3.60922e-07 0.101893)
(-3.91017e-05 3.90766e-05 0.101867)
(4.06354e-05 -4.06094e-05 0.101868)
(3.46084e-07 5.41557e-07 0.101893)
(3.57961e-07 -5.54804e-07 0.101893)
(3.45056e-07 5.41822e-07 0.101893)
(3.59787e-07 -5.55663e-07 0.101893)
(-3.53537e-07 -5.5135e-07 0.101893)
(-3.43362e-07 5.42049e-07 0.101893)
(-3.56801e-07 -5.53536e-07 0.101893)
(3.90841e-05 -3.91167e-05 0.101867)
(-4.0606e-05 4.06385e-05 0.101868)
(-5.365e-07 -3.40582e-07 0.101893)
(5.39542e-07 -3.43527e-07 0.101893)
(-5.38577e-07 -3.45878e-07 0.101893)
(4.06093e-05 4.06274e-05 0.101868)
(3.9104e-05 3.90856e-05 0.101867)
(-4.06246e-05 -4.06012e-05 0.101868)
(5.5418e-07 3.5813e-07 0.101893)
(-5.5765e-07 3.59778e-07 0.101893)
(5.54309e-07 3.51703e-07 0.101893)
(-5.57428e-07 3.58097e-07 0.101893)
(-3.91001e-05 3.90747e-05 0.101867)
(4.06287e-05 -4.06025e-05 0.101868)
(3.46655e-07 5.41847e-07 0.101893)
(3.58665e-07 -5.55529e-07 0.101893)
(3.41618e-07 5.41041e-07 0.101893)
(3.56791e-07 -5.54667e-07 0.101893)
(-3.54555e-07 -5.52207e-07 0.101893)
(-3.40672e-07 5.41194e-07 0.101893)
(-3.54212e-07 -5.52563e-07 0.101893)
(3.90826e-05 -3.91153e-05 0.101867)
(-4.05992e-05 4.06318e-05 0.101868)
(-5.37249e-07 -3.41321e-07 0.101893)
(5.3857e-07 -3.40641e-07 0.101893)
(-5.38036e-07 -3.42875e-07 0.101893)
(4.06025e-05 4.06212e-05 0.101868)
(3.90883e-05 3.90703e-05 0.101867)
(5.51592e-07 3.51315e-07 0.101893)
(-5.5525e-07 3.52776e-07 0.101893)
(-3.90846e-05 3.90593e-05 0.101867)
(3.39427e-07 5.39678e-07 0.101893)
(3.51171e-07 -5.52911e-07 0.101893)
(-3.47742e-07 -5.49677e-07 0.101893)
(3.90667e-05 -3.90994e-05 0.101867)
(-5.3514e-07 -3.34312e-07 0.101893)
(-5.25976e-07 -5.17616e-07 0.101909)
(5.17262e-07 -5.19039e-07 0.101909)
(-5.19788e-07 5.21792e-07 0.101909)
(5.14332e-07 5.21345e-07 0.101909)
(1.48249e-08 -7.84276e-06 0.100776)
(7.07884e-07 5.83034e-06 0.0959441)
(-2.8794e-08 7.57859e-06 0.100772)
(-9.88623e-07 -6.00435e-06 0.0959521)
(-1.58534e-06 2.04186e-06 0.0858527)
(1.5273e-06 -2.19895e-06 0.0858607)
(-7.88935e-06 1.48712e-08 0.100776)
(5.8705e-06 6.9507e-07 0.0959439)
(7.62635e-06 -1.06869e-08 0.100772)
(-6.0377e-06 -9.63052e-07 0.095952)
(5.18924e-07 -5.24658e-07 0.101909)
(-5.24828e-07 5.27103e-07 0.101909)
(5.18499e-07 5.27097e-07 0.101909)
(-5.41535e-07 -5.35408e-07 0.101909)
(5.38291e-07 -5.36451e-07 0.101909)
(-5.36322e-07 5.39314e-07 0.101909)
(5.34375e-07 5.37214e-07 0.101909)
(1.28531e-05 7.48433e-09 0.101688)
(-1.2055e-05 3.54268e-06 0.100975)
(-4.07888e-07 -1.53008e-07 0.101905)
(-3.21506e-07 5.31812e-07 0.101893)
(-1.27926e-05 -5.73101e-09 0.101686)
(1.16878e-05 -3.82191e-06 0.100981)
(-3.93638e-07 -1.55628e-07 0.101905)
(1.91179e-06 -1.49715e-06 0.0858505)
(-2.12543e-06 1.52375e-06 0.0858608)
(6.11936e-09 1.28715e-05 0.101688)
(-1.61411e-07 -4.00382e-07 0.101905)
(3.53965e-06 -1.20732e-05 0.100975)
(5.21213e-07 -3.07556e-07 0.101893)
(-1.91025e-08 -1.27939e-05 0.101686)
(-1.66441e-07 -3.75128e-07 0.101905)
(-3.87775e-06 1.1747e-05 0.100981)
(-3.86956e-06 -4.66705e-06 0.0995899)
(-4.66039e-06 -3.87534e-06 0.0995895)
(4.06093e-05 4.0637e-05 0.101868)
(3.66094e-06 4.55447e-06 0.0995967)
(4.53597e-06 3.67455e-06 0.0995962)
(1.82764e-08 -7.92178e-06 0.100776)
(7.51561e-07 5.79201e-06 0.0959448)
(-4.53071e-08 7.526e-06 0.100771)
(-9.59838e-07 -6.06181e-06 0.0959529)
(-1.57738e-06 1.94947e-06 0.0858541)
(1.64635e-06 -2.30565e-06 0.0858626)
(-7.96666e-06 4.04565e-09 0.100775)
(5.83161e-06 7.32181e-07 0.0959446)
(7.57292e-06 -3.15652e-08 0.100772)
(-6.0917e-06 -9.44464e-07 0.0959528)
(5.409e-07 -5.41146e-07 0.101909)
(-5.42043e-07 5.45571e-07 0.101909)
(5.40699e-07 5.42725e-07 0.101909)
(-5.51305e-07 -5.57875e-07 0.101909)
(5.64212e-07 -5.56138e-07 0.101909)
(-5.48985e-07 5.55597e-07 0.101909)
(5.62876e-07 5.49023e-07 0.101909)
(1.29229e-05 -8.39082e-09 0.101688)
(-1.19901e-05 3.46872e-06 0.100974)
(-3.73552e-07 -1.6795e-07 0.101905)
(-3.08707e-07 5.26588e-07 0.101893)
(-1.27495e-05 -1.73209e-08 0.101686)
(1.17715e-05 -3.92392e-06 0.100981)
(-3.71701e-07 -1.71243e-07 0.101905)
(1.81815e-06 -1.41105e-06 0.0858521)
(-2.15484e-06 1.46462e-06 0.0858631)
(3.91812e-09 1.29252e-05 0.101688)
(-1.72963e-07 -3.78127e-07 0.101905)
(3.45864e-06 -1.20013e-05 0.100975)
(5.11392e-07 -2.86735e-07 0.101893)
(-2.78027e-08 -1.27446e-05 0.101686)
(-1.68983e-07 -3.50451e-07 0.101905)
(-3.92959e-06 1.17935e-05 0.10098)
(-3.90488e-06 -4.59075e-06 0.0995898)
(-4.59565e-06 -3.85972e-06 0.0995894)
(4.0637e-05 4.06459e-05 0.101868)
(3.74438e-06 4.53556e-06 0.0995966)
(4.54932e-06 3.68515e-06 0.0995961)
(9.26671e-08 -7.74771e-06 0.100775)
(8.01862e-07 5.69027e-06 0.0959455)
(-3.67015e-08 7.43632e-06 0.100771)
(-9.78607e-07 -5.77762e-06 0.0959537)
(-1.35536e-06 1.86487e-06 0.0858563)
(1.69914e-06 -2.21781e-06 0.0858665)
(-7.78747e-06 4.536e-08 0.100775)
(5.72724e-06 7.73379e-07 0.0959454)
(7.48846e-06 -4.83395e-08 0.100771)
(-5.79953e-06 -9.7353e-07 0.0959537)
(5.70517e-07 -5.49767e-07 0.101909)
(-5.10186e-07 5.17013e-07 0.101909)
(5.43377e-07 5.06592e-07 0.101909)
(-4.46125e-07 -4.41195e-07 0.101909)
(4.36028e-07 -4.36248e-07 0.101909)
(-4.40294e-07 4.43053e-07 0.101909)
(4.35844e-07 4.41455e-07 0.101909)
(1.27896e-05 -3.30717e-08 0.101687)
(-1.19035e-05 3.3978e-06 0.100974)
(-3.43738e-07 -1.92055e-07 0.101905)
(-3.71752e-07 5.63404e-07 0.101892)
(-1.26807e-05 -4.10014e-08 0.101686)
(1.17001e-05 -3.98434e-06 0.10098)
(-4.55863e-07 -1.81785e-07 0.101905)
(1.63313e-06 -1.31484e-06 0.0858552)
(-1.72181e-06 1.17398e-06 0.0858657)
(3.27823e-08 1.26261e-05 0.101687)
(-1.57022e-07 -4.19701e-07 0.101905)
(3.37427e-06 -1.19316e-05 0.100974)
(6.24066e-07 -4.46932e-07 0.101892)
(-2.89367e-08 -1.26953e-05 0.101686)
(-1.28486e-07 -5.2949e-07 0.101905)
(-3.72283e-06 1.1509e-05 0.10098)
(-3.70094e-06 -4.57626e-06 0.0995898)
(-4.52788e-06 -3.76618e-06 0.0995894)
(4.05304e-05 4.04894e-05 0.101868)
(3.62546e-06 4.30022e-06 0.0995965)
(4.3918e-06 3.54985e-06 0.0995958)
(-2.65631e-09 -7.69363e-06 0.100776)
(7.80372e-07 6.60561e-06 0.0959447)
(-4.77388e-08 7.84803e-06 0.100771)
(-9.64771e-07 -5.66131e-06 0.0959518)
(-1.91026e-06 2.60159e-06 0.0858554)
(1.40981e-06 -1.9014e-06 0.0858609)
(-7.74311e-06 1.00057e-08 0.100776)
(6.62963e-06 7.72302e-07 0.0959446)
(7.89328e-06 -2.83879e-08 0.100772)
(-5.70616e-06 -9.41162e-07 0.0959517)
(4.41081e-07 -4.51181e-07 0.101909)
(-4.71576e-07 4.73665e-07 0.101909)
(4.57024e-07 4.74898e-07 0.101909)
(-5.17129e-07 -5.07073e-07 0.101909)
(4.99358e-07 -5.0469e-07 0.101909)
(-5.11635e-07 5.12506e-07 0.101909)
(5.01658e-07 5.11861e-07 0.101909)
(1.25866e-05 3.69979e-08 0.101688)
(-1.24363e-05 3.95231e-06 0.100974)
(-5.64862e-07 -1.12785e-07 0.101905)
(-3.9212e-07 5.59443e-07 0.101893)
(-1.3283e-05 2.2126e-08 0.101686)
(1.14493e-05 -3.55901e-06 0.100981)
(-5.17623e-07 -1.2372e-07 0.101905)
(2.34467e-06 -1.62711e-06 0.0858514)
(-1.89494e-06 1.46366e-06 0.0858601)
(1.24551e-08 1.26609e-05 0.101688)
(-1.38057e-07 -5.28637e-07 0.101905)
(3.86809e-06 -1.23836e-05 0.100975)
(5.38455e-07 -3.68601e-07 0.101893)
(5.09851e-10 -1.32133e-05 0.101686)
(-1.49422e-07 -4.85502e-07 0.101905)
(-3.71467e-06 1.15679e-05 0.100981)
(-3.83794e-06 -4.62637e-06 0.0995896)
(-4.67039e-06 -3.80342e-06 0.0995892)
(4.05899e-05 4.06269e-05 0.101868)
(3.72971e-06 4.57057e-06 0.0995966)
(4.52261e-06 3.70309e-06 0.0995962)
(1.6873e-08 -7.79597e-06 0.100776)
(7.36601e-07 5.99138e-06 0.0959438)
(-3.80125e-08 7.62765e-06 0.100772)
(-9.75335e-07 -5.84364e-06 0.0959515)
(-1.58677e-06 2.11053e-06 0.0858526)
(1.51469e-06 -2.09963e-06 0.0858602)
(-7.84203e-06 1.31853e-08 0.100776)
(6.02584e-06 7.21137e-07 0.0959436)
(7.67291e-06 -1.85854e-08 0.100772)
(-5.87865e-06 -9.50117e-07 0.0959515)
(5.05489e-07 -5.09534e-07 0.101909)
(-5.12327e-07 5.13692e-07 0.101909)
(5.0487e-07 5.127e-07 0.101909)
(-5.16692e-07 -5.10018e-07 0.101909)
(5.12188e-07 -5.12949e-07 0.101909)
(-5.11791e-07 5.13645e-07 0.101909)
(5.08468e-07 5.11985e-07 0.101909)
(1.27599e-05 5.54577e-09 0.101688)
(-1.21103e-05 3.55583e-06 0.100975)
(-4.46034e-07 -1.49091e-07 0.101905)
(-3.46144e-07 5.40267e-07 0.101893)
(-1.28941e-05 -6.56736e-09 0.101686)
(1.16241e-05 -3.77791e-06 0.100981)
(-4.37154e-07 -1.51539e-07 0.101905)
(2.00217e-06 -1.51668e-06 0.0858501)
(-1.99481e-06 1.45022e-06 0.08586)
(1.0069e-08 1.27719e-05 0.101688)
(-1.56596e-07 -4.33291e-07 0.101905)
(3.57713e-06 -1.21361e-05 0.100975)
(5.37092e-07 -3.43942e-07 0.101893)
(-1.87771e-08 -1.28901e-05 0.101686)
(-1.56784e-07 -4.30666e-07 0.101905)
(-3.81041e-06 1.16637e-05 0.100981)
(-3.86968e-06 -4.65105e-06 0.0995899)
(-4.64893e-06 -3.86378e-06 0.0995895)
(4.06108e-05 4.06327e-05 0.101868)
(3.69136e-06 4.52933e-06 0.0995967)
(4.51994e-06 3.68699e-06 0.0995962)
(1.90186e-08 -7.7978e-06 0.100776)
(7.43152e-07 5.98631e-06 0.0959437)
(-3.21815e-08 7.61661e-06 0.100772)
(-9.71605e-07 -5.84245e-06 0.0959515)
(-1.59143e-06 2.10019e-06 0.0858526)
(1.51157e-06 -2.09997e-06 0.0858602)
(-7.84377e-06 1.31846e-08 0.100776)
(6.02236e-06 7.2534e-07 0.0959436)
(7.66379e-06 -1.93931e-08 0.100772)
(-5.87664e-06 -9.48776e-07 0.0959515)
(5.12374e-07 -5.13363e-07 0.101909)
(-5.111e-07 5.13519e-07 0.101909)
(5.08809e-07 5.12223e-07 0.101909)
(-5.16251e-07 -5.1075e-07 0.101909)
(5.13777e-07 -5.13895e-07 0.101909)
(-5.11283e-07 5.13592e-07 0.101909)
(5.09856e-07 5.11958e-07 0.101909)
(1.27638e-05 4.37423e-09 0.101688)
(-1.20903e-05 3.54955e-06 0.100975)
(-4.31924e-07 -1.527e-07 0.101905)
(-3.42415e-07 5.40839e-07 0.101893)
(-1.28754e-05 -1.19185e-08 0.101686)
(1.16281e-05 -3.77489e-06 0.100981)
(-4.29383e-07 -1.53178e-07 0.101905)
(2.00052e-06 -1.52656e-06 0.0858501)
(-1.99447e-06 1.44759e-06 0.08586)
(1.12022e-08 1.27732e-05 0.101688)
(-1.55284e-07 -4.26586e-07 0.101905)
(3.57884e-06 -1.21283e-05 0.100975)
(5.38197e-07 -3.42267e-07 0.101893)
(-1.72034e-08 -1.28824e-05 0.101686)
(-1.55492e-07 -4.2729e-07 0.101905)
(-3.80746e-06 1.16651e-05 0.100981)
(-3.86522e-06 -4.65708e-06 0.0995899)
(-4.64793e-06 -3.86032e-06 0.0995895)
(4.06136e-05 4.06328e-05 0.101868)
(3.69399e-06 4.52792e-06 0.0995967)
(4.52084e-06 3.68865e-06 0.0995962)
(1.94011e-08 -7.79777e-06 0.100776)
(7.44642e-07 5.98875e-06 0.0959437)
(-3.0758e-08 7.61689e-06 0.100772)
(-9.71969e-07 -5.84571e-06 0.0959515)
(-1.59243e-06 2.10038e-06 0.0858526)
(1.51238e-06 -2.10021e-06 0.0858602)
(-7.84361e-06 1.27134e-08 0.100776)
(6.02405e-06 7.2617e-07 0.0959436)
(7.66421e-06 -1.9448e-08 0.100772)
(-5.87805e-06 -9.49256e-07 0.0959515)
(5.13455e-07 -5.14053e-07 0.101909)
(-5.10938e-07 5.13494e-07 0.101909)
(5.09688e-07 5.12084e-07 0.101909)
(-5.16039e-07 -5.10605e-07 0.101909)
(5.13547e-07 -5.13803e-07 0.101909)
(-5.11106e-07 5.13352e-07 0.101909)
(5.09619e-07 5.11617e-07 0.101909)
(1.27643e-05 4.23492e-09 0.101688)
(-1.20898e-05 3.55057e-06 0.100975)
(-4.30211e-07 -1.53105e-07 0.101905)
(-3.41944e-07 5.40445e-07 0.101893)
(-1.28749e-05 -1.19674e-08 0.101686)
(1.16283e-05 -3.77534e-06 0.100981)
(-4.28616e-07 -1.53564e-07 0.101905)
(2.00061e-06 -1.52664e-06 0.0858501)
(-1.99438e-06 1.44797e-06 0.08586)
(1.17398e-08 1.27731e-05 0.101688)
(-1.5484e-07 -4.25866e-07 0.101905)
(3.57976e-06 -1.21281e-05 0.100975)
(5.38254e-07 -3.41984e-07 0.101893)
(-1.66176e-08 -1.2882e-05 0.101686)
(-1.55244e-07 -4.26972e-07 0.101905)
(-3.80695e-06 1.16655e-05 0.100981)
(-3.86461e-06 -4.65727e-06 0.0995899)
(-4.64743e-06 -3.86033e-06 0.0995895)
(4.06141e-05 4.06325e-05 0.101868)
(3.69454e-06 4.5275e-06 0.0995967)
(4.5208e-06 3.68848e-06 0.0995962)
(1.92205e-08 -7.79726e-06 0.100776)
(7.48118e-07 5.9945e-06 0.0959438)
(-3.04794e-08 7.61641e-06 0.100772)
(-9.75331e-07 -5.8523e-06 0.0959515)
(-1.59304e-06 2.1041e-06 0.0858526)
(1.51708e-06 -2.10825e-06 0.0858602)
(-7.84354e-06 1.22944e-08 0.100776)
(6.02523e-06 7.28555e-07 0.0959436)
(7.66426e-06 -1.98797e-08 0.100772)
(-5.87885e-06 -9.52865e-07 0.0959514)
(5.13182e-07 -5.13628e-07 0.101909)
(-5.10624e-07 5.13285e-07 0.101909)
(5.09562e-07 5.11869e-07 0.101909)
(-5.1632e-07 -5.10931e-07 0.101909)
(5.14151e-07 -5.14128e-07 0.101909)
(-5.11325e-07 5.13926e-07 0.101909)
(5.10463e-07 5.12462e-07 0.101909)
(1.27642e-05 4.30362e-09 0.101688)
(-1.209e-05 3.55062e-06 0.100975)
(-4.3059e-07 -1.52992e-07 0.101905)
(-3.41626e-07 5.40377e-07 0.101893)
(-1.28751e-05 -1.19308e-08 0.101686)
(1.16284e-05 -3.77492e-06 0.100981)
(-4.2828e-07 -1.53403e-07 0.101905)
(2.00064e-06 -1.52681e-06 0.0858501)
(-1.99474e-06 1.44715e-06 0.08586)
(1.18874e-08 1.27733e-05 0.101688)
(-1.54741e-07 -4.26159e-07 0.101905)
(3.57965e-06 -1.21291e-05 0.100975)
(5.38397e-07 -3.41739e-07 0.101893)
(-1.62443e-08 -1.28828e-05 0.101686)
(-1.54965e-07 -4.26727e-07 0.101905)
(-3.80591e-06 1.16671e-05 0.100981)
(-3.86417e-06 -4.65744e-06 0.0995899)
(-4.64747e-06 -3.86002e-06 0.0995895)
(4.06144e-05 4.06329e-05 0.101868)
(3.69485e-06 4.52779e-06 0.0995967)
(4.52111e-06 3.68894e-06 0.0995962)
(1.81811e-08 -7.79617e-06 0.100776)
(7.51162e-07 6.00395e-06 0.0959438)
(-3.09717e-08 7.61633e-06 0.100772)
(-9.78909e-07 -5.86553e-06 0.0959514)
(-1.596e-06 2.10922e-06 0.0858526)
(1.51218e-06 -2.10507e-06 0.0858602)
(-7.84394e-06 1.21902e-08 0.100776)
(6.028e-06 7.31964e-07 0.0959437)
(7.66434e-06 -1.99413e-08 0.100772)
(-5.88177e-06 -9.57386e-07 0.0959513)
(5.13688e-07 -5.13875e-07 0.101909)
(-5.1076e-07 5.136e-07 0.101909)
(5.09917e-07 5.1215e-07 0.101909)
(-5.15905e-07 -5.10697e-07 0.101909)
(5.12974e-07 -5.11484e-07 0.101909)
(-5.09767e-07 5.11887e-07 0.101909)
(5.08191e-07 5.09171e-07 0.101909)
(1.27645e-05 4.29118e-09 0.101688)
(-1.20895e-05 3.55097e-06 0.100975)
(-4.29749e-07 -1.52913e-07 0.101905)
(-3.41623e-07 5.40742e-07 0.101893)
(-1.28743e-05 -1.20545e-08 0.101686)
(1.16282e-05 -3.7752e-06 0.100981)
(-4.28197e-07 -1.53256e-07 0.101905)
(2.00079e-06 -1.5267e-06 0.0858501)
(-1.99487e-06 1.44775e-06 0.08586)
(1.1495e-08 1.27733e-05 0.101688)
(-1.54797e-07 -4.25598e-07 0.101905)
(3.57869e-06 -1.21314e-05 0.100975)
(5.38022e-07 -3.41501e-07 0.101893)
(-1.63845e-08 -1.28822e-05 0.101686)
(-1.54933e-07 -4.27154e-07 0.101905)
(-3.80584e-06 1.1668e-05 0.100981)
(-3.86439e-06 -4.6578e-06 0.0995899)
(-4.64763e-06 -3.86044e-06 0.0995895)
(4.06146e-05 4.06323e-05 0.101868)
(3.69489e-06 4.52736e-06 0.0995967)
(4.52124e-06 3.68868e-06 0.0995962)
(4.59925e-09 -7.79589e-06 0.100776)
(7.48278e-07 6.02185e-06 0.095944)
(-3.73928e-08 7.61551e-06 0.100772)
(-1.04844e-06 -5.91557e-06 0.0959512)
(-1.60022e-06 2.12096e-06 0.0858526)
(1.50334e-06 -2.03935e-06 0.0858601)
(-7.84338e-06 1.25294e-08 0.100776)
(6.03071e-06 7.35387e-07 0.0959439)
(7.66459e-06 -2.03259e-08 0.100772)
(-5.88341e-06 -9.6169e-07 0.0959511)
(5.12809e-07 -5.09342e-07 0.101909)
(-5.08698e-07 5.11649e-07 0.101909)