/*--------------------------------*- C++ -*----------------------------------*\
| =========                 |                                                 |
| \\      /  F ield         | OpenFOAM: The Open Source CFD Toolbox           |
|  \\    /   O peration     | Version:  2206                                  |
|   \\  /    A nd           | Website:  www.openfoam.com                      |
|    \\/     M anipulation  |                                                 |
\*---------------------------------------------------------------------------*/
FoamFile
{
    version     2.0;
    format      ascii;
    arch        "LSB;label=32;scalar=64";
    class       volScalarField;
    location    "3";
    object      nut;
}
// * * * * * * * * * * * * * * * * * * * * * * * * * * * * * * * * * * * * * //

dimensions      [0 2 -1 0 0 0 0];

internalField   nonuniform List<scalar> 
28515
(
0.000247976
0.000254369
0.00025437
0.0002585
0.000234166
0.000235012
0.000235014
0.000239733
0.000234144
0.000234989
0.000234988
0.000239647
0.000234144
0.000234988
0.000234986
0.000239639
0.000234144
0.000234988
0.000234988
0.000239652
0.000234144
0.000234985
0.000234989
0.000239639
0.000234144
0.000234985
0.000234989
0.000239636
0.000234144
0.000234987
0.000234987
0.00023964
0.000234144
0.000234987
0.000234987
0.000239642
0.000234144
0.000234989
0.000234988
0.000239635
0.000234144
0.000234988
0.000234987
0.00023964
0.000234143
0.000234988
0.000234989
0.000239637
0.000268695
0.000273294
0.000273304
0.000268706
0.000273295
0.00027331
0.000265944
0.000265928
0.00026593
0.000265941
0.000273299
0.000273299
0.00026871
0.000273301
0.000273294
0.000268694
0.000258504
0.000239581
0.000254367
0.000254361
0.000235067
0.00023507
0.000258511
0.000239581
0.000254367
0.000254365
0.000235067
0.00023507
0.000254372
0.000235066
0.000235067
0.000258507
0.000239578
0.000254367
0.000235068
0.000235065
0.000239582
0.000239728
0.000239489
0.000235016
0.000235013
0.000234991
0.000234991
0.000239739
0.000239487
0.000235013
0.000235016
0.000234988
0.000234988
0.000235016
0.000234989
0.000234988
0.000239735
0.000239493
0.000235013
0.000234987
0.00023499
0.000239493
0.000239642
0.000239485
0.000234991
0.000234989
0.000234992
0.000234986
0.000239641
0.000239491
0.000234989
0.000234991
0.00023499
0.000234992
0.000234989
0.00023499
0.000234988
0.000239644
0.000239489
0.000234989
0.00023499
0.000234988
0.000239488
0.000239638
0.000239486
0.000234989
0.000234989
0.000234992
0.000234986
0.000239638
0.000239492
0.00023499
0.00023499
0.00023499
0.000234992
0.000234987
0.00023499
0.000234989
0.000239646
0.000239489
0.000234988
0.00023499
0.000234989
0.000239492
0.000239639
0.000239488
0.000234989
0.00023499
0.000234989
0.000234989
0.000239639
0.000239489
0.000234991
0.00023499
0.000234992
0.000234988
0.000234988
0.000234989
0.00023499
0.000239642
0.000239491
0.000234987
0.000234991
0.000234986
0.000239488
0.000239644
0.000239482
0.000234985
0.000234991
0.000234989
0.000234988
0.000239639
0.000239487
0.00023499
0.000234986
0.000234991
0.000234989
0.000234987
0.000234989
0.00023499
0.000239646
0.000239489
0.000234989
0.00023499
0.000234986
0.000239486
0.000239635
0.000239486
0.000234988
0.00023499
0.000234989
0.000234991
0.000239637
0.000239489
0.000234989
0.000234986
0.000234992
0.000234992
0.000234988
0.000234989
0.000234991
0.000239645
0.000239491
0.000234988
0.000234989
0.000234985
0.000239491
0.000239638
0.000239487
0.000234989
0.00023499
0.00023499
0.00023499
0.00023964
0.000239491
0.00023499
0.000234991
0.000234992
0.00023499
0.000234988
0.000234989
0.000234991
0.000239646
0.000239493
0.000234987
0.00023499
0.000234985
0.000239493
0.000239634
0.00023949
0.000234991
0.00023499
0.000234989
0.000234991
0.000239641
0.000239491
0.000234989
0.000234991
0.000234992
0.000234992
0.000234988
0.000234989
0.000234991
0.000239648
0.000239493
0.000234988
0.00023499
0.000234986
0.000239492
0.000239645
0.000239489
0.000234988
0.000234988
0.000234985
0.000234988
0.00023964
0.000239489
0.000234989
0.000234989
0.000234992
0.000234989
0.00023499
0.000234987
0.000234989
0.000239643
0.000239493
0.000234991
0.000234989
0.000234986
0.000239494
0.000239638
0.000239488
0.000234989
0.000234993
0.000234985
0.000234991
0.000239632
0.000239485
0.000234988
0.000234988
0.000234992
0.000234989
0.000234988
0.000234987
0.000234987
0.000239648
0.000239489
0.000234989
0.000234988
0.000234989
0.000239489
0.000239642
0.000234988
0.00023499
0.000239635
0.000234987
0.00023499
0.00023499
0.000239639
0.000234988
2.80532e-05
2.93671e-05
2.82371e-05
2.82369e-05
5.00632e-05
3.33339e-05
0.000135863
2.85261e-05
5.00624e-05
3.33354e-05
2.8526e-05
0.000135883
3.80327e-05
0.000128106
0.000128071
0.000136371
3.37935e-05
0.000155846
3.23325e-05
1.49142e-05
1.37645e-05
0.000136356
3.37901e-05
0.00015584
3.23293e-05
0.000247978
0.00024798
0.000247978
0.000234242
0.000234242
0.000234243
0.000234242
0.000221135
0.000177181
0.000244535
0.000238034
0.000231085
0.000144939
0.000236258
1.49131e-05
1.37635e-05
0.000221133
0.000244539
0.000177177
0.000238039
0.000231085
0.000236259
0.000144935
0.000123287
0.000123275
0.000241233
0.000110304
0.000110298
0.000139243
3.23968e-05
0.000151546
3.2278e-05
1.3783e-05
1.37226e-05
0.000139245
3.23937e-05
0.000151543
3.22746e-05
0.000234166
0.000234166
0.000234166
0.000234144
0.000234144
0.000234144
0.000234144
0.000221276
0.000166122
0.000234237
0.000234993
0.00022597
0.000147814
0.000234213
1.37817e-05
1.37212e-05
0.000221277
0.000234237
0.000166117
0.000234993
0.00022597
0.000234213
0.000147809
0.000119444
0.000119431
0.000239493
0.000111419
0.000111415
0.000139436
3.23897e-05
0.000151544
3.22766e-05
1.37732e-05
1.37228e-05
0.000139433
3.23872e-05
0.000151541
3.22737e-05
0.000234144
0.000234144
0.000234144
0.000234144
0.000234143
0.000234144
0.000234144
0.000221338
0.000166124
0.000234211
0.000234989
0.000225972
0.000148038
0.000234211
1.37716e-05
1.37213e-05
0.000221335
0.000234211
0.000166121
0.000234993
0.000225972
0.000234211
0.000148029
0.000119392
0.000119377
0.000239489
0.000111528
0.000111523
0.000139472
3.23893e-05
0.000151544
3.22765e-05
1.37729e-05
1.37228e-05
0.000139469
3.23864e-05
0.000151541
3.22735e-05
0.000234144
0.000234144
0.000234144
0.000234144
0.000234143
0.000234144
0.000234144
0.00022134
0.000166123
0.000234211
0.000234989
0.000225969
0.000148053
0.000234211
1.37713e-05
1.37213e-05
0.000221341
0.000234211
0.000166119
0.00023499
0.00022597
0.000234211
0.00014805
0.000119387
0.000119373
0.000239491
0.000111529
0.000111524
0.000139473
3.23893e-05
0.000151544
3.22766e-05
1.37728e-05
1.37227e-05
0.000139469
3.23863e-05
0.00015154
3.22734e-05
0.000234144
0.000234144
0.000234143
0.000234144
0.000234144
0.000234144
0.000234144
0.000221344
0.000166125
0.000234211
0.000234987
0.000225971
0.000148065
0.000234211
1.37712e-05
1.37212e-05
0.000221343
0.000234211
0.000166122
0.000234991
0.000225971
0.000234211
0.00014806
0.000119387
0.000119373
0.000239486
0.000111545
0.000111539
0.000139463
3.23895e-05
0.000151545
3.22767e-05
1.37728e-05
1.37226e-05
0.000139449
3.23865e-05
0.000151542
3.22734e-05
0.000234144
0.000234144
0.000234144
0.000234144
0.000234144
0.000234144
0.000234144
0.000221343
0.000166123
0.000234211
0.000234987
0.00022597
0.000148059
0.000234211
1.37713e-05
1.37213e-05
0.00022134
0.000234211
0.000166119
0.00023499
0.000225969
0.000234211
0.000148047
0.000119386
0.000119372
0.000239484
0.000111541
0.000111537
0.000139444
3.23896e-05
0.00015154
3.22766e-05
1.37728e-05
1.37227e-05
0.000139439
3.23865e-05
0.000151537
3.22734e-05
0.000234143
0.000234143
0.000234144
0.000234144
0.000234144
0.000234144
0.000234144
0.000221336
0.000166121
0.000234211
0.000234989
0.000225968
0.000148043
0.000234211
1.37714e-05
1.37213e-05
0.000221337
0.000234211
0.000166117
0.000234989
0.000225967
0.000234211
0.000148041
0.000119387
0.000119373
0.000239485
0.000111524
0.000111519
0.000139467
3.23895e-05
0.000151543
3.22766e-05
1.37726e-05
1.37226e-05
0.000139454
3.23865e-05
0.00015154
3.22734e-05
0.000234143
0.000234144
0.000234143
0.000234144
0.000234144
0.000234144
0.000234144
0.000221343
0.000166123
0.000234211
0.000234989
0.00022597
0.000148061
0.000234211
1.37713e-05
1.37213e-05
0.000221339
0.000234211
0.000166119
0.000234991
0.000225969
0.000234211
0.000148051
0.000119386
0.000119372
0.00023949
0.000111539
0.000111534
0.000139492
3.23893e-05
0.000151545
3.22767e-05
1.37725e-05
1.37226e-05
0.000139485
3.23863e-05
0.000151541
3.22735e-05
0.000234143
0.000234144
0.000234143
0.000234144
0.000234144
0.000234144
0.000234143
0.000221347
0.000166125
0.000234211
0.000234989
0.000225972
0.000148067
0.000234211
1.37711e-05
1.37212e-05
0.00022135
0.000234211
0.000166121
0.000234991
0.000225972
0.000234211
0.000148068
0.000119384
0.000119372
0.000239492
0.000111542
0.000111535
0.000139479
3.23895e-05
0.000151547
3.22769e-05
1.37725e-05
1.37226e-05
0.000139476
3.23865e-05
0.000151544
3.22737e-05
0.000234143
0.000234144
0.000234144
0.000234144
0.000234143
0.000234144
0.000234143
0.000221349
0.000166125
0.000234211
0.00023499
0.000225973
0.000148073
0.000234211
1.37712e-05
1.37212e-05
0.000221347
0.000234211
0.000166122
0.000234989
0.000225973
0.000234211
0.000148063
0.000119387
0.000119372
0.000239491
0.000111555
0.000111553
0.00013948
3.23897e-05
0.000151544
3.22771e-05
1.37727e-05
1.37226e-05
0.000139478
3.23865e-05
0.00015154
3.22737e-05
0.000234144
0.000234143
0.000234144
0.000234144
0.000234144
0.000234144
0.000234144
0.000221347
0.000166123
0.000234211
0.000234989
0.000225971
0.000148058
0.000234211
1.37713e-05
1.37213e-05
0.000221347
0.000234211
0.000166119
0.000234988
0.000225971
0.000234211
0.000148058
0.000119387
0.000119372
0.000239488
0.000111546
0.000111539
0.000139439
3.239e-05
0.000151544
3.2277e-05
1.37728e-05
1.37227e-05
3.23868e-05
0.00015154
0.000234144
0.000234144
0.000234144
0.000221336
0.000166119
0.000234211
0.000234989
0.000225967
0.000148038
0.000234211
1.37714e-05
0.000221336
0.000234211
0.000166116
0.000225967
0.000234211
0.000119384
0.00011937
0.000239486
0.000111522
0.000111514
3.80332e-05
0.000128084
0.000128076
1.90689e-05
0.000147064
1.90666e-05
0.000147057
0.000145867
8.40096e-05
8.39939e-05
0.000185967
0.00018594
5.00674e-05
3.33387e-05
0.000135894
2.85264e-05
5.00647e-05
3.33332e-05
0.000135846
2.85263e-05
0.000178554
3.83144e-05
0.000168625
0.000149692
0.000178564
3.83157e-05
0.000168641
0.000149679
0.00015543
0.000144227
0.000166592
0.000262835
0.000197262
0.000126693
0.000236687
0.000155424
0.000144249
0.00016658
0.000262829
0.000197183
0.000126687
0.000236683
3.8022e-05
0.000128096
0.00012807
1.9069e-05
0.000147086
0.000145897
8.4003e-05
8.39835e-05
0.00018594
0.000185943
1.90698e-05
0.000147058
5.00655e-05
3.334e-05
0.000135885
2.85265e-05
5.00661e-05
3.33339e-05
2.85263e-05
0.00013586
0.000178564
3.82992e-05
0.000168616
0.000149679
0.000155446
0.000144222
0.000166584
0.00026282
0.00019723
0.000126694
0.000236682
0.000178569
3.83136e-05
0.000168641
0.000149681
0.000155386
0.000144254
0.00026283
0.00016656
0.000126697
0.000197219
0.000236683
2.80532e-05
2.93652e-05
2.8237e-05
2.82369e-05
2.80532e-05
2.93654e-05
2.82369e-05
2.82368e-05
2.80532e-05
2.93668e-05
2.82369e-05
2.82369e-05
0.000151495
0.000130722
0.000249607
0.000249605
0.000138283
0.000138282
0.000244217
0.000151498
0.000130728
0.000249606
0.000249606
0.000138276
0.000138278
0.000244217
0.000151496
0.000130739
0.000249606
0.000249606
0.00013828
0.000138283
0.000244217
0.000151499
0.000130716
0.000249608
0.000249606
0.00013828
0.000138282
0.000244218
5.00577e-05
3.33391e-05
2.85262e-05
0.00013588
0.000155433
0.000144243
0.000166561
0.000262821
0.000197237
0.000126694
0.000236684
0.000178562
3.83118e-05
0.000168631
0.000149674
0.00015545
0.000144219
0.000262834
0.000166586
0.000126695
0.000197247
0.000236689
0.000178566
3.83024e-05
0.000168631
0.000149691
3.80214e-05
0.000128092
0.000128082
1.90707e-05
0.000147084
0.000145906
8.39777e-05
8.39637e-05
0.000185957
0.000185962
1.90724e-05
0.00014708
5.00601e-05
3.33381e-05
2.85261e-05
0.000135856
0.000155417
0.000144247
0.000262828
0.000166553
0.000126701
0.00019727
0.000236686
0.000155404
0.000144219
0.000262824
0.000166582
0.000126695
0.000197207
0.000236688
0.00017855
3.83128e-05
0.000168661
0.000149679
0.000178545
3.83001e-05
0.000168619
0.000149686
0.000145863
8.39842e-05
8.39682e-05
0.000185988
0.000185934
1.90696e-05
0.000147092
1.90702e-05
0.00014707
1.49146e-05
1.37651e-05
1.49132e-05
1.37637e-05
0.000123291
0.000123278
0.000241229
0.000110286
0.000110284
1.37263e-05
1.3834e-05
1.37248e-05
1.38326e-05
0.000240587
0.000111155
0.000111153
0.000119597
0.000119584
0.000136368
3.37932e-05
0.000155844
3.23313e-05
0.000221134
0.000177184
0.000244533
0.000238037
0.000231088
0.000144933
0.000236259
0.000221133
0.000177181
0.000244531
0.000238034
0.000231087
0.000144925
0.000236259
0.000151526
3.22824e-05
3.24434e-05
0.000138702
0.000151526
3.22814e-05
3.24426e-05
0.000138703
0.000226023
0.000235363
0.000147223
0.000234281
0.000166334
0.000234632
0.000221158
0.000226023
0.000235363
0.000147209
0.000234281
0.000166325
0.000234632
0.000221158
0.000123285
0.000123288
0.00024123
0.000110295
0.000110296
1.49139e-05
1.37649e-05
1.37256e-05
1.38333e-05
0.000240586
0.000111155
0.000111154
0.000119587
0.000119601
1.37261e-05
1.38339e-05
0.000221129
0.000177177
0.000244533
0.000238034
0.000231085
0.000144917
0.000236259
0.000136354
3.37895e-05
0.000155841
3.23282e-05
0.000221128
0.000244535
0.000177173
0.000238035
0.000231085
0.000236259
0.000144915
0.000151521
3.22791e-05
3.24405e-05
0.000138695
0.000226021
0.000235362
0.000147208
0.000234281
0.000166321
0.000234632
0.000221155
0.000151521
3.22779e-05
3.24393e-05
0.000138696
0.000226021
0.000235363
0.000234282
0.0001472
0.000234632
0.000166319
0.000221155
0.000136376
3.3791e-05
0.000155842
3.23313e-05
0.000221135
0.000244536
0.000177181
0.000238036
0.000231087
0.00023626
0.00014494
0.000136371
3.379e-05
0.000155845
3.23297e-05
0.000226023
0.000235362
0.000147218
0.000234281
0.000166334
0.000234632
0.000221158
0.000151526
3.22813e-05
3.24422e-05
0.000138703
0.000226024
0.000235363
0.000234281
0.000147214
0.000234632
0.000166331
0.000221157
0.000151526
3.228e-05
3.24409e-05
0.000138697
0.000123277
0.000123282
0.00024123
0.000110287
0.000110292
1.49133e-05
1.37642e-05
1.37243e-05
1.38322e-05
0.000240587
0.000111147
0.000111148
0.000119579
0.000119596
1.37254e-05
1.38331e-05
0.000221133
0.000244536
0.000177177
0.000238034
0.000231086
0.000236259
0.000144928
0.000136371
3.37897e-05
0.00015584
3.23297e-05
0.000136368
3.37895e-05
0.000155842
3.2329e-05
0.000226022
0.000235363
0.000234282
0.000147213
0.000234632
0.000166329
0.000221157
0.000226023
0.000235361
0.000234281
0.000147204
0.000234632
0.000166322
0.000221155
0.000151524
3.22794e-05
3.24407e-05
0.000138701
0.000151524
3.22789e-05
3.24403e-05
0.000138694
1.49138e-05
1.37643e-05
1.49131e-05
1.37639e-05
0.000240594
0.000111153
0.000111154
0.000119597
0.000119585
1.37256e-05
1.38334e-05
1.37248e-05
1.38327e-05
1.37837e-05
1.37234e-05
1.37821e-05
1.37218e-05
0.000119447
0.000119432
0.000239488
0.000111421
0.000111418
1.37231e-05
1.37753e-05
1.37218e-05
1.37738e-05
0.000239652
0.000111508
0.000111501
0.00011941
0.000119395
0.000139244
3.23961e-05
0.000151547
3.22769e-05
0.00022128
0.000166123
0.000234238
0.000234995
0.000225971
0.000147809
0.000234213
0.00022128
0.000166113
0.000234237
0.000234993
0.00022597
0.000147794
0.000234213
0.000151548
3.22767e-05
3.23911e-05
0.000139395
0.000151549
3.22763e-05
3.23903e-05
0.0001394
0.000225975
0.000234994
0.000147981
0.000234211
0.000166126
0.000234214
0.000221321
0.000225974
0.000234996
0.000147968
0.000234211
0.000166116
0.000234214
0.000221322
0.000119434
0.000119449
0.000239495
0.000111419
0.000111431
1.37835e-05
1.37233e-05
1.37227e-05
1.37745e-05
0.000239648
0.000111506
0.000111512
0.000119396
0.000119415
1.37232e-05
1.37751e-05
0.000221278
0.00016611
0.000234237
0.000234996
0.00022597
0.000147793
0.000234213
0.000139248
3.23925e-05
0.000151544
3.22732e-05
0.00022128
0.000234237
0.000166107
0.000234993
0.00022597
0.000234213
0.000147788
0.000151545
3.2274e-05
3.23881e-05
0.000139394
0.000225973
0.000234992
0.000147964
0.000234211
0.000166114
0.000234214
0.00022132
0.000151546
3.22724e-05
3.23864e-05
0.000139397
0.000225974
0.000234994
0.000234211
0.000147963
0.000234214
0.000166111
0.000221322
0.000139234
3.23956e-05
0.000151546
3.22768e-05
0.000221277
0.000234238
0.000166118
0.000234994
0.000225971
0.000234213
0.000147801
0.000139239
3.23945e-05
0.000151546
3.22753e-05
0.000225974
0.00023499
0.000147983
0.000234211
0.000166128
0.000234213
0.000221323
0.000151546
3.2276e-05
3.23898e-05
0.0001394
0.000225975
0.000234993
0.000234211
0.000147975
0.000234214
0.000166122
0.000221323
0.000151547
3.22744e-05
3.23884e-05
0.0001394
0.000119426
0.000119444
0.000239495
0.000111411
0.000111424
1.3783e-05
1.37223e-05
1.37212e-05
1.3773e-05
0.000239655
0.000111499
0.000111504
0.000119389
0.000119409
1.37224e-05
1.37743e-05
0.000221276
0.000234237
0.000166109
0.000234992
0.00022597
0.000234213
0.000147787
0.000139239
3.2394e-05
0.000151545
3.22751e-05
0.00013924
3.23936e-05
0.000151544
3.22743e-05
0.000225974
0.000234991
0.000234211
0.000147976
0.000234214
0.000166123
0.000221321
0.000225974
0.000234994
0.000234211
0.000147959
0.000234214
0.000166112
0.000221322
0.000151545
3.22745e-05
3.23883e-05
0.000139397
0.000151546
3.22735e-05
3.23875e-05
0.000139398
1.3783e-05
1.37222e-05
1.37823e-05
1.37216e-05
0.000239649
0.000111502
0.000111496
0.000119407
0.000119394
1.37223e-05
1.37742e-05
1.37217e-05
1.37736e-05
1.37736e-05
1.37232e-05
1.37723e-05
1.37219e-05
0.000119395
0.000119379
0.000239486
0.000111525
0.000111517
1.37233e-05
1.37732e-05
1.37219e-05
1.37719e-05
0.000239644
0.000111547
0.000111541
0.000119387
0.000119371
0.000139439
3.23894e-05
0.000151546
3.22761e-05
0.000221334
0.000166124
0.000234211
0.000234991
0.000225972
0.000148033
0.000234211
0.000221335
0.000166115
0.000234211
0.000234989
0.000225972
0.000148021
0.000234211
0.000151542
3.22765e-05
3.23893e-05
0.000139466
0.000151543
3.22761e-05
3.23891e-05
0.000139461
0.000225971
0.000234989
0.00014806
0.000234211
0.000166123
0.000234211
0.000221343
0.000225971
0.000234989
0.000148036
0.000234211
0.000166114
0.000234211
0.000221342
0.000119381
0.000119397
0.000239483
0.000111529
0.000111531
1.37736e-05
1.37233e-05
1.37228e-05
1.37729e-05
0.000239637
0.000111539
0.000111541
0.000119377
0.000119391
1.37233e-05
1.37734e-05
0.000221333
0.000166112
0.000234211
0.000234988
0.000225971
0.000148015
0.000234211
0.000139436
3.23855e-05
0.000151542
3.22722e-05
0.000221334
0.000234211
0.000166108
0.000234989
0.000225971
0.000234211
0.000148009
0.000151539
3.22735e-05
3.23866e-05
0.000139467
0.00022597
0.000234989
0.000148044
0.000234211
0.000166109
0.000234211
0.000221342
0.00015154
3.22722e-05
3.23852e-05
0.000139465
0.00022597
0.00023499
0.000234211
0.000148031
0.000234211
0.000166106
0.000221342
0.000139451
3.23889e-05
0.000151545
3.22759e-05
0.000221339
0.000234211
0.000166122
0.000234986
0.000225973
0.000234211
0.000148031
0.000139452
3.23873e-05
0.000151545
3.22743e-05
0.00022597
0.000234991
0.000148049
0.000234211
0.000166122
0.000234211
0.000221339
0.000151543
3.22758e-05
3.23887e-05
0.000139454
0.000225971
0.000234991
0.000234211
0.000148046
0.000234211
0.00016612
0.000221338
0.000151544
3.22742e-05
3.23871e-05
0.000139451
0.000119374
0.000119393
0.000239488
0.000111515
0.00011152
1.37729e-05
1.37225e-05
1.37213e-05
1.37713e-05
0.00023964
0.00011153
0.000111533
0.000119367
0.000119386
1.37225e-05
1.37726e-05
0.000221336
0.000234211
0.00016611
0.000234988
0.000225972
0.000234211
0.000148016
0.000139442
3.23872e-05
0.000151543
3.2274e-05
0.000139445
3.23866e-05
0.000151543
3.22734e-05
0.00022597
0.00023499
0.000234211
0.000148044
0.000234211
0.000166119
0.000221339
0.00022597
0.000234989
0.000234211
0.000148034
0.000234211
0.000166109
0.000221339
0.000151541
3.22739e-05
3.23868e-05
0.000139453
0.000151542
3.22733e-05
3.23863e-05
0.000139452
1.37727e-05
1.37224e-05
1.37721e-05
1.37218e-05
0.000239633
0.000111539
0.000111537
0.000119388
0.000119373
1.37224e-05
1.37725e-05
1.37218e-05
1.37719e-05
1.37733e-05
1.37233e-05
1.37719e-05
1.37219e-05
0.00011939
0.000119373
0.000239488
0.000111547
0.000111538
1.37235e-05
1.37735e-05
1.37219e-05
1.37719e-05
0.000239644
0.000111553
0.000111547
0.000119388
0.000119371
0.000139469
3.23891e-05
0.000151544
3.2276e-05
0.000221345
0.000166125
0.000234211
0.00023499
0.000225972
0.000148059
0.000234211
0.000221344
0.000166113
0.000234211
0.000234989
0.000225972
0.000148043
0.000234211
0.000151543
3.22766e-05
3.23893e-05
0.000139481
0.000151543
3.22761e-05
3.2389e-05
0.000139479
0.000225972
0.000234989
0.000148066
0.000234211
0.000166124
0.000234211
0.000221348
0.000225972
0.000234989
0.000148051
0.00023421
0.000166114
0.000234211
0.000221347
0.000119376
0.000119391
0.000239483
0.00011154
0.000111544
1.37734e-05
1.37233e-05
1.37228e-05
1.37728e-05
0.000239637
0.000111549
0.000111559
0.000119375
0.00011939
1.37233e-05
1.37733e-05
0.000221344
0.000166111
0.000234211
0.00023499
0.00022597
0.000148041
0.000234211
0.000139467
3.23852e-05
0.000151542
3.22722e-05
0.000221343
0.000234211
0.000166106
0.00023499
0.00022597
0.000234211
0.000148034
0.000151541
3.22735e-05
3.23863e-05
0.000139475
0.000225971
0.000234989
0.000148049
0.000234211
0.00016611
0.000234211
0.000221345
0.00015154
3.22722e-05
3.23851e-05
0.000139473
0.00022597
0.00023499
0.000234211
0.000148042
0.000234211
0.000166106
0.000221345
0.000139455
3.23886e-05
0.000151542
3.22757e-05
0.00022134
0.000234211
0.00016612
0.000234988
0.00022597
0.000234211
0.000148042
0.000139454
3.23871e-05
0.000151542
3.22742e-05
0.000225971
0.000234991
0.000148068
0.000234211
0.000166123
0.000234211
0.000221346
0.000151541
3.22758e-05
3.23885e-05
0.000139474
0.000225971
0.000234989
0.000234211
0.000148061
0.000234211
0.000166119
0.000221345
0.000151541
3.22742e-05
3.23869e-05
0.000139473
0.000119367
0.000119386
0.000239491
0.00011153
0.000111536
1.37726e-05
1.37225e-05
1.37213e-05
1.37712e-05
0.000239647
0.000111536
0.000111547
0.000119366
0.000119386
1.37225e-05
1.37725e-05
0.000221341
0.000234211
0.000166109
0.000234987
0.00022597
0.000234211
0.000148027
0.000139457
3.23867e-05
0.00015154
3.22738e-05
0.000139454
3.23863e-05
0.00015154
3.22733e-05
0.000225971
0.000234986
0.000234211
0.000148064
0.000234211
0.000166121
0.000221346
0.000225971
0.00023499
0.000234211
0.000148047
0.000234211
0.000166108
0.000221345
0.000151541
3.22739e-05
3.23866e-05
0.000139473
0.00015154
3.22733e-05
3.23862e-05
0.00013947
1.37726e-05
1.37224e-05
1.3772e-05
1.37218e-05
0.00023964
0.000111547
0.000111543
0.000119385
0.000119371
1.37224e-05
1.37724e-05
1.37218e-05
1.37718e-05
1.37735e-05
1.37235e-05
1.37719e-05
1.37219e-05
0.000119389
0.000119373
0.000239488
0.000111554
0.000111547
1.37235e-05
1.37735e-05
1.37219e-05
1.37719e-05
0.000239639
0.000111547
0.000111542
0.000119389
0.000119372
0.000139473
3.2389e-05
0.000151544
3.22761e-05
0.000221346
0.000166124
0.000234211
0.000234989
0.000225972
0.000148065
0.000234211
0.000221345
0.000166114
0.000234211
0.000234989
0.000225972
0.00014805
0.000234211
0.000151544
3.22767e-05
3.23893e-05
0.000139482
0.000151544
3.22761e-05
3.2389e-05
0.000139479
0.000225972
0.000234988
0.00014806
0.000234211
0.000166123
0.000234211
0.000221347
0.000225971
0.000234991
0.000148046
0.000234211
0.000166113
0.000234211
0.000221346
0.000119376
0.000119393
0.000239491
0.000111548
0.000111559
1.37733e-05
1.37233e-05
1.37228e-05
1.37727e-05
0.000239644
0.000111542
0.000111553
0.000119375
0.000119392
1.37233e-05
1.37733e-05
0.000221344
0.00016611
0.000234211
0.000234993
0.000225971
0.000148048
0.000234211
0.000139471
3.23851e-05
0.000151541
3.22722e-05
0.000221344
0.000234211
0.000166107
0.000234992
0.000225971
0.000234211
0.000148043
0.000151541
3.22734e-05
3.23863e-05
0.000139479
0.00022597
0.00023499
0.000148042
0.000234211
0.00016611
0.000234211
0.000221345
0.000151542
3.22722e-05
3.23851e-05
0.000139481
0.00022597
0.000234994
0.000234211
0.000148039
0.000234211
0.000166106
0.000221346
0.00013947
3.23885e-05
0.000151543
3.22757e-05
0.000221344
0.000234211
0.000166122
0.000234992
0.000225972
0.000234211
0.000148059
0.000139469
3.2387e-05
0.000151543
3.22742e-05
0.000225972
0.000234987
0.000148061
0.000234211
0.000166124
0.000234211
0.000221346
0.000151543
3.22758e-05
3.23885e-05
0.000139478
0.000225972
0.000234993
0.000234211
0.000148057
0.000234211
0.00016612
0.000221346
0.000151543
3.22742e-05
3.2387e-05
0.000139477
0.000119366
0.000119387
0.000239491
0.000111541
0.000111552
1.37725e-05
1.37225e-05
1.37213e-05
1.37712e-05
0.00023964
0.000111534
0.00011155
0.000119367
0.000119387
1.37225e-05
1.37725e-05
0.000221342
0.000234211
0.000166111
0.000234986
0.000225971
0.000234211
0.000148042
0.000139468
3.23866e-05
0.000151542
3.22738e-05
0.000139464
3.23863e-05
0.000151542
3.22733e-05
0.000225971
0.000234987
0.000234211
0.000148059
0.000234211
0.00016612
0.000221346
0.000225971
0.000234988
0.000234211
0.00014804
0.000234211
0.000166108
0.000221344
0.000151542
3.22739e-05
3.23865e-05
0.000139479
0.000151541
3.22733e-05
3.23862e-05
0.000139472
1.37724e-05
1.37224e-05
1.37718e-05
1.37218e-05
0.000239639
0.000111543
0.000111538
0.000119386
0.000119371
1.37224e-05
1.37724e-05
1.37218e-05
1.37718e-05
1.37737e-05
1.37237e-05
1.37721e-05
1.3722e-05
0.000119389
0.000119372
0.000239486
0.000111532
0.000111526
1.37237e-05
1.37738e-05
1.3722e-05
1.37721e-05
0.000239637
0.000111529
0.000111523
0.000119387
0.000119371
0.000139458
3.23891e-05
0.000151545
3.2276e-05
0.000221341
0.000166124
0.000234211
0.000234988
0.00022597
0.000148048
0.000234211
0.00022134
0.000166112
0.000234211
0.000234989
0.00022597
0.000148036
0.000234211
0.000151543
3.22766e-05
3.23896e-05
0.000139442
0.000151543
3.2276e-05
3.23891e-05
0.000139444
0.000225968
0.000234988
0.000148043
0.000234211
0.000166121
0.000234211
0.000221335
0.000225968
0.000234991
0.000148033
0.000234211
0.00016611
0.000234211
0.000221336
0.000119375
0.000119392
0.00023949
0.000111536
0.00011155
1.37733e-05
1.37233e-05
1.37227e-05
1.37728e-05
0.000239642
0.00011153
0.000111537
0.000119375
0.000119392
1.37233e-05
1.37734e-05
0.000221337
0.000166108
0.000234211
0.000234992
0.000225968
0.000148027
0.000234211
0.000139449
3.23852e-05
0.000151543
3.22722e-05
0.000221337
0.000234211
0.000166106
0.000234991
0.000225968
0.000234211
0.000148024
0.000151539
3.22733e-05
3.23865e-05
0.000139434
0.000225966
0.00023499
0.000148026
0.000234211
0.000166107
0.000234211
0.000221333
0.000151539
3.22721e-05
3.23852e-05
0.000139437
0.000225966
0.000234994
0.000234211
0.000148023
0.000234211
0.000166102
0.000221334
0.000139467
3.23885e-05
0.000151544
3.22758e-05
0.000221344
0.000234211
0.00016612
0.000234992
0.000225971
0.000234211
0.000148055
0.000139468
3.2387e-05
0.000151544
3.22742e-05
0.000225969
0.000234986
0.000148048
0.000234211
0.000166122
0.000234211
0.000221339
0.000151543
3.22758e-05
3.23886e-05
0.000139453
0.00022597
0.000234993
0.000234211
0.000148052
0.000234211
0.000166119
0.000221339
0.000151544
3.22742e-05
3.2387e-05
0.000139454
0.000119367
0.000119388
0.000239489
0.000111524
0.000111539
1.37726e-05
1.37225e-05
1.37213e-05
1.37714e-05
0.000239637
0.000111521
0.000111531
0.000119366
0.000119387
1.37226e-05
1.37727e-05
0.00022134
0.000234211
0.000166109
0.000234986
0.000225969
0.000234211
0.000148037
0.000139461
3.23866e-05
0.000151542
3.22738e-05
0.00013946
3.23863e-05
0.000151542
3.22733e-05
0.000225968
0.000234986
0.000234211
0.000148043
0.000234211
0.000166118
0.000221337
0.000225968
0.000234987
0.000234211
0.000148034
0.000234211
0.000166107
0.000221336
0.000151541
3.22738e-05
3.23867e-05
0.000139445
0.000151541
3.22732e-05
3.23863e-05
0.000139444
1.37724e-05
1.37224e-05
1.37718e-05
1.37218e-05
0.000239637
0.000111538
0.000111534
0.000119386
0.000119372
1.37224e-05
1.37725e-05
1.37218e-05
1.37719e-05
1.37738e-05
1.37237e-05
1.37721e-05
1.3722e-05
0.000119388
0.000119371
0.000239484
0.000111529
0.000111525
1.37236e-05
1.37736e-05
1.3722e-05
1.37719e-05
0.000239638
0.00011154
0.000111537
0.000119386
0.00011937
0.000139447
3.23892e-05
0.000151542
3.2276e-05
0.000221338
0.000166122
0.000234211
0.000234991
0.000225967
0.000148046
0.000234211
0.000221338
0.000166111
0.000234211
0.000234985
0.000225968
0.000148034
0.00023421
0.000151541
3.22766e-05
3.23895e-05
0.000139463
0.000151542
3.2276e-05
3.23892e-05
0.000139457
0.000225969
0.000234989
0.000148057
0.000234211
0.000166122
0.000234211
0.000221343
0.000225969
0.000234989
0.000148039
0.000234211
0.000166112
0.000234211
0.000221341
0.000119374
0.00011939
0.00023949
0.000111527
0.000111527
1.37735e-05
1.37234e-05
1.37227e-05
1.37727e-05
0.000239638
0.000111534
0.000111536
0.000119374
0.000119388
1.37233e-05
1.37734e-05
0.000221335
0.000166108
0.000234211
0.000234991
0.000225967
0.000148032
0.000234211
0.000139442
3.23852e-05
0.000151539
3.22721e-05
0.000221336
0.000234211
0.000166105
0.000234992
0.000225967
0.000234211
0.000148028
0.000151538
3.22734e-05
3.23865e-05
0.000139462
0.000225968
0.000234988
0.000148041
0.000234211
0.00016611
0.000234211
0.000221341
0.000151539
3.22722e-05
3.23852e-05
0.000139461
0.000225969
0.000234991
0.000234211
0.000148032
0.000234211
0.000166106
0.000221341
0.000139443
3.23887e-05
0.000151542
3.22758e-05
0.000221337
0.000234211
0.00016612
0.000234992
0.000225969
0.000234211
0.00014804
0.000139445
3.23871e-05
0.000151543
3.22742e-05
0.000225968
0.000234989
0.00014805
0.000234211
0.000166121
0.000234211
0.000221339
0.000151541
3.22758e-05
3.23887e-05
0.000139452
0.000225969
0.000234993
0.000234211
0.000148046
0.000234211
0.000166117
0.00022134
0.000151541
3.22742e-05
3.23871e-05
0.000139453
0.000119366
0.000119386
0.000239489
0.000111524
0.000111524
1.37727e-05
1.37226e-05
1.37213e-05
1.37713e-05
0.000239645
0.000111527
0.00011153
0.000119366
0.000119384
1.37225e-05
1.37726e-05
0.000221337
0.000234211
0.000166109
0.000234988
0.000225968
0.000234211
0.000148025
0.000139446
3.23868e-05
0.00015154
3.22739e-05