/*--------------------------------*- C++ -*----------------------------------*\
| =========                 |                                                 |
| \\      /  F ield         | OpenFOAM: The Open Source CFD Toolbox           |
|  \\    /   O peration     | Version:  2206                                  |
|   \\  /    A nd           | Website:  www.openfoam.com                      |
|    \\/     M anipulation  |                                                 |
\*---------------------------------------------------------------------------*/
FoamFile
{
    version     2.0;
    format      ascii;
    arch        "LSB;label=32;scalar=64";
    class       volScalarField;
    location    "3";
    object      p;
}
// * * * * * * * * * * * * * * * * * * * * * * * * * * * * * * * * * * * * * //

dimensions      [0 2 -2 0 0 0 0];

internalField   nonuniform List<scalar> 
28515
(
-0.000304508
-0.000300828
-0.000300836
-0.000286996
-0.000268106
-0.000264285
-0.000264278
-0.000254112
-0.000256423
-0.000249374
-0.00024937
-0.000232142
-0.000245539
-0.000238337
-0.000238328
-0.000220216
-0.000235514
-0.000228285
-0.00022828
-0.000210031
-0.000225469
-0.000218256
-0.000218258
-0.000200006
-0.000215421
-0.000208218
-0.000208215
-0.000190006
-0.000205382
-0.000198159
-0.000198159
-0.000179941
-0.000195337
-0.000188094
-0.000188089
-0.00016984
-0.000185272
-0.000178033
-0.000178037
-0.000159735
-0.000175205
-0.000167991
-0.000167988
-0.000149743
-0.000165154
-0.000157957
-0.000157955
-0.000139761
-0.000275989
-0.000268746
-0.00026872
-0.000275959
-0.000268733
-0.000268725
-0.000241938
-0.000241933
-0.000241943
-0.000241934
-0.000268722
-0.000268727
-0.000275966
-0.000268732
-0.00026872
-0.00027597
-0.000287018
-0.000270412
-0.000300836
-0.000300824
-0.00025582
-0.000255821
-0.000287004
-0.000270373
-0.000300836
-0.000300835
-0.000255792
-0.000255827
-0.00030083
-0.000255782
-0.000255823
-0.00028701
-0.000270402
-0.000300826
-0.000255788
-0.000255782
-0.000270392
-0.000254101
-0.000276291
-0.000264249
-0.000264246
-0.000249737
-0.000249737
-0.000254121
-0.00027629
-0.00026428
-0.000264233
-0.000249712
-0.000249728
-0.000264237
-0.000249711
-0.000249732
-0.000254095
-0.000276292
-0.000264286
-0.000249707
-0.000249708
-0.000276303
-0.000232165
-0.000269214
-0.000249355
-0.000249356
-0.000240852
-0.000240858
-0.000232168
-0.000269197
-0.00024937
-0.000249348
-0.000240848
-0.000240848
-0.000249348
-0.00024086
-0.000240858
-0.000232153
-0.0002692
-0.000249365
-0.00024085
-0.000240848
-0.00026921
-0.000220191
-0.000259422
-0.000238329
-0.000238333
-0.000230791
-0.000230787
-0.000220228
-0.000259411
-0.000238326
-0.000238326
-0.000230789
-0.000230785
-0.000238335
-0.000230789
-0.000230788
-0.000220202
-0.00025942
-0.000238328
-0.000230786
-0.000230784
-0.000259425
-0.000210038
-0.000249402
-0.000228285
-0.000228282
-0.000220767
-0.000220764
-0.00021005
-0.000249396
-0.000228283
-0.000228278
-0.000220767
-0.000220764
-0.000228281
-0.000220762
-0.00022076
-0.000210027
-0.000249404
-0.000228277
-0.000220763
-0.000220759
-0.000249424
-0.000200055
-0.000239357
-0.000218262
-0.000218259
-0.000210733
-0.000210731
-0.000200041
-0.000239349
-0.000218262
-0.00021826
-0.000210729
-0.000210727
-0.000218256
-0.000210731
-0.000210727
-0.000200035
-0.000239356
-0.000218254
-0.000210728
-0.000210724
-0.000239379
-0.000190032
-0.000229304
-0.000208219
-0.000208217
-0.000200672
-0.000200669
-0.000190039
-0.000229294
-0.000208214
-0.000208213
-0.000200669
-0.00020067
-0.000208216
-0.000200674
-0.000200674
-0.000190021
-0.000229294
-0.000208212
-0.000200672
-0.000200669
-0.000229309
-0.000179934
-0.000219246
-0.000198156
-0.000198154
-0.000190608
-0.000190606
-0.000179949
-0.000219235
-0.000198155
-0.000198157
-0.000190606
-0.000190606
-0.000198158
-0.000190611
-0.00019061
-0.000179947
-0.000219249
-0.000198155
-0.000190607
-0.000190605
-0.000219251
-0.000169836
-0.000209183
-0.000188093
-0.00018809
-0.000180555
-0.000180548
-0.000169857
-0.000209181
-0.000188089
-0.000188087
-0.000180552
-0.000180549
-0.000188092
-0.000180547
-0.000180545
-0.000169828
-0.000209197
-0.000188085
-0.000180548
-0.000180541
-0.000209222
-0.000159802
-0.000199132
-0.000178043
-0.000178037
-0.000170502
-0.000170498
-0.000159785
-0.000199133
-0.000178041
-0.000178039
-0.000170502
-0.0001705
-0.00017803
-0.000170498
-0.0001705
-0.000159773
-0.000199132
-0.000178028
-0.0001705
-0.000170497
-0.00019916
-0.000149771
-0.000189081
-0.000167991
-0.000167989
-0.000160465
-0.000160463
-0.000149764
-0.000189074
-0.000167989
-0.000167987
-0.000160463
-0.000160463
-0.000167991
-0.000160468
-0.000160468
-0.00014976
-0.000189082
-0.000167986
-0.000160464
-0.000160463
-0.000189094
-0.000139773
-0.000157956
-0.000157956
-0.000139774
-0.000157954
-0.000157956
-0.000157956
-0.00013976
-0.000157952
-0.000269667
-0.000294861
-0.000280496
-0.000280493
-0.000308964
-0.000300312
-0.00025743
-0.000285712
-0.000308964
-0.000300306
-0.000285712
-0.00025739
-0.000311993
-0.000255462
-0.000255468
-0.000284952
-0.000266723
-0.000276987
-0.000287193
-0.000246101
-0.000287395
-0.00028496
-0.000266747
-0.000277003
-0.000287195
-0.000304502
-0.000304516
-0.000304506
-0.000258238
-0.00025823
-0.000258241
-0.000258241
-0.000278849
-0.000285326
-0.000304912
-0.000258505
-0.000268807
-0.000270462
-0.000249822
-0.000246115
-0.00028741
-0.000278854
-0.000304919
-0.000285337
-0.000258514
-0.000268817
-0.000249816
-0.000270469
-0.000268684
-0.000268684
-0.000263436
-0.000281393
-0.0002814
-0.000306479
-0.000225783
-0.000227911
-0.000307795
-0.00022629
-0.000306415
-0.000306451
-0.000225778
-0.000227883
-0.000307769
-0.000268111
-0.000268098
-0.000268097
-0.000256054
-0.000256065
-0.000256054
-0.000256057
-0.000291818
-0.000246802
-0.000265502
-0.000252906
-0.000236425
-0.000282903
-0.0002537
-0.000226297
-0.000306397
-0.000291794
-0.000265502
-0.000246803
-0.000252898
-0.0002364
-0.00025368
-0.000282888
-0.000230552
-0.000230531
-0.000275973
-0.000300032
-0.000300029
-0.000308446
-0.000198104
-0.000200983
-0.000309005
-0.000199002
-0.000307174
-0.000308448
-0.000198108
-0.00020098
-0.000309003
-0.000256431
-0.000256422
-0.000256431
-0.000248037
-0.000248043
-0.000248031
-0.000248038
-0.000290286
-0.000221311
-0.000250315
-0.000245812
-0.000210222
-0.000281855
-0.000246453
-0.000198991
-0.000307173
-0.000290274
-0.000250308
-0.000221308
-0.000245805
-0.000210214
-0.000246437
-0.000281848
-0.000203455
-0.000203445
-0.000273547
-0.000300145
-0.000300149
-0.000300079
-0.000184939
-0.000187914
-0.000300508
-0.000185878
-0.000298628
-0.000300086
-0.000184942
-0.000187916
-0.000300512
-0.000245536
-0.000245529
-0.000245534
-0.000238022
-0.000238015
-0.000238013
-0.00023801
-0.000281396
-0.000208555
-0.000239016
-0.000235813
-0.000197392
-0.00027302
-0.000236487
-0.00018586
-0.000298635
-0.000281379
-0.000239001
-0.000208546
-0.000235807
-0.000197392
-0.000236475
-0.000273017
-0.000190399
-0.000190383
-0.000264378
-0.000291496
-0.000291508
-0.000290189
-0.000174651
-0.000177639
-0.000290608
-0.000175588
-0.000288727
-0.00029019
-0.000174656
-0.000177646
-0.00029061
-0.000235506
-0.000235506
-0.000235501
-0.000227982
-0.000227979
-0.00022798
-0.000227971
-0.000271441
-0.000198313
-0.000228952
-0.000225777
-0.000187187
-0.000263089
-0.000226444
-0.000175573
-0.000288734
-0.000271428
-0.000228942
-0.000198306
-0.000225775
-0.00018719
-0.000226437
-0.000263088
-0.000180111
-0.0001801
-0.000254431
-0.000281603
-0.000281614
-0.00028013
-0.000164611
-0.000167573
-0.000280561
-0.000165549
-0.000278679
-0.000280115
-0.000164623
-0.000167579
-0.000280557
-0.000225469
-0.000225468
-0.000225462
-0.00021793
-0.000217938
-0.000217935
-0.000217937
-0.000261468
-0.000188258
-0.000218928
-0.000215749
-0.00017711
-0.000253079
-0.000216424
-0.000165541
-0.00027868
-0.000261477
-0.000218925
-0.000188253
-0.000215749
-0.000177104
-0.000216418
-0.000253085
-0.000170064
-0.000170056
-0.000244408
-0.000271568
-0.000271577
-0.000270085
-0.000154584
-0.000157513
-0.00027052
-0.000155524
-0.000268633
-0.000270082
-0.000154592
-0.000157525
-0.00027052
-0.000215426
-0.000215425
-0.000215426
-0.000207892
-0.00020789
-0.000207892
-0.000207889
-0.00025147
-0.000178209
-0.000208893
-0.000205705
-0.00016701
-0.000243044
-0.000206379
-0.000155515
-0.000268634
-0.000251453
-0.000208885
-0.000178208
-0.000205702
-0.000167018
-0.000206371
-0.000243038
-0.000160041
-0.000160031
-0.000234341
-0.000261502
-0.000261512
-0.000260061
-0.000144531
-0.000147504
-0.000260476
-0.000145473
-0.000258591
-0.000260038
-0.000144546
-0.000147517
-0.000260468
-0.000205379
-0.000205379
-0.000205377
-0.000197848
-0.000197844
-0.00019784
-0.000197836
-0.000241311
-0.000168186
-0.000198828
-0.000195643
-0.000157027
-0.000232951
-0.000196309
-0.00014547
-0.000258587
-0.00024132
-0.000198821
-0.000168178
-0.000195642
-0.00015702
-0.000196302
-0.000232955
-0.000150005
-0.000149996
-0.000224279
-0.000251449
-0.000251459
-0.000250024
-0.00013446
-0.000137464
-0.000250423
-0.000135404
-0.000248535
-0.000250028
-0.000134473
-0.000137473
-0.000250423
-0.000195328
-0.000195328
-0.00019532
-0.000187791
-0.000187778
-0.00018779
-0.000187773
-0.000231186
-0.000158138
-0.000188754
-0.000185577
-0.000147023
-0.000222872
-0.000186237
-0.000135391
-0.000248554
-0.000231165
-0.00018874
-0.000158129
-0.000185572
-0.000147025
-0.000186224
-0.000222875
-0.000139934
-0.000139923
-0.000214229
-0.000241406
-0.000241421
-0.000239939
-0.000124408
-0.000127408
-0.000240354
-0.000125343
-0.000238475
-0.00023993
-0.000124423
-0.000127422
-0.000240349
-0.000185263
-0.000185273
-0.000185261
-0.000177719
-0.000177723
-0.000177721
-0.000177724
-0.000221123
-0.000148077
-0.000178694
-0.00017552
-0.000136985
-0.000212818
-0.000176185
-0.000125334
-0.000238474
-0.000221142
-0.000178691
-0.000148074
-0.000175526
-0.000136989
-0.000176184
-0.000212826
-0.000129851
-0.000129841
-0.000204196
-0.000231361
-0.000231372
-0.000229878
-0.000114352
-0.000117332
-0.000230294
-0.000115291
-0.000228404
-0.000229883
-0.000114367
-0.00011734
-0.000230294
-0.000175209
-0.000175206
-0.000175208
-0.000167666
-0.000167667
-0.00016767
-0.000167662
-0.000211161
-0.000138017
-0.000168662
-0.000165483
-0.000126895
-0.000202791
-0.000166159
-0.000115284
-0.000228411
-0.000211151
-0.000168653
-0.000138011
-0.000165479
-0.000126888
-0.000166149
-0.000202791
-0.000119815
-0.000119808
-0.000194115
-0.000221271
-0.000221284
-0.000219799
-0.000104315
-0.000107245
-0.000220247
-0.000105257
-0.000218361
-0.000104327
-0.000107264
-0.000165156
-0.000165159
-0.00016515
-0.00020124
-0.000127941
-0.000158635
-0.000155444
-0.000116724
-0.000192792
-0.00015612
-0.00010525
-0.000201224
-0.000158627
-0.000127947
-0.000116747
-0.000156118
-0.000109789
-0.000109777
-0.000184084
-0.000211243
-0.000211251
-0.000311993
-0.000255509
-0.000255493
-0.000289518
-0.000270623
-0.000289508
-0.000270646
-0.000214167
-0.000266297
-0.0002663
-0.000271349
-0.000271358
-0.000309001
-0.000300354
-0.000257493
-0.000285731
-0.000309009
-0.000300309
-0.000257417
-0.000285729
-0.000267376
-0.000280407
-0.000268728
-0.000285221
-0.000267395
-0.000280363
-0.00026873
-0.000285217
-0.00024672
-0.000196316
-0.000289126
-0.000240569
-0.000270871
-0.00019009
-0.000280514
-0.000246714
-0.000196209
-0.000289093
-0.000240567
-0.000270876
-0.000190089
-0.00028051
-0.000311926
-0.000255624
-0.00025556
-0.000289479
-0.000270734
-0.00021403
-0.000266267
-0.000266289
-0.000271417
-0.000271393
-0.000289499
-0.000270705
-0.000308995
-0.000300361
-0.000257457
-0.000285728
-0.000308981
-0.000300303
-0.000285724
-0.000257402
-0.000267367
-0.000280396
-0.000268737
-0.000285225
-0.000246726
-0.000196371
-0.000289122
-0.000240573
-0.00027087
-0.000190087
-0.000280518
-0.000267379
-0.000280376
-0.000268718
-0.000285226
-0.00024671
-0.000196208
-0.000240566
-0.000289102
-0.000190089
-0.000270864
-0.000280513
-0.000269666
-0.000294838
-0.000280496
-0.000280485
-0.000269664
-0.000294832
-0.000280491
-0.000280486
-0.000269663
-0.000294852
-0.000280478
-0.000280483
-0.000207816
-0.000195328
-0.000248672
-0.000248679
-0.000200109
-0.000200105
-0.000252735
-0.000207817
-0.000195289
-0.00024867
-0.000248674
-0.000200108
-0.000200099
-0.000252732
-0.000207814
-0.000195289
-0.000248677
-0.000248679
-0.000200105
-0.000200102
-0.000252729
-0.000207813
-0.000195334
-0.000248669
-0.000248673
-0.000200092
-0.000200097
-0.000252726
-0.000308962
-0.000300357
-0.000285706
-0.000257412
-0.000246673
-0.000196234
-0.000289107
-0.000240566
-0.000270886
-0.000190077
-0.000280507
-0.000267337
-0.000280388
-0.000268755
-0.000285212
-0.000246654
-0.00019642
-0.000240557
-0.000289093
-0.000190066
-0.000270852
-0.000280507
-0.000267316
-0.000280371
-0.000268734
-0.000285214
-0.000311919
-0.000255606
-0.000255517
-0.000289492
-0.00027071
-0.000214034
-0.000266292
-0.000266286
-0.000271392
-0.000271368
-0.000289528
-0.000270679
-0.000308967
-0.000300353
-0.000285709
-0.000257424
-0.000246671
-0.000196238
-0.000240567
-0.000289111
-0.00019008
-0.000270865
-0.000280509
-0.000246664
-0.000196394
-0.000240566
-0.000289091
-0.00019007
-0.000270876
-0.000280512
-0.000267334
-0.000280411
-0.000268749
-0.000285217
-0.000267321
-0.000280373
-0.00026876
-0.000285215
-0.00021418
-0.000266272
-0.000266279
-0.000271335
-0.000271366
-0.000289486
-0.000270631
-0.00028949
-0.00027066
-0.000246132
-0.000287409
-0.000246148
-0.000287415
-0.000268711
-0.000268714
-0.000263443
-0.000281398
-0.00028141
-0.000298024
-0.000246009
-0.000298023
-0.000246022
-0.000270479
-0.000292144
-0.000292149
-0.000250446
-0.000250454
-0.000284948
-0.000266691
-0.000276983
-0.00028717
-0.000278852
-0.000285344
-0.000304914
-0.000258524
-0.000268812
-0.000270469
-0.000249825
-0.00027885
-0.000285318
-0.000304911
-0.000258515
-0.000268809
-0.000270447
-0.000249822
-0.000249247
-0.000298754
-0.000247051
-0.000296524
-0.000249246
-0.00029875
-0.000247049
-0.000296517
-0.00025565
-0.000273528
-0.000276469
-0.000254564
-0.000264173
-0.000277313
-0.000285493
-0.00025565
-0.00027352
-0.00027647
-0.000254551
-0.00026417
-0.000277312
-0.000285477
-0.000268684
-0.000268692
-0.00026343
-0.000281392
-0.000281393
-0.000246122
-0.0002874
-0.000298036
-0.000246001
-0.000270474
-0.000292168
-0.000292156
-0.000250437
-0.000250435
-0.000298033
-0.000246
-0.000278857
-0.00028535
-0.000304922
-0.000258522
-0.000268824
-0.00027047
-0.000249835
-0.00028496
-0.000266706
-0.000277
-0.000287189
-0.000278856
-0.00030492
-0.000285329
-0.000258524
-0.000268823
-0.000249818
-0.000270462
-0.000249272
-0.00029875
-0.000247075
-0.000296545
-0.000255671
-0.000273545
-0.000276472
-0.000254553
-0.000264194
-0.000277322
-0.00028563
-0.000249268
-0.000298744
-0.000247068
-0.000296555
-0.000255669
-0.00027353
-0.000254522
-0.000276466
-0.000277313
-0.000264188
-0.000285721
-0.000284951
-0.000266712
-0.000276985
-0.000287185
-0.000278849
-0.000304911
-0.000285329
-0.000258515
-0.000268809
-0.000249809
-0.000270464
-0.000284949
-0.000266724
-0.000276991
-0.000287183
-0.000255636
-0.000273536
-0.000276484
-0.000254559
-0.000264161
-0.000277315
-0.000285554
-0.000249235
-0.000298757
-0.000247042
-0.000296534
-0.000255638
-0.000273525
-0.00025454
-0.000276478
-0.000277311
-0.000264156
-0.000285492
-0.000249234
-0.000298756
-0.00024704
-0.000296523
-0.000268693
-0.00026869
-0.000263431
-0.0002814
-0.000281396
-0.000246128
-0.000287406
-0.000298017
-0.000246013
-0.000270467
-0.000292138
-0.000292127
-0.000250444
-0.000250436
-0.000298014
-0.000246004
-0.000278854
-0.000304917
-0.000285329
-0.000258511
-0.000268815
-0.000249817
-0.000270461
-0.000284959
-0.00026672
-0.000276993
-0.000287193
-0.000284957
-0.000266723
-0.000276994
-0.000287179
-0.000255652
-0.000273543
-0.000254541
-0.000276472
-0.000277316
-0.000264167
-0.000285564
-0.000255653
-0.000273537
-0.000254525
-0.000276468
-0.000277315
-0.000264167
-0.000285645
-0.000249256
-0.00029875
-0.000247049
-0.000296541
-0.000249255
-0.000298746
-0.000247055
-0.000296546
-0.000246115
-0.0002874
-0.000246115
-0.000287401
-0.000270435
-0.000292134
-0.000292145
-0.000250424
-0.00025043
-0.000298025
-0.000245996
-0.000298024
-0.000246002
-0.000226315
-0.000306398
-0.000226293
-0.000306381
-0.000230538
-0.000230524
-0.000275968
-0.000300024
-0.000300017
-0.00030895
-0.000209824
-0.000308951
-0.00020981
-0.000240849
-0.000302124
-0.000302128
-0.00021418
-0.000214165
-0.00030648
-0.000225783
-0.00022792
-0.000307802
-0.000291806
-0.000246825
-0.000265495
-0.000252934
-0.000236491
-0.000282902
-0.0002537
-0.000291809
-0.000246825
-0.000265507
-0.000252943
-0.000236516
-0.000282905
-0.000253701
-0.000211637
-0.000310654
-0.000209029
-0.000309816
-0.000211639
-0.000310655
-0.000209036
-0.000309817
-0.000220476
-0.000256461
-0.000284175
-0.000250179
-0.000231493
-0.000257478
-0.000292733
-0.000220478
-0.000256462
-0.000284168
-0.000250179
-0.000231509
-0.000257482
-0.000292734
-0.000230517
-0.000230527
-0.00027598
-0.000300044
-0.000300026
-0.000226295
-0.000306395
-0.000308958
-0.000209825
-0.000240866
-0.000302136
-0.000302127
-0.000214178
-0.000214181
-0.000308955
-0.000209825
-0.000291781
-0.000246813
-0.000265505
-0.000252898
-0.000236348
-0.000282876
-0.000253693
-0.000306456
-0.000225777
-0.000227872
-0.000307779
-0.000291782
-0.00026552
-0.000246815
-0.000252926
-0.000236237
-0.000253684
-0.000282887
-0.000211615
-0.00031065
-0.000209024
-0.000309814
-0.000220456
-0.000256482
-0.000284169
-0.000250178
-0.000231491
-0.000257476
-0.000292731
-0.000211612
-0.000310648
-0.000209012
-0.000309817
-0.000220451
-0.000256454
-0.000250164
-0.000284161
-0.000257476
-0.000231486
-0.000292729
-0.000306484
-0.000225775
-0.000227896
-0.000307798
-0.000291815
-0.000265502
-0.000246808
-0.000252938
-0.000236492
-0.000253683
-0.00028291
-0.000306488
-0.000225773
-0.000227904
-0.000307803
-0.000220462
-0.000256489
-0.000284181
-0.000250178
-0.000231489
-0.000257479
-0.00029273
-0.00021162
-0.000310665
-0.000209028
-0.00030984
-0.000220457
-0.000256459
-0.00025016
-0.000284176
-0.000257476
-0.000231489
-0.000292727
-0.000211619
-0.000310662
-0.000209021
-0.000309842
-0.000230531
-0.000230544
-0.000275968
-0.00030003
-0.000300012
-0.000226304
-0.000306381
-0.000308951
-0.000209803
-0.000240837
-0.000302129
-0.000302117
-0.000214158
-0.000214166
-0.000308945
-0.000209811
-0.000291796
-0.000265521
-0.000246812
-0.000252908
-0.000236324
-0.000253682
-0.000282887
-0.000306468
-0.000225772
-0.000227887
-0.000307781
-0.000306468
-0.000225774
-0.00022788
-0.000307784
-0.000220443
-0.000256484
-0.000250167
-0.000284172
-0.000257477
-0.000231476
-0.00029273
-0.000220444
-0.000256486
-0.000250166
-0.000284169
-0.000257477
-0.000231494
-0.000292731
-0.000211603
-0.000310652
-0.000209015
-0.00030983
-0.000211606
-0.000310655
-0.000209021
-0.00030983
-0.000226313
-0.000306408
-0.000226292
-0.000306397
-0.000240849
-0.00030213
-0.000302134
-0.000214177
-0.000214168
-0.000308958
-0.000209819
-0.000308957
-0.000209811
-0.000199005
-0.000307173
-0.000198998
-0.000307176
-0.000203469
-0.000203457
-0.000273532
-0.000300146
-0.000300151
-0.000303293
-0.000191635
-0.000303299
-0.000191629
-0.000225603
-0.000296192
-0.000296199
-0.000196142
-0.000196134
-0.000308447
-0.000198109
-0.000200982
-0.000309001
-0.000290288
-0.000221319
-0.000250319
-0.000245814
-0.000210221
-0.000281844
-0.000246449
-0.000290289
-0.000221329
-0.000250319
-0.000245816
-0.000210223
-0.000281836
-0.000246451
-0.000193655
-0.000305163
-0.000190707
-0.000304706
-0.000193657
-0.000305156
-0.000190718
-0.0003047
-0.000203075
-0.00024341
-0.000277732
-0.000241541
-0.000214229
-0.000244111
-0.000286119
-0.000203077
-0.000243415
-0.000277733
-0.000241544
-0.00021424
-0.000244115
-0.000286124
-0.000203465
-0.000203465
-0.000273527
-0.00030015
-0.000300139
-0.000199001
-0.00030717
-0.000303291
-0.000191642
-0.000225632
-0.000296192
-0.000296181
-0.00019615
-0.000196148
-0.000303285
-0.000191641
-0.000290269
-0.000221322
-0.000250311
-0.000245804
-0.00021022
-0.000281842
-0.000246439
-0.00030845
-0.000198097
-0.000200976
-0.000309
-0.000290267
-0.000250307
-0.00022132
-0.000245806
-0.000210218
-0.000246434
-0.00028183
-0.000193658
-0.000305166
-0.000190711
-0.000304714
-0.000203084
-0.000243405
-0.000277734
-0.000241532
-0.000214231
-0.000244098
-0.0002861
-0.000193657
-0.000305161
-0.000190704
-0.000304713
-0.000203083
-0.000243403
-0.000241528
-0.000277729
-0.000244094
-0.000214231
-0.000286103
-0.000308467
-0.000198099
-0.000200973
-0.00030901
-0.000290282
-0.000250313
-0.000221311
-0.000245814
-0.000210222
-0.000246452
-0.000281843
-0.000308469
-0.000198093
-0.000200973
-0.000309007
-0.000203066
-0.000243417
-0.000277758
-0.00024155
-0.000214222
-0.000244121
-0.000286162
-0.000193648
-0.000305161
-0.000190711
-0.000304696
-0.000203068
-0.000243416
-0.000241549
-0.000277748
-0.00024413
-0.000214222
-0.000286158
-0.000193647
-0.000305157
-0.000190704
-0.000304693
-0.000203453
-0.000203459
-0.000273527
-0.000300147
-0.000300132
-0.000198996
-0.000307162
-0.000303295
-0.000191626
-0.000225609
-0.000296195
-0.000296179
-0.000196135
-0.000196136
-0.000303282
-0.000191631
-0.000290274
-0.000250307
-0.000221312
-0.000245799
-0.000210215
-0.000246432
-0.000281839
-0.000308454
-0.000198097
-0.000200968
-0.000308999
-0.000308456
-0.000198092
-0.000200968
-0.000309002
-0.000203057
-0.000243408
-0.000241531
-0.000277751
-0.000244102
-0.000214212
-0.000286139
-0.000203058
-0.0002434
-0.000241527
-0.000277747
-0.000244085
-0.000214214
-0.000286143
-0.000193639
-0.000305157
-0.000190703
-0.0003047
-0.000193638
-0.00030516
-0.000190697
-0.000304698
-0.000198992
-0.000307173
-0.000198984
-0.000307175
-0.000225604
-0.000296182
-0.000296191
-0.000196137
-0.000196122
-0.000303285
-0.000191631
-0.000303292
-0.000191618
-0.00018587
-0.000298629
-0.000185864
-0.000298635
-0.000190395
-0.000190385
-0.000264385
-0.000291504
-0.000291512
-0.000293716
-0.000180654
-0.000293721
-0.000180649
-0.000215076
-0.000286586
-0.000286593
-0.000185186
-0.000185178
-0.000300077
-0.000184949
-0.000187917
-0.000300506
-0.000281366
-0.000208572
-0.00023901
-0.000235815
-0.000197429
-0.000273
-0.000236488
-0.000281367
-0.00020858
-0.000239012
-0.000235812
-0.000197431
-0.000272998
-0.00023649
-0.000182703
-0.000295599
-0.000179719
-0.000295183
-0.000182706
-0.000295597
-0.000179728
-0.000295181
-0.000192253
-0.000233301
-0.000268065
-0.00023146
-0.000203386
-0.000233972
-0.000276414
-0.000192253
-0.000233298
-0.00026806
-0.000231461
-0.000203394
-0.000233973
-0.000276413
-0.000190405
-0.000190405
-0.000264371
-0.000291505
-0.000291494
-0.000185879
-0.000298622
-0.000293716
-0.000180657
-0.000215098
-0.000286586
-0.000286577
-0.00018519
-0.000185194
-0.000293711
-0.00018066
-0.00028135
-0.000208572
-0.000239001
-0.000235811
-0.000197437
-0.000273004
-0.000236481
-0.000300088
-0.000184934
-0.000187916
-0.000300512
-0.000281351
-0.000238999
-0.000208571
-0.000235807
-0.000197433
-0.000236478
-0.000272997
-0.000182709
-0.000295601
-0.000179723
-0.000295185
-0.000192263
-0.000233298
-0.000268069
-0.000231457
-0.000203388
-0.000233966
-0.000276403
-0.000182709
-0.000295604
-0.000179716
-0.000295186
-0.00019226
-0.000233294
-0.000231453
-0.000268061
-0.000233963
-0.000203387
-0.000276401
-0.000300071
-0.000184942
-0.000187896
-0.000300509
-0.000281394
-0.000239014
-0.000208558
-0.000235813
-0.000197394
-0.000236484
-0.000273014
-0.000300071
-0.000184939
-0.000187895
-0.000300503
-0.000192233
-0.0002333
-0.000268075
-0.000231458
-0.000203372
-0.000233969
-0.000276421
-0.000182691
-0.000295601
-0.000179719
-0.000295185
-0.000192233
-0.000233298
-0.000231454
-0.00026807
-0.000233967
-0.000203375
-0.000276416
-0.000182692
-0.000295601
-0.000179717
-0.000295186
-0.000190387
-0.00019039
-0.000264379
-0.00029151
-0.000291497
-0.000185866
-0.000298625
-0.000293724
-0.000180642
-0.000215075
-0.000286594
-0.000286584
-0.000185174
-0.000185178
-0.000293716
-0.000180645
-0.000281385
-0.000239002
-0.00020855
-0.000235808
-0.000197392
-0.000236475
-0.000273019
-0.000300086
-0.00018493
-0.000187889
-0.000300512
-0.000300084
-0.00018493
-0.000187888
-0.000300513
-0.000192232
-0.000233294
-0.000231447
-0.000268075
-0.000233957
-0.000203362
-0.000276409
-0.000192232
-0.000233293
-0.000231446
-0.000268076
-0.000233959
-0.000203368
-0.000276412
-0.000182684
-0.000295606
-0.000179706
-0.000295202
-0.000182687
-0.000295612
-0.00017971
-0.000295201
-0.000185873
-0.00029862
-0.000185859
-0.000298633
-0.000215083
-0.000286584
-0.000286598
-0.000185187
-0.000185172
-0.000293715
-0.000180654
-0.000293729
-0.00018064
-0.000175587
-0.000288724
-0.000175584
-0.000288728
-0.000180121
-0.000180114
-0.000254422
-0.000281593
-0.000281598
-0.000283701
-0.000170562
-0.000283702
-0.000170561
-0.000205033
-0.000276568
-0.000276572
-0.000175098
-0.000175093
-0.000290189
-0.00017466
-0.000177644
-0.000290608
-0.000271427
-0.000198327
-0.000228954
-0.000225778
-0.0001872
-0.000263075
-0.000226448
-0.000271425
-0.000198338
-0.000228955
-0.000225774
-0.000187203
-0.000263069
-0.000226449
-0.000172606
-0.000285588
-0.000169624
-0.000285174
-0.000172612
-0.000285588
-0.000169632
-0.000285172
-0.000182166
-0.00022327
-0.000258075
-0.000221443
-0.000193298
-0.000223944
-0.000266453
-0.000182169
-0.00022327
-0.000258068
-0.000221444
-0.000193311
-0.000223944
-0.000266451
-0.000180121
-0.000180122
-0.000254411
-0.000281595
-0.00028159
-0.000175587
-0.000288725
-0.000283707
-0.00017056
-0.000205038
-0.000276578
-0.000276576
-0.000175093
-0.000175093
-0.000283712
-0.000170557
-0.00027141
-0.000198331
-0.00022895
-0.000225776
-0.000187211
-0.000263076
-0.000226444
-0.000290196
-0.000174646
-0.000177647
-0.000290614
-0.000271408
-0.000228947
-0.000198331
-0.000225772
-0.00018721
-0.000226441
-0.000263068
-0.000172616
-0.000285585
-0.000169632
-0.000285169
-0.000182181
-0.000223269
-0.000258077
-0.000221443
-0.000193305
-0.000223941
-0.000266446
-0.000172617
-0.00028559
-0.000169621
-0.000285176
-0.00018218
-0.000223268
-0.00022144
-0.000258069
-0.000223938
-0.000193307
-0.000266442
-0.000290204
-0.000174646
-0.000177628
-0.000290618
-0.000271435
-0.000228949
-0.000198317
-0.000225776
-0.000187189
-0.00022644
-0.000263085
-0.000290207
-0.000174644
-0.000177629
-0.000290622
-0.000182147
-0.000223269
-0.000258085
-0.000221433
-0.00019328
-0.000223935
-0.000266445
-0.000172588
-0.000285606
-0.000169613
-0.000285201
-0.000182149
-0.000223266
-0.000221429
-0.00025808
-0.000223933
-0.000193285
-0.000266439
-0.00017259
-0.000285611
-0.000169609
-0.000285204
-0.000180106
-0.000180109
-0.000254422
-0.000281601
-0.000281595
-0.000175575
-0.000288729
-0.000283709
-0.000170548
-0.000205021
-0.000276578
-0.000276577
-0.000175082
-0.000175086
-0.00028371
-0.000170551
-0.00027143
-0.000228943
-0.000198313
-0.000225773
-0.00018719
-0.000226437
-0.000263091
-0.000290213
-0.000174636
-0.000177624
-0.00029062
-0.000290213
-0.000174641
-0.000177628
-0.000290629
-0.000182156
-0.000223267
-0.00022143
-0.000258088
-0.00022393
-0.000193278
-0.000266447
-0.000182156
-0.000223264
-0.000221429
-0.000258088
-0.000223931
-0.000193286
-0.000266446
-0.000172589
-0.000285604
-0.000169608
-0.000285207
-0.000172595
-0.000285616
-0.000169611
-0.000285206
-0.00017558
-0.000288735
-0.00017557
-0.000288746
-0.000205011
-0.000276591
-0.000276601
-0.000175079
-0.000175071
-0.000283724
-0.000170546
-0.000283733
-0.000170539
-0.000165554
-0.000278672
-0.000165554
-0.000278675
-0.000170091
-0.000170085
-0.000244375
-0.000271544
-0.000271549
-0.000273652
-0.000160543
-0.000273656
-0.000160544
-0.000195058
-0.000266523
-0.000266529
-0.000165079
-0.000165073
-0.000280126
-0.000164619
-0.000167578
-0.00028056
-0.000261513
-0.00018827
-0.00021894
-0.000215756
-0.000177105
-0.000253082
-0.000216437
-0.00026151
-0.000188286
-0.000218941
-0.000215754
-0.000177109
-0.000253069
-0.000216436
-0.000162535
-0.00027554
-0.000159599
-0.000275097
-0.000162539
-0.000275537
-0.000159606
-0.000275099
-0.00017203
-0.000213246
-0.00024807
-0.000211413
-0.00018324
-0.000213927
-0.000256532
-0.000172037
-0.000213243
-0.000248059
-0.000211412
-0.000183256
-0.000213926
-0.000256528
-0.000170081
-0.000170081
-0.000244377
-0.000271553
-0.000271552
-0.000165543
-0.000278686
-0.000273654
-0.00016054
-0.000195048
-0.000266528
-0.000266523
-0.000165071
-0.000165071
-0.000273657
-0.000160534
-0.000261522
-0.000188277
-0.00021894
-0.000215754
-0.000177106
-0.000253085
-0.000216435
-0.000280119
-0.000164611
-0.000167579
-0.00028056
-0.00026152
-0.000218938
-0.00018828
-0.000215753
-0.000177106
-0.000216432
-0.000253075
-0.000162538
-0.00027554
-0.000159609
-0.000275094
-0.000172029
-0.000213243
-0.000248068
-0.000211407
-0.000183245
-0.000213923
-0.000256516
-0.000162536
-0.000275539
-0.000159599
-0.000275097
-0.000172029
-0.000213241
-0.000211402
-0.000248057
-0.000213919
-0.000183248
-0.000256513
-0.000280165
-0.000164597
-0.000167562
-0.000280581
-0.000261461
-0.000218925
-0.000188263
-0.000215746
-0.000177114
-0.00021642
-0.000253073
-0.00028017
-0.000164591
-0.000167564
-0.000280587
-0.000172059
-0.000213241
-0.000248072
-0.000211408
-0.000183234
-0.000213917
-0.000256496
-0.000162534
-0.000275552
-0.000159587
-0.000275127
-0.000172061
-0.000213237
-0.000211402
-0.000248058
-0.000213913
-0.000183239
-0.000256486
-0.000162534
-0.000275556
-0.000159579
-0.000275132
-0.000170074
-0.000170079
-0.000244383
-0.000271552
-0.000271549
-0.000165542
-0.000278683
-0.000273657
-0.000160533
-0.00019504
-0.000266528
-0.000266522
-0.000165065
-0.00016507
-0.000273656
-0.000160533
-0.000261476
-0.000218925
-0.000188262
-0.000215744
-0.000177108
-0.000216418
-0.000253081
-0.000280165
-0.000164598
-0.000167559
-0.000280578
-0.000280167
-0.000164595
-0.000167565
-0.000280591
-0.000172054
-0.000213239
-0.0002114
-0.000248071
-0.00021391
-0.000183229
-0.000256489
-0.000172057
-0.000213235
-0.000211398
-0.000248065
-0.00021391
-0.000183236
-0.000256488
-0.000162531
-0.000275551
-0.000159588
-0.000275128
-0.000162534
-0.000275561
-0.000159581
-0.000275129
-0.00016553
-0.000278699
-0.000165524
-0.000278708
-0.000195008
-0.000266537