/*--------------------------------*- C++ -*----------------------------------*\
| =========                 |                                                 |
| \\      /  F ield         | OpenFOAM: The Open Source CFD Toolbox           |
|  \\    /   O peration     | Version:  2206                                  |
|   \\  /    A nd           | Website:  www.openfoam.com                      |
|    \\/     M anipulation  |                                                 |
\*---------------------------------------------------------------------------*/
FoamFile
{
    version     2.0;
    format      ascii;
    arch        "LSB;label=32;scalar=64";
    class       volScalarField;
    location    "23";
    object      k;
}
// * * * * * * * * * * * * * * * * * * * * * * * * * * * * * * * * * * * * * //

dimensions      [0 2 -2 0 0 0 0];

internalField   nonuniform List<scalar> 
28673
(
2.76032e-05
2.71433e-05
2.79864e-05
2.76034e-05
2.76032e-05
2.71451e-05
2.79864e-05
2.76033e-05
2.76031e-05
2.71452e-05
2.79863e-05
2.76034e-05
2.76032e-05
2.71454e-05
2.79861e-05
2.76031e-05
2.7603e-05
2.71453e-05
2.79834e-05
2.75976e-05
2.76002e-05
2.71405e-05
2.79782e-05
2.75941e-05
2.75942e-05
2.71354e-05
2.79779e-05
2.75941e-05
2.7594e-05
2.71354e-05
2.79779e-05
2.75941e-05
2.7594e-05
2.71354e-05
2.79779e-05
2.75942e-05
2.7594e-05
2.71354e-05
2.79779e-05
2.75942e-05
2.75941e-05
2.71353e-05
2.7978e-05
2.75943e-05
2.75942e-05
2.71356e-05
2.799e-05
2.76308e-05
2.76307e-05
2.72068e-05
2.7603e-05
2.71484e-05
2.76032e-05
2.71487e-05
2.7603e-05
2.7603e-05
2.7603e-05
2.7603e-05
2.71455e-05
2.71484e-05
2.76032e-05
2.76026e-05
2.7603e-05
2.76034e-05
2.76029e-05
2.71481e-05
2.76032e-05
2.76032e-05
2.76031e-05
2.71483e-05
2.71458e-05
2.71488e-05
2.76032e-05
2.76032e-05
2.76031e-05
2.76031e-05
2.71455e-05
2.71486e-05
2.76034e-05
2.76027e-05
2.76034e-05
2.76027e-05
2.7603e-05
2.76034e-05
2.76028e-05
2.71452e-05
2.71482e-05
2.76032e-05
2.76031e-05
2.76031e-05
2.71484e-05
2.71459e-05
2.7149e-05
2.76033e-05
2.76032e-05
2.76033e-05
2.76032e-05
2.71457e-05
2.71488e-05
2.76035e-05
2.76029e-05
2.76035e-05
2.76029e-05
2.7603e-05
2.76034e-05
2.76029e-05
2.71453e-05
2.71484e-05
2.76032e-05
2.76032e-05
2.76031e-05
2.71485e-05
2.71461e-05
2.71492e-05
2.76035e-05
2.76034e-05
2.76032e-05
2.76031e-05
2.7146e-05
2.71487e-05
2.76037e-05
2.7603e-05
2.76036e-05
2.76029e-05
2.76031e-05
2.76032e-05
2.76029e-05
2.71455e-05
2.71486e-05
2.76033e-05
2.76031e-05
2.76031e-05
2.71487e-05
2.71462e-05
2.71465e-05
2.76031e-05
2.76029e-05
2.76013e-05
2.75994e-05
2.71456e-05
2.71438e-05
2.76035e-05
2.76028e-05
2.76024e-05
2.76018e-05
2.76028e-05
2.75999e-05
2.76007e-05
2.71457e-05
2.71468e-05
2.7603e-05
2.7602e-05
2.76008e-05
2.71453e-05
2.71422e-05
2.7139e-05
2.7599e-05
2.75972e-05
2.75943e-05
2.75939e-05
2.71393e-05
2.71385e-05
2.76006e-05
2.76004e-05
2.7595e-05
2.75946e-05
2.75983e-05
2.75942e-05
2.75941e-05
2.71428e-05
2.71391e-05
2.75985e-05
2.75948e-05
2.75943e-05
2.71388e-05
2.71358e-05
2.71386e-05
2.75941e-05
2.75939e-05
2.75938e-05
2.75938e-05
2.71355e-05
2.71386e-05
2.75944e-05
2.7594e-05
2.75941e-05
2.75936e-05
2.7594e-05
2.75941e-05
2.75939e-05
2.71358e-05
2.71383e-05
2.75942e-05
2.7594e-05
2.7594e-05
2.71386e-05
2.71357e-05
2.71385e-05
2.7594e-05
2.75939e-05
2.75939e-05
2.75938e-05
2.71356e-05
2.71385e-05
2.75942e-05
2.75937e-05
2.75941e-05
2.75936e-05
2.7594e-05
2.75942e-05
2.75939e-05
2.71354e-05
2.71382e-05
2.75942e-05
2.7594e-05
2.75941e-05
2.71386e-05
2.71356e-05
2.71385e-05
2.7594e-05
2.7594e-05
2.75939e-05
2.75938e-05
2.71356e-05
2.71385e-05
2.75942e-05
2.75937e-05
2.75941e-05
2.75936e-05
2.7594e-05
2.75942e-05
2.75939e-05
2.71353e-05
2.71383e-05
2.75942e-05
2.7594e-05
2.75941e-05
2.71385e-05
2.71356e-05
2.71385e-05
2.7594e-05
2.75939e-05
2.75939e-05
2.75939e-05
2.71355e-05
2.71385e-05
2.75942e-05
2.75937e-05
2.75941e-05
2.75937e-05
2.7594e-05
2.75942e-05
2.75939e-05
2.71353e-05
2.71382e-05
2.75942e-05
2.75941e-05
2.75941e-05
2.71385e-05
2.71356e-05
2.71387e-05
2.7594e-05
2.7594e-05
2.75943e-05
2.75943e-05
2.71355e-05
2.71387e-05
2.75943e-05
2.75938e-05
2.75945e-05
2.75941e-05
2.75941e-05
2.75946e-05
2.75943e-05
2.71353e-05
2.71384e-05
2.75943e-05
2.75945e-05
2.75945e-05
2.71387e-05
2.71358e-05
2.71683e-05
2.7594e-05
2.7594e-05
2.76204e-05
2.76204e-05
2.71358e-05
2.71682e-05
2.75943e-05
2.75938e-05
2.76206e-05
2.76203e-05
2.7594e-05
2.76206e-05
2.76205e-05
2.71356e-05
2.71681e-05
2.75943e-05
2.76206e-05
2.76206e-05
2.71682e-05
2.7207e-05
2.76307e-05
2.76307e-05
2.72069e-05
2.76309e-05
2.76306e-05
2.799e-05
2.799e-05
2.799e-05
2.76307e-05
2.72068e-05
2.76309e-05
2.9359e-05
6.919e-05
2.93599e-05
6.91846e-05
8.198e-05
8.19746e-05
2.93595e-05
6.91871e-05
2.79866e-05
2.79863e-05
2.79864e-05
2.79865e-05
2.79863e-05
2.79862e-05
2.63055e-05
2.89592e-05
2.78367e-05
2.76034e-05
2.63056e-05
2.89567e-05
2.78367e-05
8.19765e-05
2.63047e-05
2.78365e-05
2.76032e-05
2.63048e-05
2.78365e-05
2.89562e-05
3.34534e-05
3.34545e-05
2.71483e-05
3.34526e-05
3.34536e-05
2.93611e-05
6.91851e-05
2.93625e-05
6.91823e-05
8.19716e-05
8.19695e-05
2.93618e-05
6.91878e-05
2.93631e-05
6.91849e-05
2.79865e-05
2.79863e-05
2.79862e-05
2.79864e-05
2.79863e-05
2.79862e-05
2.79861e-05
2.63058e-05
2.89613e-05
2.78366e-05
2.76035e-05
2.63057e-05
2.89584e-05
2.78366e-05
8.19714e-05
8.19675e-05
2.63052e-05
2.78364e-05
2.8961e-05
2.76032e-05
2.63052e-05
2.78364e-05
2.89584e-05
3.34565e-05
3.34574e-05
2.71483e-05
3.34565e-05
3.34575e-05
2.93621e-05
6.91835e-05
2.93636e-05
6.91812e-05
8.19691e-05
8.19683e-05
2.93625e-05
6.91862e-05
2.93638e-05
6.91838e-05
2.79863e-05
2.79862e-05
2.79861e-05
2.79864e-05
2.79862e-05
2.79861e-05
2.7986e-05
2.63062e-05
2.89624e-05
2.78365e-05
2.76035e-05
2.63061e-05
2.89592e-05
2.78366e-05
8.19663e-05
8.19646e-05
2.63056e-05
2.78363e-05
2.89624e-05
2.76032e-05
2.63053e-05
2.78364e-05
2.89595e-05
3.34613e-05
3.34624e-05
2.71484e-05
3.34613e-05
3.34624e-05
2.93634e-05
6.91831e-05
2.9365e-05
6.91811e-05
8.19697e-05
8.19698e-05
2.93643e-05
6.91857e-05
2.93655e-05
6.91836e-05
2.79862e-05
2.79862e-05
2.79862e-05
2.79862e-05
2.79861e-05
2.7986e-05
2.79859e-05
2.63069e-05
2.89631e-05
2.78365e-05
2.76033e-05
2.63067e-05
2.896e-05
2.78365e-05
8.19654e-05
8.19649e-05
2.63062e-05
2.78364e-05
2.8963e-05
2.76033e-05
2.6306e-05
2.78364e-05
2.896e-05
3.34648e-05
3.34659e-05
2.71487e-05
3.34638e-05
3.34649e-05
2.93623e-05
6.91841e-05
2.9365e-05
6.91846e-05
8.1973e-05
8.19727e-05
2.93639e-05
6.91863e-05
2.93663e-05
6.91856e-05
2.7986e-05
2.7986e-05
2.79859e-05
2.79851e-05
2.79837e-05
2.79851e-05
2.79842e-05
2.63057e-05
2.89634e-05
2.78363e-05
2.76028e-05
2.63067e-05
2.89593e-05
2.78361e-05
8.19675e-05
8.19684e-05
2.63052e-05
2.78362e-05
2.89633e-05
2.76029e-05
2.63061e-05
2.7836e-05
2.89597e-05
3.34652e-05
3.34663e-05
2.71479e-05
3.3463e-05
3.34641e-05
2.93564e-05
6.91921e-05
2.93616e-05
6.91914e-05
8.19727e-05
8.19714e-05
2.93594e-05
6.91927e-05
2.9364e-05
6.91934e-05
2.79817e-05
2.79837e-05
2.79822e-05
2.79788e-05
2.79782e-05
2.79788e-05
2.79783e-05
2.62962e-05
2.89588e-05
2.78318e-05
2.7596e-05
2.63013e-05
2.89522e-05
2.78302e-05
8.19701e-05
8.19683e-05
2.62959e-05
2.78326e-05
2.89608e-05
2.7598e-05
2.63012e-05
2.78308e-05
2.89547e-05
3.34624e-05
3.34634e-05
2.7141e-05
3.34575e-05
3.34585e-05
2.93522e-05
6.91933e-05
2.9355e-05
6.91914e-05
8.19716e-05
8.19711e-05
2.93536e-05
6.91963e-05
2.93566e-05
6.91943e-05
2.79782e-05
2.79783e-05
2.79782e-05
2.79779e-05
2.7978e-05
2.7978e-05
2.7978e-05
2.62948e-05
2.89529e-05
2.78279e-05
2.75942e-05
2.62948e-05
2.8949e-05
2.7828e-05
8.19683e-05
8.19673e-05
2.6294e-05
2.78279e-05
2.89541e-05
2.75941e-05
2.62941e-05
2.78279e-05
2.89498e-05
3.34554e-05
3.34563e-05
2.71386e-05
3.3453e-05
3.3454e-05
2.93522e-05
6.91928e-05
2.93543e-05
6.91957e-05
8.19715e-05
8.19756e-05
2.93532e-05
6.91958e-05
2.93551e-05
6.91985e-05
2.79781e-05
2.79781e-05
2.79781e-05
2.79779e-05
2.7978e-05
2.79779e-05
2.7978e-05
2.62947e-05
2.89514e-05
2.78279e-05
2.75942e-05
2.62948e-05
2.89465e-05
2.7828e-05
8.19679e-05
8.19725e-05
2.6294e-05
2.78278e-05
2.89516e-05
2.75941e-05
2.6294e-05
2.78279e-05
2.89468e-05
3.34544e-05
3.34554e-05
2.71386e-05
3.34524e-05
3.34534e-05
2.93521e-05
6.91969e-05
2.93545e-05
6.92042e-05
8.19633e-05
8.19764e-05
2.93531e-05
6.91999e-05
2.93553e-05
6.92071e-05
2.79781e-05
2.7978e-05
2.79781e-05
2.79779e-05
2.7978e-05
2.7978e-05
2.7978e-05
2.62946e-05
2.8949e-05
2.78279e-05
2.75942e-05
2.62947e-05
2.89411e-05
2.7828e-05
8.19621e-05
8.19756e-05
2.62941e-05
2.78278e-05
2.89491e-05
2.75941e-05
2.6294e-05
2.78279e-05
2.89414e-05
3.34567e-05
3.34577e-05
2.71386e-05
3.34521e-05
3.34531e-05
2.93555e-05
6.91925e-05
2.93593e-05
6.92117e-05
8.19527e-05
8.19715e-05
2.93565e-05
6.91952e-05
2.93601e-05
6.92148e-05
2.79781e-05
2.79781e-05
2.79781e-05
2.79779e-05
2.7978e-05
2.7978e-05
2.7978e-05
2.62954e-05
2.89506e-05
2.78279e-05
2.75943e-05
2.62956e-05
2.8937e-05
2.7828e-05
8.19532e-05
8.1972e-05
2.62948e-05
2.78278e-05
2.89508e-05
2.75941e-05
2.6295e-05
2.78279e-05
2.89378e-05
3.34572e-05
3.3458e-05
2.71385e-05
3.34541e-05
3.34548e-05
2.93571e-05
6.9181e-05
2.93588e-05
6.92146e-05
8.19143e-05
8.19378e-05
2.93581e-05
6.91845e-05
2.93596e-05
6.92184e-05
2.79781e-05
2.79781e-05
2.79781e-05
2.79781e-05
2.79782e-05
2.79781e-05
2.79781e-05
2.62952e-05
2.89568e-05
2.78279e-05
2.75943e-05
2.62961e-05
2.89388e-05
2.78279e-05
8.1916e-05
8.19387e-05
2.62947e-05
2.78279e-05
2.89581e-05
2.75942e-05
2.62956e-05
2.78279e-05
2.89401e-05
3.34575e-05
3.34581e-05
2.71385e-05
3.34605e-05
3.3461e-05
2.93637e-05
6.91427e-05
2.93576e-05
6.92004e-05
8.18193e-05
8.18384e-05
2.93651e-05
6.91466e-05
2.93584e-05
6.92039e-05
2.79782e-05
2.79781e-05
2.79781e-05
2.79815e-05
2.79815e-05
2.79815e-05
2.79815e-05
2.62944e-05
2.89812e-05
2.78285e-05
2.75971e-05
2.62968e-05
2.89278e-05
2.78279e-05
8.18198e-05
8.18384e-05
2.6294e-05
2.78285e-05
2.89822e-05
2.7597e-05
2.62964e-05
2.78278e-05
2.89283e-05
3.34479e-05
3.34484e-05
2.71427e-05
3.34619e-05
3.34621e-05
2.73805e-05
6.72133e-05
2.93216e-05
5.54364e-05
7.67327e-05
4.68371e-05
2.73812e-05
6.72216e-05
2.93231e-05
5.54435e-05
2.80978e-05
2.80638e-05
2.80638e-05
2.79485e-05
2.80962e-05
2.80534e-05
2.80534e-05
2.63281e-05
2.88281e-05
2.78518e-05
2.76621e-05
2.63169e-05
3.10692e-05
2.78947e-05
7.6732e-05
4.68349e-05
2.63278e-05
2.78518e-05
2.88279e-05
2.76621e-05
2.63166e-05
2.78947e-05
3.10679e-05
3.37257e-05
3.37263e-05
2.72937e-05
3.29065e-05
3.29053e-05
6.9188e-05
2.89568e-05
8.19805e-05
3.34524e-05
3.3447e-05
8.19766e-05
2.89555e-05
6.91851e-05
8.19829e-05
8.19773e-05
8.19801e-05
3.34535e-05
2.71487e-05
3.34525e-05
3.34523e-05
8.19727e-05
8.1977e-05
8.19742e-05
8.19796e-05
2.71458e-05
3.34542e-05
3.34536e-05
3.34544e-05
3.3454e-05
2.93594e-05
6.91894e-05
2.93603e-05
6.91864e-05
2.63053e-05
2.89587e-05
2.78366e-05
2.7603e-05
2.63054e-05
2.89562e-05
2.78366e-05
2.63054e-05
2.89606e-05
2.78367e-05
2.76029e-05
2.63055e-05
2.8958e-05
2.78367e-05
2.93616e-05
6.91833e-05
6.9186e-05
2.93603e-05
2.93619e-05
6.91852e-05
6.91878e-05
2.93606e-05
2.63057e-05
2.7603e-05
2.89572e-05
2.78365e-05
2.896e-05
2.78365e-05
2.63057e-05
2.63059e-05
2.7603e-05
2.89589e-05
2.78366e-05
2.89618e-05
2.78366e-05
2.63058e-05
3.34549e-05
3.34498e-05
2.71484e-05
3.34551e-05
3.34498e-05
8.19769e-05
8.19712e-05
8.19714e-05
8.19748e-05
2.71455e-05
3.34571e-05
3.34514e-05
3.34572e-05
3.34521e-05
8.19677e-05
8.19717e-05
2.63057e-05
2.76032e-05
2.89568e-05
2.78366e-05
2.9359e-05
6.9185e-05
2.63055e-05
2.76027e-05
2.78364e-05
2.89556e-05
2.9362e-05
6.91859e-05
6.91887e-05
2.93611e-05
2.63061e-05
2.76032e-05
2.89579e-05
2.78365e-05
2.89605e-05
2.78365e-05
2.6306e-05
2.93615e-05
6.91835e-05
6.91866e-05
2.93606e-05
2.63059e-05
2.76026e-05
2.78364e-05
2.89569e-05
2.78364e-05
2.89597e-05
2.63058e-05
2.93592e-05
6.91867e-05
2.93602e-05
6.91836e-05
2.63053e-05
2.78366e-05
2.89585e-05
2.7603e-05
2.63054e-05
2.78365e-05
2.89561e-05
2.93591e-05
6.91919e-05
2.936e-05
6.91865e-05
2.6306e-05
2.76034e-05
2.89577e-05
2.78366e-05
2.89607e-05
2.78366e-05
2.63057e-05
2.93618e-05
6.91824e-05
6.91852e-05
2.93605e-05
2.63057e-05
2.76029e-05
2.78365e-05
2.89571e-05
2.78365e-05
2.89599e-05
2.63057e-05
2.93617e-05
6.91851e-05
6.91878e-05
2.93604e-05
2.71481e-05
3.34481e-05
3.34519e-05
8.19806e-05
8.1971e-05
8.19768e-05
2.71452e-05
3.34516e-05
3.34534e-05
3.34509e-05
3.34537e-05
8.19747e-05
8.19801e-05
2.63045e-05
2.78365e-05
2.89591e-05
2.76032e-05
2.63046e-05
2.78365e-05
2.89566e-05
2.93582e-05
2.93594e-05
6.91875e-05
2.93581e-05
6.9194e-05
2.93592e-05
6.91885e-05
2.63052e-05
2.76032e-05
2.78364e-05
2.89575e-05
2.78365e-05
2.89601e-05
2.63052e-05
2.63049e-05
2.76031e-05
2.78364e-05
2.89576e-05
2.78365e-05
2.89604e-05
2.63049e-05
2.93611e-05
6.91859e-05
6.91889e-05
2.93595e-05
2.93609e-05
6.91871e-05
6.91899e-05
2.93594e-05
8.19828e-05
8.19772e-05
8.19825e-05
8.19769e-05
2.71454e-05
3.34543e-05
3.34553e-05
3.34546e-05
3.34555e-05
8.19726e-05
8.19769e-05
8.19724e-05
8.19767e-05
8.19732e-05
8.19703e-05
8.19744e-05
8.19709e-05
3.34562e-05
3.34555e-05
2.71488e-05
3.34565e-05
3.34554e-05
8.19689e-05
8.19711e-05
8.1969e-05
8.19715e-05
2.71459e-05
3.34593e-05
3.34579e-05
3.34587e-05
3.34575e-05
2.93612e-05
6.91867e-05
2.93631e-05
6.91843e-05
2.63061e-05
2.89609e-05
2.78366e-05
2.76032e-05
2.63062e-05
2.8958e-05
2.78366e-05
2.63062e-05
2.89626e-05
2.78366e-05
2.76032e-05
2.63064e-05
2.89596e-05
2.78366e-05
2.93634e-05
6.91816e-05
6.91839e-05
2.93615e-05
2.93635e-05
6.91836e-05
6.91858e-05
2.93616e-05
2.63065e-05
2.76032e-05
2.89586e-05
2.78365e-05
2.89617e-05
2.78366e-05
2.63064e-05
2.63066e-05
2.76031e-05
2.89601e-05
2.78365e-05
2.89632e-05
2.78365e-05
2.63065e-05
3.34592e-05
3.34538e-05
2.71485e-05
3.34594e-05
3.34542e-05
8.19685e-05
8.19657e-05
8.19684e-05
8.19703e-05
2.71456e-05
3.34618e-05
3.34571e-05
3.34617e-05
3.3457e-05
8.19647e-05
8.19668e-05
2.63066e-05
2.89615e-05
2.78366e-05
2.76034e-05
2.63066e-05
2.89587e-05
2.78366e-05
2.93613e-05
6.91851e-05
2.93629e-05
6.91823e-05
2.63063e-05
2.78365e-05
2.89609e-05
2.76027e-05
2.63064e-05
2.78365e-05
2.89579e-05
2.93638e-05
6.91842e-05
6.91866e-05
2.9362e-05
2.63071e-05
2.76034e-05
2.89593e-05
2.78365e-05
2.89623e-05
2.78365e-05
2.63067e-05
2.93634e-05
6.91814e-05
6.9184e-05
2.93616e-05
2.63067e-05
2.76027e-05
2.78364e-05
2.89586e-05
2.78364e-05
2.89619e-05
2.63065e-05
2.93612e-05
6.91841e-05
2.9363e-05
6.91815e-05
2.63062e-05
2.78365e-05
2.89608e-05
2.7603e-05
2.63062e-05
2.78365e-05
2.89579e-05
2.9361e-05
6.91865e-05
2.93628e-05
6.9184e-05
2.63062e-05
2.76035e-05
2.89589e-05
2.78365e-05
2.89622e-05
2.78366e-05
2.63061e-05
2.93635e-05
6.91809e-05
6.91833e-05
2.93616e-05
2.63067e-05
2.76029e-05
2.78364e-05
2.89584e-05
2.78364e-05
2.89615e-05
2.63064e-05
2.93633e-05
6.91833e-05
6.91856e-05
2.93613e-05
3.34541e-05
3.34554e-05
2.71481e-05
3.34541e-05
3.34554e-05
8.19749e-05
8.19714e-05
8.19655e-05
8.19684e-05
2.71452e-05
3.34562e-05
3.3458e-05
3.34564e-05
3.34576e-05
8.19694e-05
8.1972e-05
2.63055e-05
2.78364e-05
2.89613e-05
2.76032e-05
2.63054e-05
2.78364e-05
2.89584e-05
2.93601e-05
6.91874e-05
2.93622e-05
6.91848e-05
2.936e-05
6.91886e-05
2.93621e-05
6.91861e-05
2.63058e-05
2.76032e-05
2.78363e-05
2.89591e-05
2.78364e-05
2.89621e-05
2.63053e-05
2.6306e-05
2.76032e-05
2.78363e-05
2.8959e-05
2.78363e-05
2.89621e-05
2.63056e-05
2.93626e-05
6.91839e-05
6.91863e-05
2.93604e-05
2.93625e-05
6.91854e-05
6.91877e-05
2.93603e-05
8.19731e-05
8.19702e-05
8.19728e-05
8.197e-05
2.71455e-05
3.34591e-05
3.34602e-05
3.34587e-05
3.34597e-05
8.19689e-05
8.1971e-05
8.19686e-05
8.19707e-05
8.19699e-05
8.19683e-05
8.19698e-05
8.19679e-05
3.34614e-05
3.34601e-05
2.71489e-05
3.34615e-05
3.34604e-05
8.19685e-05
8.19695e-05
8.19676e-05
8.1969e-05
2.7146e-05
3.34631e-05
3.34624e-05
3.34635e-05
3.34625e-05
2.93623e-05
6.91853e-05
2.93639e-05
6.91833e-05
2.63068e-05
2.89622e-05
2.78367e-05
2.76033e-05
2.6307e-05
2.8959e-05
2.78367e-05
2.63069e-05
2.89636e-05
2.78366e-05
2.76032e-05
2.63071e-05
2.89604e-05
2.78366e-05
2.93645e-05
6.91811e-05
6.9183e-05
2.93629e-05
2.93647e-05
6.91833e-05
6.9185e-05
2.93632e-05
2.63073e-05
2.76033e-05
2.89594e-05
2.78366e-05
2.89626e-05
2.78367e-05
2.63071e-05
2.63074e-05
2.76032e-05
2.89607e-05
2.78365e-05
2.89639e-05
2.78366e-05
2.63073e-05
3.3464e-05
3.34595e-05
2.71487e-05
3.34637e-05
3.34589e-05
8.1966e-05
8.19644e-05
8.19687e-05
8.19695e-05
2.71458e-05
3.3465e-05
3.346e-05
3.34657e-05
3.3461e-05
8.1965e-05
8.1966e-05
2.6307e-05
2.89629e-05
2.78366e-05
2.76035e-05
2.63071e-05
2.89598e-05
2.78366e-05
2.93622e-05
6.91832e-05
2.93637e-05
6.91809e-05
2.63069e-05
2.78365e-05
2.89625e-05
2.76029e-05
2.6307e-05
2.78365e-05
2.89592e-05
2.93647e-05
6.91836e-05
6.91856e-05
2.93635e-05
2.63074e-05
2.76035e-05
2.89601e-05
2.78366e-05
2.89633e-05
2.78366e-05
2.63074e-05
2.93644e-05
6.91807e-05
6.91828e-05
2.93632e-05
2.63073e-05
2.76029e-05
2.78364e-05
2.89595e-05
2.78365e-05
2.8963e-05
2.63072e-05
2.93622e-05
6.91828e-05
2.93639e-05
6.91806e-05
2.63068e-05
2.78365e-05
2.8962e-05
2.7603e-05
2.63067e-05
2.78365e-05
2.89588e-05
2.9362e-05
6.9185e-05
2.93637e-05
6.91829e-05
2.63067e-05
2.76034e-05
2.89596e-05
2.78365e-05
2.8963e-05
2.78365e-05
2.63066e-05
2.93646e-05
6.91806e-05
6.91825e-05
2.9363e-05
2.63072e-05
2.7603e-05
2.78364e-05
2.89592e-05
2.78364e-05
2.89624e-05
2.63071e-05
2.93645e-05
6.91827e-05
6.91847e-05
2.93629e-05
3.34585e-05
3.34602e-05
2.71483e-05
3.34582e-05
3.34606e-05
8.19703e-05
8.19683e-05
8.19643e-05
8.19659e-05
2.71454e-05
3.34599e-05
3.34625e-05
3.34605e-05
3.34626e-05
8.19681e-05
8.19694e-05
2.6306e-05
2.78364e-05
2.89626e-05
2.76032e-05
2.63059e-05
2.78364e-05
2.89594e-05
2.93612e-05
6.91856e-05
2.9363e-05
6.91834e-05
2.93611e-05
6.91871e-05
2.93629e-05
6.91851e-05
2.6306e-05
2.76032e-05
2.78364e-05
2.89597e-05
2.78364e-05
2.8963e-05
2.63059e-05
2.63064e-05
2.76031e-05
2.78363e-05
2.89597e-05
2.78363e-05
2.8963e-05
2.63064e-05
2.93638e-05
6.91831e-05
6.91851e-05
2.93621e-05
2.93638e-05
6.91849e-05
6.91868e-05
2.93621e-05
8.19698e-05
8.19683e-05
8.19696e-05
8.1968e-05
2.71456e-05
3.34629e-05
3.34639e-05
3.34633e-05
3.34644e-05
8.19684e-05
8.19694e-05
8.19681e-05
8.19692e-05
8.19699e-05
8.19693e-05
8.19689e-05
8.19682e-05
3.34649e-05
3.34643e-05
2.71491e-05
3.34641e-05
3.34638e-05
8.19711e-05
8.19707e-05
8.19689e-05
8.19695e-05
2.71463e-05
3.34639e-05
3.34645e-05
3.34657e-05
3.34656e-05
2.93637e-05
6.91851e-05
2.93656e-05
6.91835e-05
2.63074e-05
2.8963e-05
2.78367e-05
2.76034e-05
2.63077e-05
2.89599e-05
2.78366e-05
2.63076e-05
2.89643e-05
2.78366e-05
2.76033e-05
2.63078e-05
2.89611e-05
2.78366e-05
2.93657e-05
6.91816e-05
6.91829e-05
2.93633e-05
2.9366e-05
6.91855e-05
6.91856e-05
2.93636e-05
2.63074e-05
2.76033e-05
2.896e-05
2.78364e-05
2.89634e-05
2.78365e-05
2.63066e-05
2.63077e-05
2.76032e-05
2.89612e-05
2.78365e-05
2.89647e-05
2.78365e-05
2.63069e-05
3.34669e-05
3.34621e-05
2.71489e-05
3.34656e-05
3.34605e-05
8.19666e-05
8.1966e-05
8.19719e-05
8.19715e-05
2.7146e-05
3.34651e-05
3.34601e-05
3.34671e-05
3.34622e-05
8.19681e-05
8.1968e-05
2.6308e-05
2.89636e-05
2.78367e-05
2.76037e-05
2.63079e-05
2.89605e-05
2.78367e-05
2.93639e-05
6.91826e-05
2.93654e-05
6.91807e-05
2.63078e-05
2.78365e-05
2.89633e-05
2.7603e-05
2.63078e-05
2.78365e-05
2.89599e-05
2.93664e-05
6.91839e-05
6.91855e-05
2.93646e-05
2.63084e-05
2.76036e-05
2.89609e-05
2.78366e-05
2.8964e-05
2.78367e-05
2.63078e-05
2.9366e-05
6.91808e-05
6.91826e-05
2.93643e-05
2.63083e-05
2.7603e-05
2.78364e-05
2.89601e-05
2.78365e-05
2.89636e-05
2.63077e-05
2.93635e-05
6.91826e-05
2.93654e-05
6.91808e-05
2.63072e-05
2.78366e-05
2.89627e-05
2.76031e-05
2.63076e-05
2.78365e-05
2.89596e-05
2.93635e-05
6.91845e-05
2.93653e-05
6.91827e-05
2.63075e-05
2.76033e-05
2.896e-05
2.78364e-05
2.89637e-05
2.78365e-05
2.63069e-05
2.93658e-05
6.91829e-05
6.91831e-05
2.93635e-05
2.63074e-05
2.7603e-05
2.78364e-05
2.89597e-05
2.78365e-05
2.89631e-05
2.63066e-05
2.93657e-05
6.91833e-05
6.91845e-05
2.93633e-05
3.3462e-05
3.34644e-05
2.71485e-05
3.34611e-05
3.34638e-05
8.19694e-05
8.19687e-05
8.19658e-05
8.19666e-05
2.71457e-05
3.34615e-05
3.34642e-05
3.34631e-05
3.34656e-05
8.19698e-05
8.19701e-05
2.63064e-05
2.78364e-05
2.89633e-05
2.76033e-05
2.63068e-05
2.78364e-05
2.89602e-05
2.93626e-05
6.91849e-05
2.93647e-05
6.9183e-05
2.93626e-05
6.91867e-05
2.93647e-05
6.9185e-05
2.63068e-05
2.76032e-05
2.78362e-05
2.89601e-05
2.78363e-05
2.89635e-05
2.63062e-05
2.63067e-05
2.76033e-05
2.78363e-05
2.89603e-05
2.78363e-05
2.89637e-05
2.6306e-05
2.93652e-05
6.91828e-05
6.91848e-05
2.93626e-05
2.93651e-05
6.91856e-05
6.91868e-05
2.93625e-05
8.19698e-05
8.19692e-05
8.19695e-05
8.19688e-05
2.71458e-05
3.34637e-05
3.34648e-05
3.34655e-05
3.34666e-05
8.19709e-05
8.19706e-05
8.19706e-05
8.19703e-05
8.1973e-05
8.19731e-05
8.19707e-05
8.19718e-05
3.34652e-05
3.3466e-05
2.71487e-05
3.34631e-05
3.34643e-05
8.19726e-05
8.19742e-05
8.19729e-05
8.19735e-05
2.71454e-05
3.34617e-05
3.34634e-05
3.34645e-05
3.34657e-05
2.93626e-05
6.91881e-05
2.93656e-05
6.91895e-05
2.63057e-05
2.89634e-05
2.78363e-05
2.76029e-05
2.63065e-05
2.89596e-05
2.78361e-05
2.63059e-05
2.89646e-05
2.78364e-05
2.76025e-05
2.63067e-05
2.89605e-05
2.78362e-05
2.93643e-05
6.91893e-05
6.91874e-05
2.93604e-05
2.93646e-05
6.91934e-05
6.91923e-05
2.93606e-05
2.63055e-05
2.76024e-05
2.89575e-05
2.78345e-05
2.89628e-05
2.78357e-05
2.63028e-05
2.63056e-05
2.76016e-05
2.89575e-05
2.7834e-05
2.89636e-05
2.78356e-05
2.63028e-05
3.34667e-05
3.34619e-05
2.71474e-05
3.34644e-05
3.34595e-05
8.197e-05
8.1969e-05
8.19723e-05
8.19738e-05
2.71437e-05
3.34616e-05
3.34567e-05
3.34656e-05
3.34609e-05
8.19686e-05
8.19704e-05
2.63065e-05
2.89643e-05
2.78366e-05
2.76034e-05
2.63076e-05
2.89608e-05
2.78364e-05
2.93636e-05
6.91829e-05
2.93662e-05
6.91823e-05
2.63064e-05
2.78363e-05
2.89638e-05
2.76027e-05
2.63074e-05
2.78362e-05
2.89599e-05
2.93657e-05
6.91895e-05
6.91882e-05
2.93627e-05
2.63064e-05
2.76031e-05
2.89597e-05
2.78356e-05
2.89641e-05
2.78361e-05
2.63054e-05
2.93653e-05
6.91864e-05
6.9185e-05
2.93623e-05
2.63063e-05
2.76024e-05
2.78355e-05
2.89588e-05
2.78359e-05
2.89635e-05
2.63053e-05
2.93624e-05
6.91857e-05
2.93654e-05
6.91868e-05
2.63056e-05
2.78363e-05
2.89632e-05
2.76025e-05
2.63065e-05
2.7836e-05
2.89593e-05
2.93622e-05
6.91855e-05
2.93653e-05
6.91861e-05
2.63055e-05
2.76019e-05
2.89564e-05
2.78341e-05
2.89626e-05
2.78355e-05
2.63027e-05
2.93644e-05
6.91908e-05
6.91898e-05
2.93605e-05
2.63054e-05
2.7602e-05
2.78343e-05
2.89572e-05
2.78355e-05
2.89625e-05
2.63028e-05
2.93643e-05
6.9191e-05
6.91889e-05
2.93603e-05
3.34631e-05
3.34656e-05
2.71483e-05
3.34608e-05
3.34633e-05
8.19717e-05
8.19728e-05
8.19693e-05
8.19704e-05
2.71452e-05
3.34599e-05
3.34625e-05
3.34624e-05
3.34647e-05
8.1973e-05
8.19742e-05
2.63051e-05
2.78362e-05
2.89637e-05
2.76027e-05
2.63059e-05
2.7836e-05
2.89598e-05
2.93616e-05
6.91846e-05
2.93648e-05
6.91841e-05
2.93615e-05
6.91878e-05
2.93647e-05
6.91884e-05
2.63049e-05
2.76026e-05
2.78347e-05
2.89582e-05
2.78357e-05
2.8963e-05
2.63025e-05
2.63049e-05
2.76022e-05
2.78343e-05
2.89578e-05
2.78356e-05
2.89631e-05
2.63024e-05
2.93639e-05
6.91887e-05
6.91867e-05
2.93599e-05
2.93638e-05
6.91931e-05
6.91912e-05
2.93597e-05
8.19728e-05
8.1973e-05
8.19724e-05
8.19726e-05
2.71446e-05
3.34615e-05
3.34626e-05
3.34644e-05
3.34654e-05
8.19725e-05
8.19741e-05
8.19723e-05
8.19738e-05
8.19735e-05
8.19716e-05
8.19737e-05
8.19718e-05
3.34625e-05
3.34646e-05
2.71421e-05
3.34577e-05
3.34605e-05
8.19711e-05
8.19726e-05
8.19709e-05
8.19726e-05
2.71378e-05
3.34543e-05
3.34561e-05
3.34582e-05
3.34609e-05
2.93567e-05
6.91956e-05
2.93621e-05
6.91944e-05
2.62962e-05
2.89601e-05
2.78323e-05
2.75969e-05
2.63016e-05
2.89535e-05
2.78305e-05
2.62962e-05
2.896e-05
2.78318e-05
2.75956e-05
2.63016e-05
2.89534e-05
2.78301e-05
2.93577e-05
6.91914e-05
6.91932e-05
2.93534e-05
2.9358e-05
6.91941e-05
6.91961e-05
2.93537e-05
2.62957e-05
2.75953e-05
2.89507e-05
2.78282e-05
2.89561e-05
2.7829e-05
2.62949e-05
2.62958e-05
2.75944e-05
2.89511e-05
2.78281e-05
2.89561e-05
2.78288e-05
2.6295e-05
3.34621e-05
3.34576e-05
2.71398e-05
3.34567e-05
3.34516e-05
8.19698e-05
8.19677e-05
8.1971e-05
8.19724e-05
2.71363e-05
3.34544e-05
3.34489e-05
3.34575e-05
3.34525e-05
8.19672e-05
8.19689e-05
2.62999e-05
2.89626e-05
2.78342e-05
2.75983e-05
2.63049e-05
2.89564e-05
2.78321e-05
2.93591e-05
6.91896e-05
2.93639e-05
6.91907e-05
2.62997e-05
2.78342e-05
2.8962e-05
2.75981e-05
2.63047e-05
2.78321e-05
2.89556e-05
2.93604e-05
6.91943e-05
6.91957e-05
2.93555e-05
2.62981e-05
2.75963e-05
2.89527e-05
2.78288e-05
2.89588e-05
2.78302e-05
2.62955e-05
2.936e-05
6.91916e-05
6.91931e-05
2.93552e-05
2.62979e-05
2.75961e-05
2.78288e-05
2.89518e-05
2.78301e-05
2.89583e-05
2.62953e-05
2.93566e-05
6.91932e-05
2.9362e-05
6.91918e-05
2.62962e-05
2.78321e-05
2.89598e-05
2.75964e-05
2.63016e-05
2.78303e-05
2.89533e-05
2.93564e-05
6.91936e-05
2.93618e-05
6.91932e-05
2.62958e-05
2.75948e-05
2.89498e-05
2.78281e-05
2.89551e-05
2.78289e-05
2.62949e-05
2.93579e-05
6.91915e-05
6.91937e-05
2.93536e-05
2.62957e-05
2.75949e-05
2.78281e-05
2.89506e-05
2.78289e-05
2.89559e-05
2.62949e-05
2.93578e-05
6.91932e-05
6.9195e-05
2.93535e-05
3.34613e-05
3.34637e-05
2.71428e-05
3.34572e-05
3.34599e-05
8.19738e-05
8.19718e-05
8.19675e-05
8.19695e-05
2.71384e-05
3.34527e-05
3.34556e-05
3.3458e-05
3.34603e-05
8.19712e-05
8.19727e-05
2.62957e-05
2.78322e-05
2.89604e-05
2.75966e-05
2.63013e-05
2.78304e-05
2.89538e-05
2.93559e-05
6.91918e-05
2.93616e-05
6.91928e-05
2.93558e-05
6.91957e-05
2.93615e-05
6.91954e-05
2.62953e-05
2.7596e-05
2.78283e-05
2.89515e-05
2.78292e-05
2.89573e-05
2.62942e-05
2.62951e-05
2.75951e-05
2.78281e-05
2.89511e-05
2.78289e-05
2.89565e-05
2.62941e-05
2.93573e-05
6.91935e-05
6.91949e-05
2.93527e-05
2.93572e-05
6.91953e-05
6.91972e-05
2.93525e-05
8.19734e-05
8.19716e-05
8.19732e-05
8.19713e-05
2.7137e-05
3.34542e-05
3.34551e-05
3.3458e-05
3.3459e-05
8.19711e-05
8.19725e-05
8.19708e-05
8.19723e-05
8.19722e-05
8.19711e-05
8.19719e-05
8.19707e-05
3.34554e-05
3.34568e-05
2.71384e-05
3.34531e-05
3.34539e-05
8.19723e-05
8.19721e-05
8.19719e-05
8.19716e-05
2.71356e-05
3.34527e-05
3.34533e-05
3.34545e-05
3.34552e-05
2.93526e-05
6.91958e-05
2.93556e-05
6.91942e-05
2.62947e-05
2.89538e-05
2.7828e-05
2.7594e-05
2.62951e-05
2.89496e-05
2.7828e-05
2.62949e-05
2.89543e-05
2.7828e-05
2.75939e-05
2.62953e-05
2.89503e-05
2.7828e-05
2.93544e-05
6.91925e-05
6.91927e-05
2.9352e-05
2.93548e-05
6.91953e-05
6.91955e-05
2.93524e-05
2.6295e-05
2.75938e-05
2.89487e-05
2.78279e-05
2.89529e-05
2.78279e-05
2.62946e-05
2.62952e-05
2.75938e-05
2.89496e-05
2.78279e-05
2.89537e-05
2.78279e-05
2.62948e-05
3.34558e-05
3.34505e-05
2.71385e-05
3.34539e-05
3.34484e-05
8.19686e-05
8.19673e-05
8.19722e-05
8.1972e-05
2.71356e-05
3.34537e-05
3.34482e-05
3.34555e-05
3.34502e-05
8.19683e-05
8.19685e-05
2.62952e-05
2.89555e-05
2.78283e-05
2.75942e-05
2.62957e-05
2.89508e-05
2.7828e-05
2.93532e-05
6.91934e-05
2.93565e-05
6.91915e-05
2.6295e-05
2.78282e-05
2.89549e-05
2.75937e-05
2.62955e-05
2.78279e-05
2.89498e-05
2.93555e-05
6.91953e-05
6.91957e-05
2.93532e-05
2.62955e-05
2.75941e-05
2.89497e-05
2.78279e-05
2.89539e-05
2.78279e-05
2.62951e-05
2.93551e-05
6.91924e-05
6.9193e-05
2.93527e-05
2.62953e-05
2.75936e-05
2.78278e-05
2.89486e-05
2.78278e-05
2.89532e-05
2.62949e-05
2.93525e-05
6.91933e-05
2.93555e-05
6.91915e-05
2.62947e-05
2.7828e-05
2.89537e-05
2.7594e-05
2.62951e-05
2.7828e-05
2.89494e-05
2.93523e-05
6.91948e-05
2.93553e-05
6.91932e-05
2.62953e-05
2.75942e-05
2.89483e-05
2.78279e-05
2.89525e-05
2.78279e-05
2.62948e-05
2.93546e-05
6.91926e-05
6.9193e-05
2.93523e-05
2.6295e-05
2.75939e-05
2.78279e-05
2.89486e-05
2.78279e-05
2.89527e-05
2.62946e-05
2.93545e-05
6.91943e-05
6.91946e-05
2.93521e-05
3.34536e-05
3.34564e-05
2.71382e-05
3.34502e-05
3.34534e-05
8.19722e-05
8.19711e-05
8.19682e-05
8.19685e-05
2.71353e-05
3.34495e-05
3.34527e-05
3.34518e-05
3.34547e-05
8.19723e-05
8.1972e-05
2.62939e-05
2.7828e-05
2.89542e-05
2.75942e-05
2.62944e-05
2.78279e-05
2.89499e-05
2.93513e-05
6.91952e-05
2.93543e-05
6.91937e-05
2.93513e-05
6.9197e-05
2.93545e-05
6.91953e-05
2.62944e-05
2.75941e-05
2.78278e-05
2.89487e-05
2.78279e-05
2.8953e-05
2.6294e-05
2.62943e-05
2.7594e-05
2.78278e-05
2.89491e-05
2.78278e-05
2.89532e-05
2.62938e-05
2.93534e-05
6.91947e-05
6.9195e-05
2.93507e-05
2.93537e-05
6.91964e-05
6.91967e-05
2.93511e-05
8.19721e-05
8.19711e-05
8.19719e-05
8.19708e-05
2.71357e-05
3.34526e-05
3.34536e-05
3.34545e-05
3.34554e-05
8.19723e-05
8.1972e-05
8.1972e-05
8.19717e-05
8.19719e-05
8.19758e-05
8.19715e-05
8.19754e-05
3.34543e-05
3.34548e-05
2.71386e-05
3.34524e-05
3.3453e-05
8.19767e-05
8.19701e-05
8.19762e-05
8.19696e-05
2.71357e-05
3.34532e-05
3.34538e-05
3.34548e-05
3.34554e-05
2.93525e-05
6.91955e-05
2.93549e-05
6.91986e-05
2.62947e-05
2.89519e-05
2.7828e-05
2.7594e-05
2.62949e-05
2.89469e-05
2.7828e-05
2.62949e-05
2.89528e-05
2.7828e-05
2.75939e-05
2.62951e-05
2.89478e-05
2.7828e-05
2.93547e-05
6.91995e-05
6.91943e-05
2.93521e-05
2.93551e-05
6.92023e-05
6.91972e-05
2.93524e-05
2.62952e-05
2.75939e-05
2.8944e-05
2.78279e-05
2.89505e-05
2.78279e-05
2.62946e-05
2.62954e-05
2.75939e-05
2.89448e-05
2.78279e-05
2.89514e-05
2.78279e-05
2.62948e-05
3.34554e-05
3.34502e-05
2.71385e-05
3.34535e-05
3.34478e-05
8.19682e-05
8.19726e-05
8.19765e-05
8.19699e-05
2.71356e-05
3.34543e-05
3.34484e-05
3.3456e-05
3.34504e-05
8.19747e-05
8.19675e-05
2.62951e-05
2.89528e-05
2.7828e-05
2.75942e-05
2.62954e-05
2.89478e-05
2.7828e-05
2.93528e-05
6.91929e-05
2.93549e-05
6.91957e-05
2.62949e-05
2.78279e-05
2.8952e-05
2.75937e-05
2.62952e-05
2.78279e-05
2.89467e-05
2.93555e-05
6.92023e-05
6.91972e-05
2.93531e-05
2.62956e-05
2.75941e-05
2.89448e-05
2.78279e-05
2.89513e-05
2.78279e-05
2.6295e-05
2.93551e-05
6.91994e-05
6.91945e-05
2.93526e-05
2.62954e-05
2.75937e-05
2.78278e-05
2.89437e-05
2.78278e-05
2.89505e-05
2.62948e-05
2.93524e-05
6.91931e-05
2.93547e-05
6.91959e-05
2.62948e-05
2.7828e-05
2.89518e-05
2.7594e-05
2.6295e-05
2.7828e-05
2.89468e-05
2.93522e-05
6.91945e-05
2.93546e-05
6.91975e-05
2.62953e-05
2.75942e-05
2.89436e-05