/*--------------------------------*- C++ -*----------------------------------*\
| =========                 |                                                 |
| \\      /  F ield         | OpenFOAM: The Open Source CFD Toolbox           |
|  \\    /   O peration     | Version:  2206                                  |
|   \\  /    A nd           | Website:  www.openfoam.com                      |
|    \\/     M anipulation  |                                                 |
\*---------------------------------------------------------------------------*/
FoamFile
{
    version     2.0;
    format      ascii;
    arch        "LSB;label=32;scalar=64";
    class       volScalarField;
    location    "23";
    object      p;
}
// * * * * * * * * * * * * * * * * * * * * * * * * * * * * * * * * * * * * * //

dimensions      [0 2 -2 0 0 0 0];

internalField   nonuniform List<scalar> 
28673
(
0.000521476
0.000524028
0.00047816
0.000478127
0.000478127
0.000480679
0.000434815
0.000434782
0.000434782
0.000437334
0.000391472
0.00039144
0.000391439
0.000393991
0.000348127
0.000348095
0.000348095
0.000350648
0.000304773
0.000304739
0.000304741
0.000307291
0.000261422
0.000261391
0.00026139
0.000263942
0.000218071
0.000218041
0.000218041
0.000220589
0.000174727
0.000174685
0.000174685
0.000177231
0.00013136
0.000131331
0.000131331
0.000133858
8.80241e-05
8.79863e-05
8.79846e-05
9.04912e-05
4.53362e-05
4.47845e-05
4.47815e-05
4.71537e-05
9.92893e-06
1.02026e-05
1.02004e-05
9.76218e-06
0.000532313
0.000529767
0.000532313
0.000486418
0.000521476
0.000521476
0.000488964
0.000488964
0.000524028
0.000486418
0.000488963
0.000488964
0.000521476
0.000488964
0.000488964
0.000486417
0.000521476
0.000488964
0.000488964
0.000486418
0.000480679
0.000443072
0.000478127
0.000478127
0.000445618
0.000445618
0.000480679
0.000443073
0.000478127
0.000478127
0.000445618
0.000445618
0.000478127
0.000445618
0.000445619
0.000480679
0.000443072
0.000478127
0.000445618
0.000445618
0.000443073
0.000437334
0.000399729
0.000434782
0.000434782
0.000402275
0.000402275
0.000437334
0.00039973
0.000434782
0.000434782
0.000402275
0.000402275
0.000434782
0.000402275
0.000402275
0.000437334
0.000399729
0.000434782
0.000402275
0.000402275
0.00039973
0.000393991
0.000356386
0.000391439
0.00039144
0.000358932
0.000358932
0.000393992
0.000356387
0.000391439
0.000391439
0.000358932
0.000358932
0.000391439
0.000358932
0.000358932
0.00039399
0.000356386
0.000391439
0.000358932
0.000358932
0.000356387
0.000350647
0.000313032
0.000348095
0.000348094
0.00031558
0.000315578
0.000350647
0.000313031
0.000348095
0.000348095
0.00031558
0.000315581
0.000348095
0.000315579
0.000315579
0.000350648
0.000313033
0.000348095
0.00031558
0.000315579
0.000313031
0.000307292
0.00026968
0.00030474
0.000304739
0.000272227
0.000272227
0.000307291
0.000269681
0.000304741
0.000304741
0.000272226
0.000272226
0.00030474
0.000272227
0.000272227
0.000307293
0.00026968
0.00030474
0.000272227
0.000272227
0.000269681
0.000263941
0.000226332
0.000261391
0.000261391
0.00022888
0.000228879
0.000263942
0.000226332
0.00026139
0.00026139
0.000228879
0.000228879
0.000261391
0.00022888
0.00022888
0.000263941
0.000226332
0.000261391
0.000228879
0.000228879
0.000226332
0.000220589
0.000182981
0.000218041
0.000218041
0.000185514
0.000185515
0.000220589
0.000182981
0.000218041
0.000218041
0.000185514
0.000185515
0.000218041
0.000185514
0.000185515
0.000220589
0.000182981
0.000218041
0.000185514
0.000185515
0.000182981
0.000177231
0.000139646
0.000174685
0.000174685
0.000142198
0.000142198
0.000177231
0.000139647
0.000174685
0.000174685
0.000142198
0.000142198
0.000174685
0.000142198
0.000142198
0.000177231
0.000139646
0.000174685
0.000142198
0.000142198
0.000139646
0.000133858
9.62855e-05
0.000131331
0.000131331
9.88238e-05
9.88246e-05
0.000133858
9.62864e-05
0.000131331
0.000131331
9.88237e-05
9.88233e-05
0.000131331
9.8824e-05
9.88236e-05
0.000133858
9.62849e-05
0.000131331
9.88232e-05
9.88232e-05
9.62851e-05
9.04922e-05
5.29671e-05
8.79855e-05
8.79865e-05
5.5507e-05
5.55074e-05
9.04923e-05
5.29681e-05
8.79851e-05
8.79845e-05
5.5505e-05
5.55046e-05
8.79855e-05
5.55059e-05
5.55042e-05
9.04916e-05
5.29645e-05
8.79848e-05
5.55034e-05
5.55029e-05
5.29642e-05
4.71574e-05
1.35458e-05
4.47863e-05
4.47865e-05
1.57989e-05
1.57982e-05
4.71577e-05
1.35457e-05
4.47842e-05
4.47829e-05
1.57969e-05
1.57931e-05
4.47821e-05
1.57957e-05
1.57915e-05
4.71541e-05
1.35413e-05
4.4781e-05
1.57935e-05
1.5793e-05
1.35401e-05
9.76615e-06
1.02039e-05
1.02043e-05
9.76724e-06
1.02023e-05
1.01999e-05
9.92883e-06
9.92674e-06
9.92639e-06
1.0199e-05
9.76322e-06
1.01995e-05
0.000507956
0.000524184
0.000524186
0.000507957
0.000524186
0.000507956
0.000507957
0.000507957
0.000521508
0.000521508
0.000488996
0.000488996
0.000488997
0.000488996
0.00050801
0.000524153
0.000521484
0.000510638
0.000524139
0.000507987
0.000510646
0.000507956
0.00050801
0.000521484
0.000510639
0.000524139
0.000510646
0.000507988
0.00052419
0.00052419
0.000508092
0.000507953
0.000507953
0.00046461
0.000480836
0.000480838
0.00046461
0.000480837
0.000464609
0.00046461
0.000480835
0.000480838
0.00046461
0.00047816
0.00047816
0.000478159
0.000445651
0.000445651
0.000445651
0.000445651
0.000464663
0.000480805
0.000478135
0.000467291
0.00048079
0.00046464
0.000467299
0.000480837
0.000464609
0.000464663
0.000478135
0.000480805
0.00046729
0.000480789
0.000467299
0.00046464
0.00048084
0.00048084
0.000464745
0.000464606
0.000464606
0.000421266
0.000437491
0.000437493
0.000421266
0.000437493
0.000421266
0.000421266
0.00043749
0.000437493
0.000421266
0.000434815
0.000434815
0.000434815
0.000402307
0.000402308
0.000402307
0.000402307
0.000421319
0.00043746
0.000434791
0.000423947
0.000437445
0.000421297
0.000423955
0.000437492
0.000421265
0.000421319
0.00043479
0.00043746
0.000423946
0.000437444
0.000423954
0.000421296
0.000437496
0.000437496
0.000421401
0.000421262
0.000421262
0.000377925
0.000394149
0.00039415
0.000377924
0.00039415
0.000377925
0.000377923
0.000394148
0.00039415
0.000377924
0.000391472
0.000391472
0.000391472
0.000358964
0.000358965
0.000358964
0.000358964
0.000377977
0.000394117
0.000391448
0.000380605
0.000394102
0.000377956
0.000380612
0.000394149
0.000377923
0.000377976
0.000391447
0.000394117
0.000380603
0.000394102
0.000380612
0.000377954
0.000394154
0.000394154
0.000378059
0.00037792
0.00037792
0.000334581
0.000350808
0.000350809
0.000334579
0.000350809
0.000334575
0.000334581
0.000350807
0.000350808
0.000334581
0.000348128
0.000348127
0.000348127
0.000315612
0.000315611
0.000315613
0.000315611
0.00033463
0.000350777
0.000348102
0.000337257
0.00035076
0.000334608
0.000337264
0.000350808
0.000334581
0.000334631
0.000348103
0.000350775
0.000337257
0.000350759
0.000337265
0.00033461
0.000350814
0.000350814
0.000334711
0.000334576
0.000334576
0.00029122
0.000307448
0.000307451
0.00029122
0.000307449
0.000291219
0.00029122
0.00030745
0.000307455
0.00029122
0.000304772
0.000304773
0.000304772
0.000272259
0.000272259
0.000272259
0.000272259
0.000291272
0.000307417
0.000304748
0.000293901
0.000307401
0.00029125
0.000293909
0.000307451
0.000291219
0.000291272
0.000304748
0.00030742
0.000293902
0.000307402
0.000293909
0.000291251
0.000307453
0.000307453
0.000291354
0.000291216
0.000291216
0.000247873
0.000264098
0.0002641
0.00024787
0.0002641
0.00024787
0.000247873
0.000264098
0.000264099
0.00024787
0.000261422
0.000261422
0.000261422
0.000228907
0.000228907
0.000228907
0.000228907
0.000247925
0.000264067
0.000261399
0.000250554
0.000264051
0.000247904
0.000250561
0.000264099
0.000247869
0.000247925
0.000261398
0.000264066
0.000250553
0.000264051
0.00025056
0.000247903
0.000264103
0.000264103
0.000248007
0.000247868
0.000247868
0.000204532
0.000220747
0.000220745
0.000204528
0.000220754
0.000204513
0.000204531
0.000220747
0.000220745
0.000204527
0.000218071
0.000218071
0.000218071
0.000185554
0.000185554
0.000185554
0.000185554
0.000204583
0.000220704
0.000218049
0.000207198
0.000220695
0.000204576
0.000207204
0.000220755
0.000204513
0.000204583
0.000218049
0.000220704
0.000207198
0.000220695
0.000207204
0.000204576
0.000220752
0.000220752
0.000204654
0.000204524
0.000204524
0.000161149
0.000177382
0.000177372
0.000161162
0.00017739
0.000161142
0.000161149
0.000177382
0.000177372
0.000161161
0.000174727
0.000174727
0.000174727
0.000142198
0.000142198
0.000142198
0.000142199
0.000161199
0.000177343
0.0001747
0.000163868
0.000177348
0.0001612
0.000163876
0.000177391
0.000161142
0.000161198
0.0001747
0.000177343
0.000163868
0.000177348
0.000163875
0.000161201
0.000177374
0.000177374
0.000161322
0.000161173
0.000161173
0.000117857
0.000134061
0.000134024
0.000117838
0.000134123
0.000117722
0.000117856
0.000134061
0.000134023
0.000117836
0.00013136
0.00013136
0.000131359
9.88324e-05
9.88319e-05
9.88317e-05
9.88317e-05
0.000117881
0.000133995
0.000131331
0.000120491
0.000133961
0.000117914
0.000120497
0.000134122
0.000117719
0.000117881
0.000131331
0.000133995
0.000120491
0.000133961
0.000120497
0.000117911
0.00013404
0.00013404
0.000117967
0.00011785
0.000117852
7.4396e-05
9.06766e-05
9.06408e-05
7.4406e-05
9.08106e-05
7.41941e-05
7.43941e-05
9.06758e-05
9.06396e-05
7.44038e-05
8.80226e-05
8.80231e-05
8.80225e-05
5.57421e-05
5.5743e-05
5.57401e-05
5.57403e-05
7.44657e-05
9.05917e-05
8.79966e-05
7.71468e-05
9.06037e-05
7.44878e-05
7.71563e-05
9.08055e-05
7.41977e-05
7.44645e-05
8.79959e-05
9.05913e-05
7.71452e-05
9.06031e-05
7.71553e-05
7.4486e-05
9.06227e-05
9.06225e-05
7.46107e-05
7.44331e-05
7.44323e-05
3.01469e-05
4.6788e-05
4.69414e-05
2.9426e-05
4.72215e-05
2.88092e-05
3.01333e-05
4.6779e-05
4.69354e-05
2.94184e-05
4.53366e-05
4.53333e-05
4.53332e-05
1.72827e-05
1.7282e-05
1.72791e-05
1.72789e-05
3.07934e-05
4.68188e-05
4.50438e-05
3.43668e-05
4.70554e-05
3.0011e-05
3.477e-05
4.72059e-05
2.88166e-05
3.07935e-05
4.5041e-05
4.68173e-05
3.43639e-05
4.70554e-05
3.47673e-05
3.00126e-05
4.67305e-05
4.67297e-05
3.17485e-05
2.96628e-05
2.96601e-05
5.92373e-06
7.07618e-06
7.00423e-06
2.82356e-07
4.20257e-06
-3.18337e-06
5.94157e-06
7.05759e-06
6.99154e-06
2.88984e-07
2.89346e-06
1.03226e-05
1.03209e-05
3.26538e-06
1.05959e-05
2.96454e-06
2.96401e-06
5.15024e-06
7.27635e-06
9.70378e-06
3.4139e-06
8.76195e-06
4.51628e-06
3.09429e-06
4.16767e-06
-3.17786e-06
5.15543e-06
9.70313e-06
7.27209e-06
3.41319e-06
8.76166e-06
3.09476e-06
4.52517e-06
3.78223e-06
3.77969e-06
3.38894e-06
3.5332e-06
3.54551e-06
0.000529632
0.000529662
0.000529631
0.000529629
0.000529629
0.000529631
0.000529663
0.000529633
0.000524185
0.000507957
0.000507956
0.00052419
0.000508092
0.000507953
0.000507953
0.000486283
0.000502511
0.000486282
0.000502511
0.000502353
0.000486279
0.000486278
0.000502514
0.000502514
0.000507956
0.000524184
0.000524186
0.000507957
0.00050801
0.000524154
0.000521484
0.000510638
0.000524139
0.000507987
0.000510646
0.00050801
0.000524153
0.000521484
0.000510638
0.000524139
0.000507987
0.000510646
0.000502511
0.000486283
0.000502509
0.000486283
0.000502511
0.000486283
0.000502509
0.000486283
0.000502463
0.000499801
0.000486313
0.000488972
0.000502478
0.000499809
0.000486336
0.000502463
0.0004998
0.000486313
0.000488972
0.000502478
0.000499809
0.000486336
0.000524189
0.000524189
0.000508092
0.000507953
0.000507953
0.000524186
0.000507956
0.000486283
0.00050251
0.000502352
0.000486279
0.000486279
0.000502514
0.000502514
0.000486282
0.000502511
0.000508011
0.000510638
0.000507987
0.000510647
0.000507957
0.000507958
0.000508011
0.000510639
0.000510647
0.000507988
0.000502511
0.000486283
0.000502509
0.000486282
0.000502463
0.000499801
0.000486313
0.000488972
0.000502478
0.000499809
0.000486336
0.000502511
0.000486283
0.000502509
0.000486283
0.000502464
0.000499801
0.000488972
0.000486313
0.000499809
0.000502478
0.000486336
0.000507956
0.000524184
0.000524186
0.000507957
0.00050801
0.000521484
0.000524154
0.000510639
0.000524139
0.000510646
0.000507987
0.000507956
0.000524185
0.000524187
0.000507957
0.000502463
0.000499801
0.000486313
0.000488972
0.000502478
0.000499809
0.000486336
0.000502511
0.000486283
0.000502509
0.000486283
0.000502463
0.000499801
0.000488972
0.000486313
0.000499809
0.000502478
0.000486336
0.000502511
0.000486283
0.000502509
0.000486283
0.000508093
0.000507954
0.000507954
0.000507956
0.000486282
0.000502511
0.000502353
0.000486279
0.000486278
0.000502514
0.000502514
0.000486282
0.000502511
0.00050801
0.000521484
0.000524154
0.000510638
0.000524139
0.000510646
0.000507987
0.000507957
0.000524186
0.000507957
0.000507957
0.000524185
0.000524186
0.000507957
0.000502463
0.000499801
0.000488972
0.000486313
0.000499809
0.000502478
0.000486336
0.000502463
0.000499801
0.000488972
0.000486313
0.000499809
0.000502478
0.000486336
0.000502511
0.000486283
0.000502509
0.000486283
0.000502511
0.000486283
0.000502509
0.000486283
0.000524185
0.000507957
0.000524185
0.000507957
0.000502353
0.000486279
0.000486279
0.000502514
0.000502514
0.000486282
0.000502511
0.000486282
0.000502511
0.000480837
0.000464609
0.000480837
0.00046461
0.000480841
0.00048084
0.000464745
0.000464606
0.000464606
0.000442937
0.000459164
0.000442937
0.000459164
0.000459006
0.000442934
0.000442933
0.000459168
0.000459168
0.00046461
0.000480836
0.000480838
0.00046461
0.000464663
0.000480805
0.000478135
0.000467291
0.00048079
0.00046464
0.000467299
0.000464663
0.000480805
0.000478135
0.000467291
0.00048079
0.00046464
0.000467299
0.000459165
0.000442938
0.000459162
0.000442938
0.000459165
0.000442939
0.000459162
0.000442938
0.000459117
0.000456454
0.000442968
0.000445626
0.000459132
0.000456463
0.00044299
0.000459117
0.000456455
0.000442968
0.000445627
0.000459132
0.000456463
0.000442991
0.000480841
0.00048084
0.000464745
0.000464606
0.000464606
0.000480837
0.000464609
0.000442938
0.000459164
0.000459006
0.000442934
0.000442934
0.000459168
0.000459167
0.000442937
0.000459164
0.000464663
0.000480804
0.000478135
0.00046729
0.000480789
0.00046464
0.000467299
0.00046461
0.000480835
0.000480838
0.00046461
0.000464663
0.000478135
0.000480804
0.00046729
0.000480789
0.000467298
0.00046464
0.000459165
0.000442937
0.000459163
0.000442937
0.000459116
0.000456454
0.000442968
0.000445626
0.000459132
0.000456462
0.00044299
0.000459165
0.000442937
0.000459163
0.000442937
0.000459117
0.000456454
0.000445626
0.000442968
0.000456462
0.000459132
0.00044299
0.00046461
0.000480836
0.000480838
0.00046461
0.000464663
0.000478135
0.000480805
0.000467291
0.00048079
0.000467299
0.00046464
0.00046461
0.000480836
0.000480838
0.00046461
0.000459117
0.000456455
0.000442969
0.000445627
0.000459132
0.000456463
0.000442991
0.000459165
0.000442939
0.000459162
0.000442938
0.000459117
0.000456455
0.000445627
0.000442968
0.000456463
0.000459132
0.000442991
0.000459165
0.000442938
0.000459162
0.000442938
0.00048084
0.00048084
0.000464745
0.000464606
0.000464606
0.000480837
0.00046461
0.000442936
0.000459164
0.000459006
0.000442933
0.000442933
0.000459167
0.000459168
0.000442937
0.000459164
0.000464663
0.000478135
0.000480805
0.000467291
0.000480789
0.000467299
0.00046464
0.00046461
0.000480835
0.000480837
0.00046461
0.00046461
0.000480836
0.000480837
0.00046461
0.000459116
0.000456454
0.000445626
0.000442968
0.000456462
0.000459132
0.00044299
0.000459116
0.000456454
0.000445626
0.000442968
0.000456462
0.000459132
0.000442991
0.000459164
0.000442938
0.000459162
0.000442938
0.000459164
0.000442938
0.000459162
0.000442938
0.000480837
0.000464609
0.000480837
0.000464609
0.000459006
0.000442934
0.000442934
0.000459167
0.000459167
0.000442937
0.000459164
0.000442937
0.000459164
0.000437492
0.000421266
0.000437492
0.000421265
0.000437496
0.000437496
0.000421401
0.000421262
0.000421262
0.000399595
0.00041582
0.000399594
0.00041582
0.000415662
0.000399591
0.00039959
0.000415824
0.000415824
0.000421266
0.000437491
0.000437493
0.000421266
0.000421319
0.00043746
0.00043479
0.000423946
0.000437445
0.000421296
0.000423955
0.000421319
0.00043746
0.000434791
0.000423947
0.000437445
0.000421297
0.000423955
0.000415822
0.000399596
0.000415819
0.000399595
0.000415822
0.000399596
0.00041582
0.000399595
0.000415773
0.000413111
0.000399625
0.000402283
0.000415788
0.000413119
0.000399648
0.000415773
0.000413111
0.000399625
0.000402283
0.000415789
0.000413119
0.000399648
0.000437496
0.000437496
0.000421401
0.000421262
0.000421262
0.000437493
0.000421265
0.000399595
0.000415821
0.000415662
0.000399592
0.000399592
0.000415824
0.000415824
0.000399595
0.000415821
0.000421319
0.000437459
0.00043479
0.000423946
0.000437444
0.000421296
0.000423954
0.000421266
0.00043749
0.000437493
0.000421267
0.000421319
0.00043479
0.000437459
0.000423946
0.000437444
0.000423954
0.000421297
0.000415821
0.000399595
0.000415819
0.000399595
0.000415773
0.00041311
0.000399625
0.000402283
0.000415788
0.000413118
0.000399647
0.000415821
0.000399595
0.000415819
0.000399595
0.000415773
0.00041311
0.000402283
0.000399625
0.000413118
0.000415788
0.000399647
0.000421266
0.000437491
0.000437493
0.000421266
0.000421319
0.000434791
0.00043746
0.000423947
0.000437445
0.000423955
0.000421296
0.000421266
0.000437491
0.000437493
0.000421266
0.000415773
0.000413111
0.000399626
0.000402283
0.000415789
0.000413119
0.000399648
0.000415822
0.000399596
0.00041582
0.000399595
0.000415773
0.000413111
0.000402283
0.000399626
0.000413119
0.000415788
0.000399648
0.000415822
0.000399596
0.000415819
0.000399595
0.000437495
0.000437495
0.000421401
0.000421262
0.000421262
0.000437492
0.000421266
0.000399593
0.000415821
0.000415662
0.00039959
0.00039959
0.000415824
0.000415824
0.000399594
0.00041582
0.000421319
0.00043479
0.00043746
0.000423946
0.000437444
0.000423954
0.000421296
0.000421266
0.00043749
0.000437493
0.000421266
0.000421266
0.000437491
0.000437493
0.000421266
0.000415773
0.000413111
0.000402283
0.000399625
0.000413119
0.000415788
0.000399648
0.000415773
0.000413111
0.000402283
0.000399625
0.000413119
0.000415788
0.000399648
0.000415821
0.000399595
0.000415819
0.000399595
0.000415821
0.000399596
0.000415819
0.000399595
0.000437492
0.000421266
0.000437492
0.000421266
0.000415663
0.000399591
0.000399591
0.000415824
0.000415824
0.000399595
0.00041582
0.000399595
0.00041582
0.00039415
0.000377923
0.000394149
0.000377923
0.000394153
0.000394153
0.000378058
0.000377919
0.00037792
0.000356255
0.000372478
0.000356253
0.000372478
0.00037232
0.000356251
0.000356249
0.000372482
0.000372482
0.000377925
0.000394148
0.000394151
0.000377926
0.000377977
0.000394117
0.000391447
0.000380604
0.000394102
0.000377954
0.000380612
0.000377977
0.000394117
0.000391448
0.000380605
0.000394102
0.000377956
0.000380612
0.00037248
0.000356256
0.000372477
0.000356254
0.00037248
0.000356257
0.00037248
0.000356254
0.000372431
0.000369769
0.000356284
0.00035894
0.000372446
0.000369776
0.000356306
0.000372431
0.000369769
0.000356285
0.00035894
0.000372448
0.000369777
0.000356306
0.000394153
0.000394153
0.000378059
0.000377921
0.000377921
0.00039415
0.000377924
0.000356256
0.000372481
0.000372321
0.000356253
0.000356253
0.000372484
0.000372484
0.000356256
0.000372482
0.000377976
0.000394117
0.000391447
0.000380604
0.000394101
0.000377953
0.000380611
0.000377923
0.000394148
0.00039415
0.000377924
0.000377976
0.000391447
0.000394117
0.000380603
0.000394102
0.000380611
0.000377954
0.000372479
0.000356254
0.000372476
0.000356252
0.00037243
0.000369768
0.000356284
0.00035894
0.000372445
0.000369776
0.000356305
0.000372479
0.000356253
0.000372476
0.000356252
0.00037243
0.000369768
0.00035894
0.000356283
0.000369776
0.000372445
0.000356304
0.000377925
0.000394148
0.000394151
0.000377926
0.000377977
0.000391448
0.000394118
0.000380605
0.000394102
0.000380612
0.000377954
0.000377925
0.000394149
0.000394151
0.000377924
0.000372432
0.000369769
0.000356286
0.00035894
0.000372448
0.000369777
0.000356306
0.000372481
0.000356257
0.00037248
0.000356254
0.000372431
0.000369769
0.00035894
0.000356285
0.000369777
0.000372447
0.000356306
0.00037248
0.000356256
0.000372477
0.000356254
0.000394152
0.000394153
0.000378058
0.00037792
0.00037792
0.000394149
0.000377924
0.000356252
0.000372478
0.00037232
0.000356248
0.000356249
0.000372481
0.000372481
0.000356252
0.000372478
0.000377977
0.000391447
0.000394117
0.000380604
0.000394102
0.000380612
0.000377954
0.000377925
0.000394148
0.00039415
0.000377924
0.000377925
0.000394149
0.00039415
0.000377924
0.000372431
0.000369768
0.00035894
0.000356283
0.000369776
0.000372446
0.000356305
0.000372431
0.000369769
0.00035894
0.000356285
0.000369776
0.000372446
0.000356306
0.00037248
0.000356253
0.000372477
0.000356253
0.00037248
0.000356256
0.000372477
0.000356253
0.00039415
0.000377923
0.00039415
0.000377923
0.000372321
0.000356252
0.000356252
0.000372482
0.000372482
0.000356255
0.000372478
0.000356255
0.000372478
0.00035081
0.000334578
0.000350809
0.000334581
0.000350814
0.000350812
0.000334712
0.000334576
0.000334578
0.000312896
0.00032913
0.000312898
0.000329133
0.000328971
0.000312894
0.000312895
0.000329135
0.000329138
0.000334581
0.000350808
0.000350809
0.000334577
0.00033463
0.000350776
0.000348103
0.000337257
0.00035076
0.00033461
0.000337265
0.00033463
0.000350776
0.000348102
0.000337257
0.000350759
0.000334608
0.000337264
0.000329134
0.000312897
0.00032913
0.000312899
0.000329134
0.000312897
0.000329127
0.000312899
0.000329082
0.000326419
0.000312929
0.000315587
0.0003291
0.000326426
0.000312949
0.000329082
0.000326418
0.000312927
0.000315587
0.000329097
0.000326426
0.000312949
0.000350814
0.000350814
0.00033471
0.000334573
0.000334574
0.00035081
0.000334575
0.000312895
0.000329128
0.000328969
0.000312893
0.000312893
0.000329133
0.000329133
0.000312895
0.000329128
0.000334631
0.000350776
0.000348103
0.000337257
0.000350758
0.00033461
0.000337265
0.000334581
0.000350807
0.000350808
0.000334582
0.000334631
0.000348103
0.000350775
0.000337257
0.000350759
0.000337265
0.000334611
0.000329136
0.0003129
0.000329131
0.000312903
0.000329084
0.000326419
0.000312931
0.000315588
0.0003291
0.000326427
0.000312952
0.000329136
0.0003129
0.000329133
0.000312903
0.000329084
0.000326419
0.000315588
0.000312932
0.000326427
0.000329101
0.000312952
0.000334581
0.000350808
0.000350809
0.000334577
0.00033463
0.000348103
0.000350776
0.000337257
0.000350759
0.000337265
0.000334609
0.000334581
0.000350809
0.000350809
0.000334579
0.000329082
0.000326418
0.000312927
0.000315587
0.000329097
0.000326426
0.000312949
0.000329134
0.000312897
0.000329127
0.000312899
0.000329082
0.000326419
0.000315587
0.000312928
0.000326426
0.000329099
0.000312949
0.000329134
0.000312897
0.000329129
0.000312899
0.000350811
0.000350812
0.000334712
0.000334579
0.000334579
0.000350809
0.000334581
0.000312898
0.000329134
0.000328972
0.000312897
0.000312895
0.000329139
0.000329138
0.000312898
0.000329134
0.000334631
0.000348103
0.000350776
0.000337257
0.000350759
0.000337265
0.00033461
0.000334582
0.000350807
0.000350809
0.000334582
0.000334582
0.000350809
0.000350809
0.000334579
0.000329083
0.000326419
0.000315588
0.000312931
0.000326427
0.000329101
0.00031295
0.000329083
0.000326419
0.000315587
0.000312929
0.000326427
0.000329099
0.00031295
0.000329135
0.0003129
0.000329132
0.0003129
0.000329135
0.000312898
0.000329129
0.0003129
0.000350811
0.000334578
0.000350811
0.000334578
0.000328971
0.000312893
0.000312893
0.000329135
0.000329135
0.000312896
0.00032913
0.000312896
0.00032913
0.000307449
0.000291219
0.00030745
0.000291219
0.000307454
0.000307455
0.000291354
0.000291216
0.000291216
0.000269545
0.000285773
0.000269545
0.000285773
0.000285615
0.000269542
0.000269541
0.000285777
0.000285777
0.00029122
0.000307448
0.000307451
0.00029122
0.000291272
0.000307418
0.000304748
0.000293901
0.000307401
0.00029125
0.000293909
0.000291272
0.000307417
0.000304748
0.000293901
0.000307401
0.00029125
0.000293909
0.000285774
0.000269546
0.000285772
0.000269546
0.000285774
0.000269546
0.000285772
0.000269546
0.000285725
0.000283064
0.000269576
0.000272234
0.000285741
0.000283072
0.000269598
0.000285725
0.000283064
0.000269577
0.000272235
0.000285741
0.000283072
0.000269598
0.000307453
0.000307453
0.000291355
0.000291216
0.000291216
0.000307449
0.000291219
0.000269545
0.000285773
0.000285616
0.000269542
0.000269542
0.000285777
0.000285777
0.000269545
0.000285774
0.000291272
0.00030742
0.000304749
0.000293902
0.000307403
0.000291251
0.00029391
0.00029122
0.00030745
0.000307455
0.00029122
0.000291272
0.000304749
0.00030742
0.000293902
0.000307403
0.00029391
0.000291251
0.000285774
0.000269546
0.000285772
0.000269545
0.000285725
0.000283064
0.000269576
0.000272234
0.000285741
0.000283072
0.000269598
0.000285774
0.000269545
0.000285772
0.000269545
0.000285725
0.000283064
0.000272234
0.000269576
0.000283072
0.000285741
0.000269598
0.00029122
0.000307448
0.000307451
0.000291221
0.000291272
0.000304748
0.000307418
0.000293901
0.000307401
0.000293909
0.00029125
0.00029122
0.000307448
0.000307451
0.00029122
0.000285725
0.000283064
0.000269577
0.000272235
0.000285741
0.000283072
0.000269599
0.000285774
0.000269546
0.000285772
0.000269546
0.000285725
0.000283064
0.000272235
0.000269576
0.000283072
0.000285741
0.000269599
0.000285774
0.000269546
0.000285772
0.000269546
0.000307455
0.000307455
0.000291354
0.000291216
0.000291216
0.00030745
0.000291219
0.000269544
0.000285773
0.000285615
0.000269541
0.000269541
0.000285777
0.000285777
0.000269545
0.000285773
0.000291272
0.000304748
0.000307418
0.000293901
0.000307402
0.000293909
0.00029125
0.00029122
0.00030745
0.000307452
0.00029122
0.00029122
0.000307448
0.000307452
0.00029122
0.000285725
0.000283064
0.000272234
0.000269576
0.000283072
0.000285741
0.000269598
0.000285725
0.000283064
0.000272234
0.000269576
0.000283072
0.000285741
0.000269599
0.000285774
0.000269545
0.000285772
0.000269546
0.000285774
0.000269546
0.000285772
0.000269546
0.000307449
0.000291219
0.000307449
0.000291219
0.000285615
0.000269542
0.000269542
0.000285777
0.000285777
0.000269545
0.000285773
0.000269545
0.000285773
0.000264099
0.000247869
0.000264099
0.000247869
0.000264103
0.000264102
0.000248007
0.000247867
0.000247867
0.000226189
0.000242427
0.000226189
0.000242427
0.000242267
0.000226191
0.000226191
0.000242429
0.000242429
0.000247873
0.000264098
0.0002641
0.000247871
0.000247925
0.000264067
0.000261398
0.000250554
0.000264051
0.000247903
0.000250561
0.000247925
0.000264067
0.000261399
0.000250554
0.000264051
0.000247904
0.000250561
0.000242424
0.000226193
0.000242425
0.000226199
0.000242424
0.000226193
0.000242425
0.000226199
0.000242376
0.000239718
0.000226234
0.000228885
0.00024239
0.000239725
0.000226252
0.000242376
0.000239718
0.000226235
0.000228886
0.00024239
0.000239725
0.000226252
0.000264103
0.000264103
0.000248007
0.000247868
0.000247868
0.0002641
0.000247869
0.000226189
0.000242427
0.000242267
0.000226192
0.000226192
0.000242429
0.000242429
0.000226189
0.000242427
0.000247925
0.000264066
0.000261398
0.000250553
0.000264051
0.000247903
0.00025056
0.000247873
0.000264097
0.000264099
0.00024787
0.000247925
0.000261398
0.000264066
0.000250553
0.000264051
0.00025056
0.000247903
0.000242424
0.000226193
0.000242425
0.000226198
0.000242375
0.000239718
0.000226234
0.000228885
0.00024239
0.000239725
0.000226252
0.000242424
0.000226193
0.000242424
0.000226198
0.000242375
0.000239718
0.000228885
0.000226234
0.000239725
0.00024239
0.000226251
0.000247873
0.000264098
0.0002641
0.000247871
0.000247925
0.000261398
0.000264067
0.000250554
0.000264051
0.000250561
0.000247904
0.000247873
0.000264098
0.0002641
0.000247871
0.000242376
0.000239718
0.000226235
0.000228886
0.00024239
0.000239725
0.000226252
0.000242424
0.000226194
0.000242425
0.000226199
0.000242376
0.000239718
0.000228886
0.000226235
0.000239725
0.00024239
0.000226252
0.000242424
0.000226194
0.000242425
0.000226199
0.000264102
0.000264102
0.000248007
0.000247867
0.000247867
0.000264099
0.000247869
0.000226189
0.000242427
0.000242267
0.000226191
0.000226191
0.000242428
0.000242428
0.000226189
0.000242427
0.000247925
0.000261398
0.000264067
0.000250554
0.000264051
0.00025056
0.000247904
0.000247873
0.000264098
0.000264099
0.00024787
0.000247873
0.000264098
0.000264099
0.00024787
0.000242376
0.000239718
0.000228885
0.000226234
0.000239725
0.00024239
0.000226252
0.000242375
0.000239718
0.000228885
0.000226234
0.000239725
0.00024239
0.000226252
0.000242424
0.000226193
0.000242425
0.000226199
0.000242424
0.000226193
0.000242425
0.000226199
0.000264099
0.00024787
0.000264099
0.000247869
0.000242267
0.000226192
0.000226192
0.000242429
0.000242429
0.000226189
0.000242427
0.000226189
0.000242427
0.000220754
0.000204513
0.000220754
0.000204513
0.000220752
0.000220752
0.000204654
0.000204524
0.000204524
0.000182857
0.000199072
0.000182857
0.000199072
0.000198902
0.000182872
0.00018287
0.00019906
0.00019906
0.000204531
0.000220747
0.000220745
0.000204528
0.000204583
0.000220704
0.000218049
0.000207198
0.000220695
0.000204576
0.000207204
0.000204583
0.000220704
0.000218049
0.000207198
0.000220695
0.000204576
0.000207204
0.000199053
0.000182868
0.000199055
0.00018288
0.000199053
0.000182868
0.000199055
0.000182881
0.000199007
0.000196355
0.000182907
0.000185522
0.000199008
0.000196364
0.00018291
0.000199007
0.000196355
0.000182909
0.000185522
0.000199008
0.000196364
0.00018291
0.000220752
0.000220751
0.000204655
0.000204524
0.000204524
0.000220755
0.000204513
0.000182857
0.000199072
0.000198902
0.00018287
0.000182872
0.00019906
0.00019906
0.000182857
0.000199072
0.000204583
0.000220703
0.000218049
0.000207198
0.000220695
0.000204576
0.000207204
0.000204531
0.000220747
0.000220745
0.000204528
0.000204583
0.000218049
0.000220704
0.000207198
0.000220695
0.000207204
0.000204575
0.000199053
0.000182868
0.000199055
0.00018288
0.000199007
0.000196355
0.000182909
0.000185522
0.000199007
0.000196364
0.00018291
0.000199053
0.000182869
0.000199055
0.00018288
0.000199007
0.000196355
0.000185522
0.000182914
0.000196364
0.000199007
0.00018291
0.000204532
0.000220748
0.000220745
0.000204528
0.000204583
0.000218049
0.000220704
0.000207198
0.000220695
0.000207204
0.000204576
0.000204532
0.000220747
0.000220745
0.000204528
0.000199007
0.000196355
0.000182907
0.000185522