/*--------------------------------*- C++ -*----------------------------------*\
| =========                 |                                                 |
| \\      /  F ield         | OpenFOAM: The Open Source CFD Toolbox           |
|  \\    /   O peration     | Version:  2206                                  |
|   \\  /    A nd           | Website:  www.openfoam.com                      |
|    \\/     M anipulation  |                                                 |
\*---------------------------------------------------------------------------*/
FoamFile
{
    version     2.0;
    format      ascii;
    arch        "LSB;label=32;scalar=64";
    class       volScalarField;
    location    "8";
    object      epsilon;
}
// * * * * * * * * * * * * * * * * * * * * * * * * * * * * * * * * * * * * * //

dimensions      [0 2 -3 0 0 0 0];

internalField   nonuniform List<scalar> 
28687
(
4.37573e-07
4.41977e-07
4.41979e-07
4.48832e-07
4.37563e-07
4.41964e-07
4.41971e-07
4.48845e-07
4.37355e-07
4.4176e-07
4.41785e-07
4.4871e-07
4.37298e-07
4.41733e-07
4.41735e-07
4.4865e-07
4.37298e-07
4.41733e-07
4.41734e-07
4.48654e-07
4.37298e-07
4.41733e-07
4.41734e-07
4.48654e-07
4.37298e-07
4.41733e-07
4.41734e-07
4.48654e-07
4.37298e-07
4.41733e-07
4.41735e-07
4.48654e-07
4.37298e-07
4.41733e-07
4.41734e-07
4.48654e-07
4.37298e-07
4.41733e-07
4.41734e-07
4.48654e-07
4.37298e-07
4.41733e-07
4.41735e-07
4.48654e-07
4.37298e-07
4.41733e-07
4.41734e-07
4.48654e-07
4.37298e-07
4.41733e-07
4.41734e-07
4.48654e-07
4.37298e-07
4.41733e-07
4.41734e-07
4.48654e-07
4.37298e-07
4.41733e-07
4.41734e-07
4.48654e-07
4.37298e-07
4.41733e-07
4.41734e-07
4.48654e-07
4.37298e-07
4.41733e-07
4.41735e-07
4.48654e-07
4.37297e-07
4.41733e-07
4.41734e-07
4.48654e-07
4.41982e-07
4.48768e-07
4.41977e-07
4.48829e-07
4.48775e-07
4.4198e-07
4.41982e-07
4.41977e-07
4.41975e-07
4.48843e-07
4.48778e-07
4.41978e-07
4.41983e-07
4.41975e-07
4.4198e-07
4.41981e-07
4.41974e-07
4.41978e-07
4.48831e-07
4.48777e-07
4.41978e-07
4.41975e-07
4.41975e-07
4.48778e-07
4.48845e-07
4.48661e-07
4.41973e-07
4.41966e-07
4.41846e-07
4.41801e-07
4.48847e-07
4.48619e-07
4.41971e-07
4.41976e-07
4.41844e-07
4.41849e-07
4.41974e-07
4.41802e-07
4.41846e-07
4.48848e-07
4.48663e-07
4.41971e-07
4.41845e-07
4.41843e-07
4.4866e-07
4.48714e-07
4.48579e-07
4.41789e-07
4.41764e-07
4.41737e-07
4.41737e-07
4.48678e-07
4.4858e-07
4.41787e-07
4.41792e-07
4.41735e-07
4.4174e-07
4.4179e-07
4.41733e-07
4.41737e-07
4.48716e-07
4.48581e-07
4.41787e-07
4.41735e-07
4.41734e-07
4.4858e-07
4.48652e-07
4.48585e-07
4.4174e-07
4.4174e-07
4.41738e-07
4.41737e-07
4.48654e-07
4.48582e-07
4.41738e-07
4.41743e-07
4.41735e-07
4.4174e-07
4.4174e-07
4.41733e-07
4.41737e-07
4.48655e-07
4.48587e-07
4.41738e-07
4.41735e-07
4.41735e-07
4.48586e-07
4.48656e-07
4.48584e-07
4.4174e-07
4.4174e-07
4.41737e-07
4.41737e-07
4.48654e-07
4.48582e-07
4.41738e-07
4.41743e-07
4.41735e-07
4.4174e-07
4.4174e-07
4.41733e-07
4.41737e-07
4.48658e-07
4.48587e-07
4.41738e-07
4.41734e-07
4.41735e-07
4.48587e-07
4.48656e-07
4.48584e-07
4.4174e-07
4.4174e-07
4.41737e-07
4.41737e-07
4.48653e-07
4.48582e-07
4.41738e-07
4.41743e-07
4.41735e-07
4.4174e-07
4.4174e-07
4.41733e-07
4.41737e-07
4.48657e-07
4.48587e-07
4.41738e-07
4.41734e-07
4.41735e-07
4.48587e-07
4.48656e-07
4.48585e-07
4.4174e-07
4.4174e-07
4.41738e-07
4.41738e-07
4.48653e-07
4.48582e-07
4.41738e-07
4.41743e-07
4.41735e-07
4.4174e-07
4.4174e-07
4.41733e-07
4.41737e-07
4.48658e-07
4.48587e-07
4.41738e-07
4.41735e-07
4.41735e-07
4.48587e-07
4.48657e-07
4.48585e-07
4.4174e-07
4.41741e-07
4.41737e-07
4.41738e-07
4.48653e-07
4.48582e-07
4.41738e-07
4.41743e-07
4.41735e-07
4.4174e-07
4.4174e-07
4.41733e-07
4.41737e-07
4.48658e-07
4.48587e-07
4.41738e-07
4.41734e-07
4.41735e-07
4.48587e-07
4.48656e-07
4.48584e-07
4.4174e-07
4.4174e-07
4.41737e-07
4.41737e-07
4.48653e-07
4.48582e-07
4.41738e-07
4.41743e-07
4.41735e-07
4.4174e-07
4.4174e-07
4.41733e-07
4.41737e-07
4.48657e-07
4.48587e-07
4.41738e-07
4.41734e-07
4.41735e-07
4.48587e-07
4.48656e-07
4.48584e-07
4.4174e-07
4.4174e-07
4.41737e-07
4.41737e-07
4.48654e-07
4.48582e-07
4.41738e-07
4.41743e-07
4.41735e-07
4.4174e-07
4.4174e-07
4.41733e-07
4.41737e-07
4.48658e-07
4.48587e-07
4.41738e-07
4.41735e-07
4.41735e-07
4.48587e-07
4.48656e-07
4.48585e-07
4.4174e-07
4.4174e-07
4.41737e-07
4.41738e-07
4.48654e-07
4.48582e-07
4.41737e-07
4.41743e-07
4.41735e-07
4.4174e-07
4.4174e-07
4.41733e-07
4.41737e-07
4.48658e-07
4.48586e-07
4.41738e-07
4.41734e-07
4.41735e-07
4.48587e-07
4.48656e-07
4.48584e-07
4.4174e-07
4.4174e-07
4.41737e-07
4.41738e-07
4.48654e-07
4.48582e-07
4.41737e-07
4.41743e-07
4.41735e-07
4.4174e-07
4.4174e-07
4.41733e-07
4.41737e-07
4.48657e-07
4.48587e-07
4.41738e-07
4.41735e-07
4.41735e-07
4.48587e-07
4.48656e-07
4.48584e-07
4.4174e-07
4.4174e-07
4.41737e-07
4.41738e-07
4.48654e-07
4.48582e-07
4.41737e-07
4.41743e-07
4.41735e-07
4.4174e-07
4.4174e-07
4.41733e-07
4.41737e-07
4.48658e-07
4.48587e-07
4.41738e-07
4.41734e-07
4.41735e-07
4.48587e-07
4.48656e-07
4.48584e-07
4.4174e-07
4.4174e-07
4.41737e-07
4.41738e-07
4.48654e-07
4.48582e-07
4.41737e-07
4.41743e-07
4.41735e-07
4.4174e-07
4.4174e-07
4.41733e-07
4.41737e-07
4.48658e-07
4.48587e-07
4.41738e-07
4.41734e-07
4.41735e-07
4.48587e-07
4.48656e-07
4.48584e-07
4.4174e-07
4.4174e-07
4.41737e-07
4.41738e-07
4.48654e-07
4.48582e-07
4.41737e-07
4.41743e-07
4.41735e-07
4.4174e-07
4.4174e-07
4.41733e-07
4.41737e-07
4.48658e-07
4.48586e-07
4.41738e-07
4.41734e-07
4.41735e-07
4.48587e-07
4.48656e-07
4.48584e-07
4.4174e-07
4.4174e-07
4.41737e-07
4.41738e-07
4.48654e-07
4.48582e-07
4.41737e-07
4.41743e-07
4.41735e-07
4.4174e-07
4.4174e-07
4.41733e-07
4.41737e-07
4.48657e-07
4.48586e-07
4.41738e-07
4.41735e-07
4.41735e-07
4.48587e-07
4.48656e-07
4.48584e-07
4.4174e-07
4.4174e-07
4.41737e-07
4.41737e-07
4.48654e-07
4.48582e-07
4.41737e-07
4.41743e-07
4.41735e-07
4.4174e-07
4.4174e-07
4.41733e-07
4.41737e-07
4.48658e-07
4.48587e-07
4.41738e-07
4.41734e-07
4.41735e-07
4.48587e-07
4.48656e-07
4.41739e-07
4.41739e-07
4.48654e-07
4.41736e-07
4.41742e-07
4.41739e-07
4.48657e-07
4.41737e-07
1.23251e-06
6.27232e-06
1.23287e-06
6.27215e-06
2.20544e-05
2.20511e-05
1.23242e-06
6.27326e-06
1.23273e-06
6.27305e-06
4.37577e-07
4.37572e-07
4.37572e-07
4.37568e-07
4.37572e-07
4.37568e-07
4.37568e-07
5.55806e-07
1.03998e-06
4.38462e-07
4.4198e-07
5.55919e-07
1.03965e-06
4.38461e-07
2.20596e-05
2.20548e-05
5.558e-07
4.38459e-07
1.04021e-06
4.41979e-07
5.55914e-07
4.38459e-07
1.03967e-06
2.01057e-06
2.01097e-06
4.48774e-07
2.01053e-06
2.01094e-06
1.23275e-06
6.27237e-06
1.23275e-06
6.27277e-06
2.20509e-05
2.20707e-05
1.23266e-06
6.27329e-06
1.2326e-06
6.27363e-06
4.37566e-07
4.37564e-07
4.37563e-07
4.37421e-07
4.37409e-07
4.3742e-07
4.3742e-07
5.55837e-07
1.04006e-06
4.38451e-07
4.41937e-07
5.55885e-07
1.04015e-06
4.38437e-07
2.20535e-05
2.20564e-05
5.55831e-07
4.3845e-07
1.03995e-06
4.4196e-07
5.5588e-07
4.38437e-07
1.03986e-06
2.01079e-06
2.0112e-06
4.48766e-07
2.01098e-06
2.01137e-06
1.23387e-06
6.27992e-06
1.23406e-06
6.27962e-06
2.20834e-05
2.20826e-05
1.23376e-06
6.28083e-06
1.23392e-06
6.2805e-06
4.37351e-07
4.37357e-07
4.37357e-07
4.37298e-07
4.37298e-07
4.37299e-07
4.37298e-07
5.55955e-07
1.04091e-06
4.38243e-07
4.41744e-07
5.56013e-07
1.04063e-06
4.38214e-07
2.20858e-05
2.20847e-05
5.55949e-07
4.38246e-07
1.04078e-06
4.41756e-07
5.56009e-07
4.38215e-07
1.04058e-06
2.01333e-06
2.01374e-06
4.48593e-07
2.01307e-06
2.01348e-06
1.23388e-06
6.27992e-06
1.23413e-06
6.27961e-06
2.20835e-05
2.20829e-05
1.23376e-06
6.28086e-06
1.23398e-06
6.2805e-06
4.37302e-07
4.37302e-07
4.37302e-07
4.37298e-07
4.37299e-07
4.37299e-07
4.37299e-07
5.5595e-07
1.04094e-06
4.38192e-07
4.41737e-07
5.56022e-07
1.04063e-06
4.38196e-07
2.20857e-05
2.20845e-05
5.55944e-07
4.38192e-07
1.04088e-06
4.41738e-07
5.56015e-07
4.38196e-07
1.04059e-06
2.0133e-06
2.0137e-06
4.48589e-07
2.01306e-06
2.01346e-06
1.23388e-06
6.2799e-06
1.23413e-06
6.2796e-06
2.20837e-05
2.2083e-05
1.23376e-06
6.28084e-06
1.23398e-06
6.28049e-06
4.37301e-07
4.37302e-07
4.37302e-07
4.37298e-07
4.37298e-07
4.37299e-07
4.37298e-07
5.55953e-07
1.04094e-06
4.38191e-07
4.41736e-07
5.56025e-07
1.04063e-06
4.38195e-07
2.20856e-05
2.20845e-05
5.55945e-07
4.38191e-07
1.04088e-06
4.41737e-07
5.56018e-07
4.38195e-07
1.04059e-06
2.0133e-06
2.01371e-06
4.48587e-07
2.01306e-06
2.01347e-06
1.23388e-06
6.27991e-06
1.23413e-06
6.2796e-06
2.20837e-05
2.20819e-05
1.23376e-06
6.28085e-06
1.23397e-06
6.2805e-06
4.37301e-07
4.37302e-07
4.37302e-07
4.37298e-07
4.37298e-07
4.37299e-07
4.37298e-07
5.55953e-07
1.04094e-06
4.38191e-07
4.41736e-07
5.56023e-07
1.04063e-06
4.38194e-07
2.20856e-05
2.20845e-05
5.55946e-07
4.38192e-07
1.04088e-06
4.41738e-07
5.56018e-07
4.38195e-07
1.04059e-06
2.0133e-06
2.01371e-06
4.48587e-07
2.01306e-06
2.01346e-06
1.23388e-06
6.27988e-06
1.23413e-06
6.27957e-06
2.20829e-05
2.20826e-05
1.23376e-06
6.28085e-06
1.23397e-06
6.2805e-06
4.37302e-07
4.37302e-07
4.37302e-07
4.37298e-07
4.37298e-07
4.37299e-07
4.37298e-07
5.55952e-07
1.04094e-06
4.38191e-07
4.41736e-07
5.56023e-07
1.04063e-06
4.38195e-07
2.20856e-05
2.20845e-05
5.55946e-07
4.38192e-07
1.04088e-06
4.41737e-07
5.56017e-07
4.38195e-07
1.04059e-06
2.0133e-06
2.01371e-06
4.48586e-07
2.01306e-06
2.01346e-06
1.23388e-06
6.27987e-06
1.23413e-06
6.2796e-06
2.2084e-05
2.20831e-05
1.23376e-06
6.28085e-06
1.23397e-06
6.2805e-06
4.37302e-07
4.37302e-07
4.37302e-07
4.37298e-07
4.37298e-07
4.37299e-07
4.37298e-07
5.55953e-07
1.04094e-06
4.38191e-07
4.41736e-07
5.56024e-07
1.04063e-06
4.38195e-07
2.20856e-05
2.20845e-05
5.55945e-07
4.38192e-07
1.04088e-06
4.41738e-07
5.56018e-07
4.38195e-07
1.04059e-06
2.0133e-06
2.01371e-06
4.48586e-07
2.01306e-06
2.01346e-06
1.23388e-06
6.27995e-06
1.23413e-06
6.27966e-06
2.20836e-05
2.20824e-05
1.23376e-06
6.28082e-06
1.23397e-06
6.28052e-06
4.37301e-07
4.37302e-07
4.37301e-07
4.37298e-07
4.37298e-07
4.37299e-07
4.37298e-07
5.55953e-07
1.04094e-06
4.38191e-07
4.41736e-07
5.56023e-07
1.04063e-06
4.38194e-07
2.20856e-05
2.20845e-05
5.55945e-07
4.38192e-07
1.04088e-06
4.41737e-07
5.56018e-07
4.38195e-07
1.04059e-06
2.0133e-06
2.01371e-06
4.48586e-07
2.01306e-06
2.01347e-06
1.23388e-06
6.27992e-06
1.23413e-06
6.27958e-06
2.20829e-05
2.20821e-05
1.23376e-06
6.28081e-06
1.23397e-06
6.28052e-06
4.37301e-07
4.37302e-07
4.37301e-07
4.37298e-07
4.37298e-07
4.37299e-07
4.37298e-07
5.55953e-07
1.04094e-06
4.38191e-07
4.41736e-07
5.56023e-07
1.04063e-06
4.38195e-07
2.20856e-05
2.20845e-05
5.55945e-07
4.38192e-07
1.04088e-06
4.41737e-07
5.56018e-07
4.38195e-07
1.04059e-06
2.0133e-06
2.01371e-06
4.48586e-07
2.01306e-06
2.01347e-06
1.23388e-06
6.27995e-06
1.23413e-06
6.27961e-06
2.20829e-05
2.20822e-05
1.23376e-06
6.28086e-06
1.23397e-06
6.28053e-06
4.37301e-07
4.37302e-07
4.37302e-07
4.37298e-07
4.37298e-07
4.37299e-07
4.37298e-07
5.55953e-07
1.04094e-06
4.38191e-07
4.41736e-07
5.56022e-07
1.04063e-06
4.38195e-07
2.20856e-05
2.20845e-05
5.55945e-07
4.38192e-07
1.04088e-06
4.41738e-07
5.56018e-07
4.38195e-07
1.04059e-06
2.0133e-06
2.01371e-06
4.48586e-07
2.01306e-06
2.01347e-06
1.23388e-06
6.27992e-06
1.23413e-06
6.27959e-06
2.20829e-05
2.20822e-05
1.23376e-06
6.28088e-06
1.23397e-06
6.28055e-06
4.37302e-07
4.37302e-07
4.37302e-07
4.37298e-07
4.37299e-07
4.37299e-07
4.37298e-07
5.55953e-07
1.04094e-06
4.38191e-07
4.41736e-07
5.56023e-07
1.04063e-06
4.38195e-07
2.20856e-05
2.20845e-05
5.55945e-07
4.38192e-07
1.04088e-06
4.41737e-07
5.56019e-07
4.38195e-07
1.04059e-06
2.0133e-06
2.01371e-06
4.48587e-07
2.01306e-06
2.01347e-06
1.23388e-06
6.27992e-06
1.23413e-06
6.27959e-06
2.20829e-05
2.20822e-05
1.23376e-06
6.28088e-06
1.23397e-06
6.28055e-06
4.37302e-07
4.37302e-07
4.37302e-07
4.37298e-07
4.37298e-07
4.37299e-07
4.37298e-07
5.55953e-07
1.04094e-06
4.38191e-07
4.41736e-07
5.56023e-07
1.04063e-06
4.38195e-07
2.20856e-05
2.20845e-05
5.55945e-07
4.38192e-07
1.04088e-06
4.41738e-07
5.56018e-07
4.38195e-07
1.04059e-06
2.0133e-06
2.01371e-06
4.48587e-07
2.01306e-06
2.01347e-06
1.23388e-06
6.27992e-06
1.23413e-06
6.27959e-06
2.20829e-05
2.20822e-05
1.23376e-06
6.28087e-06
1.23397e-06
6.28055e-06
4.37302e-07
4.37302e-07
4.37302e-07
4.37298e-07
4.37298e-07
4.37299e-07
4.37298e-07
5.55953e-07
1.04094e-06
4.38191e-07
4.41736e-07
5.56023e-07
1.04063e-06
4.38195e-07
2.20856e-05
2.20845e-05
5.55946e-07
4.38192e-07
1.04088e-06
4.41737e-07
5.56019e-07
4.38195e-07
1.04059e-06
2.0133e-06
2.01371e-06
4.48587e-07
2.01306e-06
2.01347e-06
1.23388e-06
6.27992e-06
1.23413e-06
6.27959e-06
2.20829e-05
2.20822e-05
1.23376e-06
6.28088e-06
1.23397e-06
6.28055e-06
4.37302e-07
4.37302e-07
4.37302e-07
4.37298e-07
4.37299e-07
4.37299e-07
4.37298e-07
5.55953e-07
1.04094e-06
4.38191e-07
4.41736e-07
5.56023e-07
1.04063e-06
4.38195e-07
2.20856e-05
2.20845e-05
5.55947e-07
4.38192e-07
1.04088e-06
4.41737e-07
5.56019e-07
4.38195e-07
1.04059e-06
2.0133e-06
2.01371e-06
4.48587e-07
2.01306e-06
2.01347e-06
1.23388e-06
6.27992e-06
1.23413e-06
6.27959e-06
2.20829e-05
2.20822e-05
1.23376e-06
6.28088e-06
1.23397e-06
6.28055e-06
4.37302e-07
4.37302e-07
4.37302e-07
4.37298e-07
4.37299e-07
4.37299e-07
4.37298e-07
5.55953e-07
1.04094e-06
4.38191e-07
4.41736e-07
5.56023e-07
1.04063e-06
4.38195e-07
2.20856e-05
2.20845e-05
5.55947e-07
4.38192e-07
1.04088e-06
4.41737e-07
5.56019e-07
4.38195e-07
1.04059e-06
2.0133e-06
2.01371e-06
4.48587e-07
2.01306e-06
2.01347e-06
1.23388e-06
6.27992e-06
1.23413e-06
6.27959e-06
2.20829e-05
2.20822e-05
1.23376e-06
6.28088e-06
1.23398e-06
6.28054e-06
4.37302e-07
4.37302e-07
4.37302e-07
4.37298e-07
4.37299e-07
4.37299e-07
4.37298e-07
5.55953e-07
1.04094e-06
4.38191e-07
4.41736e-07
5.56023e-07
1.04063e-06
4.38195e-07
2.20856e-05
2.20845e-05
5.55946e-07
4.38192e-07
1.04088e-06
4.41738e-07
5.56019e-07
4.38195e-07
1.04059e-06
2.0133e-06
2.01371e-06
4.48587e-07
2.01305e-06
2.01347e-06
1.23392e-06
6.27992e-06
1.23413e-06
6.27957e-06
2.20829e-05
2.20822e-05
1.23384e-06
6.28088e-06
1.23397e-06
6.28053e-06
4.373e-07
4.373e-07
4.373e-07
5.55953e-07
1.04094e-06
4.38191e-07
4.41735e-07
5.56022e-07
1.04063e-06
4.38195e-07
2.20856e-05
2.20843e-05
5.55945e-07
4.38192e-07
1.04088e-06
4.41738e-07
5.56018e-07
4.38196e-07
1.04071e-06
2.01329e-06
2.01371e-06
4.48587e-07
2.01305e-06
2.01354e-06
6.27237e-06
1.03971e-06
2.20549e-05
2.01069e-06
2.01047e-06
2.20512e-05
1.03968e-06
6.2723e-06
2.20552e-05
2.20513e-05
2.20586e-05
2.20546e-05
2.01048e-06
2.01091e-06
4.48772e-07
2.01044e-06
2.01088e-06
2.20491e-05
2.2051e-05
2.20525e-05
2.20544e-05
4.48844e-07
2.01048e-06
2.01092e-06
2.01057e-06
2.011e-06
1.23251e-06
6.27237e-06
1.23286e-06
6.27224e-06
5.55807e-07
1.04018e-06
4.38458e-07
4.4198e-07
5.55925e-07
1.03963e-06
4.38458e-07
5.55805e-07
1.03996e-06
4.3846e-07
4.41981e-07
5.55924e-07
1.03969e-06
4.3846e-07
1.23268e-06
6.27215e-06
6.27215e-06
1.2325e-06
1.23268e-06
6.27235e-06
6.27225e-06
1.2325e-06
5.55875e-07
4.41979e-07
1.03961e-06
4.38454e-07
1.03987e-06
4.38456e-07
5.55813e-07
5.55873e-07
4.41979e-07
1.03972e-06
4.38456e-07
1.03993e-06
4.38458e-07
5.5581e-07
2.01092e-06
2.01079e-06
4.48779e-07
2.01084e-06
2.01064e-06
2.20511e-05
2.20484e-05
2.205e-05
2.20506e-05
4.48851e-07
2.01086e-06
2.01069e-06
2.01095e-06
2.01094e-06
2.2048e-05
2.20484e-05
5.558e-07
1.0404e-06
4.38458e-07
4.41978e-07
5.55915e-07
1.03983e-06
4.38458e-07
1.23245e-06
6.27355e-06
1.23275e-06
6.27333e-06
5.55809e-07
4.38458e-07
1.04047e-06
4.41983e-07
5.55924e-07
4.38458e-07
1.0399e-06
1.23255e-06
6.27302e-06
6.27305e-06
1.23239e-06
5.55868e-07
4.41977e-07
1.03981e-06
4.38454e-07
1.04008e-06
4.38456e-07
5.55807e-07
1.23258e-06
6.2734e-06
6.27334e-06
1.23242e-06
5.55877e-07
4.41982e-07
4.38454e-07
1.03989e-06
4.38456e-07
1.04016e-06
5.55815e-07
1.23253e-06
6.27233e-06
1.23288e-06
6.27217e-06
5.55809e-07
4.38458e-07
1.04022e-06
4.41981e-07
5.55921e-07
4.38458e-07
1.03968e-06
1.23253e-06
6.27308e-06
1.23288e-06
6.27288e-06
5.55874e-07
4.41978e-07
1.03969e-06
4.38456e-07
1.03991e-06
4.38458e-07
5.55812e-07
1.2327e-06
6.27234e-06
6.27217e-06
1.23252e-06
5.55876e-07
4.4198e-07
4.38454e-07
1.03966e-06
4.38456e-07
1.03991e-06
5.55814e-07
1.2327e-06
6.27296e-06
6.27288e-06
1.23252e-06
2.01143e-06
2.01056e-06
4.48774e-07
2.01124e-06
2.01052e-06
2.20572e-05
2.20534e-05
2.20528e-05
2.20548e-05
4.48847e-07
2.01134e-06
2.01056e-06
2.01151e-06
2.01065e-06
2.20512e-05
2.20531e-05
5.55797e-07
4.38457e-07
1.04031e-06
4.41978e-07
5.55911e-07
4.38457e-07
1.03976e-06
1.23243e-06
6.2732e-06
1.23273e-06
6.27299e-06
1.23243e-06
6.27337e-06
1.23273e-06
6.27317e-06
5.55869e-07
4.41977e-07
4.38454e-07
1.03966e-06
4.38456e-07
1.03991e-06
5.55807e-07
5.55867e-07
4.41977e-07
4.38454e-07
1.03975e-06
4.38455e-07
1.04e-06
5.55803e-07
1.23256e-06
6.27305e-06
6.27299e-06
1.23241e-06
1.23256e-06
6.27324e-06
6.27317e-06
1.2324e-06
2.20575e-05
2.20536e-05
2.20588e-05
2.20549e-05
4.48847e-07
2.01058e-06
2.01099e-06
2.01067e-06
2.01107e-06
2.20515e-05
2.20534e-05
2.20528e-05
2.20547e-05
2.20491e-05
2.2052e-05
2.20525e-05
2.20556e-05
2.01057e-06
2.01099e-06
4.48765e-07
2.01085e-06
2.01132e-06
2.208e-05
2.20597e-05
2.20835e-05
2.20636e-05
4.48824e-07
2.01292e-06
2.01337e-06
2.0116e-06
2.01205e-06
1.23273e-06
6.2724e-06
1.23268e-06
6.27632e-06
5.55842e-07
1.03987e-06
4.3845e-07
4.41961e-07
5.55882e-07
1.03982e-06
4.38437e-07
5.55841e-07
1.04003e-06
4.38451e-07
4.41934e-07
5.55881e-07
1.04019e-06
4.38436e-07
1.23322e-06
6.2793e-06
6.27437e-06
1.2337e-06
1.23321e-06
6.28012e-06
6.27873e-06
1.2337e-06
5.55938e-07
4.41921e-07
1.04038e-06
4.3831e-07
1.04023e-06
4.38393e-07
5.55926e-07
5.55937e-07
4.41863e-07
1.04059e-06
4.38305e-07
1.04061e-06
4.38387e-07
5.55926e-07
2.01112e-06
2.01112e-06
4.48727e-07
2.01231e-06
2.01202e-06
2.20486e-05
2.20675e-05
2.2083e-05
2.20785e-05
4.48778e-07
2.01346e-06
2.01333e-06
2.01332e-06
2.01313e-06
2.20807e-05
2.20762e-05
5.55836e-07
1.04009e-06
4.3845e-07
4.41959e-07
5.55875e-07
1.04002e-06
4.38437e-07
1.23266e-06
6.2734e-06
1.23256e-06
6.27391e-06
5.55841e-07
4.3845e-07
1.04017e-06
4.41964e-07
5.55884e-07
4.38437e-07
1.04008e-06
1.23306e-06
6.28011e-06
6.27531e-06
1.23363e-06
5.55932e-07
4.41919e-07
1.0406e-06
4.3831e-07
1.04044e-06
4.38393e-07
5.55925e-07
1.23306e-06
6.28036e-06
6.27538e-06
1.23365e-06
5.55937e-07
4.41924e-07
4.38311e-07
1.04067e-06
4.38393e-07
1.04051e-06
5.5593e-07
1.23274e-06
6.27251e-06
1.23269e-06
6.27629e-06
5.55839e-07
4.3845e-07
1.03991e-06
4.41961e-07
5.55881e-07
4.38436e-07
1.03986e-06
1.23274e-06
6.27296e-06
1.23269e-06
6.27345e-06
5.5593e-07
4.41864e-07
1.04057e-06
4.38306e-07
1.0406e-06
4.38386e-07
5.55921e-07
1.23321e-06
6.28005e-06
6.2787e-06
1.23371e-06
5.55932e-07
4.41921e-07
4.3831e-07
1.04043e-06
4.38392e-07
1.04026e-06
5.55923e-07
1.23322e-06
6.27995e-06
6.27485e-06
1.23371e-06
2.01158e-06
2.01065e-06
4.48768e-07
2.01175e-06
2.01094e-06
2.20512e-05
2.20543e-05
2.20837e-05
2.2065e-05
4.48826e-07
2.0137e-06
2.013e-06
2.01268e-06
2.01171e-06
2.20822e-05
2.20623e-05
5.55828e-07
4.38449e-07
1.04e-06
4.41959e-07
5.55872e-07
4.38436e-07
1.03995e-06
1.23264e-06
6.27305e-06
1.23254e-06
6.27357e-06
1.23264e-06
6.27324e-06
1.23254e-06
6.27375e-06
5.55924e-07
4.41919e-07
4.38311e-07
1.04042e-06
4.38392e-07
1.04026e-06
5.55917e-07
5.55923e-07
4.41919e-07
4.3831e-07
1.04052e-06
4.38393e-07
1.04035e-06
5.55915e-07
1.23304e-06
6.28009e-06
6.27505e-06
1.23363e-06
1.23304e-06
6.28027e-06
6.27519e-06
1.23363e-06
2.20515e-05
2.20546e-05
2.20528e-05
2.20557e-05
4.48825e-07
2.01301e-06
2.01342e-06
2.01174e-06
2.01211e-06
2.20825e-05
2.20626e-05
2.20837e-05
2.20634e-05
2.20812e-05
2.20812e-05
2.20845e-05
2.20845e-05
2.01312e-06
2.01355e-06
4.48593e-07
2.013e-06
2.01344e-06
2.20809e-05
2.20809e-05
2.20844e-05
2.2084e-05
4.48657e-07
2.01298e-06
2.01342e-06
2.01311e-06
2.01354e-06
1.23387e-06
6.28012e-06
1.234e-06
6.28008e-06
5.55958e-07
1.04071e-06
4.38249e-07
4.41759e-07
5.56011e-07
1.04053e-06
4.38215e-07
5.55958e-07
1.04087e-06
4.38246e-07
4.41748e-07
5.56012e-07
1.04064e-06
4.38214e-07
1.23405e-06
6.27969e-06
6.27962e-06
1.23388e-06
1.23405e-06
6.28006e-06
6.28008e-06
1.23388e-06
5.56027e-07
4.4174e-07
1.04055e-06
4.38192e-07
1.04079e-06
4.38195e-07
5.55955e-07
5.56027e-07
4.41737e-07
1.04065e-06
4.38192e-07
1.0409e-06
4.38195e-07
5.55953e-07
2.01358e-06
2.01362e-06
4.48579e-07
2.01342e-06
2.01327e-06
2.20807e-05
2.20803e-05
2.20831e-05
2.2083e-05
4.48648e-07
2.01348e-06
2.01325e-06
2.01357e-06
2.01353e-06
2.20804e-05
2.20801e-05
5.55955e-07
1.04094e-06
4.38249e-07
4.41757e-07
5.56008e-07
1.04075e-06
4.38216e-07
1.23379e-06
6.2811e-06
1.23387e-06
6.28098e-06
5.55961e-07
4.38249e-07
1.04102e-06
4.41762e-07
5.56014e-07
4.38216e-07
1.04083e-06
1.23391e-06
6.28059e-06
6.28051e-06
1.23377e-06
5.56022e-07
4.41738e-07
1.04076e-06
4.38192e-07
1.04102e-06
4.38195e-07
5.55947e-07
1.23393e-06
6.28091e-06
6.28098e-06
1.23379e-06
5.56029e-07
4.41743e-07
4.38192e-07
1.04084e-06
4.38196e-07
1.04111e-06
5.55955e-07
1.23388e-06
6.28005e-06
1.23401e-06
6.27999e-06
5.55958e-07
4.38248e-07
1.04075e-06
4.41759e-07
5.56009e-07
4.38215e-07
1.04059e-06
1.23388e-06
6.28062e-06
1.23401e-06
6.28054e-06
5.56023e-07
4.41735e-07
1.04063e-06
4.38192e-07
1.0409e-06
4.38197e-07
5.55953e-07
1.23406e-06
6.27994e-06
6.28e-06
1.23389e-06
5.56026e-07
4.41741e-07
4.38192e-07
1.0406e-06
4.38195e-07
1.04084e-06
5.55957e-07
1.23407e-06
6.28048e-06
6.28054e-06
1.23389e-06
2.01416e-06
2.0132e-06
4.48595e-07
2.01391e-06
2.01308e-06
2.20834e-05
2.20834e-05
2.2085e-05
2.20847e-05
4.48659e-07
2.01388e-06
2.01306e-06
2.01413e-06
2.01319e-06
2.2083e-05
2.2083e-05
5.55948e-07
4.38249e-07
1.04084e-06
4.41757e-07
5.56001e-07
4.38215e-07
1.04068e-06
1.23377e-06
6.28074e-06
1.23385e-06
6.28065e-06
1.23377e-06
6.28091e-06
1.23385e-06
6.28083e-06
5.56018e-07
4.4174e-07
4.38192e-07
1.04059e-06
4.38197e-07
1.04083e-06
5.55946e-07
5.56017e-07
4.41738e-07
4.38192e-07
1.04069e-06
4.38195e-07
1.04093e-06
5.55943e-07
1.23392e-06
6.28058e-06
6.28065e-06
1.23378e-06
1.23391e-06
6.28076e-06
6.28082e-06
1.23377e-06
2.20836e-05
2.20836e-05
2.2085e-05
2.2085e-05
4.48657e-07
2.01306e-06
2.01347e-06
2.01319e-06
2.0136e-06
2.20833e-05
2.20833e-05
2.20846e-05
2.20847e-05
2.20808e-05
2.2081e-05
2.20839e-05
2.20845e-05
2.01309e-06
2.01352e-06
4.48587e-07
2.01298e-06
2.01342e-06
2.20809e-05
2.20806e-05
2.20844e-05
2.2084e-05
4.4866e-07
2.01297e-06
2.01342e-06
2.01309e-06
2.01353e-06
1.23387e-06
6.28006e-06
1.23405e-06
6.28004e-06
5.55952e-07
1.04081e-06
4.38195e-07
4.4174e-07
5.5602e-07
1.04055e-06
4.38195e-07
5.55951e-07
1.0409e-06
4.38195e-07
4.4174e-07
5.56018e-07
1.04064e-06
4.38195e-07
1.23406e-06
6.27968e-06
6.27961e-06
1.23388e-06
1.23405e-06
6.28006e-06
6.28004e-06
1.23388e-06
5.56022e-07
4.41739e-07
1.04055e-06
4.38192e-07
1.0408e-06
4.38193e-07
5.55958e-07
5.56022e-07
4.41738e-07
1.04064e-06
4.38192e-07
1.0409e-06
4.38193e-07
5.55956e-07
2.0136e-06
2.01354e-06
4.48587e-07
2.01344e-06
2.01328e-06
2.20804e-05
2.20803e-05
2.20833e-05
2.20832e-05
4.48657e-07
2.01342e-06
2.01325e-06
2.01355e-06
2.01353e-06
2.20804e-05
2.208e-05
5.55944e-07
1.04104e-06
4.38195e-07
4.41738e-07
5.5601e-07
1.04076e-06
4.38195e-07
1.23378e-06
6.28092e-06
1.23393e-06
6.28089e-06
5.55953e-07
4.38195e-07
1.04111e-06
4.41743e-07
5.56019e-07
4.38195e-07
1.04084e-06
1.23391e-06
6.28057e-06
6.28051e-06
1.23377e-06
5.56014e-07
4.41736e-07
1.04076e-06
4.38192e-07
1.04103e-06
4.38193e-07
5.5595e-07
1.23393e-06
6.2809e-06
6.2809e-06
1.23379e-06
5.56024e-07
4.41741e-07
4.38193e-07
1.04084e-06
4.38194e-07
1.04111e-06
5.55959e-07
1.23389e-06
6.27995e-06
1.23407e-06
6.27994e-06
5.55953e-07
4.38195e-07
1.04085e-06
4.4174e-07
5.56021e-07
4.38195e-07
1.0406e-06
1.23389e-06
6.28048e-06
1.23407e-06
6.28046e-06
5.56018e-07
4.41736e-07
1.04063e-06
4.38192e-07
1.0409e-06
4.38195e-07
5.55955e-07
1.23406e-06
6.27994e-06
6.27994e-06
1.23389e-06
5.56021e-07
4.41738e-07
4.38192e-07
1.0406e-06
4.38193e-07
1.04085e-06
5.55957e-07
1.23406e-06
6.28045e-06
6.28046e-06
1.23389e-06
2.01413e-06
2.01317e-06
4.4859e-07
2.01387e-06
2.01306e-06
2.20829e-05
2.20832e-05
2.20849e-05
2.20843e-05
4.48661e-07
2.01387e-06
2.01306e-06
2.01411e-06
2.01318e-06
2.2083e-05
2.20827e-05
5.5594e-07
4.38195e-07
1.04094e-06
4.41738e-07
5.56009e-07
4.38195e-07
1.04069e-06
1.23377e-06
6.28058e-06
1.23392e-06
6.28056e-06
1.23377e-06
6.28076e-06
1.23392e-06
6.28074e-06
5.56013e-07
4.41738e-07
4.38192e-07
1.04059e-06
4.38195e-07
1.04084e-06
5.55948e-07
5.5601e-07
4.41736e-07
4.38192e-07
1.04069e-06
4.38193e-07
1.04094e-06
5.55945e-07
1.23391e-06
6.28056e-06
6.28056e-06
1.23377e-06
1.23391e-06
6.28074e-06
6.28074e-06
1.23377e-06
2.20832e-05
2.20834e-05
2.20846e-05
2.20848e-05
4.48661e-07
2.01306e-06
2.01347e-06
2.01318e-06
2.01358e-06
2.20833e-05
2.2083e-05
2.20846e-05
2.20844e-05
2.20808e-05
2.20811e-05
2.20839e-05
2.20845e-05
2.01308e-06
2.01352e-06
4.48586e-07
2.01298e-06
2.01342e-06
2.2081e-05
2.20807e-05
2.20844e-05
2.2084e-05
4.48658e-07
2.01297e-06
2.01342e-06
2.0131e-06
2.01353e-06
1.23387e-06
6.28006e-06
1.23406e-06
6.28004e-06
5.55951e-07
1.0408e-06
4.38195e-07
4.4174e-07
5.56023e-07
1.04055e-06
4.38195e-07
5.55952e-07
1.04089e-06
4.38195e-07
4.4174e-07
5.56022e-07
1.04064e-06
4.38195e-07
1.23406e-06
6.27968e-06
6.27961e-06
1.23388e-06
1.23405e-06
6.28004e-06
6.28005e-06
1.23388e-06
5.5602e-07
4.41738e-07
1.04055e-06
4.38192e-07
1.0408e-06
4.38193e-07
5.55958e-07
5.56021e-07
4.41738e-07
1.04064e-06
4.38192e-07
1.04089e-06
4.38192e-07
5.55955e-07
2.01353e-06
2.01354e-06
4.48585e-07
2.01339e-06
2.01325e-06
2.20804e-05
2.20803e-05
2.20833e-05
2.20832e-05
4.48656e-07
2.01339e-06
2.01329e-06
2.01351e-06
2.01353e-06
2.20804e-05
2.208e-05
5.55945e-07
1.04104e-06
4.38195e-07
4.41738e-07
5.56016e-07
1.04076e-06
4.38195e-07
1.23378e-06
6.28091e-06
1.23393e-06
6.2809e-06
5.55954e-07
4.38195e-07
1.04111e-06
4.41743e-07
5.56024e-07
4.38195e-07
1.04084e-06
1.23391e-06
6.28058e-06
6.2805e-06
1.23377e-06
5.56012e-07
4.41736e-07
1.04076e-06
4.38192e-07
1.04103e-06
4.38193e-07
5.55949e-07
1.23393e-06
6.2809e-06
6.2809e-06
1.23379e-06
5.56021e-07
4.41741e-07
4.38192e-07
1.04084e-06
4.38193e-07
1.04111e-06
5.55956e-07
1.23389e-06
6.27994e-06
1.23407e-06
6.27995e-06
5.55955e-07
4.38195e-07
1.04085e-06
4.4174e-07
5.56023e-07
4.38195e-07
1.0406e-06
1.23389e-06
6.28046e-06
1.23407e-06
6.28046e-06
5.56019e-07
4.41735e-07
1.04063e-06
4.38191e-07
1.0409e-06
4.38194e-07
5.55953e-07
1.23406e-06
6.27994e-06
6.27995e-06
1.23389e-06
5.56022e-07
4.41738e-07
4.38192e-07
1.0406e-06
4.38192e-07
1.04085e-06
5.55954e-07
1.23406e-06
6.28046e-06
6.28046e-06
1.23389e-06
2.01413e-06
2.01317e-06
4.48589e-07
2.01387e-06
2.01306e-06
2.2083e-05
2.20832e-05
2.20849e-05
2.20842e-05
4.4866e-07
2.01387e-06
2.01306e-06
2.0141e-06
2.01318e-06
2.2083e-05
2.20828e-05
5.55942e-07
4.38195e-07
1.04094e-06
4.41738e-07
5.56011e-07
4.38195e-07
1.04069e-06
1.23377e-06
6.28057e-06
1.23391e-06
6.28058e-06
1.23376e-06
6.28074e-06
1.23391e-06
6.28074e-06
5.56012e-07
4.41737e-07
4.38192e-07
1.04059e-06
4.38194e-07
1.04084e-06
5.55946e-07
5.56011e-07
4.41736e-07
4.38192e-07
1.04069e-06
4.38192e-07
1.04094e-06
5.55943e-07
1.23391e-06
6.28057e-06
6.28058e-06
1.23377e-06
1.23391e-06
6.28074e-06
6.28074e-06
1.23377e-06
2.20833e-05
2.20835e-05
2.20846e-05
2.20848e-05
4.48659e-07
2.01306e-06
2.01347e-06
2.01318e-06
2.01359e-06
2.20833e-05
2.20831e-05
2.20846e-05
2.20844e-05
2.20808e-05
2.20811e-05
2.20839e-05
2.20845e-05
2.01308e-06
2.01352e-06
4.48586e-07
2.01296e-06
2.01342e-06
2.2081e-05
2.20807e-05
2.20844e-05
2.2084e-05
4.48658e-07
2.01295e-06
2.01342e-06
2.01307e-06
2.01353e-06
1.23387e-06
6.28004e-06
1.23406e-06
6.27994e-06
5.55951e-07
1.04081e-06
4.38195e-07
4.4174e-07
5.56024e-07
1.04055e-06
4.38195e-07
5.55952e-07
1.04089e-06
4.38195e-07
4.4174e-07
5.56023e-07
1.04066e-06
4.38195e-07
1.23406e-06
6.27966e-06
6.27961e-06
1.23388e-06
1.23405e-06
6.27993e-06
6.27994e-06
1.23388e-06
5.56019e-07
4.41738e-07
1.04055e-06
4.38192e-07
1.0408e-06
4.38193e-07
5.55958e-07
5.56021e-07
4.41738e-07
1.04071e-06
4.38192e-07
1.04095e-06
4.38192e-07
5.55955e-07
2.01351e-06
2.01357e-06
4.48584e-07
2.01346e-06
2.01327e-06
2.20804e-05
2.20803e-05
2.20822e-05
2.20818e-05
4.48655e-07
2.01365e-06
2.01328e-06
2.01376e-06
2.01355e-06
2.20804e-05
2.208e-05
5.55945e-07
1.04104e-06
4.38195e-07
4.41738e-07
5.56016e-07
1.04076e-06
4.38195e-07
1.23378e-06
6.2809e-06
1.23393e-06
6.2809e-06
5.55953e-07
4.38195e-07
1.04111e-06
4.41743e-07
5.56024e-07
4.38195e-07
1.04084e-06
1.23391e-06
6.28058e-06
6.2805e-06
1.23377e-06
5.56011e-07
4.41736e-07
1.04076e-06
4.38192e-07
1.04103e-06
4.38192e-07
5.55948e-07
1.23392e-06
6.2809e-06
6.2809e-06
1.23379e-06
5.56019e-07
4.41741e-07
4.38192e-07
1.04084e-06
4.38193e-07
1.04111e-06
5.55955e-07
1.23389e-06
6.27994e-06
1.23407e-06
6.27995e-06
5.55957e-07
4.38195e-07
1.04085e-06
4.4174e-07
5.56021e-07
4.38195e-07
1.0406e-06
1.23389e-06
6.28046e-06
1.23407e-06
6.28046e-06
5.56019e-07
4.41735e-07
1.04063e-06
4.38191e-07
1.0409e-06
4.38194e-07
5.55953e-07
1.23406e-06
6.27994e-06
6.27995e-06
1.23389e-06
5.56023e-07
4.41738e-07
4.38192e-07
1.0406e-06
4.38193e-07
1.04085e-06
5.55954e-07
1.23406e-06
6.28046e-06
6.28046e-06
1.23389e-06
2.01413e-06
2.01317e-06
4.48589e-07
2.01387e-06
2.01306e-06
2.20829e-05
2.20832e-05
2.20849e-05
2.20842e-05
4.4866e-07
2.01387e-06
2.01306e-06
2.0141e-06
2.01318e-06
2.2083e-05
2.20827e-05
5.55943e-07
4.38195e-07
1.04094e-06
4.41738e-07
5.56011e-07
4.38195e-07
1.04069e-06
1.23377e-06
6.28057e-06
1.23391e-06
6.28058e-06
1.23376e-06
6.28075e-06
1.23391e-06
6.28075e-06
5.56013e-07
4.41737e-07
4.38192e-07
1.04059e-06
4.38194e-07
1.04084e-06
5.55946e-07
5.56011e-07
4.41736e-07
4.38192e-07
1.04069e-06
4.38192e-07
1.04094e-06
5.55943e-07
1.23391e-06
6.28057e-06
6.28058e-06
1.23377e-06
1.23391e-06
6.28074e-06
6.28074e-06
1.23377e-06
2.20832e-05
2.20834e-05
2.20846e-05
2.20848e-05
4.48659e-07
2.01306e-06
2.01347e-06
2.01318e-06
2.01358e-06
2.20833e-05
2.2083e-05
2.20846e-05
2.20844e-05
2.20808e-05
2.20816e-05
2.20839e-05
2.20845e-05
2.01308e-06
2.01352e-06
4.48587e-07
2.013e-06
2.01342e-06
2.20815e-05
2.20813e-05
2.20844e-05
2.2084e-05
4.48659e-07
2.013e-06