/*--------------------------------*- C++ -*----------------------------------*\
| =========                 |                                                 |
| \\      /  F ield         | OpenFOAM: The Open Source CFD Toolbox           |
|  \\    /   O peration     | Version:  2206                                  |
|   \\  /    A nd           | Website:  www.openfoam.com                      |
|    \\/     M anipulation  |                                                 |
\*---------------------------------------------------------------------------*/
FoamFile
{
    version     2.0;
    format      ascii;
    arch        "LSB;label=32;scalar=64";
    class       volScalarField;
    location    "8";
    object      nut;
}
// * * * * * * * * * * * * * * * * * * * * * * * * * * * * * * * * * * * * * //

dimensions      [0 2 -1 0 0 0 0];

internalField   nonuniform List<scalar> 
28687
(
0.000232604
0.000229986
0.000229985
0.00022598
0.000232601
0.00022998
0.000229981
0.00022596
0.000232583
0.00022995
0.000229946
0.000225884
0.000232595
0.000229957
0.000229956
0.000225909
0.000232595
0.000229957
0.000229956
0.000225907
0.000232595
0.000229957
0.000229956
0.000225906
0.000232595
0.000229957
0.000229956
0.000225907
0.000232595
0.000229957
0.000229956
0.000225907
0.000232595
0.000229957
0.000229956
0.000225906
0.000232595
0.000229957
0.000229956
0.000225907
0.000232595
0.000229957
0.000229956
0.000225906
0.000232595
0.000229957
0.000229956
0.000225906
0.000232595
0.000229957
0.000229956
0.000225906
0.000232595
0.000229957
0.000229956
0.000225906
0.000232595
0.000229957
0.000229956
0.000225906
0.000232595
0.000229957
0.000229956
0.000225906
0.000232595
0.000229957
0.000229956
0.000225907
0.000232595
0.000229957
0.000229956
0.000225906
0.000229983
0.000226015
0.000229985
0.000225981
0.000226003
0.000229984
0.000229983
0.000229982
0.000229981
0.000225976
0.000226001
0.000229985
0.000229982
0.000229983
0.00022998
0.000229984
0.000229985
0.000229982
0.000225979
0.000226002
0.000229985
0.000229983
0.000229983
0.000226002
0.000225964
0.00022593
0.00022998
0.000229976
0.000229943
0.000229944
0.000225959
0.000225933
0.000229981
0.000229978
0.000229945
0.000229942
0.00022998
0.000229946
0.000229943
0.000225963
0.000225928
0.000229981
0.000229944
0.000229945
0.000225929
0.000225886
0.00022595
0.000229945
0.000229949
0.000229954
0.000229954
0.000225904
0.000225949
0.000229947
0.000229944
0.000229955
0.000229952
0.000229945
0.000229957
0.000229954
0.000225884
0.000225949
0.000229947
0.000229956
0.000229955
0.00022595
0.000225917
0.000225947
0.000229954
0.000229954
0.000229954
0.000229954
0.000225915
0.000225948
0.000229956
0.000229953
0.000229956
0.000229952
0.000229954
0.000229957
0.000229954
0.000225915
0.000225946
0.000229956
0.000229956
0.000229956
0.000225946
0.000225915
0.000225947
0.000229955
0.000229955
0.000229954
0.000229954
0.000225915
0.000225948
0.000229956
0.000229953
0.000229956
0.000229952
0.000229955
0.000229957
0.000229954
0.000225913
0.000225946
0.000229956
0.000229956
0.000229956
0.000225946
0.000225915
0.000225947
0.000229955
0.000229955
0.000229954
0.000229954
0.000225916
0.000225949
0.000229956
0.000229953
0.000229956
0.000229952
0.000229955
0.000229957
0.000229954
0.000225913
0.000225946
0.000229956
0.000229956
0.000229956
0.000225946
0.000225915
0.000225947
0.000229955
0.000229955
0.000229954
0.000229954
0.000225916
0.000225948
0.000229956
0.000229953
0.000229956
0.000229952
0.000229955
0.000229957
0.000229954
0.000225913
0.000225946
0.000229956
0.000229956
0.000229956
0.000225946
0.000225914
0.000225947
0.000229955
0.000229954
0.000229954
0.000229954
0.000225916
0.000225948
0.000229956
0.000229953
0.000229956
0.000229952
0.000229955
0.000229957
0.000229954
0.000225913
0.000225946
0.000229956
0.000229956
0.000229956
0.000225946
0.000225914
0.000225948
0.000229955
0.000229955
0.000229955
0.000229954
0.000225915
0.000225948
0.000229956
0.000229953
0.000229956
0.000229952
0.000229955
0.000229957
0.000229954
0.000225913
0.000225946
0.000229956
0.000229956
0.000229956
0.000225946
0.000225915
0.000225947
0.000229955
0.000229955
0.000229954
0.000229954
0.000225915
0.000225948
0.000229956
0.000229953
0.000229956
0.000229952
0.000229955
0.000229957
0.000229954
0.000225913
0.000225946
0.000229956
0.000229956
0.000229956
0.000225946
0.000225914
0.000225947
0.000229955
0.000229955
0.000229954
0.000229954
0.000225915
0.000225948
0.000229956
0.000229953
0.000229956
0.000229952
0.000229955
0.000229957
0.000229954
0.000225913
0.000225946
0.000229956
0.000229956
0.000229956
0.000225946
0.000225914
0.000225947
0.000229955
0.000229955
0.000229954
0.000229954
0.000225915
0.000225948
0.000229956
0.000229953
0.000229956
0.000229952
0.000229955
0.000229957
0.000229954
0.000225913
0.000225946
0.000229956
0.000229956
0.000229956
0.000225946
0.000225914
0.000225947
0.000229955
0.000229955
0.000229954
0.000229954
0.000225915
0.000225948
0.000229956
0.000229953
0.000229956
0.000229952
0.000229955
0.000229957
0.000229954
0.000225913
0.000225946
0.000229956
0.000229956
0.000229956
0.000225946
0.000225914
0.000225947
0.000229955
0.000229955
0.000229954
0.000229954
0.000225915
0.000225948
0.000229956
0.000229953
0.000229956
0.000229952
0.000229955
0.000229957
0.000229954
0.000225913
0.000225946
0.000229956
0.000229956
0.000229956
0.000225946
0.000225914
0.000225947
0.000229955
0.000229955
0.000229954
0.000229954
0.000225915
0.000225948
0.000229956
0.000229953
0.000229956
0.000229952
0.000229955
0.000229957
0.000229954
0.000225913
0.000225946
0.000229956
0.000229956
0.000229956
0.000225946
0.000225914
0.000225947
0.000229955
0.000229955
0.000229954
0.000229954
0.000225915
0.000225948
0.000229956
0.000229953
0.000229956
0.000229952
0.000229955
0.000229957
0.000229954
0.000225913
0.000225946
0.000229956
0.000229956
0.000229956
0.000225946
0.000225914
0.000225947
0.000229955
0.000229954
0.000229954
0.000229954
0.000225915
0.000225948
0.000229956
0.000229953
0.000229956
0.000229952
0.000229955
0.000229957
0.000229954
0.000225913
0.000225946
0.000229956
0.000229956
0.000229956
0.000225946
0.000225914
0.000229955
0.000229954
0.000225915
0.000229956
0.000229953
0.000229954
0.000225913
0.000229956
8.47997e-05
4.41552e-05
8.47753e-05
4.41548e-05
2.51082e-05
2.5107e-05
8.48084e-05
4.4152e-05
8.47866e-05
4.41515e-05
0.000232605
0.000232604
0.000232604
0.000232603
0.000232604
0.000232603
0.000232603
0.000180522
9.95805e-05
0.000232062
0.000229986
0.000180486
9.96109e-05
0.000232062
2.51073e-05
2.51055e-05
0.000180524
0.000232061
9.95561e-05
0.000229985
0.000180489
0.000232061
9.96044e-05
5.39218e-05
5.39115e-05
0.000226011
5.39309e-05
5.39203e-05
8.47831e-05
4.41553e-05
8.47898e-05
4.4156e-05
2.51068e-05
2.51136e-05
8.47919e-05
4.4152e-05
8.48009e-05
4.41525e-05
0.000232601
0.000232601
0.000232601
0.000232578
0.000232578
0.000232578
0.000232578
0.000180498
9.95771e-05
0.000232058
0.000229963
0.000180495
9.95515e-05
0.000232051
2.5105e-05
2.51058e-05
0.0001805
0.000232058
9.95855e-05
0.000229974
0.000180496
0.000232052
9.95851e-05
5.39355e-05
5.39251e-05
0.000225991
5.39289e-05
5.39186e-05
8.46528e-05
4.41728e-05
8.46516e-05
4.41722e-05
2.51189e-05
2.51186e-05
8.4663e-05
4.41695e-05
8.46603e-05
4.41688e-05
0.000232585
0.000232584
0.000232584
0.000232595
0.000232595
0.000232595
0.000232595
0.000180333
9.94287e-05
0.000232036
0.000229954
0.000180319
9.9449e-05
0.000232042
2.5117e-05
2.51166e-05
0.000180335
0.000232036
9.94481e-05
0.000229951
0.00018032
0.000232042
9.94549e-05
5.38304e-05
5.38198e-05
0.000225944
5.38282e-05
5.38173e-05
8.46533e-05
4.41729e-05
8.46388e-05
4.41721e-05
2.51187e-05
2.51185e-05
8.46634e-05
4.41696e-05
8.46505e-05
4.41688e-05
0.000232596
0.000232596
0.000232595
0.000232595
0.000232595
0.000232595
0.000232595
0.000180335
9.94236e-05
0.000232047
0.000229956
0.00018031
9.9449e-05
0.000232048
2.51169e-05
2.51165e-05
0.000180337
0.000232047
9.94297e-05
0.000229956
0.000180312
0.000232048
9.94533e-05
5.38237e-05
5.3813e-05
0.000225945
5.38294e-05
5.38186e-05
8.46532e-05
4.41728e-05
8.46388e-05
4.41721e-05
2.51188e-05
2.51185e-05
8.46635e-05
4.41695e-05
8.46506e-05
4.41687e-05
0.000232595
0.000232595
0.000232595
0.000232595
0.000232595
0.000232595
0.000232595
0.000180334
9.94237e-05
0.000232048
0.000229957
0.000180308
9.94491e-05
0.000232048
2.51169e-05
2.51165e-05
0.000180337
0.000232047
9.94296e-05
0.000229956
0.000180311
0.000232048
9.94532e-05
5.3824e-05
5.38134e-05
0.000225947
5.38294e-05
5.38188e-05
8.46533e-05
4.41728e-05
8.46388e-05
4.41721e-05
2.51188e-05
2.51185e-05
8.46635e-05
4.41696e-05
8.46507e-05
4.41687e-05
0.000232596
0.000232595
0.000232595
0.000232595
0.000232595
0.000232595
0.000232595
0.000180334
9.94234e-05
0.000232048
0.000229957
0.000180309
9.94486e-05
0.000232048
2.51169e-05
2.51165e-05
0.000180336
0.000232047
9.94296e-05
0.000229956
0.000180311
0.000232047
9.94532e-05
5.3824e-05
5.38134e-05
0.000225947
5.38294e-05
5.38187e-05
8.46532e-05
4.41731e-05
8.46387e-05
4.41724e-05
2.51188e-05
2.51182e-05
8.46636e-05
4.41696e-05
8.46508e-05
4.41687e-05
0.000232596
0.000232595
0.000232595
0.000232595
0.000232595
0.000232595
0.000232595
0.000180334
9.94236e-05
0.000232048
0.000229957
0.000180309
9.9449e-05
0.000232048
2.51169e-05
2.51165e-05
0.000180337
0.000232048
9.94296e-05
0.000229956
0.000180311
0.000232048
9.94532e-05
5.3824e-05
5.38134e-05
0.000225947
5.38294e-05
5.38187e-05
8.46532e-05
4.41728e-05
8.46387e-05
4.41718e-05
2.51189e-05
2.51187e-05
8.46636e-05
4.41696e-05
8.46508e-05
4.41687e-05
0.000232595
0.000232595
0.000232595
0.000232595
0.000232595
0.000232595
0.000232595
0.000180334
9.94236e-05
0.000232048
0.000229957
0.000180309
9.9449e-05
0.000232048
2.51169e-05
2.51165e-05
0.000180337
0.000232048
9.94296e-05
0.000229956
0.000180311
0.000232048
9.94532e-05
5.3824e-05
5.38134e-05
0.000225947
5.38295e-05
5.38187e-05
8.46531e-05
4.41726e-05
8.46386e-05
4.41716e-05
2.51191e-05
2.51189e-05
8.46637e-05
4.41698e-05
8.46509e-05
4.41691e-05
0.000232596
0.000232595
0.000232595
0.000232595
0.000232595
0.000232595
0.000232595
0.000180333
9.94236e-05
0.000232048
0.000229957
0.000180309
9.9449e-05
0.000232048
2.51169e-05
2.51165e-05
0.000180337
0.000232048
9.94296e-05
0.000229956
0.000180311
0.000232048
9.94532e-05
5.3824e-05
5.38134e-05
0.000225947
5.38295e-05
5.38187e-05
8.46531e-05
4.41722e-05
8.46386e-05
4.41714e-05
2.51191e-05
2.51188e-05
8.46637e-05
4.41698e-05
8.46509e-05
4.41691e-05
0.000232596
0.000232595
0.000232595
0.000232595
0.000232595
0.000232595
0.000232595
0.000180334
9.94236e-05
0.000232048
0.000229957
0.000180309
9.9449e-05
0.000232048
2.51169e-05
2.51165e-05
0.000180337
0.000232047
9.94296e-05
0.000229956
0.000180311
0.000232048
9.94532e-05
5.3824e-05
5.38134e-05
0.000225947
5.38295e-05
5.38187e-05
8.46532e-05
4.41723e-05
8.46387e-05
4.41715e-05
2.51191e-05
2.51188e-05
8.46637e-05
4.41699e-05
8.46509e-05
4.41691e-05
0.000232596
0.000232595
0.000232595
0.000232595
0.000232595
0.000232595
0.000232595
0.000180334
9.94236e-05
0.000232048
0.000229957
0.000180309
9.9449e-05
0.000232048
2.51169e-05
2.51165e-05
0.000180337
0.000232047
9.94296e-05
0.000229956
0.000180311
0.000232048
9.94532e-05
5.3824e-05
5.38134e-05
0.000225947
5.38294e-05
5.38187e-05
8.46533e-05
4.41722e-05
8.46388e-05
4.41715e-05
2.51191e-05
2.51189e-05
8.46637e-05
4.41699e-05
8.46509e-05
4.41692e-05
0.000232595
0.000232595
0.000232595
0.000232595
0.000232595
0.000232595
0.000232595
0.000180334
9.94236e-05
0.000232048
0.000229957
0.000180309
9.9449e-05
0.000232048
2.51169e-05
2.51165e-05
0.000180337
0.000232048
9.94296e-05
0.000229956
0.000180311
0.000232048
9.94532e-05
5.3824e-05
5.38134e-05
0.000225947
5.38295e-05
5.38187e-05
8.46532e-05
4.41722e-05
8.46387e-05
4.41715e-05
2.51191e-05
2.51189e-05
8.46636e-05
4.41699e-05
8.46508e-05
4.41692e-05
0.000232595
0.000232595
0.000232595
0.000232595
0.000232595
0.000232595
0.000232595
0.000180334
9.94236e-05
0.000232048
0.000229957
0.000180309
9.9449e-05
0.000232048
2.51169e-05
2.51165e-05
0.000180337
0.000232047
9.94296e-05
0.000229956
0.000180311
0.000232048
9.94532e-05
5.3824e-05
5.38134e-05
0.000225947
5.38294e-05
5.38187e-05
8.46532e-05
4.41722e-05
8.46387e-05
4.41715e-05
2.51191e-05
2.51189e-05
8.46636e-05
4.41699e-05
8.46508e-05
4.41691e-05
0.000232595
0.000232595
0.000232595
0.000232595
0.000232595
0.000232595
0.000232595
0.000180334
9.94236e-05
0.000232048
0.000229957
0.000180309
9.9449e-05
0.000232048
2.51169e-05
2.51165e-05
0.000180336
0.000232047
9.94296e-05
0.000229956
0.000180311
0.000232048
9.94532e-05
5.3824e-05
5.38134e-05
0.000225947
5.38294e-05
5.38187e-05
8.46532e-05
4.41722e-05
8.46387e-05
4.41715e-05
2.51191e-05
2.51189e-05
8.46636e-05
4.41699e-05
8.46508e-05
4.41691e-05
0.000232596
0.000232595
0.000232595
0.000232595
0.000232595
0.000232595
0.000232595
0.000180334
9.94236e-05
0.000232048
0.000229957
0.000180309
9.9449e-05
0.000232048
2.51169e-05
2.51165e-05
0.000180336
0.000232048
9.94296e-05
0.000229956
0.000180311
0.000232048
9.94532e-05
5.3824e-05
5.38134e-05
0.000225947
5.38294e-05
5.38187e-05
8.46532e-05
4.41722e-05
8.46387e-05
4.41715e-05
2.51191e-05
2.51189e-05
8.46637e-05
4.41699e-05
8.46508e-05
4.41692e-05
0.000232595
0.000232595
0.000232595
0.000232595
0.000232595
0.000232595
0.000232595
0.000180334
9.94236e-05
0.000232048
0.000229957
0.000180309
9.9449e-05
0.000232048
2.51169e-05
2.51165e-05
0.000180336
0.000232048
9.94296e-05
0.000229956
0.000180311
0.000232048
9.94532e-05
5.3824e-05
5.38133e-05
0.000225947
5.38295e-05
5.38186e-05
8.46532e-05
4.41722e-05
8.46387e-05
4.41715e-05
2.51191e-05
2.51188e-05
8.46636e-05
4.41699e-05
8.46508e-05
4.41691e-05
0.000232595
0.000232595
0.000232595
0.000232595
0.000232595
0.000232595
0.000232595
0.000180334
9.94236e-05
0.000232048
0.000229957
0.000180309
9.9449e-05
0.000232048
2.51169e-05
2.51165e-05
0.000180336
0.000232047
9.94296e-05
0.000229956
0.000180311
0.000232047
9.94531e-05
5.38241e-05
5.38132e-05
0.000225947
5.38295e-05
5.38186e-05
8.46514e-05
4.41722e-05
8.46387e-05
4.41714e-05
2.51191e-05
2.51188e-05
8.46596e-05
4.41699e-05
8.46508e-05
4.41691e-05
0.000232595
0.000232595
0.000232595
0.000180334
9.94236e-05
0.000232048
0.000229957
0.000180309
9.9449e-05
0.000232048
2.51169e-05
2.51164e-05
0.000180342
0.000232048
9.94296e-05
0.000229957
0.000180311
0.000232048
9.94441e-05
5.38242e-05
5.38132e-05
0.000225952
5.38302e-05
5.38169e-05
4.41539e-05
9.96024e-05
2.51084e-05
5.39201e-05
5.39193e-05
2.51084e-05
9.96032e-05
4.41533e-05
2.51102e-05
2.51087e-05
2.51084e-05
2.51069e-05
5.39239e-05
5.39118e-05
0.000226011
5.39328e-05
5.39206e-05
2.51078e-05
2.51086e-05
2.51061e-05
2.51068e-05
0.00022597
5.39422e-05
5.39301e-05
5.39346e-05
5.39224e-05
8.47999e-05
4.41539e-05
8.47754e-05
4.41536e-05
0.000180521
9.95584e-05
0.000232061
0.000229984
0.000180484
9.96078e-05
0.000232061
0.000180523
9.95863e-05
0.000232062
0.000229983
0.000180485
9.96088e-05
0.000232062
8.47939e-05
4.41548e-05
4.41549e-05
8.48043e-05
8.47941e-05
4.41538e-05
4.41536e-05
8.48048e-05
0.000180505
0.000229983
9.96135e-05
0.000232061
9.95933e-05
0.000232061
0.000180522
0.000180507
0.000229983
9.9607e-05
0.000232061
9.95937e-05
0.000232062
0.000180525
5.39209e-05
5.39187e-05
0.000226009
5.39283e-05
5.39283e-05
2.51084e-05
2.51073e-05
2.51065e-05
2.51068e-05
0.00022597
5.39339e-05
5.39339e-05
5.39303e-05
5.39267e-05
2.51071e-05
2.51073e-05
0.000180524
9.95397e-05
0.000232061
0.000229985
0.000180489
9.95907e-05
0.000232061
8.48048e-05
4.41501e-05
8.47834e-05
4.41495e-05
0.000180521
0.000232061
9.95306e-05
0.000229982
0.000180485
0.000232061
9.95822e-05
8.48046e-05
4.41514e-05
4.41514e-05
8.48133e-05
0.000180508
0.000229984
9.95958e-05
0.00023206
9.95747e-05
0.000232061
0.000180524
8.4801e-05
4.41496e-05
4.41495e-05
8.481e-05
0.000180505
0.000229981
0.00023206
9.95871e-05
0.000232061
9.95662e-05
0.00018052
8.47984e-05
4.41534e-05
8.47746e-05
4.4153e-05
0.00018052
0.000232061
9.95548e-05
0.000229983
0.000180486
0.000232061
9.96035e-05
8.4798e-05
4.41523e-05
8.4774e-05
4.41518e-05
0.000180505
0.000229986
9.96092e-05
0.000232061
9.95944e-05
0.000232062
0.00018052
8.47924e-05
4.41534e-05
4.4153e-05
8.48031e-05
0.000180504
0.000229983
0.000232061
9.96083e-05
0.000232061
9.95886e-05
0.000180521
8.4792e-05
4.4152e-05
4.41519e-05
8.48026e-05
5.3895e-05
5.39213e-05
0.000226009
5.39074e-05
5.39305e-05
2.51091e-05
2.51076e-05
2.51047e-05
2.51055e-05
0.000225968
5.39155e-05
5.39397e-05
5.39068e-05
5.3932e-05
2.51067e-05
2.51075e-05
0.000180525
0.000232062
9.95473e-05
0.000229985
0.00018049
0.000232061
9.95964e-05
8.48061e-05
4.41521e-05
8.47851e-05
4.41516e-05
8.48065e-05
4.41516e-05
8.47853e-05
4.41511e-05
0.000180507
0.000229984
0.00023206
9.96094e-05
0.000232061
9.95901e-05
0.000180521
0.000180508
0.000229984
0.000232061
9.96014e-05
0.000232061
9.95813e-05
0.000180525
8.48023e-05
4.41517e-05
4.41516e-05
8.48113e-05
8.48026e-05
4.41513e-05
4.41512e-05
8.48117e-05
2.51089e-05
2.51074e-05
2.51082e-05
2.51067e-05
0.00022597
5.39395e-05
5.39289e-05
5.39322e-05
5.39219e-05
2.51066e-05
2.51073e-05
2.51058e-05
2.51066e-05
2.51078e-05
2.51087e-05
2.51061e-05
2.5107e-05
5.39427e-05
5.3931e-05
0.000225992
5.3933e-05
5.39203e-05
2.51192e-05
2.51111e-05
2.51174e-05
2.51095e-05
0.000225932
5.38459e-05
5.38342e-05
5.39125e-05
5.39002e-05
8.47848e-05
4.41539e-05
8.47971e-05
4.41621e-05
0.000180496
9.95959e-05
0.000232059
0.000229974
0.000180498
9.95892e-05
0.000232052
0.000180497
9.95825e-05
0.000232059
0.000229958
0.0001805
9.95429e-05
0.000232051
8.47517e-05
4.41712e-05
4.41591e-05
8.46793e-05
8.47526e-05
4.41719e-05
4.41681e-05
8.46786e-05
0.000180447
0.000229953
9.94891e-05
0.000232031
9.95519e-05
0.000232034
0.00018036
0.000180445
0.000229945
9.94569e-05
0.00023203
9.94979e-05
0.000232032
0.000180359
5.39291e-05
5.3925e-05
0.00022596
5.38878e-05
5.38926e-05
2.51073e-05
2.51138e-05
2.51188e-05
2.51168e-05
0.000225892
5.38191e-05
5.38197e-05
5.38551e-05
5.38593e-05
2.51193e-05
2.51173e-05
0.000180499
9.95769e-05
0.000232058
0.000229975
0.000180501
9.95714e-05
0.000232052
8.47904e-05
4.41496e-05
8.48044e-05
4.41506e-05
0.000180497
0.000232058
9.95683e-05
0.000229972
0.000180497
0.000232052
9.95634e-05
8.47637e-05
4.41676e-05
4.41558e-05
8.46832e-05
0.00018045
0.000229954
9.947e-05
0.000232031
9.95332e-05
0.000232034
0.000180361
8.47625e-05
4.41655e-05
4.41534e-05
8.46815e-05
0.000180448
0.000229952
0.00023203
9.94629e-05
0.000232034
9.95254e-05
0.000180359
8.4784e-05
4.41537e-05
8.47956e-05
4.41616e-05
0.000180497
0.000232059
9.95912e-05
0.000229973
0.000180497
0.000232052
9.95846e-05
8.47835e-05
4.41519e-05
8.47949e-05
4.41529e-05
0.00018045
0.000229948
9.94594e-05
0.00023203
9.9506e-05
0.000232032
0.000180363
8.47525e-05
4.41713e-05
4.41676e-05
8.4679e-05
0.000180449
0.000229953
0.000232031
9.94838e-05
0.000232034
9.95472e-05
0.000180362
8.47519e-05
4.41679e-05
4.41555e-05
8.46784e-05
5.39127e-05
5.39401e-05
0.00022599
5.39051e-05
5.39301e-05
2.51067e-05
2.51076e-05
2.51161e-05
2.51086e-05
0.000225931
5.38253e-05
5.38433e-05
5.38816e-05
5.39091e-05
2.51181e-05
2.51102e-05
0.000180502
0.000232059
9.9584e-05
0.000229975
0.000180501
0.000232052
9.95774e-05
8.47919e-05
4.41517e-05
8.48058e-05
4.41527e-05
8.47923e-05
4.41513e-05
8.48061e-05
4.41523e-05
0.000180453
0.000229953
0.00023203
9.94849e-05
0.000232034
9.9548e-05
0.000180364
0.000180453
0.000229954
0.00023203
9.94765e-05
0.000232034
9.95398e-05
0.000180365
8.47641e-05
4.41678e-05
4.41555e-05
8.4683e-05
8.47643e-05
4.41673e-05
4.4155e-05
8.46828e-05
2.51066e-05
2.51075e-05
2.51058e-05
2.51067e-05
0.000225931
5.38436e-05
5.38331e-05
5.39083e-05
5.38985e-05
2.5118e-05
2.51101e-05
2.51172e-05
2.51091e-05
2.51198e-05
2.51198e-05
2.51179e-05
2.51179e-05
5.38361e-05
5.38247e-05
0.000225944
5.38306e-05
5.38187e-05
2.51197e-05
2.51197e-05
2.51179e-05
2.51178e-05
0.000225914
5.38312e-05
5.38193e-05
5.38297e-05
5.38181e-05
8.46534e-05
4.41719e-05
8.46557e-05
4.41718e-05
0.000180332
9.94566e-05
0.000232036
0.00022995
0.000180323
9.94589e-05
0.000232042
0.000180333
9.94356e-05
0.000232036
0.000229952
0.000180323
9.94498e-05
0.000232042
8.46451e-05
4.41723e-05
4.41721e-05
8.46529e-05
8.46456e-05
4.41718e-05
4.41718e-05
8.46533e-05
0.000180314
0.000229953
9.9457e-05
0.000232047
9.94408e-05
0.000232046
0.000180334
0.000180314
0.000229953
9.94493e-05
0.000232047
9.94326e-05
0.000232046
0.000180335
5.38166e-05
5.38129e-05
0.00022595
5.38186e-05
5.38165e-05
2.51193e-05
2.51192e-05
2.51186e-05
2.51187e-05
0.000225918
5.38174e-05
5.38174e-05
5.3817e-05
5.3812e-05
2.51192e-05
2.51191e-05
0.000180335
9.94371e-05
0.000232036
0.000229951
0.000180325
9.94395e-05
0.000232042
8.46601e-05
4.41675e-05
8.4663e-05
4.41673e-05
0.000180332
0.000232036
9.94296e-05
0.000229948
0.000180323
0.000232041
9.94306e-05
8.4657e-05
4.41689e-05
4.41688e-05
8.46627e-05
0.000180317
0.000229954
9.94378e-05
0.000232047
9.94205e-05
0.000232046
0.000180338
8.46541e-05
4.41671e-05
4.41673e-05
8.46597e-05
0.000180314
0.000229951
0.000232047
9.94288e-05
0.000232045
9.94114e-05
0.000180334
8.46524e-05
4.41714e-05
8.46554e-05
4.41712e-05
0.000180332
0.000232036
9.94519e-05
0.000229949
0.000180325
0.000232042
9.94536e-05
8.4652e-05
4.41697e-05
8.46548e-05
4.41696e-05
0.000180314
0.000229957
9.94488e-05
0.000232047
9.94307e-05
0.000232046
0.000180332
8.46446e-05
4.41711e-05
4.41712e-05
8.46523e-05
0.000180314
0.000229952
0.000232047
9.94519e-05
0.000232046
9.94357e-05
0.000180333
8.4644e-05
4.41694e-05
4.41696e-05
8.46517e-05
5.38087e-05
5.38338e-05
0.000225942
5.38008e-05
5.38279e-05
2.51187e-05
2.51187e-05
2.51167e-05
2.51166e-05
0.000225913
5.38024e-05
5.38288e-05
5.37971e-05
5.3827e-05
2.51186e-05
2.51186e-05
0.000180337
0.000232036
9.94444e-05
0.000229951
0.000180328
0.000232042
9.94464e-05
8.46613e-05
4.41695e-05
8.46644e-05
4.41694e-05
8.46616e-05
4.41691e-05
8.46643e-05
4.41689e-05
0.000180317
0.000229954
0.000232047
9.94531e-05
0.000232046
9.94375e-05
0.000180335
0.000180318
0.000229954
0.000232047
9.94448e-05
0.000232046
9.94283e-05
0.000180338
8.46552e-05
4.41692e-05
4.41694e-05
8.46609e-05
8.46555e-05
4.41688e-05
4.4169e-05
8.46613e-05
2.51185e-05
2.51185e-05
2.51178e-05
2.51178e-05
0.000225915
5.38291e-05
5.38184e-05
5.38272e-05
5.38164e-05
2.51184e-05
2.51185e-05
2.51176e-05
2.51177e-05
2.51196e-05
2.51197e-05
2.51177e-05
2.51179e-05
5.38302e-05
5.38187e-05
0.000225946
5.38311e-05
5.38194e-05
2.51197e-05
2.51196e-05
2.51179e-05
2.51177e-05
0.000225913
5.38312e-05
5.38195e-05
5.383e-05
5.38186e-05
8.46536e-05
4.41718e-05
8.46457e-05
4.41717e-05
0.000180335
9.94395e-05
0.000232048
0.000229954
0.000180317
9.9457e-05
0.000232048
0.000180335
9.94324e-05
0.000232048
0.000229954
0.000180317
9.94495e-05
0.000232048
8.46456e-05
4.41723e-05
4.41721e-05
8.4653e-05
8.46459e-05
4.41718e-05
4.41718e-05
8.46531e-05
0.000180316
0.000229955
9.9457e-05
0.000232047
9.94399e-05
0.000232048
0.000180333
0.000180315
0.000229955
9.94495e-05
0.000232047
9.94326e-05
0.000232047
0.000180334
5.38162e-05
5.38118e-05
0.000225946
5.3818e-05
5.38165e-05
2.51192e-05
2.51191e-05
2.51186e-05
2.51186e-05
0.000225914
5.38188e-05
5.38177e-05
5.3817e-05
5.38127e-05
2.51192e-05
2.51191e-05
0.000180339
9.94194e-05
0.000232048
0.000229956
0.000180321
9.9438e-05
0.000232048
8.466e-05
4.41671e-05
8.4654e-05
4.41671e-05
0.000180335
0.000232047
9.94107e-05
0.000229953
0.000180317
0.000232047
9.94292e-05
8.46574e-05
4.41689e-05
4.41688e-05
8.46629e-05
0.00018032
0.000229956
9.94379e-05
0.000232047
9.942e-05
0.000232048
0.000180337
8.46542e-05
4.41671e-05
4.41671e-05
8.46596e-05
0.000180315
0.000229953
0.000232047
9.9429e-05
0.000232047
9.94111e-05
0.000180333
8.46525e-05
4.41711e-05
8.46447e-05
4.41711e-05
0.000180335
0.000232048
9.94353e-05
0.000229954
0.000180316
0.000232048
9.94522e-05
8.46521e-05
4.41695e-05
8.4644e-05
4.41694e-05
0.000180316
0.000229957
9.94489e-05
0.000232047
9.94309e-05
0.000232047
0.000180332
8.46448e-05
4.4171e-05
4.41712e-05
8.46521e-05
0.000180316
0.000229955
0.000232047
9.9452e-05
0.000232048
9.94353e-05
0.000180333
8.46443e-05
4.41694e-05
4.41694e-05
8.46517e-05
5.37983e-05
5.38278e-05
0.000225945
5.38028e-05
5.38288e-05
2.51185e-05
2.51186e-05
2.51166e-05
2.51164e-05
0.000225911
5.3803e-05
5.3829e-05
5.37992e-05
5.38277e-05
2.51186e-05
2.51185e-05
0.00018034
0.000232048
9.94279e-05
0.000229956
0.000180321
0.000232048
9.9445e-05
8.46612e-05
4.41693e-05
8.46552e-05
4.41692e-05
8.46618e-05
4.41687e-05
8.46555e-05
4.41687e-05
0.000180318
0.000229956
0.000232047
9.94531e-05
0.000232047
9.94369e-05
0.000180334
0.00018032
0.000229956
0.000232047
9.94449e-05
0.000232048
9.94279e-05
0.000180338
8.46555e-05
4.41692e-05
4.41692e-05
8.4661e-05
8.4656e-05
4.41687e-05
4.41687e-05
8.46614e-05
2.51184e-05
2.51185e-05
2.51177e-05
2.51177e-05
0.000225912
5.38295e-05
5.38188e-05
5.38281e-05
5.38175e-05
2.51184e-05
2.51183e-05
2.51177e-05
2.51176e-05
2.51196e-05
2.51197e-05
2.51177e-05
2.51179e-05
5.38303e-05
5.38188e-05
0.000225947
5.38311e-05
5.38194e-05
2.51197e-05
2.51196e-05
2.51179e-05
2.51177e-05
0.000225914
5.38309e-05
5.38195e-05
5.38302e-05
5.38186e-05
8.46535e-05
4.41717e-05
8.46455e-05
4.41717e-05
0.000180336
9.94397e-05
0.000232047
0.000229955
0.000180315
9.94568e-05
0.000232047
0.000180335
9.94326e-05
0.000232047
0.000229955
0.000180315
9.94499e-05
0.000232047
8.46456e-05
4.41723e-05
4.41721e-05
8.46531e-05
8.46459e-05
4.41717e-05
4.41717e-05
8.46532e-05
0.000180316
0.000229954
9.94566e-05
0.000232047
9.944e-05
0.000232048
0.000180333
0.000180316
0.000229955
9.94501e-05
0.000232047
9.94331e-05
0.000232047
0.000180334
5.38178e-05
5.38124e-05
0.000225947
5.38196e-05
5.38174e-05
2.51192e-05
2.51192e-05
2.51186e-05
2.51186e-05
0.000225914
5.382e-05
5.38165e-05
5.38187e-05
5.38129e-05
2.51192e-05
2.51191e-05
0.000180339
9.94195e-05
0.000232047
0.000229956
0.000180319
9.9438e-05
0.000232047
8.46602e-05
4.41671e-05
8.46539e-05
4.41671e-05
0.000180335
0.000232047
9.94108e-05
0.000229953
0.000180315
0.000232047
9.94292e-05
8.46575e-05
4.41689e-05
4.41687e-05
8.4663e-05
0.000180321
0.000229956
9.94379e-05
0.000232047
9.942e-05
0.000232048
0.000180338
8.46544e-05
4.41671e-05
4.41672e-05
8.46601e-05
0.000180316
0.000229953
0.000232047
9.9429e-05
0.000232047
9.94111e-05
0.000180334
8.46524e-05
4.41711e-05
8.46444e-05
4.41711e-05
0.000180334
0.000232048
9.94354e-05
0.000229955
0.000180315
0.000232048
9.94521e-05
8.4652e-05
4.41694e-05
8.46439e-05
4.41694e-05
0.000180316
0.000229957
9.94487e-05
0.000232048
9.9431e-05
0.000232048
0.000180332
8.46448e-05
4.41711e-05
4.41711e-05
8.46523e-05
0.000180316
0.000229955
0.000232047
9.9452e-05
0.000232048
9.94353e-05
0.000180334
8.46443e-05
4.41694e-05
4.41695e-05
8.46517e-05
5.37982e-05
5.38279e-05
0.000225945
5.38027e-05
5.38288e-05
2.51186e-05
2.51186e-05
2.51166e-05
2.51164e-05
0.000225912
5.3803e-05
5.3829e-05
5.37992e-05
5.38277e-05
2.51186e-05
2.51185e-05
0.000180339
0.000232048
9.9428e-05
0.000229956
0.00018032
0.000232048
9.94451e-05
8.46612e-05
4.41691e-05
8.46552e-05
4.41692e-05
8.46618e-05
4.41687e-05
8.46556e-05
4.41687e-05
0.000180319
0.000229956
0.000232048
9.94531e-05
0.000232048
9.94368e-05
0.000180335
0.00018032
0.000229956
0.000232047
9.94449e-05
0.000232048
9.9428e-05
0.000180338
8.46555e-05
4.41692e-05
4.41692e-05
8.4661e-05
8.4656e-05
4.41687e-05
4.41688e-05
8.46614e-05
2.51184e-05
2.51185e-05
2.51177e-05
2.51177e-05
0.000225913
5.38296e-05
5.38188e-05
5.38282e-05
5.38176e-05
2.51184e-05
2.51183e-05
2.51176e-05
2.51176e-05
2.51197e-05
2.51197e-05
2.51177e-05
2.51179e-05
5.38299e-05
5.38188e-05
0.000225947
5.38309e-05
5.38194e-05
2.51197e-05
2.51196e-05
2.51179e-05
2.51177e-05
0.000225914
5.38315e-05
5.38195e-05
5.383e-05
5.38187e-05
8.46535e-05
4.41718e-05
8.46455e-05
4.41717e-05
0.000180336
9.94394e-05
0.000232048
0.000229955
0.000180315
9.94565e-05
0.000232048
0.000180335
9.94332e-05
0.000232048
0.000229955
0.000180315
9.94487e-05
0.000232048
8.46456e-05
4.41724e-05
4.41721e-05
8.4653e-05
8.46458e-05
4.41717e-05
4.41718e-05
8.4653e-05
0.000180317
0.000229955
9.94569e-05
0.000232048
9.94398e-05
0.000232048
0.000180333
0.000180316
0.000229955
9.94448e-05
0.000232047
9.94292e-05
0.000232048
0.000180334
5.3819e-05
5.38112e-05
0.000225948
5.38181e-05
5.38156e-05
2.51192e-05
2.51192e-05
2.51185e-05
2.51185e-05
0.000225915
5.38121e-05
5.38155e-05
5.38124e-05
5.38106e-05
2.51192e-05
2.51191e-05
0.000180339
9.94195e-05
0.000232048
0.000229956
0.000180319
9.9438e-05
0.000232048
8.46606e-05
4.41672e-05
8.46544e-05
4.41671e-05
0.000180335
0.000232047
9.94108e-05
0.000229953
0.000180315
0.000232047
9.94292e-05
8.46576e-05
4.41689e-05
4.41687e-05
8.4663e-05
0.000180321
0.000229956
9.94379e-05
0.000232048
9.942e-05
0.000232048
0.000180338
8.46548e-05
4.41671e-05
4.41672e-05
8.46602e-05
0.000180317
0.000229953
0.000232047
9.9429e-05
0.000232047
9.94111e-05
0.000180334
8.46524e-05
4.41711e-05
8.46445e-05
4.41711e-05
0.000180333
0.000232048
9.94353e-05
0.000229955
0.000180316
0.000232047
9.94521e-05
8.46521e-05
4.41695e-05
8.46439e-05
4.41694e-05
0.000180316
0.000229957
9.94487e-05
0.000232048
9.94305e-05
0.000232048
0.000180332
8.46448e-05
4.41711e-05
4.41711e-05
8.46522e-05
0.000180315
0.000229955
0.000232047
9.9452e-05
0.000232047
9.94353e-05
0.000180334
8.46444e-05
4.41694e-05
4.41695e-05
8.46517e-05
5.37982e-05
5.38279e-05
0.000225945
5.38027e-05
5.38288e-05
2.51186e-05
2.51186e-05
2.51166e-05
2.51164e-05
0.000225912
5.3803e-05
5.3829e-05
5.37992e-05
5.38277e-05
2.51186e-05
2.51185e-05
0.000180339
0.000232048
9.9428e-05
0.000229956
0.00018032
0.000232048
9.94451e-05
8.46612e-05
4.41692e-05
8.46552e-05
4.41692e-05
8.46617e-05
4.41687e-05
8.46555e-05
4.41687e-05
0.000180318
0.000229956
0.000232048
9.94531e-05
0.000232048
9.94368e-05
0.000180335
0.00018032
0.000229956
0.000232047
9.94449e-05
0.000232048
9.94279e-05
0.000180339
8.46554e-05
4.41692e-05
4.41692e-05
8.4661e-05
8.46559e-05
4.41687e-05
4.41688e-05
8.46613e-05
2.51184e-05
2.51185e-05
2.51176e-05
2.51177e-05
0.000225913
5.38296e-05
5.38188e-05
5.38282e-05
5.38175e-05
2.51184e-05
2.51183e-05
2.51176e-05
2.51176e-05
2.51196e-05
2.51195e-05
2.51177e-05
2.51179e-05
5.38304e-05
5.38189e-05
0.000225947
5.38305e-05