/*--------------------------------*- C++ -*----------------------------------*\
| =========                 |                                                 |
| \\      /  F ield         | OpenFOAM: The Open Source CFD Toolbox           |
|  \\    /   O peration     | Version:  2206                                  |
|   \\  /    A nd           | Website:  www.openfoam.com                      |
|    \\/     M anipulation  |                                                 |
\*---------------------------------------------------------------------------*/
FoamFile
{
    version     2.0;
    format      ascii;
    arch        "LSB;label=32;scalar=64";
    class       surfaceScalarField;
    location    "8";
    object      phi;
}
// * * * * * * * * * * * * * * * * * * * * * * * * * * * * * * * * * * * * * //

dimensions      [0 3 -1 0 0 0 0];

oriented        oriented;

internalField   nonuniform List<scalar> 
82717
(
1.0929e-09
1.08271e-09
-9.21362e-10
-9.34507e-10
0.00106358
-0.00106425
-1.16389e-06
-1.25807e-09
1.01107e-09
0.00106425
-2.18344e-07
1.16562e-06
2.18048e-07
8.36499e-07
-2.01251e-07
-8.3629e-07
2.00517e-07
-1.15863e-06
-1.10187e-09
1.17629e-09
0.00106391
-2.18409e-07
1.16027e-06
2.17964e-07
8.36313e-07
-2.03988e-07
-8.36209e-07
2.03065e-07
1.19164e-06
1.15873e-06
-2.08099e-07
-2.13272e-07
0.0002598
7.13822e-10
9.75521e-10
-0.00106357
-9.61984e-10
-7.0923e-10
0.00106357
-0.00106424
-1.16415e-06
-4.13107e-10
1.85244e-09
0.00106424
-2.18721e-07
1.16537e-06
2.17621e-07
8.36114e-07
-2.01593e-07
-8.36572e-07
1.99958e-07
-0.00106391
-1.15861e-06
-9.07839e-10
1.23017e-09
0.00106391
-2.18359e-07
1.16022e-06
2.17913e-07
8.36088e-07
-2.03849e-07
-8.36301e-07
2.03033e-07
-0.000261728
1.1916e-06
1.15874e-06
-2.08032e-07
-2.13171e-07
0.000259799
3.16459e-10
3.50326e-10
-0.00106358
-5.37162e-10
-5.47989e-10
0.00106358
-0.00106425
-1.16411e-06
-4.61306e-10
1.38188e-09
0.00106425
-2.18634e-07
1.16551e-06
2.17879e-07
8.36331e-07
-2.01745e-07
-8.36572e-07
2.00167e-07
-0.00106391
-1.15882e-06
-3.6459e-10
1.46215e-09
0.00106391
-2.18655e-07
1.16017e-06
2.17831e-07
8.36139e-07
-2.0446e-07
-8.36476e-07
2.02746e-07
-0.000261729
1.19183e-06
1.15893e-06
-2.08324e-07
-2.13496e-07
0.0002598
6.59972e-10
7.417e-10
-0.00106358
-7.38861e-10
-7.10293e-10
0.00106358
-0.00106425
-1.16409e-06
-7.28083e-10
1.37338e-09
0.00106425
-2.18607e-07
1.16553e-06
2.17908e-07
8.3639e-07
-2.01592e-07
-8.36517e-07
2.00282e-07
-0.00106391
-1.15873e-06
-7.39039e-10
1.31207e-09
0.00106391
-2.18544e-07
1.16023e-06
2.17912e-07
8.36213e-07
-2.04212e-07
-8.36397e-07
2.02918e-07
-0.000261729
1.19174e-06
1.15884e-06
-2.08207e-07
-2.13376e-07
0.0002598
6.80743e-10
7.63947e-10
-0.00106358
-7.4693e-10
-7.3153e-10
0.00106358
-0.00106425
-1.16403e-06
-7.64587e-10
1.32693e-09
0.00106425
-2.18544e-07
1.16555e-06
2.17906e-07
8.3639e-07
-2.01589e-07
-8.36515e-07
2.00281e-07
-0.00106391
-1.15873e-06
-7.64248e-10
1.30287e-09
0.00106391
-2.18539e-07
1.16024e-06
2.17915e-07
8.36219e-07
-2.04204e-07
-8.36389e-07
2.02923e-07
-0.000261729
1.19174e-06
1.15884e-06
-2.08201e-07
-2.13369e-07
0.0002598
6.69754e-10
7.71932e-10
-0.00106358
-7.48548e-10
-7.1639e-10
0.00106358
-0.00106425
-1.16404e-06
-7.72017e-10
1.34734e-09
0.00106425
-2.18553e-07
1.16555e-06
2.17902e-07
8.36395e-07
-2.01588e-07
-8.36512e-07
2.00285e-07
-0.00106391
-1.15873e-06
-7.84571e-10
1.30238e-09
0.00106391
-2.18538e-07
1.16024e-06
2.17917e-07
8.36223e-07
-2.04201e-07
-8.36386e-07
2.02927e-07
-0.000261729
1.19173e-06
1.15884e-06
-2.082e-07
-2.13366e-07
0.0002598
5.33847e-10
7.6948e-10
-0.00106358
-7.20909e-10
-6.43543e-10
0.00106358
-0.00106425
-1.16408e-06
-7.61296e-10
1.45152e-09
0.00106425
-2.18611e-07
1.1655e-06
2.17844e-07
8.36404e-07
-2.01588e-07
-8.36508e-07
2.00289e-07
-0.00106391
-1.15873e-06
-8.20324e-10
1.30192e-09
0.00106391
-2.18537e-07
1.16024e-06
2.17919e-07
8.3623e-07
-2.04195e-07
-8.3638e-07
2.02933e-07
-0.000261729
1.19173e-06
1.15883e-06
-2.08198e-07
-2.13362e-07
0.0002598
6.3116e-10
7.06333e-10
-0.00106358
-6.8742e-10
-6.83791e-10
0.00106358
-0.00106425
-1.16401e-06
-8.37882e-10
1.254e-09
0.00106425
-2.18498e-07
1.16558e-06
2.17977e-07
8.36399e-07
-2.01567e-07
-8.365e-07
2.00299e-07
-0.00106391
-1.15873e-06
-8.20439e-10
1.30849e-09
0.00106391
-2.18539e-07
1.16024e-06
2.17916e-07
8.36229e-07
-2.04195e-07
-8.3638e-07
2.02933e-07
-0.000261729
1.19173e-06
1.15883e-06
-2.08198e-07
-2.13364e-07
0.0002598
6.13791e-10
6.73566e-10
-0.00106357
-7.24503e-10
-7.56143e-10
0.00106357
-0.00106425
-1.16403e-06
-7.81239e-10
1.3169e-09
0.00106425
-2.21251e-07
1.16557e-06
2.20602e-07
8.36397e-07
-2.01617e-07
-8.36513e-07
2.00307e-07
-0.00106391
-1.15873e-06
-7.86631e-10
1.30614e-09
0.00106391
-2.18539e-07
1.16024e-06
2.17915e-07
8.36224e-07
-2.04197e-07
-8.36382e-07
2.02929e-07
-0.000261729
1.19173e-06
1.15883e-06
-2.08194e-07
-2.13365e-07
0.0002598
7.35008e-10
7.56353e-10
-0.00106357
-7.4101e-10
-7.50614e-10
0.00106357
-0.00106425
-1.16402e-06
-7.63545e-10
1.3055e-09
0.00106425
-2.21265e-07
1.16555e-06
2.20639e-07
8.36389e-07
-2.01618e-07
-8.36516e-07
2.00301e-07
-0.00106391
-1.15873e-06
-7.70343e-10
1.3018e-09
0.00106391
-2.18538e-07
1.16024e-06
2.17916e-07
8.36221e-07
-2.04201e-07
-8.36386e-07
2.02925e-07
-0.000261729
1.19174e-06
1.15883e-06
-2.08198e-07
-2.13368e-07
0.0002598
7.31259e-10
7.58568e-10
-0.00106357
-7.48886e-10
-7.47272e-10
0.00106357
-0.00106425
-1.16402e-06
-7.71258e-10
1.30897e-09
0.00106425
-2.21261e-07
1.16554e-06
2.20637e-07
8.36391e-07
-2.01615e-07
-8.36514e-07
2.00303e-07
-0.00106391
-1.15873e-06
-7.62971e-10
1.30279e-09
0.00106391
-2.18538e-07
1.16024e-06
2.17916e-07
8.36219e-07
-2.04203e-07
-8.36388e-07
2.02923e-07
-0.000261729
1.19174e-06
1.15883e-06
-2.08199e-07
-2.13369e-07
0.0002598
7.2385e-10
7.59578e-10
-0.00106357
-7.48451e-10
-7.43312e-10
0.00106357
-0.00106425
-1.16402e-06
-7.64707e-10
1.31498e-09
0.00106425
-2.21263e-07
1.16554e-06
2.20635e-07
8.3639e-07
-2.01616e-07
-8.36515e-07
2.00302e-07
-0.00106391
-1.15873e-06
-7.56624e-10
1.30608e-09
0.00106391
-2.1854e-07
1.16024e-06
2.17914e-07
8.36218e-07
-2.04205e-07
-8.36389e-07
2.02922e-07
-0.000261729
1.19174e-06
1.15884e-06
-2.08199e-07
-2.13369e-07
0.0002598
7.22449e-10
7.63214e-10
-0.00106357
-7.51159e-10
-7.42904e-10
0.00106357
-0.00106425
-1.16402e-06
-7.66243e-10
1.3121e-09
0.00106425
-2.21263e-07
1.16554e-06
2.20636e-07
8.3639e-07
-2.01617e-07
-8.36515e-07
2.00302e-07
-0.00106391
-1.15873e-06
-7.59777e-10
1.30145e-09
0.00106391
-2.18538e-07
1.16024e-06
2.17915e-07
8.36218e-07
-2.04205e-07
-8.3639e-07
2.02922e-07
-0.000261729
1.19174e-06
1.15884e-06
-2.08201e-07
-2.13371e-07
0.0002598
7.28129e-10
7.68949e-10
-0.00106357
-7.53116e-10
-7.44925e-10
0.00106357
-0.00106425
-1.16402e-06
-7.75135e-10
1.30959e-09
0.00106425
-2.2126e-07
1.16554e-06
2.20638e-07
8.36392e-07
-2.01613e-07
-8.36512e-07
2.00304e-07
-0.00106391
-1.15872e-06
-7.68145e-10
1.2993e-09
0.00106391
-2.18536e-07
1.16024e-06
2.17917e-07
8.3622e-07
-2.04201e-07
-8.36387e-07
2.02925e-07
-0.000261729
1.19174e-06
1.15883e-06
-2.08198e-07
-2.13368e-07
0.0002598
7.30597e-10
7.69147e-10
-0.00106357
-7.53592e-10
-7.46505e-10
0.00106357
-0.00106425
-1.16402e-06
-7.76178e-10
1.30836e-09
0.00106425
-2.21261e-07
1.16555e-06
2.20638e-07
8.36392e-07
-2.01614e-07
-8.36512e-07
2.00305e-07
-0.00106391
-1.15872e-06
-7.686e-10
1.29877e-09
0.00106391
-2.18536e-07
1.16024e-06
2.17917e-07
8.3622e-07
-2.04202e-07
-8.36387e-07
2.02924e-07
-0.000261729
1.19174e-06
1.15883e-06
-2.08199e-07
-2.13368e-07
0.0002598
7.40622e-10
7.79532e-10
-0.00106357
-7.59791e-10
-7.51649e-10
0.00106357
-0.00106425
-1.16402e-06
-7.82203e-10
1.30451e-09
0.00106425
-2.21259e-07
1.16555e-06
2.20639e-07
8.36393e-07
-2.01612e-07
-8.3651e-07
2.00306e-07
-0.00106391
-1.15872e-06
-7.74658e-10
1.29456e-09
0.00106391
-2.18536e-07
1.16024e-06
2.17918e-07
8.36221e-07
-2.04201e-07
-8.36386e-07
2.02926e-07
-0.000261729
1.19173e-06
1.15883e-06
-2.08197e-07
-2.13366e-07
0.0002598
7.30802e-10
7.82667e-10
-0.00106357
-7.68654e-10
-7.47966e-10
0.00106357
-0.00106425
-1.16402e-06
-7.69846e-10
1.31166e-09
0.00106425
-2.21261e-07
1.16554e-06
2.20638e-07
8.36391e-07
-2.01616e-07
-8.36512e-07
2.00307e-07
-0.00106391
-1.15872e-06
-7.73882e-10
1.2897e-09
0.00106391
-2.18534e-07
1.16024e-06
2.17918e-07
8.36219e-07
-2.04202e-07
-8.36383e-07
2.02924e-07
-0.000261729
1.19173e-06
1.15883e-06
-2.08198e-07
-2.13365e-07
0.0002598
8.44857e-10
9.16205e-10
-0.00106357
-8.50101e-10
-8.06809e-10
0.00106357
-0.00106425
-1.16399e-06
-8.0661e-10
1.29607e-09
0.00106425
-2.21234e-07
1.16555e-06
2.20643e-07
8.36384e-07
-2.01576e-07
-8.36472e-07
2.00302e-07
-0.00106391
-1.15869e-06
-8.99736e-10
1.2396e-09
0.00106391
-2.18493e-07
1.16024e-06
2.17918e-07
8.36225e-07
-2.0414e-07
-8.36328e-07
2.02921e-07
-0.000261729
1.19169e-06
1.15881e-06
-2.08168e-07
-2.13325e-07
0.0002598
1.20385e-06
0.00106391
-1.20221e-06
2.26005e-07
-2.26467e-07
-8.41789e-07
2.03097e-07
-2.04106e-07
8.41925e-07
-1.16561e-06
0.000261773
-0.000259828
2.10008e-07
2.14774e-07
-1.16394e-06
2.17997e-07
-2.18424e-07
2.00396e-07
-2.01389e-07
1.19687e-06
1.16134e-06
-2.05614e-07
-2.10738e-07
0.000259805
-1.19864e-06
-1.16308e-06
0.000261746
-0.000259804
2.0744e-07
2.12592e-07
1.30231e-09
0.00106348
-2.26433e-07
1.1985e-06
2.25938e-07
8.36422e-07
-2.01346e-07
-8.36278e-07
2.00375e-07
-1.20218e-06
-1.13173e-09
-4.21394e-09
0.00106391
-2.26399e-07
1.20386e-06
2.26048e-07
8.41904e-07
-2.03946e-07
-8.41751e-07
2.03217e-07
0.00106348
-1.33094e-09
-0.00106348
8.27765e-10
-1.19674e-06
2.26132e-07
-2.26251e-07
-8.36218e-07
2.00584e-07
-2.01139e-07
8.36457e-07
1.2038e-06
0.00106391
-7.13955e-10
-0.00106391
1.42643e-09
-1.20219e-06
2.25936e-07
-2.26415e-07
-8.41839e-07
2.03086e-07
-2.03937e-07
8.41702e-07
-2.08232e-07
-2.13036e-07
0.000259828
-1.16553e-06
0.000261772
-0.000259827
2.09946e-07
2.14762e-07
1.17541e-09
0.00106451
-2.21132e-07
1.16299e-06
2.20677e-07
8.39178e-07
-2.04089e-07
-8.39006e-07
2.03126e-07
-1.19693e-06
-1.03652e-09
1.23235e-09
0.00106359
-2.26463e-07
1.19856e-06
2.25981e-07
8.39084e-07
-2.04045e-07
-8.38964e-07
2.03063e-07
0.00106451
-1.54913e-09
-0.00106451
9.96776e-10
-1.16126e-06
2.20825e-07
-2.20994e-07
-8.38891e-07
2.03373e-07
-2.0384e-07
8.39263e-07
1.19866e-06
0.00106359
-1.39656e-09
-0.00106359
9.93877e-10
-1.19682e-06
2.26138e-07
-2.26308e-07
-8.38866e-07
2.03293e-07
-2.03814e-07
8.39152e-07
-1.05989e-09
1.25479e-09
0.00106339
-2.21007e-07
1.19326e-06
2.20541e-07
8.36439e-07
-2.01317e-07
2.00345e-07
-8.36315e-07
-1.14207e-09
-0.00106425
1.41774e-09
-1.16393e-06
2.17914e-07
-2.1837e-07
-8.36266e-07
2.00502e-07
8.36458e-07
-2.01145e-07
1.19339e-06
0.00106339
-1.3266e-09
-0.00106339
8.47806e-10
-1.19151e-06
2.20716e-07
-2.20838e-07
-8.36238e-07
2.00563e-07
-2.01102e-07
8.3649e-07
-2.05788e-07
-2.13063e-07
0.000259787
-1.16037e-06
0.000261723
-0.000259786
2.0762e-07
2.14892e-07
-1.06097e-09
1.1589e-09
0.00106442
-2.18458e-07
1.16038e-06
2.18024e-07
8.33959e-07
-2.01402e-07
2.00443e-07
-8.33807e-07
-1.49211e-09
-0.00106391
9.38338e-10
-1.15852e-06
2.18123e-07
-2.18251e-07
-8.36058e-07
2.0328e-07
8.3644e-07
-2.03772e-07
1.16047e-06
0.00106442
-1.50832e-09
-0.00106442
9.82342e-10
-1.15864e-06
2.18167e-07
-2.18318e-07
-8.33698e-07
2.00686e-07
-2.01164e-07
8.34043e-07
-0.000259799
2.09914e-07
2.15116e-07
1.19683e-06
1.16137e-06
-2.05554e-07
-2.10632e-07
0.000259804
-1.19835e-06
-1.16546e-06
0.000261744
-0.000259805
2.09571e-07
2.14746e-07
1.06545e-09
0.00106348
-2.26346e-07
1.19848e-06
2.25937e-07
8.36148e-07
-2.01245e-07
-8.36425e-07
2.00313e-07
-1.20239e-06
3.77625e-11
1.83899e-09
0.00106391
-2.26747e-07
1.20365e-06
2.25646e-07
8.41498e-07
-2.04426e-07
-8.42157e-07
2.02541e-07
0.00106348
-8.13421e-11
-0.00106347
1.65687e-09
-1.19711e-06
2.25734e-07
-2.26775e-07
-8.39242e-07
1.99878e-07
-2.04711e-07
8.36224e-07
1.20373e-06
0.00106391
-2.38581e-10
-0.00106391
1.502e-09
-1.20242e-06
2.25851e-07
-2.26733e-07
-8.42063e-07
2.02761e-07
-2.04601e-07
8.41707e-07
-2.08548e-07
-2.13271e-07
0.000259827
-1.16548e-06
0.000261772
-0.000259828
2.09825e-07
2.14588e-07
1.31927e-09
0.00106451
-2.21109e-07
1.16291e-06
2.20648e-07
8.38959e-07
-2.03941e-07
-8.39087e-07
2.031e-07
-1.19691e-06
-8.31876e-10
1.28289e-09
0.00106359
-2.26415e-07
1.1985e-06
2.25928e-07
8.38855e-07
-2.0391e-07
-8.39058e-07
2.03033e-07
0.0010645
-1.39537e-10
-0.0010645
1.58414e-09
-1.16422e-06
2.2319e-07
-2.24215e-07
-8.39325e-07
2.02624e-07
-2.04781e-07
8.38975e-07
1.19841e-06
0.00106359
-5.5667e-11
-0.00106359
1.61855e-09
-1.19717e-06
2.25769e-07
-2.26807e-07
-8.39287e-07
2.02561e-07
-2.04739e-07
8.38882e-07
-7.45923e-10
1.08108e-09
0.00106339
-2.20934e-07
1.19324e-06
2.20515e-07
8.36193e-07
-2.012e-07
2.00297e-07
-8.36436e-07
-2.7064e-10
-0.00106425
1.43827e-09
-1.16414e-06
2.1784e-07
-2.18684e-07
-8.36608e-07
2.0006e-07
8.36319e-07
-2.01895e-07
1.19312e-06
0.00106339
-5.23177e-11
-0.00106339
1.64131e-09
-1.19188e-06
2.20325e-07
-2.21352e-07
-8.36638e-07
1.99833e-07
-2.02025e-07
8.36241e-07
-2.05706e-07
-2.1298e-07
0.000259786
-1.16013e-06
0.000261723
-0.000259787
2.07235e-07
2.14506e-07
-9.43327e-10
1.28339e-09
0.00106442
-2.18427e-07
1.16031e-06
2.17955e-07
8.33746e-07
-2.01256e-07
2.00423e-07
-8.33887e-07
-1.50728e-10
-0.00106391
1.55879e-09
-1.15887e-06
2.17756e-07
-2.18749e-07
-8.36477e-07
2.02538e-07
8.36169e-07
-2.04706e-07
1.16023e-06
0.00106442
-1.18423e-10
-0.00106442
1.58134e-09
-1.15898e-06
2.17806e-07
-2.18812e-07
-8.34124e-07
1.99937e-07
-2.02103e-07
8.33763e-07
-0.000259799
2.09536e-07
2.14712e-07
1.19707e-06
1.16417e-06
-2.08358e-07
-2.13532e-07
0.000259805
-1.19846e-06
-1.16557e-06
0.000261744
-0.000259805
2.09725e-07
2.14904e-07
1.55195e-09
0.00106348
-2.26684e-07
1.19839e-06
2.25808e-07
8.38877e-07
-2.01827e-07
-8.36561e-07
2.02729e-07
-1.20238e-06
-4.13433e-10
1.44236e-09
0.00106391
-2.26674e-07
1.20377e-06
2.25897e-07
8.41726e-07
-2.0446e-07
-8.4204e-07
2.02859e-07
0.00106348
-6.46694e-10
-0.00106348
1.35423e-09
-1.19698e-06
2.25898e-07
-2.26565e-07
-8.3913e-07
2.02886e-07
-2.04268e-07
8.38942e-07
1.2038e-06
0.00106391
-5.22943e-10
-0.00106391
1.46014e-09
-1.20234e-06
2.25912e-07
-2.2665e-07
-8.42021e-07
2.02907e-07
-2.04401e-07
8.41756e-07
-2.08502e-07
-2.13288e-07
0.000259828
-1.16552e-06
0.000261773
-0.000259828
2.09859e-07
2.14696e-07
1.481e-09
0.0010645
-2.24115e-07
1.1655e-06
2.2327e-07
8.39001e-07
-2.04558e-07
-8.39278e-07
2.02812e-07
-1.19712e-06
-3.07789e-10
1.51995e-09
0.00106359
-2.26712e-07
1.19845e-06
2.25845e-07
8.38913e-07
-2.04511e-07
-8.39231e-07
2.02754e-07
0.0010645
-7.19756e-10
-0.0010645
1.33389e-09
-1.16408e-06
2.23349e-07
-2.24003e-07
-8.39201e-07
2.02974e-07
-2.04325e-07
8.39074e-07
1.19852e-06
0.00106359
-6.46978e-10
-0.00106359
1.37428e-09
-1.19704e-06
2.25923e-07
-2.26603e-07
-8.39165e-07
2.02912e-07
-2.04284e-07
8.38977e-07
-3.12016e-10
1.54781e-09
0.00106339
-2.21259e-07
1.19316e-06
2.20402e-07
8.36269e-07
-2.01793e-07
2.00028e-07
-8.36585e-07
-7.09701e-10
-0.00106425
1.39627e-09
-1.1641e-06
2.17883e-07
-2.18624e-07
-8.36526e-07
2.0028e-07
8.36388e-07
-2.01604e-07
1.19322e-06
0.00106339
-6.535e-10
-0.00106339
1.36739e-09
-1.19175e-06
2.20483e-07
-2.2115e-07
-8.36517e-07
2.00195e-07
-2.01557e-07
8.36335e-07
-2.06008e-07
-2.13287e-07
0.000259787
-1.16023e-06
0.000261724
-0.000259787
2.07383e-07
2.14657e-07
-3.52205e-10
1.47638e-09
0.00106442
-2.18711e-07
1.16027e-06
2.17886e-07
8.33789e-07
-2.01874e-07
2.00128e-07
-8.34073e-07
-7.23677e-10
-0.00106391
1.31666e-09
-1.15874e-06
2.17907e-07
-2.18547e-07
-8.36358e-07
2.02895e-07
8.36262e-07
-2.04242e-07
1.16033e-06
0.00106442
-7.13882e-10
-0.00106442
1.32469e-09
-1.15885e-06
2.17962e-07
-2.18605e-07
-8.34001e-07
2.00299e-07
-2.01636e-07
8.3386e-07
-0.0002598
2.09688e-07
2.14865e-07
1.19697e-06
1.16408e-06
-2.0824e-07
-2.13407e-07
0.000259805
-1.19847e-06
-1.16557e-06
0.000261744
-0.000259805
2.09732e-07
2.14911e-07
1.33546e-09
0.00106348
-2.26557e-07
1.19847e-06
2.25904e-07
8.38947e-07
-2.04254e-07
-8.3912e-07
2.02894e-07
-1.20233e-06
-6.11488e-10
1.41984e-09
0.00106391
-2.26627e-07
1.20381e-06
2.25934e-07
8.41778e-07
-2.04346e-07
-8.4199e-07
2.0295e-07
0.00106348
-7.18987e-10
-0.00106348
1.3503e-09
-1.19697e-06
2.259e-07
-2.26552e-07
-8.39103e-07
2.02897e-07
-2.04242e-07
8.38958e-07
1.20381e-06
0.00106391
-6.95834e-10
-0.00106391
1.36899e-09
-1.20232e-06
2.25979e-07
-2.26602e-07
-8.39331e-07
2.0029e-07
-2.01655e-07
8.39167e-07
-2.0847e-07
-2.13201e-07
0.000259828
-1.16554e-06
0.00026177
-0.000259825
2.12431e-07
2.12204e-07
1.32936e-09
0.0010645
-2.24e-07
1.16557e-06
2.23353e-07
8.39078e-07
-2.04314e-07
-8.39195e-07
2.02982e-07
-1.19703e-06
-6.83487e-10
1.36572e-09
0.00106359
-2.26598e-07
1.19852e-06
2.25928e-07
8.38986e-07
-2.04267e-07
-8.39152e-07
2.02925e-07
0.0010645
-7.77328e-10
-0.0010645
1.31007e-09
-1.16407e-06
2.23356e-07
-2.23991e-07
-8.39182e-07
2.02988e-07
-2.04304e-07
8.39088e-07
1.19853e-06
0.00106359
-7.05893e-10
-0.00106359
1.34978e-09
-1.19703e-06
2.25932e-07
-2.26591e-07
-8.39147e-07
2.02926e-07
-2.04265e-07
8.38991e-07
-6.80879e-10
1.35009e-09
0.00106339
-2.21139e-07
1.19323e-06
2.2049e-07
8.36338e-07
-2.01545e-07
2.00197e-07
-8.36509e-07
-7.70184e-10
-0.00106425
1.32673e-09
-1.16404e-06
2.17903e-07
-2.18549e-07
-8.36514e-07
2.00286e-07
8.36392e-07
-2.01589e-07
1.19323e-06
0.00106339
-7.1156e-10
-0.00106339
1.34474e-09
-1.19174e-06
2.20492e-07
-2.21136e-07
-8.36499e-07
2.00208e-07
-2.01539e-07
8.36349e-07
-2.05895e-07
-2.13169e-07
0.000259787
-1.16023e-06
0.000261724
-0.000259787
2.07393e-07
2.14666e-07
-7.44776e-10
1.32126e-09
0.00106442
-2.18596e-07
1.16034e-06
2.17969e-07
8.33864e-07
-2.01622e-07
2.00301e-07
-8.33992e-07
-7.82991e-10
-0.00106391
1.29416e-09
-1.15873e-06
2.17915e-07
-2.18535e-07
-8.3634e-07
2.02909e-07
8.36277e-07
-2.04225e-07
1.16034e-06
0.00106442
-7.77709e-10
-0.00106442
1.29976e-09
-1.15884e-06
2.17971e-07
-2.18593e-07
-8.33981e-07
2.00314e-07
-2.01615e-07
8.33876e-07
-0.0002598
2.09698e-07
2.14876e-07
1.19697e-06
1.16407e-06
-2.08236e-07
-2.13403e-07
0.000259805
-1.19847e-06
-1.16557e-06
0.000261744
-0.000259805
2.09731e-07
2.14914e-07
1.34753e-09
0.00106348
-2.26555e-07
1.19847e-06
2.259e-07
8.38953e-07
-2.04239e-07
-8.39114e-07
2.029e-07
-1.2023e-06
-6.99722e-10
1.36668e-09
0.00106391
-2.2663e-07
1.20381e-06
2.2598e-07
8.39165e-07
-2.01641e-07
-8.39324e-07
2.00289e-07
0.00106348
-7.19404e-10
-0.00106348
1.34678e-09
-1.19696e-06
2.25904e-07
-2.26552e-07
-8.39104e-07
2.02902e-07
-2.04238e-07
8.38959e-07
1.2038e-06
0.00106391
-7.02191e-10
-0.00106391
1.35805e-09
-1.20229e-06
2.23261e-07
-2.23912e-07
-8.39326e-07
2.00272e-07
-2.01619e-07
8.39168e-07
-2.1091e-07
-2.10692e-07
0.000259825
-1.16555e-06
0.00026177
-0.000259823
2.09923e-07
2.12203e-07
1.31929e-09
0.0010645
-2.23993e-07
1.16557e-06
2.23354e-07
8.39084e-07
-2.04305e-07
-8.39185e-07
2.02988e-07
-1.19703e-06
-7.10278e-10
1.35379e-09
0.00106359
-2.26593e-07
1.19852e-06
2.25932e-07
8.38992e-07
-2.04258e-07
-8.39143e-07
2.02931e-07
0.0010645
-7.84032e-10
-0.0010645
1.31651e-09
-1.16407e-06
2.23356e-07
-2.23991e-07
-8.3918e-07
2.0299e-07
-2.04303e-07
8.39091e-07
1.19853e-06
0.00106359
-7.1217e-10
-0.00106359
1.33745e-09
-1.19702e-06
2.25936e-07
-2.26589e-07
-8.39146e-07
2.02928e-07
-2.04264e-07
8.38993e-07
-7.07308e-10
1.34638e-09
0.00106339
-2.21134e-07
1.19323e-06
2.20494e-07
8.36344e-07
-2.01537e-07
2.00202e-07
-8.36501e-07
-7.76141e-10
-0.00106425
1.33071e-09
-1.16404e-06
2.17903e-07
-2.18548e-07
-8.36511e-07
2.00288e-07
8.36397e-07
-2.01589e-07
1.19324e-06
0.00106339
-7.13551e-10
-0.00106339
1.33368e-09
-1.19174e-06
2.20495e-07
-2.21134e-07
-8.36499e-07
2.0021e-07
-2.01538e-07
8.3635e-07
-2.05888e-07
-2.13163e-07
0.000259787
-1.16024e-06
0.000261724
-0.000259787
2.07394e-07
2.14669e-07
-7.73189e-10
1.30887e-09
0.00106442
-2.18591e-07
1.16034e-06
2.17973e-07
8.33871e-07
-2.01613e-07
2.00308e-07
-8.33982e-07
-7.9386e-10
-0.00106391
1.29316e-09
-1.15873e-06
2.17916e-07
-2.18535e-07
-8.36337e-07
2.02912e-07
8.3628e-07
-2.04222e-07
1.16034e-06
0.00106442
-7.90657e-10
-0.00106442
1.29816e-09
-1.15884e-06
2.17973e-07
-2.18592e-07
-8.33978e-07
2.00318e-07
-2.01613e-07
8.3388e-07
-0.0002598
2.09699e-07
2.14879e-07
1.19696e-06
1.16407e-06
-2.08232e-07
-2.134e-07
0.000259805
-1.19847e-06
-1.16555e-06
0.000261744
-0.000259805
2.09689e-07
2.14923e-07
1.33238e-09
0.00106348
-2.26554e-07
1.19847e-06
2.25909e-07
8.38951e-07
-2.04241e-07
-8.39117e-07
2.02897e-07
-1.20229e-06
-6.74388e-10
1.36278e-09
0.00106391
-2.23918e-07
1.2038e-06
2.23261e-07
8.39163e-07
-2.01619e-07
-8.39332e-07
2.00272e-07
0.00106348
-6.04709e-10
-0.00106348
1.36531e-09
-1.19697e-06
2.25902e-07
-2.26561e-07
-8.39137e-07
2.02851e-07
-2.04275e-07
8.38922e-07
1.2038e-06
0.00106391
-5.90422e-10
-0.00106391
1.3774e-09
-1.2023e-06
2.23249e-07
-2.23937e-07
-8.39362e-07
2.00228e-07
-2.01671e-07
8.39136e-07
-2.08415e-07
-2.10688e-07
0.000259823
-1.16551e-06
0.00026177
-0.000259823
2.09867e-07
2.12205e-07
1.33035e-09
0.0010645
-2.23997e-07
1.16557e-06
2.23356e-07
8.39088e-07
-2.04303e-07
-8.39183e-07
2.02991e-07
-1.19702e-06
-7.11197e-10
1.3358e-09
0.00106359
-2.26589e-07
1.19853e-06
2.25937e-07
8.38993e-07
-2.04258e-07
-8.39143e-07
2.02932e-07
0.0010645
-7.88058e-10
-0.0010645
1.38107e-09
-1.1641e-06
2.23336e-07
-2.24015e-07
-8.39176e-07
2.02995e-07
-2.043e-07
8.39099e-07
1.19854e-06
0.00106359
-7.09462e-10
-0.00106359
1.30218e-09
-1.19702e-06
2.25943e-07
-2.26583e-07
-8.39147e-07
2.02929e-07
-2.04264e-07
8.38993e-07
-7.14128e-10
1.3248e-09
0.00106339
-2.21131e-07
1.19324e-06
2.20498e-07
8.36346e-07
-2.01535e-07
2.00205e-07
-8.365e-07
-7.76961e-10
-0.00106425
1.40996e-09
-1.16407e-06
2.17869e-07
-2.18584e-07
-8.36507e-07
2.00292e-07
8.36406e-07
-2.01589e-07
1.19324e-06
0.00106339
-7.20995e-10
-0.00106339
1.29358e-09
-1.19173e-06
2.20503e-07
-2.21128e-07
-8.36498e-07
2.00212e-07
-2.01536e-07
8.36352e-07
-2.05888e-07
-2.1316e-07
0.000259787
-1.16024e-06
0.000261724
-0.000259787
2.07395e-07
2.14675e-07
-7.93662e-10
1.30144e-09
0.00106442
-2.18589e-07
1.16034e-06
2.17975e-07
8.33876e-07
-2.0161e-07
2.00313e-07
-8.33979e-07
-8.28419e-10
-0.00106391
1.29395e-09
-1.15873e-06
2.17918e-07
-2.18534e-07
-8.36332e-07
2.02918e-07
8.36286e-07
-2.04217e-07
1.16035e-06
0.00106442
-8.21309e-10
-0.00106442
1.28571e-09
-1.15884e-06
2.17976e-07
-2.1859e-07
-8.33975e-07
2.00322e-07
-2.01609e-07
8.33884e-07
-0.0002598
2.09701e-07
2.14884e-07
1.19697e-06
1.16412e-06
-2.08291e-07
-2.13397e-07
0.000259805
-1.19848e-06
-1.16294e-06
0.000261742
-0.000259805
2.09709e-07
2.14881e-07
1.3735e-09
0.00106348
-2.26568e-07
1.19847e-06
2.25902e-07
8.38903e-07
-2.04309e-07
-8.39168e-07
2.02823e-07
-1.20231e-06
-4.98467e-10
1.3995e-09
0.00106391
-2.2396e-07
1.20379e-06
2.23227e-07
8.39115e-07
-2.01692e-07
-8.39386e-07
2.00205e-07
0.00106348
-6.62386e-10
-0.00106348
1.39112e-09
-1.19697e-06
2.25902e-07
-2.26555e-07
-8.39111e-07
2.00218e-07
-2.04234e-07
8.3632e-07
1.20383e-06
0.00106391
-6.16147e-10
-0.00106391
1.31064e-09
-1.20231e-06
2.25985e-07
-2.26604e-07
-8.41992e-07
2.02958e-07
-2.04346e-07
8.41785e-07
-2.08476e-07
-2.10698e-07
0.000259823
-1.16553e-06
0.000261773
-0.000259825
2.09912e-07
2.12219e-07
1.41255e-09
0.0010645
-2.24031e-07
1.16553e-06
2.23323e-07
8.39097e-07
-2.043e-07
-8.39178e-07
2.02997e-07
-1.19702e-06
-7.14417e-10
1.29797e-09
0.00106359
-2.26583e-07
1.19854e-06
2.25944e-07
8.38995e-07
-2.04257e-07
-8.39143e-07
2.02934e-07
0.00106451
-7.42224e-10
-0.00106451
1.39417e-09
-1.1641e-06
2.20637e-07
-2.24017e-07
-8.39172e-07
2.03001e-07
-2.04294e-07
8.39102e-07
1.19854e-06
0.00106359
-7.03996e-10
-0.00106359
1.29455e-09
-1.19702e-06
2.25942e-07
-2.26581e-07
-8.39147e-07
2.02927e-07
-2.04264e-07
8.38992e-07
-7.19187e-10
1.2882e-09
0.00106339
-2.21124e-07
1.19325e-06
2.20506e-07
8.36347e-07
-2.01535e-07
2.00206e-07
-8.365e-07
-8.15329e-10
-0.00106425
1.33484e-09
-1.16406e-06
2.17916e-07
-2.18564e-07
-8.36498e-07
2.00304e-07
8.36406e-07
-2.0157e-07
1.19324e-06
0.00106339
-7.299e-10
-0.00106339
1.31635e-09
-1.19173e-06
2.20501e-07
-2.21128e-07
-8.36498e-07
2.00208e-07
-2.01539e-07
8.36351e-07
-2.05887e-07
-2.13155e-07
0.000259787
-1.16024e-06
0.000261724
-0.000259787
2.07394e-07
2.14674e-07
-8.06302e-10
1.28875e-09
0.00106442
-2.18587e-07
1.16035e-06
2.17978e-07
8.33877e-07
-2.01608e-07
2.00314e-07
-8.33977e-07
-8.4279e-10
-0.00106391
1.29888e-09
-1.15873e-06
2.17916e-07
-2.18535e-07
-8.36329e-07
2.02919e-07
8.36288e-07
-2.04214e-07
1.16034e-06
0.00106442
-7.28152e-10
-0.00106442
1.2666e-09
-1.15884e-06
2.17973e-07
-2.18591e-07
-8.33985e-07
2.00308e-07
-2.0162e-07
8.3387e-07
-0.0002598
2.097e-07
2.14882e-07
1.19698e-06
1.16146e-06
-2.08259e-07
-2.13371e-07
0.000259805
-1.20108e-06
-1.16296e-06
0.000261747
-0.000259805
2.07204e-07
2.14883e-07
1.44448e-09
0.00106348
-2.2388e-07
1.19846e-06
2.23182e-07
8.36294e-07
-2.01564e-07
-8.36485e-07
2.00161e-07
-1.20228e-06
-7.56683e-10
1.20965e-09
0.00106391
-2.26539e-07
1.20386e-06
2.2604e-07
8.41824e-07
-2.04252e-07
-8.41945e-07
2.03029e-07
0.00106348
-6.01531e-10
-0.00106348
1.40822e-09
-1.19698e-06
2.25907e-07
-2.2655e-07
-8.36497e-07
1.97522e-07
-2.01591e-07
8.36301e-07
1.20381e-06
0.00106392
-6.57322e-10
-0.00106392
1.33081e-09
-1.20231e-06
2.25933e-07
-2.26616e-07
-8.4464e-07
2.02951e-07
-2.04325e-07
8.44458e-07
-2.0838e-07
-2.1066e-07
0.000259825
-1.16554e-06
0.00026177
-0.000259825
2.09944e-07
2.14695e-07
1.37963e-09
0.00106451
-2.21319e-07
1.16292e-06
2.20617e-07
8.39089e-07
-2.04301e-07
-8.39181e-07
2.02994e-07
-1.19702e-06
-7.0082e-10
1.31115e-09
0.00106359
-2.26585e-07
1.19853e-06
2.2594e-07
8.38992e-07
-2.04259e-07
-8.39144e-07
2.0293e-07
0.00106452
-1.15689e-08
-0.00106451
1.32799e-09
-1.16145e-06
2.20687e-07
-2.21279e-07
-8.39169e-07
2.03011e-07
-2.04291e-07
8.39107e-07
1.19853e-06
0.00106359
-6.96239e-10
-0.00106359
1.31525e-09
-1.19702e-06
2.25939e-07
-2.26584e-07
-8.39146e-07
2.02926e-07
-2.04264e-07
8.38992e-07
-7.36718e-10
1.33663e-09
0.00106339
-2.21126e-07
1.19324e-06
2.20502e-07
8.36346e-07
-2.01537e-07
2.00203e-07
-8.36499e-07
-7.92406e-10
-0.00106425
1.32075e-09
-1.16403e-06
2.20581e-07
-2.21247e-07
-8.36516e-07
2.00304e-07
8.36394e-07
-2.01621e-07
1.19324e-06
0.00106339
-7.48622e-10
-0.00106339
1.34301e-09
-1.19173e-06
2.20497e-07
-2.21131e-07
-8.36493e-07
2.00215e-07
-2.01532e-07
8.36355e-07
-2.05888e-07
-2.13156e-07
0.000259787
-1.16024e-06
0.000261724
-0.000259787
2.07394e-07
2.14672e-07
-7.0641e-10
1.27229e-09
0.00106442
-2.18588e-07
1.16034e-06
2.17975e-07
8.33862e-07
-2.01621e-07
2.00299e-07
-8.3399e-07
-8.13158e-10
-0.00106391
1.29899e-09
-1.15873e-06
2.17915e-07
-2.18535e-07
-8.36332e-07
2.02916e-07
8.36284e-07
-2.04216e-07
1.16035e-06
0.00106442
-7.71281e-10
-0.00106442
1.27665e-09
-1.15883e-06
2.17978e-07
-2.18587e-07
-8.3398e-07
2.00314e-07
-2.01616e-07
8.33877e-07
-0.0002598
2.09704e-07
2.1488e-07
1.19957e-06
1.16147e-06
-2.05741e-07
-2.13317e-07
0.000259805
-1.20108e-06
-1.16296e-06
0.000261744
-0.000259805
2.07246e-07
2.17366e-07
1.39942e-09
0.00106348
-2.26522e-07
1.20108e-06
2.25892e-07
8.36281e-07
-1.98887e-07
-8.3652e-07
1.97523e-07
-1.2023e-06
-7.40071e-10
1.30256e-09
0.00106392
-2.26608e-07
1.20384e-06
2.25959e-07
8.44499e-07
-2.04279e-07
-8.44622e-07
2.03012e-07
0.00106347
-7.16806e-10
-0.00106347
1.35415e-09
-1.19957e-06
2.2589e-07
-2.26526e-07
-8.39073e-07
1.97544e-07
-1.98882e-07
8.38938e-07
1.20383e-06
0.00106392
-7.06483e-10
-0.00106392
1.33719e-09
-1.2023e-06
2.25954e-07
-2.26596e-07
-8.44635e-07
2.02976e-07
-2.04315e-07
8.4448e-07
-2.08393e-07
-2.10698e-07
0.000259823
-1.16554e-06
0.000261768
-0.000259823
2.09932e-07
2.14707e-07
1.34279e-09
0.00106452
-2.21277e-07
1.16294e-06
2.20663e-07
8.39091e-07
-2.04294e-07
-8.39176e-07
2.02998e-07
-1.19702e-06
-7.01172e-10
1.32551e-09
0.00106359
-2.26587e-07
1.19853e-06
2.25938e-07
8.38994e-07
-2.04258e-07
-8.39142e-07
2.02931e-07
0.00106452
-7.68265e-10
-0.00106452
1.29829e-09
-1.16145e-06
2.20664e-07
-2.21289e-07
-8.39185e-07
2.02988e-07
-2.04303e-07
8.39084e-07
1.19853e-06
0.00106359
-7.13966e-10
-0.00106359
1.3423e-09
-1.19702e-06
2.25935e-07
-2.26587e-07
-8.39144e-07
2.02928e-07
-2.04263e-07
8.38994e-07
-7.38625e-10
1.33446e-09
0.00106339
-2.21128e-07
1.19324e-06
2.20499e-07
8.3635e-07
-2.0153e-07
2.00209e-07
-8.36495e-07
-7.7728e-10
-0.00106425
1.30064e-09
-1.16402e-06
2.20631e-07
-2.21258e-07
-8.36512e-07
2.00307e-07
8.36394e-07
-2.01616e-07
1.19324e-06
0.00106339
-7.30962e-10
-0.00106339
1.33926e-09
-1.19174e-06
2.20495e-07
-2.21134e-07
-8.36495e-07
2.00212e-07
-2.01535e-07
8.36352e-07
-2.05887e-07
-2.13158e-07
0.000259787
-1.16024e-06
0.000261724
-0.000259787
2.07395e-07
2.14669e-07
-7.70366e-10
1.28571e-09
0.00106442
-2.18584e-07
1.16035e-06
2.17978e-07
8.33872e-07
-2.01613e-07
2.00308e-07
-8.33981e-07
-7.9865e-10
-0.00106391
1.29199e-09
-1.15872e-06
2.17917e-07
-2.18534e-07
-8.36335e-07
2.02913e-07
8.36281e-07
-2.0422e-07
1.16035e-06
0.00106442
-7.69526e-10
-0.00106442
1.28335e-09
-1.15883e-06
2.17975e-07
-2.1859e-07
-8.33981e-07
2.00313e-07
-2.01616e-07
8.33876e-07
-0.0002598
2.097e-07
2.14877e-07
1.19957e-06
1.16145e-06
-2.05752e-07
-2.15846e-07
0.000259805
-1.20108e-06
-1.16296e-06
0.000261744
-0.000259805
2.07249e-07
2.17365e-07
1.36082e-09
0.00106347
-2.26541e-07
1.20108e-06
2.25886e-07
8.38936e-07
-1.98895e-07
-8.39081e-07
1.97548e-07
-1.20231e-06
-7.22881e-10
1.34615e-09
0.00106392
-2.26609e-07
1.20382e-06
2.25951e-07
8.44478e-07
-2.04295e-07
-8.44616e-07
2.02971e-07
0.00106347
-7.15188e-10
-0.00106347
1.36078e-09
-1.19957e-06
2.25887e-07
-2.26539e-07
-8.39081e-07
1.97545e-07
-1.98899e-07
8.3894e-07
1.20382e-06
0.00106392
-7.16046e-10
-0.00106392
1.35592e-09
-1.20231e-06
2.25951e-07
-2.26606e-07
-8.44623e-07
2.0297e-07
-2.04307e-07
8.44477e-07
-2.08405e-07
-2.13194e-07
0.000259823
-1.16554e-06
0.000261768
-0.000259823
2.09928e-07
2.14704e-07
1.30591e-09
0.00106452
-2.21294e-07
1.16296e-06
2.20666e-07
8.39083e-07
-2.04306e-07
-8.39187e-07
2.02988e-07
-1.19702e-06
-7.15281e-10
1.3521e-09
0.00106359
-2.26591e-07
1.19853e-06
2.25933e-07
8.38994e-07
-2.04256e-07
-8.39141e-07
2.02932e-07
0.00106452
-7.82503e-10
-0.00106452
1.29157e-09
-1.16145e-06
2.2067e-07