/*--------------------------------*- C++ -*----------------------------------*\
| =========                 |                                                 |
| \\      /  F ield         | OpenFOAM: The Open Source CFD Toolbox           |
|  \\    /   O peration     | Version:  2206                                  |
|   \\  /    A nd           | Website:  www.openfoam.com                      |
|    \\/     M anipulation  |                                                 |
\*---------------------------------------------------------------------------*/
FoamFile
{
    version     2.0;
    format      ascii;
    arch        "LSB;label=32;scalar=64";
    class       volScalarField;
    location    "23";
    object      nut;
}
// * * * * * * * * * * * * * * * * * * * * * * * * * * * * * * * * * * * * * //

dimensions      [0 2 -1 0 0 0 0];

internalField   nonuniform List<scalar> 
28688
(
0.000233971
0.000233115
0.000233116
0.000233427
0.000232519
0.000227784
0.000227783
0.000223871
0.0002305
0.000220307
0.000220305
0.000209158
0.000227957
0.000211962
0.000211958
0.000193955
0.000224024
0.000201942
0.000201937
0.000179392
0.000223262
0.000200862
0.000200855
0.000176429
0.000223843
0.000202637
0.000202631
0.000179422
0.000223951
0.00020291
0.000202903
0.000179839
0.000223955
0.000202923
0.000202917
0.000179852
0.000223955
0.000202927
0.000202922
0.00017986
0.000223955
0.000202929
0.000202923
0.000179858
0.000223955
0.00020293
0.000202924
0.000179858
0.000234263
0.000234448
0.000234449
0.000234263
0.000234449
0.000234449
0.000234274
0.000234274
0.000234274
0.000234274
0.000234448
0.000234448
0.000234263
0.000234448
0.000234449
0.000234263
0.000233427
0.000226193
0.000233115
0.000233113
0.000229364
0.000229359
0.000233427
0.000226194
0.000233113
0.000233113
0.000229362
0.000229358
0.000233115
0.000229367
0.000229363
0.000233427
0.000226191
0.000233113
0.000229366
0.000229361
0.000226191
0.000223872
0.00021223
0.000227781
0.000227776
0.00022238
0.000222375
0.000223872
0.000212234
0.000227779
0.000227774
0.00022238
0.000222372
0.00022778
0.000222387
0.000222379
0.00022387
0.000212227
0.000227779
0.000222384
0.000222379
0.000212228
0.00020916
0.000197012
0.0002203
0.000220294
0.00021398
0.000213974
0.000209161
0.000197017
0.0002203
0.000220291
0.000213984
0.00021397
0.000220298
0.000213991
0.000213977
0.000209157
0.000197008
0.0002203
0.000213987
0.000213983
0.000197009
0.000193959
0.00018231
0.00021195
0.000211945
0.000204209
0.000204204
0.000193962
0.000182317
0.000211955
0.00021194
0.000204218
0.000204199
0.000211948
0.000204225
0.000204207
0.000193955
0.000182306
0.000211954
0.000204219
0.000204216
0.000182306
0.000179396
0.000176459
0.000201925
0.00020192
0.000200251
0.000200244
0.000179401
0.000176465
0.000201934
0.000201914
0.000200259
0.000200238
0.000201923
0.000200265
0.000200247
0.000179392
0.000176454
0.000201933
0.000200259
0.000200259
0.000176453
0.000176435
0.000179495
0.000200847
0.00020084
0.000202372
0.000202368
0.000176439
0.0001795
0.000200855
0.000200834
0.000202382
0.00020236
0.000200843
0.000202387
0.000202369
0.000176429
0.000179489
0.000200856
0.00020238
0.000202382
0.00017949
0.000179425
0.00017999
0.000202625
0.000202621
0.00020288
0.000202876
0.000179429
0.000179994
0.000202635
0.000202614
0.00020289
0.000202868
0.000202622
0.000202894
0.000202878
0.00017942
0.000179983
0.000202636
0.000202888
0.000202891
0.000179989
0.000179842
0.000180014
0.000202896
0.000202892
0.000202907
0.000202904
0.000179845
0.000180018
0.000202907
0.000202884
0.000202918
0.000202896
0.000202894
0.000202922
0.000202906
0.000179835
0.000180007
0.000202908
0.000202916
0.00020292
0.000180012
0.000179856
0.000180022
0.000202908
0.000202905
0.000202912
0.00020291
0.000179858
0.000180024
0.000202919
0.000202897
0.000202924
0.000202902
0.000202907
0.000202927
0.000202911
0.000179849
0.000180014
0.000202921
0.000202921
0.000202925
0.00018002
0.000179865
0.00018002
0.000202913
0.000202911
0.000202914
0.000202913
0.000179866
0.000180022
0.000202926
0.000202904
0.000202927
0.000202905
0.000202913
0.000202929
0.000202914
0.000179857
0.000180012
0.000202927
0.000202923
0.000202928
0.000180017
0.000179862
0.000180021
0.000202916
0.000202914
0.000202915
0.000202912
0.000179864
0.000180023
0.000202928
0.000202906
0.000202927
0.000202905
0.000202915
0.00020293
0.000202914
0.000179855
0.000180013
0.000202929
0.000202924
0.000202928
0.000180017
0.000179863
0.000180025
0.000202915
0.000202912
0.000202916
0.000179865
0.000202927
0.000202905
0.000202928
0.000202906
0.000202914
0.000202915
0.000179856
0.000180016
0.000202928
0.000202925
0.000202929
0.000180021
0.000234729
0.000234746
0.000234729
0.000234729
0.000235116
0.000234798
0.000234701
0.000234727
0.000235116
0.000234798
0.000234727
0.000234701
0.000234863
0.000233566
0.000233566
0.000104544
3.87462e-05
0.000129255
3.98194e-05
2.16835e-05
2.2827e-05
0.000104533
3.87422e-05
0.000129253
3.98159e-05
0.000233971
0.000233971
0.000233971
0.000232934
0.000232934
0.000232934
0.000232934
0.000206109
9.36448e-05
0.000233968
0.000231992
0.000222693
8.7266e-05
0.00023361
2.16824e-05
2.28261e-05
0.0002061
0.000233968
9.36456e-05
0.000231992
0.000222702
0.000233609
8.72705e-05
4.7795e-05
4.77827e-05
0.000231341
4.4052e-05
4.40427e-05
7.24362e-05
4.24375e-05
8.14801e-05
4.37613e-05
2.47782e-05
2.54606e-05
7.2421e-05
4.2434e-05
8.14801e-05
4.37575e-05
0.000232519
0.000232519
0.000232519
0.00023111
0.00023111
0.000231109
0.000231109
0.00016741
7.93704e-05
0.000232073
0.000226085
0.000180252
7.4613e-05
0.000231365
2.47766e-05
2.54589e-05
0.000167401
0.000232073
7.93641e-05
0.000226083
0.000180252
0.000231364
7.46168e-05
3.91384e-05
3.9128e-05
0.000219574
3.66168e-05
3.66065e-05
5.63902e-05
4.55577e-05
6.10669e-05
4.64e-05
2.6016e-05
2.61188e-05
5.63844e-05
4.55551e-05
6.10725e-05
4.6397e-05
0.0002305
0.000230499
0.000230499
0.000228612
0.000228612
0.000228611
0.000228611
0.000138627
6.74253e-05
0.000228649
0.000218124
0.000148019
6.35122e-05
0.000227486
2.60139e-05
2.61166e-05
0.000138624
0.000228648
6.74142e-05
0.000218121
0.000148011
0.000227484
6.35166e-05
3.32421e-05
3.32332e-05
0.000204515
3.19849e-05
3.19759e-05
4.73247e-05
4.74988e-05
4.97394e-05
4.79967e-05
2.60494e-05
2.59424e-05
4.73296e-05
4.74955e-05
4.97353e-05
4.79937e-05
0.000227957
0.000227956
0.000227957
0.000224966
0.000224967
0.000224964
0.000224965
0.000117955
5.81358e-05
0.000223896
0.000209654
0.000124403
5.56619e-05
0.000222497
2.60472e-05
2.59401e-05
0.000117952
0.000223894
5.81333e-05
0.000209649
0.000124397
0.000222494
5.56549e-05
3.06829e-05
3.06749e-05
0.000189823
3.02694e-05
3.02612e-05
4.24058e-05
4.85725e-05
4.31826e-05
4.87532e-05
2.56754e-05
2.55981e-05
4.24007e-05
4.85692e-05
4.31778e-05
4.87499e-05
0.000224025
0.000224022
0.000224023
0.00022311
0.00022311
0.000223107
0.000223109
0.000103703
5.17873e-05
0.000217208
0.000200539
0.000106934
5.136e-05
0.000216024
2.5673e-05
2.55958e-05
0.0001037
0.000217205
5.1778e-05
0.000200532
0.000106927
0.000216021
5.1361e-05
3.02993e-05
3.02922e-05
0.000176718
3.10352e-05
3.10279e-05
4.51295e-05
4.90938e-05
4.4461e-05
4.92082e-05
2.56059e-05
2.56219e-05
4.51357e-05
4.90906e-05
4.44609e-05
4.92048e-05
0.000223262
0.000223259
0.00022326
0.000223758
0.000223758
0.000223755
0.000223756
0.000106712
5.30708e-05
0.000215517
0.000201535
0.000105491
5.45886e-05
0.00021577
2.56035e-05
2.56193e-05
0.000106714
0.000215515
5.30692e-05
0.000201528
0.00010549
0.000215768
5.45876e-05
3.36124e-05
3.36058e-05
0.000178215
3.46879e-05
3.46815e-05
4.55308e-05
4.9259e-05
4.54996e-05
4.92599e-05
2.56307e-05
2.5631e-05
4.55378e-05
4.92558e-05
4.55052e-05
4.92567e-05
0.000223845
0.000223842
0.000223844
0.000223944
0.000223944
0.000223941
0.000223943
0.00010764
5.54653e-05
0.000216287
0.000202781
0.000107507
5.55666e-05
0.000216358
2.5628e-05
2.56283e-05
0.000107643
0.000216286
5.54654e-05
0.000202775
0.000107509
0.000216356
5.55699e-05
3.52344e-05
3.52285e-05
0.000179877
3.5295e-05
3.52889e-05
4.55426e-05
4.92609e-05
4.5532e-05
4.92601e-05
2.56313e-05
2.56311e-05
4.5549e-05
4.92576e-05
4.5539e-05
4.92568e-05
0.000223951
0.000223948
0.00022395
0.000223954
0.000223954
0.000223951
0.000223953
0.000107693
5.55688e-05
0.000216424
0.000202918
0.000107659
5.55889e-05
0.000216426
2.56286e-05
2.56284e-05
0.000107696
0.000216422
5.5572e-05
0.000202911
0.000107662
0.000216425
5.55915e-05
3.53031e-05
3.52972e-05
0.000180016
3.53065e-05
3.53005e-05
4.55451e-05
4.92608e-05
4.55368e-05
4.92601e-05
2.56313e-05
2.56312e-05
4.55519e-05
4.92575e-05
4.55442e-05
4.92567e-05
0.000223955
0.000223952
0.000223954
0.000223955
0.000223955
0.000223953
0.000223954
0.000107702
5.55763e-05
0.000216429
0.000202925
0.000107673
5.55928e-05
0.00021643
2.56286e-05
2.56284e-05
0.000107705
0.000216428
5.55796e-05
0.000202919
0.000107676
0.000216429
5.55955e-05
3.53048e-05
3.52989e-05
0.000180013
3.53076e-05
3.53017e-05
4.55454e-05
4.92609e-05
4.55375e-05
4.92599e-05
2.56313e-05
2.56312e-05
4.55523e-05
4.92576e-05
4.55451e-05
4.92567e-05
0.000223956
0.000223953
0.000223955
0.000223955
0.000223956
0.000223953
0.000223955
0.000107704
5.55773e-05
0.000216431
0.000202928
0.000107677
5.55932e-05
0.000216431
2.56286e-05
2.56284e-05
0.000107707
0.00021643
5.55808e-05
0.000202922
0.000107681
0.00021643
5.55959e-05
3.53052e-05
3.52993e-05
0.000180018
3.53078e-05
3.53019e-05
4.55454e-05
4.92609e-05
4.55376e-05
4.92602e-05
2.56313e-05
2.56312e-05
4.55523e-05
4.92574e-05
4.55451e-05
4.92566e-05
0.000223956
0.000223953
0.000223955
0.000223955
0.000223956
0.000223953
0.000223955
0.000107701
5.55774e-05
0.000216432
0.00020293
0.000107676
5.55932e-05
0.000216432
2.56286e-05
2.56284e-05
0.000107706
0.00021643
5.55808e-05
0.000202924
0.000107679
0.00021643
5.55959e-05
3.53052e-05
3.52993e-05
0.000180019
3.53078e-05
3.53019e-05
4.55454e-05
4.9261e-05
4.55376e-05
4.92603e-05
2.56313e-05
2.56312e-05
4.55523e-05
4.92573e-05
4.55451e-05
4.92565e-05
0.000223956
0.000223953
0.000223955
0.000223956
0.000223958
0.000223954
0.000223955
0.000107703
5.55774e-05
0.000216431
0.00020293
0.000107676
5.55932e-05
0.000216432
2.56286e-05
2.56284e-05
0.000107707
0.00021643
5.55808e-05
0.000202924
0.000107679
0.00021643
5.55959e-05
3.53052e-05
3.52993e-05
0.000180018
3.53078e-05
3.53019e-05
0.000234863
0.000233564
0.000233566
2.32575e-05
0.000214159
2.32564e-05
0.000214162
0.000234439
5.13508e-05
5.13323e-05
0.00022999
0.000229991
0.000235116
0.000234797
0.000234701
0.000234727
0.000235116
0.000234797
0.000234701
0.000234727
0.000234477
4.02626e-05
0.000218814
0.000147709
0.000234477
4.0262e-05
0.000218814
0.000147717
0.000233892
0.000234475
0.000100138
0.000234271
0.000233359
0.000234597
0.000228468
0.000233892
0.000234475
0.000100127
0.000234271
0.000233359
0.000234597
0.000228467
0.000234864
0.000233565
0.000233566
2.32572e-05
0.000214167
0.000234439
5.13427e-05
5.13378e-05
0.000229989
0.000229991
2.32571e-05
0.000214169
0.000235116
0.000234798
0.000234701
0.000234727
0.000235116
0.000234797
0.000234727
0.000234701
0.000234477
4.02594e-05
0.000218815
0.000147685
0.000233892
0.000234475
0.000100115
0.000234271
0.000233359
0.000234597
0.000228464
0.000234477
4.02589e-05
0.000218816
0.0001477
0.000233892
0.000234475
0.000234271
0.000100124
0.000234597
0.000233359
0.000228467
0.000234729
0.000234746
0.000234729
0.000234729
0.000234729
0.000234746
0.000234729
0.000234729
0.000234729
0.000234746
0.000234729
0.000234729
0.000234591
0.000234574
0.000234252
0.000234252
0.000234592
0.000234592
0.000234252
0.000234591
0.000234574
0.000234252
0.000234252
0.000234592
0.000234592
0.000234252
0.000234591
0.000234574
0.000234252
0.000234252
0.000234592
0.000234592
0.000234252
0.000234591
0.000234574
0.000234252
0.000234252
0.000234592
0.000234592
0.000234252
0.000235116
0.000234797
0.000234727
0.000234701
0.000233892
0.000234475
0.000100119
0.00023427
0.000233359
0.000234597
0.000228465
0.000234477
4.02601e-05
0.000218818
0.000147701
0.000233892
0.000234475
0.000234271
0.000100132
0.000234597
0.000233359
0.000228467
0.000234477
4.02596e-05
0.000218816
0.000147709
0.000234864
0.000233566
0.000233566
2.32564e-05
0.000214163
0.000234439
5.13363e-05
5.13398e-05
0.000229991
0.000229993
2.32568e-05
0.000214171
0.000235116
0.000234798
0.000234727
0.000234701
0.000233891
0.000234475
0.00023427
0.000100127
0.000234597
0.00023336
0.000228466
0.000233892
0.000234475
0.000234271
0.000100117
0.000234597
0.000233359
0.000228464
0.000234477
4.02592e-05
0.000218818
0.000147686
0.000234477
4.0259e-05
0.000218814
0.000147673
0.000234439
5.13429e-05
5.13307e-05
0.000229992
0.000229992
2.32569e-05
0.00021417
2.32564e-05
0.000214164
2.16838e-05
2.2828e-05
2.16826e-05
2.28265e-05
4.77956e-05
4.77842e-05
0.000231342
4.40578e-05
4.40421e-05
2.4477e-05
2.33088e-05
2.44753e-05
2.33076e-05
0.000229673
4.012e-05
4.01053e-05
4.30967e-05
4.30838e-05
0.000104558
3.87452e-05
0.000129241
3.98175e-05
0.000206114
9.36552e-05
0.000233968
0.000231991
0.000222688
8.72736e-05
0.00023361
0.000206116
9.36395e-05
0.000233968
0.000231987
0.000222684
8.72596e-05
0.000233609
9.85632e-05
4.1958e-05
4.03812e-05
8.54411e-05
9.8557e-05
4.19564e-05
4.03801e-05
8.54423e-05
0.000200182
0.000230765
8.08971e-05
0.000232687
8.56441e-05
0.000233193
0.00018553
0.000200182
0.000230761
8.08892e-05
0.000232686
8.56279e-05
0.000233193
0.000185532
4.77873e-05
4.77926e-05
0.000231342
4.40471e-05
4.40513e-05
2.16835e-05
2.2828e-05
2.4476e-05
2.33081e-05
0.000229673
4.01106e-05
4.01116e-05
4.30863e-05
4.30931e-05
2.44771e-05
2.3309e-05
0.000206102
9.36341e-05
0.000233968
0.000231989
0.000222688
8.72535e-05
0.00023361
0.000104536
3.87419e-05
0.000129272
3.98152e-05
0.000206103
0.000233968
9.36374e-05
0.000231987
0.000222692
0.000233609
8.72537e-05
9.85636e-05
4.19542e-05
4.03777e-05
8.54312e-05
0.000200184
0.000230762
8.08827e-05
0.000232686
8.56282e-05
0.000233193
0.000185523
9.85642e-05
4.19532e-05
4.03771e-05
8.543e-05
0.000200183
0.00023076
0.000232686
8.08787e-05
0.000233192
8.5626e-05
0.000185519
0.000104544
3.87428e-05
0.000129261
3.98181e-05
0.000206109
0.000233968
9.36472e-05
0.000231991
0.000222698
0.00023361
8.72677e-05
0.000104542
3.87432e-05
0.00012928
3.98165e-05
0.000200185
0.000230767
8.08928e-05
0.000232687
8.56423e-05
0.000233193
0.000185529
9.85627e-05
4.19564e-05
4.03788e-05
8.54362e-05
0.000200185
0.000230764
0.000232687
8.08971e-05
0.000233193
8.56397e-05
0.000185528
9.8568e-05
4.19553e-05
4.03791e-05
8.54374e-05
4.77837e-05
4.77926e-05
0.000231341
4.40418e-05
4.40575e-05
2.16829e-05
2.28271e-05
2.44747e-05
2.33068e-05
0.000229673
4.01045e-05
4.01181e-05
4.30844e-05
4.30927e-05
2.4476e-05
2.33081e-05
0.000206098
0.000233968
9.36337e-05
0.000231988
0.000222698
0.00023361
8.72564e-05
0.00010452
3.87423e-05
0.00012929
3.98167e-05
0.000104516
3.87417e-05
0.000129276
3.98156e-05
0.000200186
0.000230766
0.000232686
8.08969e-05
0.000233193
8.56358e-05
0.000185519
0.000200187
0.000230762
0.000232686
8.0888e-05
0.000233193
8.56272e-05
0.000185519
9.85799e-05
4.19549e-05
4.03787e-05
8.54286e-05
9.85793e-05
4.19543e-05
4.03773e-05
8.54282e-05
2.16833e-05
2.28271e-05
2.16824e-05
2.28265e-05
0.000229673
4.01185e-05
4.01065e-05
4.30974e-05
4.30829e-05
2.44762e-05
2.33084e-05
2.44753e-05
2.33077e-05
2.47789e-05
2.54617e-05
2.47772e-05
2.54599e-05
3.91424e-05
3.91284e-05
0.000219576
3.66238e-05
3.66063e-05
2.59533e-05
2.5621e-05
2.59518e-05
2.56192e-05
0.000216789
3.3867e-05
3.38446e-05
3.57326e-05
3.57221e-05
7.24382e-05
4.24363e-05
8.14829e-05
4.37601e-05
0.00016741
7.93717e-05
0.000232073
0.00022608
0.000180249
7.46145e-05
0.000231364
0.000167412
7.93552e-05
0.000232072
0.000226075
0.000180252
7.46104e-05
0.000231364
6.95811e-05
4.52335e-05
4.41572e-05
6.32878e-05
6.95842e-05
4.52331e-05
4.41558e-05
6.32904e-05
0.000162805
0.000224288
6.87903e-05
0.000229684
7.30945e-05
0.000230576
0.000152028
0.000162809
0.000224283
6.87906e-05
0.000229683
7.30755e-05
0.000230576
0.000152032
3.91313e-05
3.91412e-05
0.000219578
3.66115e-05
3.66236e-05
2.47791e-05
2.54617e-05
2.59528e-05
2.56201e-05
0.00021679
3.38493e-05
3.38665e-05
3.57253e-05
3.57244e-05
2.59536e-05
2.5621e-05
0.000167404
7.93539e-05
0.000232073
0.000226079
0.000180249
7.46054e-05
0.000231364
7.24196e-05
4.2433e-05
8.14791e-05
4.37565e-05
0.000167402
0.000232072
7.93556e-05
0.000226073
0.000180247
0.000231363
7.45968e-05
6.95903e-05
4.52305e-05
4.41539e-05
6.32781e-05
0.0001628
0.000224287
6.8784e-05
0.000229683
7.30767e-05
0.000230576
0.000152026
6.95895e-05
4.52291e-05
4.4152e-05
6.32761e-05
0.000162797
0.00022428
0.000229682
6.8777e-05
0.000230575
7.30759e-05
0.00015202
7.24308e-05
4.24358e-05
8.14835e-05
4.37598e-05
0.000167407
0.000232072
7.93639e-05
0.000226079
0.00018025
0.000231364
7.46166e-05
7.24339e-05
4.24352e-05
8.14776e-05
4.37584e-05
0.000162808
0.000224293
6.87915e-05
0.000229685
7.30915e-05
0.000230577
0.00015203
6.95865e-05
4.52328e-05
4.41554e-05
6.32876e-05
0.000162805
0.000224287
0.000229684
6.87957e-05
0.000230576
7.30812e-05
0.000152027
6.95844e-05
4.52313e-05
4.41542e-05
6.32858e-05
3.913e-05
3.91412e-05
0.000219574
3.6614e-05
3.66185e-05
2.47784e-05
2.54603e-05
2.59507e-05
2.56181e-05
0.000216786
3.38564e-05
3.38569e-05
3.57149e-05
3.57307e-05
2.59524e-05
2.56198e-05
0.000167405
0.000232072
7.93539e-05
0.000226078
0.000180254
0.000231364
7.46083e-05
7.24195e-05
4.24348e-05
8.14801e-05
4.37586e-05
7.24255e-05
4.24336e-05
8.14816e-05
4.37574e-05
0.0001628
0.000224292
0.000229683
6.87955e-05
0.000230576
7.30829e-05
0.000152021
0.000162802
0.000224287
0.000229683
6.87882e-05
0.000230576
7.30732e-05
0.000152024
6.95906e-05
4.52315e-05
4.41542e-05
6.32765e-05
6.95913e-05
4.52302e-05
4.41529e-05
6.32774e-05
2.47783e-05
2.54601e-05
2.47775e-05
2.54594e-05
0.000216787
3.38548e-05
3.38451e-05
3.57297e-05
3.57206e-05
2.59523e-05
2.56196e-05
2.59515e-05
2.56189e-05
2.60166e-05
2.61194e-05
2.60149e-05
2.61177e-05
3.3244e-05
3.3235e-05
0.000204517
3.19913e-05
3.19761e-05
2.60783e-05
2.61205e-05
2.60764e-05
2.61186e-05
0.00020138
3.08615e-05
3.08517e-05
3.15856e-05
3.15814e-05
5.63925e-05
4.5557e-05
6.1069e-05
4.63998e-05
0.000138625
6.74246e-05
0.000228648
0.000218115
0.000148017
6.35117e-05
0.000227485
0.000138628
6.74093e-05
0.000228647
0.00021811
0.00014802
6.35131e-05
0.000227484
5.49394e-05
4.73162e-05
4.66566e-05
5.07886e-05
5.49412e-05
4.73162e-05
4.66559e-05
5.07906e-05
0.000135593
0.000215989
5.91178e-05
0.000225096
6.24264e-05
0.000226277
0.000127039
0.000135595
0.000215984
5.91136e-05
0.000225095
6.24142e-05
0.000226276
0.000127042
3.32371e-05
3.32434e-05
0.000204522
3.19797e-05
3.19881e-05
2.60168e-05
2.61196e-05
2.60775e-05
2.61198e-05
0.000201382
3.08538e-05
3.08607e-05
3.15834e-05
3.15816e-05
2.60784e-05
2.61207e-05
0.000138624
6.74115e-05
0.000228647
0.000218117
0.000148012
6.35067e-05
0.000227483
5.63832e-05
4.5553e-05
6.10711e-05
4.63956e-05
0.000138622
0.000228645
6.74104e-05
0.000218106
0.00014801
0.000227482
6.34985e-05
5.49415e-05
4.73131e-05
4.66537e-05
5.07847e-05
0.000135591
0.000215992
5.91109e-05
0.000225094
6.24119e-05
0.000226277
0.000127032
5.49405e-05
4.73118e-05
4.66516e-05
5.07835e-05
0.000135589
0.00021598
0.000225093
5.91045e-05
0.000226275
6.24132e-05
0.000127029
5.63901e-05
4.55566e-05
6.10665e-05
4.63994e-05
0.000138624
0.000228647
6.74141e-05
0.000218113
0.000148016
0.000227484
6.35175e-05
5.63887e-05
4.55551e-05
6.10648e-05
4.63978e-05
0.000135595
0.000215999
5.91171e-05
0.000225097
6.24265e-05
0.000226278
0.00012704
5.49389e-05
4.73159e-05
4.66556e-05
5.07885e-05
0.000135593
0.000215987
0.000225095
5.91171e-05
0.000226276
6.24184e-05
0.000127037
5.49377e-05
4.7314e-05
4.66538e-05
5.07873e-05
3.32329e-05
3.32437e-05
0.000204514
3.19795e-05
3.19854e-05
2.60157e-05
2.61184e-05
2.60752e-05
2.61176e-05
0.000201376
3.08522e-05
3.08601e-05
3.15739e-05
3.15894e-05
2.60771e-05
2.61194e-05
0.000138626
0.000228647
6.74065e-05
0.000218116
0.000148012
0.000227483
6.35108e-05
5.63838e-05
4.5555e-05
6.10715e-05
4.63975e-05
5.63846e-05
4.5554e-05
6.10725e-05
4.63968e-05
0.000135591
0.000215996
0.000225095
5.91169e-05
0.000226277
6.24182e-05
0.000127031
0.000135592
0.000215991
0.000225095
5.91109e-05
0.000226276
6.24115e-05
0.000127034
5.49408e-05
4.73137e-05
4.66535e-05
5.07839e-05
5.49417e-05
4.73131e-05
4.66529e-05
5.07848e-05
2.60155e-05
2.61183e-05
2.60147e-05
2.61174e-05
0.000201377
3.08591e-05
3.08509e-05
3.15885e-05
3.15798e-05
2.60769e-05
2.61192e-05
2.6076e-05
2.61184e-05
2.60503e-05
2.59434e-05
2.60481e-05
2.59412e-05
3.0678e-05
3.06769e-05
0.000189825
3.0272e-05
3.02612e-05
2.57242e-05
2.58928e-05
2.57217e-05
2.58903e-05
0.000186828
3.01743e-05
3.01656e-05
3.01148e-05
3.01053e-05
4.73261e-05
4.74981e-05
4.97409e-05
4.79968e-05
0.000117953
5.81348e-05
0.000223894
0.000209641
0.000124402
5.5662e-05
0.000222495
0.000117956
5.81294e-05
0.000223893
0.000209636
0.000124404
5.56527e-05
0.000222494
4.62504e-05
4.84929e-05
4.81444e-05
4.3818e-05
4.62519e-05
4.84928e-05
4.81438e-05
4.38192e-05
0.000115662
0.000206964
5.24522e-05
0.000218902
5.47596e-05
0.000220784
0.000109092
0.000115664
0.000206958
5.24441e-05
0.000218901
5.47501e-05
0.000220783
0.000109095
3.06778e-05
3.06743e-05
0.000189831
3.0264e-05
3.02709e-05
2.60503e-05
2.59433e-05
2.57229e-05
2.58917e-05
0.000186832
3.0167e-05
3.01748e-05
3.01065e-05
3.01125e-05
2.57238e-05
2.58926e-05
0.000117951
5.81263e-05
0.000223894
0.000209647
0.000124397
5.56505e-05
0.000222494
4.73285e-05
4.74937e-05
4.97346e-05
4.7992e-05
0.000117949
0.000223891
5.81232e-05
0.00020963
0.000124395
0.000222492
5.56508e-05
4.62416e-05
4.84899e-05
4.8141e-05
4.38166e-05
0.000115657
0.00020697
5.24409e-05
0.0002189
5.47484e-05
0.000220783
0.000109087
4.62408e-05
4.84878e-05
4.81391e-05
4.38156e-05
0.000115655
0.000206953
0.000218898
5.24418e-05
0.00022078
5.47427e-05
0.000109085
4.73242e-05
4.74978e-05
4.97389e-05
4.79964e-05
0.000117952
0.000223894
5.81329e-05
0.000209639
0.000124401
0.000222495
5.56558e-05
4.73232e-05
4.74958e-05
4.97379e-05
4.79944e-05
0.000115662
0.000206978
5.24522e-05
0.000218904
5.47543e-05
0.000220786
0.000109093
4.62501e-05
4.84925e-05
4.81435e-05
4.38176e-05
0.000115661
0.000206961
0.000218901
5.24466e-05
0.000220783
5.47532e-05
0.000109091
4.62491e-05
4.84903e-05
4.81413e-05
4.38167e-05
3.06672e-05
3.06842e-05
0.000189821
3.02636e-05
3.02699e-05
2.60491e-05
2.5942e-05
2.57206e-05
2.58893e-05
0.000186824
3.01668e-05
3.01732e-05
3.01041e-05
3.01125e-05
2.57225e-05
2.58913e-05
0.000117953
0.000223893
5.81266e-05
0.000209646
0.000124398
0.000222494
5.56506e-05
4.73289e-05
4.74956e-05
4.97348e-05
4.79941e-05
4.73296e-05
4.7495e-05
4.97356e-05
4.79936e-05
0.000115656
0.000206973
0.000218901
5.24461e-05
0.000220784
5.47532e-05
0.000109087
0.000115658
0.000206969
0.000218901
5.24417e-05
0.000220783
5.47474e-05
0.000109089
4.62408e-05
4.849e-05
4.81411e-05
4.38158e-05
4.62416e-05
4.84896e-05
4.81406e-05
4.38166e-05
2.60489e-05
2.59419e-05
2.6048e-05
2.59409e-05
0.000186825
3.01723e-05
3.01651e-05
3.01117e-05
3.01042e-05
2.57224e-05
2.58911e-05
2.57214e-05
2.58901e-05
2.56766e-05
2.55993e-05
2.5674e-05
2.55968e-05
3.03009e-05
3.0293e-05
0.000176722
3.1036e-05
3.1028e-05
2.55976e-05
2.55938e-05
2.55951e-05
2.55913e-05
0.000175332
3.31263e-05
3.31174e-05
3.13046e-05
3.12967e-05
4.24064e-05
4.8572e-05
4.31838e-05
4.8753e-05
0.000103704
5.1783e-05
0.000217206
0.000200522
0.000106933
5.13635e-05
0.000216022
0.000103705
5.17754e-05
0.000217204
0.000200516
0.000106935
5.13586e-05
0.00021602
4.26871e-05
4.90314e-05
4.88213e-05
4.41965e-05
4.26877e-05
4.90313e-05
4.8821e-05
4.4197e-05
0.000103444
0.00020004
5.22587e-05
0.000215347
5.15013e-05
0.000215445
0.000105097
0.000103445
0.000200033
5.22547e-05
0.000215345
5.14968e-05
0.000215443
0.000105097
3.02938e-05
3.02996e-05
0.000176729
3.10294e-05
3.10344e-05
2.56763e-05
2.5599e-05
2.55963e-05
2.55925e-05
0.000175335
3.312e-05
3.31235e-05
3.12979e-05
3.13016e-05
2.55971e-05
2.55934e-05
0.000103698
5.17754e-05
0.000217205
0.000200531
0.000106927
5.13549e-05
0.00021602
4.24004e-05
4.85671e-05
4.31767e-05
4.87478e-05
0.000103697
0.000217201
5.17767e-05
0.00020051
0.000106925
0.000216017
5.13501e-05
4.26906e-05
4.9028e-05
4.8818e-05
4.41906e-05
0.000103441
0.000200049
5.22502e-05
0.000215344
5.14913e-05
0.000215443
0.00010509
4.26905e-05
4.90259e-05
4.8816e-05
4.41904e-05
0.00010344
0.000200027
0.000215342
5.22453e-05
0.000215439
5.14846e-05
0.000105089
4.24045e-05
4.85719e-05
4.31823e-05
4.87526e-05
0.000103701
0.000217205
5.17778e-05
0.000200519
0.000106931
0.000216021
5.13609e-05
4.24041e-05
4.85694e-05
4.31813e-05
4.87503e-05
0.000103444
0.000200056
5.22541e-05
0.000215348
5.14948e-05
0.000215446
0.000105095
4.26855e-05
4.90308e-05
4.88208e-05
4.41952e-05
0.000103445
0.000200037
0.000215346
5.22565e-05
0.000215444
5.1499e-05
0.000105094
4.26854e-05
4.90283e-05
4.88182e-05
4.41951e-05
3.0292e-05
3.03003e-05
0.000176718
3.10278e-05
3.1036e-05
2.5675e-05
2.55978e-05
2.55938e-05
2.55902e-05
0.000175327
3.31166e-05
3.31253e-05
3.12946e-05
3.13043e-05
2.5596e-05
2.55922e-05
0.000103701
0.000217204
5.17728e-05
0.000200531
0.000106928
0.00021602
5.13563e-05
4.24007e-05
4.85692e-05
4.31769e-05
4.875e-05
4.24008e-05
4.85688e-05
4.31777e-05
4.87498e-05
0.000103443
0.000200049
0.000215345
5.22563e-05
0.000215443
5.14999e-05
0.000105092
0.000103442
0.000200049
0.000215345
5.2252e-05
0.000215443
5.14939e-05
0.000105093
4.26909e-05
4.9028e-05
4.88179e-05
4.4191e-05
4.26907e-05
4.90279e-05
4.88177e-05
4.41909e-05
2.56749e-05
2.55976e-05
2.56738e-05
2.55966e-05
0.000175328
3.3125e-05
3.31179e-05
3.13034e-05
3.12962e-05
2.55958e-05
2.5592e-05
2.55948e-05
2.5591e-05
2.56073e-05
2.56235e-05
2.56046e-05
2.56209e-05
3.36145e-05
3.36068e-05
0.00017822
3.46893e-05
3.46815e-05
2.56314e-05
2.56278e-05
2.56288e-05
2.56251e-05
0.000178313
3.51923e-05
3.51867e-05
3.48899e-05
3.48839e-05
4.51296e-05
4.90937e-05
4.44628e-05
4.92083e-05
0.000106713
5.30734e-05
0.000215515
0.000201521
0.000105494
5.45903e-05
0.00021577
0.000106713
5.3069e-05
0.000215513
0.000201515
0.000105494
5.45865e-05
0.000215768
4.52845e-05
4.92546e-05
4.92307e-05
4.5464e-05
4.52846e-05
4.92547e-05
4.92308e-05
4.54643e-05
0.000106958
0.000202037
5.53623e-05
0.000216172
5.48918e-05
0.000216001
0.000107459
0.000106958
0.000202032
5.53597e-05
0.000216171
5.4888e-05
0.000215999
0.00010746
3.36077e-05
3.36122e-05
0.000178224
3.46828e-05
3.46855e-05
2.56067e-05
2.56225e-05
2.56299e-05
2.56262e-05
0.000178316
3.51867e-05
3.51855e-05
3.48832e-05
3.48831e-05
2.56304e-05
2.5627e-05
0.000106712
5.30659e-05
0.000215514
0.00020153
0.00010549
5.45822e-05
0.000215768
4.51349e-05
4.90885e-05
4.4462e-05
4.92018e-05
0.000106711
0.00021551
5.30631e-05
0.000201509
0.000105488
0.000215765
5.45787e-05
4.52883e-05
4.92512e-05
4.92276e-05
4.54681e-05
0.000106957
0.000202047
5.53559e-05
0.000216171
5.48845e-05
0.000216
0.00010746
4.52876e-05
4.92481e-05
4.92246e-05
4.54673e-05
0.000106956
0.000202025
0.000216168
5.53507e-05
0.000215997
5.48798e-05
0.000107458
4.51287e-05
4.90935e-05
4.44612e-05
4.92069e-05
0.000106711
0.000215514
5.30704e-05
0.000201517
0.000105492
0.000215769
5.45871e-05
4.51283e-05
4.90907e-05
4.4461e-05
4.9205e-05
0.000106956
0.000202053
5.53604e-05
0.000216173
5.48895e-05
0.000216002
0.000107459
4.52838e-05
4.92533e-05
4.92297e-05
4.54636e-05
0.000106956
0.000202034
0.000216171
5.53599e-05
0.000216
5.48884e-05
0.000107457
4.52834e-05
4.92515e-05
4.92276e-05
4.54631e-05
3.36046e-05
3.36135e-05
0.000178214
3.4678e-05
3.46884e-05
2.56056e-05
2.56218e-05
2.56271e-05
2.56237e-05
0.000178307
3.51772e-05
3.51922e-05
3.48751e-05
3.48891e-05
2.56298e-05
2.56261e-05
0.000106715
0.000215514
5.30661e-05
0.00020153
0.000105492
0.000215769
5.45837e-05
4.51356e-05
4.90904e-05
4.44627e-05
4.92048e-05
4.51357e-05
4.90903e-05
4.44626e-05
4.92047e-05
0.000106957
0.000202046
0.000216171
5.53597e-05
0.000216001
5.48886e-05
0.000107461
0.000106959
0.000202047
0.000216171
5.53573e-05
0.000216
5.48853e-05
0.000107463
4.52882e-05
4.92512e-05
4.92273e-05
4.54679e-05
4.52883e-05
4.92512e-05
4.92272e-05
4.54681e-05
2.56054e-05
2.56216e-05
2.56044e-05
2.56206e-05
0.000178308
3.51917e-05
3.51859e-05
3.48885e-05
3.48824e-05
2.56296e-05
2.56259e-05
2.56286e-05
2.56249e-05
2.56323e-05
2.56325e-05
2.56297e-05
2.563e-05
3.52351e-05
3.52302e-05
0.000179879
3.52957e-05
3.52908e-05
2.56326e-05
2.56327e-05
2.56301e-05
2.56302e-05
0.000179749
3.53056e-05
3.53009e-05
3.53023e-05
3.52978e-05
4.55313e-05
4.92592e-05
4.55005e-05
4.92602e-05
0.00010764
5.54687e-05
0.000216287
0.000202766
0.000107509
5.5572e-05
0.000216356
0.00010764
5.54657e-05
0.000216286
0.000202762
0.000107509
5.55694e-05
0.000216355
4.55269e-05
4.92602e-05
4.92607e-05
4.55386e-05
4.55273e-05
4.92604e-05
4.92609e-05
4.5539e-05
0.00010763
0.000202842
5.55871e-05
0.000216415
5.55648e-05
0.000216396
0.00010768
0.00010763
0.000202838
5.55846e-05
0.000216414
5.55622e-05
0.000216395
0.00010768
3.52295e-05
3.52292e-05
0.000179883
3.52898e-05
3.52857e-05
2.56313e-05
2.56315e-05
2.56311e-05
2.56312e-05
0.000179752
3.53002e-05
3.52965e-05
3.52969e-05
3.5291e-05
2.56317e-05
2.56318e-05
0.000107641
5.5463e-05
0.000216286
0.000202776
0.00010751
5.5565e-05
0.000216355
4.55364e-05
4.92526e-05
4.55049e-05
4.92536e-05
0.000107639
0.000216283
5.54561e-05
0.000202754
0.000107508
0.000216352
5.55564e-05
4.55338e-05
4.92569e-05
4.92574e-05
4.55447e-05
0.000107632
0.000202852
5.55803e-05
0.000216414
5.5558e-05
0.000216395
0.000107681
4.55324e-05
4.92537e-05
4.92543e-05
4.55434e-05
0.00010763
0.00020283
0.000216411
5.55723e-05
0.000216392
5.55492e-05
0.000107679
4.55306e-05
4.92579e-05
4.54998e-05
4.92588e-05
0.000107638
0.000216287
5.54659e-05
0.000202764
0.000107508
0.000216355
5.55696e-05
4.55301e-05
4.92559e-05
4.54993e-05
4.9257e-05
0.00010763
0.000202855
5.55825e-05
0.000216417
5.55594e-05
0.000216398
0.000107679
4.55266e-05
4.9259e-05
4.92596e-05
4.55383e-05
0.000107629
0.000202839
0.000216414
5.55847e-05
0.000216395
5.55623e-05
0.000107678
4.55261e-05
4.92572e-05
4.92577e-05
4.55377e-05
3.52206e-05
3.52348e-05
0.000179872
3.52787e-05
3.52951e-05
2.56306e-05
2.56309e-05
2.56284e-05
2.56286e-05
0.000179742
3.5289e-05
3.53055e-05