/*--------------------------------*- C++ -*----------------------------------*\
| =========                 |                                                 |
| \\      /  F ield         | OpenFOAM: The Open Source CFD Toolbox           |
|  \\    /   O peration     | Version:  2206                                  |
|   \\  /    A nd           | Website:  www.openfoam.com                      |
|    \\/     M anipulation  |                                                 |
\*---------------------------------------------------------------------------*/
FoamFile
{
    version     2.0;
    format      ascii;
    arch        "LSB;label=32;scalar=64";
    class       volScalarField;
    location    "28";
    object      p;
}
// * * * * * * * * * * * * * * * * * * * * * * * * * * * * * * * * * * * * * //

dimensions      [0 2 -2 0 0 0 0];

internalField   nonuniform List<scalar> 
171728
(
0.00400763
0.00400796
0.00400796
0.00401101
0.00395227
0.00395269
0.00395269
0.00395568
0.00390151
0.00390149
0.00390149
0.00390425
0.00384911
0.0038491
0.0038491
0.00385188
0.00379784
0.00379779
0.00379779
0.0038005
0.00374905
0.00374888
0.00374888
0.00375131
0.00370494
0.00370485
0.00370485
0.00370735
0.0036626
0.00366255
0.00366255
0.00366506
0.00362045
0.00362041
0.00362041
0.0036229
0.00357835
0.00357831
0.00357831
0.0035808
0.00353625
0.00353622
0.00353622
0.0035387
0.00349416
0.00349412
0.00349412
0.0034966
0.00345206
0.00345202
0.00345202
0.00345451
0.00340996
0.00340993
0.00340993
0.00341241
0.00336787
0.00336783
0.00336783
0.00337032
0.00332577
0.00332574
0.00332574
0.00332822
0.00328368
0.00328364
0.00328364
0.00328613
0.00324159
0.00324155
0.00324155
0.00324404
0.00319949
0.00319946
0.00319946
0.00320194
0.0031574
0.00315736
0.00315736
0.00315985
0.0031153
0.00311527
0.00311527
0.00311775
0.00307321
0.00307317
0.00307317
0.00307566
0.00303112
0.00303108
0.00303108
0.00303357
0.00298902
0.00298899
0.00298899
0.00299147
0.00294693
0.0029469
0.0029469
0.00294938
0.00290484
0.00290481
0.00290481
0.00290729
0.00286275
0.00286271
0.00286271
0.0028652
0.00282066
0.00282062
0.00282062
0.00282311
0.00277856
0.00277853
0.00277853
0.00278101
0.00273647
0.00273643
0.00273643
0.00273892
0.00269438
0.00269434
0.00269434
0.00269683
0.00265228
0.00265225
0.00265225
0.00265473
0.00261018
0.00261015
0.00261015
0.00261263
0.00256809
0.00256805
0.00256805
0.00257054
0.00252599
0.00252596
0.00252596
0.00252844
0.0024839
0.00248386
0.00248386
0.00248635
0.0024418
0.00244176
0.00244176
0.00244425
0.0023997
0.00239966
0.00239966
0.00240215
0.0023576
0.00235757
0.00235757
0.00236005
0.0023155
0.00231547
0.00231547
0.00231795
0.0022734
0.00227337
0.00227337
0.00227585
0.00223131
0.00223127
0.00223127
0.00223376
0.00218921
0.00218917
0.00218917
0.00219166
0.00214711
0.00214707
0.00214707
0.00214956
0.00210501
0.00210497
0.00210497
0.00210746
0.00206291
0.00206288
0.00206288
0.00206536
0.00202082
0.00202078
0.00202078
0.00202327
0.00197872
0.00197869
0.00197869
0.00198117
0.00193663
0.00193659
0.00193659
0.00193908
0.00189453
0.0018945
0.0018945
0.00189698
0.00185244
0.0018524
0.0018524
0.00185489
0.00181035
0.00181031
0.00181031
0.0018128
0.00176825
0.00176822
0.00176822
0.0017707
0.00172616
0.00172612
0.00172612
0.00172861
0.00168407
0.00168403
0.00168403
0.00168652
0.00164197
0.00164194
0.00164194
0.00164442
0.00159988
0.00159984
0.00159984
0.00160233
0.00155779
0.00155775
0.00155775
0.00156024
0.00151569
0.00151566
0.00151566
0.00151814
0.00147361
0.00147357
0.00147357
0.00147605
0.00143152
0.00143148
0.00143148
0.00143397
0.00138943
0.0013894
0.0013894
0.00139188
0.00134735
0.00134731
0.00134731
0.0013498
0.00130527
0.00130523
0.00130523
0.00130771
0.00126318
0.00126315
0.00126315
0.00126563
0.0012211
0.00122107
0.00122107
0.00122355
0.00117902
0.00117898
0.00117898
0.00118147
0.00113694
0.0011369
0.0011369
0.00113939
0.00109486
0.00109482
0.00109482
0.00109731
0.00105278
0.00105274
0.00105274
0.00105523
0.00101069
0.00101066
0.00101066
0.00101314
0.000968611
0.000968576
0.000968576
0.000971061
0.000926529
0.000926494
0.000926494
0.000928979
0.000884447
0.000884411
0.000884411
0.000886897
0.000842363
0.000842327
0.000842327
0.000844813
0.000800278
0.000800242
0.000800242
0.000802727
0.000758193
0.000758157
0.000758157
0.000760642
0.000716109
0.000716074
0.000716074
0.000718559
0.000674028
0.000673993
0.000673993
0.000676478
0.000631948
0.000631912
0.000631912
0.000634397
0.000589867
0.000589832
0.000589832
0.000592317
0.000547786
0.000547751
0.000547751
0.000550236
0.000505705
0.000505669
0.000505669
0.000508154
0.000463624
0.000463589
0.000463589
0.000466074
0.000421545
0.00042151
0.00042151
0.000423994
0.000379467
0.000379432
0.000379432
0.000381917
0.00033739
0.000337355
0.000337355
0.00033984
0.000295314
0.000295279
0.000295279
0.000297763
0.000253234
0.0002532
0.0002532
0.000255682
0.000211158
0.000211117
0.000211117
0.000213599
0.000169068
0.000169036
0.000169036
0.000171506
0.00012698
0.000126956
0.000126955
0.000129419
8.48924e-05
8.48502e-05
8.48486e-05
8.72818e-05
4.34772e-05
4.29261e-05
4.29232e-05
4.52243e-05
9.26794e-06
9.47953e-06
9.47721e-06
9.02425e-06
0.00402104
0.00402126
0.00402126
0.00402104
0.00402126
0.00402126
0.00402203
0.00402202
0.00402203
0.00402203
0.00402126
0.00402126
0.00402104
0.00402127
0.00402127
0.00402104
0.00401101
0.00396226
0.00400796
0.00400796
0.00396453
0.00396453
0.00401101
0.00396226
0.00400796
0.00400796
0.00396452
0.00396453
0.00400796
0.00396452
0.00396453
0.00401101
0.00396226
0.00400796
0.00396452
0.00396452
0.00396226
0.00395568
0.00391117
0.00395269
0.00395269
0.0039146
0.0039146
0.00395568
0.00391117
0.00395269
0.00395269
0.0039146
0.0039146
0.00395269
0.0039146
0.0039146
0.00395568
0.00391117
0.00395269
0.0039146
0.0039146
0.00391117
0.00390425
0.00385876
0.00390149
0.00390149
0.00386214
0.00386214
0.00390425
0.00385876
0.00390149
0.00390149
0.00386214
0.00386214
0.00390149
0.00386214
0.00386214
0.00390425
0.00385876
0.00390149
0.00386214
0.00386214
0.00385876
0.00385188
0.00380725
0.0038491
0.0038491
0.00381055
0.00381055
0.00385188
0.00380725
0.0038491
0.0038491
0.00381055
0.00381055
0.0038491
0.00381055
0.00381055
0.00385188
0.00380724
0.0038491
0.00381055
0.00381055
0.00380724
0.0038005
0.00375757
0.00379779
0.00379779
0.00376066
0.00376069
0.0038005
0.00375755
0.00379779
0.00379779
0.00376068
0.00376069
0.00379779
0.00376068
0.00376068
0.0038005
0.00375755
0.00379779
0.00376068
0.00376068
0.00375755
0.00375131
0.00371296
0.00374887
0.00374888
0.00371552
0.00371552
0.0037513
0.00371296
0.00374888
0.00374888
0.00371552
0.00371552
0.00374888
0.00371552
0.00371552
0.0037513
0.00371296
0.00374888
0.00371552
0.00371552
0.00371296
0.00370735
0.00367062
0.00370485
0.00370485
0.0036731
0.0036731
0.00370735
0.00367062
0.00370485
0.00370485
0.0036731
0.0036731
0.00370485
0.0036731
0.0036731
0.00370735
0.00367062
0.00370485
0.0036731
0.0036731
0.00367062
0.00366506
0.00362846
0.00366255
0.00366255
0.00363094
0.00363094
0.00366506
0.00362846
0.00366255
0.00366255
0.00363094
0.00363094
0.00366255
0.00363094
0.00363094
0.00366506
0.00362846
0.00366255
0.00363094
0.00363094
0.00362846
0.0036229
0.00358636
0.00362041
0.00362041
0.00358884
0.00358884
0.0036229
0.00358636
0.00362041
0.00362041
0.00358884
0.00358884
0.00362041
0.00358884
0.00358884
0.0036229
0.00358636
0.00362041
0.00358884
0.00358884
0.00358636
0.0035808
0.00354426
0.00357831
0.00357831
0.00354674
0.00354674
0.0035808
0.00354426
0.00357831
0.00357831
0.00354674
0.00354674
0.00357831
0.00354674
0.00354674
0.0035808
0.00354426
0.00357831
0.00354674
0.00354674
0.00354426
0.0035387
0.00350216
0.00353622
0.00353622
0.00350464
0.00350464
0.0035387
0.00350216
0.00353622
0.00353622
0.00350464
0.00350464
0.00353622
0.00350464
0.00350464
0.0035387
0.00350216
0.00353622
0.00350464
0.00350464
0.00350216
0.00349661
0.00346007
0.00349412
0.00349412
0.00346255
0.00346255
0.0034966
0.00346007
0.00349412
0.00349412
0.00346255
0.00346255
0.00349412
0.00346255
0.00346255
0.00349661
0.00346007
0.00349412
0.00346255
0.00346255
0.00346007
0.00345451
0.00341797
0.00345202
0.00345202
0.00342045
0.00342045
0.00345451
0.00341797
0.00345202
0.00345202
0.00342045
0.00342045
0.00345202
0.00342045
0.00342045
0.00345451
0.00341797
0.00345202
0.00342045
0.00342045
0.00341797
0.00341241
0.00337588
0.00340993
0.00340993
0.00337836
0.00337836
0.00341241
0.00337588
0.00340993
0.00340993
0.00337836
0.00337836
0.00340993
0.00337836
0.00337836
0.00341241
0.00337588
0.00340993
0.00337836
0.00337836
0.00337588
0.00337032
0.00333378
0.00336783
0.00336783
0.00333626
0.00333626
0.00337032
0.00333378
0.00336783
0.00336783
0.00333626
0.00333626
0.00336783
0.00333626
0.00333626
0.00337032
0.00333378
0.00336783
0.00333626
0.00333626
0.00333378
0.00332822
0.00329169
0.00332574
0.00332574
0.00329417
0.00329417
0.00332822
0.00329169
0.00332574
0.00332574
0.00329417
0.00329417
0.00332574
0.00329417
0.00329417
0.00332822
0.00329169
0.00332574
0.00329417
0.00329417
0.00329169
0.00328613
0.00324959
0.00328364
0.00328364
0.00325207
0.00325207
0.00328613
0.00324959
0.00328364
0.00328364
0.00325207
0.00325207
0.00328364
0.00325207
0.00325207
0.00328613
0.00324959
0.00328364
0.00325207
0.00325207
0.00324959
0.00324404
0.0032075
0.00324155
0.00324155
0.00320998
0.00320998
0.00324404
0.0032075
0.00324155
0.00324155
0.00320998
0.00320998
0.00324155
0.00320998
0.00320998
0.00324403
0.0032075
0.00324155
0.00320998
0.00320998
0.0032075
0.00320194
0.00316541
0.00319946
0.00319946
0.00316789
0.00316789
0.00320194
0.00316541
0.00319946
0.00319946
0.00316789
0.00316789
0.00319946
0.00316789
0.00316789
0.00320194
0.00316541
0.00319946
0.00316789
0.00316789
0.00316541
0.00315985
0.00312331
0.00315736
0.00315736
0.00312579
0.00312579
0.00315985
0.00312331
0.00315736
0.00315736
0.00312579
0.00312579
0.00315736
0.00312579
0.00312579
0.00315985
0.00312331
0.00315736
0.00312579
0.00312579
0.00312331
0.00311775
0.00308122
0.00311527
0.00311527
0.0030837
0.0030837
0.00311775
0.00308122
0.00311527
0.00311527
0.0030837
0.0030837
0.00311527
0.0030837
0.0030837
0.00311775
0.00308122
0.00311527
0.0030837
0.0030837
0.00308122
0.00307566
0.00303913
0.00307317
0.00307317
0.0030416
0.0030416
0.00307566
0.00303913
0.00307317
0.00307317
0.0030416
0.0030416
0.00307317
0.0030416
0.0030416
0.00307566
0.00303913
0.00307317
0.0030416
0.0030416
0.00303913
0.00303357
0.00299703
0.00303108
0.00303108
0.00299951
0.00299951
0.00303357
0.00299703
0.00303108
0.00303108
0.00299951
0.00299951
0.00303108
0.00299951
0.00299951
0.00303357
0.00299703
0.00303108
0.00299951
0.00299951
0.00299703
0.00299147
0.00295494
0.00298899
0.00298899
0.00295742
0.00295742
0.00299147
0.00295494
0.00298899
0.00298899
0.00295742
0.00295742
0.00298899
0.00295742
0.00295742
0.00299147
0.00295494
0.00298899
0.00295742
0.00295742
0.00295494
0.00294938
0.00291285
0.0029469
0.0029469
0.00291533
0.00291533
0.00294938
0.00291285
0.0029469
0.0029469
0.00291533
0.00291533
0.0029469
0.00291533
0.00291533
0.00294938
0.00291285
0.0029469
0.00291533
0.00291533
0.00291285
0.00290729
0.00287076
0.00290481
0.0029048
0.00287324
0.00287324
0.00290729
0.00287076
0.0029048
0.00290481
0.00287324
0.00287324
0.00290481
0.00287324
0.00287324
0.00290729
0.00287076
0.00290481
0.00287324
0.00287324
0.00287076
0.0028652
0.00282867
0.00286271
0.00286271
0.00283114
0.00283114
0.0028652
0.00282867
0.00286271
0.00286271
0.00283114
0.00283114
0.00286271
0.00283114
0.00283114
0.0028652
0.00282867
0.00286271
0.00283114
0.00283114
0.00282867
0.00282311
0.00278657
0.00282062
0.00282062
0.00278905
0.00278905
0.00282311
0.00278657
0.00282062
0.00282062
0.00278905
0.00278905
0.00282062
0.00278905
0.00278905
0.00282311
0.00278657
0.00282062
0.00278905
0.00278905
0.00278657
0.00278101
0.00274448
0.00277853
0.00277853
0.00274696
0.00274696
0.00278101
0.00274448
0.00277853
0.00277853
0.00274696
0.00274696
0.00277853
0.00274696
0.00274696
0.00278101
0.00274448
0.00277853
0.00274696
0.00274696
0.00274448
0.00273892
0.00270238
0.00273643
0.00273643
0.00270486
0.00270486
0.00273892
0.00270238
0.00273643
0.00273643
0.00270486
0.00270486
0.00273643
0.00270486
0.00270486
0.00273892
0.00270238
0.00273643
0.00270486
0.00270486
0.00270238
0.00269683
0.00266029
0.00269434
0.00269434
0.00266277
0.00266277
0.00269683
0.00266029
0.00269434
0.00269434
0.00266277
0.00266277
0.00269434
0.00266277
0.00266277
0.00269683
0.00266029
0.00269434
0.00266277
0.00266277
0.00266029
0.00265473
0.00261819
0.00265225
0.00265225
0.00262067
0.00262067
0.00265473
0.00261819
0.00265225
0.00265225
0.00262067
0.00262067
0.00265225
0.00262067
0.00262067
0.00265473
0.00261819
0.00265225
0.00262067
0.00262067
0.00261819
0.00261263
0.0025761
0.00261015
0.00261015
0.00257858
0.00257858
0.00261263
0.0025761
0.00261015
0.00261015
0.00257858
0.00257858
0.00261015
0.00257858
0.00257858
0.00261263
0.0025761
0.00261015
0.00257858
0.00257858
0.0025761
0.00257054
0.002534
0.00256805
0.00256805
0.00253648
0.00253648
0.00257054
0.002534
0.00256805
0.00256805
0.00253648
0.00253648
0.00256805
0.00253648
0.00253648
0.00257054
0.002534
0.00256805
0.00253648
0.00253648
0.002534
0.00252844
0.00249191
0.00252596
0.00252596
0.00249439
0.00249439
0.00252844
0.00249191
0.00252596
0.00252596
0.00249438
0.00249439
0.00252596
0.00249439
0.00249439
0.00252844
0.00249191
0.00252596
0.00249439
0.00249439
0.00249191
0.00248635
0.00244981
0.00248386
0.00248386
0.00245229
0.00245229
0.00248635
0.00244981
0.00248386
0.00248386
0.00245229
0.00245229
0.00248386
0.00245229
0.00245229
0.00248635
0.00244981
0.00248386
0.00245229
0.00245229
0.00244981
0.00244425
0.00240771
0.00244176
0.00244176
0.00241019
0.00241019
0.00244425
0.00240771
0.00244176
0.00244176
0.00241019
0.00241019
0.00244176
0.00241019
0.00241019
0.00244425
0.00240771
0.00244176
0.00241019
0.00241019
0.00240771
0.00240215
0.00236561
0.00239966
0.00239966
0.00236809
0.00236809
0.00240215
0.00236561
0.00239966
0.00239966
0.00236809
0.00236809
0.00239966
0.00236809
0.00236809
0.00240215
0.00236561
0.00239966
0.00236809
0.00236809
0.00236561
0.00236005
0.00232351
0.00235757
0.00235757
0.00232599
0.00232599
0.00236005
0.00232351
0.00235757
0.00235757
0.00232599
0.00232599
0.00235757
0.00232599
0.00232599
0.00236005
0.00232351
0.00235757
0.00232599
0.00232599
0.00232351
0.00231795
0.00228141
0.00231547
0.00231547
0.00228389
0.00228389
0.00231795
0.00228141
0.00231547
0.00231547
0.00228389
0.00228389
0.00231547
0.00228389
0.00228389
0.00231795
0.00228141
0.00231547
0.00228389
0.00228389
0.00228141
0.00227585
0.00223932
0.00227337
0.00227337
0.00224179
0.0022418
0.00227585
0.00223932
0.00227337
0.00227337
0.00224179
0.00224179
0.00227337
0.0022418
0.00224179
0.00227585
0.00223932
0.00227337
0.00224179
0.00224179
0.00223932
0.00223376
0.00219722
0.00223127
0.00223127
0.0021997
0.00219969
0.00223376
0.00219722
0.00223127
0.00223127
0.0021997
0.0021997
0.00223127
0.00219969
0.0021997
0.00223376
0.00219722
0.00223127
0.0021997
0.0021997
0.00219722
0.00219166
0.00215512
0.00218917
0.00218917
0.0021576
0.0021576
0.00219166
0.00215512
0.00218917
0.00218917
0.0021576
0.0021576
0.00218917
0.0021576
0.0021576
0.00219166
0.00215512
0.00218917
0.0021576
0.0021576
0.00215512
0.00214956
0.00211302
0.00214707
0.00214707
0.0021155
0.0021155
0.00214956
0.00211302
0.00214707
0.00214707
0.0021155
0.0021155
0.00214707
0.0021155
0.0021155
0.00214956
0.00211302
0.00214707
0.0021155
0.0021155
0.00211302
0.00210746
0.00207092
0.00210497
0.00210497
0.0020734
0.0020734
0.00210746
0.00207092
0.00210497
0.00210497
0.0020734
0.0020734
0.00210497
0.0020734
0.0020734
0.00210746
0.00207092
0.00210497
0.0020734
0.0020734
0.00207092
0.00206536
0.00202883
0.00206288
0.00206288
0.0020313
0.0020313
0.00206536
0.00202883
0.00206288
0.00206288
0.0020313
0.0020313
0.00206288
0.0020313
0.0020313
0.00206536
0.00202883
0.00206288
0.0020313
0.0020313
0.00202883
0.00202327
0.00198673
0.00202078
0.00202078
0.00198921
0.00198921
0.00202327
0.00198673
0.00202078
0.00202078
0.00198921
0.00198921
0.00202078
0.00198921
0.00198921
0.00202327
0.00198673
0.00202078
0.00198921
0.00198921
0.00198673
0.00198117
0.00194464
0.00197869
0.00197869
0.00194712
0.00194712
0.00198117
0.00194464
0.00197869
0.00197869
0.00194712
0.00194712
0.00197869
0.00194712
0.00194712
0.00198117
0.00194464
0.00197869
0.00194712
0.00194712
0.00194464
0.00193908
0.00190254
0.00193659
0.00193659
0.00190502
0.00190502
0.00193908
0.00190254
0.00193659
0.00193659
0.00190502
0.00190502
0.00193659
0.00190502
0.00190502
0.00193908
0.00190254
0.00193659
0.00190502
0.00190502
0.00190254
0.00189698
0.00186045
0.0018945
0.0018945
0.00186293
0.00186293
0.00189698
0.00186045
0.0018945
0.0018945
0.00186293
0.00186293
0.0018945
0.00186293
0.00186293
0.00189698
0.00186045
0.0018945
0.00186293
0.00186293
0.00186045
0.00185489
0.00181836
0.00185241
0.0018524
0.00182083
0.00182083
0.00185489
0.00181836
0.0018524
0.00185241
0.00182083
0.00182083
0.00185241
0.00182083
0.00182083
0.00185489
0.00181836
0.00185241
0.00182083
0.00182083
0.00181836
0.0018128
0.00177626
0.00181031
0.00181031
0.00177874
0.00177874
0.0018128
0.00177626
0.00181031
0.00181031
0.00177874
0.00177874
0.00181031
0.00177874
0.00177874
0.0018128
0.00177626
0.00181031
0.00177874
0.00177874
0.00177626
0.0017707
0.00173417
0.00176822
0.00176822
0.00173665
0.00173665
0.0017707
0.00173417
0.00176822
0.00176822
0.00173665
0.00173665
0.00176822
0.00173665
0.00173665
0.0017707
0.00173417
0.00176822
0.00173665
0.00173665
0.00173417
0.00172861
0.00169207
0.00172612
0.00172612
0.00169455
0.00169455
0.00172861
0.00169207
0.00172612
0.00172612
0.00169455
0.00169455
0.00172612
0.00169455
0.00169455
0.00172861
0.00169207
0.00172612
0.00169455
0.00169455
0.00169207
0.00168652
0.00164998
0.00168403
0.00168403
0.00165246
0.00165246
0.00168652
0.00164998
0.00168403
0.00168403
0.00165246
0.00165246
0.00168403
0.00165246
0.00165246
0.00168652
0.00164998
0.00168403
0.00165246
0.00165246
0.00164998
0.00164442
0.00160789
0.00164194
0.00164194
0.00161037
0.00161037
0.00164442
0.00160789
0.00164194
0.00164194
0.00161037
0.00161037
0.00164194
0.00161037
0.00161037
0.00164442
0.00160789
0.00164194
0.00161037
0.00161037
0.00160789
0.00160233
0.00156579
0.00159984
0.00159984
0.00156827
0.00156827
0.00160233
0.0015658
0.00159984
0.00159984
0.00156827
0.00156827
0.00159984
0.00156827
0.00156827
0.00160233
0.00156579
0.00159984
0.00156827
0.00156827
0.00156579
0.00156024
0.0015237
0.00155775
0.00155775
0.00152618
0.00152618
0.00156024
0.0015237
0.00155775
0.00155775
0.00152618
0.00152618
0.00155775
0.00152618
0.00152618
0.00156024
0.0015237
0.00155775
0.00152618
0.00152618
0.0015237
0.00151814
0.00148161
0.00151566
0.00151566
0.00148409
0.00148409
0.00151814
0.00148161
0.00151566
0.00151566
0.00148409
0.00148409
0.00151566
0.00148409
0.00148409
0.00151814
0.00148161
0.00151566
0.00148409
0.00148409
0.00148161
0.00147605
0.00143952
0.00147357
0.00147357
0.001442
0.001442
0.00147605
0.00143952
0.00147357
0.00147357
0.001442
0.001442
0.00147357
0.001442
0.001442
0.00147605
0.00143952
0.00147357
0.001442
0.001442
0.00143952
0.00143397
0.00139744
0.00143148
0.00143148
0.00139992
0.00139992
0.00143397
0.00139744
0.00143148
0.00143148
0.00139992
0.00139992
0.00143148
0.00139992
0.00139992
0.00143397
0.00139744
0.00143148
0.00139992
0.00139992
0.00139744
0.00139188
0.00135535
0.0013894
0.0013894
0.00135783
0.00135783
0.00139188
0.00135535
0.0013894
0.0013894
0.00135783
0.00135783
0.0013894
0.00135783
0.00135783
0.00139188
0.00135535
0.0013894
0.00135783
0.00135783
0.00135535
0.0013498
0.00131327
0.00134731
0.00134731
0.00131575
0.00131575
0.0013498
0.00131327
0.00134731
0.00134731
0.00131575
0.00131575
0.00134731
0.00131575
0.00131575
0.0013498
0.00131327
0.00134731
0.00131575
0.00131575
0.00131327
0.00130771
0.00127119
0.00130523
0.00130523
0.00127367
0.00127367
0.00130771
0.00127119
0.00130523
0.00130523
0.00127367
0.00127367
0.00130523
0.00127367
0.00127367
0.00130771
0.00127119
0.00130523
0.00127367
0.00127367
0.00127119
0.00126563
0.00122911
0.00126315
0.00126315
0.00123159
0.00123159
0.00126563
0.00122911
0.00126315
0.00126315
0.00123159
0.00123159
0.00126315
0.00123159
0.00123159
0.00126563
0.00122911
0.00126315
0.00123159
0.00123159
0.00122911
0.00122355
0.00118703
0.00122107
0.00122107
0.00118951
0.00118951
0.00122355
0.00118703
0.00122107
0.00122107
0.00118951
0.00118951
0.00122107
0.00118951
0.00118951
0.00122355
0.00118703
0.00122107
0.00118951
0.00118951
0.00118703
0.00118147
0.00114495
0.00117898
0.00117898
0.00114742
0.00114742
0.00118147
0.00114495
0.00117898
0.00117898
0.00114742
0.00114742
0.00117898
0.00114742
0.00114742
0.00118147
0.00114494
0.00117898
0.00114742
0.00114742
0.00114494
0.00113939
0.00110286
0.0011369
0.0011369
0.00110534
0.00110534
0.00113939
0.00110286
0.0011369
0.0011369
0.00110534
0.00110534
0.0011369
0.00110534
0.00110534
0.00113939
0.00110286
0.0011369
0.00110534
0.00110534
0.00110286
0.00109731
0.00106078
0.00109482
0.00109482
0.00106326
0.00106326
0.00109731
0.00106078
0.00109482
0.00109482
0.00106326
0.00106326
0.00109482
0.00106326
0.00106326
0.00109731
0.00106078
0.00109482
0.00106326
0.00106326
0.00106078
0.00105523
0.0010187
0.00105274
0.00105274
0.00102118
0.00102118
0.00105523
0.0010187
0.00105274
0.00105274
0.00102118
0.00102118
0.00105274
0.00102118
0.00102118
0.00105523
0.0010187
0.00105274
0.00102118
0.00102118
0.0010187
0.00101314
0.000976618
0.00101066
0.00101066
0.000979096
0.000979096
0.00101314
0.000976618
0.00101066
0.00101066
0.000979096
0.000979096
0.00101066
0.000979096
0.000979096
0.00101314
0.000976618
0.00101066
0.000979096
0.000979096
0.000976618
0.00097106
0.000934536
0.000968576
0.000968575
0.000937014
0.000937014
0.00097106
0.000934536
0.000968575
0.000968576
0.000937014
0.000937015
0.000968576
0.000937015
0.000937015
0.00097106
0.000934536
0.000968576
0.000937015
0.000937015
0.000934536
0.000928979
0.000892454
0.000926494
0.000926494
0.000894932
0.000894932
0.000928979
0.000892454
0.000926494
0.000926494
0.000894932
0.000894932
0.000926494
0.000894932
0.000894932
0.000928979
0.000892454
0.000926494
0.000894932
0.000894932
0.000892454
0.000886896
0.00085037
0.000884411
0.000884411
0.000852849
0.000852848
0.000886896
0.00085037
0.000884411
0.000884411
0.000852848
0.000852848
0.000884412
0.000852849
0.000852849
0.000886896
0.00085037
0.000884411
0.000852848
0.000852848
0.00085037
0.000844812
0.000808285
0.000842327
0.000842327
0.000810764
0.000810764
0.000844812
0.000808285
0.000842327
0.000842327
0.000810764
0.000810764
0.000842328
0.000810764
0.000810764
0.000844812
0.000808285
0.000842327
0.000810764
0.000810764
0.000808285
0.000802727
0.0007662
0.000800242
0.000800242
0.000768678
0.000768678
0.000802727
0.0007662
0.000800242
0.000800242
0.000768678
0.000768678
0.000800242
0.000768678
0.000768679
0.000802727
0.0007662
0.000800242
0.000768678
0.000768678
0.0007662
0.000760642
0.000724116
0.000758157
0.000758157
0.000726594
0.000726594
0.000760642
0.000724116
0.000758157
0.000758157
0.000726594
0.000726594
0.000758157
0.000726594
0.000726595
0.000760642
0.000724116
0.000758157
0.000726594
0.000726594
0.000724116
0.000718559
0.000682035
0.000716074
0.000716074
0.000684513
0.000684513
0.000718558
0.000682035
0.000716074
0.000716074
0.000684513
0.000684513
0.000716074
0.000684513
0.000684513
0.000718559
0.000682035
0.000716074
0.000684513
0.000684513
0.000682035
0.000676478
0.000639954
0.000673993
0.000673993
0.000642433
0.000642432
0.000676477
0.000639954
0.000673993
0.000673993
0.000642432
0.000642432
0.000673993
0.000642433
0.000642433
0.000676478
0.000639954
0.000673993
0.000642432
0.000642432
0.000639954
0.000634397
0.000597874
0.000631913
0.000631912
0.000600352
0.000600352
0.000634397
0.000597874
0.000631912
0.000631912
0.000600352
0.000600352
0.000631913
0.000600352
0.000600352
0.000634397
0.000597874
0.000631912
0.000600352
0.000600352
0.000597874
0.000592317
0.000555793
0.000589832
0.000589832
0.000558271
0.000558271
0.000592317
0.000555793
0.000589832
0.000589832
0.000558271
0.000558271
0.000589832
0.000558271
0.000558271
0.000592317
0.000555793
0.000589832
0.000558271
0.000558271
0.000555793
0.000550236
0.000513711
0.000547751
0.000547751
0.00051619
0.00051619
0.000550236
0.000513712
0.000547751
0.000547751
0.00051619
0.00051619
0.000547751
0.00051619
0.00051619
0.000550236
0.000513711
0.000547751
0.00051619
0.00051619
0.000513711
0.000508154
0.000471631
0.000505669
0.000505669
0.000474109
0.000474109
0.000508154
0.000471631
0.000505669
0.000505669
0.000474109
0.000474109
0.00050567
0.000474109
0.000474109
0.000508154
0.000471631
0.000505669
0.000474109
0.000474109
0.000471631
0.000466074
0.000429551
0.000463589
0.000463589
0.000432029
0.000432029
0.000466074
0.000429551
0.000463589
0.000463589
0.000432029
0.000432029
0.000463589
0.000432029
0.00043203
0.000466074
0.000429551
0.000463589
0.000432029
0.000432029
0.000429551
0.000423994
0.000387473
0.00042151
0.00042151
0.000389951
0.000389951
0.000423994
0.000387473
0.00042151
0.00042151
0.000389951
0.000389951
0.00042151
0.000389951
0.000389951
0.000423994
0.000387473
0.00042151
0.000389951
0.000389951
0.000387473
0.000381917
0.000345396
0.000379432
0.000379432
0.000347874
0.000347874
0.000381916
0.000345396
0.000379432
0.000379432
0.000347874
0.000347874
0.000379432
0.000347874
0.000347874
0.000381916
0.000345396
0.000379432
0.000347874
0.000347874
0.000345396
0.00033984
0.00030332
0.000337355
0.000337355
0.000305798
0.000305798
0.00033984
0.00030332
0.000337355
0.000337355
0.000305797
0.000305798
0.000337355
0.000305798
0.000305798
0.00033984
0.000303319
0.000337355
0.000305798
0.000305798
0.00030332
0.000297763
0.000261242
0.000295279
0.000295279
0.00026372
0.00026372
0.000297763
0.000261242
0.000295279
0.000295279
0.00026372
0.00026372
0.000295279
0.00026372
0.00026372
0.000297763
0.000261241
0.000295279
0.00026372
0.00026372
0.000261242
0.000255682
0.00021916
0.0002532
0.0002532
0.000221631
0.000221631
0.000255682
0.00021916
0.0002532
0.0002532
0.000221631
0.000221631
0.0002532
0.000221631
0.000221631
0.000255682
0.00021916
0.0002532
0.000221631
0.000221631
0.00021916
0.000213599
0.000177093
0.000211117
0.000211117
0.000179575
0.000179575
0.000213599
0.000177093
0.000211117
0.000211117
0.000179575
0.000179575
0.000211117
0.000179575
0.000179575
0.000213599
0.000177093
0.000211117
0.000179575
0.000179575
0.000177093
0.000171506
0.000135003
0.000169036
0.000169036
0.000137472
0.000137472
0.000171506
0.000135003
0.000169036
0.000169036
0.000137472
0.000137472
0.000169036
0.000137472
0.000137472
0.000171506
0.000135003
0.000169036
0.000137472
0.000137472
0.000135003
0.000129419
9.29151e-05
0.000126956
0.000126956
9.53755e-05
9.5376e-05
0.000129419
9.29159e-05
0.000126956
0.000126956
9.5375e-05
9.53747e-05
0.000126956
9.53754e-05
9.53749e-05
0.000129419
9.29142e-05
0.000126956
9.53744e-05
9.53745e-05
9.29145e-05
8.72828e-05
5.08572e-05
8.48499e-05
8.48502e-05
5.33237e-05
5.33243e-05
8.72828e-05
5.08581e-05
8.48493e-05
8.48487e-05
5.33219e-05
5.33214e-05
8.48493e-05
5.3323e-05
5.3321e-05
8.72823e-05
5.08547e-05
8.48488e-05
5.33205e-05
5.33197e-05
5.08543e-05
4.52281e-05
1.26769e-05
4.29279e-05
4.2928e-05
1.4886e-05
1.48852e-05
4.52284e-05
1.26766e-05
4.2926e-05
4.29246e-05
1.48839e-05
1.48803e-05
4.29238e-05
1.48826e-05
1.48784e-05
4.5225e-05
1.26723e-05
4.29226e-05
1.48805e-05
1.48799e-05
1.2671e-05
9.02832e-06
9.48081e-06
9.48107e-06
9.02941e-06
9.47916e-06
9.47663e-06
9.26782e-06
9.26562e-06
9.26527e-06
9.47563e-06
9.02538e-06
9.47629e-06
0.00402941
0.00403917
0.00403397
0.00403398
0.00405635
0.00404314
0.00407173
0.00403718
0.00405635
0.00404314
0.00403719
0.00407173
0.00404771
0.00407547
0.00407547
0.00398477
0.00400391
0.00401311
0.00397683
0.00397762
0.00398036
0.00398475
0.00400389
0.0040131
0.00397682
0.00400763
0.00400763
0.00400763
0.00396422
0.00396421
0.00396421
0.00396421
0.00398227
0.0040081
0.00400803
0.00399109
0.00401112
0.00398117
0.00399198
0.00397772
0.00398036
0.00398228
0.00400803
0.00400812
0.0039911
0.00401112
0.00399198
0.00398117
0.00401397
0.00401396
0.0039855
0.0039808
0.0039808
0.0039381
0.00395743
0.00395879
0.00393659
0.00395633
0.00393618
0.00393809
0.00395743
0.00395879
0.00393659
0.00395227
0.00395226
0.00395226
0.00391468
0.00391468
0.00391468
0.00391468
0.0039367
0.0039575
0.00395227
0.0039404
0.00395629
0.00393722
0.00394013
0.00395633
0.00393617
0.0039367
0.00395227
0.00395749
0.0039404
0.00395628
0.00394013
0.00393722
0.00395853
0.00395853
0.00393695
0.00393753
0.00393753
0.00388584
0.00390479
0.00390582
0.00388478
0.00390446
0.00388449
0.00388584
0.00390479
0.00390582
0.00388478
0.00390151
0.00390151
0.00390151
0.0038621
0.0038621
0.0038621
0.0038621
0.00388496
0.00390515
0.00390139
0.00388836
0.00390455
0.00388529
0.00388826
0.00390446
0.00388448
0.00388496
0.00390139
0.00390515
0.00388836
0.00390455
0.00388826
0.00388529
0.00390542
0.00390542
0.00388498
0.00388535
0.00388535
0.00383326
0.00385211
0.00385295
0.00383247
0.0038519
0.00383231
0.00383326
0.00385211
0.00385295
0.00383247
0.00384911
0.00384911
0.00384911
0.00381054
0.00381054
0.00381054
0.00381054
0.00383279
0.00385248
0.00384907
0.00383621
0.00385216
0.00383293
0.00383618
0.0038519
0.00383231
0.00383279
0.00384907
0.00385249
0.00383621
0.00385216
0.00383618
0.00383293
0.00385255
0.00385255
0.00383291
0.00383286
0.00383286
0.00378209
0.0038005
0.00380103
0.00378138
0.00380036
0.00378128
0.00378209
0.00380049
0.00380103
0.00378138
0.00379784
0.00379784
0.00379784
0.00376084
0.00376084
0.00376084
0.00376084
0.00378184
0.00380081
0.0037978
0.00378514
0.00380065
0.00378182
0.00378519
0.00380035
0.00378128
0.00378184
0.0037978
0.00380081
0.00378514
0.00380065
0.00378519
0.00378182
0.00380083
0.00380083
0.00378196
0.00378171
0.00378171
0.00373368
0.00375068
0.00375107
0.00373372
0.00375036
0.0037335
0.00373368
0.00375068
0.00375108
0.00373371
0.00374905
0.00374905
0.00374905
0.00371564
0.00371564
0.00371564
0.00371564
0.00373414
0.00375106
0.00374894
0.00373746
0.00375112
0.00373406
0.00373751
0.00375035
0.00373351
0.00373414
0.00374894
0.00375106
0.00373745
0.00375112