/*--------------------------------*- C++ -*----------------------------------*\
| =========                 |                                                 |
| \\      /  F ield         | OpenFOAM: The Open Source CFD Toolbox           |
|  \\    /   O peration     | Version:  2206                                  |
|   \\  /    A nd           | Website:  www.openfoam.com                      |
|    \\/     M anipulation  |                                                 |
\*---------------------------------------------------------------------------*/
FoamFile
{
    version     2.0;
    format      ascii;
    arch        "LSB;label=32;scalar=64";
    class       volVectorField;
    location    "13";
    object      U;
}
// * * * * * * * * * * * * * * * * * * * * * * * * * * * * * * * * * * * * * //

dimensions      [0 1 -1 0 0 0 0];

internalField   nonuniform List<vector> 
28687
(
(-4.58957e-07 -4.65322e-07 0.101586)
(-2.92098e-07 4.73597e-07 0.101577)
(4.84275e-07 -2.9075e-07 0.101577)
(-3.74813e-05 -3.74999e-05 0.101562)
(-4.87995e-07 -4.88108e-07 0.101586)
(-2.5866e-07 4.53094e-07 0.101577)
(4.75978e-07 -2.72648e-07 0.101577)
(-3.74469e-05 -3.74609e-05 0.101562)
(-4.59161e-07 -4.34464e-07 0.101585)
(-3.64616e-07 5.8767e-07 0.101577)
(5.25681e-07 -3.38253e-07 0.101577)
(-3.74803e-05 -3.74783e-05 0.101562)
(-4.21116e-07 -4.20358e-07 0.101586)
(-3.39199e-07 4.99286e-07 0.101577)
(5.01192e-07 -3.45647e-07 0.101577)
(-3.75586e-05 -3.75771e-05 0.101562)
(-4.49817e-07 -4.47844e-07 0.101586)
(-3.05241e-07 4.91762e-07 0.101577)
(4.88922e-07 -3.06664e-07 0.101577)
(-3.75154e-05 -3.75326e-05 0.101562)
(-4.51903e-07 -4.46932e-07 0.101586)
(-3.02537e-07 4.94155e-07 0.101577)
(4.88056e-07 -3.03002e-07 0.101577)
(-3.7514e-05 -3.75287e-05 0.101562)
(-4.49652e-07 -4.38656e-07 0.101586)
(-3.02534e-07 5.06324e-07 0.101577)
(4.88103e-07 -3.00965e-07 0.101577)
(-3.75141e-05 -3.7527e-05 0.101562)
(-4.4406e-07 -4.425e-07 0.101586)
(-2.97906e-07 4.78914e-07 0.101577)
(4.87944e-07 -2.9901e-07 0.101577)
(-3.7513e-05 -3.7526e-05 0.101562)
(-4.4046e-07 -4.44759e-07 0.101586)
(-3.06273e-07 4.9346e-07 0.101577)
(4.88565e-07 -3.01727e-07 0.101577)
(-3.75123e-05 -3.75279e-05 0.101562)
(-4.50021e-07 -4.51513e-07 0.101586)
(-3.02474e-07 4.88239e-07 0.101577)
(4.87564e-07 -3.01768e-07 0.101577)
(-3.7512e-05 -3.75276e-05 0.101562)
(-4.5175e-07 -4.50578e-07 0.101586)
(-3.0256e-07 4.88377e-07 0.101577)
(4.87398e-07 -3.03114e-07 0.101577)
(-3.75124e-05 -3.75285e-05 0.101562)
(-4.52047e-07 -4.50004e-07 0.101586)
(-3.02274e-07 4.88591e-07 0.101577)
(4.87622e-07 -3.03618e-07 0.101577)
(-3.7513e-05 -3.7529e-05 0.101562)
(-4.51773e-07 -4.49637e-07 0.101586)
(-3.02562e-07 4.88993e-07 0.101577)
(4.88051e-07 -3.04121e-07 0.101577)
(-3.75134e-05 -3.75291e-05 0.101562)
(-4.51912e-07 -4.49387e-07 0.101586)
(-3.02724e-07 4.8903e-07 0.101577)
(4.87905e-07 -3.04057e-07 0.101577)
(-3.7514e-05 -3.75297e-05 0.101562)
(-4.52355e-07 -4.49768e-07 0.101586)
(-3.01849e-07 4.88503e-07 0.101577)
(4.87367e-07 -3.03274e-07 0.101577)
(-3.75132e-05 -3.75287e-05 0.101562)
(-4.52266e-07 -4.49792e-07 0.101586)
(-3.01848e-07 4.88603e-07 0.101577)
(4.8719e-07 -3.0303e-07 0.101577)
(-3.75132e-05 -3.75287e-05 0.101562)
(-4.53436e-07 -4.50468e-07 0.101586)
(-3.01759e-07 4.87617e-07 0.101577)
(4.8704e-07 -3.03049e-07 0.101577)
(-3.75113e-05 -3.75276e-05 0.101562)
(-4.57769e-07 -4.52713e-07 0.101586)
(-2.97961e-07 4.86481e-07 0.101577)
(4.82323e-07 -2.96327e-07 0.101577)
(-3.75005e-05 -3.75126e-05 0.101562)
(-4.9637e-07 3.07908e-07 0.101577)
(3.8907e-05 -3.88821e-05 0.101563)
(-2.94391e-07 4.81546e-07 0.101577)
(3.7493e-05 3.7469e-05 0.101562)
(-3.89386e-05 -3.89174e-05 0.101563)
(5.01084e-07 2.97691e-07 0.101577)
(-4.88745e-07 3.02753e-07 0.101577)
(4.76455e-07 2.64152e-07 0.101577)
(-4.84997e-07 2.89851e-07 0.101577)
(-3.74966e-05 3.74668e-05 0.101562)
(3.89428e-05 -3.89242e-05 0.101563)
(2.92763e-07 4.85845e-07 0.101577)
(3.02077e-07 -4.97007e-07 0.101577)
(2.57005e-07 4.61513e-07 0.101577)
(2.69641e-07 -4.73794e-07 0.101577)
(-2.99406e-07 -4.97215e-07 0.101577)
(-2.69352e-07 4.70576e-07 0.101577)
(-2.69564e-07 -4.7286e-07 0.101577)
(3.74713e-05 -3.75048e-05 0.101562)
(-3.89134e-05 3.89461e-05 0.101563)
(-4.79891e-07 -2.92041e-07 0.101577)
(4.60279e-07 -2.56019e-07 0.101577)
(-4.57944e-07 -2.58628e-07 0.101577)
(3.89186e-05 3.89371e-05 0.101563)
(3.74536e-05 3.74372e-05 0.101562)
(-3.90036e-05 -3.89647e-05 0.101562)
(4.88908e-07 2.8314e-07 0.101577)
(-4.63156e-07 2.56271e-07 0.101577)
(4.47572e-07 2.58735e-07 0.101577)
(-5.4936e-07 3.45859e-07 0.101576)
(-3.74701e-05 3.74388e-05 0.101562)
(3.89029e-05 -3.88487e-05 0.101562)
(2.7357e-07 4.83309e-07 0.101577)
(2.83517e-07 -4.88403e-07 0.101577)
(2.26705e-07 4.64205e-07 0.101577)
(2.47002e-07 -4.63245e-07 0.101577)
(-2.83934e-07 -4.84878e-07 0.101577)
(-2.82796e-07 5.44164e-07 0.101577)
(-2.53875e-07 -4.47595e-07 0.101577)
(3.74342e-05 -3.74676e-05 0.101562)
(-3.89705e-05 3.90049e-05 0.101562)
(-4.74454e-07 -2.71832e-07 0.101577)
(4.50369e-07 -2.31351e-07 0.101577)
(-4.55291e-07 -2.27435e-07 0.101577)
(3.89702e-05 3.90047e-05 0.101562)
(3.747e-05 3.74761e-05 0.101562)
(-3.88504e-05 -3.88332e-05 0.101563)
(5.18325e-07 3.66358e-07 0.101576)
(-5.9523e-07 4.10444e-07 0.101577)
(5.32189e-07 3.80859e-07 0.101577)
(-5.22668e-07 3.77654e-07 0.101577)
(-3.75932e-05 3.75998e-05 0.101562)
(3.88767e-05 -3.88431e-05 0.101563)
(3.3374e-07 5.38548e-07 0.101577)
(3.50945e-07 -5.38355e-07 0.101576)
(3.71337e-07 5.2133e-07 0.101577)
(3.8424e-07 -5.29153e-07 0.101577)
(-3.58581e-07 -5.19514e-07 0.101576)
(-3.61354e-07 5.07204e-07 0.101577)
(-3.80918e-07 -5.28441e-07 0.101577)
(3.74623e-05 -3.74926e-05 0.101562)
(-3.88291e-05 3.88636e-05 0.101563)
(-5.3092e-07 -3.32222e-07 0.101577)
(5.1556e-07 -3.69593e-07 0.101577)
(-5.14909e-07 -3.7006e-07 0.101577)
(3.88365e-05 3.88531e-05 0.101563)
(3.75712e-05 3.75529e-05 0.101562)
(-3.89072e-05 -3.88912e-05 0.101563)
(5.17277e-07 3.56386e-07 0.101577)
(-5.14312e-07 3.55816e-07 0.101577)
(5.03437e-07 3.15016e-07 0.101577)
(-5.04845e-07 3.23522e-07 0.101577)
(-3.75574e-05 3.75419e-05 0.101562)
(3.89151e-05 -3.88905e-05 0.101563)
(3.48436e-07 5.05667e-07 0.101577)
(3.56549e-07 -5.1381e-07 0.101577)
(3.08855e-07 4.908e-07 0.101577)
(3.20272e-07 -5.00898e-07 0.101577)
(-3.5356e-07 -5.15764e-07 0.101577)
(-3.07086e-07 4.92535e-07 0.101577)
(-3.17597e-07 -5.0106e-07 0.101577)
(3.75488e-05 -3.75812e-05 0.101562)
(-3.88862e-05 3.89196e-05 0.101563)
(-4.995e-07 -3.44572e-07 0.101577)
(4.87803e-07 -3.06758e-07 0.101577)
(-4.86096e-07 -3.07047e-07 0.101577)
(3.8893e-05 3.89091e-05 0.101563)
(3.75247e-05 3.75072e-05 0.101562)
(-3.89131e-05 -3.88922e-05 0.101563)
(5.01268e-07 3.20908e-07 0.101577)
(-5.03121e-07 3.19112e-07 0.101577)
(5.00246e-07 3.12256e-07 0.101577)
(-5.01184e-07 3.15524e-07 0.101577)
(-3.7525e-05 3.75006e-05 0.101562)
(3.89196e-05 -3.88938e-05 0.101563)
(3.0942e-07 4.91898e-07 0.101577)
(3.18079e-07 -5.01256e-07 0.101577)
(3.01822e-07 4.91378e-07 0.101577)
(3.14543e-07 -4.98325e-07 0.101577)
(-3.1603e-07 -5.01082e-07 0.101577)
(-3.01021e-07 4.91808e-07 0.101577)
(-3.12083e-07 -4.96651e-07 0.101577)
(3.75045e-05 -3.75369e-05 0.101562)
(-3.88898e-05 3.89242e-05 0.101563)
(-4.87203e-07 -3.05142e-07 0.101577)
(4.86422e-07 -2.99872e-07 0.101577)
(-4.84744e-07 -2.99208e-07 0.101577)
(3.88961e-05 3.89151e-05 0.101563)
(3.75215e-05 3.75071e-05 0.101562)
(-3.89154e-05 -3.88792e-05 0.101563)
(4.97941e-07 3.19238e-07 0.101577)
(-5.03736e-07 3.19821e-07 0.101577)
(5.00732e-07 3.20567e-07 0.101577)
(-5.08236e-07 3.28778e-07 0.101577)
(-3.7522e-05 3.75017e-05 0.101562)
(3.89186e-05 -3.8876e-05 0.101563)
(3.05431e-07 4.93668e-07 0.101577)
(3.15354e-07 -4.98961e-07 0.101577)
(3.00525e-07 4.98562e-07 0.101577)
(3.14372e-07 -4.95871e-07 0.101577)
(-3.13787e-07 -4.9766e-07 0.101577)
(-3.00703e-07 5.0137e-07 0.101577)
(-3.12463e-07 -4.93902e-07 0.101577)
(3.75027e-05 -3.75341e-05 0.101562)
(-3.88898e-05 3.89262e-05 0.101563)
(-4.86382e-07 -3.00765e-07 0.101577)
(4.86402e-07 -2.98182e-07 0.101577)
(-4.84274e-07 -2.97967e-07 0.101577)
(3.88962e-05 3.89172e-05 0.101563)
(3.75221e-05 3.75247e-05 0.101562)
(-3.89183e-05 -3.88824e-05 0.101563)
(5.05771e-07 3.3543e-07 0.101577)
(-5.08664e-07 3.33736e-07 0.101577)
(5.03907e-07 3.15079e-07 0.101577)
(-4.97996e-07 3.21149e-07 0.101577)
(-3.75275e-05 3.75213e-05 0.101562)
(3.89255e-05 -3.88893e-05 0.101563)
(3.04325e-07 5.03724e-07 0.101577)
(3.15183e-07 -4.96289e-07 0.101577)
(3.00385e-07 4.9711e-07 0.101577)
(3.13132e-07 -4.94751e-07 0.101577)
(-3.15074e-07 -4.95074e-07 0.101577)
(-2.99525e-07 4.89278e-07 0.101577)
(-3.16407e-07 -4.93152e-07 0.101577)
(3.75028e-05 -3.75325e-05 0.101562)
(-3.88906e-05 3.89268e-05 0.101563)
(-4.85649e-07 -3.00932e-07 0.101577)
(4.8607e-07 -2.95684e-07 0.101577)
(-4.81717e-07 -3.04257e-07 0.101577)
(3.88962e-05 3.89178e-05 0.101563)
(3.75244e-05 3.75138e-05 0.101562)
(-3.89241e-05 -3.88848e-05 0.101563)
(5.03792e-07 3.15925e-07 0.101577)
(-4.87103e-07 3.12756e-07 0.101577)
(5.06803e-07 3.25733e-07 0.101577)
(-5.00871e-07 3.21339e-07 0.101577)
(-3.75086e-05 3.74896e-05 0.101562)
(3.89136e-05 -3.88915e-05 0.101563)
(3.05283e-07 4.9458e-07 0.101577)
(3.13882e-07 -4.96145e-07 0.101577)
(3.05976e-07 4.88227e-07 0.101577)
(3.13989e-07 -4.96629e-07 0.101577)
(-3.1786e-07 -4.95573e-07 0.101577)
(-3.03809e-07 4.91982e-07 0.101577)
(-3.10321e-07 -4.95953e-07 0.101577)
(3.75016e-05 -3.75318e-05 0.101562)
(-3.88899e-05 3.89251e-05 0.101563)
(-4.83167e-07 -3.0723e-07 0.101577)
(4.87027e-07 -2.97666e-07 0.101577)
(-4.82673e-07 -2.99921e-07 0.101577)
(3.88972e-05 3.89156e-05 0.101563)
(3.75218e-05 3.75083e-05 0.101562)
(-3.89223e-05 -3.88891e-05 0.101563)
(5.08567e-07 3.24614e-07 0.101577)
(-5.01533e-07 3.13959e-07 0.101577)
(4.97814e-07 3.09842e-07 0.101577)
(-5.01003e-07 3.16041e-07 0.101577)
(-3.75235e-05 3.74975e-05 0.101562)
(3.89236e-05 -3.88921e-05 0.101563)
(3.07458e-07 4.89863e-07 0.101577)
(3.15027e-07 -4.97856e-07 0.101577)
(2.99467e-07 4.87659e-07 0.101577)
(3.13139e-07 -4.97725e-07 0.101577)
(-3.11848e-07 -4.97463e-07 0.101577)
(-3.00951e-07 4.87007e-07 0.101577)
(-3.10398e-07 -4.957e-07 0.101577)
(3.75021e-05 -3.75331e-05 0.101562)
(-3.88905e-05 3.89246e-05 0.101563)
(-4.84795e-07 -3.01223e-07 0.101577)
(4.85998e-07 -2.98324e-07 0.101577)
(-4.83184e-07 -2.99426e-07 0.101577)
(3.88973e-05 3.8916e-05 0.101563)
(3.75255e-05 3.74997e-05 0.101562)
(-3.89211e-05 -3.88892e-05 0.101563)
(5.01324e-07 3.1266e-07 0.101577)
(-5.01235e-07 3.1238e-07 0.101577)
(4.9992e-07 3.12419e-07 0.101577)
(-5.02074e-07 3.13412e-07 0.101577)
(-3.75168e-05 3.74981e-05 0.101562)
(3.89183e-05 -3.88951e-05 0.101563)
(3.04264e-07 4.90258e-07 0.101577)
(3.1357e-07 -4.99258e-07 0.101577)
(2.99609e-07 4.8697e-07 0.101577)
(3.12778e-07 -4.98363e-07 0.101577)
(-3.11501e-07 -4.97573e-07 0.101577)
(-3.00773e-07 4.8765e-07 0.101577)
(-3.10616e-07 -4.96567e-07 0.101577)
(3.75011e-05 -3.75333e-05 0.101562)
(-3.88907e-05 3.8924e-05 0.101563)
(-4.85117e-07 -3.00608e-07 0.101577)
(4.85446e-07 -2.99193e-07 0.101577)
(-4.83761e-07 -2.99199e-07 0.101577)
(3.88971e-05 3.8915e-05 0.101563)
(3.7526e-05 3.74995e-05 0.101562)
(-3.89205e-05 -3.88889e-05 0.101563)
(5.00538e-07 3.10737e-07 0.101577)
(-5.03757e-07 3.14859e-07 0.101577)
(5.00641e-07 3.13088e-07 0.101577)
(-5.03259e-07 3.14977e-07 0.101577)
(-3.75215e-05 3.7497e-05 0.101562)
(3.89177e-05 -3.88933e-05 0.101563)
(3.04217e-07 4.88316e-07 0.101577)
(3.13984e-07 -4.99839e-07 0.101577)
(3.00526e-07 4.87068e-07 0.101577)
(3.13611e-07 -4.99082e-07 0.101577)
(-3.12481e-07 -4.98348e-07 0.101577)
(-3.01101e-07 4.88559e-07 0.101577)
(-3.11844e-07 -4.97401e-07 0.101577)
(3.75012e-05 -3.7534e-05 0.101562)
(-3.88901e-05 3.89233e-05 0.101563)
(-4.85576e-07 -3.00536e-07 0.101577)
(4.86035e-07 -3.00287e-07 0.101577)
(-4.84248e-07 -2.98601e-07 0.101577)
(3.88965e-05 3.89145e-05 0.101563)
(3.75267e-05 3.75002e-05 0.101562)
(-3.89194e-05 -3.88877e-05 0.101563)
(5.01535e-07 3.11562e-07 0.101577)
(-5.04036e-07 3.15149e-07 0.101577)
(5.01754e-07 3.14038e-07 0.101577)
(-5.03043e-07 3.15173e-07 0.101577)
(-3.7522e-05 3.74985e-05 0.101562)
(3.89179e-05 -3.8893e-05 0.101563)
(3.05072e-07 4.88563e-07 0.101577)
(3.14533e-07 -5.00116e-07 0.101577)
(3.00674e-07 4.87596e-07 0.101577)
(3.14021e-07 -4.99226e-07 0.101577)
(-3.13023e-07 -4.98939e-07 0.101577)
(-3.00808e-07 4.88473e-07 0.101577)
(-3.11254e-07 -4.97226e-07 0.101577)
(3.75017e-05 -3.75345e-05 0.101562)
(-3.88895e-05 3.89229e-05 0.101563)
(-4.8603e-07 -3.01618e-07 0.101577)
(4.86272e-07 -3.00583e-07 0.101577)
(-4.84191e-07 -3.00421e-07 0.101577)
(3.88961e-05 3.89144e-05 0.101563)
(3.75274e-05 3.75015e-05 0.101562)
(-3.89193e-05 -3.88877e-05 0.101563)
(5.02666e-07 3.1258e-07 0.101577)
(-5.04269e-07 3.15712e-07 0.101577)
(5.01784e-07 3.14554e-07 0.101577)
(-5.0342e-07 3.15708e-07 0.101577)
(-3.7522e-05 3.74989e-05 0.101562)
(3.89174e-05 -3.88925e-05 0.101563)
(3.05078e-07 4.89111e-07 0.101577)
(3.14988e-07 -5.00337e-07 0.101577)
(3.00819e-07 4.87794e-07 0.101577)
(3.14214e-07 -4.99237e-07 0.101577)
(-3.12936e-07 -4.9911e-07 0.101577)
(-3.01353e-07 4.88913e-07 0.101577)
(-3.11884e-07 -4.97725e-07 0.101577)
(3.75021e-05 -3.75348e-05 0.101562)
(-3.88896e-05 3.89231e-05 0.101563)
(-4.86231e-07 -3.02579e-07 0.101577)
(4.86315e-07 -3.00796e-07 0.101577)
(-4.84766e-07 -3.01291e-07 0.101577)
(3.88954e-05 3.89136e-05 0.101563)
(3.75276e-05 3.75015e-05 0.101562)
(-3.89199e-05 -3.88881e-05 0.101563)
(5.0238e-07 3.12802e-07 0.101577)
(-5.04241e-07 3.15866e-07 0.101577)
(5.01392e-07 3.14075e-07 0.101577)
(-5.02786e-07 3.14958e-07 0.101577)
(-3.75222e-05 3.74992e-05 0.101562)
(3.89183e-05 -3.88933e-05 0.101563)
(3.05048e-07 4.8903e-07 0.101577)
(3.14911e-07 -5.00152e-07 0.101577)
(3.00141e-07 4.87425e-07 0.101577)
(3.13113e-07 -4.98342e-07 0.101577)
(-3.13022e-07 -4.99095e-07 0.101577)
(-3.00439e-07 4.88249e-07 0.101577)
(-3.10767e-07 -4.96897e-07 0.101577)
(3.75021e-05 -3.75347e-05 0.101562)
(-3.88906e-05 3.89241e-05 0.101563)
(-4.86323e-07 -3.02983e-07 0.101577)
(4.85454e-07 -2.99743e-07 0.101577)
(-4.84173e-07 -3.0049e-07 0.101577)
(3.88962e-05 3.89146e-05 0.101563)
(3.7527e-05 3.7501e-05 0.101562)
(-3.89202e-05 -3.88884e-05 0.101563)
(5.01956e-07 3.12165e-07 0.101577)
(-5.03733e-07 3.15215e-07 0.101577)
(5.01195e-07 3.1377e-07 0.101577)
(-5.02827e-07 3.14878e-07 0.101577)
(-3.75214e-05 3.74985e-05 0.101562)
(3.89183e-05 -3.88932e-05 0.101563)
(3.04308e-07 4.88631e-07 0.101577)
(3.14095e-07 -4.99579e-07 0.101577)
(3.00071e-07 4.87259e-07 0.101577)
(3.13417e-07 -4.98745e-07 0.101577)
(-3.12116e-07 -4.98531e-07 0.101577)
(-3.00465e-07 4.8822e-07 0.101577)
(-3.10802e-07 -4.96738e-07 0.101577)
(3.75012e-05 -3.75338e-05 0.101562)
(-3.88902e-05 3.89237e-05 0.101563)
(-4.85915e-07 -3.02342e-07 0.101577)
(4.85902e-07 -3.00058e-07 0.101577)
(-4.84207e-07 -3.00477e-07 0.101577)
(3.88962e-05 3.89148e-05 0.101563)
(3.75268e-05 3.75009e-05 0.101562)
(-3.89206e-05 -3.88884e-05 0.101563)
(5.01619e-07 3.11902e-07 0.101577)
(-5.03727e-07 3.15042e-07 0.101577)
(5.00336e-07 3.13034e-07 0.101577)
(-5.01591e-07 3.13697e-07 0.101577)
(-3.75217e-05 3.74988e-05 0.101562)
(3.89162e-05 -3.8892e-05 0.101563)
(3.04198e-07 4.88326e-07 0.101577)
(3.13942e-07 -4.99312e-07 0.101577)
(2.99017e-07 4.86805e-07 0.101577)
(3.12347e-07 -4.97973e-07 0.101577)
(-3.12262e-07 -4.9869e-07 0.101577)
(-2.99139e-07 4.87439e-07 0.101577)
(-3.09702e-07 -4.96053e-07 0.101577)
(3.75014e-05 -3.7534e-05 0.101562)
(-3.88906e-05 3.89239e-05 0.101563)
(-4.85889e-07 -3.02264e-07 0.101577)
(4.84954e-07 -2.99252e-07 0.101577)
(-4.83745e-07 -2.99683e-07 0.101577)
(3.88953e-05 3.89154e-05 0.101563)
(3.75256e-05 3.75001e-05 0.101562)
(-3.89175e-05 -3.88844e-05 0.101563)
(5.01207e-07 3.11717e-07 0.101577)
(-5.04231e-07 3.14645e-07 0.101577)
(4.97764e-07 3.10309e-07 0.101577)
(-5.03386e-07 3.12698e-07 0.101577)
(-3.75192e-05 3.74961e-05 0.101562)
(3.89119e-05 -3.88888e-05 0.101563)
(3.03651e-07 4.88609e-07 0.101577)
(3.13567e-07 -4.99371e-07 0.101577)
(2.95423e-07 4.85353e-07 0.101577)
(3.08891e-07 -4.96146e-07 0.101577)
(-3.12359e-07 -4.97624e-07 0.101577)
(-3.01585e-07 4.88718e-07 0.101577)
(-3.09732e-07 -4.93828e-07 0.101577)
(3.75004e-05 -3.75333e-05 0.101562)
(-3.88871e-05 3.89202e-05 0.101563)
(-4.863e-07 -3.01705e-07 0.101577)
(4.83093e-07 -2.96177e-07 0.101577)
(-4.83869e-07 -2.96015e-07 0.101577)
(3.88895e-05 3.89119e-05 0.101563)
(3.75115e-05 3.74868e-05 0.101562)
(4.96364e-07 3.05815e-07 0.101577)
(-5.04486e-07 3.08798e-07 0.101577)
(-3.75149e-05 3.74893e-05 0.101562)
(2.96348e-07 4.84915e-07 0.101577)
(3.06291e-07 -4.95221e-07 0.101577)
(-3.08165e-07 -4.93963e-07 0.101577)
(3.74866e-05 -3.75196e-05 0.101562)
(-4.834e-07 -2.94376e-07 0.101577)
(2.41362e-08 -7.13723e-06 0.100765)
(6.8712e-07 5.45768e-06 0.0967978)
(-1.59659e-09 6.95505e-06 0.100762)
(-9.37127e-07 -5.71122e-06 0.0968027)
(-1.3533e-06 1.68578e-06 0.0878523)
(1.43783e-06 -2.01199e-06 0.0878581)
(-7.17453e-06 2.3414e-09 0.100765)
(5.41873e-06 6.40715e-07 0.0967971)
(7.00169e-06 -2.15412e-09 0.100762)
(-5.65839e-06 -9.08752e-07 0.096803)
(4.8015e-07 -4.60051e-07 0.101586)
(-4.58955e-07 4.62789e-07 0.101586)
(4.62858e-07 4.54824e-07 0.101586)
(-4.81124e-07 -4.8377e-07 0.101586)
(5.00206e-07 -4.82838e-07 0.101586)
(-4.79282e-07 4.84108e-07 0.101586)
(4.82279e-07 4.77819e-07 0.101586)
(1.19374e-05 -3.20336e-08 0.101437)
(-1.0913e-05 3.23225e-06 0.100919)
(-3.58572e-07 -1.54722e-07 0.101584)
(-2.74693e-07 4.57631e-07 0.101577)
(-1.1878e-05 2.87154e-09 0.101436)
(1.06353e-05 -3.5231e-06 0.100923)
(-3.36425e-07 -1.59378e-07 0.101584)
(1.63832e-06 -1.32616e-06 0.0878501)
(-1.87038e-06 1.37572e-06 0.0878573)
(-1.25311e-08 1.19436e-05 0.101437)
(-1.46513e-07 -3.57159e-07 0.101584)
(3.27178e-06 -1.09656e-05 0.100919)
(4.74298e-07 -2.73546e-07 0.101577)
(7.43293e-09 -1.18897e-05 0.101436)
(-1.49977e-07 -3.30582e-07 0.101584)
(-3.5224e-06 1.06456e-05 0.100922)
(-3.55183e-06 -4.2253e-06 0.0998927)
(-4.21212e-06 -3.54754e-06 0.0998924)
(3.88921e-05 3.89075e-05 0.101563)
(3.35211e-06 4.10247e-06 0.0998969)
(4.09733e-06 3.34356e-06 0.0998966)
(-2.73536e-09 -7.21919e-06 0.100765)
(7.63675e-07 5.421e-06 0.0967985)
(-2.55599e-08 6.8735e-06 0.100762)
(-9.01507e-07 -5.77335e-06 0.0968036)
(-1.27799e-06 1.50765e-06 0.0878548)
(1.46357e-06 -1.99872e-06 0.0878607)
(-7.25735e-06 -1.11016e-08 0.100764)
(5.38214e-06 7.21086e-07 0.0967979)
(6.9184e-06 -1.65719e-08 0.100762)
(-5.7226e-06 -8.56099e-07 0.0968038)
(4.96675e-07 -4.82615e-07 0.101586)
(-4.85878e-07 4.90252e-07 0.101586)
(4.86146e-07 4.85266e-07 0.101586)
(-5.05721e-07 -4.77656e-07 0.101585)
(4.49301e-07 -4.3117e-07 0.101585)
(-4.89195e-07 4.94551e-07 0.101585)
(4.79615e-07 5.00485e-07 0.101585)
(1.19896e-05 -2.68036e-08 0.101437)
(-1.08025e-05 3.1083e-06 0.100918)
(-3.18891e-07 -1.61704e-07 0.101584)
(-2.16193e-07 4.1775e-07 0.101577)
(-1.17853e-05 -5.72345e-09 0.101436)
(1.07038e-05 -3.60999e-06 0.100922)
(-2.85463e-07 -1.63548e-07 0.101584)
(1.50745e-06 -1.25098e-06 0.0878518)
(-1.96038e-06 1.37373e-06 0.08786)
(-2.54352e-08 1.19994e-05 0.101437)
(-1.65881e-07 -3.22755e-07 0.101584)
(3.15509e-06 -1.08565e-05 0.100919)
(4.44281e-07 -2.29592e-07 0.101577)
(-5.7391e-09 -1.17927e-05 0.101436)
(-1.64063e-07 -2.81763e-07 0.101584)
(-3.609e-06 1.07242e-05 0.100922)
(-3.56512e-06 -4.16163e-06 0.0998926)
(-4.1528e-06 -3.55809e-06 0.0998923)
(3.89243e-05 3.89491e-05 0.101563)
(3.35679e-06 4.15363e-06 0.0998967)
(4.13986e-06 3.35691e-06 0.0998963)
(1.39715e-08 -6.94889e-06 0.100764)
(7.9693e-07 5.26539e-06 0.0967994)
(-1.55398e-07 6.83195e-06 0.100762)
(-9.72607e-07 -5.14057e-06 0.0968044)
(-1.69973e-06 1.94604e-06 0.0878587)
(8.29642e-07 -1.02331e-06 0.0878603)
(-7.0086e-06 5.10649e-08 0.100764)
(5.20879e-06 8.00812e-07 0.0967988)
(6.82873e-06 -3.0241e-08 0.100762)
(-5.10317e-06 -9.2513e-07 0.0968046)
(3.82576e-07 -3.73957e-07 0.101585)
(-4.45838e-07 4.50346e-07 0.101585)
(4.35433e-07 4.54987e-07 0.101585)
(-3.9856e-07 -3.96417e-07 0.101586)
(4.15215e-07 -4.1217e-07 0.101586)
(-3.96171e-07 3.99361e-07 0.101586)
(3.96045e-07 3.95865e-07 0.101586)
(1.15604e-05 4.861e-08 0.101437)
(-1.09364e-05 3.35582e-06 0.100918)
(-4.09052e-07 -8.01125e-08 0.101584)
(-3.991e-07 5.59287e-07 0.101577)
(-1.17736e-05 6.39032e-08 0.101436)
(1.02438e-05 -3.11304e-06 0.100922)
(-4.91885e-07 -8.35135e-08 0.101584)
(1.27069e-06 -1.15206e-06 0.0878559)
(-1.16291e-06 9.08405e-07 0.0878626)
(8.81612e-09 1.15804e-05 0.101437)
(-1.52725e-07 -3.86298e-07 0.101584)
(3.05599e-06 -1.08033e-05 0.100918)
(5.55858e-07 -4.00504e-07 0.101577)
(-1.47088e-08 -1.17621e-05 0.101436)
(-1.24013e-07 -4.80526e-07 0.101584)
(-3.25486e-06 1.03356e-05 0.100922)
(-3.51953e-06 -4.12023e-06 0.0998924)
(-4.12287e-06 -3.49943e-06 0.0998921)
(3.87692e-05 3.88003e-05 0.101562)
(3.33959e-06 3.93035e-06 0.0998963)
(3.91738e-06 3.33524e-06 0.0998959)
(1.6951e-08 -7.05218e-06 0.100765)
(7.44147e-07 6.04207e-06 0.0967983)
(2.12097e-08 7.09395e-06 0.100762)
(-9.23423e-07 -5.45142e-06 0.0968025)
(-1.44944e-06 1.9872e-06 0.0878522)
(1.35999e-06 -1.78e-06 0.087857)
(-7.08977e-06 -4.02536e-10 0.100765)
(6.00406e-06 6.99701e-07 0.0967977)
(7.1528e-06 -6.01182e-09 0.100762)
(-5.40088e-06 -8.92802e-07 0.0968028)
(4.34494e-07 -4.30359e-07 0.101586)
(-4.19197e-07 4.21725e-07 0.101586)
(4.19209e-07 4.18011e-07 0.101586)
(-4.47302e-07 -4.46135e-07 0.101586)
(4.50743e-07 -4.49671e-07 0.101586)
(-4.4478e-07 4.47524e-07 0.101586)
(4.45053e-07 4.44958e-07 0.101586)
(1.1773e-05 -2.67204e-08 0.101437)
(-1.10796e-05 3.37527e-06 0.100919)
(-4.51976e-07 -1.41739e-07 0.101584)
(-3.21431e-07 4.93167e-07 0.101577)
(-1.21553e-05 -1.92181e-09 0.101436)
(1.05155e-05 -3.42145e-06 0.100923)
(-4.17518e-07 -1.43879e-07 0.101584)
(2.01931e-06 -1.45325e-06 0.0878507)
(-1.68198e-06 1.31774e-06 0.0878568)
(-7.61684e-09 1.17752e-05 0.101437)
(-1.29986e-07 -4.56912e-07 0.101584)
(3.49941e-06 -1.11654e-05 0.100919)
(4.92323e-07 -3.24386e-07 0.101577)
(2.14204e-08 -1.21734e-05 0.101436)
(-1.37514e-07 -4.17315e-07 0.101584)
(-3.42172e-06 1.05299e-05 0.100922)
(-3.45624e-06 -4.23564e-06 0.0998927)
(-4.22786e-06 -3.45087e-06 0.0998924)
(3.88799e-05 3.88945e-05 0.101563)
(3.39389e-06 4.09886e-06 0.099897)
(4.09252e-06 3.38638e-06 0.0998966)
(6.93702e-09 -7.10187e-06 0.100765)
(7.44281e-07 5.64704e-06 0.0967977)
(-1.43242e-08 6.95936e-06 0.100762)
(-9.17473e-07 -5.52078e-06 0.0968024)
(-1.40734e-06 1.78574e-06 0.0878517)
(1.31257e-06 -1.7753e-06 0.0878572)
(-7.14518e-06 4.12224e-11 0.100765)
(5.60668e-06 7.04277e-07 0.0967971)
(7.00157e-06 -6.39876e-09 0.100762)
(-5.47695e-06 -8.84929e-07 0.0968027)
(4.50703e-07 -4.49151e-07 0.101586)
(-4.46913e-07 4.49297e-07 0.101586)
(4.46509e-07 4.469e-07 0.101586)
(-4.51494e-07 -4.47071e-07 0.101586)
(4.51001e-07 -4.48285e-07 0.101586)
(-4.47966e-07 4.52145e-07 0.101586)
(4.47991e-07 4.50383e-07 0.101586)
(1.1832e-05 -1.79244e-08 0.101437)
(-1.09512e-05 3.25688e-06 0.100919)
(-3.81009e-07 -1.44117e-07 0.101584)
(-3.02365e-07 4.91815e-07 0.101577)
(-1.19365e-05 9.74978e-09 0.101436)
(1.05537e-05 -3.4388e-06 0.100923)
(-3.76131e-07 -1.43688e-07 0.101584)
(1.72857e-06 -1.36984e-06 0.08785)
(-1.73902e-06 1.30451e-06 0.0878568)
(-1.13096e-08 1.18412e-05 0.101437)
(-1.43894e-07 -3.81557e-07 0.101584)
(3.28178e-06 -1.09859e-05 0.100919)
(4.8727e-07 -3.01955e-07 0.101577)
(6.04195e-09 -1.19449e-05 0.101436)
(-1.44465e-07 -3.72009e-07 0.101584)
(-3.46591e-06 1.05837e-05 0.100922)
(-3.53227e-06 -4.212e-06 0.0998928)
(-4.20125e-06 -3.52687e-06 0.0998924)
(3.88933e-05 3.8911e-05 0.101563)
(3.39811e-06 4.10022e-06 0.0998969)
(4.09141e-06 3.39213e-06 0.0998966)
(5.62416e-09 -7.10208e-06 0.100765)
(7.44243e-07 5.63909e-06 0.0967977)
(-1.48511e-08 6.95505e-06 0.100762)
(-9.18537e-07 -5.5143e-06 0.0968024)
(-1.398e-06 1.75729e-06 0.0878513)
(1.3164e-06 -1.763e-06 0.0878573)
(-7.14677e-06 2.08005e-09 0.100765)
(5.6025e-06 7.07459e-07 0.0967971)
(6.9974e-06 -5.85389e-09 0.100762)
(-5.47887e-06 -8.81403e-07 0.0968027)
(4.50027e-07 -4.46481e-07 0.101586)
(-4.48515e-07 4.52457e-07 0.101586)
(4.47744e-07 4.50332e-07 0.101586)
(-4.50793e-07 -4.40318e-07 0.101586)
(4.48939e-07 -4.39804e-07 0.101586)
(-4.47921e-07 4.54666e-07 0.101586)
(4.48077e-07 4.5281e-07 0.101586)
(1.18332e-05 -1.3957e-08 0.101437)
(-1.09478e-05 3.26099e-06 0.100919)
(-3.76157e-07 -1.40743e-07 0.101584)
(-3.01022e-07 4.94807e-07 0.101577)
(-1.19331e-05 1.32674e-08 0.101436)
(1.05557e-05 -3.43294e-06 0.100923)
(-3.74427e-07 -1.3967e-07 0.101584)
(1.73088e-06 -1.37437e-06 0.08785)
(-1.73725e-06 1.30493e-06 0.0878568)
(-1.11025e-08 1.18422e-05 0.101437)
(-1.44448e-07 -3.75004e-07 0.101584)
(3.28386e-06 -1.0982e-05 0.100919)
(4.86856e-07 -2.99634e-07 0.101577)
(5.82566e-09 -1.19407e-05 0.101436)
(-1.44434e-07 -3.68582e-07 0.101584)
(-3.46478e-06 1.0585e-05 0.100922)
(-3.52968e-06 -4.21153e-06 0.0998927)
(-4.20329e-06 -3.52269e-06 0.0998924)
(3.88936e-05 3.89134e-05 0.101563)
(3.39791e-06 4.1019e-06 0.0998969)
(4.09106e-06 3.39322e-06 0.0998966)
(1.8874e-08 -7.09496e-06 0.100765)
(7.93868e-07 5.66717e-06 0.0967977)
(-8.13973e-09 6.95975e-06 0.100762)
(-7.85913e-07 -5.4792e-06 0.0968025)
(-1.49705e-06 1.85201e-06 0.0878518)
(1.29595e-06 -1.76269e-06 0.0878568)
(-7.14558e-06 6.22044e-09 0.100765)
(5.60707e-06 7.16893e-07 0.0967971)
(6.9962e-06 -1.74372e-09 0.100762)
(-5.49031e-06 -8.77471e-07 0.0968026)
(4.48166e-07 -4.37352e-07 0.101586)
(-4.48127e-07 4.55444e-07 0.101586)
(4.49059e-07 4.51973e-07 0.101586)
(-4.44596e-07 -4.38424e-07 0.101586)
(4.54969e-07 -4.42468e-07 0.101586)
(-4.4641e-07 4.56938e-07 0.101586)
(4.56216e-07 4.46667e-07 0.101586)
(1.18341e-05 -1.10852e-08 0.101437)
(-1.09445e-05 3.27209e-06 0.100919)
(-3.7677e-07 -1.33586e-07 0.101584)
(-3.01967e-07 5.04739e-07 0.101577)
(-1.19319e-05 1.81377e-08 0.101436)
(1.05602e-05 -3.42321e-06 0.100923)
(-3.75431e-07 -1.33474e-07 0.101584)
(1.73158e-06 -1.37298e-06 0.08785)
(-1.73668e-06 1.30562e-06 0.0878568)
(-1.03647e-08 1.18426e-05 0.101437)
(-1.43846e-07 -3.73288e-07 0.101584)
(3.28425e-06 -1.0981e-05 0.100919)
(4.86814e-07 -2.97536e-07 0.101577)
(6.45255e-09 -1.19396e-05 0.101436)
(-1.4381e-07 -3.67236e-07 0.101584)
(-3.4644e-06 1.05854e-05 0.100922)
(-3.52957e-06 -4.21044e-06 0.0998928)
(-4.20343e-06 -3.52174e-06 0.0998924)
(3.88937e-05 3.89152e-05 0.101563)
(3.39804e-06 4.10229e-06 0.099897)
(4.0913e-06 3.39353e-06 0.0998966)
(2.63546e-08 -7.10156e-06 0.100765)
(7.557e-07 5.62599e-06 0.0967978)
(-5.77007e-09 6.95895e-06 0.100762)
(-8.81513e-07 -5.50441e-06 0.0968025)
(-1.37816e-06 1.80525e-06 0.0878518)
(1.47633e-06 -1.87423e-06 0.0878566)
(-7.1451e-06 3.64902e-09 0.100765)
(5.61852e-06 7.21056e-07 0.0967972)
(6.99625e-06 -2.13022e-09 0.100762)
(-5.50682e-06 -8.88703e-07 0.0968025)
(4.58714e-07 -4.49099e-07 0.101586)
(-4.4627e-07 4.56337e-07 0.101586)
(4.57064e-07 4.44973e-07 0.101586)
(-4.39491e-07 -4.42288e-07 0.101586)
(4.5714e-07 -4.50665e-07 0.101586)
(-4.4576e-07 4.53239e-07 0.101586)
(4.5073e-07 4.47608e-07 0.101586)
(1.18324e-05 -2.07523e-08 0.101437)
(-1.09486e-05 3.25085e-06 0.100919)
(-3.7425e-07 -1.43951e-07 0.101584)
(-2.98654e-07 4.75135e-07 0.101577)
(-1.1933e-05 1.09212e-08 0.101436)
(1.05499e-05 -3.45086e-06 0.100923)
(-3.71975e-07 -1.47876e-07 0.101584)
(1.73131e-06 -1.37309e-06 0.08785)
(-1.73668e-06 1.30486e-06 0.0878568)
(-1.06883e-08 1.18421e-05 0.101437)
(-1.44108e-07 -3.7411e-07 0.101584)
(3.28462e-06 -1.09802e-05 0.100919)
(4.87016e-07 -2.96494e-07 0.101577)
(6.5064e-09 -1.19395e-05 0.101436)
(-1.44423e-07 -3.68945e-07 0.101584)
(-3.46413e-06 1.05857e-05 0.100922)
(-3.52927e-06 -4.21166e-06 0.0998928)
(-4.20232e-06 -3.52306e-06 0.0998924)
(3.88944e-05 3.8914e-05 0.101563)
(3.39908e-06 4.09937e-06 0.099897)
(4.09113e-06 3.39274e-06 0.0998966)
(2.274e-08 -7.10343e-06 0.100765)
(8.15282e-07 5.66022e-06 0.0967976)
(3.17985e-09 6.96165e-06 0.100762)
(-8.78547e-07 -5.46254e-06 0.0968027)
(-1.3726e-06 1.61776e-06 0.0878519)
(1.33836e-06 -1.90368e-06 0.0878568)
(-7.14508e-06 5.67649e-10 0.100765)
(5.64693e-06 7.21172e-07 0.0967974)
(6.99663e-06 -5.99298e-09 0.100762)
(-5.52058e-06 -8.98532e-07 0.0968024)
(4.51846e-07 -4.46874e-07 0.101586)
(-4.4687e-07 4.52478e-07 0.101586)
(4.49513e-07 4.47347e-07 0.101586)
(-4.48963e-07 -4.48871e-07 0.101586)
(4.5271e-07 -4.47416e-07 0.101586)
(-4.48101e-07 4.52233e-07 0.101586)
(4.49792e-07 4.47873e-07 0.101586)
(1.1833e-05 -1.67385e-08 0.101437)
(-1.09478e-05 3.26516e-06 0.100919)
(-3.76495e-07 -1.43192e-07 0.101584)
(-3.01452e-07 4.87385e-07 0.101577)
(-1.19331e-05 1.19329e-08 0.101436)
(1.05551e-05 -3.43539e-06 0.100923)
(-3.75226e-07 -1.42328e-07 0.101584)
(1.73108e-06 -1.37418e-06 0.08785)
(-1.73744e-06 1.30412e-06 0.0878568)
(-1.06726e-08 1.18414e-05 0.101437)
(-1.44318e-07 -3.75332e-07 0.101584)
(3.28469e-06 -1.09812e-05 0.100919)
(4.86944e-07 -2.98995e-07 0.101577)
(6.49194e-09 -1.19409e-05 0.101436)
(-1.44688e-07 -3.68858e-07 0.101584)
(-3.46435e-06 1.05849e-05 0.100922)
(-3.52881e-06 -4.21223e-06 0.0998928)
(-4.20229e-06 -3.52293e-06 0.0998924)
(3.88943e-05 3.89131e-05 0.101563)
(3.39899e-06 4.09962e-06 0.099897)
(4.0912e-06 3.39336e-06 0.0998966)
(9.76972e-09 -7.10584e-06 0.100765)
(7.53411e-07 5.60733e-06 0.0967975)
(-1.78693e-08 6.95786e-06 0.100762)
(-9.08822e-07 -5.48068e-06 0.0968027)
(-1.42542e-06 1.77925e-06 0.087852)
(1.34688e-06 -1.82223e-06 0.0878571)
(-7.14528e-06 -1.25588e-09 0.100765)
(5.64567e-06 7.21925e-07 0.0967974)
(6.99648e-06 -7.99099e-09 0.100762)
(-5.51392e-06 -8.95766e-07 0.0968025)
(4.52219e-07 -4.49488e-07 0.101586)
(-4.4873e-07 4.51837e-07 0.101586)
(4.4926e-07 4.48788e-07 0.101586)
(-4.5209e-07 -4.49573e-07 0.101586)
(4.51998e-07 -4.50879e-07 0.101586)
(-4.4878e-07 4.51361e-07 0.101586)
(4.48812e-07 4.49661e-07 0.101586)
(1.18337e-05 -1.77077e-08 0.101437)
(-1.09495e-05 3.25564e-06 0.100919)
(-3.7375e-07 -1.44221e-07 0.101584)
(-3.00644e-07 4.87037e-07 0.101577)
(-1.19329e-05 1.09821e-08 0.101436)
(1.05537e-05 -3.43646e-06 0.100923)
(-3.71567e-07 -1.43489e-07 0.101584)
(1.73037e-06 -1.37528e-06 0.08785)
(-1.73771e-06 1.3031e-06 0.0878568)
(-1.114e-08 1.18418e-05 0.101437)