/*--------------------------------*- C++ -*----------------------------------*\
| =========                 |                                                 |
| \\      /  F ield         | OpenFOAM: The Open Source CFD Toolbox           |
|  \\    /   O peration     | Version:  2206                                  |
|   \\  /    A nd           | Website:  www.openfoam.com                      |
|    \\/     M anipulation  |                                                 |
\*---------------------------------------------------------------------------*/
FoamFile
{
    version     2.0;
    format      ascii;
    arch        "LSB;label=32;scalar=64";
    class       volScalarField;
    location    "14.5";
    object      epsilon;
}
// * * * * * * * * * * * * * * * * * * * * * * * * * * * * * * * * * * * * * //

dimensions      [0 2 -3 0 0 0 0];

internalField   nonuniform List<scalar> 
28687
(
3.75781e-07
3.8926e-07
3.89267e-07
4.09433e-07
3.75779e-07
3.89263e-07
3.89266e-07
4.09452e-07
3.75777e-07
3.89266e-07
3.89268e-07
4.0946e-07
3.75719e-07
3.89185e-07
3.89219e-07
4.09446e-07
3.75575e-07
3.89087e-07
3.89095e-07
4.09321e-07
3.75568e-07
3.89085e-07
3.8909e-07
4.09327e-07
3.75568e-07
3.89084e-07
3.8909e-07
4.09322e-07
3.75568e-07
3.89084e-07
3.8909e-07
4.09324e-07
3.75568e-07
3.89085e-07
3.8909e-07
4.09325e-07
3.75568e-07
3.89085e-07
3.8909e-07
4.09325e-07
3.75568e-07
3.89085e-07
3.8909e-07
4.09325e-07
3.75568e-07
3.89085e-07
3.8909e-07
4.09325e-07
3.75568e-07
3.89085e-07
3.8909e-07
4.09325e-07
3.75568e-07
3.89085e-07
3.8909e-07
4.09325e-07
3.75568e-07
3.89085e-07
3.8909e-07
4.09325e-07
3.75568e-07
3.89085e-07
3.8909e-07
4.09325e-07
3.75568e-07
3.89085e-07
3.8909e-07
4.09325e-07
3.75568e-07
3.89085e-07
3.8909e-07
4.09325e-07
3.89275e-07
4.09267e-07
3.8926e-07
4.09428e-07
4.0928e-07
3.89272e-07
3.89275e-07
3.89271e-07
3.89274e-07
4.09443e-07
4.09281e-07
3.89265e-07
3.8928e-07
3.89264e-07
3.89279e-07
3.89273e-07
3.89263e-07
3.89273e-07
4.09435e-07
4.09287e-07
3.89264e-07
3.89266e-07
3.89264e-07
4.09284e-07
4.09451e-07
4.09287e-07
3.89276e-07
3.89278e-07
3.89274e-07
3.89277e-07
4.09453e-07
4.09286e-07
3.89269e-07
3.89284e-07
3.89267e-07
3.89282e-07
3.89277e-07
3.89266e-07
3.89275e-07
4.09458e-07
4.09294e-07
3.89268e-07
3.89268e-07
3.89266e-07
4.09291e-07
4.09458e-07
4.09281e-07
3.89275e-07
3.89276e-07
3.89258e-07
3.89243e-07
4.09457e-07
4.09266e-07
3.89267e-07
3.89282e-07
3.89251e-07
3.89266e-07
3.89275e-07
3.89233e-07
3.89259e-07
4.09464e-07
4.09288e-07
3.89266e-07
3.89252e-07
3.8925e-07
4.09285e-07
4.09446e-07
4.09158e-07
3.89226e-07
3.89196e-07
3.89114e-07
3.89106e-07
4.0942e-07
4.09143e-07
3.89219e-07
3.89233e-07
3.89106e-07
3.89121e-07
3.89226e-07
3.89094e-07
3.89114e-07
4.09452e-07
4.09165e-07
3.89217e-07
3.89107e-07
3.89105e-07
4.09161e-07
4.09322e-07
4.09152e-07
3.89104e-07
3.89101e-07
3.89098e-07
3.89097e-07
4.09311e-07
4.09152e-07
3.89096e-07
3.89111e-07
3.89089e-07
3.89104e-07
3.89104e-07
3.89086e-07
3.89097e-07
4.09327e-07
4.09159e-07
3.89095e-07
3.8909e-07
3.89088e-07
4.09156e-07
4.09326e-07
4.09151e-07
3.89101e-07
3.89099e-07
3.89097e-07
3.89096e-07
4.09325e-07
4.09145e-07
3.89093e-07
3.89108e-07
3.89089e-07
3.89104e-07
3.89101e-07
3.89084e-07
3.89097e-07
4.09332e-07
4.09158e-07
3.89092e-07
3.8909e-07
3.89088e-07
4.09154e-07
4.09322e-07
4.09154e-07
3.89099e-07
3.89099e-07
3.89097e-07
3.89098e-07
4.09316e-07
4.09147e-07
3.89091e-07
3.89106e-07
3.89089e-07
3.89104e-07
3.89099e-07
3.89084e-07
3.89097e-07
4.09328e-07
4.0916e-07
3.89091e-07
3.8909e-07
3.89088e-07
4.09157e-07
4.09325e-07
4.09155e-07
3.891e-07
3.891e-07
3.89097e-07
3.89098e-07
4.09317e-07
4.09149e-07
3.89091e-07
3.89106e-07
3.89089e-07
3.89104e-07
3.89099e-07
3.89085e-07
3.89097e-07
4.0933e-07
4.09161e-07
3.89091e-07
3.8909e-07
3.89088e-07
4.09157e-07
4.09325e-07
4.09154e-07
3.89099e-07
3.891e-07
3.89096e-07
3.89098e-07
4.09319e-07
4.09149e-07
3.89091e-07
3.89106e-07
3.89089e-07
3.89104e-07
3.89099e-07
3.89085e-07
3.89097e-07
4.0933e-07
4.09161e-07
3.89091e-07
3.8909e-07
3.89088e-07
4.09157e-07
4.09325e-07
4.09154e-07
3.89098e-07
3.891e-07
3.89096e-07
3.89098e-07
4.09319e-07
4.09149e-07
3.89091e-07
3.89106e-07
3.89088e-07
3.89104e-07
3.89099e-07
3.89085e-07
3.89097e-07
4.0933e-07
4.0916e-07
3.89091e-07
3.8909e-07
3.89088e-07
4.09157e-07
4.09324e-07
4.09154e-07
3.89098e-07
3.891e-07
3.89096e-07
3.89097e-07
4.0932e-07
4.09149e-07
3.89091e-07
3.89106e-07
3.89088e-07
3.89104e-07
3.89099e-07
3.89085e-07
3.89097e-07
4.0933e-07
4.09161e-07
3.89091e-07
3.8909e-07
3.89089e-07
4.09157e-07
4.09324e-07
4.09154e-07
3.89098e-07
3.891e-07
3.89096e-07
3.89097e-07
4.0932e-07
4.09149e-07
3.8909e-07
3.89106e-07
3.89088e-07
3.89104e-07
3.89099e-07
3.89085e-07
3.89097e-07
4.0933e-07
4.09161e-07
3.89092e-07
3.8909e-07
3.89089e-07
4.09157e-07
4.09324e-07
4.09154e-07
3.89098e-07
3.891e-07
3.89096e-07
3.89097e-07
4.0932e-07
4.09149e-07
3.8909e-07
3.89106e-07
3.89088e-07
3.89104e-07
3.89099e-07
3.89085e-07
3.89097e-07
4.09331e-07
4.0916e-07
3.89092e-07
3.8909e-07
3.89089e-07
4.09157e-07
4.09325e-07
4.09154e-07
3.89098e-07
3.891e-07
3.89096e-07
3.89098e-07
4.0932e-07
4.0915e-07
3.8909e-07
3.89106e-07
3.89088e-07
3.89104e-07
3.89099e-07
3.89085e-07
3.89097e-07
4.0933e-07
4.09161e-07
3.89092e-07
3.8909e-07
3.89089e-07
4.09157e-07
4.09325e-07
4.09154e-07
3.89098e-07
3.891e-07
3.89096e-07
3.89097e-07
4.0932e-07
4.09149e-07
3.8909e-07
3.89106e-07
3.89088e-07
3.89104e-07
3.891e-07
3.89085e-07
3.89097e-07
4.0933e-07
4.09161e-07
3.89092e-07
3.8909e-07
3.8909e-07
4.09157e-07
4.09324e-07
4.09154e-07
3.89098e-07
3.891e-07
3.89096e-07
3.89097e-07
4.0932e-07
4.0915e-07
3.8909e-07
3.89106e-07
3.89088e-07
3.89104e-07
3.89099e-07
3.89085e-07
3.89097e-07
4.0933e-07
4.09161e-07
3.89092e-07
3.8909e-07
3.8909e-07
4.09157e-07
4.09324e-07
4.09154e-07
3.89098e-07
3.891e-07
3.89096e-07
3.89097e-07
4.0932e-07
4.09149e-07
3.8909e-07
3.89106e-07
3.89088e-07
3.89104e-07
3.89099e-07
3.89085e-07
3.89097e-07
4.0933e-07
4.0916e-07
3.89092e-07
3.8909e-07
3.89089e-07
4.09157e-07
4.09324e-07
3.89097e-07
3.89099e-07
4.0932e-07
3.89089e-07
3.89105e-07
3.89099e-07
4.0933e-07
3.89091e-07
1.52446e-06
7.8498e-06
1.52517e-06
7.84925e-06
2.48938e-05
2.48903e-05
1.52434e-06
7.85093e-06
1.52498e-06
7.85031e-06
3.75785e-07
3.75783e-07
3.75782e-07
3.75779e-07
3.75783e-07
3.75781e-07
3.75781e-07
5.82604e-07
1.23948e-06
3.79432e-07
3.89263e-07
5.82714e-07
1.23908e-06
3.79432e-07
2.48978e-05
2.48928e-05
5.82598e-07
3.79432e-07
1.23944e-06
3.89267e-07
5.82707e-07
3.79432e-07
1.23903e-06
2.54275e-06
2.54327e-06
4.09278e-07
2.54232e-06
2.54286e-06
1.52438e-06
7.84937e-06
1.52479e-06
7.84889e-06
2.48886e-05
2.48874e-05
1.52425e-06
7.85047e-06
1.52461e-06
7.84995e-06
3.75783e-07
3.75781e-07
3.7578e-07
3.75778e-07
3.7578e-07
3.75779e-07
3.75778e-07
5.82616e-07
1.23957e-06
3.7943e-07
3.89268e-07
5.82741e-07
1.23904e-06
3.79433e-07
2.48905e-05
2.48887e-05
5.82607e-07
3.79428e-07
1.23955e-06
3.8927e-07
5.82735e-07
3.79432e-07
1.23903e-06
2.54285e-06
2.54338e-06
4.09287e-07
2.54249e-06
2.54303e-06
1.52437e-06
7.84912e-06
1.52475e-06
7.84891e-06
2.48878e-05
2.48893e-05
1.52422e-06
7.85024e-06
1.52455e-06
7.85e-06
3.7578e-07
3.75778e-07
3.75777e-07
3.75758e-07
3.75754e-07
3.75759e-07
3.75758e-07
5.82609e-07
1.23954e-06
3.79428e-07
3.89263e-07
5.82714e-07
1.23915e-06
3.79426e-07
2.48889e-05
2.4889e-05
5.82599e-07
3.79428e-07
1.23948e-06
3.89267e-07
5.82705e-07
3.79427e-07
1.23903e-06
2.54286e-06
2.54339e-06
4.09291e-07
2.54248e-06
2.54302e-06
1.52506e-06
7.8522e-06
1.5253e-06
7.8537e-06
2.48972e-05
2.48968e-05
1.52492e-06
7.85328e-06
1.52512e-06
7.85472e-06
3.75708e-07
3.75722e-07
3.7572e-07
3.7559e-07
3.75586e-07
3.75591e-07
3.7559e-07
5.82644e-07
1.24001e-06
3.79367e-07
3.89146e-07
5.82764e-07
1.23949e-06
3.79318e-07
2.48971e-05
2.48979e-05
5.82635e-07
3.79373e-07
1.23982e-06
3.89174e-07
5.82756e-07
3.79324e-07
1.23944e-06
2.54356e-06
2.54409e-06
4.09222e-07
2.54323e-06
2.54377e-06
1.52502e-06
7.854e-06
1.52543e-06
7.85363e-06
2.48972e-05
2.48967e-05
1.52488e-06
7.85512e-06
1.52524e-06
7.85471e-06
3.75576e-07
3.75579e-07
3.75578e-07
3.75569e-07
3.7557e-07
3.75571e-07
3.7557e-07
5.82623e-07
1.23995e-06
3.79235e-07
3.89088e-07
5.82737e-07
1.23943e-06
3.79234e-07
2.48984e-05
2.48975e-05
5.82615e-07
3.79236e-07
1.23989e-06
3.89093e-07
5.82729e-07
3.79235e-07
1.2394e-06
2.54344e-06
2.54397e-06
4.09145e-07
2.54304e-06
2.54357e-06
1.52502e-06
7.85396e-06
1.52541e-06
7.85361e-06
2.48973e-05
2.48957e-05
1.52487e-06
7.85508e-06
1.52522e-06
7.85469e-06
3.75573e-07
3.75574e-07
3.75574e-07
3.75568e-07
3.75569e-07
3.75571e-07
3.7557e-07
5.82624e-07
1.23994e-06
3.7923e-07
3.89087e-07
5.82733e-07
1.23943e-06
3.79233e-07
2.48982e-05
2.48975e-05
5.82615e-07
3.79231e-07
1.23987e-06
3.89092e-07
5.82725e-07
3.79234e-07
1.2394e-06
2.54342e-06
2.54395e-06
4.09162e-07
2.54304e-06
2.54357e-06
1.52502e-06
7.85388e-06
1.52541e-06
7.85355e-06
2.48963e-05
2.48963e-05
1.52487e-06
7.85508e-06
1.52522e-06
7.85469e-06
3.75572e-07
3.75573e-07
3.75572e-07
3.75568e-07
3.75569e-07
3.75571e-07
3.7557e-07
5.82623e-07
1.23994e-06
3.7923e-07
3.89087e-07
5.82734e-07
1.23943e-06
3.79232e-07
2.48982e-05
2.48975e-05
5.82614e-07
3.79231e-07
1.23987e-06
3.89092e-07
5.82725e-07
3.79233e-07
1.2394e-06
2.54342e-06
2.54395e-06
4.09157e-07
2.54304e-06
2.54357e-06
1.52502e-06
7.85392e-06
1.52541e-06
7.85361e-06
2.48971e-05
2.48966e-05
1.52487e-06
7.85508e-06
1.52522e-06
7.85469e-06
3.75572e-07
3.75573e-07
3.75572e-07
3.75568e-07
3.7557e-07
3.75571e-07
3.7557e-07
5.82624e-07
1.23994e-06
3.7923e-07
3.89087e-07
5.82734e-07
1.23943e-06
3.79232e-07
2.48982e-05
2.48975e-05
5.82614e-07
3.79231e-07
1.23987e-06
3.89092e-07
5.82725e-07
3.79233e-07
1.2394e-06
2.54342e-06
2.54395e-06
4.09156e-07
2.54304e-06
2.54357e-06
1.52502e-06
7.85398e-06
1.52542e-06
7.85364e-06
2.48969e-05
2.4896e-05
1.52487e-06
7.85505e-06
1.52522e-06
7.85475e-06
3.75572e-07
3.75573e-07
3.75572e-07
3.75568e-07
3.7557e-07
3.75571e-07
3.7557e-07
5.82624e-07
1.23994e-06
3.7923e-07
3.89087e-07
5.82734e-07
1.23943e-06
3.79232e-07
2.48982e-05
2.48975e-05
5.82614e-07
3.79231e-07
1.23987e-06
3.89092e-07
5.82725e-07
3.79233e-07
1.2394e-06
2.54342e-06
2.54395e-06
4.09156e-07
2.54304e-06
2.54357e-06
1.52502e-06
7.85394e-06
1.52542e-06
7.85353e-06
2.48965e-05
2.4896e-05
1.52487e-06
7.85515e-06
1.52522e-06
7.85484e-06
3.75572e-07
3.75573e-07
3.75572e-07
3.75568e-07
3.7557e-07
3.75571e-07
3.7557e-07
5.82624e-07
1.23994e-06
3.7923e-07
3.89087e-07
5.82734e-07
1.23943e-06
3.79232e-07
2.48982e-05
2.48975e-05
5.82614e-07
3.79231e-07
1.23987e-06
3.89092e-07
5.82725e-07
3.79233e-07
1.2394e-06
2.54342e-06
2.54395e-06
4.09156e-07
2.54304e-06
2.54357e-06
1.52502e-06
7.85385e-06
1.52542e-06
7.85345e-06
2.48965e-05
2.4896e-05
1.52487e-06
7.85524e-06
1.52522e-06
7.85488e-06
3.75572e-07
3.75573e-07
3.75572e-07
3.75568e-07
3.7557e-07
3.75571e-07
3.7557e-07
5.82624e-07
1.23994e-06
3.7923e-07
3.89087e-07
5.82734e-07
1.23943e-06
3.79232e-07
2.48982e-05
2.48975e-05
5.82614e-07
3.79231e-07
1.23987e-06
3.89092e-07
5.82725e-07
3.79233e-07
1.2394e-06
2.54342e-06
2.54395e-06
4.09156e-07
2.54304e-06
2.54357e-06
1.52502e-06
7.85381e-06
1.52541e-06
7.85344e-06
2.48966e-05
2.4896e-05
1.52487e-06
7.85526e-06
1.52522e-06
7.8549e-06
3.75572e-07
3.75573e-07
3.75572e-07
3.75568e-07
3.7557e-07
3.75571e-07
3.7557e-07
5.82624e-07
1.23994e-06
3.7923e-07
3.89087e-07
5.82734e-07
1.23943e-06
3.79233e-07
2.48982e-05
2.48975e-05
5.82614e-07
3.79231e-07
1.23987e-06
3.89092e-07
5.82726e-07
3.79233e-07
1.2394e-06
2.54342e-06
2.54395e-06
4.09156e-07
2.54304e-06
2.54357e-06
1.52502e-06
7.8538e-06
1.52541e-06
7.85343e-06
2.48966e-05
2.4896e-05
1.52487e-06
7.85527e-06
1.52522e-06
7.85491e-06
3.75572e-07
3.75573e-07
3.75572e-07
3.75568e-07
3.7557e-07
3.75571e-07
3.7557e-07
5.82624e-07
1.23994e-06
3.7923e-07
3.89087e-07
5.82734e-07
1.23943e-06
3.79232e-07
2.48982e-05
2.48975e-05
5.82614e-07
3.79231e-07
1.23987e-06
3.89092e-07
5.82725e-07
3.79233e-07
1.2394e-06
2.54342e-06
2.54395e-06
4.09156e-07
2.54304e-06
2.54357e-06
1.52502e-06
7.8538e-06
1.52542e-06
7.85343e-06
2.48966e-05
2.4896e-05
1.52487e-06
7.85528e-06
1.52522e-06
7.85491e-06
3.75572e-07
3.75573e-07
3.75572e-07
3.75568e-07
3.7557e-07
3.75571e-07
3.7557e-07
5.82624e-07
1.23994e-06
3.7923e-07
3.89087e-07
5.82734e-07
1.23943e-06
3.79232e-07
2.48982e-05
2.48975e-05
5.82615e-07
3.79231e-07
1.23987e-06
3.89092e-07
5.82726e-07
3.79233e-07
1.2394e-06
2.54342e-06
2.54395e-06
4.09157e-07
2.54304e-06
2.54357e-06
1.52502e-06
7.8538e-06
1.52542e-06
7.85343e-06
2.48966e-05
2.4896e-05
1.52487e-06
7.85528e-06
1.52522e-06
7.85491e-06
3.75572e-07
3.75573e-07
3.75572e-07
3.75568e-07
3.7557e-07
3.75571e-07
3.7557e-07
5.82624e-07
1.23994e-06
3.7923e-07
3.89087e-07
5.82734e-07
1.23943e-06
3.79232e-07
2.48982e-05
2.48975e-05
5.82615e-07
3.79231e-07
1.23987e-06
3.89092e-07
5.82727e-07
3.79233e-07
1.2394e-06
2.54342e-06
2.54395e-06
4.09157e-07
2.54304e-06
2.54357e-06
1.52502e-06
7.8538e-06
1.52542e-06
7.85343e-06
2.48966e-05
2.4896e-05
1.52487e-06
7.85528e-06
1.52522e-06
7.85491e-06
3.75572e-07
3.75573e-07
3.75572e-07
3.75568e-07
3.7557e-07
3.75571e-07
3.7557e-07
5.82624e-07
1.23994e-06
3.7923e-07
3.89087e-07
5.82734e-07
1.23943e-06
3.79232e-07
2.48982e-05
2.48975e-05
5.82616e-07
3.79231e-07
1.23987e-06
3.89092e-07
5.82727e-07
3.79233e-07
1.2394e-06
2.54342e-06
2.54395e-06
4.09157e-07
2.54303e-06
2.54357e-06
1.52502e-06
7.8538e-06
1.52542e-06
7.85343e-06
2.48966e-05
2.4896e-05
1.52487e-06
7.85528e-06
1.52522e-06
7.85491e-06
3.75572e-07
3.75573e-07
3.75572e-07
3.75568e-07
3.7557e-07
3.75571e-07
3.7557e-07
5.82624e-07
1.23994e-06
3.7923e-07
3.89087e-07
5.82734e-07
1.23943e-06
3.79232e-07
2.48982e-05
2.48975e-05
5.82616e-07
3.79231e-07
1.23987e-06
3.89092e-07
5.82727e-07
3.79233e-07
1.2394e-06
2.54342e-06
2.54396e-06
4.09157e-07
2.54303e-06
2.54357e-06
1.52522e-06
7.8538e-06
1.52542e-06
7.8535e-06
2.48966e-05
2.4896e-05
1.52511e-06
7.85528e-06
1.52522e-06
7.855e-06
3.75571e-07
3.75572e-07
3.75571e-07
5.82623e-07
1.23994e-06
3.7923e-07
3.89086e-07
5.82734e-07
1.23943e-06
3.79233e-07
2.48982e-05
2.48978e-05
5.82617e-07
3.79231e-07
1.23987e-06
3.89093e-07
5.82727e-07
3.79234e-07
1.23939e-06
2.54342e-06
2.54395e-06
4.09156e-07
2.54304e-06
2.54379e-06
7.84977e-06
1.23898e-06
2.48943e-05
2.54258e-06
2.54207e-06
2.48914e-05
1.23895e-06
7.84946e-06
2.48948e-05
2.48903e-05
2.48977e-05
2.48933e-05
2.54261e-06
2.54319e-06
4.09274e-07
2.5422e-06
2.54277e-06
2.48877e-05
2.48902e-05
2.48907e-05
2.48931e-05
4.09446e-07
2.54233e-06
2.54289e-06
2.54256e-06
2.54313e-06
1.52446e-06
7.84995e-06
1.52517e-06
7.84963e-06
5.82605e-07
1.23939e-06
3.7943e-07
3.89272e-07
5.82718e-07
1.23894e-06
3.7943e-07
5.82601e-07
1.23948e-06
3.79432e-07
3.89275e-07
5.82716e-07
1.23912e-06
3.79432e-07
1.52479e-06
7.84907e-06
7.84936e-06
1.5244e-06
1.52479e-06
7.84942e-06
7.84972e-06
1.5244e-06
5.82723e-07
3.89271e-07
1.239e-06
3.79429e-07
1.23943e-06
3.79429e-07
5.82632e-07
5.82717e-07
3.89274e-07
1.23911e-06
3.79431e-07
1.23959e-06
3.79431e-07
5.82623e-07
2.54301e-06
2.54262e-06
4.09278e-07
2.54282e-06
2.5424e-06
2.48912e-05
2.48874e-05
2.48884e-05
2.48902e-05
4.0945e-07
2.54293e-06
2.54254e-06
2.54318e-06
2.54286e-06
2.48853e-05
2.48876e-05
5.82603e-07
1.2397e-06
3.7943e-07
3.89265e-07
5.82713e-07
1.23922e-06
3.7943e-07
1.52435e-06
7.85123e-06
1.52499e-06
7.85062e-06
5.82607e-07
3.79432e-07
1.23978e-06
3.8928e-07
5.82718e-07
3.79432e-07
1.23928e-06
1.52462e-06
7.85012e-06
7.85045e-06
1.52428e-06
5.82719e-07
3.89264e-07
1.23929e-06
3.79429e-07
1.23974e-06
3.79429e-07
5.82631e-07
1.52463e-06
7.85041e-06
7.85075e-06
1.52428e-06
5.82724e-07
3.89279e-07
3.79431e-07
1.23936e-06
3.79431e-07
1.2398e-06
5.82634e-07
1.52448e-06
7.84967e-06
1.52519e-06
7.84931e-06
5.82609e-07
3.79431e-07
1.23945e-06
3.89273e-07
5.82718e-07
3.79431e-07
1.23902e-06
1.52448e-06
7.85084e-06
1.52519e-06
7.85029e-06
5.82721e-07
3.89263e-07
1.23908e-06
3.7943e-07
1.23957e-06
3.7943e-07
5.8263e-07
1.52481e-06
7.84909e-06
7.84944e-06
1.52442e-06
5.82724e-07
3.89272e-07
3.79429e-07
1.23908e-06
3.79429e-07
1.23951e-06
5.82635e-07
1.52481e-06
7.85007e-06
7.85039e-06
1.52442e-06
2.54354e-06
2.54272e-06
4.09281e-07
2.54306e-06
2.5423e-06
2.48967e-05
2.48922e-05
2.48902e-05
2.4893e-05
4.09454e-07
2.54325e-06
2.54242e-06
2.54353e-06
2.54266e-06
2.48896e-05
2.4892e-05
5.82594e-07
3.7943e-07
1.23957e-06
3.89264e-07
5.82704e-07
3.7943e-07
1.23912e-06
1.52434e-06
7.85098e-06
1.52498e-06
7.85043e-06
1.52434e-06
7.85128e-06
1.52498e-06
7.85073e-06
5.82716e-07
3.89266e-07
3.79428e-07
1.23908e-06
3.79429e-07
1.23951e-06
5.82624e-07
5.82712e-07
3.89263e-07
3.79429e-07
1.23918e-06
3.79429e-07
1.23961e-06
5.8262e-07
1.52461e-06
7.85021e-06
7.85053e-06
1.52426e-06
1.52461e-06
7.85051e-06
7.85082e-06
1.52426e-06
2.48969e-05
2.48924e-05
2.48981e-05
2.48936e-05
4.09451e-07
2.54245e-06
2.54299e-06
2.54269e-06
2.54322e-06
2.48898e-05
2.48923e-05
2.4891e-05
2.48935e-05
2.48878e-05
2.48862e-05
2.48907e-05
2.48892e-05
2.54267e-06
2.54322e-06
4.09283e-07
2.54238e-06
2.54293e-06
2.48856e-05
2.48866e-05
2.48886e-05
2.48894e-05
4.09455e-07
2.5424e-06
2.54295e-06
2.54269e-06
2.54324e-06
1.52438e-06
7.84952e-06
1.52474e-06
7.84925e-06
5.82619e-07
1.23946e-06
3.79432e-07
3.89275e-07
5.82741e-07
1.23896e-06
3.79432e-07
5.82616e-07
1.23956e-06
3.79433e-07
3.89278e-07
5.82734e-07
1.23907e-06
3.79433e-07
1.52472e-06
7.84879e-06
7.84901e-06
1.52437e-06
1.52473e-06
7.8492e-06
7.84939e-06
1.52438e-06
5.82724e-07
3.89274e-07
1.23894e-06
3.79428e-07
1.23941e-06
3.7943e-07
5.82607e-07
5.82722e-07
3.89277e-07
1.23906e-06
3.79429e-07
1.23953e-06
3.7943e-07
5.82607e-07
2.54326e-06
2.54296e-06
4.09284e-07
2.54295e-06
2.54258e-06
2.48857e-05
2.48843e-05
2.4887e-05
2.48878e-05
4.09456e-07
2.5429e-06
2.54256e-06
2.54329e-06
2.543e-06
2.48842e-05
2.48849e-05
5.82615e-07
1.23977e-06
3.79433e-07
3.89268e-07
5.82739e-07
1.23924e-06
3.79433e-07
1.52426e-06
7.85054e-06
1.52458e-06
7.85021e-06
5.82619e-07
3.79435e-07
1.23984e-06
3.89284e-07
5.82743e-07
3.79434e-07
1.23931e-06
1.52454e-06
7.84985e-06
7.85011e-06
1.52422e-06
5.82719e-07
3.89267e-07
1.23922e-06
3.7943e-07
1.23971e-06
3.79431e-07
5.82602e-07
1.52455e-06
7.85012e-06
7.85036e-06
1.52424e-06
5.82723e-07
3.89282e-07
3.7943e-07
1.23929e-06
3.79432e-07
1.23979e-06
5.82608e-07
1.5244e-06
7.84922e-06
1.52476e-06
7.84893e-06
5.82621e-07
3.79433e-07
1.23952e-06
3.89277e-07
5.82742e-07
3.79432e-07
1.23903e-06
1.5244e-06
7.85017e-06
1.52477e-06
7.84986e-06
5.82719e-07
3.89267e-07
1.23903e-06
3.79429e-07
1.23952e-06
3.79431e-07
5.82605e-07
1.52475e-06
7.84888e-06
7.84908e-06
1.5244e-06
5.82723e-07
3.89275e-07
3.79427e-07
1.23901e-06
3.79429e-07
1.23948e-06
5.82609e-07
1.52475e-06
7.84977e-06
7.84998e-06
1.5244e-06
2.54368e-06
2.54276e-06
4.0929e-07
2.54332e-06
2.54247e-06
2.48896e-05
2.48881e-05
2.48882e-05
2.48893e-05
4.09462e-07
2.54335e-06
2.54249e-06
2.54373e-06
2.54278e-06
2.48875e-05
2.48884e-05
5.82604e-07
3.79432e-07
1.23963e-06
3.89268e-07
5.8273e-07
3.79432e-07
1.23914e-06
1.52424e-06
7.85031e-06
1.52456e-06
7.85e-06
1.52424e-06
7.85061e-06
1.52456e-06
7.8503e-06
5.82712e-07
3.89269e-07
3.79429e-07
1.23901e-06
3.79431e-07
1.23947e-06
5.82595e-07
5.8271e-07
3.89267e-07
3.79428e-07
1.23912e-06
3.79429e-07
1.23959e-06
5.82592e-07
1.52454e-06
7.8499e-06
7.85012e-06
1.52423e-06
1.52454e-06
7.85021e-06
7.85042e-06
1.52423e-06
2.48899e-05
2.48883e-05
2.48911e-05
2.48895e-05
4.09459e-07
2.54251e-06
2.54305e-06
2.54281e-06
2.54335e-06
2.48877e-05
2.48886e-05
2.48889e-05
2.48898e-05
2.48861e-05
2.48863e-05
2.4889e-05
2.48892e-05
2.54269e-06
2.54323e-06
4.09286e-07
2.54237e-06
2.54292e-06
2.48912e-05
2.48874e-05
2.48943e-05
2.48903e-05
4.09457e-07
2.5429e-06
2.54346e-06
2.54279e-06
2.54333e-06
1.52439e-06
7.84938e-06
1.52473e-06
7.8497e-06
5.82611e-07
1.2394e-06
3.79428e-07
3.89273e-07
5.82715e-07
1.23896e-06
3.79425e-07
5.82612e-07
1.23952e-06
3.79428e-07
3.89274e-07
5.82716e-07
1.23917e-06
3.79426e-07
1.52478e-06
7.85055e-06
7.84918e-06
1.52475e-06
1.52479e-06
7.85295e-06
7.85037e-06
1.52474e-06
5.82729e-07
3.89269e-07
1.2392e-06
3.79409e-07
1.23947e-06
3.79421e-07
5.82648e-07
5.82729e-07
3.89266e-07
1.23945e-06
3.79408e-07
1.23972e-06
3.79421e-07
5.82646e-07
2.54321e-06
2.54294e-06
4.09285e-07
2.54311e-06
2.5427e-06
2.48852e-05
2.48862e-05
2.4896e-05
2.48918e-05
4.09455e-07
2.54373e-06
2.54339e-06
2.54366e-06
2.54334e-06
2.4893e-05
2.48887e-05
5.82605e-07
1.2397e-06
3.79429e-07
3.89265e-07
5.82709e-07
1.23925e-06
3.79427e-07
1.52424e-06
7.8503e-06
1.52454e-06
7.85027e-06
5.82611e-07
3.79429e-07
1.23978e-06
3.8928e-07
5.82715e-07
3.79427e-07
1.23932e-06
1.52458e-06
7.8516e-06
7.85035e-06
1.52461e-06
5.8272e-07
3.89261e-07
1.23949e-06
3.7941e-07
1.23978e-06
3.79421e-07
5.82644e-07
1.52459e-06
7.85176e-06
7.85058e-06
1.5246e-06
5.82726e-07
3.89276e-07
3.79411e-07
1.23956e-06
3.79422e-07
1.23985e-06
5.82648e-07
1.5244e-06
7.84914e-06
1.52475e-06
7.84952e-06
5.82613e-07
3.79427e-07
1.23946e-06
3.89274e-07
5.82715e-07
3.79425e-07
1.23903e-06
1.5244e-06
7.84991e-06
1.52475e-06
7.84989e-06
5.82725e-07
3.89255e-07
1.23945e-06
3.79408e-07
1.23972e-06
3.79421e-07
5.82644e-07
1.5248e-06
7.85263e-06
7.8503e-06
1.52475e-06
5.82727e-07
3.8927e-07
3.79409e-07
1.23927e-06
3.79421e-07
1.23954e-06
5.82649e-07
1.5248e-06
7.85135e-06
7.85014e-06
1.52475e-06
2.54373e-06
2.54278e-06
4.09293e-07
2.54333e-06
2.54246e-06
2.4888e-05
2.48881e-05
2.4894e-05
2.48905e-05
4.09463e-07
2.54386e-06
2.54299e-06
2.54384e-06
2.54288e-06
2.48931e-05
2.48892e-05
5.82595e-07
3.79427e-07
1.23958e-06
3.89265e-07
5.827e-07
3.79425e-07
1.23914e-06
1.52423e-06
7.85005e-06
1.52453e-06
7.85002e-06
1.52422e-06
7.85036e-06
1.52453e-06
7.85034e-06
5.82715e-07
3.89263e-07
3.7941e-07
1.23927e-06
3.79421e-07
1.23953e-06
5.82635e-07
5.82712e-07
3.89261e-07
3.79409e-07
1.23938e-06
3.7942e-07
1.23965e-06
5.82632e-07
1.52458e-06
7.85151e-06
7.85028e-06
1.52459e-06
1.52458e-06
7.85181e-06
7.85059e-06
1.52459e-06
2.48882e-05
2.48884e-05
2.48894e-05
2.48896e-05
4.09461e-07
2.54302e-06
2.54355e-06
2.54291e-06
2.54343e-06
2.48934e-05
2.48895e-05
2.48945e-05
2.48906e-05
2.48942e-05
2.48952e-05
2.48972e-05
2.48982e-05
2.54339e-06
2.54394e-06
4.09219e-07
2.54312e-06
2.54369e-06
2.4895e-05
2.48956e-05
2.4898e-05
2.48986e-05
4.09373e-07
2.54297e-06
2.54353e-06
2.5434e-06
2.54396e-06
1.52506e-06
7.85429e-06
1.52526e-06
7.85435e-06
5.82646e-07
1.23975e-06
3.79374e-07
3.8918e-07
5.82766e-07
1.23936e-06
3.79323e-07
5.82642e-07
1.23996e-06
3.79369e-07
3.89157e-07
5.82762e-07
1.23949e-06
3.79318e-07
1.52543e-06
7.85368e-06
7.85388e-06
1.52504e-06
1.52543e-06
7.85427e-06
7.85447e-06
1.52504e-06
5.82751e-07
3.8914e-07
1.23933e-06
3.7925e-07
1.23983e-06
3.79279e-07
5.8263e-07
5.82748e-07
3.89125e-07
1.23946e-06
3.79248e-07
1.23995e-06
3.79275e-07
5.82629e-07
2.54412e-06
2.54389e-06
4.09187e-07
2.54362e-06
2.54332e-06
2.48947e-05
2.48941e-05
2.48967e-05
2.48973e-05
4.09343e-07
2.54348e-06
2.54316e-06
2.54389e-06
2.54368e-06
2.48938e-05
2.48947e-05
5.82643e-07
1.24006e-06
3.79375e-07
3.89172e-07
5.82761e-07
1.23965e-06
3.79324e-07
1.52493e-06
7.85332e-06
1.52508e-06
7.85512e-06
5.82648e-07
3.79377e-07
1.24013e-06
3.89187e-07
5.82766e-07
3.79325e-07
1.23974e-06
1.52523e-06
7.85476e-06
7.85497e-06
1.52489e-06
5.82747e-07
3.89133e-07
1.23963e-06
3.79251e-07
1.24014e-06
3.7928e-07
5.82628e-07
1.52525e-06
7.85512e-06
7.85538e-06
1.52492e-06
5.82752e-07
3.89148e-07
3.79252e-07
1.23971e-06
3.79281e-07
1.24023e-06
5.82633e-07
1.52508e-06
7.85398e-06
1.52527e-06
7.85411e-06
5.82648e-07
3.79374e-07
1.23981e-06
3.8918e-07
5.82765e-07
3.79323e-07
1.23944e-06
1.52508e-06
7.85288e-06
1.52527e-06
7.85475e-06
5.82748e-07
3.89113e-07
1.23945e-06
3.79248e-07
1.23997e-06
3.79275e-07
5.82629e-07
1.52545e-06
7.85398e-06
7.85425e-06
1.52506e-06
5.82751e-07
3.89141e-07
3.7925e-07
1.23942e-06
3.79279e-07
1.2399e-06
5.82633e-07
1.52545e-06
7.85474e-06
7.85494e-06
1.52506e-06
2.54447e-06
2.54348e-06
4.09225e-07
2.54413e-06
2.54322e-06
2.4896e-05
2.4897e-05
2.48977e-05
2.48986e-05
4.09378e-07
2.54393e-06
2.54306e-06
2.54449e-06
2.5435e-06
2.48968e-05
2.48975e-05
5.82632e-07
3.79375e-07
1.23992e-06
3.89171e-07
5.8275e-07
3.79323e-07
1.23955e-06
1.52492e-06
7.85306e-06
1.52506e-06
7.85489e-06
1.52491e-06
7.85335e-06
1.52506e-06
7.8552e-06
5.8274e-07
3.89133e-07
3.79251e-07
1.23942e-06
3.79279e-07
1.23989e-06
5.8262e-07
5.82737e-07
3.89132e-07
3.7925e-07
1.23953e-06
3.79279e-07
1.24002e-06
5.82617e-07
1.52524e-06
7.85488e-06
7.85508e-06
1.5249e-06
1.52523e-06
7.85518e-06
7.85539e-06
1.5249e-06
2.48963e-05
2.48973e-05
2.48974e-05
2.48985e-05
4.09375e-07
2.54308e-06
2.54361e-06
2.54351e-06
2.54405e-06
2.48971e-05
2.48977e-05
2.48983e-05
2.48989e-05
2.48954e-05
2.48948e-05
2.48983e-05
2.48978e-05
2.54327e-06
2.54383e-06
4.09142e-07
2.54293e-06
2.54349e-06
2.48948e-05
2.48953e-05
2.48978e-05
2.48983e-05
4.09315e-07
2.54291e-06
2.54349e-06
2.54325e-06
2.5438e-06
1.52502e-06
7.8544e-06
1.52539e-06
7.85423e-06
5.82625e-07
1.23979e-06
3.79238e-07
3.89101e-07
5.82738e-07
1.23932e-06
3.79234e-07
5.82624e-07
1.23993e-06
3.79237e-07
3.89099e-07
5.82737e-07
1.23945e-06
3.79234e-07
1.52538e-06
7.85361e-06
7.85377e-06
1.52502e-06
1.52538e-06
7.85423e-06
7.85438e-06
1.52502e-06
5.82734e-07
3.89098e-07
1.23932e-06
3.79231e-07
1.23978e-06
3.79231e-07
5.82625e-07
5.82732e-07
3.89097e-07
1.23945e-06
3.79231e-07
1.23992e-06
3.79231e-07
5.82622e-07
2.54379e-06
2.54356e-06
4.0914e-07
2.54344e-06
2.54314e-06
2.48944e-05
2.48937e-05
2.48968e-05
2.48972e-05
4.09313e-07
2.54343e-06
2.54314e-06
2.54376e-06
2.54355e-06
2.48937e-05
2.48944e-05
5.82622e-07
1.24011e-06
3.79238e-07
3.89093e-07
5.82734e-07
1.23961e-06
3.79235e-07
1.5249e-06
7.85527e-06
1.52522e-06
7.85504e-06
5.82627e-07
3.7924e-07
1.24019e-06
3.89107e-07
5.8274e-07
3.79236e-07
1.23969e-06
1.52519e-06
7.85469e-06
7.85489e-06
1.52487e-06
5.82729e-07
3.89089e-07
1.23961e-06
3.79231e-07
1.2401e-06
3.79231e-07
5.82621e-07
1.52521e-06
7.85501e-06
7.8552e-06
1.52489e-06
5.82734e-07
3.89104e-07
3.79233e-07
1.23968e-06
3.79233e-07
1.24018e-06
5.82626e-07
1.52504e-06
7.85414e-06
1.52541e-06
7.85393e-06
5.82628e-07
3.79238e-07
1.23987e-06
3.891e-07
5.82738e-07
3.79234e-07
1.2394e-06
1.52504e-06
7.85487e-06
1.52541e-06
7.85468e-06
5.8273e-07
3.89087e-07
1.23943e-06
3.79231e-07
1.23992e-06
3.79233e-07
5.82623e-07
1.5254e-06
7.85392e-06
7.8541e-06
1.52503e-06
5.82734e-07
3.89097e-07
3.79231e-07
1.2394e-06
3.79231e-07
1.23986e-06
5.82628e-07
1.5254e-06
7.85465e-06
7.85482e-06
1.52503e-06
2.54431e-06
2.54337e-06
4.09149e-07
2.54387e-06
2.54303e-06
2.48973e-05
2.48967e-05
2.48975e-05
2.48982e-05
4.09321e-07
2.54387e-06
2.54302e-06
2.54428e-06
2.54335e-06
2.48967e-05
2.48972e-05
5.82612e-07
3.79238e-07
1.23999e-06
3.89091e-07
5.82725e-07
3.79234e-07
1.23951e-06
1.52488e-06
7.85501e-06
1.52521e-06
7.85482e-06
1.52488e-06
7.85531e-06
1.52521e-06
7.85512e-06
5.82722e-07
3.89092e-07
3.79232e-07
1.2394e-06
3.79233e-07
1.23985e-06
5.82614e-07
5.8272e-07
3.89088e-07
3.79231e-07
1.23951e-06
3.79231e-07
1.23998e-06
5.8261e-07
1.52519e-06
7.85479e-06
7.85496e-06
1.52487e-06
1.52519e-06
7.85509e-06
7.85526e-06
1.52487e-06
2.48975e-05
2.48969e-05
2.48987e-05
2.48981e-05
4.09318e-07
2.54304e-06
2.54358e-06
2.54337e-06
2.5439e-06
2.48969e-05
2.48974e-05
2.48981e-05
2.48986e-05
2.48953e-05
2.48948e-05
2.48982e-05
2.48978e-05
2.54322e-06
2.5438e-06
4.09158e-07
2.54289e-06
2.54348e-06
2.48948e-05
2.48953e-05
2.48978e-05
2.48983e-05
4.09328e-07
2.54289e-06
2.54349e-06
2.54321e-06
2.5438e-06
1.52502e-06
7.85437e-06
1.52538e-06
7.85407e-06
5.82627e-07
1.23978e-06
3.79235e-07
3.89101e-07
5.82734e-07
1.23932e-06
3.79235e-07
5.82625e-07
1.23991e-06
3.79235e-07
3.89099e-07
5.82732e-07
1.23948e-06
3.79235e-07
1.52538e-06
7.85355e-06
7.85376e-06
1.52502e-06
1.52538e-06
7.854e-06
7.85423e-06
1.52502e-06
5.82736e-07
3.89098e-07
1.23932e-06
3.79231e-07
1.23978e-06
3.79232e-07
5.82626e-07
5.82735e-07
3.89097e-07
1.23953e-06
3.79231e-07
1.23999e-06
3.79231e-07
5.82624e-07
2.54375e-06
2.54355e-06
4.09152e-07
2.54353e-06
2.54314e-06
2.48944e-05
2.48937e-05
2.48955e-05
2.48963e-05
4.0932e-07
2.54368e-06
2.54315e-06
2.54398e-06
2.54356e-06
2.48937e-05
2.48944e-05
5.82623e-07
1.2401e-06
3.79235e-07
3.89093e-07
5.82728e-07
1.23961e-06
3.79235e-07
1.52489e-06
7.85519e-06
1.5252e-06
7.855e-06
5.82628e-07
3.79237e-07
1.24017e-06
3.89108e-07
5.82734e-07
3.79237e-07
1.23968e-06
1.52518e-06
7.85469e-06
7.85488e-06
1.52487e-06
5.82731e-07
3.8909e-07
1.23961e-06
3.79231e-07
1.2401e-06
3.79232e-07
5.82623e-07
1.5252e-06
7.85501e-06
7.85518e-06
1.52489e-06
5.82737e-07
3.89105e-07
3.79233e-07
1.23968e-06
3.79233e-07
1.24017e-06
5.82628e-07
1.52504e-06
7.85409e-06
1.52539e-06
7.85392e-06
5.82629e-07
3.79235e-07
1.23986e-06
3.89101e-07
5.82735e-07
3.79235e-07
1.2394e-06
1.52504e-06
7.8548e-06
1.52539e-06
7.85464e-06
5.82732e-07
3.89087e-07
1.23943e-06
3.7923e-07
1.23992e-06
3.79232e-07
5.82624e-07
1.52539e-06
7.85392e-06
7.85409e-06
1.52503e-06
5.82736e-07
3.89098e-07
3.79231e-07
1.2394e-06
3.79231e-07
1.23986e-06
5.82629e-07
1.52539e-06
7.85464e-06
7.85479e-06
1.52504e-06
2.54428e-06
2.54334e-06
4.09164e-07
2.54387e-06
2.54302e-06
2.48972e-05
2.48967e-05
2.48975e-05
2.48982e-05
4.09334e-07
2.54387e-06
2.54302e-06
2.54428e-06
2.54334e-06
2.48967e-05
2.48972e-05
5.82612e-07
3.79235e-07
1.23997e-06
3.89092e-07
5.82719e-07
3.79235e-07
1.23951e-06
1.52487e-06
7.85494e-06
1.52518e-06
7.85478e-06
1.52487e-06
7.85524e-06
1.52518e-06
7.85509e-06
5.82723e-07
3.89092e-07
3.79231e-07
1.2394e-06
3.79233e-07
1.23985e-06
5.82614e-07
5.82721e-07
3.89089e-07
3.79231e-07
1.23951e-06
3.79231e-07
1.23997e-06
5.82611e-07
1.52518e-06
7.85478e-06
7.85493e-06
1.52487e-06
1.52518e-06
7.85509e-06
7.85523e-06
1.52487e-06
2.48974e-05
2.48969e-05
2.48986e-05
2.48981e-05
4.09331e-07
2.54304e-06
2.54358e-06
2.54337e-06
2.5439e-06
2.48969e-05
2.48974e-05
2.48981e-05
2.48986e-05
2.48953e-05
2.48953e-05
2.48982e-05
2.48978e-05
2.54322e-06
2.5438e-06
4.09153e-07
2.54293e-06
2.54348e-06
2.48953e-05
2.48958e-05
2.48978e-05
2.48982e-05
4.09326e-07
2.54294e-06
2.54348e-06
2.54329e-06
2.5438e-06
1.52502e-06