/*--------------------------------*- C++ -*----------------------------------*\
| =========                 |                                                 |
| \\      /  F ield         | OpenFOAM: The Open Source CFD Toolbox           |
|  \\    /   O peration     | Version:  2206                                  |
|   \\  /    A nd           | Website:  www.openfoam.com                      |
|    \\/     M anipulation  |                                                 |
\*---------------------------------------------------------------------------*/
FoamFile
{
    version     2.0;
    format      ascii;
    arch        "LSB;label=32;scalar=64";
    class       volScalarField;
    location    "14.5";
    object      nut;
}
// * * * * * * * * * * * * * * * * * * * * * * * * * * * * * * * * * * * * * //

dimensions      [0 2 -1 0 0 0 0];

internalField   nonuniform List<scalar> 
28687
(
0.000229844
0.000219987
0.000219983
0.000206533
0.000229843
0.000219986
0.000219982
0.000206527
0.000229842
0.000219983
0.000219978
0.000206523
0.000229817
0.00021994
0.000219944
0.00020647
0.000229827
0.000219938
0.000219934
0.000206446
0.000229829
0.000219939
0.000219936
0.000206443
0.000229829
0.00021994
0.000219936
0.000206446
0.000229829
0.00021994
0.000219936
0.000206445
0.000229829
0.00021994
0.000219936
0.000206445
0.000229829
0.00021994
0.000219936
0.000206445
0.000229829
0.000219939
0.000219936
0.000206445
0.000229829
0.000219939
0.000219936
0.000206445
0.000229829
0.000219939
0.000219936
0.000206445
0.000229829
0.000219939
0.000219936
0.000206444
0.000229829
0.000219939
0.000219936
0.000206445
0.000229829
0.000219939
0.000219936
0.000206445
0.000229829
0.000219939
0.000219936
0.000206445
0.000229829
0.000219939
0.000219936
0.000206444
0.000219978
0.000206643
0.000219987
0.000206536
0.000206635
0.000219979
0.000219978
0.000219978
0.000219977
0.000206538
0.000206636
0.000219984
0.000219973
0.000219983
0.000219972
0.000219978
0.000219986
0.000219978
0.00020653
0.00020663
0.000219985
0.000219982
0.000219984
0.000206632
0.000206533
0.000206631
0.000219976
0.000219977
0.000219975
0.000219977
0.000206533
0.000206633
0.000219981
0.00021997
0.00021998
0.000219969
0.000219975
0.000219984
0.000219975
0.000206528
0.000206626
0.000219981
0.000219979
0.000219981
0.00020663
0.000206527
0.000206602
0.000219974
0.000219975
0.000219961
0.000219945
0.000206529
0.000206577
0.00021998
0.000219969
0.000219966
0.000219956
0.000219974
0.000219957
0.00021996
0.000206523
0.000206596
0.00021998
0.000219965
0.000219966
0.000206598
0.000206477
0.00020655
0.00021994
0.00021993
0.000219926
0.000219927
0.000206451
0.000206556
0.000219945
0.000219935
0.000219932
0.000219921
0.00021994
0.000219936
0.000219926
0.000206472
0.000206544
0.000219945
0.00021993
0.000219932
0.000206548
0.00020645
0.000206553
0.00021993
0.000219931
0.000219931
0.000219931
0.000206455
0.000206552
0.000219935
0.000219925
0.000219936
0.000219925
0.00021993
0.000219939
0.000219931
0.000206445
0.000206548
0.000219936
0.000219936
0.000219937
0.00020655
0.000206448
0.000206553
0.000219931
0.000219931
0.000219931
0.000219932
0.000206448
0.000206556
0.000219936
0.000219925
0.000219937
0.000219926
0.000219931
0.00021994
0.000219931
0.000206443
0.000206548
0.000219937
0.000219937
0.000219938
0.000206551
0.000206451
0.000206552
0.000219931
0.000219932
0.000219931
0.000219931
0.000206453
0.000206555
0.000219937
0.000219926
0.000219937
0.000219926
0.000219932
0.00021994
0.000219931
0.000206446
0.000206547
0.000219938
0.000219937
0.000219938
0.00020655
0.000206449
0.000206551
0.000219931
0.000219931
0.000219931
0.00021993
0.000206453
0.000206554
0.000219937
0.000219926
0.000219937
0.000219926
0.000219932
0.00021994
0.000219931
0.000206445
0.000206546
0.000219938
0.000219937
0.000219938
0.00020655
0.000206449
0.000206551
0.000219932
0.000219931
0.000219932
0.000219931
0.000206452
0.000206554
0.000219937
0.000219926
0.000219937
0.000219926
0.000219932
0.00021994
0.000219931
0.000206445
0.000206547
0.000219938
0.000219937
0.000219938
0.00020655
0.000206449
0.000206552
0.000219932
0.000219931
0.000219932
0.000219931
0.000206452
0.000206554
0.000219937
0.000219926
0.000219937
0.000219926
0.000219932
0.00021994
0.000219931
0.000206445
0.000206547
0.000219938
0.000219937
0.000219938
0.00020655
0.000206449
0.000206552
0.000219932
0.000219931
0.000219932
0.000219931
0.000206451
0.000206554
0.000219938
0.000219926
0.000219938
0.000219926
0.000219932
0.00021994
0.000219931
0.000206445
0.000206546
0.000219938
0.000219937
0.000219937
0.00020655
0.000206449
0.000206551
0.000219932
0.000219931
0.000219932
0.000219931
0.000206451
0.000206554
0.000219938
0.000219926
0.000219938
0.000219926
0.000219932
0.00021994
0.000219931
0.000206445
0.000206547
0.000219937
0.000219937
0.000219937
0.00020655
0.000206449
0.000206551
0.000219932
0.000219931
0.000219931
0.000219931
0.000206451
0.000206554
0.000219938
0.000219926
0.000219938
0.000219926
0.000219932
0.00021994
0.000219931
0.000206445
0.000206547
0.000219937
0.000219937
0.000219937
0.00020655
0.000206449
0.000206551
0.000219932
0.000219931
0.000219931
0.000219931
0.000206451
0.000206554
0.000219938
0.000219926
0.000219938
0.000219926
0.000219932
0.00021994
0.000219931
0.000206445
0.000206547
0.000219937
0.000219937
0.000219937
0.00020655
0.000206449
0.000206551
0.000219932
0.000219931
0.000219931
0.000219931
0.000206451
0.000206554
0.000219938
0.000219926
0.000219938
0.000219926
0.000219932
0.00021994
0.000219931
0.000206445
0.000206547
0.000219937
0.000219937
0.000219937
0.00020655
0.000206449
0.000206551
0.000219932
0.000219931
0.000219931
0.000219931
0.000206451
0.000206553
0.000219938
0.000219926
0.000219938
0.000219926
0.000219932
0.00021994
0.000219931
0.000206445
0.000206547
0.000219937
0.000219937
0.000219937
0.00020655
0.000206449
0.000206551
0.000219932
0.000219931
0.000219931
0.000219931
0.000206451
0.000206554
0.000219938
0.000219926
0.000219938
0.000219926
0.000219932
0.00021994
0.000219931
0.000206445
0.000206547
0.000219937
0.000219937
0.000219937
0.00020655
0.000206449
0.000219932
0.000219931
0.000206451
0.000219938
0.000219926
0.000219931
0.000206445
0.000219937
5.9445e-05
4.75427e-05
5.94193e-05
4.75415e-05
2.61025e-05
2.61013e-05
5.94519e-05
4.7539e-05
5.94285e-05
4.75378e-05
0.000229845
0.000229843
0.000229843
0.000229843
0.000229845
0.000229842
0.000229843
0.000140438
7.1727e-05
0.000227008
0.000219988
0.000140413
7.17427e-05
0.000227008
2.61009e-05
2.60992e-05
0.000140441
0.000227006
7.17275e-05
0.000219983
0.000140416
0.000227006
7.17434e-05
3.95086e-05
3.95011e-05
0.000206636
3.95199e-05
3.95122e-05
5.94573e-05
4.75418e-05
5.9443e-05
4.75408e-05
2.61007e-05
2.61003e-05
5.94647e-05
4.75381e-05
5.94512e-05
4.7537e-05
0.000229844
0.000229842
0.000229843
0.000229842
0.000229843
0.000229841
0.000229842
0.00014044
7.17277e-05
0.000227007
0.000219985
0.000140406
7.17534e-05
0.000227005
2.60984e-05
2.60978e-05
0.000140443
0.000227006
7.17243e-05
0.000219979
0.000140408
0.000227004
7.175e-05
3.95237e-05
3.9516e-05
0.000206632
3.95317e-05
3.9524e-05
5.94587e-05
4.75413e-05
5.945e-05
4.75408e-05
2.61004e-05
2.61009e-05
5.94667e-05
4.75376e-05
5.94589e-05
4.75371e-05
0.000229843
0.000229841
0.000229842
0.000229832
0.000229826
0.000229831
0.000229831
0.000140438
7.17359e-05
0.000227006
0.000219981
0.000140417
7.17483e-05
0.000227005
2.60979e-05
2.60979e-05
0.000140441
0.000227004
7.17363e-05
0.000219977
0.00014042
0.000227003
7.17539e-05
3.9533e-05
3.95254e-05
0.000206626
3.9536e-05
3.95283e-05
5.94031e-05
4.7547e-05
5.94178e-05
4.75504e-05
2.61034e-05
2.61033e-05
5.94092e-05
4.75433e-05
5.94262e-05
4.75465e-05
0.000229815
0.000229817
0.000229817
0.000229823
0.000229824
0.000229822
0.000229823
0.00014033
7.16896e-05
0.000226973
0.000219934
0.000140365
7.16869e-05
0.000226969
2.61006e-05
2.61009e-05
0.000140333
0.000226974
7.17033e-05
0.000219932
0.000140368
0.000226969
7.16975e-05
3.9516e-05
3.95084e-05
0.000206551
3.9503e-05
3.94952e-05
5.93893e-05
4.7551e-05
5.93789e-05
4.75503e-05
2.61034e-05
2.61032e-05
5.93974e-05
4.75474e-05
5.93881e-05
4.75465e-05
0.000229828
0.000229827
0.000229827
0.000229829
0.00022983
0.000229829
0.000229829
0.000140319
7.16569e-05
0.000226979
0.000219939
0.00014029
7.1677e-05
0.00022698
2.61011e-05
2.61008e-05
0.000140322
0.000226978
7.16619e-05
0.000219936
0.000140293
0.00022698
7.16801e-05
3.94889e-05
3.94811e-05
0.000206557
3.94927e-05
3.94848e-05
5.93892e-05
4.75509e-05
5.93782e-05
4.75502e-05
2.61034e-05
2.61033e-05
5.93974e-05
4.75473e-05
5.93875e-05
4.75465e-05
0.000229829
0.000229829
0.000229829
0.000229829
0.00022983
0.000229829
0.000229829
0.000140319
7.16563e-05
0.00022698
0.00021994
0.00014029
7.1677e-05
0.000226981
2.61011e-05
2.61008e-05
0.000140322
0.00022698
7.16602e-05
0.000219936
0.000140294
0.00022698
7.16798e-05
3.94889e-05
3.94812e-05
0.000206548
3.94928e-05
3.9485e-05
5.93892e-05
4.75512e-05
5.93782e-05
4.75504e-05
2.61033e-05
2.61029e-05
5.93974e-05
4.75473e-05
5.93876e-05
4.75465e-05
0.00022983
0.000229829
0.000229829
0.000229829
0.00022983
0.000229829
0.000229829
0.000140319
7.16563e-05
0.000226981
0.00021994
0.000140291
7.16769e-05
0.000226981
2.61011e-05
2.61008e-05
0.000140323
0.00022698
7.16602e-05
0.000219937
0.000140294
0.00022698
7.16798e-05
3.9489e-05
3.94812e-05
0.000206551
3.94929e-05
3.9485e-05
5.93891e-05
4.75509e-05
5.93782e-05
4.75499e-05
2.61034e-05
2.61034e-05
5.93976e-05
4.75473e-05
5.93877e-05
4.75465e-05
0.00022983
0.000229829
0.000229829
0.000229829
0.00022983
0.000229829
0.000229829
0.000140319
7.16562e-05
0.000226981
0.00021994
0.00014029
7.16769e-05
0.000226981
2.61011e-05
2.61008e-05
0.000140323
0.00022698
7.16602e-05
0.000219937
0.000140294
0.00022698
7.16798e-05
3.9489e-05
3.94812e-05
0.000206551
3.94929e-05
3.9485e-05
5.93891e-05
4.75506e-05
5.93781e-05
4.75496e-05
2.61037e-05
2.61036e-05
5.93976e-05
4.75475e-05
5.93878e-05
4.75469e-05
0.00022983
0.000229829
0.000229829
0.000229829
0.00022983
0.000229829
0.000229829
0.000140319
7.16563e-05
0.000226981
0.00021994
0.00014029
7.1677e-05
0.000226981
2.61011e-05
2.61008e-05
0.000140322
0.00022698
7.16602e-05
0.000219937
0.000140294
0.00022698
7.16798e-05
3.9489e-05
3.94812e-05
0.000206551
3.94929e-05
3.9485e-05
5.93891e-05
4.75502e-05
5.93781e-05
4.75494e-05
2.61038e-05
2.61036e-05
5.93976e-05
4.75477e-05
5.93878e-05
4.75471e-05
0.00022983
0.000229829
0.000229829
0.000229829
0.00022983
0.000229829
0.000229829
0.000140319
7.16563e-05
0.000226981
0.00021994
0.00014029
7.1677e-05
0.000226981
2.61011e-05
2.61008e-05
0.000140322
0.00022698
7.16602e-05
0.000219937
0.000140294
0.00022698
7.16798e-05
3.9489e-05
3.94812e-05
0.000206551
3.94929e-05
3.9485e-05
5.93891e-05
4.755e-05
5.93781e-05
4.75492e-05
2.61038e-05
2.61036e-05
5.93976e-05
4.75479e-05
5.93878e-05
4.75472e-05
0.00022983
0.000229829
0.000229829
0.000229829
0.00022983
0.000229829
0.000229829
0.000140319
7.16563e-05
0.000226981
0.00021994
0.00014029
7.1677e-05
0.000226981
2.61011e-05
2.61008e-05
0.000140322
0.00022698
7.16602e-05
0.000219937
0.000140294
0.00022698
7.16798e-05
3.9489e-05
3.94812e-05
0.000206551
3.94929e-05
3.9485e-05
5.93892e-05
4.75499e-05
5.93782e-05
4.75492e-05
2.61038e-05
2.61036e-05
5.93976e-05
4.7548e-05
5.93878e-05
4.75472e-05
0.00022983
0.000229829
0.000229829
0.000229829
0.00022983
0.000229829
0.000229829
0.000140319
7.16563e-05
0.000226981
0.00021994
0.00014029
7.1677e-05
0.000226981
2.61011e-05
2.61008e-05
0.000140322
0.00022698
7.16602e-05
0.000219937
0.000140294
0.00022698
7.16798e-05
3.9489e-05
3.94812e-05
0.000206551
3.94929e-05
3.9485e-05
5.93892e-05
4.75499e-05
5.93782e-05
4.75492e-05
2.61038e-05
2.61037e-05
5.93976e-05
4.7548e-05
5.93878e-05
4.75473e-05
0.00022983
0.000229829
0.000229829
0.000229829
0.00022983
0.000229829
0.000229829
0.000140319
7.16563e-05
0.000226981
0.00021994
0.00014029
7.1677e-05
0.000226981
2.61011e-05
2.61008e-05
0.000140322
0.00022698
7.16602e-05
0.000219937
0.000140294
0.00022698
7.16798e-05
3.9489e-05
3.94812e-05
0.000206551
3.94929e-05
3.9485e-05
5.93891e-05
4.75499e-05
5.93782e-05
4.75492e-05
2.61038e-05
2.61037e-05
5.93976e-05
4.7548e-05
5.93878e-05
4.75473e-05
0.00022983
0.000229829
0.000229829
0.000229829
0.00022983
0.000229829
0.000229829
0.000140319
7.16563e-05
0.000226981
0.00021994
0.00014029
7.1677e-05
0.000226981
2.61011e-05
2.61008e-05
0.000140322
0.00022698
7.16602e-05
0.000219937
0.000140293
0.00022698
7.16798e-05
3.9489e-05
3.94812e-05
0.000206551
3.94929e-05
3.9485e-05
5.93891e-05
4.75499e-05
5.93782e-05
4.75492e-05
2.61038e-05
2.61037e-05
5.93976e-05
4.7548e-05
5.93878e-05
4.75473e-05
0.00022983
0.000229829
0.000229829
0.000229829
0.00022983
0.000229829
0.000229829
0.000140319
7.16563e-05
0.000226981
0.00021994
0.00014029
7.1677e-05
0.000226981
2.61011e-05
2.61008e-05
0.000140322
0.00022698
7.16602e-05
0.000219937
0.000140293
0.00022698
7.16798e-05
3.9489e-05
3.94812e-05
0.000206551
3.94929e-05
3.9485e-05
5.93891e-05
4.75499e-05
5.93781e-05
4.75492e-05
2.61038e-05
2.61036e-05
5.93976e-05
4.7548e-05
5.93877e-05
4.75473e-05
0.00022983
0.000229829
0.000229829
0.000229829
0.00022983
0.000229829
0.000229829
0.000140319
7.16562e-05
0.000226981
0.00021994
0.00014029
7.16769e-05
0.000226981
2.61011e-05
2.61008e-05
0.000140322
0.00022698
7.16602e-05
0.000219937
0.000140293
0.00022698
7.16798e-05
3.9489e-05
3.94812e-05
0.000206551
3.94929e-05
3.9485e-05
5.93891e-05
4.75499e-05
5.93781e-05
4.75492e-05
2.61038e-05
2.61036e-05
5.93976e-05
4.7548e-05
5.93877e-05
4.75473e-05
0.00022983
0.000229829
0.000229829
0.000229829
0.00022983
0.000229829
0.000229829
0.000140319
7.16562e-05
0.000226981
0.00021994
0.00014029
7.16769e-05
0.000226981
2.61011e-05
2.61008e-05
0.000140322
0.00022698
7.16602e-05
0.000219937
0.000140293
0.00022698
7.16798e-05
3.9489e-05
3.94812e-05
0.000206551
3.94929e-05
3.9485e-05
5.93814e-05
4.75499e-05
5.93782e-05
4.75493e-05
2.61038e-05
2.61037e-05
5.93883e-05
4.7548e-05
5.93878e-05
4.75475e-05
0.00022983
0.000229829
0.000229829
0.000140319
7.16563e-05
0.000226981
0.00021994
0.00014029
7.1677e-05
0.000226981
2.61011e-05
2.61009e-05
0.000140325
0.00022698
7.16602e-05
0.000219937
0.000140293
0.00022698
7.16813e-05
3.9489e-05
3.94812e-05
0.000206555
3.94929e-05
3.94813e-05
4.75411e-05
7.17498e-05
2.61027e-05
3.95118e-05
3.95109e-05
2.61032e-05
7.17485e-05
4.754e-05
2.61046e-05
2.61031e-05
2.61024e-05
2.61009e-05
3.95109e-05
3.95021e-05
0.000206638
3.95221e-05
3.95132e-05
2.61021e-05
2.6103e-05
2.61e-05
2.61008e-05
0.000206535
3.95281e-05
3.95194e-05
3.95211e-05
3.95123e-05
5.94456e-05
4.75414e-05
5.94197e-05
4.75408e-05
0.000140438
7.17303e-05
0.000227007
0.000219979
0.000140412
7.17482e-05
0.000227007
0.00014044
7.17316e-05
0.000227007
0.000219978
0.000140413
7.17434e-05
0.000227007
5.94395e-05
4.75412e-05
4.75418e-05
5.94525e-05
5.94401e-05
4.75403e-05
4.7541e-05
5.94533e-05
0.000140415
0.000219979
7.17465e-05
0.000227007
7.17301e-05
0.000227007
0.000140435
0.000140417
0.000219977
7.17468e-05
0.000227008
7.17264e-05
0.000227008
0.000140438
3.9511e-05
3.95095e-05
0.000206638
3.95178e-05
3.95159e-05
2.61031e-05
2.61018e-05
2.61006e-05
2.61013e-05
0.000206534
3.95236e-05
3.95214e-05
3.9517e-05
3.95147e-05
2.61011e-05
2.61018e-05
0.000140441
7.1716e-05
0.000227007
0.000219984
0.000140416
7.17355e-05
0.000227007
5.94499e-05
4.75368e-05
5.94263e-05
4.75356e-05
0.000140438
0.000227005
7.17079e-05
0.000219973
0.000140413
0.000227005
7.17282e-05
5.94475e-05
4.75374e-05
4.75381e-05
5.94595e-05
0.000140417
0.000219984
7.17328e-05
0.000227007
7.17162e-05
0.000227008
0.000140437
5.94455e-05
4.75352e-05
4.75359e-05
5.94577e-05
0.000140415
0.000219973
0.000227005
7.17257e-05
0.000227005
7.1709e-05
0.000140435
5.94447e-05
4.75404e-05
5.9419e-05
4.75397e-05
0.000140437
0.000227006
7.17266e-05
0.000219978
0.000140412
0.000227006
7.17437e-05
5.94443e-05
4.75397e-05
5.94184e-05
4.75385e-05
0.000140415
0.000219987
7.17462e-05
0.000227007
7.17251e-05
0.000227008
0.000140433
5.94391e-05
4.75392e-05
4.75399e-05
5.94523e-05
0.000140414
0.000219978
0.000227006
7.17422e-05
0.000227007
7.17256e-05
0.000140434
5.94387e-05
4.75381e-05
4.75387e-05
5.94518e-05
3.9491e-05
3.95086e-05
0.000206633
3.95027e-05
3.95199e-05
2.61033e-05
2.61017e-05
2.60983e-05
2.60993e-05
0.000206529
3.95084e-05
3.9526e-05
3.95013e-05
3.95188e-05
2.61008e-05
2.61017e-05
0.000140443
0.000227007
7.17222e-05
0.000219985
0.000140418
0.000227007
7.17405e-05
5.94508e-05
4.75394e-05
5.94273e-05
4.75383e-05
5.94512e-05
4.75391e-05
5.94276e-05
4.7538e-05
0.000140417
0.000219983
0.000227007
7.17421e-05
0.000227007
7.17255e-05
0.000140435
0.000140419
0.000219985
0.000227007
7.17387e-05
0.000227007
7.17223e-05
0.000140439
5.94464e-05
4.75379e-05
4.75385e-05
5.94586e-05
5.94468e-05
4.75375e-05
4.75382e-05
5.9459e-05
2.61031e-05
2.61016e-05
2.61022e-05
2.61007e-05
0.000206532
3.9526e-05
3.95183e-05
3.95188e-05
3.95112e-05
2.61006e-05
2.61015e-05
2.60998e-05
2.61006e-05
2.61022e-05
2.61016e-05
2.61e-05
2.60995e-05
3.9527e-05
3.95186e-05
0.000206634
3.95337e-05
3.95251e-05
2.61014e-05
2.61017e-05
2.60993e-05
2.60996e-05
0.00020653
3.95378e-05
3.95294e-05
3.95325e-05
3.95241e-05
5.94581e-05
4.75406e-05
5.94467e-05
4.754e-05
0.000140443
7.17313e-05
0.000227006
0.000219976
0.000140414
7.17538e-05
0.000227006
0.000140445
7.17322e-05
0.000227006
0.000219977
0.000140417
7.1754e-05
0.000227006
5.94505e-05
4.75406e-05
4.75411e-05
5.94604e-05
5.94513e-05
4.75399e-05
4.75403e-05
5.94611e-05
0.000140423
0.000219976
7.17593e-05
0.000227005
7.1739e-05
0.000227005
0.000140449
0.000140425
0.000219978
7.17572e-05
0.000227007
7.17385e-05
0.000227006
0.000140451
3.95227e-05
3.95201e-05
0.000206635
3.95288e-05
3.95264e-05
2.61012e-05
2.61007e-05
2.61002e-05
2.61004e-05
0.000206532
3.95322e-05
3.953e-05
3.95273e-05
3.95244e-05
2.61006e-05
2.61009e-05
0.000140446
7.17171e-05
0.000227004
0.000219981
0.000140416
7.17409e-05
0.000227003
5.94628e-05
4.75354e-05
5.94523e-05
4.75348e-05
0.000140443
0.000227002
7.17099e-05
0.00021997
0.000140414
0.000227002
7.17336e-05
5.94591e-05
4.75369e-05
4.75374e-05
5.94681e-05
0.000140426
0.000219981
7.1746e-05
0.000227004
7.17253e-05
0.000227003
0.00014045
5.94571e-05
4.75346e-05
4.75351e-05
5.94659e-05
0.000140423
0.000219969
0.000227003
7.17387e-05
0.000227002
7.17179e-05
0.000140448
5.94567e-05
4.75395e-05
5.94455e-05
4.75389e-05
0.000140442
0.000227004
7.17272e-05
0.000219975
0.000140413
0.000227004
7.17497e-05
5.94564e-05
4.75383e-05
5.94451e-05
4.75377e-05
0.000140419
0.000219984
7.17566e-05
0.000227006
7.17373e-05
0.000227006
0.000140445
5.94498e-05
4.75388e-05
4.75392e-05
5.94595e-05
0.000140422
0.000219975
0.000227005
7.17546e-05
0.000227005
7.17349e-05
0.000140445
5.94494e-05
4.75375e-05
4.75379e-05
5.9459e-05
3.95067e-05
3.9525e-05
0.000206629
3.95139e-05
3.95317e-05
2.61008e-05
2.61003e-05
2.60976e-05
2.6098e-05
0.000206525
3.95179e-05
3.95359e-05
3.95119e-05
3.95304e-05
2.61001e-05
2.61004e-05
0.000140447
0.000227005
7.17234e-05
0.000219981
0.000140418
0.000227004
7.17457e-05
5.94635e-05
4.75381e-05
5.94531e-05
4.75374e-05
5.94641e-05
4.75377e-05
5.94536e-05
4.75371e-05
0.000140422
0.000219979
0.000227004
7.1755e-05
0.000227004
7.17356e-05
0.000140448
0.000140427
0.000219982
0.000227005
7.17505e-05
0.000227004
7.17306e-05
0.000140452
5.94578e-05
4.75372e-05
4.75377e-05
5.94667e-05
5.94584e-05
4.75369e-05
4.75374e-05
5.94671e-05
2.61007e-05
2.61001e-05
2.60998e-05
2.60992e-05
0.000206529
3.95358e-05
3.95281e-05
3.95304e-05
3.95228e-05
2.60999e-05
2.61002e-05
2.6099e-05
2.60994e-05
2.61016e-05
2.61016e-05
2.60994e-05
2.60994e-05
3.95363e-05
3.95281e-05
0.000206627
3.95381e-05
3.95298e-05
2.61032e-05
2.6102e-05
2.61011e-05
2.60998e-05
0.000206521
3.95262e-05
3.95178e-05
3.95334e-05
3.95253e-05
5.94593e-05
4.75403e-05
5.94534e-05
4.75408e-05
0.000140438
7.17432e-05
0.000227005
0.000219973
0.000140421
7.17581e-05
0.000227004
0.00014044
7.17401e-05
0.000227006
0.000219972
0.000140424
7.1748e-05
0.000227005
5.94475e-05
4.75438e-05
4.75414e-05
5.94372e-05
5.94483e-05
4.7547e-05
4.7542e-05
5.94379e-05
0.000140408
0.00021997
7.17362e-05
0.000226992
7.1738e-05
0.000227001
0.000140411
0.00014041
0.000219965
7.17166e-05
0.000226989
7.17247e-05
0.000227001
0.00014041
3.95298e-05
3.95271e-05
0.000206623
3.95265e-05
3.95263e-05
2.6101e-05
2.61013e-05
2.61029e-05
2.61017e-05
0.00020651
3.95095e-05
3.95075e-05
3.952e-05
3.95188e-05
2.61036e-05
2.61021e-05
0.000140441
7.17292e-05
0.000227004
0.000219978
0.000140423
7.17445e-05
0.000227003
5.94646e-05
4.7535e-05
5.94595e-05
4.75348e-05
0.000140438
0.000227003
7.17219e-05
0.000219968
0.000140421
0.000227002
7.17373e-05
5.94566e-05
4.75401e-05
4.75378e-05
5.94449e-05
0.000140412
0.000219975
7.17227e-05
0.000226992
7.17237e-05
0.000227001
0.000140414
5.94548e-05
4.75376e-05
4.75355e-05
5.94435e-05
0.000140408
0.000219965
0.000226991
7.17157e-05
0.000227
7.17165e-05
0.000140412
5.94581e-05
4.75393e-05
5.94518e-05
4.754e-05
0.000140437
0.000227005
7.17388e-05
0.000219973
0.000140418
0.000227004
7.17534e-05
5.94577e-05
4.75378e-05
5.94513e-05
4.75377e-05
0.000140409
0.000219975
7.17186e-05
0.000226991
7.17249e-05
0.000227001
0.000140412
5.94472e-05
4.7546e-05
4.75414e-05
5.94375e-05
0.000140408
0.00021997
0.000226992
7.17316e-05
0.000227001
7.17336e-05
0.000140411
5.94467e-05
4.75404e-05
4.75382e-05
5.9437e-05
3.95155e-05
3.95345e-05
0.000206622
3.95181e-05
3.95363e-05
2.61003e-05
2.61003e-05
2.60995e-05
2.60984e-05
0.000206516
3.95061e-05
3.95243e-05
3.95126e-05
3.95316e-05
2.61019e-05
2.61007e-05
0.000140443
0.000227005
7.17345e-05
0.000219979
0.000140424
0.000227004
7.17491e-05
5.94654e-05
4.75375e-05
5.94603e-05
4.75374e-05
5.94658e-05
4.75372e-05
5.94606e-05
4.75371e-05
0.000140411
0.000219974
0.000226992
7.1732e-05
0.000227001
7.17343e-05
0.000140416
0.000140413
0.000219976
0.000226992
7.17273e-05
0.000227001
7.1729e-05
0.000140417
5.94556e-05
4.75402e-05
4.7538e-05
5.94445e-05
5.94559e-05
4.75398e-05
4.75377e-05
5.94448e-05
2.61001e-05
2.61001e-05
2.60992e-05
2.60992e-05
0.00020652
3.9524e-05
3.95163e-05
3.95311e-05
3.95236e-05
2.61017e-05
2.61005e-05
2.61008e-05
2.60996e-05
2.61043e-05
2.61047e-05
2.61021e-05
2.61025e-05
3.95192e-05
3.95108e-05
0.000206553
3.95047e-05
3.94964e-05
2.61046e-05
2.61048e-05
2.61025e-05
2.61027e-05
0.000206439
3.94949e-05
3.94867e-05
3.94979e-05
3.94897e-05
5.94033e-05
4.75499e-05
5.94207e-05
4.75502e-05
0.000140329
7.17102e-05
0.000226974
0.000219929
0.000140366
7.17022e-05
0.00022697
0.000140328
7.16903e-05
0.000226971
0.000219925
0.000140364
7.16876e-05
0.000226968
5.93897e-05
4.75504e-05
4.75508e-05
5.93905e-05
5.939e-05
4.755e-05
4.75504e-05
5.93912e-05
0.000140296
0.000219924
7.16873e-05
0.000226974
7.16792e-05
0.00022697
0.000140318
0.000140297
0.000219924
7.168e-05
0.000226974
7.16675e-05
0.00022697
0.000140319
3.95021e-05
3.95002e-05
0.000206546
3.94874e-05
3.94863e-05
2.61042e-05
2.6104e-05
2.61032e-05
2.61034e-05
0.000206443
3.94856e-05
3.94825e-05
3.94837e-05
3.94816e-05
2.61039e-05
2.61043e-05
0.000140331
7.16962e-05
0.000226975
0.000219934
0.00014037
7.16887e-05
0.00022697
5.9408e-05
4.75406e-05
5.94273e-05
4.75445e-05
0.000140329
0.000226973
7.16892e-05
0.000219924
0.000140367
0.000226968
7.16817e-05
5.93969e-05
4.75466e-05
4.75471e-05
5.93984e-05
0.000140299
0.00021993
7.16733e-05
0.000226974
7.1665e-05
0.00022697
0.000140321
5.93955e-05
4.75446e-05
4.75451e-05
5.93965e-05
0.000140296
0.000219919
0.000226973
7.16655e-05
0.000226968
7.16576e-05
0.000140318
5.94032e-05
4.75488e-05
5.94204e-05
4.75492e-05
0.000140329
0.000226974
7.17058e-05
0.000219929
0.000140367
0.00022697
7.16974e-05
5.94027e-05
4.75433e-05
5.94199e-05
4.75473e-05
0.000140298
0.000219934
7.1678e-05
0.000226975
7.16655e-05
0.000226971
0.000140317
5.93896e-05
4.7549e-05
4.75495e-05
5.93903e-05
0.000140296
0.000219924
0.000226974
7.16823e-05
0.00022697
7.16747e-05
0.000140317
5.93891e-05
4.75474e-05
4.75478e-05
5.93898e-05
3.9498e-05
3.95172e-05
0.000206548
3.94849e-05
3.95028e-05
2.61029e-05
2.61034e-05
2.61009e-05
2.61012e-05
0.000206434
3.94733e-05
3.94931e-05
3.9478e-05
3.94959e-05
2.61033e-05
2.61035e-05
0.000140334
0.000226974
7.17013e-05
0.000219935
0.000140373
0.00022697
7.16931e-05
5.94089e-05
4.75431e-05
5.94283e-05
4.75471e-05
5.94092e-05
4.75428e-05
5.94286e-05
4.75468e-05
0.0001403
0.000219929
0.000226974
7.16826e-05
0.00022697
7.1675e-05
0.00014032
0.000140301
0.000219931
0.000226974
7.16781e-05
0.00022697
7.16702e-05
0.000140323
5.93964e-05
4.75472e-05
4.75476e-05
5.93975e-05
5.93967e-05
4.75469e-05
4.75472e-05
5.93978e-05
2.61028e-05
2.61032e-05
2.61019e-05
2.61023e-05
0.000206438
3.9493e-05
3.94851e-05
3.9496e-05
3.94884e-05
2.61031e-05
2.61033e-05
2.61022e-05
2.61025e-05
2.61048e-05
2.61046e-05
2.61026e-05
2.61024e-05
3.94923e-05
3.94841e-05
0.000206558
3.94946e-05
3.94864e-05
2.61046e-05
2.61047e-05
2.61024e-05
2.61026e-05
0.000206455
3.94947e-05
3.94864e-05
3.94921e-05
3.9484e-05
5.93899e-05
4.75503e-05
5.93825e-05
4.75499e-05
0.000140319
7.16693e-05
0.000226979
0.000219931
0.000140295
7.16845e-05
0.00022698
0.000140321
7.16627e-05
0.000226979
0.000219931
0.000140296
7.16792e-05
0.00022698
5.93812e-05
4.75502e-05
4.75506e-05
5.93892e-05
5.93818e-05
4.75499e-05
4.75502e-05
5.93899e-05
0.000140296
0.000219931
7.1684e-05
0.00022698
7.16676e-05
0.00022698
0.000140319
0.000140297
0.000219931
7.1679e-05
0.00022698
7.16623e-05
0.00022698
0.000140321
3.94831e-05
3.94794e-05
0.000206559
3.94858e-05
3.94829e-05
2.61042e-05
2.61039e-05
2.61032e-05
2.61034e-05
0.000206454
3.9486e-05
3.9483e-05
3.94833e-05
3.94797e-05
2.61039e-05
2.61041e-05
0.000140322
7.16546e-05
0.000226979
0.000219936
0.000140298
7.16707e-05
0.00022698
5.93953e-05
4.75449e-05
5.9389e-05
4.75444e-05
0.00014032
0.000226977
7.16468e-05
0.000219926
0.000140295
0.000226979
7.16629e-05
5.93905e-05
4.75465e-05
4.75469e-05
5.93974e-05
0.0001403
0.000219936
7.16704e-05
0.00022698
7.16531e-05
0.00022698
0.000140322
5.93883e-05
4.75443e-05
4.75447e-05
5.93953e-05
0.000140297
0.000219926
0.000226979
7.16625e-05
0.000226979
7.16452e-05
0.00014032
5.93889e-05
4.75493e-05
5.93815e-05
4.75489e-05
0.000140318
0.000226979
7.16646e-05
0.000219931
0.000140294
0.00022698
7.16797e-05
5.93884e-05
4.75477e-05
5.9381e-05
4.75473e-05
0.000140297
0.000219939
7.16769e-05
0.000226981
7.16596e-05
0.000226981
0.000140318
5.93807e-05
4.75488e-05
4.75492e-05
5.93889e-05
0.000140296
0.000219931
0.00022698
7.16793e-05
0.00022698
7.1663e-05
0.000140318
5.93803e-05
4.75472e-05
4.75476e-05
5.93884e-05
3.94697e-05
3.94903e-05
0.000206552
3.94733e-05
3.94928e-05
2.61034e-05
2.61032e-05
2.61008e-05
2.6101e-05
0.00020645
3.94735e-05
3.94928e-05
3.947e-05
3.94902e-05
2.61032e-05
2.61034e-05
0.000140325
0.000226979
7.16602e-05
0.000219937
0.0001403
0.00022698
7.16756e-05
5.93961e-05
4.75474e-05
5.93898e-05
4.7547e-05
5.93966e-05
4.75471e-05
5.93902e-05
4.75467e-05
0.0001403
0.000219936
0.00022698
7.16798e-05
0.00022698
7.16637e-05
0.000140321
0.000140302
0.000219937
0.00022698
7.16752e-05
0.00022698
7.16586e-05
0.000140325
5.93891e-05
4.7547e-05
4.75473e-05
5.93962e-05
5.93896e-05
4.75467e-05
4.7547e-05
5.93966e-05
2.61033e-05
2.61031e-05
2.61024e-05
2.61022e-05
0.000206453
3.94928e-05
3.94849e-05
3.94901e-05
3.94823e-05
2.61031e-05
2.61032e-05
2.61022e-05
2.61024e-05
2.61047e-05
2.61046e-05
2.61026e-05
2.61024e-05
3.94922e-05
3.9484e-05
0.000206549
3.94948e-05
3.94864e-05
2.61046e-05
2.61047e-05
2.61024e-05
2.61026e-05
0.000206447
3.94948e-05
3.94864e-05
3.94922e-05
3.9484e-05
5.93898e-05
4.75502e-05
5.93817e-05
4.75499e-05
0.000140319
7.16672e-05
0.00022698
0.000219931
0.000140296
7.16839e-05
0.00022698
0.00014032
7.16623e-05
0.00022698
0.000219932
0.000140297
7.16784e-05
0.00022698
5.93811e-05
4.75503e-05
4.75505e-05
5.93892e-05
5.93817e-05
4.75497e-05
4.75502e-05
5.93898e-05
0.000140296
0.000219931
7.1684e-05
0.00022698
7.16673e-05
0.000226981
0.000140319
0.000140296
0.000219932
7.16765e-05
0.00022698
7.16601e-05
0.00022698
0.00014032
3.94836e-05
3.94798e-05
0.000206552
3.9485e-05
3.94831e-05
2.61041e-05
2.61039e-05
2.61031e-05
2.61035e-05
0.00020645
3.94828e-05
3.9483e-05
3.94811e-05
3.94798e-05
2.61039e-05
2.61041e-05
0.000140322
7.16528e-05
0.00022698
0.000219936
0.000140299
7.16703e-05
0.00022698
5.93953e-05
4.75447e-05
5.93883e-05
4.75443e-05
0.00014032
0.000226978
7.16449e-05
0.000219925
0.000140296
0.000226978
7.16625e-05
5.93905e-05
4.75465e-05
4.75469e-05
5.93974e-05
0.0001403
0.000219937
7.16703e-05
0.00022698
7.16529e-05
0.000226981
0.000140322
5.93884e-05
4.75443e-05
4.75447e-05
5.93954e-05
0.000140297
0.000219926
0.000226979
7.16624e-05
0.000226979
7.1645e-05
0.00014032
5.93888e-05
4.75492e-05
5.93807e-05
4.75488e-05
0.000140318
0.00022698
7.16627e-05
0.000219931
0.000140295
0.00022698
7.16794e-05
5.93884e-05
4.75475e-05
5.93803e-05
4.75472e-05
0.000140297
0.00021994
7.16769e-05
0.000226981
7.16596e-05
0.000226981
0.000140318
5.93807e-05
4.75488e-05
4.75492e-05
5.93888e-05
0.000140296
0.000219932
0.00022698
7.16793e-05
0.00022698
7.16628e-05
0.000140318
5.93802e-05
4.75472e-05
4.75475e-05
5.93884e-05
3.94701e-05
3.94903e-05
0.000206544
3.94736e-05
3.94929e-05
2.61034e-05
2.61032e-05
2.61008e-05
2.6101e-05
0.000206442
3.94735e-05
3.94929e-05
3.94702e-05
3.94903e-05
2.61032e-05
2.61034e-05
0.000140324
0.00022698
7.16584e-05
0.000219937
0.000140301
0.00022698
7.16752e-05
5.93961e-05
4.75473e-05
5.93892e-05
4.7547e-05
5.93966e-05
4.7547e-05
5.93896e-05
4.75466e-05
0.0001403
0.000219936
0.00022698
7.16797e-05
0.00022698
7.16635e-05
0.000140321
0.000140302
0.000219938
0.00022698
7.16751e-05
0.000226981
7.16584e-05
0.000140325
5.93892e-05
4.7547e-05
4.75473e-05
5.93962e-05
5.93896e-05
4.75466e-05
4.7547e-05
5.93966e-05
2.61032e-05
2.61031e-05
2.61023e-05
2.61022e-05
0.000206446
3.94928e-05
3.9485e-05
3.94902e-05
3.94825e-05
2.61031e-05
2.61032e-05
2.61022e-05
2.61023e-05
2.61047e-05
2.61043e-05
2.61026e-05
2.61024e-05
3.94921e-05
3.94841e-05
0.000206552
3.94939e-05
3.94865e-05
2.61043e-05
2.61045e-05
2.61024e-05
2.61026e-05
0.000206448
3.94938e-05
3.94865e-05
3.94912e-05
3.94841e-05
5.93897e-05
4.75501e-05
5.93817e-05
4.75497e-05
0.000140319
7.16673e-05