/*--------------------------------*- C++ -*----------------------------------*\
| =========                 |                                                 |
| \\      /  F ield         | OpenFOAM: The Open Source CFD Toolbox           |
|  \\    /   O peration     | Version:  2206                                  |
|   \\  /    A nd           | Website:  www.openfoam.com                      |
|    \\/     M anipulation  |                                                 |
\*---------------------------------------------------------------------------*/
FoamFile
{
    version     2.0;
    format      ascii;
    arch        "LSB;label=32;scalar=64";
    class       volVectorField;
    location    "14.5";
    object      U;
}
// * * * * * * * * * * * * * * * * * * * * * * * * * * * * * * * * * * * * * //

dimensions      [0 1 -1 0 0 0 0];

internalField   nonuniform List<vector> 
28687
(
(-4.87652e-07 -4.92716e-07 0.101748)
(-3.18365e-07 5.07131e-07 0.101736)
(5.10997e-07 -3.14154e-07 0.101736)
(-3.82984e-05 -3.83169e-05 0.101716)
(-5.11633e-07 -5.12331e-07 0.101748)
(-2.93286e-07 4.97522e-07 0.101736)
(4.93307e-07 -2.87305e-07 0.101736)
(-3.82742e-05 -3.82902e-05 0.101716)
(-5.41619e-07 -5.12242e-07 0.101748)
(-2.95405e-07 5.65246e-07 0.101735)
(4.69276e-07 -2.44147e-07 0.101735)
(-3.821e-05 -3.82141e-05 0.101716)
(-4.22607e-07 -4.20622e-07 0.101748)
(-3.8848e-07 5.27253e-07 0.101736)
(5.47805e-07 -4.02675e-07 0.101736)
(-3.84302e-05 -3.84445e-05 0.101716)
(-4.79683e-07 -4.78417e-07 0.101748)
(-3.29525e-07 5.18067e-07 0.101736)
(5.14205e-07 -3.31054e-07 0.101736)
(-3.83289e-05 -3.83478e-05 0.101716)
(-4.83439e-07 -4.78162e-07 0.101748)
(-3.23551e-07 5.20709e-07 0.101736)
(5.14291e-07 -3.23976e-07 0.101736)
(-3.83265e-05 -3.83415e-05 0.101716)
(-4.81283e-07 -4.69752e-07 0.101748)
(-3.2338e-07 5.32769e-07 0.101736)
(5.1448e-07 -3.22118e-07 0.101736)
(-3.83266e-05 -3.83396e-05 0.101716)
(-4.75659e-07 -4.73574e-07 0.101748)
(-3.19571e-07 5.05938e-07 0.101736)
(5.14425e-07 -3.20384e-07 0.101736)
(-3.83258e-05 -3.83389e-05 0.101716)
(-4.72114e-07 -4.76248e-07 0.101748)
(-3.27108e-07 5.19633e-07 0.101736)
(5.14718e-07 -3.22524e-07 0.101736)
(-3.83246e-05 -3.83403e-05 0.101716)
(-4.81695e-07 -4.82812e-07 0.101748)
(-3.23173e-07 5.14414e-07 0.101736)
(5.13861e-07 -3.22889e-07 0.101736)
(-3.83247e-05 -3.83403e-05 0.101716)
(-4.83468e-07 -4.82127e-07 0.101748)
(-3.22949e-07 5.1421e-07 0.101736)
(5.13155e-07 -3.2353e-07 0.101736)
(-3.83245e-05 -3.83408e-05 0.101716)
(-4.8393e-07 -4.81344e-07 0.101748)
(-3.2342e-07 5.151e-07 0.101736)
(5.13802e-07 -3.24594e-07 0.101736)
(-3.83252e-05 -3.83415e-05 0.101716)
(-4.83621e-07 -4.81105e-07 0.101748)
(-3.23235e-07 5.15122e-07 0.101736)
(5.1416e-07 -3.24927e-07 0.101736)
(-3.83257e-05 -3.83414e-05 0.101716)
(-4.83608e-07 -4.80655e-07 0.101748)
(-3.23708e-07 5.15501e-07 0.101736)
(5.14203e-07 -3.2515e-07 0.101736)
(-3.83264e-05 -3.83422e-05 0.101716)
(-4.83953e-07 -4.8084e-07 0.101748)
(-3.22921e-07 5.14955e-07 0.101736)
(5.13377e-07 -3.24199e-07 0.101736)
(-3.83259e-05 -3.83417e-05 0.101716)
(-4.84148e-07 -4.81143e-07 0.101748)
(-3.23136e-07 5.15202e-07 0.101736)
(5.13699e-07 -3.2427e-07 0.101736)
(-3.83251e-05 -3.834e-05 0.101716)
(-4.84131e-07 -4.80897e-07 0.101748)
(-3.22018e-07 5.13718e-07 0.101736)
(5.13936e-07 -3.2519e-07 0.101736)
(-3.8323e-05 -3.83374e-05 0.101716)
(-4.89089e-07 -4.83948e-07 0.101748)
(-3.21175e-07 5.13926e-07 0.101736)
(5.1085e-07 -3.19485e-07 0.101736)
(-3.83135e-05 -3.83272e-05 0.101716)
(-5.25885e-07 3.34045e-07 0.101736)
(3.97883e-05 -3.97622e-05 0.101717)
(-3.18213e-07 5.08983e-07 0.101736)
(3.8309e-05 3.82865e-05 0.101716)
(-3.98005e-05 -3.97806e-05 0.101717)
(5.28819e-07 3.2314e-07 0.101736)
(-5.23258e-07 3.35063e-07 0.101736)
(5.0324e-07 2.81246e-07 0.101736)
(-5.04071e-07 3.07679e-07 0.101736)
(-3.83096e-05 3.82791e-05 0.101716)
(3.98183e-05 -3.97947e-05 0.101717)
(3.16079e-07 5.12935e-07 0.101736)
(3.26954e-07 -5.253e-07 0.101736)
(2.7442e-07 4.85152e-07 0.101736)
(2.87987e-07 -4.99755e-07 0.101736)
(-3.23445e-07 -5.23864e-07 0.101736)
(-2.84594e-07 4.87085e-07 0.101736)
(-2.87084e-07 -4.9941e-07 0.101736)
(3.82899e-05 -3.83215e-05 0.101716)
(-3.97757e-05 3.98085e-05 0.101717)
(-5.05697e-07 -3.14472e-07 0.101736)
(4.84551e-07 -2.724e-07 0.101736)
(-4.81957e-07 -2.75779e-07 0.101736)
(3.97806e-05 3.97979e-05 0.101717)
(3.82823e-05 3.82639e-05 0.101716)
(-3.98817e-05 -3.98515e-05 0.101717)
(5.10274e-07 2.9972e-07 0.101736)
(-5.12708e-07 3.11797e-07 0.101736)
(4.48974e-07 2.31292e-07 0.101736)
(-4.80975e-07 2.61667e-07 0.101735)
(-3.82715e-05 3.82396e-05 0.101716)
(3.98985e-05 -3.98758e-05 0.101716)
(2.88965e-07 4.99716e-07 0.101736)
(2.99323e-07 -5.07352e-07 0.101736)
(2.07216e-07 4.5053e-07 0.101736)
(2.25251e-07 -4.53082e-07 0.101736)
(-2.99083e-07 -5.05091e-07 0.101736)
(-2.26223e-07 4.67205e-07 0.101736)
(-2.29141e-07 -4.45686e-07 0.101736)
(3.82625e-05 -3.82952e-05 0.101716)
(-3.98559e-05 3.98883e-05 0.101717)
(-4.90657e-07 -2.86488e-07 0.101736)
(4.3868e-07 -2.09096e-07 0.101736)
(-4.42425e-07 -2.07158e-07 0.101736)
(3.98559e-05 3.98832e-05 0.101716)
(3.82064e-05 3.82066e-05 0.101716)
(-3.96768e-05 -3.96506e-05 0.101717)
(4.66115e-07 2.74736e-07 0.101735)
(-5.7188e-07 3.59717e-07 0.101735)
(5.86161e-07 4.48159e-07 0.101736)
(-5.76027e-07 4.30911e-07 0.101736)
(-3.82611e-05 3.82444e-05 0.101716)
(3.97162e-05 -3.96917e-05 0.101717)
(2.3984e-07 4.82831e-07 0.101735)
(2.58009e-07 -4.8271e-07 0.101735)
(4.31692e-07 5.83714e-07 0.101736)
(4.48193e-07 -5.90575e-07 0.101736)
(-2.64589e-07 -4.67133e-07 0.101735)
(-4.1645e-07 5.55576e-07 0.101736)
(-4.47521e-07 -5.82829e-07 0.101736)
(3.81929e-05 -3.82253e-05 0.101716)
(-3.9648e-05 3.96855e-05 0.101717)
(-4.73867e-07 -2.36968e-07 0.101735)
(5.75206e-07 -4.31086e-07 0.101736)
(-5.77388e-07 -4.30784e-07 0.101736)
(3.96525e-05 3.96769e-05 0.101717)
(3.84367e-05 3.84237e-05 0.101716)
(-3.97829e-05 -3.97689e-05 0.101717)
(5.63952e-07 4.15919e-07 0.101736)
(-5.46679e-07 3.98236e-07 0.101736)
(5.32297e-07 3.43187e-07 0.101736)
(-5.31886e-07 3.51504e-07 0.101736)
(-3.84038e-05 3.83748e-05 0.101716)
(3.97934e-05 -3.97677e-05 0.101717)
(4.05048e-07 5.53441e-07 0.101736)
(4.16229e-07 -5.62002e-07 0.101736)
(3.37357e-07 5.16693e-07 0.101736)
(3.49358e-07 -5.28573e-07 0.101736)
(-4.12314e-07 -5.60539e-07 0.101736)
(-3.33957e-07 5.17975e-07 0.101736)
(-3.45304e-07 -5.29425e-07 0.101736)
(3.84203e-05 -3.84493e-05 0.101716)
(-3.97639e-05 3.97967e-05 0.101717)
(-5.46304e-07 -4.00545e-07 0.101736)
(5.13367e-07 -3.34434e-07 0.101736)
(-5.1145e-07 -3.34891e-07 0.101736)
(3.97704e-05 3.97847e-05 0.101717)
(3.83402e-05 3.83213e-05 0.101716)
(-3.97933e-05 -3.97725e-05 0.101717)
(5.28919e-07 3.44668e-07 0.101736)
(-5.3028e-07 3.44566e-07 0.101736)
(5.27263e-07 3.3466e-07 0.101736)
(-5.29721e-07 3.38676e-07 0.101736)
(-3.83383e-05 3.83158e-05 0.101716)
(3.98003e-05 -3.97734e-05 0.101717)
(3.3394e-07 5.17215e-07 0.101736)
(3.42905e-07 -5.27907e-07 0.101736)
(3.23951e-07 5.17872e-07 0.101736)
(3.37977e-07 -5.26996e-07 0.101736)
(-3.39752e-07 -5.28127e-07 0.101736)
(-3.22575e-07 5.18285e-07 0.101736)
(-3.34761e-07 -5.24872e-07 0.101736)
(3.83191e-05 -3.83516e-05 0.101716)
(-3.97692e-05 3.98045e-05 0.101717)
(-5.11557e-07 -3.2871e-07 0.101736)
(5.1307e-07 -3.21445e-07 0.101736)
(-5.11584e-07 -3.21004e-07 0.101736)
(3.97756e-05 3.97941e-05 0.101717)
(3.83341e-05 3.83198e-05 0.101716)
(-3.97953e-05 -3.97589e-05 0.101717)
(5.25582e-07 3.41802e-07 0.101736)
(-5.30451e-07 3.41206e-07 0.101736)
(5.28729e-07 3.43906e-07 0.101736)
(-5.37018e-07 3.51914e-07 0.101736)
(-3.83339e-05 3.8314e-05 0.101716)
(3.97989e-05 -3.97554e-05 0.101717)
(3.26629e-07 5.20031e-07 0.101736)
(3.37452e-07 -5.26387e-07 0.101736)
(3.22264e-07 5.25564e-07 0.101736)
(3.37805e-07 -5.2476e-07 0.101736)
(-3.34759e-07 -5.24285e-07 0.101736)
(-3.22511e-07 5.28568e-07 0.101736)
(-3.35099e-07 -5.22027e-07 0.101736)
(3.83163e-05 -3.83467e-05 0.101716)
(-3.9769e-05 3.98061e-05 0.101717)
(-5.117e-07 -3.20649e-07 0.101736)
(5.13263e-07 -3.19651e-07 0.101736)
(-5.11287e-07 -3.19425e-07 0.101736)
(3.97754e-05 3.97962e-05 0.101717)
(3.83348e-05 3.83378e-05 0.101716)
(-3.97976e-05 -3.97615e-05 0.101717)
(5.32423e-07 3.56996e-07 0.101736)
(-5.36235e-07 3.55733e-07 0.101736)
(5.32358e-07 3.3956e-07 0.101736)
(-5.25629e-07 3.43267e-07 0.101736)
(-3.83394e-05 3.83334e-05 0.101716)
(3.98052e-05 -3.97679e-05 0.101717)
(3.25392e-07 5.30283e-07 0.101736)
(3.37265e-07 -5.23961e-07 0.101736)
(3.22511e-07 5.24705e-07 0.101736)
(3.3683e-07 -5.23889e-07 0.101736)
(-3.36206e-07 -5.217e-07 0.101736)
(-3.21064e-07 5.16382e-07 0.101736)
(-3.39472e-07 -5.21654e-07 0.101736)
(3.83166e-05 -3.83453e-05 0.101716)
(-3.97696e-05 3.98066e-05 0.101717)
(-5.11187e-07 -3.208e-07 0.101736)
(5.13215e-07 -3.17623e-07 0.101736)
(-5.09068e-07 -3.26192e-07 0.101736)
(3.97751e-05 3.97966e-05 0.101717)
(3.83371e-05 3.83268e-05 0.101716)
(-3.9804e-05 -3.97649e-05 0.101717)
(5.31105e-07 3.37937e-07 0.101736)
(-5.15482e-07 3.35746e-07 0.101736)
(5.33086e-07 3.47673e-07 0.101736)
(-5.29006e-07 3.44367e-07 0.101736)
(-3.83206e-05 3.83029e-05 0.101716)
(3.97935e-05 -3.9771e-05 0.101717)
(3.26656e-07 5.21264e-07 0.101736)
(3.36094e-07 -5.23878e-07 0.101736)
(3.27487e-07 5.14796e-07 0.101736)
(3.36967e-07 -5.2529e-07 0.101736)
(-3.39221e-07 -5.22292e-07 0.101736)
(-3.24612e-07 5.18256e-07 0.101736)
(-3.32616e-07 -5.23748e-07 0.101736)
(3.83156e-05 -3.83447e-05 0.101716)
(-3.97697e-05 3.98055e-05 0.101717)
(-5.08753e-07 -3.27311e-07 0.101736)
(5.13532e-07 -3.18736e-07 0.101736)
(-5.09322e-07 -3.21058e-07 0.101736)
(3.97767e-05 3.9795e-05 0.101717)
(3.83334e-05 3.83198e-05 0.101716)
(-3.98023e-05 -3.97686e-05 0.101717)
(5.36825e-07 3.47384e-07 0.101736)
(-5.28187e-07 3.35138e-07 0.101736)
(5.25741e-07 3.33379e-07 0.101736)
(-5.30046e-07 3.39159e-07 0.101736)
(-3.83359e-05 3.83106e-05 0.101716)
(3.98027e-05 -3.97706e-05 0.101717)
(3.29244e-07 5.1665e-07 0.101736)
(3.3685e-07 -5.25259e-07 0.101736)
(3.21172e-07 5.14739e-07 0.101736)
(3.36474e-07 -5.26537e-07 0.101736)
(-3.32785e-07 -5.2386e-07 0.101736)
(-3.23237e-07 5.14232e-07 0.101736)
(-3.33052e-07 -5.2368e-07 0.101736)
(3.83153e-05 -3.83454e-05 0.101716)
(-3.97697e-05 3.98046e-05 0.101717)
(-5.10105e-07 -3.20868e-07 0.101736)
(5.1274e-07 -3.1973e-07 0.101736)
(-5.10128e-07 -3.20917e-07 0.101736)
(3.97762e-05 3.97949e-05 0.101717)
(3.8337e-05 3.83121e-05 0.101716)
(-3.9801e-05 -3.97689e-05 0.101717)
(5.28173e-07 3.33818e-07 0.101736)
(-5.28733e-07 3.35031e-07 0.101736)
(5.27791e-07 3.35414e-07 0.101736)
(-5.30448e-07 3.35916e-07 0.101736)
(-3.83293e-05 3.83116e-05 0.101716)
(3.97993e-05 -3.97744e-05 0.101717)
(3.24998e-07 5.16468e-07 0.101736)
(3.35721e-07 -5.26707e-07 0.101736)
(3.20953e-07 5.13873e-07 0.101736)
(3.3581e-07 -5.26958e-07 0.101736)
(-3.32915e-07 -5.24251e-07 0.101736)
(-3.21547e-07 5.14121e-07 0.101736)
(-3.32732e-07 -5.24366e-07 0.101736)
(3.8315e-05 -3.83461e-05 0.101716)
(-3.97701e-05 3.98042e-05 0.101717)
(-5.10599e-07 -3.20677e-07 0.101736)
(5.12035e-07 -3.20207e-07 0.101736)
(-5.10536e-07 -3.20146e-07 0.101736)
(3.97767e-05 3.97944e-05 0.101717)
(3.8338e-05 3.83127e-05 0.101716)
(-3.98003e-05 -3.97691e-05 0.101717)
(5.27796e-07 3.3246e-07 0.101736)
(-5.30587e-07 3.36046e-07 0.101736)
(5.282e-07 3.35884e-07 0.101736)
(-5.31955e-07 3.37804e-07 0.101736)
(-3.83327e-05 3.83093e-05 0.101716)
(3.9798e-05 -3.9773e-05 0.101717)
(3.24829e-07 5.14568e-07 0.101736)
(3.35479e-07 -5.26791e-07 0.101736)
(3.21684e-07 5.13699e-07 0.101736)
(3.36631e-07 -5.27822e-07 0.101736)
(-3.33123e-07 -5.24647e-07 0.101736)
(-3.22335e-07 5.15054e-07 0.101736)
(-3.3413e-07 -5.25108e-07 0.101736)
(3.83145e-05 -3.83463e-05 0.101716)
(-3.97692e-05 3.98032e-05 0.101717)
(-5.10837e-07 -3.20052e-07 0.101736)
(5.12702e-07 -3.21465e-07 0.101736)
(-5.10933e-07 -3.19672e-07 0.101736)
(3.9776e-05 3.97938e-05 0.101717)
(3.83387e-05 3.83127e-05 0.101716)
(-3.97992e-05 -3.97683e-05 0.101717)
(5.28757e-07 3.33396e-07 0.101736)
(-5.31804e-07 3.37264e-07 0.101736)
(5.29111e-07 3.3657e-07 0.101736)
(-5.31484e-07 3.37759e-07 0.101736)
(-3.83338e-05 3.83111e-05 0.101716)
(3.97984e-05 -3.97729e-05 0.101717)
(3.25688e-07 5.14645e-07 0.101736)
(3.36341e-07 -5.27545e-07 0.101736)
(3.2221e-07 5.14138e-07 0.101736)
(3.37063e-07 -5.27903e-07 0.101736)
(-3.34213e-07 -5.25483e-07 0.101736)
(-3.21873e-07 5.14796e-07 0.101736)
(-3.33584e-07 -5.25051e-07 0.101736)
(3.83154e-05 -3.83472e-05 0.101716)
(-3.9769e-05 3.9803e-05 0.101717)
(-5.11538e-07 -3.21539e-07 0.101736)
(5.1284e-07 -3.21783e-07 0.101736)
(-5.10935e-07 -3.21564e-07 0.101736)
(3.97754e-05 3.97936e-05 0.101717)
(3.83398e-05 3.83137e-05 0.101716)
(-3.97992e-05 -3.97674e-05 0.101717)
(5.29874e-07 3.34228e-07 0.101736)
(-5.31573e-07 3.3749e-07 0.101736)
(5.29762e-07 3.37532e-07 0.101736)
(-5.32056e-07 3.38612e-07 0.101736)
(-3.83334e-05 3.83112e-05 0.101716)
(3.97978e-05 -3.97721e-05 0.101717)
(3.2581e-07 5.15195e-07 0.101736)
(3.36788e-07 -5.27699e-07 0.101736)
(3.22447e-07 5.14637e-07 0.101736)
(3.37452e-07 -5.27981e-07 0.101736)
(-3.33711e-07 -5.25348e-07 0.101736)
(-3.22666e-07 5.1553e-07 0.101736)
(-3.34354e-07 -5.25702e-07 0.101736)
(3.83158e-05 -3.83476e-05 0.101716)
(-3.97688e-05 3.9803e-05 0.101717)
(-5.11396e-07 -3.22179e-07 0.101736)
(5.13111e-07 -3.22211e-07 0.101736)
(-5.11667e-07 -3.22644e-07 0.101736)
(3.97748e-05 3.97929e-05 0.101717)
(3.83399e-05 3.83141e-05 0.101716)
(-3.97996e-05 -3.97677e-05 0.101717)
(5.30025e-07 3.34886e-07 0.101736)
(-5.31875e-07 3.38028e-07 0.101736)
(5.29394e-07 3.37343e-07 0.101736)
(-5.31558e-07 3.38112e-07 0.101736)
(-3.8334e-05 3.83119e-05 0.101716)
(3.97983e-05 -3.97726e-05 0.101717)
(3.25997e-07 5.15465e-07 0.101736)
(3.37e-07 -5.27679e-07 0.101736)
(3.21995e-07 5.14353e-07 0.101736)
(3.36619e-07 -5.27283e-07 0.101736)
(-3.34211e-07 -5.25737e-07 0.101736)
(-3.22089e-07 5.15021e-07 0.101736)
(-3.33639e-07 -5.25121e-07 0.101736)
(3.83158e-05 -3.83473e-05 0.101716)
(-3.97695e-05 3.98037e-05 0.101717)
(-5.11888e-07 -3.22933e-07 0.101736)
(5.12479e-07 -3.21505e-07 0.101736)
(-5.11357e-07 -3.22307e-07 0.101736)
(3.97751e-05 3.97934e-05 0.101717)
(3.83397e-05 3.83141e-05 0.101716)
(-3.97996e-05 -3.97678e-05 0.101717)
(5.29653e-07 3.3449e-07 0.101736)
(-5.31282e-07 3.37457e-07 0.101736)
(5.29113e-07 3.36944e-07 0.101736)
(-5.31368e-07 3.37949e-07 0.101736)
(-3.83334e-05 3.83113e-05 0.101716)
(3.97988e-05 -3.97728e-05 0.101717)
(3.25426e-07 5.15127e-07 0.101736)
(3.35973e-07 -5.26771e-07 0.101736)
(3.21695e-07 5.1407e-07 0.101736)
(3.36824e-07 -5.27671e-07 0.101736)
(-3.33313e-07 -5.25143e-07 0.101736)
(-3.21689e-07 5.14815e-07 0.101736)
(-3.33123e-07 -5.24726e-07 0.101736)
(3.83151e-05 -3.83467e-05 0.101716)
(-3.97687e-05 3.9803e-05 0.101717)
(-5.11433e-07 -3.22413e-07 0.101736)
(5.12826e-07 -3.21623e-07 0.101736)
(-5.11055e-07 -3.21947e-07 0.101736)
(3.97752e-05 3.97932e-05 0.101717)
(3.83379e-05 3.83123e-05 0.101716)
(-3.98e-05 -3.97678e-05 0.101717)
(5.2921e-07 3.33952e-07 0.101736)
(-5.31644e-07 3.37288e-07 0.101736)
(5.27993e-07 3.3577e-07 0.101736)
(-5.30466e-07 3.36626e-07 0.101736)
(-3.83331e-05 3.83108e-05 0.101716)
(3.97989e-05 -3.97732e-05 0.101717)
(3.25066e-07 5.14694e-07 0.101736)
(3.36087e-07 -5.2707e-07 0.101736)
(3.20287e-07 5.13248e-07 0.101736)
(3.35183e-07 -5.26298e-07 0.101736)
(-3.33401e-07 -5.25139e-07 0.101736)
(-3.21109e-07 5.14675e-07 0.101736)
(-3.32374e-07 -5.24286e-07 0.101736)
(3.83142e-05 -3.83458e-05 0.101716)
(-3.97697e-05 3.98038e-05 0.101717)
(-5.11245e-07 -3.2207e-07 0.101736)
(5.11326e-07 -3.20082e-07 0.101736)
(-5.10341e-07 -3.20641e-07 0.101736)
(3.97741e-05 3.97934e-05 0.101717)
(3.83353e-05 3.83102e-05 0.101716)
(-3.97941e-05 -3.97611e-05 0.101717)
(5.29578e-07 3.34975e-07 0.101736)
(-5.31238e-07 3.37192e-07 0.101736)
(5.26736e-07 3.34807e-07 0.101736)
(-5.30159e-07 3.35576e-07 0.101736)
(-3.8333e-05 3.83102e-05 0.101716)
(3.97951e-05 -3.97704e-05 0.101717)
(3.25693e-07 5.1557e-07 0.101736)
(3.36725e-07 -5.27413e-07 0.101736)
(3.18685e-07 5.12908e-07 0.101736)
(3.34011e-07 -5.25726e-07 0.101736)
(-3.33669e-07 -5.24801e-07 0.101736)
(-3.20559e-07 5.13529e-07 0.101736)
(-3.31769e-07 -5.21963e-07 0.101736)
(3.83112e-05 -3.8343e-05 0.101716)
(-3.97634e-05 3.97973e-05 0.101717)
(-5.12156e-07 -3.23025e-07 0.101736)
(5.10727e-07 -3.19082e-07 0.101736)
(-5.10849e-07 -3.19131e-07 0.101736)
(3.97683e-05 3.97884e-05 0.101717)
(3.83247e-05 3.83003e-05 0.101716)
(5.25965e-07 3.29685e-07 0.101736)
(-5.3274e-07 3.33184e-07 0.101736)
(-3.83249e-05 3.8301e-05 0.101716)
(3.19498e-07 5.13145e-07 0.101736)
(3.30586e-07 -5.24662e-07 0.101736)
(-3.30902e-07 -5.22115e-07 0.101736)
(3.8301e-05 -3.83329e-05 0.101716)
(-5.10545e-07 -3.1656e-07 0.101736)
(4.22532e-08 -7.50066e-06 0.100775)
(7.04372e-07 5.71656e-06 0.0963709)
(-6.19453e-09 7.30869e-06 0.100772)
(-9.80354e-07 -5.89223e-06 0.096377)
(-1.43568e-06 1.84914e-06 0.0868119)
(1.51646e-06 -2.09737e-06 0.0868187)
(-7.53829e-06 1.62534e-08 0.100775)
(5.66797e-06 6.57532e-07 0.0963702)
(7.36106e-06 -5.86298e-09 0.100772)
(-5.82973e-06 -9.47636e-07 0.0963773)
(5.06331e-07 -4.84621e-07 0.101748)
(-4.86641e-07 4.91113e-07 0.101748)
(4.91015e-07 4.83414e-07 0.101748)
(-5.06697e-07 -5.10403e-07 0.101748)
(5.23649e-07 -5.05667e-07 0.101748)
(-5.04829e-07 5.09936e-07 0.101748)
(5.08312e-07 5.02414e-07 0.101748)
(1.23951e-05 -1.74248e-08 0.101565)
(-1.15113e-05 3.38524e-06 0.100951)
(-3.92206e-07 -1.56573e-07 0.101745)
(-3.08791e-07 4.96247e-07 0.101736)
(-1.23805e-05 -7.35205e-09 0.101563)
(1.11736e-05 -3.68397e-06 0.100957)
(-3.79662e-07 -1.62089e-07 0.101745)
(1.87905e-06 -1.4707e-06 0.0868096)
(-1.97907e-06 1.4245e-06 0.0868183)
(4.84932e-10 1.24015e-05 0.101565)
(-1.50449e-07 -3.88032e-07 0.101745)
(3.4417e-06 -1.15763e-05 0.100952)
(5.0841e-07 -3.06789e-07 0.101736)
(-2.23127e-09 -1.23919e-05 0.101563)
(-1.53113e-07 -3.73725e-07 0.101745)
(-3.67589e-06 1.11896e-05 0.100956)
(-3.7269e-06 -4.46424e-06 0.0997489)
(-4.45116e-06 -3.72394e-06 0.0997486)
(3.97625e-05 3.97782e-05 0.101717)
(3.52783e-06 4.30877e-06 0.0997543)
(4.30458e-06 3.52143e-06 0.0997539)
(-1.67647e-08 -7.57391e-06 0.100775)
(7.5506e-07 5.66037e-06 0.0963716)
(-1.1187e-08 7.22309e-06 0.100772)
(-9.25498e-07 -5.97601e-06 0.0963777)
(-1.38453e-06 1.76205e-06 0.0868136)
(1.46917e-06 -2.15383e-06 0.0868213)
(-7.62195e-06 -8.75579e-09 0.100775)
(5.61371e-06 7.09949e-07 0.0963709)
(7.27586e-06 -1.21418e-08 0.100772)
(-5.91636e-06 -8.81858e-07 0.0963781)
(5.26208e-07 -5.10303e-07 0.101748)
(-5.08466e-07 5.13344e-07 0.101748)
(5.10177e-07 5.08133e-07 0.101748)
(-5.33709e-07 -5.15744e-07 0.101748)
(5.25333e-07 -5.15316e-07 0.101748)
(-5.22294e-07 5.27431e-07 0.101748)
(5.15929e-07 5.29166e-07 0.101748)
(1.24647e-05 -2.03242e-08 0.101564)
(-1.14234e-05 3.27327e-06 0.100951)
(-3.51014e-07 -1.69855e-07 0.101745)
(-2.80471e-07 4.84876e-07 0.101736)
(-1.22907e-05 -1.36698e-08 0.101563)
(1.1249e-05 -3.719e-06 0.100956)
(-3.45353e-07 -1.6714e-07 0.101745)
(1.73926e-06 -1.42629e-06 0.0868111)
(-2.1334e-06 1.52313e-06 0.0868202)
(-1.43919e-08 1.24742e-05 0.101564)
(-1.65743e-07 -3.46147e-07 0.101745)
(3.34663e-06 -1.14788e-05 0.100951)
(5.00229e-07 -2.89935e-07 0.101736)
(-1.14086e-08 -1.22985e-05 0.101563)
(-1.70911e-07 -3.46305e-07 0.101745)
(-3.78724e-06 1.12937e-05 0.100956)
(-3.74443e-06 -4.43954e-06 0.0997488)
(-4.42783e-06 -3.73869e-06 0.0997484)
(3.98036e-05 3.9826e-05 0.101717)
(3.56762e-06 4.39431e-06 0.0997542)
(4.38281e-06 3.56542e-06 0.0997538)
(-1.02631e-07 -7.54736e-06 0.100775)
(7.76011e-07 5.671e-06 0.0963725)
(-9.21959e-08 7.18377e-06 0.100771)
(-9.33891e-07 -6.01611e-06 0.0963786)
(-1.25368e-06 1.49987e-06 0.0868173)
(9.70713e-07 -1.56274e-06 0.0868241)
(-7.63801e-06 1.06545e-08 0.100774)
(5.61278e-06 7.61288e-07 0.0963718)
(7.20957e-06 -4.63196e-08 0.100772)
(-5.97346e-06 -8.5132e-07 0.0963789)
(4.87121e-07 -4.68811e-07 0.101748)
(-5.2443e-07 5.29553e-07 0.101748)
(5.13783e-07 5.36359e-07 0.101748)
(-4.08277e-07 -3.99139e-07 0.101748)
(4.03519e-07 -4.05869e-07 0.101748)
(-4.0314e-07 4.07645e-07 0.101748)
(3.99816e-07 4.05221e-07 0.101748)
(1.23992e-05 6.40196e-08 0.101564)
(-1.13214e-05 3.236e-06 0.100951)
(-3.29582e-07 -1.31447e-07 0.101745)
(-3.84044e-07 6.24217e-07 0.101735)
(-1.22388e-05 -3.87865e-09 0.101563)
(1.1028e-05 -3.43208e-06 0.100956)
(-4.25534e-07 -8.67841e-08 0.101745)
(1.61824e-06 -1.25111e-06 0.0868135)
(-2.11098e-06 1.42476e-06 0.0868241)
(-9.54979e-09 1.24304e-05 0.101564)
(-1.7975e-07 -2.97569e-07 0.101745)
(3.2688e-06 -1.13819e-05 0.100951)
(5.45939e-07 -3.46604e-07 0.101735)
(-2.82661e-08 -1.22374e-05 0.101563)
(-1.61436e-07 -3.94113e-07 0.101745)
(-3.7964e-06 1.12398e-05 0.100956)
(-3.63327e-06 -4.31991e-06 0.0997487)
(-4.32298e-06 -3.61999e-06 0.0997484)
(3.97465e-05 3.97832e-05 0.101716)
(3.51415e-06 4.33766e-06 0.099754)
(4.31866e-06 3.52164e-06 0.0997536)
(4.577e-08 -7.33047e-06 0.100776)
(7.80509e-07 6.67531e-06 0.0963723)
(2.94164e-08 7.54439e-06 0.100772)
(-9.28593e-07 -5.39696e-06 0.0963772)
(-1.64019e-06 2.35519e-06 0.0868127)
(1.47352e-06 -1.86256e-06 0.0868182)
(-7.36299e-06 -3.48228e-10 0.100775)
(6.61199e-06 7.29263e-07 0.0963716)
(7.60335e-06 9.95442e-10 0.100772)
(-5.3385e-06 -8.96855e-07 0.0963775)
(4.39333e-07 -4.39711e-07 0.101748)
(-4.20218e-07 4.23398e-07 0.101748)
(4.19935e-07 4.19577e-07 0.101748)
(-4.74668e-07 -4.74349e-07 0.101748)
(4.82316e-07 -4.80395e-07 0.101748)
(-4.72314e-07 4.75198e-07 0.101748)
(4.72699e-07 4.71625e-07 0.101748)
(1.21209e-05 -2.4563e-08 0.101565)
(-1.18081e-05 3.65823e-06 0.100951)
(-5.30157e-07 -1.37852e-07 0.101745)
(-3.61797e-07 5.18585e-07 0.101736)
(-1.28415e-05 6.83834e-09 0.101563)
(1.09944e-05 -3.52189e-06 0.100957)
(-4.86941e-07 -1.49383e-07 0.101745)
(2.47057e-06 -1.73923e-06 0.0868122)
(-1.66225e-06 1.3513e-06 0.0868185)
(1.08536e-08 1.2121e-05 0.101565)
(-1.21754e-07 -5.36407e-07 0.101745)
(3.81665e-06 -1.19126e-05 0.100951)
(5.26349e-07 -3.6854e-07 0.101736)
(2.25595e-08 -1.28527e-05 0.101563)
(-1.33452e-07 -4.88791e-07 0.101745)
(-3.46268e-06 1.09838e-05 0.100956)
(-3.63576e-06 -4.52932e-06 0.0997486)
(-4.52299e-06 -3.63056e-06 0.0997482)
(3.9745e-05 3.9759e-05 0.101717)
(3.60146e-06 4.3219e-06 0.0997543)
(4.31425e-06 3.59424e-06 0.0997539)
(1.59807e-08 -7.46311e-06 0.100776)
(7.52102e-07 5.87607e-06 0.0963709)
(-1.98331e-08 7.31964e-06 0.100772)
(-9.40664e-07 -5.72017e-06 0.0963767)
(-1.48568e-06 1.94461e-06 0.0868114)
(1.40812e-06 -1.93616e-06 0.0868183)
(-7.51017e-06 7.01484e-09 0.100775)
(5.83072e-06 7.09967e-07 0.0963702)
(7.36825e-06 -1.05231e-08 0.100772)
(-5.66728e-06 -9.05362e-07 0.096377)
(4.83145e-07 -4.80912e-07 0.101748)
(-4.76765e-07 4.7945e-07 0.101748)
(4.77066e-07 4.76787e-07 0.101748)
(-4.83267e-07 -4.78366e-07 0.101748)
(4.82614e-07 -4.79655e-07 0.101748)
(-4.79124e-07 4.83438e-07 0.101748)
(4.78874e-07 4.81211e-07 0.101748)
(1.23101e-05 -7.81055e-09 0.101565)
(-1.15511e-05 3.41423e-06 0.100951)
(-4.17019e-07 -1.50406e-07 0.101745)
(-3.2511e-07 5.17916e-07 0.101736)
(-1.24357e-05 -4.12648e-09 0.101564)
(1.11099e-05 -3.61712e-06 0.100957)
(-4.07649e-07 -1.49744e-07 0.101745)
(1.88918e-06 -1.44875e-06 0.0868096)
(-1.88174e-06 1.39206e-06 0.0868179)
(4.14867e-13 1.23201e-05 0.101565)
(-1.48121e-07 -4.18445e-07 0.101745)
(3.44603e-06 -1.1593e-05 0.100952)
(5.13347e-07 -3.25186e-07 0.101736)
(-4.40388e-09 -1.24476e-05 0.101564)
(-1.49508e-07 -4.03971e-07 0.101745)
(-3.64577e-06 1.11431e-05 0.100956)
(-3.71536e-06 -4.4482e-06 0.0997489)
(-4.43563e-06 -3.71119e-06 0.0997486)
(3.97741e-05 3.97911e-05 0.101717)
(3.55095e-06 4.3295e-06 0.0997544)
(4.32218e-06 3.54534e-06 0.0997539)
(1.29471e-08 -7.46459e-06 0.100776)
(7.52995e-07 5.85268e-06 0.0963708)
(-2.28023e-08 7.30313e-06 0.100772)
(-9.36035e-07 -5.71475e-06 0.0963768)
(-1.48291e-06 1.9036e-06 0.086811)
(1.39856e-06 -1.91214e-06 0.0868184)
(-7.51382e-06 8.54196e-09 0.100775)
(5.81007e-06 7.16063e-07 0.0963702)
(7.34948e-06 -9.86574e-09 0.100772)
(-5.67438e-06 -9.01484e-07 0.096377)
(4.82054e-07 -4.7805e-07 0.101748)
(-4.79665e-07 4.84269e-07 0.101748)
(4.79612e-07 4.82193e-07 0.101748)
(-4.82394e-07 -4.7144e-07 0.101748)
(4.80213e-07 -4.7059e-07 0.101748)
(-4.78865e-07 4.85986e-07 0.101748)
(4.78888e-07 4.83607e-07 0.101748)
(1.23126e-05 -3.127e-09 0.101565)
(-1.15386e-05 3.41594e-06 0.100951)
(-4.04457e-07 -1.4583e-07 0.101745)
(-3.22622e-07 5.21769e-07 0.101736)
(-1.24202e-05 2.04187e-09 0.101564)
(1.11133e-05 -3.60835e-06 0.100957)
(-4.02368e-07 -1.45008e-07 0.101745)
(1.88096e-06 -1.4634e-06 0.0868096)
(-1.87973e-06 1.38843e-06 0.0868179)
(-4.34582e-11 1.23234e-05 0.101565)
(-1.49521e-07 -4.03189e-07 0.101745)
(3.4415e-06 -1.15761e-05 0.100952)
(5.13283e-07 -3.21137e-07 0.101736)
(-5.17091e-09 -1.24281e-05 0.101564)
(-1.49871e-07 -3.96319e-07 0.101745)
(-3.64318e-06 1.11465e-05 0.100956)
(-3.70836e-06 -4.44896e-06 0.0997489)
(-4.44001e-06 -3.70212e-06 0.0997486)
(3.97752e-05 3.97951e-05 0.101717)
(3.5528e-06 4.33025e-06 0.0997543)
(4.32003e-06 3.54893e-06 0.0997539)
(2.72984e-08 -7.45846e-06 0.100776)
(8.04964e-07 5.88042e-06 0.0963708)
(-1.61192e-08 7.30671e-06 0.100772)
(-8.08449e-07 -5.67617e-06 0.0963768)
(-1.58977e-06 2.01027e-06 0.0868116)
(1.38427e-06 -1.92319e-06 0.0868179)
(-7.51313e-06 1.27428e-08 0.100775)
(5.81583e-06 7.26601e-07 0.0963702)
(7.34741e-06 -6.07559e-09 0.100772)
(-5.68524e-06 -8.9798e-07 0.096377)
(4.7993e-07 -4.68892e-07 0.101748)
(-4.79224e-07 4.86925e-07 0.101748)
(4.80605e-07 4.83655e-07 0.101748)
(-4.76166e-07 -4.69326e-07 0.101748)
(4.86314e-07 -4.7354e-07 0.101748)
(-4.77371e-07 4.88008e-07 0.101748)
(4.86758e-07 4.77116e-07 0.101748)
(1.23134e-05 -1.38905e-10 0.101565)
(-1.15356e-05 3.42823e-06 0.100951)
(-4.05278e-07 -1.3874e-07 0.101745)
(-3.23736e-07 5.3131e-07 0.101736)
(-1.24191e-05 7.35325e-09 0.101564)
(1.11172e-05 -3.59889e-06 0.100957)
(-4.03684e-07 -1.38895e-07 0.101745)
(1.88198e-06 -1.46208e-06 0.0868097)
(-1.87904e-06 1.38936e-06 0.0868179)
(6.78579e-10 1.23241e-05 0.101565)
(-1.49024e-07 -4.01608e-07 0.101745)
(3.44237e-06 -1.15749e-05 0.100952)
(5.13419e-07 -3.19191e-07 0.101736)
(-4.64863e-09 -1.24273e-05 0.101564)
(-1.49183e-07 -3.95229e-07 0.101745)
(-3.64271e-06 1.11471e-05 0.100956)
(-3.70861e-06 -4.44717e-06 0.0997489)
(-4.43964e-06 -3.70127e-06 0.0997486)
(3.97749e-05 3.97966e-05 0.101717)
(3.5531e-06 4.33074e-06 0.0997544)
(4.32036e-06 3.54933e-06 0.0997539)
(3.30106e-08 -7.46478e-06 0.100776)
(7.56151e-07 5.83592e-06 0.0963709)
(-1.43512e-08 7.30633e-06 0.100772)
(-9.0285e-07 -5.7012e-06 0.0963769)
(-1.4747e-06 1.96979e-06 0.0868116)
(1.56657e-06 -2.02932e-06 0.0868177)
(-7.51214e-06 1.01234e-08 0.100775)
(5.82767e-06 7.29888e-07 0.0963703)
(7.34747e-06 -6.02978e-09 0.100772)
(-5.7017e-06 -9.08598e-07 0.0963769)
(4.90234e-07 -4.80292e-07 0.101748)
(-4.7728e-07 4.87858e-07 0.101748)
(4.88557e-07 4.76446e-07 0.101748)
(-4.71398e-07 -4.73428e-07 0.101748)
(4.88965e-07 -4.82193e-07 0.101748)
(-4.76951e-07 4.84792e-07 0.101748)
(4.81779e-07 4.78623e-07 0.101748)
(1.23116e-05 -9.88441e-09 0.101565)
(-1.15387e-05 3.40568e-06 0.100952)
(-4.03129e-07 -1.48905e-07 0.101745)
(-3.20283e-07 5.01749e-07 0.101736)
(-1.242e-05 -2.97383e-11 0.101564)
(1.11081e-05 -3.62591e-06 0.100957)
(-4.00253e-07 -1.53083e-07 0.101745)
(1.8818e-06 -1.46257e-06 0.0868097)
(-1.87958e-06 1.38847e-06 0.0868179)
(3.43515e-10 1.23232e-05 0.101565)
(-1.49141e-07 -4.02726e-07 0.101745)
(3.4429e-06 -1.15747e-05 0.100952)
(5.13576e-07 -3.18179e-07 0.101736)
(-4.34739e-09 -1.24277e-05 0.101564)
(-1.49819e-07 -3.96854e-07 0.101745)
(-3.6424e-06 1.11474e-05 0.100956)
(-3.70791e-06 -4.44941e-06 0.0997489)
(-4.43951e-06 -3.70219e-06 0.0997486)
(3.97759e-05 3.97957e-05 0.101717)
(3.55386e-06 4.32881e-06 0.0997544)
(4.32137e-06 3.54836e-06 0.0997539)
(2.90928e-08 -7.46735e-06 0.100776)
(8.21286e-07 5.86976e-06 0.0963707)
(-9.15013e-09 7.30932e-06 0.100772)
(-9.03012e-07 -5.66248e-06 0.0963771)
(-1.46323e-06 1.78604e-06 0.0868117)
(1.43115e-06 -2.06094e-06 0.0868179)
(-7.51231e-06 6.64359e-09 0.100775)
(5.85543e-06 7.29827e-07 0.0963705)
(7.34776e-06 -1.00985e-08 0.100772)
(-5.71538e-06 -9.18514e-07 0.0963768)
(4.83918e-07 -4.78839e-07 0.101748)
(-4.78062e-07 4.84332e-07 0.101748)
(4.81229e-07 4.7927e-07 0.101748)
(-4.80545e-07 -4.79734e-07 0.101748)
(4.83896e-07 -4.7857e-07 0.101748)
(-4.79205e-07 4.83559e-07 0.101748)
(4.80508e-07 4.78773e-07 0.101748)
(1.23121e-05 -6.02428e-09 0.101565)
(-1.15389e-05 3.42101e-06 0.100951)
(-4.04736e-07 -1.48415e-07 0.101745)
(-3.23648e-07 5.14979e-07 0.101736)
(-1.24198e-05 1.07954e-09 0.101564)
(1.11126e-05 -3.61085e-06 0.100957)
(-4.03747e-07 -1.47731e-07 0.101745)
(1.88157e-06 -1.4636e-06 0.0868097)
(-1.88015e-06 1.38731e-06 0.0868179)
(3.20807e-10 1.23226e-05 0.101565)
(-1.49555e-07 -4.03326e-07 0.101745)
(3.44275e-06 -1.15751e-05 0.100952)
(5.13465e-07 -3.20558e-07 0.101736)
(-4.74192e-09 -1.24285e-05 0.101564)
(-1.50192e-07 -3.96636e-07 0.101745)
(-3.64252e-06 1.11465e-05 0.100956)
(-3.70715e-06 -4.45079e-06 0.0997489)
(-4.44018e-06 -3.70192e-06 0.0997486)
(3.97757e-05 3.97947e-05 0.101717)
(3.55374e-06 4.32895e-06 0.0997544)
(4.32114e-06 3.54868e-06 0.0997539)
(1.91608e-08 -7.4698e-06 0.100776)
(7.56414e-07 5.82185e-06 0.0963706)
(-2.5154e-08 7.30572e-06 0.100772)
(-9.30962e-07 -5.67872e-06 0.096377)
(-1.50755e-06 1.93644e-06 0.0868118)
(1.43309e-06 -1.97915e-06 0.0868181)
(-7.51237e-06 5.07852e-09 0.100775)
(5.85478e-06 7.29199e-07 0.0963705)
(7.34808e-06 -1.16452e-08 0.100772)
(-5.70918e-06 -9.15442e-07 0.0963769)
(4.83946e-07 -4.80933e-07 0.101748)
(-4.79794e-07 4.83468e-07 0.101748)
(4.80795e-07 4.80378e-07 0.101748)
(-4.83793e-07 -4.80894e-07 0.101748)
(4.83608e-07 -4.82228e-07 0.101748)
(-4.80006e-07 4.82869e-07 0.101748)
(4.79845e-07 4.80823e-07 0.101748)
(1.23132e-05 -6.92584e-09 0.101565)
(-1.15409e-05 3.4129e-06 0.100952)
(-4.02507e-07 -1.49433e-07 0.101745)
(-3.22508e-07 5.14123e-07 0.101736)
(-1.24199e-05 3.60298e-10 0.101564)
(1.1112e-05 -3.61199e-06 0.100957)
(-3.99756e-07 -1.48983e-07 0.101745)
(1.88087e-06 -1.46432e-06 0.0868097)
(-1.88063e-06 1.38646e-06 0.0868179)