/*--------------------------------*- C++ -*----------------------------------*\
| =========                 |                                                 |
| \\      /  F ield         | OpenFOAM: The Open Source CFD Toolbox           |
|  \\    /   O peration     | Version:  2206                                  |
|   \\  /    A nd           | Website:  www.openfoam.com                      |
|    \\/     M anipulation  |                                                 |
\*---------------------------------------------------------------------------*/
FoamFile
{
    version     2.0;
    format      ascii;
    arch        "LSB;label=32;scalar=64";
    class       volScalarField;
    location    "23";
    object      nut;
}
// * * * * * * * * * * * * * * * * * * * * * * * * * * * * * * * * * * * * * //

dimensions      [0 2 -1 0 0 0 0];

internalField   nonuniform List<scalar> 
28335
(
0.000223976
0.00020298
0.000202973
0.000179928
0.000223975
0.000202977
0.00020297
0.000179928
0.000223977
0.000202978
0.000202971
0.000179927
0.000223975
0.000202978
0.00020297
0.000179928
0.000223959
0.000202956
0.000202949
0.000179892
0.000223949
0.000202926
0.000202919
0.000179854
0.000223955
0.00020293
0.000202923
0.00017986
0.000223955
0.00020293
0.000202923
0.000179856
0.000223955
0.00020293
0.000202923
0.000179859
0.000223955
0.00020293
0.000202924
0.000179859
0.000223955
0.00020293
0.000202923
0.000179858
0.000223955
0.00020293
0.000202924
0.000179857
0.000223955
0.00020293
0.000202924
0.000179858
0.000223955
0.00020293
0.000202923
0.000179858
0.000223955
0.00020293
0.000202923
0.000179858
0.000223955
0.00020293
0.000202923
0.000179858
0.000223955
0.00020293
0.000202923
0.000179858
0.000180094
0.000202966
0.000202963
0.000180097
0.000202977
0.000202955
0.000202981
0.000202965
0.000180086
0.000202974
0.000202976
0.000180088
0.000179936
0.000180092
0.000202966
0.000202963
0.000202966
0.000202962
0.000179939
0.000180095
0.000202977
0.000202955
0.000202977
0.000202956
0.000202965
0.000202978
0.000202964
0.000179929
0.000180084
0.000202976
0.00020297
0.000202975
0.000180088
0.000179935
0.00018009
0.000202967
0.000202962
0.000202967
0.000202962
0.000179937
0.000180093
0.000202976
0.000202956
0.000202977
0.000202956
0.000202963
0.000202978
0.000202963
0.000179927
0.000180083
0.000202975
0.000202971
0.000202975
0.000180086
0.000179933
0.000180091
0.000202966
0.000202963
0.000202966
0.000202964
0.000179935
0.000180094
0.000202978
0.000202955
0.000202979
0.000202955
0.000202965
0.000202978
0.000202965
0.000179926
0.000180084
0.000202976
0.000202971
0.000202976
0.000180088
0.000179934
0.000180069
0.000202964
0.000202963
0.000202954
0.000202952
0.000179936
0.000180073
0.000202977
0.000202953
0.000202965
0.000202943
0.000202964
0.000202969
0.000202952
0.000179926
0.000180062
0.000202975
0.000202961
0.000202963
0.000180065
0.000179901
0.000180017
0.00020294
0.000202937
0.00020291
0.000202907
0.000179904
0.000180021
0.000202951
0.000202929
0.000202921
0.000202899
0.000202938
0.000202925
0.000202908
0.000179893
0.00018001
0.000202949
0.000202918
0.00020292
0.000180014
0.00017986
0.000180024
0.000202912
0.000202908
0.000202915
0.000202911
0.000179863
0.000180027
0.000202923
0.0002029
0.000202926
0.000202903
0.00020291
0.00020293
0.000202913
0.000179853
0.000180016
0.000202921
0.000202923
0.000202924
0.000180021
0.000179865
0.000180018
0.000202915
0.000202912
0.000202915
0.000202912
0.000179869
0.000180021
0.000202927
0.000202904
0.000202926
0.000202904
0.000202914
0.00020293
0.000202913
0.000179858
0.00018001
0.000202925
0.000202923
0.000202924
0.000180015
0.00017986
0.000180022
0.000202916
0.000202913
0.000202916
0.000202913
0.000179863
0.000180026
0.000202927
0.000202905
0.000202927
0.000202905
0.000202914
0.000202931
0.000202914
0.000179853
0.000180014
0.000202925
0.000202924
0.000202925
0.000180019
0.000179864
0.000180021
0.000202916
0.000202913
0.000202916
0.000202913
0.000179867
0.000180025
0.000202927
0.000202905
0.000202927
0.000202905
0.000202915
0.000202931
0.000202914
0.000179856
0.000180013
0.000202926
0.000202924
0.000202925
0.000180018
0.000179863
0.00018002
0.000202916
0.000202913
0.000202916
0.000202913
0.000179867
0.000180024
0.000202927
0.000202905
0.000202926
0.000202905
0.000202915
0.000202931
0.000202914
0.000179856
0.000180013
0.000202926
0.000202924
0.000202925
0.000180017
0.000179863
0.00018002
0.000202916
0.000202913
0.000202916
0.000202913
0.000179866
0.000180024
0.000202927
0.000202905
0.000202927
0.000202905
0.000202915
0.000202931
0.000202914
0.000179856
0.000180013
0.000202926
0.000202924
0.000202925
0.000180017
0.000179863
0.00018002
0.000202916
0.000202913
0.000202916
0.000202913
0.000179866
0.000180024
0.000202927
0.000202905
0.000202927
0.000202905
0.000202914
0.000202931
0.000202914
0.000179856
0.000180013
0.000202926
0.000202924
0.000202925
0.000180017
0.000179863
0.00018002
0.000202916
0.000202913
0.000202916
0.000202913
0.000179867
0.000180024
0.000202927
0.000202905
0.000202927
0.000202905
0.000202915
0.000202931
0.000202914
0.000179856
0.000180013
0.000202926
0.000202924
0.000202925
0.000180017
0.000179863
0.00018002
0.000202916
0.000202913
0.000202916
0.000202913
0.000179867
0.000180024
0.000202927
0.000202905
0.000202927
0.000202905
0.000202915
0.000202931
0.000202914
0.000179856
0.000180013
0.000202926
0.000202924
0.000202925
0.000180017
0.000179863
0.00018002
0.000202916
0.000202913
0.000202916
0.000202913
0.000179867
0.000180024
0.000202927
0.000202905
0.000202927
0.000202905
0.000202915
0.000202931
0.000202914
0.000179856
0.000180013
0.000202926
0.000202924
0.000202925
0.000180017
0.000179863
0.00018002
0.000202916
0.000202913
0.000202916
0.000202913
0.000179867
0.000180024
0.000202927
0.000202905
0.000202927
0.000202905
0.000202915
0.000202931
0.000202914
0.000179856
0.000180013
0.000202926
0.000202924
0.000202925
0.000180017
0.000179863
0.000202916
0.000202913
0.000179867
0.000202927
0.000202905
0.000202914
0.000179856
0.000202925
4.55718e-05
4.92588e-05
2.56324e-05
4.55789e-05
4.92546e-05
0.000223976
0.000223977
0.000223974
0.000223976
0.000107776
0.000202982
5.56248e-05
0.000216467
2.56299e-05
0.000107775
0.000202975
0.000216465
5.56277e-05
0.000180093
3.53106e-05
3.53045e-05
4.55756e-05
4.92588e-05
4.55665e-05
4.92577e-05
2.56315e-05
2.5631e-05
4.55811e-05
4.92547e-05
4.55739e-05
4.92536e-05
0.000223976
0.000223973
0.000223975
0.000223975
0.000223975
0.000223972
0.000223974
0.000107774
5.56108e-05
0.000216467
0.00020298
0.000107748
5.56275e-05
0.000216464
2.56291e-05
2.56285e-05
0.000107774
0.000216465
5.56142e-05
0.000202973
0.000107747
0.000216462
5.56304e-05
3.5309e-05
3.53029e-05
0.000180088
3.53135e-05
3.53075e-05
4.55774e-05
4.92581e-05
4.55687e-05
4.92572e-05
2.56307e-05
2.56305e-05
4.5583e-05
4.9254e-05
4.55742e-05
4.92531e-05
0.000223975
0.000223972
0.000223974
0.000223977
0.000223974
0.000223972
0.000223974
0.000107774
5.56136e-05
0.000216463
0.000202977
0.000107747
5.56303e-05
0.000216463
2.56283e-05
2.5628e-05
0.000107774
0.000216461
5.56168e-05
0.00020297
0.000107745
0.000216461
5.56327e-05
3.53158e-05
3.531e-05
0.000180087
3.53215e-05
3.53156e-05
4.55821e-05
4.92578e-05
4.55725e-05
4.92571e-05
2.56306e-05
2.56306e-05
4.55888e-05
4.92538e-05
4.55797e-05
4.9253e-05
0.000223977
0.000223974
0.000223977
0.000223976
0.000223978
0.000223973
0.000223977
0.000107778
5.56157e-05
0.000216464
0.000202979
0.000107749
5.56323e-05
0.000216465
2.56282e-05
2.56281e-05
0.000107777
0.000216462
5.56184e-05
0.000202972
0.000107748
0.000216464
5.56346e-05
3.53229e-05
3.53171e-05
0.000180087
3.5327e-05
3.53212e-05
4.55807e-05
4.92579e-05
4.55752e-05
4.92577e-05
2.56309e-05
2.56311e-05
4.55875e-05
4.92539e-05
4.55826e-05
4.92536e-05
0.000223977
0.000223973
0.000223976
0.00022397
0.00022397
0.000223967
0.000223969
0.000107776
5.56175e-05
0.000216465
0.000202976
0.000107752
5.56311e-05
0.000216464
2.56285e-05
2.56286e-05
0.000107774
0.000216464
5.56207e-05
0.000202968
0.000107751
0.000216463
5.56338e-05
3.53258e-05
3.532e-05
0.000180084
3.53267e-05
3.53208e-05
4.55581e-05
4.92603e-05
4.5559e-05
4.92605e-05
2.56313e-05
2.56311e-05
4.55644e-05
4.92562e-05
4.55662e-05
4.92564e-05
0.00022396
0.000223958
0.000223958
0.000223946
0.000223947
0.000223944
0.000223945
0.000107722
5.56026e-05
0.000216446
0.00020294
0.000107728
5.56086e-05
0.000216432
2.56289e-05
2.56286e-05
0.000107721
0.000216444
5.5606e-05
0.000202933
0.000107727
0.00021643
5.56114e-05
3.53189e-05
3.53129e-05
0.00018003
3.53173e-05
3.53113e-05
4.55466e-05
4.92615e-05
4.55408e-05
4.92607e-05
2.56311e-05
2.56309e-05
4.55534e-05
4.92575e-05
4.55482e-05
4.92566e-05
0.000223951
0.000223948
0.000223949
0.000223955
0.000223956
0.000223953
0.000223954
0.000107703
5.55812e-05
0.000216427
0.000202929
0.000107672
5.55946e-05
0.00021643
2.56286e-05
2.56284e-05
0.000107702
0.000216425
5.55848e-05
0.000202922
0.000107672
0.000216428
5.55978e-05
3.53076e-05
3.53017e-05
0.000180023
3.53085e-05
3.53025e-05
4.55454e-05
4.92613e-05
4.55377e-05
4.92606e-05
2.56312e-05
2.56311e-05
4.55524e-05
4.92572e-05
4.55454e-05
4.92564e-05
0.000223956
0.000223954
0.000223955
0.000223955
0.000223956
0.000223953
0.000223954
0.000107704
5.55776e-05
0.000216431
0.00020293
0.000107677
5.55933e-05
0.000216431
2.56286e-05
2.56284e-05
0.000107702
0.000216429
5.55814e-05
0.000202923
0.000107675
0.000216429
5.55965e-05
3.53053e-05
3.52993e-05
0.000180016
3.53078e-05
3.53018e-05
4.55454e-05
4.92613e-05
4.55376e-05
4.92606e-05
2.56312e-05
2.56311e-05
4.55524e-05
4.92571e-05
4.55453e-05
4.92563e-05
0.000223956
0.000223953
0.000223955
0.000223955
0.000223956
0.000223953
0.000223954
0.000107704
5.55775e-05
0.000216432
0.000202931
0.000107677
5.55933e-05
0.000216432
2.56286e-05
2.56284e-05
0.000107702
0.00021643
5.55811e-05
0.000202924
0.000107674
0.00021643
5.55964e-05
3.53052e-05
3.52993e-05
0.000180018
3.53078e-05
3.53018e-05
4.55454e-05
4.92613e-05
4.55376e-05
4.92606e-05
2.56312e-05
2.56311e-05
4.55524e-05
4.9257e-05
4.55453e-05
4.92563e-05
0.000223956
0.000223953
0.000223955
0.000223955
0.000223956
0.000223953
0.000223954
0.000107702
5.55775e-05
0.000216432
0.000202931
0.000107676
5.55933e-05
0.000216432
2.56286e-05
2.56284e-05
0.000107701
0.00021643
5.55811e-05
0.000202924
0.000107674
0.00021643
5.55964e-05
3.53052e-05
3.52993e-05
0.000180016
3.53078e-05
3.53018e-05
4.55454e-05
4.92613e-05
4.55376e-05
4.92606e-05
2.56312e-05
2.56311e-05
4.55524e-05
4.9257e-05
4.55453e-05
4.92562e-05
0.000223956
0.000223953
0.000223955
0.000223955
0.000223956
0.000223953
0.000223954
0.000107704
5.55775e-05
0.000216432
0.000202931
0.000107676
5.55933e-05
0.000216432
2.56286e-05
2.56284e-05
0.000107702
0.00021643
5.55811e-05
0.000202924
0.000107674
0.00021643
5.55964e-05
3.53052e-05
3.52993e-05
0.000180018
3.53078e-05
3.53018e-05
4.55454e-05
4.92613e-05
4.55376e-05
4.92606e-05
2.56312e-05
2.56311e-05
4.55524e-05
4.9257e-05
4.55453e-05
4.92562e-05
0.000223956
0.000223953
0.000223955
0.000223955
0.000223956
0.000223953
0.000223954
0.000107704
5.55774e-05
0.000216432
0.000202931
0.000107677
5.55933e-05
0.000216432
2.56286e-05
2.56284e-05
0.000107702
0.00021643
5.55811e-05
0.000202924
0.000107674
0.00021643
5.55964e-05
3.53052e-05
3.52993e-05
0.000180018
3.53078e-05
3.53018e-05
4.55454e-05
4.92613e-05
4.55376e-05
4.92606e-05
2.56312e-05
2.56311e-05
4.55524e-05
4.9257e-05
4.55453e-05
4.92562e-05
0.000223956
0.000223953
0.000223955
0.000223955
0.000223956
0.000223953
0.000223954
0.000107701
5.55774e-05
0.000216431
0.000202931
0.000107676
5.55933e-05
0.000216432
2.56286e-05
2.56284e-05
0.000107701
0.00021643
5.55811e-05
0.000202924
0.000107674
0.00021643
5.55964e-05
3.53052e-05
3.52993e-05
0.000180018
3.53078e-05
3.53018e-05
4.55454e-05
4.92613e-05
4.55376e-05
4.92606e-05
2.56312e-05
2.56311e-05
4.55524e-05
4.9257e-05
4.55453e-05
4.92562e-05
0.000223956
0.000223953
0.000223955
0.000223955
0.000223956
0.000223953
0.000223954
0.000107703
5.55774e-05
0.000216431
0.000202931
0.000107676
5.55933e-05
0.000216432
2.56286e-05
2.56284e-05
0.000107699
0.00021643
5.55811e-05
0.000202924
0.000107672
0.00021643
5.55964e-05
3.53052e-05
3.52993e-05
0.000180018
3.53078e-05
3.53018e-05
4.55454e-05
4.92613e-05
4.55375e-05
4.92606e-05
2.56312e-05
2.56311e-05
4.55524e-05
4.9257e-05
4.55452e-05
4.92562e-05
0.000223956
0.000223953
0.000223955
0.000223955
0.000223956
0.000223953
0.000223954
0.000107704
5.55775e-05
0.000216432
0.000202931
0.000107677
5.55933e-05
0.000216432
2.56286e-05
2.56284e-05
0.000107697
0.00021643
5.55811e-05
0.000202924
0.00010767
0.00021643
5.55964e-05
3.53052e-05
3.52993e-05
0.000180018
3.53078e-05
3.53018e-05
4.55454e-05
4.92613e-05
4.55375e-05
4.92606e-05
2.56312e-05
2.56311e-05
4.55524e-05
4.9257e-05
4.55453e-05
4.92562e-05
0.000223956
0.000223953
0.000223955
0.000223955
0.000223956
0.000223953
0.000223954
0.000107704
5.55775e-05
0.000216432
0.000202931
0.000107677
5.55933e-05
0.000216432
2.56286e-05
2.56284e-05
0.000107696
0.000216429
5.55811e-05
0.000202924
0.000107669
0.00021643
5.55964e-05
3.53052e-05
3.52993e-05
0.000180018
3.53078e-05
3.53018e-05
4.55454e-05
4.92613e-05
4.55376e-05
4.92606e-05
2.56312e-05
2.56311e-05
4.55524e-05
4.9257e-05
4.55453e-05
4.92562e-05
0.000223956
0.000223953
0.000223955
0.000223955
0.000223956
0.000223953
0.000223954
0.000107704
5.55775e-05
0.000216432
0.000202931
0.000107677
5.55933e-05
0.000216432
2.56286e-05
2.56284e-05
0.000107696
0.000216429
5.55811e-05
0.000202924
0.000107668
0.00021643
5.55964e-05
3.53052e-05
3.52993e-05
0.000180018
3.53078e-05
3.53018e-05
4.55454e-05
4.92613e-05
4.55376e-05
4.92606e-05
2.56312e-05
2.56311e-05
4.55525e-05
4.9257e-05
4.55453e-05
4.92562e-05
0.000223956
0.000223953
0.000223954
0.000107705
5.55775e-05
0.000216432
0.000202931
0.000107677
5.55933e-05
0.000216432
2.56286e-05
2.56284e-05
0.000107697
0.000216429
5.55811e-05
0.000202924
0.000107668
0.00021643
5.55969e-05
3.53052e-05
3.52993e-05
0.00018002
3.5308e-05
3.53023e-05
2.56337e-05
2.56317e-05
0.000180098
3.53113e-05
3.53043e-05
2.56328e-05
2.56336e-05
2.56308e-05
2.56317e-05
0.000179938
3.53118e-05
3.53049e-05
3.53087e-05
3.53016e-05
4.55726e-05
4.92584e-05
0.000107777
0.000202967
5.56305e-05
0.000216467
0.000107778
0.000202964
5.56279e-05
0.000216466
4.55656e-05
4.92582e-05
4.92592e-05
4.55738e-05
4.55664e-05
4.92579e-05
4.92589e-05
4.55746e-05
0.000107753
0.000202967
5.5632e-05
0.000216466
5.56172e-05
0.000216467
0.000107777
0.000107754
0.000202963
5.56294e-05
0.000216466
5.56142e-05
0.000216466
0.000107779
0.000180103
3.53062e-05
3.53025e-05
2.56332e-05
2.56315e-05
2.56323e-05
0.000179942
3.5308e-05
3.53045e-05
3.53043e-05
3.53004e-05
2.56323e-05
2.56332e-05
0.000107779
0.000202978
5.56226e-05
0.000216467
4.55774e-05
4.92515e-05
0.000107778
0.000202956
0.000216463
5.56149e-05
4.55734e-05
4.92541e-05
4.92552e-05
4.55807e-05
0.000107755
0.000202978
5.56241e-05
0.000216466
5.56093e-05
0.000216466
0.000107779
4.5572e-05
4.9251e-05
4.92521e-05
4.55793e-05
0.000107754
0.000202956
0.000216462
5.56166e-05
0.000216463
5.56008e-05
0.000107778
4.55717e-05
4.92568e-05
0.000107776
0.000202966
0.000216466
5.56274e-05
4.55713e-05
4.92551e-05
0.000107752
0.000202982
5.56263e-05
0.000216467
5.56108e-05
0.000216467
0.000107775
4.55655e-05
4.92563e-05
4.92574e-05
4.55736e-05
0.000107752
0.000202965
0.000216466
5.56288e-05
0.000216466
5.56138e-05
0.000107776
4.55651e-05
4.92545e-05
4.92556e-05
4.55734e-05
0.000180091
3.52951e-05
3.53104e-05
2.56325e-05
2.56291e-05
2.563e-05
0.000179931
3.52975e-05
3.53108e-05
3.52929e-05
3.53078e-05
2.56316e-05
2.56325e-05
0.000107778
0.000202977
0.000216466
5.56248e-05
4.55782e-05
4.92548e-05
4.55785e-05
4.92548e-05
0.00010775
0.000202975
0.000216465
5.56291e-05
0.000216465
5.56142e-05
0.000107775
0.000107753
0.000202977
0.000216466
5.56262e-05
0.000216466
5.56111e-05
0.000107778
4.55726e-05
4.92542e-05
4.92553e-05
4.55801e-05
4.55729e-05
4.92542e-05
4.92553e-05
4.55804e-05
2.56324e-05
2.56314e-05
0.000179933
3.53111e-05
3.5305e-05
3.53079e-05
3.53018e-05
2.56314e-05
2.56323e-05
2.56304e-05
2.56313e-05
2.56328e-05
2.56323e-05
2.56309e-05
2.56303e-05
3.531e-05
3.5303e-05
0.000180092
3.53147e-05
3.53077e-05
2.5632e-05
2.56324e-05
2.563e-05
2.56304e-05
0.000179934
3.53191e-05
3.53119e-05
3.53134e-05
3.53062e-05
4.55761e-05
4.92584e-05
4.55684e-05
4.92574e-05
0.000107779
5.56186e-05
0.000216467
0.000202966
0.000107754
5.56335e-05
0.000216467
0.00010778
5.56158e-05
0.000216466
0.000202963
0.000107755
5.56309e-05
0.000216466
4.55691e-05
4.92574e-05
4.92583e-05
4.55763e-05
4.55696e-05
4.92571e-05
4.9258e-05
4.55765e-05
0.000107754
0.000202967
5.56348e-05
0.000216466
5.56201e-05
0.000216467
0.000107778
0.000107755
0.000202963
5.56323e-05
0.000216466
5.56172e-05
0.000216466
0.000107779
3.5306e-05
3.53019e-05
0.000180096
3.53102e-05
3.53057e-05
2.56324e-05
2.56318e-05
2.56307e-05
2.56311e-05
0.000179938
3.53138e-05
3.531e-05
3.53086e-05
3.53037e-05
2.56315e-05
2.56319e-05
0.000107781
5.56107e-05
0.000216465
0.000202977
0.000107756
5.56255e-05
0.000216465
4.55799e-05
4.92515e-05
4.55737e-05
4.92506e-05
0.000107779
0.000216463
5.56024e-05
0.000202955
0.000107755
0.000216462
5.5618e-05
4.5575e-05
4.92533e-05
4.92542e-05
4.5581e-05
0.000107757
0.000202977
5.56269e-05
0.000216465
5.56122e-05
0.000216466
0.000107779
4.55739e-05
4.92502e-05
4.92512e-05
4.558e-05
0.000107755
0.000202956
0.000216462
5.56194e-05
0.000216463
5.56038e-05
0.000107778
4.55753e-05
4.92568e-05
4.55674e-05
4.92558e-05
0.000107779
0.000216466
5.56152e-05
0.000202965
0.000107753
0.000216466
5.56302e-05
4.55751e-05
4.9255e-05
4.55672e-05
4.92541e-05
0.00010775
0.00020298
5.5629e-05
0.000216463
5.56135e-05
0.000216464
0.000107774
4.55688e-05
4.92555e-05
4.92564e-05
4.55761e-05
0.000107755
0.000202964
0.000216464
5.56315e-05
0.000216465
5.56166e-05
0.000107777
4.55687e-05
4.92537e-05
4.92546e-05
4.5576e-05
3.52949e-05
3.5309e-05
0.000180085
3.52988e-05
3.53137e-05
2.56317e-05
2.56311e-05
2.56282e-05
2.56286e-05
0.000179927
3.53025e-05
3.53179e-05
3.52965e-05
3.53122e-05
2.56308e-05
2.56312e-05
0.000107778
0.000216465
5.56125e-05
0.000202976
0.000107754
0.000216465
5.56276e-05
4.55807e-05
4.92547e-05
4.55743e-05
4.92538e-05
4.55811e-05
4.92547e-05
4.55746e-05
4.92538e-05
0.00010775
0.000202972
0.000216461
5.56318e-05
0.000216462
5.56169e-05
0.000107773
0.000107752
0.000202976
0.000216465
5.56288e-05
0.000216465
5.56139e-05
0.000107776
4.55745e-05
4.92535e-05
4.92543e-05
4.55807e-05
4.5575e-05
4.92535e-05
4.92543e-05
4.55813e-05
2.56315e-05
2.56309e-05
2.56305e-05
2.56299e-05
0.000179931
3.53173e-05
3.53115e-05
3.53119e-05
3.5306e-05
2.56306e-05
2.5631e-05
2.56296e-05
2.563e-05
2.56321e-05
2.56318e-05
2.56301e-05
2.56298e-05
3.53178e-05
3.53106e-05
0.000180091
3.53232e-05
3.5316e-05
2.56318e-05
2.5632e-05
2.56298e-05
2.563e-05
0.000179933
3.53264e-05
3.53192e-05
3.53218e-05
3.53145e-05
4.5578e-05
4.92577e-05
4.55701e-05
4.92569e-05
0.000107779
5.56214e-05
0.000216466
0.000202967
0.000107755
5.56357e-05
0.000216466
0.00010778
5.56185e-05
0.000216463
0.000202962
0.000107756
5.56333e-05
0.000216463
4.55713e-05
4.92571e-05
4.92578e-05
4.55797e-05
4.5572e-05
4.92568e-05
4.92575e-05
4.55806e-05
0.000107755
0.000202967
5.56365e-05
0.000216466
5.56222e-05
0.000216466
0.00010778
0.000107756
0.000202962
5.5634e-05
0.000216463
5.56194e-05
0.000216463
0.000107781
3.53124e-05
3.53087e-05
0.000180094
3.53177e-05
3.53147e-05
2.56316e-05
2.56313e-05
2.56305e-05
2.56307e-05
0.000179936
3.53208e-05
3.53175e-05
3.53162e-05
3.53128e-05
2.56313e-05
2.56315e-05
0.000107779
5.56135e-05
0.000216464
0.000202976
0.000107754
5.56279e-05
0.000216464
4.55821e-05
4.92509e-05
4.55744e-05
4.92501e-05
0.000107779
0.00021646
5.56053e-05
0.000202956
0.000107755
0.00021646
5.56209e-05
4.55778e-05
4.9253e-05
4.92538e-05
4.55861e-05
0.000107756
0.000202977
5.56287e-05
0.000216465
5.56144e-05
0.000216465
0.00010778
4.55769e-05
4.925e-05
4.92507e-05
4.55852e-05
0.000107755
0.000202956
0.00021646
5.56219e-05
0.00021646
5.56066e-05
0.00010778
4.55773e-05
4.92562e-05
4.55696e-05
4.92553e-05
0.000107777
0.000216463
5.56179e-05
0.000202963
0.000107752
0.000216463
5.56325e-05
4.55773e-05
4.92543e-05
4.55696e-05
4.92535e-05
0.00010775
0.000202977
5.56313e-05
0.000216463
5.56162e-05
0.000216463
0.000107776
4.55712e-05
4.92552e-05
4.9256e-05
4.55797e-05
0.000107753
0.000202964
0.000216463
5.56333e-05
0.000216464
5.56188e-05
0.000107778
4.55712e-05
4.92534e-05
4.92541e-05
4.55797e-05
3.53008e-05
3.53166e-05
0.000180084
3.53069e-05
3.53221e-05
2.56309e-05
2.56306e-05
2.5628e-05
2.56283e-05
0.000179926
3.531e-05
3.53252e-05
3.53049e-05
3.53206e-05
2.56306e-05
2.56308e-05
0.000107777
0.000216462
5.5615e-05
0.000202975
0.000107752
0.000216462
5.56297e-05
4.55825e-05
4.9254e-05
4.55749e-05
4.92533e-05
4.5583e-05
4.9254e-05
4.55754e-05
4.92533e-05
0.00010775
0.00020297
0.000216461
5.56335e-05
0.000216461
5.5619e-05
0.000107776
0.000107752
0.000202975
0.000216461
5.56303e-05
0.000216461
5.56158e-05
0.000107778
4.55772e-05
4.92532e-05
4.92539e-05
4.55855e-05
4.55777e-05
4.92531e-05
4.92539e-05
4.55859e-05
2.56308e-05
2.56305e-05
2.56297e-05
2.56294e-05
0.00017993
3.53247e-05
3.53189e-05
3.532e-05
3.53142e-05
2.56304e-05
2.56306e-05
2.56294e-05
2.56296e-05
2.5632e-05
2.56318e-05
2.563e-05
2.56299e-05
3.53248e-05
3.53175e-05
0.00018009
3.53287e-05
3.53215e-05
2.5632e-05
2.56321e-05
2.563e-05
2.56301e-05
0.000179932
3.53301e-05
3.53228e-05
3.53268e-05
3.53195e-05
4.55831e-05
4.92574e-05
4.55746e-05
4.92568e-05
0.000107783
5.5623e-05
0.000216466
0.000202966
0.000107757
5.56377e-05
0.000216466
0.000107784
5.56203e-05
0.000216463
0.000202963
0.000107758
5.56353e-05
0.000216464
4.55759e-05
4.92571e-05
4.92577e-05
4.5583e-05
4.5577e-05
4.92568e-05
4.92574e-05
4.55841e-05
0.00010776
0.000202966
5.5639e-05
0.000216466
5.56244e-05
0.000216466
0.000107783
0.000107761
0.000202964
5.56366e-05
0.000216466
5.56217e-05
0.000216465
0.000107784
3.53191e-05
3.53154e-05
0.000180093
3.5323e-05
3.53195e-05
2.56315e-05
2.56314e-05
2.56307e-05
2.56308e-05
0.000179935
3.53243e-05
3.53206e-05
3.5321e-05
3.53171e-05
2.56315e-05
2.56316e-05
0.000107784
5.56153e-05
0.000216467
0.000202978
0.000107758
5.563e-05
0.000216467
4.55878e-05
4.92507e-05
4.55799e-05
4.925e-05
0.000107784
0.000216462
5.56077e-05
0.000202955
0.000107758
0.000216462
5.5623e-05
4.55833e-05
4.9253e-05
4.92537e-05
4.55897e-05
0.000107761
0.000202979
5.56313e-05
0.000216467
5.56167e-05
0.000216468
0.000107783
4.55823e-05
4.925e-05
4.92507e-05
4.55887e-05
0.000107761
0.000202955
0.000216462
5.56239e-05
0.000216462
5.56088e-05
0.000107783
4.5582e-05
4.92559e-05
4.55736e-05
4.92552e-05
0.000107782
0.000216463
5.56197e-05
0.000202965
0.000107755
0.000216464
5.56346e-05
4.5582e-05
4.92541e-05
4.55736e-05
4.92534e-05
0.000107754
0.000202978
5.56333e-05
0.000216466
5.56182e-05
0.000216466
0.000107779
4.55758e-05
4.92553e-05
4.92559e-05
4.5583e-05
0.000107759
0.000202965
0.000216465
5.56358e-05
0.000216465
5.56211e-05
0.000107782
4.55758e-05
4.92534e-05
4.92541e-05
4.55829e-05
3.53077e-05
3.53236e-05
0.000180083
3.5312e-05
3.53275e-05
2.56308e-05
2.56307e-05
2.56282e-05
2.56284e-05
0.000179925
3.53131e-05
3.53288e-05
3.53095e-05
3.53255e-05
2.56308e-05
2.56309e-05
0.000107781
0.000216463
5.56165e-05
0.000202976
0.000107755
0.000216464
5.56314e-05
4.5588e-05
4.92538e-05
4.55801e-05
4.92532e-05
4.55883e-05
4.92538e-05
4.55804e-05
4.92531e-05
0.000107753
0.000202971
0.000216464
5.56359e-05
0.000216464
5.56211e-05
0.000107778
0.000107757
0.000202977
0.000216466
5.56326e-05
0.000216466
5.56178e-05
0.00010778
4.55824e-05
4.92532e-05
4.92538e-05
4.55892e-05
4.55827e-05
4.92531e-05
4.92537e-05
4.55893e-05
2.56306e-05
2.56305e-05
2.56296e-05
2.56295e-05
0.000179929
3.53284e-05
3.53224e-05
3.5325e-05
3.53192e-05
2.56306e-05
2.56307e-05
2.56296e-05
2.56297e-05
2.56323e-05
2.56324e-05
2.56303e-05
2.56304e-05
3.53278e-05
3.53205e-05
0.000180087
3.53284e-05
3.53212e-05
2.56325e-05
2.56326e-05
2.56306e-05
2.56307e-05
0.000179926
3.53242e-05
3.5317e-05
3.5325e-05
3.53177e-05
4.55818e-05
4.92575e-05
4.55774e-05
4.92573e-05
0.000107772
5.56253e-05
0.000216466
0.000202962
0.000107754
5.56365e-05
0.000216465
0.000107774
5.56225e-05
0.000216465
0.000202961
0.000107756
5.56341e-05
0.000216464
4.55721e-05
4.92591e-05
4.92586e-05
4.55705e-05
4.55732e-05
4.92588e-05
4.92582e-05
4.55714e-05
0.000107743
0.000202959
5.56269e-05
0.000216458
5.56209e-05
0.000216462
0.00010776
0.000107745
0.000202958
5.56245e-05
0.000216458
5.56182e-05
0.000216462
0.000107761
3.5322e-05
3.53179e-05
0.00018009
3.53226e-05
3.5319e-05
2.56318e-05
2.56319e-05
2.56312e-05
2.56313e-05
0.00017993
3.53184e-05
3.53149e-05
3.53191e-05
3.53152e-05
2.5632e-05
2.56322e-05
0.000107773
5.56176e-05
0.000216466
0.000202975
0.000107755
5.56288e-05
0.000216465
4.55865e-05
4.92508e-05
4.55827e-05
4.92505e-05
0.000107773
0.000216461
5.56093e-05
0.000202951
0.000107754
0.000216461
5.56214e-05
4.55795e-05
4.9255e-05
4.92545e-05
4.55771e-05
0.000107745
0.000202971
5.56192e-05
0.000216457
5.56132e-05
0.000216462
0.000107761
4.55786e-05
4.92519e-05
4.92515e-05
4.5576e-05
0.000107744
0.000202949
0.000216454
5.56118e-05
0.000216458
5.5605e-05
0.000107761
4.55811e-05
4.9256e-05
4.55764e-05
4.92558e-05
0.000107773
0.000216465
5.56218e-05
0.000202961
0.000107754
0.000216464
5.56334e-05
4.55807e-05
4.92541e-05
4.55762e-05
4.9254e-05
0.000107747
0.000202973
5.56217e-05
0.000216458
5.56149e-05
0.000216463
0.00010776
4.55725e-05
4.92572e-05
4.92567e-05
4.55707e-05
0.000107744
0.000202958
0.000216457
5.5624e-05
0.000216462
5.56177e-05
0.000107759
4.5572e-05
4.92554e-05
4.92549e-05
4.55702e-05
3.53102e-05
3.53265e-05
0.000180079
3.53113e-05
3.53273e-05
2.56311e-05
2.56312e-05
2.56288e-05
2.56289e-05
0.000179919
3.53071e-05
3.53231e-05
3.53073e-05
3.53238e-05
2.56314e-05
2.56315e-05
0.000107772
0.000216466
5.56185e-05
0.000202972
0.000107752
0.000216465
5.56302e-05
4.55873e-05
4.92539e-05
4.55832e-05
4.92537e-05
4.55871e-05
4.92538e-05
4.55831e-05
4.92536e-05
0.000107744
0.000202966
0.000216457
5.56246e-05
0.000216461
5.56182e-05
0.000107759
0.000107743
0.000202969
0.000216457
5.56206e-05
0.000216462
5.56143e-05
0.000107759
4.55792e-05
4.92551e-05
4.92546e-05
4.55767e-05
4.5579e-05
4.9255e-05
4.92545e-05
4.55765e-05
2.56309e-05
2.5631e-05
2.56299e-05
2.563e-05
0.000179924
3.53227e-05
3.53167e-05
3.53233e-05
3.53173e-05
2.56312e-05
2.56313e-05
2.56302e-05
2.56303e-05
2.56327e-05
2.56324e-05
2.56307e-05
2.56304e-05
3.53206e-05
3.53134e-05
0.000180032
3.53188e-05
3.53116e-05
2.56322e-05
2.56325e-05
2.56303e-05
2.56305e-05
0.000179861
3.53125e-05
3.53053e-05
3.53147e-05
3.53074e-05
4.55588e-05
4.92598e-05
4.5561e-05
4.92603e-05
0.000107722
5.56099e-05
0.000216445
0.000202924
0.000107728
5.56139e-05
0.00021643
0.000107723
5.56071e-05
0.000216445
0.000202921
0.000107729
5.56113e-05
0.00021643
4.55487e-05
4.92608e-05
4.92613e-05
4.55499e-05
4.55494e-05
4.92606e-05
4.92611e-05
4.55506e-05
0.000107684
0.000202914
5.5604e-05
0.000216423
5.5597e-05
0.000216424
0.000107699
0.000107685
0.000202911
5.56014e-05
0.000216423
5.55941e-05
0.000216424
0.0001077
3.53148e-05
3.53109e-05
0.000180036
3.53131e-05
3.53097e-05
2.56322e-05
2.56319e-05
2.5631e-05
2.56312e-05
0.000179864
3.53066e-05
3.53027e-05
3.53091e-05
3.53056e-05
2.56318e-05
2.56321e-05
0.000107723
5.56022e-05
0.000216444
0.000202935
0.00010773
5.56061e-05
0.000216428
4.55632e-05
4.9253e-05
4.55662e-05
4.92535e-05
0.000107722
0.000216441
5.55939e-05
0.000202913
0.000107729
0.000216426
5.55986e-05
4.55557e-05
4.92568e-05
4.92572e-05
4.55565e-05
0.000107685
0.000202925
5.55964e-05
0.000216422
5.55892e-05
0.000216424
0.0001077
4.55545e-05
4.92538e-05
4.92543e-05
4.55551e-05
0.000107684
0.000202903
0.000216419
5.55885e-05
0.00021642
5.55808e-05
0.000107699
4.55581e-05
4.92583e-05
4.55603e-05
4.92587e-05
0.000107721
0.000216445
5.56067e-05
0.000202922
0.000107728
0.00021643
5.56107e-05
4.55576e-05
4.92565e-05
4.55598e-05
4.92569e-05
0.000107685
0.00020293
5.55985e-05
0.000216424
5.5591e-05
0.000216426
0.000107699
4.55486e-05
4.92591e-05
4.92596e-05
4.55498e-05
0.000107684
0.000202913
0.000216423
5.56008e-05
0.000216424
5.55936e-05
0.000107697
4.55482e-05
4.92572e-05
4.92577e-05
4.55493e-05
3.5303e-05
3.53195e-05
0.000180025
3.53018e-05
3.53177e-05
2.56315e-05
2.56312e-05
2.56285e-05
2.56288e-05
0.000179854
3.52953e-05
3.53114e-05
3.52973e-05
3.53135e-05
2.56311e-05
2.56313e-05
0.00010772
0.000216444
5.56032e-05
0.000202933
0.000107727
0.000216429
5.56073e-05
4.55639e-05
4.92562e-05
4.55669e-05
4.92567e-05
4.55637e-05
4.92561e-05
4.55666e-05
4.92566e-05
0.000107683
0.000202923
0.000216423
5.56014e-05
0.000216424
5.55943e-05
0.000107699
0.000107681
0.000202924
0.000216422
5.55974e-05
0.000216423
5.55901e-05
0.000107697
4.5555e-05
4.9257e-05
4.92574e-05
4.55558e-05
4.55548e-05
4.92569e-05
4.92574e-05
4.55555e-05
2.56313e-05
2.5631e-05
2.56303e-05
2.563e-05
0.000179859
3.53112e-05
3.53052e-05
3.53131e-05
3.53072e-05
2.56309e-05
2.56312e-05
2.56299e-05
2.56302e-05
2.56324e-05
2.56322e-05
2.56304e-05
2.56302e-05
3.53091e-05
3.53018e-05
0.000180024
3.53098e-05
3.53025e-05
2.56322e-05
2.56323e-05
2.56302e-05
2.56304e-05
0.000179868
3.53091e-05
3.53019e-05
3.53071e-05
3.52998e-05
4.55473e-05
4.92612e-05
4.55426e-05
4.92605e-05
0.000107702
5.5589e-05
0.000216426
0.000202914
0.000107675
5.56004e-05
0.000216429
0.000107703
5.55859e-05
0.000216426
0.00020291
0.000107676
5.55977e-05
0.000216429
4.55395e-05
4.92606e-05
4.92613e-05
4.55457e-05
4.55402e-05
4.92604e-05
4.92611e-05
4.55464e-05
0.000107678
0.000202914
5.55994e-05
0.000216431
5.55863e-05
0.00021643
0.000107703
0.000107679
0.000202911
5.55967e-05
0.00021643
5.55833e-05
0.00021643
0.000107704
3.53032e-05
3.52989e-05
0.000180028
3.53039e-05
3.52996e-05
2.5632e-05
2.56317e-05
2.56311e-05
2.56311e-05
0.000179871
3.53024e-05
3.5299e-05
3.53013e-05
3.52966e-05
2.56317e-05
2.56319e-05
0.000107703
5.55804e-05
0.000216426
0.000202925
0.000107677
5.55923e-05
0.000216428
4.5552e-05
4.92545e-05
4.55479e-05
4.92537e-05
0.000107703
0.000216422
5.55726e-05
0.000202902
0.000107675
0.000216425
5.55848e-05
4.55471e-05
4.92565e-05
4.92572e-05
4.55526e-05
0.00010768