/*--------------------------------*- C++ -*----------------------------------*\
| =========                 |                                                 |
| \\      /  F ield         | OpenFOAM: The Open Source CFD Toolbox           |
|  \\    /   O peration     | Version:  2206                                  |
|   \\  /    A nd           | Website:  www.openfoam.com                      |
|    \\/     M anipulation  |                                                 |
\*---------------------------------------------------------------------------*/
FoamFile
{
    version     2.0;
    format      ascii;
    arch        "LSB;label=32;scalar=64";
    class       volVectorField;
    location    "21.5";
    object      U;
}
// * * * * * * * * * * * * * * * * * * * * * * * * * * * * * * * * * * * * * //

dimensions      [0 1 -1 0 0 0 0];

internalField   nonuniform List<vector> 
28897
(
(-6.28015e-07 -6.21534e-07 0.102486)
(-4.12895e-07 6.38993e-07 0.102451)
(6.32678e-07 -4.11526e-07 0.102451)
(-4.16561e-05 -4.16684e-05 0.102398)
(-6.38699e-07 -6.30952e-07 0.102486)
(-4.03777e-07 6.32278e-07 0.102451)
(6.29378e-07 -3.99474e-07 0.102451)
(-4.16422e-05 -4.1655e-05 0.102398)
(-6.47915e-07 -6.44901e-07 0.102486)
(-3.81576e-07 6.18742e-07 0.10245)
(6.39321e-07 -4.03479e-07 0.10245)
(-4.16114e-05 -4.16214e-05 0.102398)
(-6.23777e-07 -6.38791e-07 0.102486)
(-3.24579e-07 5.79456e-07 0.10245)
(6.50552e-07 -4.07319e-07 0.10245)
(-4.15665e-05 -4.15955e-05 0.102398)
(-5.66453e-07 -5.55292e-07 0.102486)
(-5.31542e-07 7.02887e-07 0.10245)
(6.59478e-07 -4.90623e-07 0.102451)
(-4.17971e-05 -4.1791e-05 0.102398)
(-6.30485e-07 -6.20727e-07 0.102486)
(-4.1397e-07 6.24023e-07 0.102451)
(6.24329e-07 -4.13465e-07 0.102451)
(-4.16684e-05 -4.16784e-05 0.102398)
(-6.23022e-07 -6.17564e-07 0.102486)
(-4.14242e-07 6.34832e-07 0.102451)
(6.34392e-07 -4.17066e-07 0.102451)
(-4.16738e-05 -4.16893e-05 0.102398)
(-6.22027e-07 -6.17427e-07 0.102486)
(-4.1408e-07 6.35686e-07 0.102451)
(6.35197e-07 -4.1691e-07 0.102451)
(-4.16735e-05 -4.16892e-05 0.102398)
(-6.21961e-07 -6.17286e-07 0.102486)
(-4.14692e-07 6.36064e-07 0.102451)
(6.3547e-07 -4.17717e-07 0.102451)
(-4.16736e-05 -4.16899e-05 0.102398)
(-6.21948e-07 -6.17266e-07 0.102486)
(-4.13198e-07 6.35922e-07 0.102451)
(6.33629e-07 -4.16874e-07 0.102451)
(-4.16697e-05 -4.16912e-05 0.102398)
(-6.16643e-07 -6.11728e-07 0.102486)
(-4.1278e-07 6.35266e-07 0.102451)
(6.34865e-07 -4.17183e-07 0.102451)
(-4.16716e-05 -4.16904e-05 0.102398)
(-6.24032e-07 -6.14456e-07 0.102486)
(-4.14711e-07 6.4737e-07 0.102451)
(6.34876e-07 -4.15874e-07 0.102451)
(-4.1675e-05 -4.16884e-05 0.102398)
(-6.20845e-07 -6.14863e-07 0.102486)
(-4.15427e-07 6.38236e-07 0.102451)
(6.35494e-07 -4.16329e-07 0.102451)
(-4.16748e-05 -4.1689e-05 0.102398)
(-6.19946e-07 -6.15581e-07 0.102486)
(-4.15337e-07 6.38434e-07 0.102451)
(6.35722e-07 -4.16377e-07 0.102451)
(-4.16748e-05 -4.16898e-05 0.102398)
(-6.20388e-07 -6.17214e-07 0.102486)
(-4.15024e-07 6.37665e-07 0.102451)
(6.34429e-07 -4.15471e-07 0.102451)
(-4.16746e-05 -4.169e-05 0.102398)
(-6.20302e-07 -6.17763e-07 0.102486)
(-4.15428e-07 6.37718e-07 0.102451)
(6.34685e-07 -4.15729e-07 0.102451)
(-4.16733e-05 -4.1689e-05 0.102398)
(-6.20449e-07 -6.17943e-07 0.102486)
(-4.13755e-07 6.36751e-07 0.102451)
(6.33934e-07 -4.14066e-07 0.102451)
(-4.16698e-05 -4.16855e-05 0.102398)
(-6.21356e-07 -6.18619e-07 0.102486)
(-4.11727e-07 6.36457e-07 0.102451)
(6.33861e-07 -4.1175e-07 0.102451)
(-4.16603e-05 -4.16758e-05 0.102398)
(-4.34379e-05 -4.34044e-05 0.1024)
(6.58635e-07 4.3606e-07 0.102451)
(-6.59773e-07 4.39089e-07 0.102451)
(4.34353e-05 -4.34098e-05 0.1024)
(4.15213e-07 6.39223e-07 0.102451)
(4.35566e-07 -6.57039e-07 0.102451)
(-4.14033e-07 6.37696e-07 0.102451)
(-4.32676e-07 -6.54225e-07 0.102451)
(-4.34079e-05 4.34424e-05 0.1024)
(6.36152e-07 -4.15469e-07 0.102451)
(-6.36953e-07 -4.16738e-07 0.102451)
(4.34094e-05 4.343e-05 0.1024)
(4.1664e-05 4.16406e-05 0.102398)
(-4.34515e-05 -4.34164e-05 0.1024)
(6.5354e-07 4.26441e-07 0.102451)
(-6.67417e-07 4.34781e-07 0.102451)
(6.4964e-07 4.22137e-07 0.102451)
(-6.53736e-07 4.21642e-07 0.102451)
(-4.1664e-05 4.16389e-05 0.102398)
(4.34465e-05 -4.3423e-05 0.1024)
(4.11692e-07 6.35597e-07 0.102451)
(4.28163e-07 -6.52795e-07 0.102451)
(4.00246e-07 6.31546e-07 0.102451)
(4.21082e-07 -6.49137e-07 0.10245)
(-4.2738e-07 -6.48834e-07 0.102451)
(-3.97527e-07 6.27199e-07 0.102451)
(-4.18839e-07 -6.42038e-07 0.102451)
(4.16413e-05 -4.16737e-05 0.102398)
(-4.34204e-05 4.34549e-05 0.1024)
(-6.32678e-07 -4.08438e-07 0.102451)
(6.27863e-07 -4.0124e-07 0.102451)
(-6.29676e-07 -4.00903e-07 0.102451)
(4.34216e-05 4.34454e-05 0.1024)
(4.16503e-05 4.16287e-05 0.102398)
(-4.34911e-05 -4.34594e-05 0.1024)
(6.49889e-07 4.15533e-07 0.10245)
(-6.59318e-07 4.21403e-07 0.10245)
(6.33973e-07 3.95673e-07 0.10245)
(-6.34575e-07 3.93753e-07 0.10245)
(-4.16497e-05 4.16227e-05 0.102398)
(4.34772e-05 -4.34487e-05 0.1024)
(3.996e-07 6.32326e-07 0.102451)
(4.17382e-07 -6.49602e-07 0.10245)
(3.76943e-07 6.14967e-07 0.10245)
(3.95867e-07 -6.32496e-07 0.10245)
(-4.19825e-07 -6.43937e-07 0.10245)
(-3.62856e-07 6.07207e-07 0.10245)
(-3.87029e-07 -6.24252e-07 0.10245)
(4.16291e-05 -4.16605e-05 0.102398)
(-4.34627e-05 4.34962e-05 0.1024)
(-6.2985e-07 -3.9599e-07 0.102451)
(6.12594e-07 -3.76415e-07 0.10245)
(-6.11704e-07 -3.77015e-07 0.10245)
(4.34613e-05 4.34823e-05 0.1024)
(4.16207e-05 4.15948e-05 0.102398)
(-4.35607e-05 -4.3535e-05 0.1024)
(6.60969e-07 4.16702e-07 0.10245)
(-6.45072e-07 4.10304e-07 0.10245)
(5.98845e-07 3.33432e-07 0.10245)
(-5.90078e-07 3.37385e-07 0.10245)
(-4.16223e-05 4.15963e-05 0.102398)
(4.35369e-05 -4.35061e-05 0.1024)
(4.05564e-07 6.4014e-07 0.10245)
(4.20339e-07 -6.58135e-07 0.10245)
(3.20907e-07 5.70275e-07 0.10245)
(3.39127e-07 -5.92305e-07 0.10245)
(-4.11078e-07 -6.49719e-07 0.10245)
(-3.06325e-07 5.6905e-07 0.10245)
(-3.20495e-07 -5.87916e-07 0.10245)
(4.15964e-05 -4.16293e-05 0.102398)
(-4.3532e-05 4.35701e-05 0.1024)
(-6.3499e-07 -4.01685e-07 0.10245)
(5.74272e-07 -3.17034e-07 0.10245)
(-5.60797e-07 -3.20819e-07 0.10245)
(4.35383e-05 4.35545e-05 0.1024)
(4.15983e-05 4.15653e-05 0.102398)
(-4.33276e-05 -4.3296e-05 0.1024)
(6.79984e-07 4.14235e-07 0.10245)
(-5.93521e-07 3.81274e-07 0.10245)
(7.25729e-07 5.54416e-07 0.10245)
(-7.48934e-07 5.73533e-07 0.10245)
(-4.1567e-05 4.15499e-05 0.102398)
(4.33046e-05 -4.32709e-05 0.1024)
(4.14598e-07 6.43491e-07 0.10245)
(4.2638e-07 -6.6665e-07 0.10245)
(5.35954e-07 6.99684e-07 0.10245)
(5.57247e-07 -7.20214e-07 0.10245)
(-3.74913e-07 -6.60121e-07 0.10245)
(-5.52749e-07 7.26894e-07 0.10245)
(-5.60432e-07 -7.27859e-07 0.10245)
(4.15738e-05 -4.16015e-05 0.102398)
(-4.32962e-05 4.33345e-05 0.1024)
(-6.22518e-07 -4.12222e-07 0.10245)
(6.99793e-07 -5.34727e-07 0.10245)
(-7.00081e-07 -5.37419e-07 0.10245)
(4.32921e-05 4.33157e-05 0.1024)
(4.17868e-05 4.17662e-05 0.102398)
(-4.3473e-05 -4.3436e-05 0.1024)
(6.7793e-07 5.09935e-07 0.10245)
(-7.37473e-07 5.35352e-07 0.10245)
(6.37898e-07 4.35859e-07 0.102451)
(-6.5808e-07 4.40794e-07 0.102451)
(-4.18392e-05 4.18085e-05 0.102398)
(4.34646e-05 -4.34419e-05 0.1024)
(4.90723e-07 6.63319e-07 0.102451)
(5.09662e-07 -6.80409e-07 0.10245)
(4.10811e-07 6.26784e-07 0.102451)
(4.30861e-07 -6.42088e-07 0.102451)
(-5.27478e-07 -6.73724e-07 0.10245)
(-4.22263e-07 6.25662e-07 0.102451)
(-4.39104e-07 -6.32582e-07 0.102451)
(4.17678e-05 -4.17966e-05 0.102398)
(-4.34431e-05 4.34742e-05 0.1024)
(-6.67913e-07 -4.84935e-07 0.10245)
(6.1941e-07 -4.13295e-07 0.102451)
(-6.27456e-07 -4.11868e-07 0.102451)
(4.34379e-05 4.34656e-05 0.1024)
(4.16736e-05 4.1653e-05 0.102398)
(-4.34615e-05 -4.34286e-05 0.1024)
(6.43752e-07 4.29997e-07 0.102451)
(-6.53752e-07 4.34471e-07 0.102451)
(6.54842e-07 4.3417e-07 0.102451)
(-6.60062e-07 4.37425e-07 0.102451)
(-4.16694e-05 4.16423e-05 0.102398)
(4.34633e-05 -4.34342e-05 0.1024)
(4.12721e-07 6.30162e-07 0.102451)
(4.29038e-07 -6.45962e-07 0.102451)
(4.13405e-07 6.36027e-07 0.102451)
(4.32968e-07 -6.53723e-07 0.102451)
(-4.32022e-07 -6.38155e-07 0.102451)
(-4.12665e-07 6.33422e-07 0.102451)
(-4.32164e-07 -6.50657e-07 0.102451)
(4.16508e-05 -4.16856e-05 0.102398)
(-4.34321e-05 4.34659e-05 0.1024)
(-6.28042e-07 -4.09251e-07 0.102451)
(6.32313e-07 -4.14316e-07 0.102451)
(-6.33663e-07 -4.15001e-07 0.102451)
(4.34338e-05 4.3453e-05 0.1024)
(4.1684e-05 4.16609e-05 0.102398)
(-4.34602e-05 -4.34287e-05 0.1024)
(6.56306e-07 4.3197e-07 0.102451)
(-6.61075e-07 4.37535e-07 0.102451)
(6.56733e-07 4.34354e-07 0.102451)
(-6.62305e-07 4.38747e-07 0.102451)
(-4.1676e-05 4.16525e-05 0.102398)
(4.34615e-05 -4.34326e-05 0.1024)
(4.17585e-07 6.37254e-07 0.102451)
(4.33653e-07 -6.54865e-07 0.102451)
(4.146e-07 6.36714e-07 0.102451)
(4.34261e-07 -6.54935e-07 0.102451)
(-4.31406e-07 -6.51144e-07 0.102451)
(-4.13512e-07 6.35891e-07 0.102451)
(-4.31993e-07 -6.52083e-07 0.102451)
(4.16611e-05 -4.16936e-05 0.102398)
(-4.34308e-05 4.34652e-05 0.1024)
(-6.33537e-07 -4.14123e-07 0.102451)
(6.34254e-07 -4.1479e-07 0.102451)
(-6.3396e-07 -4.15564e-07 0.102451)
(4.34336e-05 4.34525e-05 0.1024)
(4.16845e-05 4.16613e-05 0.102398)
(-4.34601e-05 -4.34295e-05 0.1024)
(6.57047e-07 4.31698e-07 0.102451)
(-6.61315e-07 4.37279e-07 0.102451)
(6.56391e-07 4.33868e-07 0.102451)
(-6.62846e-07 4.38785e-07 0.102451)
(-4.16771e-05 4.16533e-05 0.102398)
(4.3461e-05 -4.34323e-05 0.1024)
(4.17736e-07 6.36913e-07 0.102451)
(4.33931e-07 -6.55124e-07 0.102451)
(4.14727e-07 6.3645e-07 0.102451)
(4.34339e-07 -6.55263e-07 0.102451)
(-4.3087e-07 -6.51457e-07 0.102451)
(-4.14072e-07 6.36346e-07 0.102451)
(-4.32486e-07 -6.52491e-07 0.102451)
(4.16617e-05 -4.16936e-05 0.102398)
(-4.34307e-05 4.3465e-05 0.1024)
(-6.33174e-07 -4.14091e-07 0.102451)
(6.34401e-07 -4.15155e-07 0.102451)
(-6.34192e-07 -4.16217e-07 0.102451)
(4.34334e-05 4.34522e-05 0.1024)
(4.16845e-05 4.16616e-05 0.102398)
(-4.34605e-05 -4.34313e-05 0.1024)
(6.57302e-07 4.32374e-07 0.102451)
(-6.61744e-07 4.38069e-07 0.102451)
(6.54765e-07 4.32737e-07 0.102451)
(-6.63039e-07 4.39401e-07 0.102451)
(-4.16773e-05 4.16535e-05 0.102398)
(4.34629e-05 -4.34319e-05 0.1024)
(4.17902e-07 6.36778e-07 0.102451)
(4.3439e-07 -6.55677e-07 0.102451)
(4.15836e-07 6.35508e-07 0.102451)
(4.3452e-07 -6.55268e-07 0.102451)
(-4.31562e-07 -6.51888e-07 0.102451)
(-4.131e-07 6.36792e-07 0.102451)
(-4.34447e-07 -6.52774e-07 0.102451)
(4.16619e-05 -4.16941e-05 0.102398)
(-4.3432e-05 4.34646e-05 0.1024)
(-6.33241e-07 -4.14871e-07 0.102451)
(6.332e-07 -4.14689e-07 0.102451)
(-6.32507e-07 -4.18573e-07 0.102451)
(4.3437e-05 4.34509e-05 0.1024)
(4.1682e-05 4.16594e-05 0.102398)
(-4.34522e-05 -4.34367e-05 0.1024)
(6.54901e-07 4.31418e-07 0.102451)
(-6.60005e-07 4.40566e-07 0.102451)
(6.5541e-07 4.34497e-07 0.102451)
(-6.60852e-07 4.4388e-07 0.102451)
(-4.16749e-05 4.1655e-05 0.102398)
(4.34627e-05 -4.34286e-05 0.1024)
(4.19994e-07 6.35307e-07 0.102451)
(4.34568e-07 -6.5542e-07 0.102451)
(4.22064e-07 6.38378e-07 0.102451)
(4.359e-07 -6.54967e-07 0.102451)
(-4.35733e-07 -6.52671e-07 0.102451)
(-4.10801e-07 6.33473e-07 0.102451)
(-4.38449e-07 -6.53428e-07 0.102451)
(4.16605e-05 -4.16942e-05 0.102398)
(-4.34319e-05 4.34652e-05 0.1024)
(-6.2949e-07 -4.19268e-07 0.102451)
(6.33063e-07 -4.15406e-07 0.102451)
(-6.29304e-07 -4.20856e-07 0.102451)
(4.3437e-05 4.34513e-05 0.1024)
(4.16897e-05 4.16628e-05 0.102398)
(-4.34627e-05 -4.34356e-05 0.1024)
(6.60787e-07 4.42551e-07 0.102451)
(-6.61279e-07 4.37979e-07 0.102451)
(6.51049e-07 4.28304e-07 0.102451)
(-6.66682e-07 4.51645e-07 0.102451)
(-4.16785e-05 4.16541e-05 0.102398)
(4.34562e-05 -4.34214e-05 0.1024)
(4.26176e-07 6.40212e-07 0.102451)
(4.35962e-07 -6.54921e-07 0.102451)
(4.14878e-07 6.35336e-07 0.102451)
(4.353e-07 -6.54511e-07 0.102451)
(-4.3464e-07 -6.51971e-07 0.102451)
(-4.15232e-07 6.4471e-07 0.102451)
(-4.33853e-07 -6.50797e-07 0.102451)
(4.16613e-05 -4.1694e-05 0.102398)
(-4.34314e-05 4.34658e-05 0.1024)
(-6.31091e-07 -4.16386e-07 0.102451)
(6.34294e-07 -4.14496e-07 0.102451)
(-6.34266e-07 -4.15297e-07 0.102451)
(4.34328e-05 4.34539e-05 0.1024)
(4.16776e-05 4.1665e-05 0.102398)
(-4.34592e-05 -4.343e-05 0.1024)
(6.52801e-07 4.37249e-07 0.102451)
(-6.69062e-07 4.52897e-07 0.102451)
(6.54862e-07 4.32085e-07 0.102451)
(-6.59059e-07 4.38692e-07 0.102451)
(-4.1685e-05 4.16696e-05 0.102398)
(4.34602e-05 -4.34327e-05 0.1024)
(4.16865e-07 6.38773e-07 0.102451)
(4.34812e-07 -6.55098e-07 0.102451)
(4.15358e-07 6.39187e-07 0.102451)
(4.35281e-07 -6.55247e-07 0.102451)
(-4.32933e-07 -6.49882e-07 0.102451)
(-4.13824e-07 6.38487e-07 0.102451)
(-4.33596e-07 -6.51042e-07 0.102451)
(4.16616e-05 -4.16936e-05 0.102398)
(-4.34315e-05 4.34653e-05 0.1024)
(-6.33551e-07 -4.13571e-07 0.102451)
(6.34228e-07 -4.1453e-07 0.102451)
(-6.34462e-07 -4.15448e-07 0.102451)
(4.3433e-05 4.34535e-05 0.1024)
(4.16807e-05 4.1668e-05 0.102398)
(-4.3457e-05 -4.34294e-05 0.1024)
(6.55372e-07 4.3643e-07 0.102451)
(-6.58992e-07 4.39372e-07 0.102451)
(6.57229e-07 4.32181e-07 0.102451)
(-6.58887e-07 4.38459e-07 0.102451)
(-4.16783e-05 4.16532e-05 0.102398)
(4.34611e-05 -4.34332e-05 0.1024)
(4.18448e-07 6.39691e-07 0.102451)
(4.3557e-07 -6.55787e-07 0.102451)
(4.16606e-07 6.39614e-07 0.102451)
(4.36016e-07 -6.55955e-07 0.102451)
(-4.3286e-07 -6.51321e-07 0.102451)
(-4.15137e-07 6.38685e-07 0.102451)
(-4.33674e-07 -6.52611e-07 0.102451)
(4.16618e-05 -4.16941e-05 0.102398)
(-4.34309e-05 4.34648e-05 0.1024)
(-6.34124e-07 -4.1436e-07 0.102451)
(6.35035e-07 -4.15354e-07 0.102451)
(-6.34653e-07 -4.16646e-07 0.102451)
(4.34329e-05 4.34523e-05 0.1024)
(4.16826e-05 4.16687e-05 0.102398)
(-4.34567e-05 -4.343e-05 0.1024)
(6.56699e-07 4.36887e-07 0.102451)
(-6.58847e-07 4.38799e-07 0.102451)
(6.56543e-07 4.30805e-07 0.102451)
(-6.58759e-07 4.38003e-07 0.102451)
(-4.16778e-05 4.16536e-05 0.102398)
(4.34612e-05 -4.34335e-05 0.1024)
(4.19958e-07 6.40475e-07 0.102451)
(4.35924e-07 -6.56255e-07 0.102451)
(4.16357e-07 6.3927e-07 0.102451)
(4.35498e-07 -6.55713e-07 0.102451)
(-4.32519e-07 -6.51988e-07 0.102451)
(-4.14756e-07 6.38263e-07 0.102451)
(-4.32766e-07 -6.52445e-07 0.102451)
(4.16623e-05 -4.16946e-05 0.102398)
(-4.34309e-05 4.34648e-05 0.1024)
(-6.33891e-07 -4.14468e-07 0.102451)
(6.34836e-07 -4.15203e-07 0.102451)
(-6.34186e-07 -4.16549e-07 0.102451)
(4.34332e-05 4.34522e-05 0.1024)
(4.16826e-05 4.16675e-05 0.102398)
(-4.34552e-05 -4.34305e-05 0.1024)
(6.55446e-07 4.35138e-07 0.102451)
(-6.58137e-07 4.37073e-07 0.102451)
(6.55399e-07 4.29505e-07 0.102451)
(-6.59117e-07 4.37485e-07 0.102451)
(-4.16777e-05 4.16531e-05 0.102398)
(4.34597e-05 -4.34322e-05 0.1024)
(4.19027e-07 6.39518e-07 0.102451)
(4.3504e-07 -6.55889e-07 0.102451)
(4.16616e-07 6.38425e-07 0.102451)
(4.353e-07 -6.55801e-07 0.102451)
(-4.31418e-07 -6.51659e-07 0.102451)
(-4.14901e-07 6.38071e-07 0.102451)
(-4.32833e-07 -6.52722e-07 0.102451)
(4.16622e-05 -4.16946e-05 0.102398)
(-4.34294e-05 4.34631e-05 0.1024)
(-6.33085e-07 -4.1374e-07 0.102451)
(6.34841e-07 -4.15364e-07 0.102451)
(-6.34426e-07 -4.17245e-07 0.102451)
(4.34315e-05 4.34502e-05 0.1024)
(4.16812e-05 4.16642e-05 0.102398)
(-4.34543e-05 -4.34305e-05 0.1024)
(6.54813e-07 4.342e-07 0.102451)
(-6.58715e-07 4.37138e-07 0.102451)
(6.55374e-07 4.2951e-07 0.102451)
(-6.58746e-07 4.37246e-07 0.102451)
(-4.16762e-05 4.16514e-05 0.102398)
(4.34599e-05 -4.34323e-05 0.1024)
(4.19771e-07 6.39073e-07 0.102451)
(4.35023e-07 -6.55906e-07 0.102451)
(4.17335e-07 6.3836e-07 0.102451)
(4.35491e-07 -6.55498e-07 0.102451)
(-4.31709e-07 -6.52006e-07 0.102451)
(-4.14708e-07 6.37751e-07 0.102451)
(-4.32333e-07 -6.52172e-07 0.102451)
(4.16606e-05 -4.16931e-05 0.102398)
(-4.34293e-05 4.3463e-05 0.1024)
(-6.33505e-07 -4.14067e-07 0.102451)
(6.34624e-07 -4.15048e-07 0.102451)
(-6.33694e-07 -4.16855e-07 0.102451)
(4.34319e-05 4.34506e-05 0.1024)
(4.16787e-05 4.1661e-05 0.102398)
(-4.34475e-05 -4.34235e-05 0.1024)
(6.5386e-07 4.32916e-07 0.102451)
(-6.57646e-07 4.35523e-07 0.102451)
(6.55011e-07 4.28556e-07 0.102451)
(-6.58804e-07 4.36178e-07 0.102451)
(-4.16729e-05 4.16482e-05 0.102398)
(4.34524e-05 -4.34252e-05 0.1024)
(4.18682e-07 6.38086e-07 0.102451)
(4.33755e-07 -6.5494e-07 0.102451)
(4.15938e-07 6.38181e-07 0.102451)
(4.34529e-07 -6.55672e-07 0.102451)
(-4.2983e-07 -6.507e-07 0.102451)
(-4.14109e-07 6.37762e-07 0.102451)
(-4.31834e-07 -6.5233e-07 0.102451)
(4.16576e-05 -4.16901e-05 0.102398)
(-4.34217e-05 4.34556e-05 0.1024)
(-6.32141e-07 -4.12081e-07 0.102451)
(6.35024e-07 -4.14286e-07 0.102451)
(-6.34244e-07 -4.15879e-07 0.102451)
(4.34245e-05 4.34435e-05 0.1024)
(4.1668e-05 4.16506e-05 0.102398)
(6.53156e-07 4.30346e-07 0.102451)
(-6.57419e-07 4.3287e-07 0.102451)
(-4.16629e-05 4.16379e-05 0.102398)
(4.15786e-07 6.37615e-07 0.102451)
(4.31596e-07 -6.55042e-07 0.102451)
(-4.27871e-07 -6.50547e-07 0.102451)
(4.16477e-05 -4.16799e-05 0.102398)
(-6.32392e-07 -4.09683e-07 0.102451)
(-6.24192e-07 -6.16584e-07 0.102486)
(6.20633e-07 -6.20389e-07 0.102486)
(-6.17235e-07 6.209e-07 0.102486)
(6.15526e-07 6.18892e-07 0.102486)
(4.54523e-08 -8.80706e-06 0.100698)
(7.03156e-07 6.40521e-06 0.0944123)
(-5.10485e-08 8.52981e-06 0.10069)
(-1.06945e-06 -6.38232e-06 0.0944261)
(-1.8279e-06 2.52887e-06 0.0829328)
(1.74318e-06 -2.51739e-06 0.0829461)
(-8.86775e-06 4.52219e-08 0.100697)
(6.4475e-06 6.94743e-07 0.0944123)
(8.58937e-06 -3.6628e-08 0.10069)
(-6.42113e-06 -1.0504e-06 0.0944261)
(6.19593e-07 -6.23329e-07 0.102486)
(-6.21682e-07 6.24649e-07 0.102486)
(6.17832e-07 6.23832e-07 0.102486)
(-6.36187e-07 -6.26475e-07 0.102486)
(6.27879e-07 -6.29712e-07 0.102486)
(-6.28612e-07 6.31508e-07 0.102486)
(6.24278e-07 6.30965e-07 0.102486)
(1.42602e-05 5.09865e-08 0.102104)
(-1.37628e-05 3.96849e-06 0.100982)
(-5.16679e-07 -1.68312e-07 0.102476)
(-4.05013e-07 6.32597e-07 0.102451)
(-1.42999e-05 -5.15983e-08 0.102101)
(1.32337e-05 -4.29573e-06 0.100995)
(-5.06905e-07 -1.70152e-07 0.102476)
(2.41365e-06 -1.73193e-06 0.0829298)
(-2.41862e-06 1.67611e-06 0.0829463)
(5.48714e-08 1.42736e-05 0.102104)
(-1.74652e-07 -5.11943e-07 0.102476)
(3.98856e-06 -1.37994e-05 0.100982)
(6.28112e-07 -4.01128e-07 0.102451)
(-6.032e-08 -1.43116e-05 0.102101)
(-1.76877e-07 -4.95749e-07 0.102476)
(-4.33727e-06 1.32807e-05 0.100994)
(-4.29484e-06 -5.25067e-06 0.0989015)
(-5.23929e-06 -4.28578e-06 0.0989009)
(4.3417e-05 4.34396e-05 0.1024)
(4.06675e-06 5.09317e-06 0.0989146)
(5.08484e-06 4.05485e-06 0.0989139)
(4.18282e-08 -8.85216e-06 0.100698)
(7.2359e-07 6.35334e-06 0.0944128)
(-5.79217e-08 8.48867e-06 0.10069)
(-1.06534e-06 -6.41559e-06 0.0944266)
(-1.77793e-06 2.44596e-06 0.0829332)
(1.77111e-06 -2.5923e-06 0.0829469)
(-8.90738e-06 3.89077e-08 0.100697)
(6.39753e-06 7.13493e-07 0.0944128)
(8.54944e-06 -4.07087e-08 0.10069)
(-6.4562e-06 -1.04666e-06 0.0944265)
(6.27542e-07 -6.31527e-07 0.102486)
(-6.31847e-07 6.35066e-07 0.102486)
(6.26625e-07 6.34467e-07 0.102486)
(-6.47337e-07 -6.40741e-07 0.102486)
(6.43846e-07 -6.43354e-07 0.102486)
(-6.41069e-07 6.44964e-07 0.102486)
(6.39083e-07 6.42445e-07 0.102486)
(1.42945e-05 4.69771e-08 0.102104)
(-1.37186e-05 3.92469e-06 0.100982)
(-5.01226e-07 -1.75075e-07 0.102476)
(-3.93422e-07 6.29101e-07 0.102451)
(-1.42625e-05 -5.34433e-08 0.1021)
(1.32724e-05 -4.32485e-06 0.100994)
(-4.88529e-07 -1.77757e-07 0.102476)
(2.33481e-06 -1.72352e-06 0.0829305)
(-2.48939e-06 1.72284e-06 0.0829474)
(5.02935e-08 1.43167e-05 0.102104)
(-1.82161e-07 -4.93831e-07 0.102476)
(3.95788e-06 -1.37594e-05 0.100982)
(6.16215e-07 -3.76224e-07 0.10245)
(-6.38095e-08 -1.42713e-05 0.1021)
(-1.84443e-07 -4.66442e-07 0.102476)
(-4.38561e-06 1.33329e-05 0.100994)
(-4.30167e-06 -5.24115e-06 0.0989015)
(-5.23609e-06 -4.30612e-06 0.0989009)
(4.34385e-05 4.34646e-05 0.1024)
(4.05609e-06 5.11413e-06 0.0989146)
(5.10222e-06 4.05984e-06 0.0989138)
(4.618e-08 -8.91916e-06 0.100698)
(7.15515e-07 6.32252e-06 0.0944133)
(-7.15851e-08 8.4564e-06 0.100689)
(-1.03764e-06 -6.44891e-06 0.0944273)
(-1.77616e-06 2.40676e-06 0.0829344)
(1.80567e-06 -2.61973e-06 0.0829486)
(-8.97349e-06 3.15514e-08 0.100697)
(6.36941e-06 7.01754e-07 0.0944133)
(8.5151e-06 -5.46888e-08 0.10069)
(-6.48668e-06 -1.02797e-06 0.0944272)
(6.46457e-07 -6.45559e-07 0.102486)
(-6.42913e-07 6.47147e-07 0.102486)
(6.42349e-07 6.43957e-07 0.102486)
(-6.60343e-07 -6.63944e-07 0.102486)
(6.66766e-07 -6.6176e-07 0.102486)
(-6.56268e-07 6.63211e-07 0.102486)
(6.664e-07 6.57665e-07 0.102486)
(1.43492e-05 3.6902e-08 0.102104)
(-1.36742e-05 3.8911e-06 0.100982)
(-4.76265e-07 -1.85481e-07 0.102476)
(-3.96458e-07 6.37385e-07 0.10245)
(-1.42325e-05 -6.12405e-08 0.1021)
(1.33247e-05 -4.39604e-06 0.100994)
(-4.84953e-07 -1.85423e-07 0.102476)
(2.27212e-06 -1.62777e-06 0.0829319)
(-2.46366e-06 1.64019e-06 0.0829491)
(4.99871e-08 1.43625e-05 0.102103)
(-1.87612e-07 -4.86262e-07 0.102476)
(3.89606e-06 -1.37089e-05 0.100982)
(6.19671e-07 -3.73288e-07 0.10245)
(-6.88677e-08 -1.42377e-05 0.1021)
(-1.8209e-07 -4.64849e-07 0.102476)
(-4.40722e-06 1.33628e-05 0.100994)
(-4.30753e-06 -5.18952e-06 0.0989015)
(-5.18839e-06 -4.26804e-06 0.0989009)
(4.34476e-05 4.34579e-05 0.1024)
(4.12523e-06 5.10321e-06 0.0989146)
(5.11192e-06 4.07337e-06 0.0989139)
(1.17698e-07 -8.82483e-06 0.100698)
(7.22461e-07 6.30049e-06 0.0944141)
(-6.25422e-08 8.40713e-06 0.100689)
(-1.01876e-06 -6.33886e-06 0.0944281)
(-1.61677e-06 2.36446e-06 0.0829362)
(1.8297e-06 -2.52533e-06 0.0829512)
(-8.87299e-06 7.17508e-08 0.100697)
(6.34782e-06 6.95311e-07 0.094414)
(8.47212e-06 -6.77673e-08 0.100689)
(-6.37043e-06 -1.01728e-06 0.094428)
(6.76837e-07 -6.60157e-07 0.102486)
(-6.2518e-07 6.33225e-07 0.102486)
(6.54083e-07 6.23223e-07 0.102486)
(-5.33124e-07 -5.28411e-07 0.102486)
(5.37932e-07 -5.3318e-07 0.102486)
(-5.26101e-07 5.30535e-07 0.102486)
(5.28816e-07 5.27566e-07 0.102486)
(1.42974e-05 2.0263e-08 0.102103)
(-1.36183e-05 3.85197e-06 0.100982)
(-4.23972e-07 -2.04769e-07 0.102475)
(-4.17403e-07 6.47459e-07 0.10245)
(-1.41947e-05 -7.86666e-08 0.1021)
(1.32907e-05 -4.44184e-06 0.100994)
(-5.20453e-07 -1.97532e-07 0.102475)
(2.21175e-06 -1.61374e-06 0.0829342)
(-2.26787e-06 1.45282e-06 0.082951)
(7.22723e-08 1.41779e-05 0.102103)
(-1.76829e-07 -4.85376e-07 0.102475)
(3.8596e-06 -1.36626e-05 0.100982)
(7.20282e-07 -5.07131e-07 0.10245)
(-6.70064e-08 -1.41911e-05 0.1021)
(-1.50177e-07 -6.02523e-07 0.102475)
(-4.30253e-06 1.31901e-05 0.100993)
(-4.16208e-06 -5.1852e-06 0.0989016)
(-5.14117e-06 -4.175e-06 0.098901)
(4.338e-05 4.33415e-05 0.1024)
(4.09465e-06 4.91948e-06 0.0989148)
(5.0007e-06 3.96177e-06 0.0989139)
(2.14384e-09 -8.60122e-06 0.100698)
(7.94197e-07 7.05481e-06 0.0944136)
(-9.25596e-08 8.8545e-06 0.100689)
(-1.02044e-06 -5.96799e-06 0.0944264)
(-1.98321e-06 2.79059e-06 0.0829356)
(1.65189e-06 -2.34396e-06 0.0829472)
(-8.66109e-06 1.48858e-08 0.100697)
(7.09265e-06 7.90127e-07 0.0944136)
(8.90982e-06 -7.49331e-08 0.100689)
(-6.02448e-06 -9.90076e-07 0.0944263)
(5.30547e-07 -5.39517e-07 0.102486)
(-5.57398e-07 5.60261e-07 0.102486)
(5.43053e-07 5.61177e-07 0.102486)
(-6.30907e-07 -6.17259e-07 0.102486)
(6.06497e-07 -6.1395e-07 0.102486)
(-6.23621e-07 6.24708e-07 0.102486)
(6.10735e-07 6.24707e-07 0.102486)
(1.3947e-05 8.06009e-08 0.102104)
(-1.40961e-05 4.24129e-06 0.100982)
(-6.84516e-07 -1.29279e-07 0.102476)
(-4.84926e-07 6.66393e-07 0.102451)
(-1.47716e-05 -3.77077e-08 0.1021)
(1.29514e-05 -4.00252e-06 0.100994)
(-6.33736e-07 -1.35263e-07 0.102476)
(2.65271e-06 -1.77985e-06 0.0829315)
(-2.26577e-06 1.69163e-06 0.0829467)
(5.47545e-08 1.40402e-05 0.102104)
(-1.50693e-07 -6.436e-07 0.102476)
(4.27093e-06 -1.41258e-05 0.100982)
(6.30626e-07 -4.46674e-07 0.102451)
(-4.15075e-08 -1.47528e-05 0.1021)
(-1.65735e-07 -5.92325e-07 0.102476)
(-4.15273e-06 1.30836e-05 0.100994)
(-4.45574e-06 -5.2365e-06 0.0989013)
(-5.26635e-06 -4.37407e-06 0.0989007)
(4.34024e-05 4.34535e-05 0.1024)
(4.02632e-06 5.16173e-06 0.0989143)
(5.09788e-06 4.04371e-06 0.0989136)
(3.99348e-08 -8.78013e-06 0.100698)
(7.37708e-07 6.50518e-06 0.0944122)
(-7.18662e-08 8.57494e-06 0.10069)
(-1.04944e-06 -6.28612e-06 0.0944258)
(-1.79142e-06 2.54045e-06 0.0829329)
(1.74778e-06 -2.49293e-06 0.0829461)
(-8.83706e-06 3.73262e-08 0.100697)
(6.54665e-06 7.22914e-07 0.0944122)
(8.63013e-06 -4.52296e-08 0.10069)
(-6.32768e-06 -1.03026e-06 0.0944257)
(6.16416e-07 -6.21478e-07 0.102486)
(-6.24153e-07 6.25753e-07 0.102486)
(6.15241e-07 6.2539e-07 0.102486)
(-6.25132e-07 -6.17033e-07 0.102486)
(6.20597e-07 -6.21758e-07 0.102486)
(-6.19017e-07 6.21439e-07 0.102486)
(6.15831e-07 6.19643e-07 0.102486)
(1.42078e-05 4.7919e-08 0.102104)
(-1.3819e-05 3.9976e-06 0.100982)
(-5.37786e-07 -1.67597e-07 0.102476)
(-4.111e-07 6.27317e-07 0.102451)
(-1.43753e-05 -4.77506e-08 0.102101)
(1.31962e-05 -4.28208e-06 0.100995)
(-5.27693e-07 -1.7071e-07 0.102476)
(2.41747e-06 -1.71143e-06 0.0829299)
(-2.38321e-06 1.67857e-06 0.0829462)
(5.28983e-08 1.42222e-05 0.102104)
(-1.76735e-07 -5.23633e-07 0.102476)
(4.00673e-06 -1.38406e-05 0.100982)
(6.27391e-07 -4.11906e-07 0.102451)
(-6.46581e-08 -1.43656e-05 0.102101)
(-1.75968e-07 -5.21631e-07 0.102476)
(-4.32109e-06 1.32469e-05 0.100994)
(-4.30112e-06 -5.22954e-06 0.0989014)
(-5.22832e-06 -4.30138e-06 0.0989008)
(4.34375e-05 4.34581e-05 0.1024)
(4.05653e-06 5.09904e-06 0.0989145)
(5.09069e-06 4.04699e-06 0.0989138)
(4.21884e-08 -8.78463e-06 0.100698)
(7.36885e-07 6.47661e-06 0.0944121)
(-6.01523e-08 8.54731e-06 0.10069)
(-1.04863e-06 -6.29216e-06 0.0944258)
(-1.79642e-06 2.51465e-06 0.0829328)
(1.74251e-06 -2.50234e-06 0.0829461)
(-8.84111e-06 3.63295e-08 0.100697)
(6.51858e-06 7.22859e-07 0.0944122)
(8.60657e-06 -4.54656e-08 0.10069)
(-6.33025e-06 -1.03178e-06 0.0944257)
(6.19626e-07 -6.20888e-07 0.102486)
(-6.17531e-07 6.20466e-07 0.102486)
(6.15263e-07 6.18879e-07 0.102486)
(-6.22963e-07 -6.16091e-07 0.102486)
(6.19762e-07 -6.20259e-07 0.102486)
(-6.16708e-07 6.19847e-07 0.102486)
(6.15622e-07 6.18147e-07 0.102486)
(1.42121e-05 4.71835e-08 0.102104)
(-1.37756e-05 3.96291e-06 0.100982)
(-5.25132e-07 -1.70625e-07 0.102476)
(-4.13677e-07 6.35781e-07 0.102451)
(-1.43435e-05 -5.65681e-08 0.102101)
(1.32038e-05 -4.27821e-06 0.100995)
(-5.23252e-07 -1.70804e-07 0.102476)
(2.4029e-06 -1.72748e-06 0.0829299)
(-2.38542e-06 1.67286e-06 0.0829462)
(5.5011e-08 1.42217e-05 0.102104)
(-1.73132e-07 -5.19766e-07 0.102476)
(3.99889e-06 -1.3823e-05 0.100982)
(6.33892e-07 -4.14852e-07 0.102451)
(-6.08881e-08 -1.43533e-05 0.102101)
(-1.73054e-07 -5.2115e-07 0.102476)
(-4.31682e-06 1.32495e-05 0.100994)
(-4.3066e-06 -5.2431e-06 0.0989014)
(-5.23139e-06 -4.30183e-06 0.0989009)
(4.34349e-05 4.34539e-05 0.1024)
(4.05506e-06 5.09711e-06 0.0989145)
(5.09093e-06 4.04786e-06 0.0989138)
(4.25177e-08 -8.78398e-06 0.100698)
(7.40288e-07 6.4836e-06 0.0944122)
(-6.00843e-08 8.54781e-06 0.10069)
(-1.05111e-06 -6.29845e-06 0.0944257)
(-1.80018e-06 2.5183e-06 0.0829328)
(1.74206e-06 -2.50472e-06 0.0829462)
(-8.84096e-06 3.60877e-08 0.100697)
(6.52162e-06 7.26114e-07 0.0944122)
(8.60697e-06 -4.59941e-08 0.10069)
(-6.33142e-06 -1.03425e-06 0.0944256)
(6.19526e-07 -6.20467e-07 0.102486)
(-6.1642e-07 6.19752e-07 0.102486)
(6.15378e-07 6.18171e-07 0.102486)
(-6.23088e-07 -6.16366e-07 0.102486)
(6.19312e-07 -6.20155e-07 0.102486)
(-6.16699e-07 6.19489e-07 0.102486)
(6.15303e-07 6.17744e-07 0.102486)
(1.42121e-05 4.7486e-08 0.102104)
(-1.37755e-05 3.96609e-06 0.100982)
(-5.2438e-07 -1.70385e-07 0.102476)
(-4.13371e-07 6.3592e-07 0.102451)
(-1.43438e-05 -5.5879e-08 0.102101)
(1.32038e-05 -4.27784e-06 0.100995)
(-5.22588e-07 -1.70822e-07 0.102476)
(2.40313e-06 -1.72784e-06 0.0829299)
(-2.38554e-06 1.67299e-06 0.0829462)
(5.53056e-08 1.42219e-05 0.102104)
(-1.72493e-07 -5.19505e-07 0.102476)
(4.00044e-06 -1.3824e-05 0.100982)
(6.34122e-07 -4.14394e-07 0.102451)
(-6.03628e-08 -1.43534e-05 0.102101)
(-1.72756e-07 -5.20771e-07 0.102476)
(-4.31571e-06 1.3251e-05 0.100994)
(-4.30664e-06 -5.24259e-06 0.0989014)
(-5.23107e-06 -4.30146e-06 0.0989009)
(4.34351e-05 4.34538e-05 0.1024)
(4.05535e-06 5.09718e-06 0.0989145)
(5.09089e-06 4.04788e-06 0.0989138)
(4.14812e-08 -8.78362e-06 0.100698)
(7.42198e-07 6.49442e-06 0.0944123)
(-5.96974e-08 8.54726e-06 0.10069)
(-1.05545e-06 -6.31336e-06 0.0944256)
(-1.80038e-06 2.51866e-06 0.0829328)
(1.7443e-06 -2.50942e-06 0.0829462)
(-8.84101e-06 3.55384e-08 0.100697)
(6.52337e-06 7.29689e-07 0.0944123)
(8.60708e-06 -4.66422e-08 0.10069)
(-6.33318e-06 -1.03873e-06 0.0944255)
(6.19028e-07 -6.19907e-07 0.102486)
(-6.16095e-07 6.19332e-07 0.102486)
(6.14811e-07 6.17735e-07 0.102486)
(-6.23375e-07 -6.16649e-07 0.102486)
(6.19738e-07 -6.18517e-07 0.102486)
(-6.15933e-07 6.19264e-07 0.102486)
(6.14668e-07 6.16434e-07 0.102486)
(1.42117e-05 4.76182e-08 0.102104)
(-1.37757e-05 3.96633e-06 0.100982)
(-5.25082e-07 -1.70168e-07 0.102476)
(-4.13841e-07 6.36524e-07 0.102451)
(-1.4344e-05 -5.56973e-08 0.102101)
(1.32035e-05 -4.27747e-06 0.100995)
(-5.23047e-07 -1.70531e-07 0.102476)
(2.40296e-06 -1.72807e-06 0.0829299)
(-2.38568e-06 1.67232e-06 0.0829462)
(5.55261e-08 1.42212e-05 0.102104)
(-1.72458e-07 -5.20258e-07 0.102476)
(3.99957e-06 -1.38263e-05 0.100982)
(6.34131e-07 -4.14569e-07 0.102451)
(-5.98041e-08 -1.43545e-05 0.102101)
(-1.72402e-07 -5.21493e-07 0.102476)
(-4.31418e-06 1.3252e-05 0.100994)
(-4.3065e-06 -5.24267e-06 0.0989014)
(-5.23117e-06 -4.30145e-06 0.0989009)
(4.34353e-05 4.34532e-05 0.1024)
(4.0557e-06 5.09718e-06 0.0989145)
(5.09122e-06 4.04827e-06 0.0989138)
(2.79582e-08 -8.78335e-06 0.100698)
(7.4058e-07 6.51414e-06 0.0944125)
(-6.63376e-08 8.54583e-06 0.10069)
(-1.12689e-06 -6.36425e-06 0.0944254)
(-1.80071e-06 2.52421e-06 0.0829328)
(1.72674e-06 -2.43229e-06 0.082946)
(-8.84105e-06 3.61969e-08 0.100697)
(6.52554e-06 7.31864e-07 0.0944125)
(8.6074e-06 -4.71667e-08 0.10069)
(-6.33289e-06 -1.04136e-06 0.0944253)
(6.19527e-07 -6.16171e-07 0.102486)
(-6.15042e-07 6.19e-07 0.102486)
(6.12462e-07 6.13828e-07 0.102486)
(-6.20225e-07 -6.13767e-07 0.102486)
(6.20769e-07 -6.14745e-07 0.102486)
(-6.14285e-07 6.18249e-07 0.102486)
(6.12475e-07 6.10853e-07 0.102486)
(1.4212e-05 4.68328e-08 0.102104)
(-1.37745e-05 3.96612e-06 0.100982)
(-5.25416e-07 -1.70259e-07 0.102476)